/*--------------------------------*- C++ -*----------------------------------*\
| =========                 |                                                 |
| \\      /  F ield         | OpenFOAM: The Open Source CFD Toolbox           |
|  \\    /   O peration     | Version:  v2006                                 |
|   \\  /    A nd           | Website:  www.openfoam.com                      |
|    \\/     M anipulation  |                                                 |
\*---------------------------------------------------------------------------*/
FoamFile
{
    version     2.0;
    format      ascii;
    class       volScalarField;
    location    "0.012";
    object      isentropic(p);
}
// * * * * * * * * * * * * * * * * * * * * * * * * * * * * * * * * * * * * * //

dimensions      [1 -1 -2 0 0 0 0];


internalField   nonuniform List<scalar> 
12716
(
150022
150021
150029
150030
150030
150030
150030
150031
150032
150033
150032
150031
150029
150028
150027
150026
150025
150025
150025
150025
150024
150024
150024
150024
150024
150024
150023
150023
150023
150023
150023
150022
150022
150022
150022
150021
150021
150021
150021
150021
150020
150020
150020
150020
150020
150019
150019
150019
150018
150018
150018
150017
150017
150016
150016
150014
150013
150011
150010
150011
150013
150015
150017
150016
150016
150017
150018
150026
150039
150038
149968
149897
150033
150054
150055
150021
149831
149763
150005
150052
150046
149988
149702
149645
149970
150039
150031
149953
149596
149553
149936
150023
150016
149919
149515
149481
149903
150007
149999
149887
149450
149422
149873
149991
149984
149859
149397
149374
149845
149976
149969
149833
149353
149333
149820
149962
149955
149809
149315
149298
149797
149948
149942
149787
149282
149267
149776
149935
149929
149766
149254
149241
149756
149922
149917
149747
149230
149219
149738
149910
149905
149730
149209
149199
149721
149899
149893
149713
149190
149182
149705
149887
149882
149697
149174
149167
149690
149876
149871
149682
149160
149153
149675
149865
149860
149668
149147
149141
149661
149854
149849
149654
149135
149130
149647
149843
149838
149641
149125
149120
149634
149832
149828
149628
149116
149111
149621
149821
149817
149615
149108
149104
149609
149810
149806
149603
149101
149097
149597
149799
149794
149591
149095
149092
149585
149788
149783
149579
149090
149087
149573
149777
149771
149567
149086
149084
149561
149765
149760
149555
149083
149081
149549
149753
149748
149544
149081
149080
149538
149741
149735
149532
149079
149079
149526
149728
149723
149521
149079
149079
149515
149715
149709
149509
149080
149080
149503
149702
149696
149498
149081
149082
149492
149688
149682
149486
149084
149085
149480
149674
149667
149474
149088
149090
149468
149659
149652
149463
149093
149096
149456
149644
149636
149451
149099
149103
149444
149627
149619
149438
149107
149111
149432
149610
149601
149425
149115
149120
149418
149591
149581
149411
149125
149130
149403
149570
149559
149395
149135
149140
149386
149545
149532
149376
149146
149151
149364
149516
149499
149351
149156
149160
149336
149477
149453
149318
149165
149166
149294
149422
149386
149267
149174
149160
149213
149327
149260
149170
149163
149172
149155
149194
149160
149158
149177
149190
149173
149154
149172
149195
149208
149224
149218
149199
149248
149253
149249
149230
149235
149239
149253
149249
149245
149215
149221
149227
149249
149244
149236
149194
149205
149210
149238
149234
149219
149184
149199
149202
149230
149228
149211
149186
149201
149204
149225
149223
149208
149191
149205
149207
149219
149217
149204
149193
149205
149207
149212
149210
149198
149191
149201
149203
149203
149201
149191
149185
149195
149196
149193
149192
149183
149179
149188
149189
149185
149184
149176
149173
149181
149181
149178
149178
149171
149168
149174
149174
149172
149172
149166
149165
149169
149169
149167
149167
149164
149162
149165
149165
149164
149164
149162
149161
149162
149162
149163
149163
149162
149161
149161
149161
149163
149164
149164
149162
149161
149161
149165
149166
149166
149164
149164
149164
149169
149169
149169
149168
149169
149169
149174
149174
149172
149173
149175
149175
149179
149179
149176
149177
149182
149182
149186
149186
149180
149181
149189
149190
149194
149193
149184
149185
149196
149198
149202
149200
149187
149187
149204
149206
149210
149208
149188
149189
149211
149214
149217
149214
149189
149188
149217
149221
149224
149219
149187
149186
149221
149227
149229
149223
149184
149182
149224
149231
149233
149224
149179
149175
149224
149234
149234
149224
149172
149167
149222
149234
149234
149221
149163
149158
149218
149233
149232
149216
149153
149147
149212
149230
149227
149209
149141
149135
149204
149225
149221
149200
149129
149123
149195
149218
149214
149190
149117
149111
149185
149209
149205
149179
149105
149098
149174
149200
149195
149168
149093
149087
149163
149189
149184
149157
149081
149077
149153
149179
149174
149148
149071
149175
149169
149166
149163
149164
149168
149168
149172
149172
149176
149175
149174
149173
149170
149169
149162
149160
149157
149156
149156
149154
149155
149154
149151
149134
149111
149060
149063
149112
149134
149088
149044
148998
149020
149068
149114
149114
149066
149018
149024
149071
149120
149120
149071
149025
149029
149075
149124
149125
149076
149031
149036
149080
149129
149130
149082
149038
149042
149087
149135
149137
149088
149044
149048
149093
149142
149144
149095
149051
149055
149099
149149
149151
149101
149057
149061
149106
149156
149158
149108
149064
149067
149113
149163
149165
149115
149070
149074
149119
149170
149172
149121
149076
149080
149125
149177
149179
149127
149082
149086
149132
149184
149186
149133
149088
149092
149138
149191
149192
149139
149094
149098
149143
149197
149199
149145
149100
149103
149149
149204
149205
149150
149105
149108
149154
149210
149212
149155
149110
149113
149159
149217
149219
149160
149115
149118
149165
149225
149227
149166
149119
149122
149171
149233
149235
149172
149123
149127
149178
149241
149243
149180
149128
149131
149186
149249
149250
149188
149132
149136
149194
149257
149259
149197
149138
149141
149203
149267
149270
149206
149143
149147
149213
149278
149283
149216
149148
149152
149222
149291
149296
149226
149153
149157
149233
149306
149312
149237
149158
149162
149245
149323
149330
149249
149164
149167
149258
149342
149350
149262
149169
149173
149272
149363
149371
149277
149175
149179
149288
149385
149394
149294
149180
149185
149305
149409
149419
149311
149186
149191
149323
149434
149444
149331
149193
149198
149344
149461
149471
149352
149202
149208
149367
149488
149499
149377
149213
149221
149394
149517
149528
149404
149228
149236
149421
149545
149556
149432
149243
149252
149450
149573
149584
149461
149259
149269
149478
149600
149611
149490
149276
149287
149508
149627
149637
149519
149295
149307
149538
149653
149665
149551
149318
149332
149572
149682
149694
149584
149344
149360
149606
149710
149722
149619
149375
149394
149641
149739
149750
149654
149410
149429
149674
149765
149777
149689
149447
149468
149708
149792
149803
149721
149485
149508
149741
149817
149830
149758
149530
149552
149776
149844
149855
149790
149572
149595
149807
149868
149880
149823
149618
149643
149840
149892
149904
149854
149666
149692
149871
149916
149925
149884
149713
149740
149899
149937
149947
149912
149764
149788
149924
149956
149965
149935
149811
149839
149952
149978
149985
149963
149859
149776
149922
149968
150001
149971
149842
149870
149988
150013
150023
150005
149905
149936
150018
150032
150039
150032
149969
150001
150038
150047
150064
150069
150037
150046
150080
150071
150081
150095
150063
150077
150108
150090
150093
150115
150089
150093
150130
150110
150116
150145
150106
150117
150160
150125
150134
150172
150131
150142
150184
150148
150146
150192
150151
150162
150196
150152
150136
150188
150170
150176
150184
150125
150148
150193
150182
150187
150192
150151
150119
150176
150190
150190
150163
150114
150140
150164
150192
150190
150145
150109
150097
150130
150189
150189
150113
150080
150074
150100
150189
150187
150085
150063
150049
150069
150189
150190
150055
150035
150052
150035
150208
150178
149994
150004
150042
150025
150261
150214
150113
150206
150049
150028
150363
150066
150147
150200
149998
150128
150302
148516
150192
149939
150065
149915
147167
143586
148033
149286
148099
146453
142060
141251
144875
146878
145295
143573
141277
141438
142834
144687
143886
142311
141542
141587
141909
142952
142811
141760
141635
141631
141645
142363
141838
141517
141663
141701
141472
141469
141616
141515
141731
141747
141458
141372
141350
141472
141785
141822
141484
141304
141489
141503
141860
141892
141499
141204
141573
141514
141934
141970
141454
141267
141511
141500
142059
142146
141584
141337
141818
141656
142262
142342
141743
141626
141944
141956
142495
142662
142145
141907
142377
142339
142840
142970
142573
142535
142929
142890
143159
143295
143114
143136
143186
143250
143413
143534
143422
143477
143567
143532
143607
143745
143709
143738
143737
143784
143817
144034
143992
144045
144032
144002
144007
144191
144184
144227
144333
144296
144277
144298
144312
144331
144538
144512
144479
144505
144555
144623
144697
144612
144548
144618
144686
144763
144739
144671
144601
144824
144902
144954
145006
144920
144833
144869
144959
145046
145005
144920
144825
145035
145142
145210
145246
145148
145036
145054
145167
145267
145218
145118
145002
145216
145346
145424
145448
145345
145213
145206
145346
145462
145479
145368
145226
145161
145306
145417
145614
145531
145378
145373
145525
145634
145637
145523
145372
145306
145458
145574
145777
145688
145522
145511
145679
145793
145791
145672
145504
145423
145594
145717
145927
145837
145659
145644
145826
145943
145935
145811
145631
145543
145726
145855
146070
145970
145769
145758
145960
146085
146077
145945
145744
145650
145853
145991
146205
146102
145888
145869
146085
146210
146191
146057
145844
145760
145972
146110
146317
146217
145994
145977
146198
146321
146221
146089
145876
146102
146327
146431
146431
146304
146074
146055
146277
146410
146322
146180
145954
146186
146424
146529
146531
146403
146157
146119
146362
146500
146400
146252
146006
146257
146510
146614
146611
146483
146232
146116
146360
146500
146700
146593
146339
146306
146566
146696
146663
146521
146263
146146
146409
146561
146772
146667
146398
146368
146637
146769
146653
146507
146244
146476
146745
146853
146849
146718
146439
146390
146664
146810
146705
146550
146274
146528
146812
146921
146912
146776
146490
146358
146639
146789
146987
146876
146589
146546
146844
146977
146936
146787
146490
146362
146664
146826
147035
146925
146622
146583
146890
147028
146901
146745
146443
146684
146987
147100
147093
146956
146638
146579
146893
147047
146925
146756
146434
146704
147032
147148
147139
146994
146663
146512
146839
147003
147204
147089
146761
146715
147045
147189
147054
146893
146571
146812
147141
147259
147236
147090
146757
146639
146959
147118
147317
147204
146881
146827
147168
147306
147256
147098
146753
146599
146954
147129
147337
147217
146858
146804
147169
147320
147177
147002
146641
146915
147268
147384
147372
147222
146863
146702
147057
147228
147434
147314
146958
146904
147267
147417
147277
147105
146747
147000
147358
147478
147469
147322
146945
146862
147245
147414
147285
147098
146714
146991
147380
147508
147491
147328
146927
146751
147146
147334
147544
147417
147026
146963
147363
147524
147370
147187
146796
147060
147456
147584
147563
147402
147001
146847
147236
147420
147626
147501
147112
147048
147449
147609
147451
147267
146874
147141
147535
147662
147641
147480
147075
146909
147306
147491
147697
147566
147160
147096
147525
147683
147632
147448
147013
146819
147264
147476
147698
147561
147117
147042
147503
147680
147507
147299
146846
147139
147585
147723
147702
147523
147061
146868
147322
147530
147758
147615
147162
147091
147555
147734
147568
147359
146907
147193
147646
147785
147765
147585
147114
146921
147380
147591
147815
147673
147212
147138
147610
147792
147617
147405
146938
147226
147695
147837
147816
147634
147150
146959
147432
147647
147873
147731
147259
147173
147664
147849
147669
147452
146971
147266
147746
147890
147870
147684
147185
146978
147471
147691
147920
147774
147286
147203
147709
147898
147719
147494
146989
147305
147800
147944
147939
147759
147226
147093
147640
147858
147672
147417
146865
147220
147766
147928
147906
147694
147121
146880
147447
147700
147944
147786
147235
147135
147709
147920
147710
147459
146891
147242
147798
147959
147932
147719
147140
146898
147472
147726
147972
147811
147246
147152
147738
147950
147739
147482
146903
147251
147822
147988
147961
147743
147151
146903
147490
147751
147999
147833
147260
147156
147757
147975
147759
147496
146901
147254
147843
148012
147986
147764
147151
146898
147506
147772
148023
147853
147252
147150
147774
147998
147782
147513
146898
147264
147867
148038
148014
147788
147160
146887
147513
147788
148043
147865
147249
147143
147786
148017
147802
147523
146884
147259
147884
148063
148048
147822
147151
146990
147678
147949
147713
147392
146688
147123
147815
148009
147989
147730
146990
146689
147420
147735
148012
147810
147094
146963
147708
147975
147715
147393
146658
147081
147800
148004
147972
147704
146953
146653
147396
147719
148016
147812
147087
146960
147716
147986
147721
147396
146646
147081
147811
148014
147995
147725
146962
146619
147384
147716
148019
147801
147048
146923
147700
147980
147721
147386
146613
147057
147813
148025
148000
147721
146931
146606
147398
147739
148047
147834
147074
146954
147775
148043
147923
147596
146755
146404
147257
147637
147968
147723
146873
146716
147610
147928
147639
147261
146388
146891
147740
147980
147941
147624
146740
146391
147261
147641
147981
147746
146905
146763
147642
147954
147647
147269
146396
146908
147746
147980
147959
147650
146779
146358
147242
147629
147962
147714
146849
146696
147633
147940
147828
147457
146489
146083
147068
147509
147897
147630
146683
146515
147513
147868
147530
147103
146111
146680
147629
147894
147881
147533
146539
146111
147103
147530
147888
147608
146641
146470
147512
147856
147713
147305
146237
145810
146889
147372
147800
147508
146469
146298
147389
147773
147410
146943
145863
146488
147521
147812
147782
147396
146320
145909
146965
147417
147791
147493
146451
146208
147342
147722
147583
147133
145959
145520
146703
147228
147687
147370
146233
146041
147233
147651
147266
146760
145582
146259
147379
147689
147674
147263
146080
145621
146788
147282
147697
147396
146315
146046
147249
147642
147458
146985
145752
145277
146533
147082
147572
147243
146054
145858
147111
147545
147156
146625
145379
146103
147276
147603
147611
147199
145938
145664
146953
147445
146970
146389
145082
145754
147065
147448
147377
146891
145504
145032
146391
146966
147465
147108
145838
145640
147011
147453
147297
146757
145355
144797
146211
146838
147365
146982
145643
145475
146933
147402
147202
146620
145084
144338
145908
146611
147207
146777
145301
145053
146597
147143
146719
146071
144546
145442
146857
147261
147283
146786
145242
144936
146516
147114
146597
145904
144327
145368
146771
147171
147094
146558
144951
144543
146199
146837
146379
145656
143979
145021
146575
147012
147025
146491
144781
144475
146235
146888
146331
145564
143800
144982
146520
146953
146978
146432
144713
144059
145893
146604
146058
145257
143411
144570
146269
146753
146742
146150
144281
143967
145987
146677
146515
145709
143561
142840
144965
145888
146604
146086
144213
143599
145752
146461
146186
145364
143173
142527
144700
145632
146445
145876
143914
143648
145820
146500
146463
145673
143331
143065
145454
146313
145264
144118
141628
143194
145430
146145
146121
145317
142904
142568
145111
146025
145874
144832
142203
141470
144031
145184
146042
145391
143175
142316
144943
145839
145595
144625
141827
141407
144481
145523
145436
144254
141025
140396
143516
144820
145729
144966
142317
141499
144560
145539
145352
144305
141022
140662
144162
145290
145297
144096
140372
139874
143832
145194
144587
142925
138773
137930
141823
143596
145032
144007
140778
140574
143951
145059
144799
143370
139543
138957
143130
144578
144505
143040
138697
137939
142703
144371
144130
142292
137222
136777
142069
143960
143753
141632
136129
135757
141421
143654
143572
141201
135505
135264
141032
143529
143398
140773
135026
134830
140595
143324
143170
140343
134647
134501
140184
143094
142927
139951
134359
134254
139810
142845
142676
139596
134147
134076
139476
142597
142425
139284
133997
133954
139184
142346
142178
139013
133897
133874
138934
142106
141938
138782
133835
133828
138720
141869
141709
138586
133802
133810
138542
141650
141494
138425
133795
133819
138393
141442
141296
138292
133813
133849
138276
141255
141115
138186
133849
133894
138178
141084
140956
138100
133899
133949
138103
140934
140813
138035
133956
134010
138042
140801
140691
137982
134019
134075
137999
140688
140586
137946
134085
134142
137965
140591
140499
137919
134152
134209
137945
140512
140425
137904
134220
134275
137931
140445
140367
137895
134285
134339
137928
140393
140320
137896
134350
134402
137929
140351
140284
137900
134411
134462
137938
140320
140257
137912
134471
134519
137949
140296
140239
137926
134527
134575
137966
140282
140226
137946
134582
134627
137985
140271
140220
137966
134634
134678
138008
140268
140219
137991
134684
134726
138032
140267
140222
138016
134731
134772
138059
140272
140227
138044
134777
134816
138085
140278
140236
138071
134820
134858
138115
140291
140249
138102
134861
134897
138143
140301
140262
138130
134900
134936
138174
140314
140275
138162
134937
134972
138202
140327
140291
138190
134973
135007
138233
140343
140306
138221
135007
135040
138262
140358
140323
138250
135040
135072
138292
140375
140340
138280
135071
135102
138320
140391
140358
138308
135101
135131
138349
140409
140374
138337
135130
135159
138376
140425
140392
138363
135157
135185
138403
140442
140408
138390
135183
135210
138428
140457
140425
138414
135207
135233
138453
140474
140440
138439
135230
135256
138476
140488
140455
138461
135251
135276
138499
140503
140469
138483
135272
135296
138519
140516
140483
138503
135290
135314
138539
140530
140496
138523
135308
135331
138557
140542
140509
138540
135324
135346
138575
140554
140519
138557
135339
135360
138590
140564
140531
138571
135352
135373
138605
140575
140540
138587
135365
135385
138618
140583
140550
138599
135376
135395
138631
140593
140558
138612
135386
135405
138642
140600
140566
138622
135395
135413
138654
140608
140573
138633
135403
135421
138662
140614
140580
138642
135410
135428
138672
140621
140585
138651
135417
135434
138679
140625
140591
138658
135422
135439
138688
140631
140595
138666
135427
135444
138693
140635
140600
138671
135432
135448
138700
140639
140603
138677
135435
135451
138704
140642
140607
138682
135438
135454
138710
140645
140609
138687
135441
135456
138713
140647
140612
138690
135443
135458
138718
140650
140613
138694
135444
135459
138720
140651
140615
138696
135445
135460
138723
140652
140615
138699
135446
135460
138724
140652
140617
138700
135446
135460
138726
140653
140616
138702
135445
135459
138727
140652
140617
138702
135444
135458
138728
140653
140616
138703
135443
135457
138727
140651
140615
138702
135442
135455
138728
140651
140614
138703
135440
135453
138727
140649
140613
138702
135438
135452
138727
140648
140611
138702
135437
135450
138726
140646
140610
138700
135435
135448
138726
140645
140608
138700
135433
135445
138724
140643
140606
138698
135430
135443
138723
140641
140604
138697
135428
135441
138721
140639
140602
138695
135426
135438
138720
140637
140600
138694
135423
135436
138718
140634
140598
138692
135421
135433
138717
140632
140595
138691
135418
135431
138714
140630
140593
138688
135415
135428
138713
140628
140590
138687
135413
135425
138710
140625
140589
138684
135410
135423
138709
140623
140586
138683
135407
135420
138706
140620
140584
138680
135405
135417
138705
140618
140581
138679
135402
135414
138702
140615
140579
138676
135399
135411
138701
140613
140576
138675
135396
135408
138698
140610
140574
138671
135393
135405
138696
140608
140571
138670
135390
135402
138693
140605
140569
138667
135386
135399
138692
140603
140566
138666
135383
135396
138689
140600
140565
138663
135380
135392
138688
140599
140562
138662
135376
135389
138686
140597
140563
138660
135372
135389
138687
140601
140567
138662
135372
135393
138696
140616
140592
138683
135375
135426
138752
140700
140790
138812
135465
135630
139023
141096
141511
139350
135887
136224
139761
141965
142351
140154
136565
144403
145641
146189
146860
147353
147597
148021
148404
148746
148997
149194
149353
149481
149581
149659
149719
149765
149798
149824
149843
149858
149869
149878
149885
149890
149894
149897
149898
149900
149900
149899
149901
149907
149911
149917
149924
149932
149941
149951
149963
149976
149991
150007
150026
150046
150066
150084
150099
150109
150115
150117
150118
150119
150119
150119
150120
150121
150121
150121
150121
150120
150119
150117
150116
150114
150112
150111
150109
150107
150105
150104
150103
150102
150101
150101
150102
150102
150104
150105
150107
150109
150111
150114
150116
150119
150121
150123
150125
150126
150127
150128
150128
150128
150127
150126
150124
150123
150121
150118
150116
150113
150110
150107
150104
150101
150098
150096
150093
150090
150087
150085
150082
150080
150078
150076
150074
150072
150070
150068
150066
150065
150063
150061
150059
150057
150054
150052
150049
150045
150041
150037
150033
150028
150022
150017
150010
150003
149996
149988
149980
149972
149963
149954
149945
149935
149925
149916
149906
149896
149886
149876
149866
149856
149847
149837
149828
149819
149810
149802
149794
149786
149779
149772
149766
149760
149755
149751
149747
149744
149742
149740
149740
149740
149740
149742
149744
149748
149752
149757
149764
149772
149780
149790
149800
149811
149823
149835
149847
149860
149873
149886
149900
149916
149932
149949
149968
149997
149998
150000
150001
150006
150018
150028
150033
150033
150032
150030
150028
150027
150026
150025
150025
150025
150024
150024
150024
150025
150025
150025
150025
150025
150026
150026
150026
150026
150027
150027
150027
150027
150027
150027
150028
150028
150027
150027
150027
150027
150026
150026
150025
150025
150024
150023
150022
150021
150020
150019
150017
150015
150013
150010
150007
150007
150011
150015
150017
150023
150035
150058
150065
150068
150066
150065
150063
150061
150059
150057
150055
150053
150051
150049
150047
150045
150043
150041
150039
150037
150035
150033
150031
150029
150026
150024
150021
150019
150016
150014
150011
150008
150005
150003
150000
149997
149993
149990
149987
149983
149980
149976
149972
149968
149964
149960
149956
149952
149947
149943
149938
149933
149928
149923
149918
149912
149906
149901
149895
149889
149882
149876
149869
149862
149855
149848
149840
149832
149824
149816
149807
149798
149788
149778
149767
149755
149743
149729
149714
149698
149679
149658
149633
149604
149560
149500
149430
149360
149297
149269
149243
149268
149238
149255
149223
149251
149206
149241
149195
149231
149194
149224
149201
149219
149204
149211
149201
149202
149195
149192
149186
149183
149179
149176
149172
149170
149166
149165
149163
149163
149160
149162
149159
149163
149160
149165
149163
149168
149168
149173
149175
149179
149182
149186
149189
149194
149197
149201
149205
149209
149213
149217
149220
149223
149226
149228
149230
149232
149233
149233
149233
149233
149232
149231
149229
149227
149224
149221
149218
149214
149210
149205
149201
149195
149190
149185
149179
149173
149170
149175
149178
149184
149180
149186
149189
149195
149191
149187
149177
149172
149167
149169
149174
149178
149183
149178
149173
149173
149177
149182
149192
149202
149196
149196
149200
149204
149201
149205
149209
149213
149209
149205
149213
149213
149216
149220
149216
149219
149223
149225
149222
149220
149225
149224
149227
149229
149226
149228
149230
149231
149228
149228
149229
149229
149231
149231
149229
149229
149230
149229
149227
149229
149227
149226
149228
149225
149223
149222
149223
149219
149218
149222
149217
149217
149217
149212
149212
149210
149210
149205
149205
149210
149203
149203
149202
149197
149197
149196
149194
149189
149189
149195
149187
149188
149187
149182
149182
149181
149180
149175
149174
149179
149171
149175
149174
149169
149167
149169
149168
149163
149161
149165
149159
149164
149164
149159
149156
149161
149161
149157
149152
149154
149151
149158
149160
149157
149150
149157
149159
149158
149150
149149
149150
149158
149161
149162
149153
149162
149165
149166
149157
149152
149156
149168
149171
149172
149165
149176
149177
149180
149173
149161
149171
149186
149186
149188
149182
149199
149197
149196
149185
149188
149207
149209
149207
149200
149181
149215
149214
149198
149158
149233
149260
149215
149213
149187
149129
149223
149213
149175
149135
149315
149444
149249
149220
149196
149191
149326
149252
149238
149303
149572
149679
149434
149285
149293
149433
149544
149361
149387
149558
149775
149847
149641
149454
149509
149673
149741
149575
149631
149773
149902
149939
149824
149685
149725
149842
149877
149758
149777
149878
149958
149971
149907
149797
149811
149903
149927
149827
149838
149923
149983
149995
149945
149851
149861
149941
149961
149872
149881
149957
150007
150019
149975
149891
149899
149972
149988
149908
149915
149985
150030
150041
150001
149923
149930
149997
150012
149937
149944
150008
150051
150060
150022
149950
149956
150018
150031
149963
149968
150027
150068
150076
150039
149974
149979
150035
150047
149985
149989
150043
150082
150089
150055
149995
149998
150051
150061
150004
150007
150057
150094
150099
150067
150012
150015
150063
150073
150020
150022
150069
150103
150107
150077
150027
150029
150073
150081
150033
150035
150077
150110
150112
150085
150039
150041
150081
150088
150045
150046
150084
150114
150115
150090
150049
150051
150086
150092
150054
150054
150088
150115
150115
150094
150057
150058
150090
150094
150061
150061
150090
150115
150114
150095
150063
150063
150091
150095
150065
150065
150091
150112
150110
150094
150067
150067
150090
150093
150069
150068
150089
150108
150105
150091
150070
150069
150088
150090
150070
150070
150086
150101
150097
150088
150071
150070
150084
150085
150071
150070
150082
150093
150089
150083
150071
150070
150080
150080
150070
150070
150077
150084
150079
150077
150070
150069
150075
150074
150069
150069
150072
150074
150069
150071
150069
150069
150069
150068
150069
150069
150067
150062
150052
150065
150068
150067
150062
150036
150052
150064
150073
150080
150087
150094
150100
150106
150112
150117
150121
150126
150130
150133
150136
150138
150140
150141
150142
150142
150141
150139
150137
150134
150130
150125
150120
150115
150109
150102
150094
150085
150076
150066
150056
150045
150034
150024
150013
150000
149981
149953
149916
149859
149782
149685
149576
149472
149373
149300
149254
149221
149196
149177
149165
149161
149160
149163
149167
149173
149179
149187
149195
149203
149211
149218
149225
149231
149236
149239
149240
149240
149238
149234
149228
149221
149212
149217
149207
149196
149187
149182
149176
149177
149182
149187
149191
149186
149180
149180
149185
149190
149200
149212
149213
149199
149190
149185
149180
149178
149184
149189
149188
149182
149176
149175
149181
149187
149198
149214
149229
149226
149223
149234
149226
149234
149241
149253
149243
149251
149239
149245
149262
149279
149264
149277
149261
149246
149250
149268
149274
149252
149253
149279
149311
149301
149289
149317
149298
149317
149292
149269
149248
149228
149210
149192
149182
149175
149169
149166
149172
149179
149178
149171
149164
149164
149171
149179
149192
149213
149208
149200
149189
149180
149171
149163
149163
149159
149157
149152
149139
149155
149162
149167
149160
149166
149171
149173
149181
149180
149176
149169
149173
149176
149185
149189
149190
149199
149208
149217
149219
149229
149234
149257
149283
149311
149302
149289
149275
149264
149251
149240
149236
149227
149225
149220
149216
149211
149206
149202
149198
149193
149184
149181
149189
149192
149197
149201
149206
149209
149214
149218
149230
149235
149239
149227
149223
149232
149245
149246
149257
149255
149250
149235
149241
149245
149260
149266
149268
149280
149292
149306
149318
149332
149343
149375
149344
149370
149335
149353
149369
149320
149282
149252
149250
149284
149285
149247
149243
149285
149344
149336
149329
149385
149401
149417
149492
149468
149444
149420
149395
149441
149408
149397
149382
149364
149349
149335
149320
149316
149308
149302
149295
149290
149283
149278
149271
149254
149250
149260
149263
149269
149272
149279
149282
149289
149292
149321
149329
149335
149301
149299
149308
149343
149350
149367
149358
149348
149310
149317
149319
149362
149373
149384
149403
149416
149433
149453
149443
149422
149408
149395
149390
149378
149329
149327
149338
149340
149350
149354
149413
149427
149432
149370
149365
149382
149447
149463
149469
149474
149506
149538
149568
149574
149562
149541
149527
149506
149490
149485
149506
149528
149511
149495
149489
149473
149468
149453
149387
149401
149407
149421
149429
149444
149452
149516
149532
149548
149569
149588
149607
149595
149606
149597
149515
149433
149351
149285
149237
149232
149285
149285
149226
149221
149285
149376
149367
149359
149449
149465
149481
149497
149386
149286
149216
149212
149288
149293
149209
149208
149300
149424
149409
149397
149514
149530
149548
149566
149442
149312
149210
149217
149331
149357
149233
149258
149389
149520
149490
149464
149586
149609
149637
149672
149559
149430
149290
149337
149481
149543
149401
149474
149611
149726
149665
149609
149716
149764
149817
149889
149848
149809
149772
149743
149720
149700
149681
149662
149643
149624
149603
149581
149560
149537
149624
149650
149675
149692
149684
149665
149656
149637
149626
149644
149625
149614
149601
149595
149581
149574
149560
149554
149538
149476
149467
149492
149501
149516
149525
149541
149550
149565
149574
149621
149634
149640
149598
149589
149612
149652
149660
149678
149670
149659
149620
149634
149643
149677
149687
149693
149710
149725
149742
149712
149719
149699
149723
149745
149765
149799
149795
149773
149768
149746
149740
149774
149756
149753
149745
149737
149729
149721
149712
149705