/*--------------------------------*- C++ -*----------------------------------*\
| =========                 |                                                 |
| \\      /  F ield         | OpenFOAM: The Open Source CFD Toolbox           |
|  \\    /   O peration     | Version:  v2006                                 |
|   \\  /    A nd           | Website:  www.openfoam.com                      |
|    \\/     M anipulation  |                                                 |
\*---------------------------------------------------------------------------*/
FoamFile
{
    version     2.0;
    format      ascii;
    class       volScalarField;
    location    "0.012";
    object      k;
}
// * * * * * * * * * * * * * * * * * * * * * * * * * * * * * * * * * * * * * //

dimensions      [0 2 -2 0 0 0 0];


internalField   nonuniform List<scalar> 
12716
(
131.248
131.243
131.266
131.27
131.277
131.274
131.253
131.19
131.044
130.788
130.42
129.964
129.464
128.957
128.447
127.929
127.394
126.839
126.264
125.669
125.052
124.415
123.757
123.079
122.381
121.665
120.93
120.178
119.411
118.628
117.832
117.024
116.205
115.378
114.544
113.705
112.862
112.017
111.172
110.33
109.491
108.659
107.835
107.022
106.22
105.434
104.663
103.911
103.179
102.47
101.785
101.126
100.49
99.8761
99.2783
98.6918
98.1238
97.6069
97.2059
96.9826
96.9186
96.9369
96.9787
97.0085
97.0023
96.9227
96.7071
96.2799
95.2928
93.6982
85.5297
76.1045
89.2616
94.1524
91.5905
82.9579
68.5483
62.108
76.4998
88.0347
84.7648
71.4496
57.2214
53.1446
66.635
81.1803
78.3552
63.2685
50.1356
47.5001
59.8543
75.205
73.0663
57.8061
45.6528
43.836
55.1793
70.3364
68.7029
53.869
42.5974
41.2494
51.8156
66.3668
65.053
50.9062
40.3451
39.283
49.2213
63.0115
61.9264
48.5478
38.5773
37.7071
47.135
60.1198
59.2092
46.5963
37.1256
36.3914
45.406
57.6011
56.8336
44.9577
35.8952
35.26
43.9417
55.3984
54.7523
43.5651
34.8267
34.2661
42.689
53.4694
52.9226
42.3685
33.8801
33.3761
41.6048
51.7773
51.3056
41.3269
33.0257
32.5631
40.6501
50.2826
49.8653
40.4035
32.2379
31.8044
39.7917
48.945
48.5671
39.5668
31.4963
31.0819
39.0005
47.7227
47.3727
38.7891
30.784
30.3807
38.2515
46.5816
46.2491
38.0467
30.0879
29.6902
37.5245
45.4916
45.1688
37.3216
29.3986
29.0031
36.8057
44.4308
44.1132
36.6018
28.7107
28.3161
36.0878
43.3878
43.0749
35.883
28.0227
27.6294
35.372
42.3626
42.0564
35.1678
27.3352
26.9435
34.663
41.3616
41.0641
34.4606
26.6485
26.2576
33.9638
40.3905
40.1029
33.7634
25.961
25.5691
33.2744
39.4518
39.1738
33.0755
25.2692
24.8739
32.5925
38.5438
38.274
32.3937
24.5688
24.1674
31.9136
37.6617
37.3979
31.7133
23.8549
23.4446
31.2321
36.7986
36.5383
31.0283
23.1228
22.7013
30.5418
35.9467
35.6875
30.3325
22.3685
21.9338
29.8369
35.0986
34.8383
29.6203
21.5883
21.1386
29.1118
34.248
33.9846
28.8862
20.7788
20.3118
28.3613
33.3893
33.1215
28.125
19.936
19.4497
27.5806
32.5184
32.2453
27.3322
19.0559
18.548
26.7658
31.6326
31.3541
26.5043
18.1343
17.6026
25.9144
30.7317
30.4476
25.6385
17.167
16.6083
25.0222
29.8142
29.5239
24.7302
16.1477
15.558
24.0835
28.8776
28.5787
23.7709
15.0683
14.4412
23.0843
27.913
27.6011
22.7444
13.9156
13.2425
22.0051
26.9073
26.5756
21.627
12.6712
11.9401
20.8164
25.8381
25.4761
20.376
11.3062
10.5042
19.4848
24.6955
24.219
18.879
9.76587
8.88963
17.9577
23.4712
22.7171
16.999
7.96284
7.01046
16.0619
22.0341
20.908
14.432
5.72594
4.66407
13.1651
20.0229
18.3272
10.1773
2.75841
0.913267
4.66616
14.1233
9.90566
4.74464
1.59335
2.55944
8.83172
11.0317
16.8359
10.2302
2.93584
2.82375
9.77199
18.8883
17.1666
8.11122
2.00394
0.623107
3.34477
11.9501
2.64978
0.506046
0.0971811
0.0339911
0.157889
0.341314
0.311405
0.181848
0.0183262
0.0707516
0.16826
0.309122
0.432803
0.283108
0.168219
0.307648
0.336489
0.475518
0.587984
0.394541
0.426383
0.477387
0.414392
0.62284
0.69487
0.427085
0.503023
0.44616
0.40499
0.674543
0.70491
0.403767
0.431551
0.357515
0.375717
0.66203
0.669063
0.370708
0.341089
0.302825
0.358904
0.648396
0.670019
0.360853
0.31095
0.304327
0.35898
0.67092
0.710516
0.374676
0.328581
0.337224
0.379817
0.723065
0.758438
0.391898
0.352756
0.359979
0.396807
0.774511
0.79504
0.401923
0.363364
0.35955
0.402236
0.805446
0.813512
0.403277
0.349729
0.332641
0.399557
0.811972
0.810499
0.395265
0.309669
0.28196
0.391514
0.801618
0.789518
0.38494
0.251502
0.217619
0.37504
0.768246
0.746451
0.369343
0.183591
0.154858
0.365576
0.734016
0.707406
0.355759
0.118327
0.0970848
0.349233
0.689517
0.706674
0.363942
0.0711384
0.0499134
0.326101
0.629104
0.663309
0.352337
0.0412905
0.0333157
0.325363
0.603055
0.607801
0.334257
0.0501979
0.0778384
0.323754
0.57634
0.571482
0.328386
0.108983
0.1502
0.323403
0.545824
0.53955
0.327877
0.197191
0.250462
0.327117
0.518159
0.511344
0.333755
0.309156
0.371019
0.337751
0.492455
0.485125
0.350443
0.436114
0.503958
0.357121
0.467503
0.458239
0.366829
0.572368
0.642094
0.367109
0.439672
0.428268
0.367885
0.710371
0.779311
0.366995
0.410005
0.398264
0.369858
0.84595
0.911981
0.373396
0.38054
0.369922
0.382629
0.975311
1.03643
0.390604
0.35538
0.345295
0.400368
1.09265
1.14643
0.416349
0.332748
0.323272
0.427579
1.19423
1.23969
0.450705
0.312414
0.305305
0.46507
1.27913
1.31612
0.494809
0.297704
0.293046
0.509107
1.34722
1.37589
0.539809
0.287425
0.28358
0.554082
1.39935
1.42093
0.585384
0.279643
0.276745
0.599104
1.43807
1.45399
0.62992
0.274575
0.272516
0.64232
1.46599
1.47786
0.670696
0.271606
0.270059
0.682495
1.4857
1.49543
0.703983
0.269808
0.268558
0.712902
1.50016
1.51134
0.722274
0.268881
0.266748
0.716031
1.51248
1.524
0.717264
0.267189
0.263707
0.72037
1.52815
1.52883
0.69464
0.262849
0.260619
0.690858
1.54192
0.315295
0.373835
0.386014
0.392011
0.397989
0.412563
0.414867
0.416165
0.414889
0.411633
0.412294
0.423373
0.433237
0.458002
0.466593
0.468642
0.453739
0.385043
0.362709
0.330191
0.267192
0.194636
0.176988
0.144065
0.147822
0.190645
1.09312
0.644518
0.177785
0.162886
0.199749
0.262298
0.436909
0.552914
0.28181
0.191248
0.18481
0.231548
0.45233
0.447491
0.231818
0.186309
0.188167
0.221571
0.41052
0.410616
0.216975
0.189268
0.191384
0.211359
0.391045
0.394143
0.213077
0.192482
0.194643
0.208025
0.377318
0.381727
0.21152
0.197543
0.199791
0.208713
0.374997
0.380412
0.213779
0.202791
0.205043
0.21123
0.374796
0.379637
0.216744
0.208605
0.211034
0.214537
0.374332
0.379613
0.220573
0.215041
0.217629
0.218547
0.37445
0.379468
0.22491
0.222038
0.224814
0.222993
0.374157
0.379453
0.229738
0.229808
0.232877
0.227876
0.374018
0.378911
0.23491
0.238642
0.242111
0.233073
0.373021
0.378079
0.240544
0.249147
0.253313
0.23878
0.371777
0.376284
0.246734
0.262553
0.268434
0.245189
0.369225
0.373782
0.254116
0.281932
0.292231
0.2532
0.36605
0.370039
0.263514
0.315052
0.336538
0.263436
0.36146
0.365764
0.277854
0.384843
0.433646
0.280012
0.356768
0.361382
0.310137
0.549344
0.669865
0.32247
0.352282
0.359462
0.391453
0.938052
1.17986
0.436739
0.352201
0.364621
0.586053
1.64362
1.96739
0.695173
0.362069
0.389485
0.982922
2.58863
2.91388
1.1661
0.397187
0.447366
1.62975
3.5541
3.78483
1.84531
0.471277
0.54915
2.39048
4.33815
4.52053
2.54275
0.58584
0.677687
3.02501
5.01325
5.15605
3.11187
0.71523
0.814418
3.55134
5.58707
5.69635
3.60376
0.850893
0.95362
4.02272
6.0896
6.17548
4.05564
0.989824
1.09953
4.47399
6.54488
6.60826
4.4955
1.13624
1.25094
4.90642
6.93958
6.97702
4.91362
1.29005
1.41347
5.31673
7.27071
7.28247
5.31016
1.45609
1.58627
5.70291
7.53805
7.53149
5.69572
1.63726
1.77618
6.08373
7.76158
7.74476
6.07796
1.83558
1.97269
6.4228
7.94164
7.91416
6.40293
2.0384
2.16946
6.66905
8.0954
8.0653
6.62785
2.24892
2.39384
6.85733
8.26626
8.24407
6.81901
2.51577
2.71214
7.0905
8.49096
8.47991
7.07162
2.88492
3.1325
7.39643
8.77401
8.77178
7.38892
3.33968
3.61848
7.74009
9.10418
9.10719
7.73169
3.83548
4.12434
8.07515
9.46486
9.47138
8.05526
4.34374
4.64344
8.37659
9.86237
9.87497
8.33983
4.87426
5.20095
8.65746
10.3132
10.3372
8.61983
5.47472
5.85492
8.96544
10.8469
10.8765
8.9436
6.14942
6.51442
9.34095
11.489
11.5028
9.28913
6.7959
7.18029
9.69288
12.1574
12.1956
9.59442
7.42389
7.75483
10.0269
12.9304
12.9437
9.92957
7.96299
8.29099
10.3535
13.7445
13.8071
10.3159
8.51557
8.83067
10.7072
14.6787
14.7823
10.6635
9.06933
9.37972
11.1829
15.7379
15.8594
11.2515
9.54428
9.80244
11.7039
16.9
17.0564
11.6828
9.96939
10.2398
12.1576
18.1582
18.3546
12.1793
10.3849
10.6
12.7011
19.5616
19.8201
12.7562
10.7086
10.8976
13.311
21.1352
21.405
13.3799
11.0261
11.2699
14.0539
22.8784
23.2584
14.276
11.4537
11.8785
15.4471
25.008
25.6314
16.0608
12.3414
13.3275
18.7424
27.9737
28.8466
20.9198
14.5983
11.8979
11.6108
15.9117
26.9351
16.2055
12.3451
12.5695
16.6431
27.576
31.8045
19.0251
13.6349
15.0067
19.7504
34.4578
44.1132
24.1399
18.4606
22.1902
33.5069
53.9146
61.4706
46.3803
26.5592
27.4723
48.4035
65.3416
71.586
56.537
29.9476
31.3077
59.9331
76.1037
78.6743
62.3907
31.9184
30.9404
60.0973
75.9904
82.5002
65.4601
33.6406
35.7309
69.8403
86.86
91.9408
74.6427
38.1208
39.9999
79.5066
97.3068
100.968
83.2358
41.893
45.4472
91.4071
109.181
116.249
97.4785
47.9493
50.3938
104.421
122.654
123.249
105.143
50.2654
52.1198
110.407
128.364
134.754
115.57
53.8122
55.5991
120.459
140.121
139.747
122.283
56.84
58.2275
126.492
145.792
153.661
133.913
62.33
67.6911
142.123
163.108
169.411
147.534
70.6876
77.6322
157.198
175.394
185.02
170.265
86.4655
99.8587
183.312
194.588
204.429
193.339
106.237
118.114
210.317
215.225
215.611
219.341
134.569
148.919
228.029
223.795
216.111
234.104
160.24
172.259
240.011
213.422
220.418
251.069
173.183
170.686
250.479
238.8
246.393
236.486
165.072
161.763
189.098
229.987
207.574
166.169
157.925
148.183
150.726
176.907
149.793
139.503
127.959
96.6746
129.271
151.809
144.122
110.98
61.0156
22.9913
65.9801
114.645
119.258
44.7906
15.4514
20.6594
36.0534
94.9015
77.2676
43.4437
26.9047
31.099
59.2403
69.5923
98.3072
66.9652
34.5
38.9922
73.3854
116.866
140.347
82.9319
44.0129
47.975
81.4883
133.627
144.343
95.6537
54.4997
61.0535
109.354
164.55
186.98
143.472
68.1737
75.3857
170.311
243.44
268.826
196.531
81.7656
83.7501
190.73
269.607
278.187
222.65
88.6536
93.6116
241.368
318.912
316.859
242.646
95.7393
91.7576
226.178
312.758
306.173
233.968
93.4308
95.2747
245.327
306.635
286.687
229.005
87.6078
75.5011
206.664
267.667
249.085
179.654
65.3359
63.5638
176.905
242.084
235.68
173.189
60.9453
55.9212
155.104
214.138
200.063
137.172
46.9178
28.5229
120.16
201.262
170.895
102.633
31.6714
34.8761
107.835
152.679
130.352
90.692
26.9697
15.2988
68.0491
105.83
132.772
99.5121
35.9962
26.3067
81.7228
123.134
112.234
74.6749
22.7347
21.3115
70.8789
104.969
77.8086
45.7895
12.2832
35.9301
86.7496
110.803
99.8741
69.5595
26.6161
21.8034
61.1082
90.4104
59.9621
34.95
13.2778
30.1996
70.0965
91.47
83.7033
57.2887
24.1301
19.8647
50.0742
76.4281
49.4482
29.1113
13.4577
26.5665
59.9218
79.5661
75.6258
52.5985
23.3454
18.4051
40.8018
64.7739
61.6085
38.4798
16.4333
12.7262
23.4168
38.9071
65.6137
49.5757
23.6286
20.2393
42.1932
61.3329
56.6197
36.8029
17.5818
14.0588
21.801
34.6666
59.6263
44.5267
22.8563
19.5996
37.6209
55.5596
51.9706
33.6491
17.6938
14.9396
20.7361
31.5311
55.1546
41.4199
22.6158
20.084
35.6138
52.2882
48.3904
31.2999
18.2782
16.0421
19.4237
28.8516
51.8443
38.2473
22.4363
20.0267
33.12
48.9798
45.8741
29.6416
18.65
17.0355
19.2449
27.5856
49.5361
36.8946
22.8486
21.0051
32.1979
46.5678
42.6508
28.0253
19.5298
18.1325
18.7542
25.4882
45.2065
33.2739
22.5375
21.2305
30.4718
43.6675
26.7123
20.6013
19.6113
23.3889
34.347
45.1932
41.9683
29.7035
22.4263
20.9394
25.8565
37.9411
23.1394
18.5956
20.3452
23.1289
30.5985
40.5229
37.731
26.6859
22.4377
21.1618
23.8131
34.0133
21.2072
17.9301
21.2173
23.1544
27.0458
36.4486
34.5013
24.7755
21.9326
22.0118
18.7721
21.7306
36.353
27.6089
23.4688
23.1515
24.3542
32.7964
29.0904
22.3473
22.4546
22.978
17.9265
19.3588
32.3026
24.0988
23.437
23.1177
22.7472
30.1569
20.004
18.6945
23.532
23.8286
24.6993
32.4964
29.3096
22.7248
23.9223
23.6448
20.9693
26.0353
18.354
17.7663
24.6995
23.8138
22.4264
29.301
27.1874
21.1634
24.0267
25.1133
18.2755
18.8169
29.2438
22.7182
24.14
24.5341
20.9833
25.9006
23.3023
19.4796
24.7076
26.7464
17.3923
17.4629
25.3019
20.3717
23.9864
24.4965
19.246
23.7596
17.4888
17.5296
26.5051
23.959
20.5338
25.4131
22.8556
19.1029
24.5446
25.4544
18.1901
20.8056
16.5297
17.0995
28.088
24.4361
18.893
22.7738
21.5518
18.1815
25.2512
27.88
17.3513
16.5741
22.9832
19.0809
24.4774
25.5328
18.4064
21.5547
16.9408
17.7267
28.2692
24.6831
18.9084
22.3861
21.0472
18.3785
25.8812
28.6121
17.8355
16.8779
22.5554
19.1076
25.0058
26.0958
18.0372
20.1403
18.916
17.9536
27.7595
31.2934
17.762
16.5668
19.153
17.3032
25.8807
27.3024
16.9636
18.2026
15.9276
17.9375
30.7295
25.455
16.8701
18.2515
17.548
16.546
27.0241
30.5567
17.7629
15.4779
18.5543
16.9812
25.4659
27.2134
16.5645
17.557
15.7434
18.1275
30.8076
25.6738
16.9213
18.2212
17.111
16.5437
27.2278
29.7145
16.1664
16.3234
15.371
19.2149
33.8214
27.2083
16.2776
16.538
15.8535
15.7328
29.2613
33.4552
19.053
15.0859
16.8008
16.4432
27.0795
29.2437
15.9511
16.0123
15.3438
19.4634
33.3994
27.2245
16.299
16.3918
15.7008
15.9135
29.561
33.7778
19.639
15.265
16.5782
16.4615
27.5238
29.9729
16.0519
15.7163
15.439
20.1083
34.3389
27.9702
16.3812
16.3121
15.3618
16.0752
30.6143
35.0143
20.5245
15.3813
16.2349
16.2978
28.5082
30.8509
16.6207
15.7622
14.7498
16.5995
34.3369
39.5086
22.3782
15.1602
15.3638
15.9845
30.754
33.6509
15.6629
14.2845
14.7979
22.0684
38.7504
30.4474
15.6641
14.9576
14.033
15.4824
33.5603
38.7824
22.0608
14.6221
15.0051
15.7183
30.5842
33.8013
15.5946
14.0488
14.7346
22.4744
39.0036
30.8711
15.7032
14.9001
13.9984
15.5717
34.2676
39.8601
22.7077
14.7363
15.0126
15.8513
31.4481
34.9772
15.8139
14.1014
14.951
23.3508
40.7918
32.2239
15.9547
14.9854
14.1555
15.8988
35.8363
41.834
23.8037
15.0739
15.1881
16.195
32.924
36.688
16.2019
14.3309
15.4289
24.5981
42.9886
33.8081
16.3523
15.1878
14.3817
16.3078
37.6464
44.2103
25.0316
15.5182
15.3927
16.5702
34.5861
38.5309
16.6457
14.5881
15.7736
25.6032
45.2823
35.4871
16.7613
15.5193
14.9569
17.4709
38.8363
43.9908
18.3809
14.4215
16.5426
28.9625
50.643
38.6241
17.417
15.6106
14.8351
17.34
42.9578
50.1588
28.0231
16.5361
15.7476
17.3293
38.5309
43.0491
17.4581
14.9323
16.771
28.4649
50.5207
38.9361
17.4808
15.8426
15.0525
17.6959
43.5866
51.3335
28.9367
16.9291
16.007
17.7048
39.6635
44.3636
17.8578
15.214
17.2572
29.5858
52.3791
40.3081
17.9464
16.1789
15.4127
18.2569
45.2137
53.4985
30.2488
17.5444
16.3934
18.2633
41.142
46.1067
18.4725
15.625
17.8833
30.8392
54.6879
42.1855
18.5428
16.6345
15.8783
18.8547
47.2977
56.037
31.6241
18.2517
16.9404
18.936
43.1241
48.2967
19.181
16.1775
18.6796
32.3472
57.2282
43.9908
19.3145
17.2654
16.5102
19.6568
49.3151
58.623
33.1372
19.0727
17.5839
19.7971
45.0685
50.4154
19.9804
16.8156
19.3253
33.4897
59.8816
46.0348
20.0543
17.8669
17.2091
21.4472
50.6657
57.6834
23.1881
16.7776
21.4956
38.6702
67.1885
50.8475
21.1747
18.0153
17.156
21.1362
56.8191
67.117
36.9298
20.8802
17.8579
20.6418
50.7093
56.9098
21.142
17.0852
20.988
37.6095
67.2916
51.1053
20.9877
17.9801
17.2337
21.3087
57.3737
68.0243
37.7047
21.0691
18.1876
21.0749
51.5849
57.9778
21.5373
17.4478
21.3722
38.2831
68.9207
52.4968
21.4529
18.4412
17.6645
21.7098
58.9286
70.4121
38.8731
21.5876
18.7359
21.7469
53.3943
60.014
22.3049
18.0543
22.1082
39.7133
71.4382
54.5129
22.2945
19.1302
18.3817
22.6026
61.0806
72.8114
39.8865
22.163
19.4877
22.525
55.3248
60.8095
24.2333
18.7319
18.3507
26.4524
69.4086
81.5087
46.1798
24.8945
19.89
24.1129
60.7277
68.0021
24.2316
19.0941
24.2832
44.4426
80.6907
60.6234
23.9343
20.0982
19.415
24.5369
68.014
80.6741
44.9064
24.5864
20.4204
24.346
60.9517
68.3796
24.8251
19.7512
24.8895
45.1282
81.4802
61.5874
24.576
20.7335
20.051
25.2
69.0918
82.7825
46.0216
25.2696
21.0759
25.1439
63.2796
69.7609
27.3594
20.2258
19.8402
29.6199
79.4252
93.2518
52.4127
27.8834
21.4362
26.6481
69.1221
77.4028
27.0456
20.6133
27.0934
50.1924
91.7912
68.7274
26.3906
21.6422
20.8511
26.6406
76.8381
91.7313
49.9159
26.8106
21.8461
26.4044
68.8084
75.6991
28.7408
20.9323
20.6482
31.5439
86.2447
101.162
57.0788
29.8756
22.5638
28.3762
74.8051
83.544
28.5871
21.6734
28.9641
54.0417
99.108
73.9009
27.9174
22.7024
21.9389
28.9097
83.0737
98.9164
54.3984
29.0965
23.1013
28.4077
74.5635
82.5764
31.3089
22.1788
21.8123
33.8262
93.9251
110.269
61.5008
32.1092
23.693
30.151
81.13
90.7281
30.571
22.7957
31.1685
58.3558
107.523
80.0896
29.7401
23.797
22.9123
30.1265
89.5953
106.909
57.4398
30.4365
23.8058
29.4369
79.366
87.2285
32.1075
22.851
22.6186
35.6666
99.6677
117.587
65.7433
33.8865
24.8177
31.8431
86.3486
96.3042
32.207
23.9072
32.7553
61.6407
114.317
84.7536
31.0778
24.735
24.0419
34.4444
93.106
105.889
37.8632
23.8798
36.4721
70.3846
125.118
92.643
33.6956
25.9906
25.0242
33.6687
103.211
122.863
65.4362
34.7528
25.4734
32.3893
90.225
98.8297
35.4644
24.6833
24.5335
39.4387
112.281
131.654
73.5061
37.6527
26.5174
34.7777
97.0018
107.127
38.512
25.8162
25.4174
40.5166
120.544
141.985
77.2564
39.7304
27.0966
35.9471
103.087
114.588
36.3745
26.1387
37.3578
71.6521
135.173
99.1602
34.767
26.9074
25.9202
37.7493
108.199
122.607
41.3401
25.6634
39.4827
78.7616
144.085
103.984
36.3483
27.646
26.9843
39.9995
114.365
129.825
44.135
26.8467
42.0893
83.0618
152.395
110.592
38.1185
28.5625
27.6782
41.2398
120.742
135.795
44.5673
27.4404
43.2141
85.4073
157.987
113.298
38.5913
28.7668
28.2909
42.5402
124.407
140.744
46.8352
28.1953
45.0766
89.4779
165.264
119.8
40.4167
29.7879
28.6459
41.0708
131.368
145.998
52.8545
29.4546
28.689
53.0548
160.843
184.55
97.8126
48.4758
30.0807
41.7512
129.708
142.705
46.2197
29.5122
29.2706
50.03
159.988
185.159
97.8554
48.1089
31.0365
43.1263
132.152
142.596
42.366
29.278
29.8803
54.1219
160.028
172.88
51.7403
28.9624
50.0487
105.602
201.481
141.688
44.636
31.4349
29.881
43.4623
153.922
168.405
57.6452
31.1288
30.5953
59.3507
184.835
209.978
111.223
53.5012
32.7282
46.4364
145.927
162.315
49.4413
31.6889
31.5423
55.4522
179.22
196.745
63.4168
32.1537
30.5983
60.8561
210.106
234.938
116.683
54.1433
31.9672
46.1872
156.652
171.234
48.9003
30.8242
29.9374
50.6355
187.504
203.515
59.3506
29.96
29.0334
58.014
216.212
229.318
72.5922
31.9796
30.4275
71.0741
240.599
264.521
134.898
60.1382
33.5333
51.5594
175.063
183.209
49.6305
31.9606
32.0262
61.6902
200.716
215.858
62.1971
31.3577
30.8327
63.1334
227.881
236.258
65.3077
30.4006
30.4625
70.55
242.153
241.356
67.7479
29.4461
30.4386
75.3876
238.844
232.705
76.0378
30.1922
31.2943
81.4918
222.72
211.458
82.9029
31.1914
32.85
89.4274
200.697
190.137
91.3677
32.8644
35.1214
98.6291
180.78
171.984
100.403
35.2729
38.13
107.074
164.393
157.372
108.785
38.5049
41.8618
114.337
151.284
145.841
117.059
42.3744
46.4682
120.689
140.994
136.816
123.862
47.2222
52.0011
126.095
132.992
129.789
128.973
52.7718
57.9273
130.806
126.785
124.387
133.28
58.7997
64.0515
134.859
121.993
120.304
137.046
64.9251
70.3515
138.416
118.35
117.302
140.288
71.2855
76.7809
141.396
115.704
115.141
142.906
77.5894
82.9679
143.832
113.867
113.6
145.078
83.7022
88.8182
145.806
112.645
112.564
146.807
89.3788
94.2333
147.408
111.89
111.929
148.216
94.6909
99.2016
148.664
111.46
111.569
149.289
99.4669
103.639
149.654
111.238
111.401
150.155
103.786
107.569
150.403
111.172
111.371
150.801
107.545
110.948
150.947
111.182
111.439
151.313
110.849
113.868
151.314
111.277
111.579
151.608
113.656
116.371
151.557
111.425
111.749
151.809
116.101
118.493
151.706
111.6
111.935
151.907
118.136
120.281
151.77
111.79
112.132
151.945
119.889
121.778
151.768
111.99
112.334
151.905
121.321
123.018
151.708
112.193
112.537
151.83
122.546
124.046
151.601
112.398
112.74
151.695
123.528
124.883
151.459
112.601
112.939
151.548
124.366
125.571
151.287
112.802
113.136
151.358
125.024
126.122
151.1
112.999
113.328
151.172
125.586
126.569
150.896
113.193
113.519
150.966
125.99
126.917
150.705
113.384
113.706
150.783
126.381
127.208
150.509
113.574
113.895
150.576
126.661
127.433
150.307
113.764
114.082
150.383
126.908
127.624
150.108
113.953
114.267
150.179
127.084
127.768
149.912
114.139
114.451
149.995
127.244
127.889
149.726
114.325
114.636
149.805
127.345
127.963
149.547
114.511
114.821
149.637
127.436
128.021
149.376
114.699
115.008
149.463
127.479
128.032
149.212
114.887
115.194
149.305
127.495
128.004
149.049
115.075
115.378
149.132
127.438
127.915
148.879
115.259
115.557
148.962
127.356
127.799
148.701
115.438
115.728
148.772
127.219
127.643
148.513
115.609
115.893
148.585
127.077
127.476
148.32
115.773
116.049
148.381
126.897
127.285
148.12
115.928
116.196
148.185
126.723
127.09
147.919
116.075
116.333
147.976
126.511
126.87
147.715
116.211
116.461
147.777
126.301
126.643
147.51
116.338
116.577
147.564
126.06
126.4
147.302
116.453
116.683
147.362
125.833
126.16
147.095
116.558
116.778
147.149
125.582
125.911
146.889
116.651
116.864
146.95
125.351
125.671
146.688
116.736
116.94
146.744
125.102
125.427
146.49
116.811
117.009
146.554
124.877
125.195
146.299
116.88
117.07
146.36
124.637
124.963
146.114
116.941
117.126
146.185
124.424
124.743
145.938
116.997
117.176
146.005
124.197
124.525
145.768
117.046
117.221
145.845
123.998
124.32
145.607
117.092
117.262
145.681
123.785
124.115
145.452
117.131
117.298
145.535
123.599
123.924
145.305
117.168
117.331
145.385
123.399
123.733
145.164
117.2
117.361
145.253
123.226
123.554
145.031
117.231
117.388
145.116
123.039
123.377
144.903
117.257
117.414
144.997
122.879
123.211
144.782
117.283
117.438
144.872
122.704
123.045
144.666
117.308
117.463
144.765
122.555
122.891
144.557
117.334
117.488
144.651
122.392
122.738
144.452
117.36
117.514
144.555
122.255
122.596
144.354
117.388
117.542
144.452
122.104
122.455
144.259
117.415
117.569
144.366
121.98
122.325
144.171
117.444
117.596
144.273
121.84
122.196
144.085
117.47
117.62
144.196
121.728
122.079
144.005
117.494
117.641
144.112
121.6
121.961
143.928
117.513
117.659
144.043
121.499
121.854
143.856
117.529
117.672
143.966
121.381
121.746
143.787
117.541
117.683
143.905
121.29
121.649
143.723
117.552
117.693
143.835
121.182
121.552
143.66
117.561
117.701
143.781
121.101
121.464
143.603
117.569
117.707
143.718
121.003
121.376
143.547
117.575
117.714
143.67
120.931
121.297
143.495
117.582
117.719
143.613
120.841
121.217
143.445
117.588
117.725
143.57
120.776
121.146
143.399
117.594
117.731
143.519
120.694
121.074
143.354
117.6
117.737
143.481
120.637
121.01
143.313
117.606
117.742
143.434
120.561
120.944
143.272
117.612
117.749
143.402
120.511
120.887
143.236
117.619
117.755
143.359
120.442
120.827
143.2
117.625
117.763
143.331
120.397
120.775
143.168
117.634
117.771
143.293
120.332
120.72
143.137
117.643
117.781
143.269
120.293
120.673
143.11
117.654
117.793
143.236
120.234
120.624
143.083
117.667
117.807
143.217
120.199
120.581
143.06
117.683
117.824
143.188
120.143
120.534
143.038
117.702
117.846
143.174
120.111
120.494
143.021
117.726
117.873
143.151
120.058
120.451
143.005
117.757
117.911
143.143
120.029
120.414
142.995
117.797
117.958
143.126
119.979
120.371
142.987
117.848
118.023
143.122
119.955
120.318
142.983
117.916
118.148
143.108
119.886
120.244
142.959
118.049
118.343
143.023
119.761
119.901
143.095
118.275
118.736
143.059
119.206
118.287
142.964
119.209
120.482
142.17
117.661
112.795
140.968
122.595
124.223
139.165
108.834
100.928
137.647
126.33
63.3933
47.0021
47.5072
54.7683
64.992
70.5705
84.1189
98.824
104.232
108.369
110.683
111.756
112.051
111.918
111.608
111.266
110.957
110.704
110.505
110.354
110.24
110.156
110.094
110.049
110.016
109.993
109.977
109.967
109.962
109.959
109.969
109.987
110.014
110.049
110.091
110.138
110.189
110.243
110.3
110.358
110.42
110.483
110.549
110.617
110.688
110.76
110.835
110.912
111.002
111.118
111.27
111.456
111.663
111.877
112.093
112.311
112.536
112.77
113.013
113.265
113.525
113.786
114.046
114.3
114.543
114.775
114.994
115.201
115.398
115.586
115.766
115.94
116.11
116.277
116.441
116.605
116.768
116.931
117.096
117.262
117.43
117.601
117.773
117.948
118.124
118.302
118.482
118.663
118.844
119.025
119.206
119.386
119.564
119.741
119.915
120.086
120.254
120.418
120.578
120.734
120.885
121.031
121.172
121.308
121.439
121.565
121.685
121.8
121.91
122.015
122.114
122.209
122.3
122.385
122.467
122.544
122.617
122.686
122.751
122.812
122.87
122.924
122.975
123.023
123.068
123.11
123.15
123.188
123.225
123.26
123.296
123.332
123.369
123.409
123.451
123.498
123.55
123.608
123.672
123.743
123.822
123.909
124.005
124.108
124.22
124.34
124.467
124.602
124.744
124.894
125.049
125.212
125.38
125.553
125.732
125.916
126.104
126.295
126.488
126.683
126.878
127.073
127.267
127.459
127.649
127.836
128.021
128.204
128.384
128.561
128.734
128.903
129.066
129.221
129.365
129.498
129.616
129.72
129.807
129.88
129.939
129.987
130.025
130.057
130.086
130.116
130.148
130.187
130.238
130.304
130.391
130.503
130.64
130.787
130.923
131.048
131.163
131.168
131.17
131.15
131.087
130.962
130.763
130.484
130.117
129.67
129.18
128.68
128.178
127.666
127.14
126.594
126.028
125.443
124.836
124.209
123.562
122.894
122.207
121.501
120.777
120.038
119.282
118.511
117.727
116.931
116.125
115.311
114.489
113.661
112.828
111.993
111.157
110.323
109.492
108.667
107.849
107.041
106.245
105.462
104.695
103.945
103.216
102.509
101.827
101.17
100.539
99.9315
99.3458
98.7796
98.2397
97.755
97.376
97.1392
97.0262
96.9788
96.9521
96.8808
96.4185
95.7235
93.5419
92.0534
90.7006
89.0058
87.6737
85.9081
84.6411
82.8763
81.6916
79.9578
78.8682
77.1866
76.2014
74.5924
73.7151
72.1978
71.4235
70.007
69.3288
68.0163
67.4253
66.2118
65.6902
64.5638
64.0875
63.0371
62.5931
61.5955
61.1722
60.2069
59.7955
58.8482
58.4439
57.5075
57.109
56.1833
55.7925
54.8823
54.5023
53.6138
53.2468
52.3839
52.0304
51.1938
50.8529
50.0404
49.71
48.9172
48.5943
47.8156
47.4973
46.7271
46.4104
45.6439
45.3269
44.5603
44.2416
43.4731
43.1523
42.3816
42.0588
41.2863
40.9611
40.185
39.858
39.0803
38.7504
37.9672
37.631
36.835
36.4881
35.6693
35.3068
34.4731
34.0507
33.2446
32.6894
31.9098
31.3099
30.3268
29.4274
27.2991
25.0788
21.5298
21.2741
21.9951
24.4007
24.4799
15.531
2.54027
1.1437
0.756265
0.920098
0.929893
1.19057
1.25405
1.44885
1.39892
1.50227
1.39092
1.41936
1.36092
1.40516
1.40152
1.47562
1.50631
1.56779
1.60446
1.63637
1.65583
1.66991
1.65569
1.64322
1.60953
1.56982
1.51732
1.4504
1.40036
1.33782
1.26882
1.292
1.10082
1.15927
0.998253
1.00981
0.913177
0.902802
0.83032
0.815604
0.760552
0.745345
0.702116
0.687803
0.652859
0.639674
0.609441
0.596516
0.56901
0.556117
0.531741
0.518978
0.496864
0.484214
0.463441
0.450752
0.430963
0.419501
0.402315
0.392757
0.378228
0.370665
0.358869
0.353303
0.344096
0.340119
0.332816
0.329815
0.323909
0.321708
0.317218
0.316469
0.315389
0.313318
0.313377
0.373539
0.38553
0.385492
0.373599
0.374593
0.385933
0.386622
0.375264
0.376252
0.38714
0.394614
0.392511
0.391952
0.391818
0.396896
0.396523
0.396157
0.415576
0.414296
0.413334
0.415285
0.416232
0.417467
0.419294
0.428493
0.399367
0.392182
0.379857
0.381189
0.392353
0.400307
0.386893
0.389028
0.401852
0.408125
0.422391
0.413517
0.397541
0.400932
0.416691
0.432276
0.413244
0.418401
0.436956
0.441659
0.46523
0.455168
0.434546
0.441173
0.460907
0.481606
0.45966
0.467295
0.488144
0.494325
0.533227
0.512893
0.487763
0.496263
0.52002
0.551718
0.519519
0.52926
0.558441
0.592879
0.697778
0.602721
0.556515
0.567332
0.607527
0.67786
0.599756
0.611564
0.676825
0.894007
1.25346
0.794813
0.652369
0.664991
0.779848
0.980462
0.720102
0.733053
0.935764
1.85326
2.71595
1.26333
0.811662
0.823481
1.16478
1.65869
0.939753
0.94865
1.48781
3.78561
4.96134
2.16788
1.12042
1.12066
1.9339
2.75133
1.35832
1.34347
2.48641
6.13607
7.20777
3.35496
1.6522
1.61478
3.11116
3.92984
1.9901
1.91904
3.76648
8.11208
8.84011
4.44181
2.37338
2.2564
4.40183
4.85916
2.69932
2.6715
4.96375
9.40856
9.79383
5.12731
2.84915
2.98511
5.38885
5.33615
3.05779
3.23288
5.65785
9.96324
9.93741
5.44768
3.23977
3.37614
5.74539
5.42317
3.3399
3.41145
5.65311
9.74793
9.44949
5.25942
3.33563
3.35838
5.43477
4.99096
3.21852
3.22615
5.13642
9.04443
8.49671
4.65655
3.04331
3.04191
4.81229
4.3315
2.83707
2.82623
4.54759
7.97292
7.57557
4.20458
2.69868
2.69666
4.46004
4.62045
2.7645
2.88001
5.276
10.9341
16.8412
6.3082
3.19058
3.2468
7.06878
8.32312
3.56287
3.04615
6.18319
18.3511
21.7098
8.67198
3.1534
2.39826
7.81917
16.0307
2.99552
4.04518
18.9019
30.7974
37.4855
27.3369
13.0021
20.8782
27.0475
31.7585
24.8539
25.6669
30.8086
42.5927
46.7784
35.7473
25.7475
25.7827
35.2142
40.587
29.5821
31.1039
39.9129
50.8951
54.538
44.5599
34.9363
36.1807
43.8522
47.5424
38.6137
39.1569
46.5988
57.3693
59.5066
49.5694
40.705
40.9052
48.4435
51.1403
42.2642
42.3684
49.9688
61.1716
62.6687
52.4965
43.6656
43.7406
51.3686
53.7964
44.9994
45.0583
52.7064
63.9969
65.2678
55.0594
46.2862
46.3338
53.9981
56.2894
47.5375
47.5774
55.2577
66.4762
67.6603
57.5002
48.7652
48.8009
56.4956
58.6959
49.9789
50.013
57.7181
68.8196
69.9633
59.8803
51.1851
51.2195
58.93
61.0586
52.3861
52.4197
60.1313
71.0879
72.1876
62.2223
53.5794
53.6124
61.3185
63.3714
54.766
54.7993
62.4941
73.2487
74.2804
64.5117
55.9482
55.9826
63.6653
65.6516
57.1275
57.1636
64.8333
75.3172
76.3426
66.7877
58.3073
58.347
66
67.9243
59.4932
59.5392
67.1693
77.3616
78.3724
69.0647
60.6919
60.747
68.3451
70.212
61.9098
61.9766
69.5304
79.3747
80.3654
71.3674
63.1512
63.2316
70.726
72.5293
64.4171
64.5115
71.9297
81.3401
82.2947
73.6947
65.7049
65.8127
73.1377
74.8583
67.0083
67.1276
74.3433
83.2288
84.1356
76.0121
68.3191
68.4475
75.5392
77.151
69.6302
69.7674
76.722
85.0113
85.8574
78.2757
70.9414
71.0896
77.8952
79.3956
72.2608
72.4254
79.0718
86.6805
87.4901
80.53
73.6032
73.7913
80.2641
81.693
74.9897
75.209
81.4866
88.3052
89.1423
82.8956
76.4435
76.7048
82.7588
84.1549
77.9889
78.3031
84.0956
90.0101
90.9113
85.4797
79.6456
80.0211
85.5085
86.8672
81.4224
81.8647
87.0045
91.8367
92.7641
88.3006
83.2971
83.814
88.5386
89.7494
85.2335
85.8346
90.0749
93.6648
94.5056
91.1758
87.2078
87.8758
91.5658
92.5343
89.1725
89.8843
92.9613
95.2533
95.8793
93.78
91.0757
91.7983
94.2141
94.8699
92.8508
93.5541
95.2765
96.3626
96.6919