/*--------------------------------*- C++ -*----------------------------------*\
| =========                 |                                                 |
| \\      /  F ield         | OpenFOAM: The Open Source CFD Toolbox           |
|  \\    /   O peration     | Version:  v2006                                 |
|   \\  /    A nd           | Website:  www.openfoam.com                      |
|    \\/     M anipulation  |                                                 |
\*---------------------------------------------------------------------------*/
FoamFile
{
    version     2.0;
    format      ascii;
    class       volScalarField;
    location    "0.012";
    object      rho;
}
// * * * * * * * * * * * * * * * * * * * * * * * * * * * * * * * * * * * * * //

dimensions      [1 -3 0 0 0 0 0];


internalField   nonuniform List<scalar> 
12716
(
1.71384
1.71383
1.71393
1.71393
1.71393
1.71394
1.71394
1.71395
1.714
1.71406
1.71413
1.71421
1.7143
1.71439
1.71449
1.71459
1.7147
1.71481
1.71493
1.71505
1.71518
1.71531
1.71545
1.71559
1.71574
1.71589
1.71605
1.7162
1.71636
1.71653
1.71669
1.71686
1.71704
1.71721
1.71738
1.71756
1.71774
1.71792
1.71809
1.71827
1.71845
1.71862
1.71879
1.71896
1.71913
1.71929
1.71945
1.71961
1.71976
1.71991
1.72005
1.72019
1.72032
1.72044
1.72056
1.72067
1.72077
1.72086
1.72094
1.721
1.72104
1.72105
1.72106
1.72104
1.72103
1.72106
1.72113
1.72132
1.72165
1.72186
1.72176
1.72149
1.7218
1.7218
1.72179
1.7217
1.7213
1.72109
1.72158
1.72171
1.72163
1.72147
1.72093
1.7208
1.72136
1.72154
1.72147
1.72127
1.72071
1.72064
1.7212
1.72141
1.72136
1.72114
1.7206
1.72055
1.72109
1.72131
1.72128
1.72104
1.72053
1.72051
1.72101
1.72125
1.72123
1.72099
1.72051
1.72051
1.72098
1.72121
1.72121
1.72097
1.72052
1.72054
1.72097
1.72121
1.72122
1.72098
1.72057
1.72061
1.72101
1.72124
1.72126
1.72104
1.72067
1.72073
1.72108
1.7213
1.72134
1.72113
1.7208
1.72088
1.72119
1.72139
1.72145
1.72126
1.72097
1.72106
1.72134
1.72152
1.72159
1.72141
1.72116
1.72126
1.7215
1.72167
1.72175
1.72158
1.72135
1.72145
1.72168
1.72184
1.72192
1.72176
1.72154
1.72164
1.72186
1.72201
1.7221
1.72193
1.72172
1.72181
1.72203
1.72219
1.72227
1.72211
1.72189
1.72199
1.72221
1.72236
1.72245
1.72228
1.72208
1.72218
1.72239
1.72254
1.72263
1.72247
1.72228
1.7224
1.72258
1.72273
1.72283
1.72268
1.72251
1.72264
1.7228
1.72294
1.72304
1.7229
1.72276
1.72291
1.72304
1.72317
1.72328
1.72315
1.72303
1.72318
1.7233
1.72341
1.72353
1.72342
1.72331
1.72346
1.72357
1.72367
1.7238
1.72369
1.72358
1.72373
1.72384
1.72394
1.72407
1.72397
1.72386
1.72402
1.72412
1.72422
1.72436
1.72425
1.72415
1.72432
1.72442
1.72452
1.72466
1.72456
1.72447
1.72465
1.72473
1.72483
1.72498
1.72489
1.72483
1.72502
1.72508
1.72516
1.72533
1.72525
1.72522
1.72543
1.72546
1.72552
1.72571
1.72565
1.72564
1.72587
1.72587
1.72592
1.72612
1.72608
1.7261
1.72633
1.72632
1.72635
1.72657
1.72654
1.72657
1.72681
1.72679
1.72681
1.72704
1.72702
1.72706
1.72732
1.72729
1.7273
1.72754
1.72753
1.72758
1.72786
1.72781
1.72782
1.72807
1.72807
1.72813
1.72844
1.72837
1.72837
1.72864
1.72864
1.72872
1.72907
1.72898
1.72895
1.72924
1.72927
1.72937
1.72974
1.72962
1.72958
1.7299
1.72994
1.73006
1.73046
1.73032
1.73026
1.73062
1.73068
1.73081
1.73123
1.73106
1.73098
1.7314
1.73148
1.73163
1.73203
1.73186
1.73177
1.73223
1.73234
1.73251
1.73287
1.73271
1.73261
1.73311
1.73327
1.73351
1.73297
1.73337
1.73344
1.73379
1.73424
1.73747
1.77424
1.74952
1.73704
1.74796
1.77242
1.78097
1.78074
1.77796
1.76758
1.77145
1.77645
1.78044
1.78123
1.77585
1.77011
1.77002
1.77651
1.78255
1.78407
1.77786
1.77276
1.77438
1.77879
1.78516
1.78517
1.77948
1.77254
1.76899
1.77675
1.78306
1.7804
1.77534
1.7673
1.76174
1.77022
1.77754
1.77497
1.76758
1.75913
1.75517
1.76344
1.77316
1.77153
1.76141
1.75333
1.75127
1.75902
1.77052
1.76969
1.75819
1.75037
1.7492
1.75693
1.76876
1.76832
1.75666
1.74875
1.74789
1.7557
1.76725
1.76683
1.75548
1.74761
1.74662
1.75425
1.76546
1.76486
1.75385
1.74631
1.74527
1.75253
1.76374
1.76322
1.75196
1.74482
1.74397
1.75084
1.76242
1.76207
1.75033
1.74354
1.74279
1.74943
1.7616
1.76125
1.74884
1.74231
1.74162
1.74801
1.76071
1.76018
1.74742
1.74119
1.7407
1.74691
1.75973
1.75951
1.74656
1.7404
1.74002
1.7462
1.75923
1.75919
1.74608
1.73987
1.73963
1.74591
1.75915
1.7591
1.74576
1.73949
1.7394
1.74575
1.75915
1.75949
1.74594
1.73942
1.73913
1.74545
1.75908
1.76013
1.74644
1.7396
1.73921
1.74579
1.75961
1.76055
1.7467
1.73969
1.73962
1.74662
1.76053
1.7612
1.74727
1.74
1.74004
1.7474
1.76138
1.76204
1.74809
1.74045
1.74056
1.74831
1.76228
1.76296
1.74907
1.74101
1.74117
1.74935
1.76326
1.76398
1.75019
1.74167
1.74185
1.75053
1.76433
1.76503
1.75141
1.74237
1.74254
1.75178
1.76545
1.76604
1.75269
1.74302
1.74318
1.75309
1.76635
1.76656
1.75394
1.74364
1.74382
1.75431
1.76649
1.76606
1.75489
1.74423
1.74436
1.75502
1.7649
1.76351
1.75521
1.74464
1.74471
1.75514
1.76181
1.75989
1.75507
1.74483
1.74477
1.75469
1.75767
1.7553
1.75391
1.74472
1.74442
1.75256
1.75283
1.75038
1.75122
1.74397
1.74323
1.74958
1.74795
1.74564
1.74797
1.74254
1.74163
1.74619
1.74343
1.74137
1.74445
1.74073
1.73969
1.74267
1.73945
1.7377
1.74097
1.73866
1.73759
1.73932
1.73612
1.73474
1.73779
1.73656
1.73554
1.73637
1.73355
1.73253
1.73507
1.73459
1.73367
1.73391
1.73173
1.73107
1.73286
1.73282
1.73202
1.73198
1.7306
1.73021
1.73128
1.73138
1.73079
1.73066
1.72993
1.72975
1.73033
1.73043
1.72998
1.72989
1.72957
1.72964
1.72952
1.72949
1.72948
1.72947
1.72947
1.72947
1.72946
1.72946
1.72945
1.72945
1.72944
1.72943
1.72942
1.72942
1.72942
1.72941
1.7294
1.7294
1.72941
1.72948
1.72958
1.72959
1.72975
1.72983
1.72977
1.72969
1.72984
1.72995
1.72999
1.72958
1.72946
1.72942
1.72967
1.72973
1.72991
1.72995
1.72976
1.72966
1.72975
1.72989
1.73014
1.73021
1.72994
1.72979
1.72988
1.73007
1.73039
1.7305
1.73015
1.72994
1.73004
1.73029
1.73069
1.73083
1.7304
1.73013
1.73024
1.73056
1.73104
1.73121
1.73069
1.73035
1.73048
1.73088
1.73144
1.73163
1.73103
1.73061
1.73077
1.73125
1.73188
1.7321
1.73141
1.73091
1.73111
1.73167
1.73238
1.73261
1.73184
1.73127
1.73149
1.73214
1.73291
1.73316
1.73232
1.73167
1.73193
1.73265
1.73349
1.73376
1.73285
1.73213
1.73242
1.73321
1.73411
1.7344
1.73342
1.73263
1.73296
1.73382
1.73477
1.73507
1.73403
1.73318
1.73353
1.73446
1.73547
1.73577
1.73467
1.73376
1.73415
1.73513
1.73616
1.73646
1.73535
1.73439
1.7348
1.73582
1.73684
1.73713
1.73603
1.73504
1.73547
1.73652
1.73751
1.73785
1.73672
1.73571
1.73616
1.73722
1.73829
1.73873
1.73744
1.7364
1.73686
1.73798
1.73934
1.73984
1.73824
1.7371
1.73759
1.73885
1.74046
1.7408
1.73913
1.73785
1.73836
1.73976
1.74115
1.74119
1.74002
1.73863
1.73916
1.74051
1.74123
1.74115
1.74066
1.73944
1.73995
1.74095
1.74112
1.74107
1.74103
1.7402
1.74065
1.7412
1.74106
1.74105
1.74126
1.74085
1.74121
1.74136
1.741
1.74098
1.74139
1.74136
1.74161
1.74142
1.74085
1.74081
1.74143
1.74171
1.74186
1.74138
1.74063
1.74057
1.74135
1.74191
1.74194
1.7412
1.74032
1.74022
1.74113
1.74193
1.74186
1.74088
1.7399
1.73977
1.74077
1.74178
1.74159
1.74042
1.7394
1.73925
1.74027
1.74145
1.74114
1.73985
1.73885
1.73869
1.73966
1.74094
1.74053
1.7392
1.7383
1.73813
1.739
1.74029
1.73982
1.73852
1.73776
1.73761
1.73832
1.73956
1.73903
1.73785
1.73729
1.73715
1.73764
1.73872
1.73814
1.73723
1.73691
1.7368
1.73706
1.73778
1.73728
1.73678
1.73663
1.73654
1.73666
1.73707
1.73681
1.73647
1.7364
1.73632
1.73637
1.73668
1.73646
1.73621
1.7362
1.73612
1.73612
1.73634
1.73615
1.73598
1.73603
1.73595
1.7359
1.73605
1.73588
1.73579
1.73588
1.73579
1.7357
1.73578
1.73562
1.7356
1.73572
1.73566
1.73553
1.73554
1.73545
1.73548
1.73563
1.73557
1.73542
1.73538
1.7353
1.73538
1.73556
1.73553
1.73537
1.73528
1.73526
1.73537
1.73556
1.73555
1.73539
1.73527
1.73525
1.73539
1.73558
1.73558
1.73542
1.73526
1.73528
1.73545
1.73563
1.73563
1.73547
1.73529
1.73532
1.73551
1.73569
1.73574
1.73558
1.73539
1.73544
1.73565
1.73582
1.73586
1.73571
1.73551
1.73555
1.73578
1.73594
1.736
1.73586
1.73564
1.73573
1.73596
1.7361
1.73619
1.73606
1.73584
1.73597
1.73619
1.73632
1.7364
1.73628
1.73606
1.73621
1.73643
1.73654
1.73666
1.73656
1.73636
1.73651
1.7367
1.7368
1.73693
1.73684
1.73666
1.73689
1.73705
1.73715
1.7373
1.73727
1.73709
1.73707
1.73718
1.73726
1.73755
1.73749
1.73732
1.73757
1.73773
1.73778
1.73799
1.73797
1.73783
1.7381
1.73822
1.73823
1.73842
1.73846
1.7384
1.73863
1.73864
1.73865
1.73898
1.73903
1.73905
1.73935
1.73938
1.73929
1.73963
1.73973
1.73968
1.74004
1.74011
1.73997
1.74023
1.74043
1.74037
1.74068
1.7408
1.74059
1.74085
1.74118
1.74101
1.74142
1.74163
1.74121
1.7416
1.74207
1.7418
1.74222
1.74256
1.74208
1.74242
1.743
1.74259
1.74296
1.74338
1.74282
1.74295
1.74359
1.74327
1.74355
1.7438
1.74305
1.7435
1.74408
1.74384
1.74412
1.74428
1.7437
1.74347
1.74425
1.74434
1.74449
1.74421
1.74352
1.74389
1.74427
1.74463
1.74471
1.7441
1.74357
1.74335
1.74387
1.74471
1.74464
1.74352
1.74294
1.74263
1.74312
1.74444
1.74407
1.74253
1.7421
1.74128
1.74166
1.74339
1.74229
1.74033
1.7399
1.73898
1.73869
1.74053
1.73783
1.73623
1.73648
1.7334
1.73294
1.73401
1.7281
1.72986
1.73217
1.72419
1.72234
1.71965
1.70776
1.71622
1.71881
1.70948
1.70659
1.69099
1.6619
1.69886
1.70131
1.69427
1.68979
1.64093
1.60653
1.67333
1.68523
1.67374
1.66454
1.61016
1.61698
1.65519
1.66691
1.65609
1.64546
1.62834
1.63485
1.64387
1.65547
1.6504
1.64075
1.63676
1.64232
1.64106
1.64439
1.64646
1.64385
1.64719
1.64659
1.64556
1.6453
1.64535
1.64649
1.64615
1.64597
1.64557
1.6444
1.64749
1.6462
1.64603
1.64571
1.64505
1.64449
1.64546
1.64517
1.64587
1.64604
1.64494
1.64462
1.64744
1.64541
1.64639
1.64671
1.64535
1.64403
1.64917
1.64651
1.64716
1.64733
1.64561
1.64529
1.64874
1.64674
1.64822
1.64909
1.64737
1.64692
1.65304
1.64884
1.65046
1.65155
1.64935
1.65015
1.65369
1.65183
1.65354
1.65537
1.65344
1.65283
1.65826
1.65593
1.65815
1.66033
1.6587
1.6585
1.66309
1.66238
1.66331
1.66529
1.66495
1.66532
1.66598
1.66648
1.66688
1.66869
1.66852
1.66898
1.66918
1.66963
1.66971
1.67144
1.6716
1.67139
1.67157
1.6723
1.67228
1.67515
1.67479
1.67474
1.67437
1.6747
1.67472
1.67695
1.67693
1.67692
1.67793
1.678
1.67801
1.67816
1.67817
1.67799
1.67991
1.6801
1.68014
1.68047
1.68047
1.68036
1.6811
1.68108
1.68101
1.6818
1.68181
1.68176
1.68165
1.68169
1.68162
1.6834
1.68336
1.6832
1.68336
1.68339
1.68339
1.68382
1.68386
1.68385
1.68367
1.68362
1.68353
1.68507
1.68509
1.68498
1.68512
1.68507
1.68504
1.68527
1.68539
1.68547
1.68529
1.68514
1.68505
1.68652
1.6866
1.68653
1.68659
1.68654
1.68647
1.68653
1.68667
1.68681
1.68707
1.68699
1.68685
1.68658
1.68668
1.68685
1.68795
1.68799
1.68787
1.68783
1.68791
1.68802
1.68818
1.68803
1.68787
1.6877
1.68776
1.68797
1.68909
1.68912
1.68897
1.68884
1.68896
1.6891
1.68913
1.68897
1.68878
1.68851
1.68861
1.68885
1.69
1.69005
1.68995
1.68973
1.68983
1.68999
1.68998
1.68976
1.68957
1.68924
1.68933
1.68961
1.69083
1.69081
1.69058
1.69051
1.69065
1.69084
1.69073
1.69054
1.69033
1.68993
1.69009
1.69041
1.69139
1.69139
1.69121
1.69105
1.69118
1.69133
1.69118
1.69098
1.69082
1.69063
1.69074
1.69099
1.69191
1.6919
1.69177
1.6914
1.69157
1.69179
1.69122
1.69094
1.69086
1.69205
1.69218
1.69219
1.69209
1.69194
1.69183
1.69167
1.69175
1.69195
1.69162
1.69132
1.69123
1.69228
1.69249
1.69252
1.69238
1.69218
1.69198
1.69157
1.69179
1.69206
1.69169
1.69132
1.69118
1.6926
1.69275
1.69272
1.69257
1.69232
1.69214
1.69144
1.69156
1.69187
1.69276
1.69272
1.6925
1.69221
1.6924
1.69263
1.69228
1.69199
1.69177
1.69139
1.69151
1.69191
1.69284
1.69287
1.69269
1.69217
1.69237
1.69266
1.6919
1.69156
1.69143
1.69247
1.69272
1.69276
1.69261
1.69237
1.69213
1.69165
1.6919
1.69222
1.69185
1.69143
1.69133
1.69258
1.6928
1.69277
1.69252
1.69221
1.69198
1.6912
1.69136
1.69173
1.69257
1.69252
1.69224
1.69188
1.69215
1.69238
1.69196
1.69163
1.69134
1.69095
1.69109
1.69153
1.69241
1.69244
1.69216
1.69158
1.69183
1.69217
1.69129
1.69093
1.69075
1.69174
1.69209
1.69215
1.69192
1.69168
1.69134
1.69076
1.6911
1.69148
1.69091
1.69038
1.69022
1.69158
1.69193
1.69191
1.69166
1.69128
1.69099
1.69008
1.69029
1.69072
1.69153
1.69148
1.69109
1.69052
1.69085
1.69122
1.69037
1.68993
1.68973
1.69079
1.69119
1.69124
1.6909
1.69062
1.69027
1.68987
1.69002
1.69033
1.69112
1.6911
1.69074
1.69019
1.69058
1.69083
1.69024
1.68983
1.68943
1.68882
1.68907
1.68959
1.69042
1.69036
1.68989
1.6893
1.68977
1.69012
1.6892
1.68871
1.68846
1.68983
1.69022
1.69022
1.68994
1.6895
1.68914
1.68818
1.68842
1.68894
1.68966
1.68962
1.68919
1.68855
1.68892
1.68932
1.68834
1.68795
1.68768
1.68867
1.68916
1.68925
1.68904
1.68876
1.68828
1.68755
1.68801
1.68846
1.68783
1.68728
1.68709
1.68808
1.68861
1.68866
1.68828
1.6878
1.6873
1.68631
1.68663
1.68714
1.68805
1.68795
1.68739
1.68671
1.68725
1.68768
1.68666
1.68611
1.68582
1.68693
1.68749
1.68756
1.68724
1.68683
1.6864
1.68561
1.68588
1.68629
1.68706
1.687
1.68647
1.6857
1.68621
1.68669
1.68551
1.68496
1.68467
1.68575
1.6863
1.68638
1.68601
1.68556
1.68506
1.68421
1.68452
1.68497
1.68588
1.68575
1.68511
1.68477
1.68537
1.68561
1.68501
1.68453
1.68398
1.68305
1.68339
1.68406
1.68486
1.68475
1.68407
1.6833
1.68394
1.68446
1.68315
1.6826
1.6822
1.68332
1.68399
1.68413
1.68373
1.6832
1.68251
1.6815
1.68187
1.68251
1.68347
1.68334
1.68264
1.68202
1.68262
1.68308
1.6819
1.68137
1.681
1.68192
1.68262
1.68275
1.68233
1.68177
1.68109
1.68003
1.68042
1.68106
1.68189
1.68177
1.68107
1.68035
1.681
1.68149
1.6802
1.67963
1.6792
1.68031
1.68104
1.68118
1.6808
1.68032
1.67964
1.6786
1.67897
1.6796
1.68041
1.6803
1.67958
1.67866
1.67936
1.67993
1.67855
1.678
1.67757
1.67861
1.67935
1.67949
1.67911
1.67856
1.67781
1.67665
1.67708
1.67779
1.67861
1.6785
1.67776
1.67689
1.67762
1.67819
1.67681
1.67622
1.67574
1.67689
1.67765
1.67778
1.67742
1.67706
1.67624
1.67494
1.67579
1.67646
1.67522
1.6744
1.67394
1.67531
1.67616
1.67633
1.67588
1.67526
1.67434
1.67302
1.67358
1.67431
1.67536
1.67521
1.67435
1.67329
1.67419
1.67487
1.67325
1.67248
1.67196
1.67327
1.67412
1.67426
1.67377
1.67311
1.67223
1.67096
1.67153
1.67219
1.67324
1.6731
1.67222
1.67131
1.67216
1.6728
1.67113
1.67039
1.66986
1.67104
1.67194
1.67213
1.67162
1.67096
1.67007
1.66871
1.66929
1.66998
1.67102
1.67085
1.66994
1.66887
1.66982
1.67053
1.66881
1.66803
1.66745
1.66873
1.66966
1.66984
1.66935
1.66868
1.66775
1.66637
1.66697
1.66767
1.66871
1.66851
1.66751
1.66659
1.66754
1.66822
1.66653
1.66577
1.66521
1.66634
1.66732
1.66749
1.66698
1.6662
1.66525
1.66365
1.6643
1.66507
1.66616
1.66589
1.66484
1.6639
1.66497
1.66567
1.66401
1.66319
1.66256
1.66371
1.6648
1.66503
1.66456
1.6641
1.66296
1.66149
1.6626
1.66341
1.66175
1.66082
1.66011
1.66182
1.66293
1.66314
1.66261
1.66171
1.6605
1.65887
1.65961
1.66052
1.6615
1.66117
1.65992
1.65873
1.65999
1.66085
1.65877
1.65793
1.65715
1.65864
1.65987
1.66016
1.65964
1.65885
1.65757
1.65599
1.65672
1.65773
1.65881
1.65856
1.65735
1.65613
1.65732
1.65819
1.656
1.65514
1.65436
1.6557
1.65691
1.65717
1.65667
1.65571
1.65448
1.65227
1.65313
1.65419
1.65545
1.65504
1.65369
1.65272
1.65409
1.65489
1.65286
1.6519
1.65107
1.65256
1.65388
1.65418
1.65368
1.65276
1.6514
1.64958
1.65041
1.65152
1.65261
1.65229
1.65093
1.64999
1.65143
1.65202
1.65037
1.64922
1.64797
1.64624
1.64712
1.64811
1.64948
1.64894
1.64731
1.64616
1.64787
1.64887
1.64668
1.64561
1.64468
1.64626
1.64779
1.64816
1.64749
1.64648
1.64489
1.64309
1.64402
1.64508
1.64651
1.64619
1.64474
1.64331
1.64477
1.64588
1.64322
1.64203
1.64114
1.64261
1.64402
1.64436
1.64369
1.64263
1.64115
1.63831
1.63949
1.64069
1.64222
1.6417
1.64007
1.63927
1.64101
1.64173
1.64035
1.63916
1.63746
1.63558
1.63665
1.63795
1.63972
1.63934
1.63769
1.63617
1.6379
1.63906
1.63622
1.63496
1.63393
1.63537
1.63707
1.63752
1.63682
1.63554
1.63395
1.63109
1.63229
1.63364
1.6347
1.63399
1.63195
1.63103
1.63306
1.63397
1.63244
1.63112
1.62913
1.62741
1.62862
1.63005
1.63212
1.63168
1.62983
1.62842
1.63037
1.63151
1.62852
1.62705
1.62589
1.62756
1.62941
1.62988
1.62898
1.62759
1.62591
1.6235
1.62458
1.62567
1.62669
1.62573
1.62336
1.62177
1.6243
1.62558
1.6242
1.62265
1.62019
1.61876
1.62015
1.62181
1.62396
1.62343
1.6213
1.61977
1.62199
1.62324
1.62011
1.61856
1.61724
1.61892
1.62096
1.6215
1.6206
1.61906
1.61705
1.61425
1.61555
1.61695
1.61797
1.61721
1.61497
1.61243
1.61519
1.6165
1.61455
1.61293
1.61026
1.60879
1.61032
1.612
1.6145
1.61401
1.61186
1.6102
1.61249
1.61388
1.61069
1.609
1.60765
1.60908
1.61138
1.61197
1.61106
1.61005
1.6078
1.6045
1.6065
1.60818
1.60406
1.60247
1.60083
1.6017
1.60445
1.60565
1.60471
1.60295
1.60002
1.5984
1.6
1.60174
1.60404
1.60337
1.60083
1.59968
1.60235
1.60336
1.60118
1.59925
1.59692
1.59427
1.59574
1.59739
1.59938
1.59862
1.59599
1.5946
1.59715
1.59857
1.59516
1.59286
1.58969
1.58507
1.58749
1.59011
1.59322
1.5923
1.58956
1.58808
1.59099
1.5927
1.58954
1.58784
1.5861
1.58789
1.59064
1.59146
1.59066
1.58924
1.58632
1.58282
1.5854
1.58757
1.58296
1.58095
1.57932
1.5804
1.58323
1.58433
1.58222
1.58014
1.57605
1.57332
1.57722
1.57959
1.57664
1.57455
1.57238
1.57603
1.57908
1.57988
1.57931
1.57805
1.57474
1.57152
1.57451
1.57692
1.57203
1.56969
1.56761
1.56996
1.57256
1.57358
1.57152
1.56985
1.56588
1.55935
1.5641
1.56711
1.56329
1.56085
1.5581
1.56325
1.56634
1.56718
1.56674
1.56515
1.56161
1.55942
1.56291
1.56483
1.56138
1.55867
1.55518
1.55134
1.55349
1.55593
1.55726
1.55556
1.55129
1.54561
1.55141
1.55439
1.55193
1.54894
1.54382
1.54307
1.54595
1.54864
1.55241
1.55131
1.5475
1.54584
1.54989
1.55192
1.54903
1.54637
1.54203
1.53702
1.54104
1.54401
1.53422
1.52924
1.52443
1.53268
1.53685
1.53901
1.53975
1.53708
1.5325
1.53155
1.53628
1.53876
1.53614
1.53278
1.52862
1.52461
1.52702
1.53012
1.53096
1.5285
1.52338
1.51477
1.52299
1.52694
1.52451
1.52081
1.51445
1.51438
1.52116
1.52403
1.52302
1.51915
1.51325
1.51051
1.51423
1.51766
1.51806
1.51484
1.50798
1.50046
1.50996
1.51429
1.51253
1.50852
1.50046
1.50102
1.5086
1.5122
1.5113
1.50758
1.50025
1.49408
1.50279
1.5077
1.50118
1.49452
1.48397
1.48578
1.49017
1.49603
1.50431
1.50182
1.49547
1.49386
1.50085
1.50481
1.50144
1.49542
1.48447
1.48429
1.494
1.49921
1.4996
1.49517
1.48691
1.48245
1.49372
1.49951
1.49914
1.49285
1.48175
1.48461
1.49494
1.50085
1.50416
1.49747
1.48649
1.4912
1.50141
1.50814
1.51273
1.50601
1.49678
1.49986
1.50875
1.51598
1.5186
1.51127
1.50297
1.50506
1.51283
1.52051
1.52228
1.51468
1.50744
1.50924
1.51589
1.52367
1.52496
1.51736
1.51116
1.51276
1.5184
1.52599
1.527
1.51962
1.51439
1.51585
1.52058
1.52782
1.52861
1.52163
1.51726
1.5186
1.52254
1.52928
1.52991
1.52346
1.51982
1.52103
1.52432
1.5305
1.53098
1.52513
1.52208
1.52319
1.52595
1.53153
1.53192
1.52667
1.52412
1.52514
1.52747
1.53246
1.53279
1.52812
1.52599
1.52694
1.52889
1.53333
1.53364
1.52949
1.52771
1.52859
1.53024
1.53419
1.53446
1.53079
1.52929
1.53011
1.5315
1.53504
1.5353
1.53204
1.53075
1.5315
1.5327
1.53588
1.53614
1.5332
1.53209
1.53279
1.53382
1.5367
1.53701
1.53431
1.53333
1.53399
1.53491
1.53754
1.53787
1.53536
1.53447
1.53508
1.53592
1.53839
1.53873
1.53637
1.53554
1.53611
1.53691
1.53922
1.53956
1.53733
1.53654
1.53707
1.53784
1.54003
1.54037
1.53825
1.53748
1.53797
1.53874
1.54081
1.54115
1.53912
1.53836
1.53882
1.53959
1.54155
1.54188
1.53995
1.53919
1.53962
1.5404
1.54228
1.54259
1.54075
1.53998
1.54038
1.54117
1.54296
1.54326
1.54151
1.54072
1.54111
1.54191
1.54362
1.54389
1.54223
1.54143
1.5418
1.54261
1.54424
1.54449
1.54291
1.54211
1.54246
1.54327
1.54483
1.54505
1.54357
1.54276
1.54308
1.5439
1.54539
1.54561
1.54418
1.54337
1.54368
1.5445
1.54591
1.54612
1.54477
1.54396
1.54425
1.54506
1.5464
1.54661
1.54532
1.54452
1.5448
1.5456
1.54687
1.54707
1.54585
1.54505
1.54532
1.5461
1.5473
1.5475
1.54634
1.54556
1.54581
1.54658
1.54771
1.54789
1.54681
1.54605
1.54628
1.54703
1.54809
1.54827
1.54724
1.5465
1.54673
1.54746
1.54845
1.54863
1.54766
1.54695
1.54716
1.54785
1.5488
1.54897
1.54805
1.54736
1.54756
1.54823
1.54912
1.54928
1.54842
1.54776
1.54794
1.54859
1.54942
1.54957
1.54876
1.54813
1.54831
1.54892
1.54971
1.54985
1.54909
1.54848
1.54865
1.54924
1.54998
1.55011
1.54939
1.54881
1.54897
1.54953
1.55023
1.55035
1.54968
1.54913
1.54928
1.54981
1.55047
1.55058
1.54995
1.54943
1.54956
1.55007
1.55068
1.55079
1.5502
1.5497
1.54983
1.55031
1.5509
1.551
1.55044
1.54997
1.55009
1.55054
1.55109
1.55119
1.55066
1.55021
1.55033
1.55075
1.55128
1.55137
1.55087
1.55044
1.55055
1.55096
1.55145
1.55154
1.55106
1.55066
1.55076
1.55114
1.55161
1.5517
1.55124
1.55086
1.55096
1.55132
1.55176
1.55185
1.55141
1.55105
1.55114
1.55148
1.55191
1.55199
1.55158
1.55123
1.55131
1.55164
1.55205
1.55212
1.55173
1.5514
1.55147
1.55179
1.55218
1.55225
1.55187
1.55155
1.55162
1.55193
1.5523
1.55237
1.552
1.5517
1.55177
1.55205
1.55242
1.55249
1.55213
1.55184
1.5519
1.55218
1.55252
1.55259
1.55225
1.55197
1.55202
1.55229
1.55263
1.55269
1.55236
1.55208
1.55214
1.5524
1.55272
1.55278
1.55246
1.5522
1.55225
1.5525
1.55281
1.55287
1.55256
1.5523
1.55235
1.55259
1.55289
1.55295
1.55265
1.5524
1.55244
1.55268
1.55298
1.55303
1.55273
1.55249
1.55253
1.55276
1.55305
1.5531
1.55281
1.55258
1.55262
1.55284
1.55312
1.55317
1.55289
1.55266
1.55269
1.55291
1.55318
1.55322
1.55295
1.55273
1.55276
1.55297
1.55324
1.55328
1.55302
1.5528
1.55283
1.55303
1.55329
1.55333
1.55307
1.55286
1.55288
1.55308
1.55334
1.55337
1.55312
1.55291
1.55293
1.55312
1.55337
1.5534
1.55316
1.55295
1.55297
1.55316
1.5534
1.55343
1.55319
1.55299
1.553
1.55319
1.55342
1.55345
1.55322
1.55302
1.55303
1.55321
1.55345
1.55347
1.55324
1.55305
1.55306
1.55324
1.55346
1.55349
1.55326
1.55307
1.55308
1.55326
1.55348
1.55351
1.55329
1.5531
1.55311
1.55328
1.5535
1.55353
1.55331
1.55312
1.55313
1.5533
1.55352
1.55355
1.55333
1.55314
1.55316
1.55332
1.55353
1.55356
1.55335
1.55317
1.55318
1.55334
1.55355
1.55358
1.55337
1.55319
1.5532
1.55336
1.55356
1.55359
1.55338
1.55321
1.55322
1.55338
1.55358
1.55361
1.5534
1.55323
1.55324
1.55339
1.55359
1.55361
1.55342
1.55325
1.55325
1.55341
1.5536
1.55363
1.55343
1.55326
1.55327
1.55342
1.55361
1.55363
1.55344
1.55328
1.55328
1.55343
1.55362
1.55365
1.55345
1.55329
1.5533
1.55344
1.55362
1.55365
1.55346
1.5533
1.55331
1.55345
1.55363
1.55366
1.55347
1.55331
1.55332
1.55346
1.55364
1.55366
1.55348
1.55332
1.55333
1.55347
1.55365
1.55367
1.55349
1.55333
1.55334
1.55347
1.55364
1.55367
1.55349
1.55334
1.55334
1.55348
1.55365
1.55367
1.5535
1.55335
1.55335
1.55348
1.55365
1.55367
1.5535
1.55335
1.55335
1.55348
1.55365
1.55367
1.5535
1.55335
1.55335
1.55348
1.55364
1.55366
1.55349
1.55335
1.55335
1.55347
1.55364
1.55366
1.55349
1.55335
1.55334
1.55347
1.55362
1.55364
1.55348
1.55334
1.55333
1.55345
1.55362
1.55363
1.55346
1.55332
1.55331
1.55344
1.55359
1.55361
1.55344
1.5533
1.55329
1.55341
1.55357
1.55358
1.55342
1.55328
1.55326
1.55338
1.55354
1.55354
1.55338
1.55324
1.55321
1.55334
1.5535
1.55348
1.55332
1.55318
1.55316
1.55328
1.55345
1.55342
1.55326
1.55311
1.55307
1.55321
1.55338
1.55335
1.55317
1.553
1.553
1.55317
1.55339
1.55345
1.55319
1.55301
1.5535
1.5537
1.55409
1.55477
1.55448
1.55433
1.55589
1.55577
1.55587
1.55607
1.556
1.55641
1.55648
1.55972
1.56102
1.56336
1.56531
1.56596
1.56671
1.56713
1.56802
1.56858
1.56911
1.56958
1.56999
1.57034
1.57062
1.57083
1.571
1.57112
1.57121
1.57127
1.57132
1.57135
1.57138
1.57139
1.5714
1.57141
1.57141
1.57141
1.57142
1.57142
1.57142
1.57144
1.5715
1.57155
1.57163
1.57171
1.57181
1.57192
1.57204
1.57219
1.57235
1.57254
1.57276
1.573
1.57326
1.57353
1.57379
1.57401
1.57418
1.57433
1.57447
1.57462
1.57478
1.57495
1.57513
1.5753
1.57549
1.57568
1.57587
1.57608
1.5763
1.57653
1.57679
1.57707
1.57739
1.57774
1.57813
1.57858
1.57907
1.57963
1.58025
1.58094
1.58172
1.58258
1.58354
1.58459
1.58575
1.58702
1.5884
1.5899
1.59151
1.59323
1.59507
1.59701
1.59905
1.60119
1.60341
1.6057
1.60806
1.61048
1.61294
1.61544
1.61796
1.6205
1.62304
1.62558
1.62811
1.63063
1.63312
1.63558
1.63801
1.6404
1.64275
1.64506
1.64732
1.64953
1.65169
1.65379
1.65585
1.65785
1.6598
1.6617
1.66354
1.66534
1.66708
1.66877
1.6704
1.67199
1.67354
1.67503
1.67647
1.67787
1.67923
1.68054
1.6818
1.68302
1.6842
1.68534
1.68644
1.6875
1.68851
1.6895
1.69044
1.69135
1.69222
1.69306
1.69386
1.69464
1.69538
1.69609
1.69678
1.69743
1.69806
1.69866
1.69924
1.6998
1.70033
1.70084
1.70133
1.70179
1.70225
1.70268
1.70309
1.70349
1.70388
1.70425
1.7046
1.70495
1.70528
1.70559
1.7059
1.7062
1.70648
1.70676
1.70703
1.70729
1.70754
1.70779
1.70804
1.70828
1.70851
1.70875
1.70897
1.7092
1.70942
1.70963
1.70984
1.71005
1.71025
1.71044
1.71063
1.71082
1.711
1.71118
1.71135
1.71153
1.7117
1.71186
1.71202
1.71217
1.71233
1.71249
1.71266
1.71284
1.71301
1.71323
1.71356
1.71357
1.71358
1.7136
1.71366
1.71381
1.71396
1.71407
1.71415
1.71423
1.71432
1.71441
1.7145
1.7146
1.71471
1.71482
1.71494
1.71506
1.71519
1.71532
1.71546
1.7156
1.71575
1.7159
1.71606
1.71622
1.71639
1.71656
1.71673
1.7169
1.71708
1.71725
1.71743
1.71761
1.71779
1.71797
1.71815
1.71833
1.71851
1.71868
1.71885
1.71902
1.71919
1.71935
1.7195
1.71966
1.7198
1.71994
1.72007
1.7202
1.72032
1.72043
1.72054
1.72064
1.72074
1.72083
1.72092
1.72101
1.72106
1.72107
1.7211
1.72123
1.72151
1.72161
1.72168
1.72162
1.72158
1.72154
1.72151
1.72147
1.72145
1.72144
1.72143
1.72142
1.72142
1.72143
1.72144
1.72146
1.72149
1.72152
1.72156
1.72161
1.72167
1.72173
1.7218
1.72187
1.72195
1.72203
1.72212
1.7222
1.72229
1.72238
1.72247
1.72256
1.72265
1.72274
1.72283
1.72293
1.72303
1.72313
1.72324
1.72335
1.72347
1.72359
1.72371
1.72384
1.72397
1.72411
1.72424
1.72438
1.72453
1.72468
1.72482
1.72498
1.72514
1.72531
1.72548
1.72566
1.72584
1.72604
1.72624
1.72646
1.72667
1.7269
1.72713
1.72738
1.72762
1.72789
1.72814
1.72842
1.72869
1.72899
1.72929
1.7296
1.72992
1.73026
1.73061
1.73096
1.73135
1.73172
1.73215
1.73253
1.73298
1.73336
1.73367
1.73411
1.73547
1.73963
1.74561
1.75164
1.75473
1.76144
1.7702
1.76731
1.76121
1.75803
1.75442
1.75215
1.74974
1.748
1.74665
1.74527
1.74476
1.74364
1.74308
1.74249
1.74185
1.74138
1.74076
1.74038
1.7398
1.73947
1.73893
1.73855
1.73804
1.73769
1.73724
1.73691
1.7365
1.73625
1.73589
1.73564
1.73542
1.73517
1.73506
1.7348
1.73473
1.73456
1.73454
1.73446
1.73445
1.73446
1.73446
1.73454
1.73456
1.7347
1.73475
1.73493
1.73497
1.73517
1.73522
1.73543
1.73549
1.73571
1.73577
1.73594
1.73596
1.73603
1.73598
1.73594
1.73579
1.73562
1.73529
1.73504
1.73464
1.7343
1.73385
1.73346
1.73299
1.73258
1.73214
1.73174
1.73133
1.73096
1.73059
1.73028
1.73003
1.72984
1.7296
1.72955
1.72963
1.72971
1.72983
1.72971
1.7298
1.72998
1.73016
1.72992
1.72976
1.72965
1.72958
1.72952
1.72952
1.72958
1.72965
1.72963
1.72958
1.72951
1.72951
1.72957
1.72962
1.72973
1.72986
1.72992
1.73
1.73031
1.73051
1.73014
1.7302
1.73066
1.7309
1.73037
1.73008
1.73023
1.73042
1.73104
1.7313
1.7306
1.73064
1.73142
1.73168
1.73082
1.73039
1.73055
1.73083
1.73177
1.73197
1.73099
1.73097
1.73203
1.73217
1.73112
1.73072
1.73088
1.73106
1.73218
1.73228
1.7312
1.73116
1.73222
1.7323
1.73128
1.73104
1.73123
1.73127
1.7322
1.73226
1.73138
1.73141
1.73215
1.7322
1.7315
1.73151
1.73199
1.73156
1.73212
1.73216
1.73164
1.73179
1.73212
1.73217
1.73182
1.73279
1.734
1.73216
1.73219
1.73224
1.7321
1.73271
1.73234
1.73237
1.73254
1.73555
1.73734
1.7335
1.73256
1.73258
1.73321
1.73447
1.7329
1.73289
1.73411
1.73922
1.74104
1.73555
1.73338
1.73333
1.73521
1.73666
1.73398
1.73388
1.73644
1.74276
1.74436
1.73776
1.73471
1.73457
1.73772
1.73881
1.73546
1.73549
1.73897
1.74585
1.74716
1.73968
1.73606
1.73637
1.74014
1.74054
1.73684
1.7373
1.74114
1.74824
1.74907
1.74135
1.73769
1.73819
1.74199
1.74206
1.73855
1.73905
1.74268
1.74959
1.74984
1.74259
1.73932
1.73983
1.7432
1.74304
1.74004
1.74055
1.74364
1.74986
1.74968
1.74341
1.7407
1.74119
1.74402
1.74374
1.74135
1.74174
1.74434
1.74953
1.75052
1.74437
1.7421
1.7425
1.74505
1.7461
1.74326
1.74377
1.74796
1.75752
1.75917
1.7501
1.74534
1.7456
1.75099
1.75371
1.74766
1.74788
1.75338
1.75219
1.74892
1.75692
1.74999
1.75125
1.75585
1.75804
1.75526
1.76203
1.75702
1.74195
1.73648
1.75107
1.76341
1.75925
1.74456
1.7398
1.75116
1.7446
1.73808
1.73499
1.73424
1.73603
1.74098
1.73896
1.73525
1.73435
1.73598
1.73473
1.73397
1.73382
1.73353
1.73387
1.73405
1.73378
1.7336
1.73354
1.73355
1.73326
1.73312
1.73313
1.73258
1.73293
1.7329
1.7325
1.73246
1.73222
1.73213
1.73174
1.73176
1.73197
1.73134
1.73151
1.73137
1.73101
1.73107
1.73082
1.73066
1.73032
1.73041
1.73072
1.73012
1.73018
1.72999
1.72968
1.72979
1.72956
1.72937
1.72908
1.7292
1.72954
1.72899
1.72899
1.72879
1.72852
1.72864
1.72845
1.72824
1.72799
1.72812
1.72847
1.72798
1.72794
1.72773
1.72749
1.72762
1.72745
1.72725
1.72702
1.72716
1.72751
1.72707
1.727
1.7268
1.72658
1.72672
1.72657
1.72638
1.72618
1.72632
1.72666
1.72627
1.72618
1.72599
1.7258
1.72594
1.72582
1.72563
1.72545
1.72559
1.72591
1.72557
1.72548
1.72529
1.72512
1.72526
1.72515
1.72497
1.72482
1.72495
1.72525
1.72495
1.72485
1.72468
1.72453
1.72466
1.72456
1.72439
1.72425
1.72438
1.72466
1.72438
1.72428
1.72412
1.72398
1.72411
1.72402
1.72386
1.72373
1.72386
1.72412
1.72387
1.72378
1.72362
1.7235
1.72362
1.72355
1.72339
1.72328
1.7234
1.72364
1.72341
1.72333
1.72318
1.72307
1.72318
1.72312
1.72298
1.72288
1.72298
1.7232
1.72299
1.72291
1.72279
1.72269
1.72279
1.72272
1.7226
1.7225
1.72259
1.72279
1.7226
1.72253
1.72242
1.72232
1.72241
1.72235
1.72224
1.72215
1.72224
1.72242
1.72226
1.72218
1.72208
1.72199
1.72208
1.72203
1.72193
1.72185
1.72194
1.72211
1.72198
1.7219
1.7218
1.72173
1.72182
1.72179
1.72169
1.72164
1.72172
1.72186
1.72177
1.7217
1.72161
1.72157
1.72165
1.72163
1.72155
1.72153
1.72159
1.7217
1.72164
1.72159
1.72152
1.72151
1.72156
1.72156
1.72151
1.72151
1.72154
1.72159
1.72154
1.72154
1.72152
1.72152
1.72154
1.72154
1.72154
1.72156
1.72154
1.7215
1.72142
1.72154
1.72158
1.7216
1.72153
1.72125
1.72142
1.72153
1.72161
1.72169
1.72177
1.72187
1.72197
1.72209
1.72222
1.72238
1.72254
1.72272
1.72291
1.72312
1.72333
1.72355
1.72377
1.72401
1.72426
1.72452
1.72479
1.72508
1.72537
1.72569
1.72602
1.72636
1.72673
1.72713
1.72755
1.72799
1.72846
1.72895
1.72947
1.73001
1.73057
1.73114
1.73172
1.73229
1.73281
1.73329
1.73364
1.73403
1.73452
1.73505
1.73623
1.73871
1.74208
1.75027
1.75414
1.75578
1.75786
1.75863
1.75837
1.758