/*--------------------------------*- C++ -*----------------------------------*\
| =========                 |                                                 |
| \\      /  F ield         | OpenFOAM: The Open Source CFD Toolbox           |
|  \\    /   O peration     | Version:  v2006                                 |
|   \\  /    A nd           | Website:  www.openfoam.com                      |
|    \\/     M anipulation  |                                                 |
\*---------------------------------------------------------------------------*/
FoamFile
{
    version     2.0;
    format      ascii;
    class       volScalarField;
    location    "0.01";
    object      turbulenceProperties:I;
}
// * * * * * * * * * * * * * * * * * * * * * * * * * * * * * * * * * * * * * //

dimensions      [0 0 0 0 0 0 0];


internalField   nonuniform List<scalar> 
11076
(
0.15
0.15
0.15
0.15
0.15
0.15
0.15
0.15
0.15
0.15
0.15
0.15
0.15
0.15
0.15
0.15
0.15
0.15
0.15
0.15
0.15
0.15
0.15
0.15
0.15
0.15
0.15
0.15
0.15
0.15
0.150001
0.150001
0.150001
0.150001
0.150001
0.15
0.15
0.15
0.15
0.149999
0.149999
0.149998
0.149998
0.149998
0.149998
0.149999
0.149999
0.15
0.15
0.150001
0.150001
0.150001
0.150002
0.150002
0.150002
0.150002
0.150002
0.15
0.149999
0.149997
0.149996
0.149995
0.149992
0.149995
0.149999
0.149999
0.150005
0.15001
0.150008
0.14986
0.149263
0.143765
0.135378
0.145538
0.148806
0.146645
0.140419
0.128677
0.123569
0.136121
0.144258
0.141509
0.13158
0.119216
0.116152
0.128323
0.139139
0.136481
0.124684
0.113389
0.111488
0.122233
0.134507
0.132155
0.119519
0.109635
0.10852
0.117997
0.130638
0.1286
0.115827
0.10722
0.106543
0.114886
0.127467
0.125721
0.113159
0.105594
0.105169
0.112546
0.124833
0.123308
0.111125
0.104449
0.104169
0.110694
0.122592
0.121235
0.109506
0.103605
0.10341
0.109167
0.120643
0.119415
0.108159
0.102951
0.102812
0.107881
0.118915
0.11779
0.106999
0.102426
0.102322
0.106762
0.117354
0.116316
0.105973
0.101987
0.101906
0.105765
0.115921
0.114962
0.105047
0.101608
0.101542
0.104861
0.114598
0.113703
0.104199
0.101272
0.101216
0.10403
0.113363
0.112522
0.103416
0.100968
0.100919
0.10326
0.112203
0.111408
0.102685
0.100688
0.100644
0.102539
0.111106
0.11035
0.101997
0.100428
0.100386
0.101859
0.110061
0.10934
0.101347
0.100181
0.100141
0.101213
0.109062
0.108371
0.100727
0.0999461
0.0999054
0.100597
0.108101
0.107437
0.100132
0.099719
0.0996771
0.100003
0.107173
0.106532
0.0995577
0.0994973
0.099453
0.0994292
0.106272
0.105652
0.0990002
0.0992788
0.0992307
0.09887
0.105395
0.104792
0.0984555
0.0990614
0.0990074
0.0983219
0.104537
0.103951
0.0979203
0.098843
0.0987814
0.0977818
0.103696
0.103124
0.0973914
0.0986208
0.0985507
0.0972467
0.102866
0.102307
0.0968668
0.0983934
0.0983128
0.0967137
0.102044
0.101496
0.0963417
0.0981574
0.0980635
0.0961764
0.101227
0.100686
0.0958055
0.0979086
0.0977999
0.0956243
0.100408
0.0998694
0.0952503
0.0976435
0.0975181
0.0950506
0.0995789
0.0990404
0.094671
0.0973594
0.0972157
0.0944504
0.0987349
0.098193
0.0940635
0.0970578
0.0968905
0.0938193
0.0978695
0.0973216
0.0934222
0.096712
0.096539
0.0931518
0.0969772
0.0964202
0.0927427
0.0963368
0.0961563
0.0924429
0.0960516
0.0954832
0.0920175
0.0959271
0.0957342
0.0916852
0.0950866
0.0945037
0.0912413
0.095484
0.0952688
0.0908725
0.0940754
0.093475
0.0904114
0.0949996
0.0947575
0.0899987
0.0930108
0.0923892
0.0895141
0.0944648
0.0941945
0.0890527
0.0918842
0.091238
0.0885414
0.0938732
0.0935772
0.0880369
0.0906894
0.0900161
0.0874755
0.0932242
0.0929014
0.086937
0.0894205
0.0887249
0.0863251
0.0925155
0.0921633
0.0857486
0.0880738
0.0873493
0.0850838
0.0917409
0.0913566
0.0844693
0.0866467
0.0858656
0.0837444
0.0908952
0.0904781
0.0830873
0.0851239
0.0842867
0.0823019
0.0899799
0.089534
0.0816057
0.0835109
0.0826179
0.080763
0.0890042
0.0885334
0.0800316
0.0818067
0.08086
0.0791343
0.0879757
0.0874813
0.07837
0.0800152
0.0790166
0.0774205
0.0868975
0.0863826
0.0766286
0.078142
0.077098
0.0756383
0.0857779
0.085251
0.0748357
0.0762002
0.0751213
0.0738182
0.0846437
0.0841184
0.0730152
0.0742058
0.0731018
0.0719829
0.0835222
0.0830109
0.0711898
0.0721727
0.0710558
0.0701575
0.0824432
0.081961
0.069387
0.0701222
0.0690094
0.0683755
0.0814424
0.0810127
0.0676462
0.068084
0.0669973
0.0666795
0.0805685
0.0802131
0.0660118
0.0661002
0.0650664
0.0651156
0.0798638
0.0796019
0.0645346
0.0642238
0.0632683
0.0637329
0.0793652
0.079213
0.0632654
0.0625071
0.061655
0.0625841
0.0791019
0.0790682
0.0622535
0.0609996
0.0602679
0.0617094
0.079085
0.079168
0.0615204
0.0597337
0.0591308
0.0611419
0.0793062
0.0794975
0.0610702
0.0587191
0.058244
0.0608949
0.0797348
0.0800251
0.060907
0.0579489
0.0575881
0.0608685
0.0803432
0.0806994
0.060976
0.0573955
0.0571381
0.0610528
0.0810648
0.0814431
0.0612592
0.0570348
0.0568683
0.0614383
0.0818133
0.082187
0.061721
0.0568416
0.0567502
0.0619755
0.0825482
0.0829043
0.0623078
0.056784
0.0567531
0.0626182
0.0832455
0.0835785
0.0629841
0.0568343
0.0568585
0.0633386
0.0838999
0.084208
0.063726
0.0569748
0.0570475
0.0641157
0.0845077
0.0847901
0.064517
0.0571903
0.0573021
0.0649305
0.0850687
0.085322
0.0653406
0.0574666
0.0576073
0.0657665
0.0855748
0.0858176
0.0661799
0.0577893
0.0579504
0.0666095
0.0860406
0.0862562
0.0670228
0.0581439
0.0583192
0.0674444
0.0864537
0.0866492
0.067857
0.0585217
0.0587035
0.0682642
0.0868226
0.0870011
0.0686753
0.0589143
0.0590976
0.0690596
0.0871518
0.0873164
0.0694716
0.0593156
0.0594953
0.0698232
0.0874445
0.0875981
0.0702398
0.0597167
0.0598928
0.0705403
0.0876989
0.0878331
0.0709604
0.0601279
0.0602848
0.0712103
0.0878958
0.0880272
0.0716125
0.0604906
0.0605598
0.0715842
0.0878791
0.087397
0.0711886
0.0605501
0.060608
0.0710043
0.0871626
0.0596673
0.063367
0.066927
0.0699719
0.0718865
0.0741428
0.0756574
0.0770549
0.0780877
0.0790835
0.0798474
0.0806433
0.0812551
0.0819532
0.0824176
0.0830259
0.0831344
0.0829561
0.0821162
0.0813681
0.0784122
0.0753605
0.0739257
0.0766108
0.0815434
0.0900576
0.100591
0.102219
0.0917018
0.0830173
0.0842008
0.0932066
0.103315
0.104089
0.0944378
0.085259
0.0863754
0.0955368
0.104857
0.105079
0.0958756
0.0868005
0.0873445
0.0962821
0.105396
0.105482
0.0964848
0.087709
0.0881665
0.0968916
0.10563
0.105722
0.0971569
0.0884949
0.088898
0.097475
0.10587
0.105972
0.0977508
0.0892373
0.0896517
0.0980768
0.106125
0.106238
0.0983863
0.0900222
0.0904501
0.0987227
0.106396
0.106525
0.09907
0.0908546
0.091301
0.0994229
0.106693
0.10684
0.0998125
0.0917464
0.0922131
0.100181
0.107012
0.10718
0.100617
0.0926985
0.0931896
0.101007
0.107367
0.107559
0.101489
0.0937252
0.0942421
0.101897
0.107761
0.107978
0.102435
0.0948324
0.0953844
0.102864
0.108206
0.108452
0.103471
0.0960401
0.0966296
0.103927
0.108703
0.108985
0.104636
0.0973392
0.0979636
0.105135
0.109258
0.109584
0.105902
0.0987406
0.099407
0.106436
0.109877
0.110246
0.10729
0.100242
0.100948
0.107869
0.11057
0.110984
0.108805
0.10185
0.102601
0.109418
0.111338
0.111808
0.110447
0.103563
0.104355
0.111104
0.112201
0.112717
0.112218
0.10537
0.106204
0.112914
0.113137
0.113717
0.114117
0.107266
0.108136
0.114852
0.114177
0.114791
0.116126
0.109221
0.110134
0.116892
0.115259
0.115945
0.118228
0.111243
0.112189
0.119019
0.11645
0.117165
0.12037
0.113268
0.114225
0.121159
0.117653
0.118404
0.122489
0.115262
0.116218
0.123288
0.118917
0.119691
0.124527
0.117158
0.118051
0.125241
0.120139
0.120848
0.126314
0.11883
0.119644
0.126952
0.121292
0.121952
0.127822
0.120264
0.120915
0.128223
0.122315
0.122768
0.128746
0.121241
0.121644
0.128823
0.122894
0.12308
0.128901
0.121569
0.121734
0.128413
0.122558
0.1223
0.12834
0.121527
0.121877
0.127993
0.1217
0.122015
0.129296
0.122556
0.123578
0.130052
0.122514
0.123914
0.132645
0.124901
0.126512
0.134002
0.125227
0.127246
0.137589
0.127923
0.129139
0.139271
0.128816
0.131253
0.143675
0.130333
0.131316
0.145878
0.133508
0.136908
0.150427
0.131913
0.131984
0.152655
0.138476
0.142319
0.156221
0.131838
0.131149
0.15786
0.144289
0.14723
0.158268
0.129598
0.126083
0.156018
0.148551
0.14701
0.14993
0.124666
0.116193
0.146534
0.145464
0.155307
0.147063
0.11051
0.106359
0.142902
0.15965
0.158303
0.153265
0.11639
0.110023
0.147265
0.157744
0.158989
0.143012
0.105023
0.0998273
0.137516
0.161304
0.161861
0.131862
0.0961487
0.0918814
0.126118
0.160939
0.160327
0.120674
0.0886181
0.0858683
0.115505
0.160482
0.159221
0.111069
0.0849445
0.088567
0.114762
0.156049
0.153424
0.110022
0.0852407
0.0830337
0.106243
0.150343
0.151171
0.103464
0.081742
0.0819846
0.103551
0.151272
0.152924
0.110122
0.0875421
0.0855943
0.109172
0.148969
0.142238
0.109269
0.0895286
0.084863
0.103939
0.135076
0.127031
0.0979104
0.0808862
0.0772664
0.0929641
0.118463
0.106927
0.0891503
0.0759922
0.0771697
0.0856088
0.0926475
0.079769
0.0814278
0.0764444
0.0779567
0.0781649
0.0726693
0.0671468
0.0764701
0.0810042
0.0827196
0.0754071
0.0650683
0.0660459
0.0772785
0.0878533
0.0933205
0.0821328
0.0694429
0.0754245
0.0902716
0.0993694
0.106827
0.100652
0.0830529
0.09354
0.113444
0.117065
0.130294
0.127561
0.104957
0.117599
0.14056
0.142971
0.158004
0.155514
0.131494
0.148716
0.173397
0.175973
0.200842
0.197147
0.169552
0.195111
0.225638
0.223855
0.26163
0.267565
0.227761
0.270326
0.317003
0.307501
0.381829
0.393432
0.328362
0.407852
0.498636
0.499213
0.601484
0.615797
0.516576
0.701998
0.788687
0.74144
0.955578
1
1
1
1
1
1
1
1
1
1
1
1
1
0.993572
0.768246
1
1
0.969576
0.953146
0.625911
0.540907
0.826464
0.868514
0.773598
0.72861
0.479279
0.438399
0.654527
0.697891
0.617613
0.580088
0.395724
0.359665
0.513636
0.549723
0.499865
0.454752
0.322678
0.304872
0.429446
0.476963
0.444041
0.400198
0.287378
0.265572
0.364562
0.406858
0.395202
0.353226
0.256318
0.245532
0.332361
0.371988
0.348405
0.308866
0.229673
0.214619
0.27893
0.320407
0.320639
0.277092
0.204436
0.200087
0.268031
0.307167
0.271241
0.208159
0.181061
0.172191
0.206485
0.278552
0.250883
0.190915
0.159848
0.150557
0.178376
0.232282
0.179444
0.147279
0.136252
0.152586
0.189351
0.217725
0.211816
0.179129
0.146682
0.138209
0.143282
0.169973
0.209346
0.184337
0.151345
0.144587
0.168733
0.19934
0.189411
0.15669
0.138324
0.1278
0.129225
0.149901
0.187046
0.162789
0.137874
0.13375
0.154535
0.182444
0.145371
0.12624
0.128692
0.135246
0.156687
0.179073
0.173606
0.148028
0.130909
0.125921
0.122121
0.138396
0.171083
0.149726
0.131334
0.127281
0.141505
0.165779
0.132258
0.118127
0.122722
0.128919
0.145529
0.164873
0.157253
0.134023
0.125073
0.121695
0.124639
0.148237
0.117324
0.108382
0.115768
0.119015
0.128459
0.146784
0.143212
0.1224
0.116974
0.116003
0.104518
0.113579
0.141096
0.123867
0.116755
0.115337
0.117285
0.136763
0.109538
0.102975
0.111758
0.112622
0.118862
0.134968
0.130712
0.112605
0.111441
0.109282
0.0996359
0.105095
0.129565
0.114314
0.110892
0.109426
0.109106
0.124989
0.100782
0.0954399
0.110831
0.109304
0.108068
0.123893
0.119272
0.104032
0.107434
0.110116
0.09246
0.097048
0.116366
0.105799
0.107036
0.105386
0.0965661
0.0999684
0.120588
0.106527
0.10503
0.104507
0.101755
0.114839
0.0941933
0.0915581
0.106021
0.104261
0.101661
0.115589
0.10999
0.097865
0.103909
0.10312
0.0902876
0.0909971
0.110405
0.0977212
0.101272
0.101538
0.0947738
0.1055
0.0880868
0.0871737
0.104382
0.100232
0.0940265
0.105462
0.100638
0.0907797
0.100648
0.0999981
0.0861199
0.0856076
0.098872
0.0908292
0.0973905
0.100109
0.0840356
0.0860563
0.102341
0.0902346
0.0968428
0.0974135
0.087342
0.0966206
0.0818964
0.0820732
0.100646
0.0948169
0.0859499
0.0952323
0.0911697
0.0835523
0.0956362
0.100772
0.0791086
0.0790552
0.0891437
0.0827687
0.0932293
0.0952775
0.0790834
0.0790663
0.0927429
0.0829411
0.0906794
0.0918406
0.0803829
0.0880104
0.0760823
0.0769767
0.0963188
0.0905567
0.0802485
0.0878289
0.08378
0.0779972
0.0925636
0.0943169
0.0770626
0.0749301
0.0829463
0.0774638
0.0880366
0.0918752
0.0742278
0.0741123
0.0859207
0.0772421
0.0869341
0.0888498
0.0751701
0.0808277
0.0725166
0.0733649
0.0944209
0.087105
0.0741973
0.079138
0.071617
0.0725878
0.0907131
0.0847945
0.0747472
0.0821451
0.0777291
0.0726672
0.0864477
0.0912232
0.0713538
0.0696028
0.0775757
0.0722542
0.0844263
0.0868606
0.0706104
0.074129
0.0683008
0.0721454
0.090356
0.0831711
0.0696825
0.0730283
0.0671366
0.068687
0.0872222
0.081271
0.0689433
0.075333
0.0712976
0.0682583
0.08384
0.0900392
0.0676748
0.0657421
0.069765
0.0666189
0.0822764
0.0871648
0.0666155
0.0648758
0.0705132
0.0658627
0.0797806
0.0821168
0.0656738
0.067529
0.0630712
0.0658267
0.0878765
0.0796804
0.0640381
0.0664074
0.0620359
0.0647361
0.0844504
0.07784
0.0638364
0.0681445
0.0653341
0.0639207
0.0805571
0.0866845
0.0647103
0.0614931
0.0637136
0.0616774
0.0782867
0.08328
0.0634027
0.0603716
0.0642533
0.061273
0.0760144
0.0787319
0.0607666
0.0615195
0.0592736
0.0641411
0.0846883
0.0767415
0.0595935
0.0616599
0.0586193
0.061947
0.0818455
0.074628
0.0597556
0.0626782
0.0596031
0.0590426
0.0775837
0.0836497
0.0634565
0.0578949
0.0593303
0.0578488
0.0754127
0.0807419
0.060865
0.0568754
0.0595028
0.0576641
0.0734636
0.0765405
0.0571316
0.0569509
0.0561849
0.0625396
0.0824944
0.0739764
0.0560351
0.0570676
0.0551278
0.0596554
0.0794866
0.072091
0.0560517
0.0574038
0.0550583
0.0555323
0.0753161
0.0804158
0.0626052
0.0547385
0.0551203
0.0549372
0.0724689
0.0779349
0.0590355
0.0534679
0.0550941
0.0543597
0.0704243
0.0737395
0.0539632
0.0529292
0.0532084
0.0614766
0.0790827
0.071326
0.0532647
0.0531218
0.0520224
0.0580815
0.0770384
0.0696139
0.0531634
0.0536295
0.0514671
0.0529608
0.0730352
0.0797548
0.0602238
0.0520759
0.0513799
0.0516391
0.0709934
0.0768909
0.0568363
0.050581
0.0513514
0.0515815
0.0688864
0.0723307
0.0514497
0.0495347
0.050548
0.0604876
0.077809
0.0697365
0.0505808
0.049757
0.0492634
0.0561797
0.075643
0.0678622
0.0504302
0.0502116
0.0482017
0.0504418
0.0712618
0.0781779
0.058863
0.0496098
0.0478023
0.0487512
0.0691137
0.0753866
0.0549535
0.0477794
0.0481798
0.048793
0.0671077
0.070669
0.0489017
0.0465509
0.0482449
0.0591396
0.0764501
0.0679163
0.0479854
0.0466629
0.0467978
0.0545543
0.073984
0.0659909
0.0478551
0.0472873
0.0455423
0.0481562
0.0696701
0.0766982
0.0576882
0.0474221
0.0455189
0.0468112
0.0676768
0.0741079
0.0535279
0.0457949
0.0458921
0.0466593
0.0655539
0.0691253
0.046943
0.0443256
0.0463593
0.0577082
0.0750561
0.0665411
0.0460307
0.0446262
0.0450119
0.0531741
0.0727973
0.0649105
0.0460264
0.0452975
0.0436871
0.0464668
0.0685633
0.0755145
0.0568733
0.0459125
0.0438627
0.0453995
0.0663032
0.0727241
0.0524238
0.0442899
0.0441178
0.0450224
0.0641167
0.0675817
0.045299
0.0425791
0.04488
0.0566032
0.0736344
0.0653313
0.0447118
0.0430956
0.0437005
0.0522248
0.0716922
0.063706
0.0445755
0.043718
0.0422272
0.045167
0.0673278
0.0740721
0.0559017
0.0446148
0.0425121
0.0441989
0.0650534
0.0713626
0.0514011
0.0429972
0.0427016
0.0436398
0.062421
0.0658031
0.0439825
0.0412197
0.0431399
0.0544771
0.0723386
0.0640261
0.0441527
0.0423101
0.0411292
0.0446764
0.0678744
0.0752824
0.055935
0.043963
0.0415527
0.0434046
0.0653418
0.0718436
0.0511872
0.0422756
0.0417218
0.0428424
0.0627519
0.0661667
0.0432212
0.0402098
0.0430549
0.0551782
0.0728238
0.0640214
0.0428541
0.0408502
0.0416774
0.0506433
0.0704661
0.0618327
0.0423092
0.0411803
0.0398209
0.042912
0.0653072
0.0714704
0.0537904
0.0419735
0.040688
0.0426946
0.0628116
0.0661936
0.0428152
0.0394045
0.0425467
0.0546953
0.0735929
0.0639311
0.0419029
0.0399821
0.0410444
0.0502411
0.070774
0.0620181
0.0416435
0.0403357
0.0390836
0.0423316
0.0657685
0.0718061
0.0538479
0.0414842
0.0397536
0.0419834
0.0626843
0.0660476
0.0420877
0.038465
0.0417211
0.0541681
0.0730231
0.0630894
0.0409175
0.0390351
0.0401662
0.0496187
0.069791
0.0611673
0.0406673
0.039319
0.0381739
0.0415299
0.0647845
0.0711813
0.0529073
0.0407603
0.0388943
0.0412544
0.0617639
0.0654868
0.0414061
0.0377619
0.0408885
0.0535112
0.0716793
0.06201
0.0401357
0.0381587
0.039508
0.0491484
0.0687562
0.0603289
0.0399755
0.038453
0.0373905
0.040698
0.0640372
0.0700957
0.0522715
0.0400057
0.0380468
0.0403711
0.0607517
0.0640899
0.0405061
0.0368564
0.0395327
0.0518798
0.0703003
0.0605849
0.0396843
0.0373467
0.0363901
0.040014
0.0645846
0.0717006
0.0523038
0.0395468
0.0372673
0.0398287
0.0619462
0.0655541
0.0403506
0.0363775
0.0397758
0.0525531
0.072292
0.061381
0.0394502
0.0367469
0.0354471
0.0389478
0.0642163
0.0712437
0.0520181
0.0390574
0.0361804
0.0389857
0.0615311
0.0654749
0.0395744
0.0353914
0.0392982
0.0523234
0.072632
0.0617704
0.0390024
0.0359825
0.0349002
0.0389206
0.0653368
0.0711709
0.0516642
0.0383955
0.0349925
0.037729
0.0602947
0.0643655
0.03815
0.0341102
0.038207
0.0515816
0.0715985
0.0612336
0.0380729
0.0348835
0.034114
0.0382029
0.0650114
0.0709688
0.0514672
0.0378721
0.0342684
0.0369821
0.0588873
0.0617597
0.0370194
0.0331046
0.0370852
0.0502321
0.0690212
0.0593134
0.0369447
0.0338211
0.0331244
0.0371484
0.0629527
0.0692235
0.0495067
0.0365247
0.0332804
0.0359366
0.0575741
0.0590235
0.0364948
0.0319939
0.0313746
0.0379374
0.0631789
0.0707108
0.0510332
0.0368207
0.0324462
0.0362009
0.0598711
0.063631
0.0376443
0.0315407
0.0305511
0.0372178
0.0653211
0.0727299
0.0507846
0.0365453
0.0312408
0.0350663
0.0602395
0.0632433
0.0364126
0.0303108
0.0297807
0.0376835
0.0672598
0.0736569
0.0510409
0.036069
0.0303212
0.0342408
0.0598134
0.0630351
0.035735
0.029197
0.0285266
0.0358672
0.0671403
0.0734615
0.0498529
0.0343208
0.0288755
0.0325657
0.0576061
0.0596416
0.0327778
0.0275585
0.0266257
0.0331386
0.0627548
0.0668691
0.0363102
0.0264428
0.0253533
0.0347599
0.068058
0.0746508
0.0507674
0.0334072
0.0267533
0.0320277
0.0598178
0.0626491
0.0303964
0.025639
0.0253017
0.0348098
0.0650826
0.0689725
0.0332598
0.0246144
0.0244462
0.0359538
0.0721078
0.0770942
0.0354783
0.0242043
0.0243138
0.0373235
0.081485
0.0873487
0.0377303
0.0243326
0.0251651
0.0402651
0.0931907
0.0986423
0.0421659
0.0258813
0.0269989
0.0456962
0.102723
0.10476
0.0474749
0.0275642
0.0289333
0.0511871
0.106258
0.107417
0.0533792
0.0295731
0.0311997
0.0576054
0.108105
0.108242
0.0597689
0.0318052
0.0335971
0.0636088
0.108026
0.107633
0.0657168
0.0342207
0.0361941
0.0689055
0.107269
0.107113
0.0714673
0.0369491
0.0395476
0.0740778
0.107119
0.10739
0.0767789
0.0405753
0.043668
0.079187
0.107677
0.108067
0.0817561
0.0447267
0.047862
0.0840174
0.108266
0.108562
0.0863616
0.048938
0.0520298
0.0883701
0.10859
0.108887
0.0904276
0.0530509
0.056093
0.0921699
0.108748
0.109097
0.0938776
0.0571425
0.0601485
0.0953269
0.108901
0.109247
0.0965974
0.0611237
0.064044
0.0977909
0.109074
0.109286
0.0987327
0.0649109
0.0675948
0.0996384
0.109209
0.10927
0.100258
0.0682844
0.0707188
0.100924
0.109213
0.10916
0.101323
0.0712559
0.0734073
0.101834
0.109107
0.108981
0.102002
0.0737368
0.0756281
0.102336
0.10889
0.108756
0.102399
0.0758442
0.0774377
0.102569
0.108616
0.108468
0.102506
0.0775311
0.078901
0.102546
0.108292
0.108135
0.102425
0.0788965
0.0800356
0.102372
0.107944
0.107782
0.102174
0.0799401
0.0809053
0.102055
0.107583
0.10742
0.101835
0.0807416
0.0815279
0.101668
0.107217
0.107053
0.101401
0.0813016
0.0819635
0.101207
0.106853
0.106694
0.10094
0.0816952
0.0822323
0.100728
0.1065
0.106346
0.100433
0.0819273
0.0823828
0.100212
0.106157
0.106009
0.0999259
0.0820559
0.0824337
0.099703
0.105829
0.105688
0.099399
0.0820822
0.0824188
0.0991798
0.105514
0.105376
0.0988894
0.0820505
0.0823395
0.0986733
0.105211
0.105081
0.0983702
0.0819519
0.0822123
0.098164
0.104926
0.104801
0.0978781
0.0818163
0.0820431
0.0976755
0.104651
0.104531
0.097378
0.0816325
0.0818389
0.0971887
0.104391
0.104276
0.0969099
0.081426
0.0816073
0.0967292
0.104145
0.104035
0.0964409
0.0811898
0.0813578
0.0962708
0.103913
0.103805
0.0959994
0.0809438
0.0810903
0.0958346
0.103686
0.103581
0.0955536
0.0806707
0.0808104
0.0953986
0.103471
0.10337
0.0951369
0.0803903
0.0805166
0.094989
0.103267
0.10317
0.0947198
0.0800936
0.080219
0.0945805
0.103077
0.102983
0.0943324
0.0797992
0.0799169
0.0942014
0.1029
0.102811
0.0939492
0.0795008
0.0796227
0.093829
0.102738
0.102653
0.0935994
0.0792172
0.0793344
0.0934897
0.102589
0.102507
0.093257
0.0789368
0.0790601
0.0931596
0.102453
0.102374
0.0929492
0.0786742
0.0787943
0.092863
0.102328
0.102252
0.0926492
0.0784173
0.078545
0.0925755
0.102213
0.10214
0.0923837
0.0781815
0.0783066
0.0923216
0.102108
0.102038
0.0921258
0.0779533
0.0780867
0.0920758
0.102013
0.101945
0.0919016
0.0777462
0.0778768
0.0918593
0.101926
0.10186
0.0916864
0.0775453
0.077684
0.0916491
0.101846
0.101782
0.0915
0.0773638
0.0774994
0.0914682
0.101773
0.101711
0.0913168
0.0771871
0.0773306
0.0912933
0.101706
0.101646
0.0911588
0.0770272
0.0771674
0.0911395
0.101645
0.101586
0.0910013
0.0768705
0.0770184
0.090989
0.101587
0.10153
0.0908664
0.0767293
0.0768736
0.0908571
0.101534
0.101478
0.0907296
0.0765899
0.0767416
0.0907262
0.101484
0.101429
0.0906129
0.0764645
0.0766121
0.0906115
0.101438
0.101383
0.0904923
0.0763392
0.076494
0.0904961
0.101394
0.10134
0.0903902
0.0762267
0.0763771
0.0903954
0.101353
0.101299
0.0902828
0.0761113
0.0762703
0.0902925
0.101314
0.101261
0.0901928
0.0760113
0.0761654
0.0902035
0.101277
0.101225
0.0900965
0.075906
0.0760687
0.0901112
0.101242
0.101191
0.0900167
0.0758152
0.0759728
0.090032
0.101209
0.101159
0.0899296
0.0757184
0.0758849
0.0899486
0.101178
0.101127
0.0898582
0.0756368
0.0757982
0.0898773
0.101148
0.101097
0.0897784
0.0755487
0.0757178
0.0898004
0.101118
0.101067
0.0897126
0.0754729
0.0756356
0.089734
0.101088
0.101038
0.0896371
0.0753882
0.0755586
0.0896612
0.101059
0.101009
0.0895752
0.075316
0.0754805
0.0895986
0.101031
0.100981
0.0895036
0.0752361
0.0754088
0.0895297
0.101003
0.100954
0.0894456
0.0751693
0.0753359
0.0894709
0.100976
0.100927
0.0893778
0.0750941
0.0752685
0.0894058
0.10095
0.100902
0.0893241
0.0750316
0.0752001
0.0893518
0.100927
0.10088
0.0892617
0.0749611
0.0751381
0.0892927
0.100905
0.100859
0.0892144
0.0749047
0.0750764
0.0892455
0.100886
0.10084
0.0891589
0.0748412
0.0750215
0.0891931
0.100868
0.100823
0.089118
0.0747916
0.0749659
0.089152
0.100851
0.100806
0.0890683
0.0747334
0.074916
0.0891053
0.100835
0.100791
0.0890329
0.0746883
0.0748647
0.0890695
0.100821
0.100777
0.0889884
0.0746343
0.074819
0.089028
0.100807
0.100763
0.088958
0.0745939
0.0747729
0.0889969
0.100793
0.10075
0.0889181
0.0745457
0.0747332
0.0889597
0.100781
0.100736
0.0888914
0.0745106
0.0746916
0.0889319
0.100768
0.100724
0.0888542
0.0744653
0.0746536
0.0888969
0.100755
0.100711
0.0888296
0.0744314
0.0746129
0.0888711
0.100743
0.100699
0.0887946
0.0743875
0.0745774
0.0888385
0.100731
0.100687
0.0887722
0.0743571
0.074541
0.0888148
0.100719
0.100675
0.0887389
0.0743176
0.0745091
0.0887832
0.100707
0.100663
0.0887169
0.0742894
0.0744728
0.0887594
0.100694
0.100651
0.0886835
0.0742483
0.0744384
0.0887277
0.100682
0.100638
0.0886613
0.0742172
0.0744001
0.0887041
0.100669
0.100626
0.0886287
0.0741757
0.0743677
0.0886736
0.100657
0.100613
0.0886078
0.074149
0.074335
0.088651
0.100644
0.100602
0.088576
0.0741136
0.074307
0.0886208
0.100632
0.100588
0.0885541
0.0740877
0.0742719
0.0885968
0.100619
0.100577
0.0885215
0.0740476
0.0742382
0.0885664
0.100608
0.100564
0.0885
0.0740171
0.0742017
0.0885437
0.100595
0.100554
0.0884698
0.0739793
0.0741746
0.0885153
0.100586
0.100541
0.0884399
0.0739532
0.0741361
0.0884835
0.100571
0.100511
0.0884135
0.0739172
0.0740972
0.0884488
0.100535
0.100475
0.0883532
0.0738649
0.0740238
0.0883738
0.100488
0.100387
0.0882293
0.0737299
0.0737658
0.0882181
0.100383
0.100083
0.0878969
0.0733548
0.0728066
0.0875701
0.0998474
0.0991294
0.086578
0.0719732
0.069893
0.0852974
0.0983388
0.0974705
0.0838341
0.0682416
0.0659022
0.0822869
0.0960022
0.0523551
0.0464182
0.0462565
0.0493018
0.0539486
0.0560536
0.0570666
0.0600083
0.0617068
0.0620999
0.0620386
0.0618015
0.0614033
0.0609795
0.0605901
0.0602584
0.0599876
0.059771
0.0595992
0.0594631
0.0593554
0.0592693
0.0592008
0.0591452
0.0591025
0.0590665
0.0590429
0.0590203
0.0590092
0.0589955
0.0589916
0.059033
0.0590392
0.059039
0.0590382
0.0590379
0.0590374
0.0590369
0.0590364
0.0590358
0.0590349
0.0590338
0.0590322
0.05903
0.0590269
0.0590228
0.0590171
0.0590093
0.0589982
0.0589811
0.0589552
0.0589208
0.0588829
0.0588483
0.0588221
0.0588074
0.0588049
0.0588141
0.0588345
0.0588652
0.0589061
0.0589552
0.0590115
0.0590769
0.0591528
0.0592419
0.0593488
0.059479
0.0596396
0.0598378
0.0600815
0.0603779
0.0607345
0.0611579
0.0616539
0.0622271
0.0628806
0.0636168
0.064436
0.0653385
0.0663222
0.0673856
0.0685254
0.069739
0.0710222
0.0723714
0.0737826
0.0752517
0.0767746
0.0783469
0.0799652
0.0816244
0.0833215
0.0850514
0.086811
0.0885962
0.0904024
0.0922269
0.094065
0.0959132
0.0977687
0.0996266
0.101485
0.103338
0.105184
0.10702
0.108841
0.110645
0.112429
0.114188
0.115922
0.117625
0.119298
0.120934
0.122534
0.124095
0.125613
0.127088
0.128517
0.129899
0.131233
0.132517
0.13375
0.134931
0.13606
0.137137
0.138162
0.139134
0.140054
0.140923
0.141741
0.142509
0.143228
0.143899
0.144525
0.145105
0.145641
0.146136
0.14659
0.147006
0.147384
0.147728
0.148038
0.148316
0.148564
0.148784
0.148978
0.149148
0.149294
0.149421
0.149529
0.149621
0.149698
0.149763
0.149815
0.14986
0.1499
0.14994
0.149973
0.149992
0.149997
0.149999
0.149999
0.149999
0.149999
0.149999
0.149999
0.149999
0.15
0.15
0.15
0.15
0.15
0.15
0.15
0.15
0.15
0.15
0.15
0.15
0.15
0.15
0.15
0.15
0.15
0.15
0.15
0.15
0.15
0.15
0.15
0.15
0.15
0.15
0.15
0.15
0.15
0.150001
0.150001
0.150002
0.150002
0.150003
0.150003
0.150003
0.150004
0.150004
0.150004
0.150004
0.150004
0.150004
0.150004
0.150004
0.150003
0.150001
0.15
0.149998
0.149997
0.149996
0.149995
0.149995
0.149996
0.149997
0.149998
0.149999
0.15
0.150001
0.150001
0.150001
0.150001
0.150001
0.15
0.149999
0.149997
0.149994
0.149991
0.149986
0.149978
0.149964
0.149924
0.149512
0.148813
0.146718
0.145486
0.144458
0.143158
0.142208
0.140931
0.140078
0.138842
0.138081
0.136892
0.136216
0.135072
0.134472
0.133371
0.132832
0.131773
0.131284
0.130266
0.12982
0.128841
0.128422
0.127485
0.127088
0.126188
0.125809
0.124941
0.124578
0.123739
0.123389
0.122575
0.122236
0.121444
0.121114
0.120342
0.120018
0.119264
0.118946
0.118208
0.117894
0.117172
0.11686
0.116153
0.115842
0.115149
0.114837
0.114153
0.113837
0.113162
0.11284
0.11217
0.111839
0.111172
0.110829
0.110162
0.109806
0.109136
0.108762
0.108088
0.107693
0.10701
0.106592
0.105898
0.105453
0.104744
0.104268
0.103543
0.103031
0.102285
0.101732
0.100962
0.100366
0.0995689
0.0989249
0.0981055
0.0974055
0.0965592
0.0957968
0.0949208
0.0941005
0.0931717
0.0923131
0.0913199
0.0904214
0.0893723
0.088441
0.0873368
0.0863705
0.085211
0.0842058
0.083001
0.0819649
0.0807274
0.0796457
0.0783926
0.0772903
0.0760271
0.0749183
0.0736799
0.0726038
0.0714204
0.0704076
0.0693058
0.0683848
0.067393
0.0665937
0.0657197
0.0650427
0.064286
0.0637034
0.0630672
0.0625894
0.0620635
0.0616798
0.0612558
0.0609546
0.0606188
0.0603918
0.0601277
0.0599615
0.0597564
0.0596401
0.0594829
0.0594085
0.0592913
0.0592515
0.0591669
0.0591546
0.0590956
0.0591043
0.0590649
0.0590888
0.0590638
0.0590987
0.0590844
0.0591271
0.0591208
0.0591685
0.0591678
0.0592174
0.0592171
0.0592619
0.0592605
0.0592941
0.059368
0.0594714
0.0631628
0.0630293
0.0666974
0.0668583
0.0700887
0.0701529
0.0707738
0.0663774
0.0628852
0.062798
0.0659814
0.0668017
0.0629901
0.0629011
0.0661758
0.0709105
0.0711212
0.0669804
0.063112
0.0630038
0.0663258
0.06714
0.0632107
0.0631009
0.0664762
0.0713465
0.0715818
0.0673057
0.0633116
0.0632056
0.0666337
0.0674774
0.0634212
0.0633209
0.0667996
0.0718233
0.0720778
0.0676615
0.0635443
0.0634524
0.0669806
0.0678641
0.0636878
0.0636087
0.0671851
0.0723515
0.0726604
0.0680957
0.0638613
0.063801
0.0674234
0.0683677
0.0640773
0.0640432
0.0677085
0.0730122
0.0734159
0.0686938
0.0643508
0.0643506
0.0680545
0.0690859
0.0646971
0.0647393
0.0684732
0.0738799
0.0744104
0.069554
0.0651335
0.0652278
0.0689809
0.0701173
0.0656801
0.0658404
0.0696003
0.0750154
0.0757158
0.0708019
0.0663546
0.0665876
0.0703646
0.071648
0.0671828
0.0675059
0.0713042
0.0766612
0.0778417
0.0726991
0.0682034
0.0685929
0.0724608
0.0739889
0.0694016
0.0699105
0.073862
0.0793404
0.0810529
0.075562
0.0708642
0.0714978
0.075557
0.0774091
0.0725922
0.073341
0.0775063
0.083046
0.0852587
0.0794903
0.0745657
0.0754211
0.0796795
0.0817731
0.0767597
0.0776985
0.0820335
0.0877009
0.0902979
0.084219
0.0791257
0.0801245
0.0845368
0.0867924
0.0816116
0.082651
0.0871404
0.0930311
0.0958138
0.0894422
0.0841704
0.0852221
0.0898081
0.0921347
0.0867436
0.0877942
0.0924998
0.0986134
0.101375
0.0948228
0.0893041
0.0903348
0.0951699
0.0974631
0.0918187
0.0928157
0.0977639
0.104088
0.106728
0.10001
0.0942489
0.0951723
0.100243
0.102434
0.0965302
0.0973702
0.102594
0.109299
0.111746
0.104762
0.0986688
0.0994713
0.104861
0.106988
0.10071
0.101472
0.107017
0.114049
0.1162
0.109089
0.102658
0.103345
0.109019
0.111018
0.104486
0.105098
0.110869
0.11819
0.120057
0.112808
0.106209
0.106754
0.112611
0.114508
0.107836
0.108319
0.114253
0.121837
0.123508
0.116107
0.109373
0.109797
0.115792
0.117601
0.110825
0.111196
0.117236
0.125044
0.12645
0.118999
0.112201
0.112522
0.118599
0.120319
0.113506
0.113786
0.119889
0.127767
0.129001
0.121569
0.114752
0.114995
0.121116
0.122757
0.115946
0.116157
0.122286
0.130158
0.131244
0.123889
0.117096
0.117278
0.123407
0.124975
0.118207
0.118366
0.124487
0.132273
0.13325
0.126019
0.119286
0.119425
0.12553
0.127029
0.120338
0.12046
0.126543
0.134183
0.135077
0.128008
0.121369
0.121477
0.127529
0.128962
0.122382
0.12248
0.128494
0.135934
0.136761
0.129894
0.123384
0.123473
0.129441
0.130809
0.124377
0.124461
0.130374
0.137559
0.138331
0.13171
0.125366
0.125448
0.131297
0.1326
0.126355
0.126436
0.132214
0.139081
0.139809
0.133484
0.12735
0.127436
0.133129
0.134366
0.128355
0.128451
0.134053
0.140518
0.141203
0.135259
0.12937
0.129473
0.134977
0.136148
0.130393
0.130506
0.135899
0.141874
0.142531
0.137035
0.131427
0.13155
0.136821
0.13792
0.132472
0.132608
0.137738
0.143176
0.143808
0.138805
0.133531
0.133681
0.138655
0.139691
0.134606
0.134772
0.139573
0.144427
0.145034
0.140575
0.1357
0.135883
0.140493
0.141459
0.136813
0.137017
0.141413
0.145627
0.146204
0.142341
0.137949
0.138175
0.142335
0.14322
0.139109
0.139362
0.143257
0.146764
0.147303
0.144094