/*--------------------------------*- C++ -*----------------------------------*\
| =========                 |                                                 |
| \\      /  F ield         | OpenFOAM: The Open Source CFD Toolbox           |
|  \\    /   O peration     | Version:  v2006                                 |
|   \\  /    A nd           | Website:  www.openfoam.com                      |
|    \\/     M anipulation  |                                                 |
\*---------------------------------------------------------------------------*/
FoamFile
{
    version     2.0;
    format      ascii;
    class       volScalarField;
    location    "0.03";
    object      p;
}
// * * * * * * * * * * * * * * * * * * * * * * * * * * * * * * * * * * * * * //

dimensions      [1 -1 -2 0 0 0 0];


internalField   nonuniform List<scalar> 
11076
(
146298
146298
146298
146298
146298
146298
146297
146297
146298
146303
146311
146321
146332
146345
146357
146371
146384
146398
146412
146427
146443
146458
146475
146492
146509
146527
146545
146563
146582
146601
146620
146639
146659
146679
146698
146718
146738
146757
146777
146796
146815
146834
146853
146872
146890
146907
146925
146941
146958
146973
146988
147003
147017
147031
147044
147057
147068
147077
147083
147086
147087
147087
147086
147085
147082
147086
147093
147102
147125
147165
147191
147207
147181
147179
147172
147167
147169
147170
147158
147158
147158
147148
147147
147147
147137
147138
147138
147130
147129
147129
147123
147123
147124
147118
147118
147117
147113
147113
147114
147111
147110
147110
147107
147108
147108
147106
147106
147106
147105
147105
147106
147105
147105
147104
147104
147105
147105
147106
147106
147105
147107
147107
147108
147110
147109
147109
147111
147112
147112
147115
147114
147114
147118
147118
147118
147122
147122
147121
147126
147126
147127
147131
147131
147130
147136
147136
147137
147142
147142
147141
147147
147148
147148
147154
147154
147154
147161
147161
147161
147168
147168
147168
147175
147176
147176
147184
147184
147183
147192
147192
147193
147201
147201
147201
147210
147210
147211
147220
147220
147220
147230
147230
147231
147241
147240
147240
147251
147251
147252
147263
147263
147262
147274
147274
147275
147287
147286
147286
147299
147299
147300
147313
147312
147312
147325
147326
147326
147340
147340
147339
147354
147354
147355
147370
147369
147369
147384
147385
147385
147401
147400
147400
147417
147417
147418
147434
147434
147434
147451
147452
147452
147470
147469
147469
147488
147488
147488
147507
147507
147507
147526
147527
147527
147547
147547
147547
147568
147568
147569
147590
147589
147589
147611
147611
147612
147634
147634
147633
147657
147657
147658
147682
147681
147681
147706
147706
147707
147732
147731
147731
147756
147757
147757
147783
147783
147782
147810
147810
147811
147839
147838
147838
147867
147867
147868
147897
147896
147896
147925
147925
147926
147956
147955
147955
147986
147986
147987
148019
148018
148018
148051
148051
148052
148085
148084
148083
148116
148116
148117
148150
148149
148148
148182
148182
148183
148218
148218
148217
148254
148254
148255
148290
148289
148289
148323
148324
148325
148358
148358
148357
148391
148391
148392
148428
148427
148427
148464
148465
148466
148502
148501
148500
148535
148535
148536
148568
148567
148566
148596
148596
148597
148630
148629
148629
148663
148663
148664
148697
148696
148695
148726
148727
148728
148752
148751
148751
148774
148775
148775
148799
148799
148798
148824
148824
148825
148854
148853
148853
148871
148871
148873
148893
148893
148893
148905
148905
148905
148913
148913
148913
148928
148929
148929
148944
148943
148943
148959
148960
148960
148978
148979
148979
148981
148981
148981
148981
148981
148981
148981
148981
148982
148987
148987
148987
148999
148999
148999
149012
149012
149012
149011
149012
149012
149014
149015
149015
149004
149005
149006
148999
148999
149000
149011
149010
149008
149021
149022
149022
149019
149019
149019
149019
149019
149018
149028
149027
149026
149013
149013
149013
149000
149000
149000
149004
149004
149004
149011
149011
149011
149016
149017
149017
149024
149025
149025
149030
149032
149033
149012
149012
149013
148998
148998
148997
149003
149003
149003
149004
149003
149003
149005
149005
149004
149016
149015
149015
149024
149023
149022
149012
149012
149012
149005
149004
149004
149002
149002
149002
149004
149004
149003
149003
149002
149002
149006
149006
149006
149009
149008
149008
149006
149006
149007
149005
149005
149004
148997
148998
148999
149005
149006
149006
149005
149005
149002
149002
149000
149001
148999
149000
148999
149000
148999
149000
148999
148999
148999
148999
148999
148999
149000
149001
149001
149002
149002
149002
149002
149018
148995
148991
149020
148996
148998
149002
148999
148987
149002
148993
148994
148991
148994
148995
148995
148996
148995
148995
148995
148998
148998
148998
148997
148996
148997
148999
148999
148999
148998
149000
148998
149001
149000
149001
148999
149000
148999
149001
149001
149001
148998
148999
148998
148999
148999
148999
148998
148996
148998
148998
148999
148999
148998
148996
148998
148999
148998
148999
148997
148999
148997
149000
148999
149000
148998
149000
148998
149001
149000
149001
149000
149000
149000
149001
149003
149002
149001
149001
149001
149003
149003
149003
149001
149003
149001
149003
149003
149003
149002
148999
149001
149001
149003
149002
149001
148999
149001
149002
149002
149002
149000
149002
149000
149002
149002
149002
149001
149000
149001
149002
149003
149002
149001
149000
149001
149002
149002
149002
149000
149002
149000
149002
149002
149002
148999
149002
149000
149002
149001
149002
148999
149000
148999
149001
149000
149001
148998
149000
148998
148999
148999
149000
148997
148999
148996
148998
148998
148998
148995
148998
148994
148996
148995
148996
148993
148994
148992
148992
148993
148992
148991
148986
148989
148987
148987
148988
148983
148979
148982
148975
148977
148978
148971
148969
148968
148961
148965
148967
148965
148962
148959
148961
148966
148969
148980
148977
148974
148988
148991
148993
149007
149005
149002
149020
149022
149023
149034
149031
149028
149045
149049
149051
149071
149072
149069
149088
149089
149090
149105
149103
149100
149122
149124
149126
149147
149146
149144
149162
149166
149167
149187
149186
149182
149199
149205
149206
149234
149223
149211
149270
149280
149284
149311
149312
149302
149330
149337
149335
149362
149365
149353
149394
149405
149397
149436
149445
149424
149467
149492
149477
149522
149541
149506
149551
149596
149571
149623
149653
149592
149638
149701
149665
149714
149770
149680
149735
149835
149756
149825
149890
149793
149850
149936
149898
149945
149980
149900
149947
150040
150015
150042
150089
149998
150052
150149
150093
150125
150203
150117
150189
150240
150159
150182
150266
150266
150338
150295
150207
150228
150320
150409
150450
150312
150224
150169
150265
150447
150424
150218
150146
150064
150127
150355
150215
149992
149946
149851
149857
149998
149737
149649
149656
149455
149415
149381
149027
149170
149177
148891
148888
148613
148229
148648
148657
148413
148397
147766
147313
148133
148133
147897
147875
146726
146186
147569
147634
147413
147243
145604
145185
146878
147065
146765
146499
144764
144490
146137
146413
146096
145829
144337
144347
145603
145892
145645
145419
144359
144491
145333
145510
145463
145261
144606
144745
145211
145351
145341
145224
144874
145003
145225
145358
145330
145231
145112
145224
145299
145405
145458
145357
145308
145377
145425
145530
145583
145470
145430
145490
145491
145586
145609
145528
145567
145657
145624
145716
145764
145693
145713
145769
145734
145786
145884
145830
145840
145883
145881
145922
145940
145906
145915
145976
145957
145974
146075
146053
146047
146060
146068
146079
146050
146039
146040
146199
146178
146158
146195
146198
146217
146187
146242
146205
146258
146149
146234
146353
146392
146356
146352
146309
146358
146337
146299
146288
146422
146408
146466
146435
146389
146416
146402
146379
146426
146409
146379
146369
146495
146462
146517
146453
146498
146452
146453
146435
146439
146510
146553
146527
146473
146550
146475
146437
146451
146477
146548
146604
146522
146481
146569
146496
146491
146464
146435
146526
146632
146547
146533
146573
146554
146461
146555
146494
146531
146404
146491
146526
146618
146558
146544
146528
146552
146522
146464
146464
146530
146520
146588
146544
146459
146521
146454
146440
146547
146587
146530
146520
146508
146437
146514
146498
146439
146407
146495
146472
146573
146517
146449
146491
146412
146338
146530
146507
146463
146448
146439
146363
146447
146419
146401
146326
146463
146375
146606
146470
146308
146383
146387
146385
146423
146373
146317
146358
146286
146290
146319
146423
146375
146369
146336
146290
146363
146278
146245
146231
146283
146283
146330
146292
146203
146261
146171
146183
146251
146311
146237
146240
146207
146138
146221
146186
146108
146091
146165
146112
146253
146145
146054
146091
146131
146132
146181
146126
146065
146092
145992
145993
146031
146068
146043
146036
146006
145955
146014
145974
145926
145910
145987
145965
146068
145964
145887
145914
145914
145917
145943
145882
145831
145864
145767
145769
145790
145863
145833
145830
145802
145767
145827
145780
145732
145706
145750
145713
145811
145687
145636
145658
145669
145670
145694
145637
145592
145622
145528
145530
145560
145647
145610
145595
145524
145520
145543
145528
145517
145513
145449
145438
145458
145368
145354
145357
145405
145418
145428
145384
145352
145361
145269
145279
145314
145337
145311
145302
145222
145215
145231
145237
145226
145222
145160
145150
145169
145082
145066
145065
145113
145123
145136
145072
145049
145048
145042
145057
145060
144980
144968
144969
144862
144861
144873
144913
144910
144898
144824
144821
144826
144849
144848
144834
144770
144779
144793
144678
144666
144664
144694
144710
144715
144601
144600
144606
144602
144617
144616
144536
144531
144528
144418
144414
144418
144486
144485
144467
144391
144394
144404
144396
144396
144380
144296
144298
144299
144193
144185
144186
144219
144233
144233
144129
144129
144135
144136
144152
144151
144079
144071
144063
143947
143951
143965
143983
143985
143971
143880
143876
143876
143892
143893
143876
143793
143796
143797
143677
143668
143670
143699
143712
143709
143614
143610
143612
143601
143616
143612
143529
143522
143516
143384
143383
143392
143423
143427
143414
143324
143322
143326
143329
143331
143316
143227
143229
143229
143107
143098
143099
143132
143149
143149
143029
143029
143033
143015
143028
143022
142933
142927
142922
142782
142779
142788
142830
142831
142814
142709
142702
142700
142712
142714
142697
142599
142602
142605
142440
142437
142445
142484
142502
142503
142370
142372
142378
142364
142382
142380
142264
142262
142258
142100
142099
142109
142140
142144
142128
142017
142012
142014
141989
142000
141989
141881
141881
141880
141732
141726
141732
141768
141783
141778
141665
141661
141664
141643
141663
141661
141534
141529
141524
141337
141332
141341
141362
141368
141355
141233
141220
141210
141226
141235
141221
141116
141121
141123
140946
140937
140941
140973
140992
140991
140842
140842
140848
140810
140829
140827
140681
140673
140669
140441
140417
140407
140488
140497
140484
140374
140369
140368
140381
140385
140365
140246
140249
140250
140056
140045
140048
140070
140092
140092
139918
139919
139928
139852
139863
139852
139642
139665
139684
139499
139478
139464
139587
139590
139563
139459
139471
139480
139241
139233
139240
139260
139283
139283
139100
139100
139108
139031
139047
139041
138810
138825
138837
138588
138557
138539
138644
138656
138642
138517
138511
138510
138508
138514
138491
138341
138347
138349
138111
138097
138100
138100
138126
138130
137933
137931
137932
137601
137563
137536
137606
137629
137626
137492
137479
137467
137516
137523
137497
137361
137368
137373
137091
137080
137088
137083
137112
137115
136917
136910
136902
136542
136512
136509
136462
136484
136502
136321
136287
136271
136364
136373
136351
136220
136229
136237
135937
135928
135937
135932
135960
135963
135771
135754
135741
135348
135333
135351
135088
135154
135198
135019
134979
134957
135073
135089
135069
134944
134950
134954
134661
134645
134651
134617
134646
134648
134400
134395
134388
133964
133943
133960
133625
133718
133782
133636
133595
133556
133390
133396
133412
133472
133510
133506
133313
133304
133290
132880
132868
132883
132796
132799
132778
132458
132415
132371
131725
131822
131930
132020
132024
131994
131892
131901
131903
131585
131581
131592
131586
131584
131548
131267
131268
131269
130666
130654
130686
130343
130228
130086
130025
130088
130152
129908
129888
129877
130000
130014
129978
129775
129780
129781
129262
129243
129261
128964
128962
128934
128021
128253
128424
128005
127897
127771
128151
128181
128153
128010
128010
127998
127529
127526
127543
127213
127225
127207
126263
126481
126641
126075
125918
125697
125659
125746
125803
125894
125938
125916
125664
125670
125671
124986
124958
124977
123414
123649
123906
123946
123862
123760
123805
123833
123878
123555
123563
123581
122861
122852
122894
122146
121852
121558
121392
121612
121822
121563
121479
121380
121047
121088
121135
120742
120617
120430
119123
119712
120075
119688
119507
119223
119271
119389
119462
118929
118774
118532
117208
117605
117959
118360
118268
118145
117979
118230
118463
118110
117733
117120
117478
117809
118007
118033
117779
117275
117785
118164
118326
119098
118991
118696
120139
120304
120321
121479
121503
121452
122363
122392
122361
123011
123023
123005
123558
123573
123566
124027
124029
124020
124450
124459
124458
124812
124812
124807
125149
125155
125157
125439
125437
125434
125719
125723
125727
125959
125957
125955
126197
126201
126205
126398
126395
126394
126601
126604
126609
126770
126768
126767
126945
126948
126953
127088
127086
127085
127241
127244
127249
127364
127362
127362
127499
127502
127507
127605
127603
127603
127726
127729
127733
127818
127817
127817
127928
127930
127935
128008
128008
128008
128108
128111
128115
128180
128179
128179
128272
128274
128277
128334
128334
128334
128419
128421
128424
128474
128474
128475
128552
128554
128557
128601
128601
128602
128673
128674
128677
128716
128717
128717
128783
128785
128788
128822
128822
128823
128883
128885
128887
128917
128918
128919
128975
128977
128979
129006
129007
129007
129059
129060
129062
129086
129087
129087
129136
129138
129139
129160
129161
129162
129207
129208
129209
129228
129229
129230
129272
129273
129275
129291
129292
129293
129331
129332
129333
129348
129349
129350
129387
129388
129389
129402
129403
129403
129437
129438
129439
129450
129451
129452
129484
129485
129486
129496
129497
129498
129527
129528
129529
129538
129539
129539
129568
129568
129570
129577
129578
129578
129604
129605
129606
129612
129613
129614
129639
129639
129641
129646
129647
129647
129670
129671
129672
129676
129677
129678
129700
129701
129702
129705
129706
129707
129727
129727
129728
129731
129732
129733
129752
129753
129754
129755
129756
129757
129775
129776
129776
129777
129779
129779
129797
129797
129798
129798
129799
129800
129816
129817
129818
129817
129818
129819
129835
129835
129836
129835
129836
129837
129851
129852
129853
129851
129852
129853
129867
129868
129869
129866
129867
129868
129881
129882
129882
129880
129881
129882
129894
129895
129896
129893
129894
129895
129906
129907
129908
129904
129905
129906
129918
129918
129919
129915
129916
129917
129928
129929
129929
129925
129926
129927
129938
129938
129939
129935
129936
129936
129946
129947
129948
129943
129944
129945
129955
129955
129956
129951
129952
129953
129962
129963
129964
129958
129959
129960
129969
129970
129971
129965
129966
129967
129975
129976
129977
129971
129972
129973
129981
129982
129983
129977
129978
129979
129987
129987
129988
129982
129983
129984
129992
129992
129993
129987
129988
129988
129996
129997
129997
129991
129992
129992
130000
130001
130002
129995
129996
129996
130004
130004
130005
129998
129999
130000
130007
130008
130009
130001
130002
130003
130010
130010
130011
130004
130005
130005
130013
130013
130014
130006
130007
130008
130015
130015
130016
130008
130009
130010
130017
130017
130018
130010
130011
130012
130018
130019
130020
130012
130013
130013
130020
130020
130021
130013
130014
130015
130021
130021
130022
130014
130015
130016
130022
130023
130023
130015
130016
130017
130023
130023
130024
130016
130017
130017
130023
130024
130025
130016
130017
130018
130023
130024
130025
130016
130017
130018
130024
130024
130025
130017
130018
130018
130024
130024
130025
130016
130017
130018
130024
130024
130025
130016
130017
130018
130023
130024
130025
130016
130017
130017
130023
130024
130024
130016
130016
130017
130022
130023
130024
130015
130016
130016
130022
130022
130023
130014
130015
130016
130021
130021
130022
130013
130014
130015
130020
130020
130021
130012
130013
130014
130018
130019
130020
130011
130011
130012
130017
130018
130018
130009
130010
130011
130015
130016
130016
130007
130008
130009
130013
130014
130015
130005
130006
130007
130011
130011
130012
130003
130003
130004
130009
130009
130010
130000
130001
130002
130006
130006
130007
129997
129998
129998
130003
130003
130004
129994
129995
129995
129999
130000
130000
129990
129991
129992
129996
129996
129997
129987
129988
129988
129992
129992
129993
129983
129983
129984
129988
129988
129989
129979
129979
129980
129983
129984
129985
129974
129975
129975
129979
129979
129980
129969
129970
129970
129973
129974
129974
129963
129964
129964
129967
129967
129968
129956
129957
129957
129958
129959
129959
129946
129946
129947
129947
129948
129949
129933
129933
129934
129932
129933
129935
129924
129924
129924
129944
129946
129947
130008
130007
130004
130069
130072
130068
130079
130085
130085
130064
130067
130037
130064
130097
130024
129991
130034
130071
130052
130030
130020
130014
130011
130010
130009
130009
130009
130008
130008
130007
130007
130006
130005
130005
130004
130002
130001
130000
129999
129999
130003
130006
130009
130013
130017
130022
130028
130036
130045
130056
130069
130085
130102
130122
130142
130160
130174
130181
130184
130187
130194
130203
130214
130228
130244
130261
130281
130303
130328
130357
130389
130426
130468
130516
130571
130633
130703
130782
130870
130970
131080
131204
131340
131491
131657
131838
132035
132248
132477
132722
132982
133257
133546
133847
134160
134482
134813
135150
135492
135837
136183
136530
136875
137218
137557
137891
138220
138541
138856
139163
139461
139751
140032
140305
140568
140822
141067
141304
141531
141750
141961
142163
142357
142543
142722
142893
143057
143214
143365
143509
143647
143780
143906
144027
144143
144254
144359
144461
144558
144650
144739
144823
144904
144981
145055
145125
145192
145257
145318
145376
145432
145485
145536
145584
145630
145674
145716
145755
145793
145829
145863
145895
145925
145954
145982
146007
146032
146055
146076
146096
146115
146133
146149
146164
146178
146190
146201
146211
146220
146228
146236
146245
146255
146270
146286
146295
146298
146298
146297
146297
146296
146297
146311
146329
146338
146345
146354
146364
146375
146386
146397
146410
146423
146436
146451
146466
146481
146497
146514
146531
146549
146567
146585
146603
146622
146641
146661
146680
146699
146719
146738
146758
146777
146796
146815
146834
146852
146870
146888
146905
146922
146938
146953
146968
146983
146996
147009
147022
147033
147045
147055
147064
147072
147078
147079
147079
147086
147106
147125
147132
147137
147129
147123
147118
147114
147111
147109
147107
147106
147106
147106
147107
147108
147110
147113
147116
147119
147123
147128
147132
147137
147143
147149
147155
147162
147170
147177
147185
147194
147202
147212
147221
147232
147242
147253
147264
147276
147288
147301
147314
147327
147341
147356
147371
147386
147402
147419
147436
147453
147471
147490
147509
147529
147549
147570
147591
147613
147636
147659
147683
147708
147733
147759
147785
147813
147841
147870
147899
147928
147958
147989
148021
148054
148087
148119
148152
148185
148221
148257
148292
148327
148361
148394
148431
148468
148504
148538
148570
148599
148632
148667
148699
148730
148756
148778
148802
148827
148856
148877
148894
148907
148915
148931
148946
148964
148978
148981
148982
148983
148989
149000
149011
149013
149010
149010
149001
149005
149019
149018
149020
149022
149013
149001
149004
149012
149014
149027
149025
149013
149000
149004
149008
149003
149017
149020
149011
149002
149002
149003
149004
149005
149011
149007
149004
149002
149005
149004
149004
149003
149003
149004
149004
149008
149008
149011
149005
149008
149007
149003
149002
149005
148998
149001
149001
149001
149000
149005
149002
149008
149007
149003
149012
149016
149018
149017
149014
149012
149006
149007
149000
149009
149007
149007
149004
149003
149004
149013
149016
149020
149020
149013
149012
149019
149022
149012
149014
149010
149012
149006
149006
149007
149013
149008
149003
149011
149010
149022
149021
149023
149023
149021
149015
149025
149022
149015
149010
149005
149002
149001
149005
149007
149013
149011
149013
149011
149013
149014
149013
149010
149013
149020
149005
149008
149001
148990
148992
148992
148987
148984
148987
148995
148994
148987
148981
148976
148981
148975
148969
148950
148954
148975
148950
148942
148934
148918
148926
148921
148910
148897
148905
148928
148891
148892
148882
148859
148866
148841
148830
148805
148813
148842
148796
148795
148781
148758
148767
148747
148734
148703
148710
148741
148674
148682
148670
148636
148643
148616
148603
148573
148580
148610
148544
148554
148541
148507
148513
148483
148471
148433
148439
148470
148399
148410
148397
148363
148369
148342
148329
148295
148300
148329
148257
148271
148259
148222
148228
148199
148188
148154
148159
148187
148121
148132
148122
148088
148093
148066
148056
148023
148027
148054
147990
148001
147991
147960
147964
147940
147931
147900
147905
147930
147871
147881
147872
147842
147847
147824
147815
147787
147791
147814
147761
147770
147762
147735
147739
147719
147711
147685
147689
147710
147662
147669
147662
147637
147641
147623
147616
147593
147597
147616
147573
147580
147572
147551
147554
147538
147531
147510
147514
147532
147494
147499
147492
147473
147476
147462
147456
147437
147440
147457
147423
147427
147421
147404
147407
147395
147389
147372
147375
147391
147361
147364
147358
147343
147346
147335
147330
147315
147318
147332
147306
147308
147303
147290
147292
147283
147278
147266
147268
147281
147258
147260
147255
147243
147246
147238
147234
147223
147225
147237
147218
147218
147214
147204
147206
147200
147196
147187
147189
147199
147183
147183
147179
147171
147173
147168
147164
147157
147159
147168
147155
147155
147151
147144
147147
147143
147139
147134
147136
147143
147133
147132
147129
147125
147126
147124
147121
147117
147119
147125
147118
147117
147115
147112
147113
147112
147110
147108
147109
147113
147110
147109
147107
147107
147108
147108
147107
147108
147108
147109
147109
147109
147109
147111
147111
147113
147114
147118
147115
147110
147110
147119
147122
147127
147122
147093
147101
147106
147109
147112
147117
147122
147130
147138
147149
147161
147174
147189
147205
147223
147243
147264
147287
147311
147337
147366
147396
147428
147462
147498
147536
147577
147619
147664
147712
147763
147815
147871
147929
147989
148052
148118
148185
148254
148327
148399
148471
148546
148619
148686
148753
148815
148865
148911
148949
148974
148993
149008
149010
149017
149023
149019
149014
149017
149019
149015
149011
149013
149013
149009
149009
149010
149006
149002
149006
149004
149005
148999
148999
149003
148998
148998
149002
149001
148998
148998
149002
149002
149002
149001
148998
148998
149001
149000
148998
148997
149002
149000
149000
148999
148998
148997
149000
148999
148998
148998
148999
149000
148999
148999
149000
149000
149000
149000
148999
148997
148998
149001
149002
149002
149003
149001
149003
148999
149002
148996
148995
148997
148997
148998
149000
148998
148998
148999
148995
148995
148998
148997
148998
149000
148999
149000
148999
148999
149003
149005
149005
149004
149003
149003
149003
149004
149003
149002
149003
149006
149009
149008
149009
149007
149007
149007
149008
149009
149006
149004
149006
149008
149009
149008
149009
149012
149014
149013
149014
149013
149014
149015
149016
149014
149010
149009
149011
149014
149018
149018
149018
149018
149022
149023
149028
149023
149026
149033
149039
149030
149023
149022
149031
149044
149046
149029
149019
149014
149011
149009
149008
149007
149005
149003
149004
149004
149002
149000
149000
148999
149000
148999
148998
148999
149000
149003
149005
149004
149004
149003
149003
149003
149003
149002
149001
148999
148999
149000
148997
149000
148998
149001
148999
149001
148999
148999
148999
149001
149000
149001
148998
148999
148997
148999
148997
148997
149000
148998
148998
148999
149000
149001
149001
149002
149002
148999
148999
149001
149000
149000
149003
149003
149003
149003
149002
149003
149003
149005
149006
149007
149008
149003
149004
149004
149004
149004
149004
149003
149002
149003
149001
149003
149001
149004
149002
149004
149001
149001
149002
149003
149002
149003
149001
149002
149001
149002
149001
149001
149003
149001
149001
149002
149002
149003
149003
149003
149003
149002
149001
149002
149001
149001
149003
149003
149003
149002
149002
149003
149003
149009
149012
149019
149038
149015
149008
149001
149001
149001
149003
148999
149000
149000
148999
149001
149000
149002
149001
149003
149001
149001
149002
149002
149000
149001
148999
149000
148998
148998
148996
148998
148998
148996
148994
148996
148993
148995
148997
148995
148991
148992
148990
148989
148984
148987
148985
148993
148995
149005
149024
149036
149052
149070
149070
149061
149050
149039
149031
149032
149048
149057
149033
149033
149061
149098
149082
149065
149083
149110
149144
149163
149105
149060
149023
149010
149052
149027
148984
148947
148987
149027
149077
149103
149165
149135
149074
148987
148957
148930
148900
148840
148859
148780
148771
148699
148700
148692
148783
148873
148886
148781
148677
148576
148601
148617
148624
148545
148533
148453
148468
148394
148375
148346
148428
148512
148482
148394
148310
148264
148348
148440
148539
148649
148769
148897
149028
149144
149217
149247
149238
149200
149145
149102
149115
149174
149247
149261
149218
149172
149141
149105
149081
149076
149047
149030
149019
149005
148996
148986
148982
148981
148982
148975
148980
148973
148972
148977
148986
148998
149012
149026
149039
149046
149059
149079
149075
149056
149092
149093
149107
149142
149129
149113
149109
149129
149150
149151
149169
149182
149228
149284
149341
149309
149362
149321
149353
149334
149258
149429
149417
149491
149475
149452
149406
149460
149403
149411
149378
149341
149310
149276
149245
149213
149192
149187
149170
149211
149240
149286
149317
149352
149386
149392
149358
149330
149431
149424
149460
149447
149481
149517
149540
149500
149512
149470
149558
149610
149582
149553
149520
149581
149599
149565
149602
149636
149694
149617
149738
149646
149669
149778
149919
149854
149811
149739
149680
149640
149686
149724
149781
149859
149913
149989
150017
149906
149885
149705
149476
149668
149758
149873
149975
150079
150053
150090
150041
150025
149964
149976
150040
150067
150097
150141
150117
150189
150179
150126
150087
150013
149992
149886
149927
150017
150043
150154
149958
149986
150082
149808
149838
149838
149826
149729
149564
149477
149309
149313
149135
149082
148897
148740
148603
148529
148681
148870
148771
149067
149021
148920
149165
149351
149543
149670
149723
149703
149644
149487
149565
149411
149248
149352
149230
149357
149569
149749
149100
149050
148861
148871
148653
148660
148456
148427
148175
148245
148034
147903
147757
147482
147266
147014
146711
146361
146296
145974
145737
145836
145618
145502
145628
145876
145794
145949
146187
146184
146063
146334
146605
146633
146912
147181
147305
147530
147697
147851
147699
147740
147478
147288
147384
147094
146853
146794
146849
146954
146542
146385
146609
146530
146489
146122
146015
145826
145661
145458
145525
145591
145733
145685
145691
145715
145797
145810
145848
145904
145946
145981
146027
146059
146090
146115
146159
146189
146230
146267
146283
146322
146349
146344
146389
146401
146419
146417
146450
146461
146455
146483
146486
146476
146501
146500
146483
146512
146511
146504
146497
146507
146503
146477
146485
146492
146462
146463
146464
146434
146441
146435
146402
146395
146399
146358
146373
146337
146326
146320
146284
146284
146266
146229
146217
146210
146167
146157
146133
146099
146096
146055
146045
146018
145982
145966
145947
145907
145901
145851
145827
145800
145764
145753
145727
145679
145656
145610
145586
145558
145517
145503
145442
145416
145380
145342
145320
145284
145235
145211
145159
145128
145087
145052
145031
144970
144932
144880
144841
144815
144763
144731
144677
144631
144593
144535
144493
144439
144398
144371
144307
144263
144202
144163
144125
144065
144021
143957
143908
143867
143805
143756
143685
143642
143596
143528
143474
143400
143354
143310
143245
143191
143116
143070
143016
142945
142881
142799
142749
142694
142624
142559
142468
142423
142362
142283
142211
142117
142062
141998
141924
141849
141756
141712
141645
141558
141472
141355
141302
141224
141153
141073
140962
140905
140822
140721
140617
140481
140440
140363
140283
140194
140066
140000
139895
139791
139666
139544
139488
139397
139258
139189
139073
138954
138803
138641
138600
138499
138393
138276
138114
138031
137872
137658
137624
137497
137424
137295
137101
137003
136824
136574
136525
136355
136295
136153
135952
135855
135652
135348
135289
135078
135038
134884
134655
134540
134304
133972
133924
133674
133471
133406
133196
132877
132755
132443
132084
132093
131865
131597
131489
131178
130679
130626
130235
129993
129952
129689
129234
129097
128568
128202
128255
127968
127504
127376
126800
126303
125966
126011
125652
125031
124247
124478
124003
123560
122879
122963
122196
121766
121261
121390
120624
120167
119816
119329
118652
119368
118986
118755
118667
118727
119024
119618
120660
121632
122461
123074
123625
124062
124491
124829
125177
125448
125741
125965
126215
126402
126618
126772
126960
127089
127255
127364
127512
127604
127738
127817
127940
128007
128120
128178
128283
128332