/*--------------------------------*- C++ -*----------------------------------*\
| =========                 |                                                 |
| \\      /  F ield         | OpenFOAM: The Open Source CFD Toolbox           |
|  \\    /   O peration     | Version:  v2006                                 |
|   \\  /    A nd           | Website:  www.openfoam.com                      |
|    \\/     M anipulation  |                                                 |
\*---------------------------------------------------------------------------*/
FoamFile
{
    version     2.0;
    format      ascii;
    class       volVectorField;
    location    "0.03";
    object      U;
}
// * * * * * * * * * * * * * * * * * * * * * * * * * * * * * * * * * * * * * //

dimensions      [0 1 -1 0 0 0 0];


internalField   nonuniform List<vector> 
11076
(
(65.7888 -0.000269208 -3.35161e-20)
(65.7887 -8.83575e-05 -3.82297e-20)
(65.7886 -2.87092e-05 1.1289e-21)
(65.7887 -8.97659e-05 -9.3819e-22)
(65.789 -0.000148462 -1.52598e-21)
(65.7894 -0.000162268 2.062e-22)
(65.7899 -0.000159235 -1.79683e-21)
(65.7902 -8.63235e-05 5.97432e-20)
(65.7878 -0.000284702 8.0028e-21)
(65.768 -0.00321586 0)
(65.7125 -0.011039 -1.06001e-20)
(65.6234 -0.0215841 0)
(65.5128 -0.032654 -1.35991e-20)
(65.3923 -0.0427219 1.41466e-20)
(65.2684 -0.0513159 0)
(65.1433 -0.0585744 0)
(65.0168 -0.0648468 9.35314e-22)
(64.8876 -0.0704272 0)
(64.7546 -0.0755113 0)
(64.6169 -0.0802072 0)
(64.4743 -0.0845577 0)
(64.3267 -0.0885827 0)
(64.1743 -0.0922945 0)
(64.0172 -0.0957081 0)
(63.8559 -0.0988412 0)
(63.6906 -0.101712 0)
(63.5215 -0.104335 0)
(63.3489 -0.10672 0)
(63.1731 -0.108874 0)
(62.9944 -0.110797 0)
(62.8131 -0.112487 0)
(62.6295 -0.113937 0)
(62.444 -0.115144 0)
(62.257 -0.116099 0)
(62.0688 -0.116795 0)
(61.8798 -0.117226 0)
(61.6904 -0.117387 0)
(61.501 -0.117274 0)
(61.312 -0.116871 0)
(61.1238 -0.116181 0)
(60.9368 -0.115204 0)
(60.7515 -0.113925 0)
(60.5682 -0.112338 0)
(60.3874 -0.110432 0)
(60.2094 -0.108195 0)
(60.0348 -0.105611 0)
(59.8639 -0.102667 0)
(59.6972 -0.099353 0)
(59.5351 -0.0956666 0)
(59.3779 -0.091604 0)
(59.2255 -0.0871378 0)
(59.0772 -0.0821635 0)
(58.9317 -0.0764182 0)
(58.7876 -0.0694567 0)
(58.6442 -0.0606008 0)
(58.5049 -0.0494065 2.46261e-19)
(58.3802 -0.0364287 -2.35966e-19)
(58.2891 -0.0243478 0)
(58.2454 -0.0161275 2.49555e-18)
(58.2419 -0.0125108 -1.67214e-18)
(58.2569 -0.0112945 0)
(58.2759 -0.0110151 -6.42721e-18)
(58.2934 -0.0107263 7.81443e-18)
(58.3002 -0.00798631 0)
(58.3022 -0.00463369 0)
(58.287 -0.00896138 1.52117e-18)
(58.2354 -0.0168157 -3.52797e-18)
(58.1402 -0.0310903 1.53138e-22)
(57.9911 -0.0597732 0)
(57.7412 -0.0868396 0)
(57.4575 -0.0993703 2.30879e-18)
(56.421 -0.149091 -3.76575e-18)
(55.7784 -0.131699 -2.0863e-18)
(57.4742 -0.165708 0)
(57.806 -0.142588 1.45493e-17)
(57.85 -0.169487 0)
(57.4193 -0.192188 -1.14358e-18)
(55.075 -0.127773 2.8409e-18)
(54.385 -0.1165 0)
(57.3385 -0.188908 1.51383e-18)
(57.8846 -0.174898 -4.1344e-19)
(57.8949 -0.172009 0)
(57.2286 -0.172714 0)
(53.7524 -0.101575 0)
(53.1662 -0.0884862 2.84572e-19)
(57.0944 -0.159344 2.33746e-19)
(57.8762 -0.16693 0)
(57.8307 -0.159382 0)
(56.9225 -0.144629 -2.34206e-19)
(52.6166 -0.0779731 -4.28937e-19)
(52.1044 -0.0706154 1.41472e-19)
(56.7532 -0.135139 0)
(57.7687 -0.154085 0)
(57.6936 -0.150122 0)
(56.5773 -0.12696 0)
(51.631 -0.0644017 4.43377e-21)
(51.1974 -0.0591672 -4.43675e-21)
(56.3976 -0.119332 7.26182e-21)
(57.6083 -0.146168 0)
(57.5117 -0.142478 7.70038e-19)
(56.2127 -0.113166 -9.40048e-19)
(50.7859 -0.054948 0)
(50.406 -0.0509765 0)
(56.0273 -0.107193 -9.33336e-19)
(57.4137 -0.1395 7.708e-19)
(57.3025 -0.13613 0)
(55.8408 -0.102582 0)
(50.0392 -0.0481046 0)
(49.6982 -0.0450297 0)
(55.6542 -0.0979845 0)
(57.193 -0.133725 0)
(57.0719 -0.130768 0)
(55.4678 -0.0944182 0)
(49.3661 -0.0429554 0)
(49.0554 -0.0405844 0)
(55.2819 -0.0910115 0)
(56.9548 -0.129139 0)
(56.8245 -0.126837 0)
(55.0944 -0.0882262 0)
(48.7483 -0.0390301 0)
(48.4579 -0.0370818 0)
(54.9073 -0.0855515 0)
(56.6995 -0.125559 0)
(56.5622 -0.123609 0)
(54.7194 -0.0835435 0)
(48.1706 -0.0361205 0)
(47.898 -0.0343669 0)
(54.5331 -0.0813222 0)
(56.4324 -0.12282 0)
(56.2899 -0.121192 0)
(54.3454 -0.0798244 0)
(47.6266 -0.033765 0)
(47.3673 -0.0322463 0)
(54.1592 -0.0780481 0)
(56.1553 -0.120777 0)
(56.0075 -0.119512 0)
(53.9709 -0.0769762 0)
(47.1079 -0.0319268 0)
(46.8586 -0.0305935 0)
(53.7841 -0.075575 0)
(55.8684 -0.119465 0)
(55.7155 -0.118522 0)
(53.5949 -0.0748513 0)
(46.6084 -0.0305011 0)
(46.3668 -0.029305 0)
(53.4069 -0.0737466 0)
(55.5719 -0.118785 0)
(55.4139 -0.118122 0)
(53.2161 -0.0733093 0)
(46.1233 -0.0293958 0)
(45.8873 -0.0283029 0)
(53.0264 -0.0724444 0)
(55.2655 -0.118655 0)
(55.1023 -0.118243 0)
(52.8335 -0.0722497 0)
(45.6488 -0.028547 0)
(45.4169 -0.0275337 0)
(52.6415 -0.0715833 0)
(54.9491 -0.119018 0)
(54.7805 -0.118833 0)
(52.446 -0.0715965 0)
(45.1818 -0.0279078 0)
(44.9525 -0.0269586 0)
(52.2511 -0.0711031 0)
(54.6222 -0.119837 0)
(54.448 -0.119868 0)
(52.0524 -0.0713039 0)
(44.7195 -0.0274476 0)
(44.4916 -0.0265527 0)
(51.8541 -0.0709705 0)
(54.2843 -0.121097 0)
(54.1041 -0.121345 0)
(51.6516 -0.0713477 0)
(44.2596 -0.0271476 0)
(44.032 -0.0263014 0)
(51.4493 -0.0711649 0)
(53.9346 -0.122802 0)
(53.748 -0.123261 0)
(51.2424 -0.0717062 0)
(43.7998 -0.0269932 0)
(43.5714 -0.0261884 0)
(51.0354 -0.0716619 0)
(53.5723 -0.124938 0)
(53.3789 -0.125616 0)
(50.8235 -0.072364 0)
(43.338 -0.0269722 0)
(43.1079 -0.0262065 0)
(50.6111 -0.0724597 0)
(53.1964 -0.127524 0)
(52.9957 -0.128434 0)
(50.3935 -0.0733242 0)
(42.8722 -0.0270798 0)
(42.6393 -0.0263509 0)
(50.1751 -0.0735596 0)
(52.8059 -0.130585 0)
(52.5973 -0.131726 0)
(49.951 -0.0745782 0)
(42.4005 -0.027308 0)
(42.1639 -0.0266161 0)
(49.7258 -0.0749566 0)
(52.3995 -0.134138 0)
(52.1822 -0.135513 0)
(49.4944 -0.0761305 0)
(41.9208 -0.0276566 0)
(41.6795 -0.0270027 0)
(49.2614 -0.0766596 0)
(51.9756 -0.138199 0)
(51.7489 -0.139808 0)
(49.0219 -0.0779861 0)
(41.4312 -0.0281242 0)
(41.1842 -0.0275002 0)
(48.7805 -0.0786509 0)
(51.5329 -0.142751 0)
(51.2962 -0.144557 0)
(48.5323 -0.0801028 0)
(40.9299 -0.0286901 0)
(40.6765 -0.0280909 0)
(48.2816 -0.0808911 0)
(51.0701 -0.147741 0)
(50.8226 -0.149772 0)
(48.0236 -0.0824856 0)
(40.4152 -0.0293559 0)
(40.1542 -0.028798 0)
(47.7626 -0.0834433 0)
(50.5854 -0.153268 0)
(50.3262 -0.155574 0)
(47.494 -0.0852081 0)
(39.885 -0.0301489 0)
(39.6157 -0.0296275 0)
(47.2222 -0.0863302 0)
(50.0774 -0.159386 0)
(49.806 -0.161919 0)
(46.9423 -0.0882261 0)
(39.3378 -0.0310468 0)
(39.0593 -0.030554 0)
(46.6585 -0.0894902 0)
(49.5444 -0.166022 0)
(49.2594 -0.168829 0)
(46.3659 -0.0915515 0)
(38.7712 -0.0320563 0)
(38.4819 -0.0316245 0)
(46.0687 -0.0930453 0)
(48.9838 -0.173352 0)
(48.6841 -0.176529 0)
(45.7623 -0.0953276 0)
(38.1825 -0.033233 0)
(37.8818 -0.0328506 0)
(45.451 -0.0970344 0)
(48.3938 -0.181466 0)
(48.0789 -0.184896 0)
(45.1302 -0.0994494 0)
(37.5705 -0.0345263 0)
(37.2571 -0.0341687 0)
(44.8034 -0.101301 0)
(47.7727 -0.190154 0)
(47.4404 -0.193866 0)
(44.4661 -0.103882 0)
(36.9319 -0.0359261 0)
(36.6039 -0.035642 0)
(44.122 -0.10601 0)
(47.1163 -0.199611 0)
(46.7657 -0.20371 0)
(43.767 -0.108831 0)
(36.2637 -0.0375149 0)
(35.9208 -0.0372714 0)
(43.4054 -0.111161 0)
(46.4235 -0.209861 0)
(46.0546 -0.214098 0)
(43.0327 -0.114031 0)
(35.5656 -0.039179 0)
(35.2071 -0.0389167 0)
(42.6524 -0.116418 0)
(45.6932 -0.220449 0)
(45.3035 -0.224834 0)
(42.2598 -0.119384 0)
(34.8349 -0.0408775 0)
(34.4583 -0.040688 0)
(41.8584 -0.122049 0)
(44.9205 -0.231643 0)
(44.509 -0.236452 0)
(41.4446 -0.125295 0)
(34.0677 -0.0427874 0)
(33.6737 -0.0426403 0)
(41.0228 -0.128186 0)
(44.1051 -0.24372 0)
(43.673 -0.24854 0)
(40.5891 -0.13138 0)
(33.2663 -0.0447304 0)
(32.855 -0.0445081 0)
(40.1464 -0.134194 0)
(43.2477 -0.255814 0)
(42.792 -0.260525 0)
(39.6901 -0.137342 0)
(32.4282 -0.0465903 0)
(31.9961 -0.0464291 0)
(39.2231 -0.14038 0)
(42.3417 -0.268112 0)
(41.861 -0.273245 0)
(38.7426 -0.14385 0)
(31.5482 -0.0486818 0)
(31.0973 -0.0485506 0)
(38.2533 -0.147097 0)
(41.3879 -0.281264 0)
(40.8863 -0.286022 0)
(37.7527 -0.150262 0)
(30.6327 -0.0507022 0)
(30.1657 -0.0503384 0)
(37.2432 -0.153049 0)
(40.3919 -0.293439 0)
(39.8668 -0.2973 0)
(36.7204 -0.155733 0)
(29.683 -0.0523037 0)
(29.1957 -0.0518966 0)
(36.1864 -0.158392 0)
(39.3466 -0.30432 0)
(38.796 -0.308296 0)
(35.6393 -0.161299 0)
(28.6922 -0.0540118 0)
(28.1893 -0.0535931 0)
(35.0858 -0.164086 0)
(38.2552 -0.315587 0)
(37.6894 -0.31821 0)
(34.525 -0.166105 0)
(27.6762 -0.0554045 0)
(27.1659 -0.0544496 0)
(33.9595 -0.167666 0)
(37.1345 -0.323578 0)
(36.5532 -0.323575 0)
(33.3856 -0.168222 0)
(26.645 -0.0556684 0)
(26.1254 -0.0543336 0)
(32.8056 -0.168575 0)
(35.9811 -0.326562 0)
(35.3824 -0.325966 0)
(32.2167 -0.169056 0)
(25.5938 -0.0555893 0)
(25.0727 -0.054051 0)
(31.6309 -0.169196 0)
(34.8016 -0.328487 0)
(34.2066 -0.325266 0)
(31.0485 -0.168007 0)
(24.5524 -0.0547763 0)
(24.0484 -0.0523335 0)
(30.4748 -0.165807 0)
(33.6339 -0.323762 0)
(33.048 -0.315821 0)
(29.9062 -0.161819 0)
(23.5482 -0.0518934 0)
(23.0626 -0.0484881 0)
(29.3448 -0.156516 0)
(32.482 -0.308794 0)
(31.902 -0.298925 0)
(28.7866 -0.151932 0)
(22.5776 -0.04792 0)
(22.1208 -0.0445115 0)
(28.25 -0.14691 0)
(31.3552 -0.291817 0)
(30.8135 -0.277871 0)
(27.7359 -0.139817 0)
(21.6847 -0.0431549 0)
(21.287 -0.0384845 0)
(27.254 -0.131121 0)
(30.3148 -0.264353 0)
(29.8223 -0.245106 0)
(26.7961 -0.121176 0)
(20.913 -0.0358967 0)
(20.5718 -0.0299874 0)
(26.365 -0.108584 0)
(29.3658 -0.224766 0)
(28.9146 -0.202364 0)
(25.9548 -0.0968747 2.39853e-19)
(20.2494 -0.0273043 0)
(19.9686 -0.0221371 0)
(25.5828 -0.0859935 -2.39751e-19)
(28.5107 -0.18456 0)
(28.135 -0.163725 7.98414e-19)
(25.2546 -0.0754179 -7.20167e-19)
(19.7302 -0.0195286 0)
(19.5456 -0.0138326 0)
(24.9785 -0.061949 -2.39859e-19)
(27.8209 -0.140124 0)
(27.5296 -0.117838 7.98713e-19)
(24.7397 -0.0504216 -7.20382e-19)
(19.3976 -0.0103555 0)
(19.2987 -0.00408457 0)
(24.5477 -0.0354317 -1.1997e-18)
(27.2925 -0.0920515 7.97301e-19)
(27.0596 -0.0679975 0)
(24.371 -0.0243817 0)
(19.21 -0.00124902 0)
(19.1692 0.00505341 0)
(24.2421 -0.0126117 0)
(26.8824 -0.0481802 0)
(26.7308 -0.0246566 0)
(24.1479 -0.0014509 0)
(19.162 0.00674859 0)
(19.1913 0.0120332 0)
(24.0928 0.0099055 0)
(26.6225 -0.00481979 0)
(26.5483 0.00438571 0)
(24.0656 0.0125184 0)
(19.2495 0.012215 0)
(19.3514 0.0143561 0)
(24.0906 0.018159 0)
(26.515 0.0148771 0)
(26.4968 0.0375926 0)
(24.1143 0.0298033 0)
(19.454 0.0169362 0)
(19.5651 0.0205572 0)
(24.1663 0.0404042 0)
(26.4963 0.0544517 0)
(26.5046 0.0593567 0)
(24.2107 0.0403076 0)
(19.6697 0.0184339 0)
(19.8011 0.018607 0)
(24.2971 0.0402758 0)
(26.5411 0.0600291 0)
(26.6047 0.0605208 0)
(24.3951 0.0387011 0)
(19.9473 0.0163464 0)
(20.1058 0.0185382 0)
(24.5215 0.0441444 0)
(26.6857 0.0670153 0)
(26.7629 0.0721346 0)
(24.6279 0.0441785 0)
(20.2494 0.0174245 0)
(20.3917 0.0194724 0)
(24.7478 0.049648 0)
(26.8436 0.0801073 0)
(26.9207 0.0703606 0)
(24.8493 0.0415616 0)
(20.5216 0.0154276 0)
(20.6558 0.0155405 0)
(24.9701 0.0414335 0)
(27.0054 0.0698006 0)
(27.1046 0.0714936 0)
(25.0894 0.0425275 0)
(20.7945 0.0152392 0)
(20.9384 0.0148709 0)
(25.2287 0.0425449 0)
(27.2152 0.0726127 0)
(27.3032 0.0682303 0)
(25.3301 0.0391314 0)
(21.0509 0.0133111 0)
(21.1815 0.0120073 0)
(25.4602 0.0341964 9.59626e-19)
(27.4074 0.0592969 -7.97272e-19)
(27.5075 0.0637482 0)
(25.5748 0.0357424 0)
(21.3061 0.0116875 0)
(21.4013 0.0137436 0)
(25.6743 0.0411321 0)
(27.5859 0.0719054 0)
(27.6626 0.0645407 7.98513e-19)
(25.7584 0.0358994 -7.2017e-19)
(21.489 0.0114821 0)
(21.5968 0.0111288 0)
(25.8741 0.034116 -1.19896e-18)
(27.7595 0.0611267 7.96846e-19)
(27.8519 0.0500408 7.98464e-19)
(25.9715 0.026163 -7.20112e-19)
(21.6933 0.00743268 0)
(21.789 0.00790596 0)
(26.0798 0.0253251 -1.19879e-18)
(27.9453 0.0470059 7.96737e-19)
(28.0362 0.0426911 7.98355e-19)
(26.1751 0.022272 -7.20043e-19)
(21.8839 0.00652736 0)
(21.9833 0.00876222 0)
(26.2852 0.0280509 -1.19867e-18)
(28.1306 0.0506064 7.96622e-19)
(28.2025 0.0551758 7.98295e-19)
(26.3584 0.0295832 -7.20009e-19)
(22.0543 0.0085194 0)
(22.1146 0.00987631 0)
(26.432 0.031 -1.1987e-18)
(28.2647 0.0557053 7.96631e-19)
(28.3373 0.0533748 -1.99466e-19)
(26.5048 0.0291904 0)
(22.1847 0.00878341 0)
(22.2508 0.00570254 0)
(26.5873 0.0221364 0)
(28.4097 0.0436511 1.99273e-19)
(28.4795 0.0420355 0)
(26.6541 0.021758 0)
(22.3103 0.00605549 0)
(22.3934 0.00462887 0)
(26.7516 0.0160907 0)
(28.5677 0.0321098 0)
(28.6439 0.0347008 0)
(26.828 0.0173712 0)
(22.4664 0.00426013 0)
(22.5264 0.00609157 0)
(26.9024 0.0204866 0)
(28.7104 0.0381345 0)
(28.7631 0.0335654 7.98128e-19)
(26.9529 0.016085 -9.60298e-19)
(22.5717 0.0039415 1.45172e-19)
(22.6162 0.00512153 1.68239e-26)
(27.0118 0.0176469 -9.59724e-19)
(28.8134 0.03395 7.98063e-19)
(28.8711 0.0362119 0)
(27.0706 0.0185283 -4.85685e-19)
(22.6696 0.00469503 -2.94554e-19)
(22.7289 0.00527145 1.47482e-19)
(27.1397 0.0191342 2.4453e-19)
(28.9409 0.0368935 0)
(29.0004 0.0374484 -8.54502e-19)
(27.199 0.0194965 2.6096e-19)
(22.7845 0.00588144 -1.27162e-18)
(22.8404 0.00852903 1.69238e-23)
(27.2653 0.0253705 -5.34655e-19)
(29.067 0.045733 1.33543e-18)
(29.1418 0.0580291 -1.19197e-17)
(27.3333 0.0350947 -4.86307e-18)
(22.9106 0.0149842 1.48925e-18)
(23.0788 0.0208117 -6.62787e-18)
(27.46 0.0387722 9.90647e-18)
(29.2677 0.0605134 4.18509e-18)
(29.4159 0.0556684 0)
(27.6293 0.0372763 2.64923e-18)
(23.2612 0.0141457 -2.38574e-18)
(31.1175 0.0933098 -1.30406e-17)
(32.1441 0.115154 1.96622e-17)
(32.8388 0.120862 -2.89718e-18)
(33.2527 0.132957 0)
(33.5465 0.176329 3.62694e-19)
(34.0545 0.199813 -3.71994e-19)
(34.3427 0.202333 0)
(34.6941 0.210502 1.48196e-18)
(34.9225 0.209161 1.47536e-18)
(35.1848 0.210756 0)
(35.365 0.208221 0)
(35.5736 0.206503 0)
(35.7201 0.202558 3.69808e-19)
(35.8955 0.196965 -3.72404e-19)
(36.0142 0.188403 7.22253e-24)
(36.1528 0.178755 -1.54078e-18)
(36.2329 0.165827 -1.59748e-18)
(36.3106 0.150789 -1.31219e-17)
(36.3311 0.131748 1.3795e-17)
(36.2669 0.0927597 -6.25611e-17)
(36.1242 0.0788401 8.84983e-17)
(35.9606 0.0796163 5.7915e-17)
(35.6709 0.0566393 -1.68411e-17)
(34.9705 -0.00209237 0)
(33.2516 -0.00511087 1.65597e-17)
(30.7382 -0.0706539 -1.98545e-17)
(24.1934 -0.117312 0)
(23.496 -0.17379 0)
(30.3101 -0.114108 0)
(32.9978 -0.0410992 -3.28994e-17)
(32.7027 -0.0963766 0)
(29.8507 -0.108726 0)
(22.7243 -0.10317 0)
(21.962 -0.102612 -1.17924e-17)
(29.4675 -0.104571 1.2011e-17)
(32.4164 -0.0741646 0)
(32.1941 -0.059523 6.01856e-18)
(29.1665 -0.0405828 -3.68967e-18)
(21.4767 -0.0177732 -1.52034e-18)
(21.3847 -0.0137756 0)
(29.1511 -0.0196861 -9.40019e-18)
(32.1916 -0.0212387 1.54655e-17)
(32.1025 0.00240625 -3.87108e-18)
(29.0551 0.00543419 0)
(21.2727 0.00394613 -3.58461e-19)
(21.3533 0.00128915 -2.98985e-24)
(29.1133 0.00601172 0)
(32.1808 0.0102239 0)
(32.1337 0.0144768 3.85222e-18)
(29.052 0.0136712 -2.3415e-18)
(21.3317 0.0110003 -2.48961e-18)
(21.46 0.00202503 0)
(29.169 0.0118002 0)
(32.2247 0.0235413 -3.84232e-18)
(32.201 0.0285624 3.8434e-18)
(29.1422 0.0167756 0)
(21.4484 0.00310698 0)
(21.5746 0.00749251 0)
(29.2602 0.0162901 0)
(32.2934 0.0249229 -3.84112e-18)
(32.2729 0.0290014 3.8422e-18)
(29.2415 0.0176477 0)
(21.5688 0.00544948 0)
(21.702 0.00455229 0)
(29.3638 0.0162995 0)
(32.3693 0.0287059 -3.83987e-18)
(32.3549 0.0307379 3.84083e-18)
(29.3505 0.0190431 0)
(21.7053 0.00599951 0)
(21.8434 0.00579541 0)
(29.4769 0.0175676 0)
(32.4548 0.0292355 -3.83843e-18)
(32.4427 0.0260779 3.83951e-18)
(29.4686 0.0199832 0)
(21.8506 0.01286 0)
(21.9916 0.00208513 0)
(29.5969 0.0165121 0)
(32.5439 0.0319532 -3.83704e-18)
(32.5365 0.0271005 3.83797e-18)
(29.5906 0.020472 0)
(22.0045 0.0126554 0)
(22.147 0.0070606 0)
(29.7229 0.018325 0)
(32.639 0.0301437 0)
(32.6336 0.0329928 0)
(29.7181 0.0189653 0)
(22.1622 0.00443733 0)
(22.3076 0.00943569 0)
(29.8506 0.0205735 0)
(32.7367 0.0308444 -3.83378e-18)
(32.7327 0.0359042 3.83476e-18)
(29.8483 0.0211296 0)
(22.3255 0.00450349 0)
(22.4715 0.0101692 0)
(29.9806 0.0215723 0)
(32.8357 0.0321183 0)
(32.8316 0.0335353 0)
(29.9813 0.0203743 0)
(22.4894 0.00774934 0)
(22.6379 0.00256317 0)
(30.1132 0.0188331 0)
(32.9348 0.037231 -3.83056e-18)
(32.935 0.0331889 3.83153e-18)
(30.1158 0.0227927 0)
(22.6627 0.0115231 0)
(22.8136 0.00701857 0)
(30.2527 0.0211526 -4.65428e-18)
(33.0397 0.036503 3.82141e-18)
(33.0429 0.0385142 3.83719e-18)
(30.2578 0.0226944 -4.66393e-18)
(22.8418 0.00599822 0)
(22.9966 0.00736799 0)
(30.3948 0.0227653 0)
(33.1497 0.0378715 -3.82697e-18)
(33.1556 0.0319473 3.828e-18)
(30.4066 0.0244127 0)
(23.0278 0.0164806 0)
(23.1849 0.00457614 0)
(30.5463 0.0219707 -4.6507e-18)
(33.264 0.0407364 3.81773e-18)
(33.2738 0.0349427 3.83347e-18)
(30.5586 0.0251621 -4.66038e-18)
(23.2213 0.014727 0)
(23.3812 0.00885611 0)
(30.7021 0.0245299 0)
(33.383 0.0407227 -3.82317e-18)
(33.3967 0.042326 3.82406e-18)
(30.7183 0.0252136 0)
(23.4215 0.00732452 0)
(23.5857 0.00711734 0)
(30.8625 0.0252648 0)
(33.5092 0.0435152 0)
(33.5257 0.0378026 0)
(30.8848 0.0281424 0)
(23.6299 0.0165215 0)
(23.7964 0.00650856 0)
(31.0328 0.02559 0)
(33.6395 0.0458121 -3.81901e-18)
(33.6615 0.0405526 3.8199e-18)
(31.0584 0.0282565 0)
(23.8467 0.0152109 0)
(24.017 0.0101812 0)
(31.2119 0.0278 0)
(33.7783 0.0466938 -3.81681e-18)
(33.8059 0.0504919 3.81764e-18)
(31.2424 0.0283827 0)
(24.0733 0.00567513 0)
(24.2497 0.010746 0)
(31.4002 0.0299393 0)
(33.9272 0.0500588 -3.81458e-18)
(33.9611 0.0534088 3.81529e-18)
(31.4392 0.0303442 0)
(24.3131 0.00626784 0)
(24.4948 0.0119244 0)
(31.6026 0.0321447 0)
(34.0872 0.0528498 0)
(34.1279 0.0539651 0)
(31.6507 0.0318574 0)
(24.5664 0.00989287 0)
(24.7558 0.0129899 0)
(31.8223 0.0351943 0)
(34.2597 0.0578354 -3.80978e-18)
(34.3105 0.0607474 3.81036e-18)
(31.8805 0.0349088 0)
(24.8388 0.00864886 0)
(25.037 0.0123844 0)
(32.0619 0.0374135 0)
(34.4498 0.0637818 -3.80348e-18)
(34.5113 0.0669012 3.81146e-18)
(32.1337 0.0365309 -2.31876e-18)
(25.1352 0.00784425 -2.82808e-18)
(25.3479 0.0151519 2.82732e-18)
(32.3294 0.0432714 2.31763e-18)
(34.6605 0.0717766 -3.80472e-18)
(34.7362 0.077248 3.80491e-18)
(32.4181 0.0434894 0)
(25.4678 0.00903684 0)
(25.7003 0.0174167 0)
(32.6312 0.0496461 0)
(34.8976 0.0818252 -3.80204e-18)
(34.9903 0.0871065 3.80191e-18)
(32.7441 0.0516726 0)
(25.8521 0.0155512 0)
(26.1165 0.0203424 0)
(32.9812 0.0597417 0)
(35.1697 0.0984312 -3.79921e-18)
(35.2855 0.0948525 3.79854e-18)
(33.127 0.0636238 0)
(26.3182 0.0356032 0)
(26.6308 0.0301346 0)
(33.4012 0.073082 0)
(35.4875 0.121514 -3.79603e-18)
(35.6425 0.126378 3.79439e-18)
(33.5953 0.0786492 0)
(26.9199 0.0471931 0)
(27.3389 0.0532182 0)
(33.9378 0.0978273 0)
(35.8933 0.17344 0)
(36.0951 0.23163 3.80462e-18)
(34.2045 0.156836 0)
(27.7531 0.122025 0)
(28.2576 0.19394 0)
(34.588 0.243229 0)
(36.3705 0.344334 -7.60403e-18)
(36.5581 0.508411 0)
(34.859 0.420846 0)
(28.6988 0.374494 0)
(29.1376 0.551024 2.25611e-17)
(35.1431 0.63745 -1.82883e-17)
(36.7537 0.741408 1.52003e-17)
(36.8042 0.992035 1.50055e-17)
(35.2182 0.928254 -3.64976e-17)
(29.4067 0.836163 2.23852e-17)
(29.6455 1.01304 3.45748e-19)
(35.3213 1.15223 0)
(36.8219 1.22632 2.92866e-17)
(36.7674 1.42423 -1.48199e-17)
(35.3178 1.36282 1.79077e-17)
(29.8105 1.20626 -3.41459e-19)
(29.9969 1.35888 0)
(35.3633 1.55378 0)
(36.7405 1.62275 4.56063e-19)
(36.6794 1.74301 -4.48932e-19)
(35.345 1.66431 0)
(30.1993 1.48901 -4.30557e-17)
(30.4862 1.67292 3.30477e-19)
(35.4149 1.87324 2.69873e-19)
(36.6401 1.95049 4.43834e-19)
(36.493 2.14541 1.09224e-22)
(35.2999 2.1027 3.33241e-17)
(30.6008 1.8889 0)
(30.7779 1.99524 8.14924e-17)
(35.2582 2.20561 2.60356e-19)
(36.3693 2.26541 0)
(36.2456 2.38018 -2.70908e-17)
(35.2151 2.31162 3.23706e-17)
(31.0223 2.12072 0)
(31.2755 2.31592 7.89017e-17)
(35.1716 2.50054 5.05544e-19)
(36.1138 2.55303 0)
(35.9114 2.70424 0)
(35.047 2.66078 0)
(31.4252 2.48875 -1.22781e-18)
(31.6264 2.63413 1.20572e-18)
(34.9213 2.76133 1.97432e-18)
(35.7201 2.82471 0)
(35.5339 2.96367 -3.15072e-17)
(34.7858 2.91204 -1.98858e-18)
(31.8925 2.8584 1.55135e-16)
(32.2521 3.11781 4.69289e-18)
(34.7169 3.04641 3.796e-17)
(35.3542 3.0282 -3.8009e-18)
(35.2214 3.18978 8.76157e-18)
(34.5603 3.18453 4.13286e-17)
(32.8875 3.43879 -6.33509e-17)
(32.8545 3.76086 4.75627e-18)
(34.6811 3.55897 0)
(34.958 3.51841 1.86275e-17)
(34.5002 3.62504 -8.24761e-17)
(34.2248 3.71195 8.23847e-17)
(32.3806 3.95456 4.05422e-17)
(31.9604 4.07304 2.12695e-17)
(33.7589 3.77057 -1.22972e-17)
(34.1331 3.75799 2.80755e-17)
(33.8658 3.78897 -8.82832e-18)
(33.5078 3.81253 0)
(31.8049 4.22072 1.85815e-17)
(31.5302 4.49166 -3.30375e-17)
(33.2049 3.96056 4.17176e-18)
(33.4748 3.91593 -1.93611e-18)
(32.9835 4.00546 3.62641e-18)
(32.7949 4.03477 -3.89346e-18)
(31.2087 4.7212 -6.0808e-17)
(30.8422 5.00942 8.68547e-17)
(32.3116 4.1743 -3.34185e-17)
(32.4227 4.12926 2.60302e-17)
(31.7983 4.19357 0)
(31.7579 4.24129 -3.57638e-18)
(30.4277 5.22323 -1.09944e-16)
(29.9942 5.44004 8.0231e-17)
(31.1249 4.30232 3.41481e-17)
(31.077 4.24425 0)
(30.2616 4.24982 -4.05022e-17)
(30.4056 4.32027 5.30173e-17)
(29.5483 5.66944 0)
(28.9862 5.93134 -2.85455e-17)
(29.6611 4.35637 1.71398e-17)
(29.4494 4.21661 0)
(28.8364 4.37446 -5.24713e-17)
(28.9546 4.30464 6.29651e-17)
(28.2673 6.09493 -1.27698e-16)
(27.6056 6.29231 9.69426e-17)
(28.0335 4.17487 0)
(28.1367 4.15229 4.27667e-17)
(27.1586 3.74621 -7.63389e-18)
(26.9325 3.92437 0)
(26.896 6.44771 0)
(26.0685 6.5016 9.83343e-17)
(25.7652 3.71769 7.56794e-17)
(25.8578 3.33839 1.04422e-16)
(24.3882 3.26276 -7.85865e-17)
(24.5548 3.72989 1.07438e-16)
(25.1308 6.56674 -2.2145e-16)
(24.1344 6.60589 -4.52742e-17)
(23.5966 3.74849 7.6175e-17)
(23.4257 3.41577 -3.71475e-17)
(22.4478 3.26233 9.81509e-17)
(22.6165 3.70583 4.81096e-17)
(23.1612 6.67474 -2.60899e-17)
(22.1653 6.62042 -2.04273e-16)
(21.65 3.50169 -2.7945e-17)
(21.6315 3.20475 -7.93997e-18)
(20.6631 2.65526 4.47134e-17)
(20.4664 3.07754 -7.59161e-17)
(21.0651 6.44387 2.93919e-16)
(19.7955 6.07605 0)
(19.0372 2.43224 6.92183e-17)
(19.3763 1.83075 -3.96068e-17)
(17.9009 0.574993 0)
(17.5609 1.49215 -2.22522e-17)
(18.2891 5.37969 0)
(16.6112 4.12912 0)
(15.9538 0.199523 0)
(16.3432 -0.910584 0)
(15.1226 -2.07806 8.84337e-18)
(14.4174 -1.26602 0)
(14.7173 2.27259 0)
(12.8291 -0.292893 2.92332e-17)
(13.0423 -3.35579 0)
(14.128 -4.02728 -2.46714e-17)
(13.2285 -7.13866 -9.34619e-17)
(11.8289 -6.21708 0)
(10.8692 -3.20286 2.74335e-17)
(8.47159 -7.9737 -2.66055e-16)
(10.7018 -10.0561 -6.09082e-17)
(12.2582 -10.8331 1.21774e-16)
(12.0026 -13.5138 0)
(10.0963 -13.3772 -1.01318e-16)
(6.64378 -12.4813 2.56232e-17)
(5.44185 -17.6727 1.78103e-16)
(10.6267 -16.9072 2.96603e-17)
(12.9546 -16.6298 0)
(13.5649 -20.6982 -3.25214e-17)
(11.4224 -21.5111 -1.34122e-16)
(5.01308 -23.3105 4.05392e-17)
(5.34175 -28.5774 -3.26258e-16)
(12.8411 -24.777 6.95314e-17)
(14.8676 -23.4443 1.13431e-16)
(17.6978 -25.8145 0)
(16.1364 -27.6928 0)
(6.95544 -33.8355 2.36132e-16)
(9.45402 -38.7329 1.72231e-16)
(19.8492 -30.9391 9.43219e-17)
(21.3164 -29.2782 8.16289e-18)
(24.0671 -31.9539 -5.80923e-18)
(22.7262 -33.4305 -5.70259e-17)
(12.0548 -43.0164 -1.70646e-16)
(14.795 -46.9281 -2.45695e-17)
(25.4617 -35.6077 3.14268e-17)
(26.5086 -34.2093 -6.34101e-18)
(29.0904 -36.2941 -3.5547e-17)
(28.404 -37.7017 5.90096e-17)
(17.757 -50.6891 1.04773e-17)
(20.8919 -54.4547 1.65896e-16)
(31.5393 -39.7769 0)
(32.162 -38.5359 2.5671e-17)
(33.8651 -40.8402 -7.47751e-17)
(33.5545 -42.4864 -2.87145e-17)
(24.0805 -57.5724 -1.75867e-16)
(27.588 -59.7318 -1.31879e-17)
(35.9667 -45.7117 2.67438e-16)
(36.8132 -42.6054 -7.85953e-17)
(38.8796 -44.984 -9.77439e-17)
(38.6326 -48.0646 1.08931e-16)
(31.3179 -60.5665 -2.72783e-17)
(35.0437 -60.2447 1.45911e-17)
(42.0351 -49.2997 0)
(42.5811 -45.9631 -9.34275e-17)
(45.5301 -47.051 0)
(45.1281 -49.1559 4.35613e-17)
(38.5984 -58.7088 0)
(41.4062 -56.2503 -1.41859e-16)
(47.6081 -48.221 -1.16193e-19)
(48.0068 -46.9955 2.98556e-17)
(50.9253 -45.8039 -2.56916e-17)
(50.3301 -46.2961 -5.21399e-17)
(43.7955 -52.8813 2.58684e-16)
(45.4546 -49.0774 -1.20061e-16)
(52.0359 -43.8206 9.31795e-17)
(52.8544 -44.278 -8.66297e-17)
(54.1857 -42.5415 -6.50832e-17)
(53.1689 -41.2362 1.66799e-16)
(46.6437 -45.1607 -4.37842e-17)
(47.4436 -41.2116 -4.56353e-17)
(54.3238 -38.6504 0)
(55.8047 -41.0424 2.5458e-17)
(56.7096 -38.6589 1.32198e-16)
(54.9297 -36.0607 -4.40175e-17)
(47.8813 -37.5182 0)
(47.9986 -34.2733 1.07145e-19)
(54.9995 -33.9523 -9.88786e-17)
(57.0691 -36.7925 8.4485e-17)
(57.9989 -35.6626 6.65427e-17)
(55.241 -32.1543 -1.14689e-19)
(47.9986 -31.26 -7.79886e-20)
(47.8111 -28.7164 0)
(55.1351 -30.5265 -8.15394e-17)
(58.1434 -33.606 6.32427e-17)
(58.1566 -32.2656 0)
(54.9101 -29.2939 0)
(47.4869 -26.5138 0)
(47.202 -24.5645 -4.86327e-17)
(55.4792 -28.7183 1.45602e-16)
(58.7299 -31.595 -3.60793e-17)
(58.7289 -30.213 1.05695e-16)
(55.5571 -27.8388 -1.17837e-16)
(46.9762 -23.0122 0)
(46.8043 -21.7352 -4.03172e-17)
(55.9632 -27.2073 1.84188e-16)
(59.0769 -29.7118 -2.04068e-16)
(58.8793 -28.0285 -1.5705e-16)
(55.5049 -25.9166 3.75822e-17)
(46.4955 -20.5401 0)
(45.9656 -19.4495 2.14765e-20)
(54.6067 -24.7463 2.03194e-17)
(58.2119 -26.4839 9.02234e-18)
(57.3874 -25.2803 -1.38975e-17)
(53.5123 -23.8227 -2.34832e-17)
(45.1804 -18.3794 -8.33132e-17)
(44.4767 -17.5063 -8.05059e-17)
(53.4606 -23.3087 8.39006e-17)
(57.5177 -24.9335 8.50085e-17)
(56.9937 -23.929 -6.54226e-17)
(52.7164 -22.4524 -3.49031e-17)
(43.839 -16.9003 -2.99966e-20)
(43.0674 -16.4455 8.10353e-17)
(51.7925 -21.796 -4.14538e-17)
(56.1367 -23.0923 -8.85656e-21)
(56.168 -23.1355 9.47396e-17)
(51.9063 -21.4206 -7.49458e-17)
(42.6361 -16.0639 1.53828e-16)
(42.1504 -15.7878 -7.47588e-17)
(51.2144 -20.6696 -3.09641e-17)
(55.5033 -22.3524 -1.03627e-16)
(54.2699 -21.4322 8.0428e-17)
(49.9936 -19.8891 -6.1479e-21)
(41.5216 -15.6257 -8.3187e-17)
(40.5986 -15.4611 9.70261e-17)
(48.7204 -19.3842 4.94687e-17)
(53.1182 -20.7558 -4.87773e-17)
(53.4042 -21.1334 -7.5057e-21)
(48.9764 -19.2585 -8.96115e-17)
(40.2422 -15.2429 -7.22465e-17)
(40.2297 -15.1285 -1.33735e-16)
(48.3289 -18.6724 9.99438e-17)
(52.634 -20.5616 6.02627e-17)
(50.8007 -19.4086 -1.50802e-17)
(45.083 -17.0521 -2.53019e-17)
(39.6478 -14.7829 1.96612e-17)
(40.4437 -15.7221 2.49138e-17)
(44.2074 -17.2141 0)
(50.7789 -19.8397 0)
(49.8707 -19.585 0)
(43.7245 -17.316 0)
(39.6645 -15.5912 -1.73743e-16)
(39.0256 -15.2793 -1.95144e-16)
(43.4237 -17.051 1.53053e-16)
(48.2315 -18.8921 3.74843e-18)
(46.2716 -17.5218 -7.04798e-17)
(41.9096 -16.5278 1.14822e-16)
(37.2555 -15.089 0)
(40.6549 -16.1097 1.91165e-16)
(45.5384 -18.2795 3.60389e-16)
(48.1664 -19.3505 -3.29764e-16)
(47.9018 -19.3031 1.81597e-17)
(45.2358 -18.3088 8.12233e-18)
(40.2846 -16.2457 -1.47747e-16)
(39.1261 -15.9412 -7.65318e-18)
(43.8479 -17.9325 -1.04875e-16)
(46.6296 -18.6412 1.03557e-16)
(48.4813 -19.9327 0)
(46.3615 -19.2563 -3.37143e-16)
(41.8885 -17.2973 3.75144e-16)
(41.4547 -17.1661 2.93741e-17)
(46.0089 -19.1799 0)
(48.1882 -20.0627 -1.07556e-17)
(47.7286 -19.846 1.36528e-16)
(45.3955 -19.0465 -1.53594e-16)
(40.9429 -17.1356 1.82791e-16)
(39.6374 -16.6385 0)
(44.085 -18.5558 -1.16733e-16)
(46.5409 -19.1948 1.43079e-16)
(48.2459 -20.3808 -2.92956e-16)
(46.3424 -19.7769 5.85087e-16)
(42.1212 -17.9405 -1.91455e-16)
(41.8107 -17.6706 1.56635e-16)
(45.9943 -19.6819 -3.30296e-17)
(47.9646 -20.6203 1.90155e-16)
(46.9534 -20.0437 -7.06229e-17)
(44.8054 -19.3492 9.42147e-17)
(40.6229 -17.4787 2.51824e-16)
(43.0178 -18.6522 -2.65652e-17)
(46.8395 -20.4939 -3.80508e-16)
(48.4685 -21.2018 2.8039e-16)
(48.3105 -21.3745 0)
(46.6062 -20.4934 4.06047e-17)
(42.7512 -18.5318 2.74072e-17)
(41.624 -18.2249 -2.55641e-16)
(45.5021 -19.9706 1.99151e-16)
(47.4148 -20.6887 0)
(48.6537 -21.8614 -8.8689e-20)
(47.1971 -21.184 3.40129e-16)
(43.6715 -19.3854 -2.58349e-17)
(43.5116 -19.4124 -1.48988e-16)
(47.1123 -21.3156 0)
(48.6282 -22.1255 0)
(47.8892 -21.4564 2.22342e-17)
(46.1597 -20.7234 -2.03864e-16)
(42.5654 -19.0618 2.37405e-16)
(44.2394 -19.9486 0)
(47.6363 -21.8262 -2.81326e-16)
(48.9661 -22.5502 2.50087e-16)
(48.8876 -22.9125 0)
(47.364 -22.2258 -2.88633e-17)
(43.7738 -20.1771 0)
(43.5295 -20.0045 1.98141e-16)
(47.1216 -22.0054 0)
(48.6418 -22.8493 3.80647e-18)
(47.9041 -21.9405 -4.60459e-17)
(45.9909 -21.4982 1.17275e-16)
(42.1511 -19.9211 4.26606e-18)
(44.0936 -20.537 -7.01584e-18)
(47.6079 -22.5405 3.69592e-16)
(48.9328 -23.2701 -5.94012e-16)
(48.9084 -23.5496 1.7662e-16)
(47.355 -22.8892 0)
(43.5623 -20.7906 5.7531e-18)
(42.672 -20.6039 -8.17743e-18)
(46.4123 -22.6084 0)
(48.2244 -23.0945 0)
(49.4039 -23.9435 -3.78145e-17)
(48.0284 -23.5954 -3.18285e-16)
(44.5275 -21.7742 4.15963e-16)
(44.0902 -21.6838 3.89581e-16)
(47.7134 -23.4412 -3.0577e-16)
(49.2689 -24.0243 1.89208e-17)
(48.4701 -23.6564 1.24014e-17)
(46.5741 -23.2921 0)
(42.9026 -21.4506 -2.64276e-16)
(44.8017 -22.5945 4.7525e-16)
(48.1793 -24.3641 -4.12634e-16)
(49.555 -24.6499 0)
(49.6412 -24.8345 -1.97549e-16)
(48.1457 -24.2959 3.17443e-16)
(44.6364 -22.61 -2.88592e-17)
(43.7078 -22.1034 8.26679e-18)
(47.2238 -23.9512 8.50535e-17)
(48.9411 -24.449 -1.11801e-16)
(50.0305 -25.2428 0)
(48.6455 -24.9244 3.32903e-16)
(45.1549 -23.1164 -4.48401e-16)
(44.7853 -23.0976 -5.85139e-18)
(48.3888 -25.0196 3.4622e-17)
(49.8891 -25.605 0)
(49.3179 -25.1142 -1.26869e-17)
(47.4211 -24.9797 0)
(43.808 -23.1985 3.23761e-22)
(45.8091 -23.947 2.09344e-16)
(49.1197 -25.7832 -5.6742e-16)
(50.4351 -26.1033 6.41549e-16)
(50.4773 -26.1994 2.1005e-16)
(48.9769 -25.6527 0)
(45.5109 -23.9029 2.41037e-17)
(44.4233 -23.1234 2.91092e-16)
(47.9734 -25.2125 -2.39818e-16)
(49.6299 -25.8425 1.30857e-17)
(50.757 -26.6632 -1.06991e-17)
(49.2143 -26.7477 0)
(45.5857 -25.0352 -3.89947e-17)
(45.394 -24.8715 2.56481e-16)
(48.7083 -26.4578 1.15259e-17)
(50.3486 -26.6779 0)
(51.5583 -27.5289 0)
(50.3852 -27.1841 -3.27923e-16)
(47.319 -25.554 4.23197e-16)
(47.1225 -25.471 3.18033e-16)
(50.2845 -27.0957 -2.51902e-16)
(51.5834 -27.664 1.87531e-16)
(50.9146 -27.2457 -1.8125e-16)
(49.391 -26.6495 2.07949e-16)
(46.2052 -24.9424 -2.45375e-16)