/*--------------------------------*- C++ -*----------------------------------*\
| =========                 |                                                 |
| \\      /  F ield         | OpenFOAM: The Open Source CFD Toolbox           |
|  \\    /   O peration     | Version:  v2006                                 |
|   \\  /    A nd           | Website:  www.openfoam.com                      |
|    \\/     M anipulation  |                                                 |
\*---------------------------------------------------------------------------*/
FoamFile
{
    version     2.0;
    format      ascii;
    class       volScalarField;
    location    "0.054";
    object      isentropic(p);
}
// * * * * * * * * * * * * * * * * * * * * * * * * * * * * * * * * * * * * * //

dimensions      [1 -1 -2 0 0 0 0];


internalField   nonuniform List<scalar> 
9148
(
150025
150030
150023
150032
150027
150030
150032
150034
150033
150031
150030
150029
150028
150027
150027
150026
150026
150025
150025
150024
150024
150023
150023
150022
150022
150021
150021
150020
150020
150019
150019
150018
150018
150017
150017
150016
150016
150016
150015
150015
150014
150014
150013
150013
150012
150012
150012
150011
150011
150011
150010
150010
150009
150009
150008
150008
150007
150006
150004
150002
150002
150005
150009
150012
150010
150011
150013
150015
150023
150033
150029
149961
149893
150019
150039
150035
150005
149833
149774
149988
150028
150019
149970
149723
149675
149950
150009
149999
149932
149633
149596
149914
149989
149980
149898
149562
149532
149882
149970
149961
149866
149504
149479
149852
149952
149943
149837
149456
149436
149824
149934
149925
149811
149416
149398
149798
149917
149908
149786
149381
149366
149774
149901
149892
149763
149351
149338
149752
149885
149877
149742
149325
149314
149732
149871
149863
149722
149303
149293
149713
149857
149849
149704
149284
149275
149696
149843
149837
149687
149267
149260
149680
149831
149824
149672
149253
149247
149665
149819
149813
149657
149241
149236
149651
149808
149802
149644
149231
149227
149638
149797
149791
149632
149224
149221
149627
149787
149782
149621
149218
149216
149616
149777
149772
149611
149213
149212
149606
149768
149762
149600
149210
149209
149596
149758
149753
149591
149209
149209
149587
149749
149745
149583
149209
149211
149580
149742
149738
149577
149213
149215
149574
149735
149731
149572
149218
149221
149569
149729
149724
149566
149224
149227
149564
149721
149717
149560
149230
149233
149557
149713
149708
149554
149236
149240
149551
149704
149699
149548
149245
149250
149546
149696
149693
149545
149257
149264
149544
149691
149688
149544
149273
149282
149545
149687
149685
149545
149292
149302
149545
149683
149680
149545
149311
149320
149543
149676
149670
149541
149328
149336
149537
149664
149656
149533
149344
149352
149529
149649
149640
149524
149361
149372
149520
149632
149622
149516
149385
149400
149512
149614
149601
149507
149416
149446
149507
149589
149555
149477
149456
149475
149458
149513
149473
149472
149492
149505
149485
149462
149474
149506
149523
149541
149530
149499
149531
149551
149555
149552
149560
149558
149549
149542
149529
149530
149543
149554
149540
149528
149513
149517
149534
149546
149541
149530
149510
149517
149540
149552
149553
149542
149518
149528
149554
149565
149571
149561
149536
149544
149569
149580
149585
149573
149548
149551
149577
149590
149594
149581
149554
149556
149584
149598
149599
149585
149557
149555
149585
149600
149599
149585
149554
149551
149584
149597
149594
149581
149547
149544
149579
149591
149588
149577
149541
149539
149576
149585
149584
149576
149538
149539
149577
149584
149585
149578
149541
149546
149582
149588
149591
149586
149551
149557
149591
149595
149600
149597
149565
149573
149603
149606
149611
149610
149582
149591
149616
149617
149623
149622
149600
149607
149627
149627
149631
149631
149614
149619
149633
149633
149634
149634
149622
149624
149633
149633
149631
149631
149624
149623
149628
149627
149624
149625
149622
149620
149621
149621
149618
149618
149618
149616
149616
149615
149614
149613
149612
149611
149610
149610
149610
149610
149612
149613
149615
149618
149622
149625
149629
149632
149634
149635
149634
149631
149627
149626
149627
149624
149625
149625
149626
149625
149626
149625
149628
149626
149622
149621
149624
149623
149621
149622
149618
149618
149622
149622
149619
149618
149615
149615
149619
149620
149616
149616
149613
149613
149616
149614
149606
149610
149607
149603
149606
149601
149595
149599
149596
149593
149595
149592
149592
149589
149589
149585
149585
149597
149599
149580
149577
149569
149579
149606
149608
149581
149562
149555
149582
149615
149618
149585
149549
149545
149589
149624
149628
149592
149541
149539
149598
149632
149636
149602
149538
149539
149608
149641
149645
149612
149540
149542
149619
149650
149654
149625
149546
149552
149632
149660
149665
149640
149559
149568
149648
149671
149677
149656
149578
149592
149669
149685
149695
149682
149610
149630
149696
149705
149715
149707
149648
149669
149719
149724
149734
149731
149688
149707
149742
149743
149752
149752
149725
149740
149762
149760
149769
149772
149754
149768
149778
149773
149794
149788
149767
149795
149801
149796
149802
149809
149808
149819
149816
149808
149811
149821
149826
149830
149822
149811
149827
149837
149842
149847
149836
149820
149843
149864
149888
149854
149851
149847
149888
149918
149928
150022
149953
149862
149980
149971
150011
149887
149847
149897
149408
149541
149937
149318
149632
149558
148468
148853
147452
145598
147169
147623
147462
147033
145705
146177
147289
147739
147460
146986
146080
145917
146643
147050
147524
147163
146442
146368
146921
147260
147698
147378
146787
146689
147164
147459
147850
147568
147041
147038
147472
147748
147553
147312
146936
147254
147672
147890
147731
147522
147166
147442
147828
148018
147945
147754
147419
147334
147624
147805
148064
147901
147557
147470
147774
147938
148163
148017
147689
147611
147889
148040
148252
148116
147812
147784
148053
148198
148083
147941
147696
147869
148160
148281
148176
148046
147799
147958
148239
148351
148245
148118
147868
148035
148307
148409
148307
148186
147945
148104
148369
148470
148381
148267
148034
148174
148434
148536
148497
148384
148149
148054
148277
148396
148559
148469
148193
148111
148347
148461
148614
148522
148262
148164
148401
148515
148657
148565
148295
148218
148458
148570
148702
148615
148346
148242
148490
148603
148745
148663
148397
148310
148551
148658
148778
148691
148418
148327
148575
148684
148820
148742
148476
148382
148624
148732
148849
148765
148491
148394
148646
148755
148885
148807
148536
148439
148688
148795
148909
148826
148544
148443
148703
148813
148941
148865
148585
148483
148742
148851
148961
148880
148590
148476
148748
148860
148989
148913
148616
148504
148785
148897
149012
148932
148613
148469
148771
148899
149006
148888
148547
148684
149025
149099
148979
148867
148577
148690
149003
149090
148989
148870
148587
148727
149034
149117
149023
148906
148625
148741
149054
149137
149032
148911
148615
148729
149061
149148
149052
148931
148629
148759
149093
149175
149066
148937
148624
148732
149091
149175
149049
148918
148584
148678
149058
149152
149264
149183
148792
148667
149006
149136
149255
149164
148802
148677
149008
149142
149276
149186
148826
148705
149036
149169
149290
149204
148843
148691
149032
149168
149288
149199
148818
148670
149026
149166
149259
149153
148737
148862
149287
149366
149227
149089
148717
148848
149242
149333
149217
149076
148710
148853
149250
149341
149232
149092
148720
148845
149258
149349
149221
149073
148684
148826
149261
149346
149207
149055
148639
148709
149186
149302
149423
149341
148856
148678
149114
149268
149397
149301
148851
148678
149105
149265
149401
149301
148844
148668
149101
149263
149398
149300
148833
148625
149076
149245
149352
149218
148714
148851
149379
149467
149304
149143
148681
148836
149325
149417
149272
149103
148640
148825
149314
149409
149264
149091
148618
148799
149304
149400
149253
149077
148588
148776
149299
149393
149216
149028
148510
148610
149190
149321
149466
149372
148771
148572
149104
149287
149413
149309
148758
148538
149068
149256
149390
149285
148724
148469
149019
149217
149372
149260
148677
148445
149013
149213
149361
149248
148634
148357
148955
149168
149282
149130
148464
148633
149331
149426
149200
148988
148357
148578
149231
149350
149183
148965
148345
148574
149229
149345
149175
148954
148324
148474
149165
149290
149068
148827
148146
148422
149144
149273
149075
148827
148118
148240
149025
149203
149395
149307
148535
148155
148878
149126
149268
149137
148391
148099
148813
149061
149256
149124
148375
148106
148823
149074
149237
149128
148401
148029
148756
149016
149152
149007
148208
147860
148646
148919
149137
149002
148175
147851
148667
148943
149134
149020
148200
147796
148623
148909
149022
148869
147961
147538
148444
148752
149001
148852
147905
147540
148481
148793
148996
148887
147952
147439
148397
148724
148839
148656
147575
147095
148149
148513
148727
148498
147355
147779
148921
149030
148751
148418
147374
147643
148665
148789
148438
148071
146994
147497
148516
148678
148709
148386
147317
146711
147789
148221
148520
148433
147474
146377
147595
148054
148318
148109
146871
146361
147633
148055
148373
148240
146994
146561
147812
148212
148107
147873
146445
145709
147153
147640
147996
147803
146415
146011
147415
147863
147981
148007
146934
145381
146859
147411
147511
147327
145956
145765
147225
147693
147241
146683
145292
145267
146874
147043
146473
145814
143942
145076
146657
146829
146963
146524
144716
144765
146397
146583
146505
145873
143833
143084
145069
145755
145676
145758
144482
142572
144938
145642
144741
143983
141625
143175
144590
144514
144600
143866
140920
141371
144019
144427
141918
140528
136557
139501
141620
142079
141504
140331
136232
133926
139117
140375
138837
137310
130651
127928
135211
136795
136960
135386
128127
128534
135692
137707
137965
135608
128495
128272
135182
137840
137717
134836
128088
127957
134445
137507
137384
134179
127903
127856
133846
137142
136984
133620
127859
127857
133333
136720
136565
133161
127898
127928
132931
136305
136164
132813
127999
128055
132635
135926
135810
132564
128148
128222
132430
135594
135501
132397
128331
128418
132300
135314
135247
132295
128539
128635
132226
135083
135036
132243
128762
128864
132197
134898
134876
132233
128995
129099
132206
134759
134754
132251
129239
129343
132240
134661
134673
132302
129489
129589
132304
134599
134638
132376
129733
129829
132389
134582
134647
132475
129971
130063
132498
134605
134687
132591
130200
130286
132620
134658
134757
132723
130419
130502
132760
134737
134845
132865
130628
130706
132905
134833
134952
133017
130829
130904
133062
134946
135069
133173
131022
131092
133219
135067
135197
133336
131207
131275
133384
135199
135327
133498
131385
131448
133546
135332
135463
133662
131557
131618
133712
135470
135598
133824
131722
131779
133871
135605
135734
133985
131880
131935
134032
135742
135866
134141
132032
132083
134185
135874
135998
134294
132177
132227
134339
136007
136125
134442
132316
132361
134483
136133
136250
134586
132448
132492
134627
136258
136369
134724
132574
132614
134761
136377
136487
134858
132694
132732
134894
136493
136598
134985
132807
132842
135018
136604
136707
135108
132915
132948
135140
136712
136810
135224
133017
133046
135253
136814
136910
135336
133113
133140
135363
136913
137004
135441
133203
133228
135465
137006
137097
135542
133288
133311
135564
137097
137182
135636
133368
133388
135655
137182
137265
135726
133442
133461
135743
137263
137342
135810
133512
133528
135824
137340
137417
135890
133577
133592
135903
137413
137488
135964
133638
133650
135975
137483
137556
136036
133694
133705
136045
137550
137620
136102
133747
133756
136109
137613
137682
136166
133796
133804
136172
137673
137740
136225
133842
133848
136229
137731
137796
136282
133884
133890
136286
137786
137849
136335
133924
133928
136337
137839
137900
136387
133961
133965
136387
137889
137948
136434
133996
133998
136433
137936
137995
136481
134029
134030
136479
137982
138039
136523
134060
134060
136520
138025
138082
136565
134088
134088
136561
138067
138122
136603
134115
134114
136599
138106
138161
136641
134141
134139
136636
138144
138197
136676
134165
134162
136669
138181
138233
136710
134188
134184
136703
138215
138266
136741
134209
134205
136733
138248
138298
136772
134229
134225
136764
138280
138329
136801
134248
134243
136791
138310
138359
136829
134266
134261
136819
138339
138387
136855
134283
134277
136844
138367
138414
136880
134299
134293
136869
138393
138439
136904
134315
134308
136892
138419
138465
136927
134329
134322
136915
138443
138488
136948
134343
134335
136935
138466
138511
136970
134355
134348
136956
138489
138533
136989
134368
134359
136975
138510
138554
137008
134379
134371
136994
138531
138574
137026
134390
134381
137011
138551
138593
137044
134401
134392
137029
138569
138612
137060
134410
134401
137044
138588
138630
137076
134420
134410
137060
138605
138646
137091
134429
134419
137074
138622
138663
137106
134437
134427
137089
138638
138679
137119
134445
134434
137102
138654
138694
137133
134452
134442
137116
138669
138708
137145
134460
134449
137127
138683
138723
137158
134466
134455
137140
138697
138736
137169
134473
134461
137151
138710
138749
137180
134479
134467
137162
138723
138761
137190
134484
134473
137172
138735
138774
137201
134490
134478
137183
138747
138785
137211
134495
134483
137192
138758
138797
137221
134500
134488
137202
138769
138807
137229
134504
134492
137210
138780
138818
137239
134508
134496
137219
138790
138828
137246
134512
134500
137227
138800
138838
137255
134516
134503
137235
138810
138847
137262
134519
134506
137242
138819
138856
137270
134522
134509
137250
138828
138864
137276
134525
134511
137256
138836
138873
137283
134527
134514
137263
138844
138880
137290
134529
134515
137269
138852
138889
137295
134533
134519
137274
138861
138899
137301
134533
134519
137281
138871
138915
137312
134538
134524
137296
138890
138951
137338
134552
134539
137331
138936
139013
137383
134578
134586
137399
139037
139236
137529
134689
134874
137759
139529
139709
137936
135022
141747
143153
143613
143808
144759
145396
145692
145945
146836
147431
148044
148529
148903
149194
149406
149555
149657
149728
149779
149815
149842
149863
149878
149890
149899
149906
149910
149913
149915
149916
149916
149917
149927
149932
149936
149943
149950
149959
149971
149984
149999
150016
150034
150052
150067
150076
150078
150075
150070
150065
150061
150058
150054
150051
150047
150044
150040
150036
150032
150029
150025
150022
150019
150017
150015
150014
150013
150013
150013
150014
150016
150019
150022
150026
150030
150036
150041
150047
150052
150058
150064
150069
150073
150077
150080
150082
150083
150083
150082
150080
150078
150074
150070
150066
150061
150056
150050
150045
150039
150034
150028
150023
150018
150013
150008
150003
149999
149995
149991
149988
149985
149982
149979
149977
149975
149973
149971
149970
149968
149967
149966
149965
149965
149964
149964
149964
149964
149964
149965
149965
149966
149966
149967
149968
149969
149970
149971
149972
149974
149975
149976
149978
149979
149981
149983
149985
149987
149989
149991
149993
149995
149997
150000
150006
150016
150024
150027
150028
150032
150051
150062
150065
150062
150058
150054
150050
150047
150044
150042
150040
150038
150036
150035
150033
150032
150031
150030
150029
150028
150027
150026
150025
150024
150023
150022
150021
150020
150020
150019
150018
150017
150016
150016
150015
150014
150013
150012
150012
150011
150010
150009
150008
150007
150006
150006
150004
150003
150002
150001
149999
149997
149994
149992
149992
149997
150003
150010
150021
150031
150034
150033
150028
150024
150020
150016
150011
150007
150003
149999
149994
149990
149986
149982
149978
149974
149970
149966
149962
149959
149955
149951
149948
149944
149941
149937
149934
149931
149927
149924
149921
149918
149915
149912
149909
149905
149902
149899
149895
149892
149889
149887
149884
149882
149880
149877
149875
149871
149868
149864
149860
149856
149852
149849
149846
149844
149842
149840
149838
149836
149832
149828
149823
149816
149808
149800
149792
149784
149775
149767
149757
149746
149721
149684
149635
149582
149543
149532
149540
149551
149540
149556
149543
149554
149544
149556
149552
149566
149572
149583
149588
149595
149599
149603
149604
149604
149602
149599
149595
149591
149587
149584
149582
149582
149582
149584
149586
149590
149595
149600
149606
149612
149618
149623
149627
149629
149631
149630
149629
149626
149623
149620
149617
149616
149615
149615
149618
149620
149615
149617
149622
149625
149616
149605
149611
149612
149613
149612
149610
149606
149601
149607
149611
149610
149605
149598
149591
149579
149601
149616
149625
149624
149612
149610
149622
149618
149603
149591
149578
149600
149613
149607
149591
149587
149601
149594
149577
149565
149552
149574
149589
149582
149565
149563
149578
149573
149557
149544
149541
149557
149572
149569
149554
149556
149570
149570
149555
149541
149547
149561
149573
149576
149562
149569
149581
149585
149572
149556
149567
149580
149590
149593
149581
149587
149596
149596
149585
149573
149566
149589
149595
149591
149580
149583
149588
149580
149559
149562
149555
149565
149576
149561
149516
149529
149555
149538
149477
149555
149618
149530
149543
149525
149485
149559
149535
149531
149533
149721
149822
149623
149551
149541
149629
149711
149589
149614
149728
149903
149959
149788
149655
149694
149813
149862
149742
149781
149885
149993
150006
149919
149818
149841
149925
149946
149858
149863
149938
150006
150002
149954
149871
149875
149945
149959
149882
149887
149953
150003
150008
149967
149894
149900
149962
149975
149907
149911
149970
150013
150015
149981
149916
149918
149974
149983
149921
149922
149975
150014
150012
149983
149923
149923
149974
149982
149924
149926
149975
150011
150013
149983
149928
149930
149978
149987
149933
149936
149982
150016
150019
149990
149939
149942
149985
149993
149945
149946
149988
150020
150020
149994
149949
149949
149989
149995
149951
149952
149989
150020
150019
149995
149954
149955
149991
149996
149957
149958
149992
150020
150021
149998
149961
149962
149995
150000
149965
149966
149997
150022
150023
150002
149969
149970
149999
150004
149973
149974
150000
150023
150023
150005
149976
149977
150002
150006
149979
149980
150003
150023
150024
150008
149983
149984
150005
150009
149987
149988
150007
150024
150024
150011
149990
149992
150009
150012
149994
149996
150011
150024
150025
150014
149998
150000
150013
150016
150002
150004
150015
150025
150026
150018
150007
150009
150018
150020
150011
150013
150020
150026
150027
150022
150016
150018
150023
150024
150020
150022
150025
150027
150027
150027
150025
150027
150028
150030
150030
150032
150031
150025
150017
150024
150027
150029
150031
150032
150033
150034
150036
150037
150038
150039
150040
150040
150041
150042
150042
150042
150042
150042
150042
150044
150045
150045
150044
150042
150041
150042
150045
150048
150048
150045
150042
150040
150043
150048
150048
150039
150013
149967
149900
149816
149724
149643
149587
149568
149549
149538
149528
149518
149511
149510
149514
149523
149536
149550
149565
149545
149562
149581
149594
149603
149610
149610
149603
149593
149592
149604
149612
149613
149606
149594
149577
149554
149555
149580
149595
149608
149616
149619
149613
149600
149604
149617
149623
149627
149623
149612
149590
149565
149541
149531
149533
149514
149528
149512
149500
149485
149497
149493
149511
149520
149503
149491
149480
149474
149477
149491
149488
149474
149477
149490
149497
149490
149507
149483
149473
149491
149486
149523
149524
149533
149547
149565
149587
149608
149619
149629
149631
149633
149634
149627
149636
149639
149635
149632
149637
149637
149629
149617
149640
149643
149642
149639
149636
149628
149624
149624
149625
149622
149623
149622
149620
149616
149620
149620
149618
149624
149633
149618
149613
149616
149616
149612
149615
149623
149640
149645
149649
149650
149637
149630
149602
149591
149583
149580
149614
149619
149614
149621
149620
149627
149648
149648
149649
149647
149647
149641
149639
149630
149629
149621
149607
149614
149609
149609
149616
149622
149630
149634
149638
149641
149650
149651
149651
149647
149644
149649
149651
149646
149647
149653
149653
149651
149653
149656
149655
149654
149647
149650
149652
149658
149623
149620
149580
149589
149534
149560
149510
149550
149616
149556
149515
149508
149530
149561
149630
149565
149622
149713
149804
149713
149626
149703
149797
149884
149953
149874
149779
149683
149608
149663
149614
149665
149656
149637
149636
149675
149664
149673
149672
149666
149666
149661
149661
149657
149657
149661
149658
149663
149666
149669
149673
149676
149681
149686
149695
149684
149686
149697
149711
149702
149718
149699
149684
149697
149714
149711
149727
149734
149743
149725
149729
149710
149721
149684
149707
149714
149743
149733
149754
149746
149744
149739
149759
149751
149763
149765
149781
149776
149786
149771
149774
149757
149769
149767
149785
149782
149794
149790
149790
149813
149802
149805
149810
149811
149802
149769
149762
149848
149942
150010
150065
150037
149930
149697
149844
149883
149769
149827
149833
149828
149852
149895
149853
149852
149994
150005
150002
149923
150019
149871
149954
150017
149921
149868
149900
150060
150087
150031
149955
149874
150144
149944
150009
150139
150104
150031
149878
150117
149942
150206
150073
150110
150044
149981
150012
150056
150149
150190
150165
150078
150166
149935
149886
149663
149381
148410
148461
149315
149450
148823
148154
147721
148193
147861
148222
147975
148267
148124
147976
148207
148089
148308
148228
148121
148311
148215
148386
148303
148458
148409
148329
148464
148398
148511
148445
148573
148508
148624
148574
148696
148665
148598
148705
148655
148755
148697
148790
148739
148830
148775
148862
148815
148899
148849
148928
148885
148962
148914
148989
148945
149019
148971
149043
148999
149071
149017
149089
149042
149110
149036
149121
149187
149265
149182
149259
149159
149233
149142
149220
149111
149188
149091
149173
149059
149139
149036
149122
149001
149085
148977
149067
148940
149028
148913
149008
148872
148963
148841
148932
148784
148848
149025
149177
149135
149254
149053
149109
149206
149305
149164
149254
149359
149171
149217
149301
149394
149262
149337
149437
149265
149307
149374
149461
149341
149400
149494
149338
149367
149281
149188
149129
149196
149148
149221
149178
149238
149186
149261
149212
149274
149219
149289
149213
149296
149363
149427
149365
149439
149344
149407
149337
149414
149306
149375
149296
149379
149275
149357
149502
149435
149527
149458
149539
149473
149562
149454
149365
149300
149367
149316
149378
149332
149383
149327
149387
149322
149394
149439
149375
149428
149378
149444
149396
149448
149387
149453
149375
149451
149514
149566
149528
149596
149512
149564
149515
149589
149500
149556
149517
149447
149510
149452
149515
149440
149499
149442
149509
149439
149496
149563
149636
149565
149666
149544
149578
149588
149665
149558
149581
149585
149691
149602
149681
149592
149714
149604
149518
149445
149503
149449
149504
149446
149495
149416
149495
149553
149599
149528
149461
149517
149456
149506
149447
149512
149446
149496
149403
149499
149528
149466
149511
149451
149496
149424
149487
149423
149472
149375
149460
149535
149580
149494
149407
149476
149412
149458
149387
149457
149338
149421
149319
149429
149439
149352
149408
149329
149387
149331
149377
149281
149334
149220
149312
149241
149288
149185
149255
149102
149208
149124
149197
149049
149124
148902
149075
149215
149256
149115
149016
149081
148844
149003
148996
148726
148871
148563
148764
148581
148746
148601
148661
148226
148531
148379
148471
147979
148302
148240
147811
148120
147385
147873
147554
147938
147380
146653
147368
146695
145839
146963
145982
145277
143720
145046
143300
142170
141155
139584
139467
140108
140479
140504
140541
140480
140530
140445
140472
140354
140381
140247
140281
140138
140181
140031
140084
139930
139994
139838
139912
139756
139842
139687
139781
139627
139731
139579
139683
139533
139641
139496
139602
139463
139572
139441
139546
139418
139529
139409
139516
139399
139512
139402
139510
139403
139517
139416
139525
139427
139540
139448
139555
139465
139578
139493
139600
139516
139628
139549
139655
139577
139686
139612
139717
139644
139751
139682
139784
139716
139820
139755
139855
139791
139893
139831
139929
139868
139967
139908
140003
139945
140041
139985
140078
140021
140115
140060
140150
140095
140186
140133
140220
140167
140255
140203
140288
140236
140321
140270
140352
140301
140384
140333
140413
140362
140443
140393
140471
140421
140499
140450
140525
140476
140552
140503
140577
140527
140602
140553
140625
140576
140649
140601
140671
140622
140693
140645
140714
140665
140734
140687
140754
140705
140774
140726
140792
140743
140810
140763
140828
140779
140845
140797
140861
140813
140878
140830
140893
140844
140908
140860
140922
140874
140937
140889
140950
140902
140964
140916
140977
140928
140990
140942
141001
140953
141014
140966
141025
140976
141036
140988
141047
140998
141058
141010
141068
141019
141078
141030
141088
141039
141098
141049
141107
141057
141116
141068
141125
141076
141136
141087
141147
141098
141165
141122
141204
141166
141265
141224
141413
141603
143105
143015
143581
142728
142790
143268
142566
142651
142990
142497
142585
142914
142445
142538
142797
142438
142533
142824
142418
142513
142767
142416
142512
142793
142402
142498
142751
142401
142497
142778
142388
142484
142739
142388
142484
142766
142374
142471
142727
142373
142470
142754
142360
142457
142715
142359
142456
142742
142345
142443
142703
142344
142442
142730
142330
142428
142690
142329
142428
142717
142315
142414
142677
142314
142413
142705
142299
142399
142665
142298
142398
142692
142283
142383
142651
142281
142382
142679
142266
142367
142638
142264
142366
142666
142248
142351
142624
142247
142350
142653
142231
142334
142611
142229
142333
142640
142213
142317
142597
142211
142316
142627
142194
142300
142583
142193
142300
142614
142176
142284
142570
142174
142283
142601
142158
142267
142557
142156
142266
142589
142139
142250
142544
142138
142250
142578
142121
142234
142532
142120
142235
142567
142104
142219
142521
142103
142220
142557
142087
142204
142512
142087
142206
142549
142071
142191
142503
142071
142193
142542
142056
142179
142496
142057
142182
142537
142042
142169
142491
142045
142173
142533
142031
142160
142488
142034
142166
142532
142021
142155
142487
142026
142162
142534
142014
142152
142489
142021
142161
142538
142010
142152
142494
142019
142163
142545
142009
142155
142500
142020
142170
142555
142013
142164
142511
142026
142179
142567
142021
142176
142525
142036
142193
142582
142033
142192
142542
142050
142212
142600
142048
142212
142561
142070
142236
142621
142069
142237
142584
142093
142264
142644
142095
142268
142610
142121
142296
142671
142125
142303
142640
142154
142334
142701
142162
142344
142673
142193
142376
142735
142203
142390
142711
142236
142424
142772
142250
142441
142752
142284
142477
142813
142301
142497
142799
142334
142532
142858
142356
142555
142851
142387
142588
142909
142414
142613
142908
142441
142643
142964
142466
142665
142971
142483
142682
143023
142494
142689
143037
142486
142675
143080
142465
142647
143079
142405
142583
143127
142312
142483
143190
142163
142322
143221
141932
142053
143032
141651
141603
142547
141128
141041
143361
141247
142743
144957
143804
144811
145747
145914
146612
145934
146354
146797
146942
147686
147206
146843
146971
147571
147723
148665
147499
147925
147753
148062
148157
148132
148225
148311
148538
148490
148548
149345
148673
148608
148828
148685
148869
148799
148960
148836
148986
148937
149095
148960
149083
149083
149139
149244
149144
149187
149234
149351
149523
149275
149335
149247
149335
149307
149405
149314
149385
149360
149445
149372
149442
149414
149494
149420
149484
149460
149538
149470
149539
149495
149564
149502
149517
149594
149516
149563
149551
149634
149532
149576
149571
149646
149712
149615
149609
149538
149595
149558
149619
149558
149613
149577
149631
149588
149573
149632
149566
149604
149587
149648
149572
149610
149594
149653
149694
149609
149702
149604
149689
149595
149672
149770
149634
149727
149638
149673
149599
149759
149619
149676
149612
149794
149832
149713
149647
149804
149722
149726
149752
149798
149722
149703
149635
149627
149572
149618
149670
149707
149630
149685
149745
149795
149691
149676
149738
149792
149684
149679
149717
149787
149672
149629
149698
149605
149662
149602
149682
149584
149650
149574
149660
149547
149623
149528
149624
149490
149580
149461
149564
149407
149509
149361
149479
149298
149107
148848
148686
148809
148608
148711
148565
148650
148828
149013
148969
149212
148962
148787
148588
148730
148528
148670
148448
148568
148739
148479
148667
148379
148547
149025
148935
149084
148817
149037
149145
148877
148929
149100
149310
149639
149296
149597
149444
149064
148855
148593
148969
148658
149162
149562
149827
149691
149700
149695
149773
149806
150020
149741
149934
149972
149953
149913
150004
149901
149864
149603
149135
149370
149302
149610
149746
149755
149899
149852
149983
149817
149642
149356
149524
149413
149247
149429
149677
149567
149610
149718
149654
149749
149680
149767
149691
149778
149692
149784
149687
149817
149865
149817
149870
149815
149877
149813
149888
149805
149897
149791
149917
150032
150070
149988
150033
149963
149996
149937
149971
149922
149955
149912
149945
149905
149861
149816
149858
149814
149856
149814
149853
149837
149769
149736
149721
149823
149680
149670
149835
149837
149884
149850
149889
149920
149946
149917
149877
149837
149875
149832
149829
149779
149740
149560
149565
149679
149503
149638
149790
149603
149608
149589
149436
149611
149500
149552
149403
149576
149509
149336
149582
149397
149474
149304
149533
149413
149215
149357
149571
149545
149649
149704
149600
149576
149631
149667
149536
149814
149656
149566
149893
149493
149838
149426
149841
149653
149604
149459
149849
149323
149554
149511
149454
149035
149449
149069
149175
148952
149377
149038
148798
149292
148857
148914
148665
149012
148751
149953
149230
149183