/*--------------------------------*- C++ -*----------------------------------*\
| =========                 |                                                 |
| \\      /  F ield         | OpenFOAM: The Open Source CFD Toolbox           |
|  \\    /   O peration     | Version:  v2006                                 |
|   \\  /    A nd           | Website:  www.openfoam.com                      |
|    \\/     M anipulation  |                                                 |
\*---------------------------------------------------------------------------*/
FoamFile
{
    version     2.0;
    format      ascii;
    class       volScalarField;
    location    "0.054";
    object      T;
}
// * * * * * * * * * * * * * * * * * * * * * * * * * * * * * * * * * * * * * //

dimensions      [0 0 0 1 0 0 0];


internalField   nonuniform List<scalar> 
9148
(
298.086
298.086
298.086
298.086
298.086
298.087
298.089
298.095
298.103
298.112
298.122
298.132
298.143
298.154
298.165
298.177
298.19
298.203
298.217
298.232
298.246
298.262
298.278
298.294
298.311
298.328
298.345
298.363
298.381
298.399
298.417
298.435
298.454
298.472
298.491
298.509
298.527
298.546
298.564
298.582
298.599
298.616
298.633
298.65
298.666
298.682
298.697
298.712
298.727
298.74
298.753
298.766
298.778
298.789
298.8
298.81
298.82
298.829
298.837
298.843
298.847
298.848
298.848
298.848
298.848
298.848
298.849
298.851
298.855
298.863
298.872
298.913
298.921
298.872
298.858
298.859
298.875
298.935
298.947
298.879
298.86
298.862
298.885
298.957
298.964
298.891
298.866
298.871
298.898
298.971
298.976
298.904
298.875
298.88
298.91
298.981
298.985
298.916
298.885
298.89
298.921
298.989
298.992
298.927
298.895
298.9
298.932
298.995
298.999
298.938
298.906
298.911
298.942
299.001
299.004
298.948
298.917
298.922
298.952
299.006
299.01
298.958
298.928
298.933
298.963
299.012
299.016
298.969
298.939
298.945
298.973
299.019
299.023
298.98
298.951
298.957
298.984
299.026
299.031
298.991
298.964
298.969
298.996
299.034
299.039
299.003
298.977
298.982
299.007
299.041
299.047
299.014
298.99
298.995
299.019
299.049
299.055
299.026
299.003
299.009
299.031
299.059
299.066
299.039
299.018
299.024
299.045
299.07
299.078
299.054
299.034
299.041
299.061
299.084
299.093
299.071
299.052
299.06
299.078
299.098
299.107
299.088
299.07
299.078
299.095
299.112
299.12
299.105
299.089
299.096
299.111
299.125
299.132
299.121
299.107
299.114
299.127
299.137
299.146
299.137
299.125
299.133
299.145
299.153
299.164
299.157
299.145
299.156
299.166
299.173
299.186
299.18
299.17
299.182
299.191
299.197
299.212
299.207
299.197
299.21
299.218
299.222
299.235
299.234
299.226
299.239
299.244
299.244
299.255
299.258
299.253
299.264
299.267
299.262
299.272
299.28
299.278
299.289
299.289
299.28
299.293
299.302
299.303
299.315
299.314
299.305
299.322
299.332
299.332
299.349
299.348
299.34
299.36
299.369
299.37
299.39
299.388
299.38
299.399
299.41
299.412
299.432
299.429
299.417
299.432
299.448
299.453
299.471
299.463
299.445
299.455
299.478
299.488
299.503
299.49
299.466
299.48
299.504
299.517
299.534
299.52
299.499
299.524
299.54
299.551
299.577
299.566
299.545
299.556
299.579
299.592
299.623
299.61
299.595
299.599
299.607
299.627
299.647
299.742
300.034
300.17
300.071
299.749
299.997
300.132
300.162
300.176
300.132
300.068
300.052
300.129
300.189
300.232
300.168
300.075
300.152
300.215
300.257
300.267
300.229
300.203
300.191
300.228
300.287
300.274
300.203
300.174
300.186
300.2
300.268
300.181
300.176
300.188
300.21
300.184
300.159
300.161
300.197
300.214
300.213
300.202
300.163
300.162
300.2
300.199
300.195
300.203
300.176
300.185
300.198
300.176
300.163
300.196
300.196
300.218
300.192
300.142
300.128
300.187
300.241
300.244
300.173
300.119
300.124
300.158
300.231
300.193
300.154
300.138
300.15
300.158
300.173
300.165
300.154
300.15
300.147
300.146
300.157
300.137
300.134
300.143
300.139
300.126
300.117
300.111
300.124
300.135
300.125
300.117
300.108
300.104
300.105
300.11
300.09
300.087
300.092
300.076
300.068
300.07
300.052
300.05
300.059
300.05
300.044
300.046
300.046
300.045
300.049
300.051
300.048
300.048
300.054
300.055
300.058
300.07
300.066
300.063
300.072
300.077
300.081
300.092
300.087
300.08
300.089
300.099
300.106
300.119
300.109
300.096
300.101
300.119
300.133
300.144
300.126
300.102
300.103
300.13
300.153
300.158
300.133
300.103
300.102
300.135
300.162
300.167
300.14
300.104
300.105
300.144
300.169
300.171
300.149
300.11
300.082
300.118
300.199
300.196
300.146
300.077
300.023
300.005
299.999
299.995
299.991
299.992
299.999
300.01
300.024
300.042
300.061
300.077
300.09
300.099
300.084
300.07
300.072
300.072
300.082
300.085
300.069
300.339
300.043
300.063
299.934
300.336
300.046
300.106
300.228
300.158
300.158
300.183
300.196
300.191
300.171
300.156
300.181
300.162
300.234
300.233
300.203
300.193
300.237
300.194
300.229
300.164
300.255
300.185
300.178
300.19
300.172
300.174
300.183
300.154
300.132
300.134
300.227
300.191
300.164
300.094
300.055
300.062
300.206
300.125
300.093
300.041
300.014
300.106
300.19
300.387
299.988
299.984
299.97
300.091
300.196
300.206
299.937
299.965
299.965
300.018
300.028
300.06
299.827
299.953
299.915
299.911
300.055
299.975
300.041
299.93
299.95
299.993
299.95
299.965
299.938
299.949
299.942
299.944
300.032
299.941
300.012
299.947
299.958
299.971
299.93
299.968
299.941
299.951
299.946
299.937
299.915
300.001
299.884
299.941
299.93
299.92
299.988
299.935
299.932
299.929
299.925
299.925
299.931
299.927
299.921
299.923
299.919
299.917
299.922
299.92
299.916
299.919
299.919
299.917
299.924
299.938
299.924
299.924
299.929
299.934
299.958
299.967
299.945
299.938
299.947
299.955
299.967
299.973
299.943
299.945
299.835
300.139
299.894
299.949
299.942
299.954
299.961
299.954
299.953
299.961
299.963
299.965
299.965
299.966
299.963
299.955
299.977
299.968
299.995
299.951
299.918
299.949
299.956
299.939
299.898
299.887
299.864
299.903
299.864
299.858
299.726
299.76
299.647
299.6
299.613
299.646
299.304
299.265
299.437
298.843
299.344
298.85
298.464
298.46
298.654
297.441
297.706
297.97
297.37
297.09
297.094
298.005
297.553
297.656
297.751
297.9
298.19
298.448
297.988
297.819
298.166
298.367
298.641
298.765
298.598
298.438
298.46
298.661
298.949
299.013
298.867
298.69
298.638
298.779
299.057
299.073
298.952
298.833
298.728
298.901
299.017
298.987
299.065
298.835
298.984
298.751
299.335
299.064
299.007
298.869
298.93
299.026
299.097
299.025
298.996
298.89
299.006
299.031
299.051
299.063
299.115
299.029
298.851
299.214
299.047
298.99
299.199
298.999
298.945
299.112
299.029
299.082
299.116
299.043
298.981
299.051
299.067
299.067
299.079
299.025
299.056
299.004
299.109
299.121
298.875
299.146
299.086
298.844
299.329
299.032
298.956
299.046
299.014
299.027
299.164
299.085
299.02
299.006
299.012
299.054
299.1
299.077
298.987
298.972
298.992
299.03
299.105
299.063
298.955
298.924
298.936
298.969
299.093
299.014
298.998
298.932
299.056
298.588
299.069
299.103
298.833
298.91
298.873
298.828
298.812
298.967
298.801
298.79
298.844
298.806
298.847
298.899
298.834
298.818
298.817
298.818
298.891
298.954
298.886
298.838
298.793
298.813
298.922
298.975
298.857
298.815
298.745
298.778
298.913
298.948
298.836
298.775
298.681
298.727
298.865
298.835
298.758
298.678
298.602
298.643
298.729
298.718
298.662
298.599
298.551
298.581
298.657
298.641
298.597
298.547
298.532
298.554
298.632
298.664
298.605
298.555
298.531
298.562
298.648
298.65
298.597
298.547
298.517
298.548
298.625
298.661
298.55
298.536
298.44
298.483
298.602
298.601
298.466
298.463
298.226
298.459
298.589
298.331
298.761
298.358
298.05
298.842
298.226
298.233
298.362
298.319
298.387
298.366
298.271
298.336
298.306
298.262
298.275
298.323
298.331
298.315
298.258
298.217
298.229
298.267
298.323
298.283
298.192
298.155
298.162
298.197
298.253
298.217
298.14
298.107
298.115
298.16
298.22
298.139
298.075
298.054
298.048
298.127
298.143
298.073
297.935
298.086
298.094
298.025
298.208
298.115
297.735
298.153
297.865
297.909
298.186
298.039
297.882
297.809
297.795
297.831
297.928
297.943
297.85
297.822
297.717
297.741
297.877
297.888
297.774
297.73
297.638
297.68
297.809
297.809
297.701
297.659
297.586
297.594
297.673
297.789
297.654
297.603
297.623
297.48
297.796
297.715
297.497
297.448
297.408
297.484
297.658
297.551
297.432
297.377
297.401
297.442
297.578
297.488
297.345
297.301
297.318
297.364
297.501
297.435
297.295
297.234
297.245
297.311
297.413
297.269
297.15
297.2
297.205
297.215
297.345
297.331
297.072
297.182
297.01
297.053
297.26
297.266
297.058
296.968
296.914
296.98
297.094
297.124
296.976
296.941
296.828
296.886
297.031
297.056
296.901
296.851
296.75
296.791
296.938
296.96
296.793
296.754
296.597
296.85
296.84
296.865
296.666
296.597
296.573
296.634
296.704
296.686
296.508
296.498
296.481
296.578
296.679
296.593
296.416
296.378
296.393
296.479
296.593
296.489
296.311
296.275
296.274
296.369
296.501
296.377
296.203
296.167
296.161
296.257
296.375
296.318
296.097
296.138
295.97
296.04
296.321
296.249
296.014
295.892
295.837
295.908
296.058
296.1
295.882
295.833
295.732
295.805
295.974
296.015
295.798
295.726
295.593
295.667
295.849
295.885
295.661
295.597
295.47
295.562
295.752
295.783
295.551
295.472
295.376
295.437
295.632
295.559
295.265
295.213
295.219
295.322
295.571
295.385
295.136
295.069
295.07
295.187
295.408
295.224
294.994
294.938
294.901
295.014
295.223
295.079
294.822
294.742
294.753
294.869
295.098
294.883
294.639
294.586
294.594
294.702
294.927
294.795
294.565
294.466
294.248
294.286
294.607
294.598
294.336
294.209
294.06
294.136
294.404
294.425
294.183
294.047
293.868
293.933
294.21
294.224
293.966
293.843
293.627
293.699
293.965
293.947
293.691
293.574
293.372
293.467
293.746
293.769
293.507
293.376
293.172
293.229
293.55
293.559
293.273
293.141
292.91
292.978
293.298
293.276
292.969
292.829
292.586
292.686
293.032
293.039
292.731
292.589
292.361
292.419
292.78
292.807
292.475
292.299
292.043
292.108
292.491
292.423
292.093
291.941
291.678
291.774
292.199
292.21
291.868
291.644
291.538
291.529
291.942
291.803
291.247
291.153
290.964
291.231
291.74
291.15
290.715
290.617
290.593
290.692
291.001
290.73
290.453
290.367
290.132
290.327
290.739
290.543
290.302
290.038
289.603
289.731
289.999
290.021
289.614
289.516
289.093
289.234
289.723
289.736
289.226
289.03
288.538
288.659
289.218
289.083
288.498
288.273
287.815
287.779
288.215
288.235
287.776
287.758
287.269
287.363
287.859
287.847
287.262
287.089
286.348
286.354
287.027
286.624
286.155
285.987
285.747
285.813
286.348
286.157
285.68
285.035
284.92
285.551
285.745
284.67
283.983
284.107
283.808
283.989
284.653
283.606
283.38
283.184
282.448
282.291
284.09
281.916
281.834
281.693
280.937
281.177
281.819
281.115
280.758
280.468
279.391
279.264
280.164
279.302
278.46
278.595
277.716
278.069
278.966
277.026
276.586
277.045
275.976
275.83
276.746
274.558
274.376
274.777
274.191
274.2
275.329
273.8
273.6
273.931
273.86
273.529
274.377
275.856
274.323
274.354
275.974
276.726
279.493
282.454
278.995
278.507
281.51
282.728
286.579
288.637
285.137
283.72
285.197
286.859
290.095
290.761
287.973
286.189
287.183
289.111
291.58
291.963
289.866
287.931
288.728
290.727
292.547
292.761
291.231
289.302
289.968
291.882
293.133
293.259
292.205
290.437
291.001
292.693
293.523
293.62
292.901
291.369
291.834
293.275
293.841
293.918
293.424
292.124
292.51
293.701
294.087
294.136
293.803
292.735
293.044
294
294.252
294.279
294.065
293.204
293.442
294.205
294.356
294.373
294.244
293.557
293.728
294.345
294.438
294.454
294.37
293.806
293.917
294.445
294.512
294.523
294.461
293.969
294.042
294.52
294.57
294.574
294.527
294.076
294.13
294.564
294.598
294.591
294.553
294.138
294.172
294.573
294.605
294.595
294.55
294.16
294.182
294.558
294.599
294.588
294.528
294.157
294.17
294.524
294.584
294.565
294.489
294.137
294.144
294.479
294.558
294.529
294.437
294.106
294.108
294.423
294.519
294.485
294.381
294.074
294.068
294.363
294.473
294.433
294.313
294.038
294.023
294.296
294.418
294.372
294.244
293.994
293.976
294.227
294.355
294.306
294.175
293.943
293.923
294.156
294.288
294.238
294.104
293.893
293.874
294.087
294.22
294.17
294.036
293.845
293.827
294.021
294.152
294.102
293.972
293.8
293.786
293.957
294.084
294.034
293.909
293.755
293.743
293.896
294.016
293.968
293.85
293.713
293.702
293.837
293.95
293.902
293.792
293.669
293.66
293.78
293.886
293.841
293.737
293.628
293.62
293.727
293.825
293.781
293.685
293.587
293.579
293.675
293.767
293.725
293.635
293.548
293.541
293.627
293.712
293.671
293.588
293.51
293.503
293.58
293.659
293.62
293.543
293.473
293.466
293.535
293.608
293.572
293.5
293.437
293.43
293.493
293.561
293.525
293.459
293.402
293.396
293.452
293.515
293.481
293.419
293.368
293.362
293.413
293.472
293.44
293.382
293.334
293.329
293.376
293.431
293.401
293.346
293.302
293.296
293.341
293.393
293.365
293.313
293.272
293.266
293.308
293.357
293.331
293.281
293.242
293.237
293.276
293.323
293.299
293.251
293.213
293.208
293.246
293.292
293.268
293.221
293.186
293.18
293.217
293.261
293.239
293.193
293.159
293.154
293.19
293.233
293.211
293.166
293.132
293.128
293.163
293.205
293.185
293.141
293.107
293.103
293.138
293.18
293.16
293.116
293.083
293.078
293.113
293.155
293.137
293.093
293.06
293.055
293.09
293.132
293.114
293.07
293.037
293.032
293.067
293.109
293.092
293.048
293.015
293.011
293.045
293.087
293.07
293.026
292.994
292.99
293.024
293.066
293.05
293.006
292.973
292.969
293.003
293.045
293.029
292.986
292.953
292.95
292.983
293.025
293.01
292.967
292.934
292.931
292.964
293.006
292.992
292.948
292.916
292.912
292.946
292.987
292.974
292.93
292.898
292.895
292.928
292.969
292.956
292.913
292.88
292.877
292.911
292.952
292.939
292.896
292.863
292.861
292.895
292.935
292.923
292.88
292.847
292.844
292.879
292.919
292.907
292.864
292.831
292.829
292.863
292.903
292.891
292.848
292.816
292.813
292.848
292.887
292.875
292.833
292.801
292.798
292.833
292.872
292.86
292.818
292.786
292.783
292.818
292.857
292.845
292.804
292.771
292.769
292.804
292.842
292.831
292.789
292.757
292.755
292.79
292.827
292.817
292.775
292.743
292.741
292.776
292.814
292.803
292.762
292.729
292.727
292.763
292.8
292.789
292.748
292.715
292.714
292.749
292.787
292.776
292.735
292.702
292.7
292.736
292.773
292.763
292.722
292.688
292.688
292.723
292.76
292.75
292.709
292.676
292.674
292.711
292.747
292.737
292.696
292.662
292.663
292.698
292.735
292.724
292.684
292.65
292.649
292.686
292.722
292.711
292.671
292.637
292.638
292.673
292.71
292.699
292.659
292.625
292.624
292.661
292.697
292.687
292.647
292.612
292.614
292.649
292.685
292.674
292.635
292.6
292.6
292.637
292.673
292.662
292.623
292.588
292.59
292.625
292.661
292.651
292.611
292.576
292.577
292.614
292.649
292.639
292.6
292.564
292.566
292.602
292.638
292.627
292.588
292.553
292.554
292.591
292.626
292.616
292.577
292.541
292.543
292.579
292.615
292.604
292.566
292.53
292.531
292.568
292.603
292.593
292.554
292.518
292.521
292.557
292.592
292.582
292.543
292.507
292.508
292.546
292.581
292.57
292.532
292.495
292.498
292.534
292.569
292.559
292.521
292.484
292.486
292.523
292.558
292.548
292.509
292.473
292.476
292.512
292.547
292.536
292.498
292.461
292.463
292.501
292.535
292.525
292.487
292.45
292.453
292.489
292.524
292.514
292.475
292.439
292.44
292.478
292.513
292.503
292.464
292.427
292.43
292.467
292.502
292.491
292.453
292.416
292.418
292.456
292.49
292.48
292.442
292.404
292.408
292.445
292.48
292.47
292.431
292.394
292.396
292.434
292.469
292.46
292.421
292.383
292.385
292.425
292.458
292.45
292.412
292.373
292.374
292.414
292.449
292.443
292.402
292.364
292.364
292.406
292.441
292.437
292.395
292.355
292.358
292.397
292.435
292.431
292.387
292.346
292.344
292.388
292.429
292.422
292.381
292.329
292.276
292.357
292.402
292.363
292.327
292.246
292.247
292.313
292.333
292.154
291.594
291.317
291.229
290.793
290.414
290.143
290.023
289.736
289.554
289.222
288.949
288.727
288.54
288.393
288.285
288.21
288.161
288.128
288.106
288.091
288.081
288.074
288.068
288.065
288.062
288.06
288.058
288.057
288.057
288.056
288.056
288.056
288.056
288.055
288.054
288.053
288.053
288.052
288.051
288.05
288.05
288.049
288.049
288.048
288.048
288.047
288.045
288.044
288.043
288.044
288.048
288.055
288.064
288.076
288.091
288.109
288.13
288.154
288.181
288.211
288.246
288.284
288.328
288.377
288.431
288.492
288.56
288.636
288.72
288.812
288.915
289.027
289.15
289.284
289.43
289.588
289.758
289.939
290.132
290.335
290.549
290.771
291.002
291.239
291.482
291.728
291.976
292.226
292.475
292.722
292.966
293.206
293.442
293.671
293.894
294.11
294.319
294.52
294.714
294.899
295.077
295.247
295.409
295.564
295.711
295.852
295.985
296.112
296.232
296.346
296.454
296.556
296.653
296.745
296.832
296.915
296.993
297.066
297.136
297.202
297.264
297.323
297.379
297.431
297.481
297.528
297.572
297.613
297.653
297.69
297.725
297.757
297.788
297.817
297.844
297.869
297.892
297.914
297.935
297.954
297.971
297.987
298.002
298.015
298.028
298.039
298.048
298.057
298.064
298.071
298.076
298.08
298.083
298.085
298.085
298.086
298.086
298.086
298.086
298.088
298.092
298.098
298.106
298.115
298.125
298.136
298.147
298.158
298.171
298.184
298.197
298.211
298.226
298.241
298.257
298.273
298.29
298.307
298.324
298.342
298.359
298.378
298.396
298.414
298.433
298.452
298.471
298.489
298.508
298.526
298.545
298.563
298.581
298.599
298.617
298.634
298.651
298.667
298.683
298.699
298.714
298.729
298.743
298.756
298.769
298.782
298.793
298.804
298.815
298.824
298.833
298.84
298.845
298.848
298.849
298.849
298.849
298.849
298.85
298.852
298.855
298.857
298.86
298.863
298.867
298.87
298.875
298.879
298.884
298.888
298.893
298.898
298.904
298.909
298.915
298.921
298.927
298.934
298.94
298.947
298.954
298.96
298.967
298.975
298.982
298.99
298.998
299.007
299.016
299.025
299.035
299.045
299.055
299.065
299.074
299.084
299.094
299.105
299.115
299.126
299.138
299.152
299.165
299.18
299.195
299.21
299.225
299.24
299.254
299.268
299.281
299.295
299.309
299.326
299.343
299.364
299.385
299.407
299.429
299.451
299.471
299.491
299.508
299.525
299.541
299.559
299.58
299.602
299.627
299.644
299.649
299.662
299.698
299.774
299.826
299.86
299.947
300.166
300.183
300.161
300.184
300.19
300.216
300.211
300.21
300.188
300.182
300.156
300.138
300.106
300.089
300.085
300.097
300.118
300.143
300.15
300.153
300.154
300.154
300.15
300.14
300.123
300.102
300.08
300.06
300.051
300.049
300.049
300.053
300.058
300.064
300.069
300.073
300.077
300.078
300.079
300.079
300.08
300.081
300.082
300.081
300.115
300.182
300.159
300.109
300.099
300.138
300.109
300.083
300.079
300.102
300.11
300.131
300.148
300.173
300.119
300.105
300.098
300.073
300.064
300.06
300.031
300.048
300.06
300.084
300.091
300.094
300.087
300.074
300.069
300.08
300.071
300.067
300.063
300.066
300.08
300.07
300.062
300.06
300.056
300.058
300.055
300.053
300.05
300.053
300.066
300.072
300.052
300.049
300.051
300.059
300.065
300.057
300.072
300.084
300.092
300.135
300.101
300.092
300.115
300.129
300.147
300.136
300.154
300.168
300.175
300.19
300.176
300.165
300.17
300.181
300.176
300.168
300.164
300.17
300.179
300.155
300.159
300.156
300.145
300.146
300.123
300.119
300.098
300.104
300.121
300.123
300.091
300.086
300.09
300.102
300.108
300.104
300.135
300.144
300.143
300.156
300.147
300.149
300.171
300.182
300.173
300.177
300.2
300.208
300.102
299.92
300.188
300.202
300.216
300.195
300.127
300.197
300.179
300.036
299.758
299.687
299.831
300.117
300.036
299.789
299.717
299.837
299.765
299.721
299.668
299.65
299.701
299.739
299.717
299.683
299.669
299.684
299.666
299.656
299.624
299.6
299.649
299.657
299.646
299.632
299.619
299.637
299.614
299.594
299.567
299.53
299.577
299.593
299.57
299.555
299.539
299.553
299.533
299.519
299.497
299.465
299.504
299.517
299.498
299.484
299.467
299.481
299.459
299.445
299.43
299.391
299.425
299.439
299.416
299.402
299.382
299.395
299.372
299.359
299.349
299.309
299.34
299.352
299.331
299.319
299.302
299.314
299.297
299.285
299.273
299.241
299.269
299.282
299.267
299.254
299.24
299.253
299.238
299.225
299.212
299.183
299.21
299.224
299.209
299.196
299.181
299.194
299.179
299.166
299.155
299.127
299.151
299.164
299.149
299.137
299.123
299.135
299.122
299.11
299.1
299.075
299.098
299.11
299.098
299.086
299.075
299.087
299.077
299.064
299.053
299.032
299.054
299.066
299.056
299.044
299.034
299.046
299.037
299.024
299.013
298.995
299.014
299.026
299.017
299.005
298.995
299.007
298.998
298.987
298.977
298.96
298.978
298.989
298.981
298.97
298.961
298.972
298.965
298.954
298.945
298.931
298.946
298.957
298.95
298.94
298.933
298.943
298.937
298.927
298.918
298.907
298.92
298.93
298.924
298.914
298.908
298.917
298.912
298.903
298.897
298.887
298.898
298.906
298.9
298.893
298.888
298.895
298.89
298.883
298.879
298.871
298.879
298.885
298.881
298.875
298.871
298.876
298.873
298.868
298.865
298.859
298.864
298.869
298.865
298.861
298.859
298.862
298.859
298.856
298.855
298.852
298.854
298.857
298.855
298.853
298.851
298.853
298.851
298.85
298.85
298.85
298.851
298.854
298.858
298.862
298.868
298.875
298.882
298.891
298.9
298.911
298.923
298.936
298.951
298.967
298.984
299.001
299.02
299.04
299.062
299.085
299.111
299.137
299.164
299.192
299.22
299.251
299.286
299.323
299.362
299.399
299.432
299.462
299.492
299.525
299.556
299.583
299.608
299.627
299.639
299.659
299.707
299.801
299.938
300.073
300.125
300.127
300.141
300.17
300.189
300.181
300.155
300.126
300.104
300.091
300.089
300.089
300.106
300.095
300.079
300.061
300.045
300.024
300.023
300.045
300.06
300.064
300.047
300.023
300.023
300.046
300.06
300.081
300.102
300.098
300.074
300.061
300.049
300.029
300.035
300.051
300.059
300.06
300.056
300.044
300.056
300.062
300.06
300.066
300.083
300.1
300.118
300.118
300.125
300.11
300.115
300.126
300.134
300.128
300.126
300.124
300.106
300.11
300.115
300.129
300.129
300.138
300.14
300.155
300.142
300.144
300.169
300.169
300.138
300.1
300.117
300.124
300.102
300.112
300.084
300.089
300.085
300.078
300.073
300.063
300.055
300.06
300.067
300.067
300.08
300.073
300.059
300.05
300.072
300.089
300.1
300.081
300.053
300.039
300.039
300.027
300.026
300.035
300.048
300.085
300.109
300.119
300.084
300.096
300.113
300.112
300.12
300.136
300.156
300.151
300.16
300.167
300.117
300.06
300.141
300.171
300.184
300.195
300.195
300.103
300.065
300.034
300.02
300.012
300.007
300.019
300.017
300.039
300.039
300.041
300.042
300.002
299.998
300.005
300.004
300.009
300.009
299.992
300
299.997
300
300.009
300.008
300.009
300.02
300.029
300.05
300.099
300.103
300.063
300.046
300.018
300.017
300.006
299.995
299.999
299.975
299.989
299.985
299.978
299.972
299.982
299.972
299.977
299.987
299.984
299.973
299.971
299.958
299.958
299.96
299.97
299.971
299.982
299.976
299.974
299.964
299.99
299.99
300.035
300.029
300.073
300.059
300.091
300.073
300.021
300.073
300.117
300.145
300.123
300.08
300.002
300.091
300.023
299.873
299.751
299.882
300.004
299.913
299.773
299.664
299.598
299.686
299.817
299.954
300.024
299.998
300.028
299.994
299.989
299.988
299.983
299.955
299.96
299.945
299.945
299.952
299.954
299.962
299.962
299.966
299.965
299.959
299.96
299.957
299.954
299.955
299.947
299.943
299.94
299.934
299.93
299.939
299.94
299.936
299.926
299.929
299.927
299.939
299.959
299.963
299.942
299.938
299.927
299.93
299.933
299.944
299.949
299.971
299.977
299.995
299.981
299.963
299.968
299.978
299.971
299.967
299.961
299.953
299.944
299.938
299.945
299.959
299.959
299.967
299.96
299.967
299.971
299.975
299.972
299.969
299.971
299.972
299.97
299.968
299.972
299.957
299.956
299.956
299.953
299.95
299.924
299.924
299.909
299.769
299.622
299.523
299.424
299.485
299.648
299.943
299.863
299.788
299.937
299.91
299.91
299.909
299.827
299.809
299.772
299.744
299.514
299.54
299.545
299.611
299.468
299.58
299.508
299.341
299.452
299.661
299.795
299.127
299.093
299.149
299.363
299.308
299.109
299.161
298.856
298.802
298.458
298.406
298.175
298.37
298.723
298.756
298.957
299.092
299.306
299.414
299.45
299.327
299.248
298.971
298.662
298.681
298.391
298.429
298.118
297.5
297.499
297.549
297.666
297.675
297.784
297.808
298.029
298.352
298.261
298.563
298.424
298.704
298.588
298.697
298.854
298.745
298.883
298.804
298.89
298.986
298.917
298.999
298.897
298.993
298.9
298.973
299.003
298.948
298.985
298.932
298.984
298.921
298.97
298.901
298.921
298.851
298.854
298.865
298.824
298.784
298.803
298.816
298.801
298.817
298.789
298.811
298.752
298.749
298.704
298.696
298.651
298.616
298.596
298.574
298.559
298.549
298.536
298.547
298.523
298.53
298.47
298.491
298.434
298.437
298.369
298.411
298.311
298.312
298.254
298.334
298.292
298.385
298.36
298.443
298.399
298.488
298.444
298.521
298.474
298.551
298.52
298.596
298.564
298.645
298.611
298.691
298.648
298.723
298.676
298.755
298.692
298.762
298.707
298.778
298.728
298.798
298.784
298.695
298.574
298.61
298.523
298.666
298.623
298.557
298.471
298.592
298.51
298.42
298.572
298.524
298.445
298.357
298.436
298.37
298.278
298.409
298.36
298.294
298.204
298.269
298.213
298.12
298.234
298.168
298.202
298.257
298.273
298.213
298.237
298.155
298.169
298.096
298.12
298.034
298.057
297.978
297.987
297.921
297.92
297.876
297.856
297.814
297.902
297.86
297.954
297.928
298.002
297.97
298.067
298.036
298.105
298.077
298.18
298.141
298.032
298.026
297.939
297.918
297.827
297.8
297.723
297.754
297.791
297.807
297.717
297.73
297.643
297.65
297.567
297.588
297.508
297.506
297.449
297.382
297.395
297.308
297.316
297.238
297.238
297.153
297.155
297.091
297.069
297.007
297.009
297.007
297.1
297.088
297.164
297.167
297.24
297.234
297.308
297.306
297.387
297.44
297.444
297.504
297.508
297.57
297.573
297.643
297.638
297.701
297.685
297.629
297.625
297.578
297.502
297.571
297.502
297.454
297.361
297.445
297.374
297.31
297.231
297.182
297.072
297.019
296.914
296.924
296.928
296.932
296.837
296.827
296.751
296.755
296.654
296.657
296.564
296.592
296.52
296.487
296.481
296.405
296.389
296.292
296.272
296.185
296.175
296.063
296.044
295.963
295.89
295.848
295.751
295.727
295.619
295.597
295.507
295.47
295.365
295.339
295.229
295.263
295.149
295.111
295.071
294.985
294.933
294.809
294.748
294.624
294.611
294.458
294.452
294.244
294.124
294.059
293.922
293.877
293.719
293.629
293.481
293.38
293.264
293.176
293.043
292.916
292.757
292.624
292.48
292.351
292.215
292.078
291.842
291.696
291.525
291.473
291.21
291.358
291.233
291.012
290.777
290.587
290.354
290.18
289.965
289.731
289.472
289.082
289.045
288.629
288.478
287.886
287.862
287.284
287.269
286.564
286.575
285.767
285.764
285.189
284.258
284.316
283.341
283.345
282.184
282.086
281.041
280.16
279.836
278.894
277.703
277.584
276.217
275.364
274.478
275.418
274.81
275.419
276.453
278.378
280.731
282.511
283.885
284.661
285.524
286.087
286.739
287.163
287.668
288.029
288.448
288.767
289.113
289.396
289.682
289.939
290.182
290.414
290.616
290.826
290.998
291.19
291.335
291.504
291.624
291.774
291.87
292.011
292.096
292.23
292.301
292.426
292.479
292.595
292.631
292.738
292.766
292.869
292.892
292.982
292.995
293.072
293.08
293.138
293.146
293.193
293.202
293.237
293.249
293.275
293.29
293.3
293.317
293.316
293.33
293.32
293.334
293.321
293.333
293.315
293.327
293.306
293.318
293.293
293.305
293.278
293.29
293.26
293.273
293.242
293.254
293.221
293.234
293.2
293.213
293.177
293.191
293.155
293.168
293.131
293.146
293.109
293.123
293.085
293.101
293.063
293.078
293.04
293.056
293.018
293.033
292.995
293.012
292.975
292.99
292.953
292.97
292.933
292.949
292.912
292.929
292.893
292.909
292.873
292.89
292.855
292.871
292.836
292.852
292.818
292.834
292.8
292.816
292.783
292.799
292.765
292.782
292.749
292.765
292.732
292.748
292.717
292.732
292.701
292.717
292.686
292.701
292.67
292.686
292.656
292.671
292.641
292.656
292.627
292.642
292.612
292.627
292.599
292.613
292.584
292.599
292.571
292.585
292.557
292.571
292.544
292.558
292.53
292.545
292.518
292.532
292.504
292.519
292.492
292.506
292.479
292.493
292.467
292.481
292.454
292.468
292.443
292.456
292.43
292.444
292.419
292.432
292.406
292.42
292.395
292.408
292.382
292.396
292.371
292.384
292.359
292.372
292.347
292.36
292.335
292.348
292.324
292.336
292.311
292.324
292.3
292.313
292.288
292.301
292.277
292.29
292.265
292.279
292.255
292.268
292.243
292.256
292.237
292.23
292.234
292.208
292.179
291.631
291.652
291.336
291.778
291.732
291.476
291.841
291.809
291.556
291.885
291.845
291.612
291.911
291.87
291.644
291.929
291.884
291.661
291.943
291.899
291.678
291.955
291.909
291.683
291.969
291.923
291.707
291.978
291.932
291.702
291.993
291.946
291.731
292.001
291.955
291.722
292.016
291.969
291.751
292.024
291.978
291.741
292.039
291.991
291.771
292.046
292
291.76
292.062
292.013
291.79
292.069
292.022
291.778
292.084
292.035
291.809
292.091
292.043
291.797
292.107
292.057
291.827
292.114
292.065
291.815
292.129
292.079
291.845
292.137
292.087
291.832
292.152
292.1
291.862
292.159
292.109
291.85
292.175
292.122
291.88
292.182
292.131
291.867
292.198
292.144
291.896
292.206
292.153
291.883
292.221
292.166
291.912
292.229
292.175
291.899
292.244
292.188
291.927
292.252
292.196
291.915
292.268
292.21
291.942
292.275
292.217
291.929
292.29
292.23
291.954
292.298
292.238
291.942
292.312
292.251
291.966
292.32
292.258
291.953
292.334
292.27
291.975
292.342
292.277
291.964
292.355
292.289
291.983
292.363
292.295
291.972
292.376
292.306
291.989
292.383
292.312
291.979
292.395
292.322
291.993
292.401
292.326
291.983
292.412
292.335
291.994
292.417
292.338
291.983
292.426
292.345
291.991
292.429
292.346
291.979
292.437
292.351
291.985
292.438
292.349
291.971
292.443
292.351
291.974
292.441
292.346
291.957
292.443
292.345
291.958
292.437
292.336
291.937
292.435
292.331
291.935
292.426
292.317
291.909
292.42
292.306
291.904
292.405
292.287
291.872
292.393
292.27
291.863
292.372
292.244
291.826
292.354
292.221
291.812
292.326
292.188
291.77
292.301
292.158
291.751
292.265
292.117
291.704
292.232
292.079
291.683
292.186
292.029
291.625
292.145
291.981
291.599
292.089
291.922
291.53
292.038
291.863
291.497
291.971
291.793
291.418
291.908
291.724
291.376
291.83
291.643
291.286