/*--------------------------------*- C++ -*----------------------------------*\
| =========                 |                                                 |
| \\      /  F ield         | OpenFOAM: The Open Source CFD Toolbox           |
|  \\    /   O peration     | Version:  v2006                                 |
|   \\  /    A nd           | Website:  www.openfoam.com                      |
|    \\/     M anipulation  |                                                 |
\*---------------------------------------------------------------------------*/
FoamFile
{
    version     2.0;
    format      ascii;
    class       volScalarField;
    location    "0.055";
    object      alphat;
}
// * * * * * * * * * * * * * * * * * * * * * * * * * * * * * * * * * * * * * //

dimensions      [1 -1 -1 0 0 0 0];


internalField   nonuniform List<scalar> 
16277
(
45.6089
37.4486
89.5697
26.0786
37.2674
17.7924
6.59391
2.62127
1.40802
0.952467
0.749549
0.646134
0.584535
0.539917
0.502296
0.468393
0.437516
0.409736
0.385092
0.363413
0.344368
0.327559
0.312603
0.299178
0.287027
0.275952
0.265805
0.25647
0.247853
0.239881
0.232488
0.225622
0.219235
0.213289
0.207748
0.202582
0.197766
0.193277
0.189095
0.185201
0.181579
0.178216
0.175099
0.172218
0.169562
0.167124
0.164896
0.162874
0.161052
0.159427
0.157996
0.15676
0.155717
0.154867
0.154212
0.153757
0.153506
0.153466
0.153646
0.154047
0.154684
0.15557
0.156721
0.158154
0.159893
0.161961
0.164391
0.16722
0.170494
0.174276
0.178644
0.183706
0.189598
0.196478
0.204506
0.213788
0.224332
0.236057
0.24907
0.26451
0.286372
0.325993
0.412497
0.621746
1.15808
2.43525
4.30098
4.59989
2.72538
1.8004
0.886246
0.404039
0.219675
0.103641
0.0245576
0.00441852
0.0001464
0.000127054
0.00207673
0.00956445
0.00527019
0.00134568
0.00011128
9.96371e-05
0.00122689
0.0044318
0.00353619
0.00105454
9.2069e-05
8.61342e-05
0.00102197
0.00335344
0.00290156
0.000920532
8.108e-05
7.76728e-05
0.000904695
0.00282631
0.00257242
0.000843071
7.43144e-05
7.24985e-05
0.00084815
0.00254624
0.00238181
0.000803039
7.02801e-05
6.90876e-05
0.000810247
0.00236722
0.00224241
0.000773924
6.7451e-05
6.66267e-05
0.000781078
0.00223588
0.00213272
0.000750269
6.53481e-05
6.47502e-05
0.000757219
0.0021307
0.00204133
0.000730109
6.3712e-05
6.32627e-05
0.000737035
0.00204219
0.00196266
0.000712413
6.23849e-05
6.20308e-05
0.000719367
0.00196543
0.00189328
0.00069644
6.12597e-05
6.09713e-05
0.000703314
0.00189731
0.00183098
0.000681712
6.02783e-05
6.0036e-05
0.000688502
0.00183591
0.0017744
0.00066801
5.93999e-05
5.91901e-05
0.000674729
0.00178
0.00172256
0.000655202
5.85971e-05
5.84111e-05
0.000661862
0.00172874
0.00167471
0.000643181
5.7852e-05
5.76842e-05
0.000649777
0.00168141
0.00163039
0.000631843
5.71521e-05
5.69984e-05
0.000638373
0.00163754
0.00158921
0.000621111
5.64884e-05
5.63459e-05
0.000627577
0.00159675
0.00155086
0.000610928
5.58543e-05
5.57207e-05
0.000617344
0.00155876
0.0015151
0.000601272
5.52449e-05
5.51189e-05
0.00060764
0.00152328
0.00148163
0.0005921
5.46566e-05
5.45373e-05
0.000598417
0.00149002
0.00145017
0.000583359
5.40866e-05
5.39731e-05
0.000589621
0.00145872
0.00142048
0.000575002
5.35319e-05
5.34233e-05
0.000581203
0.00142913
0.00139234
0.00056698
5.299e-05
5.28854e-05
0.000573116
0.00140106
0.00136558
0.000559247
5.24583e-05
5.23569e-05
0.000565312
0.00137432
0.00134002
0.00055176
5.19343e-05
5.18354e-05
0.000557747
0.00134876
0.00131552
0.000544476
5.14157e-05
5.13186e-05
0.000550382
0.00132422
0.00129196
0.000537363
5.09005e-05
5.08044e-05
0.000543183
0.00130061
0.00126922
0.00053039
5.03864e-05
5.02907e-05
0.000536121
0.0012778
0.00124723
0.00052353
4.98716e-05
4.97757e-05
0.000529172
0.00125571
0.00122588
0.000516764
4.93542e-05
4.92576e-05
0.000522314
0.00123428
0.00120514
0.000510073
4.88326e-05
4.87349e-05
0.000515534
0.00121344
0.00118495
0.000503448
4.83053e-05
4.8206e-05
0.000508823
0.00119316
0.00116529
0.000496881
4.77708e-05
4.767e-05
0.00050219
0.00117341
0.00114613
0.000490378
4.72281e-05
4.71257e-05
0.000495676
0.00115417
0.00112746
0.000483959
4.66767e-05
4.65728e-05
0.00048923
0.00113545
0.0011093
0.000477602
4.61159e-05
4.60105e-05
0.000482867
0.00111724
0.00109163
0.000471328
4.55451e-05
4.54384e-05
0.000476609
0.00109955
0.0010745
0.000465165
4.49644e-05
4.48567e-05
0.000470489
0.00108244
0.00105796
0.000459149
4.43742e-05
4.42662e-05
0.000464549
0.00106597
0.00104209
0.000453328
4.37756e-05
4.36685e-05
0.000458849
0.00105037
0.00102705
0.000447773
4.31709e-05
4.30659e-05
0.000453468
0.0010358
0.001013
0.00044257
4.2563e-05
4.24622e-05
0.000448493
0.00102226
0.00100004
0.000437811
4.19562e-05
4.18621e-05
0.000444029
0.00100999
0.000988433
0.000433609
4.13559e-05
4.12717e-05
0.000440204
0.000999275
0.00097848
0.000430107
4.07688e-05
4.06993e-05
0.000437166
0.000990421
0.000970514
0.000427483
4.0203e-05
4.01563e-05
0.000434986
0.000983772
0.000964924
0.000425862
3.96763e-05
3.96455e-05
0.00043349
0.000979578
0.000961825
0.000424851
3.92094e-05
3.91832e-05
0.000432715
0.000978327
0.000961697
0.000424685
3.88011e-05
3.87786e-05
0.000432783
0.000980041
0.000964499
0.000425426
3.84852e-05
3.84466e-05
0.000433665
0.000984532
0.00097012
0.000427055
3.82584e-05
3.82077e-05
0.000435242
0.000991417
0.000978027
0.000429157
3.80405e-05
3.80634e-05
0.000437209
0.00100051
0.000988102
0.000431378
3.78987e-05
3.79843e-05
0.000439145
0.00101146
0.000999856
0.000433631
3.78381e-05
3.79997e-05
0.000440764
0.00102299
0.00101182
0.000435576
3.78784e-05
3.80927e-05
0.000442092
0.00103402
0.00102307
0.000436977
3.79963e-05
3.82516e-05
0.000443357
0.00104407
0.00103332
0.000438087
3.81806e-05
3.84722e-05
0.000444358
0.00105291
0.0010424
0.000439104
3.84256e-05
3.87461e-05
0.000445259
0.00106044
0.00105013
0.00043965
3.87201e-05
3.90579e-05
0.00044592
0.0010668
0.00105628
0.000439993
3.90509e-05
3.93971e-05
0.000446355
0.00107174
0.00106056
0.000440155
3.94063e-05
3.97518e-05
0.000446562
0.00107589
0.00106351
0.000440195
3.97744e-05
4.01106e-05
0.000446627
0.00107838
0.00106481
0.000439895
4.01438e-05
4.04639e-05
0.000446555
0.00107914
0.00106359
0.000439137
4.05047e-05
4.08021e-05
0.00044583
0.00107772
0.00106103
0.000438153
4.08451e-05
4.11133e-05
0.000444862
0.00107488
0.00105742
0.000437059
4.11554e-05
4.13907e-05
0.000443755
0.00107083
0.00105281
0.000435931
4.14294e-05
4.16303e-05
0.000442547
0.00106564
0.0010473
0.000434813
4.16643e-05
4.18313e-05
0.000441307
0.00105948
0.00104107
0.000433733
4.18589e-05
4.19934e-05
0.000440063
0.00105257
0.00103422
0.000432672
4.2013e-05
4.21175e-05
0.000438803
0.00104502
0.00102691
0.000431632
4.21307e-05
4.2205e-05
0.000437538
0.00103702
0.00101915
0.000430595
4.22155e-05
4.22662e-05
0.000436259
0.00102882
0.00101124
0.000429535
4.2274e-05
4.23047e-05
0.000434953
0.00102052
0.00100326
0.000428441
4.23094e-05
4.23271e-05
0.00043363
0.00101229
0.000995211
0.000427223
4.23217e-05
4.23321e-05
0.000432252
0.00100407
0.000987108
0.000425867
4.23083e-05
4.23177e-05
0.000430836
0.000995803
0.00097901
0.000424508
4.22841e-05
4.22911e-05
0.000429418
0.000987556
0.000970929
0.000423109
4.2248e-05
4.22527e-05
0.000427947
0.000979333
0.000962882
0.000421646
4.22019e-05
4.22047e-05
0.000426414
0.000971152
0.000954799
0.000420128
4.21465e-05
4.21477e-05
0.000424828
0.000962984
0.000946666
0.000418519
4.20832e-05
4.20824e-05
0.000423135
0.000954789
0.000938576
0.000416873
4.20177e-05
4.20161e-05
0.00042144
0.00094665
0.000930523
0.00041516
4.19478e-05
4.19425e-05
0.000419687
0.000938579
0.000922606
0.000413364
4.18484e-05
4.18793e-05
0.000417934
0.000930693
0.000914126
0.000411566
4.17455e-05
4.17971e-05
0.00041575
0.000923203
0.000906912
0.000408614
4.15921e-05
4.1845e-05
0.000415955
0.000920596
0.00090929
0.000415386
4.17386e-05
4.24205e-05
0.000416114
0.000919387
0.000962979
0.000437577
4.27351e-05
4.55285e-05
0.000410359
0.000936218
0.00142969
0.000596571
5.1357e-05
5.54211e-05
0.000309283
0.000709975
0.00175152
0.00401382
0.00750353
0.0106977
0.0128833
0.0169342
0.0195204
0.0218412
0.0231478
0.0237728
0.0235972
0.0225474
0.0210528
0.0186555
0.0163052
0.0127418
0.0111332
0.00810108
0.00606102
0.00411673
0.00234005
0.00107433
0.000391501
0.000162982
3.14238e-05
2.04948e-05
0.000151281
0.000355034
0.000335567
0.000143349
1.97097e-05
1.89326e-05
0.000138046
0.000317793
0.000319028
0.000136118
1.87244e-05
1.86028e-05
0.000135411
0.000313944
0.00031403
0.000134109
1.84233e-05
1.84086e-05
0.000134034
0.000313718
0.000314633
0.000134087
1.84345e-05
1.8438e-05
0.000134273
0.000315279
0.00031577
0.000134489
1.84672e-05
1.84814e-05
0.000134712
0.00031673
0.000317177
0.00013494
1.84965e-05
1.85271e-05
0.000135188
0.00031819
0.000318731
0.000135425
1.85184e-05
1.85497e-05
0.000135723
0.000319759
0.000320319
0.000135918
1.85641e-05
1.85979e-05
0.000136213
0.000321384
0.000321884
0.000136339
1.85995e-05
1.86069e-05
0.000136762
0.000322987
0.000323518
0.000136867
1.86471e-05
1.86546e-05
0.000137268
0.00032467
0.000325217
0.000137436
1.8672e-05
1.86793e-05
0.000137852
0.000326453
0.000327027
0.00013802
1.87233e-05
1.87316e-05
0.000138451
0.000328295
0.000328885
0.000138649
1.87525e-05
1.87602e-05
0.000139065
0.000330158
0.000330746
0.000139228
1.88044e-05
1.88133e-05
0.000139656
0.000332035
0.000332638
0.00013986
1.88332e-05
1.88393e-05
0.000140273
0.000333918
0.00033451
0.000140461
1.88845e-05
1.88924e-05
0.000140899
0.000335826
0.000336447
0.000141121
1.89134e-05
1.89222e-05
0.000141563
0.000337816
0.000338448
0.000141824
1.89551e-05
1.89921e-05
0.000142205
0.000339837
0.000340484
0.000142466
1.8998e-05
1.90101e-05
0.000143006
0.000341927
0.000342596
0.000143261
1.90447e-05
1.90831e-05
0.00014364
0.000344033
0.000344705
0.000143868
1.90892e-05
1.91014e-05
0.00014441
0.000346139
0.000346798
0.000144676
1.91331e-05
1.91726e-05
0.000145129
0.000348265
0.000348953
0.000145396
1.91786e-05
1.91931e-05
0.000145972
0.000350458
0.000351145
0.000146214
1.92285e-05
1.92667e-05
0.000146627
0.000352603
0.000353264
0.000146868
1.92713e-05
1.92837e-05
0.000147462
0.000354713
0.00035538
0.000147723
1.93172e-05
1.93561e-05
0.000148148
0.000356821
0.000357466
0.000148371
1.93611e-05
1.93725e-05
0.000148935
0.00035888
0.000359475
0.000149147
1.94041e-05
1.94415e-05
0.000149533
0.000360815
0.000361362
0.000149697
1.94429e-05
1.94524e-05
0.000150209
0.000362677
0.000363175
0.000150351
1.94806e-05
1.95141e-05
0.000150674
0.000364367
0.000364849
0.000150774
1.95118e-05
1.95168e-05
0.00015119
0.000365961
0.000366336
0.000151133
1.95548e-05
1.95544e-05
0.000151393
0.000367314
0.000367625
0.000151334
1.95608e-05
1.95553e-05
0.000151504
0.000368425
0.000368611
0.000151327
1.95872e-05
1.95766e-05
0.000151318
0.000369101
0.000369155
0.000151001
1.95739e-05
1.95548e-05
0.000150822
0.000369387
0.000369253
0.000150336
1.95598e-05
1.95621e-05
0.000149822
0.000369284
0.000368888
0.000149178
1.95321e-05
1.95004e-05
0.000148672
0.000368758
0.000367869
0.000147869
1.94964e-05
1.94904e-05
0.000146935
0.000367599
0.000366371
0.000145755
1.94534e-05
1.94145e-05
0.000144707
0.00036592
0.000364344
0.000143261
1.94135e-05
1.93798e-05
0.00014213
0.000363755
0.000361926
0.00014064
1.93572e-05
1.9342e-05
0.000139494
0.000361831
0.000360169
0.000137926
1.93605e-05
1.93856e-05
0.000136497
0.000359887
0.000358077
0.000134948
1.93914e-05
1.94372e-05
0.000133701
0.000358307
0.000356925
0.000132174
1.94955e-05
1.95896e-05
0.000131078
0.000357675
0.000357421
0.000129767
1.97039e-05
1.98626e-05
0.000128978
0.000359083
0.000360473
0.000127549
2.00348e-05
2.02185e-05
0.000126742
0.000364586
0.000370433
0.000128383
2.04352e-05
2.06355e-05
0.000128883
0.000374996
0.000377882
0.000128202
2.06903e-05
2.08378e-05
0.000125867
0.000383534
0.000389869
0.000132634
2.11352e-05
2.13394e-05
0.000128721
0.000395302
0.000400338
0.000131904
2.16892e-05
2.1946e-05
0.000133634
0.000410015
0.000412733
0.000136501
2.23132e-05
2.283e-05
0.000143558
0.000425443
0.000427504
0.000147182
2.33327e-05
2.37658e-05
0.00015317
0.000438324
0.000441608
0.000158563
2.46427e-05
2.64656e-05
0.000183685
0.000461027
0.000458712
0.000193993
1.98487e-05
1.53062e-05
4.74312e-05
0.00012836
0.000359601
0.00011152
1.80036e-05
1.89142e-05
0.000100227
0.000330548
0.000348512
0.000104237
1.93844e-05
1.96901e-05
9.82603e-05
0.000332716
0.000357649
0.000105809
2.02704e-05
2.08315e-05
0.000104127
0.000352541
0.000387432
0.000118167
2.15057e-05
2.22335e-05
0.000117495
0.000379994
0.000417156
0.000137533
2.3172e-05
2.44509e-05
0.000141519
0.000420418
0.000470575
0.000171307
2.69763e-05
2.05781e-05
0.000189259
0.000481672
0.000129203
4.49618e-05
1.65646e-05
1.97182e-05
0.000121822
0.000404271
0.000395133
0.000112644
2.1354e-05
2.26859e-05
0.000147412
0.000487521
0.000497079
0.000149028
2.36454e-05
2.49987e-05
0.000173956
0.00055415
0.000570166
0.000186004
2.67241e-05
2.99158e-05
0.000222353
0.000622597
0.000603457
0.000239988
2.32949e-05
1.74757e-05
5.43158e-05
0.000159496
0.000491445
0.000145248
2.08914e-05
2.26575e-05
0.00013517
0.000481629
0.000553225
0.000166364
2.41361e-05
2.58711e-05
0.000166831
0.000545964
0.000621106
0.000213443
2.98238e-05
2.37804e-05
0.000246576
0.00062541
0.000168825
5.45255e-05
1.77771e-05
2.20094e-05
0.00015362
0.000558321
0.000575113
0.000160849
2.47532e-05
2.87796e-05
0.000227964
0.000740569
0.000774989
0.000267862
3.35997e-05
2.7471e-05
0.000308883
0.000782399
0.00021659
6.39799e-05
1.87529e-05
2.4081e-05
0.000205318
0.000693083
0.000689384
0.000198469
2.79979e-05
3.526e-05
0.000297528
0.000876043
0.000891468
0.000345128
2.90519e-05
1.97865e-05
7.25716e-05
0.000269979
0.000900675
0.000266225
2.80323e-05
3.52803e-05
0.000280042
0.000968948
0.00134459
0.000473016
4.82846e-05
4.02197e-05
0.00050436
0.00129223
0.000456388
0.000119776
2.62137e-05
4.68309e-05
0.000489782
0.00140608
0.00140677
0.000524305
4.38082e-05
2.94106e-05
0.000134125
0.000554783
0.00194886
0.000648252
6.49216e-05
6.4116e-05
0.000747474
0.00211781
0.000964527
0.000266437
4.07594e-05
6.49254e-05
0.000867596
0.00252803
0.00167001
0.00055388
4.32297e-05
8.02864e-05
0.000976798
0.00196929
0.00168935
0.000817159
6.60132e-05
6.67788e-05
0.000778171
0.00185155
0.00237172
0.000857633
7.64749e-05
0.000105518
0.001599
0.00394706
0.000879028
0.000273238
5.99228e-05
6.1342e-05
0.000766013
0.00175539
0.000542605
0.000193862
4.27554e-05
4.63325e-05
0.000473366
0.00113731
0.000971634
0.000348988
4.67477e-05
2.60766e-05
9.00456e-05
0.000277393
0.00065492
0.000359099
3.05088e-05
2.90075e-05
0.000115872
0.00029815
0.000724285
0.000317096
3.31308e-05
3.5385e-05
0.000258194
0.000655864
0.000213071
7.99946e-05
2.3406e-05
2.79069e-05
0.00025191
0.000566098
0.000519054
0.000210925
3.11935e-05
2.17538e-05
6.79731e-05
0.000172677
0.000480486
0.000214106
2.52683e-05
2.91879e-05
0.000186683
0.00044223
0.000153057
6.37094e-05
2.10757e-05
2.37978e-05
0.000189833
0.000424703
0.000385196
0.000167147
2.79894e-05
2.07988e-05
5.91778e-05
0.000137612
0.000375163
0.000171408
2.25946e-05
2.69731e-05
0.000150828
0.000341879
0.000124019
5.57919e-05
2.04888e-05
2.19487e-05
0.000159589
0.000338732
0.000306085
0.00013974
2.61454e-05
2.01163e-05
5.26129e-05
0.000114826
0.000309504
0.000147789
2.10007e-05
2.56339e-05
0.000131024
0.000282404
0.000110937
5.23259e-05
2.02263e-05
2.10919e-05
0.000149935
0.000300679
0.000254857
0.000120563
2.6504e-05
2.21913e-05
9.58618e-05
0.000207788
8.15975e-05
3.74809e-05
1.8373e-05
1.76768e-05
0.000101117
0.000204963
0.000194514
9.34063e-05
2.24416e-05
1.79078e-05
3.80375e-05
7.90454e-05
0.000190774
9.65215e-05
1.73505e-05
2.23387e-05
8.84335e-05
0.000175481
7.37478e-05
3.68045e-05
1.81381e-05
1.67616e-05
8.97947e-05
0.00016792
0.000160578
8.53466e-05
2.15632e-05
1.76884e-05
3.56568e-05
7.00462e-05
0.000160759
8.65375e-05
1.68161e-05
2.15931e-05
8.12764e-05
0.000150553
6.68096e-05
3.44295e-05
1.72592e-05
1.62761e-05
7.98168e-05
0.000145738
0.000140048
7.78246e-05
2.13245e-05
1.78098e-05
3.36635e-05
6.353e-05
0.000137629
7.73911e-05
1.60104e-05
2.09617e-05
7.31832e-05
0.000131264
6.11225e-05
3.34527e-05
1.751e-05
1.5587e-05
7.21704e-05
0.000125244
0.000121128
6.78243e-05
2.05049e-05
1.72523e-05
3.05269e-05
5.433e-05
0.000107888
7.84979e-05
1.48753e-05
1.90395e-05
3.80615e-05
6.27035e-05
0.000142744
8.28237e-05
1.72629e-05
2.18461e-05
7.63421e-05
0.00013264
6.40809e-05
3.6818e-05
1.78069e-05
1.62626e-05
7.90754e-05
0.00013248
0.000125306
7.34767e-05
2.14456e-05
1.78535e-05
3.67672e-05
6.22586e-05
0.00013071
7.85153e-05
1.625e-05
2.11942e-05
7.28977e-05
0.000123429
6.09986e-05
3.69117e-05
1.76837e-05
1.61181e-05
7.4055e-05
0.000118191
0.000112091
6.71983e-05
2.14371e-05
1.77512e-05
3.59923e-05
5.69969e-05
0.000109763
6.91338e-05
1.56292e-05
2.06436e-05
6.27425e-05
0.000102451
5.06437e-05
3.30091e-05
1.72281e-05
1.45325e-05
6.86719e-05
9.12197e-05
5.55327e-05
3.79374e-05
1.89626e-05
1.68756e-05
6.83391e-05
0.000109277
9.99177e-05
6.18227e-05
2.15246e-05
1.75429e-05
3.66417e-05
5.33134e-05
9.90654e-05
6.47727e-05
1.56368e-05
2.069e-05
5.97181e-05
9.01593e-05
4.82081e-05
3.43014e-05
1.73461e-05
1.45235e-05
6.41186e-05
8.23576e-05
5.22193e-05
3.77179e-05
1.91372e-05
1.67664e-05
6.56042e-05
0.000100522
9.0774e-05
5.93041e-05
2.12893e-05
1.74615e-05
3.71083e-05
5.07851e-05
9.39336e-05
6.25632e-05
1.55626e-05
2.06413e-05
5.6852e-05
8.51434e-05
4.63689e-05
3.45429e-05
1.73269e-05
1.4554e-05
5.99604e-05
7.56681e-05
4.89962e-05
3.712e-05
1.91866e-05
1.65462e-05
6.09906e-05
9.26201e-05
8.3258e-05
5.56745e-05
2.11402e-05
1.7407e-05
3.69512e-05
4.7249e-05
8.42846e-05
5.75797e-05
1.55646e-05
2.05859e-05
5.27828e-05
7.6737e-05
4.32231e-05
3.41602e-05
1.66123e-05
1.45372e-05
5.5033e-05
6.78216e-05
4.50773e-05
3.63904e-05
1.92596e-05
1.62635e-05
5.47197e-05
8.22406e-05
7.36524e-05
5.01411e-05
2.0851e-05
1.70565e-05
3.47914e-05
4.23168e-05
6.62022e-05
5.50637e-05
1.41353e-05
1.89147e-05
3.69238e-05
4.47539e-05
8.13915e-05
5.41355e-05
1.60491e-05
2.10078e-05
4.99166e-05
7.29048e-05
4.2606e-05
3.58163e-05
1.71136e-05
1.45224e-05
5.37101e-05
6.54336e-05
4.48748e-05
3.78441e-05
1.90719e-05
1.59164e-05
5.41668e-05
8.01925e-05
7.19296e-05
4.98405e-05
2.082e-05
1.69072e-05
3.58794e-05
4.21851e-05
6.47479e-05
5.46044e-05
1.42071e-05
1.91297e-05
3.80278e-05
4.44908e-05
7.90907e-05
5.31044e-05
1.61505e-05
2.10108e-05
4.92927e-05
7.08134e-05
4.21471e-05
3.66695e-05
1.74494e-05
1.44583e-05
5.43226e-05
6.35723e-05
4.43008e-05
3.87199e-05
1.91697e-05
1.61495e-05
5.27652e-05
7.75576e-05
6.93319e-05
4.86738e-05
2.09073e-05
1.67879e-05
3.64166e-05
4.13029e-05
6.09934e-05
5.33797e-05
1.43831e-05
1.88383e-05
3.97418e-05
4.41052e-05
6.70251e-05
5.15627e-05
1.51736e-05
1.96681e-05
3.98538e-05
4.63714e-05
7.90227e-05
5.26984e-05
1.64857e-05
2.09588e-05
4.90615e-05
7.04454e-05
4.26217e-05
3.76885e-05
1.7053e-05
1.42515e-05
5.41594e-05
6.30611e-05
4.45394e-05
4.02698e-05
1.92663e-05
1.61828e-05
5.21958e-05
7.62044e-05
6.83306e-05
4.86646e-05
2.10419e-05
1.68219e-05
3.7506e-05
4.15526e-05
6.04112e-05
5.28926e-05
1.46227e-05
1.916e-05
4.06707e-05
4.43629e-05
6.58882e-05
5.13403e-05
1.55343e-05
1.96199e-05
4.07618e-05
4.62664e-05
7.75747e-05
5.20874e-05
1.62378e-05
2.10027e-05
4.88918e-05
6.92189e-05
4.2687e-05
3.90087e-05
1.74879e-05
1.4282e-05
5.46305e-05
6.19206e-05
4.58446e-05
4.22683e-05
1.92822e-05
1.54759e-05
5.2749e-05
6.75708e-05
4.78442e-05
4.31419e-05
1.97903e-05
1.65232e-05
5.28837e-05
7.92142e-05
7.06264e-05
4.98162e-05
2.13756e-05
1.72488e-05
4.00617e-05
4.37747e-05
6.2644e-05
5.58495e-05
1.44919e-05
1.92217e-05
4.29717e-05
4.6555e-05
6.77733e-05
5.35898e-05
1.54748e-05
1.98217e-05
4.36922e-05
4.83365e-05
7.94169e-05
5.36275e-05
1.65312e-05
2.12742e-05
5.06252e-05
7.0911e-05
4.45734e-05
4.13604e-05
1.76394e-05
1.46184e-05
5.65207e-05
6.3668e-05
4.7711e-05
4.44275e-05
1.95701e-05
1.5855e-05
5.45163e-05
6.89706e-05
4.9523e-05
4.50393e-05
1.9891e-05
1.64709e-05
5.41685e-05
8.01233e-05
7.13602e-05
5.0985e-05
2.11239e-05
1.77602e-05
4.09852e-05
4.44726e-05
6.28314e-05
5.65536e-05
1.45304e-05
1.96267e-05
4.38215e-05
4.69889e-05
6.70472e-05
5.3313e-05
1.57903e-05
2.00018e-05
4.46002e-05
4.8442e-05
7.74503e-05
5.29808e-05
1.65925e-05
2.14013e-05
5.02788e-05
6.92107e-05
4.41955e-05
4.15384e-05
1.80465e-05
1.46151e-05
5.64128e-05
6.22863e-05
4.70933e-05
4.41929e-05
1.94812e-05
1.54191e-05
5.26876e-05
6.6441e-05
4.94304e-05
4.5047e-05
1.96488e-05
1.56393e-05
5.38038e-05
6.91841e-05
5.08773e-05
4.784e-05
1.99501e-05
1.66369e-05
5.52555e-05
7.95732e-05
7.10609e-05
5.23848e-05
2.13062e-05
1.713e-05
4.32681e-05
4.57409e-05
6.35689e-05
5.77807e-05
1.48234e-05
1.95236e-05
4.53839e-05
4.83224e-05
6.70473e-05
5.36295e-05
1.57824e-05
1.99107e-05
4.59556e-05
5.03661e-05
6.94528e-05
5.47107e-05
1.57769e-05
2.00008e-05
4.86179e-05
5.14984e-05
7.94721e-05
5.5468e-05
1.66147e-05
2.1333e-05
5.27816e-05
7.11426e-05
4.64929e-05
4.42944e-05
1.80045e-05
1.4602e-05
5.90476e-05
6.43807e-05
4.93833e-05
4.6723e-05
1.97704e-05
1.58617e-05
5.44274e-05
6.85313e-05
5.16801e-05
4.76049e-05
2.00615e-05
1.60147e-05
5.60789e-05
7.09158e-05
5.30507e-05
5.04182e-05
2.02687e-05
1.68959e-05
5.72632e-05
8.09678e-05
7.26142e-05
5.44047e-05
2.15443e-05
1.80283e-05
4.53042e-05
4.79697e-05
6.5072e-05
6.01752e-05
1.46484e-05
1.98917e-05
4.76172e-05
5.03757e-05
6.85745e-05
5.50925e-05
1.58053e-05
2.00549e-05
4.77941e-05
5.19626e-05
7.03525e-05
5.56986e-05
1.59271e-05
2.03563e-05
5.05175e-05
5.30984e-05
7.95956e-05
5.65827e-05
1.68512e-05
2.1651e-05
5.43457e-05
7.20885e-05
4.83851e-05
4.63043e-05
1.7397e-05
1.5295e-05
5.9268e-05
6.47755e-05
5.09431e-05
4.86174e-05
1.99528e-05
1.58527e-05
5.6042e-05
6.88228e-05
5.27423e-05
4.89288e-05
2.00385e-05
1.57906e-05
5.60731e-05
7.05731e-05
5.41543e-05
5.02884e-05
2.00635e-05
1.60692e-05
5.85518e-05
7.24427e-05
5.50516e-05
5.30721e-05
2.027e-05
1.68625e-05
5.90265e-05
8.17082e-05
7.38575e-05
5.63866e-05
2.15601e-05
1.83123e-05
4.68461e-05
4.9836e-05
6.54204e-05
6.12493e-05
1.46362e-05
2.01822e-05
4.925e-05
5.19415e-05
6.88481e-05
5.58813e-05
1.61288e-05
2.03235e-05
4.97673e-05
5.35353e-05
7.04922e-05
5.61611e-05
1.59586e-05
2.0183e-05
5.13434e-05
5.47626e-05
7.29299e-05
5.93018e-05
1.61607e-05
2.04043e-05
5.43957e-05
5.59262e-05
8.28554e-05
6.01711e-05
1.69489e-05
2.18077e-05
5.77742e-05
7.51865e-05
5.17345e-05
4.96019e-05
1.832e-05
1.48944e-05
6.39467e-05
6.80415e-05
5.41077e-05
5.18033e-05
2.00442e-05
1.58603e-05
5.88763e-05
7.21185e-05
5.5999e-05
5.19757e-05
2.02659e-05
1.61131e-05
5.91736e-05
7.37356e-05
5.72995e-05
5.36524e-05
2.02635e-05
1.61537e-05
6.20394e-05
7.58279e-05
5.83744e-05
5.65128e-05
2.04857e-05
1.71578e-05
6.22327e-05
8.49696e-05
7.73015e-05
5.96132e-05
2.18233e-05
1.85637e-05
5.06283e-05
5.34822e-05
6.85851e-05
6.46256e-05
1.50639e-05
2.03504e-05
5.2831e-05
5.56077e-05
7.21514e-05
5.95041e-05
1.62637e-05
2.06158e-05
5.28139e-05
5.71733e-05
7.33952e-05
5.88306e-05
1.62849e-05
2.05475e-05
5.43699e-05
5.80168e-05
7.55923e-05
6.1911e-05
1.6489e-05
2.07139e-05
5.78383e-05
5.89237e-05
8.48453e-05
6.32478e-05
1.71693e-05
2.20926e-05
6.09588e-05
7.78472e-05
5.47874e-05
5.25531e-05
1.85869e-05
1.51709e-05
6.65836e-05
7.02472e-05
5.71445e-05
5.465e-05
2.03582e-05
1.62319e-05
6.12393e-05
7.39796e-05
5.90003e-05
5.48428e-05
2.06479e-05
1.63551e-05
6.11926e-05
7.58343e-05
6.02664e-05
5.62578e-05
2.05171e-05
1.64524e-05
6.41312e-05
7.77269e-05
6.09256e-05
5.92411e-05
2.06815e-05
1.71915e-05
6.4445e-05
8.64417e-05
7.911e-05
6.21378e-05
2.21564e-05
1.8942e-05
5.31792e-05
5.59217e-05
6.98698e-05
6.72571e-05
1.51108e-05
2.05735e-05
5.53409e-05
5.79079e-05
7.25973e-05
6.06326e-05
1.6367e-05
2.08015e-05
5.54371e-05
5.91283e-05
7.41353e-05
6.06731e-05
1.64443e-05
2.0619e-05
5.66265e-05
6.01163e-05
7.61886e-05
6.29986e-05
1.64316e-05
2.05597e-05
5.88275e-05
6.17538e-05
7.89863e-05
6.63915e-05
1.64227e-05
2.07486e-05
6.16994e-05
6.2646e-05
8.88933e-05
6.67357e-05
1.72854e-05
2.24631e-05
6.47031e-05
8.18715e-05
5.8807e-05
5.69232e-05
1.84891e-05
1.55178e-05
7.0502e-05
7.40128e-05
6.13084e-05
5.91895e-05
2.06433e-05
1.64653e-05
6.54744e-05
7.77677e-05
6.31172e-05
5.93016e-05
2.08123e-05
1.64983e-05
6.59845e-05
8.00125e-05
6.47257e-05
6.10244e-05
2.06674e-05
1.65251e-05
6.91121e-05
8.2872e-05
6.61009e-05
6.41343e-05
2.09037e-05
1.75e-05
6.94578e-05
9.19002e-05
8.42237e-05
6.71444e-05
2.26468e-05
1.8955e-05
5.8672e-05
6.08447e-05
7.55394e-05
7.26553e-05
1.55114e-05
2.08052e-05
6.07591e-05
6.34272e-05
7.82319e-05
6.68262e-05
1.66536e-05
2.10022e-05
6.03824e-05
6.45132e-05
7.92988e-05
6.6115e-05
1.67597e-05
2.08686e-05
6.18043e-05
6.53843e-05
8.13538e-05
6.85863e-05
1.66756e-05
2.11291e-05
6.49847e-05
6.60887e-05
9.04424e-05
6.93201e-05
1.75941e-05
2.30528e-05
6.76039e-05
8.35369e-05
6.18229e-05
6.0443e-05
1.88089e-05
1.5729e-05
7.33446e-05
7.60301e-05
6.44582e-05
6.27488e-05
2.09898e-05
1.67608e-05
6.86133e-05
7.95854e-05
6.62551e-05
6.27748e-05
2.10838e-05
1.66909e-05
6.85584e-05
8.14409e-05
6.74468e-05
6.44004e-05
2.09731e-05
1.68475e-05
7.10385e-05
8.42136e-05
6.88799e-05
6.78374e-05
2.14165e-05
1.78269e-05
7.21118e-05
9.33827e-05
8.595e-05
7.03402e-05
2.31646e-05
1.92451e-05
6.27249e-05
6.42107e-05
7.82582e-05
7.65223e-05
1.576e-05
2.10159e-05
6.44047e-05
6.67211e-05
8.07627e-05
6.99386e-05
1.68036e-05
2.1354e-05
6.43516e-05
6.79542e-05
8.19803e-05
6.97542e-05
1.68898e-05
2.13626e-05
6.61306e-05
6.90253e-05
8.42037e-05
7.19736e-05
1.70131e-05
2.18377e-05
6.98117e-05
6.99346e-05
9.35007e-05
7.32598e-05
1.82949e-05
2.38596e-05
7.20136e-05
8.67431e-05
6.6386e-05
6.59001e-05
1.96731e-05
1.6307e-05
7.84597e-05
8.03694e-05
6.91527e-05
6.79184e-05
2.14008e-05
1.70559e-05
7.42884e-05
8.42529e-05
7.11446e-05
6.82677e-05
2.17039e-05
1.70522e-05
7.42314e-05
8.66494e-05
7.19842e-05
7.09017e-05
2.20129e-05
1.85015e-05
7.41169e-05
9.49078e-05
8.76594e-05
7.29598e-05
2.42455e-05
2.03542e-05
6.64372e-05
6.73238e-05
7.96088e-05
7.86703e-05
1.63763e-05
2.16873e-05
6.82584e-05
6.96283e-05
8.26252e-05
7.35579e-05
1.73798e-05
2.21729e-05
6.86693e-05
7.11532e-05
8.46594e-05
7.31037e-05
1.74623e-05
2.25379e-05
7.20118e-05
7.18566e-05
9.29552e-05
7.41194e-05
1.86736e-05
2.46416e-05
7.33385e-05
8.65878e-05
6.81597e-05
6.8316e-05
1.97164e-05
1.66296e-05
7.97678e-05
8.05096e-05
7.07315e-05
7.03882e-05
2.19968e-05
1.72952e-05
7.4472e-05
8.41526e-05
7.2722e-05
7.08378e-05
2.23235e-05
1.77399e-05
7.51055e-05
8.66543e-05
7.40175e-05
7.41491e-05
2.2815e-05
1.89064e-05
7.61058e-05
9.45093e-05
8.8042e-05
7.55728e-05
2.5035e-05
2.10053e-05
6.9754e-05
7.03321e-05
8.07985e-05
8.12238e-05
1.66231e-05
2.22644e-05
7.17577e-05
7.21795e-05
8.41048e-05
7.57809e-05
1.77912e-05
2.28435e-05
7.25678e-05
7.39952e-05
8.65828e-05
7.57295e-05
1.80013e-05
2.3356e-05
7.63323e-05
7.4919e-05
9.52243e-05
7.73048e-05
1.94397e-05
2.55565e-05
7.71058e-05
8.91142e-05
7.21943e-05
7.31746e-05
2.10147e-05
1.70227e-05
8.39803e-05
8.36513e-05
7.48133e-05
7.55796e-05
2.28562e-05
1.819e-05
7.94645e-05
8.80401e-05
7.73965e-05
7.64944e-05
2.34959e-05
1.87044e-05
7.94715e-05
9.11943e-05
7.91655e-05
8.0542e-05
2.42372e-05
2.01376e-05
8.15633e-05
9.98057e-05
9.35133e-05
8.15581e-05
2.65754e-05
2.17526e-05
7.68746e-05
7.65524e-05
8.72335e-05
8.80484e-05
1.76477e-05
2.34872e-05
7.91338e-05
7.85992e-05
9.12013e-05
8.24153e-05
1.87127e-05
2.46837e-05
8.17683e-05
8.03221e-05
9.94237e-05
8.18353e-05
2.05338e-05
2.69191e-05
8.14134e-05
9.35202e-05
7.70217e-05
7.84385e-05
2.24589e-05
1.79405e-05
8.85204e-05
8.79493e-05
7.98737e-05
8.12153e-05
2.40689e-05
1.92232e-05
8.42323e-05
9.25836e-05
8.26617e-05
8.27465e-05
2.49461e-05
1.9849e-05
8.47098e-05
9.65256e-05
8.50726e-05
8.76216e-05
2.58018e-05
2.14453e-05
8.79458e-05
0.000105983
9.94893e-05
8.81122e-05
2.83794e-05
2.30726e-05
8.49629e-05
8.33465e-05
9.42271e-05
9.57091e-05
1.87911e-05
2.51121e-05
8.74016e-05
8.62491e-05
9.92441e-05
9.00427e-05
2.01079e-05
2.63544e-05
9.04045e-05
8.8063e-05
0.000108385
8.98803e-05
2.15559e-05
2.87878e-05
9.01138e-05
0.0001024
8.64566e-05
8.87103e-05
2.42546e-05
1.99367e-05
9.77708e-05
9.72199e-05
8.93969e-05
9.18843e-05
2.65016e-05
2.12398e-05
9.37821e-05
0.000103219
9.2282e-05
9.56097e-05
2.78881e-05
2.32618e-05
9.44913e-05
0.000113027
0.000106755
9.49744e-05
3.07428e-05
2.51144e-05
9.29482e-05
9.07283e-05
0.000101944
0.000102571
2.03526e-05
2.76983e-05
9.75963e-05
9.34655e-05
0.000112412
9.57404e-05
2.30983e-05
3.08347e-05
9.5637e-05
0.000106964
9.09371e-05
9.22178e-05
2.50706e-05
2.00113e-05
0.000103259
0.000101294
9.3551e-05
9.51855e-05
2.72461e-05
2.18498e-05
9.62561e-05
0.000105762
9.56326e-05
9.90032e-05
2.90055e-05
2.41734e-05
9.68307e-05
0.000114776
0.000109192
9.81863e-05
3.21207e-05
2.63789e-05
9.71707e-05
9.47163e-05
0.000104549
0.000105187
2.15696e-05
2.92745e-05
0.000102626
9.71642e-05
0.000114573
9.93842e-05
2.45287e-05
3.27403e-05
9.96604e-05
0.000109528
9.60251e-05
9.89104e-05
2.6981e-05
2.17696e-05
0.000106836
0.00010532
9.78536e-05
0.000103523
2.93777e-05
2.39625e-05
9.93797e-05
0.000114947
0.000110071
0.000100218
3.26684e-05
2.72356e-05
9.92021e-05
9.66098e-05
0.00010567
0.000106289
2.23833e-05
3.05061e-05
0.000105386
9.93522e-05
0.000115138
0.000100911
2.53115e-05
3.40437e-05
0.00010183
0.000110397
9.84271e-05
0.000102142
2.81389e-05
2.26587e-05
0.000108463
0.000106867
0.000100667
0.000107342
3.07155e-05
2.53637e-05
0.000102388
0.00011664
0.000111992
0.000102979
3.41404e-05
2.80347e-05
0.000103049
9.97349e-05
0.000108119
0.000111707
2.18239e-05
3.05276e-05
0.00010841
0.000101946
0.00011737
0.000102437
2.57865e-05
3.52485e-05
0.000103548
0.000112906
0.000102076
0.000107367
2.91478e-05
2.40052e-05
0.000111704
0.000110304
0.000105517
0.000114325
3.26843e-05
2.71957e-05
0.000108195
0.000121827
0.000117136
0.000109389
3.63369e-05
2.99868e-05
0.000111639
0.000106378
0.000114772
0.000116496
2.41962e-05
3.30552e-05
0.000118601
0.000109434
0.000126848
0.000112923
2.72389e-05
3.61579e-05
0.00011256
0.000122126
0.00011059
0.000119974
3.14242e-05
2.7182e-05
0.000119574
0.000125005
0.000121042
0.000119084
3.77706e-05
3.16416e-05
0.000118572
0.000112454
0.000121653
0.000122584
2.62147e-05
3.55928e-05
0.000125538
0.000116768
0.000132863
0.000118274
2.9692e-05
3.94936e-05
0.000119928
0.000128008
0.000117616
0.000127816
3.32406e-05
2.8246e-05