/*--------------------------------*- C++ -*----------------------------------*\
| =========                 |                                                 |
| \\      /  F ield         | OpenFOAM: The Open Source CFD Toolbox           |
|  \\    /   O peration     | Version:  v2006                                 |
|   \\  /    A nd           | Website:  www.openfoam.com                      |
|    \\/     M anipulation  |                                                 |
\*---------------------------------------------------------------------------*/
FoamFile
{
    version     2.0;
    format      ascii;
    class       volScalarField;
    location    "0.055";
    object      k;
}
// * * * * * * * * * * * * * * * * * * * * * * * * * * * * * * * * * * * * * //

dimensions      [0 2 -2 0 0 0 0];


internalField   nonuniform List<scalar> 
16277
(
78.7564
78.7565
78.7628
78.7646
78.7689
78.7626
78.7479
78.7008
78.5913
78.4167
78.1923
77.9416
77.6809
77.4174
77.1517
76.8815
76.6038
76.3164
76.018
75.7078
75.386
75.0526
74.7079
74.3523
73.9859
73.609
73.2217
72.8244
72.4173
72.0007
71.575
71.1406
70.6979
70.2473
69.7893
69.3244
68.853
68.3757
67.893
67.4054
66.9134
66.4176
65.9185
65.4168
64.913
64.4076
63.9012
63.3944
62.8878
62.3819
61.8774
61.3748
60.8748
60.3778
59.8845
59.3954
58.911
58.432
57.9589
57.4922
57.0325
56.5803
56.1361
55.7004
55.2736
54.8564
54.449
54.052
53.6657
53.2905
52.9268
52.5749
52.2354
51.9086
51.595
51.2945
51.0066
50.7299
50.4616
50.1993
49.9428
49.6996
49.4911
49.3474
49.2827
49.2738
49.2882
49.3071
49.3185
49.3172
49.3069
49.2411
49.0903
48.838
48.3206
47.4672
43.1343
38.6798
45.3964
47.7155
46.0161
41.1645
34.5259
31.6352
38.9001
44.7175
42.2917
35.3634
28.9184
27.2049
33.9417
41.2592
39.0172
31.2934
25.4438
24.3785
30.4092
38.2125
36.3903
28.5342
23.1881
22.491
28.0225
35.8073
34.3533
26.7518
21.6582
21.1739
26.4171
33.903
32.7066
25.4699
20.5477
20.1906
25.2376
32.3573
31.3424
24.4886
19.6924
19.4166
24.32
31.0628
30.1787
23.6992
19.0025
18.7795
23.5722
29.9491
29.1633
23.0384
18.4216
18.2338
22.939
28.9704
28.2603
22.4657
17.9157
17.753
22.3844
28.095
27.4444
21.9542
17.4639
17.3188
21.8856
27.3002
26.698
21.4876
17.0511
16.9188
21.4282
26.5703
26.009
21.0559
16.6676
16.5448
21.0035
25.8948
25.3676
20.6522
16.3066
16.1911
20.6053
25.2642
24.7664
20.2713
15.9634
15.8535
20.2288
24.6724
24.2009
19.9097
15.6344
15.5289
19.8708
24.1154
23.668
19.5647
15.317
15.2149
19.5292
23.5904
23.1653
19.235
15.0091
14.9098
19.2024
23.0947
22.6899
18.9189
14.7093
14.6123
18.8889
22.6254
22.2387
18.6149
14.4163
14.3211
18.5869
22.1796
21.809
18.3212
14.1288
14.035
18.2948
21.7543
21.3981
18.036
13.8458
13.753
18.0108
21.3472
21.0037
17.7579
13.5662
13.474
17.7335
20.9559
20.6236
17.4855
13.2891
13.1973
17.4614
20.5784
20.2562
17.2172
13.0137
12.9218
17.1933
20.2131
19.8998
16.9521
12.739
12.6468
16.9279
19.8584
19.5528
16.689
12.4644
12.3716
16.6644
19.5127
19.2139
16.4271
12.1893
12.0956
16.4018
19.1749
18.882
16.1655
11.9131
11.8184
16.1394
18.8437
18.5562
15.9036
11.6353
11.5395
15.8766
18.5184
18.2355
15.641
11.3556
11.2586
15.6129
18.1981
17.9194
15.3772
11.0738
10.9757
15.3481
17.8822
17.6072
15.1121
10.79
10.6909
15.0822
17.5701
17.2985
14.8459
10.5043
10.4044
14.8151
17.2614
16.9928
14.5783
10.2171
10.1167
14.5466
16.9556
16.6898
14.3092
9.92895
9.82855
14.2769
16.6526
16.3893
14.0392
9.64075
9.54083
14.0064
16.352
16.0913
13.7687
9.35363
9.25492
13.7358
16.0541
15.7961
13.4986
9.06913
8.97255
13.4661
15.7592
15.5041
13.2303
8.78923
8.69594
13.1988
15.468
15.2165
12.9656
8.51639
8.42781
12.9357
15.1814
14.934
12.7063
8.2536
8.1714
12.6789
14.9005
14.6581
12.4549
8.00434
7.93054
12.431
14.6268
14.3908
12.2143
7.77269
7.70973
12.195
14.3624
14.1343
11.9884
7.56319
7.51432
11.9739
14.11
13.8921
11.7807
7.38237
7.34889
11.7675
13.8723
13.6651
11.5844
7.23778
7.21921
11.5739
13.6503
13.4553
11.4043
7.13153
7.12889
11.3978
13.4461
13.2644
11.2446
7.07144
7.08139
11.2425
13.2611
13.0949
11.1085
7.0544
7.079
11.1104
13.0967
12.9462
10.9928
7.07162
7.12263
10.9983
12.9527
12.8183
10.8935
7.13067
7.2091
10.9026
12.8302
12.713
10.8126
7.23307
7.33507
10.8254
12.7295
12.6278
10.7514
7.37105
7.48985
10.7685
12.6485
12.5615
10.7107
7.5349
7.66585
10.7334
12.5865
12.5146
10.6931
7.71789
7.85829
10.7224
12.5442
12.4877
10.6978
7.91526
8.0619
10.7371
12.522
12.48
10.7196
8.12118
8.26998
10.7743
12.5224
12.4896
10.763
8.32967
8.47727
10.8312
12.5398
12.5116
10.8251
8.53549
8.67863
10.9051
12.573
12.5486
10.9037
8.73369
8.86944
10.9931
12.6193
12.5982
10.9951
8.92006
9.04609
11.0921
12.6759
12.6565
11.0945
9.09142
9.2056
11.193
12.7376
12.7189
11.1953
9.24446
9.34506
11.2941
12.8005
12.7817
11.2958
9.37688
9.46322
11.3936
12.8614
12.8417
11.3939
9.48784
9.55999
11.4883
12.9168
12.8954
11.4872
9.57773
9.63658
11.5768
12.9641
12.9407
11.5738
9.64796
9.69464
11.6573
13.0019
12.976
11.652
9.70011
9.73601
11.7282
13.0284
12.9996
11.7204
9.73673
9.76271
11.7884
13.0427
13.0094
11.7779
9.76036
9.77859
11.8376
13.0459
13.0078
11.8245
9.77373
9.78556
11.8759
13.0382
12.9957
11.8603
9.77853
9.7861
11.9042
13.0221
12.9738
11.8852
9.7757
9.78069
11.9227
12.997
12.9423
11.8993
9.76535
9.76942
11.9324
12.9623
12.9016
11.9051
9.75134
9.75457
11.9343
12.919
12.8537
11.9033
9.73393
9.73639
11.9287
12.8687
12.7993
11.8946
9.71379
9.71567
11.9167
12.8121
12.739
11.8796
9.69141
9.69285
11.8987
12.7499
12.6736
11.8587
9.66704
9.66805
11.8749
12.6822
12.6025
11.8328
9.6423
9.6434
11.847
12.609
12.5261
11.8028
9.61683
9.61745
11.8155
12.5316
12.4486
11.7684
9.58929
9.59011
11.7805
12.4525
12.366
11.7314
9.56151
9.56341
11.7407
12.3705
12.2796
11.686
9.53348
9.54464
11.7
12.2861
12.2068
11.6874
9.53188
9.55536
11.6574
12.1951
12.1777
11.6968
9.59529
9.70279
11.484
12.1287
12.8046
12.1961
10.2361
10.2192
10.8463
11.5254
13.7715
16.2945
18.9363
21.1669
22.7083
24.7499
26.0447
27.1508
27.8992
28.4229
28.6701
28.6654
28.3948
27.7917
26.9153
25.3841
24.2935
22.1071
20.1231
18.0165
15.8506
14.2334
12.5911
12.5229
8.17746
7.94176
12.49
12.5468
12.5268
12.4849
7.73244
7.57848
12.4993
12.5285
12.5839
12.5389
7.48109
7.48359
12.5617
12.5999
12.6342
12.5671
7.41561
7.4183
12.5839
12.6671
12.6928
12.6023
7.42551
7.43523
12.6123
12.7215
12.74
12.6302
7.44705
7.45895
12.6473
12.774
12.7899
12.6622
7.47157
7.48505
12.6833
12.8256
12.8422
12.6963
7.49866
7.51342
12.7215
12.8787
12.8958
12.734
7.52628
7.54212
12.7584
12.9326
12.9499
12.77
7.55542
7.57122
12.7933
12.9881
13.0054
12.8097
7.58557
7.60124
12.8297
13.0451
13.0639
12.8498
7.61701
7.63307
12.8711
13.105
13.1242
12.8925
7.64931
7.66621
12.9141
13.1661
13.1865
12.9374
7.68349
7.70029
12.9592
13.2297
13.2494
12.9806
7.71669
7.73392
13.0023
13.2937
13.3148
13.0259
7.75164
7.7679
13.0473
13.3604
13.3811
13.0704
7.78493
7.8022
13.0919
13.4262
13.4482
13.1165
7.82031
7.83819
13.14
13.4967
13.5196
13.1637
7.85572
7.87525
13.1936
13.5684
13.5913
13.2139
7.8932
7.91303
13.2444
13.6404
13.6639
13.268
7.93133
7.95129
13.2999
13.7158
13.7408
13.3201
7.96926
7.98958
13.3525
13.7949
13.8197
13.3767
8.00754
8.02886
13.4129
13.8718
13.8966
13.4348
8.04754
8.0688
13.4715
13.9519
13.9785
13.4978
8.08789
8.10846
13.5351
14.0353
14.0615
13.5581
8.12661
8.14758
13.5966
14.1174
14.1437
13.6251
8.16638
8.18741
13.6657
14.2001
14.2268
13.6911
8.20616
8.22699
13.7322
14.283
14.3089
13.7616
8.24509
8.26572
13.8037
14.3626
14.3877
13.8292
8.28299
8.30313
13.8715
14.4411
14.4655
13.9012
8.32014
8.33954
13.9442
14.5142
14.5364
13.9705
8.35581
8.37443
14.0121
14.5819
14.6026
14.0417
8.39005
8.40654
14.0755
14.644
14.662
14.1064
8.42137
8.43616
14.1369
14.6959
14.7096
14.1662
8.45015
8.46314
14.1871
14.7315
14.7388
14.2074
8.4749
8.48466
14.2193
14.7497
14.7514
14.2265
8.49403
8.50277
14.2299
14.7553
14.7436
14.2232
8.51151
8.5204
14.2108
14.7382
14.7016
14.1926
8.53034
8.54005
14.1613
14.6847
14.6339
14.1091
8.55006
8.56089
14.0498
14.6095
14.5431
13.9758
8.57503
8.59609
13.8942
14.507
14.418
13.7935
8.62154
8.65883
13.6954
14.3766
14.2847
13.5727
8.70408
8.75899
13.444
14.238
14.1323
13.2838
8.82426
8.90948
13.1356
14.081
13.9755
12.9435
9.00902
9.13615
12.774
13.9288
13.8437
12.5634
9.28489
9.47287
12.3716
13.8025
13.7354
12.1335
9.69359
9.94915
11.9691
13.7146
13.6934
11.8658
10.1757
10.3871
11.6461
13.6875
13.6734
11.4307
10.6054
10.7597
11.2898
13.7717
13.7676
11.2389
10.921
11.0685
10.997
13.9228
13.9674
10.9241
11.2263
11.3737
10.8852
14.2175
14.3307
10.8942
11.4811
11.6008
11.0627
14.7207
14.891
11.147
11.7572
11.931
11.5165
15.4175
15.7593
11.9498
12.0699
12.2899
12.9028
16.6249
16.9523
13.5356
12.5039
10.9225
9.64756
10.5813
14.4057
11.5015
11.1231
11.0165
10.8058
14.1893
14.4014
10.6149
11.2963
11.5037
10.3079
14.184
14.6187
10.3601
11.7691
11.9933
10.2789
14.6128
15.3652
10.6191
12.1872
12.3574
10.7163
15.4176
16.4801
11.4765
12.5858
12.8147
11.8642
16.8648
18.5909
13.2715
13.1863
13.4868
14.1074
19.3084
11.0202
9.42006
12.5941
12.6216
11.5936
16.6233
16.9376
11.4856
12.4399
12.583
12.3668
18.7468
19.2511
12.6236
12.7011
12.9167
13.6345
20.7982
21.5267
14.2312
13.229
13.7966
15.8938
23.3623
23.7183
17.0346
14.5229
12.9636
10.7572
12.9206
20.5769
13.1003
13.0236
13.0187
13.082
21.0112
23.0131
14.3846
13.372
13.7124
14.8423
23.3888
26.3149
17.369
14.5141
15.4407
19.1992
27.2819
15.133
11.3315
13.644
13.8091
15.2394
25.1586
26.4472
16.0419
13.8291
14.5853
19.2058
30.4973
32.1139
21.197
15.4848
17.0533
24.3601
33.9261
19.3362
13.3245
14.0891
14.6895
19.2543
32.0703
33.1647
20.1579
14.962
16.7793
26.0886
39.0947
41.0388
29.149
18.2008
14.7177
15.7863
25.3891
41.7834
25.8642
16.2819
17.0821
28.0914
44.7668
53.3853
37.4857
20.2182
21.7114
40.4627
55.0693
39.0908
23.6588
16.5049
21.2858
43.0815
60.4515
63.2047
47.1738
23.544
17.3532
28.8029
48.8082
74.4319
56.0328
25.5137
29.1762
62.7565
79.3322
70.9151
44.087
19.5039
37.6934
81.3906
94.1116
87.6759
63.0823
20.0581
38.0469
89.8574
105.757
107.535
89.6326
37.5725
39.4167
87.8842
105.524
101.706
86.3246
42.8139
56.0229
95.7995
102.223
77.8147
53.7684
38.8727
45.1854
71.1111
82.5233
58.244
41.9072
31.8242
33.3921
51.8286
65.2878
59.171
43.3139
29.6545
24.8532
23.877
36.6708
48.3398
37.5514
26.8625
22.7186
24.8902
32.9649
43.2232
32.1345
24.0165
21.71
27.7462
39.5702
23.7317
18.1667
20.1563
21.2799
24.8563
34.9473
31.9343
21.9439
19.3928
18.8561
15.3653
19.1487
29.5078
20.76
19.3678
18.1923
18.8367
26.8354
16.5156
14.0277
17.9981
18.0101
18.1004
25.6312
23.0436
16.5995
17.3466
17.628
12.9495
14.3675
22.1262
16.0295
16.9962
16.5261
14.7218
19.9244
12.6966
11.8868
17.1302
16.0902
14.4837
19.6246
17.6685
13.342
15.7779
16.6831
11.0882
11.598
17.5771
13.1793
15.3177
15.2174
12.1912
15.9218
10.7199
10.4031
16.1903
14.7427
12.5023
16.3989
14.0762
11.3088
14.5724
15.0816
10.3044
12.1772
9.19176
8.95724
16.4742
13.9244
10.0301
12.2901
11.5135
9.47533
14.3037
15.5378
8.82886
8.45862
11.45
9.12456
13.3753
13.9943
8.86325
10.4115
7.88305
8.0966
15.4947
12.8517
8.41824
9.95982
9.45335
8.31261
13.5164
15.0801
8.04397
7.37112
9.49001
7.9927
12.7519
13.4425
7.9776
8.88379
6.99657
7.83102
14.7891
12.452
7.48084
8.64809
8.21325
7.51043
13.2591
15.1672
7.49213
6.74993
8.06948
7.20308
12.2111
13.0278
7.20981
7.71023
6.55997
7.4345
15.0739
12.1866
6.82988
7.44119
7.17424
6.80896
13.1796
15.4498
7.30442
6.23873
7.0262
6.73753
12.3852
14.0102
7.00927
5.98194
7.65222
6.73753
11.7672
12.6637
6.76084
7.20043
6.23443
7.39642
14.4861
11.8903
6.74325
7.32866
6.98095
6.67416
12.8177
14.6853
7.41767
6.12973
7.27262
6.74478
12.0131
12.9665
6.58265
6.86604
6.12414
7.75921
15.0138
12.3044
6.50144
6.66777
6.36076
6.31251
13.3408
15.2462
7.81314
5.90115
6.35494
6.33917
12.23
13.4314
6.12998
5.96758
5.79031
7.84296
15.9382
12.6018
5.82346
5.99412
5.49151
7.18158
14.6499
12.0621
5.97966
6.10277
5.68752
5.82329
13.1056
15.1252
7.74496
5.50236
5.8243
5.9267
12.3345
13.5115
5.76989
5.33301
5.4532
8.01081
15.9753
12.6166
5.42823
5.40298
5.10884
7.0697
14.8244
11.9935
5.6049
5.56264
5.14843
5.54238
13.1452
15.3672
7.82725
5.20429
5.51807
5.71466
12.4422
13.7599
5.6535
5.05444
5.30285
8.1698
16.4934
12.9906
5.19351
5.06384
4.918
7.12627
15.3083
12.298
5.42191
5.29881
4.86401
5.41608
13.5863
15.9624
8.02975
5.02611
5.13904
5.47181
12.8672
14.2851
5.46396
4.72555
5.07363
8.88905
16.4614
13.4833
4.87643
4.73208
4.71513
7.17694
15.9808
12.5326
5.08422
4.88679
4.52075
5.22999
13.9759
16.7926
8.38539
4.98788
4.61066
4.86899
13.2258
16.0712
7.24007
4.65889
4.86403
5.08937
12.7349
14.201
5.15089
4.47332
4.95276
8.77954
16.7834
13.4879
4.89681
4.58348
4.65257
7.31809
16.1532
12.7002
5.03917
4.79541
4.45726
5.20573
14.3319
17.0963
9.03675
4.98317
4.61371
4.89212
13.7339
16.7483
7.49171
4.70648
4.85036
5.09812
13.1236
14.7068
5.30409
4.47384
5.0791
8.91751
17.7644
13.9583
4.94987
4.58241
4.7168
7.6258
16.9788
13.4994
5.10173
4.803
4.45469
5.27631
15.2458
17.9019
9.7596
5.08383
4.63027
4.83532
14.6833
17.8773
8.40296
5.00131
4.62157
4.7017
13.9991
16.7121
7.6235
4.76759
4.85849
5.108
13.2749
14.9956
5.37161
4.51467
5.17765
9.48034
18.1452
14.4792
5.05269
4.6708
4.86206
8.02521
17.8078
14.0598
5.2204
4.89546
4.54676
5.50351
15.948
18.8
10.3168
5.26406
4.72063
5.00804
15.5602
18.8135
8.75827
5.15298
4.68255
4.79757
14.8559
17.6912
7.93341
4.87416
4.9139
5.23162
13.9612
15.7937
5.48471
4.56658
5.40697
9.83645
19.5279
15.3548
5.21182
4.7667
5.22892
8.8105
19.0628
15.0601
4.81364
4.77389
5.02736
8.27897
18.0823
14.3944
5.362
5.03706
4.72282
5.7416
16.3214
19.5494
10.5088
5.52584
4.91573
5.3111
15.8972
19.6632
9.11111
5.40409
4.8896
4.97596
15.4788
18.6222
8.54028
5.15896
5.12964
5.48604
14.7116
16.6557
5.83851
4.79631
5.71192
10.5272
20.5141
16.2216
5.51981
5.01805
5.55546
9.40421
20.0889
15.9839
5.15263
5.01322
5.3323
8.86495
19.1365
15.1876
5.65412
5.25668
4.92618
6.06138
17.297
21.7455
10.7178
5.95069
5.15218
5.68556
17.0946
21.4846
9.76057
5.75753
5.10274
5.15889
16.8166
20.1669
9.21035
5.48145
5.31695
5.76201
15.8212
17.9081
6.15928
4.97447
6.06704
11.0701
22.3354
17.3545
5.84698
5.23178
5.87995
10.1134
21.7993
16.988
5.27279
5.18578
5.75554
9.52206
20.7287
16.5061
5.29886
5.17131
5.62669
9.48885
20.0381
15.8864
5.8849
5.42905
5.14445
6.3903
18.1634
22.0279
12.3059
6.21545
5.45512
6.007
18.369
22.7245
10.4452
6.10977
5.37905
5.55706
17.953
21.7309
10.0166
5.99353
5.3443
5.53712
17.146
20.7607
9.9203
5.83907
5.57998
6.09741
16.5112
18.8242
6.53604
5.25574
6.49319
11.8909
23.7693
18.6411
6.22518
5.57591
6.33091
10.8824
23.6037
18.4917
5.69525
5.54532
6.19852
10.2939
22.4293
17.7685
5.68568
5.51189
6.05847
10.3339
21.4715
17.1239
6.34785
5.74807
5.45982
6.84915
19.4517
24.6031
12.3643
6.81541
5.76358
6.53349
19.3208
24.6282
11.3194
6.61186
5.73261
5.87841
19.3665
23.7121
10.8606
6.46931
5.70254
5.9405
18.7271
22.7006
10.8019
6.29688
5.89105
6.53759
17.9256
20.5272
7.11552
5.61384
7.00596
13.9093
24.6945
20.6892
6.6454
5.97993
6.83592
11.6409
25.3752
19.8683
6.03039
5.88589
6.71498
11.2861
24.3742
19.4226
6.16275
5.87839
6.66203
11.1382
23.9064
19.0614
6.21498
5.89304
6.56408
11.1474
23.1488
18.5848
6.89562
6.11595
5.85172
7.51195
21.2421
27.4118
13.4532
7.50412
6.15432
7.10511
21.0697
27.1411
12.4187
7.26787
6.15751
6.36721
21.1748
25.7028
11.8152
7.04198
6.10381
6.3544
20.3105
24.9273
11.6564
6.94409
6.11782
6.51927
19.9775
24.2724
11.7015
6.80878
6.34324
7.13108
19.2995
21.9996
7.68514
6.06072
7.77103
14.1491
27.7977
21.6598
7.27672
6.44232
7.61137
12.9797
27.5522
21.6075
6.77124
6.47089
7.42334
12.3357
26.6069
21.0716
6.71471
6.43161
7.35483
12.2514
25.8114
20.6814
6.91822
6.47025
7.22079
12.1905
25.155
20.1749
7.52164
6.66714
6.41479
8.22327
23.0278
29.6378
14.7134
8.27463
6.71388
7.76365
23.0216
29.4588
13.6085
8.01634
6.72049
7.04767
23.3157
28.5248
12.9654
7.83268
6.66857
6.93844
22.5297
27.5471
12.8256
7.7036
6.67833
7.12196
21.9051
26.4466
12.8857
7.54437
6.90808
7.82519
20.9882
24.0319
8.54098
6.65017
8.61882
15.5844
30.612
23.9992
8.03756
7.00333
8.40691
14.2362
30.4918
23.9714
7.37077
6.99819
8.16912
13.4721
29.3574
23.2713
7.28734
6.96568
8.10604
13.3586
28.5189
22.8311
7.49858
6.99696
7.96277
13.4846
27.7353
22.142
8.23312
7.19945
6.96296
9.0903
25.5022
33.2699
16.2245
9.19885
7.26945
8.53366
25.3453
32.6165
15.1853
8.94816
7.24552
7.72885
25.5242
31.1697
14.276
8.60672
7.18956
7.59173
24.7171
30.3193
14.0697
8.49708
7.23901
7.74095
24.1996
29.6314
14.1242
8.50183
7.31112
7.94645
23.7186
28.8374
14.1284
8.32011
7.53163
8.58562
22.8358
26.4563
9.39388
7.29764
9.52736
17.8697
33.0061
26.5119
8.91778
7.74249
9.29046
15.6178
33.2464
26.0518
8.10411
7.65605
9.06957
14.929
31.8781
25.2368
8.16601
7.67368
9.0252
14.8541
30.8753
24.7257
8.4416
7.75892
8.89512
14.7549
30.0141
23.9886
9.06
7.92607
7.69201
9.98483
27.8236
35.4664
18.3511
10.2038
8.11986
9.45817
27.766
35.1201
16.6295
9.93995
8.01817
8.6577
27.7826
34.0596
15.8236
9.61701
7.95282
8.52534
26.9677
32.8627
15.5942
9.49151
7.97688
8.7077
26.2711
32.0798
15.605
9.28765
8.14515
9.42496
25.3387
29.4932
10.3309
7.90624
10.5744
20.0628
36.5843
29.354
9.9478
8.4433
10.2894
17.331
36.6748
28.7198
8.96299
8.30283
10.0126
16.5065
34.9917
27.7525
8.95901
8.26045
9.88261
16.2858
34.0873
27.1917
9.12453
8.32023
9.72807
16.2913
33.3685
26.5199
9.86375
8.50002
8.28095
10.9811
30.9352
39.1927
20.615
11.2526
8.8462
10.4819
30.8488
39.0165
18.5022
10.9964
8.73716
9.57985
30.5382
37.5055
17.6693
10.6615
8.67619
9.52249
29.5714
36.3925
17.3806
10.5305
8.6981
9.64268
28.9225
35.6826
17.3743
10.2925
8.86489
10.3672
28.2522
32.9472
11.4683
8.62695
11.79
21.8195
41.1377
32.5079
11.0443
9.26075
11.4954
19.3721
40.5418
31.6639
10.0869
9.16859
11.1914
18.429
39.0849
30.7595
10.0483
9.14239
10.9797
18.4412
38.2304
30.4344
11.01
9.25966
9.03975
12.3085
35.5355
45.4924
22.9976
12.7697
9.69917
11.6556
34.9
43.6159
20.6954
12.2696
9.53875
10.6089
34.1493
42.1721
19.7383
11.8413
9.42471
10.5099
32.7813
40.4151
19.4678
11.465
9.49195
11.3735
31.8371
37.4485
12.6019
9.27366
13.0421
25.5223
45.4603
36.7103
12.3022
10.0648
12.6178
21.4664
45.9126
35.3248
10.7963
9.83845
12.3112
20.5423
43.9712
34.5743
11.0098
9.8288
12.131
20.6791
42.9507
33.893
12.0713
9.91187
9.72959
13.6261
39.7176
50.9948
25.4476
14.1831
10.4535
12.7535
38.5385
48.5068
23.0006
13.5332
10.3275
11.6009
37.6473
46.8323
21.898
13.0282
10.1965
11.5711
36.5453
45.4108
21.6627
12.6018
10.2662
12.4616
35.8486
42.1149
13.9531
10.0437
14.65
27.0206
52.769
40.5535
13.3194
10.94
14.1412
24.2921
51.2092
39.6267
12.2804
10.8525
13.7235
23.0475
49.398
38.7178
12.2187
10.8368
13.5174
23.1019
48.2912
38.2431
13.4285
10.9297
10.7682
15.181
44.9648
55.9567
29.4678
15.8923
11.7079
14.5524
43.121
54.2255
25.812
15.1384
11.4661
13.1485
41.8936
52.3237
24.6839
14.4093
11.3514
13.9513
40.9692
47.814
15.3815
11.1415
16.7066
31.0536
60.7824
45.7556
15.0573
12.1969
15.9188
27.3489
57.4059
44.5131
13.7814
12.0162
15.3769
26.044
55.7061
43.5126
13.6507
11.9707
15.0613
25.9704
54.3211
42.7281
14.8656
12.0198
11.9162
16.771
50.2714
62.1152
33.7341
17.7767
13.0612
16.5035
48.4675
60.8884
29.2119
17.0511
12.8641
14.8328
47.2905
59.0176
27.9931
16.2629
12.7356
15.7342
45.8214
54.0115
17.5775
12.5683
18.888
35.814
67.7426
52.4477
17.3216
13.7739
18.1253
31.254
65.7096
50.7672
15.8473
13.5964
17.3105
29.8896
63.1013
49.3446
16.7566
13.4706
13.3736
18.88
57.7228
71.3187
38.3778
20.1842
14.5861
18.7283
54.8671
68.7862
33.4586
19.091
14.2324
17.7684
53.0851
62.1391
19.6969
14.0512
21.2824
40.2538
77.0633
58.4341
19.1139
15.2688
20.4812
35.449
74.1159
57.0298
17.7576
14.9492
19.4085
33.7233
71.0178
55.4976
18.6319
14.7044
14.6049
21.1475
64.9627
80.5644
42.4814
22.5245
15.9437
20.5359
61.9097
77.5258
37.0275
21.0788
15.3238
19.3412
59.5966
69.5558
21.3947
15.1638
23.4746
44.7755
85.9989
65.5145
21.1868
16.5041
22.0603
38.9094
82.2986
62.8081
20.4699
15.9388
15.8071
23.0411
74.0042
92.2298
48.5837
25.1028
17.3693
22.4642
69.921
87.1287
41.5954
23.3979
16.4938
21.1776
66.3293
77.1722
23.6326
16.3279
25.8732
49.2597
95.7353
72.3907
23.0249
17.838
24.1594
42.7835
90.4115
69.2951
22.1096
17.0874
16.9932
24.6214
81.1852
100.945
52.3915
27.0714
18.5441
23.6151
74.3768
95.4786
45.3734
25.4869
17.6798
23.1157
72.8505
85.1938
25.5329
17.5624
28.1155
55.1448
104.415
80.0471
25.3218
19.265
26.2515
47.0267
99.8516
76.2749
23.8843
18.4309
18.3094
26.7237
88.5113
109.395
56.8283
29.3581
20.0257
26.3051
82.5715
103.557
48.9207
27.2781
19.0539
24.8995
78.2863
90.488
26.5241
18.8282
29.893
59.7308
114.416
86.6766
28.1397
20.2974
20.054
30.2743
100.441
122.583
64.8624
32.8404
22.0853
29.2523
93.6487
116.049
54.3974
30.3174
20.7077
26.9572
87.9298
101.332
30.0602
20.6075
32.7711
65.2103
124.397
94.4456
31.0723
22.033
21.6241
31.5839
108.711
135.031
70.1364
34.9139
22.8725
32.6823
101.893
117.985
33.9472
22.4782
37.4806
74.8217
144.136
107.67
32.8534
24.5906
34.1702
61.8818
132.199
99.0575
30.0984
22.9071
22.8155
33.392
113.671
138.971
73.0492
36.4627
24.2324
34.4074
104.663
119.673
34.5806
23.7828
38.3066
76.6286
149.705
112.314
35.6124
25.0685
24.6863
37.4998
129.152
159.021
81.8056
40.408
26.1232
37.401
117.889
133.949
38.7988
25.7041
41.7619
83.6212
162.896
121.422
38.2623
26.8591
26.4995
39.8709
138.535
170.444
85.8942
42.9573
27.3957
38.8983
126.232
142.475
46.0805
27.8481
28.0762
50.3786
165.065
201.595
100.582
49.626
29.7274
43.927
145.401
163.492
44.3806
29.0093
47.6819
98.1406
194.59
142.702
42.5767
29.1739
29.0373
46.5624
158.622
183.285
51.6913
29.2039
52.8536
112.806
224.749
161.167
46.503
30.8808
31.1968
53.1205
177.348
200.319
58.2684
31.3918
56.7794
114.321
244.814
169.63
47.9863
32.1514
32.0183
53.1165
187.199
213.712
58.3577
31.8707
57.5758
122.438
259.691
182.172
50.2017
32.4546
31.2519
48.5562
197.18
224.624
69.6531
33.3991
32.4674
55.8128
248.351
274.321
150.817
63.3968
34.4921
56.2591
196.53
222.317
56.5373
33.4217
33.6246
68.648
249.179
267.833
61.4949
31.8303
33.8273
78.8004
289.359
305.05
74.8096
31.8336
63.8128
162.513
323.937
207.479
55.4961
32.7016
31.0369
53.512
224.306
247.807
65.5344
30.8121
30.032
64.9017
262.893
274.108
66.7419
29.5583
29.433
72.1468
275.692
272.577
75.5884
29.3541
29.328
78.5586
265.325
252.727
82.3208
29.4395
29.5784
85.2783
239.099
225.527
89.0832
29.9742
30.3707
92.8604
212.478
200.249
97.743
31.2328
31.9107
102.459
189.123
179.094
107.031
33.2081
34.2034
111.422
170.086
162.001
115.683
35.849
37.1523
119.8
154.749
148.332
123.772
39.1238
40.995
127.142
142.65
137.66
130.322
43.5116
45.8077
133.008
133.239
129.343
135.637
48.6607
51.0376
138.079
125.899
122.887
140.454
53.9684
56.3927
142.62
120.24
117.948
144.706
59.376
61.8458
146.567
115.948
114.241
148.347
64.8756
67.3978
149.912
112.766
111.524
151.406
70.4817
73.0762
152.677
110.455
109.562
153.866
76.246
78.9008
154.826
108.792
108.15
155.689
82.1237
84.7016
156.351
107.595
107.143
156.942
87.7578
90.1542
157.349
106.756
106.449
157.706
93.0061
95.21
157.908
106.188
105.985
158.068
97.8616
99.8664
158.096
105.813
105.679
158.069
102.304
104.086
157.977
105.561
105.48
157.852
106.289
107.827
157.587
105.4
105.344
157.386
109.766
111.052
156.999
105.298
105.26
156.699
112.723
113.765
156.225
105.234
105.206
155.838
115.183
116.005
155.303
105.186
105.153
154.851
117.192
117.823
154.278
105.13
105.088
153.781
118.798
119.256
153.188
105.059
105.003
152.66
120.04
120.357
152.061
104.964
104.895
151.513
120.963
121.17
150.923
104.846
104.762
150.365
121.617
121.744
149.791
104.702
104.61
149.235
122.051
122.117
148.683
104.545
104.446
148.137
122.307
122.323
147.606
104.373
104.27
147.076
122.4
122.381
146.563
104.192
104.086
146.056
122.386
122.319
145.559
104.002
103.895
145.078
122.293
122.176
144.601
103.809
103.701
144.151
122.113
121.93
143.694
103.614
103.508
143.265
121.843
121.619
142.83
103.422
103.316
142.42
121.517
121.267
142.006
103.23
103.125
141.613
121.157
120.897
141.225
103.042
102.937
140.848
120.783
120.525
140.485
102.855
102.752
140.124
120.406
120.16
139.791
102.673
102.574
139.445
120.041
119.818
139.139
102.498
102.402
138.812
119.7
119.498
138.534
102.33
102.238
138.228
119.39
119.209
137.974
102.17
102.081
137.691
119.112
118.953
137.464
102.019
101.936
137.204
118.869
118.736
137.002
101.88
101.802
136.767
118.665
118.554
136.588
101.753
101.681
136.377
118.498
118.411
136.222
101.639
101.573
136.033
118.37
118.305
135.9
101.539
101.48
135.733
118.278
118.235
135.622
101.453
101.402
135.474
118.221
118.198
135.383
101.381
101.339
135.254
118.197
118.194
135.181
101.323
101.29
135.069
118.207
118.219
135.013
101.279
101.256
134.917
118.241
118.272
134.875
101.25
101.236
134.795
118.303
118.35
134.764
101.235
101.231
134.701
118.387
118.449
134.678
101.234
101.237
134.631
118.492
118.565
134.615
101.246
101.253
134.582
118.614
118.698
134.574
101.269
101.28
134.553
118.751
118.844
134.551
101.304
101.319
134.544
118.901
119.003
134.549
101.349
101.368
134.55
119.062
119.17
134.561
101.403
101.426
134.567
119.232
119.346
134.587
101.465
101.491
134.597
119.409
119.528
134.625
101.535
101.565
134.639
119.593
119.715
134.675
101.612
101.645
134.692
119.781
119.906
134.735
101.695
101.731
134.755
119.972
120.099
134.803
101.784
101.822
134.827
120.166
120.294
134.88
101.878
101.918
134.905
120.361
120.49
134.963
101.976
102.018
134.99
120.556
120.684
135.051
102.078
102.123
135.081
120.75
120.878
135.145
102.184
102.231
135.176
120.942
121.069
135.243
102.294
102.343
135.274
121.132
121.257
135.344
102.407
102.458
135.376
121.318
121.441
135.447
102.523
102.575
135.481
121.501
121.62
135.553
102.641
102.694
135.587
121.679
121.795
135.66
102.761
102.815
135.695
121.852
121.965
135.769
102.883
102.937
135.804
122.02
122.13
135.878
103.006
103.06
135.913
122.182
122.289
135.987
103.129
103.184
136.022
122.34
122.443
136.097
103.253
103.307
136.132
122.491
122.591
136.206
103.376
103.431
136.241
122.637
122.733
136.315
103.5
103.555
136.349
122.778
122.87
136.423
103.623
103.678
136.457
122.912
123
136.529
103.746
103.801
136.563
123.04
123.125
136.634
103.87
103.924
136.668
123.163
123.244
136.739
103.993
104.047
136.772
123.28
123.358
136.842
104.116
104.17
136.874
123.392
123.466
136.943
104.239
104.293
136.974
123.498
123.568
137.042
104.363
104.417
137.073
123.599
123.665
137.14
104.487
104.542
137.171
123.694
123.757
137.236
104.612
104.667
137.267
123.784
123.844
137.331
104.738
104.793
137.361
123.869
123.926
137.425
104.865
104.919
137.455
123.949
124.003
137.519
104.991
105.045
137.549
124.025
124.076
137.612
105.116
105.169
137.642
124.097
124.144
137.705
105.24
105.291
137.734
124.163
124.21
137.797
105.362
105.41
137.825
124.226
124.278
137.891
105.481
105.529
137.921
124.295
124.336
137.98
105.598
105.641
138.008
124.352
124.392
138.077
105.716
105.751
138.095
124.406
124.439
138.155
105.865
105.896
138.171
124.446
124.462
138.232
105.988
106.018
138.252
124.506
124.519
138.108
106.126
106.025
137.83
124.678
124.445
137.413
106.304
106.999
137.217
124.324
124.381
137.596
107.412
116.115
72.1607
43.2232
40.4465
41.3851
45.6023
49.1451
54.7694
56.9052
63.8531
67.6805
68.8011
68.9649
68.4384
67.9081
67.6008
67.5029
67.5423
67.6511
67.7862
67.9247
68.0555
68.174
68.2787
68.3697
68.4476
68.5128
68.5665
68.6081
68.6389
68.6594
68.6715
68.6771
68.6841
68.6971
68.7164
68.7417
68.7718
68.8066
68.8452
68.8881
68.9355
68.9881
69.0469
69.1132
69.2041
69.3512
69.5686
69.8336
70.1107
70.3772
70.6245
70.8512
71.0587
71.2484
71.4216
71.579
71.7215
71.8496
71.9643
72.0666
72.1578
72.2394
72.3129
72.3797
72.4411
72.4982
72.552
72.6033
72.6529
72.7016
72.7499
72.7986
72.8482
72.8992
72.952
73.0072
73.0651
73.1261
73.1903
73.258
73.3293
73.4043
73.4828
73.5648
73.6501
73.7384
73.8293
73.9226
74.0179
74.1146
74.2125
74.3111
74.41
74.5088
74.6071
74.7047
74.8012
74.8963
74.9898
75.0816
75.1714
75.2592
75.3448
75.4281
75.5092
75.5878
75.6641
75.7381
75.8097
75.8789
75.9459
76.0106
76.0732
76.1336
76.1919
76.2481
76.3025
76.3549
76.4056
76.4545
76.5017
76.5473
76.5913
76.6339
76.675
76.7148
76.7533
76.7905
76.8266
76.8615
76.8954
76.9282
76.9601
76.9911
77.0211
77.0504
77.0789
77.1066
77.1336
77.1599
77.1856
77.2107
77.2353
77.2593
77.2829
77.3059
77.3286
77.3508
77.3727
77.3942
77.4154
77.4362
77.4569
77.4773
77.4974
77.5174
77.5372
77.5569
77.5764
77.5959
77.6152
77.6346
77.6539
77.6732
77.6925
77.7118
77.7313
77.7508
77.7704
77.7902
77.8102
77.8303
77.8507
77.8713
77.8923
77.9135
77.9351
77.9571
77.9795
78.0023
78.0257
78.0495
78.074
78.099
78.1248
78.1512
78.1785
78.2065
78.2355
78.2654
78.2962
78.3282
78.3611
78.3952
78.4302
78.4662
78.503
78.5403
78.5778
78.6151
78.6513
78.6843
78.7101
78.7271
78.7359
78.7429
78.7492
78.7484
78.7469
78.7421
78.725
78.6803
78.5851
78.4297
78.2228
77.9823
77.7256
77.4619
77.1937
76.9201
76.6388
76.3479
76.0464
75.7335
75.4092
75.0735
74.7268
74.3693
74.0011
73.6225
73.2338
72.8352
72.4269
72.0093
71.5827
71.1475
70.7041
70.2529
69.7944
69.329
68.8572
68.3795
67.8964
67.4085
66.9163
66.4202
65.921
65.419
64.915
64.4094
63.9029
63.396
62.8893
62.3834
61.8788
61.3762
60.876
60.379
59.8856
59.3965
58.9121
58.433
57.9598
57.4931
57.0333
56.581
56.1367
55.7009
55.274
54.8566
54.4491
54.0519
53.6654
53.2901
52.9262
52.5743
52.2349
51.9083
51.595
51.295
51.0078
50.7323
50.4665
50.2094
49.9625
49.7346
49.5442
49.4104
49.3363
49.3024
49.2848
49.2672
49.2226
49.0557
48.1996
46.6678
45.5489
45.1389
43.9823
43.6586
42.52
42.2615
41.1708
40.9711
39.9198
39.77
38.758
38.6503
37.676
37.6036
36.6646
36.6221
35.7155
35.6982
34.8227
34.8258
33.9833
33.9999
33.1851
33.2137
32.4253
32.4654
31.7031
31.7549
31.0186
31.0808
30.3686
30.44
29.7498
29.829
29.1588
29.2445
28.5927
28.6839
28.0488
28.1447
27.525
27.6246
27.0192
27.1221
26.5299
26.6355
26.0553
26.163
25.5938
25.703
25.144
25.2542
24.7048
24.8157
24.2751
24.3865
23.8542
23.9656
23.4409
23.552
23.0344
23.1449
22.634
22.7436
22.239
22.3475
21.8488
21.9561
21.4631
21.5689
21.0814
21.1855
20.7034
20.8057
20.3291
20.4295
19.9588
20.0575
19.5933
19.6904
19.2334
19.3293
18.8808
18.9759
18.5374
18.6323
18.2059
18.3018
17.8902
17.9879
17.5935
17.6939
17.3186
17.4227
17.0687
17.1772
16.8445
16.9587
16.6512
16.774
16.4953
16.6279
16.3748
16.5171
16.2868
16.4383
16.229
16.3897
16.1998
16.3692
16.1964
16.3739
16.2156