/*--------------------------------*- C++ -*----------------------------------*\
| =========                 |                                                 |
| \\      /  F ield         | OpenFOAM: The Open Source CFD Toolbox           |
|  \\    /   O peration     | Version:  v2006                                 |
|   \\  /    A nd           | Website:  www.openfoam.com                      |
|    \\/     M anipulation  |                                                 |
\*---------------------------------------------------------------------------*/
FoamFile
{
    version     2.0;
    format      ascii;
    class       volScalarField;
    location    "0.055";
    object      Ma;
}
// * * * * * * * * * * * * * * * * * * * * * * * * * * * * * * * * * * * * * //

dimensions      [0 0 0 0 0 0 0];


internalField   nonuniform List<scalar> 
16277
(
0.13939
0.139391
0.13939
0.139389
0.139389
0.139385
0.139371
0.139326
0.139223
0.139061
0.138856
0.138629
0.138396
0.138162
0.137925
0.137685
0.137437
0.137179
0.136911
0.136631
0.13634
0.136038
0.135725
0.1354
0.135066
0.13472
0.134364
0.133998
0.133622
0.133236
0.13284
0.132435
0.132021
0.131598
0.131167
0.130728
0.130281
0.129828
0.129367
0.1289
0.128427
0.127949
0.127466
0.126978
0.126487
0.125992
0.125494
0.124994
0.124492
0.123989
0.123485
0.122981
0.122477
0.121975
0.121474
0.120975
0.12048
0.119988
0.119499
0.119016
0.118538
0.118066
0.1176
0.117142
0.116691
0.116248
0.115815
0.115391
0.114977
0.114573
0.114181
0.1138
0.113431
0.113075
0.112732
0.112403
0.112087
0.111782
0.111486
0.111196
0.110909
0.110633
0.11039
0.110219
0.110144
0.110142
0.110172
0.110207
0.110235
0.110232
0.110211
0.110141
0.109962
0.109665
0.10918
0.108622
0.106572
0.105257
0.108647
0.109316
0.109386
0.108499
0.103772
0.102304
0.108323
0.10945
0.109443
0.108053
0.100955
0.0997107
0.107767
0.109402
0.109289
0.107397
0.0985496
0.0975001
0.10706
0.10917
0.108998
0.106678
0.0965074
0.0956375
0.106347
0.108846
0.108639
0.105946
0.0947949
0.0940427
0.105608
0.108453
0.108216
0.105198
0.0933005
0.09263
0.104858
0.108009
0.107754
0.104448
0.0919645
0.0913629
0.104117
0.107538
0.107264
0.103703
0.0907491
0.0901904
0.103371
0.107034
0.106742
0.102953
0.0896133
0.0890906
0.102624
0.106503
0.106204
0.10221
0.0885511
0.0880585
0.101886
0.10596
0.105652
0.101472
0.0875443
0.0870734
0.10115
0.105401
0.105085
0.100735
0.0865786
0.0861246
0.100414
0.104828
0.104503
0.0999978
0.0856449
0.0852039
0.0996768
0.104239
0.103906
0.0992579
0.0847357
0.0843045
0.0989353
0.103635
0.103293
0.0985128
0.0838447
0.0834204
0.0981874
0.103016
0.102664
0.0977605
0.0829666
0.0825471
0.0974312
0.102379
0.102017
0.0969991
0.0820973
0.0816807
0.0966651
0.101724
0.101353
0.0962272
0.0812334
0.0808181
0.0958875
0.10105
0.100669
0.095443
0.0803718
0.0799566
0.0950965
0.100357
0.0999646
0.0946447
0.0795098
0.0790934
0.0942907
0.0996425
0.0992388
0.0938309
0.0786452
0.0782263
0.0934688
0.0989059
0.09849
0.0930001
0.0777753
0.0773528
0.0926291
0.0981459
0.0977173
0.0921507
0.076898
0.0764709
0.0917699
0.0973611
0.0969192
0.091281
0.0760111
0.0755782
0.0908896
0.0965503
0.0960944
0.0903894
0.0751124
0.0746728
0.0899863
0.095712
0.0952414
0.0894741
0.0742
0.0737526
0.0890586
0.0948449
0.094359
0.0885335
0.0732718
0.0728158
0.0881049
0.0939476
0.0934458
0.0875662
0.072326
0.0718606
0.0871237
0.0930189
0.0925007
0.0865709
0.0713612
0.0708855
0.0861138
0.0920577
0.0915226
0.0855464
0.0703759
0.0698895
0.0850743
0.0910632
0.0905109
0.0844918
0.0693692
0.0688718
0.0840044
0.0900347
0.0894651
0.0834069
0.0683406
0.0678323
0.0829041
0.0889721
0.0883854
0.0822917
0.0672904
0.0667717
0.0817739
0.0878759
0.0872727
0.0811474
0.0662198
0.0656917
0.0806155
0.0867474
0.0861287
0.079976
0.0651309
0.0645948
0.0794314
0.085589
0.0849565
0.0787808
0.0640269
0.0634849
0.0782255
0.0844042
0.0837601
0.0775662
0.0629124
0.0623676
0.0770032
0.083198
0.0825455
0.0763386
0.061794
0.0612502
0.0757718
0.081977
0.0813202
0.0751065
0.0606799
0.0601425
0.0745411
0.0807501
0.0800945
0.0738808
0.0595813
0.0590568
0.0733234
0.0795289
0.0788813
0.0726755
0.0585122
0.0580089
0.0721344
0.0783279
0.0776969
0.0715081
0.0574899
0.057018
0.0709934
0.0771654
0.0765615
0.0703999
0.0565357
0.0561074
0.0699241
0.0760634
0.0754995
0.0693768
0.0556748
0.055304
0.0689541
0.0750484
0.0745386
0.0684681
0.0549358
0.0546415
0.0681127
0.0741497
0.0737104
0.0677057
0.0543528
0.054165
0.0674347
0.0733978
0.0730468
0.0671246
0.0539673
0.0538991
0.066959
0.0728343
0.0725838
0.06676
0.0538024
0.0538654
0.0667139
0.0724856
0.0723471
0.0666368
0.0538774
0.0540753
0.0667173
0.0723713
0.0723524
0.066768
0.0541989
0.0545177
0.0669667
0.0724924
0.0725856
0.0671332
0.0547491
0.055202
0.0674668
0.0728588
0.0730793
0.0677658
0.0555633
0.0561438
0.0682373
0.0734909
0.0738325
0.0686559
0.0566079
0.0572529
0.0692148
0.0743345
0.0747596
0.0697111
0.057771
0.0584537
0.0703329
0.0753312
0.075816
0.0708809
0.0589979
0.0596938
0.07154
0.076434
0.0769588
0.0721178
0.060243
0.0609342
0.0727945
0.0776046
0.0781509
0.0733826
0.0614711
0.0621409
0.074058
0.0788061
0.0793558
0.0746386
0.0626485
0.0632824
0.075296
0.0800035
0.0805407
0.075853
0.0637473
0.064334
0.0764785
0.0811662
0.0816772
0.0769989
0.0647461
0.0652772
0.0775815
0.0822685
0.0827422
0.0780549
0.0656293
0.0660997
0.078586
0.0832898
0.0837175
0.0790031
0.0663904
0.0667972
0.0794773
0.0842144
0.0845885
0.079832
0.0670307
0.0673707
0.0802475
0.085031
0.085351
0.0805419
0.0675474
0.0678232
0.0808987
0.0857379
0.0860042
0.0811339
0.0679462
0.0681625
0.0814343
0.086336
0.0865503
0.0816138
0.0682373
0.0684008
0.0818619
0.08683
0.0869959
0.0819908
0.0684339
0.0685534
0.0821927
0.0872292
0.0873529
0.0822778
0.0685522
0.068636
0.0824402
0.0875462
0.087633
0.0824885
0.0686085
0.0686652
0.0826181
0.0877918
0.0878473
0.0826358
0.0686176
0.0686538
0.0827389
0.087978
0.0880084
0.0827323
0.068591
0.0686124
0.0828143
0.0881164
0.0881263
0.0827886
0.068539
0.0685495
0.0828539
0.0882156
0.0882093
0.0828134
0.0684688
0.0684724
0.0828662
0.0882848
0.0882655
0.0828146
0.0683873
0.0683867
0.082858
0.0883293
0.0882996
0.0827979
0.0682985
0.0682944
0.0828336
0.0883541
0.088317
0.0827674
0.0682042
0.0681993
0.0827984
0.0883657
0.0883225
0.0827275
0.0681078
0.0681038
0.0827549
0.0883658
0.0883176
0.082681
0.0680131
0.0680088
0.0827058
0.0883583
0.0883067
0.0826302
0.0679194
0.0679154
0.0826529
0.0883443
0.08829
0.0825747
0.0678255
0.067824
0.082597
0.0883236
0.0882669
0.0825178
0.0677346
0.0677332
0.0825399
0.0883016
0.0882435
0.0824601
0.067644
0.067647
0.0824858
0.088282
0.0882236
0.0824074
0.0675628
0.0675664
0.082433
0.0882599
0.0882027
0.0823586
0.0674878
0.0674932
0.0823869
0.0882537
0.0882116
0.0823245
0.0674103
0.067509
0.082398
0.0882958
0.0882837
0.0824047
0.0674866
0.0677149
0.0826193
0.0884786
0.0886419
0.0828569
0.0681364
0.0689736
0.083425
0.0891691
0.0907124
0.0857232
0.072285
0.0715748
0.082991
0.0882001
0.0916136
0.0941279
0.0955832
0.0960839
0.0963892
0.0969931
0.0972356
0.0975016
0.0976211
0.097723
0.0977454
0.0977134
0.0976393
0.0974445
0.0972426
0.0967364
0.0964476
0.0961266
0.0957312
0.0950544
0.0933157
0.0895881
0.0817583
0.0717885
0.0512364
0.0496398
0.0707576
0.0809326
0.0800945
0.0697834
0.0483487
0.0475278
0.0691397
0.0795596
0.0793065
0.0688928
0.0469428
0.0468596
0.0687709
0.0791914
0.0790788
0.0686632
0.0465395
0.046525
0.0685913
0.0790887
0.0790988
0.0685995
0.0465353
0.0465627
0.0686236
0.0791216
0.0791499
0.0686589
0.0466027
0.0466498
0.0687033
0.0791864
0.0792211
0.0687491
0.0467015
0.046751
0.0687951
0.0792589
0.0792974
0.0688436
0.0468047
0.0468614
0.0688969
0.0793413
0.0793809
0.0689479
0.0469171
0.046975
0.069002
0.079426
0.0794678
0.0690536
0.0470298
0.0470905
0.0691104
0.0795156
0.0795601
0.0691668
0.0471524
0.0472132
0.0692228
0.0796058
0.0796519
0.0692807
0.0472769
0.0473403
0.0693397
0.0797004
0.0797461
0.0693987
0.0474064
0.0474748
0.0694611
0.0797967
0.0798432
0.0695191
0.047539
0.0476054
0.0695814
0.0798954
0.0799422
0.0696407
0.0476714
0.0477384
0.0697023
0.0799926
0.0800442
0.069765
0.0478074
0.0478735
0.0698271
0.0800969
0.0801454
0.0698886
0.0479421
0.0480128
0.0699533
0.0801984
0.0802489
0.0700159
0.0480821
0.0481515
0.0700806
0.0803037
0.0803546
0.070144
0.0482226
0.0482957
0.0702109
0.0804103
0.0804637
0.0702778
0.0483702
0.0484445
0.0703461
0.0805202
0.080573
0.0704111
0.0485157
0.0485878
0.0704792
0.0806317
0.0806881
0.0705463
0.04866
0.0487345
0.070616
0.0807486
0.0808053
0.0706851
0.0488093
0.0488866
0.0707571
0.0808661
0.0809255
0.0708292
0.0489635
0.0490374
0.0709005
0.0809882
0.0810488
0.0709701
0.0491085
0.049183
0.071044
0.0811159
0.08118
0.0711175
0.049257
0.0493331
0.0711936
0.0812478
0.0813137
0.0712686
0.0494065
0.0494791
0.0713456
0.0813847
0.0814561
0.0714241
0.0495515
0.049624
0.0715045
0.081532
0.0816059
0.071584
0.0496931
0.0497635
0.0716674
0.0816865
0.0817673
0.0717525
0.0498327
0.0499019
0.0718404
0.0818538
0.0819398
0.071929
0.0499684
0.0500357
0.0720221
0.0820325
0.0821262
0.0721182
0.0501022
0.0501669
0.0722167
0.0822261
0.0823276
0.072316
0.0502265
0.0502876
0.0724217
0.0824377
0.0825506
0.072532
0.0503487
0.0504084
0.0726473
0.0826709
0.0827932
0.0727649
0.0504648
0.0505207
0.07289
0.0829258
0.083063
0.0730209
0.0505761
0.0506303
0.0731585
0.0832094
0.0833607
0.0733017
0.0506835
0.0507381
0.0734539
0.0835236
0.0836945
0.0736186
0.0508008
0.0508719
0.0737968
0.0838777
0.084066
0.0739823
0.050946
0.0510254
0.0741812
0.0842698
0.0844874
0.0743972
0.0511202
0.0512334
0.0746328
0.0847219
0.0849687
0.0748877
0.0513692
0.0515368
0.0751685
0.0852312
0.0855048
0.0754723
0.0517374
0.0519709
0.0758009
0.0857949
0.0861065
0.0761547
0.0522406
0.0525683
0.0765493
0.0864452
0.0868022
0.0769819
0.0529591
0.0534178
0.0774535
0.0871816
0.0875829
0.0779637
0.0539457
0.0545625
0.0785243
0.0880172
0.088486
0.0791401
0.0552761
0.0561311
0.0798424
0.0890093
0.0896035
0.0806742
0.0572049
0.058547
0.0816307
0.0902674
0.0909358
0.0826115
0.0598783
0.0611373
0.0835538
0.0915398
0.0920269
0.0843371
0.0623625
0.0634333
0.0847808
0.0923502
0.0926078
0.0854205
0.0644803
0.0654456
0.0857905
0.092815
0.0929607
0.0861994
0.0665215
0.0676642
0.0866054
0.0931158
0.0931368
0.0868884
0.0686972
0.0695906
0.0871455
0.0931218
0.0931108
0.087426
0.0705652
0.0716246
0.0876979
0.09311
0.0930709
0.0879252
0.0727198
0.0733415
0.0881235
0.0928813
0.0922631
0.0877289
0.0732599
0.0583942
0.0807348
0.089181
0.0916333
0.08396
0.0620999
0.0620884
0.084313
0.0917275
0.0916173
0.0845122
0.0630524
0.064298
0.0845965
0.0914399
0.0915083
0.0850578
0.0657824
0.0674297
0.0854083
0.0915042
0.0915671
0.0859236
0.0690156
0.0705221
0.0861829
0.091433
0.0914131
0.0866191
0.0720388
0.0734129
0.0869241
0.0913561
0.0912678
0.0872426
0.0746782
0.0750705
0.0870895
0.0906797
0.0883015
0.0817199
0.0646357
0.0687182
0.0847406
0.0903052
0.0903458
0.0851416
0.0696105
0.0712059
0.0857749
0.0904178
0.0903831
0.0860768
0.0724171
0.0735314
0.0862729
0.0902868
0.0901867
0.0865857
0.0747607
0.0753917
0.0865982
0.08988
0.0892381
0.0862042
0.0756622
0.0667007
0.0817725
0.0871246
0.0886028
0.0841817
0.069979
0.0709148
0.0843788
0.0884551
0.0881019
0.084453
0.0721311
0.0732721
0.0843809
0.0877011
0.0873537
0.0845046
0.0745241
0.0747998
0.0840825
0.0865031
0.0846351
0.0801034
0.0671127
0.0710901
0.0822023
0.0858508
0.0855496
0.0824548
0.0721165
0.0731313
0.0823718
0.0851054
0.08458
0.0822975
0.0737946
0.073691
0.0815441
0.0835337
0.0819248
0.0782807
0.0672048
0.0703694
0.0797034
0.0825124
0.0815921
0.0792592
0.0707417
0.0716244
0.0788545
0.0806992
0.0792736
0.0778674
0.0713721
0.0661094
0.0749926
0.0777454
0.0777796
0.0757013
0.068913
0.0689121
0.0747726
0.0763367
0.0747563
0.073638
0.0688089
0.0677221
0.0717633
0.0724592
0.0701435
0.0686915
0.0631048
0.0635269
0.0675522
0.068434
0.0650497
0.0646947
0.0616548
0.0568611
0.0608294
0.0618238
0.0586717
0.0582064
0.0558159
0.0517631
0.0526417
0.0525427
0.0451953
0.0449129
0.043713
0.034858
0.0347526
0.0351812
0.0239845
0.0220423
0.0206202
0.00593581
0.00913573
0.0150087
0.0295603
0.0279376
0.0283298
0.0536074
0.0519385
0.0512224
0.0693131
0.0707712
0.0722008
0.0833267
0.0831584
0.0822606
0.0867001
0.0866296
0.0854393
0.0890302
0.0917217
0.0917628
0.0932293
0.0924413
0.0889851
0.0909247
0.0952115
0.0958182
0.0968494
0.0952457
0.090571
0.0873753
0.0943675
0.0966711
0.0984364
0.096896
0.0894661
0.0867701
0.0949075
0.0975012
0.0994062
0.0976659
0.0904635
0.0894562
0.097037
0.0994561
0.0980991
0.0950256
0.086466
0.0898294
0.0977658
0.0997846
0.0996246
0.096795
0.0882945
0.0850431
0.0944602
0.0980009
0.0997566
0.0975325
0.0888934
0.0873571
0.0965365
0.0995669
0.0977448
0.0938935
0.083718
0.0875778
0.0968614
0.0995721
0.0992517
0.0960026
0.0864363
0.0831276
0.093414
0.0974453
0.0993077
0.0964864
0.0873125
0.0864184
0.0958136
0.0991074
0.0973066
0.0933533
0.0831806
0.0867206
0.0961271
0.098991
0.0988167
0.0954638
0.085808
0.0828651
0.0930719
0.0970264
0.0987703
0.0960278
0.0867201
0.0857106
0.0953707
0.0986779
0.096829
0.0928285
0.0824102
0.0865088
0.0958196
0.0986424
0.0985844
0.0953289
0.0855388
0.0840375
0.0941281
0.0981143
0.0954549
0.0908911
0.0793277
0.0836359
0.0946004
0.0976291
0.0979889
0.0940268
0.0826235
0.0792107
0.0911574
0.0958112
0.0978193
0.0945941
0.0839525
0.0825429
0.0936088
0.097552
0.0952962
0.0906563
0.0784404
0.0834236
0.0945272
0.0975676
0.0977708
0.0939358
0.0825179
0.0789773
0.0909531
0.095566
0.0977043
0.0944392
0.083536
0.0821385
0.0937166
0.097584
0.0954985
0.0907389
0.0787129
0.0837546
0.0945791
0.0979294
0.0978404
0.0938318
0.0826039
0.0788587
0.0908024
0.0956349
0.0978657
0.0945541
0.0834561
0.0825716
0.0937281
0.0979218
0.0958692
0.0911407
0.0792543
0.0839881
0.0950208
0.0981642
0.0984601
0.0942266
0.0830945
0.078987
0.0911485
0.0959002
0.0981269
0.0947941
0.0831256
0.0811099
0.0928562
0.0971708
0.0995723
0.0966847
0.0864856
0.0857983
0.0960628
0.0996328
0.0976956
0.0934085
0.0826604
0.0867909
0.0968421
0.0998646
0.0997318
0.0960061
0.0855084
0.0823346
0.0934314
0.0978802
0.100421
0.0973472
0.0871929
0.086508
0.0969526
0.100632
0.0986839
0.0943701
0.0834982
0.0877931
0.0979297
0.100822
0.100779
0.0970943
0.086427
0.0826771
0.0940273
0.0986739
0.101003
0.097885
0.0875168
0.0870965
0.0975246
0.101443
0.099415
0.0949181
0.0834734
0.0874361
0.0986879
0.101707
0.100441
0.0964278
0.0851237
0.0889512
0.0995518
0.102526
0.102387
0.0987032
0.0878498
0.0851966
0.0962984
0.100632
0.103088
0.100224
0.089925
0.0890911
0.0996062
0.103315
0.101246
0.0967901
0.0854466
0.0894555
0.100603
0.103539
0.102224
0.0982247
0.0869627
0.0910896
0.101391
0.104401
0.104594
0.101023
0.0907095
0.0881329
0.0987653
0.102968
0.105216
0.102323
0.0922929
0.0914835
0.101659
0.105345
0.103404
0.0990846
0.0879836
0.0916486
0.102717
0.105603
0.104211
0.100181
0.088926
0.0930571
0.103302
0.106223
0.106541
0.103039
0.0927584
0.0900444
0.100826
0.104925
0.107228
0.10446
0.0942808
0.0930017
0.103866
0.10741
0.105288
0.100844
0.0897561
0.0938517
0.104704
0.107703
0.106134
0.102278
0.090748
0.094933
0.105446
0.108375
0.108707
0.105
0.0946616
0.0914623
0.102548
0.106841
0.109272
0.106393
0.0953726
0.0934201
0.104482
0.10836
0.110663
0.107936
0.0978156
0.0965409
0.107006
0.11044
0.108273
0.103926
0.0932117
0.0965801
0.107413
0.110501
0.109418
0.105452
0.0943254
0.0993752
0.109257
0.111949
0.112095
0.108691
0.0985158
0.0953771
0.105823
0.110128
0.112538
0.109629
0.0991771
0.0968304
0.107746
0.111518
0.113733
0.110935
0.100815
0.0997364
0.109823
0.113447
0.111223
0.106947
0.0959444
0.0997425
0.110646
0.113428
0.112729
0.109025
0.0981446
0.102574
0.112679
0.115233
0.115364
0.112097
0.101509
0.0983934
0.109079
0.113341
0.115692
0.112914
0.102108
0.0994349
0.110732
0.114451
0.116748
0.114001
0.103271
0.100662
0.111504
0.115287
0.117202
0.114456
0.10437
0.103967
0.114059
0.117486
0.115821
0.11167
0.101225
0.105008
0.115503
0.118297
0.117328
0.113622
0.102822
0.106837
0.116989
0.119586
0.119489
0.116126
0.105464
0.10236
0.113104
0.117406
0.119709
0.11691
0.105879
0.102638
0.114389
0.118191
0.120378
0.117561
0.106352
0.104711
0.115831
0.119544
0.121964
0.119387
0.109298
0.108617
0.118673
0.122156
0.12038
0.116209
0.105465
0.108901
0.119959
0.122692
0.121478
0.117636
0.106462
0.110352
0.121148
0.123769
0.122594
0.119041
0.108313
0.111725
0.12188
0.124544
0.12428
0.12083
0.110361
0.107284
0.118022
0.122356
0.124897
0.122114
0.111291
0.109137
0.120275
0.124003
0.126396
0.123856
0.113166
0.111219
0.121886
0.125411
0.127574
0.125064
0.115158
0.114376
0.124227
0.127615
0.12579
0.121698
0.111142
0.114279
0.125192
0.127947
0.126578
0.122699
0.111673
0.115018
0.125966
0.128718
0.127749
0.12403
0.113172
0.117338
0.127396
0.129984
0.130161
0.126616
0.11674
0.113305
0.124325
0.128441
0.130729
0.128079
0.116705
0.114499
0.125887
0.12964
0.13182
0.129367
0.118223
0.116085
0.127189
0.130721
0.132783
0.130238
0.120001
0.119059
0.129107
0.13265
0.130603
0.12631
0.115152
0.118466
0.129897
0.132771
0.131858
0.127851
0.116649
0.120928
0.131866
0.134498
0.133455
0.129787
0.118977
0.122691
0.133281
0.135789
0.13475
0.13129
0.120735
0.124471
0.134356
0.136841
0.136784
0.133588
0.123415
0.12048
0.130667
0.134858
0.137111
0.13438
0.123473
0.120639
0.132188
0.13589
0.13812
0.135362
0.123943
0.12162
0.132974
0.136861
0.139209
0.136589
0.125837
0.124088
0.134717
0.138328
0.140564
0.138112
0.128181
0.127492
0.13729
0.140714
0.139001
0.134877
0.12409
0.127395
0.138618
0.141277
0.1402
0.136355
0.125149
0.128784
0.139925
0.142535
0.141267
0.137586
0.126532
0.130176
0.140897
0.143426
0.142245
0.138648
0.128048
0.131502
0.141599
0.144209
0.144306
0.140773
0.130875
0.127612
0.13847
0.142649
0.145044
0.142304
0.130999
0.128876
0.140117
0.144048
0.146452
0.143903
0.132686
0.13053
0.141632
0.145296
0.147451
0.144923
0.134094
0.132005
0.14279
0.146388
0.148505
0.14596
0.135942
0.134843
0.145246
0.148497
0.146494
0.142259
0.131764
0.13479
0.145989
0.14873
0.147602
0.143829
0.131884
0.136119
0.14756
0.150213
0.149148
0.145347
0.134191
0.137978
0.149016
0.15162
0.15046
0.146804
0.135873
0.139385
0.150125
0.152691
0.151697
0.148128
0.137516
0.141239
0.151345
0.153818
0.153891
0.150329
0.140479
0.136777
0.14797
0.152177
0.154512
0.151658
0.140113
0.137858
0.149212
0.153261
0.155448
0.152764
0.141197
0.138808
0.150264
0.154169
0.156597
0.153925
0.142793
0.14093
0.151848
0.15559
0.157936
0.155355
0.144581
0.142795
0.153474
0.157059
0.159338
0.156868
0.146907
0.146084
0.155984
0.159455
0.157694
0.153528
0.14263
0.146106
0.157341
0.16007
0.158962
0.155018
0.143884
0.147729
0.158883
0.161504
0.160332
0.15658
0.145506
0.148979
0.159996
0.162617
0.161346
0.157595
0.146742
0.150324
0.160976
0.163584
0.162697
0.159149
0.148582
0.152348
0.162437
0.1649
0.165057
0.16152
0.151694
0.148128
0.159248
0.163405
0.165739
0.16293
0.151241
0.149185
0.160635
0.164686
0.167144
0.164552
0.152906
0.150536
0.162177
0.165946
0.168312
0.165736
0.154348
0.152312
0.163505
0.167185
0.169398
0.166812
0.155821
0.153964
0.164792
0.168424
0.170705
0.168222
0.158054
0.157254
0.167302
0.170873
0.169164
0.164928
0.153845
0.157232
0.168808
0.171604
0.170618
0.166648
0.155154
0.159108
0.170655
0.173267
0.172091
0.168281
0.156753
0.160624
0.171912
0.174515
0.173437
0.169755
0.158686
0.162215
0.173171
0.175764
0.17482
0.171184
0.160358
0.164313
0.174574
0.177055
0.177185
0.173523
0.163517
0.159715
0.171313
0.175535
0.178069
0.175164
0.163221
0.161211
0.172771
0.176951
0.179433
0.176743
0.164962
0.162598
0.174352
0.178251
0.180799
0.178145
0.166452
0.16441
0.175893
0.179712
0.182147
0.179496
0.168099
0.166087
0.177269
0.181066
0.18354
0.180954
0.170026
0.168235
0.179049
0.182677
0.185021
0.182481
0.172414
0.171535
0.181861
0.185292
0.183603
0.179331
0.168578
0.172047
0.183346
0.186141
0.185181
0.181275
0.169741
0.173915
0.18531
0.187896
0.186807
0.183049
0.171801
0.17556
0.186696
0.189308
0.188259
0.184506
0.173629
0.177315
0.188069
0.190661
0.189743
0.186152
0.175462
0.179428
0.189593
0.192067
0.192262
0.188698
0.178486
0.175273
0.186423
0.190633
0.19317
0.190378
0.178777
0.176385
0.188009
0.192048
0.194661
0.19201
0.180329
0.178258
0.189823
0.19364
0.196135
0.193528
0.182044
0.18018
0.191423
0.195197
0.197815
0.19529
0.184239
0.182545
0.193496
0.197072
0.199461
0.197029
0.186801
0.185492
0.196202
0.199628
0.197911
0.193495
0.182554
0.186208
0.197686
0.200579
0.199525
0.195473
0.18369
0.187903
0.199575
0.202295
0.201183
0.197248
0.185734
0.189822
0.201181
0.20386
0.202927
0.19914
0.188003
0.191865
0.20287
0.205486
0.204706
0.201021
0.19006
0.19444
0.204759
0.207262
0.207743
0.204143
0.193682
0.19069
0.201931
0.20625
0.209001
0.206208
0.194596
0.192461
0.20408
0.208048
0.210713
0.208023
0.196296
0.193889
0.205551
0.209523
0.212011
0.209275
0.19772
0.195631
0.207062
0.210974
0.213649
0.211018
0.19983
0.1979
0.209117
0.212838
0.215354
0.21281
0.202229
0.201423
0.212234
0.215859
0.214341
0.209955
0.198568
0.202408
0.214201
0.21711
0.216196
0.212102
0.200248
0.20478
0.216476
0.219184
0.218414
0.214514
0.202898
0.207855
0.218963
0.221441
0.220734
0.217173
0.206104
0.209651
0.220506
0.223016
0.223057
0.219242
0.208284
0.204751
0.216875
0.221337
0.224107
0.221095
0.208612
0.206339
0.218789
0.223029
0.225936
0.223157
0.210804
0.208478
0.22082
0.224912
0.227759
0.224981
0.213127
0.211028
0.222941
0.226928
0.22972
0.227011
0.215925
0.215037
0.226746
0.230391
0.228838
0.22405
0.212443
0.216704
0.228939
0.231938
0.231363
0.227192
0.214608
0.220283
0.232335
0.234888
0.233858
0.229968
0.217912
0.221528
0.233554
0.236335
0.235214
0.231204
0.219108
0.223608
0.235094
0.23785
0.238087
0.233918
0.222362
0.218911
0.231725
0.236474
0.239674
0.236495
0.223578
0.22119
0.234168
0.238615
0.241709
0.2388
0.226086
0.223931
0.236608
0.240864
0.244191
0.24134
0.229028
0.226968
0.239443
0.243568
0.246632
0.243942
0.232237
0.231813
0.243775
0.247742
0.246616
0.242072
0.229544
0.23425
0.24705
0.249963
0.248556
0.244178
0.231037
0.235398
0.248314
0.251318
0.250097
0.245805
0.232868
0.237483
0.250136
0.253085
0.252115
0.24787
0.235154
0.240109
0.252156
0.255043
0.255601
0.251442
0.239049
0.236013
0.249026
0.253975
0.257252
0.254008
0.24095
0.238614
0.25195
0.256475
0.260133
0.257255
0.244425
0.242356
0.255488
0.259697
0.263149
0.260457
0.248245
0.248427
0.260754
0.264666
0.263189
0.258579
0.245723
0.249672
0.262907
0.266165
0.264598
0.259937
0.246339
0.251097
0.264524
0.267734
0.266585
0.262015
0.24852
0.253766
0.266856
0.269909
0.269159
0.264761
0.251616
0.257073
0.269432
0.27245
0.273318
0.269028
0.256181
0.25348
0.266543
0.271805
0.275306
0.272017
0.258813
0.256485
0.270038
0.274704
0.278745
0.275861
0.262701
0.261051
0.274444
0.278732
0.282595
0.28028
0.268813
0.268591
0.280391
0.283845
0.281762
0.276988
0.264156
0.267586
0.28112
0.284472
0.283175
0.278425
0.264425
0.269926
0.283576
0.286758
0.286002
0.281423
0.267499
0.27336
0.286385
0.289454
0.290456
0.286012
0.272416
0.269536
0.283437
0.288932
0.292516
0.289036
0.275341
0.272815
0.287074
0.291944
0.296167
0.293079
0.279752
0.279654
0.293757
0.298304
0.297628
0.292247
0.277918
0.28528
0.299053
0.301992
0.300739
0.296175
0.281963
0.285968
0.300391
0.303802
0.302273
0.297289
0.282439
0.288131
0.302145
0.305553
0.306226
0.301329
0.286791
0.283525
0.298707
0.304566
0.308632
0.304866
0.289894
0.287173
0.302792
0.307954
0.312325
0.309007
0.294571
0.294065
0.309281
0.314164
0.312883
0.306943
0.291219
0.298506
0.313751
0.317422
0.317762
0.312733
0.297144
0.306655
0.320376
0.323017
0.323927
0.319644
0.305108
0.299549
0.315334
0.32121
0.324449
0.320471
0.304531
0.30083
0.31745
0.323057
0.327248
0.323564
0.30818
0.307087
0.323213
0.32859
0.327026
0.32064
0.303798
0.311167
0.32764
0.331785
0.331228
0.325496
0.308368
0.317221
0.332865
0.336408
0.339069
0.333763
0.317155
0.314996
0.332086
0.338474
0.344271
0.341158
0.32618
0.323972
0.339402
0.343993
0.347754
0.344298
0.328885
0.325634
0.342294
0.347558
0.345029
0.338229
0.320997
0.327998
0.345173
0.349436
0.348471
0.342466
0.324632
0.332987
0.349483
0.353335
0.35533
0.34964
0.332349
0.329364
0.347237
0.354063
0.359467
0.355328
0.338321
0.336651
0.3544
0.360167
0.366683
0.363828
0.349083
0.352226
0.367287
0.371083
0.369759
0.364517
0.348856
0.352409
0.368856
0.372971
0.372459
0.366653
0.348625
0.343871
0.362507
0.370003
0.375151
0.370715
0.352278
0.349105
0.368245
0.374553
0.380232
0.376278
0.358846
0.359099
0.377453
0.383249
0.382714
0.375687
0.356758
0.36731
0.384524
0.388572
0.393196
0.387838
0.3693
0.369261
0.387491
0.393854
0.399733
0.395952
0.377943
0.372939
0.393197
0.399351
0.395886
0.387656
0.366603
0.37525
0.395628
0.400801
0.399585
0.392523
0.371477
0.382473
0.4013
0.40581
0.409089
0.402685
0.382912
0.381074
0.401261
0.40891
0.415659
0.411482
0.393708
0.397257
0.416191
0.421473
0.422798
0.416765
0.398242
0.407041
0.425277
0.428934
0.42821
0.422118
0.401361
0.394507
0.416572
0.424854
0.429931
0.424558
0.40429
0.402682
0.424525
0.431606
0.430758
0.422143
0.399642
0.41363
0.433734
0.438634
0.444298
0.437656
0.415897
0.418322
0.439845
0.447017
0.456335
0.453606
0.436059
0.432648
0.453016
0.457981
0.456762
0.449008
0.425245
0.416063
0.442832
0.452632
0.458758
0.452493
0.428626
0.427178
0.453255
0.461393
0.461788
0.451786
0.425328
0.446044
0.46774
0.472274
0.482321
0.477996
0.455537
0.459021
0.48195
0.487765
0.48373
0.474489
0.447677
0.455458
0.480933
0.487698
0.486788
0.478562
0.449657
0.446785
0.477387
0.487978
0.4874
0.476318
0.443423
0.471469
0.494966
0.499967
0.511246
0.506566
0.481809
0.481545
0.508206
0.515404
0.509386
0.498409
0.465806
0.476755
0.50548
0.513361
0.513694
0.50524
0.472637
0.47239
0.507792
0.518057
0.528503
0.519189
0.482643
0.482881
0.516115
0.52896
0.535928
0.527212
0.493434
0.481781
0.521254
0.532559
0.532224
0.519529
0.475842
0.478733
0.525151
0.537016
0.542176
0.528703
0.480081
0.468903
0.523122
0.540842
0.530007
0.507493
0.451139
0.482969
0.52388
0.53595
0.533305
0.521924
0.480626
0.470086
0.516669
0.530597
0.524446
0.507886
0.452004
0.434293
0.495816
0.514412
0.502329
0.481325
0.414152
0.391035
0.465913
0.490151
0.478963
0.451872
0.371096
0.355129
0.440182
0.469664
0.46185
0.43006
0.341492
0.329372
0.420846
0.454881
0.448473
0.412278
0.318443
0.308592
0.404267
0.442514
0.436925
0.396756
0.299616
0.291433
0.389682
0.431625
0.426572
0.383007
0.283982
0.277175
0.37669
0.421732
0.417098
0.370726
0.270975
0.265339
0.365104
0.41266
0.4084
0.359802
0.260212
0.255559
0.354804
0.404295
0.400337
0.350095
0.251336
0.247517
0.34567
0.396516
0.392828
0.341509
0.244069
0.240966
0.337606
0.389267
0.38583
0.333941
0.238175
0.235674
0.330504
0.382509
0.379299
0.32728
0.233436
0.231444
0.32426
0.376194
0.373191
0.321428
0.229673
0.228109
0.318778
0.370285
0.367474
0.316296
0.226728
0.225519
0.313978
0.364757
0.362134
0.31181
0.224459
0.223537
0.309785
0.359607
0.357175
0.307885
0.222737
0.222046
0.306107
0.354841
0.352599
0.304437
0.22145
0.220943
0.302872
0.35045
0.348384
0.301402
0.22051
0.220149
0.300026
0.346408
0.344512
0.298732
0.219849
0.219603
0.29752
0.342704
0.340973
0.29638
0.219404
0.219246
0.295311
0.339325
0.337751
0.294304
0.219121
0.219029
0.293359
0.336257
0.334831
0.292464
0.218968
0.218928
0.291622
0.333478
0.332191
0.290825
0.218914
0.218912
0.290079
0.330974
0.329818
0.289373
0.218928
0.218946
0.288712
0.328725
0.327687
0.288086
0.218976
0.219006
0.287503
0.326708
0.325778
0.28695
0.219044
0.219076
0.286434
0.3249
0.324065
0.285944
0.219113
0.219147
0.285489
0.323281
0.322535
0.285058
0.219183
0.219209
0.284656
0.321832
0.321164
0.284275
0.21924
0.219266
0.283924
0.32054
0.319946
0.283593
0.219295
0.219313
0.283284
0.319387
0.318852
0.282989
0.219332
0.219344
0.282716
0.318353
0.317875
0.282458
0.219359
0.219364
0.282217
0.317426
0.316996
0.281987
0.219372
0.219375
0.281775
0.316594
0.316208
0.281574
0.219381
0.21938
0.281383
0.315843
0.315493
0.281199
0.219381
0.219379
0.281029
0.315165
0.31485
0.280866
0.21938
0.219373
0.280712
0.314551
0.314263
0.280564
0.219368
0.21936
0.280426
0.313994
0.313735
0.280295
0.219355
0.219343
0.28017
0.313488
0.31325
0.280049
0.219334
0.219322
0.279938
0.313028
0.312812
0.279831
0.219313
0.219299
0.27973
0.312609
0.31241
0.279631
0.219285
0.21927
0.279541
0.312225
0.312047
0.279455
0.219258
0.219242
0.279372
0.311877
0.311715
0.279293
0.219227
0.219211
0.279219
0.31156
0.311418
0.27915
0.219199
0.219186
0.279087
0.311278
0.311149
0.279026
0.219174
0.219161
0.278969
0.311019
0.310905
0.278916
0.219151
0.219142
0.278868
0.310788
0.310687
0.278824
0.219135
0.219127
0.278782
0.310579
0.310491
0.278745
0.219124
0.21912
0.278712
0.310393
0.310315
0.278681
0.21912
0.219119
0.278654
0.310226
0.310159
0.27863
0.219123
0.219127
0.278609
0.310078
0.31002
0.278592
0.219135
0.219143
0.278575
0.309947
0.309899
0.278566
0.219157
0.21917
0.278556
0.309835
0.309795
0.278553
0.219188
0.219206
0.278549
0.309737
0.309706
0.278552
0.21923
0.219253
0.278554
0.309656
0.309633
0.278562
0.219281
0.219309
0.27857
0.309589
0.309575
0.278584
0.219343
0.219376
0.278597
0.309538
0.309531
0.278617
0.219413
0.21945
0.278634
0.309498
0.3095
0.278659
0.219492
0.219535
0.278682
0.309473
0.309481
0.278711
0.21958
0.219626
0.278738
0.309459
0.309475
0.278772
0.219676
0.219726
0.278804
0.309459
0.30948
0.278842
0.219778
0.219831
0.278878
0.309468
0.309495
0.278919
0.219887
0.219944
0.278959
0.309489
0.309521
0.279004
0.220002
0.220061
0.279047
0.309519
0.309555
0.279096
0.220122
0.220184
0.279143
0.309559
0.3096
0.279194
0.220247
0.220311
0.279244
0.309607
0.309652
0.279299
0.220376
0.220442
0.279351
0.309663
0.309712
0.279408
0.22051
0.220578
0.279464
0.309727
0.309781
0.279524
0.220647
0.220718
0.279583
0.309799
0.309857
0.279646
0.220789
0.220861
0.279707
0.309879
0.309941
0.279773
0.220935
0.221009
0.279837
0.309966
0.310032
0.279905
0.221084
0.22116
0.279972
0.31006
0.310129
0.280042
0.221236
0.221313
0.280111
0.31016
0.310232
0.280184
0.221391
0.221469
0.280254
0.310266
0.310341
0.280329
0.221548
0.221627
0.280402
0.310378
0.310456
0.280478
0.221706
0.221785
0.280552
0.310494
0.310574
0.280629
0.221865
0.221945
0.280705
0.310615
0.310697
0.280783
0.222025
0.222105
0.28086
0.310739
0.310823
0.28094
0.222185
0.222266
0.281017
0.310867
0.310953
0.281098
0.222345