/*--------------------------------*- C++ -*----------------------------------*\
| =========                 |                                                 |
| \\      /  F ield         | OpenFOAM: The Open Source CFD Toolbox           |
|  \\    /   O peration     | Version:  v2006                                 |
|   \\  /    A nd           | Website:  www.openfoam.com                      |
|    \\/     M anipulation  |                                                 |
\*---------------------------------------------------------------------------*/
FoamFile
{
    version     2.0;
    format      ascii;
    class       volScalarField;
    location    "0.17";
    object      alphat;
}
// * * * * * * * * * * * * * * * * * * * * * * * * * * * * * * * * * * * * * //

dimensions      [1 -1 -1 0 0 0 0];


internalField   nonuniform List<scalar> 
38932
(
0.104094
0.104096
0.104124
0.104121
0.104114
0.104103
0.104086
0.104063
0.104035
0.104002
0.103964
0.103921
0.103873
0.10382
0.103762
0.103699
0.103632
0.103559
0.103482
0.1034
0.103313
0.103221
0.103125
0.103024
0.102918
0.102808
0.102693
0.102574
0.10245
0.102322
0.102189
0.102053
0.101912
0.101766
0.101617
0.101464
0.101306
0.101145
0.10098
0.100811
0.100638
0.100462
0.100282
0.100099
0.099912
0.0997221
0.0995289
0.0993327
0.0991334
0.0989312
0.0987262
0.0985185
0.0983081
0.0980953
0.09788
0.0976624
0.0974427
0.0972209
0.0969971
0.0967715
0.0965441
0.0963152
0.0960849
0.0958532
0.0956202
0.0953863
0.0951513
0.0949156
0.0946792
0.0944423
0.094205
0.0939675
0.0937299
0.0934923
0.0932549
0.0930179
0.0927815
0.0925456
0.0923106
0.0920766
0.0918437
0.091612
0.0913818
0.0911532
0.0909264
0.0907014
0.0904786
0.0902579
0.0900397
0.089824
0.0896109
0.0894008
0.0891936
0.0889896
0.0887889
0.0885917
0.088398
0.0882082
0.0880222
0.0878402
0.0876624
0.0874889
0.0873198
0.0871552
0.0869953
0.0868402
0.0866899
0.0865446
0.0864044
0.0862694
0.0861395
0.086015
0.0858959
0.0857822
0.085674
0.0855715
0.0854746
0.0853835
0.0852984
0.0852192
0.0851457
0.0850763
0.0850042
0.0849012
0.0847672
0.0844356
0.0833968
0.079083
0.0640917
0.0229162
0.00837918
0.000314716
0.000326265
0.00353306
0.00945238
0.00655833
0.00238173
0.00032136
0.000312767
0.00187065
0.00512711
0.00440979
0.00157918
0.000303688
0.000292126
0.00140515
0.00391109
0.00360874
0.00130689
0.00028273
0.000273345
0.0012252
0.00341626
0.00328932
0.00118312
0.000265774
0.000259825
0.00115211
0.00319452
0.00312096
0.00112849
0.000254883
0.000250651
0.00110958
0.00305953
0.00300563
0.00109359
0.000247024
0.000243883
0.00107946
0.00295634
0.00290985
0.00106646
0.00024113
0.000238686
0.00105417
0.00286533
0.0028223
0.00104234
0.000236487
0.000234482
0.00103084
0.00278056
0.00274003
0.00101961
0.000232634
0.00023091
0.00100866
0.00270068
0.00266251
0.000997976
0.000229286
0.000227744
0.000987575
0.00262554
0.00258977
0.000977468
0.000226269
0.000224848
0.000967666
0.00255519
0.00252179
0.000958176
0.000223473
0.000222136
0.000948998
0.00248954
0.0024584
0.000940133
0.000220831
0.000219553
0.000931574
0.00242833
0.00239929
0.000923313
0.000218297
0.000217059
0.000915341
0.00237123
0.00234409
0.000907649
0.000215837
0.000214627
0.000900224
0.00231785
0.00229245
0.000893056
0.000213427
0.000212233
0.000886135
0.00226785
0.00224401
0.000879449
0.000211044
0.000209858
0.000872988
0.0022209
0.00219847
0.000866743
0.000208672
0.000207484
0.000860703
0.00217671
0.00215556
0.00085486
0.000206293
0.000205097
0.000849205
0.00213502
0.00211505
0.000843732
0.000203894
0.000202682
0.000838433
0.00209562
0.00207671
0.000833302
0.000201459
0.000200225
0.000828333
0.00205831
0.00204039
0.00082352
0.000198976
0.000197711
0.000818858
0.00202294
0.00200593
0.000814344
0.00019643
0.000195129
0.000809974
0.00198935
0.0019732
0.000805743
0.000193807
0.000192462
0.000801651
0.00195745
0.0019421
0.000797694
0.000191093
0.000189697
0.000793872
0.00192713
0.00191255
0.000790183
0.000188273
0.000186818
0.000786628
0.00189833
0.00188449
0.000783206
0.000185331
0.000183809
0.00077992
0.00187101
0.00185789
0.000776769
0.000182251
0.000180654
0.000773758
0.00184514
0.00183275
0.000770888
0.000179016
0.000177334
0.000768164
0.00182072
0.00180907
0.00076559
0.000175607
0.000173831
0.000763174
0.00179779
0.0017869
0.000760922
0.000172005
0.000170125
0.000758843
0.0017764
0.00176632
0.00075695
0.000168188
0.000166193
0.000755257
0.00175668
0.00174748
0.000753776
0.000164136
0.000162014
0.00075253
0.00173879
0.00173062
0.000751541
0.000159824
0.000157564
0.000750833
0.001723
0.00171601
0.000750435
0.000155231
0.000152824
0.000750392
0.00170971
0.00170415
0.000750733
0.000150339
0.000147776
0.000751528
0.00169944
0.00169561
0.000752806
0.000145134
0.000142415
0.000754671
0.00169288
0.00169123
0.000757162
0.000139618
0.000136748
0.000760423
0.00169101
0.00169217
0.000764518
0.00013381
0.000130813
0.000769601
0.00169511
0.00170002
0.000775813
0.000127766
0.000124687
0.000783353
0.0017072
0.00171673
0.0007923
0.000121592
0.000118508
0.000802904
0.00172925
0.00174497
0.000815333
0.000115459
0.000112482
0.000829674
0.00176395
0.0017856
0.000845585
0.000109578
0.00010678
0.000863352
0.0018113
0.00184025
0.000882541
0.000104084
0.000101466
0.000902654
0.00187269
0.00190822
0.000923562
9.89351e-05
9.62158e-05
0.000941017
0.00194503
0.00198251
0.000953732
9.46245e-05
9.41653e-05
0.000957443
0.00202114
0.00206482
0.000957949
9.30706e-05
9.10564e-05
0.000950739
0.00209778
0.00210882
0.000930628
8.79403e-05
8.38604e-05
0.000896102
0.00209115
0.00204266
0.000847594
7.8927e-05
7.33534e-05
0.000784344
0.00195885
0.00183616
0.000707272
6.76413e-05
6.23568e-05
0.000621076
0.0016752
0.00146223
0.000522625
5.77728e-05
5.52051e-05
0.000415942
0.00121014
0.00102623
0.000353443
5.44292e-05
5.44482e-05
0.000324987
0.00092693
0.000882455
0.000310345
5.50698e-05
5.57651e-05
0.000303204
0.000864009
0.000859918
0.000303194
5.65878e-05
5.73521e-05
0.000307547
0.000869459
0.000888413
0.000314442
5.80124e-05
5.85619e-05
0.000322092
0.000909089
0.000930716
0.000330531
5.89608e-05
5.9167e-05
0.000338502
0.000952557
0.000971841
0.000345428
5.92314e-05
5.9207e-05
0.000350667
0.000988872
0.00100668
0.000356763
5.90259e-05
5.86511e-05
0.000360912
0.00101958
0.0010299
0.000364633
5.81618e-05
5.75232e-05
0.000367369
0.00103728
0.00104109
0.000369105
5.67462e-05
5.58667e-05
0.000369944
0.00104183
0.001039
0.000369614
5.48308e-05
5.37029e-05
0.000368442
0.00103307
0.00102373
0.000366176
5.24602e-05
5.10914e-05
0.000362887
0.00101116
0.000995394
0.000358684
4.96217e-05
4.80529e-05
0.000353532
0.000976486
0.000954263
0.00034737
4.63499e-05
4.45597e-05
0.000340386
0.000928804
0.000899573
0.000332301
4.2596e-05
4.05962e-05
0.000323329
0.000866119
0.000827329
0.000312816
3.8346e-05
3.57862e-05
0.000300547
0.000781291
0.000722946
0.00028472
3.27113e-05
2.92791e-05
0.000263434
0.000645146
0.000537529
0.000232343
2.47615e-05
1.92896e-05
0.000185224
0.000389564
0.000196851
9.99008e-05
1.42385e-05
9.10741e-06
4.37735e-05
4.95476e-05
6.23209e-05
8.45642e-05
0.000104878
0.000126167
0.000140142
0.000153855
0.000163369
0.000172392
0.000179487
0.000185719
0.000190951
0.000195514
0.000197621
0.000200067
0.000200376
0.000221986
0.000213267
0.000204352
0.000188498
0.000119531
6.67602e-05
8.29597e-05
9.87124e-05
6.65809e-05
3.18333e-05
3.46791e-05
3.63014e-05
3.34395e-05
2.94851e-05
2.58214e-05
1.51191e-05
1.17006e-05
9.33883e-06
7.53032e-06
5.68965e-06
1.24733e-05
2.3049e-05
3.70212e-05
6.35011e-05
0.000158286
0.000110989
6.74292e-05
2.8416e-05
7.17759e-06
9.0762e-06
5.34604e-05
0.000126781
0.00019742
0.000266911
0.000350625
0.000254822
0.000161821
6.72952e-05
1.05336e-05
1.12725e-05
7.6566e-05
0.000185558
0.000296517
0.000407692
0.00044224
0.000323008
0.000199667
8.20621e-05
1.1787e-05
1.18457e-05
8.36478e-05
0.000204205
0.000331318
0.000454432
0.000454007
0.000330187
0.000203065
8.30015e-05
1.16461e-05
1.13071e-05
8.16702e-05
0.000199469
0.000324494
0.000447095
0.000436263
0.000317372
0.000195346
8.03977e-05
1.08869e-05
1.05244e-05
7.96688e-05
0.00019255
0.000312003
0.000428458
0.000425951
0.000309348
0.000191269
7.97551e-05
1.02197e-05
9.95813e-06
7.99189e-05
0.000190375
0.000307805
0.000424458
0.000423578
0.000306152
0.000189226
7.97783e-05
9.63856e-06
9.24727e-06
7.84121e-05
0.000186177
0.00030274
0.000421207
0.000411722
0.000293349
0.000179014
7.47445e-05
8.64367e-06
8.04929e-06
6.75378e-05
0.000165494
0.000276871
0.000395523
0.00037209
0.000253115
0.000146004
5.73838e-05
7.20014e-06
5.80455e-06
4.32842e-05
0.000119314
0.000221214
0.000341356
0.000299181
0.000179043
8.11181e-05
2.28683e-05
3.64606e-06
2.44799e-06
1.09867e-05
5.09947e-05
0.000126213
0.000240109
0.000165906
7.09491e-05
3.15829e-05
9.28531e-06
2.55185e-06
3.03828e-06
5.77456e-06
1.87189e-05
4.8459e-05
9.47653e-05
6.71869e-05
2.63636e-05
9.62167e-06
5.75928e-06
5.52945e-06
4.86586e-06
6.03055e-06
1.10464e-05
3.09703e-05
7.54266e-05
9.29456e-05
4.4036e-05
1.60153e-05
5.03446e-06
4.96952e-06
6.02134e-06
5.46778e-06
1.46171e-05
4.12652e-05
9.36927e-05
8.12286e-05
3.34976e-05
1.28561e-05
6.54617e-06
6.19156e-06
6.46751e-06
6.23749e-06
1.326e-05
3.49411e-05
8.42898e-05
8.38119e-05
3.43554e-05
1.31248e-05
6.65659e-06
7.05662e-06
6.83512e-06
7.35628e-06
1.46253e-05
3.78941e-05
9.01609e-05
9.68666e-05
4.39233e-05
1.71116e-05
7.844e-06
5.54764e-06
6.20459e-06
7.59002e-06
1.91421e-05
4.72906e-05
0.000102144
0.000112851
5.33388e-05
2.0134e-05
7.33099e-06
6.43784e-06
6.49979e-06
8.73901e-06
2.02246e-05
5.13101e-05
0.000110611
0.000114635
5.41146e-05
2.10939e-05
8.29124e-06
6.66819e-06
6.96638e-06
9.58177e-06
2.09183e-05
4.95593e-05
0.00010786
0.000109422
5.26466e-05
2.28726e-05
9.3888e-06
6.89225e-06
7.89943e-06
9.60307e-06
2.41391e-05
5.35647e-05
0.000112581
0.000117581
5.74036e-05
2.45888e-05
1.04125e-05
7.01908e-06
6.93011e-06
1.14906e-05
2.74404e-05
6.03096e-05
0.000120439
0.000131378
6.6738e-05
2.84113e-05
9.32294e-06
7.38124e-06
8.25462e-06
1.07954e-05
2.9336e-05
6.45427e-05
0.000131628
0.000137793
7.21094e-05
3.1251e-05
1.13043e-05
6.71498e-06
7.8923e-06
1.07444e-05
3.23506e-05
6.9207e-05
0.000133755
0.000135336
6.93552e-05
3.14979e-05
1.12488e-05
8.30776e-06
8.03173e-06
1.36928e-05
3.39779e-05
6.95038e-05
0.000134037
0.000139939
7.53752e-05
3.55036e-05
1.31223e-05
7.63863e-06
8.92882e-06
1.2509e-05
3.8426e-05
7.71052e-05
0.000145708
0.000153618
8.01183e-05
3.71351e-05
1.22108e-05
8.68713e-06
8.42695e-06
1.55986e-05
4.03775e-05
8.17074e-05
0.000154132
0.000164903
9.01085e-05
4.11364e-05
1.23201e-05
7.98196e-06
9.5627e-06
1.35458e-05
4.23396e-05
8.4052e-05
0.000160811
0.000163706
8.95411e-05
4.23835e-05
1.51728e-05
8.4121e-06
8.92132e-06
1.47936e-05
4.63779e-05
9.17985e-05
0.00016572
0.000172438
9.41619e-05
4.51485e-05
1.38259e-05
9.2501e-06
9.76766e-06
1.66533e-05
4.77875e-05
9.24009e-05
0.000171569
0.000179529
0.000100369
4.85668e-05
1.66693e-05
8.7812e-06
1.03175e-05
1.56382e-05
5.25326e-05
0.000100932
0.000184209
0.000191251
0.000104876
5.086e-05
1.55321e-05
9.64116e-06
9.66644e-06
1.94286e-05
5.51994e-05
0.0001068
0.000190321
0.000202443
0.000113256
5.41277e-05
1.51925e-05
9.59594e-06
1.11316e-05
1.80156e-05
5.81144e-05
0.000107867
0.000199251
0.000209457
0.000120228
5.73933e-05
1.7525e-05
9.08452e-06
1.12201e-05
1.71602e-05
6.12042e-05
0.0001143
0.000208723
0.000213384
0.000122414
5.97803e-05
1.92188e-05
9.77569e-06
1.05875e-05
1.86967e-05
6.43058e-05
0.000124181
0.000215578
0.000220776
0.000125683
6.19627e-05
1.81649e-05
1.04904e-05
1.07811e-05
2.32641e-05
6.7019e-05
0.000126623
0.000219426
0.000230583
0.000132863
6.57069e-05
1.94157e-05
1.05821e-05
1.24899e-05
2.08625e-05
7.10776e-05
0.000127378
0.000229184
0.00023591
0.0001372
6.91015e-05
2.28652e-05
1.08525e-05
1.21888e-05
2.0869e-05
7.40527e-05
0.000137774
0.00024051
0.000245703
0.000138651
7.11173e-05
2.01758e-05
1.19001e-05
1.21326e-05
2.72149e-05
7.8248e-05
0.000142491
0.000245147
0.000259407
0.000149355
7.34093e-05
2.06351e-05
1.14392e-05
1.34992e-05
2.35013e-05
8.26159e-05
0.000143753
0.000256838
0.000270034
0.000158935
7.87513e-05
2.46034e-05
1.13239e-05
1.33329e-05
2.22666e-05
8.51292e-05
0.000153387
0.00027147
0.0002744
0.000161534
8.13312e-05
2.45788e-05
1.22365e-05
1.25703e-05
2.53934e-05
8.7028e-05
0.000166366
0.000279047
0.00028183
0.00016268
8.32426e-05
2.3659e-05
1.30045e-05
1.38153e-05
2.88781e-05
9.0751e-05
0.000163435
0.000280163
0.000294728
0.00017316
8.75123e-05
2.68957e-05
1.28632e-05
1.50553e-05
2.54292e-05
9.3963e-05
0.000162804
0.000290081
0.000287144
0.000165107
8.95308e-05
2.65943e-05
1.43376e-05
1.40249e-05
3.37068e-05
9.84543e-05
0.000175206
0.000288814
0.000302468
0.000179185
9.12816e-05
2.77118e-05
1.37346e-05
1.49476e-05
2.70873e-05
9.92376e-05
0.000178985
0.000314614
0.000324489
0.000188678
9.05432e-05
2.7212e-05
1.33863e-05
1.5695e-05
2.29325e-05
9.13374e-05
0.000165227
0.000318482
0.000323913
0.000166616
9.08298e-05
2.61534e-05
1.6805e-05
1.65056e-05
2.79248e-05
8.75445e-05
0.000202397
0.000361145
0.000502369
0.000277288
0.000124504
4.32258e-05
2.19138e-05
2.81279e-05
7.38837e-05
0.000219778
0.000496549
0.000896716
0.00111365
0.000681013
0.000341945
0.000118347
3.53618e-05
4.30125e-05
0.000177141
0.00047187
0.000866067
0.00134478
0.00155871
0.00104656
0.000599283
0.000237867
5.01813e-05
5.63059e-05
0.000297676
0.000717291
0.00121099
0.00175589
0.00193938
0.00136432
0.000825327
0.000347151
6.12273e-05
6.61826e-05
0.000394918
0.000923151
0.00150205
0.00210323
0.00223325
0.00162301
0.00101387
0.00044187
7.09227e-05
7.51258e-05
0.000490101
0.00110616
0.00175147
0.0023935
0.00254457
0.00186629
0.0011843
0.000527936
7.8811e-05
8.31227e-05
0.000556651
0.00125731
0.00198112
0.00270309
0.00286663
0.00210056
0.00133393
0.000593871
8.84864e-05
9.74046e-05
0.000627644
0.00141067
0.00221038
0.00299618
0.00312646
0.0023332
0.00150621
0.000684645
0.00010645
0.000113832
0.000746588
0.00161551
0.00248526
0.00331923
0.00351433
0.00263996
0.00172533
0.000802528
0.000120605
0.000127482
0.000867361
0.00183523
0.00279228
0.00370213
0.00389247
0.00293552
0.00193779
0.000931941
0.000131933
0.000132795
0.000965039
0.00199542
0.00302703
0.00406955
0.00392358
0.00296576
0.00195884
0.000944374
0.000130242
0.000127472
0.000916779
0.00189576
0.00284356
0.00369821
0.00388253
0.00291831
0.00192637
0.000922992
0.000129774
0.000131314
0.000964503
0.00201046
0.00305174
0.00405923
0.00423527
0.00318772
0.00210451
0.00101978
0.000134756
0.000135295
0.00104824
0.0021847
0.00331243
0.00440093
0.00455205
0.0034237
0.00225446
0.00107934
0.000139165
0.000135682
0.00108097
0.00227911
0.00348415
0.00466821
0.00464358
0.00343338
0.00224193
0.00106645
0.000133762
0.00012455
0.00100539
0.00211327
0.00320947
0.00422212
0.00377427
0.00291437
0.0019391
0.000922993
0.000114935
0.000105392
0.000851826
0.00180128
0.00275088
0.0037057
0.00348407
0.0026062
0.00169589
0.000792626
9.89855e-05
9.22806e-05
0.000743348
0.00159512
0.00243889
0.00321451
0.00326568
0.00241024
0.00155885
0.000724096
9.13485e-05
8.96634e-05
0.000717989
0.00156199
0.00243111
0.0033009
0.00329272
0.00243254
0.00156387
0.000719338
9.0173e-05
8.96376e-05
0.000720773
0.00156353
0.0024322
0.00329562
0.00330875
0.00243901
0.00156544
0.000723357
9.08716e-05
8.91685e-05
0.000723614
0.00157283
0.00245667
0.00334218
0.00337484
0.00245188
0.00156927
0.000723635
8.92816e-05
8.59778e-05
0.000702817
0.00151927
0.00236211
0.00319476
0.00299352
0.00224899
0.00145097
0.000669539
8.28745e-05
8.36496e-05
0.000671748
0.00146787
0.00229432
0.00313016
0.003263
0.00239102
0.00152636
0.000699424
8.70018e-05
8.93133e-05
0.000735781
0.0015934
0.00249129
0.00339372
0.00352101
0.00258049
0.0016511
0.000761729
8.96733e-05
8.81359e-05
0.000761162
0.00166085
0.0026138
0.00361417
0.00343417
0.0025326
0.00161758
0.000737981
8.46482e-05
8.03888e-05
0.000708709
0.0015619
0.00242758
0.00323467
0.00339959
0.00248819
0.00158166
0.000708255
7.91861e-05
8.29916e-05
0.000732368
0.00164496
0.00259955
0.0035659
0.0037196
0.00271386
0.00171894
0.000765178
8.62011e-05
8.83778e-05
0.000792648
0.00177602
0.00281235
0.00386318
0.00398086
0.00285852
0.00180028
0.0008055
8.92902e-05
8.81355e-05
0.000797774
0.00176726
0.00278294
0.00379232
0.00359367
0.00269093
0.00172987
0.000784853
8.72122e-05
8.78386e-05
0.00079422
0.001766
0.00277249
0.00378772
0.00398675
0.00291003
0.00184256
0.000824078
9.04599e-05
9.4986e-05
0.00085819
0.00192686
0.00304614
0.00417765
0.00435801
0.00317346
0.00200558
0.000903545
9.80464e-05
9.9139e-05
0.000914321
0.00204224
0.00323865
0.0045119
0.00431137
0.00316072
0.00200961
0.000907967
9.77705e-05
9.60382e-05
0.000902236
0.00198323
0.00307928
0.0041082
0.00434222
0.00318267
0.00203009
0.000915706
9.67403e-05
9.94582e-05
0.000952018
0.00212775
0.00335197
0.00458458
0.00482349
0.00351362
0.00222059
0.000993683
0.00010425
0.000107426
0.00102147
0.00227196
0.00360408
0.0050232
0.00482223
0.00354214
0.0022611
0.00102245
0.000107454
0.000105994
0.0010198
0.00223743
0.00347362
0.0046235
0.00490374
0.00359948
0.002294
0.00103692
0.000107434
0.000112027
0.00107966
0.00239699
0.00378234
0.00519387
0.00543929
0.00389323
0.00245849
0.00111319
0.000115965
0.000115033
0.0011152
0.00244941
0.00384105
0.00523839
0.00505077
0.00378941
0.00244292
0.0011157
0.000115485
0.000118035
0.00114619
0.00252678
0.00395296
0.0053784
0.0057165
0.00417017
0.00264391
0.00119511
0.000122535
0.000126362
0.00123211
0.00272059
0.0043135
0.00602366
0.00582624
0.00427862
0.00273917
0.00125071
0.00012813
0.000129621
0.00127205
0.00275709
0.00425142
0.005649
0.00604165
0.00445219
0.00286184
0.00130993
0.000131704
0.000133964
0.00135676
0.00300655
0.00472801
0.00646185
0.00685219
0.0049259
0.00311485
0.00141496
0.000143061
0.000151018
0.0014704
0.00316925
0.00492354
0.00668011
0.00653716
0.00493816
0.00322572
0.00151282
0.000158802
0.000167075
0.00157727
0.0033484
0.00517998
0.00701161
0.00748912
0.00541059
0.00347237
0.00163649
0.000174436
0.000177543
0.00167241
0.00352079
0.0054216
0.00732727
0.00720089
0.00544557
0.00356652
0.00169424
0.00017421
0.000169462
0.00169895
0.00366522
0.00570671
0.00773545
0.00829015
0.00594478
0.00374913
0.00168009
0.000156938
0.000159867
0.00168294
0.00379185
0.00597967
0.00814438
0.00808113
0.00605757
0.00389269
0.00176378
0.000175311
0.000191099
0.00185285
0.00403973
0.00632315
0.00874017
0.00870269
0.00644955
0.00416979
0.00194001
0.000205391
0.00022223
0.00204578
0.00432444
0.0066178
0.00872744
0.00949292
0.00694744
0.00451291
0.00214997
0.000237933
0.000253361
0.00225191
0.00467317
0.0071161
0.00950971
0.00957632
0.00733048
0.00486616
0.00236652
0.000270194
0.000286223
0.00248789
0.00509341
0.00772413
0.010439
0.0105112
0.00793775
0.00528772
0.0026001
0.000303009
0.000321377
0.00272499
0.00551143
0.0082072
0.0106059
0.0115025
0.00858566
0.00569792
0.00281674
0.000331409
0.000317229
0.00280488
0.00570789
0.00862947
0.0114821
0.0114053
0.0085491
0.00558831
0.00269211
0.000310202
0.000331855
0.00267671
0.00551905
0.00849635
0.0114141
0.0117159
0.00869887
0.00564855
0.00277593
0.000373918
0.000389934
0.00290153
0.00588881
0.00897179
0.0119735
0.0127243
0.00949571
0.0061801
0.00297645
0.000374713
0.00034046
0.00291005
0.0062508
0.00971341
0.0132584
0.0129474
0.00963192
0.00624858
0.00296998
0.000355784
0.000432113
0.00318549
0.00634809
0.0095525
0.0126809
0.0124443
0.00945129
0.00644034
0.00339302
0.000498579
0.000524246
0.00344408
0.00630081
0.00921015
0.0121237
0.0116429
0.00871389
0.00581013
0.00298994
0.000521614
0.000499185
0.0023967
0.00503573
0.00788027
0.0108232
0.00912451
0.00663244
0.00416874
0.00188145
0.000441264
0.000378085
0.0015116
0.00351657
0.00577525
0.00809767
0.0071229
0.00504969
0.00310731
0.00138326
0.000339926
0.000316452
0.00120464
0.00279296
0.00462872
0.00663211
0.00596355
0.00419484
0.00253458
0.00108039
0.000289116
0.00026749
0.000965083
0.00234936
0.00396726
0.0057392
0.00520669
0.00361039
0.00212724
0.000847905
0.000238145
0.00020055
0.000766892
0.00203058
0.00352157
0.00516855
0.00475583
0.0032959
0.00191908
0.000713721
0.000178579
0.000180454
0.000784153
0.00195716
0.00333108
0.00486859
0.00455942
0.00321966
0.00195319
0.000822991
0.000179917
0.000177147
0.000866463
0.00201215
0.00331369
0.00475202
0.00460852
0.00322579
0.00199689
0.000879812
0.000173705
0.000165741
0.000856082
0.0019052
0.00300369
0.00406009
0.00419683
0.00303992
0.00192892
0.000869312
0.000157846
0.000156258
0.000919396
0.00194698
0.0030049
0.00408425
0.0043479
0.00315711
0.00203696
0.000977942
0.00016091
0.000166121
0.00100917
0.00205989
0.0031503
0.00434212
0.00396939
0.003026
0.00203358
0.00102774
0.000170146
0.000170657
0.00102164
0.00205291
0.00309131
0.00414923
0.00414252
0.00305614
0.00203808
0.00101688
0.000169247
0.000165076
0.000979786
0.00197175
0.00292725
0.00381193
0.00397669
0.0029768
0.00196915
0.000946229
0.000158531
0.000151728
0.000934627
0.00194488
0.00293721
0.00397651
0.00366627
0.00281978
0.00188817
0.00090664
0.000145487
0.000139515
0.000909683
0.00190788
0.00287335
0.00381514
0.00380171
0.00289536
0.00194717
0.000954446
0.000138049
0.000142473
0.00100855
0.00203976
0.00305314
0.00405852
0.00412105
0.003079
0.00207147
0.00103778
0.000146099
0.000147723
0.0010394
0.00205544
0.00300266
0.00386681
0.00405577
0.00308806
0.00208827
0.00105268
0.000148576
0.000149573
0.00106151
0.00209694
0.00309327
0.00410861
0.00385752
0.00301018
0.00206661
0.0010503
0.000149368
0.000149858
0.00106262
0.00210004
0.00309013
0.00404001
0.00409205
0.00308395
0.00209085
0.00105147
0.00014923
0.000148086
0.00104207
0.00205881
0.00300176
0.00384985
0.0040253
0.00307442
0.00207923
0.00104153
0.000146819
0.000145344
0.00102755
0.00207257
0.00307419
0.00408162
0.0038406
0.00298945
0.00203725
0.00101517
0.000143004
0.000141446
0.00101665
0.0020628
0.00306348
0.00401644
0.00407656
0.0030635
0.00205876
0.00101421
0.000139709
0.000137411
0.000994703
0.00202503
0.00298757
0.00384156
0.00402104
0.00306881
0.00206464
0.00102
0.000136944
0.000136705
0.00101485
0.00206245
0.00307165
0.0040905
0.00386088
0.00300015
0.00203381
0.00100546
0.000135531
0.000134299
0.00100289
0.00206629
0.00308437
0.00404927
0.0041269
0.00308905
0.0020543
0.000992638
0.000132076
0.000127977
0.000943791
0.00197824
0.0029689
0.00391697
0.00365831
0.00283246
0.00189335
0.000898725
0.000123034
0.00012
0.000898605
0.00190286
0.0028792
0.00380563
0.0038658
0.00287404
0.00189779
0.000901787
0.000118237
0.000117293
0.000902407
0.00187489
0.00280597
0.00364373
0.0038201
0.00288824
0.00191234
0.000914731
0.000117119
0.000116489
0.000909602
0.0019114
0.00289281
0.00389047
0.00366887
0.00282611
0.00188654
0.000904107
0.000115379
0.000115047
0.000904487
0.00191566
0.00290414
0.00384489
0.00391837
0.00291122
0.00191892
0.00091377
0.000114438
0.000113972
0.000893435
0.0018893
0.00284208
0.00369154
0.00386773
0.00291872
0.001922
0.000906978
0.00011307
0.000113039
0.000902142
0.00191745
0.00291782
0.0039354
0.0037034
0.00284605
0.00188911
0.000893155
0.00011202
0.000111783
0.000902777
0.00191825
0.00291958
0.00387611
0.00394202
0.00292001
0.00191365
0.000894839
0.000111339
0.000110015
0.000882242
0.00188116
0.00284153
0.00370465
0.00387416
0.00291167
0.00190649
0.000891437
0.000109782
0.000109198
0.000882654
0.00189895
0.0029101
0.00393943
0.00369692
0.00282848
0.00186086
0.000862877
0.000107426
0.000106226
0.000872498
0.00188681
0.00289415
0.00386269
0.0039219
0.00288664
0.00187867
0.000872214
0.000105602
0.0001045
0.000852552
0.00184215
0.00280831
0.00367932
0.00384281
0.0028735
0.00186712
0.000859338
0.000103307
0.000102939
0.000857951
0.00185859
0.00286779
0.00389859
0.00365828
0.00279006
0.00182921
0.000842441
0.000101737
0.000100219
0.000842885
0.00184834
0.00285424
0.00382246
0.00387931
0.0028474
0.00184146
0.000845765
9.93247e-05
9.87516e-05
0.000826962
0.00181344
0.00277781
0.00364738
0.00382242
0.00285263
0.00184399
0.00084034
9.84084e-05
9.89252e-05
0.000838907
0.00184814
0.00286253
0.00389921
0.00369749
0.0028145
0.00183986
0.000840775
9.87181e-05
0.000101036
0.000861242
0.00189155
0.0029235
0.00391091
0.00402516
0.00296751
0.00192238
0.000878691
0.000102881
0.000105239
0.000899858
0.00195876
0.00298026
0.00389409
0.0041797
0.00316002
0.0020639
0.000946804
0.000108968
0.000114511
0.000997869
0.00215747
0.00329585
0.00443557
0.00439154
0.00338718
0.002253
0.00105211
0.000122771
0.00013426
0.0011514
0.00245143
0.00365207
0.00469175
0.00513729
0.00402735
0.00272139
0.0012803
0.000150193
0.000169308
0.00144358
0.00308659
0.00463884
0.00604522
0.00656865
0.00495318
0.00329211
0.00154259
0.000181317
0.000189559
0.00156343
0.00330769
0.00495912
0.00652572
0.00618366
0.00482502
0.00324921
0.00154397
0.000191541
0.000195541
0.00156329
0.00330434
0.0049439
0.00644439
0.00652201
0.00503038
0.00338561
0.00161034
0.000203005
0.000210968
0.00168252
0.00353818
0.00531753
0.00695184
0.00711814
0.00537883
0.00358958
0.00171672
0.000218883
0.000224073
0.00171078
0.00354599
0.00524929
0.00672655
0.00703332
0.00538786
0.00360182
0.00172406
0.000214917
0.000213013
0.00172052
0.0035905
0.00538523
0.00714332
0.0067117
0.00522449
0.00351577
0.00168811
0.00021004
0.000209135
0.00170695
0.00357045
0.00535589
0.00700586
0.00710757
0.00535262
0.00356698
0.00171207
0.000209315
0.000208146
0.00168324
0.00349545
0.00519064
0.00667448
0.006968
0.0053172
0.00354124
0.00169213
0.000206932
0.000206123
0.00169248
0.00353413
0.00531388
0.00707001
0.00663533
0.00514792
0.00345495
0.00164923
0.000204384
0.000203951
0.00166717
0.00350397
0.00527661
0.00693144
0.00703323
0.00527474
0.00349852
0.00166959
0.000203895
0.000201928
0.00163822
0.0034263
0.00511108
0.00659753
0.00689029
0.00523496
0.00346968
0.0016463
0.000200909
0.000199877
0.00163153
0.00344779
0.00522232
0.00698131
0.00653631
0.0050487
0.00336689
0.0015964
0.000197833
0.000196254
0.00159293
0.00339538
0.00515876
0.00682001
0.00688404
0.00513247
0.00337304
0.00158274
0.000193704
0.000192118
0.00155946
0.00329574
0.00495615
0.00643108
0.00667102
0.00505487
0.00333939
0.00157524
0.000193256
0.000196344
0.00160034
0.00338812
0.00509753
0.00668125
0.00708287
0.00534809
0.00350727
0.00164421
0.000200662
0.000202687
0.00164897
0.00352146
0.00535399
0.00717564
0.00671218
0.00517048
0.00343402
0.00162258
0.000202126
0.000200935
0.00162332
0.00346431
0.00527617
0.00699335
0.00703127
0.00522756
0.00342244
0.00160272
0.000198331
0.000195638
0.00156
0.00332854
0.00503196
0.00654073
0.00677609
0.00511423
0.00335771
0.0015685
0.000194911
0.000196975
0.0015861
0.00339456
0.00514039
0.00676287
0.00716461
0.0053835
0.00350741
0.00162628
0.000199825
0.000200951
0.00163153
0.00350924
0.00537239
0.00723433
0.00673567
0.00516694
0.00341026
0.0015936
0.000199659
0.000197831
0.00159148
0.00343269
0.00526796
0.00701845
0.00704149
0.00520721
0.003385
0.001565
0.000195756
0.000193941
0.00153
0.00328506
0.00499359
0.00652011
0.006754
0.00507016
0.00330746
0.00153187
0.000193651
0.00019528
0.00154904
0.00333961
0.00508588
0.00672558
0.00712904
0.00532642
0.00344381
0.00158424
0.000198254
0.000198845
0.00158542
0.00344349
0.00531044
0.00718695
0.00665912
0.00509048
0.00334196
0.00155055
0.000197165
0.000195582
0.00154454
0.00335419
0.00518049
0.00693631
0.00694753
0.0051158
0.00330363
0.00151525
0.000193541
0.000190478
0.00146248
0.00318764
0.00488018
0.00640451
0.00663194
0.00495188
0.00320087
0.00146707
0.000189616
0.000190724
0.00147971
0.00322624
0.00494829
0.00658052
0.0069783
0.00517374
0.00331558
0.00151076
0.000192685
0.000193438
0.00151098
0.00330707
0.00513778
0.00700359
0.00645036
0.00490792
0.00320342
0.00147646
0.000191472
0.000191772
0.00147707
0.00321876
0.00498118
0.00667995
0.00662305
0.00498044
0.00324769
0.00149448
0.000194041
0.000196305
0.00152011
0.00332713
0.00519186
0.00701466
0.00703467
0.00515584
0.00330936
0.00151086
0.00019578
0.000193099
0.00145555
0.00319238
0.0049044
0.00645414
0.0066811
0.00496841
0.00319495
0.00145327
0.000191895
0.000192742
0.00146052
0.00320646
0.00494921
0.00660475
0.00699506
0.00515732
0.00328686
0.00148654
0.000193987
0.000193684
0.0014824
0.00326946
0.00511362
0.00700294
0.00640936
0.00485911
0.00315465
0.00144465
0.000192175
0.000192043
0.0014381
0.00316045
0.00492329
0.00663713
0.00655574
0.00490367
0.00317455
0.00144707
0.000193063
0.000194778
0.00147238
0.00325494
0.00511615
0.00694962
0.00695686
0.00506802
0.00323102
0.0014667
0.000194919
0.000193092
0.00140804
0.0031077
0.00480474
0.00635143
0.00657759
0.00486043
0.00310158
0.00139766
0.000191667
0.000192376
0.00141326
0.00311638
0.00483886
0.006491
0.00687709
0.00504448
0.00319429
0.00143652
0.000193857
0.000192615
0.00142736
0.00316644
0.00499151
0.0068754
0.00625522
0.00472076
0.00304039
0.00137337
0.000189785
0.000187834
0.00136286
0.00303407
0.00477218
0.00647954
0.00637237
0.00473625
0.00303533
0.00136526
0.000188027
0.00018929
0.00138801
0.00310379
0.00492858
0.00675457
0.00674359
0.00487203
0.0030725
0.00136194
0.000188271
0.000184321
0.00129544
0.0029273
0.0045858
0.00610526
0.00632244
0.00462545
0.00291538
0.00128784
0.000181864
0.000183854
0.00130778
0.00292728
0.00459689
0.0062097
0.00655558
0.00478313
0.00302225
0.00135159
0.000188382
0.000191627
0.00137629
0.00306326
0.00479023
0.00646042
0.00686664
0.00500703
0.00314617
0.00140604
0.000194534
0.000194686
0.00139741
0.00312781
0.0049547
0.00685062
0.00619297
0.00465088
0.00297093
0.00132232
0.000191503
0.000189353
0.00131222
0.00295433
0.00469254
0.00642165
0.00628946
0.00464439
0.00295017
0.00131509
0.000189055
0.000189133
0.00133121
0.0030083
0.00483058
0.00666839
0.00664117
0.00476405
0.00297489
0.00129847
0.000187201
0.000183325
0.00125063
0.00282892
0.0044635
0.00597931
0.00619932
0.00450502
0.00281525
0.00124099
0.000181936
0.000182326
0.00124616
0.00281823
0.00445948
0.00606292
0.0064141
0.00464123
0.00290315
0.00128433
0.000185311
0.000189241
0.00130703
0.00293793
0.00463609
0.00629134
0.00668936
0.00484073
0.00300819
0.00132331
0.000191148
0.000190419
0.00132064
0.00298844
0.00478012
0.00666107
0.00597676
0.00446007
0.00281374
0.00122468
0.000186547
0.000183286
0.00121622
0.00278791
0.00448175
0.00619051
0.00603811
0.00443074
0.00278631
0.00122071
0.000183951
0.000186359
0.00125772
0.00286513
0.00461111
0.00639359
0.00625409
0.00459541
0.0028979