/*--------------------------------*- C++ -*----------------------------------*\
| =========                 |                                                 |
| \\      /  F ield         | OpenFOAM: The Open Source CFD Toolbox           |
|  \\    /   O peration     | Version:  v2006                                 |
|   \\  /    A nd           | Website:  www.openfoam.com                      |
|    \\/     M anipulation  |                                                 |
\*---------------------------------------------------------------------------*/
FoamFile
{
    version     2.0;
    format      ascii;
    class       volScalarField;
    location    "0.153";
    object      isentropic(p);
}
// * * * * * * * * * * * * * * * * * * * * * * * * * * * * * * * * * * * * * //

dimensions      [1 -1 -2 0 0 0 0];


internalField   nonuniform List<scalar> 
16277
(
150008
150014
150017
150003
150012
150010
150011
150012
150013
150013
150013
150012
150012
150011
150011
150011
150010
150010
150010
150010
150010
150010
150010
150009
150009
150009
150009
150009
150009
150009
150009
150009
150008
150008
150008
150008
150008
150008
150008
150008
150007
150007
150007
150007
150007
150007
150007
150007
150006
150006
150006
150006
150006
150006
150006
150006
150005
150005
150005
150005
150005
150005
150005
150005
150005
150004
150004
150004
150004
150004
150004
150004
150004
150004
150004
150003
150003
150003
150003
150002
150002
150001
150001
150000
150001
150003
150004
150005
150004
150006
150005
150007
150008
150011
150017
150015
149976
149936
150011
150022
150021
150002
149897
149860
149993
150018
150013
149981
149826
149796
149971
150008
150002
149959
149768
149744
149949
149997
149991
149938
149721
149703
149929
149986
149979
149919
149684
149669
149911
149975
149968
149901
149653
149640
149893
149964
149958
149884
149627
149616
149877
149953
149947
149868
149605
149595
149862
149943
149937
149854
149585
149577
149849
149934
149928
149841
149568
149561
149836
149925
149919
149829
149553
149547
149824
149916
149911
149817
149540
149534
149813
149908
149903
149807
149528
149523
149803
149901
149896
149797
149517
149513
149794
149893
149889
149788
149508
149504
149785
149887
149882
149779
149499
149496
149776
149880
149876
149771
149492
149489
149769
149874
149870
149763
149485
149483
149761
149868
149864
149756
149479
149477
149755
149863
149859
149750
149474
149473
149748
149857
149853
149744
149470
149469
149743
149852
149849
149738
149466
149465
149737
149847
149844
149733
149463
149463
149732
149843
149839
149728
149461
149461
149727
149839
149835
149724
149459
149459
149723
149835
149831
149720
149458
149458
149719
149831
149827
149716
149457
149458
149715
149827
149824
149712
149457
149458
149712
149824
149821
149709
149458
149459
149709
149820
149817
149706
149459
149460
149706
149817
149814
149704
149460
149462
149704
149814
149811
149702
149462
149464
149702
149811
149809
149700
149465
149467
149700
149809
149806
149698
149468
149470
149699
149806
149804
149697
149471
149474
149698
149804
149802
149696
149475
149478
149697
149802
149800
149695
149480
149483
149696
149801
149799
149695
149485
149488
149696
149799
149797
149695
149490
149493
149697
149798
149796
149696
149496
149499
149697
149797
149795
149696
149502
149506
149698
149796
149795
149698
149508
149512
149700
149796
149795
149700
149515
149519
149702
149796
149795
149702
149522
149526
149704
149796
149796
149704
149530
149534
149707
149797
149797
149708
149537
149542
149711
149799
149799
149711
149545
149549
149715
149801
149801
149716
149552
149557
149719
149804
149804
149721
149560
149564
149724
149807
149807
149726
149567
149571
149729
149810
149811
149731
149573
149578
149735
149814
149815
149737
149579
149584
149741
149819
149820
149742
149585
149588
149746
149823
149824
149748
149589
149591
149751
149828
149828
149753
149591
149593
149756
149832
149832
149757
149592
149594
149760
149835
149836
149760
149592
149593
149763
149839
149839
149763
149591
149591
149765
149842
149842
149765
149589
149588
149767
149844
149844
149767
149585
149584
149768
149846
149846
149767
149581
149580
149769
149848
149847
149767
149575
149574
149768
149849
149848
149767
149570
149568
149767
149850
149849
149765
149564
149562
149766
149850
149849
149764
149558
149556
149764
149850
149849
149762
149552
149550
149762
149850
149848
149760
149546
149545
149760
149849
149847
149757
149541
149539
149757
149848
149846
149755
149535
149534
149755
149847
149845
149752
149530
149529
149752
149845
149843
149749
149525
149524
149749
149844
149842
149746
149521
149520
149746
149842
149840
149744
149516
149516
149744
149841
149838
149741
149513
149512
149741
149839
149837
149738
149509
149508
149738
149837
149835
149735
149505
149505
149735
149835
149832
149732
149502
149501
149732
149833
149831
149730
149498
149498
149729
149831
149828
149727
149495
149494
149727
149829
149827
149725
149492
149492
149725
149827
149824
149721
149489
149489
149722
149825
149822
149719
149486
149486
149719
149822
149821
149717
149484
149483
149716
149821
149818
149714
149481
149481
149714
149819
149817
149712
149478
149479
149713
149818
149816
149711
149477
149479
149714
149819
149820
149716
149483
149495
149726
149831
149867
149775
149551
149515
149697
149791
149863
149921
149955
149966
149972
149984
149988
149994
149997
149999
149999
149998
149997
149993
149989
149979
149974
149967
149959
149946
149913
149842
149703
149543
149278
149262
149526
149682
149669
149508
149243
149226
149495
149667
149649
149493
149231
149225
149492
149657
149652
149491
149224
149225
149491
149653
149654
149491
149226
149227
149492
149655
149656
149493
149228
149229
149494
149656
149658
149495
149229
149230
149497
149659
149659
149498
149232
149232
149499
149661
149662
149500
149233
149234
149501
149663
149664
149502
149235
149236
149503
149665
149666
149504
149237
149238
149506
149667
149669
149507
149238
149240
149508
149669
149671
149509
149241
149242
149510
149672
149673
149512
149243
149244
149513
149674
149675
149514
149245
149246
149515
149677
149677
149516
149247
149248
149518
149679
149680
149519
149249
149249
149520
149681
149683
149521
149250
149252
149523
149683
149685
149524
149252
149254
149525
149685
149687
149526
149254
149256
149528
149688
149689
149529
149257
149258
149530
149690
149692
149531
149258
149260
149533
149693
149694
149534
149261
149262
149535
149696
149697
149536
149262
149264
149538
149698
149699
149539
149265
149265
149540
149701
149702
149541
149266
149267
149543
149703
149704
149544
149268
149269
149545
149706
149707
149547
149270
149271
149548
149708
149710
149549
149271
149272
149551
149711
149713
149552
149273
149274
149553
149714
149716
149555
149275
149276
149556
149717
149719
149557
149276
149276
149559
149720
149722
149560
149277
149278
149561
149723
149726
149563
149278
149278
149564
149727
149729
149566
149279
149279
149567
149731
149734
149569
149279
149279
149571
149735
149737
149572
149279
149280
149574
149739
149742
149576
149279
149279
149578
149745
149748
149580
149279
149280
149582
149749
149753
149585
149279
149280
149587
149755
149758
149590
149280
149279
149593
149762
149764
149596
149281
149280
149599
149770
149771
149603
149283
149282
149607
149777
149781
149611
149284
149289
149617
149782
149790
149621
149289
149294
149627
149792
149796
149633
149299
149302
149640
149803
149805
149647
149309
149315
149655
149812
149821
149667
149326
149337
149678
149827
149835
149690
149351
149367
149699
149842
149849
149713
149382
149399
149723
149856
149862
149733
149417
149436
149744
149869
149875
149756
149459
149479
149767
149881
149885
149777
149496
149516
149786
149890
149895
149795
149537
149563
149814
149905
149902
149831
149584
149364
149582
149826
149877
149732
149389
149408
149751
149894
149897
149762
149428
149451
149770
149900
149894
149788
149491
149526
149800
149889
149909
149820
149553
149572
149828
149924
149951
149842
149587
149633
149855
149928
149953
149872
149656
149687
149890
149963
149834
149843
149428
149589
149833
149931
149982
149852
149580
149655
149877
149932
149998
149887
149640
149700
149902
149958
149990
149912
149706
149746
149933
149992
150015
149938
149743
149543
149903
149904
149951
149906
149705
149720
149925
149968
149992
149939
149742
149743
149943
150026
150012
149964
149797
149824
149988
150021
150006
149799
149760
149774
149955
149999
149986
149982
149842
149814
149984
150060
150048
150010
149868
149892
150025
150045
150047
149848
149849
149860
150014
150049
150034
150026
149908
149911
150038
150085
150082
150061
149944
149943
149897
150091
150105
150060
149935
149978
150072
150097
150118
150096
150017
150038
150103
150112
150102
150082
150003
150090
150135
150117
150131
150130
150104
150000
150223
150119
150176
150176
150157
150182
150194
150178
150210
150214
150198
150275
150251
150217
150180
150221
150233
150277
150227
150187
150215
150260
150311
150293
150272
150233
150188
150213
150180
150035
150104
150103
150007
149953
149843
149889
149966
149977
149922
149868
149742
149804
149906
149928
149914
149867
149709
149827
149609
149918
149865
149893
149636
149631
149783
149852
149895
149850
149691
149657
149816
149878
149825
149754
149589
149672
149831
149862
149832
149807
149661
149567
149737
149801
149852
149821
149657
149653
149797
149804
149781
149722
149545
149655
149818
149848
149801
149794
149645
149534
149710
149774
149852
149816
149651
149628
149786
149817
149777
149707
149527
149616
149808
149874
149868
149779
149588
149511
149703
149793
149862
149809
149626
149603
149782
149844
149788
149707
149517
149622
149813
149881
149868
149781
149586
149600
149767
149760
149816
149508
149616
149557
149816
149869
149921
149735
149493
149317
149812
149746
149813
149788
149639
149650
149783
149701
149784
149544
149593
149543
149798
149886
149954
149735
149462
149333
149788
149758
149820
149791
149623
149657
149771
149725
149699
149810
149370
149647
149787
149806
149712
149785
149648
149590
149553
149782
149843
149804
149590
149553
149770
149834
149825
149520
149592
149639
149818
149795
149676
149791
149669
149619
149482
149798
149835
149845
149544
149511
149715
149805
149872
149823
149625
149591
149785
149856
149788
149700
149504
149623
149817
149869
149861
149783
149584
149513
149712
149802
149889
149824
149620
149580
149790
149886
149804
149705
149501
149583
149815
149918
149958
149770
149501
149477
149699
149833
149836
149834
149674
149694
149823
149729
149828
149507
149659
149571
149859
149858
149818
149732
149527
149622
149835
149890
149873
149805
149605
149514
149721
149808
149895
149831
149621
149549
149798
149896
149855
149540
149624
149587
149854
149876
149825
149737
149526
149647
149852
149905
149891
149819
149620
149523
149727
149819
149914
149840
149625
149543
149802
149926
149866
149545
149632
149583
149864
149883
149834
149741
149524
149651
149858
149910
149893
149822
149618
149519
149728
149820
149854
149850
149670
149725
149821
149751
149714
149916
149341
149637
149774
149914
149836
149745
149495
149621
149852
149934
149918
149817
149576
149612
149596
149853
149894
149873
149585
149526
149749
149850
149917
149854
149626
149607
149809
149883
149788
149807
149421
149617
149822
149909
149846
149762
149533
149643
149863
149922
149893
149815
149616
149402
149838
149788
149917
149814
149630
149518
149761
149844
149931
149854
149619
149565
149812
149910
149850
149597
149589
149596
149888
149900
149855
149757
149530
149623
149863
149929
149911
149807
149600
149274
149938
149757
149946
149721
149678
149483
149758
149830
149910
149846
149602
149516
149756
149847
149923
149871
149646
149606
149828
149906
149824
149720
149498
149599
149846
149908
149849
149756
149513
149625
149861
149909
149871
149804
149615
149255
149942
149742
149948
149702
149665
149449
149748
149821
149913
149851
149597
149513
149765
149856
149923
149864
149623
149564
149821
149902
149856
149574
149593
149543
149876
149888
149838
149733
149483
149590
149853
149912
149848
149753
149497
149608
149860
149920
149891
149803
149574
149357
149833
149785
149927
149784
149619
149463
149750
149833
149909
149848
149582
149494
149754
149848
149919
149860
149610
149557
149813
149895
149837
149606
149535
149536
149864
149887
149829
149718
149459
149573
149848
149911
149850
149751
149486
149601
149858
149922
149903
149810
149527
149606
149502
149858
149853
149947
149459
149444
149704
149832
149897
149840
149547
149450
149731
149831
149908
149843
149573
149496
149792
149887
149844
149459
149578
149445
149941
149846
149827
149699
149434
149537
149832
149895
149822
149716
149442
149547
149832
149894
149826
149731
149456
149570
149841
149903
149873
149776
149542
149202
149881
149729
149923
149683
149596
149375
149708
149793
149884
149808
149501
149411
149707
149814
149893
149823
149527
149432
149718
149825
149898
149833
149556
149477
149779
149875
149822
149469
149537
149419
149890
149834
149800
149669
149381
149488
149806
149874
149798
149689
149388
149507
149811
149878
149804
149697
149403
149537
149821
149888
149866
149771
149463
149537
149444
149815
149813
149923
149372
149361
149651
149793
149864
149798
149468
149352
149666
149784
149863
149792
149473
149369
149678
149791
149868
149802
149505
149468
149724
149833
149669
149880
149069
149542
149600
149898
149749
149654
149295
149443
149776
149852
149770
149651
149326
149443
149776
149851
149770
149654
149332
149450
149778
149853
149780
149666
149352
149474
149784
149858
149835
149729
149386
149517
149327
149788
149748
149958
149244
149284
149584
149754
149827
149755
149390
149277
149616
149746
149836
149760
149415
149294
149627
149751
149834
149758
149420
149312
149640
149758
149840
149768
149452
149368
149703
149808
149738
149417
149374
149313
149806
149777
149729
149583
149255
149371
149736
149813
149726
149596
149254
149374
149733
149814
149728
149602
149261
149396
149742
149820
149742
149621
149285
149418
149749
149826
149800
149689
149329
149426
149290
149740
149720
149888
149202
149203
149550
149714
149790
149715
149316
149188
149558
149699
149792
149713
149332
149198
149568
149701
149792
149710
149338
149228
149584
149711
149799
149721
149375
149293
149656
149767
149692
149320
149306
149216
149776
149727
149682
149522
149157
149277
149689
149768
149675
149530
149150
149298
149689
149772
149677
149540
149160
149302
149686
149771
149686
149554
149182
149332
149694
149778
149750
149626
149221
149362
149174
149689
149645
149894
149060
149094
149473
149655
149737
149656
149216
149093
149486
149644
149741
149653
149228
149094
149497
149643
149739
149647
149231
149106
149502
149645
149743
149654
149251
149126
149516
149656
149749
149664
149289
149223
149585
149714
149563
149504
148966
149235
149562
149730
149605
149474
149030
149198
149616
149718
149614
149468
149044
149200
149622
149718
149620
149471
149068
149210
149623
149718
149629
149487
149088
149244
149636
149726
149692
149560
149152
149107
149263
149587
149646
149666
149071
148987
149403
149585
149687
149594
149138
148979
149420
149582
149684
149588
149138
148999
149430
149584
149685
149589
149149
149015
149441
149591
149686
149591
149174
149096
149503
149647
149484
149440
148814
149113
149472
149666
149528
149383
148896
149078
149540
149654
149542
149379
148914
149095
149555
149658
149549
149386
148936
149103
149556
149657
149561
149404
148962
149142
149570
149666
149631
149487
149042
148935
149201
149499
149582
149586
148964
148854
149299
149506
149610
149513
148992
148843
149310
149499
149611
149502
149008
148859
149330
149502
149617
149511
149030
148873
149346
149513
149624
149523
149067
148972
149441
149593
149435
149178
148799
148936
149495
149566
149465
149264
148778
148953
149483
149586
149473
149284
148798
148985
149489
149588
149467
149285
148793
148978
149467
149576
149533
149380
148860
148870
148946
149426
149478
149521
148769
148668
149200
149415
149533
149427
148848
148674
149204
149411
149539
149423
148876
148701
149230
149421
149545
149435
148926
148821
149323
149506
149281
149291
148403
148862
149256
149525
149353
149188
148574
148806
149354
149498
149341
149155
148558
148785
149357
149485
149365
149166
148601
148826
149371
149497
149450
149270
148678
148735
148760
149328
149374
149442
148586
148469
149063
149306
149443
149323
148701
148497
149090
149313
149456
149325
148718
148518
149112
149323
149461
149339
148768
148633
149241
149431
149248
148841
148513
148540
149275
149355
149229
148964
148350
148596
149246
149385
149245
149017
148378
148615
149258
149400
149263
149040
148409
148662
149273
149410
149368
149161
148520
148356
148782
149171
149305
149263
148469
148303
148930
149208
149349
149227
148523
148320
148964
149213
149364
149240
148595
148469
149138
149334
149115
148549
148319
148341
149141
149223
149106
148819
148144
148405
149127
149282
149130
148872
148169
148438
149145
149299
149150
148902
148206
148484
149160
149312
149268
149038
148361
148010
148757
149009
149241
149037
148367
148070
148821
149079
149260
149094
148380
148107
148858
149100
149254
149125
148480
148202
148928
149166
148907
148607
147875
148194
148965
149140
148986
148710
147933
148224
149009
149181
149022
148752
147973
148281
149036
149202
149155
148901
148130
147788
148555
148879
149108
148925
148126
147842
148658
148956
149151
148983
148198
148042
148855
149119
148813
148479
147662
147968
148823
149018
148780
148454
147578
147905
148793
149004
148833
148523
147646
147999
148849
149044
148994
148708
147823
147497
148277
148709
148949
148778
147818
147526
148439
148789
149007
148829
147918
147734
148656
148961
148621
148229
147317
147703
148726
148897
148753
148398
147455
147777
148706
148906
148777
148437
147454
146992
148061
148439
148764
148524
147503
147151
148200
148570
148831
148606
147621
147399
148449
148785
148434
147924
147011
147355
148541
148714
148537
148108
147076
147507
148588
148779
148743
148380
147311
146824
147900
148349
148608
148540
147306
146819
147885
148347
148593
148339
147222
147010
148105
148509
148142
147852
146437
147116
148205
148555
148297
147899
146645
147214
148324
148600
148553
148177
146961
146480
147586
148133
148462
148276
146966
146641
147817
148288
148524
148348
147253
147001
148141
148498
147915
147380
146117
146725
147960
148275
148205
147756
146484
145896
147403
147829
148260
147879
146639
146091
147536
147991
148340
148041
146785
146510
147880
148298
147819
147271
145898
146610
147917
148196
148269
147808
146488
145517
147232
147660
147953
147551
145999
145693
147264
147817
147356
146825
145039
145914
147487
147883
147603
147031
145413
146207
147678
148018
147998
147496
145954
145282
146827
147462
147874
147568
146126
146026
147482
147980
147270
146742
144940
145397
147097
147561
147410
146810
145030
144482
146261
146978
147524
147104
145430
145140
146923
147518
147012
146279
144454
145463
147127
147522
147582
147019
145181
144524
146296
147021
147246
146787
145035
144282
146349
147025
146766
145993
143791
143192
145271
146302
146939
146493
144375
144091
146249
147018
146408
145667
143155
144650
146552
146974
147245
146772
144593
143017
145524
146473
145569
144481
141861
143343
145714
146349
146354
145561
142973
142420
145344
146225
145750
144178
141978
143590
145925
146325
146563
145828
143256
141274
144440
145593
144724
143334
140252
142269
145056
145660
145786
144907
141917
141377
144913
145818
146032
144569
141810
138016
142864
143910
144989
143779
140319
139944
143720
144933
144914
143546
139459
139392
143807
145160
144768
142943
137718
136482
141778
143956
142721
141050
135018
139387
143250
144460
144425
143009
138582
137409
142337
144108
143722
141916
136617
136194
141711
143494
143351
141261
135328
134902
141017
143253
143235
140860
134624
134340
140669
143207
143141
140446
134058
133804
140214
143054
142957
139985
133584
133398
139761
142852
142743
139545
133239
133103
139339
142628
142512
139144
132990
132895
138958
142392
142270
138782
132818
132757
138615
142146
142023
138459
132709
132674
138313
141898
141777
138179
132650
132636
138055
141655
141536
137941
132630
132631
137837
141417
141301
137741
132639
132653
137653
141186
141074
137573
132673
132696
137499
140963
140856
137433
132723
132754
137372
140750
140648
137318
132787
132823
137269
140548
140452
137226
132861
132901
137188
140359
140270
137154
132942
132984
137123
140184
140104
137097
133028
133071
137073
140025
139952
137053
133115
133158
137034
139881
139815
137019
133202
133244
137005
139751
139692
136993
133287
133328
136983
139635
139582
136974
133369
133409
136967
139531
139485
136961
133449
133487
136956
139440
139399
136952
133526
133562
136949
139360
139324
136947
133599
133633
136945
139290
139259
136945
133667
133699
136945
139230
139203
136946
133731
133760
136946
139177
139155
136948
133790
133817
136950
139133
139114
136953
133844
133868
136956
139095
139079
136959
133893
133916
136963
139063
139049
136967
133939
133959
136970
139035
139023
136975
133980
133999
136979
139012
139002
136984
134018
134035
136989
138992
138984
136994
134052
134068
136999
138976
138969
137004
134084
134099
137009
138962
138956
137014
134114
134127
137019
138950
138945
137024
134140
134152
137028
138940
138936
137033
134165
134176
137037
138931
138928
137042
134187
134197
137046
138923
138920
137051
134207
134216
137055
138917
138914
137059
134226
134234
137062
138911
138909
137067
134242
134250
137070
138906
138904
137074
134258
134265
137077
138902
138900
137081
134272
134278
137084
138898
138897
137088
134285
134291
137091
138895
138895
137095
134297
134302
137097
138893
138893
137101
134308
134313
137104
138891
138891
137108
134319
134323
137110
138890
138890
137114
134329
134333
137117
138889
138890
137120
134338
134342
137123
138889
138890
137127
134347
134351
137130
138889
138890
137133
134356
134360
137136
138889
138891
137140
134364
134368
137143
138890
138892
137146
134373
134377
137149
138892
138894
137153
134381
134385
137156
138894
138896
137160
134389
134393
137163
138896
138898
137167
134398
134401
137170
138898
138901
137174
134406
134409
137177
138901
138904
137181
134414
134417
137184
138904
138907
137188
134422
134425
137191
138908
138911
137195
134430
134433
137199
138912
138915
137203
134437
134441
137206
138916
138920
137210
134445
134449
137214
138921
138924
137218
134453
134457
137221
138925
138929
137226
134461
134465
137229
138931
138935
137233
134469
134472
137237
138936
138940
137241
134476
134480
137245
138942
138946
137249
134484
134487
137253
138947
138952
137257
134491
134495
137261
138954
138958
137266
134499
134502
137269
138960
138965
137274
134506
134510
137278
138966
138971
137282
134514
134517
137286
138973
138978
137290
134521
134525
137294
138980
138985
137299
134528
134532
137303
138987
138992
137307
134535
134539
137311
138994
138999
137316
134542
134546
137320
139002
139007
137324
134549
134553
137328
139009
139014
137332
134556
134560
137336
139017
139022
137341
134563
134566
137345
139024
139030
137349
134570
134573
137353
139032
139037
137357
134576
134579
137361
139040
139045
137366
134583
134586
137370
139048
139053
137374
134589
134592
137378
139055
139061
137382
134595
134598
137386
139063
139069
137390
134601
134604
137394
139071
139077
137399
134607
134610
137402
139079
139084
137407
134613
134615
137410
139087
139092
137415
134618
134621
137418
139095
139100
137423
134624
134626
137426
139103
139108
137430
134629
134631
137434
139111
139116
137438
134634
134636
137442
139118
139124
137446
134639
134641
137449
139126
139132
137454
134644
134646
137457
139134
139140
137461
134648
134650
137464
139142
139147
137468
134652
134654
137471
139149
139155
137475
134656
134658
137478
139157
139162
137482
134660
134662
137485
139164
139169
137489
134664
134665
137492
139171
139178
137495
134667
134668
137498
139179
139185
137503
134673
134675
137506
139189
139192
137511
134678
134680
137509
139189
139177
137498
134678
134670
137482
139159
139204
137503
134685
134760
137599
139355
139448
137673
134818
142056
144691
146368
146740
146890
147546
147883
148029
148174
148587
148855
149138
149349
149505
149620
149703
149763
149805
149836
149859
149877
149890
149901
149909
149916
149922
149926
149929
149931
149933
149934
149936
149936
149932
149934
149941
149946
149954
149962
149972
149983
149994
150005
150015
150021
150023
150022
150020
150017
150015
150013
150012
150010
150009
150007
150005
150003
150000
149998
149996
149994
149992
149990
149989
149988
149987
149986
149986
149986
149986
149987
149989
149991
149993
149997
150000
150005
150010
150015
150021
150027
150033
150040
150046
150052
150058
150063
150068
150072
150075
150078
150080
150081
150081
150081
150080
150079
150077
150074
150071
150068
150064
150061
150057
150053
150048
150044
150040
150036
150032
150028
150024
150020
150016
150013
150009
150006
150003
150000
149997
149994
149991
149989
149986
149984
149982
149980
149978
149977
149975
149974
149972
149971
149970
149969
149968
149967
149966
149966
149965
149964
149964
149963
149963
149963
149962
149962
149962
149962
149962
149962
149962
149962
149962
149962
149962
149962
149963
149963
149963
149963
149964
149964
149965
149965
149966
149966
149966
149967
149968
149968
149969
149969
149970
149971
149971
149972
149973
149973
149974
149975
149976
149976
149977
149978
149979
149980
149980
149981
149982
149983
149984
149985
149986
149987
149988
149989
149990
149991
149993
149994
149996
150000
150007
150012
150015
150015
150017
150004
150012
150012
150020
150026
150029
150029
150027
150026
150024
150022
150021
150020
150019
150018
150017
150016
150016
150015
150015
150014
150014
150013
150013
150012
150012
150012
150011
150011
150011
150011
150010
150010
150010
150010
150009
150009
150009
150009
150008
150008
150008
150008
150008
150007
150007
150007
150007
150006
150006
150006
150006
150006
150005
150005
150005
150005
150005
150004
150004
150004
150004
150003
150003
150003
150003
150002
150002
150002
150001
150001
150000
150000
149999
149999
149998
149997
149995
149994
149994
149995
149997
149999
150000
150004
150009
150019
150024
150024
150021
150019
150016
150013
150010
150008
150005
150003
150000
149998
149995
149993
149990
149988
149985
149983
149980
149979
149976
149975
149971
149971
149967
149967
149963
149963
149959
149959
149956
149955
149952
149952
149949
149949
149945
149945
149942
149942
149939
149939
149936
149936
149933
149934
149930
149931
149928
149928
149925
149926
149923
149923
149920
149921
149918
149918
149915
149916
149913
149913
149911
149911
149908
149909
149906
149907
149904
149905
149902
149903
149900
149901
149899
149899
149897
149898
149895
149896
149894
149895
149893
149894
149892
149893
149891
149893
149891
149893
149891
149893
149891
149894
149892
149895
149893
149896
149895
149898
149897
149900
149899
149902
149901
149905
149903
149907
149906
149910
149909
149912
149911
149915
149914
149917
149916
149920
149918
149921
149920
149923
149922
149925
149923
149926
149924
149927
149925
149927
149925
149927
149926
149927
149926
149927
149925
149927
149925
149927
149925
149926
149924
149925
149923
149924
149922
149923
149921
149923
149920
149921
149919
149920
149918
149919
149917
149918
149916
149916
149914
149915
149913
149914
149912
149913
149911
149912
149910
149912
149909
149914
149921
149931
149956
149955
149953
149965
149948
149952
149965
149949
149952
149966
149950
149953
149966
149950
149955
149968
149951
149955
149969
149952
149956
149970
149953
149957
149971
149954
149958
149971
149955
149959
149972
149956
149959
149973
149957
149960
149974
149957
149961
149975
149958
149962
149975
149959
149962
149976
149959
149963
149977
149960
149963
149977
149960
149964
149977
149960
149964
149978
149960
149964
149978
149960
149964
149978
149960
149964
149978
149960
149964
149978
149959
149963
149977
149958
149962
149976
149957
149961
149976
149956
149960
149974
149954
149958
149973
149952
149956
149972
149950
149954
149970
149948
149952
149968
149946
149951
149967
149945
149949
149966
149943
149947
149965
149941
149945
149964
149940
149944
149964
149939
149943
149962
149938
149942
149962
149938
149942
149963
149938
149943
149964
149938
149943
149964
149939
149944
149965
149939
149945
149966
149940
149946
149967
149941
149947
149969
149942
149948
149970
149944
149950
149971
149945
149951
149972
149946
149952
149974
149948
149954
149975
149949
149955
149976
149951
149957
149977
149952
149958
149979
149954
149960
149980
149955
149961
149981
149957
149963
149982
149958
149964
149983
149960
149965
149985
149961
149967
149986
149963
149968
149987
149965
149970
149988
149966
149972
149989
149968
149973
149990
149970
149975
149992
149971
149976
149993
149973
149978
149994
149975
149980
149995
149977
149981
149996
149979
149983
149998
149981
149985
149999
149983
149987
150000
149985
149989
150002
149987
149991
150003
149989
149993
150004
149991
149995
150006
149994
149997
150007
149996
150000
150008
149999
150002
150010
150002
150004
150011
150004
150007
150013
150007
150010
150014
150010
150013
150016
150013
150015
150017
150017
150018
150019
150020
150022
150020
150023
150013
150015
150015
150015
150015
150014
150014
150013
150013
150013
150012
150012
150012
150011
150011
150011
150010
150010
150010
150009
150009
150009
150008
150008
150008
150007
150007
150006
150006
150005
150005
150004
150004
150003
150002
150001
150001
150000
149999
149997
149996
149995
149994
149993
149992
149991
149991
149990
149992
149994
149996
149997
150000
150002
150005
150007
150009
150011
150012
150012
150012
150011
150011
150010
150008
150007
150006
150005
150004
150003
150002
150000
149999
149998
149997
149996
149995
149994
149993
149992
149991
149990
149989
149988
149988
149985
149969
149966
149966
149970
149985
149988
149989
149995
149995
149997
149997
149997
149998
149999
150000
150001
150002
150003
150004
150005
150006
150007
150008
150009
150010
150011
150015
150014
150013
150011
150010
150009
150008
150007
150006
150005
150004
150003
150002
150001
150001
150000
149999
149999
150000
149999
149999
149997
149998
150000
150000
150001
149994
149993
149993
149993
149993
149990
149990
149975
149977
149972
149972
149972
149973
149974
149975
149995