/*--------------------------------*- C++ -*----------------------------------*\
| =========                 |                                                 |
| \\      /  F ield         | OpenFOAM: The Open Source CFD Toolbox           |
|  \\    /   O peration     | Version:  v2006                                 |
|   \\  /    A nd           | Website:  www.openfoam.com                      |
|    \\/     M anipulation  |                                                 |
\*---------------------------------------------------------------------------*/
FoamFile
{
    version     2.0;
    format      ascii;
    class       volScalarField;
    location    "0.032";
    object      Ma;
}
// * * * * * * * * * * * * * * * * * * * * * * * * * * * * * * * * * * * * * //

dimensions      [0 0 0 0 0 0 0];


internalField   nonuniform List<scalar> 
10108
(
0.19173
0.191731
0.19173
0.191729
0.191725
0.191715
0.191674
0.191555
0.191328
0.19102
0.190666
0.190298
0.189926
0.189549
0.189165
0.188769
0.188358
0.187929
0.187483
0.187019
0.186539
0.186044
0.185533
0.185008
0.184469
0.183918
0.183355
0.182781
0.182198
0.181605
0.181005
0.180398
0.179786
0.179171
0.178552
0.177932
0.177312
0.176693
0.176076
0.175463
0.174856
0.174255
0.173662
0.173078
0.172505
0.171943
0.171395
0.170861
0.170342
0.169841
0.169357
0.168889
0.168435
0.167989
0.167549
0.167117
0.166715
0.166392
0.166203
0.166151
0.166179
0.166231
0.166282
0.166305
0.166313
0.166273
0.166141
0.165886
0.165481
0.164794
0.163955
0.160796
0.15877
0.163973
0.16498
0.165102
0.163788
0.156676
0.15463
0.163521
0.165186
0.165179
0.163161
0.15284
0.151099
0.162689
0.165082
0.164913
0.1622
0.149534
0.148064
0.161656
0.164705
0.164464
0.161141
0.146702
0.145461
0.160613
0.164196
0.163898
0.16007
0.144287
0.143203
0.159523
0.163597
0.163258
0.158974
0.142155
0.141182
0.158425
0.162926
0.162563
0.15788
0.140235
0.139342
0.15733
0.162207
0.161807
0.156768
0.138451
0.137609
0.15621
0.161424
0.16101
0.155653
0.136779
0.135988
0.1551
0.160616
0.160184
0.154541
0.1352
0.134444
0.153986
0.159775
0.159327
0.153424
0.133687
0.132957
0.152865
0.158904
0.15844
0.152299
0.132224
0.131513
0.151735
0.158002
0.157522
0.151163
0.130797
0.130101
0.150593
0.157068
0.156572
0.150013
0.129397
0.12871
0.149434
0.156104
0.155591
0.148846
0.128015
0.127334
0.148258
0.155106
0.154575
0.147658
0.126643
0.125965
0.147058
0.154074
0.153524
0.146446
0.125274
0.124594
0.145833
0.153004
0.152434
0.145206
0.123901
0.123217
0.144577
0.151893
0.151302
0.143934
0.122518
0.121828
0.143287
0.15074
0.150126
0.142626
0.121121
0.12042
0.14196
0.149541
0.148901
0.141278
0.119702
0.118989
0.140591
0.148292
0.147626
0.139886
0.118257
0.117529
0.139175
0.146989
0.146295
0.138446
0.116782
0.116037
0.137709
0.14563
0.144906
0.136954
0.115271
0.114506
0.136189
0.14421
0.143453
0.135404
0.113719
0.112931
0.134608
0.142725
0.141933
0.133792
0.11212
0.111307
0.132963
0.141169
0.14034
0.132112
0.110469
0.109628
0.131247
0.139537
0.138668
0.130358
0.10876
0.107888
0.129454
0.137825
0.136912
0.128525
0.106987
0.10608
0.127579
0.136025
0.135066
0.126606
0.105143
0.1042
0.125615
0.134132
0.133124
0.124596
0.103224
0.10224
0.123556
0.13214
0.131081
0.122487
0.101223
0.100197
0.121397
0.130044
0.128931
0.120277
0.0991361
0.0980663
0.119135
0.12784
0.126671
0.117961
0.0969601
0.0958444
0.116763
0.125523
0.124296
0.115533
0.0946911
0.0935282
0.114279
0.123089
0.121803
0.112992
0.0923267
0.0911159
0.11168
0.120536
0.119189
0.110336
0.0898659
0.0886074
0.108966
0.117862
0.116454
0.107564
0.0873099
0.0860058
0.106138
0.115068
0.113602
0.104681
0.0846635
0.0833177
0.103202
0.11216
0.11064
0.101695
0.0819357
0.0805546
0.100169
0.109146
0.107578
0.0986184
0.079141
0.0777344
0.0970549
0.10604
0.104435
0.0954727
0.0763011
0.0748828
0.0938851
0.102866
0.101237
0.0922867
0.0734461
0.0720355
0.0906939
0.0996544
0.0980219
0.0891009
0.0706177
0.0692387
0.0875264
0.0964467
0.0948345
0.0859645
0.0678656
0.0665465
0.0844369
0.0932927
0.0917293
0.0829369
0.0652491
0.0640228
0.0814895
0.090252
0.0887701
0.0800863
0.0628356
0.0617373
0.078755
0.0873909
0.0860252
0.0774852
0.0606958
0.0597615
0.0763081
0.0847808
0.0835673
0.075208
0.0589
0.0581596
0.0742178
0.0824903
0.081459
0.0733163
0.0575033
0.0569759
0.0725366
0.0805752
0.0797462
0.0718513
0.0565366
0.0562245
0.0712911
0.0790682
0.0784475
0.0708231
0.0559967
0.0558871
0.0704765
0.0779743
0.0775533
0.0702119
0.0558537
0.0559425
0.0700643
0.0772584
0.0770218
0.0699623
0.0560817
0.0563124
0.0699845
0.0768906
0.0768237
0.0700248
0.0565657
0.0568894
0.0701851
0.0768366
0.0768951
0.0703441
0.0572195
0.0576
0.0706003
0.0770144
0.0771588
0.0708364
0.0579711
0.0583741
0.0711493
0.0773471
0.0775466
0.0714285
0.0587568
0.0591578
0.0717691
0.0777768
0.0780078
0.0720661
0.0595313
0.0599147
0.0724141
0.0782592
0.0785056
0.0727132
0.060268
0.0606266
0.0730567
0.078766
0.0790165
0.0733484
0.0609544
0.0612839
0.073679
0.0792765
0.079525
0.0739585
0.0615855
0.0618889
0.0742754
0.0797816
0.0800249
0.0745408
0.0621662
0.0624469
0.0748445
0.0802763
0.080512
0.075095
0.0627016
0.0629568
0.0753804
0.0807525
0.0809789
0.0756159
0.0631905
0.0634232
0.0758847
0.081209
0.0814257
0.0761242
0.0636424
0.063904
0.076375
0.0816814
0.0819469
0.0766636
0.0641619
0.0645158
0.0769759
0.0822482
0.0825226
0.0772921
0.0648141
0.0650227
0.0775479
0.0827727
0.083171
0.0779709
0.065538
0.0659911
0.078383
0.0835241
0.0886503
0.0917829
0.0939264
0.0953089
0.0963989
0.0976975
0.0986459
0.0995848
0.100323
0.101027
0.101609
0.102166
0.102635
0.103089
0.103463
0.103815
0.104083
0.1043
0.104395
0.104307
0.103944
0.103479
0.102915
0.100979
0.0964051
0.0917223
0.0787517
0.0773632
0.0904189
0.0951589
0.0908272
0.082722
0.0626829
0.0658787
0.0856629
0.0934833
0.0936492
0.0856708
0.0649267
0.0651175
0.08598
0.0939574
0.0937862
0.0857467
0.0645874
0.0649543
0.0860249
0.0939904
0.0938892
0.0858188
0.0646548
0.0650648
0.086149
0.0941198
0.0940621
0.0861401
0.064809
0.0652496
0.0865013
0.0943342
0.0943218
0.0864307
0.0653137
0.06576
0.0868102
0.0946079
0.0946089
0.0868246
0.0658476
0.066294
0.0872098
0.0949002
0.0949104
0.0872355
0.0663961
0.0668538
0.0876285
0.0952071
0.0952292
0.0876667
0.0669722
0.0674408
0.0880672
0.0955309
0.0955626
0.0881166
0.0675739
0.0680549
0.0885253
0.0958695
0.0959135
0.0885885
0.0682059
0.0686995
0.0890063
0.0962273
0.096283
0.0890837
0.0688678
0.0693765
0.0895124
0.0966039
0.0966749
0.0896066
0.0695666
0.0700918
0.0900483
0.0970055
0.0970924
0.0901617
0.0703048
0.07085
0.0906194
0.0974339
0.0975408
0.0907557
0.0710918
0.07166
0.0912327
0.0978966
0.098026
0.0913969
0.071935
0.0725335
0.0918997
0.0983999
0.0985585
0.0920985
0.0728526
0.0734893
0.092634
0.0989558
0.0991489
0.0928765
0.0738655
0.074555
0.0934555
0.0995764
0.0998121
0.0937525
0.0750091
0.0757669
0.0943835
0.100273
0.100564
0.0947546
0.076336
0.0772105
0.0954686
0.10108
0.101448
0.0959447
0.0779611
0.0790168
0.096772
0.102038
0.102506
0.0973829
0.080035
0.0814339
0.0984204
0.103253
0.104013
0.0994292
0.0830438
0.0849986
0.1008
0.104992
0.105688
0.101756
0.0866021
0.0880453
0.102591
0.106217
0.106244
0.102708
0.088746
0.0893153
0.102723
0.106085
0.105783
0.102596
0.089733
0.0901873
0.102365
0.105423
0.104901
0.102035
0.0904157
0.0905571
0.101632
0.104335
0.103677
0.101108
0.0906271
0.090834
0.100678
0.103052
0.102265
0.100001
0.0908232
0.0907931
0.0993123
0.101388
0.100391
0.0984945
0.0907771
0.0908692
0.0976677
0.0993055
0.0978748
0.0965351
0.090887
0.0844658
0.0934453
0.0961297
0.0960373
0.0939936
0.0863639
0.085885
0.0932485
0.0950096
0.0936625
0.0921534
0.0854213
0.0846972
0.0908358
0.0921134
0.0901972
0.0891721
0.0838134
0.082627
0.0871081
0.0878579
0.0847895
0.0842622
0.0811961
0.0750013
0.0806614
0.0821931
0.0797541
0.0785478
0.0741044
0.0712498
0.0750222
0.0758719
0.0710533
0.0708066
0.068324
0.0648551
0.0653563
0.064906
0.0606852
0.0602946
0.0584459
0.0536207
0.0540321
0.0541447
0.0452171
0.046248
0.0478636
0.0316855
0.0283959
0.0293572
0.0229702
0.0183373
0.0183289
0.0405203
0.0435882
0.0485564
0.0982828
0.100232
0.107223
0.154027
0.147654
0.14397
0.167517
0.169219
0.168851
0.162235
0.166433
0.167026
0.169779
0.167536
0.156857
0.150438
0.161726
0.165448
0.159881
0.154962
0.142711
0.143869
0.156782
0.16129
0.15788
0.152625
0.139691
0.133941
0.146907
0.152854
0.155465
0.150556
0.137625
0.13452
0.14745
0.152881
0.148454
0.142559
0.129692
0.134073
0.146638
0.151528
0.149353
0.143953
0.131141
0.126909
0.139316
0.145203
0.148281
0.143629
0.1316
0.129393
0.141558
0.146734
0.143004
0.137383
0.125416
0.130256
0.141721
0.14617
0.14501
0.140075
0.128391
0.124762
0.136241
0.141641
0.144873
0.140595
0.129505
0.127541
0.138951
0.143785
0.140682
0.135353
0.124019
0.129104
0.139957
0.144077
0.143374
0.13866
0.127488
0.124278
0.13538
0.140526
0.143931
0.139926
0.129227
0.127679
0.138704
0.143339
0.140637
0.135561
0.12455
0.129452
0.140116
0.144052
0.143566
0.138947
0.127907
0.124873
0.135946
0.14101
0.144624
0.140817
0.13029
0.128785
0.139641
0.144152
0.14159
0.13667
0.125298
0.131025
0.141687
0.145361
0.143709
0.139388
0.128622
0.133032
0.143434
0.147114
0.147155
0.142903
0.132483
0.130175
0.140394
0.145008
0.148324
0.144636
0.134236
0.133031
0.143869
0.148224
0.146099
0.141443
0.130503
0.135764
0.146411
0.149951
0.148331
0.144021
0.133166
0.138103
0.1482
0.151705
0.152252
0.14822
0.138242
0.135918
0.145815
0.150218
0.153598
0.149966
0.139359
0.137337
0.147957
0.152308
0.156059
0.152752
0.142944
0.142827
0.152599
0.156544
0.154382
0.149959
0.140085
0.14394
0.154124
0.157577
0.156724
0.152656
0.142588
0.148017
0.157405
0.160439
0.160856
0.157068
0.147531
0.144737
0.15443
0.158762
0.162138
0.158871
0.149119
0.148053
0.157673
0.1615
0.165107
0.162186
0.152857
0.152093
0.161668
0.16542
0.163481
0.159171
0.149323
0.153842
0.163692
0.166761
0.166146
0.162386
0.1526
0.157483
0.166808
0.169598
0.169988
0.166315
0.156725
0.15401
0.163822
0.168159
0.171605
0.168557
0.15847
0.157272
0.167091
0.170944
0.174539
0.171797
0.162169
0.160527
0.170062
0.173665
0.176707
0.173773
0.164124
0.163472
0.173394
0.177058
0.175642
0.171519
0.161565
0.166332
0.17634
0.179163
0.178292
0.174621
0.16446
0.168485
0.178598
0.181447
0.180621
0.176864
0.166751
0.171631
0.18112
0.183803
0.184611
0.18119
0.17155
0.169377
0.179215
0.183227
0.186441
0.183604
0.17339
0.171175
0.181658
0.185391
0.188697
0.185934
0.175926
0.174869
0.184594
0.188167
0.19153
0.188961
0.17932
0.177967
0.187474
0.190925
0.193784
0.191225
0.181959
0.180911
0.190558
0.194017
0.192628
0.188494
0.178413
0.183217
0.193268
0.195929
0.195422
0.191909
0.181623
0.186145
0.196207
0.198699
0.197899
0.194401
0.184371
0.18809
0.198252
0.200907
0.200346
0.196702
0.186581
0.191705
0.201135
0.203587
0.204497
0.201193
0.191488
0.189443
0.199276
0.203244
0.206439
0.203769
0.193612
0.191352
0.201895
0.205552
0.208748
0.206067
0.195752
0.194465
0.204578
0.208243
0.211789
0.209342
0.199455
0.198173
0.207865
0.211329
0.214353
0.211895
0.202226
0.20086
0.210464
0.213894
0.21694
0.214543
0.205199
0.20461
0.214332
0.217675
0.216404
0.212425
0.202547
0.206884
0.21698
0.219561
0.219022
0.215457
0.205016
0.209593
0.219945
0.222368
0.221785
0.218246
0.207928
0.21201
0.222425
0.224889
0.224321
0.220727
0.210367
0.21508
0.225189
0.227602
0.22736
0.223941
0.213864
0.218562
0.228204
0.230503
0.231631
0.228245
0.218327
0.216263
0.226335
0.23039
0.233572
0.230881
0.22025
0.218275
0.229021
0.232884
0.236395
0.23387
0.223132
0.221697
0.232333
0.235999
0.239522
0.23714
0.226609
0.225018
0.23549
0.239005
0.24202
0.239558
0.229065
0.227631
0.238071
0.241633
0.244925
0.242606
0.2326
0.232214
0.242568
0.245943
0.244628
0.240423
0.22982
0.234236
0.245146
0.247813
0.247244
0.243478
0.232141
0.237175
0.248315
0.25083
0.250357
0.246559
0.235388
0.240441
0.251498
0.253894
0.253535
0.24988
0.23896
0.243668
0.254511
0.256961
0.256653
0.253014
0.242089
0.247128
0.25754
0.259927
0.261227
0.257566
0.24677
0.244577
0.255611
0.260027
0.263836
0.261083
0.249817
0.24808
0.259378
0.26339
0.267149
0.264592
0.253045
0.251108
0.26271
0.266631
0.27034
0.267748
0.256248
0.254722
0.266111
0.269988
0.273713
0.2712
0.260016
0.258838
0.269972
0.273704
0.277426
0.275082
0.2645
0.264452
0.275355
0.278963
0.277563
0.27316
0.261842
0.266223
0.278083
0.280984
0.280264
0.276029
0.263931
0.269361
0.281516
0.284191
0.284118
0.280009
0.267948
0.274442
0.2861
0.288507
0.288517
0.284751
0.273265
0.278172
0.28973
0.292271
0.291925
0.287987
0.27626
0.28148
0.292808
0.295437
0.297204
0.293237
0.281413
0.279444
0.291484
0.296259
0.30039
0.297381
0.284943
0.283567
0.29614
0.300449
0.305322
0.302891
0.290589
0.288489
0.300879
0.304843
0.308216
0.305366
0.292772
0.290744
0.303405
0.307688
0.311825
0.309119
0.297026
0.297254
0.30985
0.313967
0.31316
0.308191
0.2954
0.301925
0.314764
0.317508
0.31709
0.312757
0.299679
0.305444
0.318605
0.321394
0.320933
0.316489
0.303236
0.30941
0.322391
0.325288
0.325538
0.321163
0.30811
0.315335
0.327666
0.330268
0.333477
0.329544
0.316802
0.315608
0.328196
0.332945
0.337191
0.334158
0.32083
0.317854
0.331675
0.336375
0.340827
0.337792
0.324151
0.322623
0.336427
0.341015
0.346232
0.343457
0.33053
0.331784
0.345229
0.349508
0.349334
0.344319
0.330868
0.337785
0.351575
0.354336
0.353454
0.348888
0.334455
0.339788
0.354198
0.357459
0.357454
0.352532
0.337979
0.347011
0.360372
0.363183
0.366843
0.362377
0.348307
0.347792
0.361828
0.367137
0.37299
0.370247
0.35634
0.353178
0.367865
0.37245
0.376515
0.373297
0.358816
0.357837
0.373201
0.378355
0.377684
0.37149
0.355694
0.365663
0.380864
0.384139
0.386265
0.381408
0.366256
0.377234
0.391036
0.393251
0.395763
0.391443
0.376428
0.372072
0.387968
0.394
0.398979
0.395219
0.378904
0.377072
0.393874
0.399542
0.406911
0.404134
0.389452
0.3937
0.408832
0.41311
0.412892
0.407565
0.392353
0.397778
0.414325
0.417999
0.417497
0.411805
0.39433
0.404462
0.420435
0.423829
0.428573
0.423064
0.405981
0.407691
0.42455
0.430816
0.439808
0.437316
0.421371
0.417445
0.43447
0.439412
0.444297
0.440701
0.424082
0.423201
0.44108
0.446869
0.448038
0.441029
0.422743
0.442167
0.455633
0.457741
0.464856
0.461496
0.447194
0.442471
0.45891
0.464406
0.469753
0.465985
0.44886
0.448118
0.467508
0.473327
0.475627
0.468519
0.44868
0.470665
0.485045
0.486639
0.494182
0.490361
0.474138
0.46834
0.487343
0.493631
0.500055
0.496326
0.477901
0.480361
0.500481
0.505739
0.510191
0.503717
0.483999
0.501206
0.519448
0.521236
0.526115
0.520755
0.498689
0.496412
0.519513
0.52722
0.538132
0.536906
0.523554
0.530795
0.546031
0.548206
0.552784
0.547476
0.526893
0.52199
0.546012
0.553617
0.563802
0.563007
0.54949
0.554643
0.571254
0.572879
0.577748
0.573243
0.548926
0.552319
0.579402
0.584466
0.583895
0.576438
0.548846
0.562061
0.586542
0.590074
0.590046
0.586326
0.560141
0.554341
0.58415
0.59025
0.588802
0.580999
0.543171
0.527053
0.572038
0.582548
0.568754
0.554862
0.497675
0.456903
0.525659
0.544316
0.518839
0.496272
0.41806
0.391845
0.47518
0.501031
0.488176
0.459408
0.371772
0.354288
0.444656
0.476407
0.466095
0.431633
0.338299
0.324515
0.419271
0.456326
0.448067
0.408749
0.312375
0.301861
0.398469
0.439802
0.432673
0.389598
0.292198
0.283579
0.380598
0.425222
0.418802
0.372858
0.275614
0.26845
0.36492
0.411901
0.40611
0.358271
0.261904
0.256091
0.351408
0.399894
0.394798
0.34582
0.250828
0.246154
0.339908
0.389131
0.384588
0.335218
0.241948
0.238238
0.330136
0.379505
0.375517
0.326217
0.234915
0.231975
0.321824
0.370869
0.367301
0.318509
0.229363
0.227078
0.31471
0.363129
0.35999
0.311902
0.225213
0.223459
0.30862
0.3562
0.35347
0.306253
0.222225
0.220879
0.303417
0.350082
0.347794
0.301532
0.220138
0.219109
0.299086
0.344728
0.342853
0.297534
0.218725
0.217935
0.295427
0.340136
0.338638
0.294254
0.217824
0.217226
0.292447
0.336197
0.33504
0.291526
0.21731
0.216861
0.289989
0.332898
0.332043
0.28937
0.217101
0.216771
0.288066
0.33012
0.329533
0.287631
0.217118
0.216872
0.286523
0.327841
0.327484
0.28632
0.217302
0.217136
0.285393
0.325965
0.325814
0.285323
0.217634
0.217516
0.28454
0.324475
0.32449
0.284647
0.218058
0.217996
0.284004
0.323281
0.323448
0.284199
0.218582
0.218549
0.283659
0.322375
0.32266
0.283988
0.219158
0.219169
0.283557
0.321688
0.322082
0.28394
0.219808
0.219832
0.283581
0.321217
0.32173
0.284066
0.22048
0.220536
0.283789
0.320934
0.321469
0.284303
0.221205
0.221268
0.284072
0.320753
0.321341
0.284659
0.221939
0.22203
0.284488
0.320682
0.321319
0.285085
0.222719
0.222813
0.284947
0.320723
0.321392
0.285602
0.223494
0.223603
0.285503
0.320833
0.321531
0.286151
0.224294
0.224402
0.286071
0.321019
0.321736
0.286764
0.225081
0.225199
0.286711
0.321251
0.321984
0.287384
0.225881
0.225994
0.287337
0.321535
0.322273
0.288043
0.226661
0.226768
0.288
0.321836
0.322583
0.288681
0.227433
0.227541
0.288639
0.322181
0.322928
0.28935
0.228191
0.22828
0.289298
0.322523
0.323267
0.289974
0.228914
0.228997
0.289916
0.32289
0.323632
0.290621
0.229614
0.229683
0.290556
0.323253
0.323989
0.291217
0.230283
0.230339
0.291142
0.32363
0.324358
0.29182
0.230919
0.230962
0.29174
0.323994
0.324716
0.292375
0.231523
0.23155
0.292283
0.324369
0.325079
0.292934
0.232087
0.232099
0.292833
0.324723
0.325427
0.293443
0.23262
0.232619
0.293334
0.32509
0.325783
0.293962
0.23312
0.233104
0.293844
0.325433
0.32612
0.294432
0.233588
0.23356
0.294305
0.325786
0.326461
0.29491
0.234027
0.233986
0.294775
0.326114
0.326783
0.29534
0.234439
0.234387
0.295197
0.326451
0.327108
0.295781
0.234824
0.234762
0.295629
0.326761
0.327413
0.296174
0.235187
0.235114
0.296014
0.327079
0.327719
0.296578
0.235525
0.235443
0.296408
0.327369
0.328002
0.296934
0.235845
0.235754
0.296757
0.327666
0.328289
0.297303
0.236144
0.236045
0.297119
0.327936
0.328553
0.297628
0.236427
0.236319
0.297434
0.328214
0.328819
0.297963
0.236691
0.236578
0.297763
0.328463
0.329064
0.298256
0.236943
0.236821
0.298049
0.328721
0.329311
0.298562
0.237178
0.237051
0.298348
0.328951
0.329536
0.298825
0.237401
0.237266
0.298605
0.329188
0.329763
0.299103
0.237607
0.237467
0.298876
0.329398
0.329968
0.299339
0.237802
0.237656
0.299106
0.329616
0.330177
0.29959
0.237983
0.237832
0.299351
0.329807
0.330364
0.299801
0.238155
0.237998
0.299556
0.330007
0.330555
0.300028
0.238313
0.238154
0.299779
0.330181
0.330726
0.300217
0.238466
0.238301
0.299963
0.330365
0.330902
0.300425
0.238607
0.23844
0.300167
0.330524
0.331059
0.300595
0.238744
0.238572
0.300333
0.330695
0.331223
0.300786
0.238871
0.238698
0.30052
0.330842
0.331368
0.300941
0.238994
0.238818
0.300671
0.331
0.33152
0.301116
0.239109
0.238931
0.300844
0.331135
0.331653
0.301256
0.239221
0.23904
0.300981
0.331283
0.331794
0.301418
0.239325
0.239142
0.301139
0.331407
0.331918
0.301545
0.239427
0.239241
0.301264
0.331544
0.332049
0.301694
0.239521
0.239334
0.30141
0.331658
0.332162
0.30181
0.239613
0.239423
0.301522
0.331786
0.332283
0.301947
0.239699
0.239507
0.301657
0.33189
0.332388
0.302051
0.239782
0.239588
0.301759
0.332008
0.3325
0.302178
0.239858
0.239663
0.301882
0.332103
0.332595
0.30227
0.239933
0.239735
0.301973
0.332212
0.332698
0.302386
0.240001
0.239803
0.302086
0.332298
0.332784
0.302469
0.240069
0.239868
0.302167
0.332399
0.332879
0.302576
0.240131
0.239929
0.302272
0.332477
0.332959
0.302651
0.240192
0.239989
0.302346
0.332572
0.333049
0.302752
0.24025
0.240047
0.302446
0.332645
0.333124
0.302822
0.24031
0.240106
0.302515
0.332736
0.333211
0.30292
0.240367
0.240164
0.302613
0.332808
0.333286
0.302989
0.240427
0.240224
0.302683
0.332899
0.333375
0.303088
0.240488
0.240287
0.302782
0.332974
0.333453
0.30316
0.240553
0.240353
0.302856
0.333069
0.333546
0.303264
0.24062
0.240422
0.302961
0.333148
0.33363
0.303342
0.240692
0.240495
0.303041
0.333249
0.333729
0.303451
0.240765
0.240569
0.30315
0.333334
0.333817
0.303532
0.240841
0.240644
0.303232
0.333437
0.333916
0.303641
0.240913
0.240716
0.303339
0.333519
0.334
0.303719
0.240985
0.240785
0.303415
0.333619
0.334095
0.303821
0.24105
0.24085
0.303515
0.333696
0.334176
0.303918
0.241117
0.240913
0.303614
0.333797
0.334273
0.303991
0.241247
0.241042
0.30369
0.333907
0.334434
0.304104
0.241295
0.24108
0.303836
0.334059
0.334646
0.304308
0.241463
0.241233
0.304076
0.334329
0.335065
0.304642
0.241683
0.241493
0.304532
0.334818
0.33569
0.305154
0.242005
0.242353
0.305599
0.33631
0.339399
0.307712
0.244538
0.247697
0.310965
0.343379
0.34655
0.314303
0.251172
0.378654
0.397492
0.403128
0.406327
0.415753
0.420404
0.423771
0.426777
0.432808
0.436602
0.441156
0.444733
0.447359
0.449379
0.450879
0.451992
0.452815
0.453427
0.453889
0.454243
0.454518
0.454734
0.454907
0.455047
0.455161
0.455254
0.455329
0.455387
0.455429
0.455459
0.455475
0.455483
0.455495
0.455499
0.455504
0.45551
0.455516
0.45552
0.455521
0.455518
0.45551
0.455495
0.455471
0.455438
0.455395
0.455344
0.455287
0.45523
0.455173
0.455097
0.454982
0.454826
0.454639
0.454429
0.454195
0.453937
0.45365
0.45333
0.452974
0.452576
0.45213
0.45163
0.451067
0.450432
0.449717
0.448913
0.448008
0.446993
0.445856
0.444586
0.443167
0.441589
0.439835
0.437894
0.435751
0.433392
0.430809
0.42799
0.424928
0.421622
0.418067
0.414269
0.410233
0.405968
0.40149
0.396812
0.391957
0.386942
0.381793
0.37653
0.37118
0.365763
0.360306
0.354827
0.349349
0.343891
0.33847
0.333101
0.3278
0.322578
0.317447
0.312415
0.307491
0.302681
0.297988
0.29342
0.288976
0.284662
0.280476
0.276421
0.272495
0.268699
0.26503
0.261488
0.258071
0.254776
0.251603
0.248547
0.245607
0.242779
0.240061
0.23745
0.234944
0.232538
0.230231
0.228019
0.2259
0.22387
0.221927
0.220068
0.21829
0.216591
0.214968
0.213419
0.211941
0.210532
0.209189
0.207911
0.206694
0.205538
0.20444
0.203398
0.20241
0.201475
0.200591
0.199756
0.198969
0.198228
0.197533
0.196881
0.196272
0.195704
0.195177
0.19469
0.194241
0.193831
0.193458
0.193122
0.192823
0.192561
0.192336
0.192149
0.192001
0.191888
0.191809
0.191762
0.191743
0.191737
0.191733
0.191732
0.191729
0.191721
0.191689
0.19159
0.191392
0.191104
0.190758
0.190387
0.190009
0.189628
0.18924
0.18884
0.188426
0.187994
0.187545
0.187078
0.186595
0.186096
0.185582
0.185054
0.184512
0.183958
0.183392
0.182815
0.182229
0.181633
0.18103
0.18042
0.179804
0.179185
0.178562
0.177938
0.177314
0.176691
0.17607
0.175453
0.174842
0.174236
0.173639
0.17305
0.172472
0.171905
0.171351
0.170811
0.170286
0.169779
0.169288
0.168813
0.168348
0.167889
0.167431
0.166982
0.166576
0.166274
0.166126
0.166116
0.166177
0.166252
0.166314
0.166341
0.166338
0.166298
0.166119
0.166144
0.166131
0.166082
0.166006
0.165903
0.165778
0.165631
0.165468
0.165288
0.165089
0.164865
0.164631
0.164383
0.164126
0.163853
0.163572
0.163275
0.16297
0.162649
0.162322
0.161979
0.161629
0.161264
0.160892
0.160505
0.160112
0.159702
0.159286
0.158854
0.158414
0.157958
0.157494
0.157013
0.156524
0.156017
0.155501
0.154966
0.154423
0.153859
0.153286
0.152692
0.152088
0.151462
0.150824
0.150164
0.149492
0.148796
0.148087
0.147352
0.146603
0.145828
0.145036
0.144217
0.143381
0.142515
0.141631
0.140716
0.139781
0.138816
0.137828
0.136808
0.135766
0.134691
0.133591
0.132459
0.1313
0.130108
0.12889
0.127638
0.126359
0.125047
0.123708
0.122338
0.120941
0.119515
0.118065
0.116589
0.115093
0.113576
0.112043
0.110496
0.108943
0.107384
0.105828
0.104276
0.10274
0.101221
0.0997314
0.0982731
0.0968599
0.0954937
0.094191
0.0929488
0.0917869
0.090699
0.089704
0.0887903
0.0879784
0.0872485
0.0866237
0.0860751
0.085628
0.0852472
0.0849632
0.0847229
0.0845772
0.0844523
0.0844189
0.084384
0.0844333
0.0844652
0.0845727
0.084652
0.0847971
0.0849081
0.0850771
0.0852077
0.0853898
0.0855324
0.0857232
0.0858728
0.0860689
0.0862218
0.0864165
0.0865683
0.0867587
0.0869106
0.0871096
0.0872832
0.0875464
0.0877857
0.0879926
0.0882515
0.0916207
0.0938271
0.0937485
0.0914901
0.0913672
0.0936831
0.0936123
0.0911945
0.0909235
0.0933004
0.0952494
0.0950921
0.0951411
0.0952166
0.0962847
0.0961439
0.0959199
0.0976418
0.0976364
0.0976606
0.0986113
0.0985658
0.0984675
0.0980054
0.0978938
0.0950266
0.0934153
0.0908803
0.0906807
0.0930946
0.0932262
0.0906375
0.0904527
0.092923
0.094865
0.0947315
0.0930633
0.0904081
0.090223
0.0927618
0.0929125
0.0901831
0.0900034
0.0926157
0.0946138
0.0945168
0.0927808
0.0899731
0.0898023
0.0924916
0.0926743
0.0897856
0.0896273
0.0923957
0.0944458
0.0944032
0.0925987
0.0896284
0.0894871
0.0923338
0.092561
0.0895097
0.0893944
0.0923176
0.0943953
0.0944396
0.09258
0.0894493
0.089372
0.0923704
0.092677
0.0894707
0.0894455
0.0925165
0.0945609
0.0947914
0.0928816
0.0896087
0.0896537
0.0927863
0.0932293
0.0899005
0.0900427
0.0932255
0.0951733
0.0957586
0.0937803
0.0904018
0.0906641
0.0938912
0.0945721
0.0911524
0.0915631
0.0948262
0.0965965
0.0977335
0.0956533
0.092199
0.092782
0.0960715
0.0970564
0.0935791
0.094345
0.0976493
0.0992013
0.101007
0.0987924
0.0953055
0.096251
0.099557
0.100845
0.0973654
0.0984743
0.101766
0.103129
0.105523
0.103184
0.099724
0.100971
0.104239
0.105742
0.10233
0.103686
0.106892
0.108125
0.110868
0.108465
0.105119
0.106543
0.109687
0.111295
0.108026
0.109491
0.11256
0.11369
0.116546
0.11418
0.110999
0.11248
0.115464
0.117075
0.113991
0.115467
0.118356
0.119393
0.1222
0.11994
0.116964
0.11842
0.121201
0.122749
0.119883
0.121301
0.123981
0.124941
0.127597
0.12548
0.122724
0.124094
0.126673
0.128117
0.125469
0.126785
0.129264
0.130157
0.13261
0.13065
0.128107
0.129365
0.131746
0.133072
0.130631
0.131829
0.134116
0.134953
0.137184
0.13538
0.133037
0.134176
0.136372
0.137574
0.135326
0.136405
0.138513
0.139302
0.141309
0.139655
0.137499
0.138519
0.140543
0.141626
0.139557
0.140522
0.142464
0.143208
0.145003
0.14349
0.141506
0.142416
0.14428
0.145252
0.143348
0.144206
0.145995
0.146697
0.148295
0.146913
0.145088
0.145896
0.147612
0.148479
0.146729
0.14749
0.149134
0.149798
0.151211
0.149953
0.148277
0.148994
0.150568
0.15134
0.149737
0.150412
0.151917
0.15254
0.153788
0.152646
0.151114
0.151749
0.153187
0.153874
0.152413
0.153011
0.154382
0.154961
0.156061
0.155029
0.153638
0.154201
0.155506
0.156115
0.154794
0.155324
0.156563
0.157094
0.158061
0.157136
0.155883
0.156383
0.157556
0.158094
0.156911
0.157381
0.158488
0.158967
0.159813
0.158993
0.157878
0.158321
0.159362
0.159833
0.158788
0.159204
0.160178
0.160602
0.161335
0.160619
0.159643
0.160034
0.160942
0.161352
0.160447
0.160813
0.161654
0.162015
0.162643
0.162035
0.161199
0.161542
0.162316
0.162668
0.161903
0.162224
0.16293
0.163222
0.163753
0.163253
0.16256
0.162858
0.163496
0.163792
0.163169
0.163446
0.164016
0.164237
0.164674
0.164284
0.163732
0.163987
0.164489
0.164729
0.164248
0.16448
0.164914
0.165062
0.165402
0.165125
0.164715
0.164924
0.165291
0.165472
0.165132
0.165317
0.165618
0.165692
0.165937
0.165771
0.165499
0.165661
0.165898
0.166024
0.165818
0.16595
0.166125
0.166134
0.166271
0.166214
0.166065
0.166163
0.166285
0.166341
0.166245
0.16631
0.166385
0.166353
0.166389
0.16641
0.166356
0.166382
0.166425
0.166416
0.166383
0.166355
0.166386
0.16638
0.166317
0.1663
0.166259
0.166184
0.166067
0.165904
0.165696
0.165445
0.165149
0.164807
0.16442
0.163989
0.163512
0.162988
0.162417
0.161795
0.161121
0.160392
0.159606
0.158763
0.157858
0.15689
0.155854
0.154747
0.153566
0.152306
0.150965
0.149538
0.148019
0.146404
0.144689
0.142868
0.140937
0.138893
0.136733
0.134457
0.132065
0.129558
0.126941
0.124225
0.121423
0.118558
0.115661
0.112775
0.109958
0.107281
0.104822
0.102661
0.100871
0.0994874
0.0984982
0.0978517
0.0974774
0.0973004
0.0972469
0.0972593
0.0973115
0.09739
0.0974763
0.0975626
0.097648
0.0977313
0.0978111
0.099797
0.0998415
0.0998886
0.0995866
0.0995762
0.0995772
0.100307
0.100282
0.100227
0.101054
0.10104
0.101033
0.101609
0.101597
0.101568
0.101313
0.101305
0.102479
0.102455
0.102223
0.102201
0.102184
0.10265
0.102654
0.102644
0.103187
0.103153
0.103124
0.103499
0.10352
0.10353
0.103402
0.10346
0.103507
0.102494
0.10129
0.101264
0.0997451
0.0996811
0.0996036
0.101165
0.101224
0.102488
0.102497
0.103545
0.103572
0.103584
0.102459
0.102402
0.101079
0.0995094
0.0993953
0.100957
0.100786
0.0992606
0.0991054
0.100554
0.101861
0.102131
0.102301
0.103515
0.103572
0.104641
0.104591
0.104525
0.104451
0.104371
0.104284
0.104182
0.103983
0.103926
0.103875
0.10415
0.104197
0.104233
0.104563
0.104476
0.104395
0.104489
0.104574
0.104654
0.104727
0.104881
0.10472
0.104623
0.104555
0.104496
0.104422
0.104336
0.103613
0.103579
0.103213
0.101191
0.0977697
0.0995507
0.102354
0.102425
0.1
0.10024
0.102727
0.10366
0.103714
0.102773
0.102566
0.100131
0.10027
0.100198
0.102623
0.102847
0.103782
0.103849
0.103979
0.104092
0.104791
0.104895
0.105024
0.105164
0.105306
0.105451
0.105497
0.105392
0.105282
0.105178
0.105082
0.104978
0.104366
0.104235
0.103362
0.103119
0.103208
0.102967
0.103075
0.102836
0.102944
0.102712
0.100329
0.10038
0.100519
0.100486
0.100693
0.100668
0.100879
0.100862
0.101077
0.101066
0.103278
0.103516
0.103445
0.10129
0.101284
0.101511
0.103687
0.10452
0.104666
0.103858
0.103622
0.101518
0.101743
0.101769
0.103808
0.104048
0.104832
0.104996
0.105178
0.105365
0.105625
0.105733
0.105598
0.105741
0.10466
0.104609
0.103382
0.103119
0.102658
0.101462
0.100251
0.0989249
0.0987524
0.09987
0.0994552
0.0986692
0.0987599
0.0991702
0.0994187
0.100181
0.100907
0.101945
0.100931
0.0996573
0.0997608
0.101639
0.103007
0.103904
0.104402
0.105805
0.10585
0.106317
0.106191
0.106003
0.105887
0.105789
0.105567
0.10492
0.104681
0.104676
0.10444
0.104454
0.104215
0.104241
0.104006
0.102026
0.101997
0.10226
0.10231
0.10255
0.102606
0.102854
0.102935
0.103192
0.103286
0.104944
0.105183
0.10523
0.10368
0.103556
0.103966
0.105476
0.106026
0.106299
0.105798
0.10555
0.104112
0.104412
0.104601
0.105902
0.106167
0.106598
0.106987
0.106559
0.106684
0.106849
0.107782
0.107401
0.107188
0.106837
0.106618
0.106321
0.105172
0.104933
0.105555
0.105877
0.106372
0.106898
0.107534
0.107908
0.108168
0.107942
0.107502
0.108214
0.10829
0.107793
0.106645
0.105303
0.104081
0.10207
0.0993163
0.0997068
0.101494
0.103148
0.104433
0.105468
0.106249
0.107335
0.106441
0.105195
0.105863
0.1065
0.107105
0.107571
0.107959
0.108192
0.108149
0.107925
0.107537
0.107081
0.106473
0.105828
0.105081
0.105125
0.104349
0.103679
0.101801
0.0996313
0.0970183
0.0974152
0.0951438
0.0957336
0.0977506
0.0985778
0.0989545
0.0991875
0.0991322
0.0999068