/*--------------------------------*- C++ -*----------------------------------*\
| =========                 |                                                 |
| \\      /  F ield         | OpenFOAM: The Open Source CFD Toolbox           |
|  \\    /   O peration     | Version:  v2006                                 |
|   \\  /    A nd           | Website:  www.openfoam.com                      |
|    \\/     M anipulation  |                                                 |
\*---------------------------------------------------------------------------*/
FoamFile
{
    version     2.0;
    format      ascii;
    class       volScalarField;
    location    "0.019";
    object      p;
}
// * * * * * * * * * * * * * * * * * * * * * * * * * * * * * * * * * * * * * //

dimensions      [1 -1 -2 0 0 0 0];


internalField   nonuniform List<scalar> 
12716
(
146422
146422
146422
146422
146422
146422
146422
146422
146421
146420
146422
146426
146434
146444
146455
146467
146479
146492
146505
146518
146532
146547
146561
146577
146592
146609
146625
146642
146659
146677
146694
146712
146731
146749
146767
146786
146805
146823
146842
146860
146879
146897
146915
146933
146950
146968
146984
147001
147017
147032
147047
147062
147076
147090
147103
147116
147127
147136
147142
147144
147143
147142
147142
147141
147141
147146
147156
147178
147217
147244
147261
147238
147236
147227
147223
147225
147227
147215
147215
147214
147204
147204
147204
147194
147194
147195
147187
147186
147186
147180
147180
147181
147175
147175
147174
147170
147170
147171
147167
147167
147166
147164
147164
147164
147163
147162
147162
147160
147160
147161
147160
147160
147159
147159
147159
147160
147160
147159
147159
147160
147160
147161
147162
147161
147161
147163
147163
147164
147166
147165
147165
147167
147168
147168
147171
147171
147170
147173
147174
147174
147178
147177
147177
147181
147181
147182
147186
147186
147186
147190
147190
147191
147196
147196
147195
147201
147201
147201
147207
147207
147207
147213
147213
147213
147220
147220
147219
147226
147227
147227
147235
147234
147234
147241
147242
147242
147251
147250
147250
147258
147259
147259
147268
147268
147267
147277
147277
147277
147288
147287
147287
147297
147297
147298
147309
147308
147308
147319
147320
147320
147332
147332
147331
147344
147344
147344
147357
147357
147357
147370
147370
147371
147385
147384
147384
147399
147399
147399
147415
147414
147414
147429
147430
147430
147447
147446
147446
147463
147463
147464
147481
147481
147481
147499
147499
147500
147519
147518
147518
147537
147538
147538
147559
147558
147558
147579
147579
147580
147601
147601
147600
147623
147623
147624
147647
147647
147646
147670
147670
147671
147696
147695
147695
147720
147721
147721
147748
147747
147746
147773
147774
147774
147802
147802
147801
147830
147830
147831
147860
147860
147859
147889
147890
147891
147922
147921
147921
147952
147953
147953
147986
147986
147985
148018
148019
148020
148054
148053
148053
148088
148088
148089
148125
148124
148123
148160
148160
148161
148198
148197
148197
148234
148235
148236
148274
148273
148273
148311
148312
148313
148352
148351
148350
148389
148390
148391
148430
148429
148429
148468
148469
148470
148509
148508
148508
148547
148547
148548
148587
148586
148586
148624
148624
148625
148663
148662
148662
148699
148699
148700
148736
148735
148735
148769
148770
148771
148805
148804
148803
148835
148836
148837
148868
148867
148866
148895
148896
148897
148924
148924
148923
148949
148949
148950
148974
148973
148973
148995
148995
148996
149016
149016
149015
149034
149034
149034
149051
149051
149050
149065
149066
149066
149079
149079
149079
149091
149091
149091
149101
149101
149101
149110
149110
149110
149118
149118
149118
149124
149124
149124
149129
149129
149129
149134
149134
149134
149137
149137
149137
149140
149140
149140
149142
149142
149142
149143
149143
149143
149143
149143
149144
149144
149143
149143
149143
149143
149143
149142
149142
149142
149141
149141
149141
149139
149139
149139
149137
149137
149137
149135
149135
149135
149133
149133
149133
149130
149130
149130
149127
149128
149128
149125
149125
149125
149122
149122
149122
149119
149119
149119
149116
149116
149116
149113
149112
149112
149109
149109
149109
149106
149106
149106
149103
149103
149103
149099
149099
149099
149096
149096
149096
149092
149092
149092
149089
149089
149089
149085
149085
149085
149082
149082
149082
149078
149078
149078
149075
149075
149075
149071
149071
149071
149067
149067
149067
149064
149064
149064
149061
149061
149061
149057
149057
149057
149054
149054
149054
149050
149050
149050
149047
149047
149047
149043
149043
149043
149040
149040
149040
149037
149037
149037
149033
149033
149033
149030
149030
149030
149027
149027
149027
149023
149023
149023
149020
149020
149020
149017
149017
149017
149015
149015
149014
149011
149011
149011
149008
149008
149008
149005
149005
149005
149002
149002
149002
149002
149002
149001
149002
149001
149002
149001
149002
149001
149002
149001
149002
149001
149002
149001
149001
149001
149001
149001
149002
149000
148999
148998
149002
149011
149014
149017
149027
149034
149020
148984
148901
148987
148987
148993
148989
148997
148997
148997
149003
149003
149003
149004
149004
149004
149008
149008
149008
149008
149008
149008
149011
149011
149011
149011
149011
149011
149015
149015
149015
149015
149015
149015
149018
149018
149018
149019
149019
149019
149022
149022
149022
149022
149022
149022
149025
149025
149025
149025
149025
149025
149028
149028
149028
149029
149029
149029
149031
149032
149032
149032
149032
149032
149035
149035
149035
149035
149035
149035
149038
149038
149038
149038
149038
149038
149041
149041
149041
149041
149041
149041
149044
149044
149044
149045
149045
149045
149047
149047
149047
149048
149048
149048
149051
149051
149051
149051
149051
149051
149054
149054
149054
149054
149054
149054
149057
149057
149057
149057
149057
149057
149060
149060
149060
149060
149060
149060
149063
149063
149063
149063
149063
149063
149066
149066
149066
149066
149066
149066
149069
149069
149069
149069
149069
149069
149072
149072
149072
149072
149072
149072
149075
149075
149075
149075
149075
149075
149078
149078
149078
149078
149078
149078
149080
149080
149080
149081
149080
149081
149083
149083
149083
149083
149083
149083
149086
149086
149086
149086
149086
149086
149088
149088
149088
149088
149088
149088
149091
149091
149091
149091
149091
149091
149093
149093
149093
149093
149093
149093
149095
149095
149095
149095
149095
149095
149097
149097
149097
149097
149097
149097
149099
149099
149099
149099
149099
149099
149101
149101
149101
149100
149100
149100
149102
149102
149102
149102
149101
149101
149103
149103
149103
149102
149102
149102
149103
149103
149103
149102
149101
149101
149102
149102
149102
149099
149098
149098
149096
149097
149097
149096
149095
149094
149097
149097
149098
149098
149096
149096
149097
149099
149100
149104
149102
149101
149110
149111
149112
149118
149117
149116
149124
149125
149126
149132
149131
149130
149140
149140
149140
149145
149144
149142
149151
149153
149154
149164
149163
149162
149173
149174
149174
149182
149182
149182
149188
149190
149191
149200
149200
149199
149209
149210
149211
149222
149221
149220
149235
149235
149235
149245
149244
149242
149256
149257
149258
149271
149270
149270
149282
149283
149284
149297
149295
149293
149316
149316
149317
149334
149333
149334
149269
149407
149293
149353
149351
149360
149371
149372
149372
149392
149392
149392
149410
149411
149411
149426
149429
149429
149437
149440
149446
149482
149485
149486
149513
149515
149512
149546
149550
149544
149575
149587
149581
149609
149618
149607
149630
149650
149636
149666
149684
149667
149703
149729
149700
149742
149782
149747
149791
149838
149798
149843
149895
149840
149887
149955
149896
149936
149995
149931
149970
150031
149975
150034
150080
150011
150051
150123
150072
150082
150149
150088
150123
150175
150116
150175
150219
150161
150203
150250
150181
150198
150272
150248
150294
150280
150199
150207
150289
150337
150378
150295
150218
150194
150269
150394
150388
150211
150126
150092
150159
150366
150259
150029
149972
149759
149813
150048
149615
149527
149571
148977
148932
148975
147765
148282
148408
147530
147399
146441
143822
146338
146482
145377
145135
141996
139005
143629
144384
143215
142812
139048
139350
142259
142828
142430
142066
140425
141351
142210
142465
142621
142335
141964
142286
142418
142606
142854
142627
142573
142770
142746
142981
142983
142804
142928
143087
142889
143026
143307
143082
143236
143320
143185
143365
143357
143216
143403
143501
143251
143384
143598
143373
143607
143700
143478
143626
143802
143625
143813
143928
143727
143890
143977
143805
144027
144115
143919
144063
144283
144120
144219
144310
144203
144335
144371
144273
144387
144472
144370
144433
144631
144554
144585
144667
144628
144678
144723
144678
144714
144759
144734
144764
144804
144794
144817
144914
144925
144953
144944
144933
144939
144953
144948
144944
144950
144962
144964
145156
145133
145111
145137
145152
145163
145180
145181
145191
145214
145210
145210
145190
145184
145187
145363
145387
145383
145380
145374
145366
145368
145368
145371
145393
145376
145379
145308
145460
145280
145513
145506
145496
145481
145487
145491
145478
145471
145469
145441
145439
145444
145576
145579
145560
145549
145555
145559
145544
145538
145537
145514
145512
145518
145636
145638
145620
145607
145614
145619
145606
145604
145604
145608
145606
145627
145495
145700
145530
145675
145680
145687
145662
145660
145655
145638
145634
145647
145558
145714
145579
145708
145716
145723
145690
145688
145684
145657
145653
145661
145581
145691
145601
145731
145747
145757
145715
145711
145704
145667
145664
145675
145570
145713
145599
145724
145733
145739
145728
145718
145709
145681
145686
145689
145704
145545
145673
145712
145733
145722
145703
145698
145694
145668
145674
145664
145754
145513
145694
145708
145736
145719
145679
145676
145675
145612
145609
145612
145699
145702
145687
145669
145677
145682
145667
145651
145645
145601
145606
145607
145674
145676
145662
145634
145639
145642
145597
145592
145593
145542
145584
145533
145670
145662
145642
145607
145615
145622
145536
145529
145535
145592
145605
145603
145577
145572
145567
145529
145529
145536
145472
145523
145478
145567
145586
145594
145541
145535
145528
145453
145446
145451
145517
145519
145506
145479
145485
145488
145444
145440
145439
145402
145403
145412
145498
145493
145470
145430
145436
145440
145348
145344
145350
145405
145419
145418
145386
145382
145377
145335
145336
145334
145354
145219
145321
145358
145386
145383
145332
145325
145319
145232
145232
145231
145294
145295
145283
145250
145255
145259
145195
145204
145199
145207
145004
145262
145243
145260
145220
145183
145185
145198
145089
145109
145092
145144
145155
145155
145108
145106
145102
145023
145017
145023
145093
145095
145080
145052
145057
145060
145017
145001
144996
145040
145059
145062
145009
145004
144997
144931
144932
144928
144952
144756
144910
144921
144949
144931
144893
144885
144886
144806
144818
144802
144903
144895
144874
144830
144838
144845
144737
144731
144737
144780
144795
144795
144744
144740
144736
144648
144642
144646
144711
144713
144699
144670
144678
144684
144627
144616
144614
144539
144612
144541
144627
144618
144607
144552
144557
144557
144452
144443
144455
144501
144515
144513
144464
144462
144458
144370
144366
144370
144442
144442
144425
144389
144398
144407
144321
144308
144308
144342
144358
144358
144297
144294
144289
144186
144180
144184
144249
144250
144234
144192
144197
144200
144104
144099
144104
144151
144165
144162
144140
144130
144119
144054
144055
144090
143850
144170
143913
144027
144011
144036
143958
143968
143956
143889
143799
143909
143913
143929
143903
143857
143853
143860
143749
143763
143751
143808
143823
143823
143779
143774
143763
143674
143645
143687
143712
143718
143701
143649
143652
143656
143538
143540
143538
143585
143599
143597
143547
143543
143537
143435
143421
143434
143493
143496
143480
143436
143443
143452
143341
143336
143333
143371
143387
143386
143320
143318
143314
143199
143194
143200
143255
143258
143242
143195
143199
143203
143084
143079
143085
143126
143143
143142
143084
143080
143075
142964
142956
142962
143029
143028
143008
142963
142972
142980
142871
142866
142865
142781
142723
142796
142840
142847
142823
142772
142772
142782
142630
142670
142638
142697
142711
142715
142640
142640
142635
142511
142490
142510
142571
142574
142554
142499
142502
142505
142368
142373
142372
142422
142439
142439
142376
142373
142364
142238
142213
142239
142286
142292
142273
142217
142219
142227
142079
142090
142083
142130
142146
142146
142074
142074
142069
141937
141922
141933
141994
141998
141979
141923
141927
141934
141787
141790
141790
141832
141848
141844
141786
141781
141774
141642
141634
141648
141692
141695
141676
141611
141614
141618
141451
141455
141462
141504
141517
141510
141456
141453
141449
141321
141313
141321
141376
141380
141361
141308
141317
141324
141200
141201
141197
141138
140932
141199
141148
141184
141134
141069
141057
141076
140873
140962
140888
140941
140933
140945
140847
140865
140857
140736
140665
140746
140779
140794
140768
140712
140709
140725
140540
140592
140549
140606
140618
140622
140536
140538
140527
140375
140332
140380
140415
140423
140399
140325
140322
140333
140100
140144
140132
140184
140191
140184
140130
140130
140121
139985
139957
139987
140042
140048
140024
139958
139962
139972
139783
139790
139791
139829
139850
139851
139778
139768
139755
139594
139597
139612
139413
139420
139420
139467
139466
139449
139392
139405
139401
139266
139216
139279
139313
139327
139300
139230
139230
139238
139045
139067
139049
139102
139122
139125
139024
139024
139014
138820
138792
138815
138862
138866
138844
138753
138752
138754
138482
138509
138533
138588
138599
138591
138542
138541
138533
138403
138401
138425
138175
138339
138211
138318
138314
138349
138216
138234
138213
138045
137950
138059
138045
138082
138034
137938
137918
137947
137626
137707
137671
137712
137693
137684
137615
137628
137626
137494
137493
137493
137420
137234
137390
137422
137482
137443
137372
137334
137350
137102
137194
137082
137189
137161
137161
137033
137050
137034
136796
136743
136794
136768
136760
136712
136610
136635
136656
136535
136529
136526
136311
136531
136361
136500
136489
136525
136388
136414
136386
136213
136087
136239
136192
136239
136182
136065
136044
136068
135749
135791
135765
135768
135750
135750
135538
135594
135611
135439
135420
135400
135264
135274
135290
135393
135428
135423
135329
135322
135312
135076
135066
135065
135112
135114
135090
134969
134986
135000
134719
134697
134693
134354
134340
134307
134308
134350
134390
134295
134282
134250
134113
134085
134121
134194
134226
134214
134137
134128
134116
133908
133916
133929
133634
133620
133633
133673
133698
133696
133559
133549
133545
133215
133178
133148
132782
132729
132883
132999
133029
132994
132962
132939
132956
132733
132787
132718
132810
132804
132785
132658
132674
132675
132388
132363
132366
131990
131964
131978
131931
131965
131974
131747
131689
131581
131421
131480
131525
131371
131350
131329
131535
131543
131502
131425
131442
131449
131204
131193
131186
130809
130768
130794
130791
130814
130790
130556
130512
130448
129922
130041
130134
129929
129880
129831
130139
130150
130108
130056
130073
130079
129893
129876
129863
129518
129523
129543
129043
129039
129063
128994
128956
128887
128436
128597
128697
128507
128457
128390
128300
128324
128343
128488
128533
128523
128414
128406
128391
128080
128079
128094
127530
127507
127530
126793
126598
126431
126958
127007
127036
127113
127105
127118
127040
127037
127030
126803
126765
126832
126211
126431
126258
126158
126063
125965
125281
125561
125724
125525
125458
125341
125439
125483
125490
125384
125333
125400
124809
125182
124896
124805
124668
124513
123911
124196
124373
124223
124139
124003
124144
124176
124200
124094
124074
124043
123516
123658
123743
123178
123004
122758
122948
122655
123074
123384
123485
123399
123257
123321
123414
123138
122939
122543
122722
122910
122998
123061
123021
122970
122744
122988
123091
123169
123069
122871
123325
123406
123437
123878
123810
123661
124369
124432
124440
124995
125003
124990
125448
125459
125451
125792
125792
125786
126095
126102
126102
126350
126349
126346
126591
126596
126598
126792
126791
126789
126991
126995
126998
127157
127155
127154
127327
127331
127334
127467
127465
127464
127614
127617
127621
127731
127729
127728
127858
127861
127865
127957
127955
127955
128068
128071
128075
128152
128151
128151
128252
128254
128259
128324
128323
128323
128414
128417
128421
128478
128477
128477
128560
128562
128566
128614
128614
128614
128689
128692
128695
128737
128737
128737
128806
128808
128811
128848
128847
128848
128910
128912
128915
128948
128947
128948
129006
129007
129010
129038
129038
129039
129092
129093
129096
129121
129121
129121
129170
129172
129174
129196
129196
129197
129242
129243
129245
129265
129265
129265
129308
129309
129310
129328
129328
129329
129367
129368
129369
129386
129386
129386
129422
129423
129424
129439
129439
129439
129472
129473
129474
129487
129488
129488
129519
129520
129521
129532
129533
129533
129562
129562
129563
129573
129574
129574
129601
129602
129603
129612
129612
129613
129637
129638
129638
129646
129647
129647
129670
129671
129672
129679
129679
129680
129701
129702
129702
129709
129709
129710
129730
129730
129731
129737
129737
129738
129756
129757
129757
129762
129763
129763
129780
129781
129782
129786
129786
129787
129803
129803
129804
129807
129808
129808
129824
129824
129825
129828
129828
129829
129843
129844
129844
129847
129847
129848
129861
129862
129862
129864
129865
129865
129878
129878
129879
129880
129881
129881
129893
129894
129894
129895
129896
129896
129907
129908
129908
129909
129909
129910
129920
129921
129921
129921
129922
129922
129932
129932
129933
129933
129933
129934
129943
129943
129944
129943
129944
129944
129953
129953
129954
129953
129954
129954
129962
129963
129963
129962
129963
129963
129971
129971
129972
129970
129971
129971
129979
129979
129980
129978
129978
129979
129986
129986
129987
129984
129985
129986
129992
129993
129993
129991
129991
129992
129998
129999
129999
129996
129997
129998
130004
130004
130005
130002
130002
130003
130008
130009
130009
130006
130007
130007
130013
130013
130014
130010
130011
130012
130017
130017
130018
130014
130015
130015
130021
130021
130022
130018
130018
130019
130024
130024
130025
130021
130021
130022
130027
130027
130028
130024
130024
130025
130029
130030
130030
130026
130027
130027
130032
130032
130033
130028
130029
130030
130034
130034
130035
130030
130031
130031
130036
130036
130037
130032
130033
130033
130037
130037
130038
130033
130034
130034
130038
130039
130039
130034
130035
130035
130039
130040
130040
130035
130036
130036
130040
130040
130041
130036
130036
130037
130040
130041
130041
130036
130037
130037
130041
130041
130042
130036
130037
130038
130041
130041
130042
130037
130037
130038
130041
130041
130042
130037
130037
130038
130041
130041
130042
130036
130037
130037
130041
130041
130042
130036
130037
130037
130040
130041
130041
130036
130036
130037
130040
130040
130041
130035
130036
130036
130039
130039
130040
130034
130035
130035
130038
130039
130039
130034
130034
130035
130037
130038
130038
130032
130033
130033
130036
130037
130037
130031
130032
130032
130035
130035
130036
130030
130030
130031
130033
130034
130034
130028
130029
130029
130032
130032
130033
130027
130027
130028
130030
130030
130031
130025
130025
130026
130028
130028
130029
130022
130023
130023
130026
130026
130027
130020
130021
130021
130023
130024
130024
130018
130018
130019
130021
130021
130022
130016
130016
130017
130019
130019
130019
130013
130014
130014
130016
130017
130017
130011
130011
130012
130014
130014
130014
130008
130008
130009
130011
130011
130012
130005
130006
130006
130008
130008
130009
130002
130003
130003
130005
130005
130006
129999
129999
130000
130001
130002
130002
129995
129996
129996
129998
129998
129999
129991
129992
129992
129993
129994
129994
129987
129987
129988
129989
129989
129990
129982
129982
129983
129983
129983
129984
129975
129976
129976
129976
129976
129977
129968
129968
129969
129968
129968
129968
129958
129959
129959
129957
129958
129958
129946
129947
129947
129943
129944
129944
129929
129929
129929
129925
129925
129927
129916
129915
129915
129930
129932
129933
129989
129989
129984
130072
130076
130072
130104
130111
130110
130084
130072
130031
130077
130088
130044
130045
130054
130034
130020
130014
130010
130009
130008
130008
130008
130008
130008
130008
130008
130008
130007
130007
130007
130006
130006
130005
130005
130005
130005
130004
130007
130010
130013
130016
130020
130024
130029
130034
130040
130047
130056
130066
130079
130093
130110
130128
130148
130166
130179
130187
130191
130196
130203
130213
130225
130239
130254
130272
130291
130312
130336
130364
130395
130430
130470
130515
130566
130624
130689
130763
130845
130936
131038
131151
131276
131413
131563
131726
131902
132091
132294
132510
132738
132979
133230
133491
133761
134039
134324
134615
134910
135208
135509
135810
136111
136411
136710
137006
137298
137587
137871
138150
138423
138691
138953
139209
139459
139702
139939
140169
140393
140610
140821
141026
141224
141416
141602
141783
141957
142126
142289
142447
142600
142748
142891
143030
143163
143292
143417
143538
143655
143768
143877
143982
144084
144183
144278
144370
144460
144546
144629
144710
144788
144864
144937
145007
145076
145142
145206
145267
145327
145384
145440
145493
145544
145593
145641
145686
145729
145771
145810
145848
145884
145918
145950
145981
146010
146037
146063
146087
146110
146132
146152
146171
146189
146206
146222
146237
146251
146264
146277
146288
146298
146308
146316
146323
146330
146336
146342
146349
146357
146366
146375
146385
146403
146417
146418
146418
146418
146419
146419
146419
146422
146436
146449
146456
146463
146472
146482
146492
146503
146514
146526
146539
146553
146567
146581
146596
146612
146628
146644
146661
146678
146696
146713
146731
146749
146768
146786
146804
146823
146841
146860
146878
146896
146914
146931
146948
146965
146981
146997
147013
147028
147042
147055
147068
147081
147093
147104
147114
147123
147131
147136
147136
147136
147143
147157
147182
147194
147202
147193
147186
147180
147175
147171
147168
147165
147163
147162
147161
147161
147161
147161
147163
147164
147167
147169
147172
147175
147179
147183
147187
147192
147197
147202
147208
147215
147221
147228
147236
147243
147252
147260
147269
147279
147289
147299
147310
147321
147333
147345
147359
147372
147386
147401
147416
147432
147448
147465
147483
147501
147520
147540
147560
147581
147603
147625
147649
147673
147697
147723
147749
147776
147804
147833
147862
147893
147924
147956
147988
148022
148056
148091
148127
148163
148200
148238
148276
148315
148354
148393
148433
148472
148512
148551
148590
148628
148666
148703
148739
148774
148808
148840
148871
148900
148927
148953
148977
148999
149019
149037
149054
149068
149082
149093
149103
149112
149119
149125
149131
149134
149138
149140
149142
149143
149143
149143
149143
149142
149141
149139
149137
149135
149132
149130
149127
149124
149122
149118
149115
149112
149109
149106
149102
149099
149096
149092
149089
149085
149081
149078
149074
149071
149067
149064
149060
149057
149054
149050
149047
149043
149040
149037
149033
149030
149027
149023
149020
149017
149015
149012
149008
149005
149005
149004
149009
149008
149012
149014
149016
149015
149017
149016
149013
149013
149011
149006
149002
149003
149006
149016
149013
149007
149001
149002
149007
149016
149022
149021
149021
149021
149023
149022
149028
149027
149030
149029
149028
149034
149034
149034
149036
149036
149041
149040
149043
149042
149041
149048
149048
149047
149050
149049
149055
149054
149056
149056
149055
149061
149061
149061
149063
149063
149068
149068
149070
149070
149068
149075
149075
149075
149077
149077
149082
149082
149084
149084
149082
149089
149089
149089
149091
149091
149096
149096
149098
149097
149096
149103
149103
149103
149105
149104
149110
149109
149111
149111
149109
149115
149116
149116
149118
149117
149122
149122
149124
149123
149122
149128
149128
149127
149129
149129
149133
149133
149134
149134
149133
149138
149138
149137
149138
149138
149142
149141
149142
149142
149143
149147
149145
149143
149143
149144
149147
149144
149143
149144
149148
149148
149146
149143
149140
149142
149143
149139
149135
149138
149147
149142
149138
149132
149126
149130
149128
149121
149113
149118
149133
149119
149114
149105
149095
149101
149094
149084
149070
149078
149100
149073
149068
149057
149040
149048
149034
149022
149002
149010
149038
148994
148993
148980
148956
148964
148944
148931
148903
148911
148942
148883
148887
148874
148843
148851
148824
148811
148777
148784
148817
148745
148755
148742
148705
148712
148681
148668
148630
148637
148669
148590
148605
148592
148553
148559
148526
148514
148474
148480
148511
148431
148447
148435
148395
148400
148368
148356
148317
148322
148352
148274
148290
148278
148240
148245
148214
148202
148165
148170
148198
148125
148140
148128
148092
148097
148069
148058
148023
148028
148055
147988
148001
147990
147957
147962
147936
147926
147894
147898
147924
147863
147874
147864
147834
147839
147816
147806
147778
147782
147805
147751
147760
147751
147724
147729
147708
147700
147674
147678
147699
147651
147659
147651
147627
147631
147613
147605
147583
147586
147606
147563
147570
147562
147541
147545
147529
147522
147503
147506
147524
147487
147492
147485
147467
147470
147457
147450
147433
147436
147452
147421
147424
147418
147402
147405
147394
147388
147373
147376
147391
147364
147366
147361
147347
147350
147341
147335
147323
147326
147339
147316
147317
147312
147300
147303
147296
147291
147280
147283
147295
147275
147276
147271
147262
147264
147258
147254
147245
147247
147258
147242
147242
147238
147230
147232
147227
147223
147216
147218
147228
147215
147214
147210
147204
147206
147203
147199
147193
147195
147203
147194
147192
147189
147184
147186
147184
147181
147177
147178
147185
147178
147177
147174
147170
147172
147171
147168
147166
147167
147172
147167
147166
147164
147163
147164
147164
147162
147162
147163
147165
147165
147163
147162
147163
147163
147164
147164
147165
147165
147165
147166
147168
147168
147171
147170
147173
147175
147179
147176
147167
147167
147179
147184
147189
147182
147148
147156
147161
147163
147165
147168
147171
147177
147183
147190
147199
147209
147220
147233
147247
147263
147280
147300
147320
147343
147368
147395
147425
147456
147490
147527
147566
147608
147653
147700
147750
147804
147860
147920
147983
148049
148118
148191
148266
148344
148424
148505
148587
148668
148748
148825
148896
148960
149014
149059
149094
149120
149137
149148
149154
149157
149156
149155
149151
149146
149140
149135
149129
149122
149116
149109
149103
149096
149089
149082
149076
149069
149062
149055
149048
149042
149035
149029
149028
149021
149015
149014
149012
149006
149002
149003
149007
149014
149011
149005
149002
149004
149008
149015
149021
149021
149014
149012
149009
149005
149003
149005
149008
149011
149008
149004
149003
149006
149008
149014
149021
149027
149027
149028
149034
149034
149041
149047
149047
149041
149040
149034
149034
149040
149047
149047
149054
149054
149054
149061
149061
149067
149068
149075
149074
149073
149067
149060
149060
149053
149053
149046
149040
149034
149027
149021
149014
149010
149007
149004
149003
149006
149008
149009
149006
149003
149003
149006
149008
149014
149020
149019
149015
149012
149009
149005
149003
149000
148997
148997
148995
148990
148994
148999
148999
148998
149003
149004
149004
149008
149008
149004
149004
149008
149008
149008
149011
149011
149014
149018
149022
149022
149026
149027
149033
149040
149046
149045
149041
149038
149035
149032
149028
149028
149025
149025
149022
149022
149018
149019
149015
149015
149011
149011
149011
149015
149015
149018
149019
149022
149022
149025
149025
149025
149029
149029
149029
149028
149032
149032
149032
149035
149035
149032
149032
149035
149035
149035
149038
149038
149041
149045
149048
149048
149051
149053
149059
149059
149066
149066
149073
149079
149080
149081
149081
149088
149087
149094
149095
149102
149101
149099
149093
149086
149086
149092
149098
149096
149090
149084
149078
149072
149072
149066
149064
149060
149057
149054
149054
149051
149051
149048
149048
149045
149045
149041
149041
149038
149038
149038
149041
149041
149044
149045
149048
149048
149051
149051
149051
149054
149054
149054
149054
149057
149057
149057
149060
149060
149057
149057
149060
149060
149060
149063
149063
149066
149067
149070
149073
149072
149069
149069
149066
149066
149063
149063
149063
149066
149066
149069
149069
149069
149072
149072
149072
149072
149075
149075
149075
149076
149078
149084
149089
149095
149092
149090
149087
149084
149081
149078
149078
149081
149084
149084
149081
149081
149078
149078
149075
149075
149078
149078
149080
149081
149083
149083
149084
149086
149086
149089
149092
149094
149095
149097
149100
149102
149104
149106
149107
149108
149115
149114
149121
149122
149129
149128
149127
149120
149113
149111
149118
149125
149134
149136
149136
149136
149143
149144
149153
149150
149157
149163
149169
149156
149146
149145
149158
149174
149191
149182
149172
149164
149170
149182
149191
149174
149176
149200
149226
149210
149196
149210
149230
149254
149281
149239
149203
149175
149169
149203
149196
149155
149132
149176
149229
149246
149246
149300
149306
149290
149370
149377
149364
149330
149289
149255
149226
149201
149178
149159
149143
149131
149121
149114
149108
149106
149111
149117
149109
149108
149105
149104
149101
149100
149098
149096
149096
149094
149094
149091
149091
149089
149089
149086
149086
149086
149088
149088
149091
149091
149093
149093
149095
149095
149096
149098
149098
149097
149097
149099
149100
149100
149102
149102
149100
149099
149101
149101
149101
149103
149104
149105
149106
149107
149111
149112
149125
149137
149155
149178
149168
149157
149142
149134
149123
149118
149111
149108
149103
149102
149104
149104
149105
149103
149104
149103