/*--------------------------------*- C++ -*----------------------------------*\
| =========                 |                                                 |
| \\      /  F ield         | OpenFOAM: The Open Source CFD Toolbox           |
|  \\    /   O peration     | Version:  v2006                                 |
|   \\  /    A nd           | Website:  www.openfoam.com                      |
|    \\/     M anipulation  |                                                 |
\*---------------------------------------------------------------------------*/
FoamFile
{
    version     2.0;
    format      ascii;
    class       volVectorField;
    location    "0.019";
    object      U;
}
// * * * * * * * * * * * * * * * * * * * * * * * * * * * * * * * * * * * * * //

dimensions      [0 1 -1 0 0 0 0];


internalField   nonuniform List<vector> 
12716
(
(64.6675 -0.000426668 -6.79373e-20)
(64.6673 -0.000136649 0)
(64.6672 -4.13148e-05 -3.96902e-21)
(64.6674 -0.000130558 3.90756e-21)
(64.6678 -0.000235046 -4.49684e-21)
(64.6686 -0.000359171 4.53229e-21)
(64.6698 -0.000515457 0)
(64.6716 -0.000592618 0)
(64.6735 -0.000591631 -7.38296e-22)
(64.6751 -0.000461139 4.36869e-21)
(64.6711 -0.000906376 -4.42282e-20)
(64.6443 -0.00451482 2.61041e-21)
(64.5825 -0.0119914 1.28105e-20)
(64.4914 -0.021201 -6.90029e-21)
(64.3823 -0.0303813 -7.1432e-21)
(64.2649 -0.0384399 0)
(64.1444 -0.0451292 0)
(64.0225 -0.0506681 0)
(63.8989 -0.0553803 0)
(63.7724 -0.059531 0)
(63.6422 -0.0632908 0)
(63.5076 -0.0667502 0)
(63.3684 -0.0699509 0)
(63.2245 -0.0729115 0)
(63.0763 -0.075645 0)
(62.9238 -0.078165 0)
(62.7674 -0.0804864 0)
(62.6073 -0.0826225 0)
(62.4438 -0.084583 0)
(62.2771 -0.0863716 0)
(62.1075 -0.0879888 0)
(61.9352 -0.0894306 0)
(61.7605 -0.0906907 0)
(61.5838 -0.0917575 0)
(61.4054 -0.0926235 0)
(61.2257 -0.0932916 0)
(61.0449 -0.0937699 0)
(60.8636 -0.0940679 0)
(60.6821 -0.0941611 0)
(60.5008 -0.0939836 0)
(60.32 -0.0935335 0)
(60.1403 -0.0928368 0)
(59.962 -0.0918823 0)
(59.7856 -0.0906581 0)
(59.6115 -0.0891502 0)
(59.4401 -0.0873525 0)
(59.272 -0.0852614 0)
(59.1076 -0.082867 0)
(58.9472 -0.0801658 0)
(58.7913 -0.0771528 0)
(58.6396 -0.0738011 0)
(58.4917 -0.0700146 0)
(58.3464 -0.0655603 0)
(58.2022 -0.0599962 0)
(58.0587 -0.0526798 0)
(57.9191 -0.0431035 -1.21303e-19)
(57.7943 -0.0317316 1.22473e-19)
(57.7033 -0.0209761 1.41101e-20)
(57.6604 -0.0137847 0)
(57.6578 -0.0107498 0)
(57.6734 -0.00990675 9.60026e-20)
(57.6926 -0.00976473 7.32012e-19)
(57.7085 -0.00861252 -8.12194e-18)
(57.7126 -0.00659128 0)
(57.7022 -0.00865276 0)
(57.6622 -0.0152053 0)
(57.5755 -0.0281292 0)
(57.4272 -0.0545659 0)
(57.1764 -0.0799288 3.5086e-19)
(56.8962 -0.0907202 0)
(55.9078 -0.148901 0)
(55.2829 -0.134566 5.10655e-18)
(56.8959 -0.167458 -3.41338e-18)
(57.2254 -0.142244 -3.54382e-19)
(57.2617 -0.169821 -5.60762e-18)
(56.8356 -0.194314 -4.31889e-19)
(54.5851 -0.130746 -1.06193e-18)
(53.8688 -0.118822 -9.29199e-19)
(56.7465 -0.191791 3.86877e-19)
(57.2913 -0.17433 6.43349e-19)
(57.3021 -0.170609 -6.26901e-19)
(56.636 -0.176785 8.65711e-19)
(53.216 -0.104098 -1.17395e-19)
(52.5911 -0.0903201 1.64065e-19)
(56.4914 -0.160872 -9.06383e-20)
(57.2834 -0.164948 6.77062e-19)
(57.242 -0.160098 -1.50361e-19)
(56.3374 -0.147758 9.06724e-20)
(52.0247 -0.079891 -2.66131e-24)
(51.505 -0.0711182 -5.43142e-20)
(56.1689 -0.13649 -7.85091e-20)
(57.1816 -0.155496 7.48275e-20)
(57.1081 -0.150664 0)
(55.9932 -0.126599 -1.68522e-20)
(51.0359 -0.0641135 0)
(50.5975 -0.0585846 0)
(55.8113 -0.11889 5.63264e-21)
(57.0213 -0.146217 0)
(56.9312 -0.14241 0)
(55.6281 -0.111454 0)
(50.1972 -0.053696 0)
(49.8153 -0.0501111 0)
(55.444 -0.106007 0)
(56.8274 -0.138539 0)
(56.7244 -0.135595 0)
(55.2596 -0.100516 0)
(49.463 -0.0464958 0)
(49.1218 -0.0440546 0)
(55.075 -0.096559 0)
(56.6089 -0.132364 0)
(56.4969 -0.130191 0)
(54.8909 -0.0924266 0)
(48.8042 -0.0412502 0)
(48.4951 -0.0394945 0)
(54.7081 -0.0893745 0)
(56.3743 -0.127432 0)
(56.2571 -0.126144 0)
(54.5268 -0.0865411 0)
(48.2053 -0.0374766 0)
(47.9166 -0.0361141 0)
(54.3426 -0.0841746 0)
(56.1258 -0.124342 0)
(55.9994 -0.123487 0)
(54.1578 -0.0820608 0)
(47.6412 -0.0344681 0)
(47.3688 -0.0337905 0)
(53.9726 -0.0805169 0)
(55.8612 -0.12185 0)
(55.7318 -0.1213 0)
(53.7902 -0.0785203 0)
(47.1103 -0.0321525 0)
(46.8525 -0.0318207 0)
(53.6063 -0.0774409 0)
(55.5899 -0.119941 0)
(55.4564 -0.119787 0)
(53.424 -0.0758847 0)
(46.6052 -0.0304077 0)
(46.3572 -0.0303429 0)
(53.2396 -0.0752164 0)
(55.3097 -0.118826 0)
(55.1721 -0.119041 0)
(53.0567 -0.0740092 0)
(46.1183 -0.0290901 0)
(45.8778 -0.0292291 0)
(52.8712 -0.0736586 0)
(55.0206 -0.118397 0)
(54.8787 -0.118912 0)
(52.687 -0.0727118 0)
(45.6449 -0.0280855 0)
(45.4097 -0.0283881 0)
(52.4999 -0.07262 0)
(54.7224 -0.118537 0)
(54.5759 -0.119307 0)
(52.3137 -0.0718741 0)
(45.1812 -0.0273194 0)
(44.9496 -0.027756 0)
(52.1242 -0.0719968 0)
(54.4144 -0.119163 0)
(54.2631 -0.120161 0)
(51.9355 -0.071415 0)
(44.724 -0.0267422 0)
(44.4949 -0.0272941 0)
(51.743 -0.0717235 0)
(54.0962 -0.120226 0)
(53.9397 -0.12144 0)
(51.5511 -0.071288 0)
(44.2709 -0.0263252 0)
(44.043 -0.0269839 0)
(51.355 -0.0717702 0)
(53.7669 -0.121709 0)
(53.6047 -0.123152 0)
(51.1592 -0.0714759 0)
(43.8196 -0.0260559 0)
(43.5916 -0.0268204 0)
(50.9589 -0.0721385 0)
(53.4257 -0.123647 0)
(53.2573 -0.12537 0)
(50.7584 -0.0720053 0)
(43.3675 -0.0259389 0)
(43.1384 -0.026807 0)
(50.553 -0.0728525 0)
(53.0714 -0.126109 0)
(52.8961 -0.128115 0)
(50.3471 -0.0728758 0)
(42.9124 -0.0259667 0)
(42.6808 -0.0269297 0)
(50.1357 -0.0738927 0)
(52.7025 -0.129081 0)
(52.5196 -0.131318 0)
(49.9233 -0.0740423 0)
(42.4519 -0.0261175 0)
(42.2169 -0.0271743 0)
(49.7052 -0.0752306 0)
(52.3178 -0.132527 0)
(52.1265 -0.135057 0)
(49.4856 -0.0755383 0)
(41.9839 -0.0264018 0)
(41.7442 -0.0275557 0)
(49.2597 -0.0769101 0)
(51.9156 -0.136537 0)
(51.715 -0.139392 0)
(49.0319 -0.077389 0)
(41.506 -0.0268257 0)
(41.2605 -0.0280704 0)
(48.7973 -0.078935 0)
(51.4941 -0.141134 0)
(51.2834 -0.144299 0)
(48.5602 -0.0795744 0)
(41.0158 -0.0273764 0)
(40.7634 -0.0287069 0)
(48.3157 -0.0812874 0)
(51.0515 -0.146301 0)
(50.8297 -0.149788 0)
(48.0683 -0.0820904 0)
(40.5112 -0.0280482 0)
(40.2507 -0.0294655 0)
(47.8131 -0.0839759 0)
(50.586 -0.152066 0)
(50.352 -0.155903 0)
(47.5544 -0.0849561 0)
(39.9899 -0.0288453 0)
(39.7201 -0.0303529 0)
(47.2872 -0.0870292 0)
(50.0955 -0.158486 0)
(49.8483 -0.162714 0)
(47.0159 -0.0882075 0)
(39.4495 -0.0297756 0)
(39.1693 -0.031379 0)
(46.7356 -0.0904845 0)
(49.5777 -0.165635 0)
(49.3161 -0.170296 0)
(46.4505 -0.0918839 0)
(38.8876 -0.0308508 0)
(38.5955 -0.0325559 0)
(46.1558 -0.0943818 0)
(49.0302 -0.173589 0)
(48.7528 -0.178727 0)
(45.8554 -0.0960255 0)
(38.3013 -0.0320837 0)
(37.9959 -0.0338949 0)
(45.5447 -0.0987564 0)
(48.4501 -0.182415 0)
(48.1554 -0.188056 0)
(45.2275 -0.100658 0)
(37.6877 -0.0334817 0)
(37.3675 -0.0353971 0)
(44.8993 -0.103618 0)
(47.8345 -0.192137 0)
(47.521 -0.198274 0)
(44.5638 -0.105772 0)
(37.0438 -0.0350385 0)
(36.7072 -0.0370499 0)
(44.2164 -0.108942 0)
(47.1804 -0.202714 0)
(46.8467 -0.209334 0)
(43.8611 -0.111341 0)
(36.3666 -0.0367412 0)
(36.0124 -0.0388488 0)
(43.4933 -0.114726 0)
(46.4849 -0.21414 0)
(46.1295 -0.221282 0)
(43.1166 -0.117393 0)
(35.6535 -0.0385967 0)
(35.2801 -0.0408077 0)
(42.7266 -0.121011 0)
(45.7449 -0.226493 0)
(45.3661 -0.234206 0)
(42.3269 -0.123974 0)
(34.9014 -0.0406203 0)
(34.5071 -0.0429437 0)
(41.9131 -0.127845 0)
(44.9572 -0.239855 0)
(44.5532 -0.248174 0)
(41.4884 -0.131124 0)
(34.1068 -0.0428271 0)
(33.6899 -0.0452653 0)
(41.0488 -0.135255 0)
(44.118 -0.254274 0)
(43.687 -0.263216 0)
(40.5974 -0.13886 0)
(33.2662 -0.0452186 0)
(32.8249 -0.047766 0)
(40.1301 -0.143247 0)
(43.2236 -0.269761 0)
(42.7637 -0.279324 0)
(39.65 -0.147177 0)
(32.3761 -0.0477859 0)
(31.9085 -0.0504349 0)
(39.1531 -0.151801 0)
(42.2703 -0.286285 0)
(41.7797 -0.296437 0)
(38.6423 -0.156043 0)
(31.4329 -0.050516 0)
(30.9377 -0.0532496 0)
(38.114 -0.160864 0)
(41.2545 -0.30374 0)
(40.7313 -0.314378 0)
(37.571 -0.165366 0)
(30.4338 -0.0533718 0)
(29.9096 -0.0561507 0)
(37.0099 -0.170287 0)
(40.1729 -0.321843 0)
(39.6161 -0.332752 0)
(36.4336 -0.174938 0)
(29.3767 -0.0562709 0)
(28.8231 -0.0590325 0)
(35.839 -0.1798 0)
(39.0236 -0.340071 0)
(38.4329 -0.350949 0)
(35.2292 -0.184434 0)
(28.2614 -0.0590811 0)
(27.6791 -0.0617481 0)
(34.6015 -0.189028 0)
(37.8066 -0.357778 0)
(37.1831 -0.368193 0)
(33.9596 -0.193316 0)
(27.0903 -0.0615891 0)
(26.4818 -0.064173 0)
(33.3008 -0.197601 0)
(36.5246 -0.374641 0)
(35.8699 -0.384353 0)
(32.6287 -0.201445 0)
(25.8683 -0.0638169 0)
(25.2364 -0.0662005 0)
(31.9413 -0.20507 0)
(35.1814 -0.389684 0)
(34.4987 -0.397968 0)
(31.243 -0.208111 0)
(24.6023 -0.065512 0)
(23.9525 -0.0675451 0)
(30.5319 -0.210726 0)
(33.7845 -0.401515 0)
(33.0791 -0.407673 0)
(29.8134 -0.212598 0)
(23.3043 -0.0663932 0)
(22.6443 -0.0679405 0)
(29.0858 -0.213817 0)
(32.3457 -0.408719 0)
(31.6252 -0.411894 0)
(28.3558 -0.214042 0)
(21.9911 -0.0661546 0)
(21.3314 -0.0670579 0)
(27.6217 -0.213405 0)
(30.8815 -0.409559 0)
(30.1564 -0.408701 0)
(26.8919 -0.211411 0)
(20.6853 -0.0644531 0)
(20.04 -0.064485 0)
(26.1649 -0.208272 0)
(29.4147 -0.401829 0)
(28.6992 -0.395727 0)
(25.4511 -0.203441 0)
(19.417 -0.060878 0)
(18.804 -0.0598471 0)
(24.7488 -0.197312 0)
(27.9757 -0.383454 0)
(27.287 -0.37131 0)
(24.0703 -0.189186 0)
(18.2235 -0.0550776 0)
(17.6628 -0.0529986 0)
(23.4126 -0.179979 0)
(26.5999 -0.353321 0)
(25.9568 -0.334993 0)
(22.7897 -0.168443 0)
(17.1451 -0.047021 0)
(16.6569 -0.0439362 0)
(22.197 -0.156304 0)
(25.3249 -0.311495 0)
(24.7458 -0.287752 0)
(21.6491 -0.141984 0)
(16.2206 -0.0371326 0)
(15.8223 -0.0332435 0)
(21.1397 -0.127553 0)
(24.1865 -0.259821 0)
(23.6878 -0.231603 0)
(20.6834 -0.110979 0)
(15.4823 -0.0257341 0)
(15.1853 -0.0216628 0)
(20.2709 -0.0956195 0)
(23.2155 -0.201291 0)
(22.8085 -0.171399 0)
(19.9163 -0.0785622 0)
(14.9491 -0.0141137 0)
(14.7562 -0.0101934 0)
(19.6069 -0.0635339 0)
(22.4312 -0.1413 0)
(22.1203 -0.111983 0)
(19.3557 -0.0470595 0)
(14.6212 -0.00304666 0)
(14.5253 1.95593e-05 0)
(19.1468 -0.0338658 0)
(21.8389 -0.0846634 0)
(21.6212 -0.058294 0)
(18.9924 -0.0193007 0)
(14.4806 0.00656369 0)
(14.4685 0.00857537 0)
(18.8741 -0.00810722 0)
(21.4296 -0.0350925 0)
(21.2928 -0.0126053 0)
(18.8042 0.0040772 0)
(14.5073 0.0139351 0)
(14.5676 0.0155654 0)
(18.758 0.0120062 0)
(21.1818 0.00544158 0)
(21.1151 0.0247515 0)
(18.7632 0.0222542 0)
(14.6649 0.0188795 0)
(14.7709 0.0186657 0)
(18.7795 0.0269416 0)
(21.0776 0.0367789 0)
(21.0765 0.0503361 0)
(18.8427 0.0353935 0)
(14.9042 0.0203893 0)
(15.0393 0.0191783 0)
(18.9083 0.0380783 0)
(21.0944 0.0578796 0)
(21.1391 0.066062 0)
(19.0107 0.04337 0)
(15.1937 0.0203088 0)
(15.3438 0.018722 0)
(19.1076 0.0438304 0)
(21.194 0.0696756 0)
(21.2682 0.0738112 0)
(19.2326 0.0467094 0)
(15.506 0.0194476 0)
(15.6592 0.0176093 0)
(19.3463 0.0455517 0)
(21.3467 0.0743209 0)
(21.4381 0.0754937 0)
(19.4811 0.0465176 0)
(15.819 0.0179561 0)
(15.9662 0.0161547 0)
(19.6001 0.0445547 0)
(21.5285 0.0746434 0)
(21.6275 0.0745115 0)
(19.7352 0.0445624 0)
(16.1157 0.0162296 0)
(16.2554 0.0147464 0)
(19.8555 0.0423339 0)
(21.7256 0.0723777 0)
(21.8325 0.0712359 0)
(19.9927 0.0417537 0)
(16.3995 0.0146653 0)
(16.5269 0.0125052 0)
(20.1084 0.0379769 -3.64581e-19)
(21.9317 0.0668099 3.03802e-19)
(22.0336 0.0646926 0)
(20.2346 0.0370876 0)
(16.6524 0.0125133 0)
(16.7622 0.0102891 0)
(20.3393 0.0328801 0)
(22.127 0.0592095 0)
(22.2218 0.056737 0)
(20.4533 0.0317976 0)
(16.8699 0.0102765 0)
(16.9625 0.00820025 0)
(20.5455 0.0276902 0)
(22.3074 0.0510918 0)
(22.3933 0.0487802 0)
(20.6465 0.0267918 0)
(17.0534 0.00834195 0)
(17.1303 0.0064022 0)
(20.726 0.022887 0)
(22.4697 0.0432465 0)
(22.5461 0.0411952 0)
(20.8141 0.0222167 0)
(17.2061 0.00667418 0)
(17.2691 0.00484404 0)
(20.8814 0.0185697 0)
(22.6133 0.0359469 0)
(22.6802 0.0341459 0)
(20.9576 0.0181095 0)
(17.3316 0.0052296 0)
(17.3824 0.00347961 0)
(21.0137 0.014786 0)
(22.7381 0.0293066 0)
(22.7959 0.0278775 0)
(21.0788 0.0145949 0)
(17.4333 0.00399713 0)
(17.4739 0.00241586 0)
(21.1256 0.0114835 0)
(22.8447 0.0233988 0)
(22.8943 0.0223407 0)
(21.1806 0.0115443 0)
(17.5152 0.00302616 0)
(17.5471 0.00155545 0)
(21.2189 0.0086681 0)
(22.9348 0.018275 0)
(22.977 0.0175539 0)
(21.2649 0.00895845 0)
(17.5802 0.00224433 0)
(17.6049 0.00087016 0)
(21.2956 0.00630076 0)
(23.0099 0.0138861 0)
(23.0454 0.013497 0)
(21.3338 0.00681285 0)
(17.6311 0.00162954 0)
(17.6497 0.000335711 0)
(21.358 0.00436112 0)
(23.0716 0.0102148 0)
(23.1012 0.0101507 0)
(21.3894 0.00508067 0)
(17.6704 0.00115467 0)
(17.684 -7.47279e-05 0)
(21.4079 0.00280603 0)
(23.1215 0.00721252 0)
(23.1459 0.00743728 0)
(21.4336 0.00370836 0)
(17.7001 0.000791465 0)
(17.7097 -0.000389484 0)
(21.4474 0.00158538 0)
(23.1611 0.00481533 0)
(23.1809 0.00527814 0)
(21.4683 0.00265119 0)
(17.722 0.000533416 0)
(17.7283 -0.000633009 0)
(21.478 0.000632779 0)
(23.1917 0.00291951 0)
(23.2076 0.00356323 0)
(21.4948 0.00184353 0)
(17.7375 0.000353497 0)
(17.7412 -0.00076987 0)
(21.501 -9.26028e-05 0)
(23.2147 0.00140686 0)
(23.2273 0.00218434 0)
(21.5146 0.00118464 0)
(17.7476 0.000204625 0)
(17.749 -0.000918871 0)
(21.5178 -0.000713735 0)
(23.2311 0.000205008 0)
(23.2408 0.00101123 0)
(21.5285 0.00059974 0)
(17.7529 5.79444e-05 0)
(17.7522 -0.00106849 0)
(21.5292 -0.00127646 0)
(23.2421 -0.000965442 0)
(23.2492 -0.000153335 0)
(21.5374 3.52045e-05 0)
(17.7537 -9.4271e-05 0)
(17.7509 -0.00124302 0)
(21.5355 -0.00188196 3.63504e-19)
(23.248 -0.00212091 -3.02771e-19)
(23.2528 -0.0012589 0)
(21.541 -0.00066005 0)
(17.7498 -0.000308272 0)
(17.7445 -0.00148534 5.42892e-20)
(21.5368 -0.00258704 4.51027e-19)
(23.2491 -0.00330406 -3.76215e-19)
(23.2514 -0.00243826 7.49847e-20)
(21.5389 -0.00165746 -9.0075e-20)
(17.7401 -0.000674029 -5.42933e-20)
(17.7293 -0.000807687 4.21058e-19)
(21.5319 -0.00344702 0)
(23.2464 -0.00466946 -5.89603e-19)
(23.2548 -0.0030538 5.88857e-24)
(21.5303 -0.00262097 -1.7691e-19)
(17.7325 -0.000621933 -2.13597e-19)
(17.7274 -0.000440589 -5.97506e-19)
(21.5358 -0.00181431 5.01288e-19)
(23.263 -0.00513169 0)
(23.2889 -0.0037955 0)
(21.5573 -0.000578491 -7.05441e-19)
(17.7613 0.00102218 6.46511e-19)
(17.779 0.00130339 -1.96844e-19)
(21.5813 0.00287603 6.62507e-19)
(23.308 0.00373049 -1.11249e-18)
(23.3247 0.00864775 1.83968e-18)
(21.5947 0.00537201 0)
(17.7803 0.00314841 -4.66409e-19)
(17.8766 0.00787586 8.70948e-19)
(21.6656 0.00579014 0)
(23.4019 0.0044888 7.77116e-20)
(23.4295 -0.000450609 5.77964e-19)
(21.707 0.00983934 -7.94259e-19)
(17.9073 -0.00866892 0)
(25.3438 0.00451952 0)
(26.7229 -0.0233723 -1.19291e-19)
(27.7262 -0.0567542 0)
(28.3881 -0.096276 -1.67426e-18)
(28.9015 -0.0544527 1.58575e-18)
(29.677 -0.0520116 0)
(30.1687 -0.0595327 0)
(30.7128 -0.0560029 5.05769e-20)
(31.0825 -0.0614421 -5.06577e-20)
(31.4745 -0.0563871 0)
(31.7529 -0.0592348 0)
(32.0448 -0.0517419 0)
(32.2608 -0.0520384 0)
(32.481 -0.0443365 0)
(32.644 -0.0429676 8.42445e-19)
(32.7995 -0.0366396 -2.57171e-18)
(32.9038 -0.0353742 1.79931e-18)
(32.9827 -0.0300233 -7.36016e-18)
(33.008 -0.0338658 7.80161e-18)
(32.9637 -0.0571603 3.06286e-17)
(32.8129 -0.0780335 -7.08396e-17)
(32.6023 -0.0861431 0)
(32.3928 -0.0894436 0)
(31.6339 -0.0888042 1.14531e-17)
(29.7738 -0.0516667 0)
(27.9472 -0.0104817 0)
(23.2399 -0.108363 0)
(22.5636 -0.286342 0)
(27.333 -0.229502 -6.94177e-17)
(29.2117 -0.284734 6.19173e-17)
(27.4038 -0.916213 2.89483e-17)
(24.1863 -0.461051 3.63447e-17)
(16.974 -0.0828123 -1.42441e-17)
(18.0396 -0.0618195 0)
(25.2776 -0.145847 1.24174e-17)
(28.3904 -0.237959 -2.05851e-17)
(28.3704 -0.0734984 -1.22122e-17)
(25.1036 -0.0503729 9.53053e-19)
(17.6043 -0.0273637 -2.3329e-18)
(17.5944 -0.0197821 -5.32512e-19)
(25.1519 -0.0246877 8.7894e-19)
(28.4488 -0.0274784 -3.6115e-18)
(28.3127 -0.0157152 7.37928e-19)
(24.9832 -0.0118673 1.00475e-18)
(17.334 -0.00663618 -5.42224e-19)
(17.4079 -0.00721805 1.33408e-19)
(25.0344 -0.00484681 3.44015e-18)
(28.3459 -0.0025396 -5.90433e-18)
(28.248 -0.00299476 7.42676e-19)
(24.891 -0.00241582 -1.15358e-25)
(17.231 -0.00154574 -1.21531e-18)
(17.324 -0.00513078 1.35317e-19)
(24.9686 0.00225929 -1.79928e-18)
(28.301 0.00729598 -1.4868e-18)
(28.2267 0.00412398 0)
(24.9124 0.00104298 0)
(17.1657 -0.000696378 -1.36436e-19)
(17.267 -1.23235e-05 0)
(25.0028 0.00370512 0)
(28.2995 0.00902552 -1.50245e-18)
(28.2459 0.00840368 1.49626e-18)
(24.9176 0.00769048 0)
(17.2231 0.00599749 0)
(17.3248 0.000528194 0)
(25.0146 0.0062566 0)
(28.3237 0.0119613 -1.496e-18)
(28.2746 0.0122666 1.49614e-18)
(24.9651 0.00953233 0)
(17.2881 0.00529062 0)
(17.3892 0.000592135 0)
(25.0635 0.00705642 0)
(28.3546 0.0134941 -1.49589e-18)
(28.3079 0.0129846 1.49603e-18)
(25.017 0.00988635 0)
(17.3542 0.00533452 0)
(17.4575 0.000740181 0)
(25.1167 0.00759841 0)
(28.3888 0.0144102 -1.49579e-18)
(28.3455 0.0141514 1.49592e-18)
(25.0737 0.0105101 0)
(17.4246 0.00549261 0)
(17.5302 0.000835606 -1.09016e-18)
(25.1752 0.00810461 -9.04957e-19)
(28.4279 0.0154309 1.49567e-18)
(28.3861 0.0143976 1.49582e-18)
(25.1338 0.0106209 0)
(17.4969 0.00538414 0)
(17.6035 0.0010128 0)
(25.2359 0.00855637 0)
(28.4685 0.0160386 -1.49557e-18)
(28.4293 0.0155279 1.4957e-18)
(25.1972 0.0112985 0)
(17.5736 0.00563441 0)
(17.682 0.00121335 0)
(25.301 0.00906795 0)
(28.513 0.0169592 -1.49545e-18)
(28.4745 0.0157441 1.49559e-18)
(25.2632 0.0114221 0)
(17.6531 0.00565515 0)
(17.7624 0.00138508 0)
(25.3674 0.00948824 0)
(28.5581 0.0175003 -1.49533e-18)
(28.522 0.0167838 1.49547e-18)
(25.332 0.0120507 0)
(17.7366 0.0058918 0)
(17.8475 0.00157602 0)
(25.4377 0.00996195 0)
(28.6068 0.0183456 -1.49521e-18)
(28.5713 0.0169834 1.49535e-18)
(25.4031 0.0121679 0)
(17.8228 0.00591299 0)
(17.9346 0.0017533 0)
(25.5092 0.0103873 0)
(28.6559 0.0188923 -1.49508e-18)
(28.6227 0.0180016 1.49522e-18)
(25.477 0.0127849 0)
(17.9128 0.00614598 0)
(18.0263 0.00194791 0)
(25.5845 0.010861 0)
(28.7084 0.0197275 -1.49494e-18)
(28.676 0.0182415 1.49509e-18)
(25.5531 0.0129275 0)
(18.0057 0.00617869 0)
(18.1201 0.00213998 0)
(25.6612 0.0113196 0)
(28.7616 0.020331 -1.49481e-18)
(28.7315 0.0192764 1.49495e-18)
(25.6322 0.0135535 0)
(18.1026 0.00641453 0)
(18.2188 0.00234402 0)
(25.7417 0.0118118 0)
(28.8182 0.0211893 -1.49466e-18)
(28.7891 0.0195871 1.4948e-18)
(25.7137 0.0137394 0)
(18.2026 0.00646465 0)
(18.3199 0.00255542 0)
(25.8239 0.0123179 0)
(28.8757 0.0218743 -1.49452e-18)
(28.8491 0.0206566 1.49465e-18)
(25.7985 0.0143853 0)
(18.307 0.00670685 0)
(18.4261 0.0027733 0)
(25.9102 0.0128405 0)
(28.9369 0.0227746 -1.49435e-18)
(28.9113 0.0210605 1.49449e-18)
(25.8859 0.0146286 0)
(18.4148 0.00678024 0)
(18.5353 0.00301035 0)
(25.9984 0.0134066 0)
(28.9992 0.0235616 -1.49419e-18)
(28.9762 0.0221773 1.49432e-18)
(25.9767 0.0153013 0)
(18.5273 0.00703418 0)
(18.6498 0.00324754 0)
(26.0908 0.0139688 0)
(29.0653 0.0245214 -1.49401e-18)
(29.0436 0.0226966 1.49415e-18)
(26.0706 0.0156108 0)
(18.6437 0.00713664 0)
(18.7678 0.00350861 0)
(26.1857 0.0145998 0)
(29.1331 0.02543 -1.49383e-18)
(29.1141 0.0238687 1.49396e-18)
(26.1683 0.0163091 0)
(18.7653 0.0073944 0)
(18.8915 0.00375962 0)
(26.2851 0.0152021 0)
(29.2048 0.0264585 -1.49363e-18)
(29.1874 0.0245205 1.49376e-18)
(26.2695 0.0166903 0)
(18.8911 0.00751947 0)
(19.0192 0.00404778 0)
(26.3875 0.0159125 0)
(29.2788 0.0275173 -1.49343e-18)
(29.2643 0.0257778 1.49356e-18)
(26.3749 0.0174276 0)
(19.0226 0.00778373 0)
(19.1529 0.00431634 0)
(26.4947 0.0165742 0)
(29.3571 0.0286539 -1.49322e-18)
(29.3447 0.0266136 1.49335e-18)
(26.4843 0.0179068 0)
(19.1589 0.00793793 0)
(19.2914 0.00463565 0)
(26.6058 0.017391 0)
(29.4384 0.0299181 -1.49301e-18)
(29.4292 0.0279977 1.49313e-18)
(26.5986 0.0187053 0)
(19.3013 0.00821247 0)
(19.4363 0.00492188 0)
(26.7223 0.0181289 0)
(29.5247 0.0311973 -1.49278e-18)
(29.5179 0.0290517 1.49291e-18)
(26.7179 0.0192988 0)
(19.4493 0.00839626 0)
(19.5869 0.00527724 0)
(26.8436 0.0190799 0)
(29.6148 0.0327204 -1.49256e-18)
(29.6118 0.030618 1.49268e-18)
(26.8429 0.0201792 0)
(19.6042 0.00867876 0)
(19.7445 0.00557956 0)
(26.9713 0.0199194 0)
(29.7107 0.0342125 -1.49231e-18)
(29.7109 0.0319714 1.49244e-18)
(26.974 0.0209139 0)
(19.7654 0.00888865 0)
(19.9088 0.00596731 0)
(27.1052 0.0210323 0)
(29.8119 0.0360805 -1.49207e-18)
(29.8165 0.0337908 1.49218e-18)
(27.1124 0.0219068 0)
(19.9344 0.00918705 0)
(20.0809 0.0062784 0)
(27.2468 0.0220427 0)
(29.9203 0.0379191 -1.4918e-18)
(29.929 0.0355995 1.49191e-18)
(27.2586 0.0228948 0)
(20.111 0.00944778 0)
(20.2614 0.00668873 0)
(27.3971 0.0234491 0)
(30.0359 0.040387 -1.49153e-18)
(30.0502 0.0379422 1.49163e-18)
(27.4148 0.024145 0)
(20.2972 0.00974552 0)
(20.4516 0.00702137 0)
(27.558 0.0248376 0)
(30.1609 0.0429649 -1.49123e-18)
(30.1811 0.0406363 1.49133e-18)
(27.5822 0.025578 0)
(20.4935 0.0100363 0)
(20.6535 0.00759322 0)
(27.7316 0.0269293 0)
(30.2966 0.0465969 -1.49094e-18)
(30.3244 0.0441307 1.49101e-18)
(27.7642 0.0275222 0)
(20.7038 0.0104789 0)
(20.8702 0.00818846 0)
(27.9211 0.0292223 0)
(30.4454 0.050547 -1.49062e-18)
(30.4814 0.0486635 1.49068e-18)
(27.9636 0.0301719 0)
(20.931 0.0111475 0)
(21.1075 0.00930349 0)
(28.131 0.0328961 0)
(30.61 0.0564979 -1.4903e-18)
(30.6573 0.0551639 1.49032e-18)
(28.1873 0.0341888 0)
(21.1851 0.0123896 0)
(21.377 0.0111043 0)
(28.369 0.0379739 0)
(30.7957 0.0644386 -1.48995e-18)
(30.8567 0.064473 1.48994e-18)
(28.4433 0.0401445 0)
(21.4806 0.0146889 0)
(21.697 0.0144868 0)
(28.6446 0.045712 0)
(31.0079 0.0763229 -1.48958e-18)
(31.0853 0.0789343 1.4895e-18)
(28.7408 0.0493451 0)
(21.839 0.0193107 0)
(22.0885 0.0209492 0)
(28.9651 0.0570236 0)
(31.2509 0.0949536 -1.48916e-18)
(31.3594 0.0988821 1.48896e-18)
(29.1016 0.0603241 0)
(22.3052 0.0286432 0)
(22.6516 0.0372298 0)
(29.3831 0.0755511 0)
(31.5658 0.130241 0)
(31.6851 0.185776 7.4728e-19)
(29.5467 0.135996 -9.01303e-19)
(22.9591 0.0979552 -1.08708e-18)
(23.2766 0.171267 0)
(29.7891 0.230676 0)
(31.8585 0.279464 -2.98841e-18)
(31.9519 0.346239 0)
(29.9056 0.293314 0)
(23.5295 0.230415 0)
(23.8915 0.289248 0)
(30.1703 0.377706 0)
(32.114 0.449371 0)
(32.1783 0.567286 -4.63143e-18)
(30.2562 0.514685 3.56921e-18)
(24.0625 0.422844 0)
(24.3076 0.517363 0)
(30.416 0.643994 0)
(32.2612 0.703059 1.8441e-19)
(32.2564 0.799068 -5.84613e-18)
(30.4241 0.750452 7.06427e-18)
(24.4187 0.615707 0)
(24.6459 0.671655 1.6857e-17)
(30.5563 0.827233 -7.02732e-18)
(32.31 0.889757 -5.80177e-18)
(32.3169 0.967055 5.77691e-18)
(30.6129 0.904669 0)
(24.8192 0.742987 -8.39392e-18)
(25.0224 0.823551 0)
(30.7114 0.998586 0)
(32.3601 1.05905 1.14226e-17)
(32.3704 1.10947 -1.76106e-19)
(30.763 1.0368 1.36543e-17)
(25.2317 0.868158 -1.65806e-17)
(25.5141 0.966372 -1.63834e-17)
(30.8769 1.14484 0)
(32.4175 1.21285 1.7549e-19)
(32.3977 1.31131 0)
(30.9143 1.25501 -1.32679e-17)
(25.6849 1.06215 1.60993e-17)
(25.8485 1.11951 -1.24341e-19)
(30.9715 1.32718 1.31041e-17)
(32.391 1.38834 -1.09749e-17)
(32.3596 1.44026 1.0793e-17)
(30.9712 1.38148 1.31245e-17)
(25.9894 1.17582 -1.56316e-17)
(26.226 1.21404 -1.55788e-17)
(31.0587 1.41876 -1.00204e-19)
(32.3712 1.49289 0)
(32.3465 1.57219 2.11334e-17)
(31.0774 1.51533 -2.53545e-17)
(26.4208 1.31575 1.54179e-17)
(26.6249 1.38498 -1.51979e-17)
(31.1172 1.58624 -1.95557e-19)
(32.3245 1.64555 -1.04072e-17)
(32.2709 1.7177 0)
(31.1103 1.66346 1.25935e-17)
(26.803 1.46536 -1.49964e-17)
(26.964 1.55258 0)
(31.1037 1.75499 -1.9196e-19)
(32.2085 1.79651 -1.01062e-17)
(32.1356 1.83243 1.0074e-17)
(31.0955 1.77499 -1.28011e-17)
(27.1353 1.58264 -1.47439e-17)
(27.3373 1.69105 -1.5043e-17)
(31.0754 1.87483 2.49534e-17)
(32.0661 1.91129 -2.05722e-17)
(31.9514 1.97381 6.27898e-19)
(31.014 1.94599 -1.06429e-17)
(27.4885 1.76986 1.61468e-17)
(27.671 1.83663 1.53515e-17)
(30.9583 1.9985 -1.48463e-18)
(31.8461 2.02368 0)
(31.7171 2.0933 -9.43453e-18)
(30.8867 2.06818 2.92776e-18)
(27.8702 1.91249 -1.81491e-18)
(27.9893 1.9922 0)
(30.8023 2.18582 -2.49969e-18)
(31.5611 2.20026 0)
(31.3044 2.16484 0)
(30.6542 2.15214 2.01063e-18)
(28.0984 1.93109 2.32822e-18)
(25.677 1.56167 -5.8985e-18)
(29.5566 1.97921 -2.6705e-18)
(30.759 2.23674 -1.9644e-17)
(31.0075 2.30748 0)
(30.0222 2.31156 0)
(26.6159 2.08272 2.39425e-18)
(26.8207 2.15293 -1.68468e-17)
(30.0409 2.37507 1.47715e-17)
(30.871 2.39976 -9.98758e-18)
(30.682 2.47853 9.50438e-18)
(29.9639 2.47988 -2.76011e-17)
(27.1106 2.28244 3.22647e-17)
(27.3248 2.38922 -6.07739e-17)
(29.8171 2.54034 5.05614e-17)
(30.4877 2.51884 -4.34189e-17)
(30.2936 2.51067 -1.14437e-18)
(29.7263 2.59659 5.33127e-19)
(27.5898 2.54189 -3.02928e-17)
(28.2281 2.68429 -3.75972e-17)
(29.5872 2.57533 1.36583e-17)
(30.1737 2.52993 1.66354e-17)
(29.9478 2.73786 -4.56833e-18)
(29.6236 2.86642 0)
(28.1283 2.96082 -1.83296e-18)
(27.6958 3.09291 6.51851e-18)
(29.2436 2.89435 -3.11336e-18)
(29.5284 2.77955 1.44922e-18)
(29.0778 2.8084 -5.41519e-18)
(28.8805 2.92716 1.44458e-17)
(27.4252 3.19772 -1.80266e-17)
(27.0724 3.29834 2.28918e-17)
(28.4589 2.96799 1.06615e-17)
(28.572 2.85562 0)
(28.0529 2.83667 -7.66058e-18)
(27.949 2.99915 -1.41289e-17)
(26.6256 3.38431 -2.553e-17)
(26.023 3.40849 0)
(27.4823 2.97292 8.72105e-18)
(27.6528 2.96326 -1.36098e-21)
(27.2318 2.92662 6.99796e-18)
(27.0194 2.99573 -9.18393e-18)
(25.5232 3.57448 -1.34316e-17)
(24.9832 3.70201 1.2489e-17)
(26.4554 3.02971 2.5052e-18)
(26.6446 2.93975 1.09861e-17)
(25.9338 2.95658 1.49832e-18)
(25.7215 3.04259 -1.32896e-17)
(24.3289 3.87382 1.21428e-17)
(23.595 4.01543 3.6065e-17)
(24.811 2.94344 1.29246e-17)
(25.0444 2.82711 -2.72588e-17)
(23.962 2.79788 1.62612e-18)
(23.7578 2.94331 0)
(22.804 4.16453 -1.20748e-17)
(22.0783 4.2578 1.14258e-20)
(22.6121 2.78128 1.96588e-17)
(22.8765 2.529 -3.66765e-17)
(21.5465 2.31872 1.97791e-17)
(21.3978 2.66138 6.39777e-18)
(21.3173 4.41765 -4.72711e-17)
(20.5039 4.46048 6.432e-17)
(20.2864 2.35185 -1.71433e-17)
(20.3218 1.88374 0)
(19.3848 1.82817 -2.52198e-17)
(19.2786 2.13109 1.13688e-17)
(19.5243 4.39244 -7.52663e-17)
(18.5673 4.28276 0)
(18.1222 1.90249 -1.21901e-17)
(18.3061 1.36367 6.93734e-17)
(17.0011 1.33262 0)
(16.8989 1.91718 2.61139e-17)
(17.6136 4.29027 -1.768e-17)
(16.6754 4.18089 3.81721e-17)
(15.8493 1.50445 3.32985e-17)
(15.8659 0.817301 3.23419e-17)
(14.8636 0.707034 -1.39281e-17)
(14.7513 1.23297 2.25167e-17)
(15.5585 3.97221 -9.0335e-17)
(14.414 3.7701 1.18798e-17)
(13.5117 0.943206 -2.49819e-21)
(13.679 0.352539 -2.07209e-17)
(12.4569 -0.630326 -7.14847e-21)
(12.1506 0.201862 1.00669e-17)
(13.171 3.36257 1.18302e-17)
(11.6704 2.77541 0)
(10.5948 -0.725557 -9.9273e-18)
(10.9114 -1.87481 -3.75031e-17)
(9.23467 -3.1949 6.29155e-17)
(8.91998 -1.87183 -1.21623e-17)
(9.92892 1.8041 1.23467e-17)
(7.91192 0.406451 0)
(7.20889 -3.07929 -1.40957e-17)
(7.88993 -4.21758 8.3735e-18)
(6.51151 -6.11518 5.54235e-18)
(5.35722 -4.92387 0)
(5.72131 -1.4826 1.27696e-17)
(2.74132 -4.27609 -1.21394e-17)
(3.25437 -7.75613 2.19735e-17)
(4.76234 -9.51314 1.60872e-17)
(2.45073 -13.1452 -2.69046e-17)
(0.806558 -11.424 0)
(-0.752871 -8.09473 3.70208e-17)
(-4.41567 -12.9194 -7.49165e-17)
(-1.2186 -15.6006 -1.49062e-17)
(1.14791 -16.7556 1.69021e-17)
(1.23668 -23.1479 4.33765e-17)
(-2.07216 -22.1439 -8.57788e-17)
(-8.11656 -20.2006 3.39274e-17)
(-10.9274 -29.569 0)
(-2.67466 -30.112 2.79743e-17)
(0.558799 -30.1145 0)
(2.80464 -37.0772 -6.73296e-20)
(-1.26125 -38.2296 -5.76313e-17)
(-12.9575 -41.0182 0)
(-10.9061 -54.5974 4.22159e-17)
(4.62315 -48.244 0)
(8.11734 -46.0455 0)
(13.9428 -54.0108 6.27634e-18)
(11.3542 -57.0779 -7.96125e-18)
(-6.67418 -69.737 -5.78134e-17)
(2.33562 -82.2009 3.34074e-17)
(23.0903 -64.3082 -2.34051e-17)
(22.0989 -60.877 -2.47873e-17)
(34.6943 -66.339 -1.71883e-17)
(34.3246 -71.9216 -1.93704e-17)
(15.8931 -89.4161 -2.893e-17)
(30.6024 -85.4916 3.22001e-17)
(46.6602 -68.4364 6.73832e-17)
(43.7078 -67.4448 -2.30142e-17)
(53.8466 -63.7234 1.14362e-16)
(55.1245 -61.5573 -1.03938e-16)
(38.9398 -72.4952 5.16527e-17)
(42.0664 -56.6688 0)
(59.5319 -52.2779 0)
(58.7687 -57.6252 -9.09731e-17)
(60.4517 -51.803 3.18448e-17)
(59.0427 -44.7084 0)
(39.6498 -42.0741 1.785e-17)
(36.3938 -30.7686 -3.44845e-17)
(57.3456 -38.8634 0)
(62.052 -47.9407 2.65908e-17)
(61.659 -42.2957 -2.63713e-17)
(54.9213 -34.2543 1.20544e-17)
(33.7843 -23.5964 -3.36454e-17)
(31.7023 -18.8953 0)
(51.8903 -30.7246 1.35222e-20)
(60.0194 -38.0492 1.5599e-17)
(60.941 -36.2345 -2.47918e-17)
(50.182 -27.8945 3.7494e-17)
(29.7999 -14.8265 -3.25601e-17)
(28.1875 -12.0036 0)
(48.4544 -25.1465 1.03929e-17)
(60.0079 -32.3212 -3.06518e-17)
(57.7938 -28.7068 0)
(45.8614 -22.9545 -1.15288e-17)
(26.3867 -10.1399 -9.58816e-17)
(24.2288 -8.5413 1.14789e-16)
(42.8219 -21.2107 -2.67814e-17)
(55.3063 -25.9368 0)
(56.6748 -25.6585 0)
(43.2755 -20.1986 0)
(22.632 -6.97332 4.99095e-20)
(21.7241 -6.21714 -5.70388e-17)
(42.144 -18.6405 0)
(56.0046 -23.591 -2.82578e-17)
(54.1773 -21.3793 0)
(40.3794 -17.5043 0)
(20.4504 -5.59396 -5.83979e-17)
(18.6742 -4.85495 5.86913e-17)
(38.3746 -16.7371 -2.31128e-17)
(52.378 -19.5363 2.86722e-17)
(54.2812 -19.8214 3.8005e-20)
(40.6659 -16.4373 4.06222e-17)
(18.3687 -3.99557 -2.6132e-17)
(20.3157 -3.84684 4.48069e-17)
(41.7476 -16.036 5.46346e-21)
(54.154 -18.5161 -6.76572e-17)
(56.6919 -19.8628 9.29664e-17)
(45.5434 -16.3659 -2.30559e-17)
(24.2549 -4.02232 0)
(25.2361 -4.26924 0)
(45.9218 -15.9701 1.64348e-17)
(57.0373 -18.6791 -2.34961e-17)
(55.988 -17.1286 0)
(44.8201 -15.5614 -2.53495e-17)
(23.9639 -4.55637 0)
(22.9079 -4.60545 -1.6225e-17)
(43.2213 -14.9583 6.57254e-17)
(54.6378 -15.8168 -1.12748e-17)
(56.0044 -16.7528 -7.41215e-17)
(44.9259 -14.2714 3.15839e-17)
(24.8561 -4.46123 0)
(25.0676 -4.72553 0)
(44.3355 -13.5158 2.47315e-17)
(55.5309 -15.8362 4.98254e-21)
(53.7009 -14.6859 -1.30818e-17)
(42.9059 -12.977 2.10017e-17)
(24.4532 -5.15926 -2.89542e-17)
(23.5771 -5.16603 6.18599e-17)
(41.2896 -12.5202 -4.25248e-17)
(51.8733 -13.7735 -1.04381e-17)
(52.7558 -14.5901 8.08876e-18)
(42.7503 -12.1137 1.49228e-17)
(25.4595 -5.1348 -2.85226e-17)
(26.3444 -5.65797 0)
(42.5535 -11.7354 -1.15187e-17)
(52.4127 -14.2369 2.25797e-17)
(51.1124 -13.5145 -7.20635e-18)