/*--------------------------------*- C++ -*----------------------------------*\
| =========                 |                                                 |
| \\      /  F ield         | OpenFOAM: The Open Source CFD Toolbox           |
|  \\    /   O peration     | Version:  v2006                                 |
|   \\  /    A nd           | Website:  www.openfoam.com                      |
|    \\/     M anipulation  |                                                 |
\*---------------------------------------------------------------------------*/
FoamFile
{
    version     2.0;
    format      ascii;
    class       volScalarField;
    location    "0.02";
    object      T;
}
// * * * * * * * * * * * * * * * * * * * * * * * * * * * * * * * * * * * * * //

dimensions      [0 0 0 1 0 0 0];


internalField   nonuniform List<scalar> 
23013
(
299.305
299.305
299.306
299.306
299.306
299.306
299.306
299.307
299.308
299.31
299.311
299.313
299.314
299.316
299.318
299.32
299.322
299.324
299.326
299.328
299.33
299.333
299.335
299.338
299.34
299.343
299.345
299.348
299.351
299.354
299.357
299.36
299.363
299.366
299.369
299.372
299.375
299.379
299.382
299.386
299.389
299.393
299.396
299.4
299.404
299.408
299.412
299.415
299.419
299.423
299.427
299.431
299.435
299.439
299.444
299.448
299.452
299.456
299.46
299.465
299.469
299.473
299.478
299.482
299.486
299.491
299.495
299.499
299.504
299.508
299.512
299.517
299.521
299.525
299.53
299.534
299.538
299.542
299.546
299.551
299.555
299.559
299.563
299.567
299.571
299.574
299.578
299.582
299.586
299.589
299.593
299.596
299.599
299.602
299.606
299.609
299.612
299.614
299.617
299.62
299.622
299.625
299.627
299.629
299.631
299.633
299.635
299.637
299.639
299.639
299.64
299.64
299.64
299.64
299.64
299.64
299.641
299.641
299.642
299.644
299.647
299.651
299.665
299.668
299.649
299.644
299.643
299.649
299.671
299.673
299.647
299.64
299.637
299.646
299.673
299.675
299.646
299.636
299.636
299.647
299.677
299.681
299.65
299.636
299.638
299.652
299.683
299.684
299.655
299.64
299.642
299.656
299.683
299.682
299.657
299.643
299.643
299.656
299.679
299.678
299.656
299.644
299.643
299.655
299.675
299.674
299.655
299.643
299.643
299.654
299.673
299.673
299.654
299.643
299.643
299.654
299.673
299.675
299.656
299.644
299.645
299.656
299.675
299.677
299.659
299.647
299.648
299.66
299.678
299.682
299.663
299.651
299.652
299.664
299.682
299.684
299.667
299.656
299.657
299.668
299.684
299.685
299.671
299.66
299.661
299.671
299.684
299.684
299.672
299.663
299.663
299.672
299.683
299.684
299.673
299.665
299.665
299.673
299.684
299.686
299.675
299.667
299.668
299.676
299.687
299.69
299.678
299.67
299.671
299.679
299.692
299.696
299.683
299.674
299.675
299.684
299.697
299.701
299.688
299.679
299.68
299.689
299.702
299.706
299.693
299.684
299.686
299.695
299.707
299.711
299.699
299.69
299.691
299.7
299.712
299.715
299.704
299.695
299.697
299.705
299.716
299.719
299.709
299.7
299.702
299.71
299.72
299.723
299.714
299.706
299.707
299.715
299.724
299.728
299.718
299.711
299.712
299.72
299.728
299.731
299.723
299.716
299.717
299.724
299.732
299.734
299.727
299.72
299.722
299.728
299.734
299.735
299.73
299.724
299.725
299.73
299.735
299.736
299.732
299.728
299.728
299.732
299.735
299.735
299.734
299.73
299.731
299.733
299.734
299.735
299.734
299.732
299.732
299.734
299.733
299.734
299.734
299.733
299.733
299.733
299.732
299.732
299.734
299.734
299.733
299.733
299.731
299.731
299.733
299.734
299.733
299.732
299.73
299.73
299.732
299.733
299.732
299.731
299.729
299.729
299.732
299.733
299.732
299.73
299.728
299.728
299.731
299.732
299.731
299.73
299.727
299.727
299.73
299.731
299.73
299.729
299.727
299.727
299.729
299.73
299.729
299.728
299.726
299.726
299.728
299.729
299.728
299.727
299.725
299.725
299.727
299.728
299.726
299.726
299.725
299.724
299.726
299.726
299.725
299.724
299.723
299.723
299.724
299.724
299.722
299.721
299.721
299.72
299.721
299.721
299.718
299.718
299.718
299.716
299.717
299.717
299.714
299.713
299.713
299.711
299.712
299.712
299.707
299.707
299.707
299.705
299.705
299.705
299.7
299.7
299.699
299.697
299.697
299.697
299.69
299.69
299.69
299.687
299.687
299.687
299.679
299.679
299.679
299.675
299.675
299.675
299.666
299.666
299.666
299.662
299.661
299.661
299.651
299.651
299.652
299.647
299.646
299.646
299.634
299.635
299.636
299.631
299.629
299.629
299.616
299.617
299.619
299.613
299.611
299.61
299.597
299.598
299.601
299.595
299.592
299.59
299.576
299.578
299.582
299.576
299.572
299.57
299.556
299.558
299.563
299.557
299.552
299.549
299.534
299.537
299.543
299.537
299.531
299.527
299.513
299.517
299.524
299.518
299.51
299.506
299.492
299.496
299.504
299.498
299.49
299.485
299.471
299.476
299.485
299.48
299.47
299.465
299.451
299.457
299.467
299.462
299.451
299.445
299.432
299.439
299.449
299.444
299.433
299.426
299.413
299.421
299.432
299.428
299.416
299.408
299.396
299.404
299.416
299.412
299.399
299.391
299.379
299.388
299.401
299.397
299.384
299.375
299.364
299.373
299.387
299.383
299.369
299.36
299.35
299.36
299.374
299.371
299.356
299.347
299.338
299.348
299.363
299.36
299.345
299.335
299.327
299.338
299.352
299.35
299.335
299.325
299.318
299.329
299.344
299.342
299.327
299.316
299.311
299.322
299.336
299.335
299.32
299.31
299.306
299.316
299.33
299.329
299.315
299.305
299.302
299.312
299.325
299.325
299.312
299.301
299.299
299.309
299.322
299.322
299.31
299.299
299.298
299.308
299.32
299.321
299.308
299.298
299.298
299.307
299.319
299.32
299.308
299.298
299.298
299.307
299.318
299.319
299.309
299.299
299.299
299.308
299.318
299.32
299.31
299.301
299.301
299.31
299.319
299.321
299.312
299.303
299.304
299.312
299.321
299.322
299.314
299.306
299.307
299.314
299.322
299.324
299.316
299.309
299.31
299.317
299.324
299.327
299.32
299.313
299.314
299.321
299.328
299.331
299.324
299.317
299.319
299.325
299.332
299.335
299.329
299.323
299.325
299.33
299.336
299.34
299.335
299.329
299.331
299.336
299.341
299.345
299.34
299.335
299.337
299.342
299.346
299.35
299.346
299.341
299.343
299.347
299.351
299.356
299.352
299.348
299.349
299.354
299.357
299.361
299.358
299.354
299.356
299.36
299.363
299.367
299.365
299.361
299.363
299.367
299.369
299.374
299.372
299.368
299.371
299.373
299.375
299.381
299.379
299.376
299.378
299.381
299.382
299.388
299.386
299.384
299.386
299.388
299.389
299.395
299.394
299.392
299.394
299.396
299.396
299.402
299.402
299.4
299.402
299.404
299.404
299.41
299.41
299.409
299.411
299.412
299.412
299.418
299.418
299.417
299.42
299.42
299.42
299.426
299.427
299.426
299.429
299.429
299.429
299.435
299.436
299.435
299.438
299.438
299.437
299.444
299.445
299.445
299.447
299.447
299.447
299.454
299.455
299.454
299.457
299.457
299.456
299.463
299.464
299.464
299.467
299.466
299.466
299.473
299.474
299.474
299.476
299.476
299.476
299.48
299.48
299.482
299.491
299.489
299.489
299.492
299.494
299.496
299.5
299.498
299.496
299.504
299.507
299.509
299.503
299.495
299.491
299.489
299.491
299.491
299.492
299.493
299.494
299.496
299.498
299.501
299.502
299.504
299.508
299.512
299.516
299.521
299.533
299.535
299.529
299.522
299.519
299.524
299.529
299.525
299.521
299.518
299.517
299.52
299.523
299.522
299.519
299.515
299.513
299.515
299.517
299.517
299.515
299.511
299.508
299.511
299.512
299.511
299.509
299.507
299.503
299.505
299.507
299.506
299.504
299.502
299.498
299.5
299.503
299.502
299.499
299.497
299.494
299.496
299.498
299.497
299.495
299.492
299.489
299.491
299.493
299.492
299.49
299.487
299.484
299.486
299.488
299.487
299.485
299.482
299.479
299.481
299.483
299.483
299.48
299.477
299.474
299.477
299.478
299.478
299.475
299.473
299.47
299.472
299.474
299.473
299.471
299.468
299.465
299.467
299.469
299.468
299.466
299.463
299.46
299.462
299.464
299.463
299.461
299.459
299.456
299.458
299.459
299.458
299.457
299.454
299.451
299.453
299.454
299.454
299.452
299.45
299.447
299.449
299.449
299.449
299.447
299.445
299.442
299.444
299.445
299.444
299.443
299.441
299.438
299.439
299.44
299.439
299.438
299.436
299.433
299.435
299.436
299.435
299.434
299.432
299.429
299.431
299.431
299.43
299.43
299.428
299.425
299.426
299.427
299.427
299.425
299.424
299.421
299.422
299.423
299.422
299.421
299.419
299.417
299.418
299.419
299.418
299.417
299.415
299.413
299.414
299.415
299.414
299.413
299.411
299.409
299.41
299.411
299.411
299.41
299.408
299.405
299.407
299.407
299.407
299.406
299.404
299.401
299.403
299.404
299.403
299.402
299.4
299.398
299.4
299.4
299.399
299.399
299.397
299.395
299.396
299.397
299.396
299.395
299.394
299.391
299.393
299.393
299.393
299.392
299.39
299.388
299.39
299.39
299.39
299.389
299.387
299.385
299.387
299.386
299.386
299.386
299.384
299.382
299.383
299.384
299.384
299.383
299.381
299.379
299.381
299.38
299.38
299.38
299.379
299.377
299.378
299.378
299.378
299.377
299.376
299.374
299.375
299.375
299.374
299.375
299.373
299.372
299.373
299.372
299.372
299.372
299.371
299.369
299.37
299.369
299.369
299.37
299.368
299.367
299.368
299.367
299.367
299.367
299.366
299.365
299.366
299.365
299.365
299.365
299.364
299.363
299.364
299.363
299.363
299.363
299.362
299.361
299.362
299.361
299.361
299.362
299.36
299.36
299.36
299.36
299.36
299.36
299.359
299.358
299.359
299.358
299.358
299.359
299.358
299.357
299.358
299.357
299.357
299.358
299.357
299.356
299.357
299.355
299.356
299.357
299.356
299.356
299.356
299.355
299.355
299.357
299.356
299.355
299.356
299.354
299.354
299.356
299.355
299.355
299.356
299.353
299.354
299.356
299.355
299.355
299.355
299.353
299.353
299.356
299.355
299.355
299.356
299.353
299.353
299.356
299.356
299.356
299.356
299.352
299.353
299.357
299.356
299.357
299.357
299.352
299.353
299.357
299.357
299.358
299.357
299.352
299.353
299.358
299.358
299.359
299.358
299.352
299.353
299.359
299.36
299.361
299.36
299.352
299.353
299.361
299.362
299.363
299.361
299.352
299.353
299.362
299.365
299.366
299.363
299.352
299.352
299.364
299.368
299.369
299.364
299.352
299.352
299.365
299.371
299.373
299.366
299.351
299.351
299.367
299.375
299.377
299.367
299.35
299.35
299.368
299.379
299.38
299.369
299.349
299.349
299.37
299.383
299.384
299.37
299.348
299.348
299.371
299.387
299.388
299.371
299.346
299.346
299.372
299.39
299.391
299.372
299.344
299.344
299.372
299.393
299.393
299.371
299.342
299.341
299.372
299.394
299.395
299.37
299.339
299.338
299.369
299.395
299.394
299.366
299.335
299.333
299.364
299.393
299.39
299.361
299.33
299.329
299.36
299.389
299.384
299.356
299.326
299.326
299.355
299.382
299.377
299.353
299.325
299.326
299.353
299.375
299.37
299.352
299.325
299.33
299.352
299.368
299.366
299.354
299.334
299.346
299.354
299.358
299.395
299.377
299.351
299.344
299.374
299.396
299.407
299.38
299.347
299.348
299.382
299.41
299.413
299.383
299.349
299.351
299.386
299.417
299.419
299.387
299.352
299.354
299.388
299.423
299.424
299.389
299.355
299.356
299.39
299.427
299.427
299.39
299.357
299.358
299.39
299.427
299.428
299.391
299.36
299.362
299.392
299.426
299.425
299.393
299.365
299.367
299.394
299.424
299.423
299.395
299.372
299.379
299.398
299.419
299.433
299.421
299.395
299.393
299.43
299.463
299.463
299.424
299.385
299.392
299.43
299.471
299.472
299.432
299.394
299.398
299.433
299.473
299.472
299.433
299.401
299.404
299.435
299.471
299.469
299.435
299.406
299.41
299.435
299.467
299.468
299.437
299.416
299.422
299.437
299.464
299.479
299.463
299.438
299.432
299.465
299.498
299.5
299.463
299.43
299.434
299.466
299.504
299.504
299.466
299.436
299.44
299.468
299.504
299.505
299.47
299.444
299.447
299.471
299.504
299.505
299.471
299.453
299.46
299.475
299.5
299.522
299.505
299.478
299.472
299.505
299.54
299.541
299.501
299.469
299.476
299.504
299.543
299.543
299.507
299.48
299.483
299.508
299.542
299.539
299.506
299.487
299.493
299.506
299.533
299.558
299.538
299.511
299.504
299.534
299.569
299.567
299.53
299.501
299.504
299.531
299.568
299.567
299.53
299.506
299.511
299.531
299.568
299.562
299.53
299.516
299.533
299.561
299.583
299.592
299.551
299.523
299.526
299.553
299.592
299.591
299.554
299.529
299.53
299.552
299.586
299.585
299.553
299.536
299.541
299.552
299.581
299.604
299.583
299.557
299.547
299.571
299.607
299.603
299.57
299.549
299.555
299.573
299.607
299.602
299.573
299.561
299.576
299.599
299.619
299.626
299.592
299.572
299.578
299.596
299.628
299.627
299.598
299.583
299.59
299.596
299.619
299.646
299.623
299.604
299.604
299.621
299.65
299.649
299.62
299.604
299.615
299.626
299.651
299.654
299.633
299.626
299.638
299.652
299.675
299.68
299.652
299.635
299.646
299.658
299.681
299.686
299.663
299.657
299.663
299.677
299.696
299.707
299.683
299.675
299.686
299.692
299.714
299.727
299.706
299.697
299.71
299.713
299.726
299.747
299.731
299.723
299.74
299.742
299.753
299.782
299.766
299.76
299.776
299.777
299.784
299.809
299.797
299.793
299.819
299.819
299.816
299.847
299.844
299.849
299.874
299.873
299.867
299.882
299.887
299.895
299.93
299.929
299.93
299.936
299.937
299.938
299.912
299.906
299.906
299.901
299.897
299.9
299.862
299.857
299.858
299.839
299.837
299.837
299.806
299.807
299.807
299.803
299.796
299.795
299.788
299.79
299.804
299.793
299.772
299.766
299.767
299.779
299.799
299.767
299.757
299.756
299.75
299.757
299.778
299.8
299.776
299.761
299.748
299.755
299.776
299.784
299.763
299.752
299.749
299.76
299.787
299.795
299.763
299.749
299.758
299.777
299.805
299.792
299.762
299.749
299.751
299.773
299.809
299.814
299.79
299.771
299.754
299.763
299.793
299.806
299.771
299.752
299.774
299.793
299.817
299.802
299.771
299.76
299.757
299.78
299.814
299.818
299.794
299.775
299.761
299.773
299.802
299.815
299.789
299.772
299.76
299.772
299.806
299.811
299.777
299.76
299.763
299.787
299.82
299.824
299.804
299.782
299.766
299.779
299.809
299.826
299.789
299.766
299.783
299.805
299.827
299.809
299.779
299.768
299.767
299.788
299.824
299.828
299.807
299.786
299.771
299.783
299.813
299.828
299.793
299.771
299.788
299.809
299.829
299.814
299.785
299.774
299.773
299.795
299.83
299.831
299.811
299.79
299.777
299.788
299.817
299.832
299.798
299.777
299.793
299.813
299.833
299.818
299.79
299.779
299.778
299.799
299.833
299.834
299.814
299.793
299.78
299.791
299.819
299.834
299.8
299.78
299.795
299.815
299.835
299.822
299.793
299.782
299.781
299.801
299.835
299.837
299.817
299.795
299.782
299.794
299.822
299.835
299.801
299.781
299.796
299.817
299.837
299.823
299.795
299.783
299.782
299.802
299.837
299.839
299.82
299.798
299.785
299.796
299.824
299.837
299.803
299.782
299.798
299.82
299.839
299.825
299.797
299.785
299.784
299.804
299.839
299.842
299.823
299.8
299.788
299.8
299.83
299.843
299.809
299.788
299.802
299.826
299.846
299.832
299.802
299.79
299.789
299.809
299.846
299.849
299.828
299.804
299.792
299.805
299.835
299.85
299.813
299.792
299.81
299.833
299.854
299.841
299.81
299.797
299.795
299.818
299.854
299.855
299.835
299.81
299.798
299.811
299.84
299.854
299.818
299.797
299.814
299.837
299.858
299.844
299.813
299.8
299.799
299.821
299.858
299.864
299.842
299.819
299.804
299.816
299.847
299.86
299.824
299.801
299.816
299.841
299.861
299.845
299.815
299.802
299.801
299.823
299.861
299.862
299.841
299.817
299.803
299.816
299.847
299.862
299.825
299.803
299.821
299.845
299.866
299.85
299.819
299.806
299.802
299.826
299.863
299.863
299.843
299.816
299.802
299.815
299.846
299.86
299.824
299.8
299.815
299.839
299.861
299.843
299.811
299.799
299.807
299.828
299.855
299.84
299.807
299.795
299.796
299.819
299.858
299.857
299.836
299.811
299.795
299.807
299.838
299.851
299.815
299.791
299.805
299.83
299.85
299.834
299.804
299.791
299.79
299.814
299.851
299.851
299.829
299.805
299.789
299.802
299.834
299.848
299.82
299.798
299.787
299.798
299.834
299.85
299.811
299.788
299.802
299.828
299.85
299.831
299.798
299.786
299.782
299.806
299.845
299.845
299.824
299.796
299.782
299.795
299.827
299.844
299.805
299.78
299.797
299.821
299.845
299.827
299.793
299.779
299.788
299.81
299.839
299.826
299.789
299.777
299.777
299.801
299.841
299.841
299.818
299.791
299.774
299.787
299.821
299.836
299.796
299.77
299.785
299.812
299.835
299.817
299.781
299.768
299.777
299.798
299.828
299.812
299.775
299.765
299.764
299.789
299.828
299.829
299.805
299.78
299.763
299.777
299.811
299.829
299.797
299.775
299.762
299.772
299.81
299.819
299.78
299.756
299.77
299.798
299.82
299.801
299.768
299.755
299.751
299.777
299.816
299.817
299.792
299.767
299.749
299.762
299.799
299.809
299.779
299.757
299.746
299.756
299.793
299.81
299.77
299.746
299.763
299.788
299.813
299.796
299.76
299.745
299.753
299.778
299.808
299.789
299.752
299.741
299.737
299.761
299.802
299.801
299.778
299.75
299.735
299.749
299.783
299.802
299.76
299.733
299.748
299.776
299.802
299.783
299.746
299.732
299.74
299.764
299.796
299.781
299.74
299.728
299.728
299.755
299.8
299.803
299.776
299.747
299.73
299.746
299.786
299.799
299.766
299.739
299.725
299.737
299.78
299.793
299.75
299.722
299.738
299.767
299.794
299.776
299.734
299.719
299.728
299.753
299.786
299.768
299.726
299.714
299.714
299.743
299.788
299.788
299.761
299.733
299.713
299.727
299.777
299.784
299.748
299.722
299.711
299.724
299.766
299.782
299.747
299.723
299.709
299.723
299.773
299.778
299.734
299.706
299.724
299.753
299.782
299.761
299.716
299.701
299.709
299.735
299.77
299.752
299.708
299.697
299.696
299.723
299.77
299.772
299.742
299.714
299.694
299.709
299.752
299.764
299.728
299.703
299.691
299.703
299.747
299.767
299.719
299.692
299.711
299.739
299.77
299.751
299.707
299.692
299.706
299.733
299.771
299.748
299.702
299.689
299.686
299.717
299.762
299.76
299.733
299.703
299.683
299.698
299.747
299.755
299.718
299.692
299.678
299.691
299.736
299.751
299.713
299.688
299.674
299.687
299.733
299.753
299.705
299.675
299.695
299.724
299.754
299.743
299.688
299.674
299.684
299.711
299.751
299.732
299.686
299.672
299.685
299.71
299.749
299.746
299.687
299.669
299.668
299.696
299.747
299.753
299.72
299.687
299.663
299.681
299.729
299.743
299.703
299.673
299.659
299.673
299.723
299.741
299.69
299.659
299.68
299.711
299.745
299.728
299.675
299.658
299.668
299.697
299.738
299.72
299.667
299.653
299.665
299.693
299.735
299.715
299.664
299.65
299.651
299.684
299.738
299.743
299.709
299.675
299.654
299.672
299.726
299.74
299.698
299.667
299.649
299.665
299.718
299.726
299.687
299.657
299.643
299.657
299.707
299.729
299.677
299.643
299.665
299.694
299.725
299.717
299.655
299.64
299.651
299.679
299.725
299.702
299.649
299.634
299.646
299.674
299.717
299.696
299.645
299.63
299.631
299.666
299.72
299.723
299.688
299.655
299.632
299.65
299.705
299.719
299.674
299.644
299.629
299.645
299.698
299.722
299.674
299.644
299.625
299.64
299.697
299.714
299.659
299.622
299.646
299.679
299.713
299.695
299.635
299.617
299.629
299.658
299.704
299.692
299.624
299.61
299.622
299.65
299.698
299.676
299.619
299.602
299.613
299.644
299.686
299.668
299.613
299.598
299.599
299.633
299.686
299.691
299.655
299.622
299.597
299.614
299.679
299.689
299.64
299.609
299.592
299.607
299.669
299.681
299.635
299.605
299.589
299.606
299.668
299.682
299.625
299.589
299.612
299.647
299.686
299.661
299.603
299.583
299.594
299.626
299.674
299.666
299.588
299.574
299.586
299.617
299.672
299.65
299.584
299.567
299.581
299.612
299.66
299.635
299.578
299.561
299.561
299.6
299.66
299.657
299.622
299.587
299.561
299.579
299.651
299.655
299.605
299.572
299.555
299.569
299.646
299.654
299.6
299.569
299.55
299.568
299.631
299.646
299.598
299.565
299.546
299.564
299.625
299.648
299.588
299.546
299.57
299.606
299.643
299.625
299.561
299.542
299.552
299.584
299.634
299.616
299.548
299.532
299.546
299.576
299.628
299.613
299.54
299.524
299.538
299.569
299.621
299.595
299.535
299.517
299.517
299.559
299.619
299.617
299.58
299.543
299.516
299.536
299.603
299.615
299.562
299.529
299.51
299.526
299.606
299.614
299.557
299.524
299.504
299.523
299.588
299.604
299.553
299.518
299.5
299.518
299.582
299.609
299.545
299.502
299.528
299.566
299.607
299.588
299.517
299.497
299.508
299.543
299.596
299.583
299.502
299.487
299.501
299.533
299.592
299.574
299.496
299.479
299.493
299.527
299.582
299.556
299.491
299.472
299.473
299.515
299.58
299.583
299.541
299.5
299.473
299.496
299.56
299.578
299.523
299.487
299.466
299.482
299.571
299.578
299.516
299.48
299.459
299.479
299.554
299.567
299.512
299.475
299.454
299.474
299.54
299.569
299.5
299.456
299.486
299.529
299.574
299.548
299.478
299.454
299.465
299.505
299.561
299.556
299.46
299.443
299.456
299.493
299.554
299.543
299.453
299.434
299.45
299.487
299.551
299.527
299.444
299.425
299.44
299.478
299.538
299.508
299.438
299.42
299.42
299.464
299.532
299.533
299.489
299.449
299.418
299.441
299.513
299.529
299.469
299.433
299.407
299.424
299.52
299.525
299.459
299.423
299.4
299.418
299.512
299.518
299.454
299.415
299.394
299.413
299.5
299.51
299.449
299.409
299.389
299.409
299.484
299.503
299.433
299.388
299.418
299.459
299.507
299.49
299.403
299.381
299.397
299.434
299.498
299.488
299.387
299.369
299.382
299.42
299.485
299.476
299.379
299.36
299.376
299.416
299.484
299.458
299.373
299.353
299.365
299.407
299.467
299.435
299.365
299.344
299.345
299.394
299.466
299.462
299.417
299.377
299.341
299.362
299.456
299.454
299.393
299.354
299.331
299.35
299.455
299.456
299.386
299.346
299.323
299.345
299.441
299.451
299.382
299.339
299.316
299.338
299.424
299.438
299.375
299.331
299.308
299.33
299.406
299.433
299.355
299.306
299.337
299.383
299.431
299.42
299.323
299.3
299.314
299.354
299.421
299.417
299.308
299.288
299.302
299.343
299.412
299.403
299.297
299.277
299.294
299.335
299.407
299.383
299.287
299.266
299.282
299.326
299.393
299.357
299.28
299.259
299.259
299.31
299.386
299.381
299.334
299.29
299.254
299.277
299.373
299.38
299.31
299.267
299.242
299.265
299.361
299.375
299.302
299.259
299.23
299.251
299.354
299.367
299.292
299.248
299.223
299.246
299.337
299.35
299.282
299.236
299.211
299.233
299.315
299.345
299.262
299.21
299.244
299.291
299.347
299.311
299.232
299.204
299.218
299.263
299.331
299.321
299.21
299.188
299.203
299.249
299.327
299.309
299.197
299.175
299.191
299.238
299.317
299.28
299.192
299.166
299.182
299.23
299.298
299.263
299.178
299.154
299.155
299.213
299.298
299.289
299.236
299.19
299.147
299.171
299.282
299.287
299.209
299.163
299.134
299.159
299.274
299.278
299.197
299.151
299.121
299.144
299.271
299.268
299.186
299.139
299.108
299.134
299.253
299.259
299.176
299.124
299.096
299.123
299.218
299.237
299.163
299.113
299.086
299.111
299.201
299.234
299.143
299.086
299.118
299.169
299.228
299.197
299.109
299.079
299.093
299.142
299.219
299.21
299.083
299.061
299.079
299.124
299.209
299.191
299.069
299.046
299.062
299.114
299.198
299.156
299.062
299.034
299.049
299.1
299.172
299.136
299.045
299.02
299.019
299.078
299.173
299.168
299.108
299.057
299.011
299.037
299.157
299.164
299.076
299.025
298.992
299.019
299.12
299.143
299.059
299.007
298.977
299.002
299.126
299.137
299.047
298.997
298.962
298.988
299.105
299.115
299.032
298.979
298.946
298.974
299.07
299.105
299.009
298.946
298.985
299.036
299.101
299.075
298.964
298.935
298.95
299.002
299.087
299.081
298.941
298.918
298.931
298.982
299.069
299.062
298.925
298.901
298.918
298.97
299.063
299.032
298.909
298.884
298.905
298.955
299.044
298.995
298.895
298.867
298.865
298.932
299.03
299.019
298.958
298.903
298.855
298.883
299.01
299.014
298.922
298.871
298.835
298.858
299.003
299.004
298.904
298.853
298.814
298.838
298.972
298.975
298.883
298.831
298.797
298.824
298.946
298.963
298.872
298.82
298.784
298.811
298.916
298.952
298.848
298.78
298.82
298.877
298.944
298.925
298.797
298.768
298.782
298.84
298.935
298.897
298.776
298.748
298.766
298.818
298.913
298.891
298.752
298.725
298.743
298.8
298.901
298.859
298.737
298.706
298.723
298.781
298.87
298.82
298.715
298.686
298.684
298.753
298.862
298.854
298.782
298.727
298.669
298.699
298.834
298.842
298.741
298.686
298.645
298.669
298.815
298.821
298.716
298.658
298.62
298.651
298.768
298.791
298.691
298.634
298.596
298.627
298.75
298.77
298.673
298.622
298.575
298.606
298.724
298.753
298.639
298.572
298.616
298.678
298.763
298.728
298.592
298.557
298.574
298.638
298.743
298.707
298.56
298.532
298.553
298.609
298.716
298.686
298.539
298.511
298.527
298.588
298.691
298.639
298.522
298.489
298.508
298.566
298.658
298.612
298.496
298.464
298.459
298.532
298.647
298.648
298.565
298.499
298.442
298.481
298.595
298.623
298.522
298.458
298.416
298.443
298.594
298.606
298.491
298.433
298.385
298.417
298.547
298.561
298.459
298.4
298.355
298.382
298.499
298.547
298.424
298.353
298.398
298.456
298.546
298.493
298.375
298.338
298.356
298.42
298.525
298.483
298.346
298.313
298.331
298.394
298.507
298.483
298.316
298.285
298.306
298.369
298.489
298.426
298.294
298.256
298.277
298.342
298.446
298.389
298.263
298.23
298.225
298.301
298.428
298.429
298.337
298.272
298.203
298.244
298.37
298.393
298.285
298.217
298.17
298.202
298.347
298.368
298.25
298.188
298.14
298.173
298.313
298.333
298.221
298.157
298.108
298.138
298.27
298.308
298.176
298.096
298.137
298.2
298.291
298.238
298.096
298.061
298.082
298.141
298.259
298.213
298.072
298.036
298.061
298.123
298.243
298.195
298.045
298.008
298.029
298.102
298.219
298.156
298.016
297.98
297.975
298.057
298.201
298.203
298.101
298.027
297.954
298
298.137
298.162
298.046
297.97
297.92
297.956
298.114
298.135
298.008
297.937
297.889
297.925
298.08
298.101
297.977
297.908
297.855
297.888
298.033
298.075
297.925
297.843
297.891
297.964
298.071
298.001
297.858
297.812
297.827
297.899
298.022
297.973
297.797
297.764
297.785
297.844
297.985
297.908
297.751
297.719
297.728
297.785
297.911
297.853
297.713
297.676
297.675
297.756
297.916
297.922
297.809
297.729
297.658
297.706
297.856
297.886
297.759
297.677
297.621
297.661
297.821
297.852
297.718
297.643
297.589
297.625
297.782
297.836
297.669
297.579
297.633
297.713
297.831
297.752
297.597
297.547
297.563
297.644
297.777
297.714
297.542
297.503
297.523
297.596
297.738
297.675
297.501
297.459
297.477
297.553
297.691
297.62
297.456
297.419
297.406
297.507
297.666
297.646
297.53
297.452
297.361
297.411
297.577
297.593
297.453
297.373
297.305
297.341
297.527
297.526
297.374
297.315
297.251
297.297
297.462
297.53
297.338
297.245
297.305
297.411
297.542
297.459
297.285
297.228
297.254
297.345
297.495
297.423
297.231
297.184
297.205
297.296
297.45
297.367
297.188
297.145
297.135
297.237
297.429
297.422
297.289
297.194
297.1
297.158
297.333
297.362
297.213
297.116
297.052
297.095
297.292
297.313
297.15
297.074
296.992
297.036
297.235
297.251
297.093
297.01
296.947
296.984
297.167
297.209
297.035
296.918
296.973
297.057
297.182
297.089
296.912
296.854
296.867
296.945
297.097
296.997
296.813
296.779
296.797
296.87
297.025
296.953
296.774
296.729
296.733
296.826
297.028
297.038
296.896
296.792
296.707
296.767
296.951
296.986
296.831
296.729
296.662
296.709
296.903
296.963
296.751
296.64
296.702
296.811
296.96
296.857
296.663
296.6
296.626
296.723
296.891
296.804
296.59
296.538
296.557
296.653
296.83
296.738
296.53
296.49
296.464
296.596
296.796
296.76
296.612
296.515
296.4
296.463
296.665
296.69
296.513
296.423
296.32
296.368
296.603
296.606
296.413
296.325
296.236
296.283
296.493
296.492
296.274
296.163
296.236
296.356
296.504
296.421
296.231
296.159
296.216
296.31
296.494
296.396
296.172
296.109
296.098
296.233
296.479
296.466
296.304
296.171
296.063
296.139
296.357
296.394
296.207
296.09
295.997
296.055
296.308
296.333
296.13
296.019
295.943
295.992
296.229
296.274
296.043
295.902
295.986
296.098
296.268
296.15
295.918
295.837
295.857
295.979
296.172
296.071
295.821
295.767
295.713
295.859
296.113
296.082
295.906
295.781
295.62
295.694
295.946
295.932
295.714
295.616
295.508
295.555
295.789
295.835
295.568
295.446
295.565
295.685
295.884
295.802
295.54
295.46
295.499
295.641
295.86
295.739
295.47
295.4
295.385
295.548
295.849
295.825
295.619
295.479
295.329
295.419
295.684
295.723
295.498
295.366
295.241
295.313
295.617
295.639
295.396
295.269
295.159
295.219
295.498
295.559
295.277
295.116
295.172
295.322
295.522
295.387
295.13
295.052
294.985
295.185
295.453
295.387
295.196
295.055
294.87
294.957
295.268
295.242
294.987
294.857
294.707
294.768
295.028
295.081
294.769
294.624
294.772
294.921
295.151
295.069
294.751
294.65
294.698
294.869
295.127
294.989
294.669
294.583
294.563
294.744
295.106
295.095
294.846
294.681
294.488
294.601
294.921
294.958
294.698
294.523
294.406
294.48
294.804
294.88
294.542
294.344
294.446
294.605
294.839
294.661
294.345
294.231
294.252
294.418
294.688
294.542
294.199
294.125
294.04
294.23
294.561
294.464
294.202
294.056
293.88
293.98
294.292
294.193
293.856
293.698
293.798
294.006
294.249
294.149
293.805
293.673
293.788
293.967
294.296
294.137
293.751
293.621
293.613
293.804
294.274
294.267
293.976
293.725
293.558
293.691
294.064
294.171
293.747
293.51
293.631
293.854
294.126
293.93
293.538
293.395
293.434
293.641
293.96
293.766
293.365
293.267
293.185
293.415
293.825
293.739
293.437
293.23
293.039
293.151
293.535
293.567
293.162
292.91
292.935
293.128
293.411
293.108
292.763
292.652
292.526
292.745
293.19
293.324
292.986
292.766
292.579
292.732
293.191
293.284
292.911
292.671
292.497
292.636
293.092
293.223
292.673
292.437
292.558
292.859
293.193
292.956
292.509
292.349
292.251
292.531
293.039
292.98
292.66
292.361
292.139
292.293
292.738
292.809
292.34
292.018
292.089
292.349
292.68
292.444
291.975
291.807
291.613
291.898
292.428
292.318
291.849
291.554
291.243
291.409
291.855
292.181
291.524
291.263
291.503
291.843
292.23
292.009
291.516
291.3
291.281
291.564
292.233
292.212
291.802
291.456
291.183
291.378
291.91
292.04
291.451
291.08
291.214
291.54
291.926
291.644
291.106
290.921
290.772
291.162
291.718
291.552
291.157
290.844
290.513
290.717
291.249
291.191
290.607
290.201
290.187
290.518
291.092
290.423
289.883
289.73
289.808
290.174
290.876
290.908
290.501
290.119
289.888
290.158
290.804
290.914
290.181
289.855
289.842
290.293
291.084
290.969
290.465
290.011
289.673
289.918
290.591
290.68
289.969
289.495
289.613
289.986
290.49
290.102
289.44
289.169
288.817
289.287
290.057
289.801
289.155
288.737
288.207
288.368
288.986
289.299
288.574
288.215
288.392
288.847
289.79