/*--------------------------------*- C++ -*----------------------------------*\
| =========                 |                                                 |
| \\      /  F ield         | OpenFOAM: The Open Source CFD Toolbox           |
|  \\    /   O peration     | Version:  v2006                                 |
|   \\  /    A nd           | Website:  www.openfoam.com                      |
|    \\/     M anipulation  |                                                 |
\*---------------------------------------------------------------------------*/
FoamFile
{
    version     2.0;
    format      ascii;
    class       volScalarField;
    location    "0.02";
    object      yPlus;
}
// * * * * * * * * * * * * * * * * * * * * * * * * * * * * * * * * * * * * * //

dimensions      [0 0 0 0 0 0 0];


internalField   uniform 0;

boundaryField
{
    bottomEmptyFaces
    {
        type            empty;
    }
    topEmptyFaces
    {
        type            empty;
    }
    inlet
    {
        type            calculated;
        value           uniform 0;
    }
    outlet
    {
        type            calculated;
        value           uniform 0;
    }
    walls
    {
        type            calculated;
        value           nonuniform List<scalar> 
1427
(
10.1999
10.7292
11.7267
12.3132
10.8147
11.8418
13.4714
10.4317
11.2692
11.5549
11.9921
10.4425
11.2933
9.75192
10.3399
13.694
9.95769
10.4949
10.7567
11.5818
9.9184
10.7573
13.3406
11.4097
11.9456
10.5424
11.5042
10.1751
11.0179
11.1943
11.7027
13.0003
9.50792
10.0436
10.2887
11.2316
10.1925
11.1191
9.8101
10.6113
12.7369
11.0069
11.5623
9.24144
9.73278
12.5263
9.06527
9.65016
9.68891
10.237
11.3676
12.4108
14.0406
10.1751
10.7527
10.9429
11.8327
12.5723
13.0661
19.2799
19.9429
15.8724
15.8219
16.7686
16.9779
14.3328
15.0583
20.9247
17.5711
17.7007
20.1175
17.8967
18.1344
15.2917
15.885
16.6469
16.5498
19.0423
14.8157
15.2342
22.8611
24.2379
23.7571
23.4211
19.1311
18.8077
19.425
19.0261
23.9134
19.5903
19.253
19.8294
19.4529
27.0257
24.7804
20.0163
19.5621
21.4474
20.603
23.8314
20.4809
19.5561
25.2536
21.2227
20.6725
22.7808
21.3387
17.1516
17.0543
20.8243
16.6481
16.7962
20.2379
15.936
16.3919
19.0171
18.9944
22.6163
22.4408
18.4912
18.2499
18.5248
18.1883
22.5233
18.4659
18.3412
18.5082
18.205
15.4086
15.8989
17.9633
15.7053
16.0492
13.583
14.2076
17.2906
12.979
13.6043
18.2366
14.3226
14.3829
14.9823
15.3961
16.7315
14.3827
14.7563
12.4889
13.106
17.0586
12.4477
13.1531
13.6492
14.5704
13.9838
14.3936
18.6536
13.8644
14.4731
16.2489
16.4587
26.0216
22.287
21.3757
28.6099
25.7913
29.0182
25.974
23.0643
21.6835
22.7709
21.469
30.077
27.4961
25.3625
23.3938
32.7375
30.577
29.3721
25.8243
22.8617
21.3582
32.2077
31.8481
27.2669
24.1847
22.5161
31.0701
28.7708
34.1402
26.666
24.5985
32.9404
33.4137
33.3903
32.7529
31.6528
30.4048
29.5798
29.3882
28.6892
27.4572
26.5357
25.9072
25.1426
24.2951
23.4479
22.6836
22.0095
21.4259
20.902
20.4558
20.0521
19.7199
19.4197
19.1837
18.973
18.816
18.6758
18.5757
18.4875
18.4284
18.3751
18.342
18.3089
18.2955
18.2705
18.2734
18.2546
18.2604
18.2443
18.2506
18.234
18.2386
18.2193
18.2226
18.2009
18.2021
18.178
18.1777
18.1517
18.1498
18.1226
18.1197
18.0916
18.0879
18.0598
18.0557
18.0277
18.0235
17.9965
17.9924
17.9664
17.9625
17.9377
17.9342
17.9104
17.9072
17.8848
17.882
17.8606
17.8584
17.8387
17.8371
17.8186
17.8178
17.8014
17.8013
17.7863
17.7872
17.7743
17.7759
17.7649
17.7673
17.7583
17.7613
17.7542
17.758
17.7528
17.757
17.7536
17.7586
17.7568
17.7625
17.7617
17.7694
17.769
17.7778
17.7781
17.7883
17.789
17.8002
17.8013
17.8137
17.8151
17.8281
17.8299
17.8438
17.8458
17.8601
17.8624
17.8775
17.8801
17.8954
17.8982
17.9142
17.9172
17.9332
17.9364
17.9529
17.9562
17.9725
17.9759
17.9926
17.996
18.0125
18.0159
18.0327
18.0362
18.0527
18.0561
18.073
18.0765
18.0931
18.0966
18.1135
18.1171
18.1338
18.1373
18.1543
18.1578
18.1746
18.1781
18.1949
18.1983
18.2148
18.218
18.2341
18.2372
18.2529
18.2558
18.2712
18.274
18.289
18.2916
18.3066
18.309
18.3234
18.3257
18.3402
18.3424
18.3563
18.3584
18.3725
18.3744
18.388
18.3898
18.4034
18.4051
18.4183
18.4199
18.4331
18.4346
18.4473
18.4487
18.4615
18.4628
18.4751
18.4764
18.4887
18.4899
18.5018
18.5029
18.515
18.516
18.5276
18.5286
18.5403
18.5412
18.5525
18.5534
18.5648
18.5655
18.5766
18.5772
18.5883
18.5888
18.5993
18.5998
18.6102
18.6105
18.6202
18.6203
18.6298
18.6293
18.6554
18.6684
18.6574
18.6578
18.6933
18.7369
18.7926
18.8746
19.0352
19.1568
19.6727
20.5898
6.8372
5.95169
6.01423
5.16747
5.2748
5.97835
5.96261
7.06973
6.79985
5.0809
5.14616
6.01839
5.97487
6.76359
5.69232
5.55548
5.12676
5.24817
7.16615
6.0873
6.12542
7.05443
5.27119
5.41362
5.68722
5.54919
10.2217
8.88246
9.34912
10.0907
7.80091
8.48555
7.24584
7.66077
8.21435
9.00053
7.93942
8.80412
8.06586
8.80559
7.64668
8.29898
7.76131
8.655
9.9237
8.63316
9.05732
7.94608
8.73551
7.72368
8.54922
7.14047
7.5439
8.76337
9.16821
7.48716
8.2179
7.10159
7.74096
7.26268
8.0062
7.72864
8.1046
7.14003
7.80801
8.94213
7.05067
7.66952
7.70864
8.03214
6.84783
7.44447
6.39935
6.78276
7.12124
7.81669
9.00076
6.97658
7.57552
6.50356
6.84439
7.78427
8.15043
9.23094
8.01849
8.37993
7.37115
8.07882
7.11587
7.86181
6.6348
6.99246
8.91111
6.40916
6.74006
6.91327
7.48822
9.5928
8.34003
8.77019
7.7799
8.54574
9.77404
7.60208
8.19904
7.03534
7.47493
8.46983
8.84966
7.34611
8.02424
7.55628
8.32934
6.89628
7.28959
9.46309
7.30104
7.92097
6.80171
7.20966
7.73535
8.4897
7.52083
8.24959
8.20079
8.52451
6.8345
7.42278
8.34728
6.49574
6.93923
7.17266
7.43504
7.28175
7.63458
6.69494
7.32256
8.41119
6.0758
6.38885
6.52594
7.0412
6.48667
7.00064
6.01787
6.31412
7.99032
5.79713
6.05921
6.96286
7.20964
8.06273
5.83254
6.13265
6.26487
6.69172
6.78748
7.03274
7.94831
5.73569
6.04339
7.76709
5.67242
5.89549
6.67695
6.93574
6.0402
6.48574
6.11463
6.52797
6.86938
7.14305
6.19771
6.63835
8.29498
7.1483
7.44864
6.53372
7.11966
6.28097
6.76421
5.96703
6.25992
6.37086
6.42374
6.3686
6.52547
7.4263
5.48968
5.67963
7.46586
6.36809
6.42443
5.51709
5.70268
7.59821
5.80649
6.20853
6.52277
6.72554
7.8418
6.80265
6.97889
6.58965
6.68584
7.71571
5.62058
5.84061
5.68211
5.88767
6.05961
6.42112
5.56577
5.79243
7.39074
6.35432
6.45413
7.46733
5.53815
5.67109
5.38223
5.57688
7.03665
7.04429
5.17143
5.33362
5.98613
6.03101
5.1951
5.33802
6.9751
5.1748
5.2971
5.9899
6.0135
5.6384
5.94641
8.71573
6.26522
6.59528
7.54789
7.92326
6.97176
7.63798
8.668
6.67947
7.22044
6.21802
6.59484
7.4998
7.812
6.77807
7.3137
6.3482
5.33234
4.94092
6.37687
5.31343
4.98729
6.44402
5.40653
5.10631
6.45671
5.38604
5.0929
6.35863
5.35371
4.99972
6.40204
5.37855
5.045
8.72584
8.48722
7.56725
12.7715
9.47126
8.28836
7.61069
9.12683
9.39296
8.10366
7.23659
6.98564
8.64381
12.3808
8.89325
7.70362
8.56127
6.51038
4.86819
8.19885
6.0471
7.37966
6.14206
5.34237
6.98039
5.85854
5.20462
7.71389
6.30484
5.35969
4.77616
6.4055
5.3614
4.93974
6.65461
5.31353
4.86833
6.61489
5.87905
7.58842
6.50929
8.12253
6.53564
5.64609
6.51922
5.70656
6.33811
5.36725
4.94436
6.3409
5.34354
4.92385
8.79362
6.8327
6.37459
4.77066
7.21118
7.00766
5.20476
8.01432
6.67925
6.83442
5.11911
8.20767
7.2213
6.16323
6.25121
4.74253
7.60244
6.74595
5.98698
6.34117
4.77456
7.87602
7.06167
6.19442
6.3841
4.96176
7.87881
7.19936
6.70454
6.24989
5.69412
6.16789
4.655
7.867
7.39582
6.92157
6.41892
5.72011
5.93528
4.57841
6.41466
5.30843
5.10325
6.38677
5.17986
5.02683
6.53589
6.73038
5.66098
5.57442
5.40336
5.25776
6.26844
5.12246
4.95204
6.17086
4.76878
4.78838
6.54305
5.46108
5.19512
6.54147
5.40803
5.14304
6.53087
5.41543
5.16601
6.53349
5.42092
5.18346
6.48446
5.44895
5.15188
6.55659
5.42103
5.20135
6.46292
5.41045
5.1297
6.4791
5.44333
5.13546
6.48583
5.37524
5.15377
6.45529
5.32719
5.10204
5.79735
5.70634
6.57186
5.36416
5.21322
6.84423
5.47456
5.32964
6.86143
5.78317
5.71107
6.51243
5.80712
5.78691
4.93459
5.03416
5.43453
5.29892
6.43887
4.90335
4.99691
6.42028
5.33777
5.16411
4.88586
4.95855
7.54686
7.13027
6.77646
6.48152
6.23449
5.79221
6.19242
4.69379
8.01359
7.68377
7.34445
7.06813
6.77564
6.45943
6.01976
5.46155
5.86028
4.43673
7.49934
7.11491
6.83684
6.61132
6.34953
6.12505
5.90173
5.71591
5.55091
5.24703
5.96456
4.26319
7.8496
7.65318
7.44817
7.26633
7.12532
6.95848
6.75729
6.5814
6.35993
6.15838
5.97879
5.81428
5.6575
5.52528
5.40526
5.15939
4.83574
5.8113
3.94538
7.53455
7.2984
7.16262
7.0605
6.95849
6.82571
6.71038
6.58946
6.48149
6.39387
6.29131
6.19485
6.12043
6.04993
6.00025
5.95202
5.92458
5.89538
5.88304
5.87222
5.87482
5.87772
5.8915
5.90234
5.9311
16.6736
5.946
5.97913
5.99582
16.6141
6.03042
12.1962
12.8188
6.04445
14.0513
6.07373
14.4251
12.2743
12.8445
6.08674
6.11372
6.12321
6.14395
6.15239
6.17114
6.17651
6.19007
6.19478
6.20701
6.20987
6.21877
6.221
6.22841
6.22952
6.23453
6.2352
6.23915
14.7411
6.23896
6.24117
11.4229
12.4229
10.6262
11.3113
12.7294
13.0413
13.0743
13.6154
11.7913
12.6633
15.0286
10.8723
11.4914
15.1244
12.8871
13.3142
11.0687
11.6151
6.24075
6.24236
6.24112
6.24184
6.24045
6.24074
6.23873
6.23842
15.9943
13.5471
13.8293
6.23627
6.23574
6.23297
6.23213
13.4408
13.9515
6.22923
15.3345
6.22818
10.9756
11.6646
6.22472
12.0279
12.8886
6.2235
15.7907
11.6413
12.2322
12.591
13.4716
14.1454
14.5847
11.5127
12.193
6.22012
6.21871
6.2147
6.21318
6.2094
6.20773
6.20331
6.20156
6.19747
6.19562
6.19091
6.18898
6.18465
6.18268
6.17775
6.17571
6.1712
6.16917
6.16409
6.162
6.15737
6.1553
6.15009
6.14796
10.8004
11.3325
6.14322
6.14112
9.5948
6.13583
10.4106
6.13369
9.97358
10.8828
6.1289
6.12683
6.12151
6.11942
6.11464
6.11262
6.10731
6.10531
6.10057
6.09865
6.0934
6.09152
6.08687
6.08508
6.07994
6.0782
6.07368
6.07202
6.06699
6.06542
6.06103
6.05951
6.05457
6.05314
9.49584
9.9853
6.04887
8.78883
6.04748
9.70018
6.04264
6.04135
6.0372
6.03592
6.03118
8.71033
6.03001
9.61254
9.73373
6.02595
10.1362
6.02477
11.2003
8.11368
8.56022
6.02009
6.01903
8.85743
9.78358
10.9196
7.90071
8.33547
8.50643
9.231
6.01505
6.01398
6.00963
6.00787
6.00534
5.99998
5.99719
6.05552
6.07367
6.13882
6.21135
6.32931
6.38164
6.5939
6.91818
10.2595
10.7895
9.49042
10.4472
10.0981
10.5709
11.6314
8.50382
8.91887
9.32658
10.2708
9.09405
9.88903
9.58731
10.4785
12.0778
9.36761
10.1625
8.71703
9.28984
10.4015
10.9193
12.3576
10.7161
11.2139
9.8749
10.8475
9.66964
10.642
8.96458
9.4447
11.8207
8.54857
9.02473
9.25459
10.0136
9.07261
9.98939
11.295
8.18748
8.67209
8.84079
9.57123
9.78115
10.3127
9.13419
10.0323
8.91637
9.83952
8.67212
9.43366
9.32651
10.2387
8.4117
9.30395
10.6102
7.66879
8.1416
8.18699
8.88379
8.2006
9.0518
9.14967
9.54534
10.5393
7.59339
8.03844
8.34735
9.2063
9.21787
9.69958
8.51517
9.37741
8.35382
9.23187
8.16841
8.88298
11.8926
12.3982
11.9712
9.38995
9.82246
12.5529
10.8351
7.82248
8.27078
8.60898
9.5236
8.47824
9.16256
8.65813
9.51443
10.9925
11.826
13.9521
7.90176
8.57116
8.06057
8.92997
7.32243
7.74758
7.15961
21.5494
22.2668
19.9874
18.4648
17.3036
16.4197
15.5935
15.098
14.5918
14.3444
14.0123
13.861
13.6072
13.5135
13.3091
13.2466
13.0711
13.0211
12.8643
12.8208
12.6733
12.6334
12.4905
12.4526
12.3126
12.2766
12.1398
12.1061
11.9735
11.9423
11.8145
11.7857
11.6626
11.636
11.5174
11.4948
11.3949
11.3809
11.2932
11.281
11.1978
11.1864
11.105
11.0931
11.0113
10.9987
10.9163
10.9029
10.8197
10.8056
10.7219
10.7075
10.6238
10.6093
10.5259
10.5114
10.4282
10.4137
10.3304
10.3159
10.2325
10.2179
10.1344
10.1199
10.0362
10.0217
9.93785
9.92349
9.83944
9.8253
9.74125
9.72754
9.64388
9.63093
9.54814
9.5363
9.45477
9.44435
9.36425
9.35564
9.27747
9.27133
9.19601
9.1937
9.12331
9.12525
9.0621
9.06851
9.01411
9.02603
8.98285
9.00152
8.97226
8.99855
8.98079
9.02544
9.01527
9.07859
9.07583
9.15573
9.16242
9.25771
9.27433
9.38371
9.41001
9.52966
9.56341
9.68931
9.72862
9.85773
9.90089
10.0309
10.0765
10.2056
10.2523
10.3789
10.4258
10.5486
10.5951
10.7132
10.7583
10.8705
10.9135
11.0191
11.0596
11.1586
11.1966
11.2894
11.3249
11.4116
11.4442
11.5247
11.5558
11.6406
11.6772
11.7683
11.8049
11.8954
11.9306
12.0171
12.048
12.1249
12.1495
12.2144
12.2325
12.2854
12.2972
12.339
12.3448
12.3764
12.3767
12.3976
12.3942
12.4072
12.4011
12.408
12.3989
12.4034
12.3888
12.3922
12.374
12.3767
12.3558
12.3583
12.3357
12.3381
12.3143
12.3166
12.2918
12.2941
12.2685
12.2707
12.2444
12.2467
12.22
12.2223
12.1952
12.1976
12.1703
12.1728
12.1454
12.148
12.1203
12.1228
12.0949
12.0973
12.0692
12.0717
12.0436
12.0462
12.0184
12.0211
11.9936
11.9966
11.9695
11.9726
11.9459
11.9492
11.9228
11.9263
11.9002
11.9038
11.8782
11.882
11.8568
11.861
11.834
11.8415
11.8403
11.9402
12.0514
12.4676
12.9893
13.4353
13.7418
24.5791
14.1215
)
;
    }
    rightWall
    {
        type            calculated;
        value           uniform 0;
    }
    symmetryLine
    {
        type            symmetryPlane;
    }
}


// ************************************************************************* //
