/*--------------------------------*- C++ -*----------------------------------*\
| =========                 |                                                 |
| \\      /  F ield         | OpenFOAM: The Open Source CFD Toolbox           |
|  \\    /   O peration     | Version:  v2006                                 |
|   \\  /    A nd           | Website:  www.openfoam.com                      |
|    \\/     M anipulation  |                                                 |
\*---------------------------------------------------------------------------*/
FoamFile
{
    version     2.0;
    format      ascii;
    class       volScalarField;
    location    "0.121";
    object      turbulenceProperties:I;
}
// * * * * * * * * * * * * * * * * * * * * * * * * * * * * * * * * * * * * * //

dimensions      [0 0 0 0 0 0 0];


internalField   nonuniform List<scalar> 
16277
(
0.149981
0.14998
0.149987
0.149989
0.149994
0.149992
0.149993
0.149996
0.150002
0.15001
0.150015
0.150018
0.150018
0.150017
0.150015
0.150013
0.150011
0.150009
0.150008
0.150007
0.150006
0.150005
0.150005
0.150004
0.150004
0.150003
0.150003
0.150003
0.150002
0.150002
0.150002
0.150002
0.150002
0.150002
0.150002
0.150002
0.150002
0.150002
0.150002
0.150002
0.150002
0.150002
0.150001
0.150001
0.150001
0.150001
0.150001
0.150001
0.150001
0.150001
0.150001
0.150001
0.150001
0.150001
0.150001
0.150001
0.150001
0.150001
0.150001
0.150001
0.150001
0.150001
0.150001
0.150001
0.150001
0.150001
0.150001
0.150001
0.15
0.15
0.15
0.15
0.15
0.15
0.149999
0.149999
0.149998
0.149997
0.149996
0.149995
0.149998
0.150005
0.150018
0.150031
0.150035
0.150024
0.150006
0.149987
0.149966
0.149968
0.149981
0.149977
0.149989
0.150008
0.149873
0.149304
0.14506
0.13908
0.145978
0.148746
0.14598
0.139197
0.133277
0.129405
0.135533
0.143821
0.139875
0.129548
0.125376
0.123121
0.127253
0.138208
0.13454
0.122608
0.120471
0.119191
0.121243
0.133289
0.130277
0.117866
0.11744
0.116713
0.117168
0.12941
0.126996
0.114913
0.115549
0.115164
0.114556
0.126377
0.124398
0.112921
0.11435
0.114173
0.112769
0.123969
0.122297
0.111519
0.113571
0.113516
0.111487
0.121994
0.120553
0.110494
0.113058
0.113089
0.110551
0.120351
0.119086
0.109736
0.112727
0.112809
0.10985
0.118957
0.11782
0.109151
0.112502
0.112616
0.109299
0.117745
0.116713
0.108685
0.112352
0.112489
0.10886
0.116682
0.115736
0.10831
0.112254
0.112407
0.108505
0.115741
0.114868
0.108006
0.112194
0.112358
0.108219
0.114905
0.114094
0.107763
0.112163
0.112336
0.107991
0.114157
0.113402
0.107571
0.112155
0.112337
0.107814
0.11349
0.112785
0.107427
0.112168
0.112357
0.107684
0.112899
0.112243
0.107327
0.112199
0.112394
0.1076
0.112381
0.111772
0.107272
0.112246
0.112448
0.10756
0.111934
0.111369
0.10726
0.11231
0.11252
0.107565
0.111556
0.111032
0.107292
0.11239
0.112608
0.107613
0.111242
0.110757
0.107364
0.112486
0.112712
0.107702
0.11099
0.110542
0.107476
0.112599
0.112833
0.10783
0.110797
0.110383
0.107626
0.112727
0.11297
0.107998
0.11066
0.11028
0.107814
0.112871
0.113124
0.108203
0.110579
0.11023
0.108038
0.11303
0.113293
0.108446
0.110552
0.110233
0.108299
0.113205
0.113478
0.108725
0.110578
0.110288
0.108595
0.113396
0.11368
0.109042
0.110657
0.110395
0.108929
0.113603
0.113898
0.109397
0.110788
0.110554
0.109299
0.113826
0.114132
0.109789
0.110973
0.110766
0.109707
0.114064
0.114383
0.110221
0.11121
0.111031
0.110154
0.114319
0.114651
0.110692
0.111502
0.111349
0.11064
0.11459
0.114935
0.111205
0.111849
0.111721
0.111167
0.114875
0.115234
0.111759
0.112249
0.112148
0.111736
0.115175
0.115547
0.112355
0.112704
0.112627
0.112344
0.115487
0.115871
0.11299
0.113211
0.113156
0.112989
0.115808
0.116204
0.113661
0.113768
0.113733
0.113668
0.116135
0.11654
0.114365
0.11437
0.114351
0.114377
0.116462
0.116873
0.115093
0.115009
0.115002
0.115106
0.116781
0.117195
0.115838
0.115678
0.115677
0.115846
0.117083
0.117494
0.116586
0.116362
0.116359
0.116581
0.117356
0.117756
0.117319
0.117045
0.11703
0.117292
0.117584
0.117965
0.118014
0.117702
0.117661
0.117952
0.117748
0.118098
0.11864
0.118304
0.118222
0.118528
0.117824
0.118132
0.11916
0.118814
0.118672
0.118984
0.117787
0.118037
0.119531
0.119191
0.118972
0.119275
0.117618
0.117757
0.119687
0.119392
0.119067
0.1193
0.117291
0.117288
0.119541
0.119349
0.118902
0.119015
0.116783
0.116625
0.119063
0.119022
0.118441
0.118397
0.116128
0.115785
0.118244
0.118387
0.117674
0.117448
0.115301
0.114826
0.11711
0.117455
0.116628
0.1162
0.114281
0.113752
0.115654
0.116221
0.115268
0.114595
0.113077
0.112521
0.113851
0.114676
0.113623
0.112689
0.111784
0.111302
0.111845
0.112929
0.111839
0.11067
0.110575
0.110161
0.109779
0.111081
0.109992
0.108639
0.109473
0.109134
0.107752
0.109212
0.108158
0.106689
0.108506
0.108247
0.105842
0.107385
0.106395
0.104875
0.107691
0.107513
0.10411
0.105656
0.104749
0.103217
0.107034
0.106929
0.102576
0.104078
0.10325
0.101771
0.106532
0.106492
0.101258
0.10266
0.101904
0.100547
0.106178
0.106194
0.10016
0.101421
0.100743
0.0995475
0.10596
0.10602
0.0992798
0.100363
0.0997675
0.0987656
0.105858
0.105954
0.0986085
0.0994847
0.0989697
0.0981818
0.10585
0.105975
0.0981064
0.09877
0.0983283
0.0977586
0.105921
0.106063
0.0977562
0.0981986
0.0978233
0.0974806
0.106052
0.106201
0.0975404
0.0977504
0.097434
0.0973279
0.106223
0.106371
0.0974343
0.0974039
0.0971382
0.0972765
0.106419
0.10656
0.0974156
0.0971361
0.0969116
0.0973024
0.106624
0.106749
0.0974604
0.0969276
0.0967347
0.0973819
0.106824
0.106937
0.097547
0.0967523
0.0965845
0.0974938
0.107015
0.107098
0.0976545
0.0966031
0.0964456
0.0976191
0.107184
0.107253
0.0977694
0.0964615
0.0963101
0.0977465
0.107341
0.107388
0.0978821
0.0963258
0.0961757
0.0978653
0.107475
0.107512
0.0979848
0.0961916
0.0960407
0.0979695
0.107586
0.107614
0.0980732
0.0960592
0.0958861
0.098048
0.107674
0.107704
0.0981433
0.0959003
0.0957203
0.0981102
0.107744
0.107765
0.0981893
0.0957303
0.0955332
0.098142
0.107792
0.107821
0.0982202
0.0955457
0.0953423
0.0981684
0.107841
0.107854
0.0982271
0.0953433
0.0951221
0.0981614
0.10786
0.107876
0.098213
0.0951219
0.0948933
0.0981425
0.10788
0.107896
0.0981859
0.0948874
0.0946503
0.0981073
0.107891
0.107889
0.0981354
0.0946365
0.094386
0.0980429
0.107877
0.10789
0.0980743
0.0943703
0.0941175
0.097974
0.107873
0.107867
0.0979901
0.0940887
0.0938188
0.0978697
0.10783
0.107819
0.0978698
0.0937789
0.0934813
0.0977239
0.107789
0.107699
0.09769
0.0934199
0.0931366
0.0976284
0.107654
0.10743
0.0972575
0.0928865
0.0926475
0.0971433
0.106997
0.106292
0.0956022
0.0919139
0.092838
0.0958755
0.10417
0.105116
0.0933919
0.0905822
0.095323
0.100924
0.107142
0.11269
0.116352
0.120713
0.123522
0.125772
0.127337
0.128392
0.12892
0.128951
0.128438
0.12732
0.125555
0.122569
0.120264
0.115109
0.110275
0.105089
0.100389
0.0991082
0.102176
0.116009
0.13134
0.133581
0.117514
0.103021
0.103968
0.119145
0.135332
0.136241
0.12028
0.104665
0.105266
0.120945
0.137081
0.137407
0.121289
0.105459
0.105788
0.121505
0.137704
0.137774
0.121726
0.105918
0.105993
0.121786
0.137807
0.137795
0.121786
0.106088
0.106127
0.121819
0.137795
0.13777
0.121819
0.106217
0.106238
0.121811
0.137743
0.137714
0.121825
0.10633
0.106345
0.121799
0.137678
0.137648
0.121822
0.106436
0.106453
0.121792
0.137611
0.137583
0.121809
0.106541
0.106554
0.121768
0.137529
0.137496
0.121781
0.106655
0.106672
0.121766
0.137449
0.137414
0.121767
0.106772
0.106788
0.12177
0.137381
0.137339
0.121764
0.106894
0.106914
0.121764
0.137296
0.137251
0.121757
0.107019
0.107032
0.121754
0.137207
0.137167
0.121747
0.10713
0.107146
0.121748
0.137137
0.137089
0.121729
0.107256
0.107276
0.121727
0.137039
0.136996
0.121727
0.10739
0.107409
0.121729
0.136949
0.136911
0.121721
0.107524
0.107543
0.121726
0.136863
0.136818
0.12172
0.107656
0.107677
0.121723
0.136781
0.136737
0.121739
0.107798
0.107818
0.121716
0.136682
0.13665
0.12174
0.107943
0.107966
0.121737
0.136607
0.136564
0.121764
0.108094
0.108115
0.121745
0.136513
0.136479
0.121776
0.108243
0.108266
0.121772
0.136431
0.136394
0.121806
0.108388
0.108403
0.121784
0.136345
0.136322
0.121818
0.108526
0.108547
0.121808
0.136275
0.136231
0.121849
0.108684
0.108703
0.121836
0.136175
0.136158
0.121889
0.108821
0.108831
0.121883
0.13612
0.136094
0.121928
0.108948
0.108953
0.1219
0.136042
0.136017
0.121944
0.109069
0.109071
0.121936
0.135972
0.135947
0.121979
0.109174
0.109166
0.121953
0.135894
0.135876
0.121995
0.109245
0.109219
0.121976
0.135838
0.135818
0.122008
0.109283
0.109244
0.121957
0.13577
0.135738
0.121969
0.109294
0.10924
0.121937
0.135695
0.135673
0.121912
0.109238
0.109151
0.121858
0.135632
0.135587
0.121786
0.109113
0.108997
0.121699
0.135541
0.135492
0.12157
0.108897
0.108744
0.121446
0.135447
0.135383
0.121272
0.108617
0.108438
0.121086
0.135305
0.13522
0.120855
0.108241
0.107966
0.120583
0.135142
0.135042
0.120235
0.107696
0.107324
0.119817
0.134907
0.134743
0.119332
0.106999
0.106535
0.118755
0.134539
0.134349
0.118164
0.106146
0.105594
0.117466
0.134133
0.13388
0.116703
0.105159
0.104574
0.11586
0.133566
0.133211
0.11494
0.10408
0.103326
0.11389
0.132865
0.132493
0.112753
0.102713
0.1019
0.111399
0.132021
0.131522
0.110093
0.101275
0.100471
0.108567
0.130933
0.130296
0.107081
0.099816
0.0989368
0.105411
0.129656
0.129052
0.103711
0.0981866
0.0973483
0.101635
0.128116
0.126797
0.0997707
0.0965727
0.0957712
0.0981205
0.125366
0.124054
0.0961394
0.0951147
0.094551
0.0943228
0.122883
0.121684
0.093242
0.0945441
0.0942716
0.092335
0.120591
0.119613
0.0909851
0.0946066
0.0946514
0.0902775
0.118528
0.117302
0.0897001
0.0953386
0.0956542
0.0894164
0.116094
0.115191
0.089756
0.0969011
0.0974528
0.0897825
0.114347
0.113476
0.0909818
0.0991828
0.100363
0.0925177
0.112436
0.112575
0.0959106
0.103317
0.104947
0.0985826
0.113783
0.133494
0.0907563
0.0855729
0.0974753
0.0949109
0.126365
0.125814
0.091632
0.0965977
0.0974748
0.0906135
0.125394
0.12415
0.0892478
0.0969908
0.0984591
0.0889801
0.122528
0.120671
0.0883292
0.0984048
0.100578
0.0892489
0.119034
0.117513
0.0893823
0.100879
0.104524
0.0920179
0.115961
0.114609
0.0932192
0.105842
0.111203
0.0982402
0.114552
0.115403
0.101266
0.113901
0.0881631
0.0885819
0.129221
0.121291
0.094364
0.106443
0.107043
0.0937233
0.119297
0.11735
0.0965771
0.112808
0.11447
0.0972374
0.115635
0.11513
0.100755
0.118835
0.121105
0.102557
0.114491
0.116033
0.108396
0.126567
0.128485
0.112773
0.118445
0.127327
0.0939394
0.0971104
0.120252
0.10115
0.121324
0.11969
0.100811
0.121808
0.128271
0.105716
0.119347
0.118793
0.107456
0.12996
0.138156
0.116086
0.120464
0.123933
0.122334
0.141848
0.10785
0.0989954
0.129291
0.122476
0.111297
0.137832
0.141368
0.114219
0.121183
0.123059
0.125236
0.152649
0.157641
0.131499
0.125421
0.131994
0.142152
0.16396
0.125961
0.110322
0.131119
0.127899
0.129239
0.161797
0.165957
0.133209
0.128677
0.134627
0.152215
0.182228
0.189591
0.16291
0.141323
0.136244
0.125637
0.152083
0.196064
0.157773
0.137616
0.141168
0.166851
0.206134
0.229976
0.195646
0.153778
0.161858
0.208557
0.241038
0.209969
0.166497
0.151488
0.170606
0.228648
0.267403
0.287833
0.24977
0.184842
0.172886
0.206399
0.266183
0.345884
0.303045
0.212472
0.245475
0.354129
0.398894
0.438163
0.347679
0.237609
0.414191
0.610455
0.648434
0.918177
0.847449
0.510819
1
1
1
0.825058
0.797011
0.508885
0.275474
0.424557
0.471716
0.342306
0.308873
0.213206
0.211371
0.276958
0.28921
0.239426
0.199188
0.171718
0.177719
0.216389
0.232991
0.192683
0.164849
0.149223
0.149753
0.177921
0.198261
0.18727
0.162101
0.141417
0.13305
0.124224
0.146733
0.165975
0.148489
0.137093
0.129388
0.123539
0.138553
0.155676
0.136661
0.127569
0.122588
0.127776
0.148897
0.116665
0.105334
0.122109
0.121071
0.120156
0.139422
0.133811
0.114006
0.117304
0.119682
0.0973237
0.104845
0.128388
0.10975
0.116211
0.115027
0.105719
0.122521
0.0974681
0.0942118
0.119669
0.114137
0.103133
0.118905
0.113247
0.0997232
0.112909
0.118315
0.0905342
0.0917255
0.111932
0.09769
0.110705
0.110166
0.0942681
0.106302
0.086679
0.0868071
0.116645
0.108476
0.0931356
0.105524
0.100087
0.0900553
0.108686
0.115715
0.0841
0.0826958
0.0999424
0.0889653
0.106113
0.107206
0.0862052
0.0951789
0.0796369
0.0816949
0.114735
0.104453
0.0868125
0.0965692
0.0895663
0.0831691
0.105126
0.108669
0.0802275
0.0840256
0.0741535
0.0785447
0.119987
0.105024
0.07825
0.0846439
0.0815836
0.0769169
0.107612
0.117495
0.0758001
0.0717422
0.0812051
0.0752279
0.102034
0.106294
0.0746768
0.0779223
0.0691105
0.0745373
0.11778
0.101683
0.072283
0.0764262
0.0743016
0.0724496
0.105071
0.115862
0.0727605
0.0671473
0.0742514
0.0706238
0.10019
0.10441
0.071037
0.0719355
0.0657397
0.0718622
0.115533
0.0989581
0.0682823
0.0709707
0.0691517
0.0688328
0.103617
0.115944
0.0712858
0.0636679
0.0683677
0.0667138
0.0987767
0.103319
0.0676702
0.0668687
0.0624192
0.0707889
0.115097
0.0983032
0.0645491
0.0651737
0.0642726
0.0655813
0.103194
0.116268
0.0702912
0.0606936
0.0633078
0.0641426
0.0998961
0.10944
0.0670497
0.0591912
0.0653532
0.0630575
0.0932745
0.0973288
0.0633443
0.0631525
0.0600395
0.0684853
0.10836
0.0936454
0.0631327
0.0636668
0.0623843
0.0633933
0.0986272
0.109427
0.0685865
0.059576
0.0632656
0.0626648
0.093336
0.0979659
0.0621523
0.0611313
0.0588694
0.0695894
0.109609
0.094356
0.061456
0.0603747
0.0588569
0.06096
0.0999147
0.111896
0.0703743
0.0577
0.0585711
0.0604854
0.0946692
0.0996248
0.0598516
0.0567208
0.0564502
0.0707468
0.112139
0.0962253
0.0571498
0.0565004
0.0549389
0.0654818
0.106442
0.0919888
0.05778
0.0567011
0.0546388
0.0574799
0.096917
0.107514
0.0680473
0.0547758
0.0550909
0.0571667
0.0919769
0.0972231
0.0566317
0.0526366
0.0539127
0.0694414
0.109304
0.0936271
0.0540051
0.0527076
0.0519828
0.0636384
0.104354
0.08929
0.0548405
0.0530378
0.0509609
0.0547314
0.0938431
0.104659
0.0666142
0.0521125
0.0525205
0.0549557
0.0899591
0.0956067
0.0549441
0.0503078
0.05222
0.068709
0.108011
0.0927029
0.0519001
0.0501212
0.0501121
0.0626964
0.103832
0.0886379
0.0529756
0.0508998
0.0486289
0.0530674
0.0933917
0.104332
0.0660706
0.0502435
0.0497242
0.0527343
0.0895812
0.0953185
0.0530963
0.0477953
0.0509033
0.0683409
0.107249
0.0917367
0.050289
0.047746
0.04813
0.0615338
0.103302
0.0875341
0.0503123
0.0480062
0.0462175
0.051183
0.0930081
0.104841
0.0668963
0.0491139
0.0463709
0.0486093
0.0896651
0.101011
0.0606886
0.0470205
0.0469612
0.0492517
0.0857962
0.0916848
0.0500135
0.0451171
0.0485546
0.0667402
0.103726
0.0894262
0.0486697
0.0456723
0.0464479
0.0604223
0.100357
0.0844937
0.0484207
0.0461005
0.0443492
0.0495437
0.0903408
0.102453
0.066344
0.0478552
0.044887
0.0476203
0.0878165
0.0994561
0.0598687
0.0458113
0.0455766
0.0478472
0.0844787
0.0906579
0.0492356
0.0438534
0.0475858
0.0663974
0.10316
0.0884496
0.0471802
0.0444767
0.045427
0.0596967
0.0990038
0.0843915
0.0472236
0.0447623
0.0431574
0.0483393
0.0902177
0.102235
0.0658704
0.0472303
0.0438676
0.0463692
0.0879356
0.1
0.0616492
0.0460357
0.0433763
0.0445728
0.0851665
0.0955679
0.0583002
0.0446063
0.0442908
0.0465175
0.0822128
0.08765
0.0478855
0.0425968
0.046294
0.064783
0.0992148
0.0853458
0.0458938
0.0430402
0.0443003
0.0587516
0.096687
0.0826652
0.0459927
0.043567
0.0420278
0.0476583
0.0888802
0.101106
0.0653301
0.0463751
0.0427967
0.0456227
0.087467
0.0995215
0.0609641
0.0452646
0.0423671
0.0437842
0.0853014
0.0945964
0.0572926
0.0435225
0.0428123
0.0451213
0.0804907
0.0862951
0.0463918
0.0412285
0.0453553
0.0642843
0.0981172
0.0848717
0.0446394
0.0419186
0.0443405
0.0592576
0.0966099
0.0828245
0.0426704
0.0415826
0.0430996
0.0570441
0.0924804
0.0799866
0.0447729
0.0424597
0.0411794
0.0467943
0.0860955
0.0975603
0.0640696
0.0453862
0.0417768
0.0445993
0.0841928
0.0957621
0.0592393
0.0441886
0.0411988
0.0423667
0.0819306
0.0914329
0.0564469
0.0426583
0.0417977
0.0440959
0.0784488
0.0841305
0.0457418
0.0404264
0.0446682
0.0632806
0.0956621
0.0830811
0.0441067
0.0412675
0.0438753
0.0587311
0.0945851
0.0818805
0.042436
0.0409784
0.0425974
0.0566412
0.0910649
0.0781791
0.043951
0.0415393
0.0401783
0.0456599
0.0840269
0.0959859
0.0632096
0.0445297
0.0409411
0.0435247
0.0837954
0.0952882
0.0582172
0.0435625
0.040367
0.0413839
0.0816399
0.0911591
0.0563961
0.0422191
0.040926
0.0434383
0.0780467
0.0838485
0.045147
0.039631
0.0441983
0.0633127
0.0957091
0.0831949
0.043499
0.0405969
0.043267
0.0583107
0.0943109
0.0802409
0.0410412
0.0398818
0.0423715
0.0562054
0.09015
0.0780243
0.0408143
0.0394791
0.0415112
0.0552481
0.0873438
0.0754594
0.0425044
0.0401168
0.0390303
0.044675
0.0811888
0.0928291
0.0619644
0.0437202
0.0400809
0.0431122
0.0814337
0.0932086
0.0579025
0.0429584
0.0396138
0.0411164
0.0805953
0.0902892
0.0559394
0.0421629
0.0391444
0.0405057
0.0775417
0.0865626
0.0551575
0.0411805
0.0395801
0.0421636
0.0746643
0.0802617
0.0437364
0.0384003
0.0430333
0.0612715
0.0917024
0.0801188
0.0422778
0.0394143
0.0422377
0.0567561
0.0914902
0.0786231
0.0400872
0.0389163
0.0415353
0.0550713
0.0881779
0.0763148
0.0400192
0.038582
0.0407878
0.0546405
0.0852626
0.0741101
0.0418789
0.0391957
0.0381772
0.0437034
0.0795506
0.090621
0.0610663
0.0429566
0.0390576
0.0421305
0.0794423
0.0907117
0.056299
0.0419881
0.0385049
0.039578
0.0780552
0.0878871
0.0549665
0.0412615
0.0381758
0.0397906
0.0760692
0.0850388
0.054248
0.0404237
0.0385096
0.041217
0.0733894
0.0789914
0.0433385
0.0375748
0.0427873
0.060162
0.0903285
0.0790995
0.0416861
0.0386751
0.0418541
0.0563152
0.0900484
0.0772275
0.0394347
0.0381225
0.0409435
0.0543027
0.0866629
0.0752394
0.0390872
0.0377351
0.040486
0.0536026
0.0848065
0.0738674
0.0392735
0.0374854
0.0398077
0.0532024
0.0824682
0.071872
0.040823
0.0378693
0.0370848
0.0427702
0.0774545
0.088836
0.0600857
0.0422173
0.0380048
0.041184
0.0779475
0.0890207
0.0553623
0.0413908
0.0375819
0.0387892
0.076642
0.0861105
0.0540831
0.040595
0.0371855
0.0388092
0.0744424
0.0834817
0.0530161
0.0399058
0.0369308
0.0386658
0.0728399
0.0813764
0.0525129
0.0391998
0.0372781
0.0401851
0.0705367
0.0758032
0.041857
0.0364014
0.0415413
0.0585839
0.086459
0.0752769
0.0403869
0.0374186
0.04084
0.0545667
0.0860234
0.0741014
0.0384304
0.0370974
0.0400757
0.0529355
0.0835566
0.0726722
0.0383154
0.036767
0.039616
0.0524039
0.0816115
0.071306
0.0384976
0.0366735
0.0389687
0.051709
0.079615
0.069523
0.0398425
0.0369442
0.0362066
0.041769
0.0747419
0.0853692
0.058256
0.0413224
0.0369608
0.0401812
0.0752977
0.0858125
0.0538255
0.0404024
0.0365313
0.0377904
0.074302
0.0836123
0.0524412
0.0397868
0.0361692
0.0376773
0.0725557
0.0812349
0.0517056
0.0391122
0.0359693
0.0376625
0.0707787
0.0787834
0.0513097
0.0384798
0.0363402
0.0392546
0.0683748
0.0736481
0.0411544
0.0356116
0.0408023
0.0574139
0.0839881
0.0736827
0.0396425
0.0364178
0.0399753
0.0531523
0.0839886
0.0724691
0.0372693
0.0359876
0.0391843
0.0514498
0.0814677
0.0708635
0.0371816
0.0356722
0.0387069
0.0508562
0.0793669
0.0694488
0.0372713
0.0354857
0.0380776
0.0505534
0.0774722
0.0675418
0.0387799
0.0357642
0.0351602
0.0408768
0.0730202
0.0836231
0.0572096
0.0405692
0.0358928
0.0391915
0.0734609
0.0836279
0.0528494
0.0397043
0.0353388
0.0367827
0.0720106
0.0809559
0.0511595
0.0388498
0.0349748
0.0366998
0.0705375
0.0790201
0.0504256
0.0382418
0.0348262
0.0365225
0.0689896
0.077296
0.0499095
0.0379813
0.0347762
0.0367054
0.0675862
0.0753658
0.0495902
0.0373117
0.0350091
0.0379626
0.0654398
0.0706884
0.0398027
0.0343792
0.0396828
0.0552721
0.0806703
0.0704956
0.0383808
0.035232
0.0388777
0.0515017
0.0801299
0.0692857
0.036355
0.0347577
0.0380449
0.04982
0.0775578
0.0675063
0.036095
0.0345431
0.0376726
0.0492734
0.0755053
0.0661846
0.0364656
0.0344875
0.0371102
0.0487303
0.0737069
0.064415
0.0374805
0.034594
0.0340494
0.0394454
0.069791
0.07956
0.0548936
0.0394551
0.0348905
0.0381583
0.0697382
0.0793553
0.0511052
0.0386827
0.0343273
0.0360304
0.0689232
0.0772065
0.0494258
0.0378119
0.0339465
0.0356838
0.0673369
0.0750909
0.0487614
0.0372579
0.0337025
0.0356834
0.0656473
0.0732178
0.0481611
0.0365022
0.0337874
0.03676
0.0636044
0.0690367
0.0387185
0.03325
0.0388856
0.0541857
0.0786567
0.0685798
0.0376054
0.0341628
0.0380285
0.0503759
0.0777799
0.067372
0.0355752
0.0336413
0.0371271
0.0486634
0.0752002
0.0654913
0.0350851
0.0332954
0.0365876
0.0477875
0.0732989
0.0641744
0.0351452
0.0331579
0.0360013
0.0474537
0.0717919
0.0625466
0.0362533
0.0332263
0.0327167
0.038285
0.0678176
0.0771266
0.0535
0.0383291
0.0336559
0.0370816
0.0675102
0.0766738
0.0497362
0.0376031
0.0331285
0.0350599
0.0664619
0.0745302
0.0482799
0.0368142
0.032823
0.0348721
0.0649539
0.0728342
0.0476042
0.0363382
0.0326072
0.034772
0.0635577
0.0712792
0.0470681
0.0356054
0.0326657
0.0357279
0.0620718
0.0672961
0.0376505
0.03215
0.0378224
0.052803
0.0761507
0.0666234
0.0366849
0.0331533
0.0370372
0.0490423
0.0751065
0.0649035
0.0346132
0.0326337
0.0361748
0.0472518
0.0727505
0.0630309
0.0342064
0.0322647
0.0354797
0.0467521
0.0708887
0.0621525
0.0355639
0.0322362
0.0318581
0.0376851
0.0677257
0.0767069
0.053309
0.0380166
0.0329256
0.0367218
0.0671332
0.0758452
0.0491262
0.0370163
0.0322783
0.0342548
0.0654534
0.0734572
0.0473581
0.0361407
0.0318662
0.0340501
0.0634666
0.0712419
0.0469
0.0352965
0.0316955
0.0351476
0.0617693
0.0670495
0.0370392
0.0312067
0.0374124
0.052338
0.0758253
0.0659118
0.0359104
0.0322567
0.0364138
0.0482121
0.0744854
0.0638253
0.0336896
0.0316398
0.0355254
0.0468165
0.0720511
0.0627789
0.0336529
0.0313821
0.0350034
0.046408
0.0706754
0.0615077
0.0348843
0.0313118
0.0310109
0.0371897
0.0671669
0.0757484
0.0528404
0.03753
0.032
0.0361113
0.0658726
0.0748097
0.0485071
0.0363284
0.0313715
0.033443
0.0641466
0.0720456
0.0464425
0.0353584
0.0309388
0.0332333
0.062326
0.070281
0.046098
0.0345223
0.030732
0.0343338
0.0610206
0.0662279
0.0361391
0.03026
0.0365811
0.0512732
0.074196
0.0642835
0.0350794
0.0313259
0.0358005
0.0478435
0.0734205
0.0633154
0.0333523
0.031031
0.0350589
0.0461284
0.0713758
0.0619859
0.0330442
0.0307984
0.0345358
0.0459481
0.0699419
0.0609456
0.0344428
0.0306782
0.0303734
0.0365477
0.0663793
0.0746265
0.0518453
0.0370418
0.0315002
0.0355439
0.0645327
0.0730337
0.0477564
0.0359038
0.0308223
0.0333293
0.0626691
0.0705963
0.0460071
0.0346046
0.0303225
0.0339682
0.0610134
0.0659728
0.0354936
0.0298723
0.0366653
0.0517205
0.0743543
0.0641717
0.0352022
0.0310168
0.0357143
0.0477644
0.0729548
0.0629041
0.0331623
0.0306425
0.0347876
0.0459145
0.0709698
0.0614594
0.0326669
0.0303656
0.0341868
0.0456303
0.069393
0.0602798
0.03399
0.0301543
0.0298992
0.036088
0.0655054
0.0737162
0.0514752
0.0367103
0.0310781
0.0353572
0.0636013
0.0720243
0.0473213
0.0355943
0.0304921
0.0330605
0.0619547
0.0697625
0.0456894
0.0343113
0.0299456
0.0335835
0.0596985
0.0648418
0.0354613
0.0296181
0.036561
0.0512006
0.0738016
0.0641189
0.0350919
0.0309331
0.0356432
0.0475873
0.0726329
0.0625528
0.0332804
0.0304898
0.0344922
0.0460522
0.070366
0.0609006
0.0338919
0.0300662
0.0298545
0.0360141
0.0660856
0.0742385
0.0518102
0.0368621
0.0309638
0.0354942
0.0637653
0.0720441
0.047772
0.0354859
0.0302102
0.0341067
0.0617355
0.0668148
0.035828
0.0298062
0.036769
0.0514907
0.074891
0.0635438
0.034685
0.0307037
0.0357087
0.0476912
0.0724045
0.0626363
0.0332925
0.0302078
0.0345926
0.0463525
0.0707681
0.0613252
0.0339135
0.0297896
0.0296277
0.0361738
0.0666587
0.0749307
0.0519588
0.0369604
0.0307169
0.0353223
0.06445
0.0727155
0.047745
0.0354156
0.0297656
0.0337807
0.0621888
0.0672639
0.0354886
0.0294255
0.0367512
0.0517828
0.0755047
0.0644146
0.0348144
0.0304213
0.0351312
0.0474028
0.0724552
0.0613664
0.0335858
0.0293712
0.0291621
0.0356908
0.0669341
0.0762128
0.0524178
0.0370596
0.0305324
0.0351038
0.0652021
0.0736228
0.0482355
0.035576
0.0294997
0.0338198
0.0627365
0.0679532
0.0356931
0.0292389
0.0369424
0.0523334
0.0762257
0.065
0.0348972
0.0302449
0.0353097
0.0478516
0.0732755
0.0623701
0.0335526
0.0292289
0.028902
0.0353205
0.0674757
0.0757172
0.0518166
0.0365426
0.0298199
0.0337142
0.0629055
0.0716768
0.0472822
0.0349264
0.0287891
0.0333299
0.0617494
0.0673293
0.0352221
0.0286755
0.0365878
0.0519963
0.0760593
0.0648565
0.0346537
0.0299035
0.0349736
0.047538
0.0730298
0.0622726
0.0332994
0.0289196
0.0286784
0.0351715
0.0673094
0.0754869
0.0518734
0.0364476
0.0296846
0.0344124
0.0640553
0.0719061
0.0470499
0.0345531
0.0283629
0.0326485
0.0602978
0.0642631
0.0334044
0.0278581
0.0352338
0.0505115
0.0730054
0.0629407
0.0342892
0.0288084
0.028674
0.0357858
0.068439
0.077161
0.0526867
0.0369843
0.0299017
0.03477
0.0654534
0.0733667
0.0476679
0.0350553
0.0285451
0.0329325
0.0621731
0.066804
0.0346525
0.0282734
0.035718
0.051303
0.074586
0.063144
0.0345858
0.0288473
0.0282234
0.0346185
0.0672276
0.0753355
0.0513804
0.0358093
0.0285711
0.0343145
0.0637365
0.0693223
0.0353401
0.0283424
0.036978
0.0529845
0.0783485
0.0660185
0.0345425
0.0296067
0.0349893
0.0478778
0.0738049
0.0621134
0.0327329
0.0282142
0.0279346
0.0343375
0.0664734
0.0738856
0.0509242
0.0353183
0.0283356
0.0340713
0.0620988
0.0657507
0.0338008
0.0276799
0.0350239
0.0501509
0.0735989
0.0622757
0.033515
0.0279423
0.0277778
0.0346893
0.0676492
0.0763988
0.0519528
0.0358399
0.0284886
0.0345145
0.0642436
0.0687571
0.0351625
0.0281605
0.0359528
0.0518655
0.0764194
0.0637684
0.0341787
0.0283237
0.0277818
0.0345579
0.0677396
0.0747105
0.0505262
0.0351542
0.0275265
0.0330127
0.0617476
0.0661128
0.0359694
0.0276631
0.0278524
0.0378878
0.0723759
0.0813339
0.0547607
0.037288
0.0285497
0.035175
0.0673345
0.071645
0.03532
0.0280291
0.0359382
0.0523583
0.0790853
0.0643996
0.0334507
0.0275031
0.0268828
0.03432
0.0663781
0.0706818
0.0359389
0.0266769
0.0361603
0.053807
0.0802718
0.0669194
0.0341171
0.0274244
0.0276215
0.0367123
0.0711434
0.0763716
0.0382312
0.0277037
0.0370891
0.0554185
0.0832624
0.0657203
0.0339088
0.027428
0.0267051
0.0348527
0.0684869
0.0733164
0.0362594
0.0264311
0.0358545
0.0539795
0.0830413
0.0680997
0.0338054
0.026762
0.0262334
0.0333068
0.0715678
0.0766521
0.0394044
0.0269367
0.0259713
0.035342
0.0769081
0.085236
0.0557091
0.0364301
0.0265141
0.0339502
0.0698792
0.074995
0.0347729
0.0262639
0.0263617
0.0385118
0.0788752
0.0818498
0.0361954
0.0254516
0.0259662
0.0406566
0.0852339
0.0893687
0.0401223
0.0252367
0.0365725
0.0586877
0.0981454
0.0728433
0.0339799
0.0257301
0.0252769
0.0338389
0.0748798
0.0797553
0.0377889
0.0252934
0.0252384
0.0382824
0.0859033
0.0916009
0.0397479
0.0255057
0.0260283
0.0424374
0.0961679
0.101072
0.0447824
0.0266066
0.0271924
0.0470203
0.104859
0.106842
0.0493922
0.0277731
0.0282891
0.0514197
0.108028
0.108739
0.0536659
0.0288903
0.0294716
0.0558822
0.109132
0.109288
0.0584174
0.030262
0.0309594
0.0608943
0.109342
0.109338
0.0633386
0.031955
0.0328002
0.0657394
0.109306
0.109274
0.0680996
0.03396
0.0349479
0.0704055
0.109238
0.10922
0.0726471
0.0362421
0.0374791
0.0746954
0.109207
0.109214
0.0766731
0.0389983
0.0403977
0.0784794
0.109229
0.109263
0.0802422
0.0420153
0.043404
0.0819195
0.109311
0.109382
0.0835482
0.0450075
0.0463883
0.0850923
0.109464
0.109566
0.0865917
0.047989
0.0493799
0.0880034
0.109674
0.109797
0.0893605
0.0509904
0.0523943
0.0906183
0.109921
0.110056
0.0918156
0.0540037
0.0554077
0.0929107
0.110189
0.110326
0.0939485
0.0570096
0.0583977
0.0948843
0.110454
0.110583
0.095765
0.0599806
0.0613161
0.0965573
0.110699
0.110815
0.0973051
0.0628189
0.0640774
0.0979687
0.110914
0.111011
0.0985909
0.0654899
0.0666611
0.0991355
0.111092
0.111168
0.0996416
0.0679733
0.0690437
0.10008
0.111229
0.111283
0.100477
0.0702461
0.0712074
0.100831
0.111322
0.11136
0.101153
0.0722968
0.0731459
0.10141
0.11138
0.111395
0.101668
0.0741172
0.074857
0.101849
0.111399
0.111399
0.102042
0.0757167
0.0763556
0.102164
0.11139
0.111376
0.1023
0.0771106
0.0776568
0.102373
0.111357
0.111331
0.10246
0.0783141
0.0787755
0.102494
0.111304
0.111269
0.102538
0.0793397
0.0797222
0.10254
0.111235
0.111191
0.10255
0.0802019
0.0805177
0.102527
0.111153
0.111102
0.102509
0.0809187
0.0811779
0.102467
0.11106
0.111005
0.102425
0.0815082
0.0817218
0.102369
0.11096
0.110901
0.102307
0.081986
0.082161
0.102238
0.110853
0.110794
0.102163
0.082369
0.0825124
0.102087
0.110746
0.110687
0.102003
0.0826665
0.0827841
0.101918
0.110638
0.110581
0.10183
0.0829034
0.0829923
0.101741
0.110533
0.110476
0.101651
0.0830897
0.083151
0.101558
0.110428
0.110374
0.10147
0.0832267
0.0832573
0.101377
0.110328
0.110275
0.101289
0.0833154
0.0833231
0.101195
0.11023
0.11018
0.101108
0.0833684
0.0833602
0.101016
0.110138
0.110088
0.100928
0.0833948
0.0833753
0.100838
0.110047
0.11
0.10075
0.0834027
0.0833779
0.100665
0.109962
0.109916
0.100578
0.0833974
0.0833704
0.100498
0.109879
0.109835
0.100412
0.083385
0.0833616
0.100338
0.109803
0.10976
0.100254
0.0833708
0.0833487
0.100186
0.109729
0.109689
0.100106
0.0833577
0.0833384
0.100044
0.109661
0.109624
0.0999689
0.0833469
0.08333
0.0999119
0.109597
0.109561
0.0998418
0.0833394
0.0833276
0.0997911
0.109538
0.109505
0.0997274
0.083339
0.0833312
0.0996824
0.109484
0.109453
0.0996239
0.0833443
0.0833415
0.0995845
0.109435
0.109405
0.0995317
0.0833571
0.0833586
0.0994976
0.109389
0.109362
0.0994499
0.0833764
0.083383
0.0994211
0.109348
0.109324
0.0993786
0.0834033
0.0834142
0.0993545
0.109311
0.109289
0.0993166
0.0834367
0.0834521
0.0992968
0.109277
0.109258
0.0992633
0.0834775
0.0834954
0.0992468
0.109246
0.109229
0.0992167
0.083522
0.0835443
0.0992032
0.109218
0.109203
0.0991768
0.0835719
0.0835971
0.0991652
0.109192
0.10918
0.0991426
0.0836252
0.0836536
0.0991322
0.109168
0.109158
0.0991136
0.0836822
0.0837126
0.099104
0.109147
0.109136
0.0990887
0.0837414
0.083774
0.09908
0.109128
0.109117
0.0990679
0.0838031
0.0838368
0.0990596
0.10911
0.109099
0.0990507
0.0838656
0.0839008
0.0990434
0.109094
0.109083
0.0990361
0.0839291
0.0839647
0.0990295
0.109079
0.109068
0.0990222
0.0839923
0.0840284
0.0990176
0.109065
0.109055
0.0990106
0.0840553
0.0840911
0.0990075
0.109051
0.109042
0.0990004
0.0841171
0.0841529
0.0989988
0.109039
0.10903
0.098992
0.084178
0.0842131
0.0989914
0.109028
0.109019
0.0989844
0.0842372
0.0842718
0.098985
0.109017
0.109008
0.098978
0.084295
0.0843288
0.0989794
0.109007
0.108998
0.0989722
0.0843509
0.0843837
0.0989743
0.108997
0.108988
0.0989668
0.0844048
0.0844362
0.0989692
0.108987
0.108978
0.0989612
0.0844559
0.0844858
0.0989637
0.108977
0.108969
0.0989552
0.0845042