/*--------------------------------*- C++ -*----------------------------------*\
| =========                 |                                                 |
| \\      /  F ield         | OpenFOAM: The Open Source CFD Toolbox           |
|  \\    /   O peration     | Version:  v2006                                 |
|   \\  /    A nd           | Website:  www.openfoam.com                      |
|    \\/     M anipulation  |                                                 |
\*---------------------------------------------------------------------------*/
FoamFile
{
    version     2.0;
    format      ascii;
    class       volScalarField;
    location    "0.121";
    object      yPlus;
}
// * * * * * * * * * * * * * * * * * * * * * * * * * * * * * * * * * * * * * //

dimensions      [0 0 0 0 0 0 0];


internalField   uniform 0;

boundaryField
{
    bottomEmptyFaces
    {
        type            empty;
    }
    topEmptyFaces
    {
        type            empty;
    }
    inlet
    {
        type            calculated;
        value           uniform 0;
    }
    outlet
    {
        type            calculated;
        value           uniform 0;
    }
    walls
    {
        type            calculated;
        value           nonuniform List<scalar> 
1055
(
30.3847
29.6447
28.966
28.3431
27.7805
27.2716
26.8166
26.4056
26.0388
25.7121
25.4264
25.1754
24.9576
24.7658
24.6006
24.4573
24.3377
24.2361
24.1527
24.0826
24.0262
23.9784
23.9411
23.9095
23.8866
23.8677
23.8548
23.8448
23.8391
23.8349
23.8345
23.8338
23.836
23.8389
23.8425
23.8468
23.8507
23.855
23.8579
23.8615
23.863
23.8654
23.8651
23.866
23.8637
23.8632
23.8589
23.857
23.8516
23.8487
23.8424
23.8385
23.8315
23.8267
23.819
23.8133
23.8052
23.799
23.7907
23.7842
23.7759
23.7694
23.7611
23.7545
23.7462
23.7397
23.7313
23.7248
23.7164
23.71
23.7019
23.6955
23.6875
23.6814
23.6737
23.668
23.6605
23.6554
23.6485
23.6439
23.6376
23.6337
23.6279
23.6248
23.6196
23.6173
23.6127
23.6112
23.6074
23.6066
23.6038
23.6035
23.6018
23.602
23.6013
23.602
23.6024
23.6036
23.6051
23.6067
23.609
23.6114
23.6141
23.6174
23.6206
23.6247
23.6283
23.6331
23.6373
23.6426
23.6473
23.653
23.6581
23.6644
23.6698
23.6765
23.6823
23.6893
23.6955
23.7028
23.7092
23.7168
23.7235
23.7314
23.7383
23.7464
23.7536
23.7619
23.7692
23.7777
23.7853
23.794
23.8017
23.8105
23.8184
23.8273
23.8353
23.8443
23.8524
23.8615
23.8696
23.8787
23.8869
23.8959
23.9041
23.9133
23.9214
23.9305
23.9387
23.9476
23.9558
23.9648
23.973
23.9819
23.99
23.9989
24.007
24.0159
24.0239
24.0328
24.0409
24.0497
24.0578
24.0667
24.0747
24.0836
24.0916
24.1006
24.1086
24.1176
24.1256
24.1346
24.1425
24.1516
24.1594
24.1683
24.176
24.1849
24.1923
24.2011
24.2081
24.2251
24.224
24.2246
24.2391
24.2483
24.2538
24.2799
24.2888
24.3165
24.276
24.216
23.9993
24.1583
24.5678
8.47357
7.16283
6.52945
11.401
10.5642
9.68444
7.98127
18.2615
13.3593
11.5841
11.4899
12.725
9.40878
7.99538
12.497
11.385
13.6572
13.6326
10.7297
9.2134
9.76812
9.65879
8.53127
7.37317
10.1223
9.92003
8.8486
7.48226
9.12181
7.61603
8.61694
7.39044
9.60242
10.094
8.55591
7.40536
8.36862
7.30101
8.34188
7.24496
6.5078
10.4459
10.9348
9.72913
10.6113
9.49109
10.4092
9.21936
9.97616
9.25712
10.1287
10.1278
10.5469
9.32211
10.2151
11.5668
8.4575
8.83536
8.99428
9.74872
10.3292
10.7745
11.8862
8.63126
9.06423
9.5827
10.3817
8.35873
9.02258
10.0148
7.34996
7.64254
8.80125
9.06902
10.1728
7.45565
7.78258
8.02525
8.50582
9.16361
9.5347
8.14867
8.70145
8.42123
9.13235
8.67088
9.39967
8.34344
8.92528
10.7661
9.39477
9.77278
7.79301
8.1883
10.5546
7.69701
8.08649
10.4351
9.10281
9.40522
8.29529
9.01569
7.97166
8.55855
7.5159
7.88846
9.88459
10.292
11.395
8.30514
8.7285
8.85592
9.74157
11.0386
8.00605
8.3906
8.6772
9.29936
9.12824
9.94473
9.63891
10.0994
8.97836
9.74309
8.64975
9.53183
8.51715
9.18109
9.45875
9.8286
10.8746
7.95318
8.28923
8.66483
9.40652
9.13657
9.98355
8.82371
9.6012
8.67777
9.09399
7.86137
7.69877
7.32355
7.03388
9.56781
7.42612
7.85173
8.34311
8.52268
9.45588
6.95382
7.17822
8.38596
8.59144
9.72585
7.12586
7.42828
7.60028
8.03142
8.15589
8.25924
7.03168
7.25201
7.9742
7.98301
7.81494
7.80034
9.16593
6.85145
7.01372
9.21149
7.87142
7.93472
6.79565
7.01224
9.06102
7.34979
7.02766
9.00199
7.76861
7.70771
8.68877
6.61607
6.67404
7.82115
7.75192
6.6977
6.73296
6.69996
6.83337
9.26541
7.97915
8.0535
9.28306
6.94515
7.11626
6.80858
7.0627
8.98528
8.80134
7.39891
6.96622
8.30921
7.01875
6.56342
8.38527
7.09322
6.51127
8.42086
7.16987
6.58101
8.33554
6.98223
6.45572
8.07644
6.42983
6.25291
8.28188
6.85701
6.45509
7.7673
7.40003
8.40043
7.72764
7.52654
6.54723
6.48809
8.71297
8.66236
7.27609
6.87027
7.37564
6.93064
7.12049
6.82023
8.95292
7.20956
6.91785
8.5673
6.66153
6.69631
8.73055
8.95217
10.0695
7.40529
7.69654
9.90579
7.18496
7.50287
8.58674
8.83159
7.77928
8.28925
7.86207
8.33674
8.71693
9.03995
8.05127
8.58217
13.2264
11.3567
8.6527
11.2588
8.33645
11.6922
9.7205
7.00553
10.6696
10.3553
7.15702
12.2619
9.99319
26.1812
24.6367
8.23364
8.80777
6.13361
25.2721
21.2093
21.2211
20.3871
10.3717
20.1341
8.85404
25.4122
7.7169
20.6581
8.9284
6.12607
20.1177
21.4473
20.9084
10.7002
9.58056
8.42359
7.4056
8.29216
5.96245
28.0664
26.4989
21.8424
21.3868
22.1035
21.5473
25.082
22.0502
20.8983
27.1486
23.3413
22.4374
9.99492
8.99173
8.45623
7.9712
7.32288
8.50328
6.04977
10.5097
9.68168
9.12745
8.6084
8.21754
7.66608
6.93856
7.83602
5.73585
9.68932
8.92896
8.48784
8.12605
7.81814
7.5177
7.26705
7.04831
6.92154
6.77559
6.40701
7.78
5.38222
9.81948
9.27524
8.96445
8.79512
8.59646
13.9722
8.37596
8.20301
8.06601
7.91543
7.82087
10.9693
12.0127
7.67832
12.0597
12.5051
10.3949
11.2275
13.466
11.6647
12.1895
9.71663
10.2699
10.6814
11.7129
7.58694
7.54771
7.42852
7.30476
7.21148
7.12925
7.05571
6.9978
14.7326
10.5725
11.1479
12.6073
13.1679
11.5916
12.7119
6.95101
6.91475
6.88293
6.86149
6.8378
6.81771
6.80652
6.79609
13.5673
14.1769
12.3914
13.4771
6.78948
6.77835
6.77493
6.77415
6.76884
6.76363
6.76201
6.75967
13.8202
14.2647
13.2356
14.3602
12.576
13.5816
16.1081
11.6522
12.3128
6.75308
15.7943
6.74673
6.74491
11.3735
12.0107
6.73992
6.73735
12.2971
13.1819
6.72777
6.72442
6.71853
15.2129
11.8307
12.911
13.0779
13.6077
11.8325
12.8095
10.9896
11.5758
11.3978
12.3176
11.3045
12.3156
12.184
12.6654
11.0824
12.1957
14.1246
10.2118
10.7334
10.902
11.786
14.4246
11.15
12.0545
10.4131
11.0207
12.3968
12.9371
10.7971
11.6684
10.1704
10.6942
19.2136
14.3651
14.9456
6.71378
6.70314
6.69808
6.69394
20.7037
6.68365
6.67425
6.66803
20.0032
6.66323
14.5152
15.4518
17.3444
17.4041
19.8358
16.8733
17.2494
14.6187
15.3359
16.7129
16.9843
6.65272
6.64353
6.63723
6.63215
6.62142
6.61143
6.60444
6.5989
6.58851
6.57897
6.57252
6.56709
6.55658
6.54686
6.54057
15.4311
6.53501
15.7222
16.2556
16.784
14.4235
15.4052
18.2089
13.1203
13.9288
6.52477
6.51504
6.50903
6.50386
6.49402
6.48441
6.47918
6.47162
17.4715
13.9968
14.9632
12.9036
13.6404
13.345
14.2735
17.1144
14.6564
15.2163
12.2373
13.0337
14.8207
15.4535
18.3944
15.7153
16.208
13.3009
14.0602
19.2375
19.0442
13.9723
14.6177
16.2878
16.4968
16.1439
16.6176
6.46627
14.1373
6.45488
14.8885
6.44983
6.44285
6.43834
6.42707
6.42217
6.41502
21.3886
6.41021
6.39922
15.9079
16.6094
6.39464
6.38761
6.3829
6.37267
6.36822
22.1796
6.3647
21.9229
18.1284
17.893
18.7032
18.8942
19.8159
19.9225
23.5397
6.35604
18.8562
6.35066
18.6982
6.3425
6.34108
6.3333
22.7566
6.32796
6.32299
18.7446
18.4335
6.31567
22.9563
17.8888
18.4306
16.8351
17.4194
18.0634
18.3292
15.5085
16.1777
6.31409
6.30782
6.31109
6.37427
6.41731
6.51619
6.77819
7.12859
29.3158
25.9508
30.2558
23.7605
22.1052
29.9652
27.2287
26.9193
23.2821
22.2018
9.90998
10.7737
33.5926
31.8665
30.8296
32.9233
25.56
23.481
30.9842
26.6914
25.5154
23.0054
12.535
30.4947
9.97858
10.9119
10.85
11.2693
29.0132
35.4521
27.5566
25.54
10.2513
11.2106
10.037
11.0045
35.5388
12.8082
11.1215
11.5917
9.30355
9.76842
36.2714
9.78953
10.5691
9.11852
9.58281
36.787
36.7471
36.8401
36.4866
35.7331
13.1601
34.8308
10.7568
11.7107
10.4427
11.4905
10.2447
11.0513
9.50906
10.0344
10.4132
11.3898
11.3344
11.7761
10.2221
11.1394
33.9043
32.9674
32.0522
31.1879
9.60862
10.552
12.0015
8.75213
9.13677
9.32515
10.0942
9.77635
10.7232
25.0503
7.57411
36.471
33.1929
31.0012
29.531
28.4213
27.3887
26.6569
25.9466
25.5499
25.0744
24.7909
24.4221
24.2085
23.9079
23.7399
23.4854
23.3473
23.1238
23.0058
22.8044
22.7008
22.5154
22.422
22.2482
22.162
21.9971
21.9162
21.7582
21.6813
21.5286
21.4547
21.3063
21.2346
21.0897
21.0196
20.8774
20.8086
20.6687
20.6008
20.4626
20.3953
20.2584
20.1915
20.0554
19.9885
19.8529
19.7858
19.6501
19.5825
19.4464
19.3781
19.2412
19.1719
19.0339
18.9633
18.8238
18.7518
18.6105
18.5369
18.3934
18.3181
18.1723
18.095
17.9467
17.8675
17.7164
17.6355
17.4816
17.3989
17.2423
17.158
16.9988
16.9132
16.7517
16.6652
16.5017
16.4149
16.2501
16.1639
15.9987
15.9141
15.7497
15.6681
15.5061
15.4291
15.2713
15.2012
15.0498
14.9891
14.8466
14.7989
14.6689
14.6359
14.5253
14.507
14.4189
14.4165
14.3585
14.3688
14.3439
14.3666
14.3591
14.4107
14.4189
14.4977
14.5217
14.6234
14.6591
14.7763
14.8204
14.9481
14.9985
15.1337
15.1881
15.3275
15.3834
15.523
15.5785
15.7153
15.7687
15.8997
15.9497
16.0725
16.1179
16.2308
16.271
16.3723
16.4065
16.495
16.5228
16.5983
16.6196
16.6823
16.6974
16.7484
16.758
16.7981
16.8028
16.8341
16.8347
16.8569
16.8549
16.8708
16.8665
16.8766
16.8703
16.8765
16.8673
16.8713
16.859
16.8627
16.8463
16.8483
16.83
16.8325
16.8125
16.8139
16.7936
16.7942
16.7722
16.7733
16.751
16.7512
16.7277
16.7292
16.701
16.7073
16.6757
16.6847
16.6399
16.7148
16.7427
16.9449
17.2276
18.2724
20.9124
18.9412
39.9397
)
;
    }
    rightWall
    {
        type            calculated;
        value           uniform 0;
    }
    symmetryLine
    {
        type            symmetryPlane;
    }
}


// ************************************************************************* //
