/*--------------------------------*- C++ -*----------------------------------*\
| =========                 |                                                 |
| \\      /  F ield         | OpenFOAM: The Open Source CFD Toolbox           |
|  \\    /   O peration     | Version:  v2006                                 |
|   \\  /    A nd           | Website:  www.openfoam.com                      |
|    \\/     M anipulation  |                                                 |
\*---------------------------------------------------------------------------*/
FoamFile
{
    version     2.0;
    format      ascii;
    class       surfaceScalarField;
    location    "0.063";
    object      phi;
}
// * * * * * * * * * * * * * * * * * * * * * * * * * * * * * * * * * * * * * //

dimensions      [1 0 -1 0 0 0 0];
oriented        oriented;


internalField   nonuniform List<scalar> 
32242
(
-2.61649e-05
-0.00135439
0.00133511
4.55343e-05
-0.00127012
0.0012439
8.34979e-06
7.77079e-05
-3.49232e-06
0.00146284
3.80333e-05
0.00159993
-3.29018e-05
0.00165139
-3.66428e-06
0.00169139
-1.63717e-05
0.00168406
-2.32834e-06
0.00168002
-2.43034e-06
0.00166947
-4.48229e-07
0.00166257
-1.01659e-06
0.00165676
-1.15424e-06
0.0016531
-1.27993e-06
0.00164974
-1.48014e-06
0.00164692
-1.5105e-06
0.00164385
-1.61888e-06
0.00164092
-1.7233e-06
0.00163777
-1.82374e-06
0.0016345
-1.92023e-06
0.00163109
-2.01295e-06
0.00162755
-2.10222e-06
0.00162388
-2.18845e-06
0.00162008
-2.27199e-06
0.00161616
-2.35313e-06
0.00161211
-2.43205e-06
0.00160794
-2.50888e-06
0.00160365
-2.58364e-06
0.00159924
-2.65632e-06
0.00159472
-2.72684e-06
0.00159008
-2.79512e-06
0.00158533
-2.86106e-06
0.00158047
-2.92452e-06
0.00157551
-2.98537e-06
0.00157045
-3.04349e-06
0.0015653
-3.09873e-06
0.00156005
-3.15095e-06
0.00155473
-3.2e-06
0.00154932
-3.24578e-06
0.00154383
-3.28816e-06
0.00153827
-3.32701e-06
0.00153265
-3.36223e-06
0.00152698
-3.3937e-06
0.00152124
-3.42132e-06
0.00151546
-3.44498e-06
0.00150964
-3.4646e-06
0.00150378
-3.48009e-06
0.0014979
-3.49136e-06
0.00149199
-3.49832e-06
0.00148606
-3.50091e-06
0.00148013
-3.49907e-06
0.00147419
-3.49276e-06
0.00146826
-3.48202e-06
0.00146234
-3.46668e-06
0.00145643
-3.44521e-06
0.00145056
-3.42001e-06
0.00144471
-3.39051e-06
0.0014389
-3.35617e-06
0.00143315
-3.31709e-06
0.00142744
-3.27324e-06
0.0014218
-3.22464e-06
0.00141622
-3.17133e-06
0.00141073
-3.11331e-06
0.00140531
-3.05062e-06
0.00139999
-2.98328e-06
0.00139476
-2.91127e-06
0.00138964
-2.83456e-06
0.00138462
-2.75301e-06
0.00137973
-2.66641e-06
0.00137496
-2.57446e-06
0.00137031
-2.47682e-06
0.0013658
-2.37315e-06
0.00136144
-2.26323e-06
0.00135722
-2.14695e-06
0.00135316
-2.02405e-06
0.00134927
-1.8933e-06
0.00134552
-1.75122e-06
0.00134191
-9.21935e-07
0.00133773
-1.39988e-06
0.00133426
-1.16973e-06
0.00132817
-2.89535e-06
0.00131955
-4.61645e-06
0.00130742
-1.96294e-05
0.00128696
-3.00953e-05
0.00126105
-8.36235e-05
0.00122473
-0.000143177
0.00120263
-0.000328503
0.00121428
-0.000736198
0.00140183
-0.000202563
0.000361197
2.04325e-05
0.000599542
4.44667e-06
0.000786409
-3.85986e-05
0.000696039
-1.24937e-05
0.000609996
-7.50924e-06
0.000220539
-4.58125e-06
0.000183625
0.000148435
8.5264e-06
0.000139909
1.73475e-05
0.000174804
0.000210944
2.69429e-05
-1.36292e-05
0.000203716
2.08567e-05
-6.80518e-06
0.00016798
0.000133104
2.50444e-06
0.000130599
4.12779e-06
0.000166357
0.000202481
5.36308e-06
-4.65158e-06
0.000200396
6.73662e-06
-2.87151e-06
0.000164577
0.000127728
1.54676e-06
0.000126181
2.02867e-06
0.000164095
0.000200281
2.14361e-06
-4.45898e-06
0.000198717
6.02264e-06
-2.60027e-06
0.000162236
0.000123581
1.2691e-06
0.000122312
1.14652e-06
0.000162359
0.000198482
1.38154e-06
-3.62735e-06
0.000197499
4.6106e-06
-1.77609e-06
0.000160507
0.000120536
4.71941e-07
0.000120064
3.54589e-07
0.000160625
0.00019786
-6.26051e-09
-2.83714e-06
0.00019616
4.53633e-06
-1.60636e-06
0.000159394
0.000118457
3.42452e-07
0.000118115
2.39686e-07
0.000159497
0.000196461
-6.07162e-08
-2.71694e-06
0.000195374
3.80386e-06
-1.48145e-06
0.000158261
0.000116633
2.51183e-07
0.000116382
1.48014e-07
0.000158364
0.00019564
-1.18434e-07
-2.62296e-06
0.000194523
3.74034e-06
-1.38807e-06
0.000157129
0.000114994
1.8339e-07
0.000114811
8.27114e-08
0.00015723
0.000194759
-1.53461e-07
-2.54962e-06
0.000193618
3.6907e-06
-1.31737e-06
0.000155998
0.000113493
1.32271e-07
0.000113361
2.7363e-08
0.000156103
0.000193833
-1.87632e-07
-2.48673e-06
0.000192676
3.6434e-06
-1.26182e-06
0.000154878
0.000112099
9.25921e-08
0.000112007
-1.27068e-08
0.000154983
0.000192873
-2.09126e-07
-2.43705e-06
0.000191704
3.60575e-06
-1.22105e-06
0.000153767
0.000110785
6.112e-08
0.000110724
-4.21926e-08
0.00015387
0.000191884
-2.22143e-07
-2.39751e-06
0.000190702
3.5796e-06
-1.18739e-06
0.00015266
0.000109537
3.88182e-08
0.000109498
-6.1626e-08
0.000152761
0.000190868
-2.27495e-07
-2.36733e-06
0.000189674
3.56129e-06
-1.16011e-06
0.000151553
0.000108338
2.28579e-08
0.000108315
-7.47189e-08
0.000151651
0.000189826
-2.26394e-07
-2.34309e-06
0.00018862
3.54831e-06
-1.13781e-06
0.000150446
0.000107178
1.16333e-08
0.000107166
-8.11834e-08
0.000150539
0.000188757
-2.18073e-07
-2.32497e-06
0.000187541
3.54187e-06
-1.11993e-06
0.000149334
0.000106046
4.39084e-09
0.000106042
-8.17565e-08
0.00014942
0.000187662
-2.02917e-07
-2.31215e-06
0.000186433
3.54137e-06
-1.10574e-06
0.000148214
0.000104936
4.72352e-10
0.000104936
-7.72251e-08
0.000148291
0.000186537
-1.81621e-07
-2.30383e-06
0.000185295
3.54616e-06
-1.0946e-06
0.000147082
0.000103841
-1.14231e-09
0.000103842
-6.88959e-08
0.00014715
0.000185382
-1.55908e-07
-2.29901e-06
0.000184126
3.555e-06
-1.08599e-06
0.000145937
0.000102756
-4.25204e-10
0.000102757
-5.70064e-08
0.000145994
0.000184195
-1.25736e-07
-2.29727e-06
0.000182924
3.56772e-06
-1.07929e-06
0.000144776
0.000101677
2.09785e-09
0.000101675
-4.17757e-08
0.00014482
0.000182974
-9.11148e-08
-2.29849e-06
0.000181688
3.58437e-06
-1.07439e-06
0.000143595
0.000100601
6.35153e-09
0.000100595
-2.32999e-08
0.000143625
0.000181717
-5.19955e-08
-2.3026e-06
0.000180414
3.6051e-06
-1.07118e-06
0.000142394
9.95235e-05
1.19609e-08
9.95115e-05
-2.41747e-09
0.000142408
0.000180421
-9.71876e-09
-2.30851e-06
0.000179102
3.628e-06
-1.06922e-06
0.000141169
9.84423e-05
1.98557e-08
9.84224e-05
2.25714e-08
0.000141166
0.000179085
3.92626e-08
-2.31631e-06
0.000177748
3.65298e-06
-1.06833e-06
0.000139918
9.7354e-05
2.92156e-08
9.73247e-05
5.0402e-08
0.000139897
0.000177706
9.24538e-08
-2.32664e-06
0.000176351
3.68155e-06
-1.06877e-06
0.000138639
9.62559e-05
3.99955e-08
9.62159e-05
8.10589e-08
0.000138598
0.000176282
1.4978e-07
-2.33941e-06
0.000174908
3.71368e-06
-1.0705e-06
0.000137329
9.51453e-05
5.22313e-08
9.5093e-05
1.14614e-07
0.000137266
0.000174811
2.11449e-07
-2.35452e-06
0.000173416
3.74919e-06
-1.07345e-06
0.000135985
9.40195e-05
6.58885e-08
9.39536e-05
1.51015e-07
0.0001359
0.00017329
2.7745e-07
-2.37183e-06
0.000171874
3.78795e-06
-1.07755e-06
0.000134606
9.2876e-05
8.09015e-08
9.2795e-05
1.90156e-07
0.000134496
0.000171716
3.47676e-07
-2.39119e-06
0.000170277
3.82971e-06
-1.08269e-06
0.000133188
9.17123e-05
9.71788e-08
9.16151e-05
2.31874e-07
0.000133053
0.000170087
4.21913e-07
-2.41237e-06
0.000168626
3.87414e-06
-1.08876e-06
0.000131729
9.05263e-05
1.14602e-07
9.04117e-05
2.7595e-07
0.000131568
0.000168402
4.99852e-07
-2.4351e-06
0.000166916
3.92089e-06
-1.09561e-06
0.000130229
8.93161e-05
1.33043e-07
8.91831e-05
3.2214e-07
0.000130039
0.000166657
5.81038e-07
-2.45891e-06
0.000165147
3.96929e-06
-1.10303e-06
0.000128684
8.80801e-05
1.52257e-07
8.79278e-05
3.69962e-07
0.000128466
0.000164852
6.64801e-07
-2.48335e-06
0.000163316
4.01863e-06
-1.11078e-06
0.000127093
8.68171e-05
1.71962e-07
8.66451e-05
4.18825e-07
0.000126846
0.000162985
7.50222e-07
-2.50758e-06
0.000161425
4.06769e-06
-1.11845e-06
0.000125457
8.55266e-05
1.91673e-07
8.53349e-05
4.67762e-07
0.000125181
0.000161057
8.35858e-07
-2.53054e-06
0.000159472
4.11485e-06
-1.12549e-06
0.000123776
8.42093e-05
2.1075e-07
8.39984e-05
5.15511e-07
0.000123471
0.000159068
9.19745e-07
-2.55101e-06
0.00015746
4.1581e-06
-1.13139e-06
0.000122051
8.28669e-05
2.28718e-07
8.2638e-05
5.60809e-07
0.000121719
0.000157021
9.99762e-07
-2.56767e-06
0.000155393
4.1953e-06
-1.13559e-06
0.000120287
8.15022e-05
2.44837e-07
8.12572e-05
6.02105e-07
0.000119929
0.000154922
1.07344e-06
-2.57886e-06
0.000153277
4.2238e-06
-1.13729e-06
0.000118487
8.01198e-05
2.58187e-07
7.98615e-05
6.37415e-07
0.000118108
0.000152776
1.13761e-06
-2.58246e-06
0.000151118
4.24018e-06
-1.13553e-06
0.000116661
7.87259e-05
2.67607e-07
7.84583e-05
6.64204e-07
0.000116264
0.000150594
1.18821e-06
-2.57582e-06
0.00014893
4.2402e-06
-1.12911e-06
0.000114818
7.73291e-05
2.71676e-07
7.70575e-05
6.79356e-07
0.00011441
0.000148389
1.22023e-06
-2.55576e-06
0.000146726
4.21877e-06
-1.11663e-06
0.000112971
7.59409e-05
2.68719e-07
7.56723e-05
6.79144e-07
0.00011256
0.000146177
1.22771e-06
-2.5186e-06
0.000144526
4.1699e-06
-1.09641e-06
0.000111138
7.4576e-05
2.56781e-07
7.43194e-05
6.59305e-07
0.000110736
0.000143982
1.20372e-06
-2.46017e-06
0.000142356
4.08673e-06
-1.06656e-06
0.000109343
7.32531e-05
2.33642e-07
7.30197e-05
6.14967e-07
0.000108962
0.000141831
1.14024e-06
-2.37562e-06
0.000140245
3.96129e-06
-1.02495e-06
0.000107611
7.19949e-05
1.96741e-07
7.17983e-05
5.40393e-07
0.000107268
0.000139758
1.02794e-06
-2.25954e-06
0.000138233
3.78477e-06
-9.6925e-07
0.000105978
7.08293e-05
1.43261e-07
7.06861e-05
4.29345e-07
0.000105692
0.000137806
8.56487e-07
-2.10672e-06
0.000136364
3.54847e-06
-8.97226e-07
0.000104482
6.9789e-05
7.1007e-08
6.97182e-05
2.76778e-07
0.000104277
0.000136024
6.17543e-07
-1.91267e-06
0.000134691
3.24589e-06
-8.05201e-07
0.000103169
6.89131e-05
-2.43894e-08
6.89376e-05
7.57884e-08
0.000103069
0.000134467
2.99826e-07
-1.66797e-06
0.000133269
2.86618e-06
-6.86999e-07
0.000102089
6.82508e-05
-1.47753e-07
6.83986e-05
-1.81617e-07
0.000102123
0.000133191
-1.03245e-07
-1.3795e-06
0.000132167
2.40364e-06
-5.534e-07
0.000101297
6.78454e-05
-2.84651e-07
6.81302e-05
-4.79062e-07
0.000101491
0.000132264
-5.76231e-07
-1.05657e-06
0.000131439
1.88222e-06
-4.06331e-07
0.000100841
6.77241e-05
-4.35504e-07
6.81598e-05
-8.11093e-07
0.000101217
0.000131739
-1.11073e-06
-7.17196e-07
0.000131125
1.33126e-06
-2.53884e-07
0.000100754
6.79062e-05
-5.90754e-07
6.84971e-05
-1.15853e-06
0.000101322
0.000131643
-1.67651e-06
-3.74162e-07
0.000131249
7.68063e-07
-1.0164e-07
0.00010105
6.83955e-05
-7.3452e-07
6.91301e-05
-1.48545e-06
0.000101801
0.00013198
-2.21641e-06
-4.12407e-08
0.000131799
2.22734e-07
5.02254e-08
0.000101709
6.91802e-05
-8.962e-07
7.00764e-05
-1.84915e-06
0.000102662
0.000132766
-2.81627e-06
3.00603e-07
0.000132808
-3.42796e-07
2.00325e-07
0.000102762
7.02765e-05
-1.05479e-06
7.13312e-05
-2.20209e-06
0.000103909
0.00013401
-3.40417e-06
5.40705e-07
0.000134236
-7.67459e-07
2.89759e-07
0.00010416
7.16208e-05
-1.14257e-06
7.27633e-05
-2.42848e-06
0.000105446
0.000135613
-3.80576e-06
6.93479e-07
0.000135972
-1.05227e-06
3.41937e-07
0.000105797
7.3105e-05
-1.18864e-06
7.42934e-05
-2.56654e-06
0.000107175
0.000137471
-4.06588e-06
7.67708e-07
0.000137917
-1.21426e-06
3.57717e-07
0.000107585
7.4651e-05
-1.20792e-06
7.58587e-05
-2.64418e-06
0.000109021
0.000139502
-4.22918e-06
7.87211e-07
0.000140002
-1.28713e-06
3.49806e-07
0.000109458
7.62083e-05
-1.20426e-06
7.74124e-05
-2.66894e-06
0.000110922
0.000141638
-4.30548e-06
7.5652e-07
0.000142158
-1.27631e-06
3.2062e-07
0.000111358
7.77329e-05
-1.17892e-06
7.89116e-05
-2.64386e-06
0.000112823
0.000143812
-4.29848e-06
6.81237e-07
0.000144321
-1.19011e-06
2.72424e-07
0.000113231
7.91839e-05
-1.13545e-06
8.03191e-05
-2.57565e-06
0.000114671
0.000145963
-4.21803e-06
5.69244e-07
0.000146434
-1.04025e-06
2.09494e-07
0.000115031
8.05284e-05
-1.0779e-06
8.16061e-05
-2.4725e-06
0.000116425
0.000148038
-4.07669e-06
4.29019e-07
0.000148449
-8.39661e-07
1.35766e-07
0.000116718
8.17417e-05
-1.00976e-06
8.27514e-05
-2.34213e-06
0.000118051
0.000149993
-3.88635e-06
2.68492e-07
0.000150325
-6.01048e-07
5.53301e-08
0.000118264
8.28068e-05
-9.36702e-07
8.37435e-05
-2.19258e-06
0.00011952
0.000151793
-3.65984e-06
9.61874e-08
0.000152034
-3.37212e-07
-2.69655e-08
0.000119643
8.37167e-05
-8.64156e-07
8.4581e-05
-2.03402e-06
0.000120813
0.000153411
-3.41087e-06
-7.98702e-08
0.000153551
-6.01707e-08
-1.0823e-07
0.000120842
8.44729e-05
-7.89345e-07
8.52624e-05
-1.87222e-06
0.000121925
0.000154832
-3.15306e-06
-2.50159e-07
0.000154873
2.10157e-07
-1.86448e-07
0.000121861
8.50761e-05
-7.17263e-07
8.57935e-05
-1.7136e-06
0.000122858
0.000156056
-2.89646e-06
-4.11622e-07
0.000155997
4.70705e-07
-2.59003e-07
0.000122705
8.55347e-05
-6.51156e-07
8.61859e-05
-1.56504e-06
0.000123619
0.000157085
-2.65263e-06
-5.58879e-07
0.000156931
7.12599e-07
-3.23377e-07
0.000123384
8.58626e-05
-5.9276e-07
8.64553e-05
-1.43069e-06
0.000124222
0.000157929
-2.42867e-06
-6.86653e-07
0.00015769
9.26077e-07
-3.77399e-07
0.000123913
8.60778e-05
-5.44349e-07
8.6622e-05
-1.31578e-06
0.000124684
0.000158608
-2.23395e-06
-7.93819e-07
0.000158293
1.10854e-06
-4.21002e-07
0.000124311
8.62009e-05
-5.05698e-07
8.67065e-05
-1.22072e-06
0.000125026
0.000159143
-2.07014e-06
-8.81007e-07
0.000158764
1.25998e-06
-4.5497e-07
0.0001246
8.62515e-05
-4.75803e-07
8.67275e-05
-1.14421e-06
0.000125268
0.000159555
-1.93603e-06
-9.49968e-07
0.000159123
1.38195e-06
-4.80584e-07
0.000124799
8.62472e-05
-4.53091e-07
8.6701e-05
-1.08383e-06
0.00012543
0.000159867
-1.82902e-06
-1.00399e-06
0.000159391
1.47788e-06
-4.99978e-07
0.000124926
8.62025e-05
-4.35122e-07
8.66401e-05
-1.0358e-06
0.000125527
0.000160096
-1.74503e-06
-1.04689e-06
0.000159585
1.55115e-06
-5.15635e-07
0.000124996
8.61288e-05
-4.18194e-07
8.65538e-05
-9.94282e-07
0.000125573
0.000160258
-1.67784e-06
-1.08087e-06
0.000159721
1.60007e-06
-5.29523e-07
0.000125022
8.60351e-05
-4.01618e-07
8.64522e-05
-9.59435e-07
0.000125581
0.000160368
-1.63125e-06
-1.1107e-06
0.00015981
1.63429e-06
-5.43557e-07
0.000125015
8.59286e-05
-3.85474e-07
8.63398e-05
-9.29418e-07
0.00012556
0.000160438
-1.59716e-06
-1.13333e-06
0.000159864
1.65797e-06
-5.54357e-07
0.000124984
8.58141e-05
-3.7144e-07
8.62202e-05
-9.07433e-07
0.000125521
0.000160478
-1.5755e-06
-1.1529e-06
0.000159889
1.67673e-06
-5.62551e-07
0.000124934
8.56955e-05
-3.61473e-07
8.60987e-05
-8.90802e-07
0.000125464
0.000160492
-1.55983e-06
-1.16538e-06
0.000159893
1.69061e-06
-5.67155e-07
0.00012487
8.55755e-05
-3.59404e-07
8.59785e-05
-8.83155e-07
0.000125395
0.000160486
-1.54555e-06
-1.16203e-06
0.000159879
1.70605e-06
-5.59946e-07
0.000124797
8.54557e-05
-3.71776e-07
8.58587e-05
-8.91786e-07
0.000125318
0.000160467
-1.52879e-06
-1.14088e-06
0.000159852
1.72716e-06
-5.38178e-07
0.000124716
8.53366e-05
-3.99638e-07
8.57398e-05
-9.17749e-07
0.000125234
0.000160436
-1.50859e-06
-1.10756e-06
0.000159817
1.75087e-06
-5.05255e-07
0.000124631
8.52192e-05
-4.33095e-07
8.56228e-05
-9.53385e-07
0.000125148
0.000160397
-1.48604e-06
-1.06982e-06
0.000159777
1.77053e-06
-4.67944e-07
0.000124544
8.51045e-05
-4.63477e-07
8.55094e-05
-9.88522e-07
0.000125061
0.000160354
-1.47072e-06
-1.04087e-06
0.000159734
1.77979e-06
-4.41202e-07
0.000124457
8.49936e-05
-4.80812e-07
8.54029e-05
-1.0087e-06
0.000124979
0.000160311
-1.46306e-06
-1.01735e-06
0.000159694
1.77176e-06
-4.23069e-07
0.000124376
8.48897e-05
-4.94945e-07
8.53045e-05
-1.02848e-06
0.000124902
0.000160274
-1.4731e-06
-1.00007e-06
0.000159672
1.7509e-06
-4.12285e-07
0.000124306
8.47975e-05
-5.27291e-07
8.52187e-05
-1.08643e-06
0.000124846
0.000160816
-2.07148e-06
-4.46989e-07
0.00015972
1.68418e-06
-3.81041e-07
0.000124788
8.47662e-05
-1.02854e-06
8.56907e-05
-1.68731e-06
0.000125422
0.000161467
-3.2925e-06
1.87217e-07
0.000161534
-2.10642e-07
1.01115e-07
0.000125517
8.57746e-05
-1.68379e-06
8.74369e-05
-4.57388e-06
0.000128401
0.000164081
-7.09024e-06
6.13315e-06
0.000168397
-1.04588e-05
2.97178e-06
0.000131555
9.0405e-05
-8.64884e-06
9.90815e-05
-1.96566e-05
0.000142579
0.000181984
-3.3257e-05
4.32954e-05
0.000211508
-7.28301e-05
1.94518e-05
0.000166411
0.000118525
3.93493e-05
9.49977e-05
0.000165983
3.99749e-05
-0.000288214
-5.72866e-05
-0.000326087
-6.18111e-05
-0.000510462
-2.49795e-05
-0.000550481
-1.59416e-05
-0.000577072
-3.1193e-06
-0.000579748
-2.5638e-06
-0.000584684
-2.04213e-07
-0.000585156
-8.04678e-07
-0.000585846
9.63744e-07
-0.000585302
1.54798e-06
-0.000583076
5.0733e-06
-0.000577012
9.77936e-06
-0.00056895
2.14733e-05
-0.000554888
3.83952e-05
-0.000540863
8.52359e-05
-0.000536062
0.000189255
-0.00054478
8.52772e-05
-0.000335913
4.86748e-05
-0.00033297
2.72027e-05
-0.0003232
2.72366e-05
-0.000275559
7.89537e-06
-0.000237143
4.71171e-06
-8.35198e-05
1.99641e-06
-5.64672e-05
-3.05285e-05
-2.33108e-06
-2.82602e-05
-6.03658e-06
-5.27879e-05
-7.84019e-05
-1.10457e-05
4.11471e-06
-7.53678e-05
-7.10037e-06
1.45978e-06
-5.01428e-05
-2.68294e-05
-1.00975e-06
-2.58591e-05
-1.76573e-06
-4.93939e-05
-7.35546e-05
-3.49014e-06
7.13354e-07
-7.292e-05
-1.31467e-06
1.80635e-07
-4.88591e-05
-2.56884e-05
-4.47382e-07
-2.52495e-05
-5.69637e-07
-4.87351e-05
-7.23084e-05
-1.15327e-06
5.23033e-07
-7.27524e-05
-9.19617e-08
6.3062e-08
-4.82737e-05
-2.51794e-05
-7.94651e-09
-2.51797e-05
-3.50643e-08
-4.82566e-05
-7.27622e-05
-3.47073e-08
-1.80447e-08
-7.27795e-05
2.57163e-08
-1.03002e-08
-4.82677e-05
-2.51909e-05
2.10456e-08
-2.5208e-05
4.09613e-08
-4.82868e-05
-7.27988e-05
5.25461e-08
-6.18683e-08
-7.28323e-05
8.66661e-08
-3.04159e-08
-4.83168e-05
-2.52333e-05
2.94399e-08
-2.52567e-05
5.98855e-08
-4.83451e-05
-7.28603e-05
8.01437e-08
-6.93918e-08
-7.28981e-05
9.65419e-08
-3.39199e-08
-4.83796e-05
-2.52852e-05
3.17787e-08
-2.53113e-05
6.61309e-08
-4.84112e-05
-7.29298e-05
9.29033e-08
-6.88834e-08
-7.29719e-05
1.09673e-07
-3.17675e-08
-4.84491e-05
-2.53433e-05
3.09289e-08
-2.53732e-05
6.64753e-08
-4.84858e-05
-7.30089e-05
9.69638e-08
-7.60674e-08
-7.30488e-05
1.06954e-07
-3.74287e-08
-4.85218e-05
-2.54037e-05
3.68102e-08
-2.5435e-05
7.49273e-08
-4.85604e-05
-7.30888e-05
1.00555e-07
-7.35524e-08
-7.31345e-05
1.17385e-07
-3.28713e-08
-4.86026e-05
-2.54695e-05
2.53145e-08
-2.55013e-05
6.19328e-08
-4.86418e-05
-7.31741e-05
1.10413e-07
-6.93303e-08
-7.32175e-05
1.28168e-07
-2.82181e-08
-4.86819e-05
-2.55347e-05
2.91291e-08
-2.55659e-05
7.01856e-08
-4.87192e-05
-7.32559e-05
1.25874e-07
-7.50611e-08
-7.33007e-05
1.3767e-07
-3.12921e-08
-4.8759e-05
-2.55998e-05
2.60985e-08
-2.56357e-05
6.38739e-08
-4.88017e-05
-7.33434e-05
1.157e-07
-7.20003e-08
-7.33861e-05
1.15569e-07
-3.34693e-08
-4.88412e-05
-2.56703e-05
3.83147e-08
-2.57065e-05
7.67831e-08
-4.88837e-05
-7.34308e-05
1.04356e-07
-8.91062e-08
-7.3483e-05
1.19884e-07
-4.49254e-08
-4.89302e-05
-2.57454e-05
4.21467e-08
-2.57788e-05
8.69639e-08
-4.89718e-05
-7.35254e-05
1.19819e-07
-8.46558e-08
-7.35747e-05
1.38901e-07
-3.72326e-08
-4.90168e-05
-2.58154e-05
3.24627e-08
-2.58489e-05
7.71904e-08
-4.90563e-05
-7.36142e-05
1.35534e-07
-7.60648e-08
-7.36636e-05
1.43559e-07
-3.1346e-08
-4.91007e-05
-2.58871e-05
2.75192e-08
-2.59251e-05
6.62476e-08
-4.9145e-05
-7.37086e-05
1.20033e-07
-7.82034e-08
-7.37568e-05
1.22259e-07
-3.7018e-08
-4.91888e-05
-2.59631e-05
4.22794e-08
-2.60008e-05
8.56812e-08
-4.92335e-05
-7.38035e-05
1.17586e-07
-9.66562e-08
-7.38565e-05
1.33804e-07
-4.82323e-08
-4.92811e-05
-2.60411e-05
4.45259e-08
-2.60783e-05
9.11447e-08
-4.9326e-05
-7.39034e-05
1.26352e-07
-9.53676e-08
-7.39528e-05
1.34324e-07
-4.70135e-08
-4.9371e-05
-2.61166e-05
4.58642e-08
-2.61555e-05
9.20035e-08
-4.94172e-05
-7.40018e-05
1.24238e-07
-9.68166e-08
-7.40578e-05
1.34781e-07
-4.81355e-08
-4.94674e-05
-2.61974e-05
3.96276e-08
-2.62354e-05
8.59377e-08
-4.95147e-05
-7.41063e-05
1.28295e-07
-8.13158e-08
-7.41609e-05
1.45786e-07
-3.40788e-08
-4.95638e-05
-2.62759e-05
3.17255e-08
-2.63138e-05
7.8234e-08
-4.96092e-05
-7.42086e-05
1.46141e-07
-8.40176e-08
-7.42639e-05
1.57739e-07
-3.44892e-08
-4.96585e-05
-2.63556e-05
3.57424e-08
-2.63945e-05
8.23415e-08
-4.97047e-05
-7.43133e-05
1.40423e-07
-9.37835e-08
-7.43706e-05
1.38969e-07
-4.52718e-08
-4.97536e-05
-2.64352e-05
4.65728e-08
-2.64758e-05
9.46899e-08
-4.98038e-05
-7.44258e-05
1.29515e-07
-1.00007e-07
-7.44853e-05
1.41695e-07
-4.8958e-08
-4.98558e-05
-2.6518e-05
4.66453e-08
-2.65578e-05
9.6448e-08
-4.99063e-05
-7.45416e-05
1.35754e-07
-1.04488e-07
-7.46019e-05
1.51849e-07
-4.92879e-08
-4.99586e-05
-2.65975e-05
4.20722e-08
-2.66354e-05
9.62013e-08
-5.00084e-05
-7.46575e-05
1.53476e-07
-9.11412e-08
-7.472e-05
1.63649e-07
-3.78742e-08
-5.00616e-05
-2.66774e-05
3.75421e-08
-2.67167e-05
8.75357e-08
-5.01133e-05
-7.47788e-05
1.46732e-07
-9.95566e-08
-7.48449e-05
1.49641e-07
-4.64111e-08
-5.01677e-05
-2.67579e-05
4.68153e-08
-2.67974e-05
1.01801e-07
-5.02241e-05
-7.49119e-05
1.47888e-07
-9.87211e-08
-7.49818e-05
1.67564e-07
-4.04678e-08
-5.02824e-05
-2.6838e-05
3.19619e-08
-2.68766e-05
8.79223e-08
-5.03395e-05
-7.50502e-05
1.69096e-07
-9.05085e-08
-7.51204e-05
1.83247e-07
-3.17281e-08
-5.03966e-05
-2.69148e-05
3.14961e-08
-2.69518e-05
9.10066e-08
-5.04543e-05
-7.51917e-05
1.82223e-07
-9.4035e-08
-7.52712e-05
1.90519e-07
-3.20611e-08
-5.05165e-05
-2.6991e-05
2.70742e-08
-2.70269e-05
8.59709e-08
-5.05773e-05
-7.5348e-05
1.80077e-07
-8.76057e-08
-7.54299e-05
1.83642e-07
-2.72567e-08
-5.06412e-05
-2.70646e-05
3.42453e-08
-2.70998e-05
9.69608e-08
-5.07061e-05
-7.55141e-05
1.77502e-07
-1.12372e-07
-7.56093e-05
1.90934e-07
-4.2796e-08
-5.0777e-05
-2.7137e-05
3.71185e-08
-2.71686e-05
1.08853e-07
-5.08468e-05
-7.57024e-05
1.94551e-07
-1.03461e-07
-7.57989e-05
2.16067e-07
-2.88844e-08
-5.09191e-05
-2.72009e-05
2.389e-08
-2.7231e-05
9.8909e-08
-5.09918e-05
-7.5896e-05
2.21988e-07
-1.0413e-07
-7.60043e-05
2.32846e-07
-2.49097e-08
-5.10703e-05
-2.7263e-05
2.06617e-08
-2.72936e-05
9.86931e-08
-5.11522e-05
-7.61162e-05
2.24098e-07
-1.04699e-07
-7.62342e-05
2.38087e-07
-2.14821e-08
-5.12378e-05
-2.73242e-05
2.09979e-08
-2.73539e-05
1.08874e-07
-5.13275e-05
-7.63566e-05
2.48048e-07
-1.21873e-07
-7.64898e-05
2.7429e-07
-2.48799e-08
-5.14236e-05
-2.73855e-05
2.38168e-08
-2.74139e-05
1.24593e-07
-5.15211e-05
-7.66241e-05
2.81387e-07
-1.31967e-07
-7.67698e-05
2.99534e-07
-2.47992e-08
-5.16265e-05
-2.74452e-05
2.33234e-08
-2.74772e-05
1.34381e-07
-5.17378e-05
-7.69218e-05
3.07596e-07
-1.43006e-07
-7.70888e-05
3.27896e-07
-2.47914e-08
-5.18603e-05
-2.75146e-05
2.49837e-08
-2.75521e-05
1.48648e-07
-5.19878e-05
-7.72605e-05
3.40306e-07
-1.69307e-07
-7.74443e-05
3.79282e-07
-3.21443e-08
-5.21245e-05
-2.75942e-05
3.58532e-08
-2.76397e-05
1.8279e-07
-5.22686e-05
-7.76343e-05
4.06595e-07
-1.93793e-07
-7.78384e-05
4.33288e-07
-3.82379e-08
-5.24285e-05
-2.76976e-05
5.00104e-08
-2.77675e-05
2.10219e-07
-5.2598e-05
-7.8054e-05
4.46906e-07
-2.67538e-07
-7.82884e-05
4.76263e-07
-8.7129e-08
-5.27847e-05
-2.78507e-05
1.20515e-07
-2.79474e-05
3.24159e-07
-5.29866e-05
-7.85346e-05
5.16883e-07
-3.72121e-07
-7.88014e-05
5.78545e-07
-1.46444e-07
-5.32107e-05
-2.80655e-05
1.66844e-07
-2.82003e-05
4.13013e-07
-5.34487e-05
-7.90748e-05
6.35485e-07
-4.62509e-07
-7.93709e-05
6.94524e-07
-1.96278e-07
-5.37102e-05
-2.8363e-05
2.27579e-07
-2.85581e-05
5.1288e-07
-5.40008e-05
-7.96907e-05
7.39396e-07
-5.98876e-07
-8.00309e-05
8.28803e-07
-2.7768e-07
-5.43226e-05
-2.87884e-05
3.10832e-07
-2.90525e-05
6.66699e-07
-5.46719e-05
-8.04027e-05
9.4959e-07
-6.81818e-07
-8.07876e-05
1.11095e-06
-2.94248e-07
-5.50562e-05
-2.93623e-05
3.02292e-07
-2.97268e-05
7.1422e-07
-5.54756e-05
-8.11981e-05
1.25761e-06
-8.04435e-07
-8.16411e-05
1.41056e-06
-3.52896e-07
-5.59397e-05
-3.01603e-05
4.40984e-07
-3.06716e-05
9.39552e-07
-5.64589e-05
-8.21322e-05
1.55714e-06
-1.14953e-06
-8.27002e-05
1.76605e-06
-5.65602e-07
-5.70506e-05
-3.12626e-05
8.39582e-07
-3.20887e-05
1.58239e-06
-5.77861e-05
-8.28012e-05
1.67787e-06
-1.54304e-06
-8.33148e-05
2.04152e-06
-9.50378e-07
-5.83734e-05
-3.30268e-05
7.36984e-07
-3.37647e-05
1.39398e-06
-5.90308e-05
-8.3855e-05
1.93477e-06
-1.22968e-06
-8.53441e-05
2.72897e-06
-2.85271e-07
-5.99745e-05
-3.40539e-05
1.27866e-06
-3.53374e-05
1.6666e-06
-6.03599e-05
-8.61373e-05
2.47932e-06
-1.98029e-06
-8.69258e-05
2.76669e-06
-5.93144e-07
-6.1748e-05
-3.59304e-05
9.34223e-07
-3.68602e-05
1.70807e-06
-6.2523e-05
-8.81959e-05
2.96423e-06
-2.37048e-06
-8.88918e-05
3.04241e-06
-1.04601e-06
-6.38448e-05
-3.78931e-05
1.11637e-06
-3.89959e-05
1.95718e-06
-6.46841e-05
-9.0683e-05
3.71907e-06
-2.65103e-06
-9.1879e-05
3.8357e-06
-1.39587e-06
-6.59455e-05
-4.03934e-05
1.35666e-06
-4.17425e-05
2.59564e-06
-6.71885e-05
-9.29719e-05
3.65517e-06
-2.60049e-06
-9.47874e-05
4.29767e-06
-1.17054e-06
-6.86166e-05
-4.28613e-05
1.08919e-06
-4.39001e-05
2.90155e-06
-7.04351e-05
-9.6646e-05
4.6259e-06
-4.24025e-06
-9.96596e-05
7.35034e-06
-2.37624e-06
-7.23031e-05
-4.62965e-05
2.34143e-06
-4.87548e-05
6.2098e-06
-7.61791e-05
-0.000103681
1.06167e-05
6.7871e-05
-5.05001e-05
-0.000121128
2.73088e-05
-3.55223e-05
-2.15694e-05
5.81276e-06
-2.59953e-05
1.42868e-05
-4.60148e-05
-6.59438e-05
3.02652e-05
-8.49578e-06
-7.3077e-05
1.55926e-05
-3.01365e-06
-5.14735e-05
-2.90932e-05
1.0659e-06
-3.01343e-05
2.35797e-06
-5.27868e-05
-7.43669e-05
3.54316e-06
-1.45404e-07
-7.44984e-05
2.16283e-07
-3.44709e-07
-5.26029e-05
-3.04701e-05
1.59264e-06
-3.19688e-05
3.37975e-06
-5.44181e-05
-7.62033e-05
4.92898e-06
-2.4796e-06
-7.74215e-05
3.73265e-06
-1.19867e-06
-5.56778e-05
-3.3144e-05
2.16653e-06
-3.5348e-05
4.30666e-06
-5.77748e-05
-7.98297e-05
6.9649e-06
-2.62359e-06
-8.19436e-05
5.21154e-06
-1.38504e-06
-5.90012e-05
-3.68881e-05
2.13427e-06
-3.92525e-05
4.73198e-06
-6.15756e-05
-8.44844e-05
8.02377e-06
-4.11803e-06
-8.72191e-05
7.69282e-06
-1.7163e-06
-6.3949e-05
-4.12449e-05
2.44435e-06
-4.39218e-05
6.15054e-06
-6.76089e-05
-9.22421e-05
1.20339e-05
-9.29888e-06
-9.90968e-05
1.69032e-05
-4.00648e-06
-7.28942e-05
-4.81718e-05
-2.59717e-05
-2.24593e-05
-6.30065e-05
-3.56124e-05
-4.94792e-05
-0.000112711
-1.6433e-05
-6.56255e-05
3.3389e-05
-8.56191e-06
-4.65733e-05
-2.88922e-05
4.50267e-06
-3.3481e-05
1.22027e-05
-5.42134e-05
-7.42681e-05
2.07777e-05
-7.14248e-06
-8.07644e-05
1.38413e-05
-3.49151e-06
-5.79216e-05
-3.71008e-05
2.25796e-06
-3.96446e-05
6.07037e-06
-6.18262e-05
-8.45048e-05
1.03571e-05
-5.37101e-06
-8.80808e-05
9.18728e-06
-2.36377e-06
-6.48427e-05
-4.21005e-05
2.70811e-06
-4.47405e-05
5.80335e-06
-6.78983e-05
-9.18199e-05
9.47891e-06
-6.83711e-06
-9.68492e-05
1.23025e-05
-2.84945e-06
-7.19293e-05
-4.77868e-05
3.27892e-06
-5.09276e-05
7.12752e-06
-7.57394e-05
-0.000101529
1.13067e-05
6.57013e-05
-5.0394e-05
-0.000116783
2.66983e-05
-3.68445e-05
-2.41027e-05
5.43992e-06
-3.08364e-05
1.83975e-05
-4.78772e-05
-6.62697e-05
3.37053e-05
-1.16741e-05
-7.56812e-05
2.09008e-05
-4.37845e-06
-5.5107e-05
-3.51824e-05
2.64381e-06
-3.79803e-05
5.91646e-06
-5.83756e-05
-7.90306e-05
9.67878e-06
-3.53757e-06
-8.09551e-05
6.21158e-06
-1.50545e-06
-6.04485e-05
-3.97741e-05
3.00697e-06
-4.29769e-05
6.42247e-06
-6.38478e-05
-8.65878e-05
1.26812e-05
-9.81559e-06
-9.27383e-05
1.54987e-05
-4.56071e-06
-6.89608e-05
-4.72783e-05
-2.43152e-05
-2.30063e-05
-5.85616e-05
-3.43769e-05
-4.68143e-05
-0.000104815
-1.76448e-05
-6.23355e-05
3.39359e-05
-8.91236e-06
-4.62593e-05
-2.97771e-05
6.25742e-06
-3.60633e-05
1.40255e-05
-5.40075e-05
-7.24097e-05
2.39191e-05
-9.31538e-06
-8.07435e-05
1.82338e-05
-3.80653e-06
-5.95839e-05
-4.01959e-05
4.22769e-06
-4.47611e-05
9.15757e-06
-6.45654e-05
-8.72706e-05
1.65694e-05
-7.69294e-06
-9.16886e-05
1.21413e-05
-3.37159e-06
-6.88613e-05
-4.81183e-05
-2.52874e-05
-2.30022e-05
-5.93573e-05
-3.44405e-05
-4.60764e-05
-0.000105208
-1.69763e-05
-6.05624e-05
3.23172e-05
-9.42131e-06
-4.51124e-05
-3.01917e-05
5.26393e-06
-3.5508e-05
1.21364e-05
-5.18892e-05
-6.97409e-05
2.12737e-05
-8.97916e-06
-7.59841e-05
1.55166e-05
-3.9192e-06
-5.69489e-05
-3.95094e-05
4.48461e-06
-4.41147e-05
1.0266e-05
-6.27968e-05
-8.28162e-05
1.74187e-05
5.31594e-05
-4.24543e-05
-9.36429e-05
2.2616e-05
-3.18665e-05
-2.17956e-05
9.68418e-06
-2.91033e-05
1.7401e-05
-4.28525e-05
-5.65938e-05
3.23391e-05
-1.49472e-05
-6.83059e-05
2.6201e-05
-6.8365e-06
-5.09171e-05
-3.57927e-05
5.31121e-06
-4.12148e-05
1.23536e-05
-5.80003e-05
-7.68413e-05
2.09731e-05
-7.66857e-06
-8.14555e-05
1.23185e-05
-3.98043e-06
-6.16762e-05
-4.52077e-05
-2.25957e-05
-2.25898e-05
-5.25725e-05
-3.1684e-05
-4.1881e-05
-9.21374e-05
-1.87899e-05
-5.59936e-05
3.29177e-05
-7.58039e-06
-4.29252e-05
-3.01652e-05
6.7703e-06
-3.7012e-05
1.39176e-05
-5.01308e-05
-6.54528e-05
2.33365e-05
4.24457e-05
-3.41541e-05
-7.36455e-05
1.78094e-05
-2.57164e-05
-1.90185e-05
5.54691e-06
-2.60519e-05
1.77701e-05
-3.57838e-05
-4.73131e-05
3.03298e-05
-1.38287e-05
-5.55497e-05
2.18413e-05
-6.61436e-06
-4.30806e-05
-3.26008e-05
-1.63453e-05
-1.62297e-05
-3.78482e-05
-2.15727e-05
-2.78469e-05
-6.55752e-05
-1.07978e-05
-3.52765e-05
1.82268e-05
-5.0744e-06
-2.73057e-05
-2.13046e-05
-1.2712e-05
-8.59427e-06
-2.85081e-05
-1.15107e-05
-1.5206e-05
-4.85781e-05
7.88576e-07
-1.65219e-05
5.27772e-07
5.64588e-07
-1.12864e-05
-8.02956e-06
-1.36058e-05
5.57708e-06
-3.24059e-05
7.5166e-06
9.609e-06
-5.85327e-05
2.53888e-05
2.64239e-05
-4.22018e-05
1.17344e-05
2.11721e-05
1.73123e-05
-1.08401e-05
2.81522e-05
-2.39435e-05
3.42754e-05
4.28922e-05
-4.04116e-05
2.75718e-05
6.34911e-05
-4.81719e-05
1.15372e-05
5.03089e-05
3.96883e-05
-1.34837e-05
5.31696e-05
-3.28868e-05
6.97094e-05
8.96957e-05
-5.90937e-05
-4.8877e-05
5.56741e-05
8.29021e-05
-2.13126e-05
4.2146e-05
3.18579e-05
-1.91308e-05
5.09984e-05
-4.37008e-05
6.67199e-05
8.73041e-05
-7.53468e-05
-4.04136e-05
5.92858e-05
6.84003e-05
-1.84255e-05
4.47132e-05
3.2581e-05
-2.39521e-05
5.6696e-05
-5.56317e-05
7.63957e-05
9.96632e-05
-9.62342e-05
-3.77655e-05
7.49959e-05
6.20128e-05
-1.69984e-05
5.59132e-05
3.96325e-05
1.74104e-05
2.6287e-05
3.08848e-05
3.68678e-05
4.89908e-05
5.83669e-05
4.75096e-05
8.61536e-05
-8.52374e-05
2.08116e-05
6.47768e-05
4.63471e-05
1.41299e-05
3.22758e-05
3.30487e-05
4.56886e-05
6.01813e-05
5.90813e-05
5.97973e-05
0.000107337
-0.000107083
2.46896e-05
8.08414e-05