/*--------------------------------*- C++ -*----------------------------------*\
| =========                 |                                                 |
| \\      /  F ield         | OpenFOAM: The Open Source CFD Toolbox           |
|  \\    /   O peration     | Version:  v2006                                 |
|   \\  /    A nd           | Website:  www.openfoam.com                      |
|    \\/     M anipulation  |                                                 |
\*---------------------------------------------------------------------------*/
FoamFile
{
    version     2.0;
    format      ascii;
    class       volScalarField;
    location    "0.02";
    object      alphat;
}
// * * * * * * * * * * * * * * * * * * * * * * * * * * * * * * * * * * * * * //

dimensions      [1 -1 -1 0 0 0 0];


internalField   nonuniform List<scalar> 
16277
(
30.8791
23.5808
83.869
17.4286
27.0188
20.4052
8.4222
3.14008
1.58379
1.02611
0.778189
0.649871
0.57551
0.526097
0.487832
0.454772
0.424877
0.397785
0.373562
0.352192
0.333454
0.316986
0.302395
0.289333
0.277525
0.266769
0.256915
0.247848
0.239478
0.23173
0.224542
0.217868
0.211661
0.205876
0.20048
0.195446
0.190738
0.186332
0.182223
0.178408
0.174866
0.17158
0.168525
0.165691
0.16309
0.160722
0.158569
0.156614
0.15485
0.153277
0.151894
0.150702
0.1497
0.148888
0.148269
0.147845
0.14762
0.147601
0.147794
0.148209
0.148859
0.149761
0.150931
0.152389
0.154156
0.156256
0.158718
0.161577
0.164878
0.168678
0.173056
0.178113
0.18398
0.190814
0.198777
0.207991
0.218464
0.230073
0.242815
0.257736
0.27894
0.318198
0.405003
0.613622
1.13359
2.29872
3.86901
4.08935
2.47863
1.62786
0.841082
0.391487
0.21457
0.102007
0.0242591
0.00436574
0.000144746
0.000125614
0.00205145
0.00944799
0.0052042
0.00132868
0.000110016
9.85011e-05
0.00121127
0.00437625
0.00349079
0.00104075
9.10187e-05
8.51495e-05
0.0010085
0.00330996
0.00286329
0.00090821
8.01547e-05
7.67844e-05
0.000892541
0.0027888
0.00253778
0.000831747
7.3467e-05
7.16708e-05
0.000836627
0.00251194
0.00234962
0.000792249
6.9481e-05
6.83029e-05
0.000799347
0.0023354
0.00221257
0.000763739
6.66906e-05
6.58789e-05
0.000770871
0.00220647
0.00210535
0.0007408
6.46256e-05
6.40425e-05
0.000747812
0.00210389
0.00201666
0.000721457
6.3024e-05
6.25874e-05
0.000728473
0.00201803
0.00194037
0.000704475
6.17248e-05
6.13823e-05
0.000711443
0.00194353
0.00187297
0.000689007
6.06244e-05
6.03439e-05
0.000695869
0.0018773
0.00181237
0.000674679
5.96576e-05
5.94187e-05
0.000681453
0.00181751
0.00175711
0.000661264
5.87848e-05
5.85758e-05
0.000667931
0.00176274
0.00170593
0.000648567
5.79807e-05
5.7793e-05
0.000655122
0.00171203
0.00165836
0.000636516
5.72303e-05
5.70593e-05
0.000642988
0.00166491
0.0016141
0.000625104
5.65232e-05
5.6366e-05
0.000631507
0.00162106
0.00157285
0.000614287
5.58528e-05
5.57077e-05
0.000620634
0.00158017
0.00153437
0.000604037
5.52148e-05
5.50802e-05
0.000610336
0.00154202
0.00149848
0.000594337
5.46053e-05
5.44797e-05
0.000600594
0.00150641
0.00146495
0.000585156
5.40202e-05
5.39025e-05
0.000591375
0.00147313
0.00143356
0.000576451
5.34559e-05
5.3345e-05
0.000582634
0.00144194
0.00140409
0.000568182
5.29091e-05
5.28039e-05
0.000574325
0.00141264
0.00137635
0.000560299
5.23768e-05
5.2276e-05
0.000566394
0.00138502
0.00135012
0.000552742
5.18555e-05
5.1758e-05
0.000558777
0.00135885
0.00132518
0.000545448
5.13421e-05
5.12471e-05
0.000551413
0.00133394
0.00130137
0.00053837
5.08341e-05
5.07408e-05
0.000544262
0.00131014
0.00127857
0.000531474
5.03293e-05
5.02373e-05
0.000537293
0.00128732
0.00125667
0.000524735
4.98261e-05
4.9735e-05
0.000530478
0.00126539
0.00123557
0.000518129
4.93232e-05
4.92327e-05
0.000523797
0.00124425
0.00121521
0.000511637
4.88191e-05
4.87287e-05
0.000517228
0.00122384
0.00119552
0.000505239
4.83121e-05
4.82214e-05
0.000510752
0.00120409
0.00117644
0.000498919
4.78006e-05
4.77093e-05
0.000504353
0.00118494
0.00115791
0.00049266
4.72829e-05
4.71906e-05
0.000498033
0.00116633
0.00113987
0.000486457
4.67572e-05
4.66636e-05
0.000491811
0.00114822
0.00112227
0.000480313
4.6222e-05
4.61266e-05
0.000485628
0.00113055
0.00110506
0.00047419
4.56755e-05
4.55777e-05
0.00047948
0.00111324
0.00108817
0.000468091
4.51158e-05
4.50152e-05
0.00047337
0.00109626
0.00107156
0.000462024
4.45416e-05
4.44381e-05
0.000467313
0.00107957
0.00105524
0.000456013
4.39523e-05
4.38463e-05
0.00046134
0.00106322
0.00103928
0.000450097
4.33486e-05
4.32407e-05
0.000455504
0.00104732
0.00102377
0.000444342
4.27322e-05
4.26239e-05
0.000449889
0.00103221
0.00100898
0.000438849
4.21068e-05
4.20005e-05
0.000444594
0.00101782
0.000994987
0.000433727
4.1478e-05
4.13766e-05
0.000439743
0.00100442
0.000982148
0.000429116
4.08528e-05
4.07598e-05
0.000435494
0.000992415
0.000970866
0.000425186
4.02396e-05
4.01593e-05
0.000432028
0.00098221
0.000961548
0.00042212
3.96481e-05
3.95861e-05
0.000429518
0.000974202
0.000954595
0.000420188
3.90896e-05
3.90536e-05
0.000427776
0.000968677
0.000950251
0.000418977
3.85939e-05
3.85649e-05
0.000426762
0.000966136
0.000948873
0.000418548
3.81625e-05
3.81377e-05
0.000426549
0.000966621
0.000950444
0.000418992
3.78189e-05
3.77814e-05
0.000427124
0.000969883
0.000954717
0.000420249
3.75704e-05
3.75106e-05
0.000428339
0.00097545
0.000961158
0.000422067
3.7336e-05
3.73484e-05
0.000429962
0.00098304
0.000969646
0.000423841
3.7172e-05
3.72341e-05
0.000431465
0.000992332
0.000979652
0.000425589
3.70749e-05
3.72187e-05
0.00043264
0.00100228
0.000990048
0.000427126
3.70847e-05
3.72823e-05
0.000433416
0.00101172
0.00099962
0.000428026
3.71732e-05
3.74119e-05
0.000434155
0.00102002
0.00100807
0.00042854
3.73279e-05
3.76002e-05
0.000434516
0.00102701
0.00101531
0.000429027
3.75422e-05
3.78445e-05
0.0004348
0.00103271
0.00102129
0.000429203
3.78101e-05
3.81331e-05
0.000434886
0.00103706
0.00102589
0.000429003
3.81186e-05
3.84515e-05
0.000434805
0.00104021
0.00102907
0.00042869
3.8454e-05
3.87878e-05
0.000434616
0.00104298
0.00103089
0.000428331
3.88047e-05
3.91312e-05
0.000434304
0.00104437
0.00103113
0.000427689
3.91597e-05
3.94718e-05
0.000433904
0.00104419
0.00102926
0.000426639
3.9509e-05
3.98004e-05
0.000432931
0.00104218
0.00102609
0.000425444
3.98413e-05
4.0106e-05
0.000431818
0.00103897
0.00102223
0.000424241
4.01475e-05
4.03822e-05
0.000430677
0.00103495
0.00101775
0.000423113
4.04216e-05
4.06246e-05
0.000429562
0.0010302
0.00101275
0.00042209
4.06599e-05
4.0831e-05
0.00042847
0.00102479
0.00100729
0.00042116
4.0861e-05
4.10015e-05
0.000427427
0.00101882
0.00100143
0.000420316
4.10252e-05
4.11375e-05
0.000426423
0.00101238
0.000995205
0.000419525
4.11548e-05
4.124e-05
0.000425429
0.00100552
0.000988665
0.000418739
4.12522e-05
4.13114e-05
0.000424404
0.000998359
0.000981706
0.000417901
4.1321e-05
4.13594e-05
0.00042331
0.000991003
0.000974581
0.000416982
4.13659e-05
4.13865e-05
0.000422138
0.000983498
0.000967303
0.000415948
4.13895e-05
4.14024e-05
0.000420889
0.000976009
0.000959788
0.000414688
4.13859e-05
4.13945e-05
0.000419548
0.000968306
0.000952114
0.000413364
4.13637e-05
4.13703e-05
0.000418149
0.00096046
0.000944316
0.000411974
4.13296e-05
4.13342e-05
0.000416678
0.00095249
0.000936393
0.000410502
4.12849e-05
4.12875e-05
0.000415118
0.000944393
0.000928225
0.000408935
4.12307e-05
4.12311e-05
0.000413459
0.000936123
0.000919936
0.000407268
4.11681e-05
4.11666e-05
0.000411704
0.000927758
0.000911578
0.000405513
4.10982e-05
4.10952e-05
0.000409899
0.000919313
0.000903132
0.000403665
4.10222e-05
4.10177e-05
0.000408003
0.000910761
0.000894629
0.000401738
4.09227e-05
4.09516e-05
0.000406086
0.000902205
0.000885367
0.000399742
4.08186e-05
4.08625e-05
0.00040369
0.000893865
0.000877299
0.000396573
4.06557e-05
4.09022e-05
0.000403589
0.000890394
0.000878797
0.000402859
4.07908e-05
4.14541e-05
0.000403311
0.000888129
0.000929414
0.000423986
4.17612e-05
4.44921e-05
0.000397321
0.000902867
0.00137899
0.000569881
5.01112e-05
5.43046e-05
0.000299805
0.000685522
0.00168331
0.00386347
0.00720916
0.0102522
0.0123248
0.016227
0.0186789
0.0208925
0.0221406
0.0227432
0.0225921
0.0216135
0.020224
0.0179541
0.0157242
0.0122935
0.0107633
0.00784709
0.00588469
0.00400633
0.00227729
0.00104497
0.000382074
0.000158969
3.14043e-05
2.0267e-05
0.000147507
0.000346459
0.000327456
0.000140071
1.94807e-05
1.87075e-05
0.000135058
0.000310413
0.000311624
0.000133146
1.85073e-05
1.83891e-05
0.000132412
0.00030667
0.000306944
0.000131114
1.82061e-05
1.81919e-05
0.000131079
0.000306552
0.000307535
0.000131169
1.82206e-05
1.82224e-05
0.000131363
0.000308226
0.00030878
0.00013161
1.82541e-05
1.82692e-05
0.000131818
0.000309767
0.000310241
0.000132051
1.82871e-05
1.83179e-05
0.000132302
0.000311299
0.000311866
0.000132544
1.83095e-05
1.83421e-05
0.000132847
0.00031294
0.000313524
0.00013304
1.83579e-05
1.83924e-05
0.000133361
0.000314652
0.000315208
0.000133521
1.83951e-05
1.8405e-05
0.000133967
0.000316408
0.000316968
0.000134079
1.84467e-05
1.84562e-05
0.000134496
0.000318193
0.000318769
0.000134672
1.84743e-05
1.84828e-05
0.000135093
0.000320034
0.000320621
0.000135247
1.8527e-05
1.85361e-05
0.000135664
0.0003219
0.000322502
0.000135865
1.85556e-05
1.85642e-05
0.000136297
0.000323821
0.000324433
0.000136468
1.86095e-05
1.8619e-05
0.000136901
0.000325767
0.000326395
0.000137116
1.86392e-05
1.86484e-05
0.000137567
0.00032777
0.000328409
0.000137752
1.86944e-05
1.87046e-05
0.000138205
0.000329796
0.00033045
0.000138432
1.87253e-05
1.87352e-05
0.000138902
0.000331877
0.000332541
0.00013917
1.87696e-05
1.88061e-05
0.000139543
0.000333981
0.000334659
0.000139794
1.8813e-05
1.88253e-05
0.000140324
0.000336132
0.000336818
0.000140582
1.88591e-05
1.88973e-05
0.00014099
0.000338296
0.00033899
0.000141241
1.89039e-05
1.89173e-05
0.000141801
0.000340491
0.000341188
0.000142061
1.89512e-05
1.89903e-05
0.000142491
0.000342683
0.000343384
0.000142747
1.89969e-05
1.90107e-05
0.000143324
0.000344896
0.000345595
0.000143588
1.90445e-05
1.9084e-05
0.000144027
0.000347089
0.000347786
0.00014428
1.909e-05
1.91036e-05
0.000144865
0.000349287
0.000349977
0.00014512
1.91367e-05
1.91756e-05
0.000145557
0.000351439
0.000352113
0.000145789
1.91804e-05
1.91929e-05
0.000146366
0.000353558
0.00035421
0.000146592
1.92244e-05
1.92616e-05
0.000147
0.000355589
0.000356198
0.000147182
1.92638e-05
1.9274e-05
0.000147714
0.000357528
0.000358074
0.000147873
1.9302e-05
1.93356e-05
0.000148199
0.000359278
0.00035974
0.000148293
1.93333e-05
1.9338e-05
0.000148709
0.000360844
0.000361225
0.00014867
1.93738e-05
1.9374e-05
0.000148952
0.000362154
0.000362453
0.000148894
1.93802e-05
1.93742e-05
0.000149048
0.000363202
0.00036338
0.000148857
1.94037e-05
1.93916e-05
0.000148852
0.000363867
0.000363924
0.000148558
1.93888e-05
1.93706e-05
0.000148399
0.00036414
0.000364054
0.000147965
1.93757e-05
1.93781e-05
0.000147497
0.000364081
0.000363643
0.000146879
1.93493e-05
1.93192e-05
0.000146338
0.000363502
0.000362654
0.000145498
1.93124e-05
1.93035e-05
0.000144607
0.000362384
0.000361173
0.000143507
1.9265e-05
1.92298e-05
0.000142586
0.000360841
0.000359243
0.000141189
1.92297e-05
1.91981e-05
0.000140056
0.000358842
0.000356978
0.000138518
1.91773e-05
1.91543e-05
0.000137256
0.000356593
0.000354585
0.000135645
1.91605e-05
1.91824e-05
0.000134222
0.000354303
0.000352347
0.000132596
1.91863e-05
1.92283e-05
0.000131296
0.000352407
0.000350902
0.000129753
1.92826e-05
1.93739e-05
0.000128672
0.000351489
0.000351025
0.000127402
1.94866e-05
1.96497e-05
0.00012667
0.0003528
0.000354342
0.000125328
1.98313e-05
2.00155e-05
0.00012442
0.000358046
0.000363525
0.000125877
2.02267e-05
2.04317e-05
0.000126433
0.000368151
0.000370839
0.000125643
2.04884e-05
2.06393e-05
0.000123318
0.000376285
0.000382498
0.000129917
2.09368e-05
2.11448e-05
0.000126087
0.000387788
0.000393018
0.000129261
2.15002e-05
2.17623e-05
0.000131021
0.000402799
0.000405718
0.000133969
2.21341e-05
2.26513e-05
0.000140996
0.000418657
0.000420823
0.000144726
2.31563e-05
2.35869e-05
0.000150628
0.000431541
0.000434469
0.000155897
2.44426e-05
2.62403e-05
0.000181188
0.000454253
0.000451773
0.000192002
1.97163e-05
1.5284e-05
4.74686e-05
0.000126162
0.000353569
0.00010888
1.77649e-05
1.86885e-05
9.80431e-05
0.000324701
0.00034227
0.000101899
1.91496e-05
1.94808e-05
9.61631e-05
0.000326943
0.000351838
0.000103574
2.00509e-05
2.06262e-05
0.000102035
0.000346939
0.000381841
0.000116195
2.1327e-05
2.20735e-05
0.000115492
0.000374628
0.000410967
0.000135023
2.29824e-05
2.42133e-05
0.000138869
0.000413909
0.000463549
0.000167952
2.67297e-05
2.04031e-05
0.000185281
0.000475008
0.000128075
4.34659e-05
1.61302e-05
1.9497e-05
0.000119441
0.000398495
0.000389685
0.000110888
2.11946e-05
2.25046e-05
0.000145188
0.000481672
0.000491444
0.000146753
2.34358e-05
2.48039e-05
0.000171429
0.000547852
0.000563601
0.000183456
2.65077e-05
2.96948e-05
0.000219178
0.00061657
0.000598931
0.000236946
2.30812e-05
1.73847e-05
5.34346e-05
0.000157694
0.000487324
0.000143214
2.07348e-05
2.24506e-05
0.00013323
0.00047762
0.00054899
0.000164256
2.3973e-05
2.56466e-05
0.000164548
0.000541602
0.000614736
0.000210214
2.95876e-05
2.36174e-05
0.00024242
0.000619879
0.000168061
5.26771e-05
1.73077e-05
2.17598e-05
0.000151285
0.000554128
0.000571223
0.000159102
2.46011e-05
2.85971e-05
0.000226102
0.000737003
0.000771521
0.000264876
3.3352e-05
2.73464e-05
0.000305831
0.000780864
0.000217074
6.19854e-05
1.82614e-05
2.38707e-05
0.000203505
0.000691578
0.000687388
0.000197209
2.78471e-05
3.5059e-05
0.000294693
0.000873326
0.00088915
0.000341855
2.90965e-05
1.9201e-05
7.00954e-05
0.000271349
0.000899383
0.000264203
2.78162e-05
3.51762e-05
0.000279413
0.000968618
0.00134679
0.000471909
4.81655e-05
4.03688e-05
0.000503825
0.00129597
0.000458527
0.000119546
2.61709e-05
4.6918e-05
0.000489707
0.00141179
0.00141215
0.000523034
4.38198e-05
2.95168e-05
0.000134376
0.000556091
0.00195034
0.000646315
6.55884e-05
6.33149e-05
0.000746571
0.00212347
0.000975224
0.000269718
3.97269e-05
6.39076e-05
0.000851065
0.0024808
0.00173623
0.000573606
4.37045e-05
7.85587e-05
0.000965115
0.00194261
0.00168905
0.000808572
6.53932e-05
6.64684e-05
0.000772619
0.00185388
0.00238527
0.000852572
7.49694e-05
0.000103968
0.00159821
0.00397595
0.000871013
0.000271197
5.94681e-05
6.08241e-05
0.000760131
0.00173582
0.000537812
0.000192651
4.25753e-05
4.60971e-05
0.000469058
0.00112407
0.000959231
0.000344042
4.6422e-05
2.50275e-05
8.76635e-05
0.000276103
0.000646071
0.000349163
3.05346e-05
2.88763e-05
0.000114218
0.000293881
0.000713416
0.000312291
3.29564e-05
3.52209e-05
0.000254721
0.000645713
0.000210261
7.92962e-05
2.33179e-05
2.76968e-05
0.000248242
0.000558111
0.000511606
0.000208061
3.11083e-05
2.17288e-05
6.78408e-05
0.000171323
0.00047393
0.000211279
2.51473e-05
2.90391e-05
0.000184225
0.000435179
0.00015138
6.36115e-05
2.11425e-05
2.37165e-05
0.000188152
0.000417857
0.000378137
0.000165644
2.78306e-05
2.07062e-05
5.8544e-05
0.000135044
0.000368682
0.00016903
2.24225e-05
2.68583e-05
0.000149092
0.000335524
0.000122046
5.51663e-05
2.04108e-05
2.17898e-05
0.00015727
0.000332167
0.000299997
0.000138208
2.60682e-05
2.00199e-05
5.19915e-05
0.000112931
0.000303154
0.000145353
2.08563e-05
2.55374e-05
0.00012905
0.000276865
0.000109226
5.15894e-05
2.00917e-05
2.0939e-05
0.000147434
0.000294942
0.000250884
0.000119264
2.6377e-05
2.20441e-05
9.41873e-05
0.000204249
8.15088e-05
3.65758e-05
1.76706e-05
1.7389e-05
9.86119e-05
0.000199217
0.000190151
9.16801e-05
2.23861e-05
1.83034e-05
3.79324e-05
7.77738e-05
0.000186562
9.53077e-05
1.73335e-05
2.21869e-05
8.76142e-05
0.000172553
7.29335e-05
3.62267e-05
1.77698e-05
1.66228e-05
8.785e-05
0.000163914
0.000157128
8.37879e-05
2.14899e-05
1.77878e-05
3.51506e-05
6.88676e-05
0.000156122
8.50639e-05
1.66778e-05
2.14798e-05
8.03158e-05
0.000147121
6.59679e-05
3.43563e-05
1.76123e-05
1.62321e-05
7.88679e-05
0.000143206
0.000137318
7.67668e-05
2.11637e-05
1.75391e-05
3.31969e-05
6.24522e-05
0.000134
7.60142e-05
1.5925e-05
2.08874e-05
7.10605e-05
0.000127523
5.94793e-05
3.31354e-05
1.70648e-05
1.54165e-05
7.04505e-05
0.000121331
0.000117088
6.51291e-05
2.04085e-05
1.65974e-05
3.06582e-05
5.30753e-05
0.000105058
7.52473e-05
1.46804e-05
1.90406e-05
3.74731e-05
6.14064e-05
0.000138559
8.09323e-05
1.70864e-05
2.16754e-05
7.42793e-05
0.000128106
6.24652e-05
3.65386e-05
1.77682e-05
1.61852e-05
7.73917e-05
0.000128226
0.000121544
7.16314e-05
2.1322e-05
1.77624e-05
3.6558e-05
6.09252e-05
0.000126748
7.70923e-05
1.61554e-05
2.11544e-05
7.14552e-05
0.000119838
5.95736e-05
3.66342e-05
1.76446e-05
1.6015e-05
7.23152e-05
0.000114665
0.000108711
6.54601e-05
2.12723e-05
1.7696e-05
3.57578e-05
5.57274e-05
0.000107289
6.79125e-05
1.55907e-05
2.05492e-05
6.15697e-05
9.98643e-05
4.94927e-05
3.2612e-05
1.66349e-05
1.43987e-05
6.60703e-05
8.84406e-05
5.41665e-05
3.74479e-05
1.89562e-05
1.67663e-05
6.68249e-05
0.000105969
9.62718e-05
6.0652e-05
2.13959e-05
1.74753e-05
3.63623e-05
5.20483e-05
9.65574e-05
6.31857e-05
1.55397e-05
2.05729e-05
5.83044e-05
8.75432e-05
4.73079e-05
3.4178e-05
1.71077e-05
1.45461e-05
6.25037e-05
7.95355e-05
5.06741e-05
3.73019e-05
1.91596e-05
1.66437e-05
6.33062e-05
9.72197e-05
8.795e-05
5.7475e-05
2.11476e-05
1.73902e-05
3.67206e-05
4.94364e-05
9.13001e-05
6.10479e-05
1.54917e-05
2.05734e-05
5.55473e-05
8.28665e-05
4.54628e-05
3.42703e-05
1.70426e-05
1.45175e-05
5.86164e-05
7.34817e-05
4.77878e-05
3.67214e-05
1.91809e-05
1.64368e-05
5.91516e-05
9.00165e-05
8.09466e-05
5.4176e-05
2.10118e-05
1.73234e-05
3.65971e-05
4.61504e-05
8.21996e-05
5.62782e-05
1.5467e-05
2.05126e-05
5.1704e-05
7.48343e-05
4.26389e-05
3.42293e-05
1.7342e-05
1.45084e-05
5.45721e-05
6.60278e-05
4.41308e-05
3.60856e-05
1.9129e-05
1.61519e-05
5.34716e-05
8.03778e-05
7.19677e-05
4.90649e-05
2.07554e-05
1.68627e-05
3.45578e-05
4.15583e-05
6.49178e-05
5.42345e-05
1.41144e-05
1.89069e-05
3.67249e-05
4.3996e-05
7.96359e-05
5.29345e-05
1.59676e-05
2.09207e-05
4.89182e-05
7.13567e-05
4.18548e-05
3.54987e-05
1.71685e-05
1.44384e-05
5.28299e-05
6.41652e-05
4.41091e-05
3.74299e-05
1.9028e-05
1.58452e-05
5.33462e-05
7.873e-05
7.05091e-05
4.90959e-05
2.07137e-05
1.69952e-05
3.55526e-05
4.15167e-05
6.35692e-05
5.37123e-05
1.41086e-05
1.90904e-05
3.76576e-05
4.37774e-05
7.75104e-05
5.22156e-05
1.6091e-05
2.09884e-05
4.85863e-05
6.96225e-05
4.15949e-05
3.64568e-05
1.72506e-05
1.44347e-05
5.36493e-05
6.25973e-05
4.36585e-05
3.84536e-05
1.91261e-05
1.60583e-05
5.18237e-05
7.62836e-05
6.81023e-05
4.79068e-05
2.07906e-05
1.73925e-05
3.616e-05
4.08386e-05
5.98043e-05
5.31945e-05
1.42879e-05
1.8853e-05
3.94053e-05
4.34441e-05
6.59328e-05
5.093e-05
1.51288e-05
1.96094e-05
3.96679e-05
4.57575e-05
7.77421e-05
5.19071e-05
1.64204e-05
2.08777e-05
4.84012e-05
6.93352e-05
4.20861e-05
3.74183e-05
1.70479e-05
1.41974e-05
5.35357e-05
6.21277e-05
4.39451e-05
3.99356e-05
1.9234e-05
1.61281e-05
5.14325e-05
7.50106e-05
6.73183e-05
4.80797e-05
2.09773e-05
1.75085e-05
3.73377e-05
4.12038e-05
5.94655e-05
5.29323e-05
1.45054e-05
1.91642e-05
4.03672e-05
4.38507e-05
6.50115e-05
5.08266e-05
1.54882e-05
1.95694e-05
4.05646e-05
4.5716e-05
7.65286e-05
5.13536e-05
1.61826e-05
2.0951e-05
4.82188e-05
6.82531e-05
4.22311e-05
3.8878e-05
1.72665e-05
1.42848e-05
5.4052e-05
6.12367e-05
4.54219e-05
4.2006e-05
1.92363e-05
1.54241e-05
5.20667e-05
6.67832e-05
4.73568e-05
4.28688e-05
1.97538e-05
1.64736e-05
5.22506e-05
7.81409e-05
6.97106e-05
4.92793e-05
2.13206e-05
1.73649e-05
3.98284e-05
4.33531e-05
6.21053e-05
5.54575e-05
1.43794e-05
1.92158e-05
4.25764e-05
4.61519e-05
6.69998e-05
5.28741e-05
1.54424e-05
1.97889e-05
4.33936e-05
4.7888e-05
7.83811e-05
5.29972e-05
1.6484e-05
2.12265e-05
5.0074e-05
7.00512e-05
4.41554e-05
4.11706e-05
1.74984e-05
1.46165e-05
5.59935e-05
6.30287e-05
4.72916e-05
4.41481e-05
1.95478e-05
1.58128e-05
5.39935e-05
6.82262e-05
4.9101e-05
4.47999e-05
1.98607e-05
1.64258e-05
5.34655e-05
7.90533e-05
7.05244e-05
5.04317e-05
2.10876e-05
1.74118e-05
4.09376e-05
4.4106e-05
6.22776e-05
5.59794e-05
1.45664e-05
1.95087e-05
4.35422e-05
4.6644e-05
6.64846e-05
5.2854e-05
1.57186e-05
1.99767e-05
4.4394e-05
4.81175e-05
7.65264e-05
5.2357e-05
1.65508e-05
2.13644e-05
4.97524e-05
6.8483e-05
4.38529e-05
4.1495e-05
1.76817e-05
1.46722e-05
5.57985e-05
6.17785e-05
4.67571e-05
4.39027e-05
1.93925e-05
1.53486e-05
5.21704e-05
6.58726e-05
4.90658e-05
4.47858e-05
1.9607e-05
1.56032e-05
5.34534e-05
6.85169e-05
5.04716e-05
4.7546e-05
1.99155e-05
1.66005e-05
5.46288e-05
7.86387e-05
7.02791e-05
5.19164e-05
2.12594e-05
1.74608e-05
4.30321e-05
4.5365e-05
6.32058e-05
5.7671e-05
1.46391e-05
1.95783e-05
4.50947e-05
4.80766e-05
6.65573e-05
5.31975e-05
1.57752e-05
1.98777e-05
4.56443e-05
5.00228e-05
6.88642e-05
5.41551e-05
1.574e-05
1.99734e-05
4.83315e-05
5.1127e-05
7.86898e-05
5.50332e-05
1.65777e-05
2.12988e-05
5.23767e-05
7.05305e-05
4.6276e-05
4.41944e-05
1.76903e-05
1.46534e-05
5.85026e-05
6.38303e-05
4.90393e-05
4.64654e-05
1.97072e-05
1.58025e-05
5.39061e-05
6.79701e-05
5.13138e-05
4.73304e-05
2.0022e-05
1.59839e-05
5.57577e-05
7.03353e-05
5.26914e-05
5.01846e-05
2.02449e-05
1.68642e-05
5.67242e-05
8.01967e-05
7.19596e-05
5.39512e-05
2.15227e-05
1.7681e-05
4.5238e-05
4.7703e-05
6.4598e-05
5.96436e-05
1.47331e-05
1.98001e-05
4.73557e-05
5.0073e-05
6.8076e-05
5.46034e-05
1.57392e-05
2.00145e-05
4.75337e-05
5.1653e-05
6.98399e-05
5.54303e-05
1.59033e-05
2.0339e-05
5.0314e-05
5.27765e-05
7.88824e-05
5.6095e-05
1.68277e-05
2.16185e-05
5.39538e-05
7.14735e-05
4.80995e-05
4.606e-05
1.78864e-05
1.50722e-05
5.92438e-05
6.44056e-05
5.07341e-05
4.83398e-05
2.00017e-05
1.5853e-05
5.57195e-05
6.84369e-05
5.24963e-05
4.86196e-05
2.00052e-05
1.57524e-05
5.55535e-05
7.01202e-05
5.38592e-05
4.99979e-05
2.00168e-05
1.60393e-05
5.82138e-05
7.19358e-05
5.47113e-05
5.28578e-05
2.02477e-05
1.68292e-05
5.85778e-05
8.1037e-05
7.33558e-05
5.59451e-05
2.15415e-05
1.76207e-05
4.65973e-05
4.95122e-05
6.49407e-05
6.04905e-05
1.47309e-05
2.00583e-05
4.89381e-05
5.16374e-05
6.82669e-05
5.54301e-05
1.60553e-05
2.03128e-05
4.94579e-05
5.32509e-05
6.98791e-05
5.58174e-05
1.59475e-05
2.0162e-05
5.11446e-05
5.43683e-05
7.23358e-05
5.88242e-05
1.61304e-05
2.03896e-05
5.40544e-05
5.55507e-05
8.2187e-05
5.97112e-05
1.69312e-05
2.17947e-05
5.74093e-05
7.45988e-05
5.14715e-05
4.94571e-05
1.80636e-05
1.49471e-05
6.34842e-05
6.74532e-05
5.37821e-05
5.15294e-05
1.99995e-05
1.58099e-05
5.83843e-05
7.15416e-05
5.57135e-05
5.16962e-05
2.02348e-05
1.60937e-05
5.883e-05
7.3204e-05
5.69767e-05
5.34647e-05
2.02472e-05
1.61322e-05
6.16691e-05
7.53308e-05
5.80783e-05
5.62396e-05
2.04757e-05
1.71428e-05
6.18468e-05
8.43963e-05
7.67965e-05
5.92578e-05
2.18083e-05
1.79601e-05
5.04048e-05
5.31725e-05
6.8172e-05
6.38504e-05
1.51508e-05
2.0271e-05
5.25209e-05
5.53113e-05
7.15261e-05
5.90236e-05
1.61934e-05
2.0574e-05
5.24963e-05
5.68185e-05
7.28172e-05
5.84723e-05
1.62683e-05
2.05335e-05
5.4197e-05
5.77125e-05
7.50247e-05
6.15114e-05
1.64632e-05
2.07027e-05
5.75228e-05
5.85954e-05
8.42421e-05
6.2809e-05
1.71549e-05
2.20823e-05
6.06067e-05
7.72956e-05
5.45146e-05
5.24085e-05
1.82546e-05
1.5228e-05
6.61177e-05
6.9813e-05
5.68373e-05
5.43557e-05
2.03272e-05
1.61751e-05
6.06984e-05
7.33528e-05
5.86285e-05
5.45228e-05
2.06033e-05
1.63329e-05
6.07956e-05
7.52643e-05
5.99759e-05
5.60765e-05
2.05042e-05
1.64318e-05
6.37668e-05
7.71708e-05
6.06823e-05
5.89458e-05
2.06712e-05
1.71754e-05
6.39736e-05
8.57418e-05
7.84864e-05
6.17394e-05
2.2153e-05
1.82864e-05
5.30817e-05
5.56506e-05
6.94892e-05
6.64444e-05
1.52756e-05
2.04947e-05
5.49998e-05
5.75822e-05
7.19609e-05
6.02084e-05
1.62696e-05
2.07523e-05
5.50801e-05
5.876e-05
7.34159e-05
6.0176e-05
1.64268e-05
2.06118e-05
5.64799e-05
5.97117e-05
7.55424e-05
6.26243e-05
1.64087e-05
2.05407e-05
5.84755e-05
6.13905e-05
7.83999e-05
6.58251e-05
1.64047e-05
2.07444e-05
6.14213e-05
6.2411e-05
8.81046e-05
6.63352e-05
1.72726e-05
2.24134e-05
6.43377e-05
8.11296e-05
5.84513e-05
5.6654e-05
1.85714e-05
1.54585e-05
7.00667e-05
7.33683e-05
6.09823e-05
5.89359e-05
2.06234e-05
1.64476e-05
6.50477e-05
7.71205e-05
6.27837e-05
5.90827e-05
2.08009e-05
1.64774e-05
6.55138e-05
7.92873e-05
6.43073e-05
6.07328e-05
2.06441e-05
1.65021e-05
6.85956e-05
8.21907e-05
6.5739e-05
6.38148e-05
2.08756e-05
1.74672e-05
6.89331e-05
9.10611e-05
8.34792e-05
6.66793e-05
2.26073e-05
1.86935e-05
5.84643e-05
6.05187e-05
7.50265e-05
7.21203e-05
1.55714e-05
2.07844e-05
6.04821e-05
6.30795e-05
7.75738e-05
6.63685e-05
1.66077e-05
2.09518e-05
6.00665e-05
6.41192e-05
7.85825e-05
6.56039e-05
1.67287e-05
2.08485e-05
6.15793e-05
6.49979e-05
8.05557e-05
6.81089e-05
1.66519e-05
2.10981e-05
6.46731e-05
6.56458e-05
8.95351e-05
6.87809e-05
1.75655e-05
2.29958e-05
6.72097e-05
8.27135e-05
6.14682e-05
6.02089e-05
1.89612e-05
1.56624e-05
7.2961e-05
7.53312e-05
6.40929e-05
6.24936e-05
2.09528e-05
1.67384e-05
6.81517e-05
7.89028e-05
6.58887e-05
6.25476e-05
2.10704e-05
1.66692e-05
6.81043e-05
8.07277e-05
6.70504e-05
6.4075e-05
2.09369e-05
1.68158e-05
7.04425e-05
8.33853e-05
6.84211e-05
6.75136e-05
2.13824e-05
1.77837e-05
7.15713e-05
9.24006e-05
8.50767e-05
6.98537e-05
2.3108e-05
1.90703e-05
6.25008e-05
6.38034e-05
7.76556e-05
7.59598e-05
1.58002e-05
2.09863e-05
6.41042e-05
6.63315e-05
8.00714e-05
6.9448e-05
1.67693e-05
2.12879e-05
6.40291e-05
6.7539e-05
8.12328e-05
6.92273e-05
1.68503e-05
2.13245e-05
6.58569e-05
6.86054e-05
8.34123e-05
7.14802e-05
1.69768e-05
2.17974e-05
6.94877e-05
6.95119e-05
9.25414e-05
7.27064e-05
1.82529e-05
2.37978e-05
7.15383e-05
8.5878e-05
6.60005e-05
6.56792e-05
1.95775e-05
1.63144e-05
7.79451e-05
7.97199e-05
6.87492e-05
6.76028e-05
2.13478e-05
1.70156e-05
7.37696e-05
8.34987e-05
7.06896e-05
6.79204e-05
2.16387e-05
1.70087e-05
7.36361e-05
8.58393e-05
7.155e-05
7.05842e-05
2.19718e-05
1.84531e-05
7.36085e-05
9.39426e-05
8.68493e-05
7.24352e-05
2.42203e-05
1.9714e-05
6.59845e-05
6.68928e-05
7.90415e-05
7.80011e-05
1.63967e-05
2.16942e-05
6.80014e-05
6.9263e-05
8.1839e-05
7.32441e-05
1.73292e-05
2.2074e-05
6.82949e-05
7.06598e-05
8.38319e-05
7.24401e-05
1.74108e-05
2.25109e-05
7.16676e-05
7.1414e-05
9.19655e-05
7.35788e-05
1.8637e-05
2.45192e-05
7.29501e-05
8.57011e-05
6.7813e-05
6.80224e-05
2.0056e-05
1.65349e-05
7.93039e-05
7.97168e-05
7.034e-05
7.00535e-05
2.18989e-05
1.72551e-05
7.39499e-05
8.34038e-05
7.23519e-05
7.07033e-05
2.23243e-05
1.7719e-05
7.47445e-05
8.58753e-05
7.35606e-05
7.38017e-05
2.27634e-05
1.88497e-05
7.54878e-05
9.35838e-05
8.72682e-05
7.49858e-05
2.50165e-05
2.01821e-05
6.92512e-05
6.98468e-05
8.02624e-05
8.06064e-05
1.66296e-05
2.23317e-05
7.15786e-05
7.1864e-05
8.32669e-05
7.54384e-05
1.77428e-05
2.27225e-05
7.21709e-05
7.34285e-05
8.57204e-05
7.50273e-05
1.79201e-05
2.33115e-05
7.59371e-05
7.44753e-05
9.42247e-05
7.67847e-05
1.94028e-05
2.55248e-05
7.65502e-05
8.82355e-05
7.17741e-05
7.28384e-05
2.06925e-05
1.70171e-05
8.34419e-05
8.30011e-05
7.44729e-05
7.53214e-05
2.28451e-05
1.81482e-05
7.9044e-05
8.72258e-05
7.68983e-05
7.61302e-05
2.34223e-05
1.86348e-05
7.88296e-05
9.0304e-05
7.86572e-05
8.01539e-05
2.41594e-05
2.00668e-05
8.09567e-05
9.8732e-05
9.25761e-05
8.09187e-05
2.6507e-05
2.15212e-05
7.64944e-05
7.60934e-05
8.64938e-05
8.74181e-05
1.7638e-05
2.34293e-05
7.87925e-05
7.82028e-05
9.03637e-05
8.19166e-05
1.86596e-05
2.45926e-05
8.14272e-05
7.9842e-05
9.84117e-05
8.12747e-05
2.0462e-05
2.69064e-05
8.07193e-05
9.2664e-05
7.64995e-05
7.78437e-05
2.18812e-05
1.78357e-05
8.77617e-05
8.68738e-05
7.94293e-05
8.07807e-05
2.40196e-05
1.91312e-05
8.3641e-05
9.16727e-05
8.20895e-05
8.23003e-05
2.48232e-05
1.97483e-05
8.39841e-05
9.55313e-05
8.45307e-05
8.7194e-05
2.57179e-05
2.13846e-05
8.73176e-05
0.000104853
9.84868e-05
8.76075e-05
2.82702e-05
2.30931e-05
8.4668e-05
8.29357e-05
9.33298e-05
9.51225e-05
1.87105e-05
2.50463e-05
8.70013e-05
8.5739e-05
9.82854e-05
8.9344e-05
2.0026e-05
2.63103e-05
9.00288e-05
8.75582e-05
0.000107262
8.92618e-05
2.15025e-05
2.87174e-05
8.95899e-05
0.000101414
8.60642e-05
8.83827e-05
2.41891e-05
1.98746e-05
9.71457e-05
9.63389e-05
8.88952e-05
9.15081e-05
2.64253e-05
2.11704e-05
9.30945e-05
0.000102204
9.17043e-05
9.52018e-05
2.78056e-05
2.31822e-05
9.379e-05
0.00011181
0.0001057
9.43761e-05
3.06459e-05
2.5042e-05
9.26032e-05
9.02841e-05
0.000101051
0.000101921
2.02925e-05
2.76232e-05
9.72062e-05
9.30163e-05
0.000111226
9.50783e-05
2.30287e-05
3.07498e-05
9.50655e-05
0.000105924
9.05193e-05
9.18982e-05
2.50088e-05
1.99546e-05
0.000102618
0.000100421
9.31091e-05
9.4831e-05
2.71789e-05
2.1789e-05
9.55992e-05
0.000104758
9.51062e-05
9.86367e-05
2.89373e-05
2.41026e-05
9.61735e-05
0.000113547
0.000108134
9.75893e-05
3.20426e-05
2.62013e-05
9.68241e-05
9.42568e-05
0.000103558
0.000104534
2.15302e-05
2.91788e-05
0.000102184
9.67561e-05
0.000113416
9.87345e-05
2.44501e-05
3.26338e-05
9.90735e-05
0.000108493
9.55591e-05
9.85651e-05
2.68825e-05
2.17414e-05
0.000106152
0.000104486
9.74521e-05
0.000103118
2.92877e-05
2.38885e-05
9.8818e-05
0.000113828
0.000109085
9.97324e-05
3.25865e-05
2.72428e-05
9.89203e-05
9.62061e-05
0.000104871
0.000105677
2.23342e-05
3.04118e-05
0.000105
9.89286e-05
0.00011402
0.000100307
2.52359e-05
3.39878e-05
0.000101229
0.00010947
9.8045e-05
0.000101804
2.78908e-05
2.26375e-05
0.000107924
0.00010598
0.000100404
0.000106998
3.06668e-05
2.53085e-05
0.000101864
0.000115621
0.000111043
0.000102507
3.40537e-05
2.79464e-05
0.000102743
9.93378e-05
0.000107398
0.000110876
2.18642e-05
3.04243e-05
0.000108027
0.000101578
0.000116373
0.000102124
2.57123e-05
3.51345e-05
0.000103293
0.000111981
0.000101827
0.000107443
2.94669e-05
2.40247e-05
0.000111172
0.000109732
0.000105151
0.000114019
3.25812e-05
2.71241e-05
0.000107613
0.00012072
0.000116231
0.000108881
3.63028e-05
2.98787e-05
0.000111411
0.000106089
0.00011404
0.000115999
2.42441e-05
3.30046e-05
0.000118258
0.000109124
0.00012571
0.000112375
2.71632e-05
3.60765e-05
0.000112007
0.000121101
0.000110198
0.000119652
3.13666e-05
2.71281e-05
0.00011893
0.000123947
0.000120106
0.000118597
3.76804e-05
3.19348e-05
0.000118469
0.000112125
0.000120938
0.00012201
2.6198e-05
3.54535e-05
0.000125121
0.000116314
0.000131656
0.00011762
2.9589e-05
3.94324e-05
0.000119354
0.000126995
0.000117306
0.000127619
3.32334e-05
2.82355e-05
0.000126534