/*--------------------------------*- C++ -*----------------------------------*\
| =========                 |                                                 |
| \\      /  F ield         | OpenFOAM: The Open Source CFD Toolbox           |
|  \\    /   O peration     | Version:  v2006                                 |
|   \\  /    A nd           | Website:  www.openfoam.com                      |
|    \\/     M anipulation  |                                                 |
\*---------------------------------------------------------------------------*/
FoamFile
{
    version     2.0;
    format      ascii;
    class       volScalarField;
    location    "0.078";
    object      isentropic(p);
}
// * * * * * * * * * * * * * * * * * * * * * * * * * * * * * * * * * * * * * //

dimensions      [1 -1 -2 0 0 0 0];


internalField   nonuniform List<scalar> 
16277
(
150008
150014
150017
150003
150012
150010
150011
150012
150013
150013
150013
150012
150012
150011
150011
150011
150010
150010
150010
150010
150010
150010
150010
150009
150009
150009
150009
150009
150009
150009
150009
150009
150008
150008
150008
150008
150008
150008
150008
150008
150007
150007
150007
150007
150007
150007
150007
150007
150006
150006
150006
150006
150006
150006
150006
150006
150005
150005
150005
150005
150005
150005
150005
150005
150005
150004
150004
150004
150004
150004
150004
150004
150004
150004
150004
150003
150003
150003
150003
150002
150002
150001
150001
150000
150001
150003
150004
150005
150004
150006
150005
150007
150008
150011
150017
150015
149976
149936
150011
150022
150021
150002
149897
149860
149993
150018
150013
149981
149826
149796
149971
150008
150002
149959
149768
149744
149949
149997
149991
149938
149721
149703
149929
149986
149979
149919
149684
149669
149911
149975
149968
149901
149653
149640
149893
149964
149958
149884
149627
149616
149877
149953
149947
149868
149605
149595
149862
149943
149937
149854
149585
149577
149849
149934
149928
149841
149568
149561
149836
149925
149919
149829
149553
149547
149824
149916
149911
149817
149540
149534
149813
149908
149903
149807
149528
149523
149803
149901
149896
149797
149517
149513
149794
149893
149889
149788
149508
149504
149785
149887
149882
149779
149499
149496
149776
149880
149876
149771
149492
149489
149769
149874
149870
149763
149485
149483
149761
149868
149864
149756
149479
149477
149755
149863
149859
149750
149474
149473
149748
149857
149853
149744
149470
149469
149743
149852
149849
149738
149466
149465
149737
149847
149844
149733
149463
149463
149732
149843
149839
149728
149461
149461
149727
149839
149835
149724
149459
149459
149723
149835
149831
149720
149458
149458
149719
149831
149827
149716
149457
149458
149715
149827
149824
149712
149457
149458
149712
149824
149821
149709
149458
149459
149709
149820
149817
149706
149459
149460
149706
149817
149814
149704
149460
149462
149704
149814
149812
149702
149462
149464
149702
149811
149809
149700
149465
149467
149700
149809
149806
149698
149468
149470
149699
149807
149804
149697
149471
149474
149698
149804
149802
149696
149475
149478
149697
149802
149800
149695
149480
149483
149696
149801
149799
149695
149485
149488
149696
149799
149797
149695
149490
149493
149697
149798
149796
149696
149496
149499
149697
149797
149795
149696
149502
149506
149698
149796
149795
149698
149508
149512
149700
149796
149795
149700
149515
149519
149702
149796
149795
149702
149522
149526
149704
149796
149796
149704
149530
149534
149707
149797
149797
149708
149537
149542
149711
149799
149799
149711
149545
149549
149715
149801
149801
149716
149552
149557
149719
149804
149804
149721
149560
149564
149724
149807
149807
149726
149567
149571
149729
149810
149811
149731
149573
149578
149735
149814
149815
149737
149579
149583
149741
149819
149820
149742
149585
149588
149746
149823
149824
149748
149589
149591
149751
149828
149828
149753
149591
149593
149756
149832
149832
149757
149593
149594
149760
149835
149836
149760
149592
149593
149763
149839
149839
149763
149591
149591
149765
149842
149842
149765
149589
149588
149767
149844
149844
149767
149585
149584
149768
149846
149846
149767
149581
149579
149768
149848
149847
149767
149575
149574
149768
149849
149848
149766
149570
149568
149767
149850
149849
149765
149564
149562
149766
149850
149849
149764
149558
149556
149764
149850
149849
149762
149552
149550
149762
149850
149848
149760
149546
149545
149760
149849
149847
149757
149541
149539
149757
149848
149846
149755
149535
149534
149754
149847
149845
149752
149530
149529
149752
149845
149843
149749
149525
149524
149749
149844
149842
149746
149521
149520
149746
149842
149840
149744
149517
149516
149744
149841
149838
149741
149513
149512
149741
149839
149836
149738
149509
149508
149738
149837
149835
149736
149506
149505
149735
149835
149833
149732
149502
149502
149733
149833
149831
149730
149498
149498
149729
149831
149829
149727
149496
149494
149726
149828
149826
149724
149492
149492
149725
149827
149824
149721
149489
149489
149721
149824
149823
149719
149487
149484
149718
149822
149820
149716
149483
149483
149716
149821
149818
149714
149481
149481
149714
149819
149817
149712
149478
149478
149712
149818
149816
149711
149477
149479
149714
149819
149821
149716
149484
149496
149727
149831
149868
149776
149552
149516
149698
149792
149863
149922
149955
149966
149972
149984
149989
149994
149997
149999
149999
149998
149997
149993
149989
149979
149974
149967
149959
149947
149914
149843
149703
149543
149279
149257
149524
149687
149669
149506
149241
149232
149496
149658
149655
149494
149229
149228
149493
149654
149653
149492
149225
149225
149490
149653
149653
149491
149225
149227
149492
149655
149656
149493
149228
149229
149494
149656
149658
149496
149230
149231
149497
149659
149660
149498
149232
149233
149499
149661
149662
149500
149233
149234
149501
149663
149664
149502
149235
149236
149504
149665
149666
149505
149237
149238
149506
149668
149669
149507
149239
149240
149508
149670
149671
149509
149241
149242
149510
149672
149673
149512
149243
149244
149513
149674
149675
149514
149245
149246
149515
149677
149678
149517
149247
149248
149518
149679
149680
149519
149249
149250
149520
149681
149682
149521
149251
149252
149523
149683
149685
149524
149253
149254
149525
149686
149687
149526
149255
149256
149528
149688
149689
149529
149257
149258
149530
149691
149692
149531
149259
149259
149532
149693
149694
149534
149261
149262
149535
149696
149697
149536
149263
149264
149538
149698
149699
149539
149265
149266
149540
149701
149702
149542
149267
149268
149543
149703
149704
149544
149268
149269
149546
149706
149707
149547
149270
149271
149548
149709
149710
149549
149272
149272
149550
149711
149713
149552
149273
149274
149553
149714
149716
149555
149275
149275
149556
149717
149719
149557
149276
149277
149559
149721
149722
149560
149277
149278
149562
149724
149726
149563
149278
149278
149565
149728
149729
149566
149279
149279
149567
149731
149733
149569
149279
149280
149571
149735
149737
149573
149280
149280
149575
149740
149742
149576
149279
149279
149578
149745
149747
149580
149279
149279
149582
149750
149753
149585
149279
149280
149588
149756
149759
149590
149280
149280
149593
149762
149765
149596
149280
149281
149600
149769
149773
149604
149283
149284
149608
149777
149781
149611
149285
149286
149615
149784
149787
149620
149289
149294
149627
149792
149798
149634
149299
149304
149641
149803
149808
149648
149309
149316
149655
149813
149820
149667
149327
149337
149678
149827
149835
149691
149351
149367
149700
149842
149849
149713
149383
149399
149723
149856
149862
149733
149417
149436
149744
149869
149876
149756
149458
149480
149769
149883
149887
149779
149498
149516
149785
149889
149887
149789
149533
149559
149807
149896
149907
149833
149588
149322
149658
149805
149872
149727
149394
149402
149744
149885
149891
149758
149425
149449
149765
149892
149903
149783
149478
149512
149801
149916
149927
149820
149544
149568
149827
149929
149936
149845
149603
149630
149857
149938
149946
149871
149657
149699
149899
149951
149886
149780
149505
149582
149838
149943
149950
149852
149598
149629
149872
149962
149972
149891
149663
149688
149903
149978
149991
149919
149714
149744
149936
149998
149993
149942
149760
149610
149823
149933
149986
149907
149679
149703
149925
150001
150011
149943
149738
149759
149945
150009
150009
149956
149785
149829
149982
150014
149980
149918
149700
149768
149950
150018
150028
149970
149802
149832
149986
150036
150047
150004
149861
149889
150018
150050
150016
149966
149771
149856
150004
150055
150058
150014
149876
149912
150033
150068
150070
150051
149949
149865
150026
150055
150094
150061
149957
149970
150067
150098
150116
150097
150018
150036
150101
150110
150109
150081
149996
150074
150134
150148
150142
150141
150093
150089
150116
150151
150181
150180
150147
150187
150198
150182
150208
150213
150196
150274
150250
150216
150180
150221
150233
150277
150227
150187
150215
150260
150311
150293
150272
150233
150187
150213
150180
150035
150103
150103
150007
149953
149843
149890
149967
149978
149924
149868
149742
149793
149899
149926
149912
149857
149728
149641
149840
149856
149881
149827
149683
149614
149778
149840
149892
149845
149687
149651
149811
149874
149823
149752
149585
149652
149824
149878
149868
149797
149625
149559
149738
149816
149875
149820
149638
149606
149791
149868
149803
149718
149528
149639
149819
149867
149851
149791
149612
149519
149709
149792
149860
149810
149633
149595
149775
149843
149783
149700
149511
149626
149809
149862
149856
149783
149599
149513
149703
149790
149862
149810
149628
149597
149780
149848
149794
149710
149519
149634
149813
149866
149855
149785
149598
149555
149746
149829
149781
149720
149479
149608
149800
149846
149832
149752
149544
149462
149636
149762
149851
149787
149574
149550
149757
149837
149773
149708
149466
149594
149792
149845
149821
149744
149535
149466
149644
149763
149858
149796
149583
149563
149772
149852
149773
149643
149470
149580
149797
149863
149849
149769
149559
149447
149688
149761
149845
149784
149582
149548
149748
149826
149760
149691
149449
149585
149786
149840
149815
149734
149528
149451
149704
149766
149840
149779
149577
149463
149681
149772
149871
149813
149614
149578
149772
149846
149785
149695
149499
149619
149816
149875
149860
149785
149588
149517
149713
149801
149878
149826
149631
149606
149798
149861
149798
149710
149511
149620
149820
149875
149849
149782
149582
149498
149698
149788
149869
149812
149611
149572
149771
149847
149798
149741
149487
149611
149816
149874
149803
149713
149492
149622
149833
149894
149868
149794
149592
149505
149711
149804
149887
149830
149623
149583
149791
149868
149802
149738
149486
149612
149823
149883
149813
149725
149503
149643
149847
149902
149889
149816
149617
149518
149723
149816
149897
149845
149642
149601
149802
149871
149810
149752
149500
149614
149825
149884
149809
149719
149492
149643
149849
149902
149876
149804
149600
149510
149721
149813
149899
149840
149625
149583
149800
149884
149798
149646
149492
149589
149841
149905
149854
149766
149537
149660
149872
149915
149897
149833
149632
149505
149754
149822
149903
149842
149623
149511
149744
149831
149906
149848
149626
149586
149808
149888
149815
149696
149499
149604
149845
149906
149855
149767
149542
149642
149861
149918
149897
149817
149597
149515
149700
149824
149906
149850
149608
149528
149758
149849
149915
149859
149635
149592
149811
149892
149812
149734
149474
149626
149852
149912
149850
149765
149525
149629
149861
149920
149902
149816
149582
149494
149657
149809
149904
149860
149577
149510
149752
149849
149914
149853
149603
149527
149767
149856
149923
149871
149645
149604
149825
149903
149822
149729
149496
149598
149840
149904
149845
149754
149510
149611
149854
149917
149896
149807
149566
149480
149648
149804
149898
149853
149550
149475
149734
149837
149918
149860
149596
149527
149779
149867
149923
149866
149624
149578
149814
149900
149811
149733
149456
149579
149832
149903
149831
149734
149472
149589
149851
149911
149847
149753
149497
149606
149856
149918
149894
149808
149559
149478
149691
149821
149907
149851
149571
149472
149736
149838
149910
149850
149582
149495
149756
149850
149918
149858
149607
149565
149809
149897
149807
149716
149441
149567
149832
149904
149827
149726
149454
149573
149847
149910
149849
149751
149487
149600
149856
149916
149892
149799
149549
149407
149726
149800
149901
149819
149562
149421
149717
149817
149898
149838
149549
149452
149732
149832
149901
149839
149572
149519
149780
149874
149785
149711
149380
149553
149812
149896
149812
149706
149416
149539
149829
149896
149824
149720
149443
149545
149831
149896
149831
149731
149454
149573
149843
149906
149877
149789
149523
149425
149630
149791
149879
149829
149493
149393
149690
149804
149883
149812
149498
149413
149708
149814
149889
149822
149525
149434
149718
149823
149897
149833
149557
149498
149770
149869
149768
149686
149352
149505
149790
149874
149789
149677
149366
149491
149806
149877
149800
149690
149389
149505
149809
149877
149806
149697
149402
149536
149821
149887
149862
149761
149484
149329
149674
149759
149872
149776
149495
149341
149666
149780
149863
149793
149469
149354
149668
149784
149858
149787
149471
149368
149677
149789
149871
149801
149505
149439
149737
149838
149739
149555
149335
149402
149786
149836
149762
149637
149307
149439
149779
149853
149772
149653
149328
149439
149774
149848
149768
149651
149329
149452
149779
149854
149781
149667
149354
149472
149782
149855
149826
149715
149416
149236
149631
149714
149837
149717
149435
149255
149613
149736
149825
149748
149392
149274
149613
149738
149831
149754
149413
149293
149625
149749
149834
149758
149420
149313
149642
149760
149842
149768
149451
149381
149695
149810
149697
149593
149226
149389
149720
149815
149721
149592
149243
149372
149733
149814
149728
149601
149255
149375
149732
149813
149728
149602
149262
149397
149743
149820
149744
149624
149287
149415
149746
149823
149793
149675
149356
149160
149577
149672
149801
149684
149362
149187
149568
149701
149789
149707
149319
149184
149562
149696
149790
149710
149332
149198
149567
149700
149793
149711
149340
149231
149587
149715
149800
149719
149372
149308
149646
149769
149644
149531
149123
149313
149673
149775
149675
149535
149146
149281
149682
149770
149676
149539
149150
149299
149688
149771
149677
149540
149160
149304
149689
149773
149690
149557
149185
149329
149692
149775
149741
149609
149257
149043
149512
149611
149752
149613
149276
149078
149494
149641
149737
149648
149223
149083
149491
149636
149737
149646
149226
149091
149496
149641
149739
149648
149232
149109
149505
149647
149747
149657
149255
149129
149519
149659
149749
149661
149286
149215
149589
149717
149587
149410
149042
149190
149624
149713
149616
149460
149045
149191
149623
149717
149614
149462
149048
149197
149621
149716
149618
149470
149066
149210
149623
149718
149630
149487
149088
149241
149634
149725
149690
149552
149165
148970
149409
149551
149686
149572
149151
148973
149417
149576
149687
149592
149141
148981
149425
149582
149684
149587
149138
149000
149430
149584
149687
149591
149152
149018
149445
149594
149688
149592
149174
149085
149507
149646
149514
149315
148920
149065
149545
149646
149539
149366
148909
149072
149548
149653
149543
149375
148920
149093
149555
149657
149548
149385
148936
149102
149556
149656
149561
149404
148961
149137
149566
149664
149628
149478
149049
148836
149305
149473
149622
149501
149042
148832
149322
149497
149610
149498
148998
148841
149324
149498
149611
149500
149009
148857
149329
149501
149617
149511
149031
148873
149346
149514
149623
149521
149064
148978
149435
149590
149426
149241
148755
148968
149462
149584
149464
149281
148771
148963
149475
149588
149470
149292
148790
148990
149483
149589
149465
149287
148786
148970
149461
149574
149536
149361
148877
148625
149203
149363
149533
149392
148877
148661
149213
149406
149533
149413
148854
148668
149216
149408
149538
149419
148879
148697
149231
149421
149547
149433
148925
148805
149335
149505
149331
149063
148596
148779
149380
149488
149373
149165
148597
148794
149374
149495
149345
149139
148571
148787
149360
149486
149367
149168
148603
148820
149369
149496
149449
149246
148701
148425
149080
149253
149442
149278
148723
148462
149080
149296
149445
149314
148705
148495
149098
149311
149456
149324
148723
148514
149112
149323
149461
149338
148766
148641
149226
149423
149211
148998
148368
148593
149222
149387
149221
148990
148337
148603
149248
149389
149247
149021
148381
148618
149259
149401
149264
149041
148410
148656
149268
149406
149358
149146
148524
148244
148901
149142
149344
149180
148539
148281
148959
149195
149354
149208
148541
148310
148985
149214
149363
149228
148592
148474
149114
149322
149056
148814
148076
148404
149080
149267
149099
148843
148134
148406
149118
149278
149127
148874
148167
148441
149145
149299
149149
148903
148207
148484
149158
149310
149262
149036
148352
148050
148728
149022
149234
149075
148345
148083
148810
149082
149254
149103
148366
148118
148850
149104
149257
149132
148480
148205
148927
149167
148908
148609
147875
148196
148965
149141
148986
148711
147934
148225
149008
149181
149023
148753
147973
148282
149036
149202
149155
148901
148130
147787
148556
148879
149110
148921
148130
147841
148659
148956
149151
148983
148199
148042
148856
149119
148813
148479
147662
147968
148823
149018
148780
148454
147578
147905
148793
149004
148833
148523
147646
147997
148849
149042
148993
148698
147832
147447
148342
148696
148965
148744
147850
147511
148455
148785
149007
148817
147929
147727
148661
148961
148622
148247
147308
147745
148685
148906
148750
148413
147435
147780
148708
148907
148779
148440
147452
147020
148031
148448
148763
148526
147503
147150
148198
148571
148828
148607
147617
147405
148436
148781
148415
148007
146950
147414
148467
148735
148528
148142
147044
147525
148561
148786
148742
148388
147299
146813
147910
148348
148647
148418
147420
146760
147923
148330
148595
148328
147225
146987
148124
148502
148185
147704
146580
147067
148267
148534
148314
147879
146677
147197
148344
148593
148546
148149
146969
146441
147646
148126
148481
148199
147032
146604
147851
148280
148522
148327
147259
146990
148146
148495
147913
147381
146114
146721
147956
148274
148201
147771
146471
145995
147296
147855
148243
147949
146580
146119
147506
148000
148333
148061
146767
146522
147867
148299
147821
147272
145901
146616
147909
148200
148258
147835
146440
145657
147084
147699
147957
147543
146009
145674
147269
147820
147381
146716
145131
145915
147509
147881
147612
147031
145415
146207
147684
148019
147995
147492
145951
145288
146834
147464
147878
147558
146143
145985
147512
147970
147304
146630
145031
145403
147094
147565
147413
146809
145033
144480
146266
146979
147522
147105
145431
145142
146926
147517
147013
146273
144458
145456
147131
147521
147586
147014
145188
144508
146313
147011
147245
146788
145033
144281
146348
147023
146769
145983
143796
143091
145397
146263
146962
146448
144390
144042
146284
147000
146452
145523
143286
144618
146568
146972
147251
146742
144632
142977
145533
146466
145569
144487
141855
143344
145716
146347
146354
145570
142970
142518
145258
146250
145606
144546
141621
143603
145801
146361
146575
145881
143244
141290
144428
145595
144668
143422
140191
142302
145002
145697
145781
144944
141897
141491
144808
145851
145941
144912
141455
138615
142256
144110
144986
143806
140294
139944
143702
144947
144922
143571
139445
139391
143832
145163
144762
142954
137715
136454
141847
143974
142859
140558
135390
139339
143289
144417
144416
143001
138557
137373
142344
144098
143714
141911
136609
136174
141689
143475
143323
141239
135300
134874
140997
143222
143209
140842
134605
134332
140658
143191
143135
140442
134056
133804
140216
143054
142959
139991
133586
133401
139768
142855
142745
139553
133243
133106
139346
142630
142512
139148
132991
132895
138959
142391
142269
138781
132818
132757
138615
142145
142023
138460
132711
132676
138316
141901
141779
138182
132652
132637
138058
141657
141537
137943
132630
132631
137837
141416
141299
137740
132638
132652
137652
141183
141072
137571
132672
132695
137498
140961
140855
137433
132723
132754
137373
140749
140648
137319
132788
132824
137270
140548
140453
137227
132862
132901
137189
140360
140272
137155
132943
132984
137124
140186
140105
137097
133027
133070
137073
140027
139953
137053
133114
133157
137034
139882
139815
137018
133201
133243
137004
139751
139691
136992
133286
133327
136982
139633
139581
136973
133369
133409
136966
139529
139483
136960
133448
133487
136955
139438
139397
136951
133525
133562
136947
139357
139322
136945
133598
133632
136943
139287
139257
136943
133666
133698
136943
139227
139201
136944
133730
133759
136945
139175
139153
136947
133789
133816
136949
139131
139112
136952
133843
133867
136954
139093
139077
136958
133892
133915
136961
139061
139047
136966
133938
133959
136969
139034
139022
136974
133979
133998
136978
139011
139001
136983
134017
134035
136988
138991
138983
136993
134052
134068
136998
138975
138968
137003
134084
134099
137008
138961
138955
137013
134113
134127
137018
138949
138944
137023
134140
134152
137027
138939
138935
137032
134164
134175
137037
138930
138926
137041
134186
134196
137045
138922
138919
137050
134206
134216
137054
138916
138913
137058
134225
134233
137061
138910
138908
137066
134242
134250
137069
138905
138903
137073
134257
134264
137076
138901
138899
137080
134272
134278
137084
138897
138897
137087
134285
134291
137090
138895
138894
137094
134297
134302
137097
138892
138892
137101
134308
134313
137104
138891
138891
137107
134318
134323
137110
138889
138890
137114
134328
134333
137117
138889
138890
137120
134338
134342
137123
138889
138890
137127
134347
134351
137130
138889
138890
137133
134356
134360
137136
138889
138891
137140
134364
134368
137143
138890
138892
137146
134373
134377
137149
138892
138894
137153
134381
134385
137156
138893
138896
137160
134389
134393
137163
138896
138898
137167
134398
134401
137170
138898
138901
137174
134406
134409
137177
138901
138904
137181
134414
134417
137184
138904
138907
137188
134422
134425
137191
138908
138911
137195
134430
134433
137199
138912
138915
137203
134437
134441
137206
138916
138920
137210
134445
134449
137214
138920
138924
137218
134453
134457
137221
138925
138929
137226
134461
134465
137229
138930
138935
137233
134469
134472
137237
138936
138940
137241
134476
134480
137245
138942
138946
137249
134484
134487
137253
138947
138952
137257
134491
134495
137261
138954
138958
137266
134499
134503
137270
138960
138965
137274
134506
134510
137278
138967
138971
137282
134514
134517
137286
138973
138978
137291
134521
134525
137295
138980
138985
137299
134529
134532
137303
138987
138992
137307
134536
134539
137311
138995
139000
137316
134543
134546
137320
139002
139007
137324
134550
134553
137328
139009
139015
137333
134556
134560
137337
139017
139022
137341
134563
134566
137345
139025
139030
137349
134570
134573
137353
139032
139038
137358
134576
134579
137362
139040
139045
137366
134583
134586
137370
139048
139053
137374
134589
134592
137378
139056
139061
137382
134595
134598
137386
139063
139069
137391
134601
134604
137394
139071
139077
137399
134607
134610
137402
139079
139085
137407
134613
134615
137410
139087
139092
137415
134618
134621
137418
139095
139100
137423
134624
134626
137426
139103
139108
137430
134629
134631
137434
139111
139116
137438
134634
134636
137442
139119
139124
137446
134639
134641
137449
139126
139132
137453
134644
134646
137457
139134
139140
137461
134648
134650
137464
139142
139147
137468
134652
134654
137471
139149
139155
137475
134656
134658
137478
139157
139162
137482
134660
134662
137485
139164
139169
137489
134664
134665
137492
139171
139178
137495
134667
134668
137498
139179
139185
137503
134673
134675
137506
139189
139192
137511
134678
134680
137509
139189
139177
137498
134678
134670
137482
139159
139203
137503
134685
134760
137599
139355
139448
137673
134818
142056
144691
146368
146740
146890
147546
147883
148029
148174
148587
148855
149138
149349
149505
149620
149703
149763
149805
149836
149859
149877
149890
149901
149909
149916
149922
149926
149929
149931
149933
149934
149936
149936
149932
149934
149941
149946
149954
149962
149972
149983
149994
150005
150015
150021
150023
150022
150020
150017
150015
150013
150012
150010
150009
150007
150005
150003
150000
149998
149996
149994
149992
149990
149989
149988
149987
149986
149986
149986
149986
149987
149989
149991
149993
149997
150000
150005
150010
150015
150021
150027
150033
150040
150046
150052
150058
150063
150068
150072
150075
150078
150080
150081
150081
150081
150080
150079
150077
150074
150071
150068
150064
150061
150057
150053
150048
150044
150040
150036
150032
150028
150024
150020
150016
150013
150009
150006
150003
150000
149997
149994
149991
149989
149986
149984
149982
149980
149978
149977
149975
149974
149972
149971
149970
149969
149968
149967
149966
149965
149965
149964
149964
149963
149963
149963
149962
149962
149962
149962
149962
149962
149962
149962
149962
149962
149962
149962
149963
149963
149963
149963
149964
149964
149965
149965
149965
149966
149966
149967
149968
149968
149969
149969
149970
149971
149971
149972
149973
149973
149974
149975
149976
149976
149977
149978
149979
149980
149980
149981
149982
149983
149984
149985
149986
149987
149988
149989
149990
149991
149993
149994
149996
150000
150007
150012
150015
150015
150017
150004
150012
150012
150020
150026
150029
150029
150027
150026
150024
150022
150021
150020
150019
150018
150017
150016
150016
150015
150015
150014
150014
150013
150013
150012
150012
150012
150011
150011
150011
150011
150010
150010
150010
150010
150009
150009
150009
150009
150008
150008
150008
150008
150008
150007
150007
150007
150007
150006
150006
150006
150006
150006
150005
150005
150005
150005
150005
150004
150004
150004
150004
150003
150003
150003
150003
150002
150002
150002
150001
150001
150000
150000
149999
149999
149998
149997
149995
149994
149994
149995
149997
149999
150000
150004
150010
150019
150024
150024
150021
150019
150016
150013
150010
150008
150005
150003
150000
149998
149995
149993
149990
149988
149985
149983
149980
149979
149976
149975
149971
149971
149967
149966
149963
149963
149959
149959
149956
149955
149952
149952
149949
149949
149945
149945
149942
149942
149939
149939
149936
149936
149933
149934
149930
149931
149928
149928
149925
149926
149923
149923
149920
149921
149918
149918
149915
149916
149913
149914
149911
149911
149908
149909
149906
149907
149904
149905
149902
149903
149900
149901
149899
149899
149897
149898
149895
149896
149894
149895
149893
149894
149892
149893
149891
149893
149891
149893
149891
149893
149891
149894
149892
149895
149893
149896
149895
149898
149897
149900
149899
149902
149901
149905
149903
149907
149906
149910
149909
149912
149911
149915
149914
149917
149916
149919
149918
149921
149920
149923
149922
149925
149923
149926
149924
149927
149925
149927
149925
149927
149926
149927
149926
149927
149925
149927
149925
149926
149924
149926
149924
149925
149923
149924
149922
149923
149921
149922
149920
149920
149919
149920
149918
149920
149917
149918
149916
149916
149915
149916
149912
149915
149912
149912
149912
149913
149909
149913
149910
149913
149922
149932
149956
149955
149953
149965
149949
149951
149965
149949
149952
149966
149949
149954
149967
149950
149953
149968
149952
149954
149969
149952
149956
149970
149953
149957
149971
149954
149957
149971
149955
149958
149972
149955
149960
149973
149957
149961
149974
149957
149961
149975
149958
149962
149975
149959
149963
149976
149959
149963
149977
149960
149963
149977
149960
149964
149977
149960
149964
149978
149960
149964
149978
149960
149964
149978
149960
149964
149978
149960
149964
149978
149959
149963
149977
149958
149962
149976
149957
149961
149976
149956
149960
149974
149954
149958
149973
149952
149956
149972
149950
149954
149970
149948
149952
149968
149946
149951
149967
149945
149949
149966
149943
149947
149965
149941
149945
149964
149940
149944
149964
149939
149943
149962
149938
149942
149962
149938
149942
149963
149938
149943
149964
149938
149943
149964
149939
149944
149965
149939
149945
149966
149940
149946
149967
149941
149947
149969
149942
149948
149970
149944
149950
149971
149945
149951
149972
149946
149952
149974
149948
149954
149975
149949
149955
149976
149951
149957
149977
149952
149958
149979
149954
149960
149980
149955
149961
149981
149957
149963
149982
149958
149964
149983
149960
149965
149985
149961
149967
149986
149963
149968
149987
149965
149970
149988
149966
149972
149989
149968
149973
149990
149970
149975
149992
149971
149976
149993
149973
149978
149994
149975
149980
149995
149977
149981
149996
149979
149983
149998
149981
149985
149999
149983
149987
150000
149985
149989
150002
149987
149991
150003
149989
149993
150004
149991
149995
150006
149994
149997
150007
149996
150000
150008
149999
150002
150010
150002
150004
150011
150004
150007
150013
150007
150010
150014
150010
150013
150016
150013
150015
150017
150017
150018
150019
150020
150022
150020
150023
150013
150015
150015
150015
150015
150014
150014
150013
150013
150013
150012
150012
150011
150011
150011
150011
150010
150010
150010
150009
150009
150009
150008
150008
150008
150007
150007
150006
150006
150005
150005
150004
150004
150003
150002
150001
150001
150000
149999
149997
149996
149995
149994
149993
149992
149991
149991
149990
149992
149994
149996
149997
150000
150002
150005
150007
150009
150011
150012
150012
150012
150011
150011
150010
150008
150007
150006
150005
150004
150003
150001
150000
149999
149998
149997
149996
149995
149994
149993
149992
149991
149990
149989
149988
149988
149986
149969
149966
149966
149970
149985
149989
149989
149996
149995
149997
149997
149997
149998
149999
150000
150001
150002
150003
150004
150005
150006
150007
150008
150009
150010
150011
150015
150014
150013
150011
150010
150009
150008
150007
150006
150005
150004
150003
150002
150001
150001
150000
149999
149999
150000
149999
149999
149997
149998
150000
150000
150001
149995
149993
149993
149993
149993
149990
149990
149975
149977
149972
149972
149972
149973
149974
149976
149996