/*--------------------------------*- C++ -*----------------------------------*\
| =========                 |                                                 |
| \\      /  F ield         | OpenFOAM: The Open Source CFD Toolbox           |
|  \\    /   O peration     | Version:  v2006                                 |
|   \\  /    A nd           | Website:  www.openfoam.com                      |
|    \\/     M anipulation  |                                                 |
\*---------------------------------------------------------------------------*/
FoamFile
{
    version     2.0;
    format      ascii;
    class       volScalarField;
    location    "0.078";
    object      nut;
}
// * * * * * * * * * * * * * * * * * * * * * * * * * * * * * * * * * * * * * //

dimensions      [0 2 -1 0 0 0 0];


internalField   nonuniform List<scalar> 
16277
(
23.2555
16.3617
52.8013
11.6999
17.0769
9.27013
3.73025
1.52146
0.819831
0.553233
0.435045
0.375066
0.339138
0.313063
0.291162
0.271487
0.253586
0.23748
0.223191
0.21062
0.199574
0.189825
0.18115
0.173362
0.166313
0.159888
0.154
0.148583
0.143583
0.138957
0.134667
0.130682
0.126976
0.123525
0.120309
0.117311
0.114515
0.11191
0.109482
0.107221
0.105118
0.103165
0.101355
0.0996809
0.0981379
0.0967213
0.0954266
0.0942507
0.093191
0.0922454
0.0914127
0.090692
0.0900833
0.089587
0.0892026
0.0889343
0.0887841
0.088756
0.0888546
0.0890818
0.0894452
0.0899525
0.0906126
0.0914364
0.0924365
0.0936275
0.0950272
0.0966573
0.0985449
0.100725
0.103245
0.106165
0.109565
0.113536
0.11817
0.123528
0.129615
0.136385
0.143898
0.152814
0.165439
0.188321
0.238281
0.359134
0.668877
1.40636
2.48351
2.65608
1.57391
1.03978
0.511887
0.233383
0.126894
0.0598651
0.0141837
0.00255185
8.45544e-05
7.33877e-05
0.00119942
0.00552394
0.00304385
0.000777233
6.42811e-05
5.75595e-05
0.000708653
0.0025597
0.0020425
0.000609133
5.31905e-05
4.97642e-05
0.000590344
0.00193701
0.00167605
0.000531766
4.68457e-05
4.48785e-05
0.000522633
0.00163262
0.001486
0.000487046
4.29389e-05
4.18904e-05
0.00048999
0.0014709
0.00137594
0.000463937
4.06091e-05
3.99204e-05
0.000468108
0.00136753
0.00129544
0.000447128
3.8975e-05
3.84987e-05
0.000451265
0.00129168
0.0012321
0.000433468
3.776e-05
3.74145e-05
0.000437486
0.00123093
0.00117931
0.000421823
3.68145e-05
3.65547e-05
0.000425825
0.00117981
0.00113386
0.000411598
3.60472e-05
3.58423e-05
0.000415615
0.00113545
0.00109377
0.000402367
3.53964e-05
3.52294e-05
0.000406336
0.00109609
0.00105776
0.000393853
3.48287e-05
3.46882e-05
0.000397772
0.0010606
0.00102506
0.00038593
3.43203e-05
3.41986e-05
0.000389808
0.00102829
0.000995097
0.000378523
3.38555e-05
3.37475e-05
0.000382365
0.000998656
0.000967433
0.000371569
3.3424e-05
3.33264e-05
0.000375374
0.000971292
0.000941807
0.000365009
3.30185e-05
3.29291e-05
0.000368775
0.000945924
0.00091799
0.000358797
3.26338e-05
3.25509e-05
0.000362526
0.000922333
0.000895813
0.000352903
3.22662e-05
3.21883e-05
0.000356602
0.000900355
0.000875121
0.000347311
3.19127e-05
3.18392e-05
0.000350982
0.000879827
0.000855753
0.000341998
3.15714e-05
3.15017e-05
0.000345639
0.000860582
0.000837546
0.000336933
3.12406e-05
3.11741e-05
0.000340541
0.000842464
0.000820359
0.000332089
3.09185e-05
3.08549e-05
0.000335662
0.000825336
0.000804069
0.000327439
3.06037e-05
3.05424e-05
0.000330973
0.000809083
0.000788569
0.000322955
3.02948e-05
3.02353e-05
0.000326448
0.000793597
0.000773763
0.000318612
2.99903e-05
2.99322e-05
0.000322059
0.000778787
0.00075957
0.000314386
2.96888e-05
2.96317e-05
0.000317786
0.000764574
0.000745918
0.000310258
2.93892e-05
2.93327e-05
0.000313608
0.000750888
0.000732744
0.00030621
2.90903e-05
2.9034e-05
0.000309509
0.00073767
0.000719993
0.000302228
2.87909e-05
2.87345e-05
0.000305474
0.000724867
0.000707619
0.000298299
2.849e-05
2.84331e-05
0.000301492
0.00071244
0.000695593
0.000294414
2.81866e-05
2.8129e-05
0.000297554
0.000700356
0.000683886
0.000290565
2.78798e-05
2.78214e-05
0.000293656
0.000688594
0.00067248
0.000286751
2.75689e-05
2.75095e-05
0.000289802
0.000677136
0.000661363
0.000282972
2.72532e-05
2.71929e-05
0.000286017
0.000665977
0.000650537
0.000279243
2.69324e-05
2.68712e-05
0.000282271
0.000655115
0.000639996
0.000275549
2.66061e-05
2.6544e-05
0.000278573
0.000644548
0.000629744
0.000271902
2.62741e-05
2.62112e-05
0.000274936
0.000634285
0.000619801
0.00026832
2.59364e-05
2.5873e-05
0.000271379
0.000624352
0.000610198
0.000264824
2.55933e-05
2.55298e-05
0.000267926
0.00061479
0.000600984
0.00026144
2.52455e-05
2.51825e-05
0.000264612
0.000605737
0.000592257
0.00025821
2.48942e-05
2.48325e-05
0.000261482
0.000597274
0.000584094
0.000255185
2.45412e-05
2.44819e-05
0.000258588
0.00058941
0.000576567
0.000252416
2.4189e-05
2.41336e-05
0.000255989
0.000582281
0.000569823
0.00024997
2.38406e-05
2.37911e-05
0.000253761
0.000576049
0.000564036
0.000247929
2.35001e-05
2.34591e-05
0.000251988
0.000570897
0.000559399
0.000246396
2.3172e-05
2.31443e-05
0.000250711
0.00056702
0.000556136
0.000245444
2.28667e-05
2.28483e-05
0.000249832
0.000564564
0.000554316
0.000244845
2.25962e-05
2.25805e-05
0.000249371
0.000563811
0.000554214
0.000244737
2.23597e-05
2.23463e-05
0.000249399
0.000564774
0.000555809
0.000245155
2.21769e-05
2.21543e-05
0.000249899
0.000567345
0.000559036
0.000246088
2.20457e-05
2.20163e-05
0.000250804
0.000571305
0.000563588
0.000247298
2.192e-05
2.19333e-05
0.000251938
0.000576546
0.0005694
0.00024858
2.18386e-05
2.18883e-05
0.000253059
0.000582868
0.000576191
0.000249886
2.18044e-05
2.18981e-05
0.000254002
0.000589534
0.00058311
0.000251018
2.18288e-05
2.1953e-05
0.000254781
0.000595926
0.00058963
0.00025184
2.18981e-05
2.2046e-05
0.000255527
0.000601755
0.000595579
0.000252498
2.20059e-05
2.21748e-05
0.000256122
0.000606889
0.000600856
0.000253103
2.21488e-05
2.23345e-05
0.000256662
0.000611278
0.000605357
0.000253439
2.23204e-05
2.25161e-05
0.000257064
0.000614995
0.000608948
0.000253657
2.2513e-05
2.27136e-05
0.000257336
0.000617888
0.000611467
0.000253772
2.27198e-05
2.292e-05
0.000257477
0.000620329
0.000613219
0.000253815
2.29339e-05
2.31287e-05
0.000257535
0.000621815
0.000614009
0.000253662
2.31487e-05
2.33343e-05
0.000257512
0.000622294
0.000613348
0.000253243
2.33586e-05
2.3531e-05
0.000257112
0.00062152
0.000611912
0.000252692
2.35567e-05
2.37121e-05
0.000256569
0.000619919
0.000609865
0.000252076
2.37372e-05
2.38736e-05
0.000255945
0.000617613
0.000607232
0.000251439
2.38966e-05
2.40132e-05
0.00025526
0.000614644
0.000604077
0.000250803
2.40331e-05
2.41299e-05
0.000254552
0.000611116
0.000600498
0.000250186
2.4146e-05
2.42235e-05
0.000253843
0.000607146
0.000596568
0.000249582
2.42354e-05
2.42954e-05
0.000253126
0.000602794
0.000592361
0.000248989
2.43034e-05
2.43466e-05
0.0002524
0.000598194
0.000587904
0.000248408
2.43534e-05
2.43839e-05
0.000251673
0.000593487
0.000583376
0.000247816
2.43895e-05
2.4408e-05
0.00025094
0.000588738
0.000578824
0.000247196
2.44117e-05
2.44223e-05
0.000250191
0.000584049
0.000574228
0.000246505
2.44211e-05
2.44272e-05
0.000249418
0.000579353
0.000569597
0.00024574
2.44144e-05
2.44195e-05
0.000248617
0.000574627
0.000564949
0.000244949
2.44012e-05
2.44035e-05
0.000247789
0.000569897
0.000560306
0.000244137
2.43791e-05
2.43816e-05
0.000246941
0.000565162
0.000555631
0.000243274
2.43502e-05
2.43512e-05
0.000246013
0.000560392
0.000550939
0.00024237
2.43141e-05
2.43143e-05
0.000245082
0.000555619
0.000546165
0.000241436
2.42778e-05
2.42755e-05
0.000244096
0.000550826
0.000541417
0.000240461
2.42371e-05
2.42356e-05
0.000243105
0.000546035
0.000536718
0.000239466
2.41941e-05
2.41935e-05
0.00024208
0.000541335
0.000532111
0.000238453
2.41425e-05
2.41602e-05
0.000241095
0.000536798
0.000527258
0.000237438
2.4086e-05
2.41123e-05
0.000239861
0.000532511
0.000523189
0.000235759
2.39942e-05
2.41426e-05
0.000240004
0.000531104
0.000524611
0.000239681
2.40813e-05
2.44755e-05
0.000240103
0.000530467
0.000555582
0.000252469
2.46581e-05
2.62676e-05
0.000236761
0.000540144
0.000824856
0.000344142
2.96267e-05
3.19773e-05
0.000178469
0.000409697
0.00101068
0.00231588
0.00432911
0.00617184
0.00743277
0.00976987
0.011262
0.0126009
0.0133546
0.0137151
0.0136138
0.0130081
0.0121458
0.0107627
0.00940668
0.00735084
0.00642282
0.00467358
0.00349671
0.00237513
0.0013502
0.000619867
0.000225956
9.39291e-05
1.81403e-05
1.1824e-05
8.7119e-05
0.000204825
0.000193451
8.27322e-05
1.13703e-05
1.09199e-05
7.9782e-05
0.000183431
0.000184195
7.86161e-05
1.08043e-05
1.07387e-05
7.81365e-05
0.000181183
0.000181211
7.73659e-05
1.06327e-05
1.0622e-05
7.73275e-05
0.000181
0.000181511
7.73684e-05
1.06373e-05
1.06373e-05
7.74757e-05
0.000181926
0.000182181
7.7605e-05
1.06549e-05
1.06629e-05
7.77266e-05
0.000182739
0.000182996
7.78557e-05
1.06723e-05
1.06894e-05
7.79955e-05
0.000183565
0.000183873
7.81234e-05
1.06844e-05
1.07022e-05
7.82886e-05
0.000184459
0.000184782
7.83946e-05
1.07112e-05
1.07309e-05
7.85748e-05
0.000185412
0.00018572
7.8671e-05
1.0731e-05
1.07368e-05
7.89295e-05
0.000186396
0.000186709
7.89877e-05
1.076e-05
1.07662e-05
7.92381e-05
0.000187391
0.000187708
7.93272e-05
1.07754e-05
1.07806e-05
7.95655e-05
0.000188402
0.000188719
7.96406e-05
1.08051e-05
1.08094e-05
7.98783e-05
0.000189431
0.000189763
7.99959e-05
1.08197e-05
1.08243e-05
8.02423e-05
0.000190492
0.000190828
8.03278e-05
1.08496e-05
1.08539e-05
8.05722e-05
0.000191557
0.000191896
8.06976e-05
1.08658e-05
1.08698e-05
8.09357e-05
0.000192642
0.00019299
8.10384e-05
1.08963e-05
1.09009e-05
8.12878e-05
0.000193766
0.000194129
8.14284e-05
1.09136e-05
1.09174e-05
8.16912e-05
0.000194944
0.000195327
8.18675e-05
1.0939e-05
1.09587e-05
8.20623e-05
0.000196122
0.000196498
8.22221e-05
1.09636e-05
1.0969e-05
8.25079e-05
0.000197303
0.000197675
8.26573e-05
1.09889e-05
1.10108e-05
8.28721e-05
0.000198477
0.000198856
8.30013e-05
1.10128e-05
1.10205e-05
8.3329e-05
0.000199694
0.000200078
8.34765e-05
1.10397e-05
1.10612e-05
8.37139e-05
0.000200914
0.000201305
8.3866e-05
1.10647e-05
1.10731e-05
8.4195e-05
0.000202151
0.000202538
8.43319e-05
1.10925e-05
1.11147e-05
8.45813e-05
0.000203382
0.000203777
8.47357e-05
1.11184e-05
1.11266e-05
8.50749e-05
0.000204625
0.00020501
8.52127e-05
1.11452e-05
1.11685e-05
8.54719e-05
0.000205841
0.000206216
8.5595e-05
1.11709e-05
1.11784e-05
8.59205e-05
0.000207037
0.000207394
8.60369e-05
1.11963e-05
1.12183e-05
8.62723e-05
0.000208185
0.000208517
8.63766e-05
1.12192e-05
1.12257e-05
8.66825e-05
0.000209283
0.000209584
8.67601e-05
1.12419e-05
1.12607e-05
8.69498e-05
0.000210298
0.000210546
8.70098e-05
1.12607e-05
1.12624e-05
8.72349e-05
0.000211177
0.000211388
8.72159e-05
1.12838e-05
1.12833e-05
8.73677e-05
0.000211926
0.000212088
8.73278e-05
1.1288e-05
1.12831e-05
8.73948e-05
0.000212541
0.000212656
8.72935e-05
1.13016e-05
1.1294e-05
8.72875e-05
0.000212972
0.00021303
8.71367e-05
1.12933e-05
1.1282e-05
8.70434e-05
0.000213177
0.000213107
8.67745e-05
1.12865e-05
1.12874e-05
8.64808e-05
0.000213098
0.000212773
8.60853e-05
1.12708e-05
1.12521e-05
8.5726e-05
0.000212653
0.000212136
8.52359e-05
1.12491e-05
1.12442e-05
8.46996e-05
0.000211957
0.000211302
8.40619e-05
1.12213e-05
1.12024e-05
8.35692e-05
0.000211212
0.000210453
8.27984e-05
1.12062e-05
1.11918e-05
8.2183e-05
0.000210282
0.000209238
8.13159e-05
1.11822e-05
1.11707e-05
8.06116e-05
0.000209046
0.000207909
7.96441e-05
1.11746e-05
1.11898e-05
7.8759e-05
0.000207722
0.000206541
7.77757e-05
1.11892e-05
1.12167e-05
7.71083e-05
0.000206706
0.000205905
7.62786e-05
1.12487e-05
1.1303e-05
7.56871e-05
0.000206407
0.000206175
7.49297e-05
1.13704e-05
1.14613e-05
7.44729e-05
0.000207132
0.000208207
7.36916e-05
1.15674e-05
1.16737e-05
7.31659e-05
0.000210457
0.000213708
7.40498e-05
1.17937e-05
1.19161e-05
7.44524e-05
0.000216508
0.00021797
7.39768e-05
1.19436e-05
1.20315e-05
7.2619e-05
0.000221364
0.000224849
7.65014e-05
1.22011e-05
1.23181e-05
7.423e-05
0.000227947
0.000230891
7.60712e-05
1.25193e-05
1.26663e-05
7.70843e-05
0.000236646
0.00023834
7.88016e-05
1.28783e-05
1.31792e-05
8.29178e-05
0.000245827
0.000246939
8.50656e-05
1.34762e-05
1.37422e-05
8.85986e-05
0.000253164
0.000255063
9.16942e-05
1.42637e-05
1.53223e-05
0.000106244
0.000266488
0.000264609
0.000111838
1.1476e-05
8.8089e-06
2.73669e-05
7.46455e-05
0.000207856
6.44782e-05
1.03853e-05
1.09351e-05
5.77822e-05
0.000190989
0.000200492
5.98848e-05
1.1174e-05
1.13496e-05
5.64552e-05
0.000191468
0.00020632
6.07275e-05
1.16608e-05
1.20019e-05
6.00123e-05
0.000203557
0.000224086
6.84011e-05
1.24195e-05
1.28531e-05
6.79366e-05
0.000219898
0.000241311
7.9381e-05
1.33792e-05
1.41324e-05
8.16966e-05
0.000242814
0.000270834
9.88609e-05
1.56406e-05
1.19476e-05
0.000108519
0.00027743
7.47662e-05
2.57122e-05
9.49183e-06
1.13099e-05
6.95464e-05
0.000232977
0.000228088
6.50389e-05
1.23541e-05
1.30728e-05
8.51167e-05
0.000281292
0.000286883
8.60769e-05
1.36501e-05
1.43998e-05
0.000100297
0.000319501
0.000328867
0.000107163
1.5406e-05
1.72789e-05
0.000128437
0.000358495
0.000348617
0.000138749
1.34879e-05
1.01933e-05
3.14777e-05
9.2148e-05
0.000283824
8.36074e-05
1.20377e-05
1.30518e-05
7.80213e-05
0.000278331
0.000319508
9.62875e-05
1.3938e-05
1.49415e-05
9.62446e-05
0.000314901
0.000356444
0.000122629
1.72497e-05
1.37343e-05
0.000140901
0.000357855
9.7159e-05
3.09487e-05
1.01277e-05
1.26272e-05
8.78733e-05
0.000320824
0.00033121
9.2952e-05
1.43293e-05
1.65699e-05
0.000131488
0.000426577
0.000446134
0.000153763
1.93464e-05
1.58115e-05
0.000177263
0.000450298
0.000124975
3.64766e-05
1.06602e-05
1.3852e-05
0.00011793
0.000399688
0.000397254
0.000114529
1.61699e-05
2.02671e-05
0.000170475
0.000502461
0.000510669
0.000197622
1.68359e-05
1.1217e-05
4.1146e-05
0.000155713
0.000517681
0.000152206
1.60852e-05
2.03541e-05
0.000161419
0.000557531
0.000773225
0.000271941
2.77415e-05
2.31565e-05
0.000290149
0.000743119
0.000262701
6.89642e-05
1.50948e-05
2.68674e-05
0.000281989
0.000809571
0.000810268
0.000301798
2.50664e-05
1.71597e-05
7.79552e-05
0.000319669
0.00111974
0.000372302
3.72971e-05
3.67539e-05
0.000428936
0.0012158
0.000553224
0.000152795
2.338e-05
3.72135e-05
0.000497427
0.00144991
0.000957682
0.000317519
2.47802e-05
4.59963e-05
0.000559827
0.00112926
0.000968682
0.000468341
3.78189e-05
3.83133e-05
0.000446469
0.00106244
0.00136314
0.00049283
4.39626e-05
6.0773e-05
0.000920471
0.00227349
0.000506503
0.000157497
3.45651e-05
3.53805e-05
0.000441692
0.00101209
0.000313068
0.000111882
2.46808e-05
2.67864e-05
0.000273334
0.000656247
0.000560531
0.000200968
2.69646e-05
1.46544e-05
5.13053e-05
0.000160571
0.000377471
0.000204457
1.77362e-05
1.67483e-05
6.65779e-05
0.000171789
0.000418015
0.000182758
1.91472e-05
2.0444e-05
0.000148869
0.000378496
0.000122947
4.61437e-05
1.35096e-05
1.61041e-05
0.000145279
0.000326843
0.000300054
0.000121562
1.80422e-05
1.25839e-05
3.94426e-05
0.000100154
0.000277547
0.000123549
1.46082e-05
1.68573e-05
0.000107606
0.000255375
8.86361e-05
3.70358e-05
1.22357e-05
1.37379e-05
0.000109887
0.000245759
0.000222387
9.68092e-05
1.61081e-05
1.19767e-05
3.42132e-05
7.92117e-05
0.000216395
9.90688e-05
1.30311e-05
1.56041e-05
8.72852e-05
0.000196985
7.12855e-05
3.21527e-05
1.18333e-05
1.26678e-05
9.19933e-05
0.00019487
0.000176004
8.08556e-05
1.51337e-05
1.15942e-05
3.03371e-05
6.60326e-05
0.000177986
8.49808e-05
1.21021e-05
1.48096e-05
7.54602e-05
0.000162452
6.39034e-05
3.0131e-05
1.16309e-05
1.21763e-05
8.64241e-05
0.000173288
0.000147624
7.00197e-05
1.53218e-05
1.27623e-05
5.50515e-05
0.000119825
4.72576e-05
2.14291e-05
1.03721e-05
1.00952e-05
5.72459e-05
0.000116238
0.000111505
5.36457e-05
1.30195e-05
1.06104e-05
2.2107e-05
4.58163e-05
0.000110164
5.60685e-05
1.00628e-05
1.28506e-05
5.12857e-05
0.000101515
4.26002e-05
2.11731e-05
1.02899e-05
9.64215e-06
5.15477e-05
9.67256e-05
9.26777e-05
4.90328e-05
1.24767e-05
1.03716e-05
2.05824e-05
4.04072e-05
9.25364e-05
4.98954e-05
9.7128e-06
1.24884e-05
4.7129e-05
8.68484e-05
3.877e-05
2.0036e-05
1.02233e-05
9.42325e-06
4.61008e-05
8.47904e-05
8.12237e-05
4.5193e-05
1.22729e-05
1.01058e-05
1.93563e-05
3.67187e-05
7.96302e-05
4.47797e-05
9.22176e-06
1.21002e-05
4.18503e-05
7.56692e-05
3.49679e-05
1.92414e-05
9.92995e-06
8.97639e-06
4.15606e-05
7.18112e-05
6.9017e-05
3.84908e-05
1.18554e-05
9.72926e-06
1.77323e-05
3.10662e-05
6.1718e-05
4.54912e-05
8.58428e-06
1.11138e-05
2.2033e-05
3.60573e-05
8.21995e-05
4.77676e-05
9.97685e-06
1.25922e-05
4.40384e-05
7.63846e-05
3.70385e-05
2.13405e-05
1.02929e-05
9.41305e-06
4.57769e-05
7.64985e-05
7.24962e-05
4.24927e-05
1.2409e-05
1.03254e-05
2.12758e-05
3.60231e-05
7.55596e-05
4.54073e-05
9.39481e-06
1.2268e-05
4.2253e-05
7.13692e-05
3.5191e-05
2.13181e-05
1.02314e-05
9.31854e-06
4.27871e-05
6.8312e-05
6.47049e-05
3.87224e-05
1.23622e-05
1.02656e-05
2.08647e-05
3.29074e-05
6.34259e-05
4.00349e-05
9.05088e-06
1.19311e-05
3.62295e-05
5.91225e-05
2.91096e-05
1.90257e-05
9.73561e-06
8.37791e-06
3.9153e-05
5.25869e-05
3.211e-05
2.20273e-05
1.10347e-05
9.76849e-06
3.95571e-05
6.30567e-05
5.76885e-05
3.58112e-05
1.243e-05
1.01327e-05
2.12091e-05
3.08301e-05
5.73651e-05
3.74603e-05
9.01997e-06
1.19482e-05
3.45422e-05
5.20744e-05
2.78153e-05
1.98652e-05
9.85853e-06
8.40134e-06
3.68094e-05
4.74839e-05
3.01155e-05
2.18176e-05
1.11103e-05
9.68482e-06
3.78645e-05
5.79408e-05
5.2427e-05
3.4237e-05
1.22922e-05
1.00856e-05
2.14367e-05
2.93156e-05
5.42092e-05
3.61174e-05
8.97256e-06
1.191e-05
3.28017e-05
4.90582e-05
2.66735e-05
1.99035e-05
9.79211e-06
8.39959e-06
3.43527e-05
4.36474e-05
2.83077e-05
2.14427e-05
1.11549e-05
9.57042e-06
3.52831e-05
5.35124e-05
4.81273e-05
3.22147e-05
1.22042e-05
1.00467e-05
2.13632e-05
2.73169e-05
4.86968e-05
3.32461e-05
8.97215e-06
1.19335e-05
3.0514e-05
4.44099e-05
2.51786e-05
1.9908e-05
1.00101e-05
8.45213e-06
3.20681e-05
3.90791e-05
2.60326e-05
2.10611e-05
1.10884e-05
9.34903e-06
3.16086e-05
4.75611e-05
4.24645e-05
2.89076e-05
1.20144e-05
9.71388e-06
2.01088e-05
2.43803e-05
3.82325e-05
3.17021e-05
8.1659e-06
1.09917e-05
2.13657e-05
2.58607e-05
4.69664e-05
3.12482e-05
9.27408e-06
1.21458e-05
2.88507e-05
4.21943e-05
2.46363e-05
2.06978e-05
9.98721e-06
8.38149e-06
3.10764e-05
3.77933e-05
2.59291e-05
2.18514e-05
1.10089e-05
9.18145e-06
3.1311e-05
4.63445e-05
4.15421e-05
2.88117e-05
1.20112e-05
9.90509e-06
2.07435e-05
2.44122e-05
3.74276e-05
3.16131e-05
8.20719e-06
1.10553e-05
2.20303e-05
2.57405e-05
4.56558e-05
3.06316e-05
9.32903e-06
1.2177e-05
2.84659e-05
4.09702e-05
2.43436e-05
2.11947e-05
9.94854e-06
8.33795e-06
3.13265e-05
3.6731e-05
2.55822e-05
2.23622e-05
1.10929e-05
9.31122e-06
3.0439e-05
4.47362e-05
4.00841e-05
2.81017e-05
1.20733e-05
1.00794e-05
2.1037e-05
2.39926e-05
3.51079e-05
3.11824e-05
8.32398e-06
1.09031e-05
2.29864e-05
2.54246e-05
3.86995e-05
2.9864e-05
8.75514e-06
1.13451e-05
2.30945e-05
2.68221e-05
4.57131e-05
3.04751e-05
9.51071e-06
1.20963e-05
2.83945e-05
4.07798e-05
2.46788e-05
2.18212e-05
9.86192e-06
8.22342e-06
3.13533e-05
3.64963e-05
2.57689e-05
2.32676e-05
1.11597e-05
9.35675e-06
3.01293e-05
4.4028e-05
3.95947e-05
2.8149e-05
1.2182e-05
1.01218e-05
2.17104e-05
2.41532e-05
3.48808e-05
3.09666e-05
8.45034e-06
1.10956e-05
2.35282e-05
2.5642e-05
3.81105e-05
2.97759e-05
8.97275e-06
1.13286e-05
2.36204e-05
2.67853e-05
4.48988e-05
3.01053e-05
9.37535e-06
1.21412e-05
2.82493e-05
4.00657e-05
2.46826e-05
2.26073e-05
9.94025e-06
8.25224e-06
3.15032e-05
3.58825e-05
2.65538e-05
2.44563e-05
1.11594e-05
8.95302e-06
3.0487e-05
3.91357e-05
2.77088e-05
2.49751e-05
1.14582e-05
9.55689e-06
3.05762e-05
4.57813e-05
4.08723e-05
2.88129e-05
1.23697e-05
1.01118e-05
2.31378e-05
2.53367e-05
3.62591e-05
3.24155e-05
8.35999e-06
1.11456e-05
2.48761e-05
2.69674e-05
3.92254e-05
3.10564e-05
8.96502e-06
1.14838e-05
2.53248e-05
2.79973e-05
4.59305e-05
3.1014e-05
9.56813e-06
1.23243e-05
2.92708e-05
4.10586e-05
2.57916e-05
2.39578e-05
1.01091e-05
8.45961e-06
3.26647e-05
3.68763e-05
2.76325e-05
2.57286e-05
1.13406e-05
9.18022e-06
3.15626e-05
3.99439e-05
2.87098e-05
2.61042e-05
1.15227e-05
9.52872e-06
3.12954e-05
4.62799e-05
4.13094e-05
2.94656e-05
1.22386e-05
1.00167e-05
2.37331e-05
2.56906e-05
3.64277e-05
3.2491e-05
8.41034e-06
1.13349e-05
2.53506e-05
2.72465e-05
3.88829e-05
3.09319e-05
9.13469e-06
1.15912e-05
2.58727e-05
2.81024e-05
4.47873e-05
3.06093e-05
9.60513e-06
1.24109e-05
2.9046e-05
4.00764e-05
2.5536e-05
2.40808e-05
1.01795e-05
8.46102e-06
3.24212e-05
3.61372e-05
2.73238e-05
2.55869e-05
1.12766e-05
8.93355e-06
3.05687e-05
3.85488e-05
2.86791e-05
2.61333e-05
1.13991e-05
9.07391e-06
3.12329e-05
4.01076e-05
2.94982e-05
2.77228e-05
1.15761e-05
9.64414e-06
3.19178e-05
4.60178e-05
4.11803e-05
3.03501e-05
1.23555e-05
1.02221e-05
2.51372e-05
2.65725e-05
3.68807e-05
3.37185e-05
8.55369e-06
1.13705e-05
2.63609e-05
2.80704e-05
3.88871e-05
3.1134e-05
9.1661e-06
1.15493e-05
2.66499e-05
2.92105e-05
4.02707e-05
3.16649e-05
9.15014e-06
1.16079e-05
2.82017e-05
2.98787e-05
4.60589e-05
3.21999e-05
9.63188e-06
1.23808e-05
3.05977e-05
4.12854e-05
2.69476e-05
2.56814e-05
1.02032e-05
8.4722e-06
3.40535e-05
3.73626e-05
2.86673e-05
2.70969e-05
1.14591e-05
9.19544e-06
3.15971e-05
3.97815e-05
3.00058e-05
2.76272e-05
1.16358e-05
9.29337e-06
3.25867e-05
4.11559e-05
3.07955e-05
2.92688e-05
1.17694e-05
9.7977e-06
3.31375e-05
4.68876e-05
4.2113e-05
3.14869e-05
1.25104e-05
1.01928e-05
2.62748e-05
2.7776e-05
3.77068e-05
3.46456e-05
8.51579e-06
1.15238e-05
2.76021e-05
2.92164e-05
3.98046e-05
3.19649e-05
9.16434e-06
1.16368e-05
2.77566e-05
3.01794e-05
4.08496e-05
3.24034e-05
9.25182e-06
1.18353e-05
2.93629e-05
3.0849e-05
4.60995e-05
3.27408e-05
9.78428e-06
1.25831e-05
3.15227e-05
4.1822e-05
2.81457e-05
2.69756e-05
1.05011e-05
8.84254e-06
3.47173e-05
3.77134e-05
2.96425e-05
2.8296e-05
1.16333e-05
9.22207e-06
3.26394e-05
4.00811e-05
3.07098e-05
2.84232e-05
1.16391e-05
9.17078e-06
3.25311e-05
4.10501e-05
3.14977e-05
2.9222e-05
1.16553e-05
9.34081e-06
3.40869e-05
4.21091e-05
3.20084e-05
3.08906e-05
1.17857e-05
9.79352e-06
3.42655e-05
4.74469e-05
4.29609e-05
3.27058e-05
1.2545e-05
1.02786e-05
2.72112e-05
2.89138e-05
3.80059e-05
3.52768e-05
8.54851e-06
1.16964e-05
2.85546e-05
3.01765e-05
3.99426e-05
3.24389e-05
9.35304e-06
1.1825e-05
2.89128e-05
3.10985e-05
4.09531e-05
3.269e-05
9.28889e-06
1.17455e-05
2.98993e-05
3.1824e-05
4.23975e-05
3.44406e-05
9.39985e-06
1.18815e-05
3.16022e-05
3.25382e-05
4.81512e-05
3.49891e-05
9.86424e-06
1.27023e-05
3.36016e-05
4.37184e-05
3.00586e-05
2.88399e-05
1.04646e-05
8.67446e-06
3.70784e-05
3.95796e-05
3.14906e-05
3.0119e-05
1.16613e-05
9.22514e-06
3.42533e-05
4.19675e-05
3.26117e-05
3.02611e-05
1.17956e-05
9.38519e-06
3.44908e-05
4.29401e-05
3.33723e-05
3.12762e-05
1.18033e-05
9.4055e-06
3.61236e-05
4.41556e-05
3.40112e-05
3.28855e-05
1.19373e-05
9.99183e-06
3.62091e-05
4.94192e-05
4.49947e-05
3.46665e-05
1.27208e-05
1.04631e-05
2.94342e-05
3.10589e-05
3.99296e-05
3.72673e-05
8.79637e-06
1.18346e-05
3.07003e-05
3.23641e-05
4.1976e-05
3.4638e-05
9.45579e-06
1.20078e-05
3.07593e-05
3.33015e-05
4.27454e-05
3.43166e-05
9.49656e-06
1.19842e-05
3.17539e-05
3.38054e-05
4.40479e-05
3.60862e-05
9.61061e-06
1.20862e-05
3.36792e-05
3.43686e-05
4.94152e-05
3.68329e-05
1.00138e-05
1.29003e-05
3.55106e-05
4.53561e-05
3.18811e-05
3.06103e-05
1.06001e-05
8.84613e-06
3.86611e-05
4.09478e-05
3.33054e-05
3.18316e-05
1.18733e-05
9.45868e-06
3.5689e-05
4.31239e-05
3.44203e-05
3.19922e-05
1.20427e-05
9.54875e-06
3.57422e-05
4.42594e-05
3.51853e-05
3.28924e-05
1.19801e-05
9.60218e-06
3.74589e-05
4.53695e-05
3.55765e-05
3.4562e-05
1.20782e-05
1.00349e-05
3.75984e-05
5.04489e-05
4.6178e-05
3.62231e-05
1.29524e-05
1.06357e-05
3.0978e-05
3.25394e-05
4.07826e-05
3.88e-05
8.8608e-06
1.1999e-05
3.22001e-05
3.37683e-05
4.23213e-05
3.53973e-05
9.52849e-06
1.2152e-05
3.23525e-05
3.45216e-05
4.32712e-05
3.54337e-05
9.62137e-06
1.2061e-05
3.31782e-05
3.5118e-05
4.44937e-05
3.68545e-05
9.60378e-06
1.20248e-05
3.43286e-05
3.60783e-05
4.61621e-05
3.87103e-05
9.60663e-06
1.21449e-05
3.60959e-05
3.66529e-05
5.1911e-05
3.9046e-05
1.01112e-05
1.31323e-05
3.78418e-05
4.78184e-05
3.43769e-05
3.32888e-05
1.09048e-05
9.06345e-06
4.12316e-05
4.32675e-05
3.58792e-05
3.46397e-05
1.20798e-05
9.63801e-06
3.83296e-05
4.55256e-05
3.69667e-05
3.47429e-05
1.21884e-05
9.65916e-06
3.8662e-05
4.68478e-05
3.79063e-05
3.57273e-05
1.21047e-05
9.67778e-06
4.04404e-05
4.85096e-05
3.87074e-05
3.75666e-05
1.22523e-05
1.02505e-05
4.06688e-05
5.37877e-05
4.93173e-05
3.93013e-05
1.32766e-05
1.09306e-05
3.43566e-05
3.56304e-05
4.42701e-05
4.24551e-05
9.10926e-06
1.21995e-05
3.55894e-05
3.71503e-05
4.58198e-05
3.91615e-05
9.75376e-06
1.22992e-05
3.53763e-05
3.77941e-05
4.64697e-05
3.87297e-05
9.82323e-06
1.2239e-05
3.62696e-05
3.83373e-05
4.76994e-05
4.02474e-05
9.7792e-06
1.23997e-05
3.81193e-05
3.87677e-05
5.30384e-05
4.06321e-05
1.03233e-05
1.35258e-05
3.96937e-05
4.90135e-05
3.6311e-05
3.55034e-05
1.11723e-05
9.21982e-06
4.30906e-05
4.4574e-05
3.78368e-05
3.68484e-05
1.23156e-05
9.84167e-06
4.02798e-05
4.67237e-05
3.89179e-05
3.68887e-05
1.23862e-05
9.80275e-06
4.02881e-05
4.78351e-05
3.96278e-05
3.782e-05
1.23263e-05
9.90052e-06
4.17037e-05
4.94754e-05
4.04844e-05
3.98801e-05
1.25954e-05
1.04771e-05
4.23908e-05
5.4865e-05
5.05235e-05
4.13306e-05
1.36253e-05
1.12064e-05
3.68764e-05
3.77347e-05
4.60292e-05
4.49055e-05
9.28708e-06
1.23709e-05
3.78705e-05
3.92384e-05
4.75076e-05
4.11544e-05
9.88709e-06
1.25584e-05
3.78632e-05
3.99839e-05
4.82378e-05
4.10376e-05
9.93959e-06
1.25817e-05
3.89508e-05
4.06322e-05
4.95622e-05
4.23816e-05
1.00165e-05
1.28671e-05
4.11113e-05
4.11858e-05
5.50427e-05
4.3114e-05
1.07757e-05
1.40596e-05
4.2394e-05
5.10812e-05
3.91129e-05
3.88562e-05
1.1551e-05
9.61807e-06
4.61986e-05
4.73473e-05
4.07473e-05
4.00244e-05
1.26092e-05
1.00534e-05
4.37911e-05
4.96414e-05
4.19419e-05
4.02477e-05
1.27967e-05
1.00601e-05
4.37515e-05
5.10864e-05
4.2481e-05
4.18614e-05
1.3005e-05
1.09204e-05
4.3748e-05
5.59759e-05
5.17267e-05
4.30083e-05
1.43402e-05
1.16882e-05
3.91443e-05
3.96879e-05
4.70358e-05
4.63246e-05
9.67513e-06
1.28339e-05
4.03087e-05
4.1117e-05
4.87544e-05
4.35055e-05
1.0258e-05
1.30803e-05
4.05393e-05
4.19953e-05
4.99821e-05
4.30991e-05
1.03135e-05
1.33365e-05
4.25566e-05
4.24625e-05
5.48894e-05
4.37872e-05
1.10375e-05
1.45448e-05
4.34117e-05
5.11602e-05
4.03894e-05
4.04777e-05
1.19397e-05
9.8414e-06
4.72454e-05
4.75978e-05
4.18881e-05
4.16759e-05
1.30069e-05
1.02463e-05
4.40786e-05
4.98268e-05
4.30947e-05
4.20336e-05
1.32499e-05
1.05148e-05
4.45697e-05
5.13153e-05
4.38263e-05
4.39111e-05
1.35158e-05
1.11936e-05
4.50219e-05
5.5982e-05
5.21836e-05
4.46955e-05
1.4872e-05
1.20272e-05
4.123e-05
4.16037e-05
4.78831e-05
4.7979e-05
9.84071e-06
1.32493e-05
4.25299e-05
4.27579e-05
4.9807e-05
4.49506e-05
1.05377e-05
1.35151e-05
4.29937e-05
4.38226e-05
5.13514e-05
4.48334e-05
1.06629e-05
1.38852e-05
4.53028e-05
4.44969e-05
5.65168e-05
4.59326e-05
1.15512e-05
1.52096e-05
4.57523e-05
5.29075e-05
4.28513e-05
4.34259e-05
1.23019e-05
1.01089e-05
4.9851e-05
4.97274e-05
4.44969e-05
4.49472e-05
1.36116e-05
1.08184e-05
4.73018e-05
5.23322e-05
4.60157e-05
4.55038e-05
1.39788e-05
1.11224e-05
4.7208e-05
5.42156e-05
4.7089e-05
4.79126e-05
1.44277e-05
1.19807e-05
4.851e-05
5.93386e-05
5.56298e-05
4.84649e-05
1.58422e-05
1.28488e-05
4.57529e-05
4.55594e-05
5.19412e-05
5.23686e-05
1.0518e-05
1.40013e-05
4.71562e-05
4.68551e-05
5.4374e-05
4.91674e-05
1.11649e-05
1.4727e-05
4.88019e-05
4.7926e-05
5.92965e-05
4.88324e-05
1.22482e-05
1.61225e-05
4.84876e-05
5.58232e-05
4.59359e-05
4.67614e-05
1.31604e-05
1.06757e-05
5.27785e-05
5.23908e-05
4.77026e-05
4.84574e-05
1.43659e-05
1.146e-05
5.0325e-05
5.52908e-05
4.93876e-05
4.94612e-05
1.49028e-05
1.18578e-05
5.06068e-05
5.76889e-05
5.08945e-05
5.24225e-05
1.54516e-05
1.28451e-05
5.2609e-05
6.33994e-05
5.95111e-05
5.27695e-05
1.6984e-05
1.38782e-05
5.09247e-05
4.99118e-05
5.6404e-05
5.73217e-05
1.12437e-05
1.5073e-05
5.24006e-05
5.16965e-05
5.95184e-05
5.39832e-05
1.20654e-05
1.58659e-05
5.43174e-05
5.28958e-05
6.50882e-05
5.40037e-05
1.29678e-05
1.73404e-05
5.42076e-05
6.15294e-05
5.1999e-05
5.33898e-05
1.46056e-05
1.19898e-05
5.87546e-05
5.84155e-05
5.37321e-05
5.52537e-05
1.59478e-05
1.27784e-05
5.6352e-05
6.20225e-05
5.54962e-05
5.75239e-05
1.67925e-05
1.40019e-05
5.68212e-05
6.79638e-05
6.423e-05
5.71708e-05
1.85222e-05
1.51481e-05
5.6041e-05
5.4673e-05
6.13967e-05
6.17799e-05
1.22724e-05
1.67182e-05
5.88595e-05
5.63408e-05
6.77655e-05
5.77216e-05
1.39406e-05
1.86292e-05
5.77306e-05
6.45358e-05
5.49668e-05
5.57662e-05
1.51694e-05
1.21135e-05
6.24344e-05
6.12228e-05
5.66148e-05
5.76452e-05
1.65189e-05
1.32356e-05
5.8234e-05
6.39695e-05
5.78809e-05
5.99517e-05
1.75808e-05
1.46399e-05
5.85915e-05
6.94303e-05
6.60974e-05
5.94362e-05
1.94778e-05
1.59504e-05
5.89204e-05
5.74057e-05
6.32815e-05
6.37127e-05
1.30872e-05
1.77537e-05
6.22191e-05
5.89289e-05
6.94735e-05
6.02723e-05
1.48827e-05
1.98871e-05
6.0519e-05
6.64629e-05
5.83696e-05
6.0155e-05
1.64018e-05
1.32584e-05
6.48797e-05
6.40035e-05
5.95235e-05
6.29751e-05
1.78828e-05
1.4608e-05
6.05563e-05
6.99842e-05
6.70801e-05
6.11595e-05
1.99602e-05
1.66959e-05
6.06027e-05
5.89573e-05
6.44205e-05
6.47777e-05
1.36708e-05
1.86288e-05
6.4317e-05
6.06074e-05
7.02126e-05
6.15672e-05
1.54515e-05
2.08381e-05
6.21495e-05
6.73993e-05
6.01997e-05
6.2472e-05
1.71227e-05
1.38731e-05
6.63267e-05
6.52553e-05
6.16235e-05
6.56829e-05
1.88084e-05
1.55384e-05
6.26675e-05
7.13938e-05
6.85993e-05
6.31489e-05
2.09325e-05
1.72027e-05
6.32859e-05
6.12035e-05
6.64032e-05
6.84725e-05
1.34511e-05
1.88349e-05
6.67225e-05
6.27113e-05
7.22043e-05
6.31069e-05
1.58858e-05
2.16943e-05
6.38785e-05
6.94607e-05
6.28923e-05
6.62595e-05
1.81451e-05
1.48175e-05
6.8719e-05
6.79222e-05
6.49793e-05
7.04598e-05
2.01368e-05
1.67546e-05
6.66582e-05
7.50324e-05
7.22496e-05
6.74871e-05
2.24686e-05
1.85428e-05
6.91024e-05
6.58131e-05
7.09387e-05
7.20449e-05
1.50181e-05
2.04738e-05
7.34139e-05
6.77345e-05
7.85687e-05
6.99601e-05
1.68753e-05
2.24792e-05
6.98909e-05
7.57574e-05
6.8836e-05
7.48125e-05
1.96418e-05
1.69426e-05
7.43851e-05
7.77221e-05
7.52799e-05
7.41585e-05
2.35389e-05
1.99577e-05
7.40657e-05
7.00839e-05
7.57914e-05
7.63116e-05
1.63794e-05