/*--------------------------------*- C++ -*----------------------------------*\
| =========                 |                                                 |
| \\      /  F ield         | OpenFOAM: The Open Source CFD Toolbox           |
|  \\    /   O peration     | Version:  v2006                                 |
|   \\  /    A nd           | Website:  www.openfoam.com                      |
|    \\/     M anipulation  |                                                 |
\*---------------------------------------------------------------------------*/
FoamFile
{
    version     2.0;
    format      ascii;
    class       volScalarField;
    location    "0.103";
    object      alphat;
}
// * * * * * * * * * * * * * * * * * * * * * * * * * * * * * * * * * * * * * //

dimensions      [1 -1 -1 0 0 0 0];


internalField   nonuniform List<scalar> 
16277
(
52.329
49.1441
96.7303
32.8167
46.0703
19.3475
6.56012
2.58303
1.40151
0.951975
0.749039
0.646058
0.584629
0.539975
0.502327
0.468416
0.437535
0.409751
0.385103
0.363422
0.344375
0.327562
0.312605
0.299177
0.287024
0.275948
0.265799
0.256461
0.247844
0.23987
0.232476
0.225609
0.219223
0.213276
0.207735
0.20257
0.197755
0.193267
0.189085
0.185192
0.181571
0.178209
0.175093
0.172213
0.169558
0.167122
0.164896
0.162874
0.161053
0.159429
0.157999
0.156763
0.15572
0.154871
0.154216
0.15376
0.153509
0.153469
0.153648
0.154049
0.154686
0.155571
0.156721
0.158155
0.159893
0.161962
0.164392
0.16722
0.170494
0.174275
0.178644
0.183705
0.189596
0.196476
0.204503
0.213784
0.224326
0.23605
0.249061
0.264499
0.286358
0.325977
0.412482
0.62173
1.158
2.43465
4.29881
4.59721
2.72416
1.7995
0.886015
0.403988
0.219663
0.103639
0.0245576
0.00441851
0.0001464
0.000127054
0.00207673
0.00956442
0.00527017
0.00134567
0.00011128
9.96369e-05
0.00122688
0.00443178
0.00353618
0.00105454
9.20689e-05
8.61342e-05
0.00102197
0.00335343
0.00290156
0.000920533
8.108e-05
7.76729e-05
0.000904697
0.00282632
0.00257243
0.000843074
7.43145e-05
7.24986e-05
0.000848154
0.00254625
0.00238182
0.000803043
7.02802e-05
6.90876e-05
0.00081025
0.00236723
0.00224242
0.000773926
6.7451e-05
6.66267e-05
0.000781079
0.00223589
0.00213273
0.00075027
6.5348e-05
6.47501e-05
0.000757219
0.0021307
0.00204133
0.000730108
6.37119e-05
6.32626e-05
0.000737034
0.00204219
0.00196266
0.000712411
6.23847e-05
6.20307e-05
0.000719366
0.00196542
0.00189328
0.000696439
6.12596e-05
6.09712e-05
0.000703313
0.0018973
0.00183098
0.000681712
6.02782e-05
6.00359e-05
0.000688501
0.00183591
0.0017744
0.000668009
5.93999e-05
5.91901e-05
0.000674729
0.00178
0.00172256
0.000655202
5.85971e-05
5.84111e-05
0.000661861
0.00172874
0.00167471
0.000643181
5.7852e-05
5.76842e-05
0.000649777
0.00168141
0.00163039
0.000631843
5.71521e-05
5.69984e-05
0.000638373
0.00163754
0.00158921
0.000621111
5.64884e-05
5.63459e-05
0.000627577
0.00159675
0.00155086
0.000610929
5.58544e-05
5.57207e-05
0.000617344
0.00155876
0.0015151
0.000601272
5.52449e-05
5.51189e-05
0.00060764
0.00152327
0.00148162
0.000592099
5.46565e-05
5.45373e-05
0.000598416
0.00149002
0.00145016
0.000583358
5.40865e-05
5.3973e-05
0.000589619
0.00145871
0.00142047
0.000575
5.35318e-05
5.34232e-05
0.000581201
0.00142913
0.00139234
0.000566978
5.29899e-05
5.28853e-05
0.000573114
0.00140106
0.00136557
0.000559245
5.24582e-05
5.23568e-05
0.00056531
0.00137432
0.00134001
0.000551758
5.19343e-05
5.18354e-05
0.000557746
0.00134875
0.00131551
0.000544475
5.14158e-05
5.13187e-05
0.000550381
0.00132422
0.00129195
0.000537362
5.09006e-05
5.08045e-05
0.000543182
0.0013006
0.00126922
0.000530388
5.03865e-05
5.02909e-05
0.00053612
0.0012778
0.00124722
0.000523529
4.98717e-05
4.97758e-05
0.000529171
0.00125571
0.00122588
0.000516762
4.93543e-05
4.92576e-05
0.000522313
0.00123427
0.00120514
0.000510072
4.88326e-05
4.87348e-05
0.000515533
0.00121344
0.00118495
0.000503446
4.83051e-05
4.82059e-05
0.000508821
0.00119315
0.00116529
0.00049688
4.77706e-05
4.76697e-05
0.000502188
0.0011734
0.00114612
0.000490376
4.72278e-05
4.71255e-05
0.000495674
0.00115417
0.00112746
0.000483958
4.66765e-05
4.65726e-05
0.000489229
0.00113545
0.0011093
0.000477601
4.61158e-05
4.60104e-05
0.000482866
0.00111724
0.00109163
0.000471327
4.55452e-05
4.54385e-05
0.000476609
0.00109955
0.0010745
0.000465164
4.49646e-05
4.4857e-05
0.000470489
0.00108244
0.00105796
0.000459149
4.43745e-05
4.42666e-05
0.000464549
0.00106597
0.00104208
0.000453328
4.3776e-05
4.36688e-05
0.000458849
0.00105037
0.00102705
0.000447773
4.31711e-05
4.30661e-05
0.000453468
0.0010358
0.001013
0.00044257
4.25632e-05
4.24624e-05
0.000448493
0.00102226
0.00100004
0.000437811
4.19564e-05
4.18623e-05
0.000444029
0.00100999
0.000988433
0.000433609
4.13561e-05
4.12719e-05
0.000440204
0.000999275
0.00097848
0.000430107
4.0769e-05
4.06995e-05
0.000437166
0.000990421
0.000970514
0.000427484
4.02032e-05
4.01565e-05
0.000434986
0.000983772
0.000964923
0.000425862
3.96764e-05
3.96456e-05
0.00043349
0.000979577
0.000961825
0.000424851
3.92094e-05
3.91832e-05
0.000432715
0.000978327
0.000961697
0.000424684
3.88011e-05
3.87786e-05
0.000432783
0.000980041
0.000964499
0.000425427
3.84852e-05
3.84466e-05
0.000433665
0.000984532
0.000970121
0.000427055
3.82585e-05
3.82078e-05
0.000435243
0.000991419
0.000978029
0.000429158
3.80406e-05
3.80636e-05
0.000437209
0.00100051
0.000988104
0.000431379
3.78989e-05
3.79845e-05
0.000439146
0.00101146
0.000999858
0.000433632
3.78382e-05
3.79998e-05
0.000440765
0.00102299
0.00101182
0.000435576
3.78785e-05
3.80928e-05
0.000442093
0.00103403
0.00102307
0.000436977
3.79963e-05
3.82516e-05
0.000443358
0.00104408
0.00103333
0.000438088
3.81806e-05
3.84722e-05
0.000444359
0.00105291
0.00104241
0.000439105
3.84257e-05
3.87462e-05
0.00044526
0.00106044
0.00105013
0.000439651
3.87202e-05
3.9058e-05
0.000445921
0.00106681
0.00105628
0.000439994
3.9051e-05
3.93972e-05
0.000446356
0.00107174
0.00106057
0.000440156
3.94064e-05
3.97518e-05
0.000446563
0.00107589
0.00106352
0.000440197
3.97744e-05
4.01105e-05
0.000446629
0.00107839
0.00106481
0.000439897
4.01436e-05
4.04637e-05
0.000446557
0.00107914
0.00106359
0.000439139
4.05043e-05
4.08017e-05
0.000445832
0.00107773
0.00106104
0.000438155
4.08447e-05
4.11128e-05
0.000444864
0.00107489
0.00105743
0.000437061
4.1155e-05
4.13902e-05
0.000443757
0.00107084
0.00105281
0.000435929
4.14289e-05
4.16297e-05
0.000442544
0.00106564
0.00104728
0.000434802
4.16632e-05
4.18295e-05
0.000441296
0.00105948
0.00104104
0.000433713
4.18567e-05
4.19909e-05
0.000440047
0.00105256
0.00103422
0.000432665
4.20112e-05
4.21163e-05
0.000438797
0.00104501
0.00102691
0.000431635
4.21296e-05
4.2204e-05
0.000437539
0.00103702
0.00101916
0.000430598
4.22149e-05
4.22659e-05
0.000436263
0.00102883
0.00101126
0.000429544
4.22742e-05
4.23059e-05
0.000434962
0.00102053
0.00100328
0.000428453
4.23108e-05
4.23289e-05
0.000433644
0.0010123
0.000995205
0.000427242
4.23236e-05
4.23339e-05
0.000432274
0.00100406
0.000987096
0.000425887
4.231e-05
4.23182e-05
0.000430853
0.000995792
0.000978996
0.0004245
4.22835e-05
4.22901e-05
0.000429414
0.000987556
0.000970944
0.000423091
4.22465e-05
4.22509e-05
0.000427941
0.000979365
0.000962915
0.00042163
4.21999e-05
4.22024e-05
0.000426402
0.000971194
0.000954842
0.000420111
4.21446e-05
4.21454e-05
0.000424819
0.000963022
0.000946724
0.000418525
4.20829e-05
4.20813e-05
0.000423142
0.000954842
0.000938601
0.000416861
4.20144e-05
4.20142e-05
0.000421452
0.000946715
0.000930616
0.000415178
4.19434e-05
4.19411e-05
0.000419725
0.000938679
0.000922684
0.000413432
4.18499e-05
4.18804e-05
0.000417982
0.000930729
0.000914093
0.0004116
4.17513e-05
4.17979e-05
0.000415759
0.000923139
0.000906901
0.000408618
4.15897e-05
4.18474e-05
0.000415982
0.000920661
0.00090947
0.000415474
4.17385e-05
4.2423e-05
0.000416178
0.000919564
0.000963076
0.000437616
4.27451e-05
4.55392e-05
0.000410399
0.000936293
0.00142976
0.000596467
5.13549e-05
5.54197e-05
0.000309283
0.000709964
0.00175145
0.00401383
0.00750366
0.0106978
0.0128833
0.0169341
0.0195203
0.0218409
0.0231474
0.0237723
0.0235966
0.0225467
0.021052
0.0186547
0.0163043
0.0127409
0.0111324
0.00810037
0.00606052
0.00411625
0.00233978
0.00107404
0.000391931
0.000162842
3.14188e-05
2.05033e-05
0.00015105
0.000354797
0.000335429
0.000143471
1.97372e-05
1.89218e-05
0.000138118
0.000317618
0.000319004
0.000136135
1.8719e-05
1.86034e-05
0.00013541
0.000313868
0.000314038
0.000134078
1.84239e-05
1.84065e-05
0.000134007
0.000313712
0.000314601
0.000134083
1.84344e-05
1.84381e-05
0.000134279
0.000315287
0.000315832
0.000134505
1.84654e-05
1.8481e-05
0.000134731
0.000316751
0.000317194
0.00013495
1.84984e-05
1.85269e-05
0.000135176
0.000318184
0.000318706
0.00013543
1.85194e-05
1.85473e-05
0.000135688
0.000319722
0.000320298
0.00013588
1.85629e-05
1.85975e-05
0.00013619
0.000321348
0.000321885
0.000136342
1.85976e-05
1.86066e-05
0.000136777
0.000322987
0.000323519
0.000136881
1.86475e-05
1.86544e-05
0.000137271
0.000324719
0.000325271
0.000137473
1.86742e-05
1.86789e-05
0.000137858
0.00032646
0.00032701
0.000138022
1.87242e-05
1.87327e-05
0.000138423
0.000328228
0.000328843
0.000138612
1.87492e-05
1.87576e-05
0.000139042
0.000330124
0.000330733
0.000139211
1.88042e-05
1.88101e-05
0.000139613
0.00033199
0.000332563
0.000139846
1.88311e-05
1.88367e-05
0.000140268
0.000333854
0.000334472
0.000140459
1.88837e-05
1.8894e-05
0.000140905
0.000335843
0.000336493
0.00014113
1.89131e-05
1.89228e-05
0.000141583
0.000337878
0.000338514
0.000141864
1.8958e-05
1.89925e-05
0.000142214
0.000339869
0.000340495
0.000142484
1.8999e-05
1.90098e-05
0.000142986
0.00034192
0.000342596
0.000143254
1.90444e-05
1.90816e-05
0.000143634
0.000344021
0.000344715
0.000143888
1.90884e-05
1.90996e-05
0.000144424
0.000346146
0.000346808
0.000144687
1.91337e-05
1.91722e-05
0.000145102
0.000348235
0.000348898
0.00014535
1.91767e-05
1.91905e-05
0.000145924
0.0003504
0.000351096
0.000146188
1.9225e-05
1.92633e-05
0.000146608
0.000352535
0.000353221
0.000146867
1.92704e-05
1.92832e-05
0.000147439
0.00035468
0.000355347
0.000147689
1.93165e-05
1.93553e-05
0.00014812
0.000356794
0.000357447
0.000148349
1.93606e-05
1.93728e-05
0.000148923
0.00035889
0.000359512
0.000149141
1.94045e-05
1.94427e-05
0.000149549
0.000360865
0.000361434
0.000149728
1.9445e-05
1.94543e-05
0.000150243
0.000362747
0.000363252
0.000150385
1.94833e-05
1.95159e-05
0.000150685
0.000364458
0.000364864
0.000150761
1.95128e-05
1.95173e-05
0.000151162
0.000365981
0.000366363
0.0001511
1.95528e-05
1.95517e-05
0.000151383
0.000367254
0.000367516
0.000151335
1.95599e-05
1.95548e-05
0.000151477
0.000368246
0.000368454
0.000151264
1.95851e-05
1.95741e-05
0.000151255
0.000369023
0.00036912
0.000150968
1.95721e-05
1.95542e-05
0.00015081
0.000369396
0.000369298
0.000150367
1.95615e-05
1.95638e-05
0.000149886
0.000369325
0.000368834
0.00014928
1.95347e-05
1.95068e-05
0.000148729
0.000368687
0.000367825
0.000147827
1.94996e-05
1.94912e-05
0.000146871
0.000367556
0.000366479
0.000145746
1.94514e-05
1.94156e-05
0.000144822
0.000366159
0.00036473
0.00014348
1.94195e-05
1.93876e-05
0.000142392
0.000364281
0.000362521
0.000140947
1.93774e-05
1.93565e-05
0.0001396
0.000361945
0.000360131
0.000137923
1.93606e-05
1.93845e-05
0.000136527
0.000360138
0.000358572
0.000134947
1.93957e-05
1.94374e-05
0.000133698
0.000358478
0.000356728
0.000132209
1.9495e-05
1.95826e-05
0.000131004
0.000357245
0.000356922
0.000129741
1.96876e-05
1.98584e-05
0.000129172
0.000359334
0.000360858
0.000127866
2.00441e-05
2.02248e-05
0.000126817
0.000364575
0.000370337
0.000128382
2.04323e-05
2.06328e-05
0.000128911
0.000374968
0.000377787
0.000128188
2.06857e-05
2.08334e-05
0.000125854
0.000383455
0.000389739
0.000132586
2.11282e-05
2.13336e-05
0.00012867
0.000395133
0.000400044
0.000131833
2.16832e-05
2.19402e-05
0.000133549
0.000409694
0.000412406
0.000136351
2.23059e-05
2.28225e-05
0.000143433
0.00042522
0.000427506
0.000147149
2.3329e-05
2.3774e-05
0.000153317
0.000438711
0.00044203
0.000158687
2.46604e-05
2.6485e-05
0.000183977
0.000461327
0.000458521
0.000194318
1.98947e-05
1.53854e-05
4.78362e-05
0.000128032
0.000359372
0.000111409
1.7994e-05
1.8896e-05
9.99167e-05
0.000330329
0.000348156
0.000103863
1.935e-05
1.96674e-05
9.81e-05
0.00033271
0.000358386
0.000105693
2.0238e-05
2.08154e-05
0.000104298
0.000353556
0.000388629
0.00011884
2.15331e-05
2.22761e-05
0.000117976
0.000380953
0.000417329
0.000137481
2.32e-05
2.43965e-05
0.000141101
0.00041993
0.00046921
0.000171031
2.69997e-05
2.06211e-05
0.000188788
0.000481254
0.000130005
4.44803e-05
1.63136e-05
1.95802e-05
0.000120839
0.000403748
0.000394544
0.000112417
2.13076e-05
2.27165e-05
0.000147727
0.000487782
0.000497367
0.000149256
2.36367e-05
2.49886e-05
0.000173724
0.00055273
0.000568245
0.0001853
2.66751e-05
2.99523e-05
0.000221947
0.000621226
0.00060371
0.000238859
2.31877e-05
1.74299e-05
5.38238e-05
0.00015977
0.000490836
0.00014451
2.08528e-05
2.25996e-05
0.000134891
0.000481517
0.000554204
0.000167046
2.41887e-05
2.58612e-05
0.000167147
0.000546371
0.000618963
0.000212573
2.9757e-05
2.3839e-05
0.000247196
0.000622805
0.000168065
5.51122e-05
1.7864e-05
2.1964e-05
0.000153315
0.000557552
0.000575244
0.000161076
2.4795e-05
2.87733e-05
0.00022807
0.00074067
0.000774746
0.000266669
3.35221e-05
2.75559e-05
0.000311354
0.000782503
0.000216823
6.49105e-05
1.88179e-05
2.40601e-05
0.000205443
0.000695782
0.000692039
0.000199126
2.80358e-05
3.52402e-05
0.000297448
0.00087518
0.000888751
0.000348112
2.92927e-05
1.98646e-05
7.41508e-05
0.000270509
0.000901101
0.00026561
2.79918e-05
3.53108e-05
0.000280387
0.000969662
0.00134416
0.00047301
4.8283e-05
4.02206e-05
0.000504066
0.00129122
0.00045599
0.000119726
2.62393e-05
4.67666e-05
0.000489579
0.00140695
0.00140861
0.000522632
4.36017e-05
2.94407e-05
0.000133166
0.000552911
0.00194872
0.000647251
6.49142e-05
6.41083e-05
0.000747443
0.00211751
0.000964522
0.000266434
4.07586e-05
6.49241e-05
0.00086762
0.00252815
0.00167003
0.000553887
4.32315e-05
8.02887e-05
0.000976819
0.00196959
0.00168942
0.000817165
6.60139e-05
6.67793e-05
0.000778175
0.0018515
0.00237187
0.000857634
7.64777e-05
0.000105523
0.00159894
0.00394746
0.000879048
0.000273255
5.9923e-05
6.13527e-05
0.000766026
0.00175543
0.000542714
0.000193915
4.27648e-05
4.64016e-05
0.000473259
0.00113732
0.000971515
0.000349913
4.65083e-05
2.60745e-05
9.08342e-05
0.000277651
0.000653759
0.00037501
3.07315e-05
2.89432e-05
0.000117687
0.000298013
0.000721905
0.000312798
3.31421e-05
3.5441e-05
0.000255815
0.0006543
0.00021347
8.01648e-05
2.34102e-05
2.7884e-05
0.000252313
0.000567768
0.000521461
0.000211313
3.13709e-05
2.18073e-05
6.8484e-05
0.000173666
0.000480906
0.000213932
2.52914e-05
2.92908e-05
0.000186693
0.000442765
0.000153444
6.42345e-05
2.12001e-05
2.38492e-05
0.000190441
0.00042464
0.000385231
0.000167968
2.80646e-05
2.08178e-05
5.91525e-05
0.000136936
0.000374702
0.000171165
2.25529e-05
2.68848e-05
0.000150732
0.000340981
0.000123728
5.56241e-05
2.04339e-05
2.19208e-05
0.000159811
0.000338904
0.000305473
0.000140248
2.61627e-05
2.00677e-05
5.25903e-05
0.000114443
0.000308416
0.000147444
2.09972e-05
2.56669e-05
0.000130819
0.000281178
0.000110268
5.22397e-05
2.01346e-05
2.10754e-05
0.000149344
0.000299675
0.000254517
0.000120623
2.64975e-05
2.21695e-05
9.58683e-05
0.000207236
8.10381e-05
3.82748e-05
1.84489e-05
1.77404e-05
0.000100022
0.000203719
0.000193303
9.35039e-05
2.25415e-05
1.81092e-05
3.78941e-05
8.01301e-05
0.000190456
9.748e-05
1.73029e-05
2.23479e-05
8.91819e-05
0.000176608
7.34187e-05
3.72311e-05
1.81859e-05
1.69379e-05
8.94312e-05
0.000168459
0.000160164
8.46538e-05
2.15736e-05
1.76284e-05
3.53408e-05
7.03125e-05
0.000159089
8.64709e-05
1.66512e-05
2.15805e-05
8.143e-05
0.000150188
6.76514e-05
3.43221e-05
1.74617e-05
1.61429e-05
7.96653e-05
0.000145905
0.000139851
7.78523e-05
2.1248e-05
1.7815e-05
3.35906e-05
6.26629e-05
0.000138326
7.79813e-05
1.61904e-05
2.10338e-05
7.31699e-05
0.000130178
6.07906e-05
3.31625e-05
1.73877e-05
1.57382e-05
7.30944e-05
0.000126082
0.000120557
6.8935e-05
2.07433e-05
1.72909e-05
3.0238e-05
5.4935e-05
0.000108734
8.40868e-05
1.52146e-05
1.91628e-05
3.7866e-05
6.29611e-05
0.000144068
8.08322e-05
1.7057e-05
2.16951e-05
7.589e-05
0.000132983
6.41847e-05
3.71474e-05
1.7893e-05
1.63571e-05
7.91706e-05
0.000132474
0.000125366
7.3413e-05
2.14719e-05
1.78122e-05
3.67467e-05
6.21163e-05
0.000130042
7.84229e-05
1.62139e-05
2.12589e-05
7.31812e-05
0.000123411
6.08715e-05
3.67706e-05
1.77554e-05
1.60874e-05
7.37066e-05
0.000117889
0.000111392
6.69082e-05
2.14221e-05
1.78464e-05
3.60188e-05
5.70667e-05
0.000109804
6.91554e-05
1.56972e-05
2.07012e-05
6.37887e-05
0.000102549
5.11597e-05
3.29965e-05
1.72468e-05
1.48734e-05
7.17791e-05
9.1379e-05
5.52949e-05
3.81143e-05
1.90496e-05
1.67832e-05
6.63784e-05
0.000109042
9.97419e-05
6.12866e-05
2.14485e-05
1.75664e-05
3.69331e-05
5.34679e-05
9.92129e-05
6.47508e-05
1.56368e-05
2.07286e-05
5.9734e-05
8.98216e-05
4.822e-05
3.4655e-05
1.73736e-05
1.47454e-05
6.48205e-05
8.20996e-05
5.19494e-05
3.80292e-05
1.92126e-05
1.66904e-05
6.41598e-05
0.000100179
9.08272e-05
5.89204e-05
2.12314e-05
1.74746e-05
3.73201e-05
5.08986e-05
9.40135e-05
6.26557e-05
1.55754e-05
2.06896e-05
5.69331e-05
8.51383e-05
4.64196e-05
3.47657e-05
1.72729e-05
1.467e-05
6.07281e-05
7.56553e-05
4.88538e-05
3.7446e-05
1.92232e-05
1.64838e-05
5.97424e-05
9.24074e-05
8.32304e-05
5.52454e-05
2.10907e-05
1.74036e-05
3.71353e-05
4.73681e-05
8.43711e-05
5.77572e-05
1.55644e-05
2.05026e-05
5.27241e-05
7.69102e-05
4.31681e-05
3.38799e-05
1.67065e-05
1.43683e-05
5.40221e-05
6.76059e-05
4.50735e-05
3.58072e-05
1.92095e-05
1.62577e-05
5.6211e-05
8.2405e-05
7.36029e-05
5.06155e-05
2.08731e-05
1.69876e-05
3.47264e-05
4.21879e-05
6.60361e-05
5.50508e-05
1.42089e-05
1.89044e-05
3.72045e-05
4.47031e-05
8.1409e-05
5.34812e-05
1.60035e-05
2.09986e-05
4.96845e-05
7.29282e-05
4.27089e-05
3.57624e-05
1.71846e-05
1.44626e-05
5.37266e-05
6.56336e-05
4.49565e-05
3.76194e-05
1.91093e-05
1.59337e-05
5.47167e-05
8.0296e-05
7.1856e-05
4.99699e-05
2.07571e-05
1.69094e-05
3.58209e-05
4.212e-05
6.46706e-05
5.40033e-05
1.41714e-05
1.91526e-05
3.772e-05
4.44808e-05
7.89018e-05
5.35547e-05
1.61611e-05
2.10623e-05
4.94736e-05
7.09261e-05
4.21054e-05
3.67366e-05
1.73612e-05
1.45292e-05
5.43458e-05
6.34569e-05
4.4238e-05
3.89491e-05
1.91346e-05
1.60973e-05
5.22333e-05
7.7505e-05
6.94176e-05
4.84999e-05
2.07959e-05
1.69282e-05
3.6283e-05
4.141e-05
6.13613e-05
5.26538e-05
1.42843e-05
1.88869e-05
3.91122e-05
4.3958e-05
6.69604e-05
5.1768e-05
1.51458e-05
1.9626e-05
4.02602e-05
4.64631e-05
7.90925e-05
5.27674e-05
1.6471e-05
2.09409e-05
4.90373e-05
7.0452e-05
4.2633e-05
3.76775e-05
1.70976e-05
1.42477e-05
5.42527e-05
6.30807e-05
4.45596e-05
4.02961e-05
1.92762e-05
1.61796e-05
5.22007e-05
7.61875e-05
6.84699e-05
4.86574e-05
2.09854e-05
1.69842e-05
3.71809e-05
4.15507e-05
6.06073e-05
5.21987e-05
1.45038e-05
1.91847e-05
3.98976e-05
4.42292e-05
6.58495e-05
5.14085e-05
1.55039e-05
1.95851e-05
4.13917e-05
4.6378e-05
7.77836e-05
5.23943e-05
1.62214e-05
2.1025e-05
4.87715e-05
6.92497e-05
4.25628e-05
3.89475e-05
1.74107e-05
1.43936e-05
5.47932e-05
6.15959e-05
4.57853e-05
4.25398e-05
1.92344e-05
1.54597e-05
5.25537e-05
6.75744e-05
4.78365e-05
4.31889e-05
1.98189e-05
1.65387e-05
5.29266e-05
7.91061e-05
7.06827e-05
4.98737e-05
2.13635e-05
1.72994e-05
3.99014e-05
4.38198e-05
6.27492e-05
5.55881e-05
1.43883e-05
1.92865e-05
4.27854e-05
4.64997e-05
6.77166e-05
5.33709e-05
1.54922e-05
1.98186e-05
4.38388e-05
4.83929e-05
7.94715e-05
5.38274e-05
1.65271e-05
2.12973e-05
5.06276e-05
7.09501e-05
4.4524e-05
4.14013e-05
1.75951e-05
1.46934e-05
5.64699e-05
6.35655e-05
4.76767e-05
4.45343e-05
1.95523e-05
1.58415e-05
5.47163e-05
6.89638e-05
4.95425e-05
4.50781e-05
1.99108e-05
1.64744e-05
5.3939e-05
7.99992e-05
7.1291e-05
5.09362e-05
2.11792e-05
1.76261e-05
4.12126e-05
4.45446e-05
6.23954e-05
5.69078e-05
1.47348e-05
1.94665e-05
4.40784e-05
4.69057e-05
6.70717e-05
5.31567e-05
1.57277e-05
2.00423e-05
4.46663e-05
4.84531e-05
7.71789e-05
5.2737e-05
1.66089e-05
2.14628e-05
5.01965e-05
6.90657e-05
4.42914e-05
4.18254e-05
1.78976e-05
1.48397e-05
5.67731e-05
6.20062e-05
4.70088e-05
4.43683e-05
1.93459e-05
1.53506e-05
5.23781e-05
6.64425e-05
4.94407e-05
4.51518e-05
1.96768e-05
1.56744e-05
5.4108e-05
6.91649e-05
5.08674e-05
4.78486e-05
1.99548e-05
1.66273e-05
5.50955e-05
7.94354e-05
7.10769e-05
5.22509e-05
2.12587e-05
1.73036e-05
4.27907e-05
4.56059e-05
6.37333e-05
5.7434e-05
1.46713e-05
1.96411e-05
4.52997e-05
4.83646e-05
6.69356e-05
5.40601e-05
1.58109e-05
1.98773e-05
4.58619e-05
5.03103e-05
6.94391e-05
5.43745e-05
1.57492e-05
2.00047e-05
4.86109e-05
5.15252e-05
7.95309e-05
5.56514e-05
1.66219e-05
2.13851e-05
5.28685e-05
7.11019e-05
4.65632e-05
4.45771e-05
1.78628e-05
1.47879e-05
5.89872e-05
6.37653e-05
4.92044e-05
4.68689e-05
1.96635e-05
1.57918e-05
5.42025e-05
6.8542e-05
5.17212e-05
4.77101e-05
2.00774e-05
1.60494e-05
5.62876e-05
7.09564e-05
5.3099e-05
5.04999e-05
2.02832e-05
1.68829e-05
5.7174e-05
8.08597e-05
7.25385e-05
5.43035e-05
2.15773e-05
1.78547e-05
4.56389e-05
4.80464e-05
6.48275e-05
6.01221e-05
1.4881e-05
1.97483e-05
4.77421e-05
5.02466e-05
6.85471e-05
5.48494e-05
1.57236e-05
2.00716e-05
4.79033e-05
5.19975e-05
7.04003e-05
5.60098e-05
1.59674e-05
2.03768e-05
5.0611e-05
5.31614e-05
7.94408e-05
5.64983e-05
1.68507e-05
2.15959e-05
5.41992e-05
7.20739e-05
4.81453e-05
4.56382e-05
1.76651e-05
1.50432e-05
5.88899e-05
6.47223e-05
5.10169e-05
4.85635e-05
2.0086e-05
1.59132e-05
5.69094e-05
6.90081e-05
5.27375e-05
4.8825e-05
1.99896e-05
1.57348e-05
5.55086e-05
7.05014e-05
5.41024e-05
5.01309e-05
2.00288e-05
1.60702e-05
5.86142e-05
7.24291e-05
5.50963e-05
5.32137e-05
2.02874e-05
1.68618e-05
5.90496e-05
8.16731e-05
7.38137e-05
5.63469e-05
2.16283e-05
1.80579e-05
4.73889e-05
5.00066e-05
6.53244e-05
6.12733e-05
1.50073e-05
1.9968e-05
4.93089e-05
5.1816e-05
6.85067e-05
5.55163e-05
1.59913e-05
2.0351e-05
4.98947e-05
5.34752e-05
7.05121e-05
5.64923e-05
1.60124e-05
2.02115e-05
5.14782e-05
5.48461e-05
7.29912e-05
5.93897e-05
1.61706e-05
2.04028e-05
5.43672e-05
5.59427e-05
8.28474e-05
6.00632e-05
1.69409e-05
2.1845e-05
5.77067e-05
7.51741e-05
5.18465e-05
4.99473e-05
1.81745e-05
1.50475e-05
6.40173e-05
6.75908e-05
5.39405e-05
5.18078e-05
1.99766e-05
1.5787e-05
5.85273e-05
7.19486e-05
5.59957e-05
5.20085e-05
2.02641e-05
1.61436e-05
5.94464e-05
7.38113e-05
5.73902e-05
5.37994e-05
2.02893e-05
1.61646e-05
6.21258e-05
7.5855e-05
5.83647e-05
5.6473e-05
2.04861e-05
1.7146e-05
6.20988e-05
8.49335e-05
7.72227e-05
5.95201e-05
2.18778e-05
1.82895e-05
5.1187e-05
5.36448e-05
6.83936e-05
6.42353e-05
1.53906e-05
2.02043e-05
5.27733e-05
5.53605e-05
7.18912e-05
5.90405e-05
1.61258e-05
2.05966e-05
5.28883e-05
5.70834e-05
7.34224e-05
5.9193e-05
1.63278e-05
2.0587e-05
5.45593e-05
5.8119e-05
7.56637e-05
6.20268e-05
1.65045e-05
2.07133e-05
5.78125e-05
5.89427e-05
8.47905e-05
6.31143e-05
1.71551e-05
2.21325e-05
6.08532e-05
7.77883e-05
5.4911e-05
5.29505e-05
1.83976e-05
1.53563e-05
6.64026e-05
6.99872e-05
5.68968e-05
5.45467e-05
2.03067e-05
1.61399e-05
6.07712e-05
7.38173e-05
5.89456e-05
5.484e-05
2.06233e-05
1.6384e-05
6.14863e-05
7.58842e-05
6.03708e-05
5.64654e-05
2.05539e-05
1.64717e-05
6.42612e-05
7.77858e-05
6.09177e-05
5.92287e-05
2.06846e-05
1.71782e-05
6.43337e-05
8.64552e-05
7.91283e-05
6.20521e-05
2.22304e-05
1.8579e-05
5.38964e-05
5.61417e-05
6.96783e-05
6.6657e-05
1.55363e-05
2.04149e-05
5.51493e-05
5.75516e-05
7.23414e-05
6.01404e-05
1.61813e-05
2.07641e-05
5.55194e-05
5.90394e-05
7.40596e-05
6.10078e-05
1.64897e-05
2.06754e-05
5.68526e-05
6.01861e-05
7.6242e-05
6.31661e-05
1.6459e-05
2.0558e-05
5.88107e-05
6.17571e-05
7.89447e-05
6.62969e-05
1.64167e-05
2.07454e-05
6.16266e-05
6.2592e-05
8.88306e-05
6.66679e-05
1.72794e-05
2.24337e-05
6.46714e-05
8.18058e-05
5.8741e-05
5.67679e-05
1.85741e-05
1.54412e-05
7.05195e-05
7.39288e-05
6.13634e-05
5.92514e-05
2.06589e-05
1.64961e-05
6.56818e-05
7.77857e-05
6.31239e-05
5.93307e-05
2.08235e-05
1.64902e-05
6.58743e-05
7.99998e-05
6.46956e-05
6.09333e-05
2.06518e-05
1.65171e-05
6.90406e-05
8.28185e-05
6.60742e-05
6.41328e-05
2.09087e-05
1.74976e-05
6.94437e-05
9.18697e-05
8.42158e-05
6.71401e-05
2.26797e-05
1.87787e-05
5.89909e-05
6.09713e-05
7.55875e-05
7.25169e-05
1.56636e-05
2.07735e-05
6.06418e-05
6.32709e-05
7.81142e-05
6.64906e-05
1.65758e-05
2.09587e-05
6.02948e-05
6.4454e-05
7.9275e-05
6.62406e-05
1.6766e-05
2.08916e-05
6.19735e-05
6.54357e-05
8.13719e-05
6.86994e-05
1.66904e-05
2.11339e-05
6.49976e-05
6.61023e-05
9.04178e-05
6.92836e-05
1.75914e-05
2.30078e-05
6.75689e-05
8.35213e-05
6.17519e-05
6.02094e-05
1.89437e-05
1.5631e-05
7.33577e-05
7.59256e-05
6.45298e-05
6.28209e-05
2.09904e-05
1.67966e-05
6.8898e-05
7.96327e-05
6.62827e-05
6.2858e-05
2.10993e-05
1.6683e-05
6.84719e-05
8.14418e-05
6.73994e-05
6.42532e-05
2.09537e-05
1.68354e-05
7.09246e-05
8.41867e-05
6.88642e-05
6.78261e-05
2.14162e-05
1.78226e-05
7.21179e-05
9.33656e-05
8.5952e-05
7.03392e-05
2.31883e-05
1.91373e-05
6.2956e-05
6.42775e-05
7.83325e-05
7.64146e-05
1.58707e-05
2.09903e-05
6.43146e-05
6.66374e-05
8.06953e-05
6.97602e-05
1.67563e-05
2.13107e-05
6.42796e-05
6.79108e-05
8.196e-05
6.98119e-05
1.6891e-05
2.13893e-05
6.62523e-05
6.90581e-05
8.42216e-05
7.20463e-05
1.70294e-05
2.18491e-05
6.98278e-05
6.99575e-05
9.34936e-05
7.32459e-05
1.8299e-05
2.38643e-05
7.19686e-05
8.67449e-05
6.64219e-05
6.60488e-05
1.96345e-05
1.63674e-05
7.84045e-05
8.04148e-05
6.91131e-05
6.78716e-05
2.13779e-05
1.70296e-05
7.42149e-05
8.42126e-05
7.11053e-05
6.81987e-05
2.16712e-05
1.70485e-05
7.42152e-05
8.66343e-05
7.20118e-05
7.09773e-05
2.20294e-05
1.85061e-05
7.41398e-05
9.49067e-05
8.76898e-05
7.29316e-05
2.43364e-05
1.99715e-05
6.69413e-05
6.75259e-05
7.9847e-05
7.85762e-05
1.66092e-05
2.17101e-05
6.8159e-05
6.94924e-05
8.24692e-05
7.33395e-05
1.72563e-05
2.20402e-05
6.83668e-05
7.09732e-05
8.45747e-05
7.30319e-05
1.74365e-05
2.25899e-05
7.21667e-05
7.18969e-05
9.29103e-05
7.41988e-05
1.87098e-05
2.4587e-05
7.34241e-05
8.65667e-05
6.81454e-05
6.79384e-05
2.00459e-05
1.6461e-05
7.94926e-05
8.00455e-05
7.07565e-05
7.02868e-05
2.19588e-05
1.73655e-05
7.4694e-05
8.43429e-05
7.29157e-05
7.12149e-05
2.24166e-05
1.77605e-05
7.53021e-05
8.67119e-05
7.3938e-05
7.39562e-05
2.27778e-05
1.88634e-05
7.58495e-05
9.45067e-05
8.8042e-05
7.53883e-05
2.50997e-05
2.04716e-05
7.0332e-05
7.05114e-05
8.1198e-05
8.1262e-05
1.68751e-05
2.23757e-05
7.18201e-05
7.21013e-05
8.38715e-05
7.5678e-05
1.76615e-05
2.26442e-05
7.21319e-05
7.36614e-05
8.64182e-05
7.5465e-05
1.79282e-05
2.34045e-05
7.64305e-05
7.49174e-05
9.51669e-05
7.73642e-05
1.94829e-05
2.56754e-05
7.70774e-05
8.9146e-05
7.23565e-05
7.35736e-05
2.08522e-05
1.71482e-05
8.41685e-05
8.39042e-05
7.48372e-05
7.5625e-05
2.29024e-05
1.81317e-05
7.94145e-05
8.79862e-05
7.72317e-05
7.61589e-05
2.33829e-05
1.86404e-05
7.92795e-05
9.11035e-05
7.91368e-05
8.05701e-05
2.42197e-05
2.01293e-05
8.1606e-05
9.97557e-05
9.35045e-05
8.14727e-05
2.66346e-05
2.16751e-05
7.71672e-05
7.66377e-05
8.7402e-05
8.80873e-05
1.77709e-05
2.34935e-05
7.91351e-05
7.86025e-05
9.11908e-05
8.24373e-05
1.86738e-05
2.45943e-05
8.1634e-05
8.02104e-05
9.95028e-05
8.17797e-05
2.04834e-05
2.69906e-05
8.12226e-05
9.35242e-05
7.71032e-05
7.89463e-05
2.22171e-05
1.81233e-05
8.88339e-05
8.82799e-05
7.99394e-05
8.14226e-05
2.42113e-05
1.9184e-05
8.42602e-05
9.24732e-05
8.23579e-05
8.23654e-05
2.47674e-05
1.97337e-05
8.43428e-05
9.63217e-05
8.49144e-05
8.74243e-05
2.57435e-05
2.14222e-05
8.78462e-05
0.000105882
9.94066e-05
8.80834e-05
2.83348e-05
2.3167e-05
8.49478e-05
8.33956e-05
9.41272e-05
9.57623e-05
1.87579e-05
2.51235e-05
8.7366e-05
8.62814e-05
9.93256e-05
9.00502e-05
2.01094e-05
2.6412e-05
9.04735e-05
8.81757e-05
0.000108453
8.99847e-05
2.1589e-05
2.88145e-05
9.02022e-05
0.000102467
8.64886e-05
8.87417e-05
2.42568e-05
1.99377e-05
9.78011e-05
9.72386e-05
8.93846e-05
9.18774e-05
2.64978e-05
2.12347e-05
9.37481e-05
0.000103186
9.22428e-05
9.55769e-05
2.78792e-05
2.32526e-05
9.4445e-05
0.000112985
0.000106711
9.49333e-05
3.07319e-05
2.51068e-05
9.29377e-05
9.07003e-05
0.000101929
0.000102542
2.03545e-05
2.76969e-05
9.75918e-05
9.34532e-05
0.000112399
9.57386e-05
2.30978e-05
3.08326e-05
9.56328e-05
0.000106951
9.09305e-05
9.22119e-05
2.5068e-05
2.00101e-05
0.000103254
0.000101292
9.35562e-05
9.51844e-05
2.72465e-05
2.18516e-05
9.62609e-05
0.00010577
9.56417e-05
9.90098e-05
2.90091e-05
2.41691e-05
9.68392e-05
0.000114773
0.000109213
9.8132e-05
3.21362e-05
2.63034e-05
9.73229e-05
9.47326e-05
0.000104609
0.000105252
2.16332e-05
2.92738e-05
0.000102687
9.72717e-05
0.00011457
9.94071e-05
2.452e-05
3.2709e-05
9.96048e-05
0.000109469
9.59386e-05
9.88904e-05
2.69342e-05
2.18023e-05
0.000106672
0.00010532
9.78496e-05
0.00010347
2.93471e-05
2.394e-05
9.94309e-05
0.000114931
0.000110044
0.000100243
3.26509e-05
2.72974e-05
9.91552e-05
9.65915e-05
0.000105655
0.00010619
2.2377e-05
3.04557e-05
0.000105295
9.92899e-05
0.000115115
0.000100916
2.52884e-05
3.40855e-05
0.000101771
0.00011046
9.8549e-05
0.00010239
2.80028e-05
2.27383e-05
0.000108686
0.000106995
0.000100884
0.000107543
3.0781e-05
2.53787e-05
0.00010246
0.000116707
0.000111941
0.000102947
3.41229e-05
2.79551e-05
0.000102956
9.95924e-05
0.000108128
0.000111162
2.18746e-05
3.04973e-05
0.000108313
0.000101886
0.000117356
0.000102621
2.57547e-05
3.51331e-05
0.00010371
0.000112823
0.000102029
0.00010723
2.93931e-05
2.39565e-05
0.000111441
0.000110235
0.000105249
0.000113989
3.25182e-05
2.7133e-05
0.000108097
0.000121761
0.000117227
0.00010941
3.6382e-05
3.00073e-05
0.000112006
0.000106645
0.00011507
0.000116768
2.43365e-05
3.31003e-05
0.000118821
0.000109611
0.000126917
0.000113062
2.72304e-05
3.61548e-05
0.000112551
0.000122115
0.000110465
0.00011988
3.14072e-05
2.71681e-05
0.000119476
0.000124938
0.00012094
0.000119021
3.76949e-05
3.19392e-05
0.000118422
0.00011232
0.000121528
0.000122314
2.61375e-05
3.53871e-05
0.000125141
0.000116406
0.000132727
0.000118079
2.9604e-05
3.95152e-05
0.000119956
0.000128051
0.000117916
0.000128183
3.33479e-05
2.83309e-05
0.000127277
0.000132407
0.000128398