/*--------------------------------*- C++ -*----------------------------------*\
| =========                 |                                                 |
| \\      /  F ield         | OpenFOAM: The Open Source CFD Toolbox           |
|  \\    /   O peration     | Version:  v2006                                 |
|   \\  /    A nd           | Website:  www.openfoam.com                      |
|    \\/     M anipulation  |                                                 |
\*---------------------------------------------------------------------------*/
FoamFile
{
    version     2.0;
    format      ascii;
    class       volScalarField;
    location    "0.103";
    object      Ma;
}
// * * * * * * * * * * * * * * * * * * * * * * * * * * * * * * * * * * * * * //

dimensions      [0 0 0 0 0 0 0];


internalField   nonuniform List<scalar> 
16277
(
0.139391
0.139391
0.139391
0.13939
0.13939
0.139386
0.139372
0.139326
0.139222
0.139061
0.138856
0.13863
0.138396
0.138162
0.137926
0.137685
0.137437
0.137179
0.136911
0.136631
0.13634
0.136038
0.135725
0.135401
0.135066
0.13472
0.134364
0.133998
0.133622
0.133236
0.13284
0.132435
0.132021
0.131598
0.131167
0.130728
0.130281
0.129828
0.129367
0.1289
0.128427
0.127949
0.127466
0.126978
0.126487
0.125992
0.125494
0.124994
0.124492
0.123989
0.123485
0.122981
0.122477
0.121975
0.121474
0.120975
0.12048
0.119987
0.119499
0.119016
0.118538
0.118066
0.1176
0.117142
0.116691
0.116248
0.115815
0.115391
0.114977
0.114573
0.114181
0.1138
0.113431
0.113075
0.112732
0.112403
0.112087
0.111782
0.111486
0.111196
0.110909
0.110633
0.11039
0.110219
0.110144
0.110142
0.110172
0.110207
0.110235
0.110232
0.110211
0.11014
0.109962
0.109665
0.10918
0.108622
0.106571
0.105256
0.108647
0.109316
0.109386
0.108499
0.103772
0.102304
0.108323
0.10945
0.109443
0.108053
0.100955
0.0997106
0.107767
0.109402
0.109289
0.107397
0.0985495
0.0975
0.10706
0.10917
0.108998
0.106678
0.0965074
0.0956374
0.106347
0.108846
0.108639
0.105946
0.0947949
0.0940427
0.105608
0.108453
0.108216
0.105198
0.0933006
0.09263
0.104858
0.108009
0.107754
0.104448
0.0919646
0.091363
0.104117
0.107539
0.107264
0.103703
0.0907493
0.0901906
0.103372
0.107034
0.106742
0.102953
0.0896135
0.0890908
0.102624
0.106503
0.106204
0.10221
0.0885513
0.0880588
0.101886
0.10596
0.105652
0.101472
0.0875445
0.0870736
0.10115
0.105401
0.105085
0.100735
0.0865788
0.0861248
0.100414
0.104828
0.104503
0.0999981
0.0856451
0.0852042
0.099677
0.104239
0.103906
0.0992581
0.084736
0.0843047
0.0989356
0.103636
0.103293
0.0985131
0.083845
0.0834207
0.0981877
0.103016
0.102664
0.0977608
0.0829669
0.0825474
0.0974315
0.102379
0.102018
0.0969994
0.0820976
0.081681
0.0966654
0.101724
0.101353
0.0962275
0.0812337
0.0808184
0.0958878
0.101051
0.100669
0.0954433
0.0803721
0.0799569
0.0950969
0.100357
0.0999649
0.094645
0.0795101
0.0790937
0.094291
0.0996429
0.0992392
0.0938313
0.0786455
0.0782266
0.0934691
0.0989063
0.0984904
0.0930005
0.0777756
0.0773531
0.0926294
0.0981463
0.0977176
0.092151
0.0768983
0.0764712
0.0917702
0.0973615
0.0969195
0.0912813
0.0760113
0.0755785
0.0908898
0.0965506
0.0960946
0.0903896
0.0751126
0.074673
0.0899865
0.0957122
0.0952416
0.0894742
0.0742
0.0737527
0.0890587
0.094845
0.0943591
0.0885336
0.0732718
0.0728158
0.0881049
0.0939476
0.0934459
0.0875663
0.072326
0.0718606
0.0871238
0.0930189
0.0925008
0.086571
0.0713612
0.0708856
0.086114
0.0920578
0.0915228
0.0855466
0.070376
0.0698898
0.0850745
0.0910634
0.0905112
0.0844922
0.0693694
0.0688722
0.0840048
0.0900351
0.0894656
0.0834073
0.068341
0.0678328
0.0829046
0.0889726
0.088386
0.0822923
0.0672909
0.0667722
0.0817745
0.0878764
0.0872732
0.0811479
0.0662203
0.0656921
0.080616
0.0867479
0.0861292
0.0799764
0.0651313
0.0645951
0.0794318
0.0855894
0.0849567
0.078781
0.0640271
0.063485
0.0782256
0.0844044
0.0837601
0.0775662
0.0629124
0.0623674
0.0770031
0.0831979
0.0825453
0.0763384
0.0617937
0.0612499
0.0757716
0.0819768
0.08132
0.0751062
0.0606796
0.0601422
0.0745409
0.0807499
0.0800943
0.0738806
0.0595811
0.0590566
0.0733232
0.0795288
0.0788811
0.0726754
0.058512
0.0580088
0.0721342
0.0783278
0.0776968
0.071508
0.0574898
0.0570178
0.0709932
0.0771652
0.0765613
0.0703997
0.0565354
0.0561071
0.0699238
0.0760632
0.0754992
0.0693765
0.0556745
0.0553036
0.0689537
0.0750481
0.0745382
0.0684678
0.0549355
0.0546412
0.0681123
0.0741494
0.0737101
0.0677054
0.0543525
0.0541647
0.0674344
0.0733976
0.0730465
0.0671244
0.0539671
0.053899
0.0669589
0.0728341
0.0725836
0.0667599
0.0538023
0.0538653
0.0667138
0.0724855
0.072347
0.0666367
0.0538773
0.0540751
0.0667171
0.0723711
0.0723523
0.0667679
0.0541988
0.0545176
0.0669665
0.0724922
0.0725854
0.067133
0.0547489
0.0552017
0.0674664
0.0728584
0.073079
0.0677654
0.055563
0.0561435
0.068237
0.0734906
0.0738322
0.0686556
0.0566077
0.0572526
0.0692145
0.0743342
0.0747593
0.0697108
0.0577708
0.0584534
0.0703327
0.0753309
0.0758157
0.0708806
0.0589977
0.0596935
0.0715397
0.0764337
0.0769585
0.0721175
0.0602428
0.0609339
0.0727942
0.0776043
0.0781505
0.0733823
0.0614708
0.0621406
0.0740577
0.0788057
0.0793555
0.0746382
0.0626481
0.0632821
0.0752956
0.080003
0.0805403
0.0758526
0.0637469
0.0643337
0.0764781
0.0811658
0.0816769
0.0769986
0.0647458
0.065277
0.0775813
0.0822682
0.0827421
0.0780548
0.0656293
0.0660998
0.078586
0.0832897
0.0837176
0.0790032
0.0663906
0.0667976
0.0794777
0.0842147
0.084589
0.0798325
0.0670312
0.0673714
0.0802481
0.0850315
0.0853517
0.0805425
0.0675481
0.0678239
0.0808994
0.0857385
0.0860048
0.0811346
0.067947
0.0681632
0.081435
0.0863365
0.0865507
0.0816143
0.0682379
0.0684012
0.0818623
0.0868304
0.0869962
0.081991
0.0684343
0.0685533
0.0821928
0.0872293
0.0873526
0.0822777
0.0685524
0.0686361
0.0824401
0.0875455
0.0876322
0.0824883
0.0686086
0.068665
0.082618
0.0877911
0.087847
0.0826359
0.0686175
0.0686538
0.0827391
0.0879779
0.0880083
0.0827327
0.0685917
0.0686133
0.0828147
0.0881164
0.0881265
0.0827891
0.0685401
0.0685504
0.0828541
0.0882158
0.0882094
0.0828133
0.0684691
0.0684725
0.0828659
0.0882845
0.0882653
0.0828143
0.0683868
0.0683854
0.0828572
0.088329
0.0882996
0.0827972
0.0682968
0.0682932
0.0828331
0.0883547
0.0883175
0.082767
0.068203
0.0681981
0.0827977
0.0883659
0.088322
0.0827264
0.0681067
0.0681017
0.0827536
0.0883655
0.0883173
0.0826795
0.0680108
0.0680075
0.0827052
0.0883583
0.0883068
0.0826298
0.0679187
0.067914
0.0826524
0.0883434
0.0882877
0.0825732
0.0678238
0.0678227
0.082597
0.0883237
0.0882669
0.0825179
0.067735
0.0677338
0.0825408
0.088302
0.0882444
0.0824622
0.0676472
0.0676462
0.082484
0.0882779
0.0882209
0.0824068
0.0675622
0.0675663
0.0824323
0.0882572
0.0882005
0.0823565
0.0674851
0.0674981
0.082392
0.0882576
0.0882151
0.0823276
0.0674131
0.0675128
0.0824013
0.0882997
0.0882888
0.0824128
0.0674963
0.0677115
0.082616
0.088475
0.0886362
0.0828518
0.0681325
0.0689762
0.0834281
0.0891718
0.0907134
0.0857239
0.0722858
0.071576
0.0829902
0.0881968
0.0916131
0.0941265
0.0955833
0.0960832
0.0963888
0.0969933
0.0972355
0.0975014
0.0976207
0.0977228
0.0977452
0.0977133
0.0976394
0.0974447
0.0972428
0.0967364
0.0964481
0.0961262
0.0957305
0.0950526
0.0933209
0.0895825
0.081744
0.0717717
0.0512332
0.0496458
0.070756
0.0809394
0.0801051
0.0697927
0.0483626
0.047535
0.0691444
0.0795558
0.0792969
0.0688894
0.0469444
0.0468557
0.0687646
0.0791865
0.0790754
0.0686559
0.0465321
0.0465162
0.068584
0.0790836
0.0790952
0.0685952
0.0465305
0.0465606
0.068621
0.079119
0.0791485
0.068659
0.0466038
0.0466491
0.0687015
0.0791837
0.0792161
0.0687438
0.0466963
0.0467476
0.0687921
0.0792562
0.079296
0.0688419
0.0468031
0.0468581
0.0688945
0.0793397
0.0793783
0.0689435
0.0469106
0.0469686
0.0689969
0.0794226
0.0794671
0.0690529
0.0470297
0.0470907
0.0691092
0.0795136
0.0795554
0.0691626
0.0471499
0.0472121
0.0692203
0.0796026
0.0796491
0.069279
0.0472775
0.0473413
0.0693388
0.0796985
0.0797428
0.0693947
0.0474033
0.047469
0.0694553
0.0797925
0.079842
0.0695174
0.0475373
0.0476023
0.0695786
0.0798928
0.0799397
0.0696365
0.0476655
0.0477325
0.0696986
0.0799913
0.080041
0.0697608
0.047803
0.0478712
0.0698233
0.0800922
0.0801401
0.0698838
0.047939
0.0480104
0.0699494
0.0801942
0.0802468
0.0700144
0.048082
0.0481502
0.0700791
0.0803014
0.0803515
0.0701409
0.0482194
0.0482925
0.0702073
0.0804071
0.0804599
0.0702734
0.048367
0.04844
0.0703411
0.0805166
0.0805703
0.0704068
0.0485114
0.0485846
0.0704758
0.0806291
0.0806864
0.0705445
0.0486573
0.0487302
0.0706132
0.0807459
0.0808022
0.0706807
0.0488032
0.0488789
0.0707517
0.0808633
0.0809223
0.0708225
0.0489548
0.0490313
0.0708959
0.0809862
0.0810468
0.0709672
0.0491046
0.049179
0.0710413
0.0811128
0.0811785
0.0711163
0.0492536
0.0493283
0.0711917
0.0812468
0.0813123
0.0712659
0.0494007
0.0494756
0.0713443
0.0813842
0.0814553
0.0714233
0.0495494
0.0496227
0.0715039
0.0815309
0.0816054
0.0715843
0.0496931
0.0497649
0.0716683
0.0816859
0.0817669
0.071754
0.0498352
0.0499046
0.0718422
0.0818537
0.0819392
0.0719298
0.0499693
0.050035
0.0720221
0.0820321
0.0821267
0.0721172
0.0500995
0.0501628
0.0722151
0.0822268
0.0823276
0.0723148
0.0502237
0.0502866
0.0724197
0.0824356
0.0825478
0.0725294
0.0503475
0.0504054
0.0726437
0.082668
0.0827903
0.0727615
0.0504616
0.0505187
0.0728873
0.082923
0.0830605
0.0730192
0.0505762
0.0506321
0.073158
0.0832081
0.0833608
0.0733032
0.0506878
0.0507471
0.0734584
0.0835247
0.0836947
0.0736235
0.0508122
0.0508828
0.0738023
0.0838797
0.0840727
0.0739903
0.0509553
0.0510355
0.0741935
0.0842806
0.0844971
0.0744106
0.0511317
0.0512508
0.074648
0.0847299
0.0849727
0.0749021
0.0513916
0.0515599
0.0751777
0.0852284
0.0855026
0.0754798
0.0517588
0.051991
0.0758111
0.0857993
0.0861134
0.0761694
0.0522637
0.0525849
0.0765621
0.0864511
0.0868083
0.0769867
0.0529577
0.0534057
0.0774466
0.0871836
0.0875855
0.0779544
0.0539365
0.0545592
0.078517
0.0880168
0.0884738
0.0791325
0.0552845
0.0561437
0.0798407
0.0889932
0.0895958
0.0806713
0.0572075
0.0585335
0.0816233
0.0902665
0.090934
0.0826021
0.0598614
0.0611211
0.0835443
0.0915365
0.0920208
0.0843249
0.0623416
0.0634095
0.0847681
0.0923436
0.0926012
0.0854087
0.0644578
0.0654231
0.0857799
0.0928093
0.0929562
0.0861901
0.0664994
0.067643
0.0865995
0.0931159
0.0931421
0.0868856
0.0686771
0.069575
0.0871431
0.0931274
0.0931155
0.0874245
0.0705623
0.0716358
0.0876954
0.0931114
0.0930579
0.0879135
0.0727266
0.0733305
0.0881038
0.0928641
0.0922789
0.0877354
0.0732364
0.0583543
0.0808172
0.0891948
0.091624
0.0839563
0.0620957
0.0621009
0.0843222
0.0917464
0.0916225
0.0845184
0.0630843
0.0643592
0.0845957
0.0914194
0.0914818
0.0850557
0.0658592
0.0675261
0.0854188
0.0914787
0.0915465
0.0859446
0.0691084
0.0705487
0.0861917
0.0914237
0.0914534
0.0866413
0.0720166
0.0734301
0.0869661
0.0913851
0.0912638
0.0872348
0.0746593
0.0750843
0.0870306
0.0907235
0.0882572
0.0816154
0.0647044
0.0686468
0.0847699
0.0902697
0.0903595
0.0851221
0.0695992
0.0711706
0.0857548
0.0904123
0.0903799
0.086073
0.0723918
0.0735183
0.08629
0.0902918
0.0901793
0.0865719
0.0747043
0.0753095
0.0865709
0.0898741
0.0892341
0.0862013
0.075606
0.0666814
0.0817211
0.0871009
0.0885761
0.0841698
0.0700632
0.0709499
0.084377
0.0884414
0.0881036
0.0844476
0.0721374
0.0732712
0.0843813
0.0877157
0.087353
0.0844748
0.0744693
0.0747658
0.084087
0.0865113
0.0846049
0.0801851
0.0671048
0.0710972
0.0822098
0.0858272
0.0855736
0.0824574
0.0721145
0.0731153
0.0823581
0.0851096
0.0845689
0.0822779
0.0737813
0.0737116
0.0815549
0.0835392
0.0818846
0.0783364
0.0672384
0.0703609
0.0796875
0.0824693
0.0816019
0.0792725
0.0707611
0.0715925
0.0788445
0.0807018
0.0793525
0.0779066
0.0713723
0.0661107
0.0750709
0.0777465
0.0777461
0.075684
0.068866
0.0689082
0.074792
0.0763752
0.0747642
0.0736453
0.0688122
0.0677041
0.0717515
0.0724514
0.0701333
0.0686769
0.0630846
0.0635441
0.0675687
0.0684341
0.0650218
0.0647032
0.0616045
0.056845
0.0607911
0.0618352
0.0586691
0.0581831
0.0558911
0.0517606
0.0526305
0.0525346
0.0452013
0.0449169
0.0437155
0.0348572
0.0347522
0.0351802
0.0239812
0.0220388
0.0206168
0.00593419
0.00913352
0.0150055
0.029559
0.0279367
0.0283291
0.0536057
0.0519371
0.0512211
0.069312
0.0707693
0.0721985
0.0833225
0.0831541
0.0822566
0.0866982
0.0866287
0.0854389
0.0890311
0.0917214
0.0917624
0.0932276
0.09244
0.0889858
0.0909102
0.0952405
0.0958904
0.0968475
0.0952953
0.0905511
0.0873651
0.0944236
0.0966239
0.0984626
0.0968892
0.0895115
0.0867343
0.0949073
0.0975059
0.0994269
0.097666
0.090408
0.0893819
0.0969853
0.0994215
0.0981514
0.0950471
0.086474
0.0896894
0.0976998
0.0998869
0.0995704
0.0966667
0.0881073
0.0850692
0.0944827
0.0980607
0.0999066
0.0975128
0.08876
0.0871969
0.0964579
0.0995592
0.0977153
0.0938763
0.0837635
0.0876863
0.096875
0.0994868
0.0993541
0.0961266
0.0865771
0.0830518
0.0933565
0.0974139
0.0991974
0.0965433
0.0873945
0.0865968
0.0959621
0.0991689
0.0972271
0.0933205
0.0831294
0.0868685
0.0962043
0.098906
0.0987902
0.0955033
0.0859372
0.0828072
0.0930314
0.0969667
0.0988126
0.0960639
0.0867584
0.0856729
0.0953106
0.0986458
0.0967473
0.0928076
0.0823965
0.0865781
0.0958195
0.0986055
0.0985906
0.0953401
0.0855679
0.0838905
0.0939861
0.0979516
0.0956164
0.0909525
0.0791989
0.0838092
0.094656
0.0977133
0.0978232
0.0940447
0.0827654
0.0790586
0.0909911
0.0956466
0.0978018
0.0945981
0.0838468
0.0824734
0.0935821
0.0975941
0.0954117
0.09075
0.0784687
0.0834872
0.0945726
0.0976451
0.0977237
0.0939345
0.0825498
0.0788691
0.0908523
0.0955134
0.0977011
0.094422
0.0834121
0.0821792
0.093662
0.0975666
0.0954678
0.0906785
0.0787329
0.0836894
0.0946066
0.0978956
0.0978998
0.0938782
0.0825611
0.0787849
0.0908136
0.095659
0.0979287
0.0946181
0.0835358
0.0825316
0.0937564
0.0979032
0.0958573
0.0911026
0.0790947
0.0840847
0.0951206
0.098329
0.0983299
0.0941779
0.0830182
0.0787655
0.0911321
0.0959081
0.0983162
0.0950506
0.0834109
0.0811607
0.0929542
0.0971373
0.0996165
0.0966838
0.0863764
0.0858194
0.0961012
0.0997016
0.0976774
0.0933994
0.0826659
0.0867109
0.0968006
0.0998703
0.0996825
0.0959443
0.0854269
0.0824147
0.0934721
0.0978317
0.100367
0.0973913
0.0874009
0.08663
0.0969773
0.100605
0.0986859
0.0942979
0.0834043
0.0875392
0.0978418
0.100956
0.100762
0.0969335
0.0861262
0.0825769
0.0939293
0.0986412
0.101126
0.0979799
0.0875327
0.0870078
0.097574
0.101508
0.0994505
0.0949865
0.0834207
0.0875676
0.098798
0.1018
0.100406
0.0964358
0.085073
0.088888
0.0995422
0.10253
0.102443
0.0987423
0.0878696
0.0851679
0.0962804
0.100647
0.103115
0.100207
0.0898697
0.0890327
0.0996167
0.103314
0.101274
0.0969027
0.0855378
0.0896525
0.10071
0.103615
0.102174
0.0982199
0.0869825
0.0910895
0.101367
0.104359
0.104603
0.101048
0.0907763
0.0881221
0.0987295
0.10292
0.105209
0.10234
0.0923549
0.0914921
0.101681
0.105349
0.103382
0.0990883
0.0879266
0.09174
0.102768
0.105665
0.104144
0.100156
0.0888963
0.0930277
0.103291
0.106211
0.106601
0.103086
0.0928082
0.0900669
0.100856
0.104971
0.107206
0.10442
0.0942455
0.0932514
0.103834
0.107332
0.105243
0.100772
0.0898425
0.0935182
0.104593
0.107605
0.106164
0.102232
0.0906544
0.0949719
0.105452
0.108398
0.10865
0.104939
0.0945529
0.0914097
0.102541
0.106828
0.109315
0.106473
0.0955034
0.0934317
0.104489
0.108321
0.11065
0.107918
0.0978087
0.0966054
0.107047
0.110487
0.108238
0.103847
0.0931659
0.0964721
0.107364
0.110474
0.109415
0.10541
0.0942237
0.0992864
0.109236
0.111977
0.11207
0.108672
0.098496
0.0954351
0.105851
0.110156
0.112571
0.109713
0.0992853
0.0969174
0.107773
0.111464
0.113651
0.110975
0.100946
0.0998354
0.109887
0.113448
0.111236
0.10696
0.0959343
0.0997977
0.110652
0.113431
0.112707
0.10903
0.0981677
0.102536
0.112647
0.115214
0.115347
0.112086
0.101742
0.0984991
0.109035
0.113355
0.115618
0.112868
0.10192
0.0994976
0.110723
0.114436
0.116741
0.11401
0.103333
0.100644
0.111503
0.115271
0.117189
0.114445
0.104336
0.104
0.114047
0.117496
0.115861
0.111723
0.101245
0.104977
0.115507
0.118285
0.11729
0.113591
0.102811
0.106835
0.116974
0.119563
0.119477
0.116114
0.105705
0.102428
0.113037
0.117417
0.11964
0.116845
0.105615
0.102661
0.114354
0.118181
0.120389
0.117575
0.106398
0.104687
0.115829
0.11953
0.121977
0.119413
0.109326
0.108601
0.118679
0.122157
0.120401
0.116243
0.105475
0.108968
0.119989
0.12272
0.121441
0.117617
0.106456
0.110351
0.121148
0.12377
0.122596
0.119041
0.108328
0.111739
0.121879
0.12453
0.124273
0.120818
0.110397
0.107284
0.118
0.12237
0.124902
0.12214
0.111287
0.109168
0.120306
0.123993
0.126407
0.123863
0.113166
0.111197
0.121882
0.125414
0.127577
0.125073
0.115167
0.114374
0.124238
0.127621
0.125805
0.121708
0.111129
0.114329
0.125213
0.127957
0.126551
0.122698
0.111687
0.115024
0.125978
0.128733
0.127751
0.124032
0.113187
0.117402
0.127415
0.12998
0.130185
0.126666
0.116772
0.113333
0.124385
0.128439
0.130756
0.128084
0.116762
0.114433
0.125864
0.129613
0.131834
0.129387
0.118222
0.116104
0.127176
0.130715
0.132784
0.130243
0.120049
0.119083
0.129158
0.132685
0.130609
0.126385
0.115174
0.118522
0.129911
0.132817
0.131844
0.127828
0.116568
0.1209
0.131858
0.134484
0.13346
0.129785
0.118996
0.122704
0.133282
0.135795
0.134747
0.131286
0.120737
0.124478
0.134352
0.13682
0.136782
0.13357
0.12353
0.120517
0.130623
0.134889
0.13711
0.134401
0.123359
0.120657
0.132171
0.135872
0.138095
0.135327
0.123923
0.121586
0.132973
0.136857
0.139214
0.136599
0.12583
0.124072
0.134707
0.138313
0.140557
0.138107
0.128199
0.127492
0.137315
0.140724
0.139013
0.134931
0.124109
0.127462
0.138639
0.141323
0.140173
0.136321
0.12509
0.128748
0.139907
0.142507
0.141274
0.13759
0.12656
0.130197
0.140901
0.143438
0.14223
0.138633
0.128047
0.131534
0.141605
0.144212
0.144325
0.140813
0.130877
0.127642
0.138527
0.142658
0.145096
0.142327
0.131091
0.128788
0.140097
0.144035
0.14643
0.143896
0.132652
0.130561
0.141638
0.145306
0.14746
0.144925
0.134117
0.132015
0.142786
0.14638
0.148473
0.145947
0.13595
0.135007
0.1452
0.148472
0.146519
0.142178
0.131815
0.134593
0.146012
0.148726
0.147571
0.14379
0.1319
0.136085
0.147498
0.150176
0.149137
0.145327
0.134135
0.137949
0.149009
0.151602
0.150489
0.146834
0.135887
0.139408
0.15015
0.152715
0.151677
0.148112
0.137505
0.141267
0.151345
0.153823
0.153916
0.150381
0.140477
0.136815
0.148045
0.152174
0.154551
0.15164
0.140225
0.137651
0.149162
0.153227
0.155434
0.152776
0.141144
0.138825
0.150268
0.154178
0.156611
0.153928
0.142812
0.140955
0.151858
0.155599
0.15795
0.155368
0.144594
0.142784
0.153464
0.157048
0.159338
0.156866
0.146913
0.146085
0.156008
0.159454
0.157706
0.153548
0.14263
0.146135
0.157341
0.16009
0.158955
0.154981
0.143831
0.147707
0.15888
0.16149
0.160324
0.156575
0.14551
0.148986
0.159986
0.162609
0.161345
0.157601
0.146762
0.15034
0.160988
0.163596
0.162681
0.159135
0.148573
0.152359
0.162426
0.164895
0.165073
0.161565
0.151685
0.148154
0.159314
0.163412
0.165784
0.162934
0.151367
0.149034
0.160584
0.164669
0.167121
0.164545
0.152836
0.15054
0.162174
0.165959
0.168319
0.16574
0.154372
0.152338
0.163512
0.167188
0.169419
0.166832
0.155843
0.153958
0.164785
0.168416
0.170702
0.168214
0.158059
0.157263
0.167335
0.170876
0.169185
0.164963
0.153841
0.15729
0.168818
0.171632
0.170611
0.166596
0.155099
0.159062
0.170637
0.173236
0.172085
0.168275
0.156751
0.160635
0.171905
0.174509
0.173428
0.169752
0.158702
0.16222
0.173171
0.175765
0.174798
0.171163
0.160343
0.16433
0.174563
0.177058
0.177217
0.173587
0.163516
0.159732
0.171387
0.175546
0.178102
0.175127
0.163382
0.160983
0.172687
0.176918
0.179414
0.176758
0.164878
0.162603
0.174364
0.178276
0.180822
0.178161
0.166482
0.164429
0.175893
0.179715
0.182149
0.179501
0.168103
0.16609
0.177273
0.181068
0.183551
0.180962
0.17003
0.168223
0.179039
0.182667
0.184998
0.182475
0.172406
0.171526
0.181855
0.185273
0.1836
0.179322
0.168587
0.172066
0.183356
0.186134
0.185146
0.181298
0.169759
0.173867
0.185267
0.187873
0.186818
0.183035
0.17179
0.175572
0.186698
0.189311
0.188253
0.184509
0.173629
0.17732
0.188076
0.190664
0.189728
0.186138
0.175446
0.179408
0.189569
0.19206
0.192269
0.188711
0.178469
0.175292
0.186433
0.190666
0.193198
0.19041
0.178857
0.176353
0.187951
0.192049
0.194643
0.192
0.18029
0.178253
0.189828
0.193643
0.19614
0.193531
0.182055
0.180198
0.191427
0.1952
0.197823
0.195298
0.184256
0.182547
0.193494
0.197067
0.199449
0.197025
0.18679
0.18549
0.196185
0.19962
0.197912
0.193519
0.182582
0.18624
0.197708
0.200588
0.199488
0.195513
0.183714
0.18786
0.199531
0.202266
0.201186
0.197227
0.185722
0.189835
0.201178
0.20386
0.202919
0.19914
0.188
0.191865
0.202878
0.205489
0.204699
0.201012
0.190046
0.194424
0.204737
0.207255
0.207741
0.204141
0.193675
0.190703
0.201945
0.206285
0.209033
0.206239
0.194676
0.19244
0.20403
0.208053
0.210698
0.208009
0.19625
0.193862
0.205543
0.209523
0.212012
0.209281
0.197725
0.195635
0.207054
0.21096
0.213652
0.211019
0.199836
0.1979
0.209112
0.212834
0.215346
0.212794
0.202214
0.201458
0.212247
0.215873
0.214355
0.209964
0.198572
0.202416
0.214183
0.217084
0.216175
0.212061
0.200242
0.204747
0.216464
0.219171
0.218442
0.214528
0.202892
0.207881
0.218988
0.221462
0.22073
0.217173
0.206108
0.209653
0.220488
0.223017
0.223079
0.219278
0.208293
0.204738
0.216888
0.221401
0.224135
0.22118
0.208745
0.206344
0.218699
0.223072
0.225922
0.223151
0.210749
0.208435
0.220822
0.224915
0.227783
0.225005
0.213135
0.211029
0.222934
0.226933
0.229701
0.227008
0.215908
0.215054
0.226716
0.230374
0.228816
0.224094
0.212514
0.216687
0.228915
0.231936
0.231324
0.227269
0.214589
0.220281
0.232325
0.234872
0.233859
0.22997
0.217942
0.221514
0.233521
0.236315
0.235166
0.231156
0.219062
0.22359
0.235059
0.23784
0.238117
0.233955
0.22235
0.218848
0.231726
0.236577
0.239687
0.23659
0.22375
0.221238
0.234024
0.238631
0.241677
0.23877
0.226001
0.223849
0.236603
0.240861
0.244213
0.24136
0.229032
0.226984
0.239452
0.24358
0.246648
0.243938
0.232257
0.231847
0.243771
0.247762
0.246697
0.242071
0.229508
0.234339
0.247144
0.249977
0.24856
0.244109
0.231085
0.235351
0.248272
0.251275
0.25006
0.245754
0.232809
0.237461
0.250129
0.253076
0.252117
0.247869
0.235152
0.240129
0.252151
0.255049
0.255634
0.251428
0.239109
0.235968
0.249034
0.254032
0.257237
0.254055
0.240976
0.238642
0.251872
0.256461
0.26008
0.257205
0.244341
0.242281
0.255421
0.259659
0.263149
0.260449
0.248261
0.248529
0.260761
0.264714
0.26333
0.258596
0.245699
0.24973
0.263031
0.26616
0.264586
0.259863
0.246431
0.251097
0.264475
0.267684
0.266555
0.26199
0.248499
0.253762
0.266865
0.269916
0.269173
0.264774
0.251625
0.257083
0.269453
0.272462
0.273343
0.269089
0.256227
0.253529
0.26657
0.271813
0.275245
0.271964
0.25878
0.256452
0.270048
0.27464
0.278733
0.275831
0.262687
0.261043
0.274442
0.278728
0.282596
0.280268
0.268819
0.268587
0.280388
0.283841
0.281756
0.27698
0.26415
0.267579
0.281115
0.284466
0.283169
0.278419
0.26442
0.269922
0.283571
0.286754
0.285999
0.281418
0.267496
0.27336
0.286385
0.289454
0.290459
0.286014
0.272421
0.269541
0.283448
0.288936
0.292521
0.289041
0.275343
0.272823
0.287065
0.291947
0.296168
0.293081
0.27975
0.279657
0.293757
0.298305
0.297628
0.292247
0.277917
0.285277
0.299051
0.30199
0.300736
0.296171
0.281959
0.285961
0.300385
0.303797
0.302267
0.297279
0.282429
0.288136
0.302147
0.305555
0.306262
0.301345
0.286839
0.283493
0.298698
0.304606
0.308587
0.304837
0.289855
0.287188
0.302706
0.307945
0.312318
0.309017
0.29454
0.294067
0.309296
0.314181
0.312905
0.306991
0.291208
0.298509
0.313724
0.317431
0.317755
0.31265
0.297167
0.306644
0.320393
0.323019
0.323917
0.319666
0.305103
0.29957
0.315345
0.321179
0.324452
0.320418
0.304534
0.3008
0.317433
0.323039
0.327234
0.32356
0.308177
0.307146
0.323235
0.328643
0.327126
0.320615
0.303771
0.31112
0.32767
0.331774
0.331207
0.325371
0.308396
0.317182
0.332876
0.336395
0.339064
0.333761
0.317152
0.314959
0.332143
0.338465
0.344344
0.341121
0.326267
0.324064
0.339245
0.344044
0.347745
0.344331
0.328836
0.325631
0.342424
0.347551
0.344965
0.338312
0.321031
0.327942
0.345008
0.349409
0.348368
0.342468
0.324485
0.332927
0.349436
0.353298
0.355358
0.349651
0.332379
0.329371
0.347294
0.35417
0.359471
0.355364
0.33829
0.336675
0.354261
0.360135
0.366665
0.363845
0.349024
0.352234
0.367289
0.371096
0.36977
0.364533
0.348851
0.352402
0.368838
0.372976
0.372455
0.366758
0.348616
0.343928
0.362636
0.369915
0.375139
0.370554
0.352278
0.348995
0.368315
0.374461
0.380229
0.376251
0.358851
0.359074
0.377473
0.383263
0.382723
0.375729
0.356759
0.36731
0.384554
0.388608
0.393188
0.387886
0.369305
0.369333
0.387645
0.393773
0.399768
0.395813
0.378019
0.372827
0.393187
0.399271
0.395794
0.387782
0.366612
0.3753
0.395528
0.400872
0.399591
0.392508
0.371462
0.38247
0.401307
0.405803
0.409071
0.402663
0.3829
0.381063
0.401243
0.408885
0.41568
0.41151
0.393724
0.397286
0.416244
0.42145
0.422756
0.416842
0.398281
0.407109
0.425211
0.428975
0.428234
0.422101
0.401314
0.394438
0.416578
0.424851
0.429924
0.424561
0.404264
0.402691
0.424544
0.431607
0.430765
0.422143
0.399672
0.413647
0.433721
0.438633
0.444316
0.437677
0.415906
0.418354
0.439834
0.447039
0.456328
0.453604
0.436051
0.432632
0.453016
0.457984
0.456788
0.44894
0.42537
0.416015
0.442833
0.452828
0.458659
0.452596
0.428462
0.427159
0.45334
0.461406
0.461581
0.451958
0.425375
0.44612
0.467471
0.472228
0.48234
0.478113
0.455573
0.459126
0.482017
0.487805
0.483703
0.474441
0.447586
0.455318
0.480849
0.487659
0.486747
0.478506
0.449469
0.446712
0.47711
0.487923
0.487972
0.475541
0.443185
0.471368
0.49568
0.499922
0.51141
0.506823
0.482265
0.481711
0.508231
0.515389
0.509354
0.498258
0.465668
0.476588
0.505597
0.513195
0.513684
0.505188
0.472613
0.472409
0.507728
0.518002
0.528637
0.519015
0.482694
0.482893
0.51786
0.528407
0.536096
0.526633
0.494314
0.481728
0.520981
0.532469
0.532137
0.519339
0.475574
0.478509
0.52513
0.536975
0.542207
0.528802
0.480019
0.46902
0.523566
0.540623
0.529235
0.50831
0.451633
0.483363
0.523002
0.536139
0.53325
0.521768
0.480592
0.469784
0.516739
0.530605
0.524409
0.50788
0.451829
0.434232
0.495765
0.514415
0.502319
0.481294
0.414158
0.391073
0.465898
0.490115
0.478918
0.451862
0.371125
0.355128
0.440184
0.469633
0.461841
0.430068
0.341465
0.329332
0.420852
0.45489
0.448494
0.412286
0.3184
0.308545
0.404277
0.44253
0.436918
0.396754
0.299559
0.291364
0.389657
0.431593
0.426528
0.38296
0.283896
0.277071
0.376629
0.421692
0.417071
0.37066
0.270859
0.265224
0.365041
0.412645
0.408395
0.35975
0.260112
0.255484
0.354772
0.404302
0.400361
0.350087
0.251288
0.24749
0.345684
0.396558
0.392887
0.341538
0.244051
0.24095
0.337643
0.389335
0.385898
0.333979
0.238162
0.235668
0.330544
0.38257
0.379351
0.32732
0.23344
0.231458
0.324302
0.376238
0.37323
0.321472
0.229695
0.228132
0.318822
0.370323
0.367514
0.31634
0.226751
0.225541
0.314023
0.364803
0.362187
0.311856
0.22448
0.223556
0.30983
0.359666
0.357236
0.307926
0.222752
0.222058
0.306143
0.354898
0.35265
0.304469
0.221462
0.220955
0.302901
0.350493
0.34842
0.301429
0.220524
0.220163
0.30005
0.346438
0.344539
0.298755
0.219863
0.219617
0.297542
0.342729
0.340997
0.296402
0.219417
0.219259
0.295331
0.339348
0.337774
0.294324
0.219134
0.219043
0.293379
0.33628
0.334856
0.292486
0.218985
0.218947
0.291647
0.333505
0.33222
0.290852
0.218935
0.218935
0.290108
0.331004
0.329849
0.289402
0.21895
0.218968
0.288741
0.328754
0.327714
0.288113
0.218996
0.219025
0.287528
0.326733
0.325801
0.286973
0.21906
0.21909
0.286454
0.32492
0.324084
0.285962
0.219125
0.219155
0.285506
0.323298
0.322552
0.285073
0.219189
0.219213
0.28467
0.321848
0.32118
0.284288
0.219242
0.219267
0.283935
0.320555
0.31996
0.283602
0.219295
0.219313
0.283292
0.3194
0.318865
0.282996
0.219333
0.219346
0.282722
0.318364
0.317885
0.282464
0.219362
0.219368
0.282223
0.317434
0.317003
0.281992
0.219377
0.219379
0.281781
0.316599
0.316213
0.281579
0.219385
0.219382
0.281387
0.315848
0.315496
0.281203
0.219382
0.219379
0.281032
0.315168
0.314852
0.280868
0.219378
0.21937
0.280713
0.314552
0.314263
0.280563
0.219364
0.219356
0.280424
0.313993
0.313732
0.280291
0.219351
0.219339
0.280165
0.313485
0.313245
0.280044
0.219329
0.219317
0.279932
0.313023
0.312807
0.279825
0.219308
0.219294
0.279723
0.312603
0.312403
0.279625
0.21928
0.219266
0.279534
0.312219
0.312041
0.279448
0.219254
0.219239
0.279366
0.31187
0.311709
0.279287
0.219224
0.219209
0.279214
0.311554
0.311413
0.279146
0.219198
0.219185
0.279083
0.311272
0.311144
0.279023
0.219174
0.219161
0.278966
0.311015
0.310901
0.278914
0.219152
0.219142
0.278867
0.310784
0.310684
0.278822
0.219136
0.219127
0.278781
0.310576
0.310489
0.278744
0.219124
0.21912
0.278711
0.310391
0.310314
0.278681
0.21912
0.219118
0.278653
0.310225
0.310158
0.27863
0.219123
0.219126
0.278608
0.310078
0.31002
0.278591
0.219134
0.219142
0.278575
0.309947
0.309899
0.278565
0.219155
0.219169
0.278555
0.309834
0.309794
0.278552
0.219187
0.219205
0.278547
0.309736
0.309706
0.27855
0.219229
0.219252
0.278553
0.309655
0.309632
0.278561
0.21928
0.219308
0.278568
0.309588
0.309574
0.278583
0.219341
0.219375
0.278596
0.309536
0.309529
0.278616
0.219412
0.21945
0.278633
0.309497
0.309499
0.278658
0.219492
0.219534
0.278681
0.309472
0.30948
0.27871
0.21958
0.219626
0.278737
0.309458
0.309474
0.278771
0.219675
0.219725
0.278803
0.309458
0.309479
0.278841
0.219778
0.219831
0.278877
0.309467
0.309494
0.278919
0.219887
0.219944
0.278959
0.309488
0.30952
0.279004
0.220002
0.220061
0.279048
0.309518
0.309555
0.279096
0.220122
0.220184
0.279143
0.309559
0.309599
0.279195
0.220247
0.220311
0.279244
0.309606
0.309652
0.279299
0.220377
0.220442
0.279352
0.309663
0.309712
0.279409
0.22051
0.220578
0.279464
0.309727
0.309781
0.279525
0.220648
0.220718
0.279584
0.3098
0.309858
0.279647
0.220789
0.220862
0.279708
0.30988
0.309942
0.279774
0.220935
0.221009
0.279838
0.309967
0.310033
0.279906
0.221084
0.221159
0.279972
0.310061
0.31013
0.280043
0.221236
0.221313
0.280112
0.310161
0.310233
0.280184
0.22139
0.221468
0.280254
0.310266
0.310342
0.280329
0.221547
0.221626
0.280401
0.310378
0.310455
0.280477
0.221705
0.221784
0.280551
0.310493
0.310574
0.280628
0.221864
0.221944
0.280704
0.310614
0.310696
0.280782
0.222024
0.222104
0.280859
0.310738
0.310822
0.280938
0.222184
0.222264
0.281016
0.310866
0.310952
0.281096
0.222344
0.222424