/*--------------------------------*- C++ -*----------------------------------*\
| =========                 |                                                 |
| \\      /  F ield         | OpenFOAM: The Open Source CFD Toolbox           |
|  \\    /   O peration     | Version:  v2006                                 |
|   \\  /    A nd           | Website:  www.openfoam.com                      |
|    \\/     M anipulation  |                                                 |
\*---------------------------------------------------------------------------*/
FoamFile
{
    version     2.0;
    format      ascii;
    class       volScalarField;
    location    "0.135";
    object      alphat;
}
// * * * * * * * * * * * * * * * * * * * * * * * * * * * * * * * * * * * * * //

dimensions      [1 -1 -1 0 0 0 0];


internalField   nonuniform List<scalar> 
38932
(
0.104094
0.104097
0.104125
0.104122
0.104115
0.104103
0.104086
0.104064
0.104035
0.104002
0.103964
0.103921
0.103873
0.10382
0.103762
0.1037
0.103632
0.10356
0.103482
0.1034
0.103313
0.103222
0.103125
0.103024
0.102919
0.102808
0.102694
0.102574
0.10245
0.102322
0.10219
0.102053
0.101912
0.101767
0.101617
0.101464
0.101306
0.101145
0.10098
0.100811
0.100638
0.100462
0.100282
0.100099
0.0999123
0.0997224
0.0995292
0.099333
0.0991337
0.0989316
0.0987266
0.0985188
0.0983085
0.0980956
0.0978804
0.0976628
0.0974431
0.0972213
0.0969975
0.096772
0.0965446
0.0963158
0.0960854
0.0958537
0.0956208
0.0953869
0.095152
0.0949163
0.0946799
0.094443
0.0942057
0.0939682
0.0937306
0.0934931
0.0932557
0.0930187
0.0927823
0.0925465
0.0923115
0.0920775
0.0918446
0.0916129
0.0913828
0.0911542
0.0909273
0.0907024
0.0904795
0.0902589
0.0900407
0.089825
0.0896119
0.0894018
0.0891946
0.0889906
0.0887899
0.0885927
0.088399
0.0882092
0.0880232
0.0878412
0.0876634
0.0874898
0.0873207
0.0871562
0.0869962
0.0868411
0.0866908
0.0865455
0.0864053
0.0862702
0.0861404
0.0860158
0.0858967
0.085783
0.0856748
0.0855723
0.0854754
0.0853843
0.0852992
0.08522
0.0851464
0.085077
0.0850049
0.0849019
0.084768
0.0844363
0.0833975
0.0790836
0.0640923
0.0229164
0.00837922
0.000314718
0.000326268
0.00353309
0.00945248
0.0065584
0.00238175
0.000321364
0.000312769
0.00187066
0.00512715
0.00440982
0.00157919
0.00030369
0.000292128
0.00140516
0.00391111
0.00360876
0.00130689
0.000282732
0.000273347
0.0012252
0.00341627
0.00328933
0.00118312
0.000265776
0.000259827
0.00115211
0.00319453
0.00312096
0.0011285
0.000254884
0.000250652
0.00110958
0.00305953
0.00300563
0.00109359
0.000247026
0.000243885
0.00107947
0.00295637
0.0029099
0.00106648
0.000241132
0.000238688
0.00105419
0.0028654
0.00282238
0.00104236
0.000236489
0.000234485
0.00103086
0.00278063
0.00274009
0.00101964
0.000232636
0.000230912
0.00100868
0.00270073
0.00266255
0.000997987
0.000229288
0.000227746
0.00098758
0.00262557
0.00258978
0.000977467
0.000226271
0.00022485
0.000967661
0.00255519
0.00252178
0.000958167
0.000223475
0.000222138
0.000948988
0.00248952
0.00245838
0.000940122
0.000220833
0.000219554
0.000931563
0.00242831
0.00239927
0.000923305
0.000218298
0.000217061
0.000915337
0.00237121
0.00234409
0.000907648
0.000215838
0.000214628
0.000900228
0.00231786
0.00229247
0.000893064
0.000213428
0.000212234
0.000886146
0.00226787
0.00224404
0.000879462
0.000211046
0.000209859
0.000873002
0.00222093
0.00219851
0.000866756
0.000208673
0.000207486
0.000860714
0.00217674
0.0021556
0.000854869
0.000206295
0.000205099
0.000849212
0.00213505
0.00211507
0.000843735
0.000203896
0.000202684
0.000838433
0.00209563
0.00207672
0.000833299
0.000201462
0.000200227
0.000828328
0.00205831
0.00204039
0.000823513
0.000198979
0.000197715
0.000818852
0.00202293
0.00200593
0.000814339
0.000196433
0.000195132
0.000809971
0.00198936
0.00197321
0.000805743
0.00019381
0.000192465
0.000801654
0.00195746
0.00194212
0.000797701
0.000191096
0.0001897
0.000793881
0.00192716
0.00191258
0.000790194
0.000188275
0.000186821
0.00078664
0.00189837
0.00188453
0.000783218
0.000185334
0.000183812
0.00077993
0.00187105
0.00185792
0.000776777
0.000182254
0.000180657
0.000773763
0.00184516
0.00183276
0.00077089
0.000179019
0.000177337
0.000768165
0.00182073
0.00180907
0.00076559
0.00017561
0.000173834
0.000763174
0.00179779
0.0017869
0.000760923
0.000172008
0.000170128
0.000758847
0.00177641
0.00176633
0.000756955
0.000168191
0.000166195
0.000755264
0.00175669
0.0017475
0.000753784
0.000164138
0.000162015
0.000752538
0.00173881
0.00173063
0.000751548
0.000159825
0.000157565
0.000750839
0.00172301
0.00171602
0.000750437
0.000155232
0.000152825
0.000750392
0.00170971
0.00170414
0.00075073
0.00015034
0.000147778
0.000751524
0.00169943
0.0016956
0.0007528
0.000145136
0.000142417
0.000754666
0.00169286
0.00169122
0.000757158
0.000139621
0.000136752
0.000760421
0.001691
0.00169218
0.000764517
0.000133814
0.000130817
0.000769602
0.00169512
0.00170003
0.000775814
0.00012777
0.000124692
0.000783353
0.00170722
0.00171674
0.000792301
0.000121598
0.000118513
0.000802906
0.00172927
0.00174499
0.000815335
0.000115465
0.000112488
0.000829676
0.00176397
0.00178561
0.000845576
0.000109584
0.000106786
0.000863337
0.00181129
0.00184021
0.000882508
0.000104088
0.000101471
0.000902633
0.00187265
0.00190815
0.000923534
9.89391e-05
9.62265e-05
0.000941133
0.00194511
0.00198284
0.000953963
9.46173e-05
9.41398e-05
0.000957513
0.00202133
0.00206427
0.000957714
9.30254e-05
9.10045e-05
0.000950326
0.00209671
0.0021075
0.000930219
8.78943e-05
8.38268e-05
0.000895598
0.00208963
0.00204122
0.000847139
7.89118e-05
7.33591e-05
0.000784105
0.00195779
0.00183565
0.00070728
6.7661e-05
6.23829e-05
0.000621281
0.00167531
0.00146372
0.000523363
5.77994e-05
5.52067e-05
0.000416417
0.00121163
0.00102685
0.000353546
5.44183e-05
5.44321e-05
0.000324848
0.000926856
0.000881996
0.000310121
5.50504e-05
5.57445e-05
0.000302944
0.000863444
0.000859138
0.000302839
5.65647e-05
5.73293e-05
0.000307151
0.000868562
0.000887443
0.000314019
5.79892e-05
5.85388e-05
0.000321631
0.000908041
0.00092962
0.000330047
5.89379e-05
5.91441e-05
0.000337994
0.000951408
0.00097065
0.000344898
5.92083e-05
5.9184e-05
0.000350119
0.00098764
0.0010054
0.000356195
5.90029e-05
5.86283e-05
0.000360325
0.00101826
0.00102854
0.000364028
5.8139e-05
5.75004e-05
0.000366749
0.0010359
0.00103969
0.000368471
5.67234e-05
5.58436e-05
0.000369298
0.00104041
0.00103756
0.000368958
5.48073e-05
5.36789e-05
0.000367778
0.00103161
0.00102226
0.000365504
5.24356e-05
5.10663e-05
0.000362211
0.00100969
0.000993919
0.000358007
4.95961e-05
4.80268e-05
0.000352858
0.000975021
0.000952816
0.000346703
4.63234e-05
4.45328e-05
0.000339731
0.000927388
0.000898196
0.00033166
4.25687e-05
4.05674e-05
0.000322688
0.000864765
0.000825942
0.000312142
3.8315e-05
3.57565e-05
0.00029978
0.000779771
0.000721348
0.000283866
3.26824e-05
2.92592e-05
0.000262707
0.000643766
0.000536722
0.000231873
2.47527e-05
1.92682e-05
0.00018492
0.000389058
0.000196694
9.97968e-05
1.42148e-05
9.09817e-06
4.37352e-05
4.9513e-05
6.22938e-05
8.4511e-05
0.000104801
0.000126077
0.000140032
0.000153733
0.000163235
0.000172249
0.000179335
0.000185558
0.000190783
0.000195334
0.000197432
0.000199864
0.000200161
0.000221745
0.000213034
0.00020412
0.000188269
0.000119391
6.66846e-05
8.28594e-05
9.85892e-05
6.64983e-05
3.17949e-05
3.46349e-05
3.62549e-05
3.33966e-05
2.94482e-05
2.57907e-05
1.51021e-05
1.16877e-05
9.32822e-06
7.52265e-06
5.68202e-06
1.24328e-05
2.29669e-05
3.68956e-05
6.33262e-05
0.000157913
0.000110688
6.72103e-05
2.83081e-05
7.16892e-06
9.06456e-06
5.32638e-05
0.000126416
0.000196951
0.000266358
0.000349946
0.000254255
0.000161391
6.70727e-05
1.05182e-05
1.12569e-05
7.63274e-05
0.000185092
0.00029589
0.000406936
0.000441457
0.00032236
0.000199195
8.18264e-05
1.17705e-05
1.18294e-05
8.34251e-05
0.00020375
0.000330683
0.000453658
0.000453263
0.00032958
0.000202632
8.2791e-05
1.16301e-05
1.12921e-05
8.14731e-05
0.000199064
0.000323924
0.000446391
0.000435603
0.000316839
0.00019497
8.02148e-05
1.08726e-05
1.05112e-05
7.9493e-05
0.000192194
0.0003115
0.000427834
0.00042536
0.000308878
0.000190939
7.95938e-05
1.02067e-05
9.94636e-06
7.97614e-05
0.00019006
0.000307355
0.000423889
0.000423021
0.00030572
0.000188928
7.96313e-05
9.62716e-06
9.23706e-06
7.82695e-05
0.000185886
0.000302312
0.000420648
0.000411152
0.000292915
0.000178719
7.46017e-05
8.63493e-06
8.03952e-06
6.74122e-05
0.000165222
0.000276451
0.00039495
0.000371513
0.000252714
0.000145763
5.72793e-05
7.19175e-06
5.79352e-06
4.32181e-05
0.000119119
0.000220823
0.000340712
0.000298425
0.000178589
8.08778e-05
2.27991e-05
3.63892e-06
2.45238e-06
1.08233e-05
5.04969e-05
0.000125292
0.000238837
0.000163387
6.82108e-05
2.94754e-05
8.1163e-06
2.79354e-06
3.37731e-06
5.07542e-06
1.66459e-05
4.5431e-05
9.1723e-05
6.38469e-05
2.27391e-05
8.36421e-06
5.4504e-06
7.84076e-06
7.48477e-06
5.43369e-06
8.29453e-06
2.32325e-05
6.58378e-05
6.22852e-05
2.04222e-05
8.11422e-06
6.69253e-06
8.45079e-06
8.56797e-06
7.22974e-06
9.03106e-06
2.20637e-05
6.63858e-05
7.22371e-05
2.61711e-05
1.05628e-05
7.6155e-06
7.61859e-06
6.14425e-06
8.23274e-06
1.23429e-05
3.01736e-05
7.63307e-05
8.64064e-05
3.62397e-05
1.42381e-05
6.86296e-06
6.717e-06
7.44221e-06
6.61891e-06
1.58475e-05
4.05138e-05
9.41429e-05
9.66155e-05
4.35914e-05
1.67831e-05
7.62731e-06
5.91406e-06
5.59967e-06
8.49827e-06
1.80438e-05
4.47562e-05
9.73743e-05
0.000105623
5.18207e-05
2.08356e-05
7.36672e-06
5.76394e-06
6.47198e-06
8.21237e-06
2.06293e-05
5.03714e-05
0.000105761
0.000108645
5.27586e-05
2.19274e-05
8.10877e-06
6.39096e-06
7.29652e-06
8.65384e-06
2.17168e-05
5.00143e-05
0.000107044
0.000106293
4.93735e-05
2.12174e-05
9.7418e-06
7.3374e-06
6.74695e-06
1.09025e-05
2.44998e-05
5.33521e-05
0.000109765
0.000118465
5.7886e-05
2.49037e-05
9.1084e-06
7.90361e-06
8.55457e-06
1.03777e-05
2.56779e-05
5.66977e-05
0.0001198
0.000129137
6.65528e-05
2.84602e-05
1.09333e-05
6.48537e-06
7.35098e-06
1.06955e-05
3.10697e-05
6.91109e-05
0.000132315
0.000140331
7.36193e-05
3.17031e-05
1.01607e-05
6.9371e-06
7.18384e-06
1.23485e-05
3.20243e-05
7.01013e-05
0.000134258
0.000136451
7.18371e-05
3.30666e-05
1.08844e-05
7.69108e-06
8.86339e-06
1.21604e-05
3.42108e-05
6.79586e-05
0.000134338
0.000135603
6.99478e-05
3.36549e-05
1.40128e-05
8.23886e-06
8.57215e-06
1.34168e-05
3.80401e-05
7.34385e-05
0.000139419
0.000150228
7.66017e-05
3.63895e-05
1.20554e-05
9.69417e-06
9.96622e-06
1.48756e-05
3.94467e-05
7.68482e-05
0.000151034
0.000169933
9.47846e-05
4.27368e-05
1.29589e-05
7.49415e-06
9.67078e-06
1.28044e-05
4.32141e-05
9.00388e-05
0.000169904
0.000176515
9.95644e-05
4.59539e-05
1.50643e-05
7.48386e-06
9.05345e-06
1.40597e-05
4.7458e-05
9.88044e-05
0.000176988
0.000182924
0.000102665
4.76985e-05
1.4637e-05
8.03462e-06
8.80997e-06
1.65811e-05
4.94515e-05
0.000100973
0.000179115
0.000186203
0.000103916
4.95299e-05
1.4173e-05
8.76995e-06
9.59458e-06
1.68712e-05
5.0871e-05
0.000100211
0.000182594
0.000190667
0.000108189
5.20647e-05
1.58157e-05
8.75243e-06
1.04175e-05
1.57658e-05
5.52846e-05
0.000103401
0.000191726
0.000194865
0.000106674
5.24487e-05
1.63071e-05
1.05224e-05
9.86187e-06
2.10231e-05
5.89244e-05
0.000110148
0.000194651
0.000208795
0.000119158
5.70498e-05
1.66593e-05
9.9109e-06
1.18414e-05
1.76901e-05
6.11037e-05
0.000114691
0.000208866
0.000214992
0.000123992
6.06935e-05
1.98039e-05
9.6783e-06
1.12289e-05
1.82445e-05
6.44967e-05
0.00012584
0.00021797
0.000223627
0.000127573
6.3254e-05
1.79978e-05
1.02683e-05
1.07542e-05
2.25904e-05
6.69271e-05
0.000129459
0.000223009
0.000232216
0.000132666
6.59481e-05
1.82016e-05
1.03945e-05
1.19397e-05
2.08693e-05
7.03448e-05
0.000126722
0.000228086
0.000237783
0.000138089
6.89732e-05
2.21305e-05
1.06553e-05
1.19345e-05
1.9963e-05
7.49264e-05
0.000135147
0.000241725
0.000243415
0.000137367
6.99364e-05
2.02543e-05
1.23911e-05
1.1925e-05
2.74413e-05
7.86878e-05
0.000141865
0.000242416
0.000259137
0.000150813
7.41526e-05
2.14721e-05
1.1853e-05
1.4174e-05
2.25217e-05
8.19414e-05
0.000146438
0.000260021
0.000269776
0.000159685
7.97434e-05
2.55169e-05
1.14462e-05
1.38111e-05
2.19854e-05
8.39848e-05
0.000158779
0.000274706
0.000277608
0.000162142
8.21711e-05
2.35998e-05
1.2108e-05
1.2847e-05
2.65055e-05
8.7093e-05
0.000169602
0.000282739
0.000289359
0.000168349
8.5133e-05
2.3541e-05
1.22416e-05
1.32378e-05
2.89175e-05
8.93871e-05
0.000169013
0.000288791
0.000294858
0.000169143
8.62487e-05
2.34789e-05
1.26847e-05
1.43736e-05
2.69539e-05
9.35578e-05
0.000160694
0.000283719
0.000295649
0.00017485
9.01373e-05
2.88718e-05
1.3676e-05
1.35043e-05
2.64842e-05
9.89808e-05
0.000181882
0.000308139
0.000315368
0.000190608
9.60953e-05
3.13638e-05
1.32226e-05
1.30234e-05
3.04847e-05
9.3106e-05
0.000180899
0.000303133
0.000268367
0.000149934
8.22124e-05
2.56634e-05
1.63353e-05
1.78697e-05
2.83883e-05
9.25157e-05
0.000155583
0.000272252
0.000318495
0.000171787
9.55235e-05
2.78825e-05
1.62394e-05
1.66413e-05
2.81852e-05
8.83068e-05
0.00020502
0.000362926
0.000502705
0.000277815
0.000124235
4.3018e-05
2.19494e-05
2.81372e-05
7.38718e-05
0.000220252
0.000496952
0.000897432
0.0011137
0.000680932
0.000341776
0.000118311
3.53677e-05
4.30176e-05
0.000177084
0.000471751
0.000865928
0.00134466
0.00155848
0.00104633
0.000599095
0.000237764
5.01795e-05
5.63022e-05
0.000297549
0.000717063
0.00121071
0.00175559
0.001939
0.00136398
0.000825047
0.000347005
6.12211e-05
6.61738e-05
0.000394741
0.000922835
0.00150165
0.00210277
0.00223272
0.00162255
0.00101351
0.000441662
7.09111e-05
7.51118e-05
0.000489879
0.00110577
0.00175099
0.00239294
0.00254398
0.0018658
0.00118393
0.000527729
7.87949e-05
8.31021e-05
0.000556445
0.00125693
0.00198061
0.00270247
0.00286598
0.00210004
0.00133356
0.000593683
8.84581e-05
9.73753e-05
0.000627458
0.00141029
0.00220984
0.0029955
0.00312574
0.00233262
0.0015058
0.000684438
0.000106416
0.000113797
0.000746354
0.00161507
0.00248463
0.00331846
0.00351351
0.0026393
0.00172485
0.000802282
0.000120567
0.000127441
0.000867088
0.00183471
0.00279156
0.00370125
0.00389154
0.00293475
0.00193722
0.000931634
0.00013189
0.000132752
0.00096471
0.00199483
0.00302622
0.00406855
0.00392258
0.00296494
0.00195824
0.000944051
0.0001302
0.00012743
0.000916464
0.00189518
0.00284277
0.00369725
0.00388151
0.00291749
0.00192577
0.00092268
0.000129731
0.00013127
0.000964177
0.00200984
0.00305088
0.00405816
0.00423414
0.00318681
0.00210386
0.00101944
0.00013471
0.000135249
0.00104788
0.00218402
0.00331148
0.00439975
0.00455081
0.0034227
0.00225374
0.00107895
0.000139117
0.000135635
0.00108058
0.00227837
0.00348311
0.00466691
0.00464225
0.00343233
0.00224119
0.00106605
0.000133715
0.000124507
0.00100502
0.00211255
0.00320846
0.00422087
0.00377311
0.00291342
0.00193843
0.000922642
0.000114894
0.000105355
0.000851498
0.00180065
0.00274999
0.00370457
0.00348297
0.00260533
0.00169529
0.000792319
9.89505e-05
9.2248e-05
0.000743065
0.00159456
0.00243807
0.00321348
0.00326462
0.00240942
0.00155829
0.000723817
9.13158e-05
8.96314e-05
0.000717711
0.00156142
0.00243027
0.00329981
0.00329162
0.00243169
0.00156329
0.000719057
9.01407e-05
8.96055e-05
0.000720487
0.00156294
0.00243133
0.00329449
0.0033076
0.00243812
0.00156483
0.000723062
9.08391e-05
8.9137e-05
0.000723306
0.0015722
0.00245575
0.003341
0.00337363
0.00245094
0.00156861
0.000723306
8.92512e-05
8.5952e-05
0.000702478
0.00151863
0.00236119
0.0031936
0.00299242
0.00224813
0.00145037
0.000669229
8.2849e-05
8.36235e-05
0.000671443
0.00146726
0.00229344
0.00312903
0.00326182
0.00239011
0.00152575
0.000699125
8.69732e-05
8.92805e-05
0.000735482
0.00159276
0.00249035
0.00339249
0.00351972
0.0025795
0.00165042
0.000761396
8.96418e-05
8.81058e-05
0.000760813
0.00166014
0.00261278
0.00361284
0.00343288
0.00253159
0.00161687
0.00073762
8.46228e-05
8.03641e-05
0.000708368
0.00156123
0.00242662
0.00323346
0.00339833
0.00248721
0.00158098
0.000707913
7.91617e-05
8.29656e-05
0.000732034
0.00164429
0.00259856
0.00356461
0.00371826
0.00271284
0.00171826
0.000764852
8.61731e-05
8.83457e-05
0.000792326
0.00177533
0.00281131
0.00386181
0.00397945
0.00285747
0.00179959
0.000805174
8.9259e-05
8.81045e-05
0.00079745
0.00176657
0.00278191
0.00379096
0.00359238
0.00268993
0.0017292
0.000784534
8.71816e-05
8.78079e-05
0.000793897
0.00176532
0.00277146
0.00378637
0.00398532
0.00290896
0.00184185
0.000823748
9.04283e-05
9.49528e-05
0.000857848
0.00192612
0.00304502
0.00417616
0.00435645
0.00317229
0.00200482
0.000903182
9.80121e-05
9.91044e-05
0.000913955
0.00204146
0.00323746
0.00451029
0.00430982
0.00315955
0.00200884
0.000907603
9.77364e-05
9.60047e-05
0.000901874
0.00198247
0.00307814
0.00410672
0.00434065
0.00318149
0.00202931
0.000915339
9.67066e-05
9.94235e-05
0.000951638
0.00212693
0.00335073
0.00458292
0.00482175
0.00351232
0.00221975
0.000993289
0.000104214
0.000107389
0.00102107
0.0022711
0.00360275
0.0050214
0.00482048
0.00354083
0.00226024
0.00102205
0.000107416
0.000105957
0.0010194
0.00223658
0.00347233
0.00462182
0.00490197
0.00359815
0.00229313
0.00103651
0.000107397
0.000111989
0.00107924
0.00239608
0.00378094
0.00519199
0.00543732
0.0038918
0.00245756
0.00111276
0.000115925
0.000114994
0.00111477
0.00244848
0.00383963
0.00523649
0.00504894
0.00378801
0.002442
0.00111527
0.000115445
0.000117995
0.00114574
0.00252583
0.0039515
0.00537645
0.00571443
0.00416864
0.00264292
0.00119465
0.000122493
0.000126319
0.00123165
0.00271958
0.00431192
0.00602149
0.00582414
0.00427706
0.00273815
0.00125023
0.000128087
0.000129577
0.00127157
0.00275607
0.00424987
0.00564696
0.00603947
0.00445057
0.00286078
0.00130944
0.000131659
0.000133919
0.00135625
0.00300544
0.00472629
0.00645952
0.00684974
0.00492412
0.00311371
0.00141444
0.000143013
0.000150967
0.00146986
0.0031681
0.00492177
0.00667773
0.00653483
0.0049364
0.00322456
0.00151227
0.00015875
0.000167019
0.00157669
0.0033472
0.00517813
0.00700912
0.00748649
0.00540868
0.00347114
0.00163591
0.000174378
0.000177483
0.00167183
0.00351957
0.00541971
0.00732471
0.00719839
0.00544369
0.00356529
0.00169367
0.000174152
0.000169406
0.00169838
0.00366397
0.00570475
0.00773278
0.0082873
0.00594274
0.00374786
0.00167952
0.000156886
0.000159815
0.00168238
0.00379057
0.00597765
0.0081416
0.00807838
0.00605553
0.00389138
0.0017632
0.000175254
0.000191037
0.00185224
0.00403839
0.00632103
0.00873721
0.00869977
0.0064474
0.00416841
0.00193938
0.000205326
0.00022216
0.00204512
0.00432302
0.0066156
0.00872452
0.00948976
0.00694515
0.00451144
0.00214928
0.000237859
0.000253283
0.00225119
0.00467165
0.00711376
0.00950657
0.00957318
0.00732808
0.00486459
0.00236577
0.000270112
0.000286137
0.0024871
0.00509177
0.00772163
0.0104356
0.0105078
0.0079352
0.00528604
0.00259928
0.000302919
0.000321283
0.00272414
0.00550968
0.00820458
0.0106025
0.0114989
0.00858295
0.00569613
0.00281587
0.000331314
0.00031714
0.00280401
0.00570612
0.00862679
0.0114785
0.0114018
0.00854649
0.00558661
0.00269129
0.000310116
0.000331766
0.00267592
0.00551741
0.00849382
0.0114106
0.0117125
0.00869633
0.00564691
0.00277513
0.000373818
0.000389832
0.00290072
0.00588714
0.00896922
0.01197
0.0127207
0.00949303
0.00617838
0.00297563
0.000374616
0.000340375
0.00290925
0.00624908
0.00971072
0.0132547
0.0129439
0.00962932
0.00624689
0.00296918
0.000355699
0.00043201
0.00318464
0.0063464
0.00954997
0.0126775
0.012441
0.00944883
0.00643866
0.00339212
0.000498463
0.000524126
0.00344319
0.0062992
0.0092078
0.0121206
0.01164
0.00871174
0.00580869
0.00298922
0.000521498
0.000499075
0.00239615
0.00503454
0.00787839
0.0108206
0.00912238
0.00663089
0.00416778
0.00188103
0.000441169
0.000378004
0.00151126
0.00351577
0.00577393
0.00809583
0.0071213
0.00504856
0.00310662
0.00138296
0.000339854
0.000316386
0.00120438
0.00279234
0.00462769
0.00663065
0.00596225
0.00419392
0.00253402
0.00108016
0.000289057
0.000267436
0.000964877
0.00234884
0.00396639
0.00573796
0.00520556
0.00360961
0.00212678
0.000847722
0.000238097
0.00020051
0.000766725
0.00203013
0.00352081
0.00516745
0.00475481
0.00329519
0.00191866
0.000713563
0.000178544
0.000180419
0.000783974
0.00195672
0.00333035
0.00486755
0.00455844
0.00321895
0.00195274
0.000822797
0.000179881
0.000177112
0.000866253
0.00201169
0.00331296
0.00475099
0.00460752
0.00322506
0.00199642
0.000879595
0.000173671
0.000165708
0.000855867
0.00190475
0.003003
0.00405919
0.00419589
0.00303922
0.00192846
0.000869089
0.000157814
0.000156226
0.000919159
0.0019465
0.0030042
0.00408332
0.0043469
0.00315636
0.00203646
0.000977688
0.000160876
0.000166086
0.0010089
0.00205938
0.00314954
0.0043411
0.00396843
0.00302525
0.00203306
0.00102747
0.000170109
0.000170621
0.00102138
0.00205239
0.00309054
0.00414822
0.0041415
0.00305536
0.00203756
0.00101662
0.00016921
0.00016504
0.000979533
0.00197124
0.0029265
0.00381096
0.00397568
0.00297603
0.00196864
0.000945988
0.000158497
0.000151695
0.000934392
0.00194438
0.00293645
0.00397548
0.00366531
0.00281905
0.00188768
0.000906413
0.000145456
0.000139485
0.000909457
0.00190739
0.0028726
0.00381414
0.0038007
0.00289459
0.00194666
0.000954207
0.000138019
0.000142443
0.00100829
0.00203923
0.00305234
0.00405745
0.00411994
0.00307818
0.00207093
0.00103752
0.000146068
0.000147692
0.00103914
0.0020549
0.00300186
0.00386576
0.00405467
0.00308723
0.00208773
0.00105242
0.000148545
0.000149542
0.00106125
0.0020964
0.00309245
0.00410749
0.00385647
0.00300937
0.00206607
0.00105004
0.000149337
0.000149827
0.00106237
0.0020995
0.00308931
0.00403891
0.00409093
0.00308313
0.00209031
0.00105122
0.000149199
0.000148056
0.00104182
0.00205828
0.00300096
0.0038488
0.00402421
0.0030736
0.0020787
0.00104128
0.000146789
0.000145314
0.0010273
0.00207204
0.00307337
0.00408051
0.00383956
0.00298866
0.00203673
0.00101493
0.000142975
0.000141417
0.00101641
0.00206228
0.00306267
0.00401536
0.00407546
0.00306269
0.00205823
0.00101397
0.000139681
0.000137383
0.000994467
0.00202451
0.00298679
0.00384053
0.00401996
0.003068
0.00206411
0.00101975
0.000136916
0.000136677
0.00101461
0.00206193
0.00307085
0.0040894
0.00385984
0.00299936
0.00203329
0.00100522
0.000135504
0.000134273
0.00100265
0.00206577
0.00308356
0.00404818
0.00412578
0.00308824
0.00205378
0.000992401
0.00013205
0.000127952
0.000943566
0.00197774
0.00296812
0.00391592
0.00365733
0.00283172
0.00189287
0.000898507
0.00012301
0.000119976
0.000898387
0.00190238
0.00287845
0.00380462
0.00386476
0.00287329
0.00189731
0.000901568
0.000118214
0.00011727
0.000902186
0.00187441
0.00280524
0.00364276
0.00381908
0.00288748
0.00191186
0.000914507
0.000117096
0.000116466
0.00090938
0.00191091
0.00289205
0.00388942
0.00366788
0.00282536
0.00188606
0.000903885
0.000115356
0.000115025
0.000904264
0.00191517
0.00290338
0.00384386
0.00391732
0.00291045
0.00191842
0.000913544
0.000114416
0.00011395
0.000893213
0.00188881
0.00284133
0.00369054
0.00386668
0.00291795
0.00192151
0.000906752
0.000113048
0.000113018
0.000901918
0.00191696
0.00291705
0.00393433
0.0037024
0.00284529
0.00188862
0.000892932
0.000111998
0.000111761
0.000902551
0.00191775
0.00291881
0.00387507
0.00394095
0.00291924
0.00191316
0.000894616
0.000111318
0.000109994
0.000882021
0.00188067
0.00284077
0.00370365
0.00387312
0.0029109
0.00190599
0.000891214
0.00010976
0.000109177
0.000882434
0.00189846
0.00290933
0.00393837
0.00369592
0.00282772
0.00186037
0.00086266
0.000107406
0.000106206
0.000872279
0.00188632
0.00289338
0.00386165
0.00392084
0.00288587
0.00187819
0.000871996
0.000105582
0.00010448
0.000852337
0.00184167
0.00280756
0.00367832
0.00384177
0.00287274
0.00186664
0.000859121
0.000103287
0.000102919
0.000857732
0.00185811
0.00286703
0.00389754
0.00365728
0.00278931
0.00182873
0.000842223
0.000101718
0.0001002
0.000842681
0.00184786
0.00285347
0.00382141
0.00387826
0.00284664
0.00184099
0.000845537
9.9306e-05
9.87334e-05
0.000826773
0.00181298
0.00277708
0.00364638
0.00382138
0.00285189
0.00184352
0.000840135
9.83904e-05
9.89065e-05
0.000838676
0.00184763
0.00286178
0.00389817
0.00369649
0.00281372
0.00183936
0.000840503
9.87024e-05
0.000100991
0.000861174
0.00189094
0.00292273
0.00390981
0.00402407
0.00296662
0.00192232
0.000878068
0.000102974
0.000104873
0.000900883
0.00195756
0.00297986
0.00389292
0.00417868
0.00315909
0.00206474
0.000944982
0.000109695
0.000113304
0.000999971
0.00215592
0.00329573
0.00443437
0.00439067
0.00338636
0.00225343
0.00105018
0.000124252
0.00013281
0.00115222
0.00245025
0.00365164
0.00469066
0.00513591
0.00402635
0.00272093
0.00127965
0.00015112
0.000168853
0.00144321
0.00308555
0.00463774
0.00604361
0.00656683
0.00495193
0.00329133
0.00154202
0.000181412
0.000189505
0.00156294
0.00330687
0.0049578
0.00652392
0.00618193
0.00482371
0.0032484
0.00154359
0.000191508
0.000195497
0.00156297
0.00330345
0.00494254
0.00644263
0.00652022
0.00502906
0.00338472
0.00160993
0.000202965
0.000210929
0.00168211
0.0035373
0.00531613
0.00694995
0.00711621
0.00537742
0.00358868
0.00171632
0.000218843
0.000224032
0.00171037
0.0035451
0.0052479
0.00672472
0.00703143
0.00538645
0.0036009
0.00172364
0.000214878
0.000212974
0.00172009
0.00358958
0.00538382
0.0071414
0.00670989
0.00522311
0.00351486
0.00168769
0.000210001
0.000209096
0.00170653
0.00356953
0.00535448
0.007004
0.00710568
0.00535122
0.00356606
0.00171164
0.000209277
0.000208108
0.00168283
0.00349455
0.00518927
0.0066727
0.00696615
0.00531581
0.00354033
0.00169171
0.000206894
0.000206086
0.00169206
0.00353323
0.00531249
0.00706813
0.00663356
0.00514657
0.00345406
0.00164882
0.000204347
0.000203914
0.00166676
0.00350308
0.00527524
0.00692961
0.00703138
0.00527337
0.00349763
0.00166917
0.000203858
0.000201891
0.00163782
0.00342542
0.00510974
0.00659578
0.00688849
0.00523361
0.0034688
0.0016459
0.000200873
0.000199842
0.00163113
0.00344693
0.00522098
0.00697949
0.00653459
0.0050474
0.00336604
0.00159601
0.000197798
0.000196219
0.00159254
0.00339453
0.00515745
0.00681824
0.00688227
0.00513117
0.0033722
0.00158235
0.00019367
0.000192084
0.00155908
0.00329492
0.00495489
0.00642942
0.00666932
0.00505359
0.00333856
0.00157485
0.000193222
0.00019631
0.00159996
0.00338728
0.00509624
0.00667953
0.00708108
0.00534676
0.00350641
0.00164381
0.000200627
0.000202652
0.00164858
0.0035206
0.00535266
0.00717383
0.00671047
0.00516919
0.00343317
0.00162219
0.000202091
0.0002009
0.00162293
0.00346347
0.00527486
0.0069916
0.00702951
0.00522627
0.00342161
0.00160233
0.000198297
0.000195605
0.00155962
0.00332773
0.00503071
0.0065391
0.00677441
0.00511298
0.00335689
0.00156812
0.000194877
0.000196941
0.00158572
0.00339373
0.00513912
0.00676119
0.00716284
0.00538219
0.00350656
0.0016259
0.00019979
0.000200917
0.00163114
0.0035084
0.00537108
0.00723255
0.00673401
0.00516568
0.00340943
0.00159322
0.000199625
0.000197798
0.0015911
0.00343187
0.00526668
0.00701675
0.00703977
0.00520596
0.00338419
0.00156463
0.000195723
0.000193908
0.00152964
0.00328428
0.00499238
0.00651852
0.00675238
0.00506895
0.00330667
0.00153151
0.000193618
0.000195247
0.00154868
0.00333881
0.00508465
0.00672394
0.00712733
0.00532515
0.00344299
0.00158387
0.00019822
0.000198812
0.00158505
0.00344268
0.00530918
0.00718523
0.00665752
0.00508927
0.00334117
0.00155018
0.000197132
0.000195549
0.00154418
0.0033534
0.00517927
0.00693468
0.00694589
0.0051146
0.00330286
0.0015149
0.000193509
0.000190446
0.00146214
0.00318689
0.00487903
0.00640299
0.00663039
0.00495073
0.00320012
0.00146673
0.000189584
0.000190692
0.00147937
0.00322549
0.00494713
0.00657896
0.00697667
0.00517253
0.00331481
0.00151041
0.000192653
0.000193406
0.00151063
0.0033063
0.00513658
0.00700196
0.00644885
0.00490677
0.00320267
0.00147612
0.00019144
0.000191741
0.00147673
0.00321801
0.00498003
0.00667841
0.0066215
0.00497928
0.00324694
0.00149414
0.000194009
0.000196273
0.00151976
0.00332636
0.00519066
0.00701305
0.00703305
0.00515466
0.0033086
0.00151052
0.000195748
0.000193068
0.00145522
0.00319164
0.00490327
0.00645264
0.00667958
0.00496728
0.00319421
0.00145293
0.000191864
0.00019271
0.00146019
0.00320573
0.00494807
0.00660322
0.00699347
0.00515614
0.00328611
0.0014862
0.000193955
0.000193653
0.00148206
0.00326872
0.00511246
0.00700134
0.00640789
0.004858
0.00315393
0.00144432
0.000192144
0.000192012
0.00143777
0.00315973
0.00492218
0.00663563
0.00655424
0.00490255
0.00317383
0.00144674
0.000193032
0.000194746
0.00147205
0.0032542
0.005115
0.00694805
0.00695529
0.00506688
0.00323029
0.00146636
0.000194888
0.000193061
0.00140772
0.00310699
0.00480365
0.00634998
0.00657612
0.00485934
0.00310087
0.00139735
0.000191637
0.000192346
0.00141294
0.00311567
0.00483776
0.00648952
0.00687555
0.00504335
0.00319356
0.00143619
0.000193826
0.000192584
0.00142704
0.00316573
0.00499039
0.00687386
0.0062538
0.00471969
0.0030397
0.00137306
0.000189755
0.000187804
0.00136255
0.00303339
0.00477111
0.0064781
0.00637093
0.00473519
0.00303464
0.00136495
0.000187997
0.00018926
0.0013877
0.00310309
0.00492747
0.00675306
0.00674209
0.00487095
0.00307181
0.00136163
0.000188242
0.000184292
0.00129515
0.00292664
0.00458477
0.00610388
0.00632104
0.00462441
0.00291472
0.00128755
0.000181835
0.000183825
0.00130748
0.00292662
0.00459586
0.0062083
0.00655413
0.00478206
0.00302157
0.00135128
0.000188353
0.000191597
0.00137597
0.00306257
0.00478916
0.00645897
0.00686512
0.00500591
0.00314545
0.00140572
0.000194504
0.000194656
0.00139709
0.00312711
0.0049536
0.0068491
0.00619158
0.00464984
0.00297026
0.00132203
0.000191474
0.000189324
0.00131192
0.00295366
0.0046915
0.00642024
0.00628805
0.00464335
0.0029495
0.0013148
0.000189026
0.000189104
0.00133091
0.00300762
0.0048295
0.00666691
0.0066397
0.00476299
0.00297422
0.00129818
0.000187172
0.000183297
0.00125034
0.00282829
0.00446249
0.00597796
0.00619796
0.00450401
0.00281461
0.00124071
0.000181908
0.000182298
0.00124587
0.00281759
0.00445848
0.00606155
0.00641269
0.0046402
0.00290249
0.00128403
0.000185283
0.000189212
0.00130673
0.00293727
0.00463505
0.00628993
0.00668788
0.00483965
0.00300751
0.00132301
0.000191119
0.00019039
0.00132035
0.00298776
0.00477906
0.00665959
0.00597542
0.00445907
0.0028131
0.0012244
0.000186519
0.000183258
0.00121594
0.00278728
0.00448075
0.00618915
0.00603676
0.00442975
0.00278568
0.00122043
0.000183923
0.000186331
0.00125743
0.00286449
0.00461009
0.00639219
0.0062527