/*--------------------------------*- C++ -*----------------------------------*\
| =========                 |                                                 |
| \\      /  F ield         | OpenFOAM: The Open Source CFD Toolbox           |
|  \\    /   O peration     | Version:  v2006                                 |
|   \\  /    A nd           | Website:  www.openfoam.com                      |
|    \\/     M anipulation  |                                                 |
\*---------------------------------------------------------------------------*/
FoamFile
{
    version     2.0;
    format      ascii;
    class       volScalarField;
    location    "0.135";
    object      epsilon;
}
// * * * * * * * * * * * * * * * * * * * * * * * * * * * * * * * * * * * * * //

dimensions      [0 2 -3 0 0 0 0];


internalField   nonuniform List<scalar> 
38932
(
22204.9
22203.7
22311.5
22310.5
22305.6
22298.4
22286.2
22271.7
22252.8
22231.1
22205.8
22177.3
22145.7
22110.9
22072.8
22031.6
21987.3
21939.7
21889.1
21835.5
21778.8
21719.1
21656.5
21591
21522.6
21451.4
21377.4
21300.7
21221.4
21139.5
21055
20968
20878.6
20786.8
20692.7
20596.4
20497.9
20397.2
20294.6
20189.9
20083.4
19975
19864.9
19753.1
19639.6
19524.7
19408.3
19290.5
19171.4
19051.1
18929.6
18807.1
18683.6
18559.1
18433.9
18307.9
18181.3
18054.1
17926.4
17798.3
17669.9
17541.2
17412.3
17283.4
17154.5
17025.6
16896.9
16768.5
16640.3
16512.6
16385.3
16258.6
16132.5
16007.2
15882.6
15758.9
15636.1
15514.3
15393.6
15274
15155.7
15038.6
14922.9
14808.5
14695.7
14584.4
14474.7
14366.6
14260.3
14155.7
14053
13952.1
13853.2
13756.3
13661.4
13568.5
13477.8
13389.2
13302.9
13218.8
13136.9
13057.4
12980.2
12905.4
12833
12763
12695.5
12630.5
12567.9
12507.8
12450.3
12395.2
12342.7
12292.8
12245.4
12200.6
12158.4
12118.8
12082.1
12048.4
12018.5
11993.6
11977.2
11979
12012.3
12129.3
12522.8
13762.1
19490.9
60641.9
232224
1.59182e+06
2.00342e+06
424176
148094
196652
484230
1.97446e+06
1.83414e+06
486567
215007
216022
464897
1.62454e+06
1.45171e+06
429280
212212
202900
391150
1.30832e+06
1.19844e+06
361145
191711
180451
332516
1.10955e+06
1.03736e+06
309825
170315
161394
291607
978706
930795
276902
153703
147106
264902
890920
857304
254998
141451
136592
246716
828531
803520
239693
132387
128718
233645
781443
761668
228353
125485
122607
223652
743718
727224
219416
120019
117668
215547
711908
697555
211974
115514
113522
208641
683997
671105
205503
111668
109930
202529
658777
646931
199691
108292
106739
196971
635501
624432
194349
105262
103850
191814
613679
603201
189353
102497
101195
186957
592967
582946
184618
99939.1
98724.9
182327
573113
563445
180079
97547.9
96404.4
177868
553920
544520
175689
95291
94205
173537
535228
526029
171407
93143.5
92104.1
169296
516907
507850
167199
91084.7
90083.1
165114
498844
489880
163038
89097.6
88126.3
160966
480945
472030
158897
87167.6
86220.1
156827
463126
454224
154755
85282.2
84352.7
152677
445315
436393
150591
83430.3
82513.7
148495
427449
418477
146387
81601.8
80693.4
144264
409471
400425
142125
79787.5
78883.1
139967
391333
382192
137789
77979.1
77074.6
135588
372997
363744
133363
76168.8
75260.7
131113
354430
345052
128835
74349.7
73434.7
126528
335609
326100
124190
72515.2
71590.2
121820
316522
306877
119417
70658.9
69720.6
116978
297165
287387
114502
68774.5
67819.5
111988
277546
267647
109435
66855.2
65880.4
106842
257693
247692
104207
64894.3
63895.9
101529
237652
227585
98807.9
62884.7
61858.6
96042.5
217500
207416
93234
60817.8
59759.8
90380.3
197346
187315
87484.4
58684.8
57590.1
84544.6
177341
167458
81565.1
56474.9
55336.9
78545.4
157688
148074
75490.7
54173.3
52983
72403.5
138649
129460
69289.6
51760.2
50500.6
66153.3
120550
111978
63005.7
49199.7
47851
59852.2
103786
96032.1
56703.8
46440.9
44957.2
53567.5
88761.5
82030
50461.8
43390.1
41703.5
47367.5
75802
70110.5
44288.8
39862.2
37823.7
41205.9
64904.1
60109
38095.1
35556.3
33066.1
34989.3
55704.2
51231.9
31690.7
30182.9
27311.2
28951.2
48679.7
47880.1
26466.9
24431.5
21351.1
23749.2
46081.9
43013.2
20794.3
18124.5
14859.2
17633.9
38646
33451.8
14415.9
11719
8863.56
11318.1
27859.9
22355.2
8561.11
6455.55
4608.35
6344.34
17523.4
13723.5
4726.26
3321.14
2531.64
3687.07
10915.5
9493.28
3223.67
2153.28
2001.99
3093.44
9100.04
9096.81
3082.33
1955.45
1950.93
3149.12
9400.08
9762.59
3221.56
1965.15
1989.08
3309.58
10195.7
10610.3
3382.48
2009.55
2022.13
3439.08
10983.5
11278.8
3471.47
2026.31
2024.52
3483.61
11513.4
11629.2
3474.72
2011.74
1990.2
3444.88
11669.3
11641.4
3409.34
1963.37
1926.58
3353
11521.3
11304.8
3272.74
1878.96
1825.2
3179.73
11018.2
10653.4
3067.35
1762.08
1692.83
2942.68
10228.6
9741.76
2803.99
1616.58
1535.22
2655.8
9216.78
8648.82
2498.4
1449.09
1359.27
2334.26
8052.18
7438.96
2165.57
1266.77
1172.46
1993.96
6811.57
6178.39
1820.52
1076.97
981.387
1647.57
5549.22
4921.95
1475.32
886.024
791.288
1304.77
4306.31
3683.44
1135.57
697.293
603.801
968.425
3087.37
2493.25
801.608
510.66
416.918
635.737
1922.18
1357.2
473.408
324.059
230.792
316.002
843.56
394.572
173.757
141.615
64.515
73.0955
156.851
39.3859
16.0318
23.1885
48.2417
112.491
219.405
346.938
480.183
614.458
742.49
865.92
977.601
1079.71
1174.58
1254.42
1314.35
1353.63
1350.67
1343.31
1279.19
1209.72
1087.24
892.435
1113.05
1158.35
993.541
604.856
735.314
781.168
658.347
527.39
404.426
264.423
258.337
210.659
142.59
64.5474
113.899
70.1607
83.3663
107.856
134.17
110.896
93.7998
78.9426
75.6586
145.46
250.818
109.093
95.643
101.773
114.299
124.136
117.368
119.774
150.541
358.34
465.081
192.406
145.701
136.802
139.331
157.928
158.009
172.713
232.711
559.863
651.228
274.67
202.047
182.093
179.026
202.595
208.446
233.308
317.759
739.555
829.974
362.787
266.672
237.095
228.618
256.959
268.032
302.34
409.974
923.292
1021.65
459.612
340.58
301.498
288.094
322.371
338.241
381.937
512.259
1118.21
1235.45
571.854
428.062
378.619
360.057
401.819
423.357
478.892
636.326
1354.65
1496.04
713.475
537.556
474.084
448.755
501.717
533.032
607.186
807.529
1666.49
1990.73
950.621
700.796
605.146
562.724
631.803
690.763
818.039
1140.38
2421.16
3105.93
1422.62
975.355
795.427
711.76
810.289
939.595
1243.31
2021.72
4499.42
6146.39
2989.43
1630.61
1169.43
952.226
1169.52
1592.07
2171.69
3791.2
8991.05
15312.7
6180.81
3184.75
2144.59
1716.05
2799.87
4977.82
13531.7
51236.7
179609
153216
44994.6
12757.3
4929.97
3053.84
3678
6927.73
20962
86392.1
221067
229153
89977.2
23605.7
8032.45
4192.44
4269.6
7850.93
19267.7
56093.9
164518
85330.3
34491.6
14583
7153.76
4388.57
4299.56
6588.09
13137.2
34793.6
113240
151898
44428.9
14762.9
6726.93
4432.06
4600.99
6548.33
12261.9
29510.5
77674.7
64302.7
24832
12112.6
7069.66
5086.05
5072.2
6542.01
11124.7
27354.3
71377.2
99141.4
38418
15171.7
8114.24
5914.65
6197.27
8324.22
14985
38939.1
98076.5
141391
58501.3
21120.5
10215.2
7256.42
7931.77
11797.7
22742.9
54097.9
147647
112416
48498.5
22451
12501.4
8707.07
8622.46
12316.4
23434.2
58896.7
184340
226333
77555.9
30820.4
14731.5
9685.84
9209.74
12409
19876.7
38182.1
101305
143550
48589.8
23265
14014.3
10299.1
10113.3
13248.3
22004.8
48718.9
124233
133346
51118.6
27202
16628.5
12128.3
12748.5
17118.9
30245.3
72912.4
170101
250684
112663
45419.6
22082.1
15076.2
15656.3
22782.5
39731.2
80284.3
209588
228183
108209
46613.5
24559.2
17157.7
16566.6
24738.1
48169.2
111482
339236
356209
131925
59606.2
29477.9
18491.5
16005.1
20671.7
30691.2
56431.4
158317
324021
106927
48834.3
26111.7
18453.7
18079.1
23185.4
33451.7
57478.5
155695
265984
89382.1
45068
27675
20587.9
20492.8
26428
40074.7
74806.1
192471
244648
87349.2
48766.9
31806.5
23659.1
23450.6
30679.9
50720.6
108283
251134
315011
129235
65419.5
37929.5
27119.5
26485.3
34338.7
53906.6
108433
250196
402743
204340
87939.1
43002.8
30328.4
30911.7
43914.1
74649.4
150506
429084
342803
146038
79495.4
48541.9
34409.5
32454.8
43312.4
66668.4
123809
359394
587495
202696
102619
55099
36987.3
35910
47320.7
70183.1
120275
336825
503490
168310
89945.1
54755.1
39962
39627.6
52274.8
85056.6
171942
404105
443576
156421
92374.2
60454
44231.1
43464.7
57095.1
94519.3
195429
420932
603690
286451
137621
73056.7
50613.7
48651.9
64212.7
97090
174866
452297
606412
336435
150310
75211.5
54267.6
55584.5
78501
128664
242237
701867
603087
241980
139408
87486.7
62150.7
58531.3
78504.6
119439
212714
616288
1.00408e+06
342758
185550
100449
66383.5
62658
81612.1
117205
193491
561514
934138
305781
168383
98229
69829.6
69743.7
91245.9
142735
272078
664818
761039
254989
147609
99894.7
75447.4
75564.2
98332.1
157155
307210
690817
830484
302869
178076
114310
83896.4
83613.4
111382
186268
372771
770759
1.04978e+06
534942
270214
144208
99351.9
95284.2
126942
190747
329696
953317
882150
464680
219124
126424
97899.3
94857.2
119929
166937
287228
856176
804530
325720
190879
133922
105736
135285
195589
323079
545349
1.58645e+06
2.02188e+06
703323
431668
234874
150689
122604
180857
399713
941321
1.66524e+06
1.17823e+06
350717
176479
115066
87723.2
81699.5
102235
145553
292778
937293
687392
240828
131949
91368.9
71436.8
69163.9
83074
111548
189096
502473
411749
164770
104558
81333.9
69224.2
69748.5
80279.3
100359
151950
368568
351283
145477
99225
80942.2
71227.7
73194.7
82407.5
99729.4
144092
344846
342206
144680
101517
84670.3
75699.9
78772.4
87471.1
103940
146135
343083
348445
148333
106911
90600
81837.9
85286.1
94333.4
110892
152336
355073
363132
159410
115929
98557.8
88978.2
92840.6
102973
121199
166286
378416
387140
174133
126778
107752
97211.9
101786
112530
132078
180334
394105
408581
186781
137513
117263
106025
110502
122236
143281
194586
425372
441576
201759
149174
127460
115354
120673
133226
155485
208715
461379
484051
218575
163501
140353
127302
136350
149680
174382
233222
513890
540373
248730
186110
159657
145141
148730
166039
195492
264161
570768
602602
275396
202880
171672
153586
158981
177638
209965
284411
628405
667858
297376
217935
184157
164911
171461
191190
226241
309779
703539
752059
325453
236519
199704
179249
190408
210992
249323
342658
800075
857214
365528
266386
226331
206807
222870
244403
286878
394030
925594
1.00426e+06
422921
306777
259240
232753
247268
274868
326406
451513
1.06459e+06
1.13688e+06
481862
347675
292754
263230
270411
305210
365170
507389
1.18991e+06
1.25303e+06
532510
380606
316737
280295
292565
330228
397080
556330
1.31212e+06
1.37336e+06
580839
414522
344533
304980
317458
358988
432352
605194
1.42313e+06
1.49068e+06
632387
450720
373614
330012
344276
390347
470882
661536
1.57086e+06
1.65393e+06
695783
496636
412543
366078
388158
436956
526133
735334
1.7218e+06
1.79141e+06
768929
545989
449846
393547
401935
460251
560645
792374
1.84516e+06
1.90669e+06
811820
575070
471781
412027
423666
485523
592204
838447
1.99534e+06
2.10657e+06
877585
617151
504770
439905
467913
532607
649642
925661
2.25059e+06
2.37541e+06
974832
684055
562101
495588
500375
576261
707198
1.01744e+06
2.53118e+06
2.60149e+06
1.04211e+06
722275
586866
508601
519600
599144
736489
1.06108e+06
2.62144e+06
2.69511e+06
1.08895e+06
756565
615035
533374
552553
637665
783945
1.12715e+06
2.79829e+06
2.87953e+06
1.17173e+06
821156
671451
587821
621881
706586
859904
1.22134e+06
2.96665e+06
3.08534e+06
1.26814e+06
887684
724322
628176
639550
739288
910904
1.30818e+06
3.1922e+06
3.28279e+06
1.35004e+06
935149
757614
654756
673597
779265
961320
1.37983e+06
3.41029e+06
3.50597e+06
1.43636e+06
999210
810724
700049
747777
857723
1.05265e+06
1.50775e+06
3.68911e+06
3.82761e+06
1.57296e+06
1.10373e+06
903435
792111
801616
927892
1.14206e+06
1.63637e+06
3.99617e+06
4.17336e+06
1.69314e+06
1.17327e+06
949112
817987
840239
976190
1.20929e+06
1.74584e+06
4.28334e+06
4.44067e+06
1.81291e+06
1.25814e+06
1.01618e+06
873653
934958
1.07501e+06
1.32156e+06
1.89628e+06
4.62538e+06
4.8092e+06
1.98274e+06
1.38815e+06
1.13245e+06
990980
1.00406e+06
1.16514e+06
1.43931e+06
2.06673e+06
5.01354e+06
5.18064e+06
2.14074e+06
1.48542e+06
1.19781e+06
1.02787e+06
1.06842e+06
1.24842e+06
1.54892e+06
2.22992e+06
5.43071e+06
5.65487e+06
2.34166e+06
1.63286e+06
1.32351e+06
1.14663e+06
1.21641e+06
1.39576e+06
1.71696e+06
2.45779e+06
5.88588e+06
6.18759e+06
2.56737e+06
1.78147e+06
1.43733e+06
1.23367e+06
1.2658e+06
1.48126e+06
1.84618e+06
2.6739e+06
6.50109e+06
6.73872e+06
2.78936e+06
1.92972e+06
1.54708e+06
1.31852e+06
1.42047e+06
1.64501e+06
2.03466e+06
2.92467e+06
7.01076e+06
7.35317e+06
3.07e+06
2.14301e+06
1.73877e+06
1.51053e+06
1.535e+06
1.79622e+06
2.23343e+06
3.22401e+06
7.80272e+06
8.31407e+06
3.39835e+06
2.3263e+06
1.85615e+06
1.57802e+06
1.64985e+06
1.94539e+06
2.4414e+06
3.55829e+06
8.69319e+06
8.84101e+06
3.70254e+06
2.57522e+06
2.07405e+06
1.78458e+06
1.89923e+06
2.19258e+06
2.70785e+06
3.87505e+06
9.10962e+06
9.47376e+06
4.0522e+06
2.83065e+06
2.27397e+06
1.9368e+06
2.01656e+06
2.38148e+06
2.97606e+06
4.26729e+06
9.93621e+06
1.06099e+07
4.53866e+06
3.1686e+06
2.55078e+06
2.18806e+06
2.33609e+06
2.71214e+06
3.3707e+06
4.84456e+06
1.14762e+07
1.28395e+07
5.23405e+06
3.57356e+06
2.83227e+06
2.39109e+06
2.50147e+06
2.99132e+06
3.81638e+06
5.71373e+06
1.46733e+07
1.62068e+07
6.17732e+06
4.09154e+06
3.21908e+06
2.73172e+06
2.92166e+06
3.42247e+06
4.31917e+06
6.42908e+06
1.63201e+07
1.66766e+07
6.7007e+06
4.54099e+06
3.59061e+06
3.01346e+06
3.26918e+06
3.83488e+06
4.81056e+06
7.04684e+06
1.73629e+07
1.82341e+07
7.42708e+06
5.09851e+06
4.07602e+06
3.49423e+06
3.62386e+06
4.30847e+06
5.41755e+06
7.88466e+06
1.93039e+07
2.07684e+07
8.45843e+06
5.82642e+06
4.65628e+06
3.96785e+06
4.28131e+06
5.01285e+06
6.27186e+06
9.10234e+06
2.23287e+07
2.45972e+07
9.90475e+06
6.79504e+06
5.38206e+06
4.48866e+06
4.99219e+06
5.92862e+06
7.48563e+06
1.09554e+07
2.73922e+07
3.1093e+07
1.2243e+07
8.27881e+06
6.50172e+06
5.45641e+06
5.79096e+06
7.1549e+06
9.31308e+06
1.4029e+07
3.69174e+07
4.49281e+07
1.66382e+07
1.07802e+07
8.13215e+06
6.58299e+06
7.29263e+06
9.17352e+06
1.25458e+07
2.05357e+07
5.95993e+07
6.4351e+07
2.27034e+07
1.38008e+07
9.98572e+06
7.8764e+06
8.1824e+06
1.04015e+07
1.42421e+07
2.26817e+07
5.96813e+07
5.93376e+07
2.26977e+07
1.44923e+07
1.07246e+07
8.52291e+06
8.55974e+06
1.09098e+07
1.48392e+07
2.33044e+07
6.09943e+07
7.29077e+07
2.61e+07
1.59412e+07
1.1457e+07
8.79797e+06
9.46394e+06
1.21639e+07
1.69548e+07
2.81446e+07
8.11362e+07
7.5788e+07
2.7605e+07
1.72845e+07
1.26465e+07
9.94894e+06
1.03439e+07
1.30703e+07
1.75502e+07
2.7152e+07
7.36354e+07
7.55396e+07
2.78678e+07
1.82824e+07
1.36125e+07
1.07537e+07
1.11951e+07
1.437e+07
1.97528e+07
3.14666e+07
7.35421e+07
7.25208e+07
3.50609e+07
2.16409e+07
1.5421e+07
1.17981e+07
1.34455e+07
1.72584e+07
2.39241e+07
3.84183e+07
7.49293e+07
7.78448e+07
4.08839e+07
2.57251e+07
1.85509e+07
1.43668e+07
1.55333e+07
1.97646e+07
2.66804e+07
4.05203e+07
7.74106e+07
7.4057e+07
4.00835e+07
2.68891e+07
2.00686e+07
1.57252e+07
1.63617e+07
2.02782e+07
2.65302e+07
3.86244e+07
7.09639e+07
6.65309e+07
3.71717e+07
2.58289e+07
1.98837e+07
1.59613e+07
1.62571e+07
1.97142e+07
2.50337e+07
3.53036e+07
6.3216e+07
6.35848e+07
3.33264e+07
2.36688e+07
1.88115e+07
1.54531e+07
1.54661e+07
1.82651e+07
2.24431e+07
3.0791e+07
5.96886e+07
5.07334e+07
2.66513e+07
2.06765e+07
1.7098e+07
1.44281e+07
1.41847e+07
1.62253e+07
1.90336e+07
2.37906e+07
4.39964e+07
3.92108e+07
2.13877e+07
1.73745e+07
1.49878e+07
1.30806e+07
1.2437e+07
1.40616e+07
1.60442e+07
1.96421e+07
3.57017e+07
3.33486e+07
1.81921e+07
1.49746e+07
1.33685e+07
1.21888e+07
1.1436e+07
1.25149e+07
1.3902e+07
1.68052e+07
3.14767e+07
2.96131e+07
1.5287e+07
1.28986e+07
1.17835e+07
1.09672e+07
1.01819e+07
1.09654e+07
1.19729e+07
1.41585e+07
2.73675e+07
2.50594e+07
1.32944e+07
1.12369e+07
1.03132e+07
9.59057e+06
9.25764e+06
9.8178e+06
1.06387e+07
1.25862e+07
2.3304e+07
2.19157e+07
1.20533e+07
1.01011e+07
9.30329e+06
8.76776e+06
8.32864e+06
8.85177e+06
9.62732e+06
1.15403e+07
2.08925e+07
2.00779e+07
1.11224e+07
9.23187e+06
8.49528e+06
8.05764e+06
7.67293e+06
8.10228e+06
8.82673e+06
1.07268e+07
1.94514e+07
1.90009e+07
1.02889e+07
8.45377e+06
7.75016e+06
7.32271e+06
7.10242e+06
7.46397e+06
8.12473e+06
9.90067e+06
1.84132e+07
1.80804e+07
9.45046e+06
7.76488e+06
7.14409e+06
6.79932e+06
6.54804e+06
6.83116e+06
7.37741e+06
8.88004e+06
1.74772e+07
1.66893e+07
8.43532e+06
7.01287e+06
6.49439e+06
6.22087e+06
5.92747e+06
6.21364e+06
6.7257e+06
8.1243e+06
1.6001e+07
1.54537e+07
7.88368e+06
6.49415e+06
5.99773e+06
5.742e+06
5.51575e+06
5.76728e+06
6.26588e+06
7.62996e+06
1.49467e+07
1.46506e+07
7.41963e+06
6.06368e+06
5.56233e+06
5.29543e+06
5.1599e+06
5.40221e+06
5.88982e+06
7.22193e+06
1.41654e+07
1.38484e+07
7.01375e+06
5.70123e+06
5.21436e+06
4.97303e+06
4.79247e+06
5.05182e+06
5.54657e+06
6.86531e+06
1.35446e+07
1.32263e+07
6.68705e+06
5.40076e+06
4.92217e+06
4.68653e+06
4.52646e+06
4.76236e+06
5.24364e+06
6.52047e+06
1.29826e+07
1.27549e+07
6.39586e+06
5.10852e+06
4.62267e+06
4.37226e+06
4.28742e+06
4.5155e+06
4.98395e+06
6.23538e+06
1.24902e+07
1.22334e+07
6.07769e+06
4.84032e+06
4.37356e+06
4.14532e+06
4.01071e+06
4.25151e+06
4.71798e+06
5.94578e+06
1.21324e+07
1.18186e+07
5.81626e+06
4.60864e+06
4.15762e+06
3.93982e+06
3.81195e+06
4.02802e+06
4.46945e+06
5.63165e+06
1.16426e+07
1.14668e+07
5.53073e+06
4.36317e+06
3.91973e+06
3.69189e+06
3.63059e+06
3.83658e+06
4.26605e+06
5.41133e+06
1.12772e+07
1.11601e+07
5.31488e+06
4.15319e+06
3.72116e+06
3.51417e+06
3.40285e+06
3.62377e+06
4.06581e+06
5.23129e+06
1.10988e+07
1.1001e+07
5.21572e+06
4.01999e+06
3.56839e+06
3.33785e+06
3.31563e+06
3.53e+06
3.97937e+06
5.17711e+06
1.09141e+07
1.07812e+07
5.05776e+06
3.8876e+06
3.44165e+06
3.22155e+06
3.1355e+06
3.36481e+06
3.80558e+06
4.9472e+06
1.06471e+07
1.04325e+07
4.82643e+06
3.72844e+06
3.30799e+06
3.10316e+06
3.01005e+06
3.21584e+06
3.63382e+06
4.72838e+06
1.03643e+07
1.03115e+07
4.6701e+06
3.56556e+06
3.14568e+06
2.92959e+06
2.90291e+06
3.09866e+06
3.50667e+06
4.5911e+06
1.02024e+07
1.00644e+07
4.52289e+06
3.43103e+06
3.01922e+06
2.8192e+06
2.74786e+06
2.95802e+06
3.36902e+06
4.4448e+06
1.00488e+07
9.85785e+06
4.40317e+06
3.3235e+06
2.92065e+06
2.7294e+06
2.65286e+06
2.84901e+06
3.25206e+06
4.3155e+06
9.82217e+06
9.70068e+06
4.26855e+06
3.20238e+06
2.79766e+06
2.59013e+06
2.57822e+06
2.76667e+06
3.16075e+06
4.20708e+06
9.56497e+06
9.48089e+06
4.13271e+06
3.09699e+06
2.7018e+06
2.50788e+06
2.4514e+06
2.6556e+06
3.0526e+06
4.0984e+06
9.41665e+06
9.29941e+06
4.047e+06
3.01783e+06
2.6313e+06
2.44523e+06
2.38013e+06
2.57212e+06
2.96099e+06
3.97783e+06
9.20496e+06
9.11616e+06
3.94806e+06
2.92274e+06
2.53116e+06
2.32892e+06
2.32785e+06
2.51193e+06
2.89596e+06
3.91658e+06
9.05039e+06
9.0075e+06
3.84548e+06
2.84132e+06
2.45745e+06
2.26699e+06
2.22064e+06
2.4209e+06
2.8047e+06
3.80036e+06
8.94825e+06
8.83236e+06
3.77417e+06
2.78011e+06
2.40374e+06
2.2221e+06
2.16524e+06
2.35297e+06
2.73003e+06
3.71448e+06
8.77799e+06
8.70163e+06
3.67357e+06
2.69725e+06
2.31985e+06
2.12368e+06
2.12699e+06
2.30531e+06
2.6719e+06
3.64562e+06
8.61256e+06
8.58227e+06
3.59958e+06
2.62855e+06
2.25769e+06
2.07266e+06
2.0345e+06
2.22729e+06
2.59635e+06
3.55307e+06
8.54128e+06
8.37641e+06
3.53199e+06
2.57338e+06
2.21332e+06
2.03871e+06
1.98529e+06
2.16499e+06
2.52557e+06
3.46416e+06
8.31044e+06
8.25582e+06
3.42267e+06
2.48868e+06
2.13202e+06
1.94619e+06
1.94814e+06
2.11409e+06
2.45838e+06
3.37693e+06
8.23209e+06
8.0776e+06
3.31136e+06
2.40346e+06
2.06076e+06
1.89302e+06
1.85133e+06
2.02279e+06
2.35917e+06
3.24569e+06
7.98193e+06
7.70651e+06
3.18802e+06
2.3117e+06
1.99476e+06
1.84535e+06
1.78964e+06
1.93461e+06
2.24739e+06
3.08905e+06
7.83917e+06
7.17288e+06
3.0348e+06
2.19091e+06
1.8888e+06
1.7397e+06
1.72658e+06
1.85527e+06
2.14121e+06
2.92503e+06
7.45582e+06
6.52089e+06
2.81656e+06
2.06179e+06
1.79599e+06
1.68063e+06
1.62894e+06
1.72867e+06
1.96933e+06
2.6614e+06
6.49827e+06
6.00008e+06
2.52387e+06
1.86744e+06
1.63918e+06
1.55201e+06
1.49771e+06
1.58667e+06
1.80147e+06
2.42648e+06
5.82034e+06
5.61537e+06
2.37507e+06
1.77041e+06
1.55947e+06
1.46619e+06
1.45798e+06
1.54548e+06
1.74959e+06
2.33493e+06
5.47185e+06
5.36034e+06
2.28816e+06
1.71545e+06
1.51332e+06
1.42487e+06
1.40098e+06
1.48286e+06
1.67459e+06
2.22527e+06
5.21587e+06
5.09565e+06
2.16654e+06
1.62829e+06
1.43942e+06
1.36037e+06
1.32795e+06
1.412e+06
1.5986e+06
2.12379e+06
4.93428e+06
4.84639e+06
2.09881e+06
1.58094e+06
1.39839e+06
1.31874e+06
1.28717e+06
1.36905e+06
1.55365e+06
2.06498e+06
4.77222e+06
4.65207e+06
2.03367e+06
1.5326e+06
1.348e+06
1.26086e+06
1.25572e+06
1.33641e+06
1.5148e+06
2.0009e+06
4.5188e+06
4.44699e+06
1.95888e+06
1.48404e+06
1.30704e+06
1.22515e+06
1.20026e+06
1.286e+06
1.46179e+06
1.9314e+06
4.40624e+06
4.32688e+06
1.90805e+06
1.44602e+06
1.27547e+06
1.19654e+06
1.16742e+06
1.24834e+06
1.42005e+06
1.87845e+06
4.28547e+06
4.26225e+06
1.85722e+06
1.40122e+06
1.22952e+06
1.14464e+06
1.14359e+06
1.22215e+06
1.39016e+06
1.84577e+06
4.20558e+06
4.18561e+06
1.81926e+06
1.36754e+06
1.19753e+06
1.11652e+06
1.09657e+06
1.18164e+06
1.35228e+06
1.80248e+06
4.15172e+06
4.13552e+06
1.79187e+06
1.34333e+06
1.1766e+06
1.09775e+06
1.07261e+06
1.15423e+06
1.32383e+06
1.77304e+06
4.13406e+06
4.12178e+06
1.76503e+06
1.31296e+06
1.14136e+06
1.05561e+06
1.05896e+06
1.13936e+06
1.30823e+06
1.76055e+06
4.09246e+06
4.073e+06
1.7491e+06
1.29351e+06
1.12006e+06
1.03562e+06
1.02202e+06
1.11001e+06
1.28431e+06
1.74107e+06
4.09907e+06
4.08663e+06
1.73098e+06
1.28003e+06
1.10952e+06
1.02714e+06
1.00646e+06
1.09177e+06
1.2637e+06
1.71407e+06
4.06751e+06
4.05158e+06
1.69236e+06
1.24549e+06
1.07825e+06
997799
970959
1.05196e+06
1.22084e+06
1.66795e+06
4.01441e+06
3.96604e+06
1.65704e+06
1.21062e+06
1.04239e+06
957728
963805
1.04405e+06
1.21084e+06
1.65334e+06
3.93301e+06
3.91498e+06
1.64467e+06
1.19955e+06
1.02838e+06
943371
934503
1.02342e+06
1.19677e+06
1.645e+06
3.93359e+06
3.94116e+06
1.64604e+06
1.1978e+06
1.02713e+06
944582
925777
1.01288e+06
1.18516e+06
1.63232e+06
3.94385e+06
3.91705e+06
1.61384e+06
1.17083e+06
1.00282e+06
920591
895139
978831
1.14868e+06
1.59209e+06
3.89552e+06
3.87498e+06
1.58426e+06
1.1413e+06
971830
884909
894623
976426
1.14406e+06
1.58555e+06
3.85568e+06
3.86563e+06
1.57913e+06
1.13438e+06
961906
874660
867589
958546
1.13302e+06
1.5821e+06
3.87182e+06
3.8667e+06
1.58163e+06
1.13606e+06
964955
880782
863031
952249
1.12557e+06
1.57195e+06
3.85308e+06
3.83518e+06
1.55522e+06
1.11323e+06
944051
859481
834645
920989
1.09277e+06
1.53503e+06
3.80728e+06
3.78994e+06
1.52895e+06
1.0861e+06
915010
825973
838525
921457
1.08945e+06
1.52941e+06
3.7911e+06
3.79313e+06
1.52492e+06
1.08187e+06
908455
819369
813341
906062
1.08197e+06
1.53193e+06
3.79838e+06
3.80584e+06
1.5406e+06
1.08858e+06
915198
828979
812095
903419
1.07937e+06
1.52823e+06
3.80612e+06
3.78169e+06
1.51248e+06
1.0684e+06
897116
810026
785486
874872
1.04938e+06
1.49344e+06
3.76684e+06
3.74474e+06
1.48775e+06
1.04399e+06
870951
779205
795123
879764
1.04952e+06
1.4904e+06
3.74723e+06
3.73998e+06
1.48328e+06
1.04193e+06
868910
779051
777674
863524
1.03212e+06
1.46975e+06
3.72249e+06
3.69892e+06
1.4548e+06
1.01613e+06
843569
754629
749088
840273
1.01291e+06
1.45353e+06
3.69732e+06
3.70504e+06
1.46707e+06
1.0209e+06
851216
766685
751397
841599
1.01506e+06
1.45825e+06
3.70589e+06
3.67648e+06
1.44703e+06
1.00793e+06
837882
751042
728590
818318
991672
1.43163e+06
3.66929e+06
3.6739e+06
1.42891e+06
988334
815671
723707
742122
826805
995775
1.43337e+06
3.67878e+06
3.6684e+06
1.42909e+06
989364
817155
726951
726895
813641
982483
1.41899e+06
3.65847e+06
3.64875e+06
1.40328e+06
966109
793879
704589
700078
791939
964110
1.40105e+06
3.64313e+06
3.63119e+06
1.41817e+06
973841
804411
719617
705157
796323
970652
1.4147e+06
3.6196e+06
3.61348e+06
1.40199e+06
964216
793909
706035
684757
775246
948792
1.38727e+06
3.59434e+06
3.6104e+06
1.38757e+06
948118
774174
680976
701919
787274
958094
1.40301e+06
3.6357e+06
3.65163e+06
1.39969e+06
954317
779463
687340
689150
777896
949655
1.39296e+06
3.65317e+06
3.64642e+06
1.37589e+06
934283
759325
667705
664378
758761
934812
1.38832e+06
3.64303e+06
3.67472e+06
1.41215e+06
949524
773982
686989
673024
767681
947121
1.40672e+06
3.69301e+06
3.67319e+06
1.3876e+06
940067
765833
675571
656259
748291
922653
1.36565e+06
3.61784e+06
3.59495e+06
1.34983e+06
913067
744575
657740
636774
726300
898328
1.3351e+06
3.58152e+06
3.57689e+06
1.33667e+06
897223
725712
633973
656892
742095
914261
1.36751e+06
3.60167e+06
3.61484e+06
1.36454e+06
913106
736451
643230
646943
736795
910281
1.35704e+06
3.61163e+06
3.6062e+06
1.34391e+06
897592
719780
626863
624769
720595
899265
1.36139e+06
3.62279e+06
3.66657e+06
1.37543e+06
914864
737679
649514
635811
731775
912898
1.37246e+06
3.67205e+06
3.6702e+06
1.36256e+06
908132
731893
640022
620630
714305
891406
1.34177e+06
3.65577e+06
3.61285e+06
1.32719e+06
883011
712016
623759
603568
694773
869970
1.31763e+06
3.59541e+06
3.60935e+06
1.31643e+06
869390
695225
601673
627231
714239
892571
1.36759e+06
3.64913e+06
3.69372e+06
1.3631e+06
892982
710888
614541
619891
711988
889868
1.35109e+06
3.65934e+06
3.64035e+06
1.33022e+06
874712
695221
600997
605356
694329
867345
1.31551e+06
3.60408e+06
3.58628e+06
1.30168e+06
854581
677842
585566
584309
679367
857289
1.31482e+06
3.60553e+06
3.65685e+06
1.34901e+06
877025
698543
610875
597877
695238
878248
1.35141e+06
3.69283e+06
3.68516e+06
1.34207e+06
876335
696920
603977
584948
680299
861880
1.32511e+06
3.67114e+06
3.6479e+06
1.31062e+06
854779
679882
590124
570401
664009
843050
1.29957e+06
3.62353e+06
3.66392e+06
1.31172e+06
844815
665363
569386
597363
686398
868422
1.35632e+06
3.71874e+06
3.75373e+06
1.3529e+06
869158
682910
584123
591053
684845
866846
1.33933e+06
3.74188e+06
3.71056e+06
1.32197e+06
852088
668313
571612
577194
667749
844454
1.3055e+06
3.68684e+06
3.66009e+06
1.29348e+06
832415
651893
557482
556758
654192
836335
1.3108e+06
3.69576e+06
3.75054e+06
1.34852e+06
860135
676432
586222
573260
674206
864553
1.35906e+06
3.78506e+06
3.78485e+06
1.35161e+06
864791
677278
581608
562605
661817
850318
1.33343e+06
3.76823e+06
3.74322e+06
1.32009e+06
844120
662519
569474
549978
646258
829714
1.30043e+06
3.71646e+06
3.6803e+06
1.28899e+06
822875
646646
556953
538101
632402
813521
1.27819e+06
3.67525e+06
3.71299e+06
1.29613e+06
818406
635612
538258
569221
660211
845945
1.35313e+06
3.78956e+06
3.83967e+06
1.36245e+06
852428
658761
556330
565477
661898
852495
1.34925e+06
3.84277e+06
3.82371e+06
1.33308e+06
839205
647570
546667
554689
649092
834195
1.31812e+06
3.80824e+06
3.76522e+06
1.30005e+06
819706
632708
534849
542835
634043
813909
1.29154e+06
3.72647e+06
3.72326e+06
1.28009e+06
805153
619955
524063
524829
624027
812305
1.30643e+06
3.7715e+06
3.84018e+06
1.34973e+06
839818
650402
557437
544507
649369
847806
1.37652e+06
3.90165e+06
3.93035e+06
1.362e+06
848303
653092
554536
534935
638583
836785
1.34618e+06
3.91111e+06
3.88051e+06
1.32457e+06
828607
639473
543979
523524
623658
814035
1.30674e+06
3.83458e+06
3.81043e+06
1.29539e+06
808883
625117
532273
512926
610952
799798
1.28709e+06
3.79957e+06
3.85486e+06
1.31491e+06
805782
614038
513650
547212
641837
835612
1.37248e+06
3.94599e+06
4.00679e+06
1.40074e+06
845339
640362
533270
544417
644513
846436
1.38221e+06
4.02921e+06
3.99542e+06
1.35396e+06
831041
629762
524269
533942
631436
825615
1.33681e+06
3.94489e+06
3.916e+06
1.31318e+06
809039
614387
512931
522258
615928
803885
1.30432e+06
3.87819e+06
3.87986e+06
1.28381e+06
791657
601555
502619
503368
605080
800727
1.325e+06
3.92975e+06
4.01412e+06
1.37403e+06
830329
633965
538257
524166
633278
840827
1.39434e+06
4.07506e+06
4.10194e+06
1.38694e+06
842218
637725
536349
515914
623887
830190
1.36983e+06
4.0803e+06
4.06078e+06
1.35411e+06
826213
626183
527159
506098
610655
810560
1.33296e+06
4.0153e+06
3.9738e+06
1.32014e+06
805100
612229
516605
496184
597784
793124
1.30719e+06
3.96144e+06
3.94111e+06
1.29619e+06
788369
600124
506776
487773
587007
780980
1.29182e+06
3.93841e+06
4.01294e+06
1.32553e+06
789276
591245
489099
524879
621383
821277
1.38352e+06
4.11115e+06
4.17953e+06
1.40403e+06
832957
620921
510404
523839
625958
835017
1.39782e+06
4.19556e+06
4.194e+06
1.37768e+06
822736
612147
502785
514658
614537
817540
1.3616e+06
4.16152e+06
4.12202e+06
1.34129e+06
803048
598914
493028
504422
601136
798022
1.32924e+06
4.09027e+06
4.08251e+06
1.31997e+06
789810
587801
484529
486178
592411
796576
1.35776e+06
4.15514e+06
4.27383e+06
1.43462e+06
835275
624423
524179
508612
623333
845923
1.44792e+06
4.34965e+06
4.37499e+06
1.43903e+06
848130
629673
523267
501135
615504
835638
1.41638e+06
4.37189e+06
4.33144e+06
1.39628e+06
830298
618104
514853
491982
602563
815409
1.38028e+06
4.29525e+06
4.27579e+06
1.3653e+06
810466
605103
504973
482647
589477
796642
1.35008e+06
4.24011e+06
4.22501e+06
1.34126e+06
792623
592348
495650
475589
580487
786308
1.33071e+06
4.21866e+06
4.29416e+06
1.3763e+06
795187
585747
478056
518330
621090
839481
1.47424e+06
4.43787e+06
4.54026e+06
1.49727e+06
853478
621218
502401
519513
628808
859304
1.48924e+06
4.56792e+06
4.56088e+06
1.4648e+06
847405
616348
496903
513135
620960
845519
1.45014e+06
4.5473e+06
4.52414e+06
1.42749e+06
829934
605250
489375
504320
608706
825788
1.4155e+06
4.48554e+06
4.47152e+06
1.40031e+06
812081
594104
481391
495752
597284
808757
1.38854e+06
4.4545e+06
4.41831e+06
1.37268e+06
795884
582473
473010
486650
585816
792540
1.36812e+06
4.39415e+06
4.39984e+06
1.35608e+06
785263
572800
465940
468179
577676
792848
1.3981e+06
4.47118e+06
4.58936e+06
1.47362e+06
835225
612888
508875
491851
612507
846898
1.51303e+06
4.69476e+06
4.73779e+06
1.51083e+06
854870
619051
508942
485258
605760
842617
1.48473e+06
4.73543e+06
4.70021e+06
1.46368e+06
839204
609690
501311
476811
593195
821514
1.44337e+06
4.66235e+06
4.63336e+06
1.4246e+06
817932
596815
492052
468046
580984
803498
1.41244e+06
4.5934e+06
4.58255e+06
1.39814e+06
798695
584542
482730
461582
571767
792305
1.38755e+06
4.57656e+06
4.64778e+06
1.43485e+06
801654
577164
464074
506291
613753
843703
1.51303e+06
4.77791e+06
4.88898e+06
1.56146e+06
858205
613092
488543
507371
620787
865435
1.55482e+06
4.94513e+06
4.95928e+06
1.53137e+06
854332
607631
482902
500129
612014
852024
1.51432e+06
4.93985e+06
4.90678e+06
1.48599e+06
834364
595775
475006
491345
599269
830430
1.47191e+06
4.85234e+06