/*--------------------------------*- C++ -*----------------------------------*\
| =========                 |                                                 |
| \\      /  F ield         | OpenFOAM: The Open Source CFD Toolbox           |
|  \\    /   O peration     | Version:  v2006                                 |
|   \\  /    A nd           | Website:  www.openfoam.com                      |
|    \\/     M anipulation  |                                                 |
\*---------------------------------------------------------------------------*/
FoamFile
{
    version     2.0;
    format      ascii;
    class       volScalarField;
    location    "0.135";
    object      k;
}
// * * * * * * * * * * * * * * * * * * * * * * * * * * * * * * * * * * * * * //

dimensions      [0 2 -2 0 0 0 0];


internalField   nonuniform List<scalar> 
38932
(
122.349
122.347
122.66
122.656
122.638
122.612
122.568
122.514
122.445
122.365
122.272
122.168
122.052
121.924
121.784
121.632
121.469
121.294
121.107
120.909
120.7
120.479
120.248
120.005
119.752
119.487
119.213
118.927
118.632
118.326
118.011
117.686
117.351
117.007
116.653
116.291
115.92
115.54
115.152
114.756
114.352
113.94
113.521
113.095
112.662
112.222
111.775
111.322
110.864
110.399
109.93
109.455
108.975
108.491
108.002
107.51
107.014
106.514
106.011
105.505
104.997
104.487
103.975
103.461
102.946
102.43
101.913
101.396
100.878
100.362
99.8453
99.3299
98.8158
98.3032
97.7925
97.2841
96.7781
96.2749
95.7749
95.2783
94.7855
94.2968
93.8124
93.3327
92.858
92.3885
91.9247
91.4667
91.0148
90.5694
90.1307
89.6989
89.2745
88.8575
88.4483
88.0472
87.6543
87.2699
86.8943
86.5276
86.1701
85.822
85.4835
85.1548
84.836
84.5273
84.2289
83.9409
83.6635
83.3967
83.1406
82.8955
82.6613
82.4381
82.2261
82.0253
81.836
81.6584
81.4931
81.341
81.204
81.0862
80.996
80.9526
81.0009
81.2351
82.0389
83.7309
89.8342
94.4967
112.669
56.2513
64.8654
98.3066
94.8793
91.1374
86.1894
63.9528
60.8128
76.5739
84.2696
78.3403
68.7768
56.3988
52.2911
62.3453
73.1269
68.6868
57.3959
48.8371
45.959
53.4005
64.9622
61.8445
50.3534
43.605
41.6879
47.9645
59.2112
56.9727
46.0541
40.105
38.7846
44.5004
55.0491
53.3785
43.2107
37.6689
36.7153
42.1206
51.912
50.61
41.1809
35.8891
35.1632
40.3559
49.4423
48.3848
39.619
34.5161
33.9313
38.9507
47.4185
46.5283
38.3369
33.3961
32.9005
37.767
45.7023
44.9311
37.2332
32.4369
31.9994
36.7298
44.207
43.5241
36.2522
31.5835
31.1854
35.797
42.8773
42.2625
35.3616
30.8023
30.4319
34.9437
41.6765
41.1163
34.5416
30.0724
29.7222
34.1537
40.5794
40.0638
33.7787
29.3799
29.0446
33.4154
39.5676
39.0891
33.0627
28.7151
28.3907
32.7198
38.6269
38.1796
32.3856
28.0705
27.7539
32.0595
37.7462
37.3256
31.7408
27.4403
27.1289
31.4286
36.9168
36.5189
31.1226
26.8194
26.5112
30.8219
36.1311
35.7528
30.5263
26.2039
25.8969
30.235
35.3833
35.0219
29.9477
25.5898
25.2823
29.6639
34.668
34.3213
29.3833
24.9739
24.6644
29.1054
33.981
33.6469
28.8298
24.3532
24.0401
28.5562
33.3185
32.9953
28.2842
23.7248
23.4068
28.0135
32.6771
32.3633
27.7438
23.0859
22.7617
27.4747
32.0537
31.7479
27.206
22.4339
22.1023
26.9373
31.4457
31.1467
26.6683
21.7665
21.4262
26.3988
30.8507
30.5574
26.1286
21.0811
20.731
25.8572
30.2666
29.978
25.5846
20.3756
20.0146
25.3104
29.6916
29.407
25.0345
19.6478
19.2748
24.7565
29.1242
28.843
24.4762
18.8956
18.5097
24.1935
28.5632
28.2847
23.9079
18.1171
17.7175
23.6194
28.0073
27.731
23.3277
17.3107
16.8965
23.0326
27.4556
27.181
22.7337
16.475
16.0459
22.4311
26.9073
26.6343
22.1244
15.6093
15.1654
21.8136
26.3621
26.0905
21.4984
14.714
14.2556
21.1791
25.8201
25.5503
20.8551
13.7903
13.319
20.5271
25.2819
25.0142
20.1943
12.8419
12.3602
19.8578
24.7484
24.4834
19.5169
11.8747
11.387
19.1729
24.2205
23.9588
18.8253
10.8985
10.4115
18.4752
23.6988
23.4402
18.1231
9.92813
9.45173
17.7706
23.1828
22.9242
17.4171
8.98494
8.53168
17.0643
22.6639
22.398
16.712
8.09543
7.68078
16.3608
22.1215
21.8181
16.0011
7.28692
6.91744
15.6328
21.4821
21.0904
15.2443
6.5706
6.24285
14.8229
20.6266
20.0778
14.3686
5.93402
5.61199
13.8035
19.3663
18.5985
13.282
5.42403
5.36447
12.7206
17.7578
16.7706
12.0466
5.2293
4.9945
11.2235
15.5656
14.1238
10.2209
4.65043
4.2238
9.06427
12.4847
10.7278
7.8089
3.73889
3.22856
6.53251
8.96413
7.33244
5.34003
2.74475
2.33203
4.31916
5.94582
4.85181
3.50099
2.00172
1.82424
2.91976
4.07071
3.61314
2.63522
1.77312
1.77289
2.52128
3.39235
3.3052
2.48984
1.81228
1.85838
2.48884
3.28195
3.29343
2.52201
1.91294
1.96445
2.56756
3.32824
3.37451
2.61756
2.01004
2.04635
2.66136
3.41675
3.45534
2.70047
2.07441
2.08829
2.72908
3.48429
3.50018
2.74474
2.09285
2.08975
2.75091
3.50652
3.50429
2.75142
2.07557
2.04927
2.73376
3.48247
3.44925
2.70819
2.01449
1.96977
2.66958
3.40085
3.33911
2.62065
1.91684
1.85594
2.56077
3.26384
3.17596
2.49079
1.78825
1.7142
2.41175
3.07641
2.9657
2.32374
1.63461
1.55036
2.22789
2.84506
2.71537
2.12516
1.46191
1.37
2.0158
2.57733
2.4319
1.9007
1.27506
1.17733
1.78029
2.27948
2.11982
1.65412
1.07663
0.972007
1.52205
1.95242
1.77547
1.38237
0.864822
0.750777
1.23251
1.58645
1.37871
1.0681
0.630263
0.501145
0.886749
1.14833
0.884975
0.680749
0.363464
0.219398
0.450954
0.590393
0.283546
0.21504
0.118905
0.0477729
0.0668124
0.0854571
0.138006
0.244974
0.380785
0.525087
0.650929
0.771404
0.873656
0.969036
1.05043
1.12273
1.18717
1.24117
1.27701
1.30363
1.30288
1.36736
1.30767
1.2446
1.13303
0.817385
0.682185
0.775701
0.783603
0.502169
0.382865
0.41187
0.386866
0.332356
0.273326
0.206862
0.156488
0.124334
0.0914037
0.0552395
0.0637782
0.0740352
0.109669
0.158079
0.230944
0.331538
0.255318
0.182548
0.116003
0.0809555
0.119522
0.191046
0.275533
0.354712
0.437091
0.522051
0.432745
0.348341
0.251801
0.153867
0.181313
0.303622
0.411377
0.503926
0.596329
0.661148
0.565184
0.464556
0.345668
0.203382
0.219852
0.379111
0.508068
0.61439
0.713448
0.758464
0.656099
0.544331
0.406114
0.232248
0.242363
0.430346
0.576648
0.693521
0.799368
0.836926
0.729054
0.607466
0.453783
0.250748
0.259246
0.478127
0.639906
0.766427
0.877957
0.925694
0.808057
0.675165
0.504882
0.26715
0.277075
0.533768
0.71282
0.852471
0.97623
1.0298
0.898635
0.751366
0.56233
0.285303
0.293536
0.59004
0.789246
0.945199
1.08475
1.13343
0.98606
0.822063
0.612527
0.299382
0.315557
0.631405
0.848705
1.02017
1.17589
1.20779
1.04151
0.860762
0.637088
0.328948
0.334177
0.617674
0.849099
1.04407
1.2269
1.22425
1.0197
0.789312
0.534428
0.318513
0.305312
0.447317
0.713634
0.951998
1.18615
1.08597
0.818225
0.628076
0.435465
0.393432
0.561087
0.437222
0.569063
0.772292
0.982858
1.04336
0.829391
0.826335
1.2925
2.89655
2.60535
1.20488
0.796723
0.831984
1.10726
1.18132
0.925932
1.01004
1.85614
3.32669
3.40732
1.96691
1.13
1.03564
1.30247
1.37169
1.11673
1.10778
1.59769
2.73194
1.76359
1.3004
1.03953
1.1433
1.42917
1.50584
1.20371
1.06222
1.19524
2.12976
2.59039
1.32371
1.18636
1.28542
1.59507
1.64729
1.31636
1.11415
1.16164
1.65647
1.46044
1.12059
1.14555
1.38398
1.73827
1.80853
1.43391
1.18162
1.09805
1.56568
1.9491
1.37055
1.37134
1.57339
1.95406
2.02826
1.63282
1.40713
1.37555
1.93511
2.46951
1.73477
1.65928
1.75893
2.17819
2.26996
1.88098
1.70495
1.77513
2.54183
2.11941
1.77322
1.81671
2.01062
2.41637
2.49854
2.08137
1.87689
1.79179
2.9472
3.37931
2.18407
2.17866
2.24893
2.66182
2.69521
2.239
1.84691
1.57995
1.97735
2.49458
1.75623
2.084
2.42217
2.88425
2.94541
2.43376
2.05104
1.72114
2.26545
2.37493
1.93495
2.28764
2.65765
3.15434
3.26331
2.73424
2.45508
2.17959
2.79341
3.61755
2.85116
3.05489
3.01755
3.52071
3.60599
3.11429
2.84063
2.59548
3.21051
3.3977
2.93586
3.26162
3.3085
3.82684
3.90403
3.39745
3.25687
2.83741
4.42586
4.57228
3.41127
3.75807
3.70836
4.13296
4.08016
3.45294
2.81668
2.09463
2.66286
4.29252
2.84763
3.56085
3.77519
4.37863
4.41917
3.74585
3.04576
2.27601
2.63337
3.76328
2.72893
3.58613
4.07267
4.72093
4.79228
4.06288
3.39757
2.55995
3.03323
3.55924
2.93021
3.80954
4.41589
5.09389
5.17433
4.40535
3.89408
3.03139
3.62187
4.21257
3.59465
4.47315
4.8047
5.50867
5.565
4.75466
4.11376
3.20304
3.61285
4.96228
4.36662
5.39922
5.19571
5.97008
6.07766
5.34058
4.8613
3.82702
5.17636
4.45683
4.26353
5.30153
5.69868
6.40852
6.44964
5.6101
4.79889
3.51237
4.5995
6.38263
4.60623
6.14633
6.20144
6.88447
6.8886
5.98514
5.0797
3.77839
4.40487
5.75869
4.26624
5.91747
6.47864
7.31431
7.38376
6.38176
5.70704
4.30846
4.97347
5.29227
4.57905
6.10762
6.90616
7.78713
7.88297
6.80176
6.1407
4.62003
5.11059
6.49939
5.95072
7.63185
7.50997
8.42871
8.44037
7.36032
6.36578
4.81609
5.36141
6.51891
6.30983
8.22566
7.86941
8.98713
9.13063
8.12128
7.38583
5.41731
7.18621
6.49506
6.27334
8.12765
8.70113
9.63553
9.67499
8.51749
7.33753
5.2324
6.58949
9.12378
6.76354
9.59157
9.48587
10.3197
10.223
8.94361
7.54175
5.44934
6.19304
8.69502
6.31676
9.26042
9.77451
10.8871
10.9505
9.53293
8.44747
6.21525
6.93104
7.58463
6.34368
8.83349
10.1939
11.4907
11.6457
10.0881
9.02377
6.59988
7.11058
8.03928
7.22047
9.82464
10.8891
12.2564
12.3745
10.7679
9.88874
7.2627
7.64908
9.39856
9.25011
12.365
11.9277
13.2309
13.2366
11.6919
10.2319
7.55956
8.81363
8.36934
8.55565
11.4553
11.8891
13.7047
13.6655
11.8879
9.90173
7.3575
8.20424
7.8709
7.70901
10.4118
12.2412
14.159
15.1237
13.5161
12.7752
9.15832
12.377
14.549
10.9111
15.6781
15.1163
16.1169
15.7815
14.02
15.4569
12.6972
12.7835
11.1878
7.94752
9.99222
12.268
14.2447
16.177
13.451
10.7315
8.96303
11.4643
11.1035
10.6485
13.6098
17.0121
20.2143
22.1574
18.9881
15.5884
11.9414
10.643
10.6252
13.6372
17.7309
21.187
24.3572
26.3214
23.1381
19.5757
15.1746
10.8572
11.2277
16.61
21.2952
24.9918
28.2309
30.0757
26.7655
22.9003
17.8517
11.6
12.0138
19.0788
24.4354
28.4666
31.8514
33.4801
30.0757
25.9114
20.282
12.4522
12.9155
21.5203
27.4491
31.7971
35.3284
37.1855
33.4922
28.9263
22.6355
13.3535
13.8683
23.7766
30.4741
35.2712
39.1468
41.179
37.1234
32.0944
25.0832
14.6061
15.5
26.3878
33.7556
38.9548
43.0784
45.0278
40.8994
35.6009
28.0459
16.3485
17.2134
29.8056
37.6206
43.0891
47.3508
49.74
45.3413
39.6847
31.5407
18.0783
18.937
33.3884
41.7616
47.6163
52.1597
54.7022
49.9137
43.8102
35.1998
19.6917
20.2353
36.655
45.5879
52.0228
57.4473
58.377
53.1764
46.646
37.4552
20.6481
20.9467
38.1105
47.4063
53.7759
58.4733
60.6482
55.5556
48.9765
39.4073
21.721
22.4502
41.131
50.9701
57.7664
63.0164
65.4882
60.0557
53.0507
42.9794
23.224
23.9895
44.5562
55.0675
62.3315
67.9894
70.5053
64.5674
56.9948
46.1447
24.9712
25.4924
47.3327
58.5917
66.5681
73.0013
75.0385
67.9216
59.6628
48.2394
26.1065
26.0752
48.3753
59.8737
68.0134
74.5687
73.1881
67.3476
59.5172
48.1228
26.0279
25.9612
47.8942
59.3181
67.3869
74.1093
74.0649
67.5379
59.3685
47.7352
25.9038
25.846
47.7552
59.4229
67.4249
73.4007
74.9839
68.4377
60.2021
48.3641
26.3075
26.7455
49.3365
61.522
70.0178
76.7511
78.3141
71.513
62.8758
50.4741
27.446
27.9951
51.6241
64.2332
73.0386
79.9918
81.7723
74.6575
65.6384
52.7882
28.6927
29.0888
53.9691
67.1744
76.4364
83.7916
85.998
78.051
68.5805
55.1978
29.8793
30.0865
55.7864
69.2983
78.7553
86.2795
85.9974
79.0859
69.7037
55.975
30.1376
30.8835
57.3326
71.4178
81.047
88.5454
91.3615
83.6872
73.7966
59.3865
31.9641
32.92
61.6525
76.3619
86.4854
94.334
97.4318
89.2904
78.8794
63.7482
33.7438
34.3725
65.1928
80.7584
91.626
100.583
101.118
92.6431
81.7683
65.9249
34.8178
34.8578
66.2967
82.4477
93.177
100.994
104.034
95.5118
84.3573
67.7066
35.7115
37.0619
69.6777
86.939
98.5176
107.418
110.885
101.705
89.7402
71.8649
37.9147
38.9239
74.0961
92.4499
104.894
114.489
118.286
107.676
94.7451
75.9904
39.8649
40.1756
77.1032
96.0707
109.018
119.076
119.221
109.965
97.2626
78.076
40.5634
41.514
80.0285
99.8447
113.008
123.013
127.337
116.964
103.308
82.793
42.8503
44.5262
85.827
107.037
121.138
131.886
136.621
125.392
110.714
89.0279
46.1056
47.0058
91.3694
113.897
129.199
141.708
143.164
131.278
115.961
93.2828
47.882
48.3363
94.9733
117.954
132.978
143.825
148.745
137.004
121.389
97.5849
49.5674
51.3583
101.207
125.955
142.194
154.386
160.49
147.637
130.628
104.99
53.2661
55.0525
108.467
134.765
152.548
166.993
169.257
155.542
137.782
110.981
56.1899
56.9024
113.329
140.462
158.082
170.613
176.858
163.219
144.816
116.665
58.4884
60.709
121.151
150.376
169.634
184.151
192.12
175.69
155.504
125.547
63.2362
64.2642
128.762
159.358
179.672
195.312
197.515
183.254
163.183
131.937
65.6879
68.0859
136.668
169.04
189.924
205.253
214.333
198.019
176.015
142.41
71.1015
73.5056
147.676
182.531
205.805
224.535
229.197
211.348
188.055
152.342
75.4918
77.756
157.395
193.613
216.578
232.704
242.589
225.253
201.363
163.667
80.7325
84.0408
170.998
210.624
235.952
254.362
267.808
246.543
219.606
178.674
88.797
91.9975
185.78
227.488
254.49
275.004
280.613
262.026
235.324
192.766
95.7533
100.151
201.263
245.117
273.288
293.472
309.467
285.813
255.927
210.361
104.793
109.237
219.298
265.893
296.087
318.854
326.573
305.959
275.999
228.025
112.528
117.381
237.327
288.073
320.06
342.439
362.584
335.699
301.07
246.565
120.747
128.074
256.575
313.488
349.257
375.565
386.85
362.434
326.326
267.948
134.577
142.021
280.355
340.845
379.271
408.594
424.678
395.857
356.405
294.173
150.226
160.124
310.113
373.647
413.39
439.656
467
435.484
393.461
327.547
170.465
182.445
347.196
415.225
458.206
489.13
509.909
482.573
439.631
369.223
195.35
211.018
394.922
468.213
513.369
545.265
577.108
546.319
500.81
424.657
229.134
251.446
459.693
537.889
581.999
606.365
651.012
624.857
580.41
500.539
278.305
300.603
544.418
625.555
668.362
693.767
729.043
707.532
668.64
593.465
343.038
370.278
623.578
698.069
736.803
758.266
784.608
762.032
718.381
635.542
378.874
385.883
650.614
740.733
786.54
809.702
838.385
817.506
768.96
668.548
383.862
400.699
700.883
802.995
848.55
868.391
892.073
872.623
830.095
737.747
435.052
464.182
758.412
846.604
887.898
906.912
917.535
899.344
860.696
777.43
491.57
511.63
795.01
870.455
907.567
924.896
926.449
908.8
870.706
788.889
506.287
492.431
746.943
849.916
896.833
918.764
901.607
871.761
814.396
693.906
471.252
444.978
642.543
776.822
844.762
879.84
858.339
816.24
744.718
612.888
422.205
398.379
569.341
709.417
788.199
834.487
807.2
754.601
671.629
529.529
372.856
346.959
491.048
638.183
726.954
782.754
752.3
690.569
597.876
448.563
318.759
293.182
414.482
568.024
666.334
731.118
701.477
635.277
537.891
384.525
268.581
248.828
374.956
521.417
617.949
685.681
657.695
591.62
499.511
362.703
230.952
216.178
352.67
484.115
576.605
644.635
618.776
550.849
463.246
340.415
204.112
192.597
323.05
437.014
518.183
574.943
566.063
504.247
423.561
312.784
182.528
176.139
306.72
409.798
486.351
546.731
543.388
480.768
403.747
304.36
171.811
166.957
299.495
393.207
465.629
526.887
494.878
445.138
380.009
293.949
162.831
158.069
286.692
371.901
437.806
492.202
479.234
424.51
361.65
279.773
153.63
148.682
269.523
348.245
406.928
452.124
450.479
400.637
340.204
260.045
143.372
138.593
253.056
330.81
389.159
440.014
416.065
374.136
319.483
244.435
133.56
129.577
239.164
313.888
369.401
415.151
406.659
362.548
309.035
237.427
126.716
125.769
237.826
308.323
362.917
409.412
402.663
356.433
304.221
236.703
124.667
123.162
233.3
297.717
345.757
383.851
385.17
343.745
294.698
230.926
121.445
120.613
228.628
290.453
337.823
379.817
363.256
328.377
284.133
224.326
118.496
117.33
222.321
281.745
326.796
364.846
360.439
321.307
277.247
218.762
115.772
113.943
214.9
271.432
312.863
345.695
347.3
311.378
268.734
212.118
112.387
110.819
208.636
264.788
306.737
343.697
330.12
298.921
259.267
204.727
108.76
107.032
202.239
257.061
297.746
331.865
328.854
293.539
253.512
199.765
105.918
103.663
195.643
248.467
286.631
316.378
318.311
285.884
247.031
194.919
102.698
101.818
192.653
243.92
282.125
315.941
304.366
275.823
239.483
189.656
100.526
99.5361
187.696
238.142
275.38
306.594
304.566
271.94
234.916
185.239
98.4263
96.4478
180.336
229.202
264.533
293.848
283.012
256.962
223.07
175.305
94.1825
92.4354
173.242
221.009
255.772
284.474
282.854
252.66
218.354
171.624
91.1727
89.8779
169.557
214.802
247.514
273.174
275.426
247.557
214.143
168.95
89.5078
89.0311
167.42
212.053
245.024
274.207
265.053
240.347
208.904
165.481
88.1285
87.3955
164.265
208.207
240.466
267.347
266.449
238.295
206.475
163.661
87.0889
86.0736
161.056
203.471
233.941
257.738
260.046
234.118
202.987
160.635
85.5702
85.0208
159.319
201.178
231.953
259.189
250.841
227.794
198.368
157.365
84.0353
83.5695
156.793
197.848
227.969
253.057
252.307
226.02
196.176
155.441
83.1142
82.097
153.362
193.379
221.925
244.273
246.413
222.081
192.818
152.824
81.5853
80.9687
151.488
191.177
220.238
245.791
238.04
216.289
188.368
149.172
80.0124
79.3708
148.624
187.865
216.376
240.081
239.427
214.475
186.237
147.716
78.8711
77.943
145.528
183.595
210.782
231.97
233.982
210.929
183.15
144.937
77.2527
76.7731
144.011
181.62
209.224
233.401
226.259
205.71
179.318
142.151
75.9263
75.2203
141.281
178.772
205.882
228.277
227.841
204.241
177.334
140.595
74.6994
73.7559
138.605
175.189
201.085
221.144
223.374
201.519
174.997
138.364
73.3321
73.2779
137.406
173.897
200.32
223.374
217.619
197.783
172.439
136.625
73.0927
73.2332
136.935
172.866
199.001
220.595
221.315
198.629
172.671
136.892
73.501
72.8816
137.422
172.48
197.679
217.32
221.708
200.432
174.653
138.585
75.136
73.0656
141.294
176.214
202.28
225.177
223.218
203.211
178.094
142.162
77.9293
75.3699
146.077
182.22
207.604
227.605
234.463
213.856
187.646
149.604
80.2003
81.5063
154.691
194.56
223.472
248.228
254.168
227.174
197.342
156.759
83.205
83.5405
156.123
196.072
225.334
250.635
243.276
221.246
193.165
153.823
82.9023
82.9059
153.212
192.868
221.582
245.476
244.871
221.241
192.871
153.331
83.3291
83.963
154.637
194.41
224.085
249.079
249.012
223.204
194.009
154.642
84.1559
84.383
153.451
191.744
219.419
241.21
243.638
219.923
191.554
152.785
82.0003
80.5981
151.455
189.94
218.163
243.009
235.061
213.943
186.846
148.799
78.8752
78.0723
148.037
186.356
214.198
237.178
236.452
212.395
184.852
147.205
77.7422
76.8192
145.066
181.989
208.286
228.768
230.848
208.532
181.509
144.306
76.2222
75.8625
143.494
180.111
206.882
230.25
222.948
203.005
177.367
141.203
75.0334
74.771
140.936
177.148
203.423
225.123
224.734
202.027
176.009
140.376
74.4514
73.9427
138.634
173.596
198.434
217.771
219.958
198.887
173.408
138.236
73.7401
73.4374
137.296
172.141
197.531
219.644
212.859
194.042
169.793
135.63
72.7968
72.3271
135.032
169.536
194.458
214.992
214.576
193.085
168.368
134.283
72.082
71.6753
132.9
166.143
189.691
207.909
209.586
190.016
166.16
132.909
71.7143
72.1398
133.106
166.15
189.627
208.846
212.096
191.835
167.357
133.936
72.5902
72.5117
133.685
166.985
191.062
212.02
205.704
187.901
164.906
132.456
72.1055
71.7222
132.13
164.848
188.366
207.706
207.289
187.041
163.653
131.297
71.4226
71.0023
129.572
161.456
183.835
200.999
202.517
184.029
161.297
129.377
70.8927
71.0212
129.357
161.19
183.578
201.757
204.752
185.597
162.284
130.095
71.3334
71.3428
129.98
161.799
184.74
204.569
198.47
181.596
159.689
128.508
70.9334
70.6961
128.157
159.527
181.981
200.301
199.819
180.612
158.316
127.202
70.3795
70.0036
125.749
156.167
177.455
193.733
195.163
177.618
155.966
125.436
69.8254
69.9527
125.46
155.856
177.123
194.356
197.171
179.027
156.802
126.047
70.2241
70.1665
125.841
156.313
178.177
196.942
191.006
175.058
154.226
124.465
69.8793
69.6146
124.038
153.963
175.338
192.685
192.133
174.01
152.803
123.135
69.2968
68.8124
121.311
150.551
170.808
186.236
187.56
170.938
150.219
121.009
68.6573
68.6338
120.899
150.041
170.278
186.597
189.208
171.935
150.741
121.386
68.8493
68.7788
121.161
150.158
170.952
188.794
183.025
167.926
148.175
119.875
68.451
68.4366
119.609
147.987
168.12
184.349
183.405
167.585
147.946
119.759
68.6767
68.8553
120.163
148.577
169.11
185.92
185.504
168.195
147.944
119.744
68.7486
68.3474
118.078
145.876
165.106
179.761
181.05
165.232
145.514
117.627
68.1408
68.0174
117.464
145.26
164.547
179.975
182.416
165.993
145.876
117.87
68.1675
68.1572
117.594
145.244
165.023
181.91
176.232
161.958
143.208
116.269
67.938
67.8174
115.829
142.874
162.064
177.483
176.39
161.393
142.692
115.777
67.9038
68.1129
116.135
143.276
162.834
178.794
178.318
161.871
142.602
115.819
68.086
67.6551
114.17
140.557
158.847
172.745
174.009
158.953
140.185
113.607
67.2954
67.3597
113.722
140.05
158.359
172.972
175.33
159.773
140.649
114.049
67.438
67.3729
113.698
139.987
158.825
174.829
169.305
155.76
137.893
112.147
67.1113
66.9121
111.585
137.477
155.824
170.508
169.32
155.082
137.169
111.414
66.9609
67.1231
111.648
137.58
156.297
171.583
171.021
155.343
136.925
111.093
66.9113
66.4927
109.274
134.698
152.216
165.475
166.664
152.245
134.251
108.742
66.2118
66.3946
108.832
134.022
151.592
165.489
167.581
152.849
134.91
109.76
66.6958
67.055
110.114
135.115
152.584
166.553
168.945
154.071
135.822
110.691
67.4362
67.4212
110.418
135.346
153.206
168.383
162.969
150.103
133.156
108.644
67.0998
66.844
108.11
132.698
150.196
164.209
162.984
149.459
132.399
107.929
66.7603
66.725
108.063
132.762
150.654
165.192
164.585
149.702
132.148
107.419
66.536
66.2408
105.964
129.98
146.613
159.234
160.412
146.699
129.525
105.442
66.04
66.0932
105.279
129.255
145.97
159.168
161.209
147.114
129.975
106.062
66.5027
66.8084
106.413
130.136
146.8
160.067
162.356
148.177
130.708
106.689
66.9828
66.9861
106.535
130.238
147.3
161.765
156.456
144.219
128.05
104.568
66.6667
66.485
104.035
127.49
144.227
157.605
156.334
143.516
127.231
103.767
66.2952
66.5518
104.51
127.914
144.673
158.395
157.231
144.337
128.102
104.936
66.8644
67.075
105.368
128.648
145.703
159.541
158.928
144.841
128.132
104.979
67.0698
66.8603
103.415
126.136
141.83
153.733
154.9
141.859
125.568
102.73
66.6674
66.6105
102.443
125.229
141.104
153.572
155.567
142.129
125.751
102.852
66.7818
67.0337
103.262
125.889
141.744
154.313
156.593
143.019
126.331
103.49
67.064
67.0583
103.146
125.866
142.22
155.998
150.852
139.205
123.812
101.422
66.8172
66.6504
100.883
123.301
139.296
152.081
150.747
138.58
123.038
100.857
66.756
66.98
101.369
123.649
139.645
152.807
151.571
139.31
123.839
101.861
67.3234
67.4466
102.153
124.3
140.569
153.826
153.226
139.757
123.825
101.804
67.4699
67.2902
100.291
121.783
136.743
148.093
149.279
136.784
121.179
99.5038
67.1037
67.0228
99.2222
120.815
136.004
147.841
149.813
136.969
121.383
99.7209
67.1455
67.2937
99.8134
121.392
136.562
148.523
150.676
137.781
122.106
100.54
67.676
67.947
100.935
122.341
137.417
149.321
151.559
138.644
122.807
101.332
68.1806
68.2946
100.981
122.291
137.802
150.868
145.757
134.75
120.25
99.256
68.1342
67.9524
98.3747
119.603
134.756
146.938
145.462
134.006
119.25
98.2405
67.9444
68.0062
98.5141
119.604
134.81
147.349
145.949
134.325
119.539
98.6365
68.2383
68.5059
99.1779
120.163
135.477
148.071
146.634
135.038
120.298
99.5169
68.6535
68.7506
99.794
120.686
136.197
148.816
148.113
135.372
120.178
99.375
68.774
68.6603
97.9991
118.177
132.318
143.062
144.229
132.332
117.595
96.9246
68.4749
68.5306
96.7768
117.204
131.571
142.732
144.671
132.362
117.435
96.8573
68.6332
68.883
97.1673
117.506
131.935
143.203
145.351
133.012
118.117
97.76
69.1596
69.3962
98.0698
118.181
132.567
143.873
146.082
133.686
118.533
98.2611
69.4781
69.5549
97.8732
118.083
132.956
145.409
140.437
129.924
116.111
96.3216
69.4398
69.2399
95.2141
115.51
130.021
141.734
140.205
129.303
115.168
95.0892
69.2819
69.4458
95.564
115.629
130.186
142.237
140.818
129.765
115.627
95.7325
69.5859
69.8914
96.4783
116.346
130.977
143.047
141.595
130.57
116.453
96.7692
70.0926
70.3484
97.2767
116.93
131.698
143.822
143.196
130.988
116.419
96.6643
70.4594
70.3923
95.3842
114.517
127.997
138.264
139.558
128.048
113.909
94.472
70.299
70.2947
94.2901
113.566
127.327
137.966
139.993
128.121
113.837
94.4167
70.3143
70.5367
94.5649
113.788
127.678
138.454
140.676
128.793
114.498
95.2041
70.7532
70.956
95.603
114.638
128.438
139.205
141.449
129.58
115.333
96.1627
71.2964
71.6186
96.5081
115.459
129.159
139.904
142.115
130.276
115.828
96.7358
71.7353
71.9353
96.3553
115.4
129.58
141.488
136.681
126.691
113.579
95.0529
71.9477
71.9205
94.1872
112.983
126.76
138.02
136.368
126.054
112.666
93.9814
71.9052
72.0838
94.1992
112.992
126.88
138.457
136.905
126.451
112.992
94.3115
72.2594
72.5448
94.8881
113.591
127.543
139.15
137.593
127.145
113.723
95.2375
72.7993
72.8951
95.5766
114.092
128.223
139.823
139.196
127.526
113.691
95.1934
73.0658
73.0485
93.7423
111.808
124.667
134.429
135.814
124.791
111.307
93.016
73.0268
73.0133
92.7784
110.973
124.053
134.135
136.242
124.847
111.222
92.9201
73.2022
73.4208
93.1197
111.203
124.397
134.574
136.835
125.398
111.74
93.5649
73.6329
73.8895
93.7962
111.792
124.968
135.195
137.495
126.064
112.402
94.3258
74.1563
74.4266
94.6121
112.495
125.624
135.79
138.042
126.616
112.81
95.0111
74.6023
74.7929
94.5923
112.377
125.912
137.365
132.563
123.017
110.497
93.1072
74.8345
74.8288
92.1336
109.913
123.11
133.988
132.175
122.354
109.49
91.8539
74.8388
74.9456
91.9843
109.73
123.098
134.318
132.529
122.557
109.639
92.0328
75.0819
75.3679
92.4378
110.131
123.556
134.83
133.105
123.107
110.153
92.6342
75.5199
75.7905
93.1944
110.723
124.099
135.392
133.68
123.673
110.777
93.428
76.0785
76.4294
93.9363
111.357
124.74
136.026
134.327
124.32
111.467
94.2234
76.7167
76.8923
94.6384
111.878
125.405
136.654
136.047
124.792
111.563
94.3926
77.1387
77.223
93.3178
109.857
122.079
131.397
132.933
122.227
109.456
92.6311
77.3734
77.4094
92.2531
109.101
121.611
131.185
133.454
122.451
109.433
92.3883
77.6225
77.8976
92.5631
109.42
122.017
131.746
134.164
123.127
110.079
93.0342
78.1135
78.4574
93.317
110.108
122.72
132.474
134.929
123.859
110.766
93.7961
78.6594
78.9957
94.161
110.908
123.452
133.211
135.542
124.491
111.231
94.4991
79.1998
79.4228
94.2345
110.88
123.884
134.943
130.377
121.225
109.258
93.2949
79.5761
79.7155
92.5636
108.854
121.399
131.931
130.103
120.753
108.537
92.2319
79.815
80.0397
92.2767
108.805
121.555
132.374
130.602
121.113
108.766
92.351
80.2362
80.5604
92.7676
109.327
122.148
133.019
131.253
121.755
109.37
92.9985
80.8055
81.0813
93.5414
109.957
122.818
133.747
131.966
122.433
110.089
93.8047
81.3378
81.5405
94.1048
110.349
123.395
134.29
133.687
122.812
110.016
93.8736
81.7882
81.9558
92.9986
108.434
120.132
129.069
130.726
120.297
108.002
92.3809
82.1406
82.294
92.1268
107.722
119.656
128.807
131.193
120.5
107.994
92.171
82.4794
82.8015
92.2835
107.978
120.079
129.374
131.92
121.126
108.527
92.6308
83.0179
83.3812
92.8803
108.588
120.731
130.057
132.673
121.848
109.231
93.3645
83.5854
83.9441
93.654
109.292
121.429
130.81
133.215
122.438
109.653
93.9777
84.1553
84.4403
93.7018
109.29
121.885
132.633
128.032
119.228
107.754
92.9531
84.6493
84.9483
92.2133
107.281
119.403
129.778
127.824
118.79
106.991
91.9138
85.0841
85.368
92.0079
107.343
119.67
130.32
128.412
119.235
107.32
92.138
85.5998
85.9014
92.5105
107.928
120.37
131.078
129.199
119.993
107.982
92.7193
86.1493
86.4944
93.2293
108.617
121.142
131.918
130.052
120.772
108.787
93.5531
86.7412
87.0505
93.961
109.189
121.876
132.547
132.023
121.353
108.913
93.8119
87.322
87.6061
93.313
107.461
118.813
127.501
129.387
119.095
107.124
92.8309
87.8732
88.1816
92.5155
106.882
118.468
127.37
130.007
119.439
107.323
92.6056
88.4958
88.8263
92.6987
107.333
119.042
128.049
130.819
120.19
107.924
93.005
89.1068
89.4302
93.2845
108.042
119.821
128.878
131.69
120.963
108.634
93.7332
89.7317
90.0314
94.0529
108.784
120.594
129.749
132.255
121.644
109.199
94.5078
90.3024
90.5963
94.4134
108.861
121.151
131.728
127.129
118.537
107.278
93.9429
90.9058
91.2627
93.5186
106.885
118.764
129.059
126.959
118.193
106.692
93.0349
91.5921
91.9613
93.0541
107.093
119.077
129.596
127.569
118.683
107.099
93.0963
92.3057
92.647
93.2845
107.647
119.794
130.406
128.36
119.398
107.733
93.5251
92.9738
93.2995
93.8794
108.326
120.547
131.236
129.234
120.168
108.464
94.173
93.652
93.9458
94.5407
108.91
121.243
131.778
131.272
120.744
108.566
94.6598
94.2789
94.6157
94.3431
106.854
118.158
126.7
128.702
118.414
106.595
94.066
95.0156
95.3876
93.6859
106.486
117.871
126.59
129.35
118.825
106.92
93.6741
95.7448
96.06
93.7464
106.97
118.435
127.273
130.234
119.655
107.671
93.9799
96.3705
96.653
94.2145
107.746
119.281
128.2
131.225
120.561
108.448
94.6444
96.9797
97.2797
94.9458
108.682
120.233
129.219
131.958
121.388
109.139
95.3275
97.661
98.0096
95.5393
108.836
120.957
131.509
127.085
118.569
107.392
95.4392
98.4609
98.8726
95.2485
107.255
118.922
129.244
127.118
118.413
107.193
95.0084
99.3748
99.7295
95.0799
107.753
119.579
130.053
128.045
119.227
107.907
95.2877
100.081
100.433
95.515
108.629
120.558
131.151
129.202
120.25
108.859
95.7942
100.733
101.112
96.0532
109.335
121.455
132.015
131.616
121.078
109.104
96.4929
101.483
101.954
96.2673
107.723
118.765
127.2
129.449
119.151
107.639
96.0726
102.434
102.978
95.8778
107.574
118.688
127.34
130.302
119.854
108.152
95.9825
103.279
103.784
96.1411
108.294
119.541
128.322
131.454
120.858
109
96.3768
104.017
104.462
96.6819
109.272
120.582
129.537
132.365
121.779
109.725
96.8675
104.848
105.468
97.1243
109.413
121.36
131.954
127.454
118.959
107.913
96.8758
105.956
106.675
96.6976
107.799
119.335
129.708
127.527
118.838
107.701
96.4565
107.085
107.593
96.5838
108.338
120.033
130.497
128.497
119.701
108.456
96.7275
107.825
108.167
97.0181
109.221
121.089
131.682
129.749
120.813
109.461
97.3024
108.439
108.817
97.6214
110.067
122.072
132.702
132.317
121.727
109.821
98.1561
109.338
109.835
98.1263
108.528
119.49
127.921
130.275
119.917
108.5
98.0199
110.557
111.074
97.7684
108.429
119.472
128.143
131.153
120.635
109.031
97.8347
111.608
111.973
97.883
109.152
120.331
129.123
132.357
121.641
109.794
98.1243
112.456
112.836
98.3435
110.033
121.347
130.373
133.38
122.641
110.574
98.5759
113.26
113.847
99.1848
110.421
122.339
133.035
128.631
120.161
109.241
99.2384
114.379
115.094
99.1588
109.254
120.597
131.009
128.908
120.17
109.193
99.0636
115.604
116.213
99.2377
109.886
121.47
132.003
130.073
121.2
110.084
99.4496
116.306
116.726
99.7746
110.941
122.748
133.435
131.596
122.533
111.287
100.141
116.912
117.406
100.401
111.911
123.957
134.764
134.506
123.7
111.81
100.736
118.111
118.746
101.052