/*--------------------------------*- C++ -*----------------------------------*\
| =========                 |                                                 |
| \\      /  F ield         | OpenFOAM: The Open Source CFD Toolbox           |
|  \\    /   O peration     | Version:  v2006                                 |
|   \\  /    A nd           | Website:  www.openfoam.com                      |
|    \\/     M anipulation  |                                                 |
\*---------------------------------------------------------------------------*/
FoamFile
{
    version     2.0;
    format      ascii;
    class       volScalarField;
    location    "0.135";
    object      turbulenceProperties:I;
}
// * * * * * * * * * * * * * * * * * * * * * * * * * * * * * * * * * * * * * //

dimensions      [0 0 0 0 0 0 0];


internalField   nonuniform List<scalar> 
38932
(
0.149717
0.149711
0.149908
0.14991
0.149909
0.14991
0.149909
0.14991
0.149909
0.14991
0.14991
0.14991
0.14991
0.14991
0.14991
0.149911
0.149911
0.149911
0.149912
0.149912
0.149912
0.149913
0.149913
0.149913
0.149914
0.149914
0.149915
0.149915
0.149916
0.149916
0.149917
0.149917
0.149918
0.149918
0.149919
0.149919
0.14992
0.14992
0.149921
0.149922
0.149922
0.149923
0.149923
0.149924
0.149925
0.149925
0.149926
0.149926
0.149927
0.149928
0.149928
0.149929
0.149929
0.14993
0.149931
0.149931
0.149932
0.149932
0.149933
0.149933
0.149934
0.149934
0.149935
0.149935
0.149936
0.149936
0.149936
0.149937
0.149937
0.149937
0.149938
0.149938
0.149938
0.149938
0.149938
0.149939
0.149939
0.149939
0.149939
0.149939
0.149939
0.149939
0.149939
0.149938
0.149938
0.149938
0.149938
0.149937
0.149937
0.149937
0.149936
0.149936
0.149936
0.149935
0.149935
0.149934
0.149934
0.149933
0.149932
0.149932
0.149931
0.149931
0.14993
0.149929
0.149929
0.149928
0.149927
0.149927
0.149926
0.149925
0.149925
0.149924
0.149923
0.149923
0.149922
0.149922
0.149921
0.149921
0.149921
0.149922
0.149924
0.149927
0.149935
0.149953
0.149989
0.150112
0.150214
0.151558
0.151343
0.159508
0.163448
0.172439
0.131122
0.173881
0.16068
0.157807
0.15971
0.131598
0.131472
0.148351
0.152841
0.147768
0.140049
0.129237
0.126779
0.133446
0.142982
0.138824
0.12844
0.124598
0.122707
0.124421
0.135289
0.132293
0.121356
0.121145
0.119888
0.11899
0.129755
0.127616
0.117153
0.118893
0.118119
0.115724
0.125806
0.12426
0.114594
0.117514
0.117047
0.113692
0.122929
0.121775
0.112963
0.116692
0.116426
0.112369
0.120769
0.119884
0.111879
0.116232
0.116092
0.111469
0.119102
0.118406
0.111123
0.115998
0.115938
0.11083
0.117784
0.117226
0.11058
0.115908
0.115902
0.110369
0.116725
0.116275
0.110191
0.115916
0.115948
0.110043
0.115871
0.11551
0.109923
0.115996
0.116058
0.109829
0.115188
0.114903
0.109761
0.116134
0.116223
0.109718
0.114653
0.114438
0.109698
0.116325
0.116439
0.109702
0.114254
0.114103
0.109728
0.116566
0.116704
0.109778
0.113982
0.113891
0.10985
0.116855
0.117019
0.109946
0.11383
0.113799
0.110065
0.117196
0.117387
0.110208
0.113798
0.113827
0.110374
0.117591
0.11781
0.110566
0.113887
0.113977
0.110782
0.118044
0.118293
0.111025
0.114099
0.114253
0.111295
0.11856
0.118843
0.111593
0.11444
0.114661
0.11192
0.119145
0.119467
0.112277
0.114918
0.115211
0.112667
0.119809
0.120172
0.113089
0.115543
0.115914
0.113548
0.120559
0.12097
0.114043
0.116328
0.116786
0.114578
0.121407
0.121872
0.115155
0.11729
0.117844
0.115776
0.122368
0.122895
0.116445
0.118451
0.119114
0.117165
0.123458
0.124059
0.11794
0.119836
0.120623
0.118774
0.124701
0.125388
0.119673
0.12148
0.122412
0.120642
0.126125
0.126915
0.121687
0.123426
0.124528
0.122815
0.127766
0.128682
0.124035
0.125729
0.127035
0.125355
0.129672
0.130743
0.126786
0.128459
0.130012
0.12834
0.131904
0.133167
0.130031
0.131709
0.133565
0.131875
0.134544
0.136051
0.13389
0.135599
0.137833
0.136097
0.137704
0.139524
0.138523
0.140292
0.143005
0.141196
0.141536
0.143768
0.144152
0.146007
0.14934
0.147432
0.146255
0.149041
0.151088
0.153052
0.157202
0.155179
0.152176
0.155728
0.159783
0.161865
0.167127
0.164989
0.159776
0.164428
0.170917
0.1731
0.179916
0.17771
0.169814
0.176112
0.185557
0.187753
0.196825
0.194697
0.183549
0.192439
0.205449
0.207419
0.219907
0.218233
0.203206
0.216458
0.233634
0.234787
0.252727
0.252443
0.233056
0.254299
0.275808
0.274669
0.301935
0.305404
0.282185
0.319965
0.343782
0.336462
0.3811
0.39488
0.373127
0.452008
0.465415
0.440451
0.522069
0.56738
0.578164
0.804886
0.724534
0.63951
0.820514
0.993997
1
1
1
1
1
1
1
1
1
1
1
1
1
0.874177
1
1
1
1
0.715135
0.604324
0.96833
1
0.995037
0.779551
0.519907
0.451994
0.64073
0.78983
0.639393
0.531026
0.395267
0.348266
0.442405
0.524199
0.435436
0.371174
0.310008
0.285239
0.317502
0.369496
0.325166
0.284336
0.270113
0.258441
0.263776
0.296973
0.278604
0.249894
0.2497
0.241984
0.239479
0.265898
0.256949
0.232422
0.235769
0.23063
0.227492
0.250882
0.247069
0.224296
0.226643
0.223612
0.222232
0.244691
0.24363
0.221285
0.221508
0.220093
0.221224
0.243655
0.244611
0.221922
0.219555
0.219948
0.223535
0.246609
0.249685
0.226218
0.221106
0.222995
0.229466
0.253457
0.258226
0.23371
0.225802
0.229424
0.238762
0.263897
0.270556
0.244762
0.233961
0.239447
0.251731
0.27826
0.28711
0.259772
0.245935
0.253566
0.269004
0.297216
0.308746
0.279567
0.262441
0.272741
0.291692
0.321929
0.337019
0.305648
0.284737
0.298782
0.321832
0.354454
0.374746
0.340784
0.315327
0.335277
0.36338
0.398733
0.427578
0.390796
0.359596
0.390531
0.425269
0.463286
0.50875
0.469996
0.431045
0.490425
0.532329
0.569743
0.654706
0.622468
0.57921
0.747985
0.774729
0.783962
0.996277
1
1
1
1
1
1
1
1
1
1
1
1
1
0.788103
0.607069
0.517113
0.463697
0.433662
0.418161
0.41313
0.417863
0.432481
0.457673
0.494935
0.553582
0.634497
0.748032
0.843592
0.952317
1
1
1
1
1
1
1
1
1
1
1
1
1
1
1
1
1
1
1
1
1
1
1
1
1
1
1
1
1
1
1
1
1
1
1
1
1
1
1
1
1
1
1
1
1
1
1
1
1
1
1
1
1
1
1
1
1
1
1
1
1
1
1
1
1
1
1
1
1
1
1
1
1
1
1
1
1
1
1
1
1
1
1
1
1
1
1
1
1
1
1
1
1
1
1
1
1
1
1
1
1
1
1
1
1
1
1
1
1
1
1
1
1
1
1
1
1
1
1
1
1
1
1
1
1
1
1
1
1
1
1
1
1
1
0.969399
1
1
1
1
1
1
1
1
1
1
1
1
1
1
1
1
1
1
1
1
1
1
1
1
1
1
1
1
1
1
1
1
0.94558
1
1
1
1
1
1
1
1
1
1
1
1
1
1
1
1
1
1
1
1
1
1
1
0.934778
1
1
1
1
1
1
1
1
0.937759
0.878023
0.96587
1
1
1
1
1
1
1
0.876627
0.816329
0.894177
1
0.972891
1
1
1
1
0.922774
0.823003
0.765496
0.823329
0.96607
1
1
1
1
1
0.853607
0.769273
0.731856
0.784116
0.936949
1
1
1
1
0.99043
0.79917
0.729828
0.698953
0.754479
0.920065
1
1
1
1
1
0.791377
0.707566
0.67251
0.734681
0.889797
1
1
1
1
0.950711
0.753881
0.672578
0.640148
0.694322
0.810851
0.824402
1
1
1
0.992527
0.732612
0.64698
0.606425
0.648292
0.730957
0.88479
1
1
0.890212
0.822557
0.663701
0.610707
0.587525
0.622896
0.700502
0.892183
1
1
0.864616
0.756456
0.638603
0.591386
0.573162
0.605663
0.690837
0.890085
1
1
0.917132
0.724139
0.618528
0.573154
0.553812
0.58844
0.685273
0.830995
1
1
0.993726
0.736156
0.604607
0.557881
0.539652
0.573616
0.661924
0.802997
1
1
0.834899
0.739735
0.591487
0.545874
0.527975
0.564354
0.644653
0.762321
1
1
0.925704
0.703018
0.583303
0.531795
0.50684
0.537892
0.59001
0.66024
1
1
0.79518
0.696083
0.561127
0.514874
0.497993
0.525863
0.585596
0.704165
1
0.984595
0.71017
0.636332
0.542488
0.503832
0.489765
0.514257
0.589986
0.708381
1
1
0.725675
0.595674
0.521412
0.488816
0.477022
0.501047
0.576006
0.668042
0.894966
1
0.780951
0.640284
0.522274
0.484099
0.468789
0.494025
0.550815
0.657778
1
0.817995
0.672954
0.611226
0.502991
0.473456
0.460659
0.486647
0.543933
0.603804
0.96799
1
0.720167
0.58754
0.503049
0.465917
0.448385
0.471793
0.509906
0.564188
0.935009
0.89287
0.644514
0.59633
0.492368
0.454914
0.438896
0.457008
0.493855
0.564011
1
0.807616
0.580792
0.550718
0.473768
0.445608
0.435052
0.450468
0.50201
0.582845
0.894689
0.883374
0.56772
0.499465
0.454884
0.433757
0.423921
0.438543
0.487455
0.561532
0.798127
0.941184
0.574358
0.499191
0.446341
0.426179
0.417151
0.432013
0.488768
0.55538
0.740622
0.854389
0.627725
0.540596
0.449777
0.421672
0.408561
0.425087
0.463578
0.526863
0.881281
0.693908
0.542078
0.47882
0.418151
0.405474
0.388617
0.396865
0.41575
0.46952
0.859361
0.814935
0.478317
0.419867
0.394865
0.385547
0.386013
0.401996
0.451341
0.475153
0.713456
0.732628
0.560639
0.501408
0.411016
0.385743
0.359435
0.362786
0.425651
0.464568
0.553798
0.622012
0.32855
0.30263
0.313831
0.325622
0.330046
0.309418
0.292768
0.305571
0.48147
0.389067
0.302694
0.313891
0.336697
0.359077
0.36888
0.346084
0.322152
0.299251
0.332762
0.305284
0.304572
0.333182
0.3578
0.380714
0.390379
0.367323
0.341896
0.310559
0.292059
0.284901
0.316071
0.349522
0.375858
0.399325
0.407383
0.383436
0.356111
0.320261
0.279933
0.277044
0.324704
0.362125
0.390299
0.414637
0.420706
0.396422
0.367691
0.32906
0.275453
0.274797
0.333733
0.373672
0.403247
0.42825
0.435644
0.409726
0.379104
0.33746
0.27438
0.275087
0.341443
0.384932
0.4167
0.443756
0.452253
0.424072
0.391152
0.346474
0.277722
0.28436
0.352766
0.398418
0.431794
0.460073
0.468886
0.440897
0.407509
0.361992
0.29108
0.296231
0.37111
0.417367
0.451411
0.480151
0.49145
0.461889
0.427011
0.379452
0.300297
0.304194
0.388258
0.436515
0.472287
0.502701
0.514628
0.482689
0.445705
0.396714
0.30698
0.308146
0.40304
0.453235
0.491778
0.527089
0.527618
0.494949
0.456662
0.405552
0.308717
0.309227
0.407399
0.458614
0.495559
0.525204
0.53588
0.503543
0.46538
0.413197
0.313231
0.315996
0.421145
0.474411
0.513636
0.546993
0.558593
0.524066
0.483925
0.42985
0.319246
0.322816
0.437638
0.493084
0.534338
0.570147
0.581742
0.544341
0.50171
0.44554
0.328329
0.330926
0.451442
0.508783
0.553003
0.592912
0.601166
0.558265
0.51326
0.455856
0.334689
0.334744
0.456331
0.513151
0.556213
0.593634
0.583126
0.550529
0.510071
0.454443
0.334881
0.334795
0.453163
0.508607
0.550006
0.587145
0.585077
0.549933
0.508586
0.452336
0.336302
0.337425
0.45249
0.508521
0.54849
0.580423
0.58851
0.553402
0.512304
0.455665
0.342155
0.346048
0.460885
0.518774
0.561051
0.597129
0.604617
0.568372
0.525566
0.467002
0.351062
0.355033
0.473813
0.532912
0.576307
0.613246
0.622624
0.584976
0.540793
0.481021
0.360894
0.364589
0.488331
0.549349
0.59462
0.633506
0.645809
0.603827
0.557438
0.495634
0.369942
0.371706
0.499555
0.562062
0.607929
0.646917
0.64604
0.610376
0.565123
0.501306
0.37355
0.379155
0.509381
0.574654
0.621315
0.660303
0.675902
0.635623
0.587519
0.521095
0.386644
0.393019
0.534051
0.60166
0.651067
0.692755
0.71068
0.666899
0.615809
0.546396
0.398421
0.403214
0.555424
0.62711
0.680933
0.729541
0.732605
0.687178
0.633532
0.560286
0.407306
0.4086
0.562664
0.637889
0.690906
0.732842
0.751351
0.704697
0.64865
0.570336
0.413838
0.427676
0.583558
0.664319
0.722929
0.772612
0.796261
0.744214
0.683252
0.599993
0.439742
0.450406
0.617092
0.703181
0.767338
0.822779
0.853312
0.790502
0.722626
0.633725
0.461451
0.469824
0.647095
0.737095
0.804765
0.86361
0.870169
0.816638
0.75044
0.659075
0.477521
0.485931
0.674906
0.770981
0.841039
0.90028
0.935244
0.871543
0.797048
0.695968
0.499123
0.515993
0.72022
0.826535
0.905717
0.974484
1
0.943807
0.858717
0.747847
0.533965
0.549338
0.77318
0.89116
0.983652
1
1
1
0.916352
0.795038
0.560493
0.572217
0.81698
0.941934
1
1
1
1
0.977937
0.844544
0.587736
0.606888
0.879992
1
1
1
1
1
1
0.923542
0.636535
0.667275
0.970405
1
1
1
1
1
1
1
0.692347
0.71376
1
1
1
1
1
1
1
1
0.743359
0.786265
1
1
1
1
1
1
1
1
0.83706
0.876664
1
1
1
1
1
1
1
1
0.926648
0.9883
1
1
1
1
1
1
1
1
1
1
1
1
1
1
1
1
1
1
1
1
1
1
1
1
1
1
1
1
1
1
1
1
1
1
1
1
1
1
1
1
1
1
1
1
1
1
1
1
1
1
1
1
1
1
1
1
1
1
1
1
1
1
1
1
1
1
1
1
1
1
1
1
1
1
1
1
1
1
1
1
1
1
1
1
1
1
1
1
1
1
1
1
1
1
1
1
1
1
1
1
1
1
1
1
1
1
1
1
1
0.930722
1
1
1
1
0.97358
0.985999
0.992381
0.979
0.840567
0.755889
0.889564
0.906469
0.904116
0.891724
0.82545
0.832003
0.827933
0.805219
0.67256
0.59597
0.726046
0.75421
0.763802
0.765981
0.701458
0.698108
0.684254
0.650677
0.518021
0.423093
0.575247
0.618379
0.637433
0.645635
0.592734
0.58486
0.562138
0.511313
0.346222
0.319036
0.468692
0.518052
0.543147
0.557688
0.523121
0.511094
0.487085
0.444284
0.323187
0.318269
0.422215
0.460813
0.483482
0.498218
0.471595
0.458271
0.435263
0.394937
0.292273
0.254204
0.366194
0.4094
0.432141
0.446522
0.421034
0.40877
0.387567
0.347385
0.241255
0.249411
0.338727
0.37283
0.391608
0.402838
0.388562
0.378122
0.361698
0.332223
0.251359
0.235796
0.323085
0.350222
0.365923
0.376072
0.36486
0.354773
0.33914
0.310298
0.223007
0.222038
0.294905
0.326751
0.343517
0.35326
0.343313
0.332604
0.313689
0.279561
0.21828
0.208465
0.264733
0.301672
0.322399
0.334388
0.329415
0.315982
0.294195
0.257861
0.203416
0.205402
0.252072
0.289152
0.311402
0.325153
0.322166
0.307958
0.285502
0.248807
0.20827
0.213338
0.246662
0.283546
0.306144
0.320378
0.318034
0.302982
0.279581
0.241951
0.213904
0.204305
0.235944
0.27673
0.301802
0.3176
0.316273
0.300199
0.274644
0.232043
0.197829
0.206654
0.238139
0.278795
0.303342
0.31888
0.319738
0.30565
0.283402
0.245786
0.216004
0.220631
0.253114
0.289062
0.310695
0.32417
0.326104
0.312142
0.291552
0.258184
0.22441
0.225275
0.259506
0.290845
0.310028
0.321932
0.324742
0.312478
0.293172
0.262011
0.223288
0.222201
0.265475
0.295036
0.31339
0.325226
0.329983
0.318416
0.300426
0.272246
0.227152
0.236942
0.279956
0.305684
0.321806
0.333236
0.332136
0.323391
0.309862
0.287778
0.246709
0.253082
0.294133
0.315529
0.328706
0.336975
0.339707
0.331246
0.319306
0.299489
0.258475
0.261449
0.302066
0.321093
0.331808
0.338517
0.34212
0.335473
0.324284
0.304161
0.262677
0.264051
0.306469
0.326008
0.33667
0.343922
0.342347
0.33641
0.326404
0.307014
0.264131
0.262212
0.308299
0.328621
0.339024
0.345153
0.346038
0.340485
0.330646
0.311318
0.262023
0.268154
0.316922
0.335048
0.344554
0.350182
0.352838
0.347219
0.338815
0.322553
0.275238
0.280114
0.32656
0.341485
0.348799
0.352965
0.356615
0.352654
0.345453
0.330601
0.283383
0.28663
0.334002
0.348026
0.3546
0.35875
0.358876
0.355654
0.349558
0.335898
0.288501
0.291131
0.339039
0.352699
0.358754
0.361894
0.363566
0.360126
0.35432
0.340752
0.292891
0.293856
0.341919
0.355239
0.360818
0.363561
0.366086
0.363257
0.357463
0.343585
0.294618
0.295757
0.344613
0.358575
0.364217
0.367385
0.367226
0.3646
0.358994
0.345127
0.296104
0.296604
0.346477
0.360824
0.366667
0.369408
0.370407
0.367283
0.361554
0.347342
0.297237
0.296712
0.347055
0.361652
0.367456
0.370083
0.372015
0.369261
0.363319
0.349028
0.297678
0.298378
0.349551
0.363806
0.369661
0.372835
0.372404
0.369649
0.363753
0.349447
0.29831
0.298421
0.350114
0.365063
0.37127
0.374271
0.375072
0.371633
0.365297
0.350228
0.29862
0.297721
0.348765
0.364546
0.371241
0.374892
0.374137
0.370712
0.363708
0.347156
0.296476
0.295475
0.347569
0.364458
0.371667
0.375327
0.375577
0.371474
0.364342
0.347903
0.29533
0.295108
0.347769
0.363878
0.370995
0.374591
0.375961
0.37206
0.364751
0.348573
0.295374
0.295191
0.348337
0.364547
0.371809
0.376127
0.37502
0.371281
0.36403
0.347946
0.294925
0.29497
0.348163
0.364712
0.37222
0.3763
0.376397
0.371945
0.364567
0.348562
0.295071
0.294349
0.347288
0.363817
0.371289
0.375177
0.376357
0.372075
0.364387
0.347777
0.293918
0.293878
0.347462
0.363989
0.371631
0.376307
0.374932
0.370866
0.36321
0.346578
0.293123
0.292777
0.346774
0.363561
0.37147
0.375972
0.375774
0.370877
0.362981
0.346049
0.292098
0.290948
0.344788
0.361961
0.369939
0.374228
0.37516
0.370433
0.36224
0.345046
0.290872
0.290388
0.344363
0.361579
0.369751
0.374865
0.373129
0.368601
0.360251
0.342527
0.28883
0.287389
0.342174
0.36023
0.368879
0.373915
0.373493
0.367991
0.359346
0.341531
0.286608
0.285198
0.339751
0.358045
0.366808
0.371627
0.372391
0.367047
0.358055
0.339465
0.284051
0.283473
0.338827
0.357197
0.366168
0.371922
0.369962
0.364916
0.355909
0.337128
0.281766
0.279916
0.336213
0.355561
0.364986
0.370641
0.37009
0.363969
0.354552
0.335559
0.278599
0.277058
0.333697
0.353254
0.362741
0.368101
0.368777
0.362792
0.353092
0.33343
0.275844
0.275356
0.332308
0.35203
0.361792
0.3682
0.366375
0.360682
0.350829
0.331449
0.274144
0.273245
0.331135
0.350637
0.360904
0.367236
0.36666
0.360161
0.349985
0.329978
0.272441
0.268965
0.329658
0.349312
0.359643
0.365417
0.366804
0.360362
0.350138
0.329945
0.272239
0.265591
0.332644
0.350545
0.360542
0.366953
0.366392
0.360865
0.351413
0.333172
0.272434
0.26595
0.335997
0.353178
0.362138
0.367294
0.36829
0.363617
0.35495
0.337045
0.269903
0.270284
0.338679
0.356935
0.365734
0.3713
0.370732
0.365804
0.357259
0.338101
0.272541
0.275067
0.336875
0.356123
0.364593
0.369234
0.366732
0.362719
0.354071
0.335321
0.276502
0.278467
0.3353
0.353394
0.361993
0.366235
0.364944
0.360953
0.352852
0.335303
0.280163
0.28202
0.336231
0.353049
0.36099
0.364877
0.363471
0.359916
0.352692
0.336573
0.284016
0.28672
0.336267
0.351472
0.35823
0.361105
0.360954
0.357705
0.350987
0.335555
0.282862
0.279409
0.333781
0.349333
0.356006
0.359366
0.356817
0.353842
0.346995
0.33096
0.276094
0.274588
0.329884
0.346138
0.353164
0.35659
0.355007
0.351421
0.34451
0.328626
0.273531
0.27162
0.326161
0.342207
0.349201
0.352368
0.352082
0.348434
0.341232
0.32491
0.270205
0.268961
0.323563
0.339563
0.346635
0.350421
0.347671
0.344371
0.337219
0.320962
0.2673
0.266828
0.320187
0.336326
0.343544
0.347329
0.345568
0.34165
0.334561
0.318816
0.265704
0.26316
0.315987
0.331952
0.339169
0.34263
0.342137
0.338077
0.330645
0.314399
0.261369
0.260049
0.312542
0.328697
0.336117
0.340329
0.337375
0.333709
0.326322
0.310295
0.258951
0.257625
0.308845
0.325072
0.332664
0.336911
0.335061
0.330578
0.322944
0.306713
0.255233
0.253204
0.304173
0.320326
0.327982
0.331907
0.331232
0.326873
0.319102
0.302896
0.252118
0.251025
0.301418
0.317554
0.325281
0.329575
0.329118
0.324568
0.316594
0.300444
0.250064
0.249163
0.298991
0.315059
0.322671
0.327203
0.323989
0.32014
0.312659
0.297062
0.248577
0.247218
0.295648
0.311332
0.318892
0.323304
0.321241
0.31657
0.308918
0.293217
0.244609
0.24197
0.289936
0.305934
0.313671
0.317779
0.31684
0.312226
0.304275
0.288155
0.240208
0.239089
0.286455
0.30251
0.310424
0.315008
0.314372
0.309498
0.301352
0.285332
0.238083
0.236775
0.283703
0.299446
0.307336
0.312275
0.308736
0.304469
0.29666
0.281008
0.235163
0.233435
0.279303
0.295099
0.303103
0.307962
0.305972
0.300823
0.292788
0.276962
0.231359
0.229738
0.274372
0.290053
0.297987
0.302445
0.301639
0.296677
0.288565
0.272788
0.228387
0.227259
0.271258
0.286932
0.294944
0.299852
0.299319
0.294103
0.285749
0.270048
0.226209
0.224658
0.268309
0.283855
0.291994
0.297313
0.293649
0.289046
0.281057
0.265685
0.222969
0.221509
0.264044
0.279522
0.287719
0.292935
0.291028
0.285562
0.27738
0.261939
0.219804
0.217935
0.259026
0.274562
0.282652
0.287406
0.286658
0.281392
0.273025
0.257498
0.216602
0.215301
0.25592
0.271469
0.27964
0.284842
0.284418
0.278845
0.270287
0.254822
0.214298
0.213017
0.253268
0.268472
0.276802
0.28249
0.278793
0.27394
0.265855
0.250862
0.211298
0.210346
0.249456
0.264465
0.272724
0.278061
0.27626
0.271063
0.263031
0.248178
0.209511
0.208252
0.246903
0.261787
0.270184
0.275811
0.273895
0.268163
0.259897
0.245062
0.206576
0.204855
0.242343
0.257207
0.265246
0.270164
0.269486
0.264059
0.255751
0.240846
0.203832
0.203012
0.23954
0.2543
0.262395
0.267671
0.267313
0.261581
0.253176
0.238433
0.201925
0.200121
0.236668
0.251288
0.259565
0.265422
0.261673
0.256656
0.24862
0.234187
0.198509
0.197575
0.232705
0.247217
0.255498
0.261045
0.259275
0.253901
0.245844
0.23142
0.196663
0.195533
0.230338
0.244791
0.253215
0.259028
0.257311
0.251395
0.243144
0.228912
0.194363
0.193297
0.226645
0.240772
0.24869
0.253701
0.253208
0.247701
0.239574
0.225428
0.192712
0.192003
0.224492
0.238359
0.246228
0.251521
0.251256
0.245512
0.237288
0.223312
0.190728
0.189082
0.221575
0.235444
0.243563
0.249446
0.245697
0.240636
0.232753
0.21893
0.187318
0.185949
0.21726
0.231283
0.239493
0.245108
0.243329
0.237906
0.229876
0.215965
0.184994
0.184259
0.214997
0.228862
0.237203
0.243141
0.241502
0.2355
0.227353
0.213578
0.183265
0.181989
0.211141
0.224907
0.232764
0.237872
0.237469
0.231817
0.223678
0.209791
0.180807
0.180304
0.208942
0.222514
0.230456
0.235835
0.235698
0.22994
0.22195
0.208636
0.17989
0.178941
0.207594
0.220817
0.228619
0.234006
0.233856
0.228028
0.219888
0.20667
0.177927
0.176836
0.205313
0.218418
0.226329
0.232211
0.228638
0.223623
0.21602
0.202981
0.175747
0.175017
0.20177
0.214838
0.222737
0.22828
0.226637
0.22134
0.213659
0.200711
0.174201
0.173371
0.199803
0.212737
0.220782
0.226593
0.225058
0.219174
0.211338
0.198384
0.172417
0.171149
0.196257
0.208991
0.216515
0.221534
0.221192
0.215652
0.20778
0.194976
0.170169
0.169291
0.193848
0.206614
0.214277
0.219575
0.219512
0.213766
0.205972
0.193388
0.168623
0.168046
0.192585
0.204993
0.212565
0.217871
0.217862
0.212129
0.204231
0.191752
0.167355
0.166641
0.190785
0.203001
0.210631
0.216404
0.21298
0.208079
0.200786
0.188483
0.165571
0.164715
0.187353
0.199669
0.207297
0.212725
0.211213
0.206096
0.198716
0.186442
0.164252
0.163925
0.186246
0.198231
0.205733
0.21129
0.209711
0.204591
0.197349
0.185549
0.163282
0.162473
0.18479
0.196548
0.204159
0.209756
0.20831
0.20266
0.195248
0.183549
0.161553
0.160407
0.181466
0.193112
0.200143
0.20494
0.204697
0.199357
0.191947
0.180147
0.15941
0.158886
0.179169
0.190917
0.198127
0.203172
0.203244
0.197708
0.190335
0.178651
0.158424
0.157927
0.178068
0.189515
0.196624
0.20168
0.201804
0.196253
0.188794
0.177358
0.157353
0.156521
0.176315
0.187651
0.194894
0.200454
0.197172
0.192463
0.185594
0.174266
0.155536
0.1548
0.173176
0.184552
0.191774
0.197022
0.19554
0.190614
0.183617
0.172436
0.154325
0.153781
0.171954
0.183097
0.190249
0.195682
0.194171
0.189212
0.182312
0.171391
0.153202
0.15262
0.170723
0.181631
0.188874
0.194317
0.193058
0.187594
0.180562
0.16975
0.151935
0.15117
0.167997
0.178644
0.185266
0.189871
0.189789
0.184651
0.177677
0.166866
0.150539
0.150116
0.166074
0.176791
0.183559
0.188342
0.188529
0.183259
0.176368
0.165745
0.149693
0.149045
0.164978
0.175557
0.18227
0.187076
0.187252
0.182003
0.175112
0.164681
0.1486
0.148153
0.164109
0.174398
0.180983
0.185713
0.185874
0.180635
0.173733
0.163548
0.147608
0.146865
0.162522
0.172624
0.179343
0.184592
0.18145
0.177016
0.170705
0.160601
0.14593
0.145309
0.159378
0.169711
0.176384
0.181377
0.179957
0.17534
0.168849
0.158681
0.144894
0.144356
0.158172
0.168312
0.174987
0.180136
0.178712
0.174042
0.167553
0.157534
0.143819
0.143575
0.157267
0.167186
0.173858
0.178991
0.17753
0.172934
0.166586
0.156863
0.143365
0.142969
0.156403
0.166039
0.172695
0.177786
0.176616
0.171538
0.165076
0.155513
0.142368
0.141693
0.15397
0.163282
0.169298
0.173583
0.173529
0.168696
0.162334
0.152615
0.140926
0.140238
0.15181
0.161414
0.167646
0.172127
0.172342
0.167287
0.160796
0.151125
0.139595
0.139248
0.150672
0.160158
0.166415
0.170922
0.171239
0.16621
0.159803
0.150436
0.138987
0.138577
0.149963
0.159149
0.165307
0.169798
0.170093
0.165074
0.158609
0.149462
0.138238
0.137741
0.148665
0.157748
0.164034
0.169003
0.1661
0.161915
0.156082
0.147126
0.137073
0.136694
0.145953
0.155268
0.161446
0.166185
0.164852
0.160529
0.154519
0.145343
0.136301
0.135832
0.145025
0.154132
0.160298
0.165176
0.163831
0.159462
0.153469
0.144476
0.135437
0.134973
0.144288
0.153158
0.159343
0.164195
0.1628
0.158466
0.152516
0.143767
0.134506
0.134031
0.143408
0.152038
0.158242
0.16311
0.16209
0.157251
0.151172
0.142478
0.133548
0.133233
0.141239
0.149634
0.15523
0.159282
0.159401
0.15479
0.148861
0.140225
0.132831
0.132356
0.139598
0.148154
0.153919
0.158097
0.158469
0.153707
0.147738
0.139185
0.132073
0.131776
0.138767
0.147163
0.152954
0.157146
0.157579
0.152878
0.146976
0.138643
0.131525
0.131274
0.138329
0.146443
0.152116
0.156254
0.156625
0.151955
0.146121
0.137972
0.130646
0.130171
0.137475
0.145502
0.15109
0.155223
0.15552
0.150877
0.144993
0.137022
0.12983
0.129436
0.13627
0.144195
0.149921
0.154532
0.151847
0.147995
0.142717
0.134967
0.128904
0.128579
0.134001
0.141956
0.147557
0.151979
0.150688
0.146724
0.141295
0.133417
0.128302
0.127839
0.132999
0.140903
0.146541
0.151096
0.149812
0.145813
0.140358
0.132527
0.127511
0.127355
0.132399
0.140122
0.14574
0.150272
0.14897
0.14501
0.139647
0.132086
0.127103
0.126817
0.131791
0.139237
0.14487
0.149362
0.148456
0.143993
0.138529
0.131132
0.126466
0.125984
0.129824
0.1371
0.142157
0.145865
0.146045
0.141781
0.13643
0.128982
0.125742
0.125333
0.128357
0.135773
0.140956
0.144782
0.145214
0.14077
0.135347
0.127896
0.124854
0.124549
0.127496
0.134801
0.140057
0.143915
0.144397
0.139954
0.134531
0.127217
0.124179
0.123837
0.126816
0.134027
0.139246
0.143104
0.143589
0.139183
0.133801
0.12664
0.123626
0.123421
0.126341
0.133341
0.138467
0.142265
0.142682
0.138318
0.132963
0.126136
0.123229
0.122948
0.125532
0.132306
0.137498
0.1418
0.139277
0.135727
0.13096
0.124309
0.12254
0.122343
0.123402
0.130316
0.135392
0.139501
0.138237
0.134617
0.129689
0.122876
0.122187
0.121815
0.12246
0.129309
0.134449
0.138706
0.1374
0.133718
0.128752
0.121955
0.121368
0.121048
0.121688
0.128469
0.133635
0.137902
0.136618
0.132945
0.127982
0.121309
0.120791
0.120417
0.12111
0.127737
0.132849
0.137101
0.135821
0.132157
0.127231
0.12068
0.119915
0.119677
0.12048
0.12699
0.132083
0.136318
0.135053
0.131411
0.126568
0.120197
0.119564
0.119351
0.12
0.126262
0.131336
0.135515
0.134717
0.1306
0.125699
0.119522
0.119157
0.118886
0.118613
0.124511
0.128992
0.132353
0.132623
0.128683
0.123967
0.11792
0.118735
0.118476
0.117312
0.123381
0.128003
0.131433
0.131952
0.127896
0.123082
0.116924
0.118139
0.11784
0.116532
0.122605
0.127263
0.130741
0.131296
0.12725
0.122432
0.116308
0.117527
0.117249
0.115986
0.121968
0.126612
0.13008
0.13063
0.126594
0.121784
0.115759
0.116936
0.116672
0.115495
0.121379
0.125946
0.129399
0.129856
0.125855
0.121032
0.115259
0.116441
0.116274
0.114815
0.120491
0.125161
0.129101
0.126852
0.123642
0.119404
0.114062
0.116128
0.116067
0.113399
0.1189
0.123367
0.127135
0.125955
0.122697
0.118352
0.112802
0.115766
0.115401
0.112342
0.118014
0.122582
0.126473
0.125285
0.121979
0.117556
0.111935
0.115114
0.114906
0.111737
0.117379
0.121965
0.125859
0.124675
0.121387
0.116972
0.111453
0.114716
0.114441
0.111291
0.116789
0.121359
0.125261
0.12406
0.12076
0.116394
0.110962
0.114108
0.11391
0.110732
0.116051
0.120659
0.124531
0.123824
0.120024
0.115565
0.110357
0.113823
0.113726
0.109696
0.114555
0.118562
0.121626
0.121965
0.118314
0.114071
0.109106
0.113643
0.113554
0.108632
0.113586
0.117686
0.120792
0.121361
0.117606
0.113274
0.108224
0.113189
0.112802
0.107795
0.112822
0.11702
0.120181
0.120787
0.116995
0.112624
0.107522
0.112515
0.112306
0.107231
0.112222
0.116424
0.119585
0.120202
0.116417
0.112068
0.107037
0.112016
0.111759
0.106765
0.11166
0.11582
0.118997
0.119483
0.11574
0.11137
0.106541
0.111535
0.111386
0.106118
0.110874
0.115129
0.118799
0.11667
0.113721
0.109913
0.105527
0.111232
0.111314
0.10495
0.109456
0.113501
0.117043
0.115907
0.112933
0.109022
0.104531
0.111348
0.111106
0.104193
0.108794
0.112901
0.116531
0.115365
0.112344
0.108372
0.103815
0.11075
0.110471
0.103553
0.108203
0.112365
0.116014
0.114845
0.111818
0.107804
0.103235
0.110141
0.109887
0.103056
0.10765
0.111829
0.115494
0.11433
0.111276
0.1073
0.102787
0.109609
0.109331
0.102591
0.107027
0.111241
0.114847
0.114212
0.110665
0.106591
0.102306
0.109278
0.109346
0.101898
0.105713
0.10935
0.112173
0.112578
0.109149
0.105296
0.101411
0.109246
0.10901
0.10087
0.104841
0.10856
0.111433
0.112083
0.10855
0.104626
0.100477
0.108706
0.108577
0.100147
0.104249
0.108038
0.110936
0.111623
0.108089
0.104121
0.0999314
0.108441
0.108052
0.0996472
0.103785
0.107582
0.11048
0.111157
0.107606
0.103632
0.0994606
0.107815
0.107651
0.0992575
0.10332
0.107092
0.110015
0.110533
0.10706
0.1031
0.0991479
0.107527
0.107433
0.0988965
0.102664
0.106524
0.109925
0.107922
0.105223
0.101756
0.0985284
0.107408
0.107452
0.098116
0.101338
0.105016
0.108335
0.107197
0.104471
0.10092
0.0975048
0.107257
0.107045
0.0971056
0.100701
0.104422
0.10783
0.106688
0.103917
0.100314
0.0967203
0.106784
0.10648
0.0963775
0.100136
0.103934
0.107374
0.106224
0.10342
0.0997769
0.0960628
0.106179
0.105838
0.0958024
0.0996142
0.103448
0.106913
0.105794
0.102953
0.0993058
0.0955803
0.105664
0.105645
0.0954679
0.0991287
0.102954
0.106336
0.105784
0.102462
0.0987293
0.0953486
0.105664
0.105675
0.0950857
0.0978246
0.101233
0.103864
0.104312
0.101063
0.0974967
0.0948018
0.10573
0.105682
0.0943286
0.0971674
0.100575
0.103222
0.103902
0.100581
0.0970054
0.093975
0.105549
0.10529
0.0936236
0.0966738
0.10011
0.102787
0.103499
0.100175
0.096571
0.0933179
0.10497
0.104678
0.0930139
0.0962172
0.0996812
0.102382
0.103086
0.0997415
0.0960866
0.0927721
0.10432
0.103964
0.0924826
0.095781
0.0992487
0.101975
0.102535
0.0992333
0.095562
0.092288
0.103774
0.103689
0.0921431
0.0951424
0.098742
0.101986
0.100159
0.0976047
0.0943352
0.0919347
0.103702
0.103724
0.0916954
0.0940527
0.0974501
0.100633
0.0995674
0.0969863
0.0937454
0.0912831
0.103687
0.103574
0.0909963
0.0936372
0.0970726
0.100284
0.0992327
0.0966323
0.0933604
0.0907091
0.103394
0.103014
0.0903976
0.0932596
0.0967327
0.0999678
0.0989246
0.0962848
0.0929949
0.0901563
0.102795
0.102758
0.0899504
0.0928183
0.0963106
0.0995139
0.0990006
0.095857
0.0924444
0.0899145
0.102661
0.102655
0.089697
0.0916836
0.0947712
0.0972194
0.0976989
0.0946169
0.0914047
0.0893773
0.102676
0.102592
0.0889685
0.091069
0.0941581
0.0966502
0.0973241
0.0942019
0.0909186
0.0886146
0.102276
0.102
0.0882477
0.0905858
0.0937469
0.0962831
0.0969728
0.0938
0.0904368
0.0878901
0.101482
0.101212
0.0875788
0.0901411
0.0933402
0.0959453
0.0964976
0.0933323
0.0899037
0.0872551
0.100887
0.100864
0.0871647
0.0895071
0.0928756
0.095997
0.0942582
0.0918208
0.0887757
0.0869975
0.10108
0.10142
0.0868063
0.0885672
0.0917193
0.0947616
0.0937589
0.0913144
0.0882992
0.0864771
0.101428
0.101377
0.0862165
0.0882402
0.0914219
0.0944604
0.0934812
0.0910213
0.0879712
0.0859375
0.101074
0.100844
0.0856908
0.0879036
0.0911424
0.0942058
0.0932255
0.0907264
0.0876503
0.0854498
0.10058
0.100426
0.0852181
0.087503
0.0907511
0.093814
0.0933114
0.090304
0.0871126
0.0851744
0.100318
0.100216
0.0849759
0.0863864
0.089278
0.0916117
0.0920759
0.0891107
0.086098
0.0846814
0.100218
0.0999458
0.0842045
0.0857365
0.0886589
0.0910674
0.0917117
0.088687