/*--------------------------------*- C++ -*----------------------------------*\
| =========                 |                                                 |
| \\      /  F ield         | OpenFOAM: The Open Source CFD Toolbox           |
|  \\    /   O peration     | Version:  v2006                                 |
|   \\  /    A nd           | Website:  www.openfoam.com                      |
|    \\/     M anipulation  |                                                 |
\*---------------------------------------------------------------------------*/
FoamFile
{
    version     2.0;
    format      ascii;
    class       volScalarField;
    location    "0.036";
    object      alphat;
}
// * * * * * * * * * * * * * * * * * * * * * * * * * * * * * * * * * * * * * //

dimensions      [1 -1 -1 0 0 0 0];


internalField   nonuniform List<scalar> 
24416
(
14.8448
14.4053
61.6481
65.5289
64.8991
77.1594
88.993
125.917
179.44
291.131
457.719
638.512
691.419
573.039
375.209
367.249
201.33
29.1851
7.21965
2.95733
1.72855
1.24929
1.01736
0.889685
0.812965
0.762388
0.725325
0.695324
0.669218
0.645588
0.623903
0.60402
0.585913
0.569551
0.554851
0.541682
0.529887
0.519297
0.509753
0.501114
0.493259
0.486092
0.479535
0.473529
0.468029
0.463
0.458411
0.454241
0.450472
0.447088
0.444078
0.441432
0.439143
0.437205
0.435613
0.434365
0.433462
0.432904
0.432677
0.432787
0.433245
0.434058
0.435242
0.436799
0.438739
0.441079
0.443835
0.447032
0.450703
0.454895
0.45967
0.465105
0.471301
0.478374
0.486446
0.495616
0.505926
0.517305
0.529516
0.542123
0.554552
0.566277
0.577253
0.588658
0.604069
0.631481
0.687172
0.804756
1.06246
1.68198
3.43756
9.66975
38.1547
197.599
1395.4
956.39
193.945
48.744
15.8225
6.19292
2.2021
0.990366
0.636491
0.338355
0.215885
0.148228
0.0828752
0.0217592
0.00399569
0.000130539
0.00011422
0.00182725
0.00833648
0.00531457
0.00136652
0.000102808
9.35873e-05
0.00119319
0.00427596
0.0036432
0.00106511
8.75894e-05
8.25808e-05
0.00101792
0.00328297
0.00296361
0.000941524
7.87998e-05
7.56556e-05
0.000905117
0.00279337
0.00259184
0.000842943
7.24369e-05
6.99634e-05
0.000820299
0.00249399
0.00235327
0.000793792
6.78901e-05
6.64495e-05
0.000781705
0.00229957
0.00220048
0.000761036
6.49388e-05
6.39299e-05
0.000752685
0.00216438
0.0020867
0.000735713
6.2785e-05
6.20454e-05
0.000729656
0.00206087
0.00199606
0.00071527
6.11486e-05
6.05773e-05
0.000710417
0.00197626
0.00192026
0.000698076
5.98528e-05
5.93918e-05
0.000693758
0.00190394
0.00185494
0.000683003
5.87862e-05
5.84013e-05
0.00067906
0.0018411
0.00179737
0.000669526
5.78803e-05
5.75492e-05
0.00066585
0.00178542
0.00174588
0.000657256
5.70898e-05
5.67982e-05
0.000653816
0.00173544
0.0016993
0.000645973
5.63851e-05
5.61232e-05
0.000642742
0.00169007
0.00165677
0.000635519
5.57454e-05
5.55072e-05
0.000632505
0.00164857
0.00161767
0.000625774
5.51599e-05
5.49406e-05
0.000622943
0.00161032
0.00158147
0.000616628
5.46164e-05
5.44121e-05
0.000613962
0.00157486
0.00154782
0.000608021
5.41073e-05
5.39156e-05
0.000605518
0.00154186
0.00151642
0.000599905
5.36276e-05
5.34467e-05
0.000597547
0.00151103
0.00148702
0.000592228
5.31733e-05
5.30018e-05
0.000590004
0.00148214
0.00145942
0.00058495
5.27413e-05
5.25779e-05
0.00058285
0.00145499
0.00143345
0.000578037
5.23288e-05
5.21726e-05
0.000576054
0.00142942
0.00140896
0.000571462
5.19339e-05
5.17843e-05
0.000569585
0.0014053
0.00138581
0.000565196
5.15549e-05
5.14111e-05
0.000563418
0.0013825
0.00136392
0.000559218
5.11902e-05
5.10516e-05
0.000557536
0.00136093
0.00134321
0.000553514
5.08386e-05
5.07049e-05
0.000551924
0.00134051
0.00132354
0.000548069
5.0499e-05
5.03698e-05
0.000546564
0.00132114
0.00130486
0.000542862
5.01705e-05
5.00455e-05
0.000541437
0.00130272
0.00128707
0.000537874
4.98523e-05
4.97311e-05
0.000536521
0.00128517
0.00127012
0.000533086
4.95433e-05
4.94255e-05
0.000531801
0.00126844
0.00125393
0.000528482
4.92427e-05
4.9128e-05
0.000527259
0.00125244
0.00123843
0.000524045
4.89497e-05
4.88378e-05
0.000522881
0.00123712
0.00122357
0.000519763
4.86634e-05
4.85542e-05
0.000518652
0.00122243
0.00120933
0.000515623
4.83834e-05
4.82764e-05
0.000514563
0.00120834
0.00119565
0.000511616
4.81087e-05
4.80038e-05
0.000510606
0.0011948
0.00118249
0.000507733
4.7839e-05
4.77359e-05
0.000506766
0.00118177
0.00116981
0.000503961
4.75736e-05
4.74722e-05
0.000503036
0.00116921
0.00115757
0.000500289
4.73121e-05
4.72121e-05
0.0004994
0.00115707
0.00114574
0.000496706
4.70538e-05
4.6955e-05
0.000495852
0.00114533
0.00113429
0.000493206
4.67982e-05
4.67004e-05
0.000492385
0.00113396
0.00112318
0.00048978
4.65449e-05
4.64479e-05
0.000488989
0.00112293
0.00111239
0.000486418
4.62932e-05
4.61969e-05
0.000485655
0.0011122
0.00110188
0.000483113
4.60428e-05
4.5947e-05
0.000482373
0.00110175
0.00109163
0.000479854
4.57932e-05
4.56976e-05
0.000479137
0.00109155
0.00108162
0.000476637
4.55438e-05
4.54483e-05
0.00047594
0.00108159
0.00107185
0.000473456
4.52942e-05
4.51986e-05
0.000472778
0.00107185
0.00106228
0.000470306
4.5044e-05
4.49482e-05
0.000469647
0.00106232
0.0010529
0.000467182
4.47928e-05
4.46966e-05
0.000466539
0.00105298
0.00104371
0.000464081
4.45403e-05
4.44435e-05
0.000463454
0.00104383
0.00103469
0.000461001
4.4286e-05
4.41886e-05
0.00046039
0.00103485
0.00102582
0.000457935
4.40297e-05
4.39316e-05
0.000457337
0.00102601
0.0010171
0.000454879
4.37711e-05
4.36719e-05
0.000454297
0.00101735
0.00100852
0.000451834
4.35097e-05
4.34095e-05
0.000451265
0.00100882
0.00100007
0.000448795
4.32452e-05
4.3144e-05
0.000448236
0.00100039
0.00099171
0.000445752
4.29775e-05
4.2875e-05
0.000445202
0.000992058
0.000983429
0.000442699
4.27059e-05
4.26019e-05
0.000442156
0.000983798
0.000975214
0.000439631
4.24299e-05
4.23243e-05
0.000439095
0.000975603
0.000967057
0.000436543
4.21491e-05
4.20418e-05
0.000436012
0.000967464
0.000958948
0.000433431
4.18631e-05
4.17538e-05
0.000432905
0.00095937
0.000950878
0.000430292
4.15714e-05
4.14599e-05
0.00042977
0.000951315
0.000942839
0.000427122
4.12735e-05
4.11597e-05
0.000426603
0.000943288
0.000934822
0.000423917
4.09691e-05
4.08529e-05
0.000423401
0.000935281
0.000926814
0.000420673
4.06578e-05
4.0539e-05
0.000420157
0.000927283
0.000918817
0.000417388
4.03392e-05
4.02174e-05
0.000416868
0.000919295
0.000910829
0.000414064
4.00127e-05
3.98878e-05
0.000413535
0.000911315
0.000902841
0.000410696
3.96779e-05
3.95499e-05
0.000410157
0.000903332
0.00089484
0.000407279
3.93344e-05
3.92031e-05
0.000406729
0.000895335
0.000886816
0.000403811
3.89819e-05
3.88471e-05
0.000403248
0.000887313
0.000878759
0.000400285
3.86197e-05
3.84813e-05
0.000399709
0.000879256
0.00087066
0.000396697
3.82475e-05
3.81052e-05
0.000396106
0.000871156
0.000862511
0.000393043
3.78646e-05
3.77182e-05
0.000392435
0.000863005
0.000854308
0.00038932
3.74705e-05
3.73199e-05
0.000388696
0.000854799
0.000846035
0.000385522
3.70646e-05
3.69097e-05
0.00038488
0.000846521
0.000837677
0.000381642
3.66465e-05
3.64871e-05
0.000380981
0.00083816
0.000829241
0.000377678
3.62155e-05
3.60513e-05
0.000376996
0.000829726
0.000820734
0.000373629
3.57709e-05
3.56017e-05
0.00037293
0.000821224
0.000812158
0.0003695
3.53124e-05
3.51382e-05
0.000368785
0.000812658
0.000803513
0.000365292
3.48397e-05
3.46604e-05
0.000364562
0.000804026
0.0007948
0.000361006
3.43525e-05
3.41682e-05
0.000360261
0.000795331
0.000786024
0.000356644
3.38506e-05
3.36613e-05
0.000355886
0.000786576
0.000777172
0.000352202
3.33338e-05
3.31396e-05
0.000351431
0.000777751
0.000768256
0.000347682
3.2802e-05
3.2603e-05
0.000346894
0.000768829
0.000759267
0.000343079
3.22548e-05
3.20516e-05
0.000342279
0.000759866
0.000750239
0.000338396
3.1692e-05
3.14859e-05
0.000337589
0.000750865
0.00074116
0.000333615
3.11134e-05
3.09077e-05
0.000332783
0.000741782
0.000731935
0.000328629
3.06784e-05
3.06033e-05
0.000327645
0.000732416
0.000722417
0.000323407
3.04364e-05
3.03908e-05
0.00032234
0.000722696
0.000712599
0.000318094
3.02366e-05
3.01963e-05
0.000317
0.000712707
0.000702593
0.000312796
3.00425e-05
3.00021e-05
0.000311714
0.000702594
0.000692514
0.000307571
2.98459e-05
2.98043e-05
0.000306537
0.000692487
0.000682489
0.000302473
2.9645e-05
2.96023e-05
0.000301505
0.000682507
0.000672652
0.000297537
2.94399e-05
2.93965e-05
0.000296647
0.000672781
0.000663114
0.000292785
2.92309e-05
2.9187e-05
0.000291992
0.000663419
0.000653978
0.00028825
2.90186e-05
2.89746e-05
0.000287569
0.000654519
0.000645335
0.000283957
2.88035e-05
2.876e-05
0.000283399
0.000646177
0.000637281
0.000279928
2.85867e-05
2.85441e-05
0.000279503
0.000638469
0.000629882
0.00027618
2.83692e-05
2.83281e-05
0.000275896
0.000631457
0.000623191
0.000272725
2.81521e-05
2.81129e-05
0.000272585
0.000625185
0.000617249
0.000269569
2.79364e-05
2.78992e-05
0.000269572
0.000619687
0.000612092
0.000266716
2.77227e-05
2.76881e-05
0.000266857
0.000614983
0.000607704
0.000264145
2.75117e-05
2.74795e-05
0.000264423
0.000611054
0.000604058
0.000261835
2.73037e-05
2.72737e-05
0.000262236
0.000607904
0.000601033
0.000259764
2.70988e-05
2.70702e-05
0.000260256
0.000605396
0.000598759
0.000257881
2.68953e-05
2.68675e-05
0.000258446
0.000603469
0.000597049
0.000256155
2.66929e-05
2.66653e-05
0.000256775
0.000602051
0.000595793
0.000254542
2.64911e-05
2.64631e-05
0.000255184
0.000601013
0.000594856
0.000252974
2.62886e-05
2.6259e-05
0.000253616
0.000600219
0.00059414
0.00025142
2.60845e-05
2.60527e-05
0.000252034
0.000599565
0.000593549
0.000249844
2.58785e-05
2.58443e-05
0.000250405
0.000598899
0.000593038
0.000248207
2.56707e-05
2.5634e-05
0.000248704
0.000598161
0.000592285
0.000246496
2.54621e-05
2.54227e-05
0.000246905
0.000597237
0.000591265
0.000244654
2.52528e-05
2.52085e-05
0.000244958
0.000596004
0.000589932
0.000242645
2.50424e-05
2.49932e-05
0.000242859
0.000594443
0.000588226
0.000240494
2.48315e-05
2.47786e-05
0.000240605
0.000592445
0.000586047
0.000238182
2.46208e-05
2.45651e-05
0.000238166
0.000589881
0.000583267
0.000235659
2.44096e-05
2.43517e-05
0.000235485
0.000586632
0.000579671
0.000232749
2.41892e-05
2.41396e-05
0.000232931
0.000583266
0.000573352
0.000228615
2.3943e-05
2.39068e-05
0.000229121
0.000576996
0.000568168
0.000225537
2.37748e-05
2.36729e-05
0.000224427
0.000569405
0.000559981
0.000220665
2.3667e-05
2.33699e-05
0.000217511
0.000555847
0.000556672
0.00021754
2.34726e-05
2.38445e-05
0.000227226
0.000577296
0.000598978
0.000234085
3.27024e-05
0.00162842
0.00305814
0.00475865
0.00681264
0.00863562
0.0112753
0.013698
0.0163964
0.0189967
0.0217974
0.0245735
0.0275017
0.0304293
0.0334684
0.0365101
0.0396266
0.0427351
0.0458792
0.0489905
0.0520891
0.0551126
0.0580608
0.0608714
0.0635269
0.0659622
0.0681431
0.0700049
0.0714962
0.0725619
0.0731409
0.0731722
0.0726115
0.0714096
0.0695336
0.066974
0.0637177
0.0598145
0.0552663
0.0502247
0.0446845
0.0389549
0.0329923
0.0272296
0.0214719
0.0173884
0.0121913
0.00832983
0.00497813
0.0023042
0.000733913
0.00024341
2.84691e-05
2.22324e-05
0.000206432
0.000627306
0.000565666
0.000182875
2.05353e-05
1.89089e-05
0.000158805
0.000493027
0.000470353
0.000151247
1.82394e-05
1.78506e-05
0.000148858
0.000468445
0.000449104
0.00014365
1.76945e-05
1.7678e-05
0.000146178
0.000463915
0.000456557
0.000143746
1.77152e-05
1.78564e-05
0.000148869
0.000473938
0.000463958
0.000144965
1.78219e-05
1.80096e-05
0.000150711
0.000481351
0.000475181
0.000148077
1.80291e-05
1.82293e-05
0.000154501
0.000493741
0.000483989
0.000150555
1.81929e-05
1.841e-05
0.0001568
0.000503069
0.000497313
0.000154116
1.84331e-05
1.8691e-05
0.00016112
0.000517269
0.000507258
0.000157034
1.85957e-05
1.88753e-05
0.000163918
0.000528074
0.000522381
0.000161157
1.89027e-05
1.91888e-05
0.00016878
0.000543863
0.000533469
0.000164529
1.90927e-05
1.94043e-05
0.00017206
0.000556118
0.000550377
0.0001692
1.94382e-05
1.97552e-05
0.000177494
0.000573545
0.000562702
0.000173045
1.96584e-05
2.00056e-05
0.00018127
0.000587274
0.000581408
0.000178285
2.00465e-05
2.04002e-05
0.000187306
0.000606329
0.000594882
0.000182626
2.0303e-05
2.06936e-05
0.000191637
0.0006216
0.000615595
0.000188509
2.07435e-05
2.11423e-05
0.000198356
0.000642572
0.000630327
0.000193409
2.10451e-05
2.14898e-05
0.000203332
0.000659689
0.000653424
0.000200029
2.155e-05
2.2002e-05
0.000210767
0.0006829
0.000669431
0.000205455
2.19022e-05
2.24101e-05
0.000216296
0.000702001
0.000694811
0.000212639
2.24785e-05
2.29561e-05
0.0002241
0.000727144
0.000711771
0.000218042
2.29338e-05
2.35143e-05
0.000229746
0.000748311
0.0007408
0.00022551
2.36182e-05
2.43135e-05
0.000238707
0.000779048
0.000768798
0.000232426
2.43742e-05
2.50788e-05
0.000249516
0.000818909
0.000814067
0.000246108
2.51262e-05
2.58863e-05
0.000268255
0.000872094
0.000856034
0.000261113
2.60441e-05
2.70119e-05
0.000280576
0.00090678
0.000895272
0.000274439
2.74842e-05
2.91535e-05
0.000286683
0.00093284
0.000912535
0.000281532
3.13457e-05
3.85066e-05
0.000312032
0.000951371
0.000921003
0.000368629
3.30486e-05
1.21049e-05
6.35445e-05
0.000278793
0.000766377
0.000224165
2.07047e-05
2.45298e-05
0.000207972
0.00074914
0.000942334
0.000246221
3.11157e-05
4.14136e-05
0.000298061
0.00120344
0.00224516
0.000462232
9.98619e-05
0.00019988
0.00134524
0.00339731
0.00398631
0.00148151
0.000252419
0.000309466
0.00216283
0.00522392
0.00524453
0.00226708
0.000320946
0.000338495
0.00210348
0.00453427
0.00559034
0.00257068
0.000413152
0.000520136
0.00313819
0.00657957
0.00768769
0.00379125
0.000632058
0.000790883
0.00462258
0.00697416
0.00658401
0.00568835
0.000940831
0.00111415
0.00587742
0.00607886
0.00601781
0.00557048
0.00124334
0.00153121
0.0049587
0.00562277
0.00532561
0.00439849
0.0018137
0.00212639
0.00421078
0.00470462
0.0042469
0.00371049
0.00238254
0.00244223
0.00345499
0.00439107
0.00422903
0.00355275
0.00276335
0.00256328
0.00342487
0.00420215
0.00479038
0.0033514
0.00280449
0.00249829
0.0033544
0.00519246
0.00505729
0.00300079
0.00268596
0.00223422
0.00240102
0.0038866
0.00346177
0.00215477
0.00253302
0.00151364
0.0018451
0.00264623
0.00281742
0.00179321
0.00145124
0.0010173
0.00179262
0.00280608
0.00181238
0.00142473
0.000852812
0.00064839
0.00115534
0.00166684
0.00143183
0.000973567
0.000575183
0.000418853
0.000738515
0.00099364
0.000970093
0.0006518
0.000368381
0.000300861
0.000566801
0.000879091
0.000625103
0.000446039
0.000232817
0.000186591
0.000398615
0.000663273
0.000587686
0.000364798
0.000148923
7.00031e-05
0.000171818
0.000333089
0.000373922
0.000169277
3.65376e-05
3.82802e-05
0.000138318
0.000312615
0.000128664
4.9506e-05
2.11925e-05
2.29879e-05
0.000136503
0.000221445
0.000204438
0.000117759
2.61525e-05
1.70413e-05
4.32261e-05
9.52906e-05
0.000167499
0.000105932
1.8665e-05
2.22801e-05
9.46783e-05
0.000157854
7.54019e-05
3.49846e-05
1.5796e-05
1.66526e-05
8.83397e-05
0.000143741
0.000133527
7.84681e-05
2.0447e-05
1.5653e-05
3.12147e-05
6.28306e-05
0.000114494
7.26193e-05
1.50568e-05
1.87112e-05
6.61883e-05
0.000110917
5.08843e-05
2.52709e-05
1.46826e-05
1.37522e-05
8.2466e-05
0.000100799
5.88669e-05
3.3238e-05
1.6862e-05
1.56536e-05
7.49917e-05
0.000128133
0.000118781
6.71921e-05
1.98258e-05
1.60392e-05
2.99943e-05
5.52218e-05
0.000128927
7.48323e-05
1.49689e-05
1.93944e-05
6.70169e-05
0.000119968
5.40695e-05
2.90771e-05
1.58119e-05
1.48514e-05
7.20066e-05
0.000123708
0.000115655
6.62436e-05
1.90976e-05
1.55536e-05
2.5983e-05
5.05913e-05
9.49414e-05
8.20552e-05
1.41037e-05
1.72484e-05
3.41262e-05
5.56702e-05
0.000118968
6.86479e-05
1.54815e-05
1.97026e-05
6.29196e-05
0.000109658
4.9255e-05
2.69327e-05
1.57907e-05
1.4037e-05
7.7284e-05
8.99108e-05
5.4839e-05
3.53947e-05
1.77055e-05
1.57755e-05
6.73996e-05
0.000108984
0.000100817
5.9417e-05
2.00268e-05
1.62842e-05
3.135e-05
5.06204e-05
9.53364e-05
6.39812e-05
1.46214e-05
1.91913e-05
5.53602e-05
9.09319e-05
4.37555e-05
2.76419e-05
1.56106e-05
1.30464e-05
6.38368e-05
7.85092e-05
4.7256e-05
3.23898e-05
1.735e-05
1.45452e-05
6.56331e-05
8.93267e-05
5.43343e-05
3.60471e-05
1.8341e-05
1.59563e-05
6.52374e-05
0.000104587
9.35315e-05
5.62086e-05
1.99825e-05
1.60906e-05
3.12188e-05
4.69481e-05
8.22193e-05
6.36448e-05
1.42051e-05
1.79065e-05
3.71234e-05
5.18934e-05
9.90517e-05
6.42507e-05
1.54819e-05
1.98215e-05
5.61828e-05
8.75493e-05
4.55784e-05
3.17817e-05
1.60877e-05
1.39785e-05
5.95483e-05
7.28557e-05
4.80895e-05
3.73707e-05
1.76404e-05
1.43097e-05
6.28139e-05
8.25652e-05
5.22373e-05
3.75739e-05
1.83995e-05
1.57758e-05
6.19609e-05
9.82334e-05
8.61367e-05
5.43303e-05
2.02376e-05
1.63104e-05
3.36737e-05
4.58684e-05
7.23582e-05
6.0777e-05
1.33544e-05
1.81453e-05
3.83727e-05
4.82562e-05
8.3468e-05
6.22694e-05
1.48708e-05
1.86795e-05
3.96243e-05
5.36223e-05
9.82127e-05
6.28343e-05
1.62322e-05
2.04496e-05
5.5463e-05
8.61904e-05
4.65512e-05
3.52356e-05
1.63566e-05
1.3955e-05
6.13179e-05
7.01977e-05
4.80399e-05
4.00903e-05
1.80516e-05
1.46297e-05
6.02544e-05
7.77409e-05
5.16767e-05
4.02599e-05
1.88607e-05
1.59819e-05
6.04836e-05
9.32449e-05
8.19545e-05
5.43752e-05
2.0444e-05
1.65005e-05
3.64578e-05
4.56591e-05
6.85158e-05
6.01099e-05
1.40672e-05
1.82221e-05
4.09889e-05
4.75888e-05
7.59007e-05
5.92535e-05
1.46023e-05
1.87201e-05
4.2733e-05
5.17663e-05
8.22711e-05
6.22003e-05
1.49692e-05
1.90101e-05
4.36936e-05
5.52784e-05
9.63364e-05
6.28445e-05
1.61223e-05
2.06366e-05
5.62113e-05
8.41404e-05
4.73573e-05
3.86849e-05
1.65234e-05
1.38804e-05
6.27397e-05
6.9507e-05
4.94226e-05
4.37161e-05
1.89159e-05
1.53785e-05
5.97972e-05
7.70001e-05
5.29511e-05
4.42236e-05
1.89187e-05
1.51567e-05
6.00587e-05
8.01943e-05
5.48947e-05
4.53211e-05
1.89568e-05
1.54085e-05
6.3693e-05
8.3516e-05
5.73362e-05
4.74562e-05
1.93215e-05
1.64106e-05
6.50174e-05
9.7194e-05
8.56726e-05
5.92285e-05
2.09251e-05
1.6899e-05
4.23827e-05
4.9977e-05
7.22956e-05
6.48746e-05
1.43037e-05
1.89646e-05
4.6525e-05
5.21232e-05
7.92076e-05
6.26814e-05
1.52766e-05
1.92549e-05
4.74291e-05
5.58452e-05
8.29225e-05
6.39013e-05
1.5382e-05
1.93005e-05
4.92796e-05
5.83169e-05
8.66081e-05
6.72197e-05
1.57102e-05
1.9509e-05
5.17706e-05
6.0339e-05
9.95776e-05
6.74545e-05
1.64194e-05
2.09878e-05
6.15329e-05
8.75427e-05
5.21968e-05
4.55791e-05
1.69651e-05
1.43224e-05
6.79591e-05
7.424e-05
5.46302e-05
4.96414e-05
1.94125e-05
1.56587e-05
6.3591e-05
7.98361e-05
5.69279e-05
4.93252e-05
1.9414e-05
1.55704e-05
6.28861e-05
8.10938e-05
5.84962e-05
5.08805e-05
1.95174e-05
1.59181e-05
6.63773e-05
8.40563e-05
6.00503e-05
5.40346e-05
1.97674e-05
1.66289e-05
6.7681e-05
9.76723e-05
8.66856e-05
6.26286e-05
2.1213e-05
1.73517e-05
4.75135e-05
5.32025e-05
7.57423e-05
6.80553e-05
1.44618e-05
1.94337e-05
5.1193e-05
5.6056e-05
8.03848e-05
6.475e-05
1.57507e-05
1.96529e-05
5.17143e-05
5.84477e-05
8.26341e-05
6.51876e-05
1.58287e-05
1.96662e-05
5.3488e-05
6.01902e-05
8.60385e-05
6.86808e-05
1.60117e-05
1.987e-05
5.68635e-05
6.21151e-05
9.86835e-05
6.93143e-05
1.66564e-05
2.12518e-05
6.43189e-05
8.77087e-05
5.47711e-05
4.9551e-05
1.73495e-05
1.47341e-05
6.92796e-05
7.67089e-05
5.72391e-05
5.24471e-05
1.93948e-05
1.53872e-05
6.60998e-05
8.04839e-05
5.97876e-05
5.3366e-05
1.97802e-05
1.57095e-05
6.66362e-05
8.22287e-05
6.10664e-05
5.49973e-05
1.97304e-05
1.58353e-05
6.84732e-05
8.47546e-05
6.23547e-05
5.84197e-05
2.00598e-05
1.68574e-05
6.95044e-05
9.77172e-05
8.73938e-05
6.52663e-05
2.15731e-05
1.75258e-05
5.23537e-05
5.61069e-05
7.71349e-05
7.20352e-05
1.45836e-05
1.95408e-05
5.54716e-05
5.85758e-05
8.25158e-05
6.75796e-05
1.57155e-05
1.9865e-05
5.5981e-05
6.14044e-05
8.50396e-05
6.851e-05
1.58956e-05
1.98614e-05
5.82829e-05
6.35955e-05
8.84417e-05
7.25813e-05
1.58346e-05
1.99494e-05
6.16365e-05
6.57129e-05
0.000101109
7.25688e-05
1.67556e-05
2.15556e-05
6.82919e-05
9.06737e-05
5.85907e-05
5.53506e-05
1.75597e-05
1.49873e-05
7.48995e-05
8.0738e-05
6.18706e-05
5.82988e-05
1.98483e-05
1.60509e-05
7.1066e-05
8.54268e-05
6.44826e-05
5.93346e-05
2.01052e-05
1.5944e-05
7.2003e-05
8.80036e-05
6.5769e-05
6.24107e-05
2.01653e-05
1.71173e-05
7.25551e-05
9.99945e-05
9.00245e-05
6.87559e-05
2.19395e-05
1.8163e-05
5.74118e-05
6.01446e-05
8.25947e-05
7.58846e-05
1.53181e-05
2.01528e-05
6.08161e-05
6.39361e-05
8.82227e-05
7.35861e-05
1.64204e-05
2.02283e-05
6.22928e-05
6.70889e-05
9.14763e-05
7.53715e-05
1.61568e-05
2.0312e-05
6.53812e-05
6.87974e-05
0.000103828
7.55996e-05
1.7247e-05
2.23076e-05
7.20629e-05
9.41355e-05
6.30744e-05
5.9764e-05
1.8192e-05
1.51414e-05
7.90695e-05
8.52526e-05
6.66365e-05
6.34882e-05
2.01315e-05
1.60688e-05
7.77537e-05
9.1546e-05
6.88977e-05
6.58817e-05
2.05643e-05
1.73479e-05
7.53628e-05
0.000103596
9.41221e-05
7.22659e-05
2.2797e-05
1.83742e-05
6.14293e-05
6.41004e-05
8.58146e-05
7.96504e-05
1.55085e-05
2.02589e-05
6.50985e-05
6.75177e-05
9.29774e-05
7.84444e-05
1.62468e-05
2.07476e-05
6.81081e-05
7.06304e-05
0.000105362
7.7156e-05
1.74845e-05
2.28662e-05
7.39521e-05
9.57944e-05
6.57883e-05
6.29731e-05
1.86511e-05
1.56802e-05
8.11503e-05
8.7307e-05
6.95623e-05
6.67448e-05
2.04822e-05
1.63069e-05
8.00151e-05
9.41364e-05
7.18825e-05
6.96958e-05
2.09372e-05
1.75653e-05
7.86883e-05
0.000107246
9.77577e-05
7.57749e-05
2.33712e-05
1.91304e-05
6.63193e-05
6.84724e-05
9.07886e-05
8.32289e-05
1.59534e-05
2.13233e-05
7.12605e-05
7.16068e-05
0.000106272
8.08814e-05
1.7845e-05
2.33489e-05
7.79536e-05
9.74037e-05
6.87774e-05
6.60999e-05
1.90529e-05
1.60017e-05
8.252e-05
8.96614e-05
7.14728e-05
7.14827e-05
2.17007e-05
1.82458e-05
8.07237e-05
0.000104723
9.66888e-05
7.85579e-05
2.43164e-05
1.9374e-05
6.89643e-05
6.99771e-05
9.08539e-05
8.54493e-05
1.58035e-05
2.16543e-05
7.43347e-05
7.31579e-05
0.000106249
8.08491e-05
1.84923e-05
2.47242e-05
7.93094e-05
9.86738e-05
7.16412e-05
7.02901e-05
1.99503e-05
1.62003e-05
8.64174e-05
9.2471e-05
7.50676e-05
7.70511e-05
2.19543e-05
1.84502e-05
8.43725e-05
0.000109853
0.000102083
8.25285e-05
2.5171e-05
2.15623e-05
7.80013e-05
7.55869e-05
0.000106025
8.95973e-05
1.86263e-05
2.52781e-05
8.72372e-05
0.000100966
7.57596e-05
7.75675e-05
2.14998e-05
1.82937e-05
8.78969e-05
0.000104569
0.000100043
8.60524e-05
2.58497e-05
2.23805e-05
7.90516e-05
7.63505e-05
0.000104161
8.87898e-05
1.91583e-05
2.61791e-05
8.56784e-05
9.95789e-05
7.5187e-05
7.86765e-05
2.17633e-05
1.90171e-05
8.71347e-05
0.000102809
9.81918e-05
8.51072e-05
2.69763e-05
2.31053e-05
8.13934e-05
7.67048e-05
0.000103353
8.876e-05
1.92513e-05
2.60463e-05
8.65607e-05
9.85674e-05
7.71075e-05
8.2447e-05
2.31755e-05
2.03067e-05
9.02785e-05
0.000104892
0.000101325
8.80598e-05
2.81332e-05
2.40557e-05
8.72472e-05
8.01474e-05
0.000108921
9.31311e-05
2.07528e-05
3.11843e-05
0.000100711
0.000103832
9.73802e-05
9.48881e-05
2.84539e-05
2.52564e-05
8.8099e-05
8.14965e-05
0.000108783
9.31256e-05
2.1858e-05
3.39186e-05
9.58708e-05
0.000104254
0.00010024
9.63016e-05
3.26822e-05
3.4425e-05
9.6633e-05
9.42729e-05
9.42153e-05
8.99973e-05
3.5394e-05
3.81045e-05
9.11592e-05
8.95679e-05
8.96866e-05
8.08412e-05
3.64994e-05
3.34838e-05
8.80362e-05
7.91188e-05
0.00010195
9.08824e-05
2.94564e-05
4.6828e-05
9.51355e-05
0.000101037
0.000100673
0.000104678
5.18122e-05
5.47396e-05
0.000111669
0.000102073
0.000103324
0.000118215
5.73405e-05
5.81553e-05
0.000125073
0.00010509
0.000106895
0.000131596
5.74508e-05
5.64465e-05
0.000138631
0.000109443
0.000112509
0.00014518
5.47288e-05
5.28363e-05
0.000152461
0.00011588
0.000120145
0.000159111
5.0833e-05
4.8839e-05
0.000166716
0.000124445
0.000130313
0.00017077
4.69155e-05
4.51074e-05
0.000174219
0.000135625
0.000142699
0.00017697
4.34213e-05
4.1866e-05
0.000179263
0.000150495
0.000160149
0.000180749
4.04325e-05
3.91156e-05
0.000182381
0.0001696
0.00017941
0.000184191
3.79167e-05
3.68302e-05
0.000186202
0.000188952
0.000198868
0.000188443
3.58566e-05
3.49875e-05
0.000190846
0.000208487
0.000218531
0.000193471
3.42213e-05
3.35474e-05
0.000196237
0.000228205
0.000238336
0.000199183
3.29622e-05
3.24571e-05
0.00020235
0.000246299
0.00025429
0.000205631
3.20298e-05
3.16711e-05
0.000209037
0.000262001
0.000270007
0.000212564
3.13776e-05
3.11409e-05
0.000216241
0.000277746
0.000285562
0.000219941
3.09565e-05
3.08169e-05
0.000223697
0.000293051
0.000300824
0.000227488
3.07163e-05
3.06504e-05
0.000231357
0.000308214
0.000315683
0.000235111
3.06108e-05
3.05959e-05
0.000238911
0.000322705
0.000329992
0.000242623
3.05992e-05
3.06189e-05
0.000246346
0.000336742
0.000343602
0.000249873
3.06478e-05
3.06863e-05
0.000253339
0.000349912
0.000356468
0.000256638
3.07271e-05
3.07732e-05
0.000259925
0.000362385
0.000368448
0.00026294
3.08165e-05
3.08615e-05
0.000265871
0.000373926
0.000379639
0.000268578
3.09001e-05
3.0939e-05
0.000271266
0.000384698
0.000389914
0.000273638
3.09691e-05
3.09979e-05
0.00027593
0.000394567
0.000399391
0.000277975
3.10165e-05
3.10343e-05
0.000280006
0.000403647
0.000407989
0.000281724
3.10404e-05
3.10471e-05
0.000283356
0.000412006
0.000416015
0.000284794
3.10389e-05
3.10387e-05
0.000286195
0.000419719
0.000423443
0.000287361
3.10178e-05
3.10102e-05
0.000288442
0.00042697
0.000430599
0.000289424
3.09826e-05
3.09685e-05
0.000290277
0.000433846
0.0004374
0.000291059
3.09342e-05
3.09146e-05
0.00029173
0.000440466
0.000443982
0.00029234
3.08742e-05
3.08512e-05
0.000292873
0.000446957
0.000450367
0.000293339
3.08072e-05
3.07825e-05
0.000293768
0.000453315
0.0004567
0.000294123
3.07357e-05
3.07111e-05
0.000294485
0.000459662
0.000462994
0.000294757
3.06642e-05
3.06404e-05
0.000295082
0.000465995
0.000469357
0.000295304
3.05943e-05
3.05724e-05
0.000295625
0.000472499
0.000475822
0.000295801
3.05286e-05
3.05103e-05
0.000296126
0.000479051
0.000482424
0.000296254
3.04687e-05
3.04541e-05
0.000296685
0.000485731
0.000488984
0.000296774
3.04187e-05
3.04049e-05
0.000297127
0.00049237
0.000495636
0.000297217
3.03753e-05
3.03642e-05
0.00029764
0.000499033
0.000500899
0.000297694
3.0342e-05
3.03323e-05
0.000298073
0.000503361
0.000505024
0.000298165
3.0318e-05
3.03111e-05
0.00029853
0.000507391
0.000508926
0.000298604
3.03017e-05
3.02959e-05
0.000298943
0.000511227
0.000512666
0.00029899
3.02879e-05
3.02871e-05
0.000299381
0.0005149
0.000516303
0.000299388
3.02801e-05
3.02828e-05
0.000299708
0.000518472
0.000519849
0.000299759
3.02771e-05
3.02834e-05
0.000300064
0.000521952
0.000523336
0.000300113
3.0279e-05
3.02888e-05
0.000300403
0.000525392
0.000526794
0.000300473
3.02855e-05
3.02988e-05
0.000300755
0.000528801
0.000530231
0.000300834
3.0297e-05
3.03138e-05
0.000301115
0.000532198
0.000533647
0.000301225
3.03139e-05
3.03334e-05
0.000301509
0.000535566
0.000537038
0.000301638
3.03371e-05
3.03586e-05
0.000301931
0.000538916
0.000540393
0.000302096
3.03658e-05
3.03893e-05
0.000302397
0.000542222
0.000543711
0.000302581
3.04001e-05
3.04256e-05
0.000302889
0.000545497
0.000546975
0.000303109
3.04397e-05
3.04669e-05
0.00030342
0.000548708
0.00055018
0.000303657
3.04843e-05
3.05131e-05
0.000303964
0.000551868
0.000553311
0.000304234
3.05332e-05
3.05634e-05
0.000304539
0.000554945
0.000556367
0.00030482
3.0586e-05
3.06175e-05
0.000305116
0.00055796
0.000559312
0.000305402
3.06417e-05
3.06752e-05
0.00030575
0.000560852
0.000562191
0.000306013
3.07007e-05
3.07352e-05
0.000306307
0.00056366
0.000564922
0.000306572
3.07612e-05
3.0797e-05
0.00030693
0.000566351
0.000567603
0.000307171
3.08242e-05
3.08603e-05
0.000307466
0.000568953
0.000570144
0.00030773
3.08879e-05
3.09245e-05
0.000308021
0.000571433
0.000572574
0.000308266
3.09525e-05
3.09893e-05
0.000308548
0.00057381
0.000574881
0.00030878
3.10175e-05
3.10543e-05
0.00030905
0.000576054
0.00057707
0.000309265
3.10827e-05
3.11192e-05
0.000309511
0.000578196
0.000579124
0.0003097
3.11472e-05
3.1184e-05
0.00030999
0.000580201
0.000581084
0.000310138
3.12119e-05
3.12477e-05
0.000310351
0.000582091
0.000582899
0.000310502
3.1275e-05
3.1311e-05
0.000310761
0.000583849
0.000584615
0.000310866
3.13379e-05
3.13728e-05
0.000311054
0.00058548
0.000586188
0.000311176
3.13992e-05
3.14335e-05
0.000311346
0.000586996
0.000587639
0.000311447
3.14594e-05
3.14928e-05
0.000311595
0.000588401
0.000588966
0.000311679
3.15182e-05
3.15507e-05
0.000311807
0.000589681
0.000590172
0.000311872
3.15755e-05
3.1607e-05
0.000311972
0.000590865
0.000591263
0.000312006
3.16309e-05
3.1662e-05
0.000312148
0.000591917
0.000592267
0.000312141
3.16852e-05
3.1715e-05
0.000312205
0.00059287
0.000593148
0.000312201
3.17372e-05
3.17665e-05
0.000312306
0.000593713
0.000593948
0.000312266
3.17882e-05
3.18161e-05
0.000312296
0.000594462
0.000594643
0.000312253
3.18369e-05
3.1864e-05
0.000312305
0.000595099
0.000595239
0.000312267
3.18844e-05
3.19105e-05
0.000312264
0.000595673
0.000595743
0.000312214
3.193e-05
3.19553e-05
0.000312198
0.00059616
0.000596142
0.000312133
3.19739e-05
3.19984e-05
0.00031212
0.0005966
0.000596533
0.00031199
3.2016e-05
3.20397e-05
0.000312007
0.000596863
0.000596826
0.000311887
3.2057e-05
3.20795e-05
0.00031183
0.000597097
0.00059703
0.000311734
3.20962e-05
3.21179e-05
0.000311667
0.000597272
0.000597159
0.000311559
3.21339e-05
3.21549e-05
0.000311477
0.000597395
0.00059723
0.000311339
3.217e-05
3.21905e-05
0.000311309
0.000597435
0.000597263
0.000311152
3.22052e-05
3.22246e-05
0.000311053
0.000597414
0.000597225
0.000310923
3.22388e-05
3.22574e-05
0.000310818
0.000597348
0.000597132
0.000310679
3.22711e-05
3.2289e-05
0.000310565
0.000597237
0.000596992
0.000310422
3.23022e-05
3.23193e-05
0.000310303
0.000597071
0.000596804
0.000310151
3.23323e-05
3.23483e-05
0.000310024
0.000596857
0.000596564
0.000309682
3.23599e-05
3.23772e-05
0.000309762
0.000596613
0.000596271
0.000309609
3.23894e-05
3.24058e-05
0.000309647
0.000596351
0.000595969
0.000309239
3.24146e-05
3.24297e-05
0.000309159
0.000596035
0.000595632
0.000308963
3.24399e-05
3.24543e-05
0.000308819
0.000595685
0.000595262
0.00030863
3.2464e-05
3.24783e-05
0.000308544
0.000595306
0.000594876
0.000308344
3.24879e-05
3.25014e-05
0.000308192
0.000594906
0.000594447
0.000307999
3.25104e-05
3.25237e-05
0.000307907
0.000594473
0.000594025
0.000307704
3.25326e-05
3.25452e-05
0.000307549
0.000594031
0.000593539
0.000307352
3.25535e-05
3.25658e-05
0.000307258
0.00059355
0.000593089
0.000307053
3.25741e-05
3.25857e-05
0.000306895
0.000593058
0.000592555
0.000306698
3.25934e-05
3.26049e-05
0.000306601
0.000592553
0.000592083
0.000306397
3.26126e-05
3.26234e-05
0.000306238
0.000592017