/*--------------------------------*- C++ -*----------------------------------*\
| =========                 |                                                 |
| \\      /  F ield         | OpenFOAM: The Open Source CFD Toolbox           |
|  \\    /   O peration     | Version:  v2006                                 |
|   \\  /    A nd           | Website:  www.openfoam.com                      |
|    \\/     M anipulation  |                                                 |
\*---------------------------------------------------------------------------*/
FoamFile
{
    version     2.0;
    format      ascii;
    class       volScalarField;
    location    "0.005";
    object      omega;
}
// * * * * * * * * * * * * * * * * * * * * * * * * * * * * * * * * * * * * * //

dimensions      [0 0 -1 0 0 0 0];


internalField   nonuniform List<scalar> 
31566
(
4.32836
4.35841
3.49985
5.7402
8.17453
11.3211
13.0376
15.1555
15.9946
17.4574
18.6882
20.4512
22.2885
24.3584
26.5688
28.9235
31.4145
34.0547
36.8691
39.9097
43.3932
47.1404
51.0465
55.2179
59.6503
64.3838
69.4733
74.6483
79.8499
85.25
90.957
96.935
103.066
109.409
115.853
122.313
128.773
135.167
141.467
147.653
153.698
159.553
165.271
170.919
176.393
181.336
186.139
190.747
195.002
198.795
202.038
204.68
206.653
207.937
208.521
208.4
207.581
206.026
203.735
200.703
196.909
192.319
186.891
180.539
173.107
164.298
153.636
140.672
125.774
110.983
98.5036
89.6675
84.0647
79.7964
74.531
64.9481
51.1376
38.4144
29.3741
28.0659
31.9332
35.3383
35.0602
31.1039
27.533
28.0024
32.3967
35.0762
38.2308
39.3633
40.0756
40.8214
40.9237
40.1073
41.1336
43.4769
44.9244
44.0585
45.6575
53.9971
62.4211
161.195
269.454
174.119
331.123
479.119
836.744
3771.92
23023.6
314934
334008
54443.6
11167.4
16856.3
69101.3
344663
344904
74574.5
18823.8
19718.5
78483.3
338751
333962
79453.2
20801.9
22674.1
80676.7
328086
326601
80638.7
24423.3
25949.2
81660
328039
329940
81229.8
26690.9
26998
80311.2
328995
328283
79230
26935.5
26872
78010.3
327728
327344
77037.5
26768.9
26877.5
76339.4
327041
326818
76069.1
27089.9
27739.6
75868.9
326564
326355
75738.8
28100.8
28652
75475.2
326145
326006
75171.7
28879.1
29207
74865.9
325875
325781
74610.2
29271.7
29408.8
74420.3
325658
325526
74222.4
29381
29410.1
74044.4
325354
325176
73800.7
29239.7
29184.9
73565.4
324970
324773
73182
28878.1
28808.9
72848.1
324570
324418
72445.2
28541.6
28536.2
72110.7
324276
324176
71728.4
28385.1
28437.3
71414
324079
324027
71095.6
28383.8
28530.9
70864.7
323968
323959
70630.7
28528.4
28741.3
70462.4
323911
323904
70262
28738.3
28926.5
70119.8
323850
323835
69936.4
28911.4
29066.9
69804.4
323772
323746
69619.1
29037.9
29157.3
69486.4
323672
323632
69289.5
29113.9
29199.6
69147.3
323550
323497
68937.5
29144.1
29205.9
68798.3
323403
323328
68584.3
29139.7
29188.9
68437
323225
323141
68202
29099.6
29141.3
68050.9
323030
322935
67803.7
29036.4
29069.9
67628.1
322819
322723
67381.8
28956.6
28990.8
67208.7
322593
322487
66980.9
28887.7
28925
66812.1
322343
322232
66573.5
28828.5
28867
66411.1
322078
321957
66184.5
28783.9
28827
66033
321782
321646
65814.2
28763.8
28814.7
65665
321447
321295
65432.5
28768.2
28836.2
65290.6
321079
320916
65049.1
28799.7
28875.7
64914.2
320682
320511
64599.7
28834.6
28900.6
64448
320265
320093
64022.8
28846.9
28886.9
63787.9
319847
319708
63161.8
28774.5
28773.9
62770.5
319515
319454
61904.2
28575.4
28523.9
61348.7
319357
319406
60349.5
28246.2
28170.4
59685.9
319432
319593
58734.4
27851.8
27776.9
58062.3
319737
319987
57196.2
27432.7
27356.5
56589
320221
320522
55850.5
26986.3
26945.4
55464.5
320801
321108
54872.9
26574.6
26510.4
54668.6
321378
321635
54060
25998.6
25797.3
53893.9
321815
321983
53320.3
25088.2
24871
53366.2
322088
322209
52899.1
24182.2
23983.9
53114.3
322277
322368
52513.8
23281
23038
52720.4
322418
322490
51864.9
22287.4
22017.9
51972.8
322536
322592
51009.2
21276.3
20991.4
51066
322637
322679
50133.6
20311.5
20011.3
50168.5
322722
322755
49310.4
19393.7
19081.7
49357.1
322799
322826
48565
18500.7
18186.1
48626.3
322877
322902
47906.9
17635.8
17328.2
47972.3
322963
322993
47317.3
16813.4
16541.5
47403.2
323069
323114
46825.7
16080.8
15876.7
46952.8
323210
323277
46481.1
15492.6
15362.9
46651.3
323399
323503
46265.8
15026.9
14952.3
46468.8
323672
323855
46216.8
14662.8
14628.1
46477.1
324125
324370
46339.3
14369.2
14359
46657.9
324673
324963
46619.7
14121.6
14123.8
46998
325295
325628
47056.2
13904.2
13907.6
47517.9
325991
326367
47658.2
13702.8
13709
48209.9
326768
327187
48423.2
13519
13532.8
49039.9
327633
328102
49358.9
13380.5
13414.1
50162.1
328599
329122
50780.9
13331.9
13397.3
52119.1
329668
330245
53098.6
13348.2
13441.3
54604.1
330848
331480
55702
13422
13560
57232.9
332132
332810
58412.4
13563.3
13750
59980.6
333505
334222
61233
13782.2
14021.3
62845.3
334949
335686
64164.4
14083.4
14383.2
65815.2
336423
337161
67204.1
14480.8
14849.8
68892.1
337886
338596
70338.1
14977.7
15411.1
72045.7
339280
339938
73531.6
15571.1
16076.4
75265.5
340551
341110
76793.2
16275.1
16865.5
78538.5
341601
342013
80091.4
17106.2
17791.3
81808.9
342348
342597
83355.7
18076.8
18864.3
85081.2
342758
342816
86784
19207
20115
88583
342770
342634
90203.5
20568.8
21709.8
91660
342415
342127
93097.9
22372.2
23789
94609.9
341774
341347
96137.6
24586
25966.8
97710.3
340852
340302
99341
26921.4
28582.5
100943
339707
339052
102527
29700.9
31407.1
104007
338350
337597
105541
32476.4
34064
106914
336827
336024
108252
35086.9
36552.6
109188
335220
334403
110096
37517.3
38846.7
110660
333598
332794
111287
39698.8
40865.6
111571
332011
331245
111911
41595.1
42665.1
111836
330541
329902
111661
43265
44014.5
111092
329341
328867
110272
44488.9
44442.7
108260
328485
328450
106190
43979.6
43105.1
102286
328753
329306
98985.5
41587.4
38592.5
93307.7
330367
331387
89689
36254.7
31786.7
82573.7
333218
334941
79229.4
29078.7
24784.8
71634.4
338013
340871
69986.4
23133.7
21000.7
68291.8
344678
348338
71111.8
20973.2
21120.6
70684.8
352112
355792
74439.1
22079.4
23032.3
71228.8
358818
360993
77575.7
25766.9
27309.8
77094.7
361310
360712
88756.7
32473.3
34336.1
90218.5
358642
355263
101848
40662.2
41935.7
99488.5
351400
347900
104642
46404.6
46312.3
98749.1
344132
341449
100748
47942.9
47049.8
93172.6
338620
337107
93267.3
47806.3
47080.5
85600.1
335425
335192
80615.2
47380.2
47950.9
71591.3
335811
337598
70613.1
50444
56083.5
72953.8
342661
345992
78672.9
61877.7
68595.2
83544.4
349015
349119
88804
75208.8
82211.1
92644.9
348104
344375
100399
88650.2
93152.6
101299
338403
333100
102622
95078.1
95556.9
100930
329627
327516
102535
94769.9
93111.2
104844
325945
324781
110603
92429.1
91111.4
113380
324154
323888
115673
90612.8
89621.3
115721
324020
324257
116256
89271.2
88680.3
115897
324787
325316
116181
88564.1
88289
115886
326089
326757
116224
88338.9
88211.1
116176
327508
328088
116946
88310.2
88101.5
117203
328598
328829
118637
88139.7
87691
119305
329130
329214
121413
87471.8
86337.3
122422
329551
329730
124824
85342.2
83222.7
126055
330489
330947
128201
81125.7
75872.8
128358
332063
334159
127868
68066.9
53481
120367
335657
339879
107474
37413.7
24117.3
84013.7
336319
325999
58390.6
13617.6
3218.62
20319.8
306589
2329.77
2267.7
2183.61
2118.29
2191.68
2142.42
2039.13
2068.36
2059.31
2058.88
2061.67
2060.49
2064.13
2062.61
2065.49
2055.24
2066.08
2058.38
2066.18
2060.71
2066.39
2064.62
2066.37
2064.28
2065.93
2063.52
2064.44
2060.41
2064.01
2055.54
2063.98
2030.26
2124.73
2175.85
2200.84
2097.79
2006.66
2002.06
2000.04
1999.87
1999.85
1999.91
1999.9
1999.94
2000.01
2000.44
2000.77
2000.35
1999.97
2010.38
2098.7
2211.22
2391.56
2404.27
2511.86
16694.3
1.17277e+06
1.27477e+06
190065
9169.41
23588.2
417812
1.37002e+06
1.43335e+06
619530
50256.1
110018
764540
1.44371e+06
1.46104e+06
870364
176464
248353
949854
1.47591e+06
1.4939e+06
993680
314141
376364
1.01343e+06
1.51561e+06
1.53241e+06
1.02537e+06
426537
474813
1.03303e+06
1.55189e+06
1.56824e+06
1.03596e+06
516335
552717
1.04172e+06
1.58517e+06
1.6001e+06
1.04747e+06
582061
608951
1.05662e+06
1.61623e+06
1.63102e+06
1.06477e+06
631840
652038
1.07511e+06
1.64726e+06
1.6625e+06
1.0848e+06
668618
684524
1.09576e+06
1.67965e+06
1.69588e+06
1.10644e+06
697970
711202
1.11705e+06
1.71383e+06
1.73091e+06
1.12714e+06
722042
732670
1.13672e+06
1.74956e+06
1.76811e+06
1.14605e+06
741602
750694
1.15463e+06
1.78657e+06
1.80823e+06
1.16297e+06
758488
766452
1.17122e+06
1.83541e+06
1.86371e+06
1.17862e+06
773438
780128
1.1868e+06
1.8963e+06
1.92896e+06
1.19407e+06
786208
791942
1.20131e+06
1.96561e+06
2.00159e+06
1.20864e+06
797155
802228
1.21536e+06
2.04178e+06
2.08055e+06
1.22195e+06
806812
810882
1.22848e+06
2.12435e+06
2.1657e+06
1.23433e+06
814813
817797
1.24036e+06
2.21372e+06
2.25801e+06
1.24534e+06
820681
822682
1.25082e+06
2.31104e+06
2.35841e+06
1.25471e+06
824311
824632
1.25951e+06
2.41793e+06
2.46874e+06
1.26226e+06
824282
823182
1.26594e+06
2.53613e+06
2.59112e+06
1.2672e+06
821316
818006
1.26876e+06
2.66887e+06
2.72971e+06
1.26664e+06
813786
806605
1.26228e+06
2.82316e+06
2.90189e+06
1.25506e+06
797709
786244
1.24634e+06
3.01007e+06
3.08419e+06
1.238e+06
775260
764317
1.23194e+06
3.17696e+06
3.20895e+06
1.22749e+06
754275
741569
1.22565e+06
3.27333e+06
3.26263e+06
1.22524e+06
732116
721186
1.21716e+06
3.28638e+06
3.11438e+06
775339
640092
1.22515e+06
2.30105e+06
4.35054e+06
6.33153e+06
1.89665e+06
1.0716e+06
985605
1.65875e+06
5.12548e+06
4.74873e+06
1.58274e+06
933986
893060
1.54116e+06
4.59035e+06
4.47662e+06
1.50665e+06
857753
820842
1.465e+06
4.35945e+06
4.23532e+06
1.42901e+06
785411
754741
1.38489e+06
4.09467e+06
3.76587e+06
825883
634967
1.37264e+06
2.71785e+06
5.20853e+06
7.32758e+06
2.18311e+06
1.16007e+06
1.05647e+06
1.87123e+06
5.81216e+06
5.20879e+06
1.72479e+06
970122
908380
1.6488e+06
4.84503e+06
4.56274e+06
1.54007e+06
845780
706071
890966
4.11164e+06
5.70092e+06
2.96699e+06
1.48507e+06
1.27365e+06
2.37985e+06
7.78662e+06
5.8873e+06
2.0052e+06
1.11056e+06
931141
1.03176e+06
4.73464e+06
6.50324e+06
3.39815e+06
1.8166e+06
1.45679e+06
2.63488e+06
8.59793e+06
5.82646e+06
1.14831e+06
1.24962e+06
2.27641e+06
4.27705e+06
7.38599e+06
9.02667e+06
2.72583e+06
1.32431e+06
4.04685e+06
5.94344e+06
8.02814e+06
4.72255e+06
2.67635e+06
1.71048e+06
705165
716887
3.99315e+06
2.25071e+06
1.10763e+06
697450
624249
798886
2.25787e+06
4.67287e+06
1.46104e+06
845227
1.03093e+06
1.84327e+06
3.78333e+06
2.99942e+06
782571
676900
869911
1.56895e+06
5.10741e+06
3.90151e+06
1.90514e+06
1.06831e+06
683334
817700
3.05313e+06
5.14398e+06
1.57946e+06
879300
1.07885e+06
1.92473e+06
3.95553e+06
3.09058e+06
835731
685625
884451
1.58568e+06
5.16067e+06
3.89478e+06
1.91773e+06
1.0823e+06
689604
845919
3.05129e+06
5.12656e+06
1.58684e+06
888499
1.08303e+06
1.91114e+06
3.91457e+06
3.06001e+06
854228
696888
898008
1.5823e+06
5.0483e+06
3.87773e+06
1.91524e+06
1.09578e+06
707987
870630
3.04862e+06
5.09894e+06
1.59709e+06
912249
1.11385e+06
1.93256e+06
3.87988e+06
3.03682e+06
887343
722715
931978
1.61639e+06
5.08098e+06
3.97482e+06
1.97477e+06
1.1414e+06
747386
917865
3.11988e+06
5.19391e+06
1.66273e+06
967733
1.19281e+06
2.0717e+06
4.08358e+06
3.24883e+06
995976
774842
1.02224e+06
1.82478e+06
5.65125e+06
4.67755e+06
2.36757e+06
1.29479e+06
810307
846679
3.99314e+06
3.42005e+06
1.72802e+06
1.03331e+06
721709
909370
2.80429e+06
4.73215e+06
1.58258e+06
945619
1.14692e+06
1.9223e+06
3.79822e+06
3.06183e+06
959781
776509
1.00869e+06
1.70054e+06
5.15162e+06
4.12108e+06
2.10569e+06
1.2412e+06
824382
1.05728e+06
3.295e+06
5.70751e+06
1.8985e+06
1.09345e+06
1.39273e+06
2.48494e+06
4.89755e+06
4.23053e+06
929880
886398
1.14262e+06
1.88671e+06
3.63114e+06
3.01549e+06
1.06357e+06
807046
1.08353e+06
1.86055e+06
5.43802e+06
4.74123e+06
2.43375e+06
1.36739e+06
888092
929769
4.11206e+06
3.60584e+06
1.84963e+06
1.13774e+06
811921
1.02581e+06
3.00645e+06
5.19429e+06
1.75703e+06
1.07803e+06
1.32353e+06
2.2218e+06
4.25332e+06
3.45194e+06
1.18623e+06
899535
1.20376e+06
2.09293e+06
6.11513e+06
5.34878e+06
2.78501e+06
1.54618e+06
984273
1.08582e+06
4.69434e+06
4.44254e+06
2.2796e+06
1.32032e+06
905436
1.01299e+06
3.97666e+06
3.6617e+06
1.93236e+06
1.19913e+06
853084
1.1114e+06
3.10778e+06
5.58858e+06
1.93767e+06
1.15103e+06
1.44638e+06
2.52738e+06
4.96632e+06
4.35115e+06
1.07214e+06
965508
1.26935e+06
2.04516e+06
3.87367e+06
3.28711e+06
1.19718e+06
905708
1.22913e+06
2.08924e+06
5.99637e+06
5.35385e+06
2.76492e+06
1.56246e+06
1.03421e+06
1.19657e+06
4.73535e+06
4.52116e+06
2.377e+06
1.39316e+06
964089
1.06884e+06
4.09056e+06
3.84278e+06
2.04359e+06
1.28134e+06
921458
1.224e+06
3.26897e+06
5.94142e+06
2.11535e+06
1.26109e+06
1.60828e+06
2.82121e+06
5.38977e+06
4.81444e+06
1.19503e+06
1.06084e+06
1.42796e+06
2.41628e+06
4.62273e+06
4.16585e+06
1.0922e+06
992523
1.31868e+06
2.09796e+06
3.89021e+06
3.32927e+06
1.2737e+06
954072
1.30555e+06
2.17009e+06
6.07401e+06
5.57878e+06
2.89943e+06
1.66581e+06
1.10404e+06
1.23573e+06
4.99125e+06
4.79978e+06
2.49897e+06
1.48865e+06
1.03924e+06
1.15544e+06
4.32776e+06
4.05479e+06
2.19581e+06
1.39048e+06
999821
1.32556e+06
3.48202e+06
6.40983e+06
2.28823e+06
1.37505e+06
1.75953e+06
3.0492e+06
5.82039e+06
5.2004e+06
1.32897e+06
1.16978e+06
1.59318e+06
2.6944e+06
5.08432e+06
4.68731e+06
1.28407e+06
1.10243e+06
1.50139e+06
2.487e+06
4.76639e+06
4.36206e+06
1.18044e+06
1.0633e+06
1.42384e+06
2.23489e+06
4.12506e+06
3.53233e+06
1.37403e+06
1.02985e+06
1.42348e+06
2.35824e+06
6.52973e+06
6.032e+06
3.17105e+06
1.82771e+06
1.21081e+06
1.39359e+06
5.34005e+06
5.24165e+06
2.80811e+06
1.65104e+06
1.14851e+06
1.36393e+06
4.86791e+06
5.04003e+06
2.65755e+06
1.57991e+06
1.10946e+06
1.28646e+06
4.63651e+06
4.71454e+06
2.47101e+06
1.51151e+06
1.07645e+06
1.21285e+06
4.32749e+06
4.11848e+06
2.25381e+06
1.44395e+06
1.04592e+06
1.39726e+06
3.56019e+06
6.59387e+06
2.39207e+06
1.44248e+06
1.84337e+06
3.18339e+06
5.97153e+06
5.33704e+06
1.43007e+06
1.23793e+06
1.69201e+06
2.8466e+06
5.3408e+06
4.92741e+06
1.38666e+06
1.17708e+06
1.61958e+06
2.69375e+06
5.05107e+06
4.64985e+06
1.31664e+06
1.13431e+06
1.54235e+06
2.50935e+06
4.73171e+06
4.35972e+06
1.24651e+06
1.10055e+06
1.48075e+06
2.31211e+06
4.26586e+06
3.66811e+06
1.43843e+06
1.07376e+06
1.48266e+06
2.44941e+06
6.65997e+06
6.12778e+06
3.25991e+06
1.89487e+06
1.2759e+06
1.47405e+06
5.46699e+06
5.48076e+06
2.9373e+06
1.74437e+06
1.20823e+06
1.41713e+06
5.03895e+06
5.1791e+06
2.77157e+06
1.66236e+06
1.16616e+06
1.37382e+06
4.79461e+06
4.90322e+06
2.61136e+06
1.59283e+06
1.1324e+06
1.28303e+06
4.50493e+06
4.41935e+06
2.39515e+06
1.52633e+06
1.09843e+06
1.46117e+06
3.78743e+06
6.86016e+06
2.51188e+06
1.51953e+06
1.93828e+06
3.33427e+06
6.21758e+06
5.60827e+06
1.52016e+06
1.30649e+06
1.79028e+06
3.02562e+06
5.63285e+06
5.17652e+06
1.47373e+06
1.23739e+06
1.70621e+06
2.86947e+06
5.32523e+06
4.92059e+06
1.4139e+06
1.19632e+06
1.63673e+06
2.69164e+06
5.03688e+06
4.61994e+06
1.32535e+06
1.16154e+06
1.5676e+06
2.46818e+06
4.53966e+06
3.88207e+06
1.50862e+06
1.12518e+06
1.55952e+06
2.58743e+06
7.07391e+06
6.54191e+06
3.44822e+06
1.99737e+06
1.33568e+06
1.54104e+06
5.83147e+06
5.75534e+06
3.08124e+06
1.82974e+06
1.26702e+06
1.52389e+06
5.29011e+06
5.42899e+06
2.94351e+06
1.74956e+06
1.21926e+06
1.42413e+06
5.04513e+06
5.2615e+06
2.74882e+06
1.67049e+06
1.17801e+06
1.33406e+06
4.74293e+06
4.57086e+06
2.48397e+06
1.58747e+06
1.14057e+06
1.54044e+06
3.91466e+06
7.11999e+06
2.63776e+06
1.58348e+06
2.0315e+06
3.54483e+06
6.67715e+06
5.89141e+06
1.5348e+06
1.34636e+06
1.84744e+06
3.11599e+06
5.88907e+06
5.39137e+06
1.49871e+06
1.26841e+06
1.75019e+06
2.9251e+06
5.46114e+06
5.07307e+06
1.44857e+06
1.22153e+06
1.67704e+06
2.76459e+06
5.26994e+06
4.73677e+06
1.3266e+06
1.17581e+06
1.58374e+06
2.47477e+06
4.51596e+06
3.87965e+06
1.51693e+06
1.12967e+06
1.56955e+06
2.62569e+06
7.08971e+06
6.53378e+06
3.50568e+06
2.01124e+06
1.32772e+06
1.53756e+06
5.86652e+06
5.82824e+06
3.10484e+06
1.81397e+06
1.24349e+06
1.46863e+06
5.27704e+06
5.35234e+06
2.83762e+06
1.70962e+06
1.18711e+06
1.33201e+06
4.82765e+06
4.70147e+06
2.524e+06
1.59643e+06
1.13402e+06
1.51984e+06
4.02059e+06
7.23231e+06
2.6431e+06
1.57746e+06
2.02297e+06
3.51177e+06
6.55554e+06
5.82981e+06
1.5233e+06
1.32606e+06
1.81565e+06
3.08919e+06
5.76437e+06
5.26228e+06
1.44645e+06
1.23431e+06
1.6951e+06
2.82159e+06
5.39421e+06
4.86032e+06
1.3175e+06
1.17541e+06
1.57881e+06
2.49302e+06
4.61034e+06
3.93704e+06
1.50193e+06
1.11657e+06
1.54943e+06
2.6053e+06
7.12591e+06
6.48183e+06
3.45235e+06
1.98425e+06
1.29928e+06
1.48148e+06
5.76457e+06
5.61878e+06
2.98612e+06
1.77535e+06
1.20018e+06
1.29615e+06
5.00512e+06
4.76702e+06
2.54258e+06
1.58677e+06
1.11646e+06
1.50457e+06
4.04349e+06
7.31073e+06
2.62739e+06
1.55104e+06
1.98941e+06
3.48393e+06
6.55722e+06
5.77547e+06
1.46703e+06
1.28749e+06
1.76108e+06
2.99321e+06
5.62377e+06
5.0092e+06
1.30006e+06
1.17884e+06
1.56804e+06
2.52324e+06
4.75418e+06
4.01892e+06
1.46609e+06
1.09593e+06
1.51868e+06
2.58109e+06
7.16309e+06
6.51156e+06
3.4114e+06
1.94432e+06
1.25691e+06
1.44973e+06
5.79662e+06
5.60971e+06
2.95343e+06
1.71724e+06
1.13852e+06
1.25192e+06
4.9843e+06
4.64774e+06
2.42861e+06
1.50552e+06
1.04932e+06
1.39791e+06
3.91456e+06
6.89647e+06
2.45352e+06
1.45035e+06
1.84815e+06
3.21665e+06
6.1912e+06
5.39691e+06
1.29061e+06
1.19182e+06
1.55893e+06
2.54565e+06
4.87532e+06
4.05506e+06
1.37819e+06
1.06332e+06
1.45038e+06
2.48279e+06
7.07173e+06
6.24902e+06
3.2566e+06
1.85926e+06
1.18869e+06
1.28814e+06
5.39507e+06
4.85595e+06
2.55296e+06
1.55857e+06
1.06059e+06
1.42205e+06
4.04624e+06
7.17294e+06
2.53808e+06
1.46859e+06
1.87943e+06
3.31484e+06
6.30186e+06
5.39564e+06
1.22778e+06
1.17601e+06
1.51674e+06
2.52791e+06
4.83179e+06
4.00357e+06
1.36303e+06
1.01375e+06
1.40769e+06
2.45364e+06
6.99291e+06
6.11614e+06
3.22751e+06
1.80875e+06
1.1136e+06
1.17147e+06
5.29359e+06
4.72874e+06
2.4137e+06
1.43387e+06
944049
1.19893e+06
3.85785e+06
6.36939e+06
2.17544e+06
1.26296e+06
1.57222e+06
2.68622e+06
5.29406e+06
4.20362e+06
1.21593e+06
970409
1.28164e+06
2.27377e+06
6.78454e+06
5.46781e+06
2.7195e+06
1.5852e+06
984660
1.23019e+06
4.30967e+06
6.87683e+06
2.29206e+06
1.29524e+06
1.6315e+06
2.83337e+06
5.63915e+06
4.44522e+06
1.20298e+06
976132
1.28507e+06
2.31634e+06
7.06138e+06
5.70889e+06
2.83011e+06
1.616e+06
948466
1.2247e+06
4.44477e+06
6.98486e+06
2.33724e+06
1.27763e+06
1.60553e+06
2.87787e+06
5.69001e+06
4.43426e+06
1.05929e+06
884573
1.16212e+06
2.25917e+06
6.89803e+06
5.53896e+06
2.76703e+06
1.47891e+06
739083
1.05678e+06
4.33227e+06
6.67923e+06
2.17661e+06
1.05926e+06
1.28216e+06
2.54212e+06
5.12135e+06
3.7733e+06
873325
532326
783126
1.71426e+06
4.91207e+06
6.96938e+06
1.95506e+06
918520
1.14553e+06
2.55005e+06
5.04131e+06
3.54624e+06
626686
291221
445132
1.20464e+06
3.9994e+06
4.18873e+06
1.25692e+06
506010
552763
1.38747e+06
4.63844e+06
4.72763e+06
1.39344e+06
587789
655110
1.50959e+06
5.43142e+06
6.78612e+06
1.67953e+06
731073
894220
2.17084e+06
4.26203e+06
2.8607e+06
437258
160342
270705
924182
2.95921e+06
2.91398e+06
941947
282307
281670
935577
2.86808e+06
2.80725e+06
923482
281790
279545
916123
2.77328e+06
2.71881e+06
903202
278459
275278
895777
2.68973e+06
2.64528e+06
880125
273468
270171
873862
2.61956e+06
2.58397e+06
859105
267058
263383
851539
2.55954e+06
2.52848e+06
837187
259436
255401
829448
2.50514e+06
2.47743e+06
815387
250908
246628
807394
2.45504e+06
2.42983e+06
793778
241807
237373
785558
2.40826e+06
2.38495e+06
772383
232406
227917
764001
2.36409e+06
2.3422e+06
751682
222806
218555
742570
2.32193e+06
2.30115e+06
730518
213655
209480
721731
2.28141e+06
2.26147e+06
709692
204975
201137
700991
2.2422e+06
2.22293e+06
689494
196984
193822
680173
2.20403e+06
2.18534e+06
668624
190366
187700
659570
2.16682e+06
2.14859e+06
648204
184922
182763
638233
2.13045e+06
2.11273e+06
627769
180458
178509
617688
2.09498e+06
2.07776e+06
607302
176472
174631
597239
2.06051e+06
2.04392e+06
587762
172727
170974
577930
2.02733e+06
2.01159e+06
569311
169210
167551
560174
1.99593e+06
1.98134e+06
552497
165926
164343
544623
1.96694e+06
1.9538e+06
537484
162831
161313
530491
1.94104e+06
1.92986e+06
524468
159864
158371
517918
1.91952e+06
1.90927e+06
511634
156927
155419
505337
1.89858e+06
1.88863e+06
498933
153982
152454
493026
1.87792e+06
1.86803e+06
486077
151013
149503
480501
1.8574e+06
1.84753e+06
473308
148029
146554
467860
1.837e+06
1.82713e+06
460926
145042
143599
455108
1.81665e+06
1.80682e+06
448404
142083
140654
442462
1.79638e+06
1.78657e+06
435901
139147
137726
429961
1.77616e+06
1.76638e+06
423395
136246
134827
417211
1.75601e+06
1.74624e+06
411157
133415
132002
404813
1.73588e+06
1.72616e+06
398667
130645
129283
393044
1.71582e+06
1.70609e+06
386819
127965
126657
381324
1.6958e+06
1.68608e+06
375297
125390
124167
370078
1.67582e+06
1.66612e+06
364368
122958
121801
359170
1.65593e+06
1.64628e+06
354169
120691
119582
349302
1.63615e+06
1.62656e+06
344602
118560
117512
340137
1.61653e+06
1.607e+06
335831
116561
115566
331566
1.5971e+06
1.58762e+06
327748
114675
113716
323670
1.57781e+06
1.56838e+06
319979
112858
111944
316076
1.55868e+06
1.54931e+06
312444
111106
110235
308631
1.53973e+06
1.53042e+06
305147
109426
108594
301397
1.52094e+06
1.51173e+06
298011
107826
107016
294450
1.50237e+06
1.49324e+06
291048
106282
105516
287680
1.48401e+06
1.47498e+06
284318
104811
104099
281083
1.4659e+06
1.45698e+06
277865
103419
102752
274742
1.44805e+06
1.43926e+06
271676
102101
101482
268635
1.43048e+06
1.42185e+06
265743
100859
100296
262842
1.41324e+06
1.40478e+06
260034
99680.6
99161
257285
1.39635e+06
1.38804e+06
254597
98596.7
98119.8
251999
1.37979e+06
1.37168e+06
249476
97606
97136
247032
1.36362e+06
1.35571e+06
244651
96683.2
96237
242348
1.34786e+06
1.34015e+06
240132
95829.9
95421.2
237964
1.33251e+06
1.325e+06
235931
95059.2
94686.9
233915
1.31758e+06
1.31029e+06
232038
94371.3
94016.2
230156
1.30313e+06
1.29609e+06
228413
93727.3
93428.5
226700
1.28918e+06
1.28241e+06
225040
93156.9
92922
223481
1.2758e+06
1.26934e+06
221909
92664.1
92465.3
220457
1.263e+06
1.25684e+06
219062
92280.1
92124.2
217927
1.25084e+06
1.24502e+06
216630
91968.3
91863.5
215588
1.23936e+06
1.23392e+06
214626
91780.5
91731.1
213790
1.22864e+06
1.22356e+06
213048
91708.5
91720.6
212449
1.21867e+06
1.21401e+06
211972
91779.3
91849.2
211589
1.20951e+06
1.20525e+06
211342
91966
92119.3
211210
1.20116e+06
1.19729e+06
211177
92281
92520.3
211288
1.1936e+06
1.19013e+06
211474
92730.8
93041.5
211814
1.18681e+06
1.18369e+06
212251
93336.2
93681.5
212799
1.18077e+06
1.17801e+06
213444
94049.2
94446.6
214192
1.17541e+06
1.17298e+06
215042
94864
95337.1
216030
1.17071e+06
1.1686e+06
217027
95798.9
96337.8
218252
1.16662e+06
1.16482e+06
219432
96866.7
97455.7
220862
1.16316e+06
1.16169e+06
222340
98066.5
98678
223834
1.16045e+06
1.15948e+06
225567
99347.4
100021
227338
1.15901e+06
1.15942e+06
229267
100723
101439
231260
1.16058e+06
1.16187e+06
233317
102175
102926
235425
1.16327e+06
1.16478e+06
237591
103697
104483
239808
1.16641e+06
1.16814e+06
242082
105289
106107
244400
1.16999e+06
1.17194e+06
246766
106947
107791
249156
1.17399e+06
1.17615e+06
251628
108668
109540
254074
1.17839e+06
1.18076e+06
256668
110446
111355
259177
1.18315e+06
1.1857e+06
261837
112286
113222
264396
1.18825e+06
1.19096e+06
267111
114179
115145
269749
1.19367e+06
1.1965e+06
272473
116132
117112
275132
1.19937e+06
1.20235e+06
277966
118120
119136
280659
1.20532e+06
1.2084e+06
283500
120166
121198
286282
1.2115e+06
1.21466e+06
289136
122265
123315
291915
1.21784e+06
1.2211e+06
294852
124406
125484
297562
1.22433e+06
1.22771e+06
300564
126578
127687
303303
1.23102e+06
1.23443e+06
306298
128790
129932
309101
1.23781e+06
1.24125e+06
312024
131041
132205
314990
1.24471e+06
1.24813e+06
317818
133341
134521
320744
1.25161e+06
1.25506e+06
323607
135654
136848
326450
1.25855e+06
1.262e+06
329250
137992
139207
332101
1.26549e+06
1.26894e+06
334880
140369
141598
337767
1.27244e+06
1.27586e+06
340488
142793
144019
343470
1.27937e+06
1.28278e+06
346168
145253
146506
349055
1.28625e+06
1.28965e+06
351780
147749
149002
354736
1.29311e+06
1.29651e+06
357468
150276
151540
360255
1.29989e+06
1.30327e+06
363092
152823
154059
365835
1.30661e+06
1.30996e+06
368689
155357
156597
371366
1.31323e+06
1.31654e+06
374302
157864
159106
376951
1.31975e+06
1.32294e+06
379709
160369
161584
382420
1.32607e+06
1.32917e+06
385076
162782
163978
387678
1.33222e+06
1.33529e+06
390290
165184
166349
392851
1.33828e+06
1.34131e+06
395558
167558
168767
397880
1.34424e+06
1.34722e+06
400607
169956
171167
402974
1.35013e+06
1.35305e+06
405541
172362
173554
408066
1.35594e+06
1.35882e+06
410447
174779
175972
412871
1.36165e+06
1.3645e+06
415334
177175
178367
417688
1.36728e+06
1.37011e+06
420141
179589
180742
422401
1.37284e+06
1.37563e+06
424874
181981
183148
426996
1.37832e+06
1.38108e+06
429569
184331
185529
431573
1.38374e+06
1.38644e+06
434035
186703
187891
436109
1.38907e+06
1.39172e+06
438359
189075
190240
440482
1.39433e+06
1.39695e+06
442728
191413
192583
444728
1.39951e+06
1.40209e+06
447033
193723
194909
448996
1.40463e+06
1.40714e+06
451069
196056
197226
453116
1.40966e+06
1.41211e+06
455137
198357
199509
457298
1.41459e+06
1.41699e+06
459007
200687
201825
461171
1.4194e+06
1.42176e+06
462976
203005
204156
464892
1.4241e+06
1.42642e+06
466792
205313
206454
468657
1.4287e+06
1.43097e+06
470515
207605
208739
472333
1.43319e+06
1.43541e+06
474152
209879
211000
475919
1.43757e+06
1.43974e+06
477705
212131
213237
479416
1.44184e+06
1.44396e+06
481180
214359
215453
482820
1.446e+06
1.44807e+06
484580
216562
217642
486114
1.45004e+06
1.45207e+06
487918
218733
219816
489276
1.45398e+06
1.45596e+06
491230
220867
221961
492429
1.45782e+06
1.45973e+06
494295
222987
224078
495521
1.46157e+06
1.46339e+06
497249
225082
226161
498578
1.46521e+06
1.46695e+06
500057
227157
228238
501478
1.46873e+06
1.47041e+06
502934
229174
230232
504434
1.47216e+06
1.47377e+06
505630
231186
232227
507215
1.47548e+06
1.47703e+06
508208
233174
234200
509827
1.47869e+06
1.48021e+06
510898
235097
236153
512292
1.48181e+06
1.48327e+06
513418
237009
238023
514834
1.48484e+06
1.48625e+06
515812
238901
239842
517339
1.48779e+06
1.48916e+06
518217
240735
241675
519582
1.49064e+06
1.49195e+06
520436
242542
243431
521961
1.49341e+06
1.49469e+06
522649
244304
245174
524098
1.49609e+06
1.49733e+06
524815
246025
246883
526133
1.49869e+06
1.49989e+06
526952
247687
248544
528209
1.50122e+06
1.50236e+06
528813
249345
250175
530140
1.50365e+06
1.50477e+06
530792
250934
251774
531957
1.50601e+06
1.50708e+06
532587
252518
253272
533906
1.50829e+06
1.50933e+06
534376
254045
254774
535627
1.5105e+06
1.51151e+06
536122
255525
256245
537260
1.51263e+06
1.5136e+06
537845
256954
257663
538953
1.51471e+06
1.51562e+06
539290
258383
259047
540530
1.5167e+06
1.51758e+06
540837
259749
260394
542043
1.51862e+06
1.51948e+06
542324
261079
261706
543497
1.52047e+06
1.52131e+06
543756
262372
262983
544890
1.52226e+06
1.52308e+06
545135
263628
264228
546222
1.52398e+06
1.52479e+06
546464
264843
265441
547484
1.52564e+06
1.52645e+06
547843
266013
266643
548517
1.52725e+06
1.52803e+06
549069
267155
267764
549724
1.52881e+06
1.52957e+06
550217
268266
268846
550886
1.53032e+06
1.53105e+06
551291
269349
269886
552028
1.53178e+06
1.53248e+06
552267
270413
270862
553191
1.53318e+06
1.53387e+06
553430
271437
271855
553889
1.53452e+06
1.53519e+06
554452
272423
272820
554851
1.53582e+06
1.53647e+06
555423
273351
273770
555747
1.53708e+06
1.5377e+06
556369
274238
274655
556862
1.5383e+06
1.53891e+06
556997
275153
275520
557602
1.53946e+06
1.54007e+06
558078
276005
276359
558208
1.5406e+06
1.54117e+06
558715
276857
277170
558984
1.54168e+06
1.54225e+06
559534
277631
277961
559639
1.54273e+06
1.54329e+06
560344
278354
278700
560424
1.54377e+06
1.54428e+06
560808
279122
279416
561098
1.54477e+06
1.54527e+06
561462
279821
280087
561718
1.54573e+06
1.54623e+06
562099
280513
280761
562303
1.54668e+06
1.54715e+06
562732
281155
281424
562796
1.5476e+06
1.54805e+06
563376
281754
282033
563461
1.54851e+06
1.5489e+06
563659
282401
282650
564079
1.54937e+06
1.54973e+06
564077
282942
283214
564719
1.5502e+06
1.55055e+06
564584
283521
283781
565175
1.551e+06
1.55134e+06
565096
284076
284327
565571
1.55177e+06
1.55212e+06
565692
284596
284856
566049
1.55256e+06
1.5529e+06
565855
285124
285353
566484
1.55332e+06
1.55364e+06
566260
285609
285818
566855
1.55407e+06
1.55441e+06
566629
286060
286256
567193
1.55482e+06
1.55516e+06
566997
286496
286686
567503
1.55554e+06
1.5559e+06
567367
286903
287096
567758
1.55623e+06
1.55663e+06
567977
287265
287489
567721
1.55693e+06
1.55732e+06
568303
287632
287870
568060
1.55761e+06
1.55797e+06
568635
288025
288272
568408
1.55824e+06
1.55858e+06
568944
288426
288659
568726
1.55885e+06
1.55919e+06
569175
288796
289007
569026
1.55946e+06
1.55976e+06
569343
289146
289323
569391
1.56004e+06
1.56033e+06
569496
289466
289632
569562
1.56059e+06
1.56089e+06
569819
289755
289942
569530
1.56113e+06
1.56143e+06
570054
290046
290229
569757
1.56161e+06
1.56186e+06
570237
290313
290491
569952
1.56201e+06
1.56223e+06
570424
290588
290765
570138
1.56238e+06
1.56259e+06
570555
290851
291028
570370
1.56273e+06
1.56286e+06
570715
291131
291347
570707
1.56295e+06
1.56307e+06
570800
291446
291640
570863
1.56323e+06
1.5634e+06
570942
291645
291618
570930
1.56351e+06
1.56361e+06
570951
291841
291671
570802
1.56372e+06
1.56556e+06
571051
292086
291811
570814
1.56632e+06
1.57967e+06
575905
293602
295415
577425
1.59301e+06
1.63193e+06
594750
301165
305381
600086
1.64184e+06
1.64533e+06
590805
300302
299923
588041
1.62225e+06
141106
75404
48597.4
35511.6
29724.7
27024.5
25953.3
25524.5
25228.5
24562.6
22604.1
18952.8
17215.6
16926.7
16947.6
17174.2
17778
17805.3
17824.4
16048.4
15043.3
13986.4
13257.7
12781.5
12493.6
12317.4
12204.2
12115.8
12035.3
11950.4
11851.2
11733.1
11593
11429.3
11241.7
11030.3
10795.5
10538.6
10261.3
9965.71
9654.3
9330.05
8996.01
8655.5
8311.69
7967.72
7626.57
7290.83
6962.65
6643.81
6335.74
6039.64
5756.53
5487.63
5233.46
4995.88
4774.63
4574.94
4396.46
4249.26
4132.45
4051.03
4000.84
3977.44
4015.85
4038.27
4071.2
4101.62
4133.64
4164.87
4195.25