/*--------------------------------*- C++ -*----------------------------------*\
| =========                 |                                                 |
| \\      /  F ield         | OpenFOAM: The Open Source CFD Toolbox           |
|  \\    /   O peration     | Version:  v2006                                 |
|   \\  /    A nd           | Website:  www.openfoam.com                      |
|    \\/     M anipulation  |                                                 |
\*---------------------------------------------------------------------------*/
FoamFile
{
    version     2.0;
    format      ascii;
    class       volScalarField;
    location    "0.005";
    object      yPlus;
}
// * * * * * * * * * * * * * * * * * * * * * * * * * * * * * * * * * * * * * //

dimensions      [0 0 0 0 0 0 0];


internalField   uniform 0;

boundaryField
{
    bottomEmptyFaces
    {
        type            empty;
    }
    topEmptyFaces
    {
        type            empty;
    }
    inlet
    {
        type            calculated;
        value           uniform 0;
    }
    outlet
    {
        type            calculated;
        value           uniform 0;
    }
    walls
    {
        type            calculated;
        value           nonuniform List<scalar> 
988
(
5.57678
5.63935
5.70053
5.76152
5.82064
5.87993
5.93704
5.99357
6.04864
6.10285
6.15585
6.20863
6.25996
6.31162
6.36129
6.41144
6.46023
6.50881
6.55666
6.60398
6.65037
6.69675
6.74192
6.78735
6.83127
6.87579
6.91854
6.96213
7.00401
7.04631
7.08749
7.12866
7.16898
7.20934
7.24873
7.28817
7.32694
7.36511
7.40316
7.44025
7.47763
7.51361
7.54976
7.58515
7.62007
7.65465
7.68866
7.72235
7.75542
7.78824
7.82037
7.85237
7.88356
7.91481
7.94502
7.97554
8.00473
8.03461
8.06281
8.09196
8.11951
8.14754
8.17462
8.20148
8.22817
8.25385
8.27998
8.30471
8.33045
8.35411
8.37925
8.40207
8.42635
8.44873
8.47217
8.49383
8.51681
8.53766
8.56017
8.58042
8.60225
8.62172
8.64318
8.66213
8.68285
8.70136
8.72139
8.7394
8.75904
8.77631
8.79533
8.81224
8.83068
8.84695
8.86513
8.88094
8.8985
8.91395
8.93097
8.94594
8.96273
8.97696
8.9933
9.00718
9.02303
9.03656
9.05189
9.06515
9.07993
9.09297
9.10716
9.1201
9.13365
9.14655
9.15942
9.17208
9.18462
9.19695
9.2092
9.22115
9.23311
9.24468
9.25631
9.2678
9.27877
9.29004
9.30076
9.31174
9.32223
9.3329
9.3433
9.35374
9.36351
9.37408
9.38352
9.39363
9.40287
9.41284
9.42178
9.43155
9.44051
9.44977
9.45864
9.46777
9.4764
9.48535
9.49382
9.50251
9.51085
9.51921
9.52774
9.53539
9.54405
9.55128
9.55989
9.56698
9.57533
9.58237
9.59043
9.59724
9.60468
9.61142
9.62011
9.62713
9.63526
9.64216
9.65003
9.65697
9.66443
9.6717
9.67873
9.6867
9.69352
9.70144
9.7081
9.71575
9.72225
9.72978
9.73629
9.74364
9.75015
9.75692
9.76344
9.77022
9.77637
9.78283
9.78756
9.79376
9.80048
9.80786
9.81404
9.82067
9.82602
9.8309
9.83441
9.84031
9.84593
9.85051
9.85274
9.85498
9.86086
9.86836
9.87387
9.87529
9.8751
9.83012
9.78364
9.65764
9.62461
9.64912
13.9682
19.5266
18.7211
16.675
15.7314
13.8451
12.8407
17.4208
14.2579
10.2426
18.1101
17.5603
17.5037
17.1985
17.0866
16.8259
16.7144
16.4544
16.3416
16.104
15.9854
15.7758
11.3155
9.81997
13.2908
13.3342
10.9323
10.6443
9.95426
15.6539
15.4647
15.3409
15.1667
15.0419
14.8786
14.7532
14.5976
12.6009
11.019
12.0048
10.5635
11.7562
10.2392
12.685
11.0853
14.1319
11.7546
12.1759
10.7092
13.8944
14.0583
11.7276
11.1284
10.4173
13.6392
12.1883
10.6867
13.8324
11.4004
11.5851
10.1174
10.987
10.224
11.5985
10.2531
14.4714
14.3213
14.1946
14.048
13.9208
13.7766
13.6485
13.506
13.3772
13.2357
13.1067
12.9667
12.8377
12.6994
12.5717
12.4365
12.3119
12.1821
12.0636
11.9426
11.8338
11.725
11.6303
11.5395
11.4674
11.3845
11.3071
11.2259
11.1461
11.0643
10.9835
10.9004
9.24812
8.89619
7.43471
9.89894
9.40719
7.94461
9.61959
9.14193
7.70309
8.95037
8.37865
8.21189
6.76659
8.47987
7.79494
6.45038
5.40566
9.07962
15.2423
19.5127
17.5277
8.86244
8.56238
7.1381
22.6217
24.2134
19.0317
28.9384
27.1487
28.0845
21.2201
34.0298
33.5411
31.3769
29.048
25.7201
27.2689
20.8377
10.8187
10.7342
10.6511
10.5656
10.4811
10.3944
10.3083
10.2204
10.1328
10.0435
9.95406
9.86375
9.77256
9.68055
9.58774
9.49426
9.39974
9.30474
10.4812
8.95016
9.20885
9.11274
9.01531
8.91814
8.81971
8.72142
12.5691
10.2969
12.2998
10.1268
9.36767
10.9057
9.38807
12.344
12.1812
9.8583
10.2679
9.46268
12.216
9.98916
8.62218
8.52255
8.42197
8.32107
8.21929
8.11692
8.01403
7.91021
11.4223
11.2131
10.5188
9.06288
11.0002
11.2905
8.9632
9.36753
8.59109
10.3288
8.8955
10.3911
9.73009
8.26665
10.3983
9.00333
8.1285
10.4783
9.78127
8.34723
10.1493
9.61006
8.09024
10.9389
8.7
12.0551
11.6646
9.71158
8.94901
11.727
9.35444
11.5432
10.8839
9.40158
9.66664
8.90572
13.0625
10.695
12.9813
10.5773
11.1024
9.52919
12.988
10.483
9.80802
11.2432
9.64435
11.6097
10.2074
11.1777
9.68339
12.9835
10.5314
9.81664
12.6844
10.3517
9.64078
33.3359
32.7997
30.767
29.6856
28.1777
26.8717
25.1094
22.4878
7.80598
7.70114
7.5955
7.48934
7.38253
23.9147
18.2165
7.27489
7.16701
29.334
7.05805
28.7425
26.8969
26.1777
24.8128
24.1096
23.0306
22.4479
21.6773
21.1631
20.4569
6.94903
6.83881
6.72856
19.9449
6.61745
19.314
18.8311
18.2567
6.50613
6.39422
6.28197
6.16904
17.7946
17.266
16.822
16.334
15.9077
15.4506
15.0428
14.6128
6.05589
5.94232
5.82846
5.71426
5.5997
5.48482
5.36941
5.25361
5.13733
5.02094
4.90453
4.78787
4.67123
4.55469
4.4383
4.32224
14.2216
13.8155
13.4441
13.063
12.7181
12.3699
12.0642
11.7661
11.5277
11.3204
11.1131
10.8997
10.7065
10.4976
10.3111
10.1086
9.93044
9.73608
9.55987
9.36393
9.18229
8.97223
8.7685
8.52182
8.27934
8.01694
7.76237
7.41543
6.98879
6.28572
5.27982
3.92291
4.20611
4.09025
3.97524
3.8609
3.74669
3.63452
3.52254
3.41225
3.30296
3.1961
3.09037
2.98722
2.88553
2.78652
2.6899
2.59606
2.50411
2.41543
2.32998
2.24725
2.16746
2.0912
2.01782
1.94854
1.88234
1.82116
1.76473
1.71523
1.67498
1.64757
1.64474
1.687
1.76505
1.84527
1.92692
2.01004
2.09419
2.17936
2.2653
2.35197
2.43916
2.52691
2.61444
2.70316
2.78983
2.87884
2.96537
3.05394
3.14008
3.22749
3.31355
3.40058
3.48511
3.57077
3.65481
3.73869
3.82132
3.90436
3.98509
4.06751
4.14706
4.22764
4.30608
4.38435
14.4099
12.6917
10.8187
14.5322
11.8723
12.3012
10.587
14.4895
12.0525
14.2855
11.579
10.8028
12.9866
11.2635
14.5361
14.7531
12.1139
13.0105
11.3398
12.4467
10.7076
11.7219
10.9334
14.7585
14.5239
14.6857
11.6416
12.0436
10.9599
14.4363
12.1184
11.0493
14.4325
11.6098
12.2135
11.2155
14.4974
11.6361
15.6052
14.9391
14.9741
14.4804
12.1771
14.232
11.8536
14.9783
15.9749
15.0595
14.2271
11.8777
15.1429
12.3213
14.6259
14.1076
11.7975
14.1659
11.6914
4.46212
4.5378
14.8383
12.4768
11.2646
15.1063
11.9559
4.61364
4.68793
4.76177
14.5015
14.5648
11.9278
4.83411
4.90629
12.8571
10.954
14.7793
12.0436
11.8329
11.0113
4.97673
12.7605
10.8652
11.696
10.8265
5.04738
5.11587
5.1851
5.25193
5.31896
5.38424
5.4499
5.51374
13.0194
11.4027
12.6154
11.0254
14.329
12.9136
11.2716
14.5362
12.0778
12.1191
10.5075
11.3441
10.6987
12.0574
10.4401
14.1416
14.307
11.9081
11.3252
10.6163
12.8785
11.223
12.3327
10.8419
11.9103
10.3723
11.3256
10.5508
12.4608
10.9413
14.4082
14.6827
12.1338
11.5419
10.8299
18.5108
16.4169
12.926
16.3773
16.8622
12.723
9.7343
2.1478
4.53958
4.35449
3.94047
3.58242
3.30105
3.08845
2.89866
2.72902
2.58454
2.48234
2.40385
2.34485
2.30711
2.28013
2.26349
2.24206
2.22645
2.21004
2.20334
2.19732
2.19593
2.19
2.18234
2.16843
2.15307
2.13309
2.11394
2.09333
2.07996
2.06766
2.06131
2.0553
2.05565
2.05472
2.0611
2.0612
2.06722
2.06572
2.06986
2.06636
2.06805
2.06227
2.06115
2.05337
2.04948
2.03901
2.03103
2.01848
2.00829
1.99353
1.98084
1.96428
1.95044
1.93075
1.91421
1.89117
1.87291
1.84689
1.82573
1.79514
1.77021
1.73384
1.70467
1.66217
1.62794
1.5787
1.54025
1.48507
1.44322
1.38224
1.34027
1.27991
1.24337
1.18533
1.15688
1.10626
1.08755
1.04537
1.03416
0.999551
0.995046
0.96715
0.968647
0.944031
0.948061
0.920936
0.924093
0.898144
0.903401
0.882825
0.888825
0.871608
0.876096
0.861684
0.863489
0.850475
0.84882
0.837314
0.833309
0.82416
0.818854
0.813328
0.807371
0.806701
0.802175
0.807471
0.807569
0.820118
0.827696
0.848959
0.867924
0.903972
0.947407
1.01126
1.06786
1.13455
1.19724
1.26479
1.33146
1.40002
1.4699
1.54047
1.613
1.68666
1.76224
1.83885
1.91712
1.99591
2.07618
2.15743
2.23945
2.3214
2.40368
2.48563
2.56717
2.6477
2.72695
2.80419
2.87952
2.95193
3.02117
3.08663
3.14834
3.20492
3.25563
3.29946
3.33562
3.36468
3.38565
3.39863
3.40228
3.39681
3.3831
3.36179
3.33377
3.29986
3.25813
3.20955
3.15481
3.09505
3.02845
2.95777
2.88061
2.8008
2.71528
2.62791
2.53619
2.44334
2.34712
2.25083
2.15288
2.0609
1.9742
1.899
1.83462
1.78798
1.79718
1.86658
1.96886
2.14373
2.29594
2.54428
2.75418
3.09556
3.37918
3.73054
4.03613
4.33962
4.60877
4.83386
4.97867
5.01437
4.96936
4.84482
4.603
4.33679
4.06025
3.76885
3.52886
3.28568
3.13363
2.97774
2.94982
3.02595
3.20271
3.67938
3.95892
4.20787
4.2158
4.13917
3.82915
3.28535
2.72222
2.29402
2.00898
1.82756
1.6985
1.62455
1.58107
1.60092
1.63146
1.7147
1.79217
1.90658
1.99764
2.09708
2.16762
2.22595
2.2442
2.27192
2.26953
2.30127
2.31176
2.36969
2.44409
2.59643
2.80034
3.08028
3.31658
3.4372
3.40759
4.30216
2.99623
)
;
    }
    rightWall
    {
        type            calculated;
        value           uniform 0;
    }
    symmetryLine
    {
        type            symmetryPlane;
    }
}


// ************************************************************************* //
