/*--------------------------------*- C++ -*----------------------------------*\
| =========                 |                                                 |
| \\      /  F ield         | OpenFOAM: The Open Source CFD Toolbox           |
|  \\    /   O peration     | Version:  v2006                                 |
|   \\  /    A nd           | Website:  www.openfoam.com                      |
|    \\/     M anipulation  |                                                 |
\*---------------------------------------------------------------------------*/
FoamFile
{
    version     2.0;
    format      ascii;
    class       volScalarField;
    location    "0.07";
    object      alphat;
}
// * * * * * * * * * * * * * * * * * * * * * * * * * * * * * * * * * * * * * //

dimensions      [1 -1 -1 0 0 0 0];


internalField   nonuniform List<scalar> 
9148
(
92.7841
304.464
1492.84
160.479
20.162
4.15218
1.50822
0.838032
0.60839
0.503839
0.442965
0.39888
0.362627
0.331447
0.304661
0.281864
0.262513
0.246001
0.231774
0.219378
0.208468
0.198784
0.190134
0.182368
0.175369
0.169043
0.163315
0.158126
0.15343
0.14919
0.145377
0.141967
0.13894
0.136278
0.133966
0.131991
0.130346
0.129024
0.128023
0.127352
0.127004
0.126981
0.127309
0.128011
0.129115
0.130657
0.132685
0.135265
0.138481
0.142444
0.147305
0.153254
0.160494
0.169238
0.179618
0.191916
0.207135
0.228959
0.267632
0.351474
0.546264
0.972735
1.64174
4.02405
1.80725
1.10488
0.618601
0.321337
0.137044
0.0263179
0.00484959
0.00016384
0.000142135
0.00235403
0.0103105
0.00665869
0.00174493
0.000127951
0.000114787
0.00148932
0.00527941
0.00448696
0.00135657
0.000107727
0.000100372
0.00123902
0.00399878
0.00359196
0.0011651
9.5546e-05
9.14478e-05
0.0011024
0.00337962
0.00315031
0.00105231
8.79861e-05
8.56912e-05
0.00103038
0.00303842
0.00286874
0.000989091
8.32849e-05
8.17586e-05
0.000977058
0.0028057
0.00267891
0.000943796
7.9921e-05
7.88179e-05
0.000936019
0.00263327
0.00253042
0.000908158
7.73692e-05
7.65215e-05
0.000902244
0.00249525
0.00240773
0.000878541
7.5341e-05
7.46575e-05
0.000873385
0.00237975
0.00230311
0.000852862
7.36603e-05
7.30887e-05
0.000848289
0.00228035
0.00221188
0.000830051
7.22195e-05
7.17256e-05
0.000825913
0.00219285
0.00213098
0.000809389
7.09477e-05
7.05089e-05
0.000805591
0.00211436
0.00205812
0.000790367
6.97971e-05
6.93985e-05
0.00078688
0.00204335
0.00199167
0.000772681
6.87359e-05
6.83679e-05
0.000769468
0.00197836
0.00193044
0.000756077
6.77425e-05
6.73982e-05
0.000753099
0.00191831
0.00187352
0.000740345
6.68011e-05
6.6475e-05
0.000737562
0.00186233
0.00182017
0.000725304
6.58984e-05
6.55857e-05
0.000722683
0.00180975
0.0017698
0.000710802
6.50226e-05
6.47185e-05
0.000708315
0.00175999
0.00172192
0.000696709
6.41623e-05
6.38623e-05
0.00069433
0.00171259
0.00167609
0.000682912
6.3307e-05
6.30076e-05
0.000680616
0.00166712
0.00163194
0.000669308
6.24481e-05
6.21467e-05
0.000667068
0.00162322
0.00158909
0.000655796
6.15792e-05
6.12744e-05
0.000653579
0.00158056
0.00154725
0.000642274
6.06962e-05
6.03874e-05
0.000640043
0.00153879
0.00150612
0.00062864
5.97963e-05
5.94835e-05
0.00062636
0.00149764
0.00146542
0.000614795
5.8877e-05
5.8559e-05
0.000612421
0.0014568
0.00142483
0.000600639
5.79334e-05
5.76083e-05
0.000598131
0.001416
0.00138407
0.00058607
5.69585e-05
5.66233e-05
0.000583384
0.00137493
0.00134282
0.000570949
5.59426e-05
5.55932e-05
0.000568005
0.00133322
0.0013006
0.000555072
5.48725e-05
5.45024e-05
0.000551818
0.00129042
0.00125698
0.000538254
5.37318e-05
5.33361e-05
0.000534551
0.001246
0.00121126
0.000520157
5.25058e-05
5.20776e-05
0.000515836
0.00119923
0.00116256
0.000500358
5.11777e-05
5.07067e-05
0.000495175
0.00114914
0.00111004
0.000478273
4.9734e-05
4.9194e-05
0.0004718
0.00109442
0.00105191
0.000453361
4.81728e-05
4.75016e-05
0.000443769
0.00103273
0.000985326
0.000423942
4.64463e-05
4.55833e-05
0.000409396
0.00095913
0.000906002
0.000387095
4.44887e-05
4.33295e-05
0.000364932
0.000866279
0.000805889
0.000338164
4.2089e-05
4.06563e-05
0.000300643
0.000740597
0.000664307
0.00026514
4.09147e-05
3.42787e-05
0.000187082
0.000552207
0.000359236
7.05989e-05
1.54194e-05
2.52784e-05
6.05744e-05
0.000187575
0.000179438
0.000166693
3.65482e-05
4.09948e-05
0.00026949
0.000354108
0.000476375
0.000348403
3.91585e-05
3.17084e-05
0.000391299
0.0005496
0.000539729
0.000242614
1.48707e-05
6.66394e-06
5.81754e-05
0.000196365
0.000100403
3.06467e-05
3.97484e-06
3.11301e-06
2.45825e-05
8.49573e-05
7.96194e-05
2.03091e-05
2.89322e-06
5.93092e-06
2.67476e-05
0.000100928
0.000119158
3.34086e-05
8.95958e-06
1.1911e-05
4.81073e-05
0.000164116
0.00018446
5.55399e-05
1.30849e-05
1.27381e-05
6.50798e-05
0.000203562
0.000200274
6.46898e-05
1.20192e-05
1.12082e-05
6.22382e-05
0.000186001
0.000159051
5.4141e-05
9.73588e-06
8.90473e-06
4.94801e-05
0.000145806
0.000132885
4.43235e-05
8.5673e-06
9.21378e-06
4.17253e-05
0.000133394
0.000137971
4.29062e-05
1.05888e-05
1.23303e-05
4.53226e-05
0.000146685
0.000159907
4.9526e-05
1.39532e-05
1.51015e-05
5.43345e-05
0.000174436
0.000194977
6.03111e-05
1.61423e-05
1.70172e-05
6.58885e-05
0.000212649
0.000239742
7.25922e-05
1.77609e-05
1.83461e-05
7.85091e-05
0.00025906
0.000290503
8.61291e-05
1.88242e-05
1.91615e-05
9.20895e-05
0.000309254
0.000342553
0.000100074
1.94234e-05
1.95684e-05
0.000106013
0.000359985
0.000391795
0.000113302
1.9571e-05
1.94994e-05
0.000118756
0.000406024
0.000430588
0.000125066
1.94266e-05
1.91502e-05
0.000126796
0.000439125
0.000455167
0.000130249
1.88336e-05
1.83666e-05
0.000128755
0.000455827
0.000461895
0.000130476
1.78553e-05
1.71721e-05
0.000125338
0.000448482
0.00044138
0.000124496
1.6462e-05
1.55312e-05
0.000115025
0.000408773
0.000388272
0.000112115
1.45956e-05
1.33959e-05
9.98311e-05
0.000335877
0.000308095
9.60487e-05
1.19552e-05
9.05329e-06
8.46879e-05
0.000249303
0.000221371
8.28045e-05
6.82457e-06
3.90217e-06
6.79416e-05
0.00015761
0.000133648
6.55898e-05
2.41424e-06
3.5738e-06
7.81784e-05
9.94479e-05
0.000127434
0.000152723
0.000149371
0.000149608
0.0001406
0.000138327
0.000133781
0.00013275
0.000131557
0.00013246
0.000134
0.000137211
0.000141761
0.000147632
0.000154289
0.000162136
0.000169834
0.000175963
0.000197721
0.000189096
8.32199e-05
1.1945e-05
1.97627e-05
2.33996e-05
1.90864e-05
1.22205e-05
6.47169e-07
9.65423e-08
7.74313e-07
5.43382e-06
1.13116e-05
6.98472e-07
7.53158e-08
1.75455e-07
8.9541e-07
1.46313e-05
1.66488e-05
8.63902e-07
1.6147e-07
1.66592e-07
8.99958e-07
1.81952e-05
1.37712e-05
7.1517e-07
1.22784e-07
1.03552e-07
7.52765e-07
1.51845e-05
1.83418e-05
1.00483e-06
1.18293e-07
2.58282e-07
4.74796e-06
5.61878e-05
6.56733e-05
8.27945e-06
4.79359e-07
4.951e-07
7.64227e-06
5.48722e-05
3.79315e-05
5.26249e-06
4.27475e-07
2.58417e-07
2.07551e-06
1.48644e-05
1.4563e-05
1.51796e-06
1.7627e-07
1.39451e-07
2.79382e-06
2.65541e-05
3.40308e-05
3.62137e-06
1.294e-07
7.74954e-08
5.04169e-06
4.6531e-05
5.44313e-05
6.80733e-06
1.25487e-07
3.66932e-07
1.11184e-05
7.29545e-05
7.76972e-05
1.32798e-05
6.93685e-07
1.20175e-06
1.89731e-05
9.93443e-05
0.00010346
2.09238e-05
1.70317e-06
2.33933e-06
2.62092e-05
0.000125812
0.00012909
2.73615e-05
2.91712e-06
3.68854e-06
3.3982e-05
0.000154386
0.000155905
3.43823e-05
4.33858e-06
5.16794e-06
4.09218e-05
0.000183284
0.000184588
4.09223e-05
5.90642e-06
6.90384e-06
4.90692e-05
0.000217527
0.000220549
4.91903e-05
7.795e-06
9.08443e-06
6.01714e-05
0.000261999
0.000267589
6.12984e-05
1.02571e-05
1.16772e-05
7.89583e-05
0.00032561
0.000332047
8.11244e-05
1.24737e-05
1.37958e-05
0.000105334
0.000409854
0.000416127
0.000107515
1.46268e-05
1.64027e-05
0.000137806
0.000512985
0.000529863
0.000146536
1.77377e-05
2.04016e-05
0.000190477
0.000647888
0.000677867
0.00020571
2.2508e-05
2.70243e-05
0.000263273
0.000811865
0.000868884
0.00028272
3.27216e-05
2.66789e-05
0.000347427
0.000931014
0.000313866
6.99573e-05
8.78311e-06
2.01172e-05
0.000320723
0.000926577
0.00106656
0.00035069
2.6781e-05
3.83829e-05
0.000474836
0.00135369
0.00157047
0.000569264
4.80344e-05
3.31854e-05
0.000518796
0.00142721
0.000964379
0.000306105
1.36568e-05
4.08205e-05
0.000564778
0.00152562
0.00165381
0.000964423
7.73922e-05
4.23411e-05
0.000298004
0.000915423
0.00098442
0.00051422
4.36864e-05
9.24489e-05
0.000766614
0.000980907
0.000891326
0.000823831
6.61433e-05
2.91053e-05
0.000223743
0.000540105
0.000515657
0.000332192
4.13369e-05
5.2995e-05
0.000396825
0.000782359
0.000869597
0.000693743
5.4577e-05
4.40509e-05
0.000199486
0.000507534
0.000570186
0.000237074
3.87745e-05
6.59704e-05
0.00048687
0.000920061
0.000668421
0.000340793
6.78496e-05
3.86392e-05
0.000127309
0.000240681
0.000417603
0.000290932
3.92803e-05
3.66098e-05
0.000132616
0.000236822
0.000397693
0.000287226
3.75636e-05
3.62736e-05
0.000134107
0.000234445
0.000393256
0.000251544
3.73046e-05
4.18174e-05
0.000207242
0.000344045
0.000155201
8.1053e-05
2.63662e-05
2.6386e-05
0.000205639
0.000268101
0.000163037
9.52293e-05
2.7944e-05
2.82289e-05
0.000186285
0.000284898
0.000250946
0.000157087
3.14292e-05
2.23985e-05
6.30109e-05
0.000118791
0.000201472
0.000159742
2.11864e-05
2.38831e-05
7.38843e-05
0.000123446
0.000210353
0.000162433
2.2105e-05
2.47305e-05
7.65408e-05
0.000128928
0.0002173
0.000140066
2.28782e-05
2.64983e-05
0.000115785
0.000189453
9.04441e-05
5.04365e-05
1.96466e-05
1.7984e-05
0.000124681
0.000152537
9.45737e-05
6.04917e-05
2.13144e-05
1.86296e-05
0.000126839
0.000153503
9.5629e-05
6.24471e-05
2.16593e-05
1.87802e-05
0.000119653
0.000156572
9.66067e-05
6.174e-05
2.16155e-05
1.88634e-05
0.000116541
0.000158559
9.87515e-05
6.28466e-05
2.18586e-05
1.96161e-05
0.000105149
0.000168279
0.000145866
8.92764e-05
2.37333e-05
1.8067e-05
4.77576e-05
7.45576e-05
0.000116547
9.67368e-05
1.59794e-05
2.00208e-05
5.52617e-05
7.63205e-05
0.00011953
9.9493e-05
1.67766e-05
2.02935e-05
5.68955e-05
7.78477e-05
0.000122718
9.40198e-05
1.69739e-05
2.03179e-05
5.67378e-05
7.95244e-05
0.000124305
9.39975e-05
1.67162e-05
2.02452e-05
5.66343e-05
7.99431e-05
0.00012289
9.31981e-05
1.68096e-05
2.00246e-05
5.73728e-05
7.97358e-05
0.000122038
9.16248e-05
1.64906e-05
2.01248e-05
5.78595e-05
7.99316e-05
0.000120806
9.26022e-05
1.65984e-05
1.99347e-05
5.79619e-05
7.95082e-05
0.000118797
9.08866e-05
1.63614e-05
2.00076e-05
5.83698e-05
7.91578e-05
0.00011714
9.08234e-05
1.64736e-05
1.98997e-05
5.81994e-05
7.82007e-05
0.000115262
8.94634e-05
1.62741e-05
1.99448e-05
5.85715e-05
7.74004e-05
0.00011325
8.89913e-05
1.62697e-05
1.98159e-05
5.8059e-05
7.62598e-05
0.000111052
8.72068e-05
1.6074e-05
1.98838e-05
5.81478e-05
7.5168e-05
0.00010779
8.65137e-05
1.61269e-05
1.97075e-05
5.62847e-05
7.29933e-05
0.000100655
8.45421e-05
1.57356e-05
1.9196e-05
5.32132e-05
6.72126e-05
8.78619e-05
5.68258e-05
1.72508e-05
2.18992e-05
7.82548e-05
0.00014019
9.3202e-05
6.83556e-05
2.24277e-05
1.7261e-05
0.000107115
0.000130401
8.99262e-05
6.94088e-05
2.01625e-05
1.65964e-05
0.000106466
0.000128338
8.80629e-05
6.79455e-05
1.99727e-05
1.63083e-05
0.000102662
0.000123923
8.52185e-05
6.66295e-05
2.00173e-05
1.65219e-05
9.72098e-05
0.000119509
8.28433e-05
6.56044e-05
2.01751e-05
1.62654e-05
9.59909e-05
0.000114478
7.86301e-05
6.22492e-05
1.98789e-05
1.58571e-05
9.09462e-05
0.000105839
7.20658e-05
5.86207e-05
1.95316e-05
1.76305e-05
6.15643e-05
9.10437e-05
0.000141168
8.02513e-05
2.24928e-05
2.34884e-05
7.44487e-05
9.6596e-05
0.000133439
0.000111318
1.79828e-05
2.08778e-05
7.55385e-05
9.36309e-05
0.000130754
0.0001117
1.69397e-05
2.03535e-05
7.33983e-05
9.10732e-05
0.000125553
0.000107986
1.6431e-05
2.0089e-05
6.97835e-05
8.71894e-05
0.000116371
0.000101367
1.61373e-05
1.96394e-05
6.51274e-05
7.96038e-05
0.000100091
6.90188e-05
1.78051e-05
2.29274e-05
8.88309e-05
0.000149755
0.000104523
8.19606e-05
2.41165e-05
1.8421e-05
0.000119238
0.000139247
9.95285e-05
8.1609e-05
2.17335e-05
1.75756e-05
0.000116332
0.000134797
9.59732e-05
7.87863e-05
2.12155e-05
1.71532e-05
0.000111133
0.00012846
9.11733e-05
7.45481e-05
2.08933e-05
1.67046e-05
0.00010545
0.000118176
8.24278e-05
6.87048e-05
2.00412e-05
1.82152e-05
7.20589e-05
0.00010113
0.00014903
8.9268e-05
2.35909e-05
2.51229e-05
8.6292e-05
0.00010594
0.00014078
0.000120765
1.92794e-05
2.29496e-05
8.70972e-05
0.000102055
0.000138496
0.000121405
1.83643e-05
2.22015e-05
8.3322e-05
9.92421e-05
0.000129457
0.000116864
1.75096e-05
2.10133e-05
7.7216e-05
9.1135e-05
0.00011303
8.08083e-05
1.89066e-05
2.44688e-05
0.000100598
0.000164111
0.000117591
9.60063e-05
2.63105e-05
2.01562e-05
0.000133676
0.000152737
0.000111621
9.55757e-05
2.41322e-05
1.93141e-05
0.000131097
0.000148068
0.000108269
9.27736e-05
2.37407e-05
1.90506e-05
0.000125014
0.000142652
0.000103883
8.8388e-05
2.34375e-05
1.83987e-05
0.000120124
0.000132512
9.53606e-05
8.21668e-05
2.22508e-05
2.00512e-05
8.49859e-05
0.000114351
0.000165122
0.000101905
2.59265e-05
2.80106e-05
0.000102631
0.000120614
0.000155824
0.000137259
2.13209e-05
2.57841e-05
0.000103554
0.000116194
0.0001551
0.000137486
2.058e-05
2.54961e-05
0.000101436
0.000115047
0.000151512
0.000133064
2.04584e-05
2.52572e-05
9.71555e-05
0.000111764
0.000142186
0.0001281
1.98705e-05
2.40895e-05
9.12076e-05
0.000103545
0.000125171
9.43452e-05
2.16762e-05
2.78864e-05
0.00011032
0.000173209
0.000129048
0.00011215
3.00778e-05
2.29484e-05
0.000145319
0.000163817
0.000124562
0.000112521
2.77937e-05
2.20821e-05
0.000144274
0.000161188
0.000121986
0.00010952
2.72701e-05
2.16516e-05
0.000139843
0.00015717
0.000119093
0.000106163
2.71902e-05
2.1545e-05
0.000135494
0.000150313
0.000112674
0.000100922
2.61658e-05
2.36692e-05
0.000103569
0.000134951
0.000184442
0.000118431
3.01058e-05
3.24981e-05
0.000125432
0.00013908
0.000179663
0.000158365
2.4959e-05
3.02981e-05
0.00012791
0.000137845
0.000181649
0.000160905
2.42909e-05
3.00054e-05
0.00012707
0.000138518
0.000181353
0.000160353
2.37002e-05
2.96947e-05
0.00012465
0.000137739
0.000179487
0.000155907
2.3786e-05
3.01472e-05
0.000125508
0.000137697
0.000178453
0.0001551
2.43098e-05
3.04189e-05
0.000125475
0.000137902
0.000176986
0.000155279
2.40906e-05
3.02279e-05
0.000123766
0.000136846
0.000174117
0.000152435
2.40339e-05
3.06716e-05
0.000125134
0.000136789
0.00017313
0.0001519
2.46546e-05
3.09688e-05
0.000124978
0.000137077
0.000171086
0.000152897
2.42998e-05
3.04652e-05
0.000120734
0.000135074
0.000163804
0.00014836
2.3857e-05
2.98373e-05
0.000119199
0.000130868
0.000148786
0.000122166
2.73283e-05
3.4881e-05
0.000130011
0.000196083
0.00015461
0.000149139
3.75467e-05
2.83021e-05
0.000176684
0.000198216
0.00015776
0.000159938
3.53892e-05
3.00201e-05
0.000176391
0.000223161
0.00020414
0.000168628
3.86733e-05
3.07657e-05
0.000142003
0.000149208
0.000180219
0.000181379
2.44348e-05
3.29339e-05
0.000142464
0.000148674
0.000186408
0.000163654
2.67319e-05
3.46737e-05
0.000141475
0.000151728
0.000187951
0.000161921
2.74753e-05
3.44653e-05
0.00014183
0.000152333
0.00018776
0.000163713
2.67247e-05
3.50197e-05
0.000148983
0.000155291
0.000192811
0.000169067
2.79831e-05
3.56168e-05
0.000153995
0.000159581
0.000198068
0.000175006
2.70136e-05
3.54107e-05
0.000161192
0.000161858
0.000218027
0.000172756
3.04405e-05
4.00938e-05
0.000169072
0.000201773
0.00015471
0.000154235
3.25888e-05
2.56854e-05
0.000180538
0.00018446
0.000158869
0.000158832
3.59145e-05
2.90932e-05
0.000171039
0.00019562
0.000163771
0.000167682
3.80709e-05
3.10563e-05
0.000175079
0.000221268
0.000205738
0.000173215
4.16192e-05
3.59787e-05
0.000171818
0.000160348
0.000209153
0.000183091
2.98991e-05
4.12573e-05
0.00017917
0.000201078
0.000164092
0.000176027
3.7768e-05
3.05422e-05
0.000185513
0.000210371
0.00020084
0.000189706
4.61066e-05
4.0592e-05
0.000178105
0.000188271
0.000157977
0.000169632
3.91837e-05
3.42679e-05
0.000173824
0.000200535
0.000194349
0.000176857
5.03647e-05
5.61708e-05
0.000195502
0.00018806
0.000184631
0.000192142
6.42464e-05
8.00183e-05
0.000203078
0.000190648
0.000197696
0.000211325
9.28983e-05
0.000100846
0.000235172
0.000206725
0.000211558
0.000243874
9.96798e-05
9.5809e-05
0.000256069
0.000216071
0.000223277
0.000268431
9.07974e-05
8.59237e-05
0.000276732
0.00022943
0.000238039
0.000292023
8.11259e-05
7.66238e-05
0.000299786
0.000247791
0.000258002
0.000311704
7.2557e-05
6.91382e-05
0.000314112
0.000276547
0.000289408
0.000314822
6.60809e-05
6.34908e-05
0.000316848
0.000314789
0.000327842
0.000318481
6.11644e-05
5.91891e-05
0.000321664
0.000353874
0.000367007
0.000325143
5.74548e-05
5.59865e-05
0.000329776
0.000393614
0.000404929
0.000334862
5.4761e-05
5.37306e-05
0.000340755
0.000430634
0.000432722
0.000347519
5.29612e-05
5.22954e-05
0.000354659
0.00045804
0.00046089
0.000362566
5.19251e-05
5.15172e-05
0.000370476
0.000485557
0.000488496
0.000379289
5.15136e-05
5.11824e-05
0.000387793
0.000512761
0.000515394
0.000397324
5.16137e-05
5.14264e-05
0.00040573
0.000538922
0.00054186
0.000415488
5.19335e-05
5.19238e-05
0.000423577
0.000564522
0.000566818
0.000432491
5.24092e-05
5.24562e-05
0.000439728
0.000587826
0.000589914
0.000447807
5.28978e-05
5.29404e-05
0.000454217
0.000609214
0.000610997
0.000461155
5.33351e-05
5.33404e-05
0.000466587
0.00062901
0.000630913
0.000472485
5.37206e-05
5.36663e-05
0.000477312
0.000647636
0.000649504
0.00048208
5.40111e-05
5.39228e-05
0.000486174
0.000665517
0.000668314
0.000490089
5.42443e-05
5.41157e-05
0.000493847
0.000682804
0.000686011
0.000496935
5.4416e-05
5.42716e-05
0.000500224
0.000699971
0.00070314
0.000502741
5.4564e-05
5.43931e-05
0.000505824
0.000716942
0.000719053
0.00050777
5.46706e-05
5.44955e-05
0.000510403
0.000733155
0.000734737
0.000512
5.47664e-05
5.45735e-05
0.000514377
0.000748414
0.000749506
0.000515563
5.48299e-05
5.46396e-05
0.000517461
0.000763047
0.000764019
0.000518423
5.48885e-05
5.46859e-05
0.000520055
0.000776887
0.000777315
0.000520688
5.49182e-05
5.47226e-05
0.00052185
0.000790125
0.000790377
0.000522314
5.49451e-05
5.47416e-05
0.000523242
0.000802488
0.000802146
0.000523425
5.49466e-05
5.4753e-05
0.000523939
0.000814251
0.000813689
0.000523992
5.49481e-05
5.47508e-05
0.000524333
0.000825079
0.000823894
0.000524139
5.49297e-05
5.47435e-05
0.000524136
0.000835258
0.000833868
0.000523868
5.49133e-05
5.47267e-05
0.000523756
0.000844608
0.00084249
0.00052327
5.48817e-05
5.47061e-05
0.000522901
0.000853255
0.000850942
0.000522386
5.48521e-05
5.46806e-05
0.000521957
0.000860624
0.000858151
0.000521234
5.48156e-05
5.46565e-05
0.000520589
0.000862838
0.000864606
0.000519844
5.47815e-05
5.46267e-05
0.000519154
0.000864278
0.000869482
0.000518164
5.47396e-05
5.45963e-05
0.000517257
0.000865081
0.000873791
0.000516127
5.46991e-05
5.45605e-05
0.000515262
0.000865534
0.000874819
0.000514062
5.46528e-05
5.45241e-05
0.00051303
0.00086526
0.000874318
0.000511885
5.46095e-05
5.44851e-05
0.000510829
0.000864337
0.000872973
0.000509463
5.45601e-05
5.44439e-05
0.000508269
0.00086307
0.000871508
0.00050695
5.45118e-05
5.44002e-05
0.000505789
0.00086134
0.000869432
0.000504278
5.44592e-05
5.43554e-05
0.000503039
0.000859435
0.000867397
0.000501607
5.44089e-05
5.43094e-05
0.000500451
0.000857201
0.000864884
0.00049886
5.43564e-05
5.4264e-05
0.000497671
0.00085495
0.000862549
0.000496187
5.43077e-05
5.42196e-05
0.00049513
0.00085248
0.000859845
0.000493507
5.4259e-05
5.41774e-05
0.000492445
0.000850084
0.000857398
0.000490943
5.42152e-05
5.41375e-05
0.000490038
0.0008476
0.000854547
0.000488407
5.41725e-05
5.41008e-05
0.000487509
0.000845242
0.000852229
0.000486011
5.4135e-05
5.40667e-05
0.00048528
0.00084289
0.0008494
0.000483674
5.40989e-05
5.4036e-05
0.000482951
0.000840543
0.000847191
0.000481485
5.40681e-05
5.40082e-05
0.00048093
0.000838262
0.000844433
0.000479361
5.40389e-05
5.39838e-05
0.000478807
0.000835975
0.000842313
0.000477384
5.40146e-05
5.39619e-05
0.000476992
0.000833767
0.000839668
0.000475473
5.39917e-05
5.39432e-05
0.000475074
0.000831567
0.000837687
0.000473704
5.39733e-05
5.39267e-05
0.000473458
0.000829447
0.000835201
0.000471996
5.39562e-05
5.39134e-05
0.000471731
0.000827329
0.000833407
0.000470412
5.39428e-05
5.39016e-05
0.000470298
0.000825276
0.000831142
0.0004689
5.39305e-05
5.38927e-05
0.000468745
0.000823246
0.000829552
0.000467526
5.3922e-05
5.38853e-05
0.000467476
0.000821333
0.000827427
0.000466177
5.39139e-05
5.38801e-05
0.000466081
0.000819446
0.000825967
0.000464956
5.39091e-05
5.38762e-05
0.000464963
0.000817676
0.00082397
0.000463753
5.39045e-05
5.38743e-05
0.000463711
0.000815928
0.000822641
0.000462668
5.39029e-05
5.38734e-05
0.000462727
0.0008143
0.000820768
0.000461596
5.39014e-05
5.38743e-05
0.000461603
0.000812679
0.000819553
0.000460633
5.39025e-05
5.3876e-05
0.000460739
0.000811171
0.000817794
0.000459677
5.39034e-05
5.38791e-05
0.000459728
0.000809674
0.0008167
0.000458823
5.39067e-05
5.38829e-05
0.000458971
0.000808295
0.000815061
0.00045797
5.39098e-05
5.38879e-05
0.000458061
0.000806923
0.000814077
0.000457214
5.39149e-05
5.38933e-05
0.0004574
0.000805656
0.000812544
0.000456455
5.39196e-05
5.38999e-05
0.000456583
0.000804408
0.000811645
0.000455786
5.39264e-05
5.39068e-05
0.000456007
0.000803266
0.000810203
0.000455109
5.39327e-05
5.39148e-05
0.000455272
0.000802141
0.000809373
0.000454518
5.39408e-05
5.3923e-05
0.000454773
0.000801093
0.000808024
0.000453916
5.39484e-05
5.39322e-05
0.00045411
0.000800061
0.000807292
0.000453393
5.39576e-05
5.39414e-05
0.000453678
0.000799111
0.00080604
0.000452857
5.39662e-05
5.39515e-05
0.00045308
0.000798163
0.000805385
0.000452396
5.39763e-05
5.39615e-05
0.000452708
0.000797281
0.000804201
0.000451919
5.39859e-05
5.39724e-05
0.000452168
0.000796405
0.000803623
0.000451514
5.39968e-05
5.39833e-05
0.000451849
0.000795599
0.000802523
0.000451088
5.40071e-05
5.39948e-05
0.000451357
0.000794773
0.000802006
0.000450728
5.40186e-05
5.40061e-05
0.000451083
0.000794025
0.000800959
0.000450347
5.40294e-05
5.4018e-05
0.000450635
0.000793253
0.000800503
0.00045003
5.40414e-05
5.40297e-05
0.000450403
0.000792577
0.000799538
0.000449691
5.40526e-05
5.40419e-05
0.000449997
0.000791887
0.000799156
0.000449414
5.40652e-05
5.40541e-05
0.000449804
0.000791273
0.00079824
0.000449114
5.4077e-05
5.40669e-05
0.000449436
0.000790626
0.000797904
0.000448874
5.40903e-05
5.40797e-05
0.000449279
0.000790068
0.000797054
0.000448608
5.41031e-05
5.40935e-05
0.000448944
0.000789487
0.000796775
0.000448398
5.41174e-05
5.41074e-05
0.000448816
0.000788971
0.000795954
0.000448158
5.41313e-05
5.41225e-05
0.000448505
0.000788413
0.000795698
0.00044797
5.41468e-05
5.41378e-05
0.000448396
0.000787928
0.000794914
0.000447747
5.41618e-05
5.41542e-05
0.0004481
0.000787401
0.000794675
0.000447567
5.41781e-05
5.41707e-05
0.000447981
0.000786836
0.00079394
0.000447362
5.41919e-05
5.4186e-05
0.000447802
0.000786419
0.000793425
0.000447471
5.42456e-05
5.42667e-05
0.000447806
0.000786171
0.000793213
0.000447097
5.42856e-05
5.43102e-05
0.000447669
0.000785792
0.000793541
0.000447412
5.44627e-05
5.44671e-05
0.000448474
0.000785825
0.000799104
0.00044961
5.48508e-05
5.50573e-05
0.000451228
0.000791546
0.000810281
0.000455053
5.58182e-05
5.60739e-05
0.00045769
0.000804982
0.000829771
0.000466029
5.80728e-05
6.01386e-05
0.000480684
0.00088028
0.000922111
0.000502972
6.29028e-05
0.0014889
0.00238033
0.00344345
0.0037975
0.00469468
0.00902548
0.0116852
0.0128202
0.013884
0.0246592
0.0302636
0.0369334
0.0455816
0.058397
0.0787575
0.110204
0.15639
0.219828
0.302232
0.404154
0.525125
0.663545
0.81694
0.98153
1.15327
1.32483
1.49038
1.63722
1.75916
1.84767
1.90324
1.92954
1.95284
1.99448
2.05291
2.12613
2.21131
2.30833
2.41574
2.53583
2.67014
2.82261
2.99774
3.20221
3.44558
3.743
2.64837
1.72897
1.28372
1.06742
0.94141
0.846085
0.761157
0.682988
0.611948
0.547918
0.490092
0.437676
0.390198
0.347414
0.309124
0.275069
0.244908
0.218258
0.194731
0.173967
0.155642
0.139474
0.125214
0.112646
0.101577
0.0918384
0.0832809
0.0757723
0.0691958
0.0634479
0.0584366
0.0540807
0.0503073
0.0470516
0.0442564
0.0418705
0.0398487
0.038151
0.0367425
0.0355923
0.0346737
0.0339636
0.0334419
0.0330917
0.0328982
0.0328492
0.0329341
0.0331444
0.0334728
0.0339134
0.0344613
0.0351128
0.0358651
0.0367155
0.0376635
0.0387083
0.0398498
0.0410882
0.0424242
0.0438593
0.0453955
0.0470352
0.0487811
0.0506368
0.0526061
0.0546937
0.0569043
0.0592439
0.0617191
0.0643374
0.0671072
0.0700383
0.0731415
0.0764291
0.0799146
0.0836132
0.0875421
0.0917198
0.0961665
0.100905
0.105959
0.111357
0.11713
0.123313
0.129947
0.137082
0.144774
0.153094
0.162122
0.171957
0.182718
0.194548
0.207627
0.222177
0.23848
0.256895
0.277886
0.302059
0.330244
0.363612
0.403935
0.454041
0.518694
0.606046
0.731753
0.929521
1.27967
2.0545
4.36335
13.6347
62.3014
29.7694
10.356
3.53993
1.53445
0.892447
0.661171
0.566357
0.516176
0.477885
0.441861
0.40722
0.375309
0.347068
0.322601
0.301512
0.28326
0.267341
0.25335
0.240968
0.229942
0.220108
0.211331
0.203463
0.196389
0.190022
0.184295
0.179154
0.174555
0.170459
0.166835
0.163655
0.160896
0.158542
0.156583
0.155015
0.153845
0.153045
0.152607
0.152566
0.152954
0.153808
0.155163
0.157062
0.159562
0.162739
0.16669
0.171537
0.177438
0.184561
0.193017
0.202712
0.213173
0.223668
0.234489
0.250416
0.286179
0.376476
0.599206
1.04567
0.974223
0.447932
0.121323
0.0537096
0.0183076
0.0155885
0.0143153
0.0128106
0.012124
0.0111476
0.0107192
0.0100111
0.00971756
0.00917289
0.00895273
0.00851865
0.00834694
0.00798851
0.00785025
0.00754523
0.0074312
0.00716551
0.00706947
0.00683401
0.00675121
0.00653999
0.00646694
0.00627544
0.00621003
0.00603436
0.00597504
0.00581235
0.00575798
0.00560607
0.00555571
0.00541277
0.00536563
0.00523017
0.00518561
0.00505636
0.00501381
0.00488967
0.00484864
0.00472865
0.00468868
0.00457196
0.00453267
0.00441851
0.00437956
0.00426727
0.00422827
0.00411711
0.00407762
0.00396678
0.00392625
0.00381472
0.00377277
0.00365978
0.00361574
0.00350009
0.00345316
0.0033334
0.00328251
0.00315682
0.00310047
0.00296629
0.00290211
0.00275554
0.00267953
0.00251437
0.00241947
0.00222805
0.00209526
0.0018218
0.00157487
0.00128063
0.00101917
0.000696402
0.000594734
0.000615305
0.000746359
0.000900644
0.000309139
0.000167573
0.00017117
0.000264962
0.000420451
0.000469918
0.000612558
0.000663904
0.000711967
0.000688824
0.000663795
0.000605322
0.000577743
0.000550652
0.000559475
0.000581525
0.000611353
0.000666543
0.000713103
0.000783651
0.00083613
0.000913033
0.000963119
0.00103802
0.00107855
0.00114154
0.00117003
0.00120986
0.00122372
0.00124137
0.00123247
0.0012289
0.00119839
0.00117447
0.00110733
0.00106035
0.000951564
0.000879707
0.000724531
0.000639338
0.000467717
0.000389088
0.000234658
0.000169436
0.000224223
0.000289412
0.000577804
0.000369286
0.000667875
0.0010007
0.00125181
0.000807495
0.00109544
0.00154893
0.00206202
0.00129949
0.000849013
0.000382632
0.000490487
0.00109682
0.00146921
0.00203289
0.00136453
0.000626189
0.000754728
0.00153616
0.00216106
0.00285076
0.0036419
0.00289078
0.00179271
0.0012734
0.00150656
0.00196769
0.00217187
0.00160951
0.00180152
0.00249629
0.0033523
0.00361696
0.00244111
0.00183802
0.00196974
0.00271173
0.00261901
0.00198134
0.00207239
0.00283984
0.00377205
0.00385942
0.00269819
0.00205082
0.00211355
0.00288775
0.0027211
0.00206596
0.00209942
0.00287502
0.00385991
0.0038138
0.00269732
0.00203315
0.0020345
0.00282157
0.00263661
0.00195257
0.0019397
0.00273518
0.00370268
0.00356704
0.0025404
0.00183456
0.00181037
0.00261694
0.00239386
0.00168718
0.00165671
0.00246887
0.00312322
0.00259307
0.00223656
0.00152688
0.00149654
0.00231059
0.00208958
0.00138026
0.00136166
0.00215174
0.00192295
0.00117033
0.00173134
0.00129054
0.00130297
0.0017058
0.00112655
0.00130055
0.00119805
0.0011905
0.000880102
0.00133456
0.000746747
0.00134521
0.00120515
0.00109278
0.000705697
0.00138436
0.000728415
0.000715025
0.00157825
0.00172578
0.000498453
0.000577481
0.000354031
0.000519354
0.000671391
0.000292515
0.000218457
0.000909277
0.00253585
0.00341099
0.00127476
0.000439378
0.000858114
0.00162604
0.00194526
0.00103514
0.00120947
0.00206112
0.00490867
0.00682843
0.00270232
0.00121268
0.00129032
0.00287231
0.00420435
0.00175951
0.0020013
0.00409183
0.00883186
0.011036
0.00567026
0.00271327
0.00303729
0.00550352
0.00685836
0.00373673
0.00399362
0.00680402
0.0129943
0.0148042
0.00801431
0.00455265
0.00470822
0.00786765
0.00928737
0.00519906
0.00528737
0.00876687
0.0164761
0.0180632
0.0101631
0.00573878
0.00578601
0.00955882
0.01096
0.00621207
0.00622993
0.0102824
0.0195603
0.0210142
0.0117067
0.0066433
0.00664187
0.010962
0.012407
0.00704615
0.00703153
0.0116108
0.0224514
0.0238865
0.0130855
0.00742892
0.00740327
0.012239
0.0137496
0.00779783
0.00776281
0.0128539
0.0253301
0.0267922
0.0144049
0.00815778
0.00811481
0.0134611
0.0150559
0.00851308
0.00846349
0.014066
0.0282802
0.029801
0.0157083
0.00886696
0.00881074
0.014675
0.0163689
0.00922158
0.00915983
0.015289
0.0313569
0.0329515
0.0170447
0.0095805
0.00951415
0.0159145
0.0177399
0.00994725
0.00987727
0.0165627
0.0345909
0.036292
0.018463
0.0103253
0.0102526
0.0172456
0.0192292
0.0107178
0.0106426
0.0179675
0.0380898
0.0400077
0.0200416
0.0111275
0.0110504
0.018732
0.0209047
0.0115582
0.0114802
0.0195475
0.042078
0.0443308
0.021829
0.0120146
0.0119365
0.0204244
0.022827
0.0125022
0.0124252
0.0213753
0.0468049
0.0495478
0.0239138
0.0130275
0.0129531
0.0224156
0.0251084
0.0135987
0.0135287
0.0235649
0.0526198
0.0560946
0.0264347
0.0142259
0.0141625
0.0248472
0.0279229
0.0149211
0.0148665
0.0262871
0.0600578
0.0646028
0.0296035
0.0157005
0.0156591
0.0279166
0.0315355
0.0165882
0.016566
0.0298044
0.0699148
0.0762723
0.0337958
0.0176164
0.0176216
0.0320321
0.0364917
0.0188295
0.0188752
0.0347218
0.0840683
0.0938898
0.0397846
0.0202922
0.0203981
0.0380589
0.0439372
0.0221148
0.0223425
0.0423413
0.106687
0.124116
0.0493499
0.0244671
0.0248949
0.0480502
0.0567937
0.0276673
0.0284322
0.0561639
0.149428
0.190124
0.0677242
0.0323087
0.0338405
0.0688478
0.0855557
0.0396172
0.0433854
0.092492
0.266498
0.585795
0.41066
0.317458
0.260303
0.221351
0.192879
0.171045
0.153738
0.139611
0.127679
0.117498
0.108713
0.101055
0.094317
0.0883338
0.0829733
0.0781295
0.0737168
0.0696642
0.0659161
0.0624124
0.0577773
0.0529524
0.048484
0.0444017
0.0406648
0.0372476
0.0341236
0.031259
0.0286349
0.0262555
0.0241626
0.0224158