/*--------------------------------*- C++ -*----------------------------------*\
| =========                 |                                                 |
| \\      /  F ield         | OpenFOAM: The Open Source CFD Toolbox           |
|  \\    /   O peration     | Version:  v2006                                 |
|   \\  /    A nd           | Website:  www.openfoam.com                      |
|    \\/     M anipulation  |                                                 |
\*---------------------------------------------------------------------------*/
FoamFile
{
    version     2.0;
    format      ascii;
    class       volScalarField;
    location    "0.07";
    object      turbulenceProperties:L;
}
// * * * * * * * * * * * * * * * * * * * * * * * * * * * * * * * * * * * * * //

dimensions      [0 1 0 0 0 0 0];


internalField   nonuniform List<scalar> 
9148
(
1999.74
1999.84
1999.97
1999.94
1999.87
1999.6
1998.76
1997.24
1995.52
1994.09
1992.91
1991.93
1991.02
1990.16
1989.31
1988.48
1987.67
1986.88
1986.13
1985.4
1984.69
1984.01
1983.36
1982.73
1982.12
1981.54
1980.99
1980.46
1979.97
1979.51
1979.08
1978.69
1978.35
1978.05
1977.79
1977.59
1977.44
1977.34
1977.3
1977.31
1977.39
1977.53
1977.73
1977.99
1978.31
1978.69
1979.11
1979.18
1976.43
1955.99
1893.74
1726.01
1365.8
850.953
412.483
171.2
66.8881
25.9862
10.6303
4.97882
3.21448
2.10258
1.58405
1.30585
1.60208
0.61889
0.255783
0.0968894
0.0254822
0.00317749
0.000591096
4.25352e-05
4.15801e-05
0.000295189
0.00125486
0.00082401
0.000227399
4.07466e-05
4.00171e-05
0.000201562
0.000665744
0.000578253
0.000190318
3.99555e-05
3.95959e-05
0.000179375
0.000525371
0.000482692
0.000174013
3.94629e-05
3.92317e-05
0.000168474
0.000461562
0.000438945
0.000164978
3.90738e-05
3.90053e-05
0.000163946
0.000428978
0.000412483
0.000160782
3.8945e-05
3.88953e-05
0.00016044
0.000407704
0.000395733
0.000157779
3.88374e-05
3.87964e-05
0.000157647
0.000392441
0.000382799
0.000155316
3.87451e-05
3.87089e-05
0.000155219
0.000380334
0.000372084
0.000153156
3.86623e-05
3.86291e-05
0.000153026
0.000370176
0.000362877
0.000151183
3.85858e-05
3.85545e-05
0.00015104
0.00036137
0.000354768
0.000149357
3.85133e-05
3.84832e-05
0.000149208
0.000353546
0.000347496
0.000147649
3.84431e-05
3.84136e-05
0.000147501
0.000346455
0.000340875
0.000146037
3.83741e-05
3.83447e-05
0.000145901
0.000339973
0.000334771
0.000144514
3.83052e-05
3.82754e-05
0.000144394
0.000333977
0.000329089
0.000143067
3.82355e-05
3.82051e-05
0.000142965
0.000328382
0.000323755
0.000141686
3.81643e-05
3.8133e-05
0.000141602
0.000323116
0.000318709
0.00014036
3.80908e-05
3.80582e-05
0.000140293
0.000318123
0.000313901
0.000139079
3.80142e-05
3.79799e-05
0.00013903
0.000313356
0.000309291
0.000137836
3.79338e-05
3.78974e-05
0.000137805
0.000308777
0.000304844
0.000136623
3.78485e-05
3.78097e-05
0.000136608
0.00030435
0.000300524
0.000135431
3.77575e-05
3.77158e-05
0.000135431
0.000300039
0.000296291
0.000134251
3.76598e-05
3.76147e-05
0.000134263
0.00029581
0.000292116
0.000133072
3.75541e-05
3.75049e-05
0.000133092
0.000291624
0.000287961
0.000131882
3.74389e-05
3.73849e-05
0.000131905
0.000287444
0.000283793
0.000130669
3.73122e-05
3.72524e-05
0.000130689
0.000283235
0.000279568
0.000129422
3.71718e-05
3.71048e-05
0.000129434
0.000278961
0.000275251
0.000128129
3.70144e-05
3.69386e-05
0.00012813
0.000274583
0.000270801
0.000126774
3.68361e-05
3.67494e-05
0.000126752
0.000270051
0.00026615
0.000125328
3.66319e-05
3.65315e-05
0.000125278
0.000265299
0.000261226
0.000123766
3.63951e-05
3.62772e-05
0.000123664
0.000260238
0.000255908
0.00012203
3.61165e-05
3.59758e-05
0.000121846
0.000254735
0.000250026
0.000120047
3.5783e-05
3.56105e-05
0.000119735
0.000248598
0.000243411
0.000117706
3.53742e-05
3.51543e-05
0.000117183
0.00024156
0.000235672
0.000114878
3.4858e-05
3.45602e-05
0.000113842
0.00023312
0.00022616
0.000111231
3.41717e-05
3.37404e-05
0.000109339
0.000222315
0.000213869
0.000106147
3.31903e-05
3.25024e-05
0.000102904
0.000207522
0.000196891
9.85756e-05
3.16064e-05
3.03561e-05
9.23671e-05
0.000185585
0.000170459
8.56228e-05
2.87999e-05
2.51783e-05
7.03966e-05
0.00014905
0.000111927
4.49627e-05
1.77173e-05
2.19502e-05
4.26453e-05
8.283e-05
8.67051e-05
7.63843e-05
2.54342e-05
2.65506e-05
0.000105568
0.000127682
0.00017149
0.000132551
2.68056e-05
2.50708e-05
0.000158666
0.000214887
0.000256158
0.000149021
1.80451e-05
1.19911e-05
8.03075e-05
0.000169263
0.000129076
5.08115e-05
9.34454e-06
8.29369e-06
4.14692e-05
0.000110922
0.000101891
3.44829e-05
8.0014e-06
1.13404e-05
3.89256e-05
0.000114593
0.000128823
4.34402e-05
1.37979e-05
1.5753e-05
5.62287e-05
0.000166346
0.000183516
6.26854e-05
1.64954e-05
1.6734e-05
7.22529e-05
0.000200393
0.000199976
7.29924e-05
1.6227e-05
1.54405e-05
7.13935e-05
0.000188963
0.000165962
6.3856e-05
1.43473e-05
1.37598e-05
5.90735e-05
0.000153448
0.000140182
5.36211e-05
1.3512e-05
1.39827e-05
5.06086e-05
0.00013737
0.000138518
5.06022e-05
1.49213e-05
1.60084e-05
5.16667e-05
0.000142202
0.000149407
5.39669e-05
1.71657e-05
1.82711e-05
5.675e-05
0.000157571
0.000169667
6.03275e-05
1.92921e-05
2.01894e-05
6.37315e-05
0.000179774
0.000195626
6.79281e-05
2.09737e-05
2.16309e-05
7.175e-05
0.000206728
0.000225013
7.66825e-05
2.21827e-05
2.2616e-05
8.08225e-05
0.000235997
0.000255522
8.63173e-05
2.29608e-05
2.32021e-05
9.07943e-05
0.000265865
0.00028508
9.64601e-05
2.33335e-05
2.3382e-05
0.00010104
0.000293694
0.000309545
0.000106565
2.33749e-05
2.32258e-05
0.000109234
0.000315331
0.000326586
0.000113017
2.29974e-05
2.26332e-05
0.000114142
0.000329369
0.000335958
0.000117427
2.21716e-05
2.15423e-05
0.000116922
0.000332775
0.000332619
0.00011908
2.07947e-05
1.98235e-05
0.000116362
0.000320467
0.000312668
0.000117266
1.86866e-05
1.73149e-05
0.000112633
0.000289814
0.00027572
0.000112681
1.58773e-05
1.41494e-05
0.000107973
0.000245442
0.00022762
0.000109274
1.24478e-05
9.598e-06
0.000101409
0.000189037
0.000173334
0.000103798
7.65372e-06
1.29549e-05
0.000140918
0.000149509
0.000154621
0.000161732
0.000161957
0.000166598
0.000165882
0.000167471
0.000167417
0.000168063
0.000168247
0.000168536
0.000168629
0.000168712
0.000168768
0.000168642
0.000168553
0.000167796
0.000167655
0.000165873
0.000166648
0.000158528
8.80888e-05
2.29752e-05
3.60708e-05
4.8484e-05
4.5177e-05
3.26561e-05
3.19705e-06
6.81951e-07
4.30631e-06
1.92155e-05
2.90984e-05
3.50524e-06
4.31753e-07
7.7102e-07
4.48895e-06
3.56687e-05
3.79593e-05
4.54119e-06
7.89998e-07
8.05222e-07
4.64333e-06
3.89539e-05
3.16848e-05
3.9979e-06
6.87159e-07
6.26934e-07
4.2135e-06
3.35521e-05
3.65182e-05
4.94086e-06
6.65959e-07
9.77033e-07
1.10394e-05
5.85599e-05
5.64329e-05
1.42482e-05
1.32256e-06
1.34356e-06
1.31708e-05
4.9079e-05
3.6488e-05
1.03035e-05
1.24845e-06
9.71413e-07
6.28468e-06
1.99822e-05
1.89102e-05
5.28153e-06
8.02298e-07
7.13861e-07
6.79325e-06
2.60384e-05
2.93224e-05
7.14105e-06
6.87707e-07
5.32321e-07
8.09712e-06
3.47785e-05
3.79447e-05
9.24781e-06
6.77323e-07
1.1573e-06
1.18344e-05
4.53957e-05
4.68728e-05
1.2861e-05
1.58931e-06
2.08826e-06
1.55457e-05
5.49502e-05
5.6048e-05
1.6329e-05
2.48098e-06
2.90242e-06
1.84549e-05
6.30639e-05
6.35623e-05
1.87488e-05
3.23489e-06
3.62741e-06
2.13161e-05
7.10891e-05
7.06569e-05
2.12208e-05
3.92533e-06
4.2729e-06
2.35622e-05
7.76704e-05
7.69766e-05
2.32736e-05
4.55668e-06
4.91005e-06
2.5943e-05
8.47573e-05
8.43944e-05
2.56398e-05
5.20162e-06
5.591e-06
2.88837e-05
9.35081e-05
9.36624e-05
2.88295e-05
5.91789e-06
6.28422e-06
3.38069e-05
0.000105737
0.000106164
3.42189e-05
6.47775e-06
6.85971e-06
4.04435e-05
0.000121473
0.000121753
4.09566e-05
7.17238e-06
7.73227e-06
4.78204e-05
0.000139333
0.000141455
4.9979e-05
8.28741e-06
9.17986e-06
5.93452e-05
0.000161312
0.000164754
6.26221e-05
1.00344e-05
1.14388e-05
7.33825e-05
0.000184393
0.000189175
7.53219e-05
1.33562e-05
9.87542e-06
8.28452e-05
0.00019253
7.80983e-05
2.34715e-05
4.60652e-06
8.35393e-06
7.6865e-05
0.000185363
0.000203873
8.08713e-05
1.07236e-05
1.3712e-05
9.94129e-05
0.000240941
0.000262789
0.000111194
1.61985e-05
1.12485e-05
9.77715e-05
0.000233459
0.000162192
6.20515e-05
5.94856e-06
1.21003e-05
9.63665e-05
0.000228588
0.000344129
0.000143574
1.74571e-05
1.18932e-05
5.43455e-05
0.000134391
0.000185184
7.86279e-05
9.94376e-06
1.84163e-05
0.000143023
0.000330646
0.000255128
0.000157862
1.72061e-05
8.73635e-06
3.28237e-05
8.80124e-05
0.000178442
9.06109e-05
1.18925e-05
1.61052e-05
9.08144e-05
0.000193661
0.000244828
7.303e-05
1.70554e-05
1.33458e-05
2.42601e-05
5.75887e-05
6.68097e-05
3.07503e-05
1.11096e-05
1.92113e-05
6.02973e-05
0.000105872
8.2221e-05
4.52686e-05
1.94639e-05
1.10226e-05
1.98931e-05
3.58519e-05
5.85626e-05
4.30281e-05
1.19269e-05
1.20929e-05
2.25166e-05
3.82343e-05
6.10967e-05
4.62508e-05
1.31623e-05
1.35776e-05
2.46567e-05
4.11077e-05
6.54651e-05
4.46174e-05
1.53946e-05
1.71056e-05
3.91301e-05
6.08355e-05
3.29932e-05
1.79612e-05
9.92734e-06
1.12243e-05
4.32933e-05
5.31708e-05
3.65696e-05
2.21334e-05
1.2075e-05
1.41717e-05
4.20535e-05
5.97397e-05
5.58703e-05
3.7134e-05
1.60454e-05
9.39167e-06
1.65873e-05
3.07795e-05
4.91188e-05
4.11347e-05
1.03026e-05
1.10856e-05
2.01081e-05
3.33333e-05
5.32577e-05
4.35151e-05
1.19634e-05
1.27417e-05
2.15532e-05
3.59907e-05
5.72872e-05
3.92278e-05
1.40809e-05
1.58682e-05
3.35662e-05
5.26616e-05
2.80304e-05
1.51756e-05
9.08553e-06
9.77285e-06
3.7877e-05
4.51177e-05
3.01292e-05
1.84325e-05
1.05996e-05
1.09041e-05
4.0106e-05
4.688e-05
3.12373e-05
1.93599e-05
1.1597e-05
1.16669e-05
3.90638e-05
4.86834e-05
3.20863e-05
1.95461e-05
1.22087e-05
1.23499e-05
3.86963e-05
4.99495e-05
3.32498e-05
2.03038e-05
1.30967e-05
1.41098e-05
3.53042e-05
5.35656e-05
4.88046e-05
3.0379e-05
1.59745e-05
9.15511e-06
1.50514e-05
2.60955e-05
4.04318e-05
3.44137e-05
9.62979e-06
1.05762e-05
1.76659e-05
2.7324e-05
4.19595e-05
3.6221e-05
1.06744e-05
1.13761e-05
1.82814e-05
2.80522e-05
4.33935e-05
3.44735e-05
1.11823e-05
1.17559e-05
1.83412e-05
2.87817e-05
4.40065e-05
3.48143e-05
1.12808e-05
1.18984e-05
1.83293e-05
2.89276e-05
4.37167e-05
3.46507e-05
1.14933e-05
1.19475e-05
1.85021e-05
2.8856e-05
4.3526e-05
3.40698e-05
1.15027e-05
1.21946e-05
1.85521e-05
2.88892e-05
4.31835e-05
3.44442e-05
1.17236e-05
1.22002e-05
1.85005e-05
2.86974e-05
4.26505e-05
3.37475e-05
1.157e-05
1.22027e-05
1.84752e-05
2.85368e-05
4.21446e-05
3.37319e-05
1.17121e-05
1.21967e-05
1.83054e-05
2.8129e-05
4.14914e-05
3.31066e-05
1.15423e-05
1.2118e-05
1.81923e-05
2.77297e-05
4.07426e-05
3.28118e-05
1.15125e-05
1.2005e-05
1.78823e-05
2.72274e-05
3.99522e-05
3.20618e-05
1.13281e-05
1.19064e-05
1.76801e-05
2.66937e-05
3.88077e-05
3.16702e-05
1.11945e-05
1.16135e-05
1.69983e-05
2.58108e-05
3.64712e-05
3.10612e-05
1.04807e-05
1.06098e-05
1.55194e-05
2.36248e-05
3.11952e-05
1.88843e-05
9.69014e-06
1.65083e-05
3.01897e-05
4.7629e-05
3.19802e-05
2.12932e-05
1.52837e-05
1.33247e-05
3.81489e-05
4.45044e-05
3.0446e-05
2.05625e-05
1.35208e-05
1.26869e-05
3.66431e-05
4.36392e-05
2.94788e-05
1.96175e-05
1.30486e-05
1.2164e-05
3.50332e-05
4.21009e-05
2.83772e-05
1.89317e-05
1.26511e-05
1.20605e-05
3.30228e-05
4.05297e-05
2.74227e-05
1.84231e-05
1.25102e-05
1.1531e-05
3.26236e-05
3.88625e-05
2.58868e-05
1.72325e-05
1.18103e-05
1.06633e-05
3.09173e-05
3.60047e-05
2.34884e-05
1.56948e-05
1.08427e-05
9.88882e-06
1.8852e-05
3.04278e-05
4.5771e-05
2.9252e-05
1.66506e-05
1.5528e-05
2.12582e-05
3.11057e-05
4.31535e-05
3.71833e-05
1.36765e-05
1.3763e-05
2.05042e-05
2.96265e-05
4.21245e-05
3.5912e-05
1.28586e-05
1.31742e-05
1.94551e-05
2.851e-05
4.02804e-05
3.4442e-05
1.22399e-05
1.25605e-05
1.8237e-05
2.70537e-05
3.73567e-05
3.2308e-05
1.13998e-05
1.14883e-05
1.65184e-05
2.44443e-05
3.14947e-05
1.98449e-05
1.0394e-05
1.72555e-05
3.04882e-05
4.61591e-05
3.176e-05
2.1961e-05
1.60047e-05
1.39371e-05
3.74955e-05
4.28867e-05
2.97318e-05
2.06745e-05
1.40234e-05
1.30109e-05
3.51899e-05
4.12911e-05
2.83456e-05
1.95141e-05
1.32938e-05
1.23878e-05
3.34472e-05
3.92177e-05
2.67266e-05
1.82582e-05
1.26574e-05
1.13588e-05
3.18211e-05
3.60855e-05
2.39074e-05
1.63463e-05
1.13094e-05
1.03691e-05
1.95389e-05
3.03979e-05
4.42528e-05
2.93384e-05
1.71374e-05
1.59872e-05
2.17353e-05
3.07443e-05
4.17049e-05
3.63897e-05
1.41899e-05
1.42689e-05
2.07165e-05
2.90687e-05
4.0582e-05
3.50315e-05
1.3275e-05
1.34288e-05
1.93031e-05
2.77512e-05
3.7624e-05
3.32875e-05
1.21476e-05
1.21324e-05
1.74021e-05
2.51055e-05
3.20739e-05
2.06328e-05
1.10295e-05
1.79916e-05
3.09655e-05
4.61365e-05
3.22072e-05
2.28398e-05
1.67981e-05
1.46951e-05
3.78578e-05
4.27913e-05
2.99227e-05
2.13628e-05
1.46987e-05
1.37134e-05
3.56285e-05
4.10467e-05
2.85815e-05
2.01564e-05
1.39891e-05
1.3113e-05
3.34845e-05
3.91521e-05
2.70622e-05
1.89737e-05
1.336e-05
1.21709e-05
3.21859e-05
3.6228e-05
2.4534e-05
1.71974e-05
1.21527e-05
1.113e-05
2.02988e-05
3.06839e-05
4.4277e-05
2.98431e-05
1.81496e-05
1.69952e-05
2.27538e-05
3.12257e-05
4.16861e-05
3.67847e-05
1.504e-05
1.51081e-05
2.16023e-05
2.95112e-05
4.08291e-05
3.52676e-05
1.41605e-05
1.44248e-05
2.05367e-05
2.86298e-05
3.92892e-05
3.35055e-05
1.35843e-05
1.37946e-05
1.93928e-05
2.73285e-05
3.65629e-05
3.20958e-05
1.26839e-05
1.26192e-05
1.76876e-05
2.4926e-05
3.1338e-05
2.08221e-05
1.14839e-05
1.83333e-05
3.02369e-05
4.38845e-05
3.12878e-05
2.297e-05
1.70772e-05
1.52495e-05
3.63796e-05
4.12936e-05
2.95608e-05
2.16775e-05
1.52862e-05
1.43689e-05
3.45328e-05
3.99518e-05
2.84191e-05
2.0607e-05
1.45812e-05
1.37811e-05
3.30671e-05
3.84276e-05
2.72598e-05
1.96536e-05
1.40793e-05
1.30854e-05
3.17501e-05
3.6292e-05
2.52684e-05
1.81478e-05
1.30097e-05
1.20893e-05
2.12443e-05
3.15436e-05
4.41919e-05
3.05092e-05
1.92073e-05
1.79875e-05
2.39153e-05
3.17201e-05
4.26203e-05
3.70738e-05
1.62742e-05
1.62936e-05
2.29465e-05
3.06797e-05
4.2092e-05
3.59134e-05
1.56171e-05
1.58304e-05
2.21869e-05
3.00741e-05
4.11908e-05
3.51214e-05
1.51428e-05
1.54648e-05
2.14776e-05
2.93504e-05
4.01636e-05
3.37056e-05
1.48681e-05
1.5276e-05
2.1289e-05
2.88839e-05
3.93561e-05
3.31445e-05
1.47975e-05
1.50984e-05
2.09943e-05
2.84722e-05
3.86044e-05
3.28917e-05
1.45967e-05
1.48917e-05
2.04806e-05
2.78759e-05
3.76672e-05
3.19751e-05
1.43346e-05
1.473e-05
2.03615e-05
2.74922e-05
3.70357e-05
3.14816e-05
1.42941e-05
1.45735e-05
2.00728e-05
2.71475e-05
3.62595e-05
3.15074e-05
1.39866e-05
1.41538e-05
1.91921e-05
2.63655e-05
3.44899e-05
3.02969e-05
1.33227e-05
1.33083e-05
1.8212e-05
2.49607e-05
3.0388e-05
2.13151e-05
1.25248e-05
1.97687e-05
2.92686e-05
4.19772e-05
3.09697e-05
2.42906e-05
1.86022e-05
1.7203e-05
3.6319e-05
4.16397e-05
3.07806e-05
2.45536e-05
1.75672e-05
1.83589e-05
3.34113e-05
4.54221e-05
4.17477e-05
3.00898e-05
1.98968e-05
1.27148e-05
1.9059e-05
2.62254e-05
3.51665e-05
3.3087e-05
1.30757e-05
1.38913e-05
2.00499e-05
2.62405e-05
3.63984e-05
3.05229e-05
1.42351e-05
1.48284e-05
2.01107e-05
2.69145e-05
3.65639e-05
3.02716e-05
1.48185e-05
1.51045e-05
2.02171e-05
2.70154e-05
3.65273e-05
3.06493e-05
1.49391e-05
1.54771e-05
2.0859e-05
2.73788e-05
3.70359e-05
3.09326e-05
1.54937e-05
1.59233e-05
2.14159e-05
2.78242e-05
3.7719e-05
3.21382e-05
1.57866e-05
1.65028e-05
2.22104e-05
2.81563e-05
4.12011e-05
3.00262e-05
1.77689e-05
1.94798e-05
2.79138e-05
3.83681e-05
2.49926e-05
1.88791e-05
1.27375e-05
1.34595e-05
3.09246e-05
3.39754e-05
2.60455e-05
2.03683e-05
1.44958e-05
1.5492e-05
2.98876e-05
3.61297e-05
2.74762e-05
2.20327e-05
1.64396e-05
1.81335e-05
2.9937e-05
4.11754e-05
3.88621e-05
2.84227e-05
2.0434e-05
1.41661e-05
2.00759e-05
2.56589e-05
3.83684e-05
3.00336e-05
1.63063e-05
1.90906e-05
2.89534e-05
3.76908e-05
2.56707e-05
1.98723e-05
1.39148e-05
1.6722e-05
3.09825e-05
3.86916e-05
3.72419e-05
2.83439e-05
2.06089e-05
1.67218e-05
2.84035e-05
3.56672e-05
2.35689e-05
1.75959e-05
1.25818e-05
1.61417e-05
2.77864e-05
3.6386e-05
3.61725e-05
2.69279e-05
2.00971e-05
1.89539e-05
2.64767e-05
3.40698e-05
3.35402e-05
2.56148e-05
1.84119e-05
1.86048e-05
2.53926e-05
3.35819e-05
3.38022e-05
2.52782e-05
1.88359e-05
1.89005e-05
2.62073e-05
3.39525e-05
3.44319e-05
2.68231e-05
1.8883e-05
1.88428e-05
2.74571e-05
3.46312e-05
3.57142e-05
2.86428e-05
1.87655e-05
1.86833e-05
2.90808e-05
3.61039e-05
3.73599e-05
3.03875e-05
1.86124e-05
1.852e-05
3.0766e-05
3.80092e-05
3.92886e-05
3.20893e-05
1.84306e-05
1.83429e-05
3.22713e-05
4.05322e-05
4.1875e-05
3.32612e-05
1.8254e-05
1.81673e-05
3.33019e-05
4.34847e-05
4.47127e-05
3.42051e-05
1.80814e-05
1.79987e-05
3.425e-05
4.62455e-05
4.73914e-05
3.52221e-05
1.79202e-05
1.78454e-05
3.53069e-05
4.88511e-05
4.99623e-05
3.63648e-05
1.7778e-05
1.77144e-05
3.6498e-05
5.135e-05
5.24033e-05
3.76761e-05
1.76612e-05
1.76105e-05
3.78433e-05
5.36041e-05
5.46442e-05
3.91094e-05
1.75731e-05
1.7534e-05
3.92951e-05
5.5713e-05
5.67776e-05
4.06607e-05
1.75129e-05
1.74807e-05
4.08499e-05
5.77226e-05
5.88197e-05
4.22394e-05
1.74796e-05
1.74562e-05
4.24094e-05
5.96701e-05
6.08206e-05
4.38237e-05
1.74629e-05
1.74493e-05
4.39544e-05
6.15638e-05
6.2741e-05
4.53333e-05
1.74593e-05
1.74504e-05
4.53855e-05
6.33643e-05
6.45747e-05
4.67219e-05
1.74625e-05
1.74563e-05
4.66958e-05
6.50601e-05
6.62777e-05
4.79419e-05
1.74695e-05
1.74643e-05
4.78255e-05
6.66631e-05
6.79129e-05
4.89996e-05
1.74793e-05
1.74745e-05
4.88262e-05
6.81899e-05
6.946e-05
4.98925e-05
1.74901e-05
1.74856e-05
4.96536e-05
6.96613e-05
7.10026e-05
5.06579e-05
1.7502e-05
1.74979e-05
5.03969e-05
7.10884e-05
7.24658e-05
5.1315e-05
1.75148e-05
1.75112e-05
5.10095e-05
7.24838e-05
7.38812e-05
5.18934e-05
1.75287e-05
1.75255e-05
5.15764e-05
7.38565e-05
7.52161e-05
5.23903e-05
1.75432e-05
1.75404e-05
5.20304e-05
7.51675e-05
7.65232e-05
5.28312e-05
1.75583e-05
1.75558e-05
5.24609e-05
7.64237e-05
7.77674e-05
5.32062e-05
1.75735e-05
1.75712e-05
5.27923e-05
7.76237e-05
7.89815e-05
5.35396e-05
1.75887e-05
1.75866e-05
5.31177e-05
7.87781e-05
8.01172e-05
5.38169e-05
1.76036e-05
1.76016e-05
5.33529e-05
7.98753e-05
8.12216e-05
5.40625e-05
1.76181e-05
1.76162e-05
5.35944e-05
8.09238e-05
8.22437e-05
5.42594e-05
1.7632e-05
1.76302e-05
5.37528e-05
8.19125e-05
8.32328e-05
5.44333e-05
1.76453e-05
1.76435e-05
5.39261e-05
8.28483e-05
8.41365e-05
5.45656e-05
1.7658e-05
1.76562e-05
5.40233e-05
8.37237e-05
8.50071e-05
5.46839e-05
1.767e-05
1.76683e-05
5.41417e-05
8.4546e-05
8.57928e-05
5.47742e-05
1.76813e-05
1.76796e-05
5.41935e-05
8.53126e-05
8.65481e-05
5.48445e-05
1.7692e-05
1.76904e-05
5.42642e-05
8.6019e-05
8.72273e-05
5.48867e-05
1.77021e-05
1.77005e-05
5.42687e-05
8.66596e-05
8.78641e-05
5.49108e-05
1.77115e-05
1.77099e-05
5.42942e-05
8.72384e-05
8.84099e-05
5.49071e-05
1.77203e-05
1.77187e-05
5.42536e-05
8.77552e-05
8.89335e-05
5.48872e-05
1.77284e-05
1.77268e-05
5.42414e-05
8.82368e-05
8.93552e-05
5.48453e-05
1.77359e-05
1.77343e-05
5.41686e-05
8.86448e-05
8.97511e-05
5.47933e-05
1.77429e-05
1.77412e-05
5.41255e-05
8.89944e-05
9.00623e-05
5.47214e-05
1.77492e-05
1.77475e-05
5.40265e-05
8.93001e-05
9.03548e-05
5.46438e-05
1.7755e-05
1.77533e-05
5.3961e-05
8.95546e-05
9.05745e-05
5.45498e-05
1.77603e-05
1.77586e-05
5.3844e-05
8.97755e-05
9.07863e-05
5.44551e-05
1.77651e-05
1.77634e-05
5.37646e-05
8.99537e-05
9.0934e-05
5.43478e-05
1.77696e-05
1.77679e-05
5.36378e-05
9.01093e-05
9.10841e-05
5.4244e-05
1.77737e-05
1.7772e-05
5.35522e-05
9.02301e-05
9.11777e-05
5.41308e-05
1.77776e-05
1.77759e-05
5.3422e-05
9.03361e-05
9.12809e-05
5.4024e-05
1.77812e-05
1.77795e-05
5.33352e-05
9.04164e-05
9.13278e-05
5.39096e-05
1.77846e-05
1.7783e-05
5.32053e-05
9.04873e-05
9.14131e-05
5.3804e-05
1.77879e-05
1.77863e-05
5.31205e-05
9.05435e-05
9.14241e-05
5.36922e-05
1.7791e-05
1.77894e-05
5.29944e-05
9.05807e-05
9.14855e-05
5.35907e-05
1.7794e-05
1.77924e-05
5.29139e-05
9.06104e-05
9.14692e-05
5.34835e-05
1.77969e-05
1.77953e-05
5.27928e-05
9.0622e-05
9.15073e-05
5.33872e-05
1.77996e-05
1.7798e-05
5.27174e-05
9.06293e-05
9.14708e-05
5.32855e-05
1.78023e-05
1.78007e-05
5.2602e-05
9.06214e-05
9.14932e-05
5.31952e-05
1.78049e-05
1.78033e-05
5.25326e-05
9.06117e-05
9.14435e-05
5.31001e-05
1.78074e-05
1.78059e-05
5.24242e-05
9.05885e-05
9.14567e-05
5.30167e-05
1.78098e-05
1.78083e-05
5.23609e-05
9.05639e-05
9.14007e-05
5.29285e-05
1.78122e-05
1.78107e-05
5.22587e-05
9.05287e-05
9.14088e-05
5.28534e-05
1.78146e-05
1.78131e-05
5.22012e-05
9.04964e-05
9.13451e-05
5.27712e-05
1.78168e-05
1.78154e-05
5.21052e-05
9.04548e-05
9.13466e-05
5.27021e-05
1.7819e-05
1.78176e-05
5.20536e-05
9.04173e-05
9.12768e-05
5.26258e-05
1.78212e-05
1.78198e-05
5.19636e-05
9.03716e-05
9.12742e-05
5.25625e-05
1.78233e-05
1.78219e-05
5.19176e-05
9.03312e-05
9.12003e-05
5.24916e-05
1.78254e-05
1.7824e-05
5.18331e-05
9.02823e-05
9.11941e-05
5.24337e-05
1.78274e-05
1.7826e-05
5.17922e-05
9.02391e-05
9.1117e-05
5.23679e-05
1.78294e-05
1.7828e-05
5.17129e-05
9.01885e-05
9.11093e-05
5.2315e-05
1.78313e-05
1.78299e-05
5.16768e-05
9.01447e-05
9.1031e-05
5.2254e-05
1.78332e-05
1.78318e-05
5.16024e-05
9.00939e-05
9.10225e-05
5.22059e-05
1.78351e-05
1.78337e-05
5.15709e-05
9.00496e-05
9.09431e-05
5.21494e-05
1.78369e-05
1.78355e-05
5.15011e-05
8.99995e-05
9.09334e-05
5.21058e-05
1.78387e-05
1.78373e-05
5.14738e-05
8.99567e-05
9.08536e-05
5.20534e-05
1.78405e-05
1.78391e-05
5.14082e-05
8.99084e-05
9.08427e-05
5.20137e-05
1.78422e-05
1.78408e-05
5.13846e-05
8.9866e-05
9.07631e-05
5.19651e-05
1.78439e-05
1.78425e-05
5.1323e-05
8.98185e-05
9.07535e-05
5.19292e-05
1.78455e-05
1.78441e-05
5.13029e-05
8.97778e-05
9.06755e-05
5.18841e-05
1.78472e-05
1.78458e-05
5.12447e-05
8.97315e-05
9.06666e-05
5.18516e-05
1.78487e-05
1.78474e-05
5.12279e-05
8.9691e-05
9.05887e-05
5.18097e-05
1.78503e-05
1.78489e-05
5.11729e-05
8.96455e-05
9.05812e-05
5.17803e-05
1.78519e-05
1.78505e-05
5.1159e-05
8.96067e-05
9.05053e-05
5.17413e-05
1.78534e-05
1.7852e-05
5.11067e-05
8.95616e-05
9.04988e-05
5.17146e-05
1.78549e-05
1.78535e-05
5.10954e-05
8.95236e-05
9.04234e-05
5.16781e-05
1.78564e-05
1.7855e-05
5.10459e-05
8.94794e-05
9.04183e-05
5.16543e-05
1.78579e-05
1.78565e-05
5.10373e-05
8.9444e-05
9.03462e-05
5.16207e-05
1.78593e-05
1.7858e-05
5.09907e-05
8.94034e-05
9.03443e-05
5.15996e-05
1.78608e-05
1.78594e-05
5.09847e-05
8.93704e-05
9.02738e-05
5.15686e-05
1.78622e-05
1.78609e-05
5.09407e-05
8.93313e-05
9.02738e-05
5.15501e-05
1.78637e-05
1.78624e-05
5.09372e-05
8.9301e-05
9.02065e-05
5.15215e-05
1.78652e-05
1.78639e-05
5.08954e-05
8.92652e-05
9.02092e-05
5.1505e-05
1.78667e-05
1.78654e-05
5.08935e-05
8.92366e-05
9.01425e-05
5.14777e-05
1.78682e-05
1.78669e-05
5.08526e-05
8.92008e-05
9.01448e-05
5.14619e-05
1.78697e-05
1.78684e-05
5.08509e-05
8.91719e-05
9.00776e-05
5.14346e-05
1.78712e-05
1.78699e-05
5.08093e-05
8.9135e-05
9.00773e-05
5.14175e-05
1.78727e-05
1.78713e-05
5.07952e-05
8.90927e-05
9.00156e-05
5.13896e-05
1.7874e-05
1.78726e-05
5.07764e-05
8.90716e-05
8.99799e-05
5.13938e-05
1.78866e-05
1.78961e-05
5.0774e-05
8.90607e-05
8.99696e-05
5.13419e-05
1.78985e-05
1.79079e-05
5.07565e-05
8.90326e-05
9.00309e-05
5.13972e-05
1.79504e-05
1.79827e-05
5.08551e-05
8.91022e-05
9.07458e-05
5.18259e-05
1.80944e-05
1.81987e-05
5.1378e-05
8.98709e-05
9.21825e-05
5.26595e-05
1.84074e-05
1.85993e-05
5.24504e-05
9.15721e-05
9.47391e-05
5.3974e-05
1.92344e-05
2.01991e-05
5.68394e-05
0.000101173
0.000106644
5.97759e-05
2.11641e-05
0.000204871
0.000360114
0.00052525
0.000567449
0.000823503
0.00116729
0.00143845
0.00153619
0.00201812
0.00264437
0.00321758
0.00392569
0.00489406
0.00634729
0.0086459
0.0121659
0.0172998
0.0243151
0.0333944
0.0445948
0.0578628
0.0730223
0.0898034
0.107793
0.126553
0.145283
0.16335
0.17937
0.192671
0.202323
0.208384
0.211251
0.213775
0.218301
0.22465
0.232599
0.241842
0.252361
0.263998
0.276996
0.291522
0.307999
0.32691
0.348979
0.375239
0.407334
0.457253
0.557756
0.767687
1.18565
2.00546
3.65224
7.11892
14.5312
29.1607
52.7346
78.7019
96.7175
105.461
109.185
110.933
112.108
113.278
114.433
115.609
116.822
118.096
119.447
120.899
122.471
124.187
126.072
128.151
130.453
133.007
135.847
139.006
142.519
146.426
150.765
155.576
160.902
166.784
173.265
180.387
188.194
196.727
206.028
216.136
227.092
238.932
251.693
265.409
280.111
295.828
312.586
330.408
349.313
369.316
390.428
412.658
436.006
460.471
486.045
512.716
540.465
569.272
599.107
629.94
661.729
694.436
728.008
762.401
797.549
833.402
869.886
906.943
944.493
982.471
1020.79
1059.38
1098.16
1137.04
1175.94
1214.77
1253.46
1291.9
1330.03
1367.76
1405
1441.69
1477.74
1513.1
1547.67
1581.41
1614.24
1646.1
1676.94
1706.68
1735.28
1762.7
1788.88
1813.77
1837.34
1859.54
1880.34
1899.7
1917.6
1934
1948.85
1962.08
1973.73
1983.68
1991.67
1996.57
1998.74
1999.5
1999.3
1998.74
1997.22
1993.63
1987.79
1981.15
1975.14
1970.1
1965.78
1961.84
1958.06
1954.34
1950.68
1947.09
1943.6
1940.23
1936.98
1933.86
1930.87
1927.99
1925.25
1922.63
1920.15
1917.8
1915.59
1913.53
1911.62
1909.87
1908.29
1906.89
1905.67
1904.65
1903.83
1903.22
1902.83
1902.68
1902.75
1903.05
1903.59
1904.34
1905.18
1905.56
1903.19
1890.33
1841.18
1694.29
1366.75
872.006
428.853
177.865
69.1785
26.6184
10.4391
4.23122
1.79039
0.810777
0.414093
0.249207
0.172136
0.116713
0.0537215
0.0146177
0.00651073
0.00225769
0.00194123
0.00179661
0.00162436
0.00154884
0.00143899
0.00139345
0.00131501
0.00128479
0.00122538
0.00120315
0.00115656
0.00113952
0.00110157
0.00108805
0.0010561
0.00104508
0.00101747
0.00100829
0.000983952
0.000976116
0.000954333
0.000947486
0.000927735
0.000921647
0.000903497
0.000898001
0.000881138
0.000876109
0.000860293
0.000855631
0.000840668
0.000836291
0.000822018
0.000817855
0.000804134
0.000800122
0.000786826
0.000782906
0.000769918
0.000766031
0.000753241
0.000749337
0.000736653
0.000732687
0.000720021
0.000715943
0.0007032
0.000698951
0.000686021
0.000681528
0.000668276
0.000663479
0.000649777
0.000644562
0.000630203
0.000624426
0.000609142
0.000602598
0.000586031
0.000578416
0.000560036
0.00055086
0.000529828
0.000518264
0.000493221
0.000477784
0.000446736
0.00042403
0.000383697
0.000346904
0.000283628
0.000241944
0.000189083
0.000171838
0.000180208
0.000202562
0.000239639
0.000186851
0.000215902
0.000270818
0.000308716
0.000360013
0.000393141
0.00047573
0.000503358
0.000529436
0.000516028
0.000499868
0.000464007
0.000444997
0.000423758
0.000422177
0.000428607
0.000439384
0.00046438
0.00048568
0.000518147
0.000542997
0.000578004
0.000601616
0.000634737
0.000653214
0.000679686
0.000691596
0.000706133
0.000710638
0.000715048
0.000708187
0.00070427
0.000688105
0.000675868
0.000645995
0.000624293
0.000578731
0.000546376
0.000481556
0.000440837
0.000361858
0.000317832
0.000233666
0.00018738
0.00020921
0.000236291
0.000384457
0.000296739
0.000429616
0.000569969
0.000666804
0.000495951
0.000632629
0.000833891
0.00100329
0.000713055
0.000495412
0.000278824
0.000326809
0.000598367
0.000833275
0.000947687
0.000700506
0.000385976
0.000440344
0.000764219
0.000980755
0.0011951
0.00143696
0.00122231
0.000865967
0.000680466
0.000779298
0.000997743
0.00100135
0.000810324
0.000884378
0.00111436
0.00137573
0.00147756
0.00110276
0.000903432
0.000958901
0.00120176
0.00117981
0.000969073
0.00101113
0.00126413
0.00154922
0.00160129
0.00122902
0.00101067
0.00104149
0.00130271
0.00125927
0.00103188
0.00105043
0.00132033
0.00162762
0.00163868
0.00127112
0.00103358
0.00103729
0.00132135
0.00126629
0.00101324
0.00101022
0.00130628
0.00161946
0.0015833
0.00124318
0.000973922
0.000965144
0.00127288
0.00119428
0.000918715
0.000906812
0.00122365
0.00153552
0.00145513
0.00113985
0.000856198
0.000844152
0.00117009
0.00109098
0.000799418
0.000791803
0.00111411
0.00134867
0.00112843
0.00104948
0.000767668
0.000771817
0.00105069
0.00098835
0.000774355
0.000783119
0.000933907
0.000802964
0.000549142
0.00082703
0.000782612
0.000770961
0.000657573
0.000566056
0.00077165
0.000692953
0.000529129
0.00050506
0.000481705
0.000436334
0.000631573
0.000494761
0.000358906
0.000315628
0.000369306
0.000261318
0.000328103
0.000522841
0.000635643
0.000372184
0.000223037
0.000294483
0.00036337
0.000400499
0.000282032
0.000274907
0.000427835
0.000847226
0.00111344
0.000543869
0.000275695
0.000293932
0.000552697
0.000745189
0.000371681
0.000410233
0.000731109
0.00138051
0.00166302
0.000952727
0.000519558
0.000569696
0.000932095
0.00115041
0.000676651
0.000717436
0.00111578
0.00191099
0.00214477
0.00131689
0.000801594
0.000826841
0.00126505
0.00145359
0.000897713
0.000911925
0.00138812
0.00235057
0.0025484
0.0015703
0.000974495
0.000981737
0.00149299
0.00167333
0.00103885
0.0010412
0.00158587
0.00273307
0.00291035
0.00176736
0.00109525
0.0010945
0.00167087
0.00185336
0.00114624
0.00114347
0.00175025
0.0030841
0.00325625
0.0019352
0.00119338
0.00118896
0.00182573
0.00201416
0.00123779
0.00123201
0.00189851
0.00342834
0.00360168
0.00209113
0.00128029
0.00127339
0.00196949
0.00216677
0.00132156
0.00131372
0.00203941
0.0037773
0.00395602
0.00224183
0.00136207
0.00135329
0.00210917
0.00231728
0.00140211
0.00139253
0.00217881
0.00413807
0.00432394
0.00239399
0.00144214
0.00143188
0.00224923
0.00247247
0.00148261
0.00147178
0.00232183
0.00451456
0.00471197
0.00255374
0.00152396
0.00151266
0.00239814
0.00263968
0.00156655
0.00155483
0.00247864
0.00491986
0.0051414
0.00273068
0.00161075
0.00159868
0.0025637
0.00282721
0.00165703
0.00164472
0.00265438
0.00538054
0.00564095
0.00293054
0.00170596
0.00169351
0.0027519
0.00304216
0.00175817
0.00174571
0.00285776
0.00592728
0.00624523
0.00316385
0.0018144
0.00180209
0.00297374
0.00329778
0.0018756
0.00186361
0.00310206
0.00660202
0.00700653
0.00344668
0.0019429
0.00193149
0.00324547
0.00361397
0.00201773
0.00200717
0.00340707
0.00746906
0.00800025
0.00380357
0.00210201
0.00209281
0.00359055
0.00402256
0.0021986
0.00219142
0.00380422
0.00862247
0.00936915
0.0042801
0.00231127
0.00230705
0.0040578
0.004589
0.00244523
0.00244545
0.00436564
0.0102873
0.011447
0.00496853
0.00260807
0.00261493
0.00474981
0.00545013
0.00281323
0.00283387
0.00524611
0.0129622
0.0150309
0.00608153
0.00308084
0.00312429
0.00591198
0.00695492
0.00344875
0.00353124
0.00686444
0.0180422
0.0228942
0.00824429
0.00398788
0.00416087
0.0083628
0.010358
0.00484415
0.00528422
0.0111726
0.0320172
0.0702153
0.0492644
0.0381249
0.0313006
0.0266547
0.0232628
0.0206647
0.0186078
0.016931
0.0155164
0.0143107
0.0132709