/*--------------------------------*- C++ -*----------------------------------*\
| =========                 |                                                 |
| \\      /  F ield         | OpenFOAM: The Open Source CFD Toolbox           |
|  \\    /   O peration     | Version:  v2006                                 |
|   \\  /    A nd           | Website:  www.openfoam.com                      |
|    \\/     M anipulation  |                                                 |
\*---------------------------------------------------------------------------*/
FoamFile
{
    version     2.0;
    format      ascii;
    class       volScalarField;
    location    "0.05";
    object      isentropic(p);
}
// * * * * * * * * * * * * * * * * * * * * * * * * * * * * * * * * * * * * * //

dimensions      [1 -1 -2 0 0 0 0];


internalField   nonuniform List<scalar> 
24416
(
150082
150082
150082
150082
150082
150082
150082
150082
150082
150082
150082
150082
150082
150082
150083
150083
150084
150085
150084
150084
150083
150082
150082
150081
150081
150080
150080
150079
150079
150079
150078
150078
150078
150077
150077
150076
150076
150076
150075
150075
150075
150074
150074
150073
150073
150073
150072
150072
150071
150071
150071
150070
150070
150069
150069
150069
150068
150068
150068
150067
150067
150066
150066
150066
150065
150065
150065
150064
150064
150063
150063
150063
150062
150062
150062
150061
150061
150061
150060
150060
150060
150060
150059
150059
150058
150057
150056
150055
150055
150056
150057
150057
150058
150058
150058
150059
150060
150060
150061
150060
150059
150061
150059
150066
150067
150064
150076
150102
150099
149944
149780
150079
150125
150125
150050
149637
149496
150015
150116
150102
149977
149369
149256
149939
150084
150065
149897
149155
149065
149857
150046
150025
149814
148979
148902
149779
150005
149985
149745
148832
148768
149711
149965
149945
149678
148710
148656
149646
149925
149905
149615
148606
148561
149585
149886
149866
149556
148518
148478
149529
149848
149829
149502
148440
148405
149476
149811
149793
149451
148372
148340
149427
149776
149759
149404
148310
148282
149381
149743
149726
149359
148255
148230
149338
149711
149695
149318
148205
148182
149298
149681
149665
149279
148160
148138
149260
149651
149637
149241
148118
148098
149224
149624
149610
149207
148079
148061
149190
149597
149584
149174
148043
148027
149158
149572
149559
149143
148010
147995
149128
149547
149535
149113
147980
147965
149099
149524
149512
149085
147951
147938
149072
149502
149490
149058
147924
147912
149046
149480
149469
149033
147900
147888
149021
149460
149449
149008
147876
147866
148997
149440
149429
148985
147855
147845
148974
149421
149411
148963
147835
147826
148953
149402
149393
148942
147816
147808
148932
149385
149375
148922
147799
147791
148913
149368
149359
148903
147783
147775
148894
149351
149343
148885
147768
147761
148876
149336
149327
148867
147754
147748
148859
149320
149312
148851
147741
147736
148843
149306
149298
148835
147730
147725
148827
149292
149284
148820
147719
147714
148813
149278
149271
148805
147709
147705
148799
149265
149258
148791
147701
147697
148785
149252
149245
148778
147693
147690
148772
149240
149233
148766
147686
147683
148760
149228
149222
148754
147680
147677
148749
149217
149211
148743
147675
147673
148738
149206
149200
148732
147670
147669
148727
149196
149190
148722
147667
147665
148718
149186
149180
148713
147664
147663
148708
149176
149171
148704
147662
147661
148700
149167
149161
148695
147661
147661
148691
149158
149153
148687
147660
147660
148684
149149
149144
148680
147660
147661
148677
149141
149136
148673
147661
147662
148670
149132
149128
148666
147663
147664
148664
149125
149121
148660
147665
147667
148658
149117
149113
148655
147668
147671
148652
149110
149106
148650
147672
147675
148648
149104
149100
148645
147677
147680
148643
149097
149094
148641
147682
147685
148639
149091
149088
148637
147688
147692
148636
149085
149082
148634
147695
147699
148633
149080
149077
148631
147703
147707
148631
149075
149072
148629
147711
147716
148628
149070
149067
148627
147720
147725
148627
149065
149063
148626
147730
147735
148626
149061
149058
148625
147740
147746
148625
149057
149055
148625
147752
147758
148625
149053
149051
148625
147764
147770
148625
149050
149048
148625
147777
147784
148626
149046
149045
148626
147791
147798
148627
149044
149042
148627
147805
147813
148629
149041
149039
148629
147820
147829
148631
149039
149037
148632
147837
147845
148633
149037
149035
148635
147854
147863
148636
149035
149034
148638
147871
147881
148640
149034
149033
148642
147890
147900
148644
149032
149032
148646
147910
147920
148649
149032
149031
148651
147930
147941
148654
149031
149031
148656
147951
147962
148659
149031
149030
148662
147973
147985
148666
149031
149031
148669
147996
148008
148672
149031
149031
148676
148020
148033
148680
149032
149032
148683
148045
148058
148687
149033
149034
148691
148070
148084
148696
149035
149035
148700
148097
148110
148705
149037
149037
148709
148124
148138
148714
149039
149040
148719
148152
148166
148724
149042
149043
148729
148181
148196
148735
149045
149046
148740
148210
148226
148746
149048
149050
148752
148241
148256
148758
149052
149054
148764
148271
148287
148770
149056
149058
148776
148301
148317
148783
149061
149063
148789
148331
148346
148795
149066
149068
148801
148361
148376
148808
149071
149073
148814
148390
148405
148821
149076
149078
148827
148420
148435
148834
149081
149084
148840
148450
148465
148847
149087
149090
148854
148480
148495
148861
149093
149096
148868
148510
148526
148876
149100
149103
148883
148541
148556
148890
149107
149110
148898
148572
148587
148906
149115
149118
148913
148602
148618
148922
149123
149127
148930
148633
148649
148938
149132
149136
148946
148664
148680
148955
149141
149146
148964
148695
148710
148973
149151
149156
148982
148725
148741
148991
149162
149167
149000
148756
148771
149010
149174
149179
149019
148785
148800
149028
149186
149191
149038
148814
148828
149047
149198
149204
149057
148842
148856
149066
149211
149218
149076
148869
148883
149086
149225
149231
149095
148896
148909
149105
149238
149245
149114
148921
148933
149123
149252
149259
149132
148945
148957
149142
149266
149273
149151
148968
148980
149160
149280
149287
149168
148990
149001
149177
149294
149300
149185
149011
149021
149194
149307
149314
149202
149031
149040
149210
149321
149327
149218
149049
149058
149226
149334
149340
149233
149067
149075
149241
149346
149352
149248
149083
149091
149255
149359
149364
149262
149099
149106
149269
149370
149375
149275
149113
149120
149281
149381
149385
149287
149127
149133
149293
149391
149394
149297
149139
149145
149302
149399
149406
149308
149150
149160
149318
149417
149423
149325
149169
149546
149643
149715
149764
149789
149847
149877
149918
149942
149973
149993
150017
150034
150054
150069
150086
150100
150115
150128
150142
150154
150168
150180
150193
150204
150217
150229
150242
150253
150266
150278
150291
150303
150316
150328
150341
150353
150367
150379
150394
150406
150420
150430
150441
150445
150445
150445
150436
150400
150294
150132
149705
149665
150106
150277
150260
150081
149627
149594
150059
150246
150236
150046
149573
149572
150046
150239
150237
150044
149569
149580
150052
150244
150246
150055
149586
149598
150066
150255
150256
150068
149603
149616
150079
150264
150267
150082
149624
149637
150094
150276
150278
150097
149643
149656
150109
150287
150290
150113
149664
149678
150125
150299
150301
150129
149685
149699
150141
150311
150314
150145
149708
149723
150158
150324
150326
150162
149730
149745
150174
150336
150340
150180
149755
149770
150192
150350
150352
150197
149778
149794
150210
150362
150367
150216
149805
149821
150229
150377
150380
150234
149831
149848
150247
150390
150395
150254
149859
149877
150268
150406
150410
150274
149887
149905
150288
150420
150426
150296
149918
149937
150310
150437
150443
150318
149949
149969
150333
150454
150461
150342
149984
150005
150358
150473
150480
150368
150020
150043
150385
150492
150501
150397
150062
150087
150415
150513
150522
150427
150107
150139
150451
150538
150556
150473
150172
150217
150505
150580
150599
150527
150253
150297
150555
150621
150637
150575
150333
150369
150594
150653
150665
150610
150404
150451
150637
150685
150689
150654
150488
150308
150625
150639
150707
150682
150471
150528
150689
150734
150748
150720
150585
150646
150748
150757
150769
150764
150721
150794
150814
150793
150803
150833
150812
150847
150849
150798
150788
150853
150868
150896
150873
150815
150801
150872
150912
150928
150851
150768
150708
150802
150921
150896
150734
150659
150537
150629
150835
150800
150589
150536
150482
150531
150769
150710
150490
150470
150435
150455
150684
150642
150494
150522
150438
150430
150609
150539
150460
150474
150564
150544
150521
150406
150360
150347
150492
150534
150432
150352
150538
150472
150412
150499
150360
150168
150876
150655
151135
151212
149745
148687
150975
151197
151229
150639
147947
146780
149820
150866
149950
148785
145838
144726
147902
149379
148594
146914
144004
143120
145816
147372
146987
145246
142783
142476
144613
146287
145438
144069
142364
142324
143898
145542
145010
143640
142393
142131
142937
144216
144429
143146
142550
142591
143138
144251
143627
143002
142229
143139
143920
144613
144445
143881
143103
142972
143419
144100
144889
144507
143561
143614
144325
144828
144393
144111
143266
144074
144747
145258
145130
144711
143991
143862
144258
144848
145421
145221
144294
144296
145021
145384
145108
144523
144152
144511
145490
145611
145376
145158
144376
144939
145625
145957
145853
145519
144872
144763
145130
145634
146135
145837
145191
145088
145734
146056
145851
145347
144992
145387
146016
146299
146215
145926
145269
145150
145478
145985
146348
146323
145376
145210
145980
146162
146594
146321
145678
145578
146220
146494
146303
145788
145490
145674
146556
146610
146421
146249
145498
145940
146594
146822
146761
146469
145903
145555
146319
146458
146887
146767
145969
145947
146520
146842
146531
146441
145564
146173
146572
147046
146786
146316
145893
146211
146790
147112
146907
146539
145989
146362
147008
147224
147137
146885
146228
146112
146440
146927
147189
147168
146219
146049
146858
147038
147399
147159
146502
146362
147053
147302
147083
146539
146210
146333
147323
147329
147145
147034
146124
146579
147275
147520
147276
147038
146303
146688
147404
147619
147532
147226
146603
146154
147100
147212
147723
147250
146812
146516
146998
147440
147724
147539
146757
146518
147184
147526
147834
147603
146869
146736
147478
147743
147521
146962
146591
146708
147746
147748
147546
147398
146421
146794
147734
147866
147633
147423
146549
147013
147771
147988
147901
147626
146867
146697
147097
147638
147857
147911
146781
146463
147509
147680
148059
147769
146968
146645
147535
147767
148118
147841
147097
146758
147561
147861
148170
147937
147151
146974
147767
148058
147826
147258
146824
147191
147703
148196
147923
147369
146827
147024
147993
148157
147978
147519
146798
147059
148018
148214
147973
147590
146768
147173
148046
148285
148059
147718
146890
147264
148126
148344
148262
147931
147152
146597
147697
147871
148292
148036
147066
146797
147610
148031
148323
148167
147122
146871
147713
148109
148381
148187
147165
146858
147753
148119
148427
148186
147257
146959
147838
148185
148480
148243
147368
147164
148052
148371
148077
147544
146915
147289
147969
148446
148160
147585
146905
147166
148215
148419
148193
147701
146850
147155
148221
148437
148186
147775
146838
147230
148231
148489
148242
147875
146925
147335
148281
148525
148422
148089
147130
146781
147507
148077
148466
148083
147187
146762
147692
148174
148496
148171
147163
146732
147766
148194
148514
148231
147175
146772
147811
148218
148522
148273
147173
146864
147888
148269
148559
148324
147276
147103
148060
148449
148003
147694
146448
146891
148316
148387
148116
147868
146481
146980
148190
148483
148120
147810
146550
147064
148182
148495
148148
147771
146594
147048
148183
148490
148187
147787
146658
147154
148248
148518
148414
148032
146912
146532
147426
148017
148361
148160
146849
146425
147544
148081
148413
148161
146824
146419
147596
148079
148425
148142
146839
146493
147655
148112
148452
148185
146949
146546
147697
148143
148469
148190
147052
146820
147957
148364
147869
147281
146232
146733
147939
148319
148004
147417
146252
146650
148051
148336
148021
147482
146261
146730
148089
148338
148013
147515
146282
146785
148074
148341
148235
147789
146527
145860
147131
147697
148181
147856
146473
145920
147283
147845
148242
147979
146467
146049
147385
147900
148234
147959
146537
145966
147322
147834
148204
147894
146553
146365
147618
148125
147558
147122
145584
146315
147706
148088
147694
147206
145666
146417
147774
148115
147675
147191
145677
146270
147703
148040
147920
147453
145979
145392
146698
147383
147873
147590
145919
145403
146931
147552
147944
147668
146051
145450
146966
147539
147890
147548
146002
145663
147214
147749
147108
146445
144849
145634
147308
147685
147333
146723
145035
145867
147420
147784
147365
146810
145154
145608
147280
147645
147494
146925
145247
144530
146182
146865
147453
147047
145277
144693
146479
147125
147562
147233
145585
145234
146957
147520
146534
145738
143927
144743
146655
147127
146729
146045
144119
145066
146879
147277
147254
146627
144705
143897
145697
146488
146973
146518
144549
143558
145596
146369
146929
146466
144423
144146
146111
146860
146125
145384
143201
144369
146318
146779
146406
145741
143625
143961
146143
146626
146433
145682
143424
142634
144820
145704
146417
145953
143796
143578
145778
146549
145698
144845
142431
142830
145361
145992
145836
144924
142309
141242
143920
144959
145809
145241
142936
142579
145318
146036
144742
143447
140865
141850
144547
145295
145204
144185
141208
140274
143142
144324
145146
144812
142449
141156
144074
145092
143495
142186
139115
140930
143723
144420
144678
143747
140687
139592
142605
143887
143975
143021
139578
138979
142700
143852
143670
142500
138679
136947
140889
142541
143015
141845
137773
137369
141823
143105
143090
141722
136834
134182
140229
142189
142099
140436
133786
131389
139003
141315
140844
138343
130429
127457
134944
138127
140452
138019
131408
130246
137016
139612
139650
136857
129881
129630
136782
139740
139805
136658
129381
129055
136408
139743
139615
136108
128742
128460
135798
139454
139279
135491
128228
128036
135188
139092
138897
134901
127885
127771
134627
138696
138493
134371
127685
127624
134133
138289
138086
133913
127584
127562
133711
137885
137689
133528
127556
127563
133364
137497
137310
133216
127581
127609
133084
137130
136956
132966
127647
127692
132863
136790
136631
132772
127745
127804
132694
136480
136336
132626
127869
127939
132568
136201
136073
132519
128013
128090
132478
135953
135841
132445
128171
128254
132418
135736
135638
132397
128339
128426
132382
135547
135463
132373
128515
128604
132368
135385
135312
132367
128694
128784
132370
135247
135187
132377
128873
128963
132387
135133
135083
132400
129052
129140
132415
135040
135001
132433
129227
129313
132454
134967
134937
132475
129398
129481
132500
134913
134891
132525
129562
129643
132552
134874
134860
132580
129721
129798
132610
134850
134843
132641
129873
129947
132673
134839
134837
132705
130019
130089
132738
134839
134842
132772
130158
130225
132807
134849
134856
132842
130290
130355
132878
134867
134878
132914
130418
130479
132951
134892
134906
132987
130539
130598
133025
134923
134939
133062
130655
130712
133100
134958
134977
133138
130767
130822
133176
134998
135019
133214
130874
130927
133253
135042
135064
133291
130977
131028
133330
135088
135111
133368
131077
131125
133408
135137
135161
133446
131173
131220
133486
135187
135212
133524
131266
131312
133563
135238
135264
133602
131357
131401
133641
135292
135318
133679
131444
131488
133719
135347
135375
133757
131530
131573
133795
135405
135432
133833
131614
131655
133871
135463
135491
133908
131695
131735
133945
135522
135550
133982
131774
131813
134019
135581
135610
134055
131850
131888
134091
135641
135669
134127
131925
131962
134163
135700
135730
134198
131998
132034
134234
135761
135789
134268
132068
132103
134303
135821
135850
134338
132137
132171
134372
135881
135910
134406
132204
132238
134440
135941
135971
134474
132270
132302
134508
136002
136031
134541
132334
132366
134574
136062
136091
134607
132397
132428
134640
136122
136151
134673
132458
132489
134705
136182
136212
134737
132518
132548
134770
136242
136271
134801
132577
132606
134833
136302
136331
134865
132635
132664
134896
136361
136390
134927
132691
132719
134958
136420
136449
134989
132747
132774
135020
136479
136507
135050
132801
132828
135080
136537
136565
135110
132854
132881
135140
136595
136623
135169
132906
132932
135198
136652
136680
135227
132957
132983
135256
136709
136736
135285
133007
133032
135314
136765
136792
135342
133056
133080
135370
136820
136847
135397
133104
133127
135425
136875
136902
135452
133150
133173
135480
136929
136955
135506
133196
133218
135533
136983
137009
135559
133240
133262
135586
137036
137061
135611
133283
133305
135637
137088
137113
135663
133325
133346
135688
137139
137164
135713
133366
133387
135738
137189
137214
135762
133407
133426
135787
137239
137263
135810
133446
133465
135834
137288
137312
135858
133484
133502
135881
137336
137359
135904
133520
133539
135927
137383
137406
135949
133556
133574
135972
137430
137452
135994
133591
133608
136016
137475
137497
136037
133625
133642
136059
137520
137541
136080
133658
133674
136101
137564
137585
136121
133690
133706
136142
137607
137627
136162
133721
133737
136182
137649
137669
136202
133751
133766
136222
137690
137710
136241
133781
133795
136260
137731
137750
136279
133809
133823
136297
137770
137789
136316
133837
133850
136334
137809
137828
136352
133863
133877
136370
137847
137866
136387
133889
133902
136405
137885
137903
136422
133914
133927
136439
137921
137939
136455
133939
133951
136472
137957
137974
136488
133963
133974
136504
137992
138008
136520
133985
133997
136536
138026
138042
136551
134008
134019
136567
138059
138075
136582
134029
134040
136597
138092
138108
136611
134050
134060
136626
138124
138139
136640
134070
134080
136654
138155
138170
136668
134090
134100
136682
138186
138200
136696
134109
134118
136709
138215
138230
136723
134127
134137
136736
138244
138258
136749
134145
134154
136762
138273
138287
136774
134163
134171
136787
138301
138314
136799
134179
134188
136811
138328
138341
136823
134196
134204
136835
138354
138367
136846
134211
134219
136858
138380
138393
136869
134227
134234
136881
138405
138417
136892
134241
134249
136903
138430
138442
136913
134256
134263
136924
138454
138465
136934
134269
134276
136945
138477
138489
136955
134283
134290
136965
138500
138511
136975
134296
134302
136985
138523
138533
136994
134308
134315
137004
138544
138555
137013
134321
134327
137023
138565
138575
137032
134332
134338
137041
138586
138596
137050
134344
134350
137058
138606
138615
137067
134355
134360
137076
138625
138635
137084
134366
134371
137092
138644
138653
137100
134376
134381
137108
138663
138672
137116
134386
134391
137124
138681
138689
137131
134396
134400
137139
138698
138706
137147
134405
134409
137154
138715
138723
137161
134414
134418
137168
138732
138739
137175
134423
134427
137182
138748
138755
137189
134431
134435
137196
138763
138771
137202
134439
134443
137209
138778
138785
137215
134447
134451
137221
138793
138800
137227
134454
134458
137234
138807
138814
137239
134461
134465
137245
138821
138828
137251
134468
134472
137257
138835
138841
137262
134475
134478
137268
138848
138854
137274
134482
134485
137279
138860
138866
137284
134488
134491
137289
138873
138879
137294
134494
134497
137299
138885
138890
137304
134500
134502
137309
138896
138902
137314
134505
134508
137319
138908
138913
137323
134510
134513
137328
138918
138924
137332
134516
134518
137337
138929
138934
137341
134520
134523
137345
138939
138944
137349
134525
134527
137354
138949
138954
137358
134530
134532
137362
138959
138963
137365
134534
134536
137369
138968
138973
137373
134538
134540
137377
138977
138981
137380
134542
134544
137384
138986
138990
137387
134546
134548
137391
138994
138998
137394
134550
134551
137398
139003
139007
137401
134553
134555
137404
139011
139014
137407
134556
134558
137410
139018
139022
137413
134560
134561
137417
139026
139030
137419
134563
134564
137422
139033
139037
137425
134566
134567
137428
139040
139044
137431
134569
134570
137434
139047
139050
137436
134571
134573
137439
139054
139057
137441
134574
134575
137444
139060
139063
137446
134576
134577
137449
139066
139069
137451
134579
134580
137453
139072
139075
137456
134581
134582
137458
139078
139081
137460
134583
134584
137462
139084
139087
137465
134585
134586
137467
139089
139092
137469
134587
134588
137471
139095
139097
137473
134589
134590
137475
139100
139102
137477
134590
134591
137479
139105
139107
137480
134592
134593
137482
139110
139112
137484
134594
134594
137486
139114
139116
137488
134595
134596
137489
139119
139121
137491
134597
134597
137492
139123
139125
137494
134598
134599
137496
139127
139129
137497
134599
134600
137499
139131
139133
137500
134600
134601
137502
139135
139137
137503
134602
134602
137504
139139
139141
137506
134603
134603
137507
139143
139144
137508
134604
134604
137510
139146
139148
137511
134604
134605
137512
139150
139151
137513
134605
134606
137515
139153
139155
137516
134606
134607
137517
139156
139158
137518
134607
134607
137519
139159
139161
137520
134608
134608
137521
139162
139164
137522
134608
134608
137523
139165
139167
137524
134609
134609
137525
139168
139169
137526
134609
134610
137527
139171
139172
137528
134610
134610
137529
139173
139174
137530
134610
134610
137530
139176
139177
137531
134610
134611
137532
139178
139179
137533
134611
134611
137534
139181
139182
137534
134611
134611
137535
139183
139184
137536
134611
134611
137536
139185
139186
137537
134611
134611
137538
139187
139188
137539
134611
134611
137539
139189
139190
137540
134611
134612
137540
139191
139192
137541
134612
134612
137542
139193
139194
137542
134611
134611
137543
139195
139196
137543
134611
134611
137544
139197
139198
137544
134611
134611
137545
139199
139199
137545
134611
134611
137546
139200
139201
137546
134610
134610
137547
139202
139203
137547
134610
134610
137548
139204
139204
137548
134609
134609
137548
139205
139206
137549
134609
134609
137549
139206
139207
137549
134608
134608
137550
139208
139208
137550
134607
134607
137550
139209
139209
137550
134606
134606
137550
139210
139210
137550
134605
134605
137551
139211
139211
137551
134604
134604
137551
139212
139213
137551
134604
134604
137552
139214
139213
137552
134604
134604
137550
139213
139209
137544
134599
134607
137556
139233
139339
137619
134661
134787
137770
139545
139707
137913
134905
141850
143403
144279
144709
145205
145654
145901
146113
146675
147041
147470
147823
148119
148375
148592
148775
148930
149061
149172
149266
149346
149415
149474
149524
149568
149606
149639
149668
149693
149715
149734
149751
149766
149780
149791
149802
149810
149818
149825
149831
149836
149841
149844
149848
149850
149853
149854
149856
149857
149858
149859
149859
149862
149859
149862
149858
149859
149881
149886
149888
149891
149893
149896
149899
149902
149905
149908
149912
149916
149920
149925
149930
149936
149942
149948
149956
149963
149972
149981
149991
150002
150013
150025
150037
150050
150063
150076
150089
150101
150112
150122
150129
150132
150132
150130
150125
150118
150112
150106
150100
150096
150091
150086
150081
150077
150072
150068
150063
150058
150053
150048
150043
150039
150034
150028
150023
150018
150013
150008
150003
149998
149993
149988
149983
149978
149973
149968
149964
149959
149954
149950
149946
149941
149937
149933
149929
149926
149922
149919
149915
149912
149909
149906
149903
149900
149898
149895
149893
149891
149888
149886
149885
149883
149881
149879
149878
149876
149875
149874
149872
149871
149870
149869
149868
149866
149865
149864
149863
149862
149861
149860
149859
149858
149857
149856
149855
149854
149853
149852
149851
149850
149849
149848
149848
149847
149846
149845
149845
149844
149844
149843
149843
149842
149842
149842
149842
149842
149842
149842
149842
149842
149842
149843
149843
149843
149844
149844
149845
149846
149847
149847
149848
149849
149850
149851
149852
149854
149855
149856
149858
149859
149860
149862
149863
149865
149867
149868
149870
149872
149874
149876
149877
149879
149881
149883
149885
149887
149889
149892
149894
149896
149898
149900
149902
149905
149907
149909
149911
149914
149916
149918
149921
149923
149925
149928
149930
149933
149935
149937
149940
149942
149944
149947
149949
149952
149954
149956
149959
149961
149963
149966
149968
149971
149973
149975
149977
149980
149982
149984
149987
149990
149994
149998
150004
150011
150018
150025
150032
150040
150050
150062
150074
150080
150082
150082
150082
150082
150082
150082
150082
150082
150082
150082
150082
150082
150082
150083
150089
150102
150110
150111
150109
150107
150104
150101
150099
150096
150094
150093
150091
150090
150088
150087
150086
150085
150084
150083
150082
150081
150081
150080
150079
150078
150078
150077
150076
150076
150075
150075
150074
150074
150073
150072
150072
150071
150071
150070
150070
150069
150069
150068
150067
150067
150066
150066
150065
150065
150064
150063
150063
150062
150062
150061
150060
150060
150059
150058
150057
150057
150056
150055
150054
150053
150052
150050
150049
150046
150044
150040
150037
150034
150033
150035
150044
150053
150057
150058
150058
150058
150059
150061
150067
150078
150097
150128
150157
150161
150150
150144
150138
150130
150122
150113
150105
150095
150086
150076
150067
150056
150047
150036
150027
150017
150008
149998
149989
149979
149970
149960
149952
149943
149934
149925
149917
149908
149901
149892
149885
149876
149869
149861
149854
149846
149840
149831
149826
149818
149812
149804
149799
149791
149786
149778
149773
149766
149761
149754
149750
149742
149738
149731
149727
149720
149716
149710
149706
149699
149696
149689
149686
149680
149676
149670
149667
149661
149658
149652
149649
149643
149641
149635
149632
149626
149624
149618
149616
149610
149608
149603
149601
149595
149593
149588
149586
149581
149579
149574
149572
149567
149566
149561
149559
149554
149553
149548
149547
149542
149541
149536
149535
149530
149529
149524
149523
149519
149518
149513
149512
149508
149507
149502
149502
149497
149496
149492
149491
149487
149486
149482
149482
149478
149477
149473
149473
149469
149468
149464
149464
149460
149459
149456
149455
149452
149451
149448
149447
149444
149443
149440
149439
149436
149436
149432
149432
149429
149428
149425
149425
149422
149422
149419
149418
149415
149415
149412
149412
149410
149410
149407
149407
149404
149404
149402
149402
149400
149400
149398
149398
149396
149396
149394
149394
149392
149393
149391
149391
149390
149390
149389
149390
149388
149389
149388
149389
149388
149389
149389
149390
149390
149392
149392
149394
149394
149396
149397
149399
149400
149403
149404
149407
149409
149413
149414
149418
149420
149424
149427
149431
149434
149438
149441
149446
149449
149454
149457
149462
149465
149470
149473
149478
149481
149486
149489
149494
149497
149502
149505
149509
149513
149516
149519
149523
149529
149538
149641
149636
149717
149717
149765
149764
149760
149712
149630
149623
149699
149708
149624
149620
149697
149758
149758
149707
149621
149616
149695
149705
149616
149611
149693
149757
149758
149704
149612
149607
149692
149703
149608
149603
149690
149758
149758
149702
149604
149599
149689
149701
149600
149595
149688
149759
149761
149701
149596
149591
149687
149700
149592
149587
149687
149762
149764
149701
149589
149584
149687
149701
149585
149581
149687
149766
149769
149702
149583
149578
149688
149703
149580
149576
149689
149771
149775
149704
149578
149574
149690
149706
149577
149573
149692
149778
149782
149709
149576
149573
149694
149711
149576
149573
149697
149785
149789
149715
149576
149573
149700
149718
149576
149574
149703
149794
149798
149721
149577
149576
149706
149725
149579
149578
149710
149802
149807
149729
149582
149580
149714
149733
149584
149583
149718
149811
149815
149737
149587
149586
149722
149742
149590
149589
149726
149820
149824
149746
149593
149592
149730
149750
149597
149596
149734
149828
149833
149754
149600
149600
149739
149759
149604
149603
149743
149837
149841
149763
149608
149607
149747
149767
149612
149611
149751
149845
149848
149771
149616
149615
149755
149775
149620
149620
149759
149852
149855
149778
149624
149624
149763
149782
149629
149628
149767
149859
149862
149786
149633
149632
149770
149790
149637
149636
149774
149865
149869
149793
149641
149640
149778
149797
149645
149644
149782
149872
149875
149800
149649
149648
149785
149804
149654
149652
149788
149878
149881
149807
149658
149656
149792
149810
149662
149660
149795
149884
149887
149814
149666
149665
149799
149817
149670
149668
149802
149889
149892
149820
149674
149672
149805
149823
149678
149677
149809
149895
149897
149826
149682
149681
149812
149829
149687
149685
149815
149900
149903
149832
149691
149689
149818
149835
149695
149693
149821
149905
149908
149838
149699
149697
149824
149841
149703
149701
149827
149910
149913
149845
149707
149705
149831
149848
149711
149709
149834
149915
149918
149851
149715
149713
149837
149854
149719
149717
149840
149921
149923
149857
149723
149721
149843
149860
149727
149725
149847
149926
149928
149863
149732
149730
149850
149866
149736
149734
149853
149931
149933
149869
149740
149738
149856
149872
149745
149743
149859
149936
149939
149875
149749
149747
149863
149878
149753
149752
149866
149941
149944
149881
149758
149756
149869
149885
149763
149761
149873
149947
149949
149888
149767
149766
149876
149891
149772
149770
149880
149952
149955
149895
149777
149775
149883
149898
149782
149780
149887
149958
149960
149902
149787
149785
149891
149905
149791
149790
149894
149963
149966
149908
149797
149795
149898
149912
149802
149800
149902
149969
149972
149916
149807
149806
149906
149919
149812
149811
149910
149975
149978
149923
149818
149817
149914
149927
149824
149823
149918
149981
149985