/*--------------------------------*- C++ -*----------------------------------*\
| =========                 |                                                 |
| \\      /  F ield         | OpenFOAM: The Open Source CFD Toolbox           |
|  \\    /   O peration     | Version:  v2006                                 |
|   \\  /    A nd           | Website:  www.openfoam.com                      |
|    \\/     M anipulation  |                                                 |
\*---------------------------------------------------------------------------*/
FoamFile
{
    version     2.0;
    format      ascii;
    class       volScalarField;
    location    "0.05";
    object      k;
}
// * * * * * * * * * * * * * * * * * * * * * * * * * * * * * * * * * * * * * //

dimensions      [0 2 -2 0 0 0 0];


internalField   nonuniform List<scalar> 
24416
(
229.069
229.069
229.069
229.069
229.069
229.07
229.07
229.071
229.073
229.074
229.075
229.076
229.076
229.076
229.064
229.001
228.837
228.565
228.212
227.808
227.376
226.935
226.493
226.053
225.614
225.174
224.73
224.281
223.823
223.358
222.883
222.4
221.908
221.408
220.901
220.386
219.865
219.337
218.804
218.265
217.72
217.17
216.615
216.057
215.494
214.927
214.357
213.784
213.209
212.632
212.053
211.473
210.893
210.312
209.731
209.151
208.572
207.994
207.418
206.845
206.274
205.707
205.143
204.583
204.027
203.476
202.931
202.39
201.856
201.328
200.806
200.292
199.785
199.285
198.795
198.314
197.842
197.38
196.928
196.484
196.046
195.61
195.171
194.724
194.268
193.807
193.354
192.945
192.628
192.45
192.421
192.488
192.574
192.643
192.721
192.789
192.867
192.95
193.024
193.07
193.062
192.995
192.852
192.493
191.875
191.056
189.986
187.951
184.741
168.311
150.345
175.784
185.528
180.244
163.417
135.612
124.136
153.077
174.449
167.735
142.219
114.307
107.155
134.891
161.982
155.468
126.702
100.82
96.2972
121.642
150.845
145.253
115.288
91.9547
88.6922
111.565
141.688
136.769
107.214
85.5679
83.3111
104.859
134.118
130.005
101.61
81.0054
79.3687
100.034
128.006
124.481
97.477
77.5911
76.3451
96.3662
122.948
119.875
94.288
74.9263
73.9301
93.4355
118.652
115.952
91.718
72.7621
71.933
91.0048
114.909
112.529
89.5495
70.9406
70.2293
88.9333
111.618
109.482
87.6639
69.3634
68.7378
87.1175
108.674
106.734
85.9849
67.966
67.4047
85.4912
106.007
104.225
84.4635
66.705
66.1936
84.0107
103.565
101.913
83.0656
65.551
65.0803
82.6468
101.309
99.7686
81.7693
64.4837
64.0443
81.3783
99.2107
97.7655
80.5567
63.4851
63.0723
80.1888
97.2476
95.8847
79.4148
62.5449
62.1545
79.0674
95.4019
94.1125
78.3351
61.6546
61.2835
78.0057
93.661
92.4379
77.3104
60.8074
60.4531
76.9972
92.0146
90.8513
76.3352
59.998
59.6585
76.0366
90.4533
89.3452
75.4047
59.222
58.8955
75.1193
88.9705
87.913
74.515
58.4757
58.1609
74.2417
87.5598
86.549
73.6624
57.7561
57.4517
73.4004
86.2158
85.2495
72.8444
57.0605
56.7654
72.5929
84.9354
84.0114
72.059
56.3865
56.0999
71.8174
83.715
82.8303
71.3042
55.7324
55.4537
71.0719
82.5498
81.7008
70.5777
55.0966
54.825
70.3537
81.4349
80.6185
69.8765
54.4773
54.2121
69.66
80.3661
79.5807
69.1984
53.873
53.6136
68.9887
79.3406
78.5834
68.5412
53.2821
53.028
68.3376
78.3545
77.6232
67.9028
52.7034
52.4538
67.7047
77.4049
76.6981
67.2813
52.1353
51.8899
67.0882
76.4896
75.8058
66.6753
51.5768
51.3349
66.4868
75.6064
74.9441
66.0836
51.0267
50.788
65.8991
74.7526
74.1095
65.5045
50.484
50.2482
65.3236
73.9255
73.3007
64.9367
49.9478
49.7144
64.759
73.1233
72.5149
64.3786
49.4172
49.1857
64.2035
72.3436
71.7507
63.829
48.8912
48.6612
63.6562
71.5851
71.0067
63.2868
48.3687
48.1399
63.1161
70.8461
70.2805
62.751
47.8491
47.6212
62.5818
70.1242
69.5702
62.2203
47.3315
47.1042
62.0522
69.4177
68.8744
61.6934
46.8152
46.588
61.526
68.7252
68.1916
61.1693
46.2992
46.0718
61.0025
68.0455
67.521
60.6472
45.7828
45.5549
60.4806
67.3776
66.8612
60.1264
45.2653
45.0366
59.9599
66.7202
66.2114
59.6062
44.7461
44.5162
59.4395
66.0725
65.5703
59.0859
44.2244
43.9931
58.9188
65.4334
64.9379
58.565
43.6997
43.4668
58.3974
64.8027
64.313
58.0432
43.1715
42.9368
57.8748
64.1791
63.6942
57.5196
42.6394
42.4026
57.3503
63.5613
63.0813
56.9935
42.1026
41.8636
56.8235
62.9493
62.4733
56.4653
41.5609
41.3194
56.2942
62.342
61.8693
55.9342
41.0137
40.7696
55.7618
61.7381
61.2679
55.3992
40.4605
40.2136
55.2251
61.1367
60.6684
54.8594
39.9008
39.6507
54.6833
60.5368
60.07
54.3138
39.334
39.0805
54.1356
59.9379
59.4721
53.762
38.7595
38.5024
53.5814
59.3393
58.874
53.2032
38.1768
37.9159
53.0202
58.7404
58.2752
52.6372
37.5854
37.3207
52.4514
58.1405
57.6751
52.0633
36.9851
36.7162
51.8747
57.5392
57.0732
51.4811
36.3753
36.1021
51.2896
56.936
56.4688
50.8902
35.7558
35.478
50.6956
56.3302
55.8619
50.2901
35.126
34.8434
50.0922
55.7219
55.2524
49.6808
34.4856
34.1982
49.4795
55.1108
54.6397
49.0619
33.8345
33.5422
48.8572
54.4962
54.0229
48.4331
33.1725
32.8752
48.2247
53.8774
53.4014
47.7938
32.4993
32.197
47.5815
53.2535
52.7743
47.1433
31.8149
31.5076
46.927
52.6239
52.1411
46.4812
31.1191
30.8067
46.2606
51.988
51.5011
45.8069
30.4118
30.0943
45.582
51.3451
50.8541
45.1201
29.693
29.3704
44.8907
50.6949
50.1988
44.4204
28.9626
28.6351
44.1863
50.0363
49.5345
43.7071
28.2209
27.8884
43.4681
49.3686
48.8614
42.9799
27.4677
27.1304
42.7362
48.6923
48.1798
42.239
26.7035
26.3615
41.9907
48.0074
47.4896
41.4849
25.9286
25.5824
41.2321
47.3138
46.7905
40.7179
25.144
24.7939
40.4608
46.6113
46.0823
39.9383
24.3505
23.997
39.6768
45.8996
45.3648
39.1462
23.5491
23.1929
38.8805
45.1784
44.6371
38.3419
22.7412
22.3824
38.072
44.4471
43.8996
37.5255
21.9281
21.5667
37.2517
43.7059
43.1524
36.6975
21.1115
20.7463
36.42
42.9552
42.3959
35.8589
20.2944
19.9204
35.5779
42.1954
41.6309
35.0115
19.4824
19.0839
34.7258
41.4272
40.8571
34.1523
18.6885
18.4
33.873
40.6508
40.0779
33.3125
18.0578
17.7919
33.0412
39.8709
39.2988
32.4954
17.4598
17.1961
32.2311
39.0925
38.5241
31.6985
16.8651
16.6002
31.4404
38.3194
37.7559
30.9195
16.2691
16.0035
30.6675
37.5534
36.9957
30.1576
15.6733
15.4084
29.9112
36.796
36.2456
29.412
15.0807
14.8183
29.1712
36.0494
35.5073
28.6823
14.4946
14.2364
28.4472
35.3151
34.7819
27.9689
13.9186
13.6664
27.7398
34.594
34.0704
27.2725
13.3564
13.1121
27.0496
33.8871
33.3736
26.5937
12.8116
12.577
26.3773
33.1953
32.6922
25.9333
12.2879
12.0647
25.7236
32.5188
32.0263
25.2919
11.7886
11.5782
25.0894
31.8581
31.3764
24.6705
11.3165
11.1203
24.4752
31.2133
30.743
24.0698
10.8742
10.6933
23.8821
30.585
30.1249
23.4898
10.4635
10.2985
23.3096
29.9718
29.5218
22.9307
10.0858
9.93687
22.7583
29.3751
28.9349
22.3936
9.7414
9.60834
22.2279
28.7937
28.3636
21.876
9.42964
9.31203
21.7176
28.2272
27.8078
21.3792
9.14967
9.04687
21.228
27.6757
27.2662
20.9025
8.90005
8.81101
20.758
27.138
26.7378
20.4443
8.67844
8.60176
20.3061
26.6136
26.2234
20.0043
8.48231
8.41669
19.8722
26.1033
25.7235
19.5825
8.30919
8.25328
19.4562
25.6063
25.2385
19.1778
8.15637
8.1088
19.0576
25.1234
24.7657
18.7908
8.02136
7.98078
18.6754
24.6534
24.3037
18.4184
7.90138
7.86566
18.3073
24.195
23.8543
18.0586
7.79314
7.7609
17.953
23.7491
23.417
17.7142
7.69435
7.66462
17.613
23.3144
22.99
17.3823
7.60238
7.57395
17.2838
22.8894
22.5715
17.0588
7.51393
7.48536
16.9613
22.4724
22.1557
16.7312
7.42299
7.39674
16.6562
22.0695
21.7317
16.3778
7.32831
7.29837
16.3181
21.6356
21.3258
16.0703
7.23292
7.18852
15.9685
21.2214
20.9236
15.7326
7.13128
7.04722
15.54
20.7073
20.5806
15.4214
6.97987
7.04012
15.5953
20.6919
20.8114
15.696
7.09778
29.0981
35.8793
42.3196
49.175
55.9628
64.1197
70.9632
77.7498
83.9136
89.9758
95.6934
101.3
106.672
111.928
117.004
121.964
126.777
131.476
136.046
140.501
144.836
149.05
153.144
157.109
160.945
164.636
168.184
171.564
174.773
177.779
180.571
183.127
185.407
187.376
188.967
190.132
190.763
190.77
190.002
188.289
185.419
181.115
175.036
166.691
157.523
143.323
126.849
106.748
82.5888
56.9391
41.5785
22.9897
22.2222
39.6124
54.5226
53.1858
38.6102
21.4028
20.6053
37.0567
51.3576
51.4213
37.1289
20.12
19.9451
37.1295
51.7028
51.5113
36.838
19.7573
19.8503
37.2593
52.5392
52.5166
37.1637
19.8166
20.0197
37.8518
53.734
53.5767
37.6396
19.9621
20.2164
38.4054
54.8717
54.8435
38.2901
20.2035
20.4758
39.1365
56.198
56.055
38.9357
20.4322
20.7303
39.8054
57.5168
57.5345
39.7047
20.7312
21.044
40.6564
59.0414
58.913
40.463
21.0042
21.3464
41.4503
60.5582
60.6199
41.3637
21.3555
21.7019
42.4276
62.2886
62.1742
42.242
21.6663
22.0459
43.3542
64.0212
64.1263
43.2826
22.0624
22.4433
44.4719
65.9825
65.8873
44.2946
22.4097
22.829
45.545
67.9595
68.1142
45.4898
22.8517
23.2718
46.8207
70.1814
70.107
46.6536
23.24
23.7073
48.0692
72.4485
72.667
48.0355
23.7379
24.2071
49.5364
74.9896
74.9445
49.3833
24.1786
24.7075
50.9997
77.6217
77.9282
50.9922
24.7501
25.2798
52.6857
80.5662
80.5622
52.543
25.2577
25.8646
54.3794
83.6657
84.083
54.391
25.9274
26.5431
56.2849
87.138
87.225
56.1391
26.5556
27.3252
58.2905
90.9357
91.5503
58.3642
27.4851
28.4368
60.7188
95.3369
95.6713
60.6225
28.6833
29.8964
63.6961
100.387
100.957
63.5517
30.0147
30.9428
66.9568
105.74
105.419
65.9664
30.6323
31.148
68.73
110.342
110.451
67.7802
30.8362
31.6243
70.0918
115.744
116.768
70.0054
32.5471
36.476
77.8867
123.442
124.152
89.5017
41.8415
23.0943
38.7719
72.7087
114.243
66.0739
28.4457
29.1441
64.3101
115.091
133.731
71.8724
34.7648
45.6911
81.7853
166.227
218.513
126.242
65.7517
90.2055
184.378
245.129
267.322
199.568
97.5198
111.795
233.287
294.705
304.297
245.51
117.023
118.803
246.029
302.624
325.843
272.778
138.76
158.664
299.183
347.559
369.592
326.844
180.166
206.555
354.339
392.312
413.321
380.337
231.856
254.642
401.17
424.761
428.987
413.639
271.26
291.531
423.947
432.337
424.503
423.714
309.969
321.826
420.777
417.683
408.01
415.199
329.399
335.652
402.348
387.927
375.465
388.529
336.908
336.731
378.44
366.267
357.193
369.271
334.855
331.773
368.588
358.374
359.008
371.34
327.574
322.051
378.16
375.157
383.091
366.784
315.871
309.675
337.828
367.793
364.125
326.958
304.778
298.596
309.57
336.52
307.024
296.367
293.19
285.324
282.38
290.513
272.92
265.966
278.766
268.457
248.215
248.158
234.377
229.889
255.339
237.191
211.07
218.791
192.092
191.711
216.05
187.786
169.122
183.723
167.279
153.482
163.847
132.245
122.056
131.778
127.188
98.4099
85.5525
69.2571
79.3679
110.291
66.1984
47.7477
47.97
49.4137
61.8264
75.4915
67.133
54.3355
44.5151
37.921
35.2541
43.5545
49.2453
42.3811
38.8649
37.4568
38.5831
44.9591
31.3917
28.8697
34.0919
34.7998
32.3305
37.9069
34.5117
30.1297
34.347
35.2535
24.1223
25.4522
28.2306
25.6957
31.7979
32.7546
24.7184
27.0292
21.3272
21.1664
35.4922
31.7699
24.2349
25.3091
20.7563
22.1375
34.0952
30.535
23.03
27.0885
25.3395
22.4933
32.3402
36.4452
20.9123
19.7909
27.249
22.7048
31.8916
33.8407
22.4801
25.501
19.7887
20.9025
38.1881
32.9035
22.2065
26.2368
24.7229
22.505
35.2552
40.8754
21.062
19.9646
22.3591
22.3451
34.8072
38.7787
22.4135
19.3068
24.1309
21.2306
33.3956
36.1704
21.8748
22.8988
19.4646
21.4778
42.4582
35.8084
20.8473
21.2964
18.9495
22.7751
40.563
34.1093
20.422
21.8466
20.6688
19.8364
36.8841
42.1355
23.6839
18.7415
20.4055
20.4296
35.66
39.5578
20.0268
19.9364
18.5518
25.3028
45.4422
38.2989
18.9568
20.5747
18.6621
23.238
46.2177
38.1719
18.4059
21.0993
18.8737
22.3639
44.3551
36.9042
20.0745
21.4004
19.8791
19.8858
40.6903
48.5447
25.3744
19.2261
20.0816
19.143
40.0045
46.4542
24.7372
18.898
21.069
20.7447
38.8491
43.2429
20.7096
19.4002
19.8423
27.6753
52.8207
42.5654
18.7248
18.8992
18.9022
27.316
49.9352
41.204
18.9825
19.6867
18.9004
25.1535
49.056
40.4309
20.6966
21.0133
19.4663
20.8213
45.2915
53.3341
30.627
20.1197
19.6541
19.4231
44.1688
55.0838
27.6673
19.7035
20.5584
18.9929
44.6385
53.2438
26.2259
19.8517
21.8112
21.4309
43.9574
49.161
21.9046
20.1237
21.4728
31.9263
60.482
48.3434
20.0369
19.9603
20.5206
31.2624
58.5956
47.4677
20.0728
20.1114
20.256
29.1022
56.7621
46.2732
22.0345
21.8284
20.2879
22.7125
52.1402
65.049
34.4225
22.1738
20.2548
20.7859
51.5952
62.7079
33.3111
21.2309
20.7838
20.5081
50.6036
61.1427
32.3147
21.4977
21.592
21.0182
50.0334
60.5439
30.9563
21.8173
23.0629
23.1556
49.2277
55.7924
24.4892
21.5181
23.7316
37.8113
69.6112
56.2176
22.2936
22.0922
23.2651
34.7629
71.2113
56.7267
21.255
22.3244
23.318
34.0342
69.0058
55.7111
21.6351
22.5297
23.4593
34.5724
67.8951
55.0162
22.3473
22.9098
23.4053
33.9246
66.1582
53.6535
24.7991
24.2982
22.6869
25.8509
60.717
73.8554
43.1075
25.5175
23.471
24.6993
60.5165
76.5211
38.3987
25.0806
23.6858
23.1852
60.745
73.737
37.185
25.0377
23.9311
23.4787
59.8206
72.8989
37.5623
25.257
24.3827
24.1553
59.2473
71.3101
37.8328
25.3677
25.9465
26.6645
57.8886
65.7964
28.3852
24.3809
27.8659
46.0866
82.3193
66.4921
26.2516
25.3852
27.4637
41.8188
84.3138
67.1744
24.8652
25.2178
27.2345
40.9852
82.4995
66.0048
25.0918
25.1359
27.0044
40.9862
80.3104
65.0515
25.5488
25.3634
26.791
41.4107
78.2186
63.1153
28.2076
27.0776
25.4528
29.9961
71.5102
89.8908
50.1967
29.7538
26.3987
27.9832
72.2993
89.9849
45.375
28.859
26.4299
26.3948
72.3236
88.1466
44.1634
28.7869
26.572
26.6252
71.1898
86.6164
44.1723
28.906
26.9578
27.4093
70.1577
84.3979
44.6758
28.7502
28.5526
30.0753
68.0071
77.6439
32.5004
27.124
31.9337
55.8841
96.1781
77.8521
30.8244
28.1624
31.2854
50.7612
97.3926
77.4693
28.9886
28.1409
31.0243
48.9069
94.6447
76.6814
29.0377
28.2155
31.155
48.9401
94.1718
75.8199
29.6872
28.546
30.7683
48.9999
91.7641
74.0837
32.2098
30.1741
28.5303
34.3254
84.1868
105.675
59.5896
34.4556
30.14
32.7536
83.7413
106.56
54.3423
33.7568
30.1284
30.8426
84.1175
103.385
52.474
33.478
30.2695
31.0148
82.1195
99.9606
52.2149
33.5553
30.6663
31.8697
80.2144
97.4568
52.3372
33.1914
32.1106
34.4226
78.2055
89.7782
37.4891
30.7365
37.153
64.7211
113.625
92.0813
35.5833
32.8086
36.8102
58.4328
116.572
91.1961
33.289
32.5572
36.2777
56.6996
111.09
88.0831
33.7856
32.5328
35.5108
56.3002
106.95
86.1207
36.5407
33.8397
32.2159
39.0902
98.6938
123.29
69.9102
39.5523
34.4786
37.896
99.0181
123.67
62.1988
38.9352
34.425
35.3361
96.963
117.137
59.7998
38.438
34.4708
35.7514
93.5982
113.51
60.1568
37.8063
35.7389
38.8064
90.2382
104.001
42.3705
34.4719
42.6095
75.4234
128.688
103.716
40.802
36.9305
41.7458
67.1275
129.596
102.324
38.3136
36.9756
40.715
65.0055
124.37
98.3054
41.1835
38.2012
36.4686
44.7615
112.979
141.531
80.2503
46.0123
38.9562
43.1702
112.268
139.56
71.1915
44.5227
39.0249
40.3188
108.492
132.255
68.4851
43.1631
40.1056
43.4264
104.99
121.513
47.4611
38.5241
48.775
86.0375
151.484
119.685
45.6754
41.0356
47.4312
75.8195
147.361
115.478
42.8179
41.1324
45.7308
72.9624
141.468
111.474
46.0805
42.3545
40.5285
49.6276
128.993
159.378
91.0507
51.4669
43.1767
48.9461
125.508
154.882
79.5329
48.8645
44.1498
48.312
120.697
139.234
51.696
42.0778
55.1074
98.7882
174.421
135.517
51.4341
44.8317
51.7953
84.8793
167.361
128.857
49.987
45.4646
43.5569
54.1914
148.552
182.647
101.724
56.965
46.4446
52.5333
141.116
177.235
90.7955
54.671
47.3717
52.7587
137.182
158.819
57.0872
45.6428
60.0404
109.074
192.505
147.943
55.9824
48.5454
56.6081
93.6495
184.589
142.715
55.004
49.2233
47.0874
58.3661
165.09
203.681
112.54
60.6995
50.4091
60.3423
156.561
179.914
61.8405
48.8333
64.4338
121.603
221.58
168.153
62.9058
51.9674
50.0863
65.1996
194.091
238.924
129.041
67.794
53.4772
65.7408
180.987
204.113
66.1757
51.4755
71.4954
136.207
255.899
191.624
68.0646
55.2033
53.1701
70.526
219.769
271.237
141.99
73.9944
56.468
70.1166
198.73
227.747
72.7154
54.4957
77.243
151.851
286.381
212.042
74.0804
58.2672
56.1323
73.814
240.012
298.947
153.788
78.3212
59.5266
74.9558
220.298
253.038
86.2188
57.4692
56.1404
86.9856
286.959
353.547
181.826
87.7498
62.6602
82.028
253.98
294.265
85.972
59.8088
57.2047
91.6458
324.826
377.838
115.282
58.0084
54.7494
99.1629
406.926
455.564
128.998
57.3359
53.2184
101.771
463.471
506.159
249.456
103.972
62.5645
93.1325
323.568
344.016
96.1275
60.1588
58.3045
105.062
365.296
364.936
110.244
56.8576
55.3945
114.797
359.666
347.322
118.798
54.3536
53.5536
122.802
328.927
308.474
126.744
53.2543
53.3799
130.664
287.48
266.933
135.348
53.8208
54.8067
139.551
247.436
229.446
144.707
55.9524
57.9261
149.212
213.059
198.322
153.748
59.7434
62.4484
157.251
185.105
173.307
159.96
65.4988
69.4413
161.625
162.752
153.322
163.022
73.258
77.2846
164.328
144.928
137.463
165.511
81.1691
85.2465
166.624
130.846
124.983
167.633
89.1369
93.2404
168.593
119.81
115.246
169.456
97.0851
101.164
170.286
111.236
107.717
171.03
104.91
108.699
171.739
104.645
101.964
172.36
112.169
115.669
172.938
99.6353
97.6164
173.403
118.836
122.04
173.799
95.8726
94.3684
174.083
124.916
127.815
174.298
93.0721
91.9636
174.383
130.365
132.939
174.356
91.0051
90.1868
174.264
135.164
137.411
174.072
89.4804
88.8773
173.765
139.298
141.214
173.358
88.3487
87.8927
172.871
142.781
144.375
172.297
87.4828
87.127
171.65
145.624
146.91
170.914
86.797
86.5034
170.135
147.874
148.872
169.285
86.2199
85.9648
168.401
149.57
150.304
167.45
85.7095
85.4735
166.491
150.763
151.243
165.483
85.2297
85.0042
164.468
151.497
151.76
163.416
84.7646
84.5442
162.368
151.866
151.939
161.319
84.2973
84.0906
160.251
151.909
151.862
159.203
83.8412
83.643
158.144
151.728
151.611
157.119
83.4019
83.2111
156.078
151.355
151.193
155.084
82.9775
82.7956
154.081
150.856
150.655
153.126
82.5671
82.3971
152.175
150.272
150.03
151.264
82.18
82.0256
150.372
149.633
149.365
149.51
81.8184
81.6806
148.683
148.964
148.684
147.872
81.4914
81.3737
147.112
148.295
148.01
146.353
81.201
81.1033
145.658
147.638
147.346
144.95
80.9531
80.8806
144.322
147.005
146.709
143.665
80.7501
80.6997
143.104
146.403
146.103
142.477
80.5972
80.5619
141.989
145.847
145.545
141.414
80.4848
80.4654
140.987
145.344
145.034
140.458
80.4192
80.4144
140.091
144.832
144.495
139.602
80.3963
80.4047
139.269
144.3
143.958
138.816
80.4069
80.4272
138.511
143.781
143.449
138.095
80.439
80.4773
137.817
143.286
142.972
137.423
80.4989
80.5537
137.18
142.83
142.543
136.82
80.5829
80.6509
136.6
142.416
142.159
136.275
80.6894
80.7732
136.081
142.052
141.832
135.791
80.8185
80.9145
135.621
141.742
141.555
135.366
80.9689
81.0799
135.222
141.483
141.33
135.003
81.1434
81.2637
134.883
141.273
141.149
134.699
81.3416
81.4728
134.605
141.108
141.011
134.454
81.5626
81.7014
134.382
140.981
140.907
134.261
81.8056
81.9546
134.21
140.889
140.836
134.117
82.07
82.2253
134.082
140.826
140.789
134.016
82.3536
82.5176
133.995
140.787
140.764
133.953
82.6551
82.8242
133.943
140.767
140.754
133.922
82.9719
83.1486
133.922
140.764
140.755
133.923
83.3024
83.4851
133.929
140.766
140.762
133.936
83.6453
83.8342
133.958
140.776
140.769
133.973
83.9976
84.1908
134.004
140.786
140.783
134.022
84.3587
84.5554
134.065
140.797
140.792
134.087
84.7256
84.9242
134.136
140.804
140.798
134.161
85.0971
85.2981
134.216
140.808
140.797
134.243
85.4721
85.6729
134.3
140.803
140.79
134.331
85.8486
86.0502
134.388
140.794
140.775
134.427
86.2251
86.4266
134.482
140.775
140.749
134.516
86.6017
86.8022
134.575
140.747
140.717
134.614
86.9752
87.1748
134.672
140.709
140.67
134.703
87.3471
87.5446
134.765
140.657
140.614
134.796
87.7149
87.9093
134.857
140.596
140.546
134.886
88.0782
88.2706
134.946
140.524
140.466
134.974
88.4367
88.6251
135.031
140.441
140.374
135.059
88.7892
88.9748
135.112
140.348
140.275
135.143
89.135
89.3174
135.192
140.244
140.161
135.216
89.4752
89.6537
135.265
140.128
140.043
135.293
89.8074
89.9824
135.338
140.005
139.91
135.359
90.1334
90.3044
135.405
139.871
139.775
135.426
90.4512
90.6178
135.471
139.73
139.627
135.489
90.7624
90.9254
135.53
139.58
139.474
135.547
91.0658
91.2243
135.585
139.425
139.312
135.601
91.3612
91.5166
135.634
139.265
139.149
135.652
91.649
91.7999
135.686
139.096
138.976
135.7
91.93
92.0768
135.733
138.92
138.801
135.746
92.2031
92.3456
135.777
138.743
138.618
135.789
92.4688
92.6082
135.818
138.562
138.437
135.831
92.7272
92.8628
135.857
138.377
138.247
135.868
92.9795
93.1112
135.893
138.186
138.057
135.903
93.2246
93.3521
135.927
137.995
137.864
135.936
93.4627
93.587
135.959
137.801
137.67
135.967
93.6944
93.8144
135.989
137.606
137.473
135.995
93.9197
94.0354
136.016
137.409
137.27
136.038
94.1388
94.2523
136.053
137.207
137.072
136.06
94.3519
94.4615
136.058
137.015
136.885
136.065
94.5538
94.6613
136.083
136.82
136.68
136.089
94.7523
94.8574
136.107
136.618
136.486
136.114
94.9456
95.0481
136.13
136.422
136.285
136.135
95.1347
95.2342
136.15
136.224
136.094
136.156
95.3179
95.4148
136.17
136.029
135.895
136.174
95.4966
95.5904
136.187
135.834
135.706
136.193
95.6693
95.7607
136.205
135.643
135.51
136.209
95.8378
95.9263
136.221
135.45
135.324
136.226
96.0008
96.087
136.238
135.262
135.132
136.241
96.1597
96.2432
136.252
135.073
134.951
136.257
96.3134
96.3947
136.268
134.887
134.764
136.271
96.4634
96.5421
136.281
134.702
134.587
136.286
96.6083
96.6849
136.295
134.521
134.403
136.298
96.7498
96.8239
136.308
134.341
134.231
136.312
96.8867
96.9587
136.324
134.166
134.056
136.326
97.0204
97.0907
136.331
133.983
133.881
136.337
97.15
97.2181
136.343
133.812
133.705
136.345
97.2759
97.3417
136.352
133.639
133.539
136.356
97.3975
97.4614
136.364
133.471
133.37
136.366
97.5161
97.5783
136.368
133.296
133.199
136.37
97.6308
97.6904
136.377
133.134
133.032
136.377
97.7419
97.7997
136.381
132.966
132.868
136.381
97.8495
97.9053
136.383
132.798
132.708
136.383
97.9531
98.0076
136.382
132.63
132.546
136.384
98.0534
98.1059
136.384
132.473
132.382
136.383
98.1504
98.2009
136.383
132.314
132.23
136.385
98.2437
98.293
136.385
132.161
132.069
136.382
98.3347
98.3819
136.383
132.007
131.918
136.381
98.4223
98.4679
136.381
131.854
131.769
136.379
98.5067
98.5511
136.378
131.702
131.626
136.378
98.5882
98.6315
136.376
131.557
131.475
136.375
98.6673
98.7089
136.374
131.418
131.331
136.371
98.7442
98.7842
136.37
131.274
131.189
136.366
98.8179
98.8566
136.365
131.132
131.052
136.361
98.8894
98.9265
136.36
130.991
130.918
136.357
98.9579
98.9942
136.35
130.85
130.782
136.349
99.024
99.0586
136.347
130.722
130.652
136.345
99.0877
99.1217
136.338
130.584
130.521
136.336
99.1492
99.1819
136.333
130.46
130.389
136.328
99.2086
99.2398
136.324
130.331
130.269
136.323
99.2653
99.2959
136.318
130.209
130.14
136.314
99.3206
99.3497
136.309
130.084
130.025
136.308
99.3732
99.4017
136.303
129.966
129.9
136.298
99.4245
99.4516
136.293
129.846
129.79
136.291
99.4731
99.4997
136.286
129.733
129.67
136.281
99.5207
99.5459
136.276
129.617
129.564
136.274
99.5656
99.5903
136.269
129.509
129.448
136.264
99.6096
99.6331
136.259
129.398
129.347
136.257
99.6512
99.6743
136.252
129.295
129.237
136.247
99.692
99.7139
136.242
129.189
129.14
136.24
99.7305
99.7521
136.235
129.09
129.034
136.231
99.7684
99.789
136.226
128.99
128.942
136.224
99.8041
99.8246
136.221
128.896
128.839
136.214
99.8395
99.8585
136.212
128.803
128.749
136.207
99.8732
99.8913
136.204
128.71
128.661
136.201
99.9055
99.9233
136.196
128.616
128.58
136.195
99.9366
99.9543
136.19
128.528
128.491
136.189
99.967
99.9842
136.183
128.444
128.404
136.182
99.9965
100.013
136.18
128.365
128.324
136.177
100.025
100.041
136.17
128.279
128.242
136.169
100.052
100.068
136.167
128.205
128.158
136.161
100.079
100.094
136.16
128.13
128.083
136.157
100.105
100.119
136.156
128.056
128.009
136.152
100.129
100.143
136.151
127.983
127.938
136.147
100.153
100.167
136.146
127.912
127.867
136.143
100.177
100.19
136.142
127.842
127.799
136.139
100.2
100.212
136.138
127.774
127.732
136.134
100.221
100.234
136.133
127.707
127.667
136.13
100.243
100.255
136.129
127.642
127.604
136.126
100.263
100.275
136.125
127.578
127.543
136.123
100.283
100.294
136.122
127.515
127.485
136.119
100.302
100.313
136.118
127.452
127.423
136.115
100.321
100.331
136.114
127.398
127.366
136.112
100.339
100.349
136.111
127.338
127.306
136.108
100.356
100.366
136.107
127.288
127.251
136.105
100.373
100.383
136.104
127.233
127.197
136.102
100.389
100.399
136.101
127.18
127.144
136.099
100.405
100.415
136.098
127.127
127.093
136.096
100.421
100.431
136.096
127.076
127.042
136.093
100.437
100.446
136.093
127.026
126.994
136.09
100.452
100.461
136.09
126.977
126.948
136.088
100.467
100.476
136.086
126.925
126.906
136.087
100.481
100.491
136.085
126.88
126.853
136.083
100.496
100.505
136.081
126.832
126.814
136.081
100.51
100.519
136.079
126.789
126.763
136.077
100.524
100.533
136.075
126.742
126.725
136.076
100.538
100.547
136.073
126.702
126.675
136.072
100.552
100.561
136.07
126.657
126.639
136.071
100.565
100.575
136.069
126.618
126.59
136.066
100.58
100.589
136.066
126.578
126.551
136.064
100.594
100.603
136.063
126.538
126.512
136.062
100.608
100.618
136.061
126.498
126.477
136.062
100.624
100.633
136.061
126.464
126.436
136.059
100.641
100.649
136.061
126.424
126.386
136.072
100.659
100.669
136.053
126.383
126.368
136.053
100.675
100.688
136.051
126.342
126.33
136.053
100.694
100.707
136.051
126.31
126.288
136.051
100.715
100.728
136.051
126.272
126.26
136.054
100.736
100.751
136.053
126.24
126.218
136.053
100.759
100.774
136.053
126.202
126.19
136.056
100.783
100.798
136.055
126.171
126.15
136.055
100.807
100.822
136.056
126.135
126.124
136.061
100.831
100.846
136.06
126.105
126.085
136.061
100.854
100.868
136.063
126.072
126.05
136.064
100.876
100.888
136.067
126.041
126.021
136.068
100.897
100.908
136.071
126.012
125.993
136.072
100.917
100.927
136.076
125.984
125.962
136.077
100.939
100.948
136.083
125.963
125.938
136.083
100.971
100.968
136.078
125.933
125.911
136.112
101.02
101.039
136.055
125.905
125.847
135.95
101.039
101.104
135.822
125.775
125.646
135.504
101.864
103.196
135.126
125.625
125.677
135.606
104.987
121.975
105.864
100.499
102.155
111.092
127.987
139.39
146.575
164.525
179.876
190.342
199.219
206.55
212.31
216.663
219.712
221.7
222.853
223.393
223.502
223.324
222.967
222.507
222
221.48
220.97
220.485
220.031
219.613
219.231
218.884
218.57
218.286
218.032
217.803
217.597
217.412
217.246
217.097
216.964
216.844
216.737
216.641
216.555
216.479
216.411
216.351
216.298
216.251
216.211
216.176
216.147
216.124
216.106
216.094
216.086
216.083
216.08
216.078
216.074
216.069
216.064
216.057
216.049
216.04
216.031
216.021
216.01
215.998
215.986
215.973
215.959
215.944
215.929
215.913
215.897
215.88
215.863
215.845
215.827
215.808
215.79
215.771
215.752
215.733
215.713
215.694
215.675
215.655
215.636
215.616
215.596
215.576
215.554
215.53
215.498
215.455
215.401
215.337
215.265
215.189
215.11
215.03
214.95
214.875
214.808
214.749
214.702
214.667
214.646
214.64
214.645
214.664
214.695
214.737
214.788
214.848
214.915
214.987
215.062
215.14
215.219
215.299
215.378
215.457
215.534
215.611
215.687
215.761
215.836
215.91
215.984
216.058
216.133
216.209
216.285
216.363
216.442
216.523
216.605
216.689
216.775
216.864
216.955
217.048
217.144
217.242
217.343
217.447
217.553
217.662
217.774
217.889
218.007
218.127
218.25
218.375
218.503
218.633
218.765
218.899
219.036
219.173
219.313
219.454
219.596
219.739
219.883
220.028
220.173
220.319
220.465
220.61
220.755
220.9
221.045
221.188
221.331
221.472
221.613
221.752
221.89
222.026
222.161
222.293
222.425
222.554
222.681
222.807
222.93
223.052
223.171
223.288
223.403
223.517
223.627
223.736
223.843
223.947
224.05
224.15
224.249
224.345
224.439
224.532
224.622
224.71
224.797
224.882
224.965
225.046
225.125
225.203
225.279
225.354
225.427
225.498
225.568
225.637
225.704
225.77
225.834
225.898
225.96
226.021
226.081
226.14
226.197
226.254
226.31
226.365
226.419
226.472
226.525
226.577
226.628
226.678
226.728
226.777
226.826
226.874
226.922
226.969
227.016
227.063
227.109
227.155
227.201
227.246
227.291
227.337
227.382
227.427
227.472
227.517
227.562
227.607
227.652
227.697
227.742
227.787
227.833
227.879
227.925
227.971
228.017
228.064
228.111
228.158
228.206
228.253
228.301
228.349
228.397
228.445
228.494
228.542
228.589
228.636
228.682
228.726
228.769
228.81
228.848
228.883
228.915
228.944
228.969
228.993
229.016
229.038
229.056
229.065
229.068
229.069
229.069
229.069
229.069
229.07
229.07
229.071
229.072
229.074
229.074
229.075
229.073
229.066
229.039
228.957
228.794
228.544
228.218
227.836
227.421
226.991
226.555
226.118
225.679
225.238
224.792
224.34
223.881
223.412
222.935
222.449
221.955
221.453
220.943
220.427
219.903
219.373
218.837
218.296
217.749
217.197
216.641
216.08
215.516
214.947
214.376
213.802
213.226
212.647
212.067
211.486
210.904
210.323
209.741
209.16
208.579
208.001
207.424
206.85
206.278
205.71
205.145
204.584
204.027
203.476
202.929
202.388
201.853
201.324
200.801
200.286
199.779
199.279
198.788
198.307
197.835
197.372
196.919
196.474
196.036
195.6
195.165
194.727
194.287
193.853
193.442
193.089
192.831
192.688
192.642
192.646
192.663
192.686
192.722
192.758
192.792
192.821
192.836
192.816
192.696
192.255
190.566
188.322
182.348
179.37
176.945
173.783
171.597
168.356
166.414
163.271
161.572
158.547
157.075
154.182
152.902
150.155
149.022
146.425
145.394
142.957
142.01
139.719
138.843
136.678
135.864
133.809
133.053
131.101
130.393
128.53
127.864
126.081
125.456
123.748
123.16
121.522
120.967
119.392
118.869
117.358
116.862
115.41
114.942
113.544
113.104
111.761
111.347
110.057
109.665
108.423
108.05
106.852
106.498
105.339
105.005
103.886
103.567
102.484
102.18
101.131
100.843
99.8267
99.5532
98.5675
98.3066
97.3502
97.0987
96.1679
95.9287
95.0237
94.7928
93.9105
93.6904
92.8304
92.6192
91.781
91.5756
90.7562
90.5575
89.7556
89.5633
88.7782
88.592
87.8227
87.642
86.8876
86.712
85.9715
85.8006
85.0732
84.9066
84.1906
84.0298
83.3267
83.1681
82.4755
82.3197
81.6357
81.4843
80.8109
80.6605
79.9952
79.8463
79.1879
79.0405
78.3887
78.2427
77.5971
77.4521
76.8122
76.6682
76.0335
75.8901
75.2601
75.1171
74.4913
74.3486
73.7265
73.5838
72.965
72.8221
72.2053
72.0636
71.4502
71.3084
70.6975
70.5551
69.9458
69.8022
69.1937
69.0488
68.4406
68.2941
67.6858
67.5374
66.9286
66.7783
66.1685
66.016
65.4055
65.249
64.6358
64.4764
63.8596
63.6989
63.0804
62.9173
62.2967
62.1309
61.5075
61.3385
60.7116
60.5393
59.9085
59.7328
59.0985
58.9176
58.2772
58.0935
57.4488
57.2617
56.6127
56.4219
55.7683
55.5736
54.9153
54.7167
54.0543
53.8498
53.1803
52.9712
52.2952
52.0842
51.407
51.1927
50.514
50.2978
49.6179