/*--------------------------------*- C++ -*----------------------------------*\
| =========                 |                                                 |
| \\      /  F ield         | OpenFOAM: The Open Source CFD Toolbox           |
|  \\    /   O peration     | Version:  v2006                                 |
|   \\  /    A nd           | Website:  www.openfoam.com                      |
|    \\/     M anipulation  |                                                 |
\*---------------------------------------------------------------------------*/
FoamFile
{
    version     2.0;
    format      ascii;
    class       volScalarField;
    location    "0.046";
    object      Co;
}
// * * * * * * * * * * * * * * * * * * * * * * * * * * * * * * * * * * * * * //

dimensions      [0 0 0 0 0 0 0];


internalField   nonuniform List<scalar> 
16277
(
0.00667681
0.0063645
0.00690783
0.00717194
0.00721017
0.00705907
0.00705534
0.00693647
0.00688474
0.00687077
0.00683279
0.00681839
0.00680445
0.00679453
0.00678355
0.00677245
0.00676078
0.00674845
0.00673575
0.00672247
0.00670861
0.0066942
0.00667922
0.0066637
0.00664765
0.00663107
0.00661397
0.00659635
0.00657823
0.00655962
0.00654053
0.00652097
0.00650096
0.00648051
0.00645964
0.00643837
0.00641672
0.00639469
0.00637233
0.00634964
0.00632665
0.00630337
0.00627984
0.00625608
0.00623211
0.00620795
0.00618363
0.00615919
0.00613463
0.00611
0.00608531
0.0060606
0.00603589
0.00601122
0.00598661
0.00596208
0.00593768
0.00591343
0.00588936
0.0058655
0.00584188
0.00581854
0.00579549
0.00577277
0.00575041
0.00572844
0.00570689
0.00568578
0.00566515
0.005645
0.00562538
0.00560629
0.00558778
0.00556987
0.00555258
0.00553593
0.0055199
0.00550441
0.00548792
0.00547302
0.00545976
0.00545032
0.00544817
0.00548118
0.00554508
0.00571882
0.00603284
0.0067509
0.00842313
0.0120106
0.0180103
0.0141693
0.0127297
0.0121942
0.0119259
0.0116613
0.0111368
0.0100992
0.0110809
0.0117206
0.0109193
0.0108028
0.010163
0.00839086
0.00903383
0.00924034
0.00918972
0.00918729
0.00861888
0.00784115
0.00854889
0.00872189
0.00899109
0.00883362
0.00804728
0.00782794
0.00863286
0.00881865
0.00902251
0.00880065
0.00789323
0.00779391
0.00867267
0.00886595
0.00903542
0.00877263
0.00779685
0.0076961
0.00864353
0.00886668
0.00899348
0.00871476
0.00767774
0.00758184
0.0085822
0.00883514
0.00895368
0.0086494
0.00756552
0.00747529
0.00851737
0.00879547
0.00891066
0.00858424
0.00746335
0.00737768
0.00845337
0.00875371
0.00886601
0.0085202
0.00736904
0.00728696
0.00839124
0.00871091
0.00882037
0.00845732
0.00728089
0.00720144
0.00833092
0.00866753
0.00877386
0.00839516
0.0071974
0.00712012
0.00827073
0.00862242
0.00872648
0.00833347
0.00711752
0.00704201
0.0082105
0.0085758
0.00867816
0.00827201
0.00704043
0.00696636
0.00815008
0.00852767
0.0086289
0.00821061
0.00696549
0.00689258
0.00808928
0.00847801
0.00857861
0.00814903
0.00689217
0.00682017
0.00802793
0.00842677
0.00852718
0.00808705
0.00682001
0.00674881
0.00796592
0.00837395
0.0084745
0.00802449
0.00674866
0.00667797
0.00790297
0.00831951
0.0084205
0.00796121
0.00667782
0.00660752
0.00783906
0.00826335
0.00836507
0.00789705
0.00660722
0.00653724
0.00777406
0.00820541
0.00830813
0.00783185
0.00653666
0.00646688
0.00770781
0.00814561
0.00824952
0.00776548
0.00646592
0.00639627
0.00764141
0.00808654
0.00818913
0.0076978
0.00639479
0.00632519
0.00757381
0.00802628
0.00812691
0.0076287
0.00632309
0.00625347
0.00750473
0.00796415
0.00806275
0.00755804
0.00625066
0.00618092
0.00743404
0.00790006
0.00799654
0.00748568
0.00617731
0.00610738
0.00736161
0.00783389
0.00792815
0.00741149
0.00610288
0.00603267
0.00728729
0.00776552
0.00785747
0.00733531
0.00602719
0.00595665
0.00721095
0.00769484
0.00778438
0.00725703
0.0059501
0.00587917
0.00713247
0.00762174
0.00770877
0.00717652
0.00587149
0.00580011
0.00705172
0.0075461
0.00763052
0.00709367
0.00579122
0.00571936
0.00696863
0.00746784
0.00754957
0.00700839
0.00570922
0.00563686
0.0068831
0.00738687
0.00746582
0.00692063
0.00562543
0.00555258
0.00679509
0.00730312
0.00737923
0.00683034
0.00553987
0.00546656
0.00670461
0.00721656
0.0072898
0.00673758
0.0054526
0.00537892
0.00661172
0.00712723
0.00719759
0.00664246
0.00536379
0.00528984
0.00651657
0.00703522
0.00710275
0.00654517
0.00527367
0.00519961
0.00641941
0.0069407
0.00700549
0.00644599
0.00518257
0.00510864
0.00632056
0.00684392
0.00690612
0.00634534
0.00509099
0.00501748
0.0062205
0.00674525
0.0068051
0.0062438
0.00499957
0.00492688
0.0061199
0.00664521
0.00670305
0.00614211
0.00490918
0.00483782
0.0060196
0.00654449
0.00660078
0.00604129
0.0048209
0.0047515
0.00592071
0.00644401
0.00649937
0.00594256
0.0047361
0.00466942
0.00582459
0.00634492
0.00640012
0.00584747
0.00465643
0.00459338
0.00573291
0.00624865
0.00630472
0.00575793
0.00458389
0.00452553
0.00564774
0.00615705
0.00621517
0.00567606
0.00452074
0.00446997
0.00557256
0.00607212
0.00613355
0.00560405
0.0044698
0.00443471
0.00552362
0.00600892
0.00606268
0.00554535
0.00443457
0.00441704
0.0054966
0.00598024
0.00600608
0.00550302
0.00441694
0.00441875
0.00548968
0.00597125
0.00596689
0.00547977
0.00441868
0.00444047
0.00550355
0.0059824
0.00594404
0.00547435
0.00444043
0.00448146
0.00553707
0.00601222
0.00594717
0.0054974
0.00448469
0.00454283
0.00559233
0.006064
0.00599619
0.00556021
0.00455583
0.00462429
0.00566838
0.00613608
0.00607156
0.00564072
0.00464314
0.00471734
0.00575634
0.00621878
0.00615692
0.00573222
0.0047396
0.00481683
0.00585253
0.00630903
0.00624828
0.00582996
0.00484014
0.00491866
0.00595366
0.00640444
0.00634351
0.00593113
0.00494149
0.0050198
0.00605663
0.00650227
0.00643975
0.00603265
0.00504075
0.00511745
0.0061584
0.00659961
0.00653434
0.00613174
0.00513529
0.00520918
0.00625643
0.00669399
0.00662504
0.00622608
0.00522294
0.00529311
0.00634861
0.0067834
0.00671005
0.0063138
0.00530211
0.00536787
0.00643328
0.00686616
0.00678794
0.00639347
0.00537164
0.00543266
0.00650923
0.00694108
0.00685769
0.00646549
0.00543284
0.0054874
0.00657567
0.00700736
0.00692219
0.006535
0.00548756
0.00553199
0.00663214
0.00706459
0.00699161
0.00659972
0.00553212
0.00556678
0.00667905
0.00711298
0.00705442
0.00665443
0.0055669
0.00559254
0.00671698
0.00715301
0.00710779
0.0066994
0.00559265
0.0056103
0.0067467
0.00718532
0.00715192
0.00673516
0.00561035
0.00562136
0.00676934
0.00721101
0.0071876
0.00676272
0.00562138
0.00562706
0.00678599
0.00723107
0.00721584
0.00678324
0.00562702
0.00562857
0.00679766
0.0072464
0.0072377
0.00679788
0.00562855
0.00562692
0.00680526
0.0072579
0.00725436
0.00680786
0.00562699
0.00562298
0.00680973
0.00726632
0.00726667
0.00681405
0.00562317
0.00561742
0.00681161
0.00727211
0.00727511
0.00681688
0.00561757
0.00561071
0.00681125
0.00727531
0.00728058
0.00681742
0.00561101
0.00560382
0.00681059
0.00727866
0.0072855
0.00681713
0.00560408
0.00559715
0.00680967
0.00728051
0.00728773
0.00681536
0.00559682
0.00558911
0.00680566
0.00728025
0.00728795
0.00681123
0.00558855
0.00558126
0.00680135
0.00727848
0.00728705
0.00680707
0.00558075
0.00557333
0.00679715
0.00727772
0.0072872
0.0068038
0.0055734
0.00556611
0.00679386
0.00727803
0.00728783
0.00680066
0.00556644
0.00555919
0.00679031
0.00727716
0.00728533
0.00679559
0.00555859
0.00555062
0.00678294
0.00727231
0.00728121
0.00678906
0.0055506
0.00554337
0.00677921
0.00727237
0.00728216
0.00678693
0.00554198
0.00552995
0.00676406
0.00725849
0.00723302
0.00673207
0.00548878
0.00547455
0.00670003
0.00720265
0.00706054
0.00653026
0.00531393
0.00541614
0.00662462
0.00711315
0.00681248
0.00626378
0.00506787
0.00559754
0.00684496
0.00731105
0.00731291
0.00661297
0.00526244
0.00651284
0.00811354
0.00881541
0.00956834
0.00848131
0.0065574
0.00821991
0.0119349
0.0149552
0.0140272
0.0182235
0.0155699
0.0146121
0.013936
0.0137489
0.0136335
0.0136613
0.0136686
0.013692
0.0137041
0.0137599
0.0138637
0.0140301
0.0143969
0.0152832
0.0195569
0.0279092
0.029937
0.0272953
0.0258334
0.0235848
0.0210994
0.0180623
0.012432
0.0110604
0.0165729
0.0198851
0.017744
0.01539
0.0105245
0.00878337
0.0129654
0.0151063
0.0141201
0.012376
0.00849845
0.00784777
0.0115617
0.0133593
0.0131205
0.0114421
0.00774487
0.00761771
0.0112348
0.0129507
0.0129692
0.0112353
0.00761294
0.00761123
0.0112312
0.01295
0.0129587
0.01124
0.00762666
0.00763426
0.0112471
0.0129634
0.012971
0.0112558
0.00764258
0.00764332
0.0112408
0.0129633
0.0129979
0.0112945
0.00766752
0.00766741
0.0112777
0.0129902
0.0129978
0.0112856
0.00767603
0.00767701
0.0112702
0.0129779
0.0130392
0.0113144
0.0076952
0.0077129
0.0113234
0.013019
0.0130281
0.0113128
0.00770889
0.00772566
0.0113203
0.0130087
0.0130702
0.0113526
0.00773587
0.00775337
0.0113607
0.0130501
0.013059
0.0113488
0.00774892
0.00776732
0.0113585
0.0130404
0.0131025
0.0113923
0.00777855
0.0077967
0.0114011
0.0130831
0.0130923
0.0113888
0.00779215
0.00781064
0.0113983
0.0130734
0.0131359
0.0114325
0.00782239
0.00784102
0.0114417
0.0131165
0.013126
0.01143
0.00783702
0.00785627
0.0114403
0.0131077
0.0131704
0.011475
0.00786837
0.00788732
0.0114843
0.0131512
0.0131614
0.0114847
0.00789162
0.00789488
0.0114716
0.0131432
0.0132065
0.0115181
0.00791524
0.00793475
0.0115282
0.0131881
0.0131984
0.0115283
0.00793894
0.00794246
0.0115155
0.0131804
0.0132442
0.0115623
0.00796303
0.00798262
0.0115723
0.0132256
0.0132361
0.0115726
0.00798686
0.0079909
0.0115608
0.0132189
0.0132831
0.011608
0.0080115
0.00803161
0.0116191
0.0132653
0.0132767
0.0116202
0.00803616
0.00804031
0.011609
0.0132604
0.0133261
0.0116569
0.00806101
0.00808044
0.0116675
0.0133096
0.0133222
0.011669
0.00808466
0.0080891
0.0116592
0.0133069
0.0133746
0.0117115
0.0081115
0.00813171
0.011725
0.0133591
0.0133724
0.0117277
0.00813551
0.0081381
0.0117168
0.0133577
0.0134249
0.0117631
0.00815586
0.00817445
0.011776
0.0134105
0.0134251
0.0117787
0.00817709
0.00817943
0.0117695
0.013413
0.0134843
0.0118215
0.00819884
0.00821647
0.0118356
0.0134729
0.0134915
0.0118289
0.00821024
0.00822918
0.0118477
0.0134835
0.0135587
0.0118901
0.00823906
0.00825627
0.011908
0.0135512
0.0135739
0.0119052
0.00824954
0.00826828
0.0119282
0.0135699
0.0136506
0.0119787
0.00827992
0.00829751
0.0120025
0.0136473
0.0136739
0.0120148
0.0082984
0.00830008
0.0120169
0.0136746
0.0137606
0.0120809
0.00831887
0.00833925
0.0121117
0.0137644
0.0138003
0.0121336
0.00834478
0.0083496
0.0121418
0.0138092
0.0139042
0.0122119
0.00837236
0.00839895
0.0122496
0.0139173
0.0139644
0.0122716
0.00840655
0.00844986
0.0123329
0.0139873
0.0140991
0.0124258
0.00849151
0.00854187
0.0124895
0.0141268
0.0141868
0.0125344
0.00857656
0.00862688
0.0125806
0.0142324
0.0143274
0.01265
0.00867972
0.00876245
0.0127412
0.014389
0.0144798
0.0128691
0.0088742
0.00900189
0.01301
0.0145778
0.0146788
0.0131292
0.00912813
0.00926266
0.0132356
0.0147822
0.0149266
0.0134189
0.00945939
0.009694
0.0136242
0.0150649
0.0152148
0.0138184
0.0099455
0.0101134
0.0139249
0.0152714
0.0154227
0.0139796
0.010266
0.0105947
0.0142527
0.0155069
0.0155985
0.0143048
0.0106672
0.0109044
0.0144055
0.0156496
0.0157796
0.0145768
0.0111297
0.0113731
0.0146731
0.015881
0.016132
0.0150482
0.0117717
0.0119839
0.0151606
0.0162291
0.0165842
0.0155865
0.0125132
0.0126905
0.0156807
0.0166476
0.0167479
0.0162599
0.0135767
0.0131693
0.0150175
0.014619
0.0436551
0.0322222
0.0188176
0.0123755
0.0208967
0.0290384
0.0191119
0.0170411
0.0119611
0.0110133
0.0149682
0.0162633
0.0157981
0.0147137
0.0110468
0.0111494
0.0148427
0.0161281
0.0159212
0.0147546
0.0113311
0.0117944
0.0152188
0.01646
0.016208
0.0150573
0.0119812
0.0127595
0.0159426
0.0169688
0.0168464
0.0158639
0.012949
0.0137018
0.016381
0.0171286
0.014934
0.0152499
0.0135966
0.0191871
0.031663
0.0423462
0.0300118
0.0219539
0.0137413
0.013638
0.0181257
0.0200388
0.0179652
0.016738
0.0132341
0.0132224
0.0163972
0.0174675
0.017277
0.0163377
0.0134647
0.0135759
0.0162773
0.017187
0.0171294
0.016505
0.0141371
0.0137497
0.0150115
0.0144422
0.0420968
0.0314714
0.0194394
0.0153753
0.0224
0.0294956
0.0199369
0.0179442
0.0139447
0.0136283
0.0165098
0.0174182
0.0167938
0.0161903
0.0137718
0.014192
0.0164973
0.0170818
0.0147225
0.015404
0.0141543
0.0193965
0.0310665
0.0410352
0.0305578
0.0226119
0.0146963
0.015072
0.0188846
0.0205458
0.0183527
0.017252
0.0144533
0.014932
0.0171697
0.0175302
0.0142059
0.0150239
0.0142031
0.0198552
0.0310778
0.0408607
0.0301077
0.0227883
0.0152792
0.0149315
0.0182295
0.0196277
0.0172287
0.0167607
0.0145905
0.0144138
0.0152241
0.0144207
0.0391154
0.0299577
0.019395
0.0153826
0.0227286
0.0300999
0.0200169
0.0184865
0.0153229
0.0150177
0.0170305
0.0174885
0.0135537
0.0146793
0.0144735
0.0193781
0.0288922
0.0366187
0.0275417
0.0221602
0.0164337
0.0147212
0.0157065
0.0150111
0.0341662
0.0271405
0.0184545
0.0159168
0.0208624
0.0255755
0.0131705
0.0139581
0.013277
0.0156176
0.021809
0.0260648
0.0138661
0.0128686
0.0109771
0.0110538
0.0161076
0.0195722
0.00483421
0.00459538
0.00428246
0.00562414
0.00910996
0.0111718
0.0138945
0.0120651
0.00869498
0.0142782
0.0170906
0.0186015
0.0224168
0.0213158
0.0188486
0.0206922
0.0219293
0.0215803
0.0370815
0.0321996
0.0244798
0.0252115
0.0330987
0.0383149
0.0373947
0.0329504
0.0255993
0.0269431
0.0364862
0.0428425
0.0266671
0.0268935
0.0236972
0.0238037
0.0353919
0.0462919
0.0489142
0.0385633
0.026043
0.0241023
0.0316756
0.0367191
0.0453392
0.0371564
0.0262935
0.0221412
0.0254359
0.0257604
0.0429549
0.033818
0.0240989
0.0260477
0.038536
0.0489356
0.0250978
0.0247285
0.0213616
0.023344
0.0331395
0.0420587
0.0487505
0.0381583
0.0254402
0.0208101
0.0240848
0.0245388
0.0415631
0.0324233
0.0227403
0.0250692
0.0377825
0.0485021
0.0245228
0.0240026
0.0205651
0.022661
0.032131
0.0411955
0.0483705
0.0377013
0.0251526
0.0206014
0.023914
0.0242926
0.0409356
0.0320691
0.0224258
0.0247263
0.0374412
0.0480329
0.0243712
0.0238743
0.0204425
0.0222307
0.0316142
0.0406377
0.0480912
0.037371
0.0246854
0.0200514
0.0233473
0.0238645
0.0395299
0.0308102
0.0217019
0.024258
0.0368016
0.0474116
0.0211925
0.0214798
0.0191838
0.0200246
0.0251293
0.0279322
0.0412059
0.030356
0.0196126
0.0236539
0.0371423
0.0479804
0.0225982
0.0217105
0.0186956
0.0217531
0.0307244
0.0396443
0.0472889
0.0364464
0.0237377
0.0198718
0.023682
0.0238933
0.0413094
0.0314008
0.0205167
0.0235023
0.0365781
0.0474432
0.0236841
0.0231601
0.0195351
0.022184
0.0316102
0.0405446
0.0477427
0.036824
0.0239353
0.0195664
0.0234565
0.0241571
0.0404804
0.0317615
0.0224153
0.0238752
0.0365588
0.0476025
0.0239813
0.0237779
0.0198249
0.021073
0.0317886
0.0413311
0.0478691
0.0369635
0.0239763
0.019962
0.0237994
0.0242848
0.0418334
0.0315775
0.0208086
0.0245207
0.0377622
0.0483962
0.0241059
0.0232427
0.0197783
0.0203172
0.0318462
0.0432364
0.0476948
0.0367166
0.023565
0.0216816
0.0296279
0.0350561
0.0443905
0.0359088
0.0244319
0.0208758
0.0247713
0.02545
0.0418643
0.0327157
0.02274
0.0248779
0.0376361
0.0482318
0.0250322
0.0241984
0.0203631
0.0224009
0.0323563
0.0414673
0.0485537
0.0378406
0.0248668
0.0206762
0.0243701
0.0248997
0.0423258
0.0329754
0.0228185
0.0250116
0.0379892
0.048784
0.0252721
0.0244619
0.0206169
0.022824
0.0329706
0.0425202
0.0492481
0.0382292
0.0253175
0.0215496
0.025464
0.02577
0.0453765
0.034073
0.0221526
0.0248293
0.0381332
0.0493422
0.0370331
0.0314867
0.0230333
0.0250229
0.0366608
0.0453032
0.026257
0.0254213
0.021335
0.0236396
0.0341867
0.043746
0.0499822
0.0391109
0.0258322
0.0219115
0.0259429
0.026353
0.046309
0.0351146
0.0230667
0.0254318
0.0387036
0.0500881
0.0376114
0.0318401
0.0235045
0.0258585
0.0375561
0.046292
0.0272926
0.0264474
0.0222702
0.0244265
0.0349524
0.0448467
0.0510401
0.0398442
0.0265919
0.0227296
0.0268485
0.027134
0.0473464
0.0358147
0.0236704
0.0259542
0.0392905
0.0507158
0.038615
0.0327505
0.0240996
0.0264178
0.0382811
0.0469827
0.0276426
0.0268744
0.0228365
0.0249787
0.0359577
0.0461996
0.0520119
0.0412693
0.0274747
0.0226835
0.0266082
0.0276371
0.0473274
0.0369798
0.0265294
0.0274067
0.0407456
0.051795
0.0396889
0.0332934
0.0244665
0.027167
0.0392051
0.0477515
0.0289845
0.0279944
0.0236561
0.0251117
0.0374185
0.049532
0.052549
0.0410802
0.0273248
0.0255557
0.0345311
0.0407596
0.0487636
0.0399741
0.0278965
0.023957
0.02844
0.0293083
0.049474
0.0388686
0.0272242
0.0280087
0.0414449
0.0528313
0.0412027
0.0347844
0.0258189
0.0285031
0.0405993
0.0494238
0.0300818
0.0291279
0.024516
0.0280955
0.0396583
0.0504612
0.0539938
0.042464
0.0289125
0.0265281
0.0356946
0.0421278
0.050187
0.041217
0.0288731
0.0251031
0.0295719
0.0303588
0.0515822
0.0395199
0.0264957
0.0287332
0.0430774
0.0547279
0.0430269
0.0362985
0.0268727
0.0292773
0.0417747
0.0509359
0.0311615
0.0301178
0.0254024
0.0294772
0.0413217
0.052197
0.0551267
0.0439833
0.0303583
0.0277857
0.0379839
0.0451337
0.0508098
0.0416501
0.0293957
0.0274587
0.0371294
0.0435658
0.0509058
0.0421783
0.0297226
0.0261785
0.0311031
0.0321851
0.0536756
0.0417905
0.0292992
0.0305202
0.0448084
0.0565832
0.045068
0.0381436
0.0283172
0.0305592
0.0435799
0.0525154
0.0322665
0.031248
0.026531
0.0306829
0.0427656
0.0542214
0.0570535
0.0454668
0.0315023
0.0286292
0.0391698
0.0468848
0.0526524
0.0429634
0.0302307
0.0286895
0.0385483
0.0454766
0.0530409
0.0439969
0.0313526
0.0273306
0.0323502
0.0334893
0.0568858
0.0435669
0.0295042
0.031316
0.0463579
0.058793
0.0485653
0.0406094
0.0296868
0.0312914
0.0442758
0.0538485
0.0471078
0.0399699
0.0297646
0.0317803
0.0447585
0.0537595
0.0342539
0.0330208
0.0278687
0.0316506
0.0448518
0.0572235
0.0593021
0.0471056
0.0324397
0.0305573
0.041669
0.0495559
0.0551165
0.045465
0.0321916
0.030584
0.0408749
0.0479166
0.0552623
0.0461533
0.0329109
0.0289634
0.0341595
0.0352196
0.0590416
0.0454364
0.0311535
0.0329973
0.0483511
0.0609053
0.0505892
0.0422279
0.0308637
0.032739
0.0460972
0.0558864
0.0491773
0.0415742
0.0309852
0.0337543
0.0469798
0.0563068
0.0359094
0.0348638
0.0297133
0.031326
0.0467418
0.0612146
0.062424
0.0490307
0.0327795
0.0318876
0.0437629
0.0520858
0.0575302
0.0474873
0.0334914
0.0321154
0.0430221
0.0503638
0.0577396
0.0480743
0.0344912
0.0303569
0.0357102
0.0366623
0.0624594
0.0474268
0.0319149
0.0336001
0.0500342
0.0636055
0.0533987
0.0447782
0.0329689
0.0347023
0.048567
0.0585779
0.0537852
0.0453829
0.033277
0.0349872
0.0485766
0.0585864
0.0523686
0.0445276
0.0331128
0.0358002
0.049753
0.0591482
0.038589
0.0372959
0.0314369
0.0363964
0.0505779
0.0633994
0.0648814
0.0518109
0.0365344
0.0339771
0.0461946
0.0548808
0.0595046
0.0493857
0.0354158
0.0340297
0.0460717
0.0549914
0.0599173
0.0498499
0.0361102
0.0341231
0.0457111
0.0535395
0.0608698
0.0510409
0.0368564
0.0324251
0.0381176
0.0392866
0.0664265
0.0510726
0.0346837
0.0362691
0.0533867
0.0670273
0.0567155
0.0476728
0.0351521
0.0367667
0.051157
0.0617657
0.0568394
0.0481406
0.0353256
0.0370458
0.051328
0.0614752
0.0552428
0.047069
0.0352337
0.0377998
0.0521049
0.0624157
0.0406568
0.0393622
0.0333757
0.0357174
0.0525192
0.0683502
0.0690875
0.0545984
0.0369579
0.0361376
0.0489343
0.058461
0.0631691
0.0523712
0.0377775
0.0366449
0.0496086
0.0588303
0.0633962
0.0528617
0.0383274
0.0362652
0.0481789
0.0567971
0.0642519
0.0538294
0.0392004
0.0343371
0.0402811
0.0413835
0.0690012
0.0552125
0.03974
0.0401172
0.0567414
0.0705458
0.060044
0.0503512
0.0370568
0.0390103
0.0543545
0.0652007
0.0608396
0.0512334
0.0378886
0.0395064
0.0542047
0.0647031
0.0612769
0.051306
0.0378237
0.0400185
0.0547617
0.0655195
0.0598041
0.0507603
0.0379554
0.0405208
0.0556744
0.066399
0.0431932
0.0419775
0.0359705
0.0379841
0.0557234
0.0734399
0.0735867
0.0581157
0.0392344
0.038616
0.0523318
0.0622826
0.0671689
0.0561016
0.0403078
0.0391862
0.0527735
0.0624317
0.0667321
0.0559878
0.0409075
0.0392879
0.0530027
0.0627677
0.0677421
0.0565509
0.0413975
0.0392936
0.0519656
0.0613464
0.0689902
0.057853
0.0424194
0.0370624
0.0432208
0.0447719
0.0755424
0.0583475
0.0402894
0.0420458
0.0608489
0.0760568
0.0648474
0.0549598
0.0408099
0.0423705
0.0584056
0.0699143
0.0649783
0.0551463
0.0409466
0.0426155
0.0580711
0.0692619
0.0656531
0.0554497
0.0411546
0.0431169
0.0587716
0.0700213
0.0640969
0.0541895
0.0407639
0.0437843
0.0596867
0.0710152
0.0464371
0.0452786
0.0387819
0.0410577
0.0600721
0.0782679
0.078946
0.0624922
0.0424539
0.0419052
0.0563875
0.0670012
0.072361
0.0597854
0.0434496
0.0422052
0.0568374
0.0672981
0.0714678
0.0602321
0.0441072
0.0423826
0.0570386
0.067988
0.0728456
0.0611167
0.0446311
0.0423946
0.0562017
0.0657538
0.0739027
0.0624982
0.0455848
0.0401361
0.046581
0.0478881
0.0814309
0.0624651
0.0433345
0.044891
0.0647838
0.0819725
0.0696149
0.0588125
0.0437305
0.0454971
0.0627174
0.0751093
0.069977
0.0588649
0.0439019
0.045874
0.0621722
0.0743263
0.0706565
0.0595141
0.0442138
0.0464018
0.0629984
0.0750153
0.0688347
0.0585331
0.0442017
0.047309
0.0644962
0.0763878
0.0497069
0.0485066
0.0418697
0.0441065
0.0645173
0.0847248
0.0852405
0.0672872
0.0455836
0.0454754
0.0609041
0.0721806
0.0776295
0.0649626
0.0472139
0.0456506
0.0614238
0.0725414
0.0772256
0.06485
0.0475361
0.0459187
0.0618052
0.0732969
0.0778016
0.0655178
0.0482564
0.0463002
0.0620217
0.0734152
0.0787213
0.0662516
0.048897
0.0461561
0.0606383
0.0712196
0.0800441
0.0674491
0.0498618
0.0436767
0.050583
0.0520552
0.0872248
0.0687472
0.0491448
0.0503433
0.0711001
0.0882422
0.075308
0.063748
0.0477622
0.049721
0.0681496
0.0814764
0.0758199
0.0642889
0.0481196
0.0502957
0.0682204
0.0808266
0.0763818
0.0646127
0.0485344
0.0508246
0.0685561
0.0819518
0.0741649
0.0632538
0.0481032
0.0514322
0.0697777
0.0828022
0.0544502
0.0528491
0.0455805
0.0497365
0.0709161
0.0913373
0.0919357
0.0737249
0.0512518
0.0494867
0.066032
0.0781677
0.0840089
0.0700381
0.0514168
0.049754
0.0665271
0.0786024
0.0836952
0.0705566
0.0519829
0.0502383
0.0669856
0.0790071
0.0846928
0.0713402
0.0526506
0.0500225
0.0656148
0.076787
0.0862282
0.0730399
0.0537285
0.0470614
0.0543522
0.0558754
0.0940881
0.0745118
0.0536681
0.0545985
0.0767019
0.0951018
0.0810634
0.0686118
0.0515357
0.0536945
0.073316
0.0877142
0.0815747
0.0691357
0.0519353
0.0543608
0.0733644
0.0873236
0.0821723
0.0694965
0.0521872
0.0548832
0.0740896
0.0882811
0.0798829
0.0682102
0.0520746
0.0558642
0.0755437
0.0892586
0.058701
0.0571011
0.0494
0.054305
0.076711
0.0985765
0.0993458
0.079325
0.0559615
0.0540667
0.0716612
0.0846082
0.0907808
0.0762158
0.0560793
0.0541812
0.0719144
0.0848246
0.0907306
0.0762887
0.0566488
0.0543796
0.0722575
0.0851657
0.0917095
0.0773219
0.0572346
0.0539221
0.0705725
0.0825581
0.0932664
0.0790181
0.0581971
0.0512373
0.0589129
0.0604145
0.10166
0.0795349
0.0566235
0.0582696
0.08252
0.103125
0.0875031
0.0741076
0.0559904
0.0584623
0.0793957
0.0951379
0.0881503
0.0748769
0.0565762
0.0592473
0.0796239
0.0948188
0.0862891
0.0738334
0.0564058
0.0598886
0.0813106
0.0964008
0.0622317
0.0608059
0.0530205
0.0573824
0.081874
0.105907
0.106683
0.0855291
0.0595126
0.0576196
0.0763196
0.0902882
0.0981689
0.0817133
0.059928
0.0579641
0.076672
0.0902328
0.0981318
0.0824366
0.0609611
0.0577259
0.075402
0.0880194
0.099641
0.0842828
0.0622301
0.0544851
0.0624645
0.0639343
0.108433
0.086169
0.0623766
0.0634548
0.0889657
0.110326
0.0935743
0.0793889
0.0599424
0.0628772
0.0854566
0.101855
0.0940759
0.0801958
0.0605554
0.06291
0.0850502
0.101446
0.0919023
0.0785635
0.0601281
0.0643825
0.0870799
0.103275
0.0660015
0.0646567
0.0564268
0.0610733
0.0872085
0.113366
0.114664
0.0914389
0.0637871
0.0615371
0.0815077
0.0963377
0.105003
0.0881928
0.0645595
0.0622346
0.0821545
0.0965087
0.105126
0.0881801
0.0652175
0.0618539
0.0806567
0.0940766
0.107063
0.0905479
0.0667385
0.0587912
0.0671544
0.0685003
0.117665
0.0915685
0.0647924
0.0673855
0.0959367
0.119662
0.100155
0.0848986
0.0642176
0.0672538
0.0914281
0.109687
0.100331
0.0853251
0.0644924
0.0675246
0.0914618
0.108922
0.0978748
0.0838065
0.0642083
0.0688564
0.0931725
0.110514
0.0706027
0.0691565
0.0604981
0.0667255
0.0936806
0.119955
0.12316
0.0982202
0.0691363
0.066243
0.0870349
0.102507
0.113579
0.0946038
0.0695037
0.0660374
0.0855986
0.0993752
0.114695
0.0967747
0.0710453
0.063142
0.0717478
0.0726961
0.125202
0.0976031
0.0692552
0.0721986
0.102721
0.127996
0.106279
0.0901306
0.0684104
0.0717453
0.0973007
0.116797
0.106239
0.0904493
0.0686181
0.0724269
0.0980339
0.116676
0.103422
0.0887466
0.0683923
0.073923
0.0998469
0.118636
0.0760347
0.0741461
0.0645059
0.0729144
0.100816
0.127414
0.130796
0.105294
0.0752165
0.0710614
0.0931192
0.109206
0.121615
0.101573
0.0745953
0.0711229
0.0915802
0.105979
0.122774
0.103592
0.0771578
0.0674797
0.0765116
0.0775122
0.131139
0.10347
0.0744261
0.0773388
0.109062
0.135628
0.111914
0.0951797
0.0726161
0.0771902
0.104693
0.125552
0.108283
0.0931345
0.0720328
0.0781072
0.105923
0.125795
0.079729
0.0778736
0.0679447
0.0765758
0.105701
0.133704
0.140192
0.112202
0.0797852
0.0738447
0.0950956
0.110502
0.130436
0.109294
0.0801413
0.069803
0.0789923
0.0799639
0.138988
0.109517
0.0790122
0.0824873
0.115995
0.143931
0.11902
0.101851
0.077942
0.0811829
0.110662
0.132725
0.114875
0.098975
0.0765953
0.0818151
0.111316
0.132606
0.0827203
0.0814553
0.0717912
0.0794607
0.110282
0.140205
0.147675
0.117857
0.0831709
0.0769667
0.0993431
0.115535
0.137477
0.115092
0.083758
0.0725047
0.0820219
0.0831248
0.144133
0.113563
0.0817583
0.0855754
0.121703
0.152253
0.120649
0.103689
0.0803865
0.0870846
0.118795
0.142219
0.0851722
0.0848111
0.0756349
0.0834247
0.116072
0.147569
0.156788
0.125237
0.088062
0.0811234
0.104496
0.12113
0.144863
0.121061
0.0880512
0.0761097
0.0857648
0.0865634
0.150892
0.11823
0.0847534
0.0891995
0.127217
0.16035
0.12521
0.107618
0.0832245
0.0900339
0.124194
0.14862
0.0885505
0.0879959
0.0781785
0.0881259
0.122183
0.155357
0.167023
0.133568
0.0938142
0.0876155
0.112051
0.128743
0.153997
0.128411
0.0933295
0.0802033
0.0900569
0.0908581
0.157605
0.124519
0.0901296
0.0946193
0.134094
0.168334
0.130356
0.112163
0.0871215
0.094468
0.130052
0.156677
0.0925968
0.0921262
0.081972
0.0914405
0.126435
0.160546
0.173249
0.138481
0.0972292
0.0895356
0.114324
0.132336
0.163267
0.136147
0.0993495
0.0857495
0.095044
0.0951381
0.161102
0.128952
0.0947443
0.100868
0.144221
0.180081
0.0949703
0.0942965
0.0845398
0.095267
0.13135
0.165895
0.180056
0.14352
0.10075
0.0918795
0.117614
0.135949
0.167069
0.139022
0.100854
0.0865861
0.0971532
0.0978196
0.164169
0.130797
0.0962106
0.10487
0.15025
0.18767
0.096559
0.0970287
0.0880799
0.100517
0.135895
0.169617
0.194307
0.154314
0.108042
0.0888249
0.0983434
0.0983665
0.175687
0.139086
0.100686
0.10751
0.153986
0.194249
0.143675
0.124324
0.0973439
0.107733
0.149192
0.179351
0.103185
0.10255
0.091686
0.101992
0.137572
0.171871
0.200395
0.160152
0.112226
0.0935251
0.102592
0.102328
0.17738
0.142642
0.106101
0.114433
0.163628
0.205557
0.103216
0.103081
0.0933493
0.103654
0.14031
0.175656
0.20768
0.164764
0.114585
0.0938172
0.103476
0.103512
0.177466
0.141649
0.104731
0.116097
0.167389
0.210456
0.105974
0.10606
0.0960564
0.107863
0.144831
0.181055
0.218101
0.173917
0.121266
0.0939487
0.097526
0.0927094
0.12335
0.115257
0.0980456
0.10469
0.144438
0.18531
0.225068
0.175133
0.118852
0.0958265
0.1048
0.103728
0.182402
0.145698
0.108045
0.123558
0.179845
0.227851
0.0927493
0.0979533
0.0959564
0.105697
0.122835
0.130193
0.191648
0.150362
0.109541
0.123579
0.183382
0.236865
0.0934258
0.0977586
0.0939228
0.101028
0.119061
0.127807
0.192176
0.148064
0.107191
0.128598
0.190251
0.243489
0.0922241
0.0988453
0.0976346
0.106405
0.123895
0.130037
0.190496
0.148508
0.10759
0.127502
0.190654
0.246679
0.0911327
0.0965433
0.0940798
0.0992976
0.110981
0.114136
0.130743
0.119837
0.102011
0.117125
0.158525
0.196323
0.248889
0.191233
0.126051
0.0905231
0.0934836
0.0890611
0.103921
0.102037
0.0924298
0.0915732
0.100207
0.10256
0.107753
0.105698
0.0937712
0.0926699
0.111635
0.120002
0.175994
0.136598
0.098817
0.124335
0.190108
0.249988
0.0842344
0.089524
0.0874451
0.0868323
0.0961107
0.0967696
0.0918792
0.0881998
0.0776703
0.0764709
0.0875952
0.0900547
0.0868215
0.0833872
0.0707671
0.0662632
0.0796328
0.0837154
0.0806883
0.0760901
0.0619378
0.059057
0.0737843
0.078843
0.0769033
0.071612
0.0564034
0.054221
0.0698318
0.0755835
0.0742084
0.0681835
0.0522754
0.0506198
0.0667893
0.0731749
0.0721299
0.0654865
0.0491167
0.0477446
0.0642607
0.0712312
0.0703593
0.0632248
0.0465842
0.0453498
0.0620079
0.0695462
0.0686159
0.0609701
0.0443046
0.0433534
0.059995
0.0678749
0.0670809
0.0590715
0.0424861
0.0416989
0.0582035
0.0664026
0.0656654
0.0573825
0.0409841
0.0403403
0.0566164
0.06504
0.0643542
0.0558944
0.0397584
0.0392359
0.0552223
0.0637772
0.0631383
0.0545864
0.0387631
0.0383394
0.0539927
0.062604
0.0620049
0.0534291
0.0379573
0.0376188
0.0529062
0.0615087
0.0609481
0.0524117
0.0373161
0.0370498
0.0519546
0.0604883
0.0599623
0.0515203
0.0368116
0.036604
0.05112
0.0595356
0.0590431
0.050739
0.036419
0.0362602
0.0503899
0.0586497
0.0581906
0.0500559
0.0361186
0.0359996
0.0497508
0.0578299
0.0574034
0.0494584
0.0358944
0.0358074
0.0491923
0.0570743
0.056679
0.0489357
0.0357304
0.0356686
0.0487035
0.0563801
0.056015
0.0484784
0.0356139
0.0355719
0.0482761
0.0557462
0.0554113
0.0480784
0.0355343
0.0355075
0.0479014
0.055171
0.0548631
0.0477263
0.035483
0.035468
0.0475706
0.0546487
0.0543658
0.0474177
0.0354581
0.035452
0.0472798
0.0541751
0.0539142
0.0471452
0.0354526
0.0354517
0.0470221
0.0537458
0.0535076
0.0469024
0.0354561
0.0354575
0.0467931
0.0533609
0.0531424
0.0466863
0.0354639
0.0354665
0.0465897
0.0530156
0.0528171
0.0464954
0.0354735
0.0354757
0.04641
0.0527081
0.0525252
0.046326
0.0354829
0.0354852
0.0462507
0.0524314
0.0522648
0.0461765
0.0354917
0.0354928
0.04611
0.0521851
0.0520302
0.0460436
0.0354991
0.0355005
0.0459854
0.0519626
0.0518221
0.0459275
0.035506
0.0355058
0.0458765
0.0517665
0.0516355
0.0458246
0.0355102
0.0355099
0.0457796
0.0515884
0.0514689
0.0457342
0.0355132
0.0355115
0.0456947
0.0514309
0.0513187
0.045654
0.0355141
0.0355123
0.0456193
0.0512877
0.0511849
0.0455835
0.0355142
0.0355113
0.0455527
0.0511614
0.0510638
0.04552
0.0355128
0.03551
0.0454924
0.0510455
0.0509554
0.0454633
0.0355109
0.0355067
0.0454384
0.0509427
0.0508561
0.0454116
0.0355073
0.0355036
0.0453893
0.0508471
0.0507668
0.0453655
0.0355036
0.0354995
0.0453459
0.0507623
0.0506844
0.0453231
0.0354986
0.0354946
0.0453054
0.0506827
0.0506104
0.0452857