/*--------------------------------*- C++ -*----------------------------------*\
| =========                 |                                                 |
| \\      /  F ield         | OpenFOAM: The Open Source CFD Toolbox           |
|  \\    /   O peration     | Version:  v2006                                 |
|   \\  /    A nd           | Website:  www.openfoam.com                      |
|    \\/     M anipulation  |                                                 |
\*---------------------------------------------------------------------------*/
FoamFile
{
    version     2.0;
    format      ascii;
    class       volScalarField;
    location    "0.046";
    object      isentropic(p);
}
// * * * * * * * * * * * * * * * * * * * * * * * * * * * * * * * * * * * * * //

dimensions      [1 -1 -2 0 0 0 0];


internalField   nonuniform List<scalar> 
16277
(
150008
150014
150017
150003
150013
150010
150010
150012
150013
150013
150013
150012
150012
150011
150011
150011
150010
150010
150010
150010
150010
150010
150010
150009
150009
150009
150009
150009
150009
150009
150009
150009
150008
150008
150008
150008
150008
150008
150008
150008
150007
150007
150007
150007
150007
150007
150007
150007
150006
150006
150006
150006
150006
150006
150006
150006
150005
150005
150005
150005
150005
150005
150005
150005
150005
150004
150004
150004
150004
150004
150004
150004
150004
150004
150004
150003
150003
150003
150003
150002
150002
150001
150001
150000
150001
150003
150004
150005
150004
150006
150005
150007
150008
150011
150017
150015
149976
149936
150011
150022
150021
150002
149897
149860
149993
150018
150013
149981
149826
149796
149971
150008
150002
149959
149768
149744
149949
149997
149991
149938
149721
149703
149929
149986
149979
149919
149684
149669
149911
149975
149968
149901
149653
149640
149893
149964
149958
149884
149627
149616
149877
149953
149947
149868
149605
149595
149862
149943
149937
149854
149585
149577
149849
149934
149928
149841
149568
149561
149836
149925
149919
149829
149553
149547
149824
149916
149911
149817
149540
149534
149813
149908
149903
149807
149528
149523
149803
149901
149896
149797
149517
149513
149794
149893
149889
149788
149508
149504
149785
149887
149882
149779
149499
149496
149776
149880
149876
149771
149492
149489
149769
149874
149870
149763
149485
149483
149761
149868
149864
149757
149479
149477
149755
149863
149859
149750
149474
149473
149748
149857
149853
149744
149470
149469
149743
149852
149849
149738
149466
149465
149737
149848
149844
149733
149463
149463
149732
149843
149839
149728
149461
149461
149727
149839
149835
149724
149459
149459
149723
149835
149831
149720
149458
149458
149719
149831
149828
149716
149457
149458
149715
149827
149824
149712
149457
149458
149712
149824
149821
149709
149458
149459
149709
149820
149817
149706
149459
149460
149706
149817
149814
149704
149460
149462
149704
149814
149812
149702
149462
149464
149702
149811
149809
149700
149465
149467
149700
149809
149806
149698
149468
149470
149699
149807
149804
149697
149471
149474
149698
149804
149802
149696
149475
149478
149697
149802
149800
149695
149480
149483
149696
149801
149799
149695
149485
149488
149696
149799
149797
149695
149490
149493
149697
149798
149796
149696
149496
149499
149697
149797
149795
149697
149502
149506
149698
149796
149795
149698
149509
149512
149700
149796
149795
149700
149515
149519
149702
149796
149795
149702
149522
149527
149704
149796
149796
149705
149530
149534
149707
149797
149797
149708
149537
149542
149711
149799
149799
149711
149545
149549
149715
149801
149801
149716
149552
149557
149719
149804
149804
149721
149560
149564
149724
149807
149807
149726
149567
149571
149730
149810
149811
149731
149573
149578
149735
149814
149815
149737
149580
149584
149741
149819
149820
149743
149585
149588
149746
149823
149824
149748
149589
149591
149751
149828
149828
149753
149591
149593
149756
149832
149832
149757
149592
149594
149760
149835
149836
149760
149592
149593
149763
149839
149839
149763
149591
149591
149765
149842
149842
149765
149589
149588
149767
149844
149844
149767
149585
149584
149768
149846
149846
149767
149581
149580
149769
149848
149847
149767
149576
149574
149768
149849
149848
149767
149570
149568
149767
149850
149849
149765
149564
149563
149766
149850
149849
149764
149558
149556
149764
149850
149849
149762
149552
149550
149762
149850
149848
149760
149546
149545
149760
149849
149847
149757
149541
149539
149757
149848
149846
149755
149535
149534
149755
149847
149845
149752
149530
149529
149752
149845
149843
149749
149525
149524
149749
149844
149842
149746
149521
149519
149746
149842
149840
149743
149516
149516
149744
149840
149838
149741
149512
149511
149741
149839
149836
149738
149509
149507
149737
149837
149835
149735
149505
149504
149735
149835
149833
149732
149502
149501
149732
149833
149831
149729
149498
149498
149730
149831
149829
149727
149495
149495
149727
149829
149826
149724
149493
149491
149724
149826
149825
149722
149490
149490
149722
149825
149823
149719
149486
149485
149719
149822
149821
149717
149484
149483
149717
149821
149818
149714
149481
149480
149714
149818
149817
149712
149478
149480
149713
149818
149816
149710
149476
149480
149714
149819
149821
149717
149484
149494
149726
149831
149868
149776
149552
149516
149698
149792
149864
149922
149955
149966
149972
149984
149989
149994
149997
149999
149999
149998
149997
149993
149989
149979
149974
149967
149960
149946
149913
149843
149700
149543
149281
149261
149527
149686
149667
149509
149246
149230
149496
149662
149656
149492
149225
149227
149492
149654
149652
149491
149225
149226
149491
149653
149654
149492
149226
149227
149493
149655
149656
149494
149228
149229
149495
149657
149657
149496
149230
149231
149497
149658
149660
149498
149232
149232
149499
149661
149662
149500
149233
149234
149501
149663
149665
149502
149235
149236
149504
149666
149666
149505
149237
149238
149506
149668
149669
149507
149239
149240
149508
149670
149671
149509
149241
149242
149510
149672
149673
149512
149243
149244
149513
149675
149676
149514
149244
149245
149515
149677
149678
149516
149246
149247
149518
149679
149680
149519
149248
149249
149520
149681
149682
149521
149250
149251
149522
149684
149685
149524
149252
149253
149525
149686
149687
149526
149254
149255
149528
149689
149690
149529
149256
149257
149530
149691
149692
149531
149258
149259
149532
149693
149695
149534
149260
149261
149535
149696
149697
149536
149262
149263
149538
149698
149700
149539
149264
149265
149540
149701
149702
149541
149266
149267
149543
149704
149705
149544
149268
149269
149545
149706
149707
149547
149270
149271
149548
149708
149710
149549
149272
149273
149551
149711
149713
149552
149273
149274
149553
149714
149716
149555
149275
149275
149556
149717
149719
149557
149276
149277
149559
149721
149723
149560
149277
149278
149562
149724
149726
149563
149278
149278
149565
149728
149730
149566
149278
149279
149568
149732
149733
149569
149280
149280
149571
149735
149737
149573
149280
149280
149574
149739
149742
149576
149280
149280
149578
149744
149746
149580
149280
149280
149583
149750
149753
149585
149279
149278
149587
149757
149760
149590
149279
149280
149593
149762
149763
149597
149282
149284
149600
149766
149771
149603
149283
149281
149607
149778
149783
149610
149281
149284
149616
149788
149789
149622
149291
149298
149628
149789
149794
149634
149301
149302
149640
149803
149808
149647
149307
149315
149655
149813
149820
149667
149327
149337
149678
149827
149835
149690
149351
149367
149699
149842
149849
149713
149383
149399
149723
149856
149862
149733
149417
149435
149744
149869
149875
149755
149458
149479
149767
149880
149882
149776
149498
149521
149786
149881
149881
149793
149543
149567
149813
149899
149910
149825
149576
149299
149671
149773
149857
149724
149400
149399
149742
149883
149888
149753
149418
149443
149762
149894
149904
149776
149467
149495
149790
149916
149926
149812
149532
149565
149823
149923
149920
149836
149598
149614
149845
149936
149961
149861
149634
149655
149876
149962
149837
149788
149452
149592
149836
149924
149936
149859
149619
149638
149879
149963
149973
149891
149662
149677
149898
149985
150000
149913
149700
149733
149934
150011
150001
149944
149756
149612
149796
149954
149996
149900
149659
149684
149917
150013
150012
149936
149727
149753
149944
150015
150018
149963
149791
149819
149979
150030
149941
149934
149652
149776
149948
150008
150026
149978
149814
149837
149989
150036
150058
150003
149854
149878
150013
150059
149980
149989
149735
149863
150004
150050
150063
150017
149877
149906
150034
150080
150082
150047
149939
149814
150047
150018
150087
150058
149963
149978
150074
150100
150118
150097
150018
150037
150101
150110
150110
150082
149997
150069
150129
150145
150137
150141
150090
150099
150095
150183
150182
150183
150144
150180
150192
150178
150210
150215
150198
150275
150251
150217
150180
150221
150233
150277
150227
150187
150215
150260
150311
150293
150272
150233
150188
150214
150181
150036
150105
150104
150007
149953
149843
149888
149965
149976
149923
149869
149743
149800
149909
149936
149907
149849
149734
149574
149902
149811
149881
149811
149694
149633
149790
149837
149893
149847
149690
149661
149818
149874
149823
149756
149590
149658
149828
149878
149865
149800
149630
149563
149737
149811
149868
149818
149641
149607
149788
149859
149802
149724
149537
149639
149819
149869
149860
149787
149601
149527
149715
149797
149866
149817
149643
149601
149781
149849
149785
149707
149521
149634
149811
149857
149850
149786
149609
149513
149704
149793
149866
149805
149617
149589
149773
149845
149786
149700
149508
149648
149822
149866
149841
149794
149619
149547
149733
149836
149712
149742
149378
149553
149770
149880
149896
149732
149458
149472
149590
149816
149854
149813
149606
149610
149762
149778
149731
149768
149462
149625
149804
149840
149843
149774
149556
149509
149628
149806
149885
149808
149577
149568
149782
149852
149804
149614
149516
149603
149811
149854
149792
149771
149611
149462
149762
149749
149863
149813
149623
149584
149769
149835
149730
149750
149422
149557
149777
149870
149866
149709
149476
149348
149744
149721
149848
149779
149604
149510
149721
149791
149878
149831
149636
149606
149793
149853
149789
149706
149513
149621
149816
149872
149857
149784
149588
149520
149715
149799
149878
149830
149637
149608
149797
149856
149788
149710
149517
149628
149825
149877
149868
149784
149575
149517
149717
149807
149878
149839
149649
149650
149798
149819
149740
149803
149441
149616
149799
149869
149795
149731
149523
149613
149821
149875
149859
149788
149588
149507
149711
149800
149874
149837
149641
149640
149803
149828
149760
149799
149462
149620
149817
149879
149809
149735
149518
149638
149842
149896
149879
149809
149612
149519
149722
149814
149886
149847
149652
149650
149808
149830
149766
149808
149466
149630
149824
149885
149813
149741
149521
149645
149852
149904
149885
149813
149609
149509
149720
149810
149903
149822
149594
149539
149807
149938
149872
149566
149496
149552
149842
149910
149868
149738
149491
149635
149863
149930
149919
149821
149607
149450
149782
149800
149908
149835
149625
149529
149759
149839
149905
149850
149631
149602
149821
149885
149823
149677
149530
149593
149842
149905
149859
149759
149530
149633
149857
149923
149904
149821
149591
149539
149661
149834
149900
149853
149601
149524
149754
149846
149914
149856
149630
149603
149810
149887
149793
149769
149440
149624
149839
149917
149853
149769
149529
149626
149859
149923
149918
149832
149576
149534
149592
149868
149901
149897
149550
149496
149737
149851
149911
149849
149600
149518
149756
149846
149926
149870
149642
149602
149828
149909
149829
149710
149507
149593
149847
149907
149851
149759
149518
149603
149850
149923
149926
149827
149557
149508
149571
149868
149899
149893
149519
149464
149723
149846
149915
149853
149590
149514
149765
149857
149924
149862
149616
149582
149812
149904
149793
149780
149411
149587
149821
149908
149829
149739
149476
149590
149852
149913
149849
149754
149498
149606
149858
149922
149900
149815
149558
149503
149648
149830
149901
149868
149565
149472
149734
149840
149911
149849
149580
149492
149753
149849
149919
149856
149603
149566
149807
149900
149793
149743
149403
149564
149818
149907
149827
149724
149449
149573
149848
149912
149852
149753
149487
149601
149858
149918
149881
149801
149576
149352
149794
149763
149917
149786
149587
149422
149720
149809
149894
149835
149549
149450
149730
149827
149900
149842
149576
149552
149783
149856
149744
149785
149326
149574
149773
149905
149807
149713
149423
149539
149825
149892
149821
149721
149443
149549
149832
149893
149829
149733
149458
149569
149837
149901
149888
149799
149516
149461
149549
149816
149866
149863
149466
149389
149683
149807
149884
149809
149495
149409
149704
149814
149892
149823
149526
149434
149720
149826
149900
149832
149552
149516
149771
149866
149738
149750
149292
149521
149758
149885
149785
149681
149366
149489
149803
149874
149797
149689
149387
149507
149810
149877
149806
149698
149404
149532
149820
149890
149859
149763
149505
149264
149742
149725
149893
149731
149516
149335
149665
149773
149858
149788
149468
149352
149668
149778
149859
149791
149476
149372
149680
149789
149866
149795
149501
149439
149756
149849
149779
149456
149378
149377
149839
149827
149767
149634
149302
149436
149778
149857
149774
149647
149321
149440
149776
149853
149771
149652
149330
149450
149778
149854
149783
149669
149355
149469
149784
149860
149821
149715
149441
149150
149722
149669
149872
149650
149469
149244
149611
149725
149820
149744
149391
149280
149618
149736
149831
149757
149416
149293
149625
149747
149834
149759
149421
149314
149643
149761
149843
149767
149448
149388
149694
149815
149675
149641
149169
149402
149692
149827
149719
149593
149238
149368
149729
149814
149727
149600
149252
149376
149734
149814
149728
149604
149263
149398
149743
149820
149745
149625
149289
149411
149747
149827
149796
149676
149376
149076
149663
149631
149832
149626
149390
149178
149563
149690
149785
149702
149319
149186
149567
149693
149788
149711
149334
149198
149567
149698
149791
149710
149340
149231
149587
149713
149800
149717
149367
149321
149646
149774
149613
149587
149052
149325
149636
149788
149671
149533
149137
149274
149676
149770
149676
149540
149149
149300
149689
149771
149678
149542
149162
149305
149688
149773
149691
149558
149187
149326
149693
149780
149739
149609
149284
148942
149617
149563
149794
149534
149316
149065
149487
149630
149732
149640
149222
149089
149499
149634
149737
149649
149231
149090
149496
149639
149739
149647
149231
149106
149502
149647
149745
149655
149253
149128
149518
149658
149747
149659
149284
149218
149597
149719
149587
149379
149052
149187
149640
149709
149613
149450
149037
149187
149624
149720
149618
149462
149049
149197
149622
149717
149621
149471
149068
149211
149624
149719
149631
149488
149088
149239
149633
149725
149695
149552
149172
148911
149456
149533
149704
149542
149169
148962
149414
149573
149687
149588
149135
148978
149424
149581
149683
149586
149137
148998
149429
149584
149686
149590
149150
149015
149442
149593
149686
149590
149174
149084
149513
149653
149520
149280
148948
149058
149561
149636
149536
149360
148907
149067
149547
149654
149546
149375
148922
149093
149555
149657
149550
149386
148937
149104
149557
149658
149563
149405
148962
149136
149565
149663
149632
149481
149060
148785
149339
149456
149640
149488
149070
148814
149313
149491
149612
149490
148992
148839
149326
149499
149610
149499
149008
148857
149330
149502
149618
149511
149031
148872
149346
149515
149622
149518
149061
148993
149441
149591
149414
149247
148717
148972
149448
149586
149458
149279
148764
148962
149470
149587
149471
149296
148792
148991
149482
149588
149468
149291
148790
148968
149462
149577
149550
149362
148890
148527
149279
149329
149560
149347
148901
148643
149207
149402
149536
149400
148844
148667
149221
149410
149537
149415
148876
148698
149234
149423
149545
149431
148925
148805
149345
149515
149346
148995
148645
148773
149410
149479
149369
149154
148593
148797
149383
149498
149344
149135
148574
148786
149357
149482
149365
149166
148603
148815
149367
149496
149462
149247
148722
148304
149182
149213
149475
149225
148747
148441
149066
149294
149448
149302
148688
148492
149100
149313
149455
149321
148723
148511
149114
149322
149458
149332
148757
148675
149237
149426
149185
149052
148294
148602
149211
149397
149215
148981
148313
148597
149246
149391
149245
149019
148379
148616
149256
149398
149263
149039
148407
148648
149261
149402
149360
149158
148557
148178
148929
149123
149362
149168
148556
148264
148953
149192
149360
149211
148551
148306
148986
149214
149355
149215
148573
148541
149144
149329
149008
148856
147962
148408
149075
149271
149095
148834
148113
148404
149120
149287
149130
148875
148166
148437
149140
149296
149147
148901
148203
148480
149155
149310
149268
149044
148354
148047
148700
149017
149226
149078
148323
148083
148802
149084
149255
149110
148367
148124
148847
149102
149255
149133
148478
148206
148927
149169
148908
148609
147875
148195
148964
149141
148986
148710
147933
148226
149008
149181
149023
148753
147974
148282
149036
149202
149155
148902
148130
147787
148557
148879
149111
148919
148132
147840
148660
148956
149151
148982
148200
148042
148856
149119
148813
148480
147662
147969
148823
149018
148781
148454
147579
147906
148794
149005
148834
148523
147646
147992
148846
149041
148993
148704
147852
147412
148346
148678
148966
148728
147843
147510
148458
148786
149008
148815
147930
147730
148663
148962
148619
148251
147299
147752
148667
148908
148752
148418
147436
147781
148708
148906
148779
148443
147453
147019
148029
148446
148764
148526
147504
147151
148198
148572
148828
148606
147614
147424
148439
148783
148394
148024
146896
147451
148473
148745
148518
148136
147024
147543
148571
148792
148741
148387
147294
146802
147910
148350
148659
148402
147496
146739
147919
148317
148593
148315
147203
146996
148155
148523
148162
147627
146553
147051
148260
148534
148324
147872
146676
147190
148347
148599
148549
148159
146999
146398
147653
148106
148494
148194
147062
146591
147853
148278
148532
148343
147281
146988
148144
148494
147913
147381
146115
146721
147952
148273
148207
147788
146469
146012
147235
147858
148239
147962
146575
146123
147491
148005
148340
148074
146768
146537
147872
148301
147824
147278
145906
146620
147906
148203
148268
147868
146445
145676
147031
147695
147960
147522
146009
145679
147291
147829
147383
146673
145150
145905
147485
147880
147617
147028
145411
146205
147685
148020
147996
147492
145955
145287
146839
147466
147878
147553
146147
145982
147540
147976
147309
146590
145045
145404
147086
147572
147419
146809
145031
144475
146262
146978
147522
147103
145428
145143
146925
147516
147012
146276
144457
145456
147127
147519
147587
147018
145190
144508
146302
147012
147248
146788
145033
144280
146351
147029
146767
145976
143813
143033
145437
146252
146959
146451
144388
144054
146327
147000
146439
145471
143296
144660
146589
146982
147250
146733
144660
142969
145528
146471
145569
144481
141839
143341
145712
146346
146357
145574
142953
142568
145222
146255
145602
144734
141530
143716
145877
146339
146535
145885
143220
141299
144431
145583
144622
143465
140138
142299
144998
145703
145768
144934
141858
141550
144765
145858
145926
145105
141392
138689
142033
144095
145030
143741
140286
139898
143666
145009
144948
143555
139405
139370
143834
145174
144755
142957
137716
136421
141923
143948
142894
140251
135523
139371
143252
144423
144434
142995
138566
137364
142351
144110
143720
141913
136607
136199
141703
143487
143341
141255
135333
134904
141011
143241
143226
140856
134629
134349
140669
143204
143142
140447
134064
133806
140214
143054
142955
139983
133583
133398
139759
142850
142741
139545
133240
133103
139338
142625
142507
139140
132987
132891
138951
142385
142263
138774
132815
132755
138609
142141
142020
138455
132709
132675
138312
141899
141779
138179
132650
132635
138056
141657
141537
137942
132629
132631
137836
141417
141299
137740
132639
132653
137651
141183
141071
137571
132672
132696
137498
140960
140853
137432
132723
132754
137372
140748
140647
137319
132788
132825
137271
140548
140453
137229
132863
132903
137190
140361
140273
137156
132944
132985
137125
140188
140107
137099
133028
133071
137074
140028
139955
137053
133114
133157
137035
139883
139816
137019
133201
133244
137005
139752
139692
136993
133286
133328
136982
139634
139582
136974
133369
133409
136967
139531
139485
136961
133449
133487
136956
139440
139399
136952
133526
133562
136949
139359
139324
136946
133598
133632
136944
139289
139258
136944
133666
133698
136943
139228
139202
136944
133730
133759
136945
139176
139154
136947
133789
133816
136949
139132
139112
136952
133843
133868
136954
139093
139077
136958
133892
133915
136961
139061
139048
136966
133938
133959
136969
139034
139022
136974
133979
133998
136979
139011
139001
136984
134017
134035
136988
138991
138983
136993
134052
134068
136998
138975
138968
137004
134084
134098
137008
138961
138955
137013
134113
134127
137018
138949
138944
137023
134140
134152
137027
138939
138935
137032
134164
134175
137037
138930
138927
137041
134186
134196
137045
138922
138919
137050
134207
134216
137054
138916
138913
137058
134225
134233
137061
138910
138908
137066
134242
134250
137069
138905
138903
137073
134257
134264
137076
138901
138899
137080
134272
134278
137084
138897
138897
137088
134285
134291
137091
138895
138894
137094
134297
134302
137097
138892
138893
137101
134308
134313
137104
138891
138891
137108
134319
134324
137111
138890
138891
137114
134329
134333
137117
138889
138890
137121
134338
134343
137124
138889
138890
137127
134348
134352
137130
138889
138891
137134
134356
134360
137137
138890
138892
137140
134365
134369
137143
138891
138893
137147
134373
134377
137150
138893
138895
137154
134382
134385
137157
138894
138897
137160
134390
134394
137163
138896
138899
137167
134398
134402
137170
138899
138902
137174
134406
134410
137177
138902
138905
137181
134414
134418
137184
138905
138908
137188
134422
134426
137192
138908
138912
137196
134430
134433
137199
138912
138916
137203
134438
134441
137206
138916
138920
137211
134445
134449
137214
138921
138925
137218
134453
134457
137222
138926
138930
137226
134461
134465
137229
138931
138935
137234
134469
134472
137237
138936
138940
137241
134476
134480
137245
138942
138946
137249
134484
134487
137253
138948
138952
137257
134491
134495
137261
138954
138958
137266
134499
134502
137269
138960
138965
137274
134506
134510
137278
138967
138971
137282
134514
134517
137286
138973
138978
137290
134521
134525
137294
138980
138985
137299
134528
134532
137303
138987
138992
137307
134535
134539
137311
138994
139000
137316
134543
134546
137320
139002
139007
137324
134550
134553
137328
139009
139015
137332
134556
134560
137336
139017
139022
137341
134563
134566
137345
139024
139030
137349
134570
134573
137353
139032
139037
137358
134576
134579
137362
139040
139045
137366
134583
134586
137370
139048
139053
137374
134589
134592
137378
139055
139061
137382
134595
134598
137386
139063
139069
137390
134601
134604
137394
139071
139077
137399
134607
134610
137402
139079
139084
137407
134613
134615
137410
139087
139092
137415
134618
134621
137418
139095
139100
137423
134624
134626
137426
139103
139108
137430
134629
134631
137434
139111
139116
137438
134634
134636
137442
139118
139124
137446
134639
134641
137449
139126
139132
137453
134644
134646
137457
139134
139140
137461
134648
134650
137464
139142
139147
137468
134652
134654
137471
139149
139155
137475
134656
134658
137478
139157
139162
137482
134660
134662
137485
139164
139169
137489
134664
134665
137492
139171
139178
137495
134667
134668
137498
139179
139185
137503
134673
134675
137506
139189
139192
137511
134678
134680
137509
139189
139177
137498
134678
134670
137482
139159
139203
137503
134685
134760
137599
139355
139448
137673
134818
142056
144691
146369
146740
146890
147546
147883
148029
148174
148587
148856
149138
149349
149505
149621
149703
149763
149805
149837
149859
149877
149890
149901
149909
149916
149922
149926
149929
149931
149934
149934
149936
149936
149932
149934
149941
149946
149954
149962
149972
149983
149994
150005
150015
150021
150023
150022
150020
150017
150015
150013
150012
150010
150009
150007
150005
150003
150000
149998
149996
149994
149992
149991
149989
149988
149987
149986
149986
149986
149986
149987
149989
149991
149993
149997
150001
150005
150010
150015
150021
150027
150034
150040
150046
150052
150058
150063
150068
150072
150075
150078
150080
150081
150082
150081
150080
150079
150077
150074
150071
150068
150064
150061
150057
150053
150048
150044
150040
150036
150032
150028
150024
150020
150016
150013
150009
150006
150002
149999
149997
149994
149991
149989
149986
149984
149982
149980
149978
149977
149975
149974
149972
149971
149970
149969
149968
149967
149966
149965
149965
149964
149964
149963
149963
149962
149962
149962
149962
149962
149962
149962
149962
149962
149962
149962
149962
149962
149963
149963
149963
149963
149964
149964
149965
149965
149965
149966
149966
149967
149968
149968
149969
149969
149970
149971
149971
149972
149973
149973
149974
149975
149975
149976
149977
149978
149979
149980
149980
149981
149982
149983
149984
149985
149986
149987
149988
149989
149990
149991
149993
149994
149996
150000
150007
150012
150015
150015
150017
150004
150012
150012
150020
150026
150029
150029
150027
150026
150024
150022
150021
150020
150019
150018
150017
150016
150016
150015
150015
150014
150014
150013
150013
150012
150012
150012
150011
150011
150011
150011
150010
150010
150010
150010
150009
150009
150009
150009
150008
150008
150008
150008
150008
150007
150007
150007
150007
150006
150006
150006
150006
150006
150005
150005
150005
150005
150005
150004
150004
150004
150004
150003
150003
150003
150003
150002
150002
150002
150001
150001
150000
150000
149999
149999
149998
149997
149995
149994
149994
149995
149997
149999
150000
150004
150009
150019
150024
150024
150021
150019
150016
150013
150010
150008
150005
150003
150000
149998
149995
149993
149990
149988
149985
149983
149980
149979
149976
149975
149971
149971
149967
149967
149963
149963
149959
149959
149956
149955
149952
149952
149949
149949
149945
149945
149942
149942
149939
149939
149936
149936
149933
149934
149931
149931
149928
149928
149925
149926
149923
149923
149920
149921
149918
149918
149915
149916
149913
149914
149911
149911
149908
149909
149906
149907
149904
149905
149902
149903
149900
149901
149899
149900
149897
149898
149895
149896
149894
149895
149893
149894
149892
149893
149891
149893
149891
149893
149891
149893
149891
149894
149892
149895
149893
149896
149895
149898
149897
149900
149899
149902
149901
149905
149903
149907
149906
149910
149909
149912
149911
149915
149914
149917
149916
149920
149918
149922
149920
149923
149922
149925
149923
149926
149924
149927
149925
149927
149925
149927
149926
149927
149926
149927
149925
149927
149925
149926
149924
149926
149924
149925
149923
149924
149922
149924
149921
149922
149921
149921
149920
149920
149918
149920
149916
149918
149916
149916
149915
149916
149912
149915
149911
149912
149911
149911
149910
149912
149909
149915
149922
149931
149956
149955
149952
149965
149949
149952
149965
149948
149953
149966
149949
149953
149967
149951
149953
149968
149952
149955
149969
149952
149957
149970
149953
149956
149971
149955
149957
149971
149955
149959
149972
149955
149960
149973
149956
149961
149974
149958
149960
149975
149958
149961
149975
149959
149963
149976
149959
149963
149976
149960
149963
149977
149960
149964
149977
149960
149964
149978
149960
149964
149978
149961
149964
149978
149960
149964
149978
149960
149964
149978
149959
149963
149977
149958
149963
149977
149957
149961
149976
149956
149960
149975
149954
149958
149973
149952
149956
149972
149950
149954
149970
149948
149952
149968
149947
149951
149967
149945
149949
149966
149943
149947
149965
149941
149945
149964
149940
149944
149964
149939
149943
149962
149938
149942
149962
149938
149942
149963
149938
149943
149964
149938
149943
149964
149939
149944
149965
149939
149945
149966
149940
149946
149967
149941
149947
149969
149942
149948
149970
149944
149950
149971
149945
149951
149972
149946
149953
149974
149948
149954
149975
149949
149955
149976
149951
149957
149977
149952
149958
149979
149954
149960
149980
149955
149961
149981
149957
149963
149982
149958
149964
149983
149960
149966
149985
149961
149967
149986
149963
149968
149987
149965
149970
149988
149966
149972
149989
149968
149973
149990
149970
149975
149992
149971
149976
149993
149973
149978
149994
149975
149980
149995
149977
149981
149997
149979
149983
149998
149981
149985
149999
149983
149987
150000
149985
149989
150002
149987
149991
150003
149989
149993
150004
149991
149995
150006
149994
149997
150007
149996
150000
150008
149999
150002
150010
150002
150004
150011
150004
150007
150013
150007
150010
150014
150010
150013
150016
150013
150015
150017
150017
150018
150019
150020
150022
150020
150023
150013
150015
150015
150015
150015
150014
150014
150013
150013
150013
150012
150012
150012
150011
150011
150011
150010
150010
150010
150009
150009
150009
150008
150008
150008
150007
150007
150006
150006
150005
150005
150004
150004
150003
150002
150002
150001
150000
149999
149998
149996
149995
149994
149993
149992
149991
149991
149990
149992
149995
149996
149997
150000
150002
150005
150007
150009
150011
150012
150012
150012
150011
150011
150010
150008
150007
150006
150005
150004
150003
150001
150000
149999
149998
149997
149996
149995
149994
149993
149992
149991
149990
149989
149988
149988
149986
149969
149966
149966
149970
149985
149989
149989
149995
149995
149997
149997
149997
149998
149999
150000
150001
150002
150003
150004
150005
150006
150007
150008
150009
150010
150011
150015
150014
150013
150011
150010
150009
150008
150007
150006
150005
150004
150003
150002
150001
150001
150000
149999
149999
150000
149999
149999
149997
149998
150000
150000
150001
149994
149993
149993
149993
149993
149990
149990
149975
149977
149972
149972
149972
149973
149974
149976
149996