/*--------------------------------*- C++ -*----------------------------------*\
| =========                 |                                                 |
| \\      /  F ield         | OpenFOAM: The Open Source CFD Toolbox           |
|  \\    /   O peration     | Version:  v2006                                 |
|   \\  /    A nd           | Website:  www.openfoam.com                      |
|    \\/     M anipulation  |                                                 |
\*---------------------------------------------------------------------------*/
FoamFile
{
    version     2.0;
    format      ascii;
    class       surfaceScalarField;
    location    "0.024";
    object      phi;
}
// * * * * * * * * * * * * * * * * * * * * * * * * * * * * * * * * * * * * * //

dimensions      [1 0 -1 0 0 0 0];
oriented        oriented;


internalField   nonuniform List<scalar> 
83424
(
-1.77791e-05
-0.000736823
0.000723263
3.11543e-05
-0.000687886
0.000670213
8.06383e-06
4.65586e-05
7.84594e-06
0.000802999
2.71576e-05
0.000887032
-9.12802e-06
0.000927009
1.11857e-06
0.000958435
-5.50684e-06
0.000962979
-7.20598e-07
0.000966291
-5.13892e-07
0.000965094
7.19382e-08
0.00096413
-4.65376e-08
0.000963161
-7.72317e-08
0.000962628
-1.13607e-07
0.000961928
-1.51366e-07
0.00096128
-1.87252e-07
0.000960535
-2.19219e-07
0.000959739
-2.46907e-07
0.000958926
-2.70798e-07
0.000958112
-2.91695e-07
0.000957306
-3.10394e-07
0.000956505
-3.2754e-07
0.000955706
-3.43596e-07
0.000954901
-3.58852e-07
0.000954085
-3.73472e-07
0.000953255
-3.87533e-07
0.000952405
-4.01061e-07
0.000951535
-4.14067e-07
0.000950644
-4.26566e-07
0.000949732
-4.38589e-07
0.000948799
-4.50176e-07
0.000947844
-4.61385e-07
0.00094687
-4.72274e-07
0.000945876
-4.82902e-07
0.000944861
-4.93321e-07
0.000943827
-5.03579e-07
0.000942773
-5.1371e-07
0.0009417
-5.23738e-07
0.000940606
-5.33681e-07
0.000939492
-5.43556e-07
0.000938358
-5.53366e-07
0.000937205
-5.63125e-07
0.000936031
-5.72832e-07
0.000934838
-5.82445e-07
0.000933626
-5.91975e-07
0.000932394
-6.01419e-07
0.000931143
-6.10773e-07
0.000929873
-6.20026e-07
0.000928584
-6.29175e-07
0.000927278
-6.38205e-07
0.000925953
-6.47109e-07
0.00092461
-6.55874e-07
0.000923249
-6.64491e-07
0.000921872
-6.7295e-07
0.000920478
-6.81238e-07
0.000919067
-6.89345e-07
0.000917641
-6.97261e-07
0.000916199
-7.04977e-07
0.000914741
-7.1248e-07
0.000913269
-7.19766e-07
0.000911783
-7.26823e-07
0.000910283
-7.33644e-07
0.000908769
-7.40222e-07
0.000907243
-7.46546e-07
0.000905704
-7.52608e-07
0.000904153
-7.58406e-07
0.000902591
-7.6393e-07
0.000901018
-7.69177e-07
0.000899435
-7.74136e-07
0.000897842
-7.78802e-07
0.00089624
-7.83172e-07
0.000894629
-7.87245e-07
0.00089301
-7.91008e-07
0.000891383
-7.94457e-07
0.00088975
-7.97591e-07
0.00088811
-8.00406e-07
0.000886465
-8.02896e-07
0.000884814
-8.05057e-07
0.000883159
-8.06887e-07
0.0008815
-8.08383e-07
0.000879838
-8.09537e-07
0.000878173
-8.10352e-07
0.000876507
-8.10822e-07
0.000874838
-8.10945e-07
0.00087317
-8.1072e-07
0.000871501
-8.10145e-07
0.000869832
-8.09215e-07
0.000868165
-8.07932e-07
0.0008665
-8.06295e-07
0.000864837
-8.04283e-07
0.000863178
-8.01933e-07
0.000861522
-7.99219e-07
0.000859872
-7.96148e-07
0.000858226
-7.9272e-07
0.000856586
-7.88932e-07
0.000854953
-7.84785e-07
0.000853327
-7.80284e-07
0.000851709
-7.75433e-07
0.0008501
-7.70228e-07
0.0008485
-7.64669e-07
0.000846909
-7.58768e-07
0.00084533
-7.52524e-07
0.000843762
-7.45942e-07
0.000842205
-7.39027e-07
0.000840661
-7.31782e-07
0.000839131
-7.24211e-07
0.000837614
-7.16324e-07
0.000836112
-7.08125e-07
0.000834625
-6.99619e-07
0.000833153
-6.90813e-07
0.000831698
-6.81712e-07
0.00083026
-6.72321e-07
0.000828839
-6.6265e-07
0.000827436
-6.52702e-07
0.000826052
-6.42476e-07
0.000824687
-6.31981e-07
0.000823342
-6.21211e-07
0.000822017
-6.10163e-07
0.000820712
-5.98826e-07
0.000819429
-5.87178e-07
0.000818167
-5.75191e-07
0.000816926
-5.62815e-07
0.000815708
-5.49997e-07
0.000814511
-5.3667e-07
0.000813338
-5.2277e-07
0.000812187
-5.08248e-07
0.000811062
-4.93081e-07
0.000809961
-4.77289e-07
0.000808887
-4.6092e-07
0.000807841
-4.44009e-07
0.000806823
-4.26623e-07
0.000805831
-4.08603e-07
0.00080486
-3.89413e-07
0.000803903
-3.67897e-07
0.000802948
-3.42509e-07
0.000801981
-3.11347e-07
0.000800994
-2.72515e-07
0.000799984
-2.25844e-07
0.000798977
-1.75098e-07
0.000798038
-1.28593e-07
0.000797273
-9.50214e-08
0.00079679
-7.69384e-08
0.000796621
-7.09347e-08
0.000795897
-6.99384e-08
0.00079449
-8.66984e-07
0.000792316
-2.46172e-06
0.000786955
-1.20336e-05
0.000775208
-1.7622e-05
0.000759457
-5.11443e-05
0.000735693
-8.38792e-05
0.000719038
-0.000193998
0.000719786
-0.000436308
0.000831851
-0.000124347
0.000204617
5.48759e-06
0.000348035
-9.72544e-06
0.000443869
-2.72559e-05
0.000384863
-1.23585e-05
0.000329107
-6.99502e-06
0.000117419
-4.02416e-06
9.80169e-05
7.88142e-05
5.56109e-06
7.32531e-05
1.21102e-05
9.14678e-05
0.0001104
1.91292e-05
-9.11756e-06
0.000105629
1.38885e-05
-4.94589e-06
8.72962e-05
6.83072e-05
2.00515e-06
6.63021e-05
3.04719e-06
8.62541e-05
0.000104844
3.83208e-06
-3.73173e-06
0.000103175
5.40119e-06
-1.83756e-06
8.436e-05
6.44646e-05
1.00945e-06
6.34552e-05
5.5571e-07
8.48138e-05
0.000103105
6.25596e-07
-3.51561e-06
0.000102162
4.45795e-06
-1.61572e-06
8.29139e-05
6.18395e-05
6.96343e-08
6.17698e-05
3.61896e-07
8.26216e-05
0.000102851
-3.26855e-07
-1.78115e-06
0.000101105
3.52749e-06
-1.41511e-06
8.22556e-05
6.03547e-05
6.24035e-07
5.97307e-05
1.5493e-07
8.27247e-05
0.00010174
-4.80118e-07
-2.41351e-06
0.000101546
2.6074e-06
-5.86888e-07
8.0898e-05
5.91438e-05
5.05081e-07
5.86386e-05
-7.27164e-07
8.21302e-05
0.000101388
-5.68951e-07
-2.30649e-06
0.000101178
2.51583e-06
-4.96182e-07
8.03199e-05
5.81424e-05
4.37894e-07
5.77045e-05
-7.9598e-07
8.15537e-05
0.000101013
-6.30487e-07
-2.24205e-06
0.000100797
2.45791e-06
-4.51129e-07
7.97628e-05
5.72534e-05
3.98788e-07
5.68545e-05
-8.34831e-07
8.09964e-05
0.000100631
-6.68599e-07
-2.18905e-06
0.000100409
2.4108e-06
-4.15831e-07
7.92231e-05
5.64387e-05
3.66463e-07
5.60722e-05
-8.6637e-07
8.04559e-05
0.000100244
-7.01323e-07
-2.14212e-06
0.000100017
2.36844e-06
-3.8573e-07
7.86994e-05
5.56864e-05
3.4028e-07
5.53461e-05
-8.93112e-07
7.99328e-05
9.98541e-05
-7.29953e-07
-2.10205e-06
9.96252e-05
2.33087e-06
-3.60543e-07
7.81912e-05
5.49855e-05
3.1708e-07
5.46684e-05
-9.15497e-07
7.94238e-05
9.94641e-05
-7.54434e-07
-2.06609e-06
9.92329e-05
2.29719e-06
-3.39688e-07
7.76973e-05
5.43286e-05
2.96552e-07
5.4032e-05
-9.35014e-07
7.89288e-05
9.90736e-05
-7.7575e-07
-2.03583e-06
9.88413e-05
2.26806e-06
-3.22051e-07
7.7215e-05
5.37099e-05
2.78048e-07
5.34318e-05
-9.51454e-07
7.84444e-05
9.86841e-05
-7.94288e-07
-2.00934e-06
9.84513e-05
2.242e-06
-3.09278e-07
7.67443e-05
5.31225e-05
2.62672e-07
5.28598e-05
-9.64888e-07
7.79718e-05
9.82969e-05
-8.10529e-07
-1.98326e-06
9.80632e-05
2.21687e-06
-2.96118e-07
7.62845e-05
5.25636e-05
2.48591e-07
5.23149e-05
-9.76813e-07
7.75099e-05
9.79113e-05
-8.25027e-07
-1.95917e-06
9.76766e-05
2.19367e-06
-2.84425e-07
7.5835e-05
5.20304e-05
2.35138e-07
5.17952e-05
-9.87736e-07
7.70578e-05
9.75272e-05
-8.38391e-07
-1.93604e-06
9.72917e-05
2.17135e-06
-2.73109e-07
7.53947e-05
5.1522e-05
2.23752e-07
5.12981e-05
-9.97415e-07
7.66158e-05
9.71448e-05
-8.5067e-07
-1.91401e-06
9.69085e-05
2.15016e-06
-2.62777e-07
7.49644e-05
5.10352e-05
2.1419e-07
5.08209e-05
-1.00476e-06
7.61832e-05
9.67648e-05
-8.61184e-07
-1.89364e-06
9.65278e-05
2.13045e-06
-2.54031e-07
7.45434e-05
5.05667e-05
2.05112e-07
5.03615e-05
-1.00996e-06
7.57583e-05
9.63873e-05
-8.69661e-07
-1.87536e-06
9.61499e-05
2.11246e-06
-2.46414e-07
7.41292e-05
5.01149e-05
1.96718e-07
4.9918e-05
-1.01452e-06
7.53402e-05
9.60105e-05
-8.75329e-07
-1.85879e-06
9.57722e-05
2.09685e-06
-2.39786e-07
7.3721e-05
4.96781e-05
1.88756e-07
4.94891e-05
-1.01881e-06
7.49284e-05
9.56344e-05
-8.8126e-07
-1.84286e-06
9.53952e-05
2.08184e-06
-2.33585e-07
7.33189e-05
4.92554e-05
1.81623e-07
4.90735e-05
-1.0219e-06
7.45222e-05
9.52588e-05
-8.85728e-07
-1.8281e-06
9.50185e-05
2.06814e-06
-2.28103e-07
7.2922e-05
4.88453e-05
1.7516e-07
4.86699e-05
-1.02411e-06
7.4121e-05
9.48832e-05
-8.89128e-07
-1.81431e-06
9.46418e-05
2.05548e-06
-2.23249e-07
7.25297e-05
4.84465e-05
1.69361e-07
4.82769e-05
-1.02539e-06
7.37243e-05
9.45075e-05
-8.91423e-07
-1.80149e-06
9.42649e-05
2.04385e-06
-2.19057e-07
7.21416e-05
4.80577e-05
1.64051e-07
4.78935e-05
-1.0259e-06
7.33313e-05
9.41315e-05
-8.92748e-07
-1.78966e-06
9.38876e-05
2.03322e-06
-2.15709e-07
7.17572e-05
4.76776e-05
1.58944e-07
4.75185e-05
-1.02583e-06
7.29417e-05
9.37547e-05
-8.93219e-07
-1.77862e-06
9.35095e-05
2.02355e-06
-2.12817e-07
7.13757e-05
4.73055e-05
1.54306e-07
4.7151e-05
-1.02507e-06
7.25549e-05
9.3377e-05
-8.92858e-07
-1.76824e-06
9.31304e-05
2.01462e-06
-2.10335e-07
7.09967e-05
4.69405e-05
1.50109e-07
4.67902e-05
-1.02365e-06
7.21703e-05
9.29981e-05
-8.91653e-07
-1.75839e-06
9.275e-05
2.00624e-06
-2.08197e-07
7.06199e-05
4.65818e-05
1.46231e-07
4.64354e-05
-1.02178e-06
7.17877e-05
9.26179e-05
-8.89892e-07
-1.749e-06
9.23682e-05
1.99839e-06
-2.06335e-07
7.02448e-05
4.62289e-05
1.42701e-07
4.6086e-05
-1.01938e-06
7.14066e-05
9.2236e-05
-8.87443e-07
-1.74012e-06
9.19847e-05
1.99117e-06
-2.04772e-07
6.98711e-05
4.58811e-05
1.39482e-07
4.57414e-05
-1.01648e-06
7.10268e-05
9.18523e-05
-8.84324e-07
-1.73171e-06
9.15992e-05
1.98452e-06
-2.03487e-07
6.94984e-05
4.55377e-05
1.36553e-07
4.5401e-05
-1.0131e-06
7.06478e-05
9.14663e-05
-8.8054e-07
-1.72375e-06
9.12114e-05
1.97846e-06
-2.02465e-07
6.91263e-05
4.51983e-05
1.33903e-07
4.50642e-05
-1.00923e-06
7.02692e-05
9.10779e-05
-8.76081e-07
-1.71625e-06
9.08209e-05
1.97298e-06
-2.01705e-07
6.87544e-05
4.48623e-05
1.31536e-07
4.47306e-05
-1.00485e-06
6.98906e-05
9.06867e-05
-8.70897e-07
-1.70946e-06
9.04276e-05
1.96821e-06
-2.01083e-07
6.83819e-05
4.45293e-05
1.295e-07
4.43996e-05
-1.00036e-06
6.95116e-05
9.02923e-05
-8.65346e-07
-1.70306e-06
9.00312e-05
1.96383e-06
-2.00601e-07
6.80089e-05
4.41988e-05
1.27744e-07
4.40708e-05
-9.95546e-07
6.91319e-05
8.98946e-05
-8.59214e-07
-1.69704e-06
8.96314e-05
1.95995e-06
-2.00347e-07
6.76349e-05
4.38702e-05
1.26215e-07
4.37438e-05
-9.90295e-07
6.87512e-05
8.94932e-05
-8.52475e-07
-1.69139e-06
8.92277e-05
1.95656e-06
-2.00311e-07
6.72598e-05
4.35432e-05
1.24907e-07
4.34181e-05
-9.8462e-07
6.83691e-05
8.90879e-05
-8.45141e-07
-1.68609e-06
8.882e-05
1.95364e-06
-2.00482e-07
6.68832e-05
4.32174e-05
1.23812e-07
4.30933e-05
-9.78527e-07
6.79852e-05
8.86784e-05
-8.37216e-07
-1.68112e-06
8.8408e-05
1.95117e-06
-2.00855e-07
6.65047e-05
4.28922e-05
1.2292e-07
4.2769e-05
-9.72018e-07
6.75993e-05
8.82643e-05
-8.28705e-07
-1.67646e-06
8.79913e-05
1.94914e-06
-2.01423e-07
6.6124e-05
4.25674e-05
1.22222e-07
4.24449e-05
-9.65095e-07
6.7211e-05
8.78455e-05
-8.19609e-07
-1.67212e-06
8.75697e-05
1.94755e-06
-2.0218e-07
6.57407e-05
4.22425e-05
1.21713e-07
4.21205e-05
-9.57762e-07
6.68199e-05
8.74215e-05
-8.09923e-07
-1.66808e-06
8.71428e-05
1.94641e-06
-2.03123e-07
6.53547e-05
4.19171e-05
1.21388e-07
4.17955e-05
-9.50013e-07
6.64257e-05
8.6992e-05
-7.99638e-07
-1.66434e-06
8.67103e-05
1.94571e-06
-2.04251e-07
6.49653e-05
4.1591e-05
1.21248e-07
4.14695e-05
-9.4184e-07
6.60281e-05
8.65568e-05
-7.88723e-07
-1.66064e-06
8.62713e-05
1.94572e-06
-2.05431e-07
6.45726e-05
4.12638e-05
1.21411e-07
4.11421e-05
-9.32974e-07
6.56267e-05
8.61154e-05
-7.77438e-07
-1.6571e-06
8.58259e-05
1.94621e-06
-2.06733e-07
6.4176e-05
4.09351e-05
1.21784e-07
4.08131e-05
-9.23601e-07
6.52211e-05
8.56676e-05
-7.65652e-07
-1.65382e-06
8.53739e-05
1.94711e-06
-2.08204e-07
6.37751e-05
4.06046e-05
1.2233e-07
4.0482e-05
-9.13794e-07
6.48109e-05
8.5213e-05
-7.53246e-07
-1.65082e-06
8.4915e-05
1.94847e-06
-2.09887e-07
6.33697e-05
4.02719e-05
1.23129e-07
4.01485e-05
-9.03436e-07
6.43959e-05
8.47513e-05
-7.40126e-07
-1.64835e-06
8.44489e-05
1.95035e-06
-2.12178e-07
6.29595e-05
3.99361e-05
1.24528e-07
3.98113e-05
-8.92363e-07
6.3976e-05
8.42824e-05
-7.26263e-07
-1.64615e-06
8.39755e-05
1.9527e-06
-2.14609e-07
6.25442e-05
3.95964e-05
1.25957e-07
3.94702e-05
-8.80951e-07
6.35508e-05
8.3806e-05
-7.11846e-07
-1.64409e-06
8.34943e-05
1.95539e-06
-2.17059e-07
6.21234e-05
3.92529e-05
1.27401e-07
3.91252e-05
-8.69219e-07
6.31197e-05
8.33216e-05
-6.96899e-07
-1.64212e-06
8.3005e-05
1.95838e-06
-2.19519e-07
6.16968e-05
3.89054e-05
1.28861e-07
3.87763e-05
-8.57178e-07
6.26826e-05
8.28289e-05
-6.81441e-07
-1.64023e-06
8.25071e-05
1.96165e-06
-2.22001e-07
6.1264e-05
3.8554e-05
1.30352e-07
3.84234e-05
-8.44827e-07
6.22389e-05
8.23274e-05
-6.65483e-07
-1.6384e-06
8.20002e-05
1.96516e-06
-2.24521e-07
6.08247e-05
3.81986e-05
1.31887e-07
3.80665e-05
-8.32159e-07
6.17884e-05
8.18167e-05
-6.49031e-07
-1.63664e-06
8.14841e-05
1.96891e-06
-2.27092e-07
6.03785e-05
3.78391e-05
1.33481e-07
3.77053e-05
-8.19164e-07
6.13309e-05
8.12966e-05
-6.32085e-07
-1.63495e-06
8.09583e-05
1.97289e-06
-2.29728e-07
5.99253e-05
3.74753e-05
1.35144e-07
3.73399e-05
-8.05834e-07
6.0866e-05
8.07667e-05
-6.14643e-07
-1.63332e-06
8.04226e-05
1.97709e-06
-2.32439e-07
5.94648e-05
3.71072e-05
1.36871e-07
3.697e-05
-7.92167e-07
6.03935e-05
8.02267e-05
-5.96702e-07
-1.63176e-06
7.98766e-05
1.98152e-06
-2.35216e-07
5.89966e-05
3.67345e-05
1.38689e-07
3.65956e-05
-7.78138e-07
5.99131e-05
7.96763e-05
-5.78245e-07
-1.63027e-06
7.932e-05
1.98618e-06
-2.38101e-07
5.85206e-05
3.63572e-05
1.40605e-07
3.62163e-05
-7.63746e-07
5.94246e-05
7.91151e-05
-5.59279e-07
-1.62874e-06
7.87526e-05
1.99087e-06
-2.41025e-07
5.80366e-05
3.5975e-05
1.42646e-07
3.58321e-05
-7.48931e-07
5.89278e-05
7.8543e-05
-5.39685e-07
-1.62699e-06
7.81743e-05
1.99526e-06
-2.43897e-07
5.75444e-05
3.55879e-05
1.44887e-07
3.54427e-05
-7.33509e-07
5.84225e-05
7.79596e-05
-5.19139e-07
-1.62536e-06
7.75846e-05
1.99994e-06
-2.46905e-07
5.70437e-05
3.51956e-05
1.47192e-07
3.50481e-05
-7.17773e-07
5.79083e-05
7.73646e-05
-4.98163e-07
-1.62371e-06
7.69832e-05
2.00471e-06
-2.4997e-07
5.65342e-05
3.47979e-05
1.49573e-07
3.4648e-05
-7.01684e-07
5.73852e-05
7.67578e-05
-4.76697e-07
-1.62207e-06
7.63699e-05
2.00963e-06
-2.53107e-07
5.60159e-05
3.43946e-05
1.52034e-07
3.42423e-05
-6.85231e-07
5.68528e-05
7.6139e-05
-4.54725e-07
-1.62042e-06
7.57444e-05
2.01465e-06
-2.56313e-07
5.54884e-05
3.39858e-05
1.5454e-07
3.38309e-05
-6.6849e-07
5.63111e-05
7.55079e-05
-4.32374e-07
-1.61869e-06
7.51065e-05
2.01967e-06
-2.59554e-07
5.49517e-05
3.35711e-05
1.57077e-07
3.34138e-05
-6.51492e-07
5.57599e-05
7.48644e-05
-4.09696e-07
-1.61685e-06
7.44562e-05
2.02464e-06
-2.62819e-07
5.44056e-05
3.31507e-05
1.59625e-07
3.29908e-05
-6.34276e-07
5.51992e-05
7.42083e-05
-3.86754e-07
-1.61484e-06
7.37933e-05
2.02949e-06
-2.66088e-07
5.38501e-05
3.27245e-05
1.62165e-07
3.25621e-05
-6.16888e-07
5.46289e-05
7.35396e-05
-3.63621e-07
-1.61263e-06
7.31178e-05
2.03415e-06
-2.6934e-07
5.32853e-05
3.22925e-05
1.64674e-07
3.21275e-05
-5.99376e-07
5.4049e-05
7.28584e-05
-3.40373e-07
-1.61017e-06
7.24297e-05
2.03854e-06
-2.72551e-07
5.27111e-05
3.18547e-05
1.67129e-07
3.16874e-05
-5.81795e-07
5.34597e-05
7.21646e-05
-3.17098e-07
-1.60739e-06
7.17291e-05
2.04256e-06
-2.75696e-07
5.21277e-05
3.14114e-05
1.69501e-07
3.12417e-05
-5.64209e-07
5.28612e-05
7.14584e-05
-2.939e-07
-1.60424e-06
7.10162e-05
2.04611e-06
-2.78744e-07
5.15354e-05
3.09627e-05
1.71759e-07
3.07907e-05
-5.46697e-07
5.22535e-05
7.07401e-05
-2.70899e-07
-1.60063e-06
7.02913e-05
2.04907e-06
-2.81659e-07
5.09343e-05
3.05088e-05
1.73858e-07
3.03347e-05
-5.29354e-07
5.16372e-05
7.00098e-05
-2.48238e-07
-1.59648e-06
6.95547e-05
2.05129e-06
-2.84392e-07
5.03248e-05
3.00501e-05
1.7576e-07
2.98741e-05
-5.12284e-07
5.10126e-05
6.92681e-05
-2.26083e-07
-1.59169e-06
6.88069e-05
2.0526e-06
-2.86906e-07
4.97075e-05
2.95869e-05
1.77424e-07
2.94093e-05
-4.95598e-07
5.03803e-05
6.85156e-05
-2.04614e-07
-1.58616e-06
6.80486e-05
2.05283e-06
-2.89154e-07
4.9083e-05
2.91199e-05
1.78792e-07
2.89409e-05
-4.79434e-07
4.97409e-05
6.77528e-05
-1.84044e-07
-1.57976e-06
6.72805e-05
2.05176e-06
-2.9107e-07
4.8452e-05
2.86496e-05
1.79801e-07
2.84696e-05
-4.6395e-07
4.90954e-05
6.69808e-05
-1.64614e-07
-1.57234e-06
6.65037e-05
2.04916e-06
-2.9258e-07
4.78154e-05
2.81768e-05
1.80379e-07
2.79962e-05
-4.49323e-07
4.84449e-05
6.62006e-05
-1.46594e-07
-1.56375e-06
6.57193e-05
2.04475e-06
-2.93608e-07
4.71744e-05
2.77023e-05
1.80451e-07
2.75217e-05
-4.35747e-07
4.77904e-05
6.54135e-05
-1.30278e-07
-1.55383e-06
6.49288e-05
2.03824e-06
-2.94068e-07
4.65304e-05
2.72274e-05
1.7994e-07
2.70472e-05
-4.23427e-07
4.71335e-05
6.4621e-05
-1.15984e-07
-1.5424e-06
6.41338e-05
2.02934e-06
-2.93874e-07
4.58847e-05
2.67532e-05
1.78764e-07
2.65742e-05
-4.12585e-07
4.64758e-05
6.38249e-05
-1.04054e-07
-1.52927e-06
6.33362e-05
2.01769e-06
-2.92932e-07
4.52392e-05
2.62811e-05
1.76839e-07
2.6104e-05
-4.0346e-07
4.58192e-05
6.30273e-05
-9.48568e-08
-1.51425e-06
6.25383e-05
2.00294e-06
-2.91143e-07
4.45959e-05
2.58127e-05
1.74078e-07
2.56384e-05
-3.96304e-07
4.5166e-05
6.22305e-05
-8.8785e-08
-1.49713e-06
6.17426e-05
1.98471e-06
-2.88407e-07
4.3957e-05
2.53498e-05
1.70404e-07
2.51792e-05
-3.91354e-07
4.45185e-05
6.14371e-05
-8.62185e-08
-1.47778e-06
6.09519e-05
1.96269e-06
-2.84652e-07
4.33252e-05
2.48943e-05
1.65741e-07
2.47284e-05
-3.8887e-07
4.38795e-05
6.06503e-05
-8.75833e-08
-1.45594e-06
6.01696e-05
1.93642e-06
-2.79758e-07
4.27031e-05
2.44484e-05
1.59976e-07
2.42882e-05
-3.89172e-07
4.3252e-05
5.98734e-05
-9.33492e-08
-1.43142e-06
5.9399e-05
1.90555e-06
-2.7361e-07
4.20939e-05
2.40144e-05
1.53005e-07
2.38612e-05
-3.92552e-07
4.26392e-05
5.91101e-05
-1.03944e-07
-1.40405e-06
5.8644e-05
1.86978e-06
-2.66105e-07
4.1501e-05
2.35949e-05
1.44736e-07
2.34499e-05
-3.9927e-07
4.20448e-05
5.83642e-05
-1.19759e-07
-1.37379e-06
5.79087e-05
1.82897e-06
-2.5717e-07
4.09279e-05
2.31925e-05
1.35278e-07
2.3057e-05
-4.09209e-07
4.14721e-05
5.76398e-05
-1.40663e-07
-1.34099e-06
5.71972e-05
1.78336e-06
-2.47169e-07
4.0378e-05
2.28096e-05
1.24809e-07
2.26846e-05
-4.22477e-07
4.0925e-05
5.69414e-05
-1.67052e-07
-1.30539e-06
5.65139e-05
1.73261e-06
-2.35792e-07
3.98552e-05
2.24486e-05
1.13011e-07
2.23353e-05
-4.39445e-07
4.04073e-05
5.62734e-05
-1.99288e-07
-1.26694e-06
5.58632e-05
1.67672e-06
-2.22922e-07
3.9363e-05
2.21122e-05
9.98445e-08
2.20121e-05
-4.60181e-07
3.99228e-05
5.56401e-05
-2.37434e-07
-1.22582e-06
5.52497e-05
1.61587e-06
-2.0861e-07
3.89053e-05
2.18032e-05
8.54115e-08
2.17176e-05
-4.84585e-07
3.9475e-05
5.50462e-05
-2.81367e-07
-1.18235e-06
5.46777e-05
1.55047e-06
-1.92998e-07
3.84853e-05
2.15243e-05
6.98859e-08
2.14542e-05
-5.12411e-07
3.90673e-05
5.44957e-05
-3.30758e-07
-1.13695e-06
5.41512e-05
1.48107e-06
-1.76284e-07
3.81063e-05
2.12776e-05
5.34854e-08
2.12239e-05
-5.43306e-07
3.87028e-05
5.39926e-05
-3.85106e-07
-1.09014e-06
5.36739e-05
1.40842e-06
-1.58705e-07
3.7771e-05
2.10649e-05
3.64617e-08
2.10282e-05
-5.76814e-07
3.8384e-05
5.35404e-05
-4.43725e-07
-1.04251e-06
5.32492e-05
1.33336e-06
-1.4052e-07
3.74817e-05
2.08873e-05
1.89743e-08
2.08681e-05
-6.12657e-07
3.81129e-05
5.31423e-05
-5.06192e-07
-9.94278e-07
5.28798e-05
1.25631e-06
-1.21822e-07
3.72401e-05
2.0746e-05
9.82762e-10
2.07447e-05
-6.51165e-07
3.78919e-05
5.28011e-05
-5.72809e-07
-9.43804e-07
5.2569e-05
1.17536e-06
-9.95804e-08
3.70473e-05
2.06448e-05
-1.8259e-08
2.06627e-05
-6.90037e-07
3.77187e-05
5.25179e-05
-6.39313e-07
-8.9576e-07
5.2317e-05
1.09617e-06
-7.97653e-08
3.69023e-05
2.05826e-05
-3.54995e-08
2.06178e-05
-7.28279e-07
3.75947e-05
5.2294e-05
-7.05715e-07
-8.49896e-07
5.21246e-05
1.01879e-06
-6.1412e-08
3.68058e-05
2.0556e-05
-5.13189e-08
2.0607e-05
-7.65798e-07
3.75199e-05
5.21297e-05
-7.7144e-07
-8.06461e-07
5.19917e-05
9.44008e-07
-4.41181e-08
3.67571e-05
2.05625e-05
-6.59652e-08
2.06281e-05
-8.02304e-07
3.7493e-05
5.20246e-05
-8.35702e-07
-7.66024e-07
5.19171e-05
8.72974e-07
-2.79912e-08
3.67546e-05
2.05998e-05
-7.90416e-08
2.06785e-05
-8.36662e-07
3.75118e-05
5.19763e-05
-8.96364e-07
-7.27796e-07
5.18952e-05
8.08307e-07
-1.24657e-08
3.6796e-05
2.06656e-05
-9.07262e-08
2.0756e-05
-8.68214e-07
3.7573e-05
5.19825e-05
-9.56024e-07
-6.92502e-07
5.19263e-05
7.48136e-07
2.5853e-09
3.68774e-05
2.07581e-05
-1.02634e-07
2.08604e-05
-8.98205e-07
3.76725e-05
5.204e-05
-1.01247e-06
-6.63504e-07
5.20073e-05
6.95601e-07
1.67409e-08
3.69918e-05
2.08767e-05
-1.0951e-07
2.09858e-05
-9.24633e-07
3.78064e-05
5.2144e-05
-1.06192e-06
-6.41082e-07
5.21328e-05
6.5162e-07
2.63129e-08
3.71385e-05
2.10117e-05
-1.16085e-07
2.11274e-05
-9.50396e-07
3.79723e-05
5.22948e-05
-1.113e-06
-6.22917e-07
5.23047e-05
6.12445e-07
3.36369e-08
3.73153e-05
2.11606e-05
-1.2489e-07
2.12851e-05
-9.76992e-07
3.81668e-05
5.24828e-05
-1.15573e-06
-6.07812e-07
5.25098e-05
5.80105e-07
4.01797e-08
3.75183e-05
2.13248e-05
-1.29959e-07
2.14543e-05
-9.96325e-07
3.83841e-05
5.27033e-05
-1.19048e-06
-5.96133e-07
5.27464e-05
5.52364e-07
4.50645e-08
3.77424e-05
2.14989e-05
-1.33968e-07
2.16324e-05
-1.01445e-06
3.86223e-05
5.29548e-05
-1.22345e-06
-5.89136e-07
5.30126e-05
5.30652e-07
4.86812e-08
3.79839e-05
2.16807e-05
-1.34996e-07
2.18152e-05
-1.02619e-06
3.88746e-05
5.32333e-05
-1.24759e-06
-5.83988e-07
5.32991e-05
5.17445e-07
5.08875e-08
3.82391e-05
2.18656e-05
-1.33974e-07
2.19991e-05
-1.03345e-06
3.9138e-05
5.35261e-05
-1.26115e-06
-5.8612e-07
5.36009e-05
5.10638e-07
4.96224e-08
3.85017e-05
2.20482e-05
-1.32183e-07
2.21799e-05
-1.03825e-06
3.94071e-05
5.38327e-05
-1.2708e-06
-5.92332e-07
5.39122e-05
5.12119e-07
4.72524e-08
3.8767e-05
2.22267e-05
-1.30623e-07
2.23568e-05
-1.04154e-06
3.96773e-05
5.4147e-05
-1.27703e-06
-5.99279e-07
5.42299e-05
5.15615e-07
4.48271e-08
3.90326e-05
2.24012e-05
-1.29109e-07
2.25298e-05
-1.04395e-06
3.99468e-05
5.44661e-05
-1.28089e-06
-6.08486e-07
5.45505e-05
5.23338e-07
4.1456e-08
3.92962e-05
2.25707e-05
-1.26472e-07
2.26967e-05
-1.04374e-06
4.02129e-05
5.47861e-05
-1.28018e-06
-6.19844e-07
5.48701e-05
5.35071e-07
3.7282e-08
3.95551e-05
2.27334e-05
-1.21892e-07
2.28548e-05
-1.04066e-06
4.04733e-05
5.51039e-05
-1.27516e-06
-6.33454e-07
5.5186e-05
5.50531e-07
3.17454e-08
3.98074e-05
2.2886e-05
-1.16613e-07
2.30021e-05
-1.03593e-06
4.07261e-05
5.54162e-05
-1.26694e-06
-6.48222e-07
5.54951e-05
5.68547e-07
2.63315e-08
4.00509e-05
2.30279e-05
-1.11229e-07
2.31386e-05
-1.02988e-06
4.09689e-05
5.57206e-05
-1.25611e-06
-6.63528e-07
5.57949e-05
5.88434e-07
2.10959e-08
4.02836e-05
2.31592e-05
-1.05863e-07
2.32645e-05
-1.02279e-06
4.11999e-05
5.60145e-05
-1.24323e-06
-6.7897e-07
5.60831e-05
6.09597e-07
1.60566e-08
4.05042e-05
2.32801e-05
-1.00577e-07
2.33801e-05
-1.01496e-06
4.14179e-05
5.62962e-05
-1.22882e-06
-6.94288e-07
5.63581e-05
6.31535e-07
1.12492e-08
4.07118e-05
2.33908e-05
-9.54176e-08
2.34857e-05
-1.00663e-06
4.16223e-05
5.6564e-05
-1.21336e-06
-7.09257e-07
5.66187e-05
6.53781e-07
6.70956e-09
4.09057e-05
2.34919e-05
-9.04384e-08
2.35818e-05
-9.98045e-07
4.18126e-05
5.68172e-05
-1.19731e-06
-7.23599e-07
5.68641e-05
6.75844e-07
2.54277e-09
4.10858e-05
2.35838e-05
-8.5936e-08
2.36692e-05
-9.89708e-07
4.19889e-05
5.70548e-05
-1.18124e-06
-7.3719e-07
5.70938e-05
6.97389e-07
-9.97738e-10
4.12521e-05
2.36676e-05
-8.19991e-08
2.37491e-05
-9.81847e-07
4.21513e-05
5.72767e-05
-1.16548e-06
-7.50067e-07
5.73078e-05
7.18184e-07
-4.01842e-09
4.14046e-05
2.37445e-05
-7.81544e-08
2.38221e-05
-9.74219e-07
4.23e-05
5.74828e-05
-1.15002e-06
-7.62231e-07
5.75061e-05
7.38105e-07
-6.93715e-09
4.1544e-05
2.38147e-05
-7.44202e-08
2.38885e-05
-9.669e-07
4.24359e-05
5.76735e-05
-1.13513e-06
-7.73543e-07
5.76893e-05
7.56925e-07
-9.61158e-09
4.16713e-05
2.38784e-05
-7.09872e-08
2.39488e-05
-9.60184e-07
4.25598e-05
5.78497e-05
-1.12131e-06
-7.8408e-07
5.78582e-05
7.74746e-07
-1.20588e-08
4.17872e-05
2.39363e-05
-6.77717e-08
2.40035e-05
-9.53866e-07
4.26726e-05
5.80118e-05
-1.10824e-06
-7.93664e-07
5.80135e-05
7.91226e-07
-1.41912e-08
4.18925e-05
2.39888e-05
-6.48945e-08
2.40532e-05
-9.48174e-07
4.27752e-05
5.81608e-05
-1.09625e-06
-8.02254e-07
5.8156e-05
8.06276e-07
-1.59714e-08
4.19883e-05
2.40367e-05
-6.24592e-08
2.40986e-05
-9.43186e-07
4.28684e-05
5.82975e-05
-1.08541e-06
-8.09903e-07
5.82867e-05
8.19913e-07
-1.74696e-08
4.20753e-05
2.40806e-05
-6.06677e-08
2.41408e-05
-9.39004e-07
4.2953e-05
5.84228e-05
-1.07577e-06
-8.1679e-07
5.84066e-05
8.32195e-07
-1.89469e-08
4.21546e-05
2.41213e-05
-5.90484e-08
2.41799e-05
-9.35271e-07
4.30302e-05
5.85376e-05
-1.06702e-06
-8.22597e-07
5.85168e-05
8.42755e-07
-2.00429e-08
4.2227e-05
2.41593e-05
-5.78249e-08
2.42167e-05
-9.32323e-07
4.31009e-05
5.86434e-05
-1.05964e-06
-8.28068e-07
5.86179e-05
8.52779e-07
-2.1128e-08
4.22934e-05
2.4195e-05
-5.67912e-08
2.42514e-05
-9.29863e-07
4.31659e-05
5.87407e-05
-1.05334e-06
-8.33081e-07
5.8711e-05
8.62106e-07
-2.21213e-08
4.23544e-05
2.42288e-05
-5.58711e-08
2.42842e-05
-9.27724e-07
4.32257e-05
5.88303e-05
-1.04775e-06
-8.37522e-07
5.87967e-05
8.70444e-07
-2.29729e-08
4.24106e-05
2.42607e-05
-5.50942e-08
2.43154e-05
-9.25933e-07
4.32808e-05
5.8913e-05
-1.04287e-06
-8.41455e-07
5.88759e-05
8.77897e-07
-2.36952e-08
4.24625e-05
2.42912e-05
-5.44302e-08
2.43452e-05
-9.24434e-07
4.3332e-05
5.89894e-05
-1.03859e-06
-8.44805e-07
5.89489e-05
8.8472e-07
-2.42409e-08
4.25109e-05
2.43205e-05
-5.39267e-08
2.4374e-05
-9.23294e-07
4.33798e-05
5.90597e-05
-1.03472e-06
-8.48048e-07
5.90164e-05
8.90696e-07
-2.48507e-08
4.25561e-05
2.43488e-05
-5.34807e-08
2.44018e-05
-9.2239e-07
4.34245e-05
5.91247e-05
-1.03128e-06
-8.51133e-07
5.90793e-05
8.95954e-07
-2.54754e-08
4.25983e-05
2.4376e-05
-5.30499e-08
2.44286e-05
-9.21601e-07
4.34664e-05
5.91854e-05
-1.02825e-06
-8.53958e-07
5.91381e-05
9.0072e-07
-2.60682e-08
4.26381e-05
2.44022e-05
-5.2623e-08
2.44544e-05
-9.20895e-07
4.35059e-05
5.92422e-05
-1.02555e-06
-8.56565e-07
5.91932e-05
9.05065e-07
-2.6633e-08
4.26755e-05
2.44274e-05
-5.22015e-08
2.44793e-05
-9.2025e-07
4.35432e-05
5.92955e-05
-1.02312e-06
-8.59009e-07
5.9245e-05
9.09061e-07
-2.71754e-08
4.27109e-05
2.44518e-05
-5.17718e-08
2.45032e-05
-9.19626e-07
4.35784e-05
5.93458e-05
-1.02091e-06
-8.61352e-07
5.92939e-05
9.12772e-07
-2.77225e-08
4.27444e-05
2.44752e-05
-5.13349e-08
2.45262e-05
-9.19009e-07
4.36117e-05
5.93933e-05
-1.0189e-06
-8.63475e-07
5.93402e-05
9.16136e-07
-2.8295e-08
4.27761e-05
2.44976e-05
-5.09303e-08
2.45482e-05
-9.18406e-07
4.36433e-05
5.94385e-05
-1.01712e-06
-8.65327e-07
5.93843e-05
9.19118e-07
-2.88741e-08
4.28065e-05
2.45191e-05
-5.05429e-08
2.45694e-05
-9.17914e-07
4.36735e-05
5.94816e-05
-1.01562e-06
-8.66999e-07
5.94265e-05
9.21754e-07
-2.94047e-08
4.28356e-05
2.45397e-05
-5.0187e-08
2.45897e-05
-9.1756e-07
4.37027e-05
5.95231e-05
-1.01445e-06
-8.6843e-07
5.94672e-05
9.23957e-07
-2.9845e-08
4.28639e-05
2.45596e-05
-4.99189e-08
2.46093e-05
-9.17455e-07
4.37311e-05
5.95632e-05
-1.01374e-06
-8.69484e-07
5.95068e-05
9.25535e-07
-3.01187e-08
4.28915e-05
2.4579e-05
-4.98234e-08
2.46286e-05
-9.17775e-07
4.37593e-05
5.96026e-05
-1.01377e-06
-8.69976e-07
5.95461e-05
9.26211e-07
-3.01283e-08
4.29192e-05
2.45983e-05
-5.00101e-08
2.46482e-05
-9.18774e-07
4.37878e-05
5.9642e-05
-1.0149e-06
-8.69595e-07
5.95858e-05
9.25497e-07
-2.97207e-08
4.29477e-05
2.46183e-05
-5.06724e-08
2.46688e-05
-9.2091e-07
4.38178e-05
5.96826e-05
-1.01783e-06
-8.67543e-07
5.96277e-05
9.2221e-07
-2.84873e-08
4.29786e-05
2.46402e-05
-5.26233e-08
2.46927e-05
-9.26011e-07
4.38518e-05
5.97267e-05
-1.02515e-06
-8.59538e-07
5.96747e-05
9.11336e-07
-2.35079e-08
4.30157e-05
2.46691e-05
-6.55383e-08
2.47346e-05
-9.45018e-07
4.38951e-05
5.97777e-05
-1.04809e-06
-8.15269e-07
5.97324e-05
8.60521e-07
3.59527e-08
4.30438e-05
2.47704e-05
-4.39821e-07
2.52102e-05
-9.33327e-07
4.35372e-05
6.0356e-05
-1.55706e-06
-3.21542e-07
5.98893e-05
7.88185e-07
-2.88212e-07
4.35038e-05
2.49219e-05
-4.94879e-07
2.54168e-05
-1.5332e-06
4.45421e-05
6.10597e-05
-2.70363e-06
1.17815e-06
6.12556e-05
-1.37411e-06
5.55191e-07
4.5165e-05
2.59719e-05
-1.72975e-06
2.77017e-05
-4.32021e-06
4.77555e-05
6.46351e-05
-7.69969e-06
3.06314e-06
6.7332e-05
-5.76001e-06
1.40021e-06
4.94184e-05
2.91019e-05
-9.51508e-07
3.00534e-05
-2.07449e-06
5.05414e-05
6.84949e-05
-3.23732e-06
2.46965e-06
7.05961e-05
-4.5708e-06
9.50991e-07
5.20601e-05
3.10044e-05
-5.32776e-07
-1.05021e-06
-1.59602e-06
-1.28003e-05
-0.000208043
2.15427e-08
-0.000234069
-7.25793e-06
-0.00025947
4.07576e-06
-0.000272022
-4.23936e-07
-0.000283783
1.76601e-06
-0.000285698
4.65316e-08
-0.000288259
-5.67917e-07
-0.000288233
-5.70018e-07
-0.000289338
-5.94047e-07
-0.000290558
-6.01557e-07
-0.00029116
-6.16498e-07
-0.000292099
-6.22183e-07
-0.00029299
-6.32559e-07
-0.000293724
-6.36198e-07
-0.00029442
-6.42853e-07
-0.000295004
-6.44276e-07
-0.000295556
-6.47687e-07
-0.000296022
-6.46874e-07
-0.000296461
-6.47313e-07
-0.000296831
-6.44224e-07
-0.000297175
-6.41801e-07
-0.00029746
-6.36354e-07
-0.000297719
-6.31026e-07
-0.000297926
-6.23062e-07
-0.000298101
-6.14585e-07
-0.000298227
-6.03811e-07
-0.000298313
-5.91667e-07
-0.000298347
-5.77681e-07
-0.000298326
-5.61078e-07
-0.000297648
-5.4392e-07
-0.000297482
7.29356e-08
-0.000296046
9.20269e-08
-0.000293283
3.67372e-06
-0.000288634
6.63541e-06
-0.000282585
1.90189e-05
-0.000272297
3.18478e-05
-0.000265796
7.38477e-05
-0.000264644
0.000150261
-0.000294401
4.31911e-05
-7.88068e-05
-1.26682e-05
-0.000128983
-1.21224e-06
-0.000163505
-2.25428e-06
-0.000153569
6.46186e-06
-0.000126863
7.78939e-08
-0.00010764
7.40036e-08
-3.39963e-05
4.4946e-08
-2.31467e-05
-1.05172e-05
-3.81551e-07
-1.01356e-05
-1.30821e-06
-2.222e-05
-3.29191e-05
-2.38542e-06
4.75108e-07
-3.18672e-05
-1.52697e-06
3.42839e-07
-2.20878e-05
-9.79274e-06
-8.1223e-08
-9.7115e-06
-4.89193e-07
-2.16798e-05
-3.22491e-05
-1.07216e-07
6.48221e-08
-3.17899e-05
-5.24021e-07
1.94605e-08
-2.16344e-05
-9.69203e-06
-5.17316e-09
-9.68685e-06
-4.13246e-07
-2.12263e-05
-3.17285e-05
-4.74605e-07
-6.15031e-10
-3.12397e-05
-4.88243e-07
2.9679e-07
-2.15237e-05
-9.39005e-06
-6.57713e-08
-9.32427e-06
-3.42355e-08
-2.15552e-05
-3.12475e-05
-2.63473e-08
4.32719e-07
-3.16728e-05
-7.41577e-09
3.49869e-08
-2.11575e-05
-9.28928e-06
6.54654e-09
-9.29582e-06
-1.26783e-08
-2.11383e-05