/*--------------------------------*- C++ -*----------------------------------*\
| =========                 |                                                 |
| \\      /  F ield         | OpenFOAM: The Open Source CFD Toolbox           |
|  \\    /   O peration     | Version:  v2006                                 |
|   \\  /    A nd           | Website:  www.openfoam.com                      |
|    \\/     M anipulation  |                                                 |
\*---------------------------------------------------------------------------*/
FoamFile
{
    version     2.0;
    format      ascii;
    class       volScalarField;
    location    "0.132";
    object      nut;
}
// * * * * * * * * * * * * * * * * * * * * * * * * * * * * * * * * * * * * * //

dimensions      [0 2 -1 0 0 0 0];


internalField   nonuniform List<scalar> 
16277
(
19.6797
12.9531
52.9694
9.44854
14.0847
8.54759
3.63632
1.50905
0.817784
0.552668
0.434702
0.374837
0.339058
0.313096
0.291231
0.271545
0.253623
0.237501
0.223199
0.21062
0.199568
0.189814
0.181137
0.173348
0.166299
0.159875
0.153989
0.148573
0.143575
0.13895
0.134661
0.130677
0.126971
0.123521
0.120306
0.117308
0.114514
0.111909
0.109481
0.107221
0.105119
0.103166
0.101356
0.0996827
0.0981401
0.0967237
0.0954293
0.0942535
0.0931938
0.0922481
0.0914151
0.0906941
0.0900851
0.0895882
0.0892034
0.0889345
0.0887839
0.0887554
0.0888533
0.0890801
0.0894432
0.0899502
0.0906101
0.0914339
0.0924339
0.093625
0.0950248
0.0966551
0.0985431
0.100724
0.103244
0.106165
0.109565
0.113537
0.11817
0.12353
0.129617
0.136387
0.1439
0.152815
0.165441
0.188328
0.2383
0.359181
0.668985
1.40655
2.48369
2.65618
1.5739
1.03964
0.51187
0.233377
0.126889
0.059864
0.0141836
0.00255185
8.45543e-05
7.33874e-05
0.00119942
0.00552392
0.00304384
0.000777231
6.42807e-05
5.75592e-05
0.00070865
0.00255969
0.00204248
0.00060913
5.31901e-05
4.97638e-05
0.00059034
0.00193699
0.00167603
0.000531763
4.68454e-05
4.48782e-05
0.000522629
0.00163261
0.00148599
0.000487043
4.29386e-05
4.18902e-05
0.000489987
0.00147089
0.00137593
0.000463935
4.06089e-05
3.99202e-05
0.000468106
0.00136752
0.00129544
0.000447127
3.89748e-05
3.84986e-05
0.000451264
0.00129168
0.00123209
0.000433468
3.77599e-05
3.74144e-05
0.000437485
0.00123093
0.0011793
0.000421823
3.68144e-05
3.65546e-05
0.000425825
0.00117981
0.00113386
0.000411599
3.60472e-05
3.58423e-05
0.000415616
0.00113545
0.00109377
0.000402368
3.53965e-05
3.52295e-05
0.000406337
0.00109609
0.00105777
0.000393855
3.48288e-05
3.46883e-05
0.000397774
0.00106061
0.00102507
0.000385932
3.43204e-05
3.41987e-05
0.00038981
0.0010283
0.000995104
0.000378525
3.38556e-05
3.37476e-05
0.000382367
0.000998662
0.000967438
0.000371571
3.3424e-05
3.33265e-05
0.000375375
0.000971297
0.000941811
0.00036501
3.30185e-05
3.29291e-05
0.000368776
0.000945928
0.000917994
0.000358798
3.26339e-05
3.25509e-05
0.000362527
0.000922337
0.000895816
0.000352904
3.22662e-05
3.21884e-05
0.000356602
0.000900358
0.000875124
0.000347312
3.19128e-05
3.18392e-05
0.000350982
0.000879829
0.000855755
0.000341999
3.15714e-05
3.15018e-05
0.000345639
0.000860584
0.000837548
0.000336934
3.12406e-05
3.11742e-05
0.000340542
0.000842466
0.000820361
0.00033209
3.09186e-05
3.0855e-05
0.000335663
0.000825338
0.00080407
0.000327439
3.06039e-05
3.05426e-05
0.000330974
0.000809084
0.000788571
0.000322955
3.02949e-05
3.02355e-05
0.000326448
0.000793599
0.000773765
0.000318612
2.99904e-05
2.99324e-05
0.00032206
0.000778788
0.000759571
0.000314387
2.9689e-05
2.96319e-05
0.000317787
0.000764575
0.000745919
0.000310259
2.93894e-05
2.93329e-05
0.000313609
0.00075089
0.000732745
0.000306211
2.90905e-05
2.90341e-05
0.00030951
0.000737672
0.000719994
0.000302229
2.8791e-05
2.87346e-05
0.000305475
0.000724869
0.000707621
0.0002983
2.849e-05
2.84332e-05
0.000301493
0.000712441
0.000695595
0.000294415
2.81866e-05
2.81291e-05
0.000297555
0.000700358
0.000683888
0.000290566
2.78798e-05
2.78214e-05
0.000293657
0.000688596
0.000672482
0.000286752
2.75689e-05
2.75096e-05
0.000289803
0.000677138
0.000661365
0.000282973
2.72533e-05
2.7193e-05
0.000286018
0.000665979
0.000650539
0.000279244
2.69325e-05
2.68713e-05
0.000282272
0.000655117
0.000639998
0.00027555
2.66063e-05
2.65442e-05
0.000278574
0.00064455
0.000629746
0.000271903
2.62743e-05
2.62114e-05
0.000274937
0.000634287
0.000619802
0.000268321
2.59365e-05
2.58731e-05
0.00027138
0.000624354
0.0006102
0.000264825
2.55934e-05
2.55299e-05
0.000267927
0.000614792
0.000600986
0.000261441
2.52456e-05
2.51826e-05
0.000264613
0.000605739
0.000592258
0.000258212
2.48943e-05
2.48326e-05
0.000261483
0.000597275
0.000584096
0.000255186
2.45413e-05
2.44821e-05
0.000258589
0.000589412
0.000576569
0.000252417
2.41891e-05
2.41338e-05
0.00025599
0.000582283
0.000569825
0.000249971
2.38408e-05
2.37912e-05
0.000253762
0.000576051
0.000564037
0.00024793
2.35002e-05
2.34593e-05
0.000251989
0.000570898
0.0005594
0.000246397
2.31722e-05
2.31445e-05
0.000250712
0.000567021
0.000556138
0.000245445
2.2867e-05
2.28486e-05
0.000249833
0.000564565
0.000554317
0.000244846
2.25965e-05
2.25809e-05
0.000249372
0.000563813
0.000554216
0.000244738
2.23602e-05
2.23468e-05
0.0002494
0.000564775
0.000555811
0.000245156
2.21773e-05
2.21548e-05
0.0002499
0.000567347
0.000559038
0.000246089
2.20462e-05
2.20168e-05
0.000250806
0.000571307
0.000563591
0.000247299
2.19205e-05
2.19338e-05
0.000251939
0.000576548
0.000569401
0.000248581
2.1839e-05
2.18886e-05
0.00025306
0.000582869
0.000576191
0.000249887
2.18047e-05
2.18983e-05
0.000254003
0.000589534
0.00058311
0.000251019
2.1829e-05
2.19531e-05
0.000254782
0.000595926
0.000589629
0.000251841
2.18981e-05
2.2046e-05
0.000255527
0.000601754
0.000595578
0.000252498
2.20058e-05
2.21748e-05
0.000256122
0.000606888
0.000600855
0.000253103
2.21488e-05
2.23345e-05
0.000256662
0.000611276
0.000605355
0.000253438
2.23204e-05
2.25162e-05
0.000257064
0.000614993
0.000608947
0.000253657
2.25131e-05
2.27138e-05
0.000257336
0.000617886
0.000611465
0.000253771
2.27201e-05
2.29203e-05
0.000257476
0.000620327
0.000613217
0.000253815
2.29342e-05
2.31291e-05
0.000257534
0.000621813
0.000614007
0.000253661
2.31491e-05
2.33346e-05
0.000257512
0.000622292
0.000613345
0.000253243
2.33588e-05
2.35312e-05
0.000257112
0.000621518
0.000611911
0.000252692
2.35567e-05
2.37121e-05
0.000256569
0.000619917
0.000609864
0.000252076
2.37371e-05
2.38734e-05
0.000255945
0.000617611
0.00060723
0.000251439
2.38964e-05
2.40129e-05
0.000255261
0.000614643
0.000604076
0.000250803
2.40329e-05
2.41295e-05
0.000254554
0.000611115
0.000600501
0.000250186
2.41458e-05
2.42238e-05
0.000253843
0.000607148
0.000596576
0.000249589
2.4236e-05
2.4297e-05
0.000253129
0.000602805
0.000592373
0.000249
2.43051e-05
2.4348e-05
0.000252407
0.00059821
0.000587911
0.000248405
2.43542e-05
2.43831e-05
0.000251672
0.000593492
0.00058335
0.000247792
2.43877e-05
2.44051e-05
0.000250917
0.000588706
0.000578751
0.000247158
2.44078e-05
2.44181e-05
0.000250155
0.000583967
0.000574128
0.000246464
2.44156e-05
2.4422e-05
0.000249371
0.000579247
0.000569492
0.000245693
2.44093e-05
2.44145e-05
0.000248568
0.000574524
0.000564862
0.000244912
2.43951e-05
2.4399e-05
0.000247753
0.000569808
0.000560232
0.00024411
2.43742e-05
2.4377e-05
0.000246907
0.000565092
0.000555607
0.00024327
2.43479e-05
2.43497e-05
0.000246026
0.000560387
0.000550948
0.000242394
2.4317e-05
2.43178e-05
0.000245106
0.000555675
0.000546251
0.000241473
2.42814e-05
2.42811e-05
0.000244132
0.000550935
0.000541527
0.000240496
2.42423e-05
2.42415e-05
0.000243128
0.000546175
0.00053684
0.000239495
2.42006e-05
2.41992e-05
0.000242116
0.000541474
0.000532255
0.000238494
2.4146e-05
2.41634e-05
0.000241129
0.000536915
0.000527349
0.000237462
2.40882e-05
2.41164e-05
0.000239869
0.000532587
0.000523249
0.000235764
2.39977e-05
2.4145e-05
0.000240007
0.000531177
0.000524719
0.000239692
2.40829e-05
2.44773e-05
0.000240099
0.000530517
0.000555586
0.000252471
2.46592e-05
2.627e-05
0.000236756
0.000540106
0.000824779
0.000344125
2.96272e-05
3.19766e-05
0.000178463
0.000409666
0.00101059
0.00231575
0.00432903
0.00617186
0.00743288
0.00977005
0.0112622
0.0126012
0.0133551
0.0137156
0.0136143
0.0130087
0.0121464
0.0107633
0.00940728
0.00735136
0.00642325
0.00467385
0.00349686
0.00237515
0.00135008
0.000619691
0.000225884
9.39417e-05
1.81217e-05
1.18212e-05
8.70556e-05
0.000204726
0.000193382
8.27388e-05
1.13756e-05
1.09242e-05
7.97817e-05
0.000183872
0.000183545
7.85422e-05
1.08079e-05
1.07376e-05
7.81544e-05
0.000181409
0.000181073
7.73426e-05
1.06309e-05
1.06228e-05
7.73349e-05
0.000181059
0.000181518
7.73721e-05
1.06372e-05
1.0638e-05
7.7482e-05
0.000181928
0.000182198
7.76163e-05
1.06562e-05
1.06638e-05
7.7731e-05
0.000182752
0.000183011
7.78625e-05
1.06735e-05
1.06908e-05
7.80022e-05
0.000183593
0.000183905
7.81375e-05
1.06848e-05
1.07038e-05
7.83041e-05
0.000184494
0.000184816
7.84125e-05
1.07116e-05
1.07318e-05
7.8589e-05
0.000185439
0.000185734
7.86756e-05
1.07318e-05
1.07372e-05
7.89312e-05
0.00018639
0.000186692
7.89826e-05
1.07603e-05
1.07652e-05
7.92203e-05
0.000187361
0.00018767
7.93165e-05
1.07754e-05
1.07784e-05
7.95443e-05
0.000188369
0.000188696
7.96352e-05
1.08043e-05
1.08084e-05
7.9864e-05
0.000189399
0.000189733
7.99802e-05
1.08189e-05
1.08237e-05
8.02239e-05
0.000190467
0.000190802
8.03171e-05
1.0849e-05
1.08548e-05
8.05664e-05
0.000191547
0.000191898
8.06841e-05
1.0865e-05
1.087e-05
8.09444e-05
0.000192662
0.000193009
8.1047e-05
1.08969e-05
1.09009e-05
8.12953e-05
0.00019378
0.000194147
8.14366e-05
1.09142e-05
1.09179e-05
8.16879e-05
0.000194925
0.000195309
8.18513e-05
1.09389e-05
1.09585e-05
8.20538e-05
0.000196095
0.000196488
8.22039e-05
1.0963e-05
1.09693e-05
8.25006e-05
0.000197304
0.000197686
8.2649e-05
1.09884e-05
1.10112e-05
8.28824e-05
0.000198511
0.000198896
8.30264e-05
1.10143e-05
1.1021e-05
8.33436e-05
0.000199738
0.000200126
8.34983e-05
1.10411e-05
1.10635e-05
8.37337e-05
0.000200962
0.000201355
8.38783e-05
1.10662e-05
1.1075e-05
8.42128e-05
0.000202205
0.000202594
8.43551e-05
1.10933e-05
1.11162e-05
8.461e-05
0.000203435
0.000203824
8.47492e-05
1.11196e-05
1.11266e-05
8.50817e-05
0.000204672
0.000205058
8.52304e-05
1.11468e-05
1.11681e-05
8.54706e-05
0.00020588
0.000206251
8.56076e-05
1.11721e-05
1.11779e-05
8.59295e-05
0.000207068
0.000207424
8.60615e-05
1.11973e-05
1.12184e-05
8.62847e-05
0.000208205
0.000208533
8.6388e-05
1.12195e-05
1.12255e-05
8.6687e-05
0.00020929
0.000209576
8.67682e-05
1.12419e-05
1.12609e-05
8.69495e-05
0.000210261
0.000210511
8.69979e-05
1.12598e-05
1.12618e-05
8.72221e-05
0.000211153
0.000211369
8.71962e-05
1.12832e-05
1.12832e-05
8.73506e-05
0.000211917
0.00021208
8.73113e-05
1.1286e-05
1.12835e-05
8.74006e-05
0.000212534
0.000212632
8.72776e-05
1.13001e-05
1.12943e-05
8.72727e-05
0.000212927
0.000212952
8.70982e-05
1.12924e-05
1.12829e-05
8.70053e-05
0.000213088
0.000213045
8.67464e-05
1.12863e-05
1.12891e-05
8.64729e-05
0.000213068
0.000212816
8.61116e-05
1.1272e-05
1.12548e-05
8.57876e-05
0.000212745
0.000212268
8.52952e-05
1.12523e-05
1.12484e-05
8.47722e-05
0.000212119
0.000211447
8.41299e-05
1.12251e-05
1.12063e-05
8.36018e-05
0.000211302
0.00021043
8.27867e-05
1.12075e-05
1.11921e-05
8.21538e-05
0.000210238
0.000209207
8.12745e-05
1.11805e-05
1.11685e-05
8.0561e-05
0.000209007
0.000207918
7.96289e-05
1.11747e-05
1.11896e-05
7.88147e-05
0.000207798
0.000206677
7.78762e-05
1.11917e-05
1.12148e-05
7.71369e-05
0.000206759
0.00020613
7.62915e-05
1.12525e-05
1.13068e-05
7.56815e-05
0.000206433
0.000206141
7.49659e-05
1.13684e-05
1.14687e-05
7.45805e-05
0.000207453
0.000208282
7.37062e-05
1.15714e-05
1.16775e-05
7.31889e-05
0.00021055
0.000213732
7.40999e-05
1.17977e-05
1.19163e-05
7.44437e-05
0.000216533
0.000218084
7.3991e-05
1.19453e-05
1.20303e-05
7.26186e-05
0.000221302
0.000224899
7.64958e-05
1.22003e-05
1.23176e-05
7.42311e-05
0.000227952
0.000230993
7.60736e-05
1.25196e-05
1.26676e-05
7.70997e-05
0.000236744
0.000238464
7.8843e-05
1.28817e-05
1.31821e-05
8.29109e-05
0.000245909
0.000246801
8.49797e-05
1.34729e-05
1.3719e-05
8.83408e-05
0.000252786
0.000254947
9.1496e-05
1.42192e-05
1.52825e-05
0.000106559
0.000266238
0.0002651
0.000112799
1.14874e-05
8.89551e-06
2.7813e-05
7.44444e-05
0.000207748
6.42384e-05
1.03841e-05
1.09074e-05
5.7778e-05
0.000190886
0.000201009
6.00429e-05
1.11827e-05
1.13593e-05
5.65778e-05
0.00019181
0.000206506
6.08965e-05
1.16744e-05
1.2028e-05
6.01673e-05
0.000203791
0.000223942
6.85052e-05
1.24383e-05
1.28358e-05
6.78834e-05
0.000219466
0.000240168
7.91233e-05
1.33555e-05
1.41003e-05
8.15202e-05
0.000241941
0.000271864
9.92939e-05
1.55972e-05
1.19664e-05
0.00011082
0.000278772
7.52419e-05
2.6467e-05
9.65531e-06
1.13157e-05
7.01714e-05
0.000233507
0.000228152
6.49787e-05
1.23265e-05
1.30589e-05
8.49866e-05
0.000281322
0.000286634
8.60163e-05
1.36719e-05
1.43909e-05
0.000100055
0.000318511
0.000328182
0.000107332
1.54571e-05
1.72804e-05
0.000128174
0.000359894
0.000348938
0.000137939
1.33814e-05
1.00856e-05
3.11192e-05
9.21337e-05
0.000284021
8.38947e-05
1.20723e-05
1.30547e-05
7.80159e-05
0.000278266
0.000319084
9.60983e-05
1.39372e-05
1.48832e-05
9.60943e-05
0.000314574
0.000356637
0.00012287
1.71746e-05
1.38274e-05
0.000144185
0.000359355
9.76871e-05
3.18304e-05
1.02825e-05
1.26047e-05
8.79681e-05
0.00032092
0.000330531
9.25975e-05
1.42711e-05
1.66027e-05
0.00013164
0.00042659
0.000446781
0.000154307
1.93478e-05
1.59696e-05
0.000181317
0.000452148
0.000125889
3.75693e-05
1.08598e-05
1.376e-05
0.000117706
0.000399234
0.000396579
0.000114304
1.6137e-05
2.03056e-05
0.000171595
0.000503982
0.000513586
0.000202296
1.69329e-05
1.14104e-05
4.27864e-05
0.000157343
0.000518242
0.000152406
1.60662e-05
2.03153e-05
0.000161111
0.000557293
0.000773521
0.000272117
2.77666e-05
2.31389e-05
0.000290152
0.00074334
0.000262865
6.89849e-05
1.51083e-05
2.68899e-05
0.00028091
0.000808813
0.000807849
0.000299848
2.50561e-05
1.69592e-05
7.65281e-05
0.000316079
0.0011188
0.000371517
3.73002e-05
3.68028e-05
0.000429183
0.00121603
0.000553405
0.000152859
2.33838e-05
3.72123e-05
0.00049738
0.00144975
0.000957672
0.000317516
2.47799e-05
4.59962e-05
0.000559825
0.00112927
0.000968673
0.00046834
3.78188e-05
3.83134e-05
0.000446468
0.0010625
0.00136303
0.00049283
4.39652e-05
6.07697e-05
0.000920462
0.00227236
0.000506508
0.000157503
3.45612e-05
3.53819e-05
0.000441699
0.00101214
0.000313076
0.000111894
2.46874e-05
2.68242e-05
0.000272927
0.000656146
0.000560855
0.000201607
2.67487e-05
1.49905e-05
5.2216e-05
0.000160764
0.000378813
0.000214834
1.79054e-05
1.67894e-05
6.83708e-05
0.000173473
0.00041913
0.000184034
1.91645e-05
2.04358e-05
0.000149006
0.000378734
0.000122677
4.60374e-05
1.34997e-05
1.60734e-05
0.000144924
0.000326386
0.000299575
0.00012134
1.80427e-05
1.25655e-05
3.94853e-05
0.000100116
0.000277593
0.000123615
1.45928e-05
1.68399e-05
0.000107545
0.00025549
8.88309e-05
3.70489e-05
1.22687e-05
1.37905e-05
0.000110176
0.000245815
0.000222359
9.70279e-05
1.61465e-05
1.19753e-05
3.41803e-05
7.898e-05
0.000215643
9.86483e-05
1.30114e-05
1.55923e-05
8.70506e-05
0.000196701
7.16054e-05
3.21939e-05
1.18405e-05
1.26704e-05
9.21591e-05
0.000195615
0.000176535
8.09891e-05
1.51394e-05
1.16027e-05
3.0365e-05
6.6114e-05
0.000177968
8.50659e-05
1.21249e-05
1.48198e-05
7.55151e-05
0.000162558
6.39042e-05
3.01126e-05
1.16377e-05
1.21805e-05
8.64224e-05
0.000173465
0.00014754
6.98108e-05
1.53261e-05
1.27447e-05
5.53716e-05
0.000120144
4.77261e-05
2.21479e-05
1.05911e-05
1.02932e-05
5.89012e-05
0.000118978
0.000112308
5.4561e-05
1.31082e-05
1.0444e-05
2.16832e-05
4.54338e-05
0.000108368
5.49475e-05
9.91356e-06
1.27187e-05
5.03551e-05
0.000100294
4.23817e-05
2.14249e-05
1.04075e-05
9.80547e-06
5.25189e-05
9.77785e-05
9.38501e-05
5.00016e-05
1.26588e-05
1.03366e-05
2.05038e-05
4.07246e-05
9.21162e-05
4.95951e-05
9.6438e-06
1.23605e-05
4.64282e-05
8.63301e-05
3.8383e-05
1.97807e-05
1.0029e-05
9.31413e-06
4.55788e-05
8.38257e-05
8.08889e-05
4.50206e-05
1.22013e-05
1.02424e-05
1.94707e-05
3.68163e-05
8.08146e-05
4.50372e-05
9.33897e-06
1.22274e-05
4.36099e-05
7.70582e-05
3.57571e-05
1.92085e-05
1.01184e-05
9.06035e-06
4.11394e-05
7.2589e-05
7.05905e-05
4.11144e-05
1.19448e-05
9.93802e-06
1.72124e-05
3.18448e-05
6.24028e-05
4.73356e-05
8.73324e-06
1.11712e-05
2.2089e-05
3.6074e-05
8.23671e-05
4.67552e-05
9.9311e-06
1.25001e-05
4.32018e-05
7.62322e-05
3.69735e-05
2.13072e-05
1.02559e-05
9.41301e-06
4.58275e-05
7.65878e-05
7.26634e-05
4.25755e-05
1.24104e-05
1.03217e-05
2.1317e-05
3.6104e-05
7.56542e-05
4.54849e-05
9.3985e-06
1.22884e-05
4.22954e-05
7.14662e-05
3.51664e-05
2.12749e-05
1.02399e-05
9.29258e-06
4.28046e-05
6.84006e-05
6.4793e-05
3.87379e-05
1.23489e-05
1.02741e-05
2.09065e-05
3.29911e-05
6.32884e-05
3.99506e-05
9.06639e-06
1.19213e-05
3.72447e-05
5.95817e-05
2.94941e-05
1.89536e-05
9.87817e-06
8.5029e-06
4.05265e-05
5.30012e-05
3.2171e-05
2.22311e-05
1.10348e-05
9.73372e-06
3.87915e-05
6.31165e-05
5.75434e-05
3.51019e-05
1.23611e-05
1.00944e-05
2.10884e-05
3.0688e-05
5.73767e-05
3.74653e-05
9.00768e-06
1.1949e-05
3.46806e-05
5.20597e-05
2.81836e-05
2.0119e-05
1.00474e-05
8.5126e-06
3.76203e-05
4.79069e-05
3.02937e-05
2.20584e-05
1.1182e-05
9.71084e-06
3.74629e-05
5.801e-05
5.2349e-05
3.38473e-05
1.229e-05
1.00741e-05
2.13715e-05
2.91918e-05
5.39618e-05
3.59755e-05
8.97012e-06
1.19072e-05
3.27689e-05
4.91041e-05
2.69533e-05
2.00704e-05
9.95589e-06
8.46057e-06
3.50831e-05
4.38263e-05
2.84078e-05
2.1718e-05
1.11449e-05
9.55166e-06
3.49422e-05
5.34928e-05
4.79785e-05
3.18602e-05
1.21739e-05
1.00285e-05
2.12937e-05
2.72069e-05
4.84823e-05
3.31343e-05
8.96958e-06
1.18933e-05
3.0327e-05
4.42284e-05
2.47875e-05
1.96103e-05
9.77803e-06
8.32803e-06
3.147e-05
3.90752e-05
2.5947e-05
2.07213e-05
1.10707e-05
9.36723e-06
3.19384e-05
4.76343e-05
4.26794e-05
2.93427e-05
1.20483e-05
9.86053e-06
2.02794e-05
2.46852e-05
3.84184e-05
3.21277e-05
8.23052e-06
1.09801e-05
2.15439e-05
2.59653e-05
4.70395e-05
3.11487e-05
9.27581e-06
1.21366e-05
2.86737e-05
4.21073e-05
2.44994e-05
2.06082e-05
9.89797e-06
8.34791e-06
3.08814e-05
3.77144e-05
2.58799e-05
2.17642e-05
1.10194e-05
9.19663e-06
3.1395e-05
4.63566e-05
4.15558e-05
2.88869e-05
1.20174e-05
9.79239e-06
2.07133e-05
2.43676e-05
3.74272e-05
3.14728e-05
8.17045e-06
1.10648e-05
2.18627e-05
2.56777e-05
4.55979e-05
3.06231e-05
9.33466e-06
1.21791e-05
2.85424e-05
4.0953e-05
2.44844e-05
2.13128e-05
1.00679e-05
8.39987e-06
3.15789e-05
3.68307e-05
2.56739e-05
2.25362e-05
1.11022e-05
9.31959e-06
3.03961e-05
4.48267e-05
4.00248e-05
2.79752e-05
1.20534e-05
9.8471e-06
2.10212e-05
2.37869e-05
3.55388e-05
3.08669e-05
8.20658e-06
1.0935e-05
2.27078e-05
2.54502e-05
3.87134e-05
2.94056e-05
8.77301e-06
1.13681e-05
2.29612e-05
2.68134e-05
4.56752e-05
3.04984e-05
9.53278e-06
1.21252e-05
2.83925e-05
4.07322e-05
2.46752e-05
2.18134e-05
9.89958e-06
8.24489e-06
3.13615e-05
3.65015e-05
2.57791e-05
2.33024e-05
1.11592e-05
9.36284e-06
3.01856e-05
4.4043e-05
3.95271e-05
2.81202e-05
1.21692e-05
9.89904e-06
2.16586e-05
2.39682e-05
3.50973e-05
3.05934e-05
8.34773e-06
1.11214e-05
2.31755e-05
2.55699e-05
3.80912e-05
2.92309e-05
8.98881e-06
1.13504e-05
2.35856e-05
2.67977e-05
4.48717e-05
3.02945e-05
9.39568e-06
1.21678e-05
2.83871e-05
4.01064e-05
2.47667e-05
2.25975e-05
1.0089e-05
8.32062e-06
3.15012e-05
3.57612e-05
2.65458e-05
2.45585e-05
1.11699e-05
8.95627e-06
3.06471e-05
3.91073e-05
2.77117e-05
2.51069e-05
1.14605e-05
9.56343e-06
3.06185e-05
4.58396e-05
4.08677e-05
2.88431e-05
1.23715e-05
1.0011e-05
2.31901e-05
2.53108e-05
3.63417e-05
3.23433e-05
8.31607e-06
1.11441e-05
2.47833e-05
2.6941e-05
3.92189e-05
3.08117e-05
8.97093e-06
1.149e-05
2.52306e-05
2.7976e-05
4.58955e-05
3.10415e-05
9.57378e-06
1.23303e-05
2.9319e-05
4.10446e-05
2.58576e-05
2.40173e-05
1.02054e-05
8.5042e-06
3.273e-05
3.6892e-05
2.76698e-05
2.57631e-05
1.13547e-05
9.18163e-06
3.16762e-05
3.99647e-05
2.87013e-05
2.61706e-05
1.15246e-05
9.5365e-06
3.13034e-05
4.6403e-05
4.1362e-05
2.95086e-05
1.2251e-05
1.02152e-05
2.38321e-05
2.58584e-05
3.60013e-05
3.25597e-05
8.51211e-06
1.1341e-05
2.54951e-05
2.71286e-05
3.88011e-05
3.10743e-05
9.12817e-06
1.15957e-05
2.6037e-05
2.80941e-05
4.48661e-05
3.06653e-05
9.61366e-06
1.24167e-05
2.91615e-05
4.01563e-05
2.5725e-05
2.41601e-05
1.03754e-05
8.57122e-06
3.26191e-05
3.59062e-05
2.72545e-05
2.57061e-05
1.12784e-05
8.91938e-06
3.05688e-05
3.84706e-05
2.86576e-05
2.61935e-05
1.13874e-05
9.07221e-06
3.13506e-05
4.00982e-05
2.9511e-05
2.77895e-05
1.15724e-05
9.64587e-06
3.19955e-05
4.60876e-05
4.11638e-05
3.03267e-05
1.23526e-05
1.00531e-05
2.49974e-05
2.64135e-05
3.69392e-05
3.35139e-05
8.4634e-06
1.13771e-05
2.62403e-05
2.80309e-05
3.88963e-05
3.09997e-05
9.1842e-06
1.15609e-05
2.66243e-05
2.92178e-05
4.02751e-05
3.16809e-05
9.15458e-06
1.161e-05
2.81773e-05
2.9867e-05
4.60655e-05
3.21335e-05
9.63637e-06
1.2389e-05
3.06237e-05
4.12889e-05
2.71207e-05
2.58446e-05
1.03711e-05
8.56402e-06
3.42157e-05
3.71501e-05
2.86084e-05
2.71923e-05
1.14716e-05
9.18378e-06
3.16271e-05
3.97182e-05
2.99837e-05
2.76535e-05
1.16306e-05
9.29186e-06
3.26023e-05
4.11381e-05
3.07905e-05
2.9315e-05
1.17706e-05
9.80363e-06
3.32151e-05
4.69821e-05
4.21658e-05
3.15963e-05
1.25196e-05
1.0378e-05
2.64722e-05
2.79786e-05
3.78112e-05
3.49329e-05
8.62197e-06
1.15313e-05
2.77068e-05
2.93222e-05
3.9848e-05
3.20614e-05
9.14992e-06
1.16312e-05
2.77782e-05
3.0202e-05
4.08568e-05
3.24157e-05
9.24729e-06
1.1831e-05
2.93951e-05
3.08578e-05
4.61515e-05
3.28436e-05
9.78788e-06
1.25771e-05
3.15142e-05
4.18162e-05
2.79648e-05
2.67677e-05
1.0308e-05
8.7084e-06
3.43799e-05
3.75532e-05
2.94747e-05
2.81437e-05
1.16339e-05
9.24561e-06
3.24364e-05
3.99654e-05
3.06434e-05
2.84053e-05
1.16635e-05
9.18076e-06
3.25367e-05
4.1016e-05
3.14788e-05
2.91853e-05
1.16554e-05
9.33998e-06
3.40114e-05
4.21259e-05
3.20185e-05
3.08725e-05
1.17922e-05
9.80155e-06
3.42996e-05
4.7481e-05
4.29864e-05
3.27974e-05
1.25551e-05
1.04904e-05
2.74535e-05
2.91529e-05
3.81089e-05
3.55908e-05
8.68787e-06
1.16992e-05
2.87047e-05
3.02999e-05
3.99788e-05
3.2606e-05
9.3324e-06
1.18066e-05
2.89729e-05
3.11137e-05
4.09679e-05
3.27301e-05
9.27979e-06
1.1745e-05
2.99443e-05
3.18421e-05
4.23999e-05
3.45132e-05
9.40001e-06
1.18804e-05
3.16313e-05
3.25324e-05
4.81925e-05
3.49757e-05
9.86397e-06
1.27093e-05
3.36346e-05
4.37388e-05
3.02219e-05
2.89729e-05
1.05957e-05
8.74812e-06
3.72164e-05
3.9425e-05
3.14386e-05
3.02222e-05
1.16759e-05
9.21702e-06
3.42967e-05
4.18938e-05
3.25667e-05
3.02501e-05
1.17889e-05
9.3797e-06
3.44315e-05
4.28999e-05
3.33611e-05
3.12868e-05
1.18075e-05
9.40938e-06
3.61611e-05
4.4147e-05
3.39968e-05
3.29263e-05
1.19408e-05
9.9948e-06
3.62186e-05
4.94889e-05
4.50526e-05
3.47429e-05
1.27376e-05
1.06615e-05
2.96929e-05
3.13174e-05
4.00684e-05
3.75889e-05
8.93815e-06
1.18542e-05
3.0835e-05
3.24613e-05
4.20105e-05
3.47115e-05
9.43898e-06
1.19851e-05
3.07245e-05
3.32798e-05
4.26838e-05
3.42273e-05
9.48111e-06
1.19856e-05
3.17665e-05
3.37839e-05
4.40212e-05
3.61354e-05
9.6129e-06
1.20866e-05
3.3726e-05
3.43407e-05
4.94619e-05
3.68455e-05
1.00125e-05
1.29075e-05
3.55599e-05
4.53935e-05
3.20478e-05
3.07736e-05
1.07479e-05
8.94092e-06
3.88637e-05
4.10656e-05
3.33639e-05
3.1922e-05
1.19046e-05
9.45516e-06
3.57472e-05
4.31836e-05
3.4427e-05
3.19504e-05
1.20293e-05
9.53725e-06
3.56495e-05
4.42299e-05
3.51822e-05
3.28877e-05
1.1985e-05
9.60718e-06
3.74793e-05
4.5345e-05
3.55642e-05
3.46058e-05
1.20849e-05
1.00373e-05
3.75807e-05
5.04349e-05
4.62157e-05
3.6284e-05
1.29701e-05
1.08431e-05
3.12777e-05
3.28333e-05
4.09833e-05
3.91419e-05
9.03093e-06
1.20172e-05
3.23617e-05
3.38696e-05
4.24442e-05
3.55347e-05
9.50787e-06
1.21143e-05
3.22965e-05
3.45345e-05
4.33066e-05
3.53524e-05
9.59368e-06
1.20586e-05
3.31745e-05
3.5145e-05
4.44931e-05
3.69009e-05
9.60556e-06
1.20237e-05
3.43861e-05
3.60781e-05
4.61416e-05
3.87616e-05
9.60324e-06
1.21453e-05
3.60853e-05
3.66336e-05
5.19621e-05
3.90371e-05
1.0115e-05
1.31414e-05
3.78598e-05
4.7856e-05
3.43718e-05
3.32912e-05
1.08601e-05
9.04713e-06
4.12196e-05
4.32343e-05
3.58517e-05
3.46313e-05
1.20753e-05
9.64141e-06
3.82964e-05
4.5492e-05
3.69616e-05
3.47458e-05
1.2198e-05
9.668e-06
3.86612e-05
4.68414e-05
3.79076e-05
3.57409e-05
1.21092e-05
9.68033e-06
4.04524e-05
4.85139e-05
3.87084e-05
3.75647e-05
1.22537e-05
1.02514e-05
4.06488e-05
5.37984e-05
4.93354e-05
3.93236e-05
1.32824e-05
1.10244e-05
3.44512e-05
3.57069e-05
4.43497e-05
4.25782e-05
9.16474e-06
1.22177e-05
3.56424e-05
3.72128e-05
4.58758e-05
3.92045e-05
9.75352e-06
1.22959e-05
3.53586e-05
3.78125e-05
4.6482e-05
3.86997e-05
9.81734e-06
1.22411e-05
3.6266e-05
3.83446e-05
4.76964e-05
4.02507e-05
9.78118e-06
1.24028e-05
3.81391e-05
3.87659e-05
5.3044e-05
4.06642e-05
1.03255e-05
1.3523e-05
3.96831e-05
4.90028e-05
3.62619e-05
3.54534e-05
1.11134e-05
9.19032e-06
4.30216e-05
4.45363e-05
3.78086e-05
3.68263e-05
1.23065e-05
9.84426e-06
4.02561e-05
4.66869e-05
3.8915e-05
3.69161e-05
1.24003e-05
9.81423e-06
4.03148e-05
4.78202e-05
3.96194e-05
3.78338e-05
1.23318e-05
9.90226e-06
4.16977e-05
4.94689e-05
4.0482e-05
3.9867e-05
1.25968e-05
1.04794e-05
4.237e-05
5.48718e-05
5.05385e-05
4.135e-05
1.36357e-05
1.12798e-05
3.69537e-05
3.78014e-05
4.60828e-05
4.50034e-05
9.32737e-06
1.23819e-05
3.79097e-05
3.92804e-05
4.75358e-05
4.11885e-05
9.88493e-06
1.25545e-05
3.78487e-05
3.99914e-05
4.82418e-05
4.10065e-05
9.93345e-06
1.25825e-05
3.89416e-05
4.06354e-05
4.95576e-05
4.23795e-05
1.00172e-05
1.28701e-05
4.11251e-05
4.11845e-05
5.50392e-05
4.3124e-05
1.07781e-05
1.40615e-05
4.24075e-05
5.10805e-05
3.91457e-05
3.88924e-05
1.15885e-05
9.64386e-06
4.62336e-05
4.73836e-05
4.07895e-05
4.00668e-05
1.26333e-05
1.00632e-05
4.38332e-05
4.96707e-05
4.19528e-05
4.02554e-05
1.27981e-05
1.00577e-05
4.37443e-05
5.10921e-05
4.24783e-05
4.18517e-05
1.30038e-05
1.09187e-05
4.37238e-05
5.59828e-05
5.17496e-05
4.30385e-05
1.43485e-05
1.18053e-05
3.92978e-05
3.98306e-05
4.71567e-05
4.64957e-05
9.77344e-06
1.28976e-05
4.04435e-05
4.1243e-05
4.88264e-05
4.36317e-05
1.02744e-05
1.30661e-05
4.05089e-05
4.20055e-05
4.99887e-05
4.30724e-05
1.02943e-05
1.33266e-05
4.25238e-05
4.24487e-05
5.49295e-05
4.38081e-05
1.10373e-05
1.45441e-05
4.34061e-05
5.11496e-05
4.02557e-05
4.03804e-05
1.18455e-05
9.76824e-06
4.71183e-05
4.74964e-05
4.17477e-05
4.15601e-05
1.29483e-05
1.02297e-05
4.39944e-05
4.97584e-05
4.30813e-05
4.20379e-05
1.32607e-05
1.05298e-05
4.45452e-05
5.13077e-05
4.38391e-05
4.3939e-05
1.35355e-05
1.12033e-05
4.50049e-05
5.59547e-05
5.2195e-05
4.47174e-05
1.48845e-05
1.21478e-05
4.14239e-05
4.17697e-05
4.81606e-05
4.82996e-05
9.96908e-06
1.33569e-05
4.28268e-05
4.3047e-05
4.99396e-05
4.52288e-05
1.05805e-05
1.35112e-05
4.30355e-05
4.38646e-05
5.13577e-05
4.48333e-05
1.06443e-05
1.38603e-05
4.52348e-05
4.44473e-05
5.65373e-05
4.58575e-05
1.15354e-05
1.52148e-05
4.57329e-05
5.29237e-05
4.29221e-05
4.35337e-05
1.23987e-05
1.01754e-05
4.99856e-05
4.98034e-05
4.45904e-05
4.50686e-05
1.3669e-05
1.08439e-05
4.73906e-05
5.23812e-05
4.60373e-05
4.55089e-05
1.39863e-05
1.11235e-05
4.72051e-05
5.42412e-05
4.71142e-05
4.79231e-05
1.44329e-05
1.19881e-05
4.85431e-05
5.93878e-05
5.56686e-05
4.85257e-05
1.5858e-05
1.29224e-05
4.58503e-05
4.56336e-05
5.20153e-05
5.24875e-05
1.05646e-05
1.40353e-05
4.72396e-05
4.69132e-05
5.44006e-05
4.9227e-05
1.1176e-05
1.47268e-05
4.88054e-05
4.79344e-05
5.9323e-05
4.88078e-05
1.22394e-05
1.61334e-05
4.85115e-05
5.58701e-05
4.60823e-05
4.6946e-05
1.32929e-05
1.07962e-05
5.3035e-05
5.25962e-05
4.80124e-05
4.87912e-05
1.45197e-05
1.15475e-05
5.05749e-05
5.54099e-05
4.94497e-05
4.95573e-05
1.49395e-05
1.18674e-05
5.06216e-05
5.77035e-05
5.08696e-05
5.2393e-05
1.54426e-05
1.28378e-05
5.25899e-05
6.34266e-05
5.95287e-05
5.27585e-05
1.69877e-05
1.38772e-05
5.09428e-05
4.99217e-05
5.64072e-05
5.73184e-05
1.12479e-05
1.50636e-05
5.23753e-05
5.16364e-05
5.94706e-05
5.39229e-05
1.20568e-05
1.58366e-05
5.42454e-05
5.28304e-05
6.504e-05
5.39378e-05
1.29494e-05
1.73253e-05
5.41711e-05
6.15014e-05
5.20046e-05
5.33893e-05
1.46072e-05
1.19932e-05
5.87649e-05
5.84188e-05
5.37519e-05
5.52726e-05
1.5953e-05
1.27827e-05
5.63774e-05
6.20375e-05
5.55098e-05
5.75384e-05
1.67965e-05
1.40047e-05
5.68296e-05
6.79728e-05
6.4238e-05
5.71758e-05
1.85248e-05
1.51491e-05
5.60424e-05
5.46744e-05
6.13984e-05
6.1784e-05
1.22715e-05
1.67193e-05
5.88599e-05
5.63424e-05
6.77669e-05
5.7722e-05
1.39396e-05
1.8629e-05
5.77302e-05
6.45373e-05
5.4967e-05
5.57653e-05
1.51695e-05
1.21135e-05
6.24345e-05
6.12243e-05
5.6615e-05
5.76443e-05
1.65187e-05
1.32354e-05
5.82316e-05
6.39675e-05
5.78787e-05
5.99495e-05
1.75808e-05
1.46393e-05
5.85825e-05
6.94269e-05
6.6097e-05
5.94338e-05
1.94797e-05
1.59702e-05
5.89422e-05
5.74292e-05
6.33003e-05
6.37457e-05
1.3105e-05
1.77867e-05
6.2287e-05
5.89982e-05
6.9498e-05
6.0325e-05
1.49033e-05
1.99102e-05
6.0547e-05
6.64822e-05
5.83787e-05
6.01721e-05
1.64112e-05
1.32583e-05
6.49048e-05
6.40038e-05
5.95349e-05
6.2982e-05
1.7882e-05
1.46071e-05
6.05558e-05
6.99835e-05
6.70791e-05
6.11606e-05
1.99577e-05
1.66894e-05
6.05961e-05
5.89499e-05
6.4427e-05
6.47814e-05
1.36635e-05
1.86151e-05
6.4293e-05
6.05751e-05
7.01924e-05
6.1523e-05
1.54405e-05
2.08267e-05
6.21191e-05
6.73907e-05
6.02297e-05
6.24967e-05
1.71467e-05
1.38955e-05
6.63656e-05
6.52663e-05
6.17432e-05
6.57837e-05
1.88523e-05
1.5568e-05
6.27838e-05
7.14506e-05
6.8642e-05
6.32266e-05
2.09674e-05
1.72199e-05
6.33204e-05
6.12328e-05
6.64154e-05
6.85124e-05
1.34593e-05
1.88045e-05
6.67212e-05
6.27249e-05
7.22127e-05
6.31421e-05
1.58784e-05
2.16991e-05
6.39215e-05
6.94678e-05
6.28692e-05
6.62652e-05
1.8124e-05
1.47955e-05
6.87565e-05
6.79687e-05
6.48628e-05
7.03727e-05
2.00859e-05
1.67251e-05
6.65404e-05
7.49877e-05
7.22216e-05
6.74153e-05
2.24257e-05
1.85364e-05
6.90649e-05
6.58001e-05
7.0927e-05
7.20352e-05
1.50164e-05
2.0496e-05
7.34686e-05
6.77972e-05
7.85953e-05
7.00385e-05
1.68947e-05
2.25032e-05
6.99419e-05
7.5776e-05
6.88435e-05
7.48374e-05
1.96452e-05
1.69373e-05
7.43542e-05
7.77166e-05
7.52622e-05
7.41182e-05
2.35363e-05
1.9936e-05
7.40026e-05
7.00181e-05
7.57836e-05
7.62824e-05
1.63437e-05
2.21504e-05
7.82133e-05