/*--------------------------------*- C++ -*----------------------------------*\
| =========                 |                                                 |
| \\      /  F ield         | OpenFOAM: The Open Source CFD Toolbox           |
|  \\    /   O peration     | Version:  v2006                                 |
|   \\  /    A nd           | Website:  www.openfoam.com                      |
|    \\/     M anipulation  |                                                 |
\*---------------------------------------------------------------------------*/
FoamFile
{
    version     2.0;
    format      ascii;
    class       volScalarField;
    location    "0.16";
    object      k;
}
// * * * * * * * * * * * * * * * * * * * * * * * * * * * * * * * * * * * * * //

dimensions      [0 2 -2 0 0 0 0];


internalField   nonuniform List<scalar> 
38932
(
122.349
122.347
122.66
122.655
122.638
122.611
122.567
122.514
122.445
122.365
122.272
122.167
122.051
121.923
121.783
121.632
121.468
121.293
121.107
120.909
120.699
120.479
120.247
120.004
119.751
119.487
119.212
118.927
118.631
118.326
118.011
117.685
117.351
117.007
116.653
116.291
115.92
115.54
115.152
114.756
114.352
113.94
113.521
113.095
112.661
112.221
111.775
111.322
110.863
110.399
109.929
109.454
108.975
108.49
108.002
107.509
107.013
106.513
106.01
105.504
104.996
104.486
103.974
103.46
102.945
102.428
101.912
101.395
100.877
100.36
99.8442
99.3289
98.8147
98.3022
97.7915
97.283
96.777
96.2739
95.7738
95.2773
94.7845
94.2957
93.8113
93.3316
92.8569
92.3874
91.9236
91.4656
91.0137
90.5683
90.1295
89.6978
89.2733
88.8564
88.4472
88.046
87.6531
87.2688
86.8931
86.5265
86.169
85.8209
85.4823
85.1536
84.8348
84.5261
84.2277
83.9397
83.6622
83.3954
83.1394
82.8942
82.66
82.4368
82.2247
82.0239
81.8346
81.6569
81.4916
81.3395
81.2025
81.0847
80.9944
80.951
80.9994
81.2335
82.0372
83.7292
89.8322
94.4951
112.667
56.2505
64.8648
98.3058
94.878
91.1365
86.1887
63.9523
60.8124
76.5735
84.269
78.34
68.7766
56.3985
52.2908
62.3452
73.1268
68.6867
57.3958
48.8368
45.9587
53.4003
64.962
61.8443
50.3533
43.6048
41.6876
47.9643
59.211
56.9726
46.054
40.1048
38.7843
44.5002
55.0488
53.378
43.2103
37.6685
36.7149
42.1201
51.9114
50.6093
41.1803
35.8887
35.1628
40.3553
49.4416
48.3841
39.6184
34.5157
33.931
38.9502
47.4178
46.5277
38.3365
33.3958
32.9002
37.7667
45.7019
44.9309
37.2331
32.4367
31.9993
36.7298
44.207
43.5242
36.2524
31.5833
31.1851
35.7973
42.8775
42.2629
35.3619
30.802
30.4315
34.944
41.6768
41.1165
34.5417
30.0719
29.7216
34.1537
40.5794
40.0636
33.7784
29.3792
29.0438
33.4149
39.5671
39.0884
33.062
28.7142
28.3898
32.7189
38.6259
38.1785
32.3846
28.0696
27.753
32.0585
37.745
37.3243
31.7397
27.4394
27.1282
31.4276
36.9155
36.5177
31.1217
26.8188
26.5107
30.8212
36.1302
35.752
30.5257
26.2034
25.8964
30.2346
35.3827
35.0215
29.9475
25.5894
25.282
29.6638
34.6678
34.3212
29.3833
24.9736
24.664
29.1054
33.9811
33.647
28.8298
24.3528
24.0396
28.5561
33.3185
32.9953
28.284
23.7242
23.4061
28.0132
32.6768
32.3629
27.7433
23.0851
22.7609
27.4741
32.0531
31.7472
27.2052
22.4331
22.1015
26.9365
31.4448
31.1458
26.6675
21.7657
21.4255
26.398
30.8498
30.5565
26.1278
21.0806
20.7306
25.8567
30.2659
29.9775
25.5842
20.3753
20.0145
25.3102
29.6913
29.4069
25.0344
19.6477
19.2748
24.7565
29.1243
28.8431
24.4763
18.8955
18.5096
24.1935
28.5634
28.2848
23.9079
18.1169
17.7171
23.6194
28.0074
27.7309
23.3275
17.3102
16.896
23.0323
27.4554
27.1807
22.7334
16.4744
16.0453
22.4307
26.9069
26.6338
22.124
15.6087
15.1647
21.8131
26.3616
26.09
21.4979
14.7133
14.255
21.1785
25.8195
25.5497
20.8545
13.7897
13.3185
20.5264
25.2813
25.0136
20.1936
12.8414
12.3598
19.8572
24.7477
24.4828
19.5163
11.8743
11.3867
19.1723
24.22
23.9584
18.8248
10.8983
10.4113
18.4749
23.6986
23.4401
18.1229
9.92787
9.45144
17.7705
23.1828
22.9243
17.417
8.9846
8.53125
17.0641
22.664
22.398
16.7117
8.09493
7.68019
16.3605
22.1213
21.8178
16.0007
7.28631
6.91679
15.6322
21.4816
21.0899
15.2438
6.57002
6.24219
14.822
20.6257
20.0773
14.3679
5.93347
5.61082
13.8017
19.3654
18.5983
13.2811
5.42395
5.36375
12.7178
17.7554
16.762
12.039
5.22642
4.98836
11.2091
15.5478
14.0979
10.2005
4.64144
4.21321
9.0414
12.4548
10.6956
7.78476
3.72747
3.21691
6.50857
8.93202
7.30298
5.31814
2.73379
2.3223
4.30041
5.92052
4.83099
3.48526
1.99318
1.81767
2.90841
4.05473
3.60092
2.62652
1.76737
1.76741
2.5139
3.38227
3.29615
2.483
1.80686
1.85287
2.48217
3.27331
3.2852
2.51566
1.90741
1.95875
2.56111
3.32004
3.36637
2.61114
2.0042
2.04037
2.6548
3.40854
3.44711
2.69389
2.06832
2.08213
2.72244
3.47602
3.4919
2.73809
2.08665
2.08351
2.74426
3.49823
3.49607
2.74479
2.06934
2.04307
2.7272
3.47431
3.44119
2.70171
2.00836
1.96374
2.66321
3.39293
3.33136
2.61441
1.91095
1.85022
2.55469
3.25628
3.16863
2.4849
1.78272
1.70889
2.40606
3.06932
2.95888
2.31826
1.62955
1.54555
2.22263
2.83851
2.70911
2.12013
1.45737
1.36575
2.01101
2.57136
2.42624
1.89616
1.27109
1.17366
1.77601
2.27414
2.11484
1.65011
1.07327
0.969006
1.5184
1.94784
1.77145
1.37919
0.862187
0.748494
1.22982
1.58294
1.37548
1.06563
0.628228
0.499294
0.884324
1.14525
0.881924
0.678221
0.361741
0.21856
0.449225
0.588188
0.282179
0.214007
0.118444
0.0474127
0.0663048
0.0848262
0.137223
0.244212
0.37987
0.52388
0.649538
0.769791
0.871857
0.96705
1.04829
1.12045
1.18478
1.2387
1.27449
1.30112
1.30041
1.36473
1.30506
1.24209
1.13072
0.815714
0.680736
0.774082
0.78198
0.501013
0.381994
0.410967
0.385969
0.331541
0.272603
0.206252
0.155977
0.123903
0.0910706
0.055018
0.0635428
0.0738532
0.109455
0.15779
0.2305
0.330865
0.254827
0.182216
0.115776
0.0806584
0.119116
0.190654
0.274967
0.353966
0.436155
0.520922
0.431815
0.347603
0.251276
0.1534
0.18076
0.302983
0.410502
0.502845
0.595048
0.65975
0.563989
0.463581
0.344946
0.202787
0.219229
0.378337
0.507027
0.613121
0.711974
0.756939
0.654785
0.543253
0.405319
0.231618
0.241733
0.429541
0.575551
0.69218
0.797811
0.835349
0.727696
0.606357
0.452976
0.250126
0.258629
0.477321
0.638788
0.765052
0.876356
0.924053
0.806654
0.67403
0.504068
0.266555
0.276468
0.532939
0.71166
0.851032
0.974542
1.02806
0.89715
0.750172
0.561484
0.284705
0.292924
0.589154
0.787995
0.943643
1.08292
1.1315
0.98442
0.820742
0.611588
0.298734
0.315157
0.630455
0.847343
1.01847
1.17388
1.2058
1.03984
0.859433
0.636176
0.328598
0.334099
0.616927
0.847923
1.04254
1.22504
1.22264
1.01856
0.788686
0.534257
0.318744
0.302124
0.449079
0.714611
0.951409
1.18477
1.08484
0.820695
0.629839
0.433099
0.343455
0.495804
0.419634
0.57229
0.780918
0.985272
1.02648
0.799931
0.731093
1.00679
1.63881
1.29119
0.855038
0.699779
0.816549
1.08347
1.15626
0.878843
0.752877
1.07126
1.84541
1.38077
0.998757
0.794657
0.944789
1.23611
1.30703
1.03321
0.90818
0.977743
1.51007
1.75583
1.04188
0.982233
1.11537
1.41806
1.51725
1.23432
1.22422
1.58133
2.40248
2.11097
1.50198
1.27041
1.32537
1.62195
1.68491
1.34921
1.18306
1.37229
1.8643
1.83442
1.37122
1.27105
1.42363
1.77689
1.83261
1.48125
1.22372
1.12462
1.76554
2.05341
1.30226
1.35901
1.60651
1.95947
2.00783
1.62644
1.27115
1.01532
1.45751
2.07144
1.30647
1.45587
1.75301
2.14995
2.23833
1.84542
1.50705
1.33254
1.89727
2.66775
1.59943
1.78509
2.02303
2.42161
2.53733
2.11487
2.20828
2.53493
3.44134
3.34086
2.64215
2.46557
2.31868
2.72193
2.84942
2.50514
2.49291
2.64735
4.294
3.12851
2.61545
2.63617
2.67565
3.00836
2.9936
2.56232
2.24721
1.97432
2.9491
3.91395
2.24493
2.63464
2.74875
3.17729
3.26308
2.73784
2.67986
2.62533
3.31115
3.27396
2.72282
2.91851
2.96433
3.45555
3.51602
2.97499
2.4889
2.01211
2.60089
2.59268
2.32485
2.82875
3.14682
3.71756
3.80066
3.23567
2.7289
2.08934
3.21504
3.81061
2.56736
3.18306
3.51743
4.06209
4.13184
3.5308
3.08052
2.59646
3.15513
3.65211
2.61027
3.35338
3.82448
4.40677
4.49391
3.81497
3.523
2.95662
3.45838
4.11426
3.64549
4.24526
4.14932
4.77363
4.82932
4.14983
3.50613
2.70257
3.47881
3.44556
3.25001
4.05117
4.37747
5.08264
5.16154
4.44292
3.71689
2.70023
3.82122
4.17838
3.27348
4.22245
4.76687
5.45246
5.51217
4.74412
3.94858
2.88147
3.96139
5.77164
3.82257
5.05387
5.32979
5.99063
6.08014
5.29723
5.01915
4.19519
4.79241
4.59043
4.12159
5.23083
5.76099
6.44657
6.50855
5.64096
5.01447
3.96715
4.32141
5.19797
5.06072
6.35874
6.05442
6.87173
6.91138
6.0288
5.14361
3.76685
5.15423
4.54355
4.34885
5.62858
6.31835
7.21487
7.28722
6.30662
5.22025
3.66609
4.76913
5.74343
4.46815
6.03578
6.82509
7.74174
7.8259
6.80449
5.69753
4.04509
5.3753
7.82246
5.35127
7.38179
7.685
8.47781
8.51825
7.47514
6.82258
5.32344
5.93398
6.77605
5.30841
7.24031
8.11851
9.0429
9.09683
7.93911
7.47515
5.72117
5.94764
6.87647
6.88921
8.96338
8.64197
9.6218
9.71033
8.55322
7.36141
5.41689
6.52501
6.45372
6.76902
8.96504
8.94309
10.1617
10.2781
9.0335
7.73095
5.38857
7.52161
7.26626
6.1836
8.40661
9.53549
10.7535
10.8208
9.43434
7.84564
5.45848
6.84073
8.77789
6.48239
9.15302
10.2549
11.4963
11.5578
10.1333
8.49858
5.92496
7.57955
10.0131
7.29459
10.3143
11.168
12.3438
12.3544
10.8763
9.21881
6.55802
8.28565
12.3708
8.38965
12.1423
12.3651
13.3561
13.2713
11.7536
11.0333
8.47914
8.86553
9.75273
8.11614
11.1223
12.6082
13.9783
13.8872
12.1006
10.54
8.02134
8.33763
8.37435
8.08812
11.0317
12.3249
14.2419
14.3792
12.3785
11.5908
8.57447
8.87576
10.5711
11.4682
15.3742
13.7135
15.4478
15.7757
14.2484
13.4333
10.1728
15.9267
10.7714
8.29518
10.1406
12.0927
14.3026
16.1222
13.4611
10.6309
9.01475
11.4381
11.1109
10.6133
13.6032
16.9869
20.1973
22.137
18.9716
15.574
11.9318
10.6287
10.6131
13.6243
17.7146
21.1677
24.3351
26.298
23.1179
19.5586
15.161
10.8456
11.2158
16.5952
21.2764
24.9697
28.2059
30.0497
26.7423
22.8804
17.836
11.588
12.0018
19.0627
24.4149
28.4426
31.8244
33.4522
30.0507
25.89
20.2651
12.4402
12.9033
21.5027
27.4267
31.7711
35.2993
37.1552
33.465
28.9029
22.6171
13.3411
13.8563
23.7575
30.4497
35.2429
39.1152
41.1461
37.0938
32.0689
25.0633
14.5951
15.4877
26.3668
33.7289
38.924
43.0443
44.9925
40.8674
35.5731
28.0239
16.3359
17.2001
29.7823
37.5913
43.0556
47.3139
49.7016
45.3064
39.6542
31.5163
18.0644
18.9226
33.3629
41.7298
47.58
52.1197
54.6607
49.876
43.7771
35.1733
19.6769
20.2202
36.6277
45.5539
51.984
57.4043
58.3338
53.1371
46.6116
37.4276
20.6328
20.9314
38.0827
47.3716
53.7365
58.4303
60.6041
55.5154
48.9411
39.379
21.7054
22.4342
41.1018
50.9337
57.7251
62.9711
65.4417
60.0132
53.0132
42.9491
23.2075
23.9727
44.5252
55.0291
62.2879
67.9417
70.4566
64.5229
56.9556
46.1131
24.954
25.4752
47.3008
58.552
66.5229
72.9517
74.9884
67.8763
59.623
48.2074
26.0891
26.0581
48.3435
59.8343
67.9687
74.5197
73.1405
67.3037
59.4785
48.0916
26.0112
25.9448
47.8636
59.28
67.3434
74.0614
74.0175
67.4948
59.3306
47.705
25.8877
25.8301
47.7251
59.3853
67.3822
73.3541
74.9366
68.3946
60.1643
48.334
26.2916
26.7294
49.306
61.4838
69.9741
76.7031
78.2654
71.4687
62.837
50.4431
27.4296
27.9785
51.5926
64.1939
72.9937
79.9425
81.7222
74.6119
65.5985
52.7563
28.6758
29.0716
53.9367
67.1339
76.3901
83.7407
85.9463
78.0042
68.5395
55.165
29.8613
30.0667
55.7534
69.2573
78.7086
86.2282
85.9465
79.0392
69.6628
55.9423
30.1184
30.864
57.2995
71.3762
80.9996
88.4934
91.3083
83.6387
73.7541
59.3525
31.9449
32.9021
61.6177
76.3182
86.4357
94.2794
97.3759
89.2394
78.8346
63.7124
33.725
34.353
65.1564
80.7129
91.5742
100.526
101.061
92.5912
81.7226
65.8883
34.7963
34.8368
66.2603
82.4021
93.1252
100.938
103.976
95.4591
84.3111
67.6697
35.6901
37.0401
69.6401
86.8917
98.4637
107.359
110.825
101.65
89.6918
71.8264
37.893
38.904
74.057
92.4006
104.838
114.428
118.223
107.619
94.695
75.9505
39.8439
40.1547
77.0631
96.0203
108.961
119.013
119.158
109.908
97.212
78.0356
40.5424
41.4927
79.9875
99.7931
112.95
122.949
127.271
116.904
103.255
82.751
42.8284
44.5037
85.7838
106.983
121.076
131.818
136.552
125.329
110.659
88.9836
46.0825
46.9824
91.3244
113.841
129.135
141.638
143.094
131.214
115.904
93.2375
47.8584
48.3127
94.9276
117.897
132.913
143.755
148.673
136.939
121.331
97.5385
49.5435
51.3338
101.16
125.896
142.126
154.313
160.414
147.568
130.567
104.941
53.2409
55.0268
108.417
134.702
152.478
166.916
169.18
155.471
137.719
110.93
56.164
56.8764
113.279
140.399
158.01
170.536
176.779
163.146
144.752
116.613
58.462
60.6819
121.098
150.31
169.559
184.069
192.036
175.614
155.437
125.493
63.2082
64.2361
128.707
159.289
179.595
195.228
197.43
183.176
163.114
131.881
65.6595
68.0568
136.611
168.969
189.844
205.167
214.244
197.937
175.942
142.351
71.0715
73.4747
147.616
182.456
205.72
224.442
229.104
211.262
187.978
152.28
75.4606
77.7242
157.332
193.536
216.491
232.61
242.493
225.163
201.283
163.602
80.6998
84.0072
170.931
210.541
235.86
254.263
267.704
246.447
219.52
178.605
88.7618
91.9615
185.709
227.401
254.393
274.899
280.507
261.926
235.235
192.693
95.7161
100.113
201.187
245.025
273.186
293.363
309.353
285.708
255.832
210.283
104.753
109.197
219.218
265.796
295.979
318.738
326.456
305.848
275.899
227.943
112.488
117.339
237.242
287.97
319.947
342.317
362.457
335.581
300.964
246.478
120.705
128.03
256.486
313.378
349.136
375.435
386.718
362.309
326.213
267.856
134.531
141.973
280.259
340.729
379.142
408.457
424.537
395.724
356.285
294.073
150.175
160.07
310.01
373.523
413.253
439.511
466.849
435.341
393.331
327.438
170.408
182.384
347.083
415.089
458.058
488.973
509.748
482.419
439.489
369.103
195.286
210.95
394.796
468.064
513.208
545.096
576.932
546.15
500.653
424.523
229.06
251.365
459.55
537.723
581.822
606.183
650.821
624.67
580.234
500.385
278.217
300.507
544.253
625.369
668.166
693.568
728.838
707.329
668.444
593.289
342.931
370.164
623.396
697.868
736.594
758.055
784.394
761.82
718.177
635.358
378.757
385.765
650.426
740.525
786.324
809.485
838.164
817.285
768.745
668.356
383.744
400.576
700.682
802.774
848.323
868.168
891.847
872.393
829.869
737.538
434.918
464.041
758.2
846.376
887.667
906.685
917.307
899.113
860.467
777.217
491.422
511.478
794.793
870.226
907.335
924.668
926.222
908.569
870.477
788.672
506.137
492.285
746.737
849.692
896.605
918.539
901.383
871.537
814.179
693.714
471.111
444.844
642.362
776.614
844.543
879.62
858.122
816.027
744.518
612.715
422.077
398.257
569.179
709.225
787.993
834.275
806.994
754.402
671.447
529.378
372.741
346.851
490.909
638.01
726.763
782.554
752.106
690.387
597.714
448.436
318.659
293.089
414.364
567.87
666.158
730.931
701.296
635.109
537.745
384.416
268.496
248.75
374.851
521.277
617.787
685.505
657.526
591.465
499.378
362.604
230.88
216.111
352.575
483.987
576.456
644.471
618.619
550.708
463.125
340.325
204.05
192.539
322.966
436.902
518.051
574.798
565.921
504.12
423.453
312.704
182.475
176.088
306.643
409.695
486.229
546.596
543.255
480.649
403.647
304.285
171.763
166.911
299.421
393.11
465.515
526.759
494.759
445.03
379.917
293.877
162.787
158.027
286.623
371.812
437.701
492.085
479.122
424.41
361.564
279.706
153.59
148.644
269.46
348.163
406.833
452.019
450.375
400.545
340.125
259.984
143.336
138.558
252.997
330.734
389.069
439.914
415.971
374.051
319.41
244.378
133.527
129.544
239.109
313.817
369.317
415.058
406.568
362.467
308.966
237.373
126.685
125.739
237.773
308.255
362.837
409.322
402.575
356.355
304.154
236.651
124.638
123.133
233.249
297.652
345.683
383.768
385.088
343.672
294.634
230.875
121.417
120.586
228.579
290.391
337.751
379.737
363.18
328.308
284.073
224.278
118.469
117.303
222.274
281.686
326.728
364.771
360.366
321.24
277.189
218.716
115.746
113.918
214.855
271.377
312.799
345.625
347.231
311.315
268.679
212.074
112.362
110.795
208.593
264.735
306.676
343.629
330.055
298.862
259.216
204.686
108.737
107.009
202.199
257.011
297.688
331.8
328.791
293.483
253.463
199.726
105.896
103.641
195.606
248.419
286.576
316.318
318.251
285.831
246.985
194.882
102.677
101.798
192.617
243.875
282.073
315.883
304.311
275.773
239.439
189.621
100.506
99.5167
187.662
238.1
275.33
306.539
304.513
271.892
234.875
185.206
98.4072
96.4294
180.304
229.162
264.487
293.797
282.964
256.918
223.031
175.275
94.1647
92.4181
173.212
220.972
255.729
284.426
282.807
252.618
218.318
171.595
91.1558
89.8613
169.528
214.766
247.473
273.13
275.381
247.517
214.108
168.923
89.4915
89.015
167.393
212.018
244.985
274.163
265.011
240.309
208.871
165.454
88.1127
87.38
164.239
208.174
240.429
267.305
266.408
238.258
206.443
163.635
87.0734
86.0584
161.031
203.439
233.905
257.698
260.007
234.082
202.956
160.61
85.5552
85.006
159.295
201.147
231.918
259.15
250.804
227.76
198.338
157.341
84.0208
83.5551
156.769
197.818
227.936
253.019
252.27
225.986
196.147
155.418
83.1
82.083
153.339
193.351
221.893
244.238
246.378
222.049
192.79
152.801
81.5715
80.9551
151.466
191.15
220.207
245.756
238.006
216.258
188.342
149.151
79.999
79.3576
148.603
187.838
216.346
240.048
239.394
214.445
186.211
147.695
78.858
77.9303
145.508
183.57
210.754
231.939
233.951
210.901
183.125
144.917
77.2402
76.7609
143.992
181.596
209.197
233.37
226.23
205.683
179.294
142.131
75.9145
75.2064
141.263
178.749
205.855
228.247
227.811
204.213
177.311
140.572
74.6913
73.7431
138.586
175.165
201.058
221.115
223.343
201.492
174.974
138.346
73.3191
73.2673
137.387
173.873
200.292
223.343
217.589
197.756
172.415
136.606
73.0874
73.2018
136.929
172.842
198.974
220.564
221.286
198.603
172.645
136.831
73.616
72.6327
137.516
172.465
197.657
217.294
221.685
200.415
174.641
138.478
75.5727
72.4844
141.378
176.204
202.266
225.158
223.197
203.187
178.057
141.988
78.6393
74.9297
146.135
182.201
207.584
227.584
234.44
213.833
187.618
149.537
80.3753
81.4406
154.687
194.534
223.446
248.203
254.144
227.148
197.314
156.745
83.1917
83.5257
156.089
196.043
225.31
250.613
243.255
221.224
193.14
153.796
82.8886
82.8879
153.192
192.846
221.561
245.454
244.849
221.22
192.85
153.311
83.3147
83.9481
154.616
194.388
224.062
249.053
248.985
223.18
193.986
154.622
84.1413
84.3689
153.432
191.721
219.394
241.184
243.613
219.899
191.533
152.766
81.9873
80.5862
151.438
189.919
218.141
242.985
235.039
213.922
186.827
148.783
78.8642
78.0619
148.021
186.337
214.177
237.155
236.43
212.374
184.834
147.19
77.7318
76.8091
145.052
181.971
208.266
228.747
230.826
208.512
181.492
144.292
76.2123
75.8528
143.48
180.093
206.863
230.229
222.928
202.986
177.35
141.189
75.0239
74.7617
140.922
177.131
203.405
225.103
224.714
202.009
175.993
140.363
74.4422
73.9337
138.621
173.58
198.416
217.752
219.939
198.87
173.392
138.223
73.7311
73.4284
137.283
172.126
197.514
219.625
212.841
194.025
169.778
135.617
72.7879
72.3185
135.02
169.522
194.441
214.974
214.558
193.069
168.354
134.272
72.0735
71.6669
132.888
166.129
189.675
207.893
209.57
190.001
166.146
132.898
71.706
72.1316
133.095
166.137
189.612
208.83
212.08
191.82
167.344
133.925
72.5821
72.5036
133.674
166.972
191.047
212.005
205.689
187.887
164.893
132.445
72.0975
71.7142
132.119
164.835
188.352
207.691
207.274
187.027
163.64
131.286
71.4147
70.9945
129.561
161.444
183.822
200.985
202.502
184.015
161.285
129.367
70.885
71.0135
129.347
161.178
183.564
201.742
204.738
185.584
162.272
130.085
71.3258
71.3353
129.97
161.788
184.727
204.554
198.457
181.583
159.678
128.498
70.9259
70.6887
128.147
159.516
181.969
200.287
199.806
180.6
158.305
127.193
70.3722
69.9964
125.74
156.156
177.443
193.721
195.15
177.606
155.955
125.427
69.8183
69.9457
125.451
155.845
177.112
194.343
197.159
179.015
156.792
126.038
70.2171
70.1595
125.832
156.303
178.165
196.93
190.994
175.047
154.216
124.457
69.8725
69.6078
124.03
153.954
175.328
192.673
192.122
174
152.794
123.127
69.2901
68.8057
121.304
150.542
170.798
186.225
187.548
170.928
150.21
121.001
68.6506
68.6273
120.891
150.032
170.268
186.587
189.197
171.925
150.732
121.379
68.8427
68.7723
121.154
150.149
170.943
188.784
183.015
167.916
148.167
119.867
68.4445
68.4302
119.602
147.978
168.11
184.339
183.395
167.575
147.937
119.752
68.6703
68.8489
120.156
148.568
169.101
185.91
185.494
168.185
147.936
119.737
68.7422
68.3411
118.071
145.868
165.097
179.751
181.04
165.223
145.506
117.62
68.1345
68.0112
117.457
145.252
164.538
179.966
182.406
165.984
145.868
117.863
68.1613
68.1511
117.587
145.236
165.014
181.901
176.223
161.95
143.2
116.262
67.932
67.8114
115.823
142.867
162.056
177.474
176.382
161.385
142.685
115.771
67.8978
68.107
116.129
143.269
162.826
178.786
178.31
161.863
142.595
115.813
68.0801
67.6493
114.164
140.551
158.839
172.738
174.001
158.946
140.179
113.601
67.2896
67.3539
113.716
140.043
158.352
172.964
175.322
159.766
140.643
114.043
67.4323
67.3672
113.692
139.98
158.818
174.821
169.298
155.754
137.887
112.142
67.1056
66.9065
111.58
137.471
155.817
170.501
169.313
155.075
137.163
111.409
66.9553
67.1175
111.643
137.574
156.29
171.576
171.014
155.337
136.919
111.088
66.9058
66.4872
109.268
134.692
152.21
165.468
166.657
152.239
134.246
108.737
66.2063
66.3892
108.828
134.017
151.586
165.482
167.574
152.843
134.905
109.755
66.6904
67.0497
110.11
135.11
152.578
166.547
168.939
154.065
135.817
110.686
67.431
67.416
110.414
135.341
153.201
168.377
162.964
150.098
133.151
108.639
67.0946
66.8388
108.106
132.693
150.191
164.204
162.979
149.454
132.394
107.925
66.7552
66.7198
108.058
132.757
150.649
165.186
164.579
149.697
132.144
107.415
66.5309
66.2358
105.96
129.975
146.608
159.229
160.407
146.695
129.521
105.438
66.035
66.0882
105.275
129.251
145.965
159.163
161.204
147.11
129.971
106.058
66.4977
66.8035
106.41
130.132
146.796
160.063
162.352
148.173
130.704
106.686
66.978
66.9812
106.532
130.234
147.296
161.76
156.452
144.215
128.046
104.564
66.6619
66.4801
104.031
127.486
144.223
157.601
156.33
143.512
127.227
103.764
66.2903
66.5469
104.507
127.911
144.669
158.391
157.227
144.333
128.098
104.933
66.8596
67.0702
105.365
128.645
145.7
159.537
158.924
144.838
128.129
104.976
67.0651
66.8556
103.412
126.133
141.827
153.73
154.896
141.856
125.565
102.727
66.6626
66.6058
102.44
125.226
141.101
153.569
155.564
142.125
125.748
102.849
66.7771
67.029
103.259
125.886
141.741
154.31
156.59
143.016
126.328
103.487
67.0594
67.0537
103.143
125.863
142.217
155.995
150.849
139.202
123.809
101.419
66.8125
66.6457
100.88
123.299
139.293
152.078
150.744
138.577
123.035
100.855
66.7514
66.9754
101.367
123.646
139.642
152.804
151.568
139.307
123.836
101.859
67.3187
67.4421
102.15
124.298
140.566
153.823
153.223
139.754
123.823
101.802
67.4653
67.2856
100.289
121.781
136.74
148.09
149.276
136.782
121.177
99.5013
67.0991
67.0182
99.2197
120.813
136.002
147.839
149.811
136.967
121.381
99.7184
67.1409
67.2891
99.811
121.389
136.56
148.521
150.674
137.779
122.103
100.538
67.6714
67.9425
100.933
122.339
137.415
149.319
151.557
138.642
122.805
101.329
68.1761
68.2901
100.979
122.289
137.8
150.866
145.755
134.748
120.248
99.2536
68.1296
67.9478
98.3724
119.601
134.754
146.936
145.46
134.004
119.248
98.2382
67.9398
68.0016
98.5118
119.602
134.808
147.347
145.947
134.323
119.537
98.6343
68.2338
68.5014
99.1758
120.161
135.475
148.069
146.633
135.037
120.296
99.5148
68.649
68.7461
99.7919
120.684
136.195
148.814
148.111
135.37
120.176
99.3729
68.7695
68.6557
97.9969
118.175
132.316
143.06
144.227
132.331
117.593
96.9224
68.4703
68.526
96.7747
117.202
131.57
142.73
144.67
132.361
117.433
96.8553
68.6286
68.8784
97.1653
117.505
131.934
143.202
145.349
133.011
118.115
97.758
69.155
69.3916
98.0679
118.18
132.565
143.872
146.081
133.684
118.532
98.2591
69.4736
69.5503
97.8712
118.081
132.955
145.407
140.436
129.923
116.109
96.3195
69.4351
69.2352
95.212
115.508
130.02
141.732
140.204
129.302
115.166
95.0872
69.2771
69.4411
95.5621
115.627
130.184
142.236
140.817
129.764
115.625
95.7306
69.5812
69.8867
96.4765
116.344
130.975
143.046
141.594
130.568
116.451
96.7673
70.0879
70.3438
97.2749
116.928
131.696
143.821
143.195
130.987
116.418
96.6624
70.4547
70.3876
95.3823
114.516
127.995
138.263
139.556
128.046
113.908
94.4701
70.2942
70.2899
94.2882
113.565
127.325
137.965
139.992
128.12
113.835
94.4149
70.3095
70.5319
94.5631
113.786
127.676
138.453
140.675
128.792
114.496
95.2023
70.7484
70.9513
95.6012
114.636
128.437
139.204
141.448
129.578
115.331
96.1609
71.2916
71.6139
96.5063
115.457
129.158
139.903
142.113
130.274
115.827
96.7341
71.7305
71.9305
96.3535
115.398
129.579
141.487
136.68
126.69
113.578
95.051
71.9429
71.9157
94.1853
112.982
126.759
138.019
136.367
126.053
112.665
93.9796
71.9003
72.0789
94.1974
112.99
126.879
138.456
136.904
126.45
112.991
94.3097
72.2544
72.5399
94.8864
113.59
127.541
139.149
137.592
127.144
113.722
95.2358
72.7944
72.8902
95.5748
114.091
128.222
139.822
139.195
127.525
113.69
95.1916
73.0608
73.0435
93.7405
111.806
124.666
134.428
135.813
124.79
111.305
93.0141
73.0217
73.0083
92.7766
110.972
124.052
134.135
136.241
124.846
111.221
92.9184
73.1971
73.4157
93.118
111.201
124.396
134.574
136.834
125.397
111.739
93.5633
73.6278
73.8844
93.7945
111.791
124.967
135.195
137.494
126.063
112.4
94.3241
74.1512
74.4216
94.6105
112.494
125.623
135.789
138.042
126.615
112.809
95.0095
74.5972
74.7879
94.5907
112.376
125.911
137.365
132.563
123.016
110.495
93.1054
74.8294
74.8236
92.1319
109.912
123.11
133.987
132.174
122.353
109.489
91.8522
74.8335
74.9403
91.9826
109.729
123.097
134.318
132.528
122.556
109.638
92.0311
75.0766
75.3626
92.4363
110.13
123.555
134.829
133.105
123.107
110.152
92.6326
75.5146
75.7852
93.1929
110.722
124.099
135.391
133.68
123.673
110.776
93.4265
76.0732
76.4241
93.9349
111.357
124.739
136.025
134.327
124.32
111.466
94.2219
76.7114
76.887
94.637
111.877
125.404
136.653
136.047
124.792
111.562
94.3912
77.1335
77.2177
93.3163
109.856
122.078
131.397
132.933
122.227
109.455
92.6295
77.3681
77.404
92.2516
109.1
121.61
131.185
133.453
122.45
109.432
92.3868
77.6171
77.8922
92.5616
109.419
122.016
131.746
134.164
123.127
110.078
93.0328
78.1081
78.452
93.3157
110.107
122.719
132.473
134.929
123.859
110.765
93.7948
78.654
78.9904
94.1598
110.907
123.452
133.211
135.541
124.49
111.231
94.4979
79.1944
79.4174
94.2332
110.88
123.884
134.943
130.377
121.224
109.258
93.2935
79.5707
79.71
92.5622
108.853
121.399
131.931
130.103
120.753
108.537
92.2306
79.8094
80.0341
92.2754
108.805
121.554
132.374
130.602
121.113
108.765
92.3497
80.2306
80.5548
92.7665
109.326
122.147
133.019
131.253
121.755
109.37
92.9974
80.7999
81.0757
93.5404
109.957
122.818
133.747
131.967
122.433
110.088
93.8037
81.3322
81.535
94.1038
110.349
123.395
134.29
133.687
122.812
110.016
93.8726
81.7827
81.9501
92.9974
108.433
120.132
129.069
130.726
120.297
108.001
92.3797
82.1349
82.2882
92.1256
107.722
119.656
128.807
131.193
120.5
107.994
92.1699
82.4737
82.7957
92.2825
107.978
120.079
129.375
131.921
121.126
108.527
92.6299
83.0121
83.3754
92.8794
108.588
120.731
130.058
132.673
121.849
109.231
93.3637
83.5797
83.9383
93.6533
109.292
121.429
130.81
133.215
122.438
109.653
93.9769
84.1495
84.4346
93.701
109.29
121.885
132.633
128.033
119.229
107.754
92.9522
84.6434
84.9425
92.2122
107.281
119.403
129.779
127.825
118.791
106.991
91.9128
85.0781
85.362
92.007
107.343
119.671
130.321
128.413
119.235
107.32
92.1372
85.5938
85.8954
92.5098
107.928
120.37
131.079
129.2
119.994
107.982
92.7187
86.1433
86.4885
93.2288
108.617
121.142
131.919
130.053
120.773
108.788
93.5526
86.7352
87.0446
93.9605
109.189
121.876
132.548
132.024
121.354
108.913
93.8113
87.316
87.6
93.3122
107.462
118.814
127.502
129.388
119.096
107.124
92.8298
87.867
88.1754
92.5147
106.883
118.469
127.371
130.008
119.44
107.324
92.6049
88.4896
88.8201
92.698
107.334
119.043
128.05
130.82
120.191
107.924
93.0045
89.1005
89.424
93.2841
108.042
119.822
128.879
131.691
120.964
108.634
93.7329
89.7254
90.0252
94.0526
108.785
120.595
129.751
132.257
121.645
109.2
94.5075
90.2962
90.5901
94.4131
108.862
121.153
131.73
127.13
118.539
107.279
93.9423
90.8994
91.2563
93.5178
106.886
118.766
129.06
126.96
118.194
106.694
93.0341
91.5856
91.9548
93.0535
107.094
119.078
129.598
127.571
118.684
107.1
93.0958
92.2991
92.6405
93.2841
107.648
119.795
130.407
128.361
119.4
107.734
93.5248
92.9673
93.2929
93.8793
108.327
120.548
131.237
129.236
120.169
108.465
94.1729
93.6455
93.9393
94.5408
108.911
121.245
131.78
131.274
120.746
108.567
94.6595
94.2724
94.6091
94.3428
106.856
118.16
126.701
128.704
118.416
106.597
94.0656
95.0089
95.3808
93.6855
106.487
117.873
126.591
129.352
118.827
106.922
93.6738
95.7381
96.0532
93.7462
106.971
118.437
127.275
130.236
119.656
107.672
93.9798
96.3638
96.6463
94.2144
107.747
119.283
128.202
131.227
120.563
108.45
94.6443
96.9731
97.2731
94.9458
108.684
120.235
129.222
131.96
121.39
109.141
95.3276
97.6544
98.0029
95.5393
108.837
120.959
131.511
127.087
118.571
107.394
95.4391
98.4541
98.8658
95.2484
107.257
118.924
129.247
127.12
118.415
107.194
95.0083
99.3678
99.7226
95.0798
107.754
119.581
130.055
128.047
119.229
107.909
95.2876
100.074
100.426
95.515
108.631
120.56
131.153
129.204
120.252
108.86
95.7943
100.726
101.105
96.0533
109.337
121.458
132.018
131.618
121.08
109.106
96.493
101.476
101.947
96.2672
107.724
118.767
127.202
129.451
119.153
107.641
96.0725
102.427
102.971
95.8778
107.575
118.69
127.343
130.305
119.856
108.154
95.9825
103.272
103.777
96.1411
108.296
119.543
128.324
131.456
120.86
109.001
96.3769
104.01
104.455
96.682
109.273
120.585
129.539
132.368
121.781
109.727
96.8677
104.841
105.46
97.1244
109.415
121.363
131.957
127.456
118.961
107.915
96.8758
105.949
106.667
96.6975
107.8
119.338
129.711
127.529
118.84
107.703
96.4565
107.077
107.585
96.5838
108.34
120.035
130.5
128.5
119.703
108.458
96.7275
107.818
108.159
97.0182
109.223
121.091
131.685
129.751
120.815
109.463
97.3026
108.432
108.809
97.6217
110.069
122.075
132.705
132.319
121.729
109.823
98.1563
109.33
109.827
98.1264
108.529
119.493
127.923
130.277
119.919
108.502
98.0199
110.549
111.066
97.7685
108.431
119.474
128.145
131.156
120.638
109.033
97.8348
111.6
111.965
97.8832
109.154
120.333
129.126
132.36
121.644
109.796
98.1245
112.448
112.828
98.3437
110.035
121.349
130.376
133.383
122.643
110.576
98.5762
113.252
113.839
99.1851
110.423
122.341
133.038
128.634
120.163
109.242
99.2384
114.371
115.085
99.1589
109.256
120.599
131.011
128.911
120.172
109.195
99.0637
115.595
116.204
99.2378
109.888
121.472
132.006
130.076
121.203
110.086
99.4497
116.297
116.717
99.7747
110.943
122.75
133.438
131.599
122.535
111.289
100.141
116.904
117.398
100.402
111.913
123.96
134.766
134.509
123.702