/*--------------------------------*- C++ -*----------------------------------*\
| =========                 |                                                 |
| \\      /  F ield         | OpenFOAM: The Open Source CFD Toolbox           |
|  \\    /   O peration     | Version:  v2006                                 |
|   \\  /    A nd           | Website:  www.openfoam.com                      |
|    \\/     M anipulation  |                                                 |
\*---------------------------------------------------------------------------*/
FoamFile
{
    version     2.0;
    format      ascii;
    class       volScalarField;
    location    "0.16";
    object      T;
}
// * * * * * * * * * * * * * * * * * * * * * * * * * * * * * * * * * * * * * //

dimensions      [0 0 0 1 0 0 0];


internalField   nonuniform List<scalar> 
38932
(
298.189
298.189
298.189
298.189
298.19
298.19
298.191
298.192
298.193
298.194
298.195
298.197
298.198
298.2
298.202
298.205
298.207
298.21
298.212
298.215
298.218
298.222
298.225
298.229
298.232
298.236
298.24
298.245
298.249
298.254
298.258
298.263
298.268
298.273
298.278
298.284
298.289
298.295
298.3
298.306
298.312
298.318
298.325
298.331
298.337
298.344
298.35
298.357
298.364
298.371
298.378
298.385
298.392
298.399
298.406
298.413
298.421
298.428
298.436
298.443
298.451
298.458
298.466
298.473
298.481
298.489
298.496
298.504
298.511
298.519
298.527
298.534
298.542
298.549
298.557
298.565
298.572
298.579
298.587
298.594
298.601
298.609
298.616
298.623
298.63
298.637
298.644
298.65
298.657
298.664
298.67
298.676
298.683
298.689
298.695
298.701
298.707
298.712
298.718
298.723
298.728
298.734
298.739
298.743
298.748
298.753
298.757
298.761
298.765
298.769
298.773
298.777
298.78
298.783
298.786
298.789
298.792
298.795
298.797
298.8
298.802
298.803
298.805
298.805
298.805
298.803
298.794
298.781
298.731
298.757
298.808
298.941
299.071
298.772
298.784
298.79
298.778
299.049
299.04
298.806
298.805
298.811
298.834
299.036
299.034
298.854
298.817
298.827
298.875
299.034
299.033
298.889
298.837
298.846
298.9
299.032
299.031
298.909
298.854
298.862
298.916
299.029
299.027
298.923
298.87
298.877
298.929
299.025
299.023
298.934
298.884
298.89
298.939
299.021
299.019
298.943
298.897
298.902
298.947
299.018
299.017
298.952
298.908
298.914
298.955
299.017
299.017
298.959
298.919
298.925
298.963
299.017
299.018
298.967
298.93
298.936
298.971
299.019
299.02
298.975
298.941
298.947
298.979
299.022
299.024
298.984
298.952
298.958
298.988
299.026
299.028
298.993
298.964
298.97
298.998
299.031
299.034
299.003
298.976
298.982
299.008
299.038
299.041
299.013
298.989
298.995
299.019
299.045
299.05
299.025
299.002
299.01
299.031
299.054
299.059
299.038
299.017
299.025
299.044
299.065
299.07
299.051
299.032
299.04
299.058
299.076
299.082
299.066
299.049
299.057
299.074
299.089
299.096
299.082
299.066
299.075
299.09
299.103
299.11
299.098
299.085
299.094
299.107
299.118
299.126
299.116
299.104
299.115
299.126
299.134
299.142
299.135
299.125
299.136
299.145
299.151
299.161
299.156
299.147
299.158
299.166
299.17
299.18
299.177
299.17
299.182
299.189
299.19
299.201
299.2
299.195
299.208
299.212
299.212
299.224
299.225
299.221
299.235
299.238
299.236
299.248
299.251
299.249
299.263
299.265
299.261
299.274
299.279
299.278
299.293
299.293
299.287
299.301
299.308
299.309
299.325
299.323
299.315
299.329
299.338
299.341
299.357
299.354
299.344
299.359
299.37
299.374
299.391
299.386
299.375
299.391
299.403
299.408
299.426
299.42
299.407
299.424
299.437
299.444
299.462
299.454
299.441
299.458
299.472
299.481
299.5
299.49
299.476
299.494
299.509
299.519
299.538
299.527
299.512
299.53
299.546
299.557
299.576
299.564
299.548
299.567
299.583
299.594
299.613
299.601
299.585
299.604
299.619
299.631
299.649
299.637
299.622
299.639
299.654
299.665
299.681
299.67
299.656
299.673
299.685
299.697
299.711
299.7
299.689
299.704
299.714
299.723
299.735
299.726
299.718
299.73
299.737
299.745
299.753
299.748
299.742
299.752
299.756
299.761
299.767
299.765
299.763
299.766
299.767
299.768
299.745
299.739
299.728
299.551
299.599
299.632
299.371
299.3
299.204
298.8
298.921
299.017
298.661
298.563
298.444
298.172
298.273
298.359
298.127
298.057
297.977
297.839
297.902
297.957
297.835
297.789
297.738
297.659
297.705
297.746
297.678
297.638
297.592
297.533
297.58
297.623
297.576
297.531
297.484
297.438
297.486
297.534
297.495
297.444
297.394
297.35
297.404
297.458
297.421
297.365
297.308
297.265
297.325
297.384
297.346
297.285
297.222
297.177
297.243
297.307
297.266
297.2
297.132
297.086
297.156
297.223
297.178
297.111
297.039
296.991
297.063
297.131
297.083
297.014
296.942
296.892
296.964
297.032
296.979
296.912
296.842
296.79
296.859
296.924
296.867
296.804
296.739
296.687
296.749
296.808
296.749
296.693
296.635
296.584
296.636
296.688
296.626
296.58
296.533
296.484
296.523
296.565
296.504
296.468
296.436
296.39
296.415
296.444
296.385
296.364
296.348
296.309
296.316
296.33
296.277
296.272
296.274
296.245
296.233
296.23
296.187
296.201
296.227
296.22
296.182
296.155
296.139
296.177
296.225
296.255
296.194
296.141
296.181
296.251
296.323
296.469
296.392
296.302
296.613
296.728
296.797
297.746
297.664
297.469
296.681
295.804
295.545
295.437
295.34
295.252
295.163
295.072
294.975
294.872
294.763
294.645
294.519
294.389
294.253
294.151
294.056
293.967
293.881
293.816
293.785
293.742
293.71
293.736
293.739
293.73
293.743
293.777
293.822
293.892
293.964
294.031
294.118
294.223
294.255
294.202
294.132
294.057
293.973
293.943
294.012
294.09
294.172
294.238
294.18
294.103
294.021
293.95
293.883
293.818
293.883
293.949
294.027
294.103
294.021
293.943
293.867
293.802
293.741
293.651
293.71
293.775
293.85
293.928
293.821
293.743
293.669
293.606
293.55
293.432
293.485
293.546
293.617
293.694
293.543
293.469
293.402
293.345
293.296
293.143
293.185
293.235
293.297
293.366
293.163
293.101
293.046
293.003
292.968
292.772
292.799
292.835
292.881
292.935
292.687
292.64
292.603
292.576
292.558
292.328
292.337
292.355
292.383
292.422
292.143
292.111
292.091
292.083
292.084
291.826
291.813
291.813
291.825
291.852
291.545
291.521
291.515
291.527
291.552
291.253
291.213
291.191
291.19
291.213
290.842
290.813
290.825
290.859
290.917
290.521
290.439
290.391
290.416
290.406
289.86
289.896
289.917
289.945
289.995
289.336
289.038
288.923
288.855
289.004
285.913
285.758
286.525
287.154
287.802
285.834
284.876
283.77
281.901
279.173
277.292
279.726
282.227
283.648
285.771
285.882
283.848
280.647
279.37
280.315
279.177
278.772
280.348
283.671
285.954
286.066
284.71
282.932
280.021
278.851
277.832
278.351
281.712
284.11
286.217
286.245
284.544
282.584
280.751
277.901
276.526
279.468
282.036
284.037
286.108
286.46
284.61
282.091
280.502
280.632
278.25
279.618
281.216
283.92
286.128
286.359
284.779
282.912
280.274
279.813
278.759
278.804
281.707
284.425
286.223
286.541
285.042
283.222
281.087
280.838
278.362
278.559
281.806
284.362
286.408
286.532
284.943
282.901
280.847
280.031
278.024
278.355
281.932
284.655
286.54
286.527
284.681
283.041
281.814
277.997
274.669
278.941
281.885
283.932
286.574
286.951
285.574
282.374
279.064
279.858
278.197
278.087
281.507
284.945
286.795
287.079
285.622
283.654
281.399
280.55
277.801
277.828
281.731
285.084
286.82
286.75
284.618
282.929
281.277
277.68
274.84
278.978
281.703
283.983
286.539
286.964
285.298
282.907
279.885
279.549
276.073
278.586
282.063
284.486
286.744
287.238
285.614
283.018
280.282
280.322
277.138
277.235
281.648
285.042
287.086
287.047
284.931
282.877
280.973
278.521
276.471
277.764
281.37
284.576
286.915
286.989
284.813
282.952
280.655
277.668
274.175
278.901
282.008
284.218
286.843
287.598
285.869
283.295
279.985
279.892
276.047
278.689
282.508
285.06
287.407
287.913
286.297
283.792
280.842
280.708
277.258
277.612
282.162
285.598
287.763
287.869
285.965
283.326
280.862
280.762
276.417
276.353
281.213
285.38
287.688
287.54
285.147
283.172
280.959
276.893
274.353
277.979
281.713
284.789
287.584
288.121
285.904
283.434
280.195
278.477
273.65
278.83
282.82
285.197
287.877
288.68
286.895
283.965
280.409
280.46
276.843
278.359
282.852
286.064
288.435
288.768
286.905
284.327
281.352
280.92
277.014
277.365
282.301
286.156
288.632
288.675
286.522
283.601
280.882
280.644
276.488
276.484
281.612
286.21
288.658
288.594
286.141
284.039
281.422
277.297
275.126
277.855
282.179
285.868
288.676
289.153
286.753
284.621
281.298
277.59
272.82
279.162
283.638
286.097
288.956
289.952
287.884
284.693
280.579
280.203
274.868
279.206
284.205
287.017
289.703
290.462
288.445
285.284
281.7
281.475
277.762
278.411
283.69
287.675
290.36
290.722
288.625
285.813
282.547
281.673
277.956
278.447
283.806
288.16
290.799
290.988
288.798
285.652
282.417
282.064
277.508
277.911
283.543
288.361
291.101
291.189
288.736
285.6
282.56
281.163
276.61
277.157
282.892
288.436
291.293
291.504
288.669
286.211
282.66
277.397
274.4
278.378
283.964
288.364
291.775
292.721
289.606
286.062
281.485
279.029
275.205
280.711
286.122
289.565
293.191
295.517
292.587
289.831
283.302
276.673
273.585
282.14
290.563
293.385
296.88
298.919
296.38
291.872
286.145
285.39
298.778
300.111
300.611
299.308
298.988
298.833
298.782
298.593
299.512
299.662
299.078
298.865
298.975
298.96
298.966
298.962
298.966
298.968
298.978
298.964
298.974
298.968
298.965
298.962
298.96
298.958
298.961
298.963
298.967
298.971
298.97
298.965
298.962
298.959
298.957
298.955
298.958
298.96
298.963
298.967
298.966
298.962
298.959
298.956
298.954
298.952
298.955
298.958
298.961
298.965
298.965
298.96
298.957
298.954
298.952
298.951
298.953
298.956
298.959
298.963
298.963
298.958
298.955
298.952
298.95
298.949
298.952
298.954
298.957
298.962
298.962
298.957
298.954
298.951
298.948
298.948
298.951
298.954
298.957
298.963
298.963
298.957
298.953
298.95
298.948
298.947
298.95
298.953
298.957
298.963
298.963
298.957
298.953
298.95
298.947
298.947
298.95
298.953
298.957
298.962
298.962
298.957
298.953
298.95
298.948
298.949
298.951
298.954
298.957
298.961
298.962
298.957
298.954
298.952
298.95
298.95
298.952
298.955
298.958
298.962
298.962
298.958
298.955
298.953
298.95
298.951
298.953
298.955
298.958
298.962
298.961
298.958
298.956
298.954
298.952
298.953
298.955
298.957
298.959
298.962
298.962
298.959
298.957
298.956
298.954
298.955
298.957
298.958
298.96
298.962
298.963
298.961
298.96
298.958
298.957
298.959
298.959
298.961
298.962
298.963
298.963
298.963
298.961
298.96
298.959
298.96
298.961
298.962
298.963
298.964
298.965
298.964
298.963
298.962
298.961
298.962
298.963
298.964
298.965
298.966
298.967
298.965
298.964
298.963
298.963
298.964
298.964
298.965
298.966
298.967
298.968
298.967
298.966
298.965
298.964
298.965
298.966
298.967
298.967
298.969
298.969
298.968
298.967
298.967
298.966
298.967
298.968
298.968
298.969
298.97
298.97
298.969
298.969
298.968
298.968
298.969
298.969
298.97
298.97
298.971
298.971
298.97
298.97
298.97
298.97
298.97
298.97
298.971
298.971
298.972
298.972
298.972
298.971
298.971
298.971
298.972
298.972
298.972
298.972
298.972
298.972
298.973
298.973
298.973
298.973
298.974
298.974
298.973
298.973
298.972
298.972
298.973
298.974
298.974
298.974
298.975
298.975
298.974
298.974
298.972
298.973
298.974
298.975
298.975
298.976
298.977
298.976
298.976
298.975
298.975
298.975
298.976
298.976
298.977
298.978
298.979
298.978
298.977
298.977
298.976
298.977
298.978
298.978
298.979
298.98
298.98
298.98
298.979
298.978
298.977
298.978
298.979
298.98
298.98
298.981
298.982
298.981
298.98
298.979
298.978
298.978
298.98
298.981
298.982
298.983
298.984
298.983
298.982
298.981
298.98
298.98
298.981
298.983
298.984
298.985
298.986
298.984
298.983
298.982
298.98
298.98
298.982
298.984
298.985
298.986
298.986
298.985
298.984
298.982
298.98
298.98
298.983
298.984
298.986
298.987
298.988
298.986
298.985
298.983
298.981
298.981
298.983
298.985
298.987
298.988
298.988
298.987
298.985
298.983
298.981
298.981
298.983
298.985
298.987
298.988
298.988
298.987
298.985
298.983
298.98
298.98
298.983
298.985
298.987
298.988
298.988
298.986
298.984
298.982
298.98
298.979
298.982
298.984
298.985
298.987
298.986
298.985
298.983
298.981
298.978
298.977
298.98
298.982
298.984
298.985
298.984
298.983
298.981
298.978
298.975
298.974
298.977
298.979
298.981
298.982
298.98
298.978
298.977
298.975
298.972
298.97
298.972
298.974
298.976
298.977
298.975
298.973
298.972
298.97
298.967
298.963
298.966
298.968
298.97
298.972
298.966
298.965
298.964
298.962
298.96
298.955
298.957
298.959
298.96
298.961
298.955
298.954
298.953
298.952
298.951
298.945
298.946
298.947
298.948
298.949
298.94
298.94
298.939
298.939
298.939
298.931
298.93
298.93
298.93
298.93
298.921
298.92
298.92
298.921
298.922
298.912
298.91
298.909
298.909
298.911
298.894
298.895
298.895
298.897
298.9
298.886
298.882
298.879
298.878
298.877
298.86
298.86
298.862
298.865
298.87
298.853
298.846
298.842
298.84
298.839
298.815
298.816
298.819
298.824
298.834
298.811
298.799
298.794
298.791
298.791
298.76
298.761
298.764
298.771
298.786
298.753
298.736
298.729
298.724
298.722
298.685
298.683
298.687
298.696
298.72
298.667
298.645
298.637
298.633
298.636
298.572
298.571
298.574
298.583
298.612
298.533
298.503
298.497
298.5
298.512
298.427
298.408
298.398
298.395
298.408
298.247
298.252
298.272
298.294
298.311
298.214
298.177
298.136
298.073
297.92
297.702
297.909
297.998
298.055
298.094
298.001
297.944
297.881
297.805
297.708
297.666
297.686
297.752
297.817
297.869
297.774
297.687
297.602
297.519
297.507
296.897
297.243
297.403
297.518
297.615
297.437
297.343
297.214
297.009
296.627
296.662
296.906
297.076
297.2
297.296
297.176
297.075
296.952
296.788
296.409
296.314
296.662
296.833
296.963
297.072
296.985
296.867
296.723
296.508
295.977
296.067
296.413
296.638
296.79
296.908
296.828
296.719
296.575
296.375
296.232
296.055
296.319
296.54
296.688
296.802
296.785
296.691
296.553
296.353
296.296
296.476
296.475
296.615
296.735
296.849
296.889
296.82
296.74
296.675
296.894
297.126
296.854
296.883
296.931
296.998
297.037
297.011
296.991
297.029
297.322
297.156
297.07
297.072
297.104
297.145
297.206
297.202
297.205
297.213
297.323
297.732
297.415
297.378
297.354
297.344
297.411
297.451
297.502
297.601
297.933
298.063
297.765
297.638
297.567
297.522
297.619
297.67
297.748
297.884
298.145
298.194
297.971
297.838
297.758
297.71
297.774
297.831
297.91
298.029
298.199
298.219
298.078
297.974
297.896
297.832
297.898
297.965
298.044
298.146
298.297
298.363
298.22
298.119
298.038
297.971
298.047
298.108
298.187
298.289
298.434
298.476
298.342
298.243
298.163
298.093
298.141
298.21
298.288
298.381
298.504
298.521
298.411
298.324
298.253
298.195
298.225
298.286
298.353
298.432
298.527
298.538
298.449
298.376
298.314
298.255
298.293
298.34
298.396
298.46
298.538
298.531
298.467
298.412
298.362
298.315
298.331
298.379
298.427
298.477
298.535
298.554
298.494
298.445
298.399
298.351
298.374
298.42
298.465
298.512
298.574
298.585
298.528
298.482
298.441
298.403
298.42
298.459
298.498
298.539
298.591
298.595
298.548
298.51
298.474
298.435
298.456
298.487
298.52
298.556
298.598
298.602
298.563
298.531
298.501
298.469
298.479
298.51
298.539
298.569
298.604
298.605
298.573
298.546
298.52
298.494
298.504
298.53
298.553
298.578
298.606
298.607
298.582
298.559
298.537
298.51
298.522
298.543
298.564
298.585
298.609
298.61
298.589
298.57
298.551
298.53
298.535
298.556
298.574
298.592
298.611
298.612
298.594
298.578
298.561
298.544
298.55
298.567
298.582
298.597
298.614
298.614
298.599
298.586
298.571
298.554
298.561
298.575
298.588
298.601
298.615
298.615
298.603
298.592
298.58
298.566
298.569
298.584
298.595
298.605
298.616
298.617
298.607
298.598
298.588
298.576
298.582
298.591
298.6
298.609
298.617
298.619
298.611
298.604
298.596
298.586
298.588
298.598
298.606
298.613
298.62
298.622
298.614
298.607
298.6
298.591
298.594
298.603
298.61
298.616
298.622
298.622
298.617
298.611
298.605
298.597
298.599
298.606
298.612
298.618
298.622
298.624
298.619
298.614
298.609
298.602
298.604
298.611
298.616
298.621
298.624
298.625
298.621
298.617
298.611
298.605
298.608
298.614
298.618
298.622
298.625
298.626
298.623
298.62
298.615
298.609
298.61
298.616
298.62
298.624
298.627
298.627
298.625
298.622
298.618
298.613
298.614
298.619
298.623
298.625
298.627
298.627
298.626
298.623
298.619
298.615
298.616
298.621
298.624
298.627
298.629
298.629
298.627
298.625
298.622
298.618
298.618
298.622
298.625
298.627
298.629
298.628
298.627
298.625
298.623
298.619
298.62
298.623
298.626
298.627
298.628
298.628
298.627
298.626
298.623
298.62
298.621
298.624
298.627
298.628
298.628
298.629
298.628
298.627
298.625
298.622
298.622
298.624
298.627
298.628
298.628
298.627
298.628
298.627
298.625
298.623
298.623
298.625
298.627
298.628
298.625
298.625
298.627
298.626
298.625
298.622
298.623
298.625
298.626
298.627
298.626
298.625
298.626
298.625
298.624
298.622
298.622
298.624
298.625
298.626
298.626
298.607
298.623
298.626
298.625
298.623
298.622
298.625
298.623
298.643
298.677
298.386
298.695
298.639
298.627
298.625
298.629
298.638
298.653
298.845
298.673
298.058
298.874
298.701
298.651
298.633
298.644
298.667
298.713
298.949
298.527
297.707
298.795
298.714
298.668
298.646
298.645
298.663
298.69
298.715
298.057
298.03
298.628
298.662
298.651
298.636
298.627
298.638
298.635
298.582
298.183
298.274
298.551
298.614
298.626
298.622
298.615
298.614
298.597
298.538
298.326
298.377
298.536
298.589
298.607
298.611
298.606
298.6
298.583
298.539
298.419
298.453
298.544
298.581
298.597
298.601
298.595
298.591
298.579
298.55
298.479
298.504
298.555
298.577
298.587
298.59
298.59
298.586
298.577
298.559
298.52
298.525
298.56
298.575
298.583
298.586
298.583
298.58
298.574
298.561
298.532
298.539
298.563
298.574
298.58
298.583
298.58
298.578
298.573
298.564
298.544
298.548
298.564
298.572
298.576
298.577
298.577
298.575
298.572
298.565
298.551
298.554
298.565
298.57
298.572
298.573
298.57
298.57
298.568
298.564
298.555
298.558
298.564
298.568
298.569
298.57
298.565
298.565
298.565
298.563
298.558
298.555
298.56
298.562
298.563
298.562
298.561
298.561
298.56
298.558
298.552
298.552
298.556
298.557
298.556
298.555
298.554
298.554
298.554
298.553
298.552
298.551
298.551
298.552
298.552
298.552
298.546
298.547
298.548
298.547
298.544
298.543
298.544
298.544
298.545
298.544
298.542
298.542
298.541
298.541
298.539
298.535
298.537
298.538
298.539
298.539
298.536
298.536
298.535
298.534
298.532
298.531
298.532
298.532
298.531
298.529
298.527
298.527
298.528
298.529
298.53
298.529
298.526
298.525
298.524
298.523
298.516
298.518
298.519
298.52
298.521
298.514
298.514
298.514
298.514
298.514
298.51
298.509
298.509
298.509
298.51
298.506
298.505
298.505
298.506
298.505
298.502
298.501
298.501
298.501
298.5
298.498
298.497
298.496
298.496
298.494
298.491
298.491
298.491
298.491
298.492
298.49
298.487
298.487
298.486
298.487
298.48
298.481
298.481
298.482
298.484
298.477
298.477
298.477
298.477
298.477
298.473
298.472
298.472
298.473
298.474
298.468
298.468
298.468
298.468
298.468
298.465
298.463
298.463
298.463
298.465
298.458
298.458
298.458
298.458
298.456
298.453
298.453
298.453
298.453
298.455
298.447
298.447
298.447
298.447
298.449
298.44
298.442
298.442
298.442
298.445
298.438
298.437
298.437
298.437
298.437
298.433
298.431
298.431
298.432
298.433
298.427
298.426
298.426
298.427
298.427
298.423
298.421
298.421
298.421
298.423
298.419
298.415
298.415
298.415
298.414
298.41
298.41
298.41
298.411
298.413
298.405
298.405
298.404
298.404
298.405
298.399
298.399
298.399
298.4
298.402
298.392
298.392
298.392
298.392
298.395
298.385
298.386
298.386
298.386
298.388
298.381
298.381
298.38
298.38
298.38
298.375
298.374
298.374
298.374
298.377
298.373
298.369
298.368
298.369
298.369
298.364
298.362
298.361
298.361
298.364
298.355
298.354
298.355
298.355
298.355
298.348
298.348
298.348
298.348
298.351
298.344
298.342
298.342
298.342
298.344
298.336
298.336
298.336
298.336
298.339
298.329
298.329
298.329
298.33
298.332
298.323
298.324
298.323
298.323
298.323
298.323
298.32
298.319
298.318
298.317
298.312
298.311
298.312
298.314
298.319
298.314
298.308
298.306
298.305
298.304
298.299
298.297
298.296
298.298
298.301
298.296
298.291
298.29
298.29
298.288
298.279
298.28
298.28
298.281
298.285
298.276
298.274
298.273
298.273
298.274
298.266
298.266
298.266
298.266
298.27
298.262
298.26
298.259
298.259
298.261
298.251
298.252
298.252
298.253
298.259
298.254
298.247
298.245
298.244
298.244
298.239
298.237
298.238
298.239
298.241
298.24
298.235
298.232
298.231
298.23
298.225
298.224
298.224
298.226
298.23
298.224
298.218
298.217
298.216
298.215
298.21
298.207
298.208
298.209
298.21
298.207
298.201
298.2
298.2
298.199
298.19
298.191
298.191
298.193
298.198
298.194
298.187
298.184
298.183
298.184
298.175
298.176
298.177
298.179
298.185
298.177
298.171
298.169
298.168
298.17
298.159
298.161
298.161
298.164
298.173
298.16
298.154
298.151
298.15
298.149
298.143
298.142
298.144
298.147
298.155
298.142
298.138
298.135
298.134
298.133
298.127
298.127
298.128
298.13
298.135
298.128
298.121
298.119
298.118
298.117
298.111
298.109
298.11
298.112
298.118
298.114
298.105
298.102
298.102
298.1
298.089
298.091
298.093
298.096
298.108
298.094
298.088
298.085
298.084
298.084
298.075
298.076
298.078
298.083
298.093
298.082
298.073
298.07
298.069
298.069
298.057
298.059
298.061
298.066
298.076
298.063
298.055
298.051
298.049
298.05
298.039
298.041
298.042
298.045
298.057
298.049
298.035
298.031
298.028
298.026
298.021
298.02
298.022
298.026
298.031
298.027
298.017
298.013
298.012
298.01
298.004
298.004
298.006
298.009
298.016
298.01
298
297.996
297.994
297.992
297.985
297.984
297.986
297.991
298.006
297.994
297.981
297.977
297.975
297.973
297.96
297.962
297.966
297.971
297.986
297.97
297.962
297.957
297.954
297.954
297.943
297.945
297.947
297.953
297.965
297.953
297.943
297.939
297.937
297.936
297.924
297.925
297.928
297.933
297.942
297.938
297.923
297.918
297.916
297.916
297.904
297.906
297.908
297.913
297.926
297.919
297.903
297.897
297.894
297.891
297.885
297.886
297.889
297.895
297.905
297.901
297.886
297.88
297.877
297.874
297.867
297.869
297.872
297.877
297.888
297.882
297.867
297.86
297.857
297.855
297.847
297.848
297.851
297.857
297.87
297.863
297.846
297.839
297.835
297.833
297.824
297.824
297.827
297.834
297.846
297.84
297.822
297.816
297.814
297.811
297.795
297.799
297.803
297.81
297.827
297.811
297.799
297.794
297.791
297.789
297.778
297.78
297.783
297.79
297.805
297.793
297.78
297.775
297.772
297.771
297.758
297.76
297.763
297.769
297.782
297.778
297.761
297.755
297.752
297.751
297.737
297.739
297.744
297.751
297.769
297.764
297.742
297.733
297.729
297.728
297.715
297.719
297.722
297.73
297.751
297.743
297.719
297.709
297.703
297.698
297.691
297.693
297.698
297.705
297.72
297.711
297.693
297.685
297.681
297.678
297.671
297.673
297.675
297.681
297.694
297.689
297.671
297.663
297.659
297.657
297.649
297.651
297.654
297.661
297.674
297.667
297.649
297.641
297.636
297.633
297.624
297.626
297.629
297.638
297.663
297.653
297.628
297.619
297.614
297.611
297.593
297.598
297.605
297.615
297.633
297.626
297.605
297.596
297.59
297.587
297.573
297.577
297.583
297.593
297.609
297.604
297.583
297.574
297.569
297.565
297.55
297.554
297.56
297.569
297.592
297.583
297.559
297.549
297.545
297.541
297.524
297.528
297.534
297.544
297.564
297.559
297.532
297.521
297.517
297.514
297.5
297.504
297.509
297.519
297.543
297.531
297.507
297.495
297.488
297.482
297.475
297.479
297.486
297.497
297.524
297.507
297.484
297.473
297.466
297.461
297.454
297.458
297.464
297.475
297.501
297.486
297.463
297.45
297.443
297.438
297.429
297.434
297.441
297.454
297.482
297.462
297.44
297.426
297.417
297.412
297.401
297.406
297.413
297.425
297.454
297.434
297.409
297.396
297.388
297.383
297.371
297.374
297.381
297.394
297.429
297.415
297.381
297.368
297.361
297.356
297.335
297.342
297.351
297.365
297.396
297.381
297.354
297.34
297.333
297.328
297.312
297.318
297.326
297.34
297.369
297.357
297.328
297.315
297.309
297.304
297.287
297.292
297.301
297.314
297.344
297.336
297.304
297.29
297.283
297.278
297.26
297.266
297.275
297.291
297.323
297.317
297.277
297.26
297.253
297.249
297.233
297.24
297.248
297.265
297.305
297.282
297.248
297.231
297.22
297.212
297.205
297.211
297.22
297.236
297.271
297.253
297.22
297.204
297.194
297.188
297.18
297.185
297.192
297.206
297.238
297.229
297.192
297.176
297.167
297.161
297.152
297.157
297.164
297.178
297.212
297.197
297.163
297.147
297.138
297.132
297.122
297.128
297.135
297.151
297.189
297.173
297.137
297.12
297.108
297.101
297.089
297.095
297.104
297.123
297.168
297.157
297.112
297.092
297.081
297.072
297.05
297.06
297.073
297.093
297.129
297.121
297.082
297.062
297.051
297.042
297.024
297.033
297.046
297.067
297.104
297.095
297.053
297.033
297.023
297.015
296.995
297.002
297.014
297.034
297.077
297.063
297.021
297.001
296.992
296.984
296.963
296.971
296.983
297.004
297.051
297.033
296.988
296.969
296.96
296.952
296.93
296.938
296.95
296.969
297.009
297.001
296.955
296.936
296.926
296.919
296.896
296.905
296.918
296.94
296.984
296.978
296.924
296.902
296.89
296.883
296.865
296.876
296.888
296.912
296.966
296.941
296.893
296.869
296.853
296.842
296.833
296.843
296.857
296.881
296.932
296.91
296.862
296.838
296.823
296.814
296.803
296.812
296.825
296.848
296.895
296.879
296.83
296.805
296.791
296.781
296.77
296.779
296.791
296.814
296.864
296.846
296.796
296.771
296.757
296.747
296.735
296.744
296.756
296.779
296.834
296.811
296.761
296.737
296.721
296.71
296.696
296.704
296.718
296.745
296.804
296.788
296.73
296.704
296.689
296.677
296.653
296.666
296.684
296.714
296.77
296.754
296.699
296.671
296.655
296.643
296.623
296.633
296.65
296.679
296.74
296.716
296.661
296.635
296.622
296.612
296.589
296.599
296.615
296.641
296.698
296.684
296.627
296.601
296.587
296.577
296.553
296.564
296.581
296.61
296.671
296.655
296.592
296.565
296.551
296.541
296.516
296.527
296.544
296.572
296.631
296.623
296.554
296.524
296.509
296.5
296.481
296.494
296.51
296.541
296.609
296.588
296.523
296.49
296.47
296.455
296.445
296.459
296.477
296.509
296.576
296.56
296.49
296.456
296.436
296.424
296.411
296.423
296.439
296.471
296.534
296.514
296.448
296.416
296.398
296.386
296.372
296.385
296.4
296.429
296.496
296.479
296.41
296.377
296.358
296.345
296.331
296.344
296.36
296.39
296.462
296.439
296.371
296.337
296.317
296.303
296.284
296.297
296.315
296.35
296.428
296.413
296.334
296.299
296.28
296.264
296.237
296.254
296.276
296.313
296.381
296.373
296.301
296.264
296.242
296.226
296.204
296.219
296.242
296.281
296.354
296.341
296.265
296.227
296.206
296.191
296.164
296.179
296.201
296.239
296.316
296.3
296.22
296.184
296.165
296.149
296.121
296.136
296.158
296.196
296.273
296.26
296.177
296.139
296.12
296.105
296.076
296.092
296.115
296.152
296.23
296.221
296.132
296.09
296.07
296.056
296.035
296.052
296.074
296.115
296.199
296.183
296.096
296.05
296.023
296.005
295.993
296.01
296.035
296.077
296.169
296.138
296.052
296.008
295.983
295.967
295.952
295.969
295.99
296.029
296.108
296.097
296.008
295.965
295.94
295.924
295.908
295.925
295.947
295.987
296.074
296.054
295.964
295.921
295.896
295.879
295.862
295.879
295.901
295.942
296.033
296.017
295.921
295.876
295.85
295.831
295.809
295.826
295.851
295.9
296.003
295.987
295.884
295.834
295.807
295.787
295.755
295.777
295.808
295.861
295.953
295.944
295.841
295.791
295.762
295.742
295.714
295.733
295.763
295.813
295.909
295.884
295.788
295.742
295.717
295.698
295.668
295.685
295.713
295.763
295.861
295.837
295.737
295.691
295.668
295.65
295.618
295.635
295.662
295.711
295.812
295.784
295.682
295.639
295.617
295.6
295.568
295.587
295.614
295.663
295.765
295.753
295.639
295.588
295.563
295.545
295.523
295.544
295.573
295.627
295.74
295.711
295.604
295.547
295.514
295.491
295.478
295.5
295.53
295.585
295.7
295.672
295.561
295.503
295.471
295.45
295.433
295.454
295.483
295.538
295.649
295.625
295.509
295.453
295.421
295.4
295.38
295.403
295.431
295.485
295.598
295.577
295.454
295.398
295.367
295.345
295.323
295.345
295.372
295.426
295.541
295.519
295.394
295.34
295.309
295.287
295.258
295.278
295.309
295.368
295.485
295.473
295.343
295.286
295.256
295.232
295.196
295.221
295.257
295.322
295.444
295.43
295.3
295.238
295.205
295.18
295.149
295.173
295.209
295.274
295.391
295.378
295.25
295.187
295.155
295.13
295.096
295.12
295.157
295.221
295.343
295.322
295.188
295.128
295.098
295.074
295.038
295.063
295.1
295.165
295.293
295.284
295.133
295.066
295.031
295.008
294.98
295.008
295.045
295.116
295.261
295.23
295.086
295.012
294.97
294.942
294.924
294.951
294.99
295.062
295.199
295.164
295.029
294.955
294.914
294.889
294.866
294.893
294.927
294.998
295.142
295.094
294.958
294.889
294.851
294.826
294.799
294.824
294.856
294.924
295.071
295.021
294.886
294.82
294.784
294.759
294.723
294.746
294.78
294.849
295.006
294.967
294.827
294.757
294.722
294.695
294.657
294.685
294.727
294.804
294.943
294.937
294.786
294.711
294.67
294.641
294.609
294.637
294.681
294.762
294.915
294.894
294.734
294.658
294.617
294.587
294.55
294.579
294.623
294.704
294.862
294.842
294.672
294.593
294.554
294.524
294.484
294.514
294.558
294.639
294.804
294.791
294.603
294.519
294.475
294.447
294.415
294.446
294.49
294.573
294.756
294.725
294.539
294.448
294.399
294.368
294.347
294.376
294.419
294.504
294.676
294.626
294.463
294.375
294.331
294.305
294.278
294.305
294.341
294.419
294.58
294.534
294.38
294.3
294.26
294.235
294.207
294.234
294.268
294.346
294.514
294.493
294.322
294.238
294.196
294.167
294.131
294.16
294.204
294.293
294.484
294.459
294.276
294.183
294.136
294.101
294.059
294.094
294.148
294.248
294.446
294.412
294.218
294.123
294.072
294.037
293.997
294.029
294.082
294.181
294.364
294.338
294.141
294.049
294.003
293.968
293.922
293.955
294.007
294.108
294.294
294.261
294.057
293.965
293.921
293.887
293.839
293.872
293.921
294.018
294.202
294.185
293.967
293.869
293.822
293.791
293.752
293.786
293.833
293.928
294.143
294.1
293.891
293.788
293.735
293.701
293.674
293.707
293.755
293.856
294.073
294.011
293.813
293.712
293.661
293.63
293.596
293.629
293.674
293.773
293.977
293.948