/*--------------------------------*- C++ -*----------------------------------*\
| =========                 |                                                 |
| \\      /  F ield         | OpenFOAM: The Open Source CFD Toolbox           |
|  \\    /   O peration     | Version:  v2006                                 |
|   \\  /    A nd           | Website:  www.openfoam.com                      |
|    \\/     M anipulation  |                                                 |
\*---------------------------------------------------------------------------*/
FoamFile
{
    version     2.0;
    format      ascii;
    class       volScalarField;
    location    "0.018";
    object      Co;
}
// * * * * * * * * * * * * * * * * * * * * * * * * * * * * * * * * * * * * * //

dimensions      [0 0 0 0 0 0 0];


internalField   nonuniform List<scalar> 
11076
(
0.0193908
0.0185316
0.0200622
0.0208696
0.0211913
0.0207316
0.0208586
0.0206843
0.0205213
0.0204876
0.0203636
0.0203644
0.0203439
0.0203385
0.020337
0.0203364
0.0203368
0.0203362
0.0203356
0.0203355
0.0203355
0.0203354
0.0203353
0.0203352
0.0203351
0.020335
0.020335
0.0203349
0.0203348
0.0203348
0.0203348
0.0203348
0.0203347
0.0203347
0.0203347
0.0203353
0.0203358
0.0203354
0.020335
0.0203353
0.020336
0.0203378
0.0203415
0.0203478
0.0203569
0.0203675
0.0203782
0.0203874
0.0203941
0.0203984
0.0204007
0.0204022
0.0204077
0.0204075
0.020403
0.020426
0.0204689
0.0206187
0.0208635
0.0215209
0.022648
0.0253027
0.0312505
0.0444235
0.0684625
0.0557071
0.0496484
0.0495846
0.0480808
0.0460781
0.0453262
0.0436681
0.0394575
0.0425942
0.0445566
0.0401311
0.0400539
0.0384911
0.032193
0.0339475
0.0344668
0.0330335
0.0332743
0.0318583
0.0291458
0.0311575
0.0316667
0.0314709
0.0311857
0.0291637
0.0284624
0.0307033
0.0312139
0.0312581
0.0306785
0.0283371
0.0281722
0.030619
0.031189
0.0312298
0.0306375
0.0280384
0.0279006
0.0304518
0.0311028
0.0311867
0.0305264
0.0277782
0.0276623
0.0303458
0.0310572
0.0311388
0.030423
0.0275567
0.0274574
0.0302504
0.0310125
0.0310922
0.0303291
0.0273658
0.0272785
0.0301712
0.0309757
0.0310466
0.0302424
0.0271976
0.0271193
0.0300964
0.0309379
0.0310018
0.0301613
0.0270465
0.0269754
0.0300257
0.0309003
0.0309584
0.0300853
0.0269092
0.0268441
0.029959
0.0308634
0.030917
0.0300144
0.0267836
0.0267237
0.0298966
0.0308283
0.030878
0.0299485
0.0266682
0.0266129
0.0298387
0.0307953
0.0308415
0.0298873
0.0265619
0.026511
0.0297856
0.0307649
0.0308079
0.0298309
0.0264642
0.0264174
0.0297375
0.0307378
0.0307775
0.0297795
0.0263747
0.0263319
0.0296946
0.0307142
0.0307509
0.0297333
0.0262932
0.0262543
0.0296573
0.0306946
0.0307283
0.0296926
0.0262196
0.0261847
0.029626
0.0306795
0.0307102
0.0296579
0.026154
0.0261232
0.029601
0.0306694
0.0306972
0.0296294
0.0260966
0.0260701
0.0295829
0.030665
0.0306898
0.0296077
0.0260478
0.0260257
0.0295724
0.0306668
0.0306886
0.0295935
0.026008
0.0259906
0.0295702
0.0306757
0.0306944
0.0295874
0.0259778
0.0259655
0.0295774
0.0306925
0.0307135
0.0295904
0.0259582
0.0259514
0.029595
0.0307306
0.0307497
0.0296034
0.0259498
0.0259504
0.0296252
0.0307814
0.0307974
0.029629
0.0259561
0.0259695
0.0296735
0.0308457
0.0308583
0.0296716
0.025983
0.0260048
0.0297367
0.0309251
0.0309341
0.0297289
0.0260269
0.0260579
0.0298173
0.0310218
0.031027
0.0298031
0.0260895
0.0261308
0.0299177
0.0311381
0.0311393
0.0298964
0.0261728
0.0262257
0.0300405
0.031277
0.0312737
0.0300115
0.0262796
0.0263454
0.0301889
0.0314415
0.0314334
0.0301511
0.0264128
0.0264932
0.0303665
0.0316353
0.0316352
0.0303353
0.0265759
0.026673
0.0305777
0.0318624
0.0318795
0.0305635
0.0267729
0.0268889
0.0308266
0.0321272
0.0321641
0.0308319
0.0270085
0.027146
0.0311189
0.0324357
0.0324954
0.0311464
0.0272881
0.0274503
0.0314608
0.0327944
0.0328796
0.0315133
0.0276176
0.0278072
0.0318578
0.0332086
0.0333221
0.0319381
0.0280026
0.0282226
0.0323165
0.033685
0.0338309
0.0324284
0.0284495
0.0287042
0.0328455
0.034233
0.0344163
0.0329939
0.0289675
0.0292617
0.0334555
0.0348633
0.0350887
0.0336448
0.0295663
0.0299043
0.0341554
0.0355849
0.0358548
0.0343886
0.0302539
0.0306388
0.0349518
0.0364035
0.036721
0.035232
0.0310363
0.0314713
0.0358522
0.0373268
0.0376962
0.0361833
0.0319205
0.0324099
0.036866
0.0383652
0.0387916
0.0372526
0.0329155
0.0334621
0.0380002
0.0395247
0.0400044
0.0384401
0.0340237
0.0346259
0.0392516
0.0408002
0.0413313
0.0397428
0.0352416
0.0358969
0.0406169
0.0421887
0.0427678
0.0411561
0.0365634
0.0372659
0.0420864
0.043679
0.0442998
0.042667
0.0379764
0.038717
0.0436441
0.0452545
0.0459215
0.0442495
0.0394379
0.040219
0.045235
0.0468348
0.0475775
0.0458925
0.0409702
0.041731
0.0468644
0.0484714
0.0492034
0.0475096
0.0424707
0.0432065
0.0484663
0.0500768
0.0507243
0.049051
0.0439087
0.0445933
0.0500163
0.0516534
0.0521913
0.0505146
0.0452321
0.0458414
0.0514197
0.0530596
0.053519
0.0518365
0.0463952
0.0469106
0.0526636
0.0543106
0.0547065
0.0529857
0.047364
0.0477735
0.0537227
0.0553568
0.0556899
0.0539455
0.0481175
0.0484163
0.0545922
0.0562549
0.0564727
0.0547207
0.0486524
0.048848
0.0552831
0.0570129
0.0572081
0.0554423
0.0490039
0.0491368
0.0558411
0.0575891
0.0578019
0.0560408
0.0492303
0.0492856
0.0562575
0.0580324
0.0582555
0.0564682
0.0493097
0.0493024
0.0565403
0.0583681
0.0586691
0.056758
0.0492748
0.0492184
0.0567114
0.0586585
0.0589779
0.0569297
0.0491459
0.0490518
0.0567908
0.0588819
0.0592198
0.0570358
0.0489466
0.0488232
0.0567665
0.058995
0.0593497
0.0570344
0.0486934
0.0485488
0.0567102
0.059071
0.059412
0.0569723
0.048403
0.0482455
0.0566212
0.0591029
0.0594184
0.056861
0.0480899
0.0479265
0.0564931
0.0590892
0.0593548
0.0566885
0.0477681
0.0476038
0.0563657
0.0590697
0.0592614
0.0565224
0.047447
0.0472856
0.0561923
0.0590248
0.0591764
0.0563422
0.0471336
0.046978
0.0560083
0.0589321
0.0591347
0.0562105
0.0468568
0.0466861
0.0558571
0.0588922
0.0596603
0.0566717
0.0472611
0.0471982
0.0567392
0.0599344
0.0631179
0.0605202
0.0508003
0.0511113
0.0617928
0.0657136
0.0761096
0.0724748
0.0604296
0.0620884
0.0772931
0.0847312
0.0893477
0.0832139
0.0681724
0.0953325
0.0987875
0.0996445
0.103829
0.104625
0.105096
0.105397
0.104966
0.104799
0.10445
0.104189
0.103762
0.103484
0.10305
0.10295
0.102623
0.103327
0.103379
0.10925
0.135566
0.200882
0.209089
0.1925
0.169814
0.158223
0.139557
0.109741
0.0988175
0.130211
0.152144
0.136719
0.121319
0.0953619
0.0789942
0.101148
0.115067
0.0993091
0.0920143
0.0752593
0.0693838
0.0864063
0.0955635
0.0910984
0.0838897
0.0683909
0.0677425
0.083736
0.0917786
0.0902183
0.0827825
0.0675424
0.0674859
0.0828499
0.0905644
0.0896824
0.0822447
0.0672107
0.0672248
0.0824941
0.0902037
0.0893009
0.0818748
0.0669446
0.0669601
0.0821321
0.0898376
0.0889261
0.081505
0.0666771
0.0666935
0.0817736
0.0894816
0.0885137
0.0811037
0.0663873
0.0664064
0.0813944
0.0891076
0.0881102
0.0807001
0.0660871
0.0661061
0.0810086
0.0886429
0.087751
0.0802576
0.0657546
0.065774
0.0805942
0.0883345
0.0872186
0.0798082
0.0654054
0.0654206
0.0801652
0.0878406
0.0868104
0.0793139
0.0650234
0.0650212
0.0796978
0.0875011
0.0862312
0.0788148
0.0646356
0.0645678
0.0791298
0.0868868
0.0858714
0.0783177
0.0641263
0.0640906
0.0786915
0.0865972
0.0851605
0.0776575
0.0636298
0.0635946
0.0780694
0.0859435
0.0847317
0.077101
0.0630906
0.0630642
0.0775667
0.0855967
0.0839844
0.0763833
0.0625164
0.062505
0.0769613
0.0849674
0.0834139
0.0756929
0.0619146
0.0618931
0.076325
0.0845088
0.0827074
0.0749899
0.0612652
0.0612665
0.075661
0.0839273
0.0820097
0.074237
0.0605907
0.060576
0.0749658
0.083349
0.0813737
0.0734846
0.0598538
0.0598959
0.0742556
0.0826435
0.080714
0.0726778
0.0591088
0.0591436
0.0735218
0.0821231
0.0799986
0.0719041
0.0583073
0.0583911
0.0727927
0.0814221
0.0793962
0.0710984
0.0574792
0.0575712
0.0720464
0.0809134
0.0788183
0.0704233
0.0566936
0.0567968
0.0713201
0.080309
0.0783354
0.0697844
0.0559646
0.0560856
0.0706677
0.0797874
0.0782237
0.0694708
0.0554659
0.0556044
0.0701304
0.0792915
0.0783549
0.06943
0.0552986
0.0554595
0.0697769
0.0792909
0.0791267
0.0698351
0.0556848
0.0558629
0.0698121
0.0792126
0.078924
0.0699548
0.0559235
0.056168
0.0701882
0.0790487
0.0777574
0.0686351
0.0555441
0.0549969
0.0688163
0.0782183
0.0770707
0.0678686
0.0539938
0.0534787
0.0677627
0.0764682
0.0754616
0.0660205
0.0520356
0.0516107
0.0659977
0.0748956
0.075212
0.064811
0.0498097
0.0488906
0.0646142
0.0739069
0.0753482
0.0639186
0.0472768
0.0460931
0.0638021
0.0746642
0.077963
0.0644153
0.0451368
0.0437772
0.0640042
0.0779779
0.108715
0.0679682
0.0447439
0.0443959
0.0883901
0.103248
0.109192
0.0939227
0.065471
0.0464619
0.0747369
0.0963183
0.176992
0.10111
0.049755
0.0478987
0.0990565
0.171393
0.123646
0.0914426
0.0478452
0.0465429
0.0845941
0.113662
0.111856
0.0846012
0.0460051
0.0471621
0.0867259
0.114212
0.115673
0.0897745
0.0482968
0.050189
0.0923975
0.117051
0.101649
0.0891283
0.0493579
0.0540809
0.121407
0.212901
0.209854
0.129626
0.0624056
0.0706581
0.128461
0.160189
0.137756
0.12329
0.0737915
0.0768178
0.125855
0.119043
0.287383
0.177163
0.0861595
0.100977
0.187058
0.250408
0.374321
0.216434
0.123485
0.156383
0.250249
0.393183
0.307219
0.254835
0.184547
0.20866
0.257061
0.296467
0.278923
0.261618
0.232378
0.281112
0.299758
0.4207
0.550412
0.403901
0.3472
0.403792
0.406519
0.429472
0.368195
0.395396
0.43593
0.484319
0.429667
0.446715
0.599838
0.518186
0.532688
0.521032
0.469332
0.404196
0.405913
0.455789
0.514819
0.493997
0.469215
0.514888
0.27993
0.339847
0.414203
0.339972
0.206033
0.162219
0.240903
0.246643
0.311464
0.28756
0.293454
0.272913
0.272687
0.305622
0.253438
0.227879
0.280751
0.223726
0.245461
0.267432
0.210007
0.192287
0.241076
0.206752
0.20661
0.210602
0.15929
0.133558
0.16996
0.153371
0.121824
0.135112
0.105122
0.0866982
0.115383
0.117733
0.0881173
0.0898662
0.0635651
0.0467398
0.0678138
0.0679051
0.0587414
0.0524688
0.0310486
0.0178211
0.0361873
0.0418868
0.0338592
0.0265144
0.00926793
0.0107984
0.0268498
0.0364168
0.0371209
0.0290893
0.0171012
0.0224527
0.0284963
0.0273981
0.0427513
0.03484
0.0268832
0.0302011
0.0375395
0.0490209
0.0317155
0.0349369
0.0314261
0.032617
0.0342802
0.0412216
0.022646
0.0277917
0.0319938
0.034213
0.0296166
0.0286837
0.0428035
0.0336167
0.0340647
0.0341639
0.0371242
0.0512621
0.0251663
0.0293327
0.0323238
0.0343057
0.0353816
0.045626
0.0521283
0.0382069
0.0342706
0.033276
0.0302425
0.0266115
0.0404359
0.0388696
0.0361252
0.0378426
0.0446021
0.059669
0.0598327
0.0425891
0.0366829
0.0370966
0.0402881
0.0388422
0.0691999
0.061685
0.0542121
0.0489433
0.0502732
0.0620424
0.0458688
0.0389177
0.0372591
0.0413478
0.048527
0.0529005
0.0820673
0.0606129
0.0413781
0.0512327
0.0782021
0.102281
0.0448804
0.044582
0.0404492
0.0484025
0.0647038
0.0804643
0.104441
0.080029
0.0536916
0.0411687
0.0432178
0.0419898
0.0581274
0.0531515
0.0448505
0.0456439
0.067006
0.0905629
0.110216
0.0838032
0.0549234
0.0441349
0.0491007
0.0497302
0.0890721
0.0714166
0.0530762
0.0577753
0.0857027
0.11115
0.0531989
0.0521571
0.0465803
0.0545931
0.0736698
0.0920681
0.114058
0.0881832
0.059251
0.0477441
0.0532442
0.0542863
0.0930992
0.0744668
0.0552093
0.0599193
0.0894143
0.115808
0.0488515
0.0495142
0.0465669
0.0508256
0.0606039
0.0665526
0.102771
0.0756234
0.0510594
0.0606055
0.0923889
0.121672
0.0553253
0.0542984
0.0486191
0.0597228
0.0802275
0.0999715
0.122038
0.094405
0.0637756
0.0521804
0.0579616
0.0588864
0.10666
0.0797559
0.0545446
0.0649902
0.0970197
0.125729
0.0599314
0.0589166
0.0532261
0.0567242
0.0824695
0.109532
0.128106
0.0989735
0.0659494
0.0537457
0.0609451
0.062784
0.109824
0.0882147
0.0656311
0.0690739
0.101618
0.131305
0.0638833
0.063105
0.0570508
0.0598639
0.0887796
0.119686
0.130487
0.103837
0.0731614
0.0608324
0.0812322
0.0970672
0.123189
0.0993422
0.0698862
0.0585354
0.0662794
0.0682708
0.115137
0.0918081
0.0674356
0.0718424
0.10547
0.135869
0.0683592
0.0666595
0.0596374
0.0638484
0.0912069
0.119836
0.139226
0.108343
0.0730251
0.0598813
0.0675118
0.0693053
0.12029
0.096261
0.0709167
0.0752461
0.110397
0.141739
0.0716397
0.0701929
0.0629663
0.0660446
0.0980551
0.132278
0.144113
0.111062
0.0733442
0.0704176
0.0903219
0.105505
0.132797
0.10727
0.0754629
0.0644903
0.0735622
0.076111
0.12836
0.102588
0.075419
0.0784904
0.114825
0.148363
0.0754731
0.0733526
0.0648147
0.0789125
0.107082
0.133622
0.148374
0.115651
0.0814802
0.0712897
0.093937
0.111574
0.139252
0.112948
0.0797402
0.0679437
0.0770385
0.0794854
0.13468
0.107252
0.078532
0.08239
0.120085
0.15473
0.0800238
0.0779333
0.0694964
0.0733332
0.108168
0.145474
0.157548
0.122466
0.0813195
0.0776364
0.0999016
0.117277
0.145287
0.117587
0.0837231
0.0716734
0.0817347
0.0844029
0.14564
0.116102
0.0846766
0.0870568
0.125085
0.160353
0.12155
0.103273
0.0795172
0.0867923
0.122156
0.149935
0.0873236
0.0844953
0.0743781
0.0850531
0.116098
0.146059
0.166653
0.130323
0.0898814
0.0756164
0.0843162
0.0862801
0.157476
0.117134
0.0795733
0.0877071
0.13102
0.168323
0.128308
0.108495
0.0836044
0.0898662
0.12603
0.155147
0.090638
0.087855
0.0772012
0.0910845
0.125644
0.158186
0.173408
0.13285
0.0887724
0.086839
0.111143
0.13006
0.160099
0.12979
0.0928749
0.0797353
0.0907189
0.0936907
0.162695
0.129338
0.0942572
0.0964285
0.137421
0.175607
0.1358
0.115186
0.088615
0.0951127
0.132564
0.164213
0.0964188
0.0931295
0.0816895
0.0966633
0.132756
0.166681
0.181135
0.141231
0.0994339
0.0907588
0.117816
0.138659
0.168607
0.137573
0.0986568
0.0848448
0.0965061
0.0997384
0.172215
0.136562
0.0991253
0.100755
0.144562
0.185817
0.143582
0.121816
0.0938392
0.101241
0.141028
0.172701
0.102281
0.0989878
0.0869659
0.101777
0.140168
0.176667
0.190449
0.149024
0.104356
0.0957243
0.12412
0.146146
0.177511
0.144248
0.103471
0.0891696
0.101631
0.105084
0.181797
0.144271
0.104731
0.107076
0.152624
0.195618
0.151484
0.128625
0.0989862
0.106691
0.148184
0.18206
0.107527
0.104509
0.0928304
0.101006
0.144356
0.189615
0.20174
0.158454
0.108988
0.100579
0.130734
0.154906
0.187376
0.153172
0.109664
0.0951564
0.107302
0.110698
0.194997
0.148602
0.103962
0.111325
0.161438
0.206587
0.160689
0.135197
0.103537
0.112296
0.156448
0.191727
0.1135
0.109819
0.0966165
0.112898
0.155999
0.19679
0.211202
0.165285
0.115795
0.106991
0.138475
0.162633
0.197763
0.161321
0.115613
0.100346
0.113047
0.116196
0.205366
0.156718
0.109859
0.117057
0.1703
0.217478
0.169073
0.142196
0.10903
0.118349
0.164892
0.201905
0.119431
0.115792
0.102251
0.118788
0.164312
0.207538
0.222871
0.174325
0.122274
0.112856
0.145963
0.171207
0.207594
0.169838
0.122284
0.105672
0.119079
0.122352
0.21645
0.165427
0.11655
0.124462
0.180032
0.22947
0.178581
0.150413
0.115654
0.125087
0.173437
0.213142
0.125609
0.121825
0.107801
0.124584
0.172513
0.218899
0.23576
0.183749
0.128407
0.118733
0.153396
0.180035
0.219134
0.179501
0.128905
0.111521
0.125432
0.128708
0.227962
0.174685
0.123164
0.131027
0.189585
0.24284
0.187833
0.158429
0.121605
0.131134
0.182676
0.224656
0.132182
0.128105
0.113243
0.131511
0.181982
0.230402
0.249336
0.194505
0.136148
0.125404
0.161925
0.189615
0.231249
0.189654
0.136262
0.118448
0.132907
0.136046
0.240192
0.184874
0.131157
0.1389
0.200528
0.255381
0.19747
0.166631
0.12816
0.138437
0.192838
0.237168
0.139613
0.135369
0.119929
0.136853
0.19001
0.241966
0.261933
0.205744
0.1441
0.131276
0.169222
0.19864
0.245289
0.200561
0.145004
0.122846
0.137549
0.14124
0.241397
0.189697
0.137808
0.146997
0.211995
0.271403
0.14237
0.13829
0.123341
0.143922
0.199043
0.252048
0.274306
0.213713
0.149264
0.13787
0.177582
0.207411
0.25517
0.207923
0.149544
0.129247
0.145132
0.148627
0.261998
0.204571
0.14711
0.154134
0.221292
0.28332
0.214168
0.182289
0.141429
0.154017
0.215001
0.263178
0.152539
0.148256
0.131798
0.147705
0.203166
0.258653
0.29412
0.229329
0.158493
0.13251
0.14787
0.151702
0.273422
0.216332
0.156215
0.160786
0.231226
0.297445
0.223466
0.191071
0.148084
0.160628
0.224149
0.275163
0.155848
0.152717
0.13743
0.152613
0.210696
0.270653
0.306924
0.240487
0.16595
0.138326
0.153725
0.157296
0.286123
0.225158
0.161826
0.168312
0.243681
0.313167
0.233042
0.199042
0.15511
0.16863
0.235731
0.290607
0.165404
0.161103
0.143771
0.162875
0.223006
0.281961
0.323546
0.253318
0.17538
0.147231
0.163026
0.165262
0.302029
0.233004
0.16633
0.178217
0.257294
0.330126
0.245049
0.208525
0.161823
0.176981
0.247267
0.304382
0.170352
0.166729
0.150185
0.167496
0.229059
0.292378
0.337088
0.264514
0.182098
0.151049
0.166984
0.170634
0.300023
0.234969
0.171346
0.187375
0.271948
0.347619
0.169282
0.167063
0.152435
0.172108
0.236531
0.301857
0.354554
0.275823
0.18856
0.154493
0.171317
0.174555
0.309501
0.244773
0.178876
0.193981
0.282577
0.362897
0.175917
0.174538
0.159935
0.182723
0.251157
0.319232
0.374327
0.291295
0.198201
0.160922
0.177636
0.180543
0.321936
0.254889
0.185858
0.202584
0.29628
0.379928
0.181327
0.181185
0.165885
0.18882
0.259889
0.333946
0.395543
0.305751
0.209432
0.16981
0.186224
0.188581
0.337516
0.264738
0.192752
0.212386
0.312162
0.400883
0.189655
0.188702
0.173501
0.196335
0.268309
0.344866
0.413279
0.32317
0.221791
0.183381
0.198985
0.199476
0.351569
0.277231
0.203228
0.224572
0.329291
0.423366
0.195987
0.194677
0.179122
0.20445
0.276098
0.34594
0.432544
0.336868
0.230458
0.180697
0.184733
0.177635
0.244633
0.225701
0.19343
0.207611
0.284234
0.365142
0.455014
0.348149
0.234718
0.18008
0.1821
0.172448
0.243622
0.222468
0.190965
0.221947
0.303944
0.379172
0.476271
0.362404
0.242213
0.183496
0.187252
0.179823
0.252585
0.231685
0.198624
0.224228
0.306646
0.390945
0.495072
0.376472
0.254958
0.190081
0.191849
0.181994
0.248624
0.231635
0.201934
0.220791
0.299363
0.384881
0.520647
0.397291
0.265824
0.196784
0.1936
0.180013
0.222875
0.219242
0.204108
0.199936
0.220831
0.233124
0.270297
0.251767
0.2202
0.234019
0.319933
0.408714
0.554862
0.421075
0.279247
0.199786
0.197321
0.188167
0.226319
0.22645
0.213984
0.192708
0.208209
0.215565
0.218637
0.215213
0.197804
0.179003
0.19723
0.202707
0.200228
0.194958
0.173803
0.161332
0.180555
0.18444
0.183341
0.179674
0.154959
0.144199
0.170154
0.175107
0.175875
0.167808
0.137233
0.129531
0.160331
0.168443
0.169195
0.158308
0.124075
0.117423
0.150889
0.161062
0.161383
0.148634
0.112847
0.10756
0.142218
0.154231
0.155417
0.141027
0.104439
0.100395
0.13565
0.149205
0.150732
0.134959
0.0982342
0.094841
0.130129
0.145032
0.146607
0.129701
0.0930286
0.0898337
0.124924
0.140835
0.142055
0.124316
0.088172
0.0852432
0.119631
0.136235
0.137544
0.119341
0.0839749
0.0815456
0.115068
0.132017
0.133424
0.115039
0.0807563
0.0787929
0.111172
0.128201
0.129862
0.111554
0.0784089
0.0771017
0.108349
0.125003
0.126631
0.10859
0.0768128
0.0760204
0.106321
0.122759
0.123835
0.106259
0.0757694
0.0753827
0.10457
0.120707
0.12134
0.104288
0.0751661
0.075079
0.103262
0.119013
0.119407
0.102822
0.0748969
0.0750257
0.102138
0.117502
0.117614
0.101796
0.0749412
0.0751488
0.101362
0.116376
0.11591
0.100555
0.0749362
0.0753869
0.100676
0.115271
0.114868
0.100035
0.0752606
0.0757032
0.100262
0.114476
0.113961
0.099619
0.0755921
0.0760642
0.0998904
0.113778
0.113188
0.0992586
0.0759638
0.0764449
0.0997328
0.113296
0.112654
0.0991158
0.0763527
0.0768337
0.0995714
0.112859
0.112191
0.0989758
0.0767488
0.0772199
0.0995798
0.112593
0.11191
0.0990079
0.0771411
0.0776016
0.0995558
0.112345
0.111654
0.0990093
0.0775284
0.0779741
0.0996792
0.112242
0.111551
0.0991558
0.0779057
0.0783378
0.0997482
0.112133
0.111444
0.0992486
0.0782738
0.0786904
0.0999467
0.112143
0.111458
0.099469
0.0786299
0.079035
0.100078
0.112118
0.11145
0.0996268
0.0789783
0.079369
0.100329
0.112202
0.111538
0.0998932
0.0793148
0.0796956
0.100497
0.11223
0.111596
0.100087
0.0796449
0.0800081
0.100769
0.112353
0.11173
0.100373
0.0799592
0.0803109
0.100946
0.112409
0.111818
0.100573
0.0802652
0.0806027
0.101225
0.112558
0.11198
0.100865
0.080559
0.0808827
0.101399
0.112629
0.112088
0.101065
0.0808415
0.0811472
0.10167
0.112787
0.112261
0.101347
0.0811076
0.0813996
0.101832
0.112863
0.112374
0.101534
0.0813627
0.0816381
0.102089
0.113025
0.112551
0.101802
0.0816029
0.0818636
0.102235
0.113102
0.112663
0.101972
0.081831
0.0820743
0.102475
0.113262
0.112842
0.102224
0.0820435
0.0822714
0.102604
0.113341
0.112953
0.102375
0.0822429
0.0824544
0.102828
0.113501
0.113129
0.10261
0.0824276
0.0826252
0.102946
0.113577
0.11323
0.102747
0.0826004
0.0827847
0.103159
0.113729
0.113398
0.102969
0.0827613
0.0829369
0.103264
0.113797
0.113488
0.103086
0.082915
0.0830778
0.103458
0.113941
0.113647
0.10329
0.0830572
0.0832082
0.103544
0.113998
0.113726
0.10339
0.0831889
0.0833281
0.103722
0.114133
0.113873
0.103577
0.0833098
0.0834398
0.103794
0.114182
0.113941
0.103659
0.0834224
0.0835435
0.103959
0.114311
0.114078
0.10383
0.0835268
0.0836415
0.10402
0.114354
0.114137
0.103899
0.0836254
0.0837332
0.104175
0.114477
0.114266
0.104059
0.0837174
0.08382
0.104225
0.114514
0.114317
0.104116
0.0838046
0.083901
0.10437
0.114629
0.114439
0.104265
0.0838859
0.0839773
0.104409
0.114659
0.114482
0.104311
0.0839627
0.0840482
0.104544
0.114768
0.114597
0.10445
0.084034
0.084115
0.104573
0.114791
0.114632
0.104486
0.0841013
0.0841772
0.104699
0.114894
0.114739
0.104615
0.084164
0.084236
0.104721
0.114912
0.114768
0.104642
0.0842233
0.0842916
0.10484
0.11501
0.114869
0.104763
0.0842792
0.0843454
0.104857
0.115025
0.114891
0.104783
0.0843333
0.0843978
0.104973
0.115122
0.114988
0.104899
0.0843859
0.0844504
0.104988
0.115138
0.115009
0.104916
0.0844388
0.0845025
0.105103
0.115236
0.115106
0.105031
0.0844912
0.0845552
0.105117
0.115253
0.115127
0.105047
0.0845443
0.0846082
0.105233
0.115352
0.115225
0.105163
0.0845977
0.0846613
0.105247
0.115369
0.115248
0.10518
0.0846515
0.0847111
0.105359
0.115465
0.115349
0.105297
0.0847023
0.0847558
0.105366
0.115475
0.115371
0.10531
0.0847483
0.0848011
0.105472
0.115565
0.115465
0.105419
0.0847946
0.0848406
0.105472
0.115569
0.115479
0.105424
0.0848349
0.0848797
0.105571
0.115654
0.115567
0.105526
0.0848742
0.0849133
0.105565
0.115654
0.115574
0.105523
0.084908
0.0849471
0.105659
0.115736
0.115657
0.105619
0.0849418
0.0849759
0.105649
0.115733
0.11566
0.105611
0.0849709
0.0850054
0.105739
0.115811
0.115739
0.105702
0.0850006
0.0850305
0.105724
0.115804
0.115739
0.10569
0.0850258
0.0850564
0.105809
0.115877
0.115813
0.105777
0.0850519
0.085078
0.10579
0.115866
0.115808
0.105759
0.0850736
0.0851005
0.10587
0.115936
0.115878
0.105841
0.0850959
0.0851186
0.105846
0.115921
0.115869
0.105819
0.0851142
0.0851377
0.105923
0.115987
0.115935
0.105897
0.0851332
0.0851529
0.105896
0.115969
0.115922
0.105871
0.0851485
0.0851698
0.10597
0.116034
0.115985
0.105945
0.0851653
0.0851835
0.105942
0.116015
0.11597
0.105918
0.0851792
0.0851997
0.106016
0.11608
0.116032
0.105991
0.0851954
0.0852137
0.105988
0.116063
0.116017
0.105964
0.0852099
0.0852313
0.106064
0.11613
0.116081
0.10604
0.0852278
0.0852476
0.10604
0.116115
0.116069
0.106016
0.0852447
0.0852682
0.106119
0.116185
0.116138
0.106094
0.0852657
0.0852892
0.106093
0.116173
0.116128
0.106069
0.0852875
0.0853146
0.106176
0.116247
0.116199
0.106151
0.0853131
0.0853391
0.106153
0.116237
0.116192
0.10613
0.0853385
0.0853669
0.106238
0.116314
0.116266
0.106214
0.0853664
0.085394
0.106218
0.116301
0.116259
0.106197
0.0853946
0.0854232
0.106306
0.116382
0.116331
0.106282
0.0854233
0.0854546
0.106346
0.116416
0.116284
0.106266
0.0854555
0.0855609
0.106386
0.116427
0.116323
0.106313
0.0855191
0.0854046
0.106257
0.11632
0.115998
0.106099
0.0854096
0.085228
0.106361
0.11666
0.115974
0.106517
0.0862142
0.0862148
0.108379
0.119964
0.126197
0.115966
0.0938011
0.0957497
0.123407
0.140281
0.164796
0.146923
0.115191
0.116973
0.154183
0.17975
0.185446
0.164556
0.129294
0.203116
0.226606
0.245351
0.23048
0.160163
0.133637
0.156004
0.104773
0.0731357
0.0593457
0.0529969
0.0504305
0.0489442
0.0484489
0.0481332
0.0480885
0.0480713
0.0480844
0.0480888
0.0480952
0.0480793
0.0481075
0.0481195
0.0484015
0.0484732
0.0488447
0.0492651
0.0489339
0.0500439
0.0492455
0.0473474
0.0438391
0.0426808
0.0376653
0.0379667
0.0359159
0.0366199
0.0363999
0.0368072
0.0368843
0.0370061
0.0370094
0.0370111
0.0370133
0.0370148
0.036989
0.0369993
0.0369736
0.0369849
0.036969
0.036952
0.0369611
0.0369313
0.0369365
0.0369031
0.0369055
0.0368701
0.0368708
0.0368341
0.036833
0.0367943
0.0367908
0.0367486
0.0367311
0.0367096
0.0366547
0.0366282
0.036554
0.0365021
0.0363954
0.0363039
0.0361602
0.0359975
0.0358042
0.0355696
0.0353274
0.0350164
0.0347066
0.0343301
0.0339576
0.0335236
0.0330983
0.0326186
0.0321451
0.0316487
0.0311407
0.0306242
0.0301022
0.0295849
0.0290453
0.0285365
0.0280036
0.0275039
0.026991
0.026487
0.0260123
0.0255225
0.0250633
0.0246159
0.024163
0.0237469
0.0233207
0.0229309
0.0225321
0.0221691
0.0217979
0.0214616
0.0211176
0.0208078
0.0204905
0.0202063
0.0199149
0.0196556
0.0193938
0.019144
0.0189201
0.0186888
0.018487
0.0182777
0.0180969
0.0179127
0.0177385
0.0175869
0.017427
0.0172934
0.017151
0.0170297
0.0169121
0.0168022
0.0166995
0.0166039
0.0165149
0.0164324
0.016356
0.0162854
0.0162203
0.0161606
0.0161059
0.0160559
0.0160104
0.015969
0.0159318
0.0158983
0.0158683
0.0158415
0.0158179
0.0157971
0.0157789
0.015763
0.0157493
0.0157374
0.0157275
0.0157181
0.01571
0.0157036
0.0156977
0.0156925
0.015688
0.015684
0.0156805
0.0156774
0.0156747
0.0156724
0.0156709
0.0156688
0.015667
0.0156663
0.0156643
0.015658
0.0156491
0.0155996
0.0155625
0.0153895
0.0154804
0.0151748
0.0160434
0.0159105
0.0180341
0.0174111
0.0173327
0.0173714
0.0174014
0.017382
0.0173151
0.0172448
0.0171887
0.017157
0.0171416
0.0171356
0.0171339
0.0171341
0.0171344
0.017134
0.0171339
0.0171343
0.0171342
0.0171337
0.0171333
0.0171336
0.0171335
0.0171334
0.0171338
0.0171334
0.0171333
0.0171337
0.0171336
0.0171332
0.0171332
0.0171336
0.0171332
0.0171328
0.0171328
0.0171329
0.0171334
0.0171337
0.0171342
0.0171358
0.0171388
0.0171443
0.0171521
0.0171608
0.0171702
0.0171783
0.0171834
0.0171868
0.0171887
0.0171895
0.0171898
0.0171938
0.0172061
0.0172312
0.0172769
0.0173813
0.0175776
0.0178977
0.0183415
0.0187051
0.0183704
0.0178641
0.0374291
0.0319558
0.0316177
0.0314958
0.0313137
0.0314361
0.0313639
0.0314651
0.0314244
0.0314858
0.0314398
0.0314942
0.031446
0.0314964
0.0314478
0.0314949
0.0314466
0.0314906
0.0314434
0.0314847
0.0314392
0.031478
0.0314349
0.0314714
0.0314312
0.0314655
0.0314288
0.0314607
0.0314282
0.0314577
0.0314302
0.031457
0.0314351
0.0314592
0.0314436
0.0314647
0.0314562
0.0314743
0.0314738
0.0314884
0.0314969
0.0315079
0.0315264
0.0315336
0.0315633
0.0315683
0.0316132
0.031614
0.0316737
0.0316695
0.031746
0.0317362
0.0318318
0.0318159
0.0319332
0.0319105
0.0320524
0.0320221
0.0321922
0.0321533
0.0323554
0.0323169
0.0325456
0.032521
0.0327666
0.0327578
0.0330229
0.0330322
0.0333197
0.03335
0.0336635
0.0337174
0.0340596
0.0341398
0.0345144
0.0346246
0.0350366
0.0351817
0.035637
0.0358216
0.0363249
0.0365519
0.0371067
0.0373794
0.0379907
0.0383132
0.0389872
0.0393654
0.0401043
0.0405357
0.0413395
0.041823
0.0426915
0.043224
0.0441514
0.0447286
0.045706
0.0463366
0.047281
0.0479969
0.0489318
0.0496469
0.0505722
0.0512368
0.0521792
0.05277
0.0536578
0.0541785
0.0549928
0.0554563
0.0561308
0.0565346
0.0571242
0.0574128
0.0579771
0.0581268
0.0586761
0.0587341
0.0592115
0.059294
0.059636
0.0598121
0.0599348
0.0601803
0.0602066
0.0604588
0.0604058
0.0606615
0.0605455
0.0608023
0.0606383
0.0608943
0.0606955
0.0609495
0.0607267
0.0609163
0.0607992
0.0609238
0.0607966
0.060947
0.0608451
0.0613424
0.0617858
0.0640488
0.0685776
0.0778378
0.0882153
0.0914913
0.0807204
0.0812606
0.093365
0.097344
0.091346
0.0332302
0.0839117
0.0715003
0.0642989
0.0745875
0.0737609
0.0630262
0.0627059
0.0735091
0.0328645
0.032659
0.0732671
0.0623641
0.0625716
0.0735144
0.0733731
0.0623842
0.0625826
0.0735932
0.0327313
0.0327536
0.0732526
0.0622929
0.0625462
0.0735364
0.0732828
0.062261
0.0625186
0.0734567
0.0327526
0.0327012
0.073225
0.0622146
0.0624332
0.0733457
0.0731475
0.0621488
0.0623102
0.0731917
0.0326532
0.0326006
0.0730419
0.0620558
0.0621372
0.0729793
0.0728967
0.0619256
0.0619004
0.0726925
0.0325361
0.0324238
0.0726985
0.0617462
0.0615853
0.0723129
0.0724322
0.0615048
0.0611774
0.0718244
0.0323026
0.0321352
0.0720839
0.0612194
0.06063
0.0712084
0.0716402
0.0608169
0.0599799
0.0704378
0.0319221
0.0316633
0.0710841
0.0603097
0.0592589
0.0694784
0.0703914
0.059649
0.0584088
0.0682973
0.0313189
0.0309185
0.0695305
0.058868
0.0573445
0.0668783
0.0684735
0.0579138
0.0560923
0.0652127
0.0304285
0.0298214
0.0671919
0.0567813
0.0546622
0.0633247
0.0656882
0.055471
0.0530811
0.0612712
0.0291379
0.0283594
0.0639804
0.053998
0.0513945
0.0591253
0.0621055
0.0523989
0.0496597
0.0569662
0.0275085
0.0266105
0.060121
0.0507234
0.0479331
0.0548657
0.0580893
0.0490241
0.046301
0.0529435
0.0257012
0.0247888
0.0560691
0.0473686
0.0446964
0.05109
0.0541292
0.0457562
0.0431891
0.0493905
0.0239212
0.0231074
0.0523004
0.0442377
0.0418373
0.0478963
0.0506102
0.0428281
0.0406178
0.0465788
0.0223599
0.0216825
0.0490697
0.041539
0.0395251
0.0454241
0.0476812
0.0403711
0.0385547
0.044415
0.0210749
0.0205357
0.0464357
0.0393253
0.037697
0.0435296
0.0453293
0.0383968
0.0369419
0.0427592
0.0200599
0.0196445
0.0443521
0.0375745
0.0362799
0.0420922
0.0434903
0.0368488
0.0357035
0.0415162
0.0192798
0.0189624
0.0427346
0.0362142
0.0352028
0.0410163
0.0420763
0.0356622
0.0347669
0.0405811
0.0186835
0.0184408
0.0415024
0.0351809
0.0343873
0.040203
0.0410006
0.0347604
0.0340579
0.0398767
0.0182289
0.0180458
0.0405625
0.0343941
0.0337732
0.0395958
0.0401832
0.0340771
0.033527
0.0393524
0.017886
0.0177477
0.0398542
0.0338025
0.0333138
0.0391414
0.0395682
0.0335642
0.0331295
0.0389595
0.017627
0.0175235
0.03932
0.0333579
0.0329817
0.0388025
0.0391049
0.0331794
0.0328627
0.0386669
0.0174324
0.0173544
0.0389183
0.0330253
0.0327607
0.0385499
0.0387565
0.0328922
0.0326734
0.0384492
0.0172868
0.0172274
0.0386163
0.0327775
0.032599
0.0383624
0.0384948
0.0326788
0.0325356
0.0382876
0.0171757
0.017132
0.0383895
0.0325939
0.0324818
0.0382233
0.0382981
0.032521
0.0324363
0.0381678
0.0170928
0.0170591
0.0382189
0.0324585
0.0323978
0.03812
0.03815
0.032405
0.0323656
0.0380786
0.0170292
0.0170041
0.03809
0.0323591
0.0323386
0.0380428
0.0380377
0.03232
0.0323161
0.0380116
0.0169809
0.0169608
0.0379918