/*--------------------------------*- C++ -*----------------------------------*\
| =========                 |                                                 |
| \\      /  F ield         | OpenFOAM: The Open Source CFD Toolbox           |
|  \\    /   O peration     | Version:  v2006                                 |
|   \\  /    A nd           | Website:  www.openfoam.com                      |
|    \\/     M anipulation  |                                                 |
\*---------------------------------------------------------------------------*/
FoamFile
{
    version     2.0;
    format      ascii;
    class       volScalarField;
    location    "0.059";
    object      turbulenceProperties:I;
}
// * * * * * * * * * * * * * * * * * * * * * * * * * * * * * * * * * * * * * //

dimensions      [0 0 0 0 0 0 0];


internalField   nonuniform List<scalar> 
16277
(
0.149981
0.149981
0.149987
0.14999
0.149994
0.149993
0.149993
0.149996
0.150002
0.150009
0.150015
0.150018
0.150018
0.150017
0.150015
0.150013
0.150011
0.150009
0.150008
0.150007
0.150006
0.150005
0.150005
0.150004
0.150004
0.150003
0.150003
0.150003
0.150002
0.150002
0.150002
0.150002
0.150002
0.150002
0.150002
0.150002
0.150002
0.150002
0.150002
0.150002
0.150001
0.150001
0.150001
0.150001
0.150001
0.150001
0.150001
0.150001
0.150001
0.150001
0.150001
0.150001
0.150001
0.150001
0.150001
0.150001
0.150001
0.150001
0.150001
0.150001
0.150001
0.150001
0.150001
0.150001
0.150001
0.150001
0.150001
0.150001
0.15
0.15
0.15
0.15
0.15
0.15
0.149999
0.149999
0.149998
0.149997
0.149996
0.149995
0.149998
0.150005
0.150018
0.150032
0.150035
0.150024
0.150006
0.149987
0.149966
0.149968
0.149981
0.149977
0.149989
0.150008
0.149873
0.149304
0.14506
0.13908
0.145978
0.148746
0.145981
0.139197
0.133277
0.129405
0.135534
0.143822
0.139875
0.129548
0.125376
0.123121
0.127254
0.138209
0.13454
0.122608
0.120472
0.119191
0.121243
0.13329
0.130277
0.117866
0.11744
0.116713
0.117168
0.12941
0.126996
0.114913
0.115549
0.115164
0.114556
0.126377
0.124398
0.112921
0.11435
0.114173
0.112769
0.123969
0.122297
0.111519
0.113571
0.113516
0.111487
0.121994
0.120553
0.110494
0.113058
0.113089
0.110551
0.120351
0.119086
0.109736
0.112727
0.112809
0.10985
0.118957
0.11782
0.109151
0.112502
0.112616
0.109299
0.117745
0.116713
0.108685
0.112352
0.112489
0.10886
0.116682
0.115736
0.10831
0.112254
0.112407
0.108505
0.115741
0.114868
0.108006
0.112194
0.112358
0.108219
0.114905
0.114094
0.107763
0.112163
0.112336
0.107991
0.114157
0.113401
0.107571
0.112155
0.112337
0.107814
0.11349
0.112785
0.107427
0.112168
0.112356
0.107684
0.112899
0.112243
0.107327
0.112199
0.112394
0.1076
0.112381
0.111772
0.107272
0.112246
0.112448
0.10756
0.111935
0.111369
0.107261
0.11231
0.11252
0.107565
0.111556
0.111032
0.107292
0.11239
0.112608
0.107613
0.111242
0.110758
0.107364
0.112486
0.112712
0.107702
0.11099
0.110542
0.107476
0.112599
0.112833
0.10783
0.110797
0.110384
0.107626
0.112727
0.11297
0.107998
0.11066
0.11028
0.107814
0.112871
0.113124
0.108203
0.110579
0.11023
0.108038
0.11303
0.113293
0.108446
0.110552
0.110233
0.108299
0.113206
0.113478
0.108725
0.110578
0.110288
0.108595
0.113396
0.11368
0.109042
0.110657
0.110395
0.108929
0.113603
0.113898
0.109397
0.110788
0.110554
0.109299
0.113826
0.114132
0.109789
0.110973
0.110766
0.109707
0.114064
0.114383
0.110221
0.11121
0.111031
0.110154
0.114319
0.114651
0.110692
0.111502
0.111349
0.11064
0.114589
0.114935
0.111205
0.111849
0.111721
0.111167
0.114875
0.115234
0.111759
0.112249
0.112148
0.111736
0.115175
0.115547
0.112355
0.112704
0.112627
0.112344
0.115487
0.115871
0.11299
0.113212
0.113156
0.112989
0.115808
0.116204
0.113661
0.113768
0.113733
0.113669
0.116135
0.11654
0.114365
0.11437
0.114351
0.114377
0.116462
0.116873
0.115094
0.11501
0.115002
0.115106
0.116781
0.117195
0.115839
0.115678
0.115677
0.115846
0.117084
0.117494
0.116586
0.116363
0.11636
0.116581
0.117357
0.117756
0.117319
0.117045
0.11703
0.117292
0.117585
0.117965
0.118014
0.117703
0.117662
0.117952
0.117748
0.118098
0.11864
0.118304
0.118222
0.118528
0.117824
0.118132
0.11916
0.118814
0.118673
0.118984
0.117787
0.118038
0.119532
0.119191
0.118972
0.119276
0.117618
0.117757
0.119687
0.119392
0.119067
0.119301
0.117292
0.117289
0.119541
0.119349
0.118902
0.119016
0.116784
0.116625
0.119064
0.119022
0.118442
0.118398
0.116129
0.115785
0.118244
0.118388
0.117674
0.117449
0.115301
0.114826
0.11711
0.117455
0.116629
0.1162
0.114282
0.113753
0.115655
0.116222
0.115269
0.114596
0.113078
0.112522
0.113852
0.114677
0.113624
0.11269
0.111786
0.111303
0.111846
0.11293
0.111839
0.110671
0.110576
0.110162
0.10978
0.111082
0.109993
0.108639
0.109474
0.109134
0.107752
0.109212
0.108158
0.106689
0.108506
0.108247
0.105842
0.107385
0.106395
0.104875
0.10769
0.107512
0.104109
0.105656
0.104749
0.103216
0.107033
0.106928
0.102576
0.104078
0.103249
0.101771
0.106531
0.106491
0.101258
0.10266
0.101904
0.100547
0.106177
0.106193
0.10016
0.10142
0.100743
0.0995469
0.105959
0.10602
0.0992791
0.100363
0.0997669
0.0987649
0.105857
0.105953
0.0986077
0.099484
0.0989689
0.0981809
0.105849
0.105974
0.0981054
0.0987691
0.0983273
0.0977575
0.10592
0.106062
0.097755
0.0981974
0.0978221
0.0974793
0.10605
0.1062
0.0975393
0.0977493
0.097433
0.0973267
0.106222
0.10637
0.0974332
0.0974028
0.0971372
0.0972758
0.106418
0.106558
0.0974147
0.0971357
0.0969117
0.0973021
0.106623
0.106751
0.0974606
0.0969267
0.096734
0.0973819
0.106825
0.106936
0.0975471
0.096753
0.0965848
0.0974939
0.107015
0.107099
0.0976538
0.0966005
0.0964443
0.0976195
0.107187
0.107252
0.0977697
0.0964632
0.0963124
0.0977452
0.107337
0.107389
0.0978828
0.0963273
0.0961779
0.0978659
0.107476
0.107501
0.0979771
0.0961907
0.0960341
0.0979665
0.107588
0.107614
0.0980693
0.0960538
0.0958901
0.0980544
0.10768
0.107712
0.0981502
0.0959026
0.0957138
0.0980938
0.10772
0.107763
0.098188
0.0957269
0.0955351
0.0981498
0.107806
0.107808
0.0982104
0.095544
0.0953356
0.098163
0.107834
0.107863
0.0982336
0.0953451
0.0951223
0.0981497
0.107837
0.107896
0.0982274
0.0951262
0.0948999
0.0981543
0.107901
0.107839
0.0981514
0.0948826
0.0946453
0.0981047
0.107901
0.107922
0.0981487
0.094637
0.0943869
0.0980288
0.10785
0.107875
0.0980705
0.0943715
0.0941156
0.0979726
0.107873
0.107852
0.0979786
0.0940895
0.0938237
0.0978732
0.107842
0.10784
0.09788
0.0937851
0.0934861
0.0977292
0.107794
0.10767
0.0976728
0.0934164
0.0931345
0.0976368
0.107674
0.107447
0.097266
0.0928933
0.09265
0.0971329
0.106979
0.1063
0.0956044
0.0919092
0.0928277
0.0958661
0.104151
0.105105
0.0933867
0.0905826
0.0953144
0.100929
0.107138
0.112687
0.11635
0.120711
0.123519
0.12577
0.127336
0.128391
0.128918
0.128949
0.128436
0.127319
0.125555
0.122569
0.120264
0.115111
0.110279
0.105093
0.100396
0.0990902
0.102173
0.115982
0.131252
0.133546
0.117549
0.103064
0.10401
0.119207
0.135374
0.136334
0.120343
0.104677
0.105207
0.12094
0.137137
0.137391
0.121259
0.105439
0.10578
0.121493
0.137711
0.137786
0.12172
0.105924
0.106002
0.121788
0.137816
0.137805
0.121787
0.106089
0.106122
0.121812
0.137792
0.137769
0.121817
0.106209
0.106233
0.12182
0.137751
0.137722
0.121828
0.106327
0.106345
0.121803
0.137686
0.137649
0.121827
0.106438
0.106451
0.121787
0.137595
0.137575
0.121816
0.106547
0.106568
0.121789
0.137539
0.137511
0.121804
0.106663
0.106674
0.121777
0.137454
0.137412
0.121769
0.106774
0.106793
0.12176
0.13737
0.137317
0.121748
0.10689
0.106904
0.121748
0.137277
0.137254
0.121749
0.107012
0.107031
0.121751
0.137221
0.137168
0.121738
0.107134
0.10715
0.121735
0.137122
0.137081
0.121727
0.10726
0.107279
0.121732
0.137042
0.136995
0.121727
0.107391
0.107411
0.121727
0.13695
0.136905
0.121723
0.107528
0.107549
0.121731
0.136866
0.136826
0.121737
0.107666
0.107687
0.121749
0.136791
0.136756
0.121767
0.107805
0.107825
0.121737
0.136702
0.136652
0.121748
0.107949
0.107974
0.12174
0.136602
0.136564
0.121765
0.108101
0.108115
0.12173
0.136501
0.136466
0.121765
0.108239
0.108267
0.121768
0.136435
0.136415
0.121811
0.108397
0.108413
0.121784
0.136355
0.136306
0.121809
0.108534
0.108555
0.121806
0.136264
0.136241
0.121855
0.108685
0.1087
0.121835
0.136193
0.136161
0.121877
0.108825
0.10884
0.121879
0.136121
0.136098
0.121932
0.108961
0.108967
0.12191
0.13605
0.136019
0.121957
0.109073
0.10907
0.121953
0.135977
0.135956
0.121999
0.109169
0.10916
0.121963
0.135908
0.135888
0.122004
0.109253
0.109239
0.121995
0.135859
0.135834
0.122024
0.109307
0.109258
0.121957
0.135763
0.135725
0.121962
0.109297
0.109243
0.121936
0.135696
0.135678
0.121917
0.109249
0.109165
0.121865
0.13564
0.135605
0.121802
0.109127
0.109009
0.121724
0.135565
0.135508
0.121589
0.1089
0.108746
0.121443
0.135443
0.135362
0.121255
0.108602
0.108416
0.121053
0.13529
0.135227
0.120827
0.108227
0.107975
0.120557
0.135145
0.135035
0.120229
0.107717
0.107338
0.119832
0.134903
0.134741
0.119362
0.107007
0.106526
0.118798
0.134554
0.13438
0.118214
0.106149
0.105608
0.117493
0.134158
0.133891
0.116716
0.105167
0.104549
0.115832
0.133579
0.133237
0.114869
0.104045
0.103332
0.113798
0.132821
0.132391
0.112701
0.102728
0.101898
0.111427
0.131962
0.131558
0.110169
0.10127
0.100457
0.108666
0.131029
0.130363
0.107082
0.0997851
0.0989607
0.105322
0.129618
0.128926
0.103602
0.0982154
0.0973409
0.101617
0.128069
0.126834
0.0998055
0.0965715
0.0957982
0.0981676
0.125393
0.124059
0.0961842
0.0951538
0.0946021
0.0943762
0.122884
0.121685
0.0932859
0.0945926
0.0943096
0.0923745
0.120616
0.119664
0.0909641
0.0945964
0.0945927
0.0902185
0.118564
0.117302
0.089614
0.0952605
0.0956126
0.0893261
0.116088
0.115211
0.0897488
0.0969238
0.0974773
0.0897906
0.114354
0.11348
0.0910115
0.0991419
0.100239
0.0925411
0.112426
0.1125
0.0959364
0.103309
0.104983
0.0987102
0.113636
0.132946
0.0908978
0.0855595
0.0975044
0.0949311
0.126576
0.125763
0.0916928
0.0966264
0.0974164
0.0906685
0.125377
0.124227
0.0893459
0.096893
0.0981975
0.0890565
0.122717
0.12087
0.0883154
0.0981797
0.100743
0.0891034
0.119
0.117261
0.0892183
0.101129
0.104366
0.0919336
0.115868
0.11475
0.0931639
0.105482
0.111026
0.0982094
0.114511
0.115245
0.101502
0.11389
0.088153
0.0889266
0.128546
0.121836
0.0944334
0.106477
0.10716
0.0937563
0.119257
0.11723
0.0965179
0.112764
0.114414
0.0971789
0.115681
0.114939
0.100674
0.118964
0.121079
0.102476
0.11451
0.116217
0.108283
0.126433
0.128385
0.11255
0.118568
0.127564
0.0938494
0.0971724
0.120442
0.101129
0.121124
0.119739
0.100814
0.122025
0.127992
0.105707
0.119335
0.119038
0.107369
0.129313
0.137804
0.115768
0.120175
0.12355
0.122346
0.141764
0.107631
0.099364
0.12861
0.122929
0.111316
0.137577
0.14117
0.114148
0.121302
0.123053
0.125053
0.152256
0.157294
0.131323
0.125309
0.131823
0.142431
0.164024
0.126163
0.110536
0.130456
0.128096
0.129315
0.161907
0.165863
0.13325
0.128552
0.13459
0.152177
0.181851
0.189542
0.16315
0.140991
0.135447
0.125759
0.152017
0.196084
0.157787
0.137693
0.140979
0.166822
0.206246
0.229936
0.195702
0.153852
0.161857
0.208572
0.240955
0.209882
0.166759
0.151654
0.171067
0.228742
0.267427
0.287936
0.24977
0.185408
0.173788
0.206711
0.266121
0.345754
0.302901
0.212446
0.245356
0.353849
0.398614
0.438146
0.347633
0.237561
0.414222
0.610498
0.648488
0.918328
0.847602
0.510898
1
1
1
0.825176
0.797159
0.508991
0.275493
0.424591
0.471759
0.342308
0.308867
0.2132
0.211358
0.276942
0.289194
0.239424
0.199195
0.171724
0.177784
0.21644
0.233032
0.192703
0.164898
0.149294
0.150004
0.178119
0.198197
0.186868
0.16249
0.141939
0.1318
0.124586
0.146959
0.166064
0.148952
0.136779
0.128395
0.123473
0.138915
0.155894
0.136517
0.127059
0.122388
0.127446
0.148977
0.116489
0.105105
0.122117
0.121215
0.120109
0.139171
0.133394
0.114155
0.118039
0.120021
0.0976513
0.104601
0.12793
0.109891
0.116596
0.115166
0.105746
0.122204
0.0972025
0.093676
0.118958
0.11346
0.102953
0.119703
0.113797
0.099431
0.112534
0.118538
0.090552
0.0918165
0.111676
0.0974509
0.110687
0.110234
0.0940888
0.106165
0.0867157
0.0871014
0.117296
0.109063
0.0932499
0.105047
0.0996848
0.0902003
0.109412
0.116171
0.0842815
0.0825705
0.0997727
0.0889929
0.106308
0.107491
0.0862306
0.0950567
0.0796156
0.0817582
0.114904
0.104408
0.0867873
0.0966236
0.0895668
0.0830985
0.105095
0.108832
0.0802507
0.0839224
0.0741539
0.0791175
0.119034
0.10464
0.0788104
0.0846056
0.081396
0.0769032
0.107266
0.118208
0.0757419
0.0714796
0.0808858
0.075033
0.102643
0.106979
0.0748779
0.0778612
0.0692853
0.074905
0.11766
0.101485
0.0724246
0.0763813
0.0741327
0.0722676
0.104784
0.116047
0.0725044
0.0667511
0.0739179
0.0701531
0.100337
0.105032
0.0710839
0.0717875
0.0658141
0.0720777
0.116862
0.0997228
0.0680778
0.0708615
0.0688921
0.0686496
0.104209
0.115748
0.0713867
0.0635835
0.0685735
0.0673907
0.0987599
0.10308
0.0675834
0.0667442
0.0622692
0.0706073
0.113888
0.0975053
0.065243
0.0652481
0.0638458
0.065411
0.102647
0.115192
0.0707896
0.060686
0.0634899
0.0649928
0.0999837
0.108687
0.0672387
0.0594648
0.065502
0.0631703
0.0927018
0.097028
0.0634267
0.0632255
0.0601747
0.0686746
0.10836
0.0937027
0.0631617
0.0639227
0.0625759
0.0633347
0.0984804
0.10949
0.0688972
0.059613
0.0628405
0.0627425
0.0936642
0.0983327
0.0623634
0.0610658
0.0588976
0.0692846
0.109523
0.0941246
0.0613822
0.0601752
0.0589589
0.0610901
0.0996626
0.111154
0.0696899
0.0577567
0.0587802
0.0604907
0.0939431
0.0988554
0.0596661
0.0566224
0.0566793
0.0704755
0.110567
0.0957103
0.0575762
0.0570042
0.0551618
0.0658195
0.105352
0.0913383
0.0578342
0.0567369
0.0546876
0.0574634
0.0965827
0.107398
0.0679599
0.0548378
0.0550873
0.0572007
0.0920631
0.0974187
0.0565954
0.0524697
0.0539008
0.0695911
0.108914
0.093407
0.0542371
0.05281
0.0520435
0.0638594
0.103676
0.088828
0.0548727
0.0531005
0.0510088
0.0547486
0.0935561
0.10463
0.0666543
0.0521421
0.0524004
0.054925
0.0901901
0.0959219
0.0548459
0.0501295
0.0521436
0.0687706
0.1075
0.0924809
0.0522251
0.0503927
0.0502757
0.0629421
0.103085
0.0881557
0.0530806
0.051065
0.0487043
0.0531075
0.0931134
0.104369
0.0660954
0.0502951
0.049818
0.0527323
0.0895647
0.0953614
0.053081
0.0476772
0.0505837
0.0680894
0.10841
0.0922933
0.0497888
0.047345
0.0479771
0.0614804
0.104073
0.0880231
0.0502951
0.0480093
0.046117
0.0512761
0.0933222
0.104555
0.0672431
0.0490805
0.0462681
0.0486986
0.0897096
0.100813
0.0607712
0.0469699
0.0470472
0.0492079
0.0855504
0.091273
0.0500366
0.0452003
0.0485625
0.0668378
0.103843
0.0895994
0.0485792
0.0455584
0.0463796
0.0604528
0.100846
0.0846853
0.0483707
0.0461183
0.0444445
0.0496037
0.0902743
0.10274
0.0664342
0.0478652
0.0448013
0.0475391
0.0880441
0.100047
0.0598285
0.0457423
0.0453522
0.0477956
0.084952
0.0911811
0.0491571
0.0437382
0.0475272
0.0663293
0.102977
0.0881716
0.0472888
0.0446033
0.045477
0.0596349
0.0984001
0.0839729
0.0472577
0.0448956
0.0431496
0.0483802
0.0899759
0.103173
0.0658013
0.0471244
0.0436853
0.0461734
0.0883351
0.100417
0.061791
0.0458798
0.0431656
0.0444551
0.0854112
0.0955703
0.0582343
0.044473
0.0442391
0.0464921
0.0821687
0.0876278
0.0479329
0.0426367
0.0463478
0.0648177
0.0992248
0.0852978
0.0458996
0.0430392
0.0442794
0.058713
0.0967114
0.0826109
0.045938
0.0435617
0.042075
0.0476859
0.0887674
0.101762
0.0651892
0.0463143
0.0426441
0.0454504
0.0876648
0.0998701
0.0610306
0.0451471
0.0421771
0.0436348
0.0855178
0.0946245
0.0572928
0.0434032
0.0427387
0.0451196
0.0805078
0.0863382
0.0463908
0.041189
0.0453452
0.064355
0.097817
0.0848149
0.0447391
0.0419421
0.0443357
0.0592227
0.0963178
0.0826246
0.042717
0.0416145
0.0431361
0.0570459
0.0924189
0.0799454
0.0447758
0.0424971
0.0412036
0.0468129
0.0860419
0.0977236
0.0640054
0.0454114
0.0417665
0.0445611
0.084222
0.0959295
0.0592593
0.0441595
0.0411211
0.0422753
0.082052
0.0914757
0.056427
0.0426007
0.0417571
0.0440811
0.0784767
0.0841695
0.0457191
0.0404027
0.0446435
0.0633065
0.0955309
0.0830469
0.0441749
0.041276
0.043855
0.0587209
0.0944321
0.0817712
0.042453
0.0409871
0.0426247
0.0566167
0.0910411
0.0782294
0.0439543
0.0414947
0.0400989
0.0456132
0.0841817
0.0955696
0.0633039
0.0445178
0.0410183
0.0437138
0.0837438
0.0949494
0.0581607
0.0436027
0.0404877
0.0414723
0.0814215
0.091137
0.0563388
0.0423478
0.0409113
0.0434321
0.0780904
0.0839963
0.0450669
0.0395302
0.0441632
0.0634041
0.0952581
0.0831561
0.0436751
0.0406848
0.0433181
0.0582533
0.0940037
0.080016
0.0411438
0.040011
0.0424869
0.0561201
0.0900765
0.0779992
0.0407888
0.0395403
0.0415456
0.0552947
0.0873572
0.0754332
0.0425066
0.0401181
0.0390695
0.0446558
0.0810988
0.0931774
0.0617813
0.043704
0.0400452
0.0430136
0.0814634
0.0934119
0.0580095
0.042969
0.0394921
0.0410325
0.0807843
0.090355
0.05598
0.0420334
0.0390502
0.0404659
0.0775335
0.0865217
0.0550695
0.0411179
0.0395546
0.0421407
0.0746838
0.0803779
0.0437454
0.0383645
0.0430504
0.0613924
0.0914041
0.0800941
0.0424416
0.0394425
0.04223
0.0567146
0.091242
0.0784407
0.0401527
0.0389672
0.0415854
0.0549894
0.0881017
0.076278
0.039982
0.0386357
0.0408486
0.0546681
0.0852937
0.0741695
0.0419361
0.039185
0.0381111
0.0436582
0.0796428
0.0902531
0.0610996
0.0429229
0.0390775
0.0422248
0.079417
0.0905141
0.0562454
0.0419696
0.0385605
0.0396542
0.0779139
0.0878608
0.0548823
0.0413132
0.0382363
0.0397181
0.0760441
0.0850525
0.054261
0.0404686
0.0385612
0.0412811
0.0733934
0.0789193
0.0433863
0.0376367
0.0427328
0.0599492
0.0907507
0.0791265
0.0415418
0.0386328
0.041862
0.0564399
0.0902604
0.0774652
0.0393848
0.0381132
0.040925
0.0544031
0.086771
0.0752685
0.0391362
0.037655
0.040386
0.0535443
0.0847415
0.073804
0.0391729
0.0374565
0.0398153
0.0531543
0.0824823
0.0719659
0.0408998
0.0378687
0.0370081
0.0427834
0.0776122
0.0883061
0.0602374
0.0422456
0.0380432
0.0413785
0.0779627
0.0887765
0.05526
0.0413647
0.0375726
0.0388064
0.0764673
0.0860426
0.0539442
0.040579
0.0372297
0.0386794
0.0743753
0.0835079
0.0530002
0.039965
0.0369672
0.0387371
0.0728964
0.0813956
0.0525804
0.0392311
0.0372646
0.040179
0.0705383
0.0758537
0.0417848
0.036352
0.0414956
0.0586019
0.0862923
0.0752504
0.0404639
0.0374327
0.0408395
0.0545544
0.0858987
0.074004
0.0385064
0.0371087
0.0400799
0.0528846
0.0834982
0.0726208
0.0382535
0.0368016
0.0396632
0.0523867
0.081617
0.0713375
0.038545
0.0366991
0.0389942
0.0517567
0.0796312
0.0695499
0.0398396
0.0369188
0.0361199
0.0416803
0.0748175
0.084939
0.0583291
0.0412958
0.0369983
0.0403437
0.0753103
0.0856231
0.0537687
0.0403945
0.0365435
0.0378756
0.0741729
0.0835458
0.0523555
0.039784
0.036207
0.0375594
0.0724746
0.081239
0.0516604
0.0391757
0.036013
0.0377217
0.0708262
0.0788143
0.0513889
0.0385235
0.0363437
0.0392802
0.068403
0.0736928
0.0410758
0.035551
0.0407413
0.0574271
0.0837756
0.0736596
0.0397362
0.036423
0.0399687
0.0531439
0.0838782
0.0723791
0.0373556
0.0359891
0.0391641
0.0514062
0.0813871
0.0707827
0.0371026
0.0356921
0.0387462
0.0508063
0.0793535
0.0694772
0.0373146
0.035529
0.0381251
0.0506263
0.077511
0.0675945
0.0388244
0.0357668
0.0351095
0.0408206
0.0731031
0.0830687
0.0573151
0.0405424
0.0359251
0.0393969
0.0734852
0.0834609
0.0527774
0.039684
0.0353368
0.0368654
0.071904
0.0808575
0.0510856
0.0388232
0.0350046
0.0365794
0.0704183
0.0790004
0.050348
0.0382858
0.0348866
0.036561
0.0690247
0.0773475
0.0500058
0.0380453
0.0347974
0.0367882
0.0676267
0.0753475
0.0495946
0.0373007
0.0349978
0.0379
0.0654122
0.070658
0.0397854
0.0343749
0.0396669
0.0552623
0.0806872
0.0704878
0.0383745
0.0352236
0.0388822
0.0515237
0.0801741
0.0693197
0.0363335
0.0347673
0.0380627
0.0498349
0.0775848
0.0675316
0.0361334
0.0345499
0.0376712
0.0492975
0.0754934
0.0661673
0.0364665
0.0344768
0.0370881
0.0487001
0.0736811
0.0644135
0.0374644
0.0345889
0.0340401
0.0394045
0.069827
0.0794624
0.0549169
0.0394328
0.0348884
0.0382095
0.069725
0.0793013
0.05109
0.038687
0.0343129
0.0360966
0.0688902
0.0771797
0.0494438
0.0377909
0.0339472
0.0356455
0.0672975
0.0750725
0.0487112
0.0372651
0.0337138
0.0356743
0.0656453
0.0732371
0.0481908
0.036521
0.0337959
0.0367985
0.0636335
0.0690303
0.0387506
0.033251
0.0388635
0.0541624
0.0787219
0.0685788
0.0375373
0.0341551
0.0380189
0.0503754
0.0778107
0.0673981
0.0355411
0.033649
0.0371482
0.0486653
0.0752397
0.0655294
0.0351157
0.0333005
0.0365823
0.047824
0.073298
0.0641611
0.0351561
0.0331498
0.0359802
0.047422
0.0717566
0.0625271
0.0362247
0.033219
0.0327142
0.0382576
0.0678423
0.0770741
0.0535145
0.038314
0.0336674
0.0371046
0.0675077
0.0766396
0.0497256
0.0376136
0.0331217
0.0351189
0.0664536
0.0745146
0.0483071
0.036802
0.0328221
0.0348555
0.0649272
0.072811
0.0475678
0.0363385
0.0326145
0.0347605
0.0635441
0.0712863
0.0470799
0.0356189
0.0326735
0.0357596
0.0620981
0.0673269
0.0376582
0.0321556
0.0377963
0.0527927
0.076118
0.0666292
0.0366791
0.0331525
0.0370394
0.0490217
0.0750941
0.0648969
0.0346332
0.0326316
0.0361618
0.0472559
0.0727116
0.0629838
0.0341964
0.0322553
0.0354657
0.0467191
0.0708481
0.0621596
0.035578
0.0322442
0.0318579
0.0376626
0.0677784
0.0764779
0.0533854
0.0380076
0.0329361
0.0369239
0.0671219
0.0757595
0.0490854
0.0370422
0.0322778
0.0342836
0.0653948
0.0733469
0.047393
0.0361128
0.0318501
0.0340498
0.063365
0.0711308
0.0467974
0.035258
0.0317016
0.0350946
0.0617037
0.0670154
0.0370766
0.0312258
0.037422
0.0523726
0.0760406
0.0660022
0.035823
0.0322797
0.0364095
0.0482771
0.0745533
0.0638488
0.0336863
0.0316402
0.0355292
0.0467639
0.0721203
0.0628591
0.0336166
0.0313886
0.0350206
0.046474
0.0707525
0.0615852
0.0349484
0.0313016
0.0309779
0.0371583
0.0672119
0.075345
0.0528679
0.037474
0.0319463
0.0363499
0.0657621
0.074742
0.0484451
0.0363859
0.0313807
0.0334235
0.0640904
0.0719249
0.0464996
0.0353445
0.0309255
0.0332886
0.0622113
0.0701079
0.0459938
0.0344725
0.0307317
0.0342712
0.0609012
0.066213
0.0360974
0.0302781
0.0365899
0.0513069
0.074131
0.0642823
0.035174
0.0313381
0.0358243
0.0478064
0.0733716
0.06327
0.0333457
0.0310297
0.0350425
0.0461399
0.0712875
0.0619076
0.0330571
0.0307773
0.0344895
0.045878
0.0698297
0.0608629
0.0343831
0.0306607
0.0303614
0.0365117
0.0663193
0.0744988
0.0518444
0.0370232
0.0315013
0.0356094
0.0645121
0.0730345
0.0477502
0.0359074
0.0308176
0.0333383
0.0626661
0.0705406
0.0460195
0.0345819
0.0303165
0.0339764
0.060985
0.0659727
0.0354547
0.0298613
0.036602
0.0516894
0.0740597
0.0640623
0.0353422
0.0309892
0.035743
0.0477424
0.0729774
0.0628997
0.0331096
0.0306457
0.0347785
0.045936
0.0708754
0.0613803
0.0327232
0.0303472
0.0341307
0.0455578
0.0692386
0.0601368
0.0339005
0.0301293
0.029889
0.0360262
0.0653746
0.0736738
0.0514182
0.0366986
0.031066
0.0353218
0.0635717
0.0720954
0.0473543
0.0356035
0.0304935
0.0330625
0.0620048
0.0697731
0.0456751
0.0343064
0.0299487
0.0335696
0.0596983
0.0648546
0.0354591
0.0296239
0.0365754
0.0512218
0.073835
0.064148
0.0351075
0.0309378
0.0356452
0.0475971
0.0726415
0.0625518
0.0332772
0.0304834
0.0344805
0.0460393
0.0703511
0.0608852
0.033877
0.0300572
0.0298465
0.0360018
0.0660729
0.0742342
0.0518049
0.0368564
0.0309625
0.0354915
0.0637645
0.0720463
0.0477742
0.0354887
0.0302148
0.0341151
0.0617409
0.0668225
0.0358349
0.0298108
0.036774
0.0514961
0.0748988
0.0635491
0.0346896
0.0307083
0.0357125
0.0476931
0.0724053
0.0626367
0.0332946
0.0302099
0.0345935
0.0463518
0.070767
0.0613296
0.0339125
0.0297883
0.0296275
0.036173
0.066673
0.0748846
0.0519471
0.0369571
0.0307249
0.0353568
0.0644355
0.0727364
0.0477507
0.0354206
0.0297633
0.033782
0.0622123
0.0672808
0.0354901
0.0294214
0.0367364
0.051768
0.0754791
0.0644001
0.0348029
0.0304176
0.0351069
0.0473768
0.07241
0.0613287
0.0335833
0.029356
0.0291497
0.0356804
0.0668992
0.0762082
0.0524001
0.0370472
0.0305284
0.0350705
0.065196
0.0736001
0.0482252
0.0355716
0.0294955
0.033834
0.0627263
0.0679541
0.0356889
0.0292385
0.0369362
0.0523011
0.0761523
0.0649939
0.0349428
0.030257
0.0353358
0.0478507
0.0732943
0.0623821
0.0335714
0.0292446
0.0289086
0.0353532
0.0674918
0.0757612
0.0518461
0.0365309
0.0298255
0.0336992
0.0629821
0.0715522
0.0472091
0.034903
0.0287816
0.0333469
0.0616407
0.0672557
0.0352066
0.0286669
0.0365705
0.0519816
0.0761701
0.0649144
0.0345367
0.029901
0.0349604
0.0475165
0.073089
0.0623226
0.0333325
0.0289081
0.02867
0.0351738
0.0673292
0.0754029
0.0518295
0.0364396
0.0296922
0.0344282
0.0640223
0.0719434
0.04707
0.0345811
0.0283845
0.0326969
0.0603411
0.064305
0.0334483
0.0278726
0.0352322
0.0505341
0.0730346
0.0629489
0.0342762
0.0288017
0.0286608
0.0357676
0.0684261
0.0772024
0.0526606
0.0369477
0.0298751
0.0346308
0.0654537
0.0733658
0.0475932
0.0350166
0.0285267
0.0329601
0.0621735
0.0667732
0.0346583
0.0282628
0.0357171
0.0512756
0.0745481
0.0631297
0.0345737
0.0288534
0.0282365
0.0346244
0.0672315
0.0754472
0.0514297
0.0358336
0.0285864
0.0342389
0.063801
0.0693907
0.0353105
0.0283528
0.0369906
0.053061
0.0784626
0.0660759
0.0344943
0.0296082
0.034958
0.0477903
0.0737781
0.062096
0.032749
0.0282042
0.0279322
0.0343423
0.0664729
0.0738907
0.0509131
0.0353294
0.0283497
0.0340779
0.0621078
0.0657666
0.0338284
0.0276992
0.0350661
0.0501938
0.0736826
0.0623264
0.033478
0.027965
0.0277915
0.0346589
0.0676892
0.0763868
0.0519725
0.0358351
0.0284797
0.034519
0.0642268
0.068734
0.0351476
0.0281473
0.0359371
0.0518441
0.0764027
0.0637613
0.0341677
0.0283177
0.0277816
0.034562
0.0677398
0.074721
0.0505357
0.0351635
0.0275332
0.0330266
0.0617675
0.0661123
0.0359743
0.0276649
0.027853
0.0378857
0.0723939
0.0812617
0.0547893
0.0372901
0.0285498
0.0351838
0.0672733
0.0716093
0.0353242
0.0280226
0.0359246
0.0523182
0.0791889
0.064477
0.0334506
0.0275081
0.0268546
0.0342954
0.0664573
0.070695
0.0359288
0.0266599
0.0361767
0.0538135
0.0802108
0.0668751
0.0341184
0.0274289
0.0275994
0.0366658
0.0710879
0.0764129
0.0382047
0.0276971
0.0371239
0.0556917
0.083168
0.065687
0.0339539
0.0273911
0.0266673
0.0348542
0.0682197
0.0731276
0.0362922
0.0264129
0.0358961
0.0540261
0.0829545
0.0680547
0.0338624
0.0268017
0.0262575
0.0333528
0.0715441
0.0767632
0.0394209
0.0269355
0.0259371
0.0353857
0.0769573
0.0855772
0.0554444
0.0363521
0.0265113
0.0338118
0.0701668
0.0746532
0.0346631
0.0263077
0.0264016
0.0384916
0.0789585
0.0818901
0.0361347
0.0254794
0.0259587
0.0405741
0.0851717
0.0892583
0.0400041
0.0252081
0.0364519
0.0582885
0.0982801
0.0730926
0.0338686
0.025748
0.0253171
0.0338882
0.0750767
0.080084
0.0378551
0.0253256
0.0252534
0.0383198
0.086006
0.0915115
0.0397016
0.0255017
0.0260161
0.0424351
0.0961528
0.101088
0.0447998
0.0265905
0.027171
0.0470436
0.10497
0.10697
0.0493908
0.0277396
0.0282518
0.0513929
0.108108
0.108776
0.0536297
0.02885
0.0294344
0.0558495
0.109142
0.10928
0.0583957
0.0302315
0.0309394
0.0608801
0.109323
0.109319
0.06333
0.0319439
0.0328003
0.0657449
0.109297
0.109278
0.0681219
0.0339704
0.0349656
0.07044
0.10925
0.109232
0.07268
0.0362642
0.0374921
0.0747162
0.109216
0.109218
0.0766755
0.0389926
0.0403748
0.0784663
0.109229
0.109258
0.0802213
0.0419866
0.0433832
0.0819007
0.109302
0.109373
0.0835386
0.0450007
0.0463954
0.085093
0.109458
0.109565
0.0865988
0.0480064
0.0494007
0.0880124
0.109678
0.109803
0.0893688
0.0510132
0.0524207
0.0906254
0.109927
0.110062
0.0918245
0.0540335
0.0554427
0.0929226
0.110192
0.110331
0.0939645
0.0570444
0.0584282
0.0949034
0.11046
0.110589
0.0957832
0.0599983
0.0613186
0.0965728
0.110705
0.110818
0.0973113
0.0628054
0.0640514
0.0979663
0.110916
0.111011
0.0985813
0.0654562
0.0666236
0.0991198
0.11109
0.111165
0.0996287
0.067938
0.0690136
0.100069
0.111226
0.111279
0.100467
0.0702222
0.071188
0.100822
0.111316
0.111354
0.101145
0.0722809
0.0731325
0.101401
0.111375
0.111393
0.101661
0.0741068
0.0748505
0.101844
0.111399
0.1114
0.102041
0.0757154
0.0763594
0.102166
0.111393
0.111379
0.102304
0.0771186
0.0776674
0.102379
0.11136
0.111334
0.102467
0.0783261
0.0787881
0.102501
0.111307
0.111271
0.102545
0.0793515
0.0797327
0.102545
0.111237
0.111192
0.102553
0.08021
0.080523
0.102529
0.111154
0.111104
0.102508
0.0809212
0.0811781
0.102465
0.111061
0.111006
0.102423
0.0815068
0.0817197
0.102366
0.110961
0.110901
0.102305
0.0819833
0.0821581
0.102236
0.110852
0.110792
0.102161
0.082366
0.0825092
0.102085
0.110744
0.110684
0.102001
0.0826631
0.0827807
0.101916
0.110636
0.110579
0.101828
0.0829
0.0829889
0.101739
0.110531
0.110475
0.101649
0.0830864
0.083148
0.101556
0.110427
0.110373
0.101469
0.0832239
0.0832549
0.101376
0.110328
0.110275
0.101288
0.0833132
0.0833214
0.101195
0.11023
0.110179
0.101108
0.0833671
0.0833595
0.101016
0.110138
0.110088
0.100929
0.0833945
0.0833756
0.100839
0.110048
0.11
0.100751
0.0834033
0.0833786
0.100667
0.109963
0.109916
0.100579
0.0833983
0.0833714
0.100499
0.10988
0.109836
0.100413
0.0833861
0.0833628
0.100339
0.109804
0.109761
0.100255
0.0833722
0.0833501
0.100187
0.109729
0.10969
0.100107
0.0833592
0.0833398
0.100044
0.109661
0.109624
0.0999695
0.0833482
0.0833312
0.0999123
0.109597
0.109561
0.0998423
0.0833403
0.0833281
0.099791
0.109538
0.109505
0.0997274
0.0833392
0.0833309
0.0996819
0.109484
0.109453
0.0996236
0.0833439
0.0833409
0.0995838
0.109435
0.109406
0.0995314
0.0833564
0.083358
0.0994971
0.10939
0.109362
0.0994495
0.0833758
0.0833825
0.0994206
0.109348
0.109324
0.099378
0.0834028
0.0834137
0.0993539
0.109311
0.109289
0.0993158
0.0834362
0.0834514
0.0992959
0.109277
0.109257
0.0992623
0.0834766
0.0834943
0.0992457
0.109246
0.109229
0.0992153
0.0835207
0.0835427
0.0992018
0.109217
0.109203
0.0991753
0.0835701
0.0835952
0.0991635
0.109191
0.109179
0.0991409
0.0836231
0.0836513
0.0991304
0.109168
0.109157
0.0991118
0.0836798
0.0837101
0.0991022
0.109146
0.109136
0.0990869
0.0837388
0.0837714
0.0990782
0.109127
0.109116
0.0990661
0.0838003
0.083834
0.0990579
0.10911
0.109099
0.0990491
0.0838626
0.0838978
0.0990418
0.109093
0.109083
0.0990345
0.0839261
0.0839617
0.099028
0.109078
0.109068
0.0990208
0.0839893
0.0840255
0.0990163
0.109064
0.109054
0.0990094
0.0840525
0.0840884
0.0990064
0.109051
0.109041
0.0989994
0.0841144
0.0841503
0.0989979
0.109039
0.10903
0.0989911
0.0841755
0.0842107
0.0989906
0.109027
0.109018
0.0989836
0.0842349
0.0842695
0.0989841
0.109016
0.109008
0.0989771
0.0842928
0.0843264
0.0989783
0.109006
0.108997
0.098971
0.0843485
0.084381
0.0989729
0.108996
0.108988
0.0989653
0.0844019
0.084433
0.0989673
0.108986
0.108978
0.0989592
0.0844525
0.0844822
0.0989616
0.108977
0.108968
0.0989532
0.0845006