/*--------------------------------*- C++ -*----------------------------------*\
| =========                 |                                                 |
| \\      /  F ield         | OpenFOAM: The Open Source CFD Toolbox           |
|  \\    /   O peration     | Version:  v2006                                 |
|   \\  /    A nd           | Website:  www.openfoam.com                      |
|    \\/     M anipulation  |                                                 |
\*---------------------------------------------------------------------------*/
FoamFile
{
    version     2.0;
    format      ascii;
    class       volScalarField;
    location    "0.01";
    object      nut;
}
// * * * * * * * * * * * * * * * * * * * * * * * * * * * * * * * * * * * * * //

dimensions      [0 2 -1 0 0 0 0];


internalField   nonuniform List<scalar> 
38932
(
0.0586897
0.0586918
0.05868
0.0586783
0.0586746
0.0586682
0.058659
0.0586468
0.0586314
0.0586133
0.0585925
0.058569
0.0585428
0.058514
0.0584825
0.0584483
0.0584115
0.0583721
0.05833
0.0582854
0.0582382
0.0581885
0.0581363
0.0580815
0.0580243
0.0579645
0.0579022
0.0578375
0.0577702
0.0577006
0.0576285
0.057554
0.0574771
0.057398
0.0573165
0.0572327
0.0571467
0.0570585
0.0569681
0.0568755
0.0567808
0.0566841
0.0565853
0.0564844
0.0563817
0.056277
0.0561704
0.0560619
0.0559517
0.0558397
0.0557261
0.0556108
0.0554938
0.0553754
0.0552555
0.0551341
0.0550114
0.0548873
0.054762
0.0546356
0.054508
0.0543794
0.0542499
0.0541194
0.0539881
0.0538561
0.0537234
0.0535902
0.0534564
0.0533222
0.0531876
0.0530528
0.0529178
0.0527827
0.0526477
0.0525127
0.0523779
0.0522434
0.0521093
0.0519756
0.0518424
0.0517099
0.0515782
0.0514473
0.0513173
0.0511883
0.0510605
0.0509339
0.0508087
0.0506848
0.0505625
0.0504417
0.0503227
0.0502055
0.0500902
0.0499769
0.0498656
0.0497565
0.0496497
0.0495452
0.0494431
0.0493435
0.0492464
0.049152
0.0490602
0.0489713
0.0488851
0.0488019
0.0487215
0.0486442
0.0485698
0.0484986
0.0484304
0.0483653
0.0483035
0.0482448
0.0481894
0.0481373
0.0480885
0.0480432
0.0480011
0.0479616
0.0479221
0.0478725
0.0477794
0.047595
0.0470265
0.0445932
0.036299
0.0129248
0.00478106
0.000173682
0.000183627
0.00199154
0.00532989
0.00370315
0.00134014
0.00018106
0.00017614
0.00104986
0.00288696
0.0024793
0.000884078
0.000170955
0.000164387
0.000785421
0.00219152
0.00202074
0.000729113
0.000159049
0.000153751
0.000682448
0.00191024
0.00183763
0.000658394
0.000149498
0.000146184
0.000641344
0.00178531
0.00174608
0.000629092
0.000143466
0.000141184
0.000620191
0.0017152
0.00168987
0.000613616
0.000139282
0.000137687
0.000608636
0.00166829
0.0016494
0.000604754
0.000136339
0.00013518
0.000601525
0.00163225
0.00161615
0.000598616
0.000134165
0.000133259
0.000595909
0.00160108
0.00158684
0.000593286
0.000132431
0.000131657
0.000590599
0.00157294
0.00155913
0.000587742
0.000130917
0.000130199
0.000584673
0.00154534
0.00153152
0.000581386
0.000129492
0.000128788
0.000577923
0.00151763
0.00150364
0.0005743
0.000128088
0.00012739
0.000570526
0.00148955
0.00147539
0.000566633
0.000126695
0.000126003
0.000562667
0.00146122
0.0014471
0.000558681
0.000125313
0.000124629
0.000554727
0.00143314
0.00141943
0.000550847
0.00012395
0.000123279
0.000547082
0.00140603
0.00139302
0.000543458
0.000122616
0.000121959
0.000539994
0.00138043
0.00136829
0.000536697
0.000121309
0.000120665
0.000533568
0.00135661
0.00134537
0.000530602
0.000120024
0.000119384
0.000527782
0.00133454
0.00132406
0.000525082
0.000118743
0.000118096
0.000522473
0.00131387
0.0013039
0.000519929
0.000117442
0.000116776
0.000517417
0.00129406
0.00128426
0.000514895
0.000116095
0.000115396
0.000512332
0.00127442
0.00126447
0.000509701
0.000114676
0.000113932
0.000506976
0.00125432
0.00124393
0.000504138
0.000113163
0.000112367
0.000501173
0.00123323
0.00122221
0.000498074
0.000111542
0.000110689
0.00049484
0.00121083
0.00119909
0.00049148
0.000109806
0.000108896
0.000488007
0.00118703
0.00117466
0.000484441
0.000107957
0.000106992
0.000480804
0.00116205
0.00114925
0.000477123
0.000106
0.000104982
0.000473425
0.00113631
0.00112332
0.000469735
0.00010394
0.000102873
0.00046608
0.00111033
0.0010974
0.000462482
0.000101781
0.000100665
0.000458963
0.00108461
0.00107201
0.000455544
9.95226e-05
9.83544e-05
0.000452241
0.00105965
0.00104758
0.000449073
9.71588e-05
9.59341e-05
0.000446049
0.00103586
0.00102449
0.000443182
9.46796e-05
9.33932e-05
0.000440492
0.00101356
0.00100306
0.000437968
9.20726e-05
9.07187e-05
0.000435636
0.000993011
0.000983515
0.000433524
8.93296e-05
8.79028e-05
0.000431604
0.000974511
0.00096613
0.000429937
8.64433e-05
8.49516e-05
0.000428593
0.000958499
0.00095154
0.000427519
8.34237e-05
8.18655e-05
0.000426756
0.000945344
0.000940313
0.00042649
8.02846e-05
7.86844e-05
0.000426809
0.000936727
0.000934556
0.000427736
7.70702e-05
7.54459e-05
0.000429392
0.000933962
0.000935315
0.000431851
7.38157e-05
7.21956e-05
0.000435264
0.000938824
0.000944918
0.000439873
7.0592e-05
6.8991e-05
0.000445489
0.000953364
0.000963394
0.00045198
6.74099e-05
6.58746e-05
0.00045995
0.000976213
0.000992065
0.000469277
6.43798e-05
6.29587e-05
0.000480094
0.00101055
0.00102962
0.000491664
6.15462e-05
6.01164e-05
0.000503369
0.00104808
0.00106758
0.000516102
5.87396e-05
5.72491e-05
0.00052767
0.00108486
0.00110275
0.000538135
5.61122e-05
5.61378e-05
0.000540139
0.00111889
0.00114139
0.000542215
5.56454e-05
5.4405e-05
0.00054112
0.00116557
0.00117796
0.000531514
5.22385e-05
4.91152e-05
0.00050943
0.00116817
0.00113923
0.000477252
4.52387e-05
4.0668e-05
0.000433784
0.00108665
0.00100638
0.000378361
3.57831e-05
3.10624e-05
0.000310057
0.000896889
0.000741001
0.000229363
2.67499e-05
2.38959e-05
0.000120299
0.000509432
0.000287754
5.80027e-05
2.29104e-05
2.27875e-05
3.68734e-05
0.00016898
0.000119602
2.97597e-05
2.30945e-05
2.35452e-05
2.69362e-05
0.000100928
9.46285e-05
2.57785e-05
2.40301e-05
2.44796e-05
2.52202e-05
9.36559e-05
9.53454e-05
2.50875e-05
2.4857e-05
2.51223e-05
2.52606e-05
9.86724e-05
0.00010301
2.56428e-05
2.52381e-05
2.52713e-05
2.61858e-05
0.000107832
0.000112654
2.68798e-05
2.51318e-05
2.48285e-05
2.75089e-05
0.00011671
0.000120632
2.81276e-05
2.43758e-05
2.38043e-05
2.87475e-05
0.000123883
0.000126416
2.92913e-05
2.31302e-05
2.2361e-05
2.97791e-05
0.00012808
0.000128912
3.02144e-05
2.15174e-05
2.06196e-05
3.0583e-05
0.000128896
0.000128244
3.09347e-05
1.96795e-05
1.87212e-05
3.12952e-05
0.000127096
0.000125646
3.16659e-05
1.77536e-05
1.67907e-05
3.21809e-05
0.000124198
0.000122788
3.27771e-05
1.58495e-05
1.4935e-05
3.35331e-05
0.000121612
0.000120747
3.4482e-05
1.40566e-05
1.32239e-05
3.55863e-05
0.000120144
0.000119767
3.68315e-05
1.24379e-05
1.1702e-05
3.8259e-05
0.000119653
0.000119594
3.97463e-05
1.10065e-05
1.03686e-05
4.13858e-05
0.00011955
0.00011918
4.2852e-05
9.75255e-06
9.14056e-06
4.41686e-05
0.000118238
0.000115761
4.48486e-05
8.49334e-06
7.83896e-06
4.46939e-05
0.000110821
0.000101434
4.26185e-05
7.02534e-06
6.11023e-06
3.79762e-05
8.58758e-05
5.96106e-05
2.88961e-05
4.88443e-06
3.51659e-06
1.9172e-05
2.21281e-05
2.57983e-05
2.93738e-05
3.09939e-05
3.3211e-05
3.38563e-05
3.48277e-05
3.51574e-05
3.56645e-05
3.60255e-05
3.64267e-05
3.67789e-05
3.72091e-05
3.73937e-05
3.7866e-05
3.81434e-05
4.2596e-05
4.12938e-05
4.01934e-05
3.79498e-05
2.6545e-05
1.5153e-05
1.79742e-05
2.10549e-05
1.59501e-05
8.08072e-06
8.4591e-06
8.79664e-06
8.2272e-06
7.3834e-06
6.6174e-06
3.87096e-06
2.97293e-06
2.35781e-06
2.0112e-06
1.51948e-06
3.6915e-06
7.17663e-06
1.17095e-05
1.91896e-05
3.64157e-05
2.72641e-05
1.72833e-05
7.82384e-06
2.07634e-06
2.4761e-06
1.07381e-05
2.43273e-05
3.81913e-05
5.17626e-05
6.29578e-05
4.55341e-05
2.8881e-05
1.26203e-05
2.77701e-06
2.93027e-06
1.3832e-05
3.20458e-05
5.12106e-05
7.07596e-05
7.6043e-05
5.5255e-05
3.40772e-05
1.45177e-05
3.04939e-06
3.07157e-06
1.44925e-05
3.44426e-05
5.63316e-05
7.79344e-05
7.75674e-05
5.55497e-05
3.35125e-05
1.38684e-05
3.03225e-06
2.95832e-06
1.29239e-05
3.17711e-05
5.35204e-05
7.56318e-05
7.25345e-05
5.08103e-05
2.96276e-05
1.18556e-05
2.86173e-06
2.77514e-06
1.08256e-05
2.75178e-05
4.80327e-05
6.94219e-05
6.70466e-05
4.55613e-05
2.56011e-05
9.93493e-06
2.70425e-06
2.63255e-06
9.05983e-06
2.36712e-05
4.3068e-05
6.44933e-05
6.19652e-05
4.05416e-05
2.17559e-05
8.20571e-06
2.55193e-06
2.45298e-06
7.2289e-06
1.95105e-05
3.76238e-05
5.90433e-05
5.47873e-05
3.37573e-05
1.67952e-05
6.07943e-06
2.30888e-06
2.12738e-06
4.85326e-06
1.36226e-05
2.90544e-05
4.94755e-05
4.33609e-05
2.36696e-05
1.01417e-05
3.58128e-06
1.89262e-06
1.53482e-06
2.24551e-06
6.36151e-06
1.75247e-05
3.63592e-05
2.84934e-05
1.11792e-05
2.8359e-06
1.13204e-06
9.03623e-07
5.57664e-07
6.9472e-07
1.40231e-06
5.66665e-06
1.94202e-05
1.06478e-05
2.56133e-06
1.04199e-06
6.77372e-07
5.88358e-07
5.85217e-07
6.61243e-07
9.76418e-07
2.35042e-06
6.31848e-06
6.26604e-06
2.32121e-06
9.67348e-07
6.66202e-07
5.99189e-07
6.12858e-07
6.67743e-07
9.42922e-07
2.23566e-06
6.08642e-06
5.93072e-06
2.16582e-06
9.23351e-07
6.68176e-07
6.21407e-07
6.32952e-07
6.69522e-07
9.02644e-07
2.09142e-06
5.76752e-06
5.60859e-06
2.01895e-06
8.82102e-07
6.71194e-07
6.45504e-07
6.57145e-07
6.73178e-07
8.63636e-07
1.9489e-06
5.44596e-06
5.33118e-06
1.89728e-06
8.49859e-07
6.7572e-07
6.67779e-07
6.80803e-07
6.79117e-07
8.35179e-07
1.84046e-06
5.20367e-06
5.09084e-06
1.78783e-06
8.21225e-07
6.83317e-07
6.95603e-07
7.09311e-07
6.87759e-07
8.0932e-07
1.73844e-06
4.97691e-06
4.91129e-06
1.70522e-06
8.01275e-07
6.92684e-07
7.22456e-07
7.37883e-07
6.98626e-07
7.92866e-07
1.66858e-06
4.83686e-06
4.77482e-06
1.63442e-06
7.84769e-07
7.05361e-07
7.5528e-07
7.71592e-07
7.12423e-07
7.79003e-07
1.60534e-06
4.71894e-06
4.70952e-06
1.58996e-06
7.76195e-07
7.19871e-07
7.87785e-07
8.05887e-07
7.28496e-07
7.73935e-07
1.57382e-06
4.69815e-06
4.70247e-06
1.5597e-06
7.71639e-07
7.38021e-07
8.26455e-07
8.45441e-07
7.47951e-07
7.72528e-07
1.55375e-06
4.72449e-06
4.80654e-06
1.56368e-06
7.76319e-07
7.58192e-07
8.64417e-07
8.85149e-07
7.70043e-07
7.8263e-07
1.58098e-06
4.92147e-06
5.09505e-06
1.60981e-06
7.90616e-07
7.83065e-07
9.07848e-07
9.29248e-07
7.97587e-07
8.06267e-07
1.66983e-06
5.39571e-06
5.98317e-06
1.79713e-06
8.34374e-07
8.13546e-07
9.47934e-07
9.71697e-07
8.36865e-07
8.86308e-07
2.05064e-06
7.14624e-06
9.6608e-06
2.63058e-06
9.95003e-07
8.71449e-07
9.94135e-07
1.02335e-06
9.42884e-07
1.27669e-06
4.17963e-06
1.54222e-05
2.63071e-05
8.20616e-06
2.08472e-06
1.11333e-06
1.05655e-06
1.11036e-06
1.54063e-06
4.2443e-06
1.59991e-05
4.10754e-05
5.52912e-05
2.55091e-05
8.11732e-06
2.38103e-06
1.17944e-06
1.26006e-06
3.61788e-06
1.29347e-05
3.47351e-05
6.76293e-05
7.82863e-05
4.31529e-05
1.79462e-05
5.12228e-06
1.33778e-06
1.42585e-06
6.82823e-06
2.29884e-05
5.10793e-05
8.81392e-05
9.71783e-05
5.84398e-05
2.7827e-05
8.53721e-06
1.55584e-06
1.72204e-06
9.96786e-06
3.21365e-05
6.52852e-05
0.000105795
0.000113225
7.08659e-05
3.53094e-05
1.09318e-05
1.9003e-06
2.07709e-06
1.15356e-05
3.73523e-05
7.49267e-05
0.000119198
0.000123043
7.72771e-05
3.84601e-05
1.18957e-05
2.2395e-06
2.39645e-06
1.22018e-05
3.93526e-05
7.91776e-05
0.000126321
0.000129352
8.09465e-05
4.01925e-05
1.24921e-05
2.54862e-06
2.70066e-06
1.27914e-05
4.10651e-05
8.27836e-05
0.000132511
0.000135433
8.44748e-05
4.18646e-05
1.3067e-05
2.85087e-06
3.00359e-06
1.33448e-05
4.2683e-05
8.62317e-05
0.000138506
0.000141334
8.78523e-05
4.34425e-05
1.36073e-05
3.1541e-06
3.3061e-06
1.38821e-05
4.42393e-05
8.95581e-05
0.000144336
0.000147105
9.11235e-05
4.49671e-05
1.41365e-05
3.45716e-06
3.61074e-06
1.4403e-05
4.57371e-05
9.27949e-05
0.000150091
0.000152853
9.43496e-05
4.64605e-05
1.46592e-05
3.76234e-06
3.91519e-06
1.49359e-05
4.72434e-05
9.60313e-05
0.000155859
0.000158655
9.75952e-05
4.7972e-05
1.51979e-05
4.06692e-06
4.22073e-06
1.54786e-05
4.87569e-05
9.92947e-05
0.000161718
0.000164553
0.000100879
4.94964e-05
1.57507e-05
4.37244e-06
4.52513e-06
1.60453e-05
5.03032e-05
0.000102612
0.000167674
0.000170564
0.000104218
5.10515e-05
1.63238e-05
4.67628e-06
4.82904e-06
1.66207e-05
5.18617e-05
0.000105971
0.000173747
0.000176668
0.000107592
5.26185e-05
1.69048e-05
4.97929e-06
5.13012e-06
1.72098e-05
5.34417e-05
0.000109367
0.0001799
0.000182853
0.000110986
5.41907e-05
1.74929e-05
5.27885e-06
5.42878e-06
1.77907e-05
5.49931e-05
0.000112745
0.000186106
0.000189033
0.000114328
5.57163e-05
1.80664e-05
5.57571e-06
5.72272e-06
1.83538e-05
5.6482e-05
0.000116036
0.000192255
0.000195086
0.000117504
5.7123e-05
1.86017e-05
5.86689e-06
6.01165e-06
1.88445e-05
5.77628e-05
0.000119034
0.000198142
0.000200683
0.000120238
5.82275e-05
1.90315e-05
6.15271e-06
6.29345e-06
1.91901e-05
5.86218e-05
0.000121407
0.000203362
0.000205367
0.000122108
5.87633e-05
1.92637e-05
6.43102e-06
6.56127e-06
1.91365e-05
5.84713e-05
0.000122492
0.000207244
0.0002074
0.000121392
5.72106e-05
1.86138e-05
6.68439e-06
6.83134e-06
1.75745e-05
5.48623e-05
0.000118889
0.000206027
0.000201898
0.000114385
5.09716e-05
1.59812e-05
7.06934e-06
8.69049e-06
1.56298e-05
4.8685e-05
0.000113065
0.000198015
0.000274681
0.000152845
6.95517e-05
2.42609e-05
1.18043e-05
1.53486e-05
4.14057e-05
0.00012204
0.000271729
0.000484772
0.000600075
0.000369689
0.000187421
6.53855e-05
1.94333e-05
2.37483e-05
9.7633e-05
0.000257808
0.00046967
0.000724281
0.000839433
0.000566674
0.000326752
0.00013071
2.779e-05
3.12577e-05
0.000163351
0.000391068
0.000656331
0.00094674
0.00104672
0.000739939
0.000450265
0.000190422
3.40577e-05
3.688e-05
0.000216933
0.000503725
0.000815312
0.00113648
0.00120878
0.000882328
0.00055412
0.000242936
3.9578e-05
4.19752e-05
0.000269763
0.000605159
0.000953188
0.00129699
0.00138059
0.00101701
0.000648753
0.000290859
4.40723e-05
4.65006e-05
0.000307552
0.000689962
0.00108103
0.00146825
0.00155849
0.00114731
0.00073279
0.000328514
4.94587e-05
5.44527e-05
0.000347533
0.000775616
0.00120838
0.00163053
0.00170293
0.00127643
0.000828644
0.000379362
5.95598e-05
6.37188e-05
0.000413769
0.000889034
0.00136014
0.00180874
0.00191595
0.00144539
0.000949712
0.000444746
6.75411e-05
7.14208e-05
0.00048095
0.00101069
0.0015295
0.00201932
0.00212407
0.00160871
0.00106771
0.000517112
7.39325e-05
7.44178e-05
0.000536215
0.00110024
0.00165989
0.00222183
0.00214553
0.00162812
0.00108088
0.00052485
7.3007e-05
7.14635e-05
0.00050968
0.00104699
0.00156283
0.00202518
0.00212589
0.00160434
0.00106417
0.000512982
7.27741e-05
7.36406e-05
0.000536272
0.00111083
0.0016778
0.00222268
0.00231915
0.0017526
0.00116282
0.000566957
7.55723e-05
7.58748e-05
0.000582983
0.00120727
0.00182127
0.00241003
0.00249304
0.00188258
0.00124597
0.000600601
7.80397e-05
7.60901e-05
0.000601478
0.00125974
0.00191622
0.00255727
0.00254522
0.00188932
0.00123968
0.000593466
7.50137e-05
6.98487e-05
0.000559725
0.00116943
0.00176835
0.00231891
0.00207625
0.00160784
0.00107406
0.000514086
6.44562e-05
5.91042e-05
0.000474646
0.000998514
0.00151904
0.00203955
0.00191976
0.00144032
0.000940729
0.000441803
5.55097e-05
5.17479e-05
0.000414498
0.000885378
0.0013489
0.001773
0.00180132
0.0013334
0.000865417
0.000403765
5.12182e-05
5.02682e-05
0.000400345
0.000867199
0.00134505
0.00182097
0.0018169
0.00134602
0.000868262
0.000401061
5.05477e-05
5.02436e-05
0.000401787
0.000868045
0.00134597
0.00181887
0.00182643
0.00134982
0.000869024
0.000403115
5.09338e-05
4.99909e-05
0.000403051
0.000872956
0.00135962
0.00184517
0.00186342
0.0013571
0.000870839
0.000402828
5.00625e-05
4.82659e-05
0.000391028
0.000843262
0.00130812
0.00176552
0.00165554
0.00124629
0.00080593
0.000372817
4.65069e-05
4.69265e-05
0.000374206
0.00081556
0.00127161
0.00173095
0.00180428
0.00132521
0.000848215
0.000389848
4.87736e-05
5.00032e-05
0.000410263
0.000885426
0.00138062
0.00187638
0.00194653
0.00142969
0.00091697
0.000424223
5.02185e-05
4.93977e-05
0.000423674
0.000922223
0.0014482
0.00199822
0.00190005
0.00140379
0.000898382
0.000410725
4.74579e-05
4.50645e-05
0.000394562
0.000867844
0.00134629
0.00179085
0.00188201
0.00138009
0.000879019
0.000394384
4.43812e-05
4.64951e-05
0.000408043
0.000914401
0.00144198
0.0019741
0.00205933
0.00150552
0.000955667
0.000426451
4.82708e-05
4.94458e-05
0.000441812
0.000987509
0.00156032
0.00213907
0.00220473
0.00158622
0.00100104
0.000448926
4.99483e-05
4.9332e-05
0.000444532
0.000982896
0.001545
0.00210189
0.00199327
0.00149493
0.000962717
0.000437562
4.88184e-05
4.91358e-05
0.000443232
0.000983385
0.0015407
0.00210095
0.00221152
0.00161737
0.00102636
0.000460284
5.05552e-05
5.30878e-05
0.00047925
0.00107325
0.00169307
0.00231759
0.00241796
0.00176397
0.00111704
0.000504338
5.47906e-05
5.54e-05
0.000510408
0.0011376
0.0018006
0.00250403
0.00239438
0.00175807
0.0011198
0.000506959
5.46304e-05
5.36621e-05
0.000503922
0.0011056
0.00171377
0.00228312
0.0024132
0.00177164
0.00113204
0.000511599
5.40504e-05
5.55651e-05
0.000531929
0.00118658
0.00186605
0.00254816
0.00268141
0.00195633
0.00123851
0.000555247
5.82367e-05
6.00054e-05
0.000570774
0.00126731
0.00200717
0.00279328
0.00268324
0.00197347
0.00126159
0.000571402
6.00212e-05
5.92085e-05
0.00057016
0.00124905
0.0019365
0.00257447
0.00273078
0.00200723
0.00128109
0.000579948
6.00129e-05
6.25748e-05
0.00060399
0.00133885
0.00210961
0.00289293
0.00303066
0.00217203
0.00137336
0.000622643
6.47674e-05
6.42522e-05
0.000623927
0.00136868
0.00214374
0.00292047
0.00281792
0.00211637
0.00136592
0.000624552
6.45088e-05
6.59326e-05
0.000641876
0.00141332
0.00220833
0.00300105
0.0031905
0.00233019
0.00147905
0.000669279
6.84453e-05
7.0581e-05
0.000690041
0.00152222
0.00241097
0.00336316
0.0032547
0.00239235
0.00153308
0.000700641
7.15726e-05
7.24112e-05
0.000712965
0.00154407
0.00237875
0.00315796
0.00337802
0.00249196
0.00160345
0.000734547
7.35813e-05
7.48442e-05
0.000761086
0.00168495
0.00264701
0.00361387
0.00383323
0.00275828
0.00174573
0.00079351
7.99257e-05
8.4383e-05
0.000824686
0.00177634
0.00275745
0.00373836
0.00366035
0.00276695
0.00180875
0.000848813
8.87467e-05
9.33915e-05
0.000885083
0.00187783
0.00290289
0.00392624
0.00419373
0.00303167
0.0019465
0.000917564
9.75467e-05
9.94644e-05
0.000935939
0.00197203
0.00303696
0.00410365
0.00403427
0.00305112
0.00199761
0.000947845
9.76413e-05
9.49892e-05
0.000950528
0.00205331
0.00319829
0.00433473
0.00464719
0.00333248
0.00210048
0.000939802
8.79671e-05
8.96463e-05
0.000941294
0.00212451
0.00335264
0.00456731
0.00453407
0.00339803
0.00218192
0.000986872
9.83303e-05
0.000107179
0.00103722
0.00226529
0.00354859
0.00490618
0.00488714
0.0036208
0.00233918
0.0010866
0.000115203
0.000124676
0.00114668
0.00242771
0.00371788
0.00490407
0.0053377
0.00390564
0.00253515
0.00120577
0.000133496
0.000142193
0.00126366
0.0026266
0.00400258
0.00534997
0.00539258
0.00412713
0.00273773
0.00132915
0.000151668
0.000160725
0.00139869
0.00286841
0.00435317
0.00588386
0.00592822
0.00447717
0.00298075
0.00146328
0.000170235
0.000180659
0.0015363
0.00311204
0.00463668
0.00599153
0.00650796
0.00485881
0.00322303
0.00159058
0.000186554
0.000178877
0.00158821
0.0032349
0.00488999
0.00650064
0.00647912
0.00485623
0.00317422
0.00152883
0.00017577
0.000189947
0.00152484
0.00314037
0.00483289
0.00648502
0.00668001
0.00495899
0.00321894
0.00158253
0.00021447
0.000223759
0.00165523
0.00336069
0.00512027
0.00682526
0.007287
0.00543802
0.00353733
0.00170226
0.000215361
0.000196263
0.00167051
0.00359123
0.0055783
0.00760332
0.0074578
0.00555545
0.00360854
0.0017183
0.000207879
0.000253375
0.00185213
0.00368237
0.00553209
0.00733193
0.0072184
0.00549214
0.00374933
0.00197948
0.000292502
0.000308922
0.00201802
0.00368279
0.00537128
0.00705578
0.00679917
0.00510028
0.00340731
0.00175408
0.000310792
0.000298231
0.00140822
0.00295917
0.00462543
0.00634315
0.00535546
0.0039002
0.0024539
0.00110729
0.000264402
0.000226967
0.000890249
0.00207321
0.00340431
0.00477108
0.00419541
0.00297961
0.00183481
0.000815969
0.000205467
0.000191204
0.000711339
0.00165072
0.00273474
0.00391587
0.00351787
0.00247838
0.00149841
0.000638176
0.000174761
0.000161363
0.000569905
0.00138907
0.00234527
0.00339082
0.00307192
0.00213258
0.00125665
0.000500567
0.000143293
0.000120465
0.000452406
0.00119941
0.00208039
0.0030525
0.00280508
0.00194613
0.00113361
0.00042108
0.000107647
0.00010862
0.000462311
0.00115628
0.00196735
0.00287339
0.00268747
0.00189934
0.00115244
0.000484621
0.000107815
0.000105903
0.000509938
0.00118601
0.00195341
0.00280032
0.00271308
0.00190029
0.0011765
0.000518068
0.000103627
9.87132e-05
0.00050439
0.00112215
0.00176844
0.00238902
0.0024693
0.0017897
0.00113626
0.000512402
9.39087e-05
9.29026e-05
0.000542617
0.00114695
0.00176835
0.00240135
0.00255596
0.0018578
0.00120025
0.0005775
9.56388e-05
9.8626e-05
0.00059594
0.00121376
0.00185342
0.00255141
0.00233248
0.00177996
0.00119796
0.000606721
0.00010088
0.000101094
0.000603426
0.00120941
0.00181809
0.00243731
0.00243282
0.0017974
0.00120087
0.000600927
0.000100188
9.76574e-05
0.000579364
0.00116217
0.00172197
0.00223951
0.00233545
0.00175109
0.00116105
0.000560059
9.37486e-05
8.96967e-05
0.000553476
0.00114713
0.00172823
0.00233563
0.002155
0.00165993
0.00111421
0.000537244
8.59791e-05
8.24345e-05
0.000539195
0.00112599
0.00169121
0.00224123
0.00223403
0.00170472
0.00114947
0.00056605
8.15876e-05
8.41929e-05
0.0005978
0.00120385
0.00179668
0.00238349
0.00242049
0.00181205
0.00122235
0.000614752
8.63182e-05
8.72504e-05
0.000615503
0.00121286
0.00176758
0.00227249
0.00238189
0.00181718
0.00123204
0.000623304
8.77364e-05
8.83071e-05
0.000628368
0.00123699
0.00182031
0.00241322
0.00226714
0.00177198
0.00121929
0.000621773
8.81651e-05
8.8436e-05
0.000628977
0.00123877
0.0018183
0.00237267
0.0024036
0.00181485
0.00123337
0.000622446
8.80484e-05
8.73525e-05
0.000616876
0.00121467
0.00176708
0.00226275
0.00236415
0.00180917
0.0012266
0.000616585
8.65924e-05
8.57089e-05
0.000608373
0.00122265
0.00180917
0.0023976
0.0022575
0.00175999
0.0012021
0.000601073
8.43082e-05
8.33832e-05
0.000601983
0.001217
0.00180283
0.00235909
0.00239476
0.00180298
0.00121453
0.000600411
8.23427e-05
8.09774e-05
0.000589001
0.00119494
0.00175894
0.00225816
0.00236182
0.00180593
0.00121794
0.000603697
8.06934e-05
8.05431e-05
0.000600546
0.00121651
0.00180767
0.00240291
0.0022694
0.00176614
0.00119977
0.0005949
7.98354e-05
7.9103e-05
0.000593366
0.0012186
0.00181481
0.00237819
0.00242405
0.00181761
0.00121145
0.000587273
7.77777e-05
7.53455e-05
0.000558443
0.00116676
0.00174732
0.00230148
0.00215071
0.00166762
0.00111703
0.000531872
7.24171e-05
7.06233e-05
0.000531822
0.00112243
0.00169443
0.00223567
0.00227122
0.00169142
0.00111928
0.000533528
6.95777e-05
6.90121e-05
0.000533721
0.00110585
0.00165179
0.00214192
0.00224374
0.00169928
0.00112747
0.000540761
6.89054e-05
6.85241e-05
0.000537591
0.00112666
0.00170188
0.00228517
0.002156
0.0016629
0.00111198
0.000534158
6.78578e-05
6.76545e-05
0.000534384
0.0011288
0.00170793
0.00225759
0.00230073
0.00171189
0.00113031
0.000539367
6.72848e-05
6.69954e-05
0.000527489
0.00111293
0.00167145
0.00216844
0.0022701
0.00171563
0.00113172
0.000535142
6.64569e-05
6.64251e-05
0.000532206
0.00112878
0.00171494
0.0023098
0.00217445
0.00167292
0.00111214
0.000526933
6.58101e-05
6.56634e-05
0.000532275
0.00112886
0.00171531
0.00227407
0.00231258
0.00171532
0.00112588
0.000527534
6.53904e-05
6.45982e-05
0.000520071
0.00110677
0.00166938
0.00217418
0.00227204
0.00170986
0.00112135
0.000525395
6.4451e-05
6.4097e-05
0.000520047
0.00111664
0.00170869
0.00231009
0.00216865
0.00166089
0.00109424
0.000508381
6.30424e-05
6.23313e-05
0.000513932
0.00110917
0.00169876
0.00226439
0.00229926
0.00169424
0.00110414
0.000513551
6.19538e-05
6.12935e-05
0.000501906
0.00108259
0.00164817
0.00215715
0.00225139
0.00168564
0.00109687
0.000505773
6.05839e-05
6.03562e-05
0.000504751
0.00109158
0.00168214
0.00228436
0.0021435
0.00163634
0.00107411
0.00049548
5.96365e-05
5.87367e-05
0.000495686
0.00108498
0.00167316
0.00223802
0.00227174
0.00166901
0.0010806
0.000497011
5.81993e-05
5.78476e-05
0.000485923
0.00106396
0.00162804
0.00213567
0.00223649
0.00167082
0.00108137
0.000493555
5.76351e-05
5.79253e-05
0.000492454
0.00108333
0.00167635
0.00228156
0.00216298
0.00164776
0.00107816
0.000493345
5.77865e-05
5.91276e-05
0.000505015
0.00110763
0.00171026
0.00228597
0.00235203
0.00173519
0.00112508
0.000514888
6.01564e-05
6.156e-05
0.000526037
0.00114534
0.00174157
0.00227446
0.00243891
0.00184449
0.00120527
0.000551396
6.35107e-05
6.68512e-05
0.000578796
0.00125818
0.00192247
0.00258634
0.00256085
0.00197505
0.0013134
0.00061047
7.13011e-05
7.84362e-05
0.000668663
0.0014294
0.00212956
0.00273505
0.00299372
0.00234825
0.00158775
0.000745554
8.76405e-05
9.88813e-05
0.000842693
0.00180181
0.00270494
0.00352175
0.00382581
0.00288876
0.00192288
0.000901418
0.000105911
0.000110783
0.00091501
0.00193264
0.00289284
0.00380083
0.00360305
0.00281485
0.00189831
0.00090338
0.000111937
0.000114242
0.000914104
0.0019296
0.00288304
0.00375311
0.0037982
0.00293255
0.00197604
0.000940883
0.000118579
0.000123191
0.000982149
0.00206387
0.00309805
0.00404552
0.00414141
0.00313255
0.00209252
0.00100171
0.000127771
0.000130763
0.000997433
0.00206582
0.00305552
0.00391259
0.00408852
0.00313483
0.00209727
0.00100453
0.000125361
0.000124204
0.00100225
0.00208984
0.00313211
0.00415134
0.00389967
0.00303717
0.00204534
0.00098295
0.000122433
0.000121868
0.00099336
0.00207629
0.00311249
0.00406834
0.00412624
0.00310944
0.00207341
0.000995821
0.000121942
0.000121223
0.000978746
0.00203084
0.00301387
0.0038738
0.00404222
0.00308644
0.0020567
0.000983431
0.00012048
0.000119986
0.000983312
0.00205187
0.00308349
0.00410033
0.00384719
0.00298583
0.00200496
0.000957753
0.00011894
0.000118662
0.000967902
0.00203278
0.0030597
0.00401731
0.00407576
0.0030579
0.00202907
0.000968923
0.000118601
0.000117429
0.000950333
0.00198626
0.00296153
0.0038214
0.00399028
0.00303277
0.00201089
0.000954716
0.00011682
0.0001162
0.00094596
0.00199785
0.00302502
0.00404279
0.0037834
0.00292322
0.00195026
0.000925358
0.000114993
0.000114047
0.000923072
0.00196628
0.00298631
0.00394649
0.0039838
0.00297083
0.00195308
0.000917027
0.000112554
0.000111624
0.000903223
0.00190772
0.00286798
0.00372048
0.00385851
0.00292446
0.00193262
0.000912181
0.000112269
0.000114049
0.000926524
0.00196046
0.00294849
0.00386394
0.00409558
0.00309318
0.00202911
0.000951793
0.000116545
0.000117712
0.000954451
0.00203708
0.00309633
0.00414894
0.0038801
0.00298946
0.00198603
0.000938993
0.000117376
0.000116668
0.000939233
0.00200332
0.00305024
0.00404217
0.00406403
0.00302204
0.00197903
0.000927306
0.000115154
0.000113588
0.000902407
0.00192439
0.00290855
0.00378015
0.00391587
0.00295586
0.00194115
0.000907283
0.000113167
0.000114358
0.000917291
0.00196215
0.00297059
0.00390775
0.0041398
0.0031111
0.00202725
0.000940521
0.000116007
0.000116656
0.000943516
0.00202845
0.00310472
0.00418008
0.00389162
0.00298563
0.00197098
0.00092158
0.000115906
0.000114843
0.000920286
0.0019839
0.00304389
0.00405496
0.0040684
0.00300895
0.00195637
0.000904917
0.000113644
0.000112594
0.000884686
0.00189844
0.00288529
0.00376695
0.00390205
0.00292934
0.00191138
0.000885731
0.00011243
0.000113372
0.000895551
0.0019297
0.00293827
0.0038853
0.00411878
0.00307751
0.00198994
0.000915984
0.000115095
0.000115439
0.000916697
0.00199013
0.00306858
0.0041524
0.00384731
0.00294135
0.00193143
0.000896508
0.000114472
0.000113556
0.000893113
0.00193827
0.00299324
0.00400764
0.00401443
0.00295624
0.00190941
0.000876203
0.000112382
0.000110608
0.000845582
0.00184223
0.00282004
0.0037006
0.00383217
0.00286142
0.00185
0.000848371
0.000110114
0.000110761
0.00085555
0.00186443
0.00285919
0.00380225
0.00403254
0.00298986
0.0019162
0.0008735
0.0001119
0.000112337
0.000873764
0.00191158
0.00296948
0.00404761
0.00372794
0.00283663
0.00185168
0.000853865
0.000111209
0.000111385
0.000854308
0.00186073
0.00287893
0.00386087
0.0038279
0.00287855
0.00187732
0.000864401
0.000112704
0.000114025
0.000879165
0.00192346
0.00300127
0.00405484
0.00406702
0.00298091
0.00191351
0.000873977
0.000113729
0.000112184
0.000842158
0.00184611
0.00283578
0.00373165
0.0038632
0.00287285
0.00184775
0.000840921
0.000111499
0.000111992
0.000845007
0.00185421
0.0028617
0.00381901
0.00404528
0.00298254
0.00190091
0.000860035
0.000112717
0.000112546
0.000857764
0.00189115
0.00295773
0.00405047
0.00370737
0.00281075
0.00182501
0.000836177
0.000111684
0.000111613
0.000832493
0.00182852
0.00284795
0.00383962
0.00379233
0.00283666
0.0018366
0.000837628
0.000112211
0.000113218
0.000852267
0.00188334
0.00296014
0.00402086
0.00402568
0.00293274
0.00186982
0.000849141
0.000113309
0.000112256
0.000815201
0.00179866
0.00278068
0.00367561
0.00380701
0.00281284
0.00179518
0.000809312
0.000111435
0.000111847
0.000818274
0.00180361
0.00280036
0.00375656
0.00398071
0.00291987
0.0018489
0.000831704
0.000112708
0.000111998
0.000826584
0.00183309
0.00288966
0.00398039
0.00362163
0.0027333
0.0017604
0.000795421
0.000110366
0.000109237
0.000789408
0.00175669
0.002763
0.0037521
0.00368976
0.00274231
0.00175768
0.00079088
0.000109363
0.0001101
0.000804056
0.0017973
0.00285417
0.00391181
0.00390608
0.00282192
0.00177962
0.000789007
0.000109518
0.000107227
0.000750469
0.00169548
0.00265636
0.00353653
0.00366287
0.00267926
0.0016888
0.00074617
0.000105804
0.000106968
0.000757698
0.00169559
0.00266278
0.00359727
0.00379858
0.0027713
0.00175086
0.000783149
0.000109593
0.000111486
0.000797523
0.00177467
0.00277529
0.00374318
0.0039794
0.00290138
0.00182301
0.000814884
0.000113186
0.00011329
0.000809993
0.00181269
0.00287163
0.00397076
0.00358974
0.00269576
0.00172183
0.000766484
0.000111449
0.000110201
0.000760638
0.00171227
0.00271983
0.00372287
0.00364595
0.0026921
0.00171001
0.000762371
0.00011003
0.000110083
0.000771723
0.0017437
0.0028004
0.00386636
0.00385115
0.00276235
0.00172473
0.000752861
0.000108968
0.000106717
0.000725058
0.00164005
0.00258818
0.00346742
0.00359559
0.00261222
0.00163228
0.000719582
0.000105919
0.000106146
0.000722556
0.00163398
0.00258595
0.00351617
0.00372082
0.00269191
0.00168345
0.000744755
0.000107892
0.000110183
0.000757999
0.00170372
0.00268888
0.00364932
0.00388105
0.00280794
0.00174461
0.000767476
0.000111302