/*--------------------------------*- C++ -*----------------------------------*\
| =========                 |                                                 |
| \\      /  F ield         | OpenFOAM: The Open Source CFD Toolbox           |
|  \\    /   O peration     | Version:  v2006                                 |
|   \\  /    A nd           | Website:  www.openfoam.com                      |
|    \\/     M anipulation  |                                                 |
\*---------------------------------------------------------------------------*/
FoamFile
{
    version     2.0;
    format      ascii;
    class       volVectorField;
    location    "0.01";
    object      U;
}
// * * * * * * * * * * * * * * * * * * * * * * * * * * * * * * * * * * * * * //

dimensions      [0 1 -1 0 0 0 0];


internalField   nonuniform List<vector> 
38932
(
(58.3161 -0.00422393 0)
(58.3178 -0.00138707 0)
(58.3153 -0.000523691 0)
(58.3136 -0.00162233 0)
(58.3099 -0.0028008 6.31082e-20)
(58.3037 -0.00401987 -2.76527e-19)
(58.2946 -0.00546004 2.21593e-19)
(58.2825 -0.00677811 1.04697e-19)
(58.2673 -0.00822803 -1.06624e-19)
(58.2495 -0.00958386 0)
(58.2289 -0.0109817 -5.35311e-20)
(58.2057 -0.0123418 5.02905e-20)
(58.1799 -0.0137011 -4.20331e-22)
(58.1515 -0.0150447 2.10261e-22)
(58.1205 -0.0163807 -5.25873e-23)
(58.0868 -0.0177055 0)
(58.0505 -0.0190194 0)
(58.0117 -0.0203211 0)
(57.9703 -0.0216102 0)
(57.9264 -0.0228878 0)
(57.8799 -0.0241566 0)
(57.831 -0.0254198 0)
(57.7795 -0.0266802 0)
(57.7255 -0.0279394 0)
(57.669 -0.0291973 0)
(57.6101 -0.0304523 0)
(57.5486 -0.0317019 0)
(57.4846 -0.0329432 0)
(57.4182 -0.0341738 0)
(57.3494 -0.0353919 0)
(57.2782 -0.0365963 0)
(57.2046 -0.0377867 0)
(57.1286 -0.0389628 0)
(57.0503 -0.0401245 0)
(56.9697 -0.0412717 0)
(56.8869 -0.0424042 0)
(56.8018 -0.0435217 -1.05294e-22)
(56.7146 -0.0446239 0)
(56.6251 -0.0457101 0)
(56.5335 -0.0467798 0)
(56.4398 -0.0478326 0)
(56.3441 -0.0488678 0)
(56.2463 -0.0498846 0)
(56.1464 -0.0508823 0)
(56.0447 -0.0518602 0)
(55.941 -0.0528176 0)
(55.8354 -0.0537535 0)
(55.7279 -0.0546673 0)
(55.6187 -0.055558 0)
(55.5077 -0.0564248 0)
(55.395 -0.0572668 0)
(55.2807 -0.058083 0)
(55.1648 -0.0588726 0)
(55.0473 -0.0596346 0)
(54.9283 -0.060368 0)
(54.8079 -0.0610718 0)
(54.6862 -0.0617451 0)
(54.5631 -0.0623869 0)
(54.4388 -0.0629963 0)
(54.3133 -0.0635723 0)
(54.1866 -0.064114 0)
(54.059 -0.0646206 0)
(53.9303 -0.0650911 0)
(53.8008 -0.0655247 0)
(53.6704 -0.0659205 1.05563e-22)
(53.5393 -0.0662778 0)
(53.4075 -0.0665959 0)
(53.2751 -0.066874 0)
(53.1421 -0.0671112 0)
(53.0088 -0.0673068 0)
(52.8751 -0.0674601 0)
(52.7411 -0.0675705 0)
(52.607 -0.0676373 0)
(52.4727 -0.0676597 0)
(52.3385 -0.0676372 0)
(52.2044 -0.0675692 0)
(52.0704 -0.0674553 0)
(51.9367 -0.0672948 0)
(51.8034 -0.0670875 0)
(51.6705 -0.0668327 0)
(51.5382 -0.0665301 1.05746e-22)
(51.4065 -0.0661796 -1.05757e-22)
(51.2756 -0.0657808 0)
(51.1456 -0.0653332 0)
(51.0164 -0.0648366 0)
(50.8883 -0.0642909 0)
(50.7614 -0.0636959 0)
(50.6357 -0.0630518 0)
(50.5113 -0.0623586 -5.29168e-23)
(50.3884 -0.0616165 0)
(50.2669 -0.0608259 0)
(50.1471 -0.0599874 0)
(50.0291 -0.0591015 0)
(49.9128 -0.058169 0)
(49.7984 -0.0571905 0)
(49.686 -0.0561672 0)
(49.5757 -0.0551 0)
(49.4676 -0.05399 0)
(49.3617 -0.0528387 0)
(49.2581 -0.0516472 0)
(49.157 -0.050417 0)
(49.0583 -0.04915 0)
(48.9621 -0.0478475 0)
(48.8686 -0.0465112 0)
(48.7778 -0.0451432 5.29905e-23)
(48.6897 -0.0437452 0)
(48.6043 -0.0423189 0)
(48.5219 -0.0408665 0)
(48.4423 -0.0393903 0)
(48.3657 -0.0378924 0)
(48.2921 -0.0363755 0)
(48.2215 -0.0348422 0)
(48.154 -0.0332951 0)
(48.0896 -0.0317369 0)
(48.0283 -0.03017 0)
(47.9701 -0.0285964 0)
(47.9152 -0.027017 -1.06054e-22)
(47.8635 -0.0254296 0)
(47.8153 -0.0238271 0)
(47.7706 -0.0222021 2.66897e-20)
(47.73 -0.0204864 -2.70458e-20)
(47.6941 -0.0186086 -5.73874e-20)
(47.6649 -0.0162859 5.34224e-20)
(47.6464 -0.013126 -1.07527e-19)
(47.6488 -0.00872828 1.58427e-19)
(47.6778 0.0176006 0)
(47.8816 -0.0143459 0)
(47.9342 0.323765 6.38695e-20)
(49.7384 -0.468949 0)
(48.254 3.13071 0)
(51.472 -1.54432 5.29882e-20)
(32.8722 10.5125 0)
(48.7996 0.7175 -9.42294e-19)
(45.2203 0.12946 -4.87033e-20)
(48.1057 1.34817 6.70824e-19)
(48.0149 0.156124 5.71299e-19)
(46.1302 0.0481663 9.00833e-19)
(48.2462 0.0437934 -6.15425e-20)
(47.1007 -0.16475 -1.55605e-19)
(46.8186 -0.167629 0)
(47.6791 -0.113272 0)
(47.5536 -0.187003 2.89889e-19)
(47.01 -0.188378 -3.55921e-19)
(46.1431 -0.184425 2.46657e-23)
(45.2888 -0.148938 1.988e-19)
(46.9759 -0.182729 4.17242e-20)
(47.4843 -0.206504 0)
(47.403 -0.206405 0)
(46.8344 -0.175607 -2.15092e-19)
(44.5331 -0.121046 0)
(43.867 -0.0996315 0)
(46.6385 -0.162837 1.70012e-19)
(47.3088 -0.197036 0)
(47.2065 -0.188407 -1.7991e-20)
(46.4337 -0.152054 0)
(43.2775 -0.0842998 0)
(42.756 -0.072377 0)
(46.2189 -0.141414 -5.39009e-21)
(47.0933 -0.180641 1.80331e-20)
(46.9688 -0.173279 0)
(45.9988 -0.131404 8.11968e-21)
(42.2865 -0.0629409 0)
(41.8599 -0.0554375 0)
(45.7757 -0.122297 -2.70716e-21)
(46.8339 -0.166451 0)
(46.6904 -0.160374 0)
(45.5517 -0.114279 0)
(41.4691 -0.0493911 0)
(41.1083 -0.0445356 0)
(45.3282 -0.107355 0)
(46.5399 -0.155054 0)
(46.3836 -0.15045 0)
(45.1056 -0.10146 0)
(40.7724 -0.0406198 0)
(40.4577 -0.0374587 0)
(44.8848 -0.096486 0)
(46.223 -0.146513 0)
(46.0591 -0.143293 0)
(44.6663 -0.0923399 0)
(40.1607 -0.034918 0)
(39.8773 -0.0329279 0)
(44.4489 -0.0890153 0)
(45.8916 -0.140731 0)
(45.7196 -0.138695 0)
(44.2313 -0.0863659 0)
(39.6036 -0.0313874 0)
(39.3371 -0.0301058 0)
(44.013 -0.0840371 0)
(45.5433 -0.136847 0)
(45.3641 -0.135729 0)
(43.7949 -0.0823117 0)
(39.0769 -0.0291211 0)
(38.8217 -0.0283828 0)
(43.577 -0.0811036 0)
(45.1823 -0.135165 0)
(44.9977 -0.135153 0)
(43.3584 -0.08039 0)
(38.5695 -0.0278744 0)
(38.3196 -0.0275426 0)
(43.1389 -0.0800056 0)
(44.8101 -0.135492 0)
(44.6194 -0.136046 0)
(42.9181 -0.0798044 0)
(38.0714 -0.0273154 0)
(37.824 -0.0271398 0)
(42.6954 -0.079729 0)
(44.4253 -0.136787 0)
(44.2272 -0.137771 0)
(42.4704 -0.0798211 0)
(37.5763 -0.0270263 0)
(37.328 -0.0269668 0)
(42.2426 -0.0800751 0)
(44.0251 -0.139012 0)
(43.8188 -0.140495 0)
(42.0118 -0.0804776 0)
(37.0789 -0.0269561 0)
(36.8287 -0.0269721 0)
(41.7778 -0.080985 0)
(43.608 -0.142176 0)
(43.3924 -0.144044 0)
(41.5402 -0.0815913 0)
(36.577 -0.0270169 0)
(36.3237 -0.027092 0)
(41.2987 -0.0823019 0)
(43.1718 -0.146097 0)
(42.9459 -0.148331 0)
(41.0531 -0.0831038 0)
(36.0685 -0.0271901 0)
(35.8111 -0.0273292 0)
(40.8029 -0.0840238 0)
(42.7143 -0.150767 0)
(42.477 -0.153434 0)
(40.548 -0.0850803 0)
(35.5512 -0.0275112 0)
(35.2884 -0.027752 0)
(40.2881 -0.0862843 0)
(42.2336 -0.156334 0)
(41.9839 -0.159484 0)
(40.0228 -0.0876428 0)
(35.0223 -0.0280492 0)
(34.7524 -0.028413 0)
(39.7517 -0.0891766 0)
(41.7275 -0.162908 0)
(41.4642 -0.166632 0)
(39.4745 -0.0909052 0)
(34.478 -0.0288547 0)
(34.1986 -0.0293828 0)
(39.1906 -0.0928483 0)
(41.1935 -0.17068 0)
(40.9152 -0.175052 0)
(38.8996 -0.0950129 0)
(33.9136 -0.0299992 0)
(33.6222 -0.0306724 0)
(38.6011 -0.0973473 0)
(40.6289 -0.179721 0)
(40.3342 -0.184764 0)
(38.2944 -0.0999301 0)
(33.3236 -0.0314455 0)
(33.0173 -0.032307 0)
(37.9791 -0.102737 0)
(40.0306 -0.190162 0)
(39.7177 -0.19591 0)
(37.6546 -0.105755 0)
(32.7026 -0.0332452 0)
(32.3787 -0.0342571 0)
(37.3204 -0.108981 0)
(39.395 -0.202013 0)
(39.0621 -0.208466 0)
(36.9758 -0.112405 0)
(32.0451 -0.0353366 0)
(31.7012 -0.0364771 0)
(36.6204 -0.116017 0)
(38.7184 -0.215266 0)
(38.3633 -0.222404 0)
(36.2535 -0.119803 0)
(31.3464 -0.037671 0)
(30.9803 -0.0389116 0)
(35.8745 -0.123754 0)
(37.9963 -0.229873 0)
(37.6167 -0.237667 0)
(35.4829 -0.127857 0)
(30.6024 -0.040193 0)
(30.2124 -0.0415104 0)
(35.0782 -0.132106 0)
(37.2241 -0.245781 0)
(36.8177 -0.254214 0)
(34.6597 -0.136495 0)
(29.8098 -0.0428606 0)
(29.3943 -0.0442427 0)
(34.2269 -0.141025 0)
(36.3968 -0.262968 0)
(35.961 -0.272053 0)
(33.7793 -0.145698 0)
(28.9656 -0.0456573 0)
(28.5232 -0.0471073 0)
(33.3162 -0.150525 0)
(35.5094 -0.281481 0)
(35.0413 -0.291271 0)
(32.837 -0.155514 0)
(28.0668 -0.0485972 0)
(27.5959 -0.050134 0)
(32.3412 -0.160685 0)
(34.556 -0.301449 0)
(34.0528 -0.312042 0)
(31.8279 -0.166054 0)
(27.1099 -0.0517241 0)
(26.6084 -0.0533765 0)
(31.2965 -0.171642 0)
(33.5308 -0.323083 0)
(32.9891 -0.334608 0)
(30.7461 -0.177471 0)
(26.0905 -0.0550992 0)
(25.5557 -0.0569027 0)
(30.176 -0.183564 0)
(32.4269 -0.346654 0)
(31.8431 -0.359259 0)
(29.5852 -0.189943 0)
(25.003 -0.058795 0)
(24.4318 -0.0607838 0)
(28.9727 -0.196625 0)
(31.2368 -0.372457 0)
(30.6069 -0.386274 0)
(28.3376 -0.203621 0)
(23.841 -0.0628729 0)
(23.2299 -0.0650678 0)
(27.6788 -0.210941 0)
(29.9522 -0.400731 0)
(29.2715 -0.41583 0)
(26.9953 -0.218577 0)
(22.5974 -0.0673667 0)
(21.9428 -0.0697607 0)
(26.2859 -0.226515 0)
(28.5636 -0.43156 0)
(27.8272 -0.447899 0)
(25.5495 -0.234736 0)
(21.2652 -0.0722452 0)
(20.5637 -0.0748135 0)
(24.7851 -0.243211 0)
(27.0609 -0.464817 0)
(26.2634 -0.482299 0)
(23.9916 -0.251924 0)
(19.8377 -0.0774569 0)
(19.0866 -0.0801674 0)
(23.168 -0.260838 0)
(25.4335 -0.500283 0)
(24.5699 -0.518753 0)
(22.3136 -0.269946 0)
(18.3099 -0.0829419 0)
(17.5072 -0.085757 0)
(21.4274 -0.279252 0)
(23.6715 -0.537701 0)
(22.737 -0.557111 0)
(20.5088 -0.288766 0)
(16.6781 -0.0886111 0)
(15.8222 -0.0914942 0)
(19.5568 -0.298469 0)
(21.7653 -0.576955 0)
(20.7552 -0.597225 0)
(18.5708 -0.308361 0)
(14.9391 -0.0944061 0)
(14.0285 -0.0973503 0)
(17.5501 -0.318436 0)
(19.7057 -0.617878 0)
(18.6157 -0.638964 0)
(16.494 -0.328741 0)
(13.0898 -0.100354 0)
(12.1227 -0.1034 0)
(15.4019 -0.339254 0)
(17.4844 -0.66047 0)
(16.311 -0.682478 0)
(14.2733 -0.350058 0)
(11.1267 -0.106538 0)
(10.1006 -0.109726 0)
(13.1072 -0.361077 0)
(15.0946 -0.704904 0)
(13.8345 -0.727447 0)
(11.9028 -0.372184 0)
(9.04402 -0.112943 0)
(7.9569 -0.116257 0)
(10.6605 -0.383395 0)
(12.5303 -0.749868 0)
(11.1831 -0.771954 0)
(9.38017 -0.394605 0)
(6.83831 -0.119673 0)
(5.68927 -0.123005 0)
(8.06366 -0.405223 0)
(9.79495 -0.79257 0)
(8.36969 -0.80936 0)
(6.71422 -0.413963 0)
(4.51135 -0.125843 0)
(3.31391 -0.127306 0)
(5.34152 -0.418553 0)
(6.9166 -0.818546 0)
(5.45151 -0.81479 0)
(3.96339 -0.415757 0)
(2.11485 -0.12608 0)
(0.941625 -0.127356 0)
(2.60532 -0.410064 0)
(3.9986 -0.798776 0)
(2.59718 -0.755518 0)
(1.30149 -0.384657 0)
(-0.234457 -0.117008 0)
(-1.24199 -0.0902863 0)
(0.0774328 -0.330266 0)
(1.27153 -0.675217 0)
(0.0250725 -0.573025 0)
(-1.00642 -0.268633 0)
(-2.04119 -0.0653319 0)
(-2.6759 -0.0500704 0)
(-1.88976 -0.210636 0)
(-1.05671 -0.460709 0)
(-1.94845 -0.362037 0)
(-2.59565 -0.161934 0)
(-3.15949 -0.0369474 0)
(-3.53234 -0.0264396 0)
(-3.16498 -0.126811 0)
(-2.67212 -0.294984 0)
(-3.26537 -0.218048 0)
(-3.61759 -0.086091 0)
(-3.79818 -0.013086 0)
(-3.93538 0.000469381 0)
(-3.93872 -0.0478613 0)
(-3.71279 -0.147627 0)
(-4.05217 -0.0921226 0)
(-4.16063 -0.0157247 0)
(-3.96194 0.0145118 0)
(-3.88966 0.0276581 0)
(-4.31067 0.0087655 0)
(-4.31416 -0.0536126 0)
(-4.54006 -0.0328691 0)
(-4.42918 0.0263796 0)
(-3.73616 0.0408236 0)
(-3.5142 0.0418145 0)
(-4.54578 0.0320914 -4.40119e-20)
(-4.76595 -0.0277203 0)
(-4.98882 -0.0366146 0)
(-4.63726 0.0182983 4.40286e-20)
(-3.32832 0.0214558 0)
(-3.27169 -0.00173119 0)
(-4.70455 -0.0106657 0)
(-5.18107 -0.0554644 0)
(-5.33751 -0.0769785 0)
(-4.78533 -0.0364526 0)
(-3.33464 -0.0126831 0)
(-3.44982 -0.0162921 0)
(-4.90173 -0.0506868 0)
(-5.47336 -0.092583 0)
(-5.59505 -0.0977996 0)
(-5.03537 -0.0559708 0)
(-3.59112 -0.0181006 0)
(-3.73811 -0.0184761 0)
(-5.16705 -0.0549892 -4.40372e-20)
(-5.69881 -0.0928575 0)
(-5.77662 -0.0797661 0)
(-5.28087 -0.0495658 4.39959e-20)
(-3.87526 -0.0175255 0)
(-3.99143 -0.0154415 0)
(-5.36524 -0.0407269 -4.40376e-20)
(-5.82146 -0.0606033 0)
(-5.82735 -0.0373061 0)
(-5.41173 -0.0294731 4.404e-20)
(-4.07796 -0.0126222 0)
(-4.12869 -0.00964304 0)
(-5.41434 -0.0162484 0)
(-5.79052 -0.011583 0)
(-5.70934 0.0157154 0)
(-5.3698 -0.00220151 -4.40386e-20)
(-4.14134 -0.00636718 0)
(-4.11378 -0.00252102 0)
(-5.27626 0.0121642 4.39967e-20)
(-5.58308 0.0438322 0)
(-5.4141 0.0708126 0)
(-5.13566 0.0263053 0)
(-4.04304 0.00199947 0)
(-3.92887 0.00617333 0)
(-4.95353 0.0396453 0)
(-5.20674 0.0948205 0)
(-4.96569 0.115108 0)
(-4.73467 0.0515267 0)
(-3.77673 0.00935329 0)
(-3.5928 0.0121626 0)
(-4.48522 0.0611201 0)
(-4.69683 0.131402 0)
(-4.40739 0.143583 0)
(-4.21297 0.0680526 0)
(-3.38326 0.0145968 0)
(-3.15571 0.0162926 0)
(-3.92476 0.0724451 0)
(-4.10341 0.151262 0)
(-3.79291 0.154699 0)
(-3.62855 0.0744492 0)
(-2.91748 0.0174057 -2.65798e-20)
(-2.67518 0.0176665 2.65546e-20)
(-3.33059 0.0742951 0)
(-3.48159 0.154015 0)
(-3.17535 0.149884 0)
(-3.03666 0.07248 0)
(-2.43554 0.0172619 -2.65811e-20)
(-2.20282 0.0166097 6.77637e-25)
(-2.75233 0.0692608 0)
(-2.87943 0.143298 0)
(-2.59659 0.134565 0)
(-2.48046 0.0653986 0)
(-1.98075 0.0150832 2.65563e-20)
(-1.77205 0.0134933 0)
(-2.22331 0.060914 -4.40516e-20)
(-2.32928 0.124715 0)
(-2.0791 0.114718 0)
(-1.98278 0.055962 4.40094e-20)
(-1.57745 0.0121921 0)
(-1.39742 0.0108404 0)
(-1.75888 0.0509099 0)
(-1.8458 0.104597 0)
(-1.62989 0.0948237 0)
(-1.55188 0.0460491 0)
(-1.23207 0.00958895 0)
(-1.07989 0.00848422 0)
(-1.36073 0.0414432 0)
(-1.43026 0.0856312 0)
(-1.24553 0.0772797 0)
(-1.18407 0.037221 -4.37034e-20)
(-0.93991 0.00756033 0)
(-0.810167 0.00684028 0)
(-1.01984 0.033483 4.3661e-20)
(-1.07377 0.0699417 0)
(-0.913403 0.0637205 -1.42889e-19)
(-0.866559 0.0300192 1.70682e-19)
(-0.689656 0.00651466 0)
(-0.573111 0.00604958 0)
(-0.721145 0.0275752 -1.71752e-19)
(-0.762087 0.0586801 0)
(-0.61819 0.054802 0)
(-0.583662 0.0256734 6.51719e-19)
(-0.462804 0.00573304 0)
(-0.354526 0.0054662 0)
(-0.450365 0.024445 -6.92779e-19)
(-0.480151 0.0517553 -1.41404e-19)
(-0.348572 0.048444 4.16563e-19)
(-0.324154 0.0234445 0)
(-0.252393 0.00499314 0)
(-0.156332 0.00435829 0)
(-0.206198 0.0216959 -7.58884e-19)
(-0.2272 0.0448345 3.08301e-19)
(-0.119978 0.0360999 -6.28027e-19)
(-0.102406 0.0169137 1.47997e-18)
(-0.0732398 0.00261345 -8.76701e-19)
(-0.0142817 9.6201e-05 0)
(-0.0230036 0.00680104 0)
(-0.0325675 0.0188545 3.34377e-19)
(-0.0445656 0.0548251 -1.22279e-19)
(-0.0503969 0.12431 0)
(-0.0498515 0.19793 -8.37688e-19)
(-0.0492402 0.276178 8.32352e-19)
(-0.0455819 0.347956 -1.95794e-19)
(-0.0420103 0.413908 3.96998e-19)
(-0.0374278 0.469339 -3.94621e-19)
(-0.0327093 0.514429 0)
(-0.0274604 0.547655 2.49581e-20)
(-0.0216637 0.568384 -2.50701e-20)
(-0.0152367 0.575467 5.02648e-20)
(-0.00844876 0.568699 -5.09296e-20)
(-0.00198309 0.54759 5.15661e-20)
(0.00354982 0.515211 -5.48945e-20)
(0.00395764 0.472367 -1.81687e-18)
(0.00498399 0.440308 -1.02375e-17)
(0.00391912 0.399213 1.19617e-17)
(0.00450755 0.376647 0)
(0.0275664 0.336238 0)
(0.0265157 0.319476 8.70662e-18)
(0.000401556 0.244744 0)
(0.00405829 0.211067 5.53219e-17)
(0.0126741 0.188575 -4.34303e-17)
(0.01331 0.170676 2.20356e-17)
(-0.00433604 0.111049 5.25883e-24)
(-0.000188631 0.0945165 -5.32796e-17)
(-0.000200611 0.0830851 1.02275e-16)
(0.000929255 0.0673414 -1.09965e-16)
(0.00208963 0.0528177 0)
(0.000870172 0.0353974 4.71061e-17)
(-0.000273407 0.0199139 -1.9264e-16)
(-0.000114591 0.0125978 1.22326e-16)
(-0.000672031 0.00614693 0)
(-0.00136051 0.00127718 0)
(-0.00855065 6.09846e-05 0)
(-0.0072094 0.00067731 1.43054e-17)
(-0.00476921 0.00336653 1.27434e-25)
(-0.000253989 0.0066511 -1.2982e-17)
(0.00511153 0.0138469 -2.22402e-18)
(0.00694111 0.0170383 -2.94258e-25)
(0.00261336 0.00926643 7.50427e-18)
(-0.00345112 0.00509209 0)
(-0.00919804 0.00055294 0)
(-0.0145051 0.000429833 0)
(-0.02014 0.00166891 0)
(-0.0133642 0.00334965 7.71713e-19)
(-0.00450568 0.00970271 -7.38295e-19)
(0.00298932 0.014579 -1.38819e-18)
(0.00912895 0.0233628 -4.60613e-18)
(0.0145753 0.0265662 -1.03399e-18)
(0.00752407 0.0171635 -1.35544e-18)
(-0.000779379 0.0112224 -2.81522e-18)
(-0.0120176 0.00429199 -2.85426e-18)
(-0.0211137 0.00137424 1.50598e-18)
(-0.0252156 0.00174223 -2.13194e-18)
(-0.0130016 0.00555729 2.76694e-18)
(0.00102193 0.0128556 3.03315e-18)
(0.0108195 0.0193016 2.26808e-18)
(0.0188245 0.0286387 0)
(0.0256797 0.0291308 2.30274e-18)
(0.016934 0.0199254 2.46761e-18)
(0.00607815 0.0128524 2.62209e-18)
(-0.00982405 0.00568335 -2.70579e-18)
(-0.0250452 0.00155325 7.01836e-19)
(-0.0283037 0.00157166 -2.84102e-18)
(-0.0100519 0.00566775 1.38049e-18)
(0.00824054 0.0123509 9.698e-25)
(0.0204532 0.0194607 2.56092e-18)
(0.0299923 0.0282091 -1.4541e-17)
(0.0351101 0.0273827 2.53736e-18)
(0.0250116 0.0190181 0)
(0.0115985 0.0118137 0)
(-0.00878183 0.00550555 0)
(-0.0295706 0.00145353 1.4751e-18)
(-0.0319012 0.00148569 1.55448e-18)
(-0.00902639 0.00555747 -1.52669e-18)
(0.0138229 0.0112487 0)
(0.0289505 0.0185699 5.73164e-18)
(0.0401018 0.0267928 5.39248e-18)
(0.0451506 0.0249949 0)
(0.0330362 0.0173078 1.52326e-18)
(0.0161797 0.0102434 3.13342e-18)
(-0.00911291 0.00501987 -4.84192e-18)
(-0.0337307 0.00146152 0)
(-0.0355336 0.00163974 -1.72003e-18)
(-0.00968288 0.00511798 1.69199e-18)
(0.0184454 0.0100849 -1.65243e-18)
(0.0371667 0.0170004 -7.99284e-18)
(0.050444 0.0243255 6.16621e-18)
(0.056319 0.0230369 0)
(0.0416271 0.0158532 8.19417e-19)
(0.0208151 0.0091005 1.70723e-18)
(-0.0101599 0.00445563 -1.2548e-24)
(-0.0370945 0.0016176 1.79488e-18)
(-0.0385072 0.00191747 1.61401e-24)
(-0.0112201 0.00480625 3.65869e-18)
(0.0230497 0.00932759 -3.55011e-18)
(0.0462641 0.0160807 2.52097e-18)
(0.0625542 0.0234048 0)
(0.0699541 0.021934 0)
(0.0515689 0.0149242 -4.25468e-19)
(0.0256526 0.00840456 -3.66822e-18)
(-0.0121265 0.00416152 1.90106e-18)
(-0.0393683 0.00203497 -1.96187e-18)
(-0.0400475 0.00256865 2.06692e-18)
(-0.0144544 0.00417454 0)
(0.0264489 0.00813813 9.43833e-19)
(0.0556064 0.0143919 4.34681e-19)
(0.076239 0.0210696 -9.96143e-20)
(0.0808978 0.0195855 6.6789e-18)
(0.0575473 0.0132243 0)
(0.0246408 0.00730645 2.97067e-18)
(-0.0194676 0.00367482 -8.58978e-18)
(-0.0405411 0.00303525 2.60272e-24)
(-0.0389046 0.00386767 2.46763e-18)
(-0.0247404 0.00418538 1.28736e-17)
(0.0213059 0.00808012 5.31249e-19)
(0.0585203 0.0136485 -7.15956e-18)
(0.0851808 0.0202674 0)
(0.0885226 0.0181824 0)
(0.057454 0.0121582 -1.52401e-18)
(0.0145492 0.00774873 8.75648e-18)
(-0.0309521 0.00416715 -1.71096e-17)
(-0.0342398 0.00465102 2.80494e-18)
(-0.0241239 0.00482108 1.40951e-17)
(-0.0385662 0.00478238 -1.22504e-17)
(-0.000446712 0.00885968 -2.23349e-17)
(0.0481224 0.0119974 1.09042e-18)
(0.0850793 0.0180817 -8.89489e-19)
(0.0797853 0.0142614 -1.39389e-17)
(0.0351597 0.0105602 0)
(-0.0206746 0.00726189 2.46481e-17)
(-0.0317128 0.000700536 -2.07558e-17)
(-0.00367248 0.00280734 -2.34036e-17)
(0.00210371 0.000347935 0)
(-0.015305 0.00148889 0)
(-0.0294132 0.00365085 2.90093e-17)
(0.0086976 0.00465377 -2.5617e-17)
(0.0594163 0.0130017 8.73703e-19)
(0.0333637 -0.00369951 -1.05773e-18)
(-0.028117 0.00144296 0)
(-0.0433263 0.00119042 0)
(-0.0266742 0.000847007 0)
(-0.00177093 0.000406641 0)
(-0.000836359 0.000386305 0)
(-0.0257331 0.00127324 0)
(-0.0430617 0.00189014 0)
(-0.0286893 0.00341216 0)
(0.00898853 0.00316057 0)
(0.00821262 0.00277968 0)
(-0.0326077 0.00204573 0)
(-0.0472304 0.00151472 0)
(-0.02846 0.00102552 0)
(-0.00154863 0.000388657 0)
(-0.00219455 0.000400451 0)
(-0.0311036 0.00113199 0)
(-0.0513525 0.00188103 0)
(-0.0361659 0.00272962 0)
(0.00710235 0.00398148 0)
(0.00911155 0.00369607 0)
(-0.0367645 0.00250015 0)
(-0.0530259 0.00175146 0)
(-0.0321814 0.00109391 0)
(-0.00226681 0.000393844 0)
(-0.00272803 0.000398581 0)
(-0.0342958 0.00110094 0)
(-0.0563124 0.00178563 0)
(-0.0394629 0.00250746 0)
(0.0087069 0.00361705 0)
(0.00750459 0.00301969 0)
(-0.0428771 0.00213421 0)
(-0.0601957 0.00158075 0)
(-0.036773 0.0010408 0)
(-0.0032905 0.000390347 0)
(-0.00379424 0.000398713 0)
(-0.0390293 0.0011085 0)
(-0.0637504 0.00181738 0)
(-0.0459874 0.00256962 0)
(0.00659981 0.00378363 0)
(0.00643886 0.00295657 0)
(-0.048482 0.00206566 0)
(-0.0668842 0.00155223 0)
(-0.0410495 0.0010253 0)
(-0.00423707 0.00038695 0)
(-0.00497615 0.000394055 0)
(-0.0439069 0.00103851 0)
(-0.0713757 0.00159451 0)
(-0.0528083 0.00208477 0)
(0.00411701 0.00289688 0)
(0.000525021 0.00212546 0)
(-0.0583099 0.00163057 0)
(-0.0768631 0.00134461 0)
(-0.0473996 0.000961876 0)
(-0.00592447 0.000382605 0)
(-0.00681044 0.000392347 0)
(-0.0506397 0.00102987 0)
(-0.0819854 0.00158994 0)
(-0.0635003 0.00204547 0)
(-0.00281494 0.00291249 0)
(-0.00574943 0.0019132 0)
(-0.0683748 0.00149067 0)
(-0.0869445 0.00128456 0)
(-0.0538209 0.00093565 0)
(-0.00770213 0.000378702 0)
(-0.00889246 0.000387665 0)
(-0.0578373 0.000950057 0)
(-0.0932842 0.00133635 0)
(-0.0751603 0.00147887 0)
(-0.0109999 0.00190519 0)
(-0.0178543 0.000968806 0)
(-0.0833771 0.00100043 0)
(-0.100801 0.00105683 0)
(-0.0625905 0.000870865 0)
(-0.0103164 0.000375184 0)
(-0.0116916 0.000384284 0)
(-0.0671147 0.000927871 0)
(-0.108004 0.00130726 0)
(-0.0913862 0.00131553 0)
(-0.0246336 0.0017708 0)
(-0.0313999 0.000629061 0)
(-0.0994335 0.000781419 0)
(-0.11534 0.000962726 0)
(-0.0717774 0.000832716 0)
(-0.0131484 0.000370617 0)
(-0.0148695 0.000381462 0)
(-0.0771768 0.000837004 0)
(-0.123934 0.00104908 0)
(-0.1093 0.000668701 0)
(-0.0404814 0.000710012 0)
(-0.0513267 -0.00036815 0)
(-0.120843 0.000231795 0)
(-0.133979 0.000725663 0)
(-0.0835067 0.000766278 0)
(-0.0168881 0.000368339 0)
(-0.0187965 0.000384035 0)
(-0.0894584 0.000800676 0)
(-0.143584 0.00104044 0)
(-0.132242 0.000479641 0)
(-0.0624472 0.000583418 0)
(-0.07286 -0.000593257 0)
(-0.143329 1.48919e-05 0)
(-0.153256 0.000654672 0)
(-0.0955737 0.000728776 0)
(-0.0208039 0.000364239 0)
(-0.0230811 0.000384386 0)
(-0.102416 0.000711274 0)
(-0.164199 0.000788674 0)
(-0.156404 -8.3523e-05 0)
(-0.0859416 -0.00043329 0)
(-0.0999483 -0.00129834 0)
(-0.170519 -0.000361473 0)
(-0.176221 0.000482368 0)
(-0.10995 0.000683536 0)
(-0.0255467 0.000365183 0)
(-0.0279146 0.000391222 0)
(-0.117097 0.000720939 0)
(-0.187686 0.000941652 0)
(-0.184275 0.000109009 0)
(-0.113859 0.000230839 0)
(-0.123157 -5.21158e-05 0)
(-0.194534 -8.97896e-05 0)
(-0.197086 0.000708455 0)
(-0.123093 0.000681557 0)
(-0.0298881 0.000371249 0)
(-0.0325893 0.000378837 0)
(-0.130643 0.000658892 0)
(-0.208271 0.000853165 0)
(-0.206268 0.000250743 0)
(-0.133903 0.00126863 0)
(-0.13648 0.00358736 0)
(-0.211582 0.0012674 0)
(-0.216129 0.000930523 0)
(-0.136656 0.000721113 0)
(-0.0348134 0.000360466 0)
(-0.0374952 0.000336903 0)
(-0.142385 0.000774169 0)
(-0.220391 0.00151504 0)
(-0.208204 0.00375027 0)
(-0.130231 0.00837872 0)
(-0.107488 0.0151769 0)
(-0.185043 0.00824578 0)
(-0.210818 0.00319458 0)
(-0.142196 0.0011321 0)
(-0.0386458 0.000362991 0)
(-0.038062 0.000374026 0)
(-0.134568 0.00160935 0)
(-0.184888 0.00554993 0)
(-0.148079 0.0128889 0)
(-0.0755843 0.0213596 0)
(-0.0285926 0.028863 0)
(-0.0968898 0.0181241 0)
(-0.13919 0.00881272 0)
(-0.112155 0.00268168 0)
(-0.0321242 0.000418109 0)
(-0.0220495 0.000377509 0)
(-0.0788216 0.00334812 0)
(-0.0832328 0.010476 0)
(-0.0360141 0.0207738 0)
(0.0315856 0.0334016 0)
(0.105906 0.0385313 0)
(0.0358755 0.0239657 0)
(-0.0184562 0.012492 0)
(-0.0358662 0.00424939 0)
(-0.00765923 0.000441994 0)
(0.00993999 0.000472331 0)
(0.013683 0.00486594 0)
(0.0526009 0.0138465 0)
(0.115777 0.0262632 0)
(0.190588 0.0423519 0)
(0.288106 0.0479478 0)
(0.206555 0.0297797 0)
(0.132919 0.0159435 0)
(0.0722956 0.0058226 0)
(0.0323456 0.000584101 0)
(0.0594034 0.00059212 0)
(0.138758 0.00631569 0)
(0.221661 0.017093 0)
(0.307063 0.0318133 0)
(0.396689 0.0513155 0)
(0.514561 0.0554295 0)
(0.415404 0.0343359 0)
(0.31672 0.0185289 0)
(0.210403 0.00696155 0)
(0.0896067 0.000688 0)
(0.122249 0.000646292 0)
(0.286401 0.00710512 0)
(0.417845 0.0191402 0)
(0.531392 0.0357722 0)
(0.641255 0.0581113 0)
(0.77772 0.0624686 0)
(0.655463 0.0383696 0)
(0.524838 0.0205003 0)
(0.365801 0.00763277 0)
(0.156367 0.000728152 0)
(0.193183 0.00070521 0)
(0.450829 0.00786538 0)
(0.639545 0.0213132 0)
(0.788612 0.0400794 0)
(0.924089 0.0654272 0)
(1.07755 0.0690495 0)
(0.928023 0.0423583 0)
(0.759466 0.0226012 0)
(0.539591 0.008401 0)
(0.231734 0.000788602 0)
(0.272919 0.000794333 0)
(0.633385 0.00873921 0)
(0.885707 0.0235683 0)
(1.07441 0.0442096 0)
(1.23831 0.0720596 0)
(1.40703 0.0762734 0)
(1.22816 0.0469366 0)
(1.01844 0.0251476 0)
(0.732162 0.00941232 0)
(0.316634 0.000896522 0)
(0.363926 0.000922182 0)
(0.837443 0.00981256 0)
(1.159 0.0262041 0)
(1.39022 0.0488774 0)
(1.58414 0.0793417 0)
(1.76743 0.0824397 0)
(1.55801 0.0508772 0)
(1.30461 0.0273609 0)
(0.946576 0.0103072 0)
(0.413242 0.000997293 0)
(0.465442 0.00103185 0)
(1.06073 0.0107052 0)
(1.4562 0.0283698 0)
(1.73211 0.0526945 0)
(1.95701 0.085275 0)
(2.15313 0.0885446 0)
(1.91253 0.0548459 0)
(1.6136 0.0296338 0)
(1.17955 0.0112548 0)
(0.520238 0.00111355 0)
(0.578441 0.00116594 0)
(1.30395 0.0116669 0)
(1.77734 0.0306035 0)
(2.09941 0.0565171 0)
(2.3555 0.0910825 0)
(2.56203 0.0931816 0)
(2.29035 0.0579057 0)
(1.94489 0.0314264 0)
(1.43148 0.0120291 0)
(0.638572 0.00121995 0)
(0.70133 0.00128116 0)
(1.56294 0.0124292 0)
(2.11672 0.0323216 0)
(2.48554 0.059399 0)
(2.77251 0.0953979 0)
(2.98735 0.0977006 0)
(2.68514 0.060965 0)
(2.29285 0.0332761 0)
(1.69811 0.0128652 0)
(0.766446 0.00135064 0)
(0.83473 0.00143058 0)
(1.83776 0.013277 0)
(2.47364 0.0341302 0)
(2.88918 0.0623193 0)
(3.2062 0.0996437 0)
(3.42737 0.100943 0)
(3.09568 0.063221 0)
(2.65693 0.0346912 0)
(1.9797 0.0135398 0)
(0.904702 0.00147297 0)
(0.977096 0.00155559 0)
(2.12471 0.0139296 0)
(2.84321 0.0354738 0)
(3.30487 0.064435 0)
(3.65079 0.102652 0)
(3.87702 0.104258 0)
(3.51711 0.0655661 0)
(3.03262 0.0361876 0)
(2.27261 0.0142716 0)
(1.05155 0.00161392 0)
(1.12894 0.00171097 0)
(2.42418 0.0146687 0)
(3.22555 0.036942 0)
(3.73246 0.0666918 0)
(4.10589 0.105804 0)
(4.33606 0.106618 0)
(3.94934 0.0672786 0)
(3.42015 0.0373162 0)
(2.5774 0.0148488 0)
(1.20772 0.00173809 0)
(1.28872 0.00183023 0)
(2.73315 0.0152224 0)
(3.61704 0.0380319 0)
(4.16817 0.0683562 0)
(4.56771 0.108107 0)
(4.80169 0.109442 0)
(4.38955 0.0692912 0)
(3.81659 0.0386119 0)
(2.89132 0.0154935 0)
(1.37148 0.00187108 0)
(1.45703 0.00197281 0)
(3.05287 0.0158859 0)
(4.0194 0.0393638 0)
(4.61387 0.0704298 0)
(5.03814 0.111033 0)
(5.2762 0.111924 0)
(4.84 0.0710227 0)
(4.22406 0.0396916 0)
(3.21598 0.0160069 0)
(1.54371 0.00197125 0)
(1.63244 0.00204948 0)
(3.38172 0.0163794 0)
(4.43153 0.0404977 0)
(5.06879 0.0723457 0)
(5.51646 0.113863 0)
(5.7605 0.115929 0)
(5.30162 0.0736882 0)
(4.64286 0.0412213 0)
(3.55035 0.0166334 0)
(1.72269 0.00204689 0)
(1.81582 0.00211437 0)
(3.72348 0.0170955 0)
(4.8596 0.0423597 0)
(5.53986 0.0756787 0)
(6.00938 0.118928 0)
(6.26359 0.121959 0)
(5.78398 0.0776003 0)
(5.08185 0.043292 0)
(3.90025 0.0173142 0)
(1.91023 0.0020387 0)
(2.00738 0.00204631 0)
(4.08322 0.017935 0)
(5.31273 0.0451985 0)
(6.03694 0.0811947 0)
(6.52542 0.127425 0)
(6.79915 0.135011 0)
(6.30365 0.0861397 0)
(5.55699 0.0476002 0)
(4.27516 0.0184588 0)
(2.10723 0.00183774 0)
(2.20975 0.00153506 0)
(4.48127 0.0195914 0)
(5.82311 0.0518687 0)
(6.59166 0.0943884 0)
(7.09008 0.147096 0)
(7.40461 0.16512 0)
(6.91068 0.107833 0)
(6.12328 0.0598453 0)
(4.71202 0.0226807 0)
(2.31915 0.00136077 0)
(2.46074 0.00373922 0)
(4.9943 0.0350271 0)
(6.4759 0.0813854 0)
(7.2692 0.136726 0)
(7.745 0.199119 0)
(8.09626 0.260299 0)
(7.65081 0.194776 0)
(6.8824 0.13329 0)
(5.35909 0.0761681 0)
(2.69046 0.0193372 0)
(3.55222 0.0596173 0)
(6.09506 0.145185 0)
(7.4551 0.181861 3.51578e-19)
(8.11654 0.236926 0)
(8.46521 0.303381 0)
(9.01838 0.465771 -2.75764e-17)
(8.72305 0.41401 3.28184e-17)
(8.18859 0.371189 -2.98825e-19)
(7.1105 0.310519 0)
(4.96926 0.176846 0)
(6.22092 0.232546 -4.09669e-18)
(7.93527 0.345815 0)
(8.71189 0.414635 -4.43453e-19)
(9.10219 0.466356 1.39016e-18)
(9.31951 0.528812 -2.10671e-18)
(9.55047 0.585495 1.94413e-18)
(9.41195 0.51736 -1.05936e-17)
(9.14021 0.457202 1.16241e-17)
(8.5824 0.381887 -3.34132e-18)
(7.20995 0.277283 3.15478e-18)
(7.94546 0.305168 2.58862e-18)
(9.08653 0.406285 2.80545e-18)
(9.49505 0.486647 0)
(9.6768 0.553367 0)
(9.75583 0.625454 -1.4391e-17)
(9.93851 0.658744 0)
(9.90304 0.58831 -7.85927e-18)
(9.77992 0.522388 1.33084e-17)
(9.463 0.445712 -4.94495e-18)
(8.46435 0.343665 -8.98211e-18)
(8.88513 0.355589 -9.32213e-24)
(9.78504 0.455112 2.23176e-18)
(10.0302 0.540257 -6.11519e-18)
(10.1065 0.612677 3.68243e-18)
(10.1066 0.686424 6.56083e-18)
(10.2656 0.722213 -9.36205e-18)
(10.2955 0.650754 6.95545e-18)
(10.2552 0.580615 -2.85198e-18)
(10.0613 0.50129 2.03803e-18)
(9.24518 0.404548 5.72216e-18)
(9.55654 0.441378 9.00598e-19)
(10.3045 0.53498 -1.90517e-18)
(10.4597 0.619509 9.37374e-24)
(10.4701 0.691227 -3.35211e-18)
(10.4159 0.761747 1.56602e-18)
(10.5595 0.797143 1.47985e-18)
(10.6317 0.732649 -4.0836e-19)
(10.6458 0.666839 -2.58422e-18)
(10.5242 0.588698 -1.81409e-18)
(9.82905 0.499254 8.59016e-19)
(10.0744 0.543068 3.30819e-18)
(10.726 0.628038 0)
(10.8157 0.712931 0)
(10.7786 0.779043 3.95874e-19)
(10.6858 0.841706 3.03804e-18)
(10.8038 0.890414 0)
(10.9155 0.83241 0)
(10.9738 0.77191 -1.59501e-18)
(10.9113 0.691854 4.95131e-18)
(10.2947 0.61735 -3.22297e-18)
(10.496 0.687951 3.12728e-18)
(11.0817 0.747454 -1.59639e-18)
(11.1195 0.833241 7.70822e-19)
(11.0391 0.889151 7.34391e-19)
(10.9058 0.943205 -2.77347e-18)
(10.995 1.00634 0)
(11.1494 0.960551 -1.07399e-18)
(11.2523 0.9125 1.50392e-18)
(11.2423 0.823864 3.10601e-18)
(10.6971 0.795404 -3.04673e-23)
(10.7791 0.940191 6.19522e-18)
(11.3436 0.940621 -3.0423e-18)
(11.3475 1.00576 0)
(11.2349 1.03827 -3.56822e-19)
(11.0726 1.07068 -2.74315e-18)
(11.125 1.11085 -6.94128e-19)
(11.2914 1.08872 -1.05857e-18)
(11.4109 1.06686 -7.20005e-19)
(11.4148 1.00509 3.72077e-18)
(10.8302 1.00058 5.88891e-18)
(10.9363 1.0302 -1.4107e-17)
(11.4971 1.03188 -3.62656e-18)
(11.4693 1.10813 2.10248e-18)
(11.3351 1.12821 3.41529e-19)
(11.1549 1.14781 3.32156e-19)
(11.1838 1.1734 1.2925e-18)
(11.3783 1.15796 -1.67026e-18)
(11.5285 1.14251 0)
(11.5832 1.06144 0)
(11.0691 1.07888 0)
(11.1968 1.113 0)
(11.6622 1.08929 -2.82618e-18)
(11.5823 1.16989 6.13168e-18)
(11.4169 1.17933 -2.27321e-18)
(11.209 1.19114 -1.26626e-18)
(11.2247 1.20174 1.18214e-18)
(11.4497 1.19239 0)