/*--------------------------------*- C++ -*----------------------------------*\
| =========                 |                                                 |
| \\      /  F ield         | OpenFOAM: The Open Source CFD Toolbox           |
|  \\    /   O peration     | Version:  v2006                                 |
|   \\  /    A nd           | Website:  www.openfoam.com                      |
|    \\/     M anipulation  |                                                 |
\*---------------------------------------------------------------------------*/
FoamFile
{
    version     2.0;
    format      ascii;
    class       surfaceScalarField;
    location    "0.124";
    object      phi;
}
// * * * * * * * * * * * * * * * * * * * * * * * * * * * * * * * * * * * * * //

dimensions      [1 0 -1 0 0 0 0];
oriented        oriented;


internalField   nonuniform List<scalar> 
32242
(
-2.61573e-05
-0.00135439
0.00133512
4.55303e-05
-0.00127012
0.0012439
8.34941e-06
7.76969e-05
-3.49496e-06
0.00146284
3.80285e-05
0.00159993
-3.2906e-05
0.00165138
-3.66727e-06
0.00169139
-1.63733e-05
0.00168406
-2.329e-06
0.00168002
-2.43006e-06
0.00166947
-4.47303e-07
0.00166257
-1.01553e-06
0.00165676
-1.15345e-06
0.00165309
-1.27956e-06
0.00164974
-1.4801e-06
0.00164692
-1.51064e-06
0.00164385
-1.61908e-06
0.00164092
-1.72349e-06
0.00163777
-1.82388e-06
0.0016345
-1.9203e-06
0.00163109
-2.01296e-06
0.00162755
-2.10219e-06
0.00162388
-2.18838e-06
0.00162008
-2.27189e-06
0.00161616
-2.35301e-06
0.00161211
-2.43193e-06
0.00160794
-2.50875e-06
0.00160365
-2.58352e-06
0.00159924
-2.6562e-06
0.00159472
-2.72673e-06
0.00159008
-2.79503e-06
0.00158533
-2.86098e-06
0.00158047
-2.92446e-06
0.00157551
-2.98534e-06
0.00157045
-3.04348e-06
0.0015653
-3.09875e-06
0.00156006
-3.151e-06
0.00155473
-3.20009e-06
0.00154932
-3.2459e-06
0.00154383
-3.2883e-06
0.00153827
-3.32718e-06
0.00153265
-3.3624e-06
0.00152697
-3.39388e-06
0.00152124
-3.42149e-06
0.00151546
-3.44515e-06
0.00150964
-3.46475e-06
0.00150378
-3.48022e-06
0.00149789
-3.49147e-06
0.00149199
-3.4984e-06
0.00148606
-3.50097e-06
0.00148013
-3.4991e-06
0.00147419
-3.49277e-06
0.00146826
-3.482e-06
0.00146234
-3.46662e-06
0.00145643
-3.44513e-06
0.00145055
-3.41999e-06
0.00144471
-3.39047e-06
0.0014389
-3.35613e-06
0.00143314
-3.31704e-06
0.00142744
-3.27319e-06
0.0014218
-3.2246e-06
0.00141622
-3.17129e-06
0.00141072
-3.11328e-06
0.00140531
-3.0506e-06
0.00139998
-2.98326e-06
0.00139476
-2.91126e-06
0.00138963
-2.83456e-06
0.00138462
-2.75301e-06
0.00137973
-2.66642e-06
0.00137495
-2.57449e-06
0.00137031
-2.47685e-06
0.0013658
-2.37318e-06
0.00136144
-2.26327e-06
0.00135722
-2.14699e-06
0.00135316
-2.0241e-06
0.00134926
-1.89335e-06
0.00134552
-1.75127e-06
0.00134191
-9.21988e-07
0.00133772
-1.39994e-06
0.00133426
-1.16978e-06
0.00132816
-2.89539e-06
0.00131955
-4.61649e-06
0.00130742
-1.96294e-05
0.00128696
-3.00953e-05
0.00126105
-8.36234e-05
0.00122473
-0.000143177
0.00120262
-0.000328502
0.00121428
-0.000736196
0.00140183
-0.000202563
0.000361196
2.04325e-05
0.000599541
4.44662e-06
0.000786406
-3.85985e-05
0.000696037
-1.24937e-05
0.000609994
-7.50922e-06
0.000220539
-4.58122e-06
0.000183625
0.000148435
8.52641e-06
0.000139909
1.73475e-05
0.000174804
0.000210943
2.69429e-05
-1.36292e-05
0.000203716
2.08567e-05
-6.80519e-06
0.00016798
0.000133103
2.50446e-06
0.000130599
4.12784e-06
0.000166356
0.00020248
5.36316e-06
-4.65159e-06
0.000200395
6.73665e-06
-2.87151e-06
0.000164576
0.000127727
1.54677e-06
0.000126181
2.02869e-06
0.000164094
0.00020028
2.14363e-06
-4.45899e-06
0.000198717
6.02264e-06
-2.60027e-06
0.000162236
0.000123581
1.2691e-06
0.000122311
1.14653e-06
0.000162358
0.000198482
1.38154e-06
-3.62734e-06
0.000197499
4.61058e-06
-1.77609e-06
0.000160507
0.000120535
4.71937e-07
0.000120063
3.54582e-07
0.000160624
0.000197859
-6.27148e-09
-2.83713e-06
0.00019616
4.5363e-06
-1.60636e-06
0.000159394
0.000118457
3.42443e-07
0.000118115
2.39666e-07
0.000159496
0.000196461
-6.07464e-08
-2.71691e-06
0.000195374
3.80381e-06
-1.48144e-06
0.000158261
0.000116633
2.51158e-07
0.000116382
1.47956e-07
0.000158364
0.00019564
-1.18535e-07
-2.62298e-06
0.000194523
3.74037e-06
-1.38808e-06
0.000157129
0.000114994
1.83387e-07
0.000114811
8.27029e-08
0.00015723
0.000194759
-1.53481e-07
-2.54962e-06
0.000193618
3.69069e-06
-1.31737e-06
0.000155998
0.000113493
1.32273e-07
0.000113361
2.73467e-08
0.000156103
0.000193833
-1.87663e-07
-2.48674e-06
0.000192677
3.64343e-06
-1.26181e-06
0.000154878
0.000112099
9.26002e-08
0.000112007
-1.2737e-08
0.000154983
0.000192873
-2.09194e-07
-2.43705e-06
0.000191704
3.60573e-06
-1.22105e-06
0.000153767
0.000110786
6.11164e-08
0.000110725
-4.22357e-08
0.000153871
0.000191884
-2.22197e-07
-2.39751e-06
0.000190702
3.57959e-06
-1.18739e-06
0.000152661
0.000109537
3.88155e-08
0.000109498
-6.1638e-08
0.000152761
0.000190868
-2.27519e-07
-2.36732e-06
0.000189674
3.56128e-06
-1.1601e-06
0.000151554
0.000108338
2.28631e-08
0.000108316
-7.47187e-08
0.000151651
0.000189826
-2.26411e-07
-2.34308e-06
0.000188621
3.5483e-06
-1.13781e-06
0.000150446
0.000107178
1.16409e-08
0.000107166
-8.11729e-08
0.000150539
0.000188758
-2.18061e-07
-2.32498e-06
0.000187541
3.54188e-06
-1.11994e-06
0.000149334
0.000106046
4.39792e-09
0.000106042
-8.1744e-08
0.00014942
0.000187662
-2.02899e-07
-2.31216e-06
0.000186433
3.54139e-06
-1.10575e-06
0.000148214
0.000104936
4.79251e-10
0.000104935
-7.7211e-08
0.000148291
0.000186537
-1.81599e-07
-2.30384e-06
0.000185295
3.54617e-06
-1.09461e-06
0.000147082
0.000103841
-1.14213e-09
0.000103842
-6.8894e-08
0.00014715
0.000185382
-1.55908e-07
-2.29901e-06
0.000184126
3.555e-06
-1.08598e-06
0.000145937
0.000102756
-4.24933e-10
0.000102756
-5.70039e-08
0.000145993
0.000184194
-1.25733e-07
-2.29728e-06
0.000182924
3.56773e-06
-1.07929e-06
0.000144775
0.000101677
2.10362e-09
0.000101675
-4.17602e-08
0.000144819
0.000182973
-9.109e-08
-2.29851e-06
0.000181687
3.5844e-06
-1.07439e-06
0.000143595
0.000100601
6.35992e-09
0.000100594
-2.32773e-08
0.000143625
0.000181716
-5.19584e-08
-2.30262e-06
0.000180413
3.60513e-06
-1.07119e-06
0.000142393
9.9523e-05
1.19694e-08
9.9511e-05
-2.39338e-09
0.000142407
0.000180421
-9.67826e-09
-2.30852e-06
0.000179101
3.62802e-06
-1.06923e-06
0.000141168
9.84417e-05
1.98645e-08
9.84219e-05
2.25957e-08
0.000141165
0.000179084
3.93048e-08
-2.31632e-06
0.000177748
3.65299e-06
-1.06833e-06
0.000139917
9.73535e-05
2.92218e-08
9.73243e-05
5.04195e-08
0.000139896
0.000177706
9.24838e-08
-2.32664e-06
0.000176351
3.68155e-06
-1.06877e-06
0.000138638
9.62555e-05
3.9998e-08
9.62155e-05
8.10665e-08
0.000138597
0.000176282
1.49792e-07
-2.3394e-06
0.000174908
3.71366e-06
-1.07049e-06
0.000137328
9.5145e-05
5.22297e-08
9.50928e-05
1.14611e-07
0.000137266
0.000174811
2.11441e-07
-2.35449e-06
0.000173416
3.74916e-06
-1.07344e-06
0.000135985
9.40193e-05
6.58829e-08
9.39534e-05
1.51001e-07
0.0001359
0.00017329
2.77422e-07
-2.3718e-06
0.000171873
3.78789e-06
-1.07753e-06
0.000134605
9.28758e-05
8.08931e-08
9.27949e-05
1.90133e-07
0.000134496
0.000171716
3.47632e-07
-2.39116e-06
0.000170277
3.82964e-06
-1.08267e-06
0.000133188
9.17122e-05
9.71691e-08
9.1615e-05
2.31847e-07
0.000133053
0.000170087
4.21859e-07
-2.41233e-06
0.000168625
3.87407e-06
-1.08874e-06
0.000131729
9.05263e-05
1.14594e-07
9.04117e-05
2.75926e-07
0.000131568
0.000168402
4.99801e-07
-2.43507e-06
0.000166916
3.92083e-06
-1.0956e-06
0.000130228
8.93161e-05
1.33041e-07
8.91831e-05
3.22129e-07
0.000130039
0.000166657
5.81009e-07
-2.4589e-06
0.000165147
3.96926e-06
-1.10303e-06
0.000128683
8.80801e-05
1.52268e-07
8.79278e-05
3.69979e-07
0.000128466
0.000164852
6.64814e-07
-2.48337e-06
0.000163316
4.01866e-06
-1.11079e-06
0.000127093
8.68171e-05
1.71991e-07
8.66451e-05
4.18882e-07
0.000126846
0.000162985
7.50299e-07
-2.50765e-06
0.000161425
4.06779e-06
-1.11849e-06
0.000125457
8.55267e-05
1.91723e-07
8.5335e-05
4.67865e-07
0.000125181
0.000161057
8.3601e-07
-2.53065e-06
0.000159472
4.11501e-06
-1.12554e-06
0.000123776
8.42095e-05
2.10819e-07
8.39987e-05
5.15654e-07
0.000123471
0.000159068
9.1996e-07
-2.55115e-06
0.000157461
4.15831e-06
-1.13146e-06
0.000122052
8.28672e-05
2.28793e-07
8.26384e-05
5.60964e-07
0.000121719
0.000157022
9.99998e-07
-2.5678e-06
0.000155394
4.19549e-06
-1.13565e-06
0.000120287
8.15028e-05
2.449e-07
8.12578e-05
6.02235e-07
0.00011993
0.000154922
1.07364e-06
-2.57895e-06
0.000153277
4.22393e-06
-1.13733e-06
0.000118488
8.01205e-05
2.5823e-07
7.98622e-05
6.37503e-07
0.000118109
0.000152777
1.13774e-06
-2.58251e-06
0.000151119
4.24026e-06
-1.13555e-06
0.000116662
7.87267e-05
2.67635e-07
7.84591e-05
6.64262e-07
0.000116265
0.000150595
1.18829e-06
-2.57585e-06
0.000148931
4.24025e-06
-1.12913e-06
0.000114819
7.733e-05
2.71693e-07
7.70584e-05
6.79387e-07
0.000114411
0.00014839
1.22027e-06
-2.55576e-06
0.000146727
4.21875e-06
-1.11663e-06
0.000112972
7.59419e-05
2.68716e-07
7.56732e-05
6.79127e-07
0.000112561
0.000146179
1.22767e-06
-2.51854e-06
0.000144527
4.16978e-06
-1.09638e-06
0.000111139
7.45769e-05
2.56754e-07
7.43202e-05
6.59233e-07
0.000110737
0.000143983
1.20358e-06
-2.46008e-06
0.000142357
4.08656e-06
-1.06652e-06
0.000109343
7.32537e-05
2.33612e-07
7.30202e-05
6.14886e-07
0.000108962
0.000141831
1.14008e-06
-2.37555e-06
0.000140246
3.96117e-06
-1.02492e-06
0.000107612
7.19954e-05
1.9673e-07
7.17987e-05
5.40356e-07
0.000107268
0.000139759
1.02785e-06
-2.25952e-06
0.000138233
3.78471e-06
-9.69241e-07
0.000105978
7.08296e-05
1.43262e-07
7.06864e-05
4.29335e-07
0.000105692
0.000137806
8.56446e-07
-2.1067e-06
0.000136365
3.54841e-06
-8.97216e-07
0.000104483
6.97892e-05
7.09993e-08
6.97182e-05
2.7675e-07
0.000104277
0.000136024
6.1748e-07
-1.91261e-06
0.000134691
3.24579e-06
-8.05178e-07
0.000103169
6.89131e-05
-2.44146e-08
6.89375e-05
7.57241e-08
0.000103069
0.000134467
2.99708e-07
-1.66788e-06
0.000133269
2.86603e-06
-6.86961e-07
0.000102088
6.82505e-05
-1.47783e-07
6.83983e-05
-1.8169e-07
0.000102122
0.00013319
-1.03377e-07
-1.3794e-06
0.000132166
2.40347e-06
-5.53352e-07
0.000101296
6.7845e-05
-2.8469e-07
6.81297e-05
-4.79153e-07
0.000101491
0.000132264
-5.76392e-07
-1.05642e-06
0.000131438
1.88201e-06
-4.06267e-07
0.000100841
6.77236e-05
-4.35574e-07
6.81592e-05
-8.11216e-07
0.000101216
0.000131738
-1.11092e-06
-7.17071e-07
0.000131124
1.33107e-06
-2.53824e-07
0.000100753
6.79055e-05
-5.90775e-07
6.84964e-05
-1.1586e-06
0.000101321
0.000131642
-1.67665e-06
-3.74092e-07
0.000131248
7.67993e-07
-1.01598e-07
0.000101049
6.83948e-05
-7.34568e-07
6.91293e-05
-1.48554e-06
0.0001018
0.000131979
-2.21655e-06
-4.11516e-08
0.000131798
2.22633e-07
5.02968e-08
0.000101708
6.91796e-05
-8.96216e-07
7.00756e-05
-1.8492e-06
0.000102661
0.000132765
-2.81631e-06
3.00639e-07
0.000132807
-3.42873e-07
2.00345e-07
0.000102761
7.02758e-05
-1.05481e-06
7.13304e-05
-2.20214e-06
0.000103908
0.000134008
-3.40427e-06
5.40785e-07
0.000134235
-7.67571e-07
2.89808e-07
0.000104159
7.162e-05
-1.14261e-06
7.27624e-05
-2.42855e-06
0.000105445
0.000135612
-3.80583e-06
6.93466e-07
0.000135971
-1.05222e-06
3.41941e-07
0.000105796
7.31042e-05
-1.1886e-06
7.42927e-05
-2.56644e-06
0.000107174
0.00013747
-4.06568e-06
7.67536e-07
0.000137916
-1.21392e-06
3.57657e-07
0.000107584
7.46503e-05
-1.20784e-06
7.58581e-05
-2.64395e-06
0.00010902
0.000139501
-4.22872e-06
7.86959e-07
0.000140001
-1.28664e-06
3.49715e-07
0.000109457
7.62078e-05
-1.20415e-06
7.74119e-05
-2.66866e-06
0.000110922
0.000141637
-4.30495e-06
7.5622e-07
0.000142157
-1.27577e-06
3.20498e-07
0.000111357
7.77324e-05
-1.17877e-06
7.89112e-05
-2.64352e-06
0.000112822
0.000143812
-4.29789e-06
6.80911e-07
0.00014432
-1.18957e-06
2.72282e-07
0.000113231
7.91835e-05
-1.13531e-06
8.03188e-05
-2.57533e-06
0.000114671
0.000145963
-4.2175e-06
5.68984e-07
0.000146434
-1.03983e-06
2.09379e-07
0.000115031
8.05282e-05
-1.07781e-06
8.1606e-05
-2.4723e-06
0.000116425
0.000148038
-4.07635e-06
4.28896e-07
0.000148448
-8.39458e-07
1.35712e-07
0.000116718
8.17418e-05
-1.00974e-06
8.27515e-05
-2.34208e-06
0.000118051
0.000149993
-3.88626e-06
2.68481e-07
0.000150325
-6.01033e-07
5.53257e-08
0.000118264
8.28069e-05
-9.36713e-07
8.37436e-05
-2.19259e-06
0.00011952
0.000151793
-3.65986e-06
9.6151e-08
0.000152034
-3.3715e-07
-2.69809e-08
0.000119643
8.37167e-05
-8.64115e-07
8.45809e-05
-2.03394e-06
0.000120813
0.000153411
-3.41071e-06
-8.00614e-08
0.000153551
-5.98545e-08
-1.08319e-07
0.000120842
8.44728e-05
-7.89207e-07
8.52623e-05
-1.87193e-06
0.000121925
0.000154832
-3.1526e-06
-2.50528e-07
0.000154872
2.10751e-07
-1.8662e-07
0.000121861
8.50761e-05
-7.17075e-07
8.57935e-05
-1.71317e-06
0.000122858
0.000156056
-2.89569e-06
-4.12052e-07
0.000155997
4.71558e-07
-2.59168e-07
0.000122705
8.55346e-05
-6.50879e-07
8.61858e-05
-1.56447e-06
0.000123619
0.000157084
-2.6517e-06
-5.59729e-07
0.000156931
7.13326e-07
-3.2393e-07
0.000123384
8.58624e-05
-5.91662e-07
8.6455e-05
-1.42919e-06
0.000124222
0.000157929
-2.42825e-06
-6.88555e-07
0.000157689
9.25914e-07
-3.79012e-07
0.000123912
8.60776e-05
-5.43459e-07
8.66218e-05
-1.31459e-06
0.000124684
0.000158607
-2.23368e-06
-7.92081e-07
0.000158292
1.11012e-06
-4.19134e-07
0.000124311
8.62008e-05
-5.12464e-07
8.67067e-05
-1.22811e-06
0.000125026
0.000159141
-2.06562e-06
-8.64412e-07
0.000158763
1.26934e-06
-4.38883e-07
0.0001246
8.62519e-05
-4.99132e-07
8.6728e-05
-1.17021e-06
0.000125268
0.000159554
-1.92106e-06
-9.12648e-07
0.000159122
1.40068e-06
-4.45447e-07
0.000124799
8.62482e-05
-4.94383e-07
8.67018e-05
-1.13007e-06
0.000125431
0.000159865
-1.80217e-06
-9.49971e-07
0.000159391
1.50376e-06
-4.4978e-07
0.000124926
8.62036e-05
-4.85301e-07
8.66402e-05
-1.09198e-06
0.000125528
0.000160095
-1.71118e-06
-9.92714e-07
0.000159587
1.57586e-06
-4.65949e-07
0.000124996
8.61285e-05
-4.49025e-07
8.65532e-05
-1.02865e-06
0.000125573
0.00016026
-1.65946e-06
-1.07592e-06
0.000159724
1.60115e-06
-5.25202e-07
0.000125022
8.60343e-05
-3.80591e-07
8.64516e-05
-9.37132e-07
0.00012558
0.000160372
-1.64298e-06
-1.15237e-06
0.000159812
1.61187e-06
-5.79245e-07
0.000125015
8.59289e-05
-3.44718e-07
8.63391e-05
-8.86992e-07
0.000125562
0.000160438
-1.62106e-06
-1.18294e-06
0.000159865
1.63517e-06
-5.94221e-07
0.000124984
8.58154e-05
-3.37037e-07
8.62235e-05
-8.70751e-07
0.000125521
0.000160474
-1.59871e-06
-1.19431e-06
0.000159889
1.6575e-06
-5.96268e-07
0.000124934
8.56975e-05
-3.41434e-07
8.61076e-05
-8.654e-07
0.00012547
0.000160495
-1.56537e-06
-1.16011e-06
0.000159889
1.68491e-06
-5.64244e-07
0.000124871
8.55794e-05
-3.99073e-07
8.59874e-05
-9.23419e-07
0.000125395
0.000160477
-1.52434e-06
-1.07881e-06
0.000159881
1.74783e-06
-4.82914e-07
0.000124799
8.54616e-05
-4.65573e-07
8.58627e-05
-9.97126e-07
0.000125317
0.000160466
-1.48499e-06
-1.046e-06
0.000159856
1.78161e-06
-4.50797e-07
0.000124719
8.53413e-05
-4.75991e-07
8.57503e-05
-1.00686e-06
0.000125242
0.000160437
-1.46718e-06
-1.0395e-06
0.000159819
1.77519e-06
-4.43682e-07
0.000124633
8.5225e-05
-4.68441e-07
8.56364e-05
-9.95912e-07
0.000125162
0.000160407
-1.46562e-06
-1.04467e-06
0.000159785
1.78746e-06
-4.44587e-07
0.000124552
8.51146e-05
-4.76159e-07
8.55183e-05
-1.00519e-06
0.000125066
0.000160355
-1.46682e-06
-1.04451e-06
0.000159743
1.78608e-06
-4.45406e-07
0.000124467
8.5006e-05
-4.75789e-07
8.54123e-05
-1.00458e-06
0.000124983
0.000160317
-1.46858e-06
-1.03801e-06
0.000159693
1.76383e-06
-4.46459e-07
0.000124378
8.4896e-05
-4.65663e-07
8.53183e-05
-9.9788e-07
0.000124916
0.000160295
-1.49776e-06
-1.06496e-06
0.000159681
1.73749e-06
-4.71377e-07
0.000124316
8.48057e-05
-4.24589e-07
8.52185e-05
-9.71034e-07
0.00012485
0.000160824
-2.1161e-06
-5.82209e-07
0.000159734
1.60815e-06
-5.06026e-07
0.000124793
8.47667e-05
-8.8533e-07
8.5699e-05
-1.51571e-06
0.000125425
0.000161461
-3.33434e-06
1.48683e-07
0.000161537
-2.46563e-07
5.90356e-08
0.000125518
8.57731e-05
-1.65192e-06
8.74395e-05
-4.53767e-06
0.000128406
0.000164083
-7.10325e-06
6.12104e-06
0.000168399
-1.04416e-05
2.96707e-06
0.00013156
9.04102e-05
-8.66814e-06
9.90725e-05
-1.96787e-05
0.000142574
0.00018199
-3.32678e-05
4.32868e-05
0.000211512
-7.28154e-05
1.94468e-05
0.000166415
0.000118527
3.93498e-05
9.50001e-05
0.000165991
3.99765e-05
-0.000288201
-5.72888e-05
-0.000326086
-6.18131e-05
-0.000510475
-2.49803e-05
-0.000550487
-1.59404e-05
-0.000577076
-3.11873e-06
-0.000579751
-2.56311e-06
-0.000584686
-2.03296e-07
-0.000585156
-8.03506e-07
-0.000585845
9.65134e-07
-0.0005853
1.54974e-06
-0.000583074
5.07526e-06
-0.000577009
9.78148e-06
-0.000568946
2.14755e-05
-0.000554884
3.83976e-05
-0.000540859
8.52421e-05
-0.000536058
0.000189247
-0.000544786
8.52787e-05
-0.00033592
4.86816e-05
-0.00033297
2.7205e-05
-0.000323186
2.72319e-05
-0.000275563
7.95926e-06
-0.000237157
4.48621e-06
-8.35587e-05
1.83262e-06
-5.64732e-05
-3.05021e-05
-2.26465e-06
-2.82414e-05
-5.94239e-06
-5.27825e-05
-7.83898e-05
-1.10449e-05
4.07664e-06
-7.53575e-05
-7.07329e-06
1.44397e-06
-5.01318e-05
-2.68164e-05
-9.9039e-07
-2.58565e-05
-1.73205e-06
-4.93952e-05
-7.35598e-05
-3.49738e-06
6.99091e-07
-7.29209e-05
-1.32076e-06
1.69305e-07
-4.88597e-05
-2.56888e-05
-4.33589e-07
-2.52491e-05
-5.54091e-07
-4.87353e-05
-7.23109e-05
-1.16805e-06
5.28852e-07
-7.27589e-05
-9.45489e-08
6.70679e-08
-4.82801e-05
-2.51841e-05
-5.50703e-09
-2.51789e-05
-2.98662e-08
-4.82561e-05
-7.27613e-05
-2.70936e-08
-1.82379e-08
-7.27788e-05
3.30376e-08
-9.17135e-09
-4.8268e-05
-2.51907e-05
1.78246e-08
-2.52089e-05
3.73342e-08
-4.82888e-05
-7.28e-05
5.55765e-08
-5.57159e-08
-7.2832e-05
8.63966e-08
-2.61508e-08
-4.83177e-05
-2.52337e-05
2.6009e-08
-2.52581e-05
5.59258e-08
-4.83474e-05
-7.28618e-05
8.37693e-08
-6.45139e-08
-7.28969e-05
1.03289e-07
-2.96206e-08
-4.83791e-05
-2.52846e-05
2.68195e-08
-2.53123e-05
5.99644e-08
-4.84125e-05
-7.29304e-05
9.47168e-08
-6.74079e-08
-7.29726e-05
1.11367e-07
-3.01237e-08
-4.84504e-05
-2.53438e-05
2.7918e-08
-2.5372e-05
6.32449e-08
-4.84851e-05
-7.30081e-05
1.01782e-07
-6.86227e-08
-7.30496e-05
1.12072e-07
-3.06285e-08
-4.85229e-05
-2.54034e-05
2.91712e-08
-2.54339e-05
6.56927e-08
-4.85596e-05
-7.30869e-05
1.05825e-07
-7.41261e-08
-7.31318e-05
1.21511e-07
-3.34208e-08
-4.86002e-05
-2.54684e-05
3.11398e-08
-2.54997e-05
6.91168e-08
-4.86378e-05
-7.31709e-05
1.0922e-07
-7.27592e-08
-7.32158e-05
1.16218e-07
-3.34892e-08
-4.86787e-05
-2.55342e-05
3.42453e-08
-2.55669e-05
7.43026e-08
-4.8718e-05
-7.32552e-05
1.11609e-07
-7.96682e-08
-7.33019e-05
1.25303e-07
-3.66553e-08
-4.8761e-05
-2.56029e-05
3.38739e-08
-2.5637e-05
7.36424e-08
-4.88018e-05
-7.33439e-05
1.12968e-07
-7.65274e-08
-7.33889e-05
1.19927e-07
-3.52472e-08
-4.88434e-05
-2.56719e-05
3.3979e-08
-2.57073e-05
7.37611e-08
-4.88856e-05
-7.34319e-05
1.12474e-07
-8.21444e-08
-7.34802e-05
1.27527e-07
-3.82451e-08
-4.89297e-05
-2.57445e-05
3.55382e-08
-2.57792e-05
7.66439e-08
-4.89715e-05
-7.35238e-05
1.16775e-07
-8.17334e-08
-7.35708e-05
1.26443e-07
-3.81614e-08
-4.90145e-05
-2.58156e-05
3.66486e-08
-2.58513e-05
7.8893e-08
-4.90573e-05
-7.36152e-05
1.20218e-07
-8.47868e-08
-7.36659e-05
1.34192e-07
-3.94341e-08
-4.91026e-05
-2.589e-05
3.589e-08
-2.59259e-05
7.86481e-08
-4.91451e-05
-7.37108e-05
1.24044e-07
-8.29277e-08
-7.37602e-05
1.3232e-07
-3.76816e-08
-4.91898e-05
-2.59632e-05
3.59098e-08
-2.59999e-05
8.00693e-08
-4.92339e-05
-7.38047e-05
1.27103e-07
-8.85557e-08
-7.38562e-05
1.4262e-07
-4.0148e-08
-4.92807e-05
-2.60397e-05
3.65905e-08
-2.60761e-05
8.16469e-08
-4.93245e-05
-7.39018e-05
1.3139e-07
-8.52703e-08
-7.39527e-05
1.39567e-07
-3.83161e-08
-4.93709e-05
-2.61153e-05
3.70224e-08
-2.61533e-05
8.27457e-08
-4.9416e-05
-7.39998e-05
1.33738e-07
-8.91e-08
-7.4054e-05
1.46273e-07
-4.02464e-08
-4.94647e-05
-2.61949e-05
3.77413e-08
-2.62333e-05
8.38734e-08
-4.95107e-05
-7.41029e-05
1.33873e-07
-8.6987e-08
-7.41565e-05
1.39762e-07
-3.9623e-08
-4.95588e-05
-2.62737e-05
3.99292e-08
-2.63136e-05
8.66676e-08
-4.96067e-05
-7.42071e-05
1.3354e-07
-9.1868e-08
-7.42633e-05
1.45457e-07
-4.2426e-08
-4.96568e-05
-2.63557e-05
4.00435e-08
-2.63952e-05
8.75015e-08
-4.97051e-05
-7.43153e-05
1.3501e-07
-9.09015e-08
-7.43706e-05
1.43505e-07
-4.15459e-08
-4.97543e-05
-2.64354e-05
4.06556e-08
-2.64751e-05
8.93323e-08
-4.98037e-05
-7.44248e-05
1.39233e-07
-9.50372e-08
-7.44843e-05
1.51867e-07
-4.32446e-08
-4.98555e-05
-2.65167e-05
4.00579e-08
-2.65555e-05
8.91737e-08
-4.99048e-05
-7.45398e-05
1.41648e-07
-9.1504e-08
-7.46005e-05
1.48424e-07
-4.09093e-08
-4.99564e-05
-2.65959e-05
4.01547e-08
-2.66349e-05
9.07424e-08
-5.00073e-05
-7.46574e-05
1.45563e-07
-9.55145e-08
-7.47228e-05
1.5749e-07
-4.23313e-08
-5.00615e-05
-2.66767e-05
3.91564e-08
-2.67148e-05
9.1862e-08
-5.01126e-05
-7.47809e-05
1.52553e-07
-9.63658e-08
-7.48447e-05
1.63111e-07
-4.06353e-08
-5.01662e-05
-2.67549e-05
3.84547e-08
-2.6794e-05
9.31647e-08
-5.02204e-05
-7.49084e-05
1.59974e-07
-9.77794e-08
-7.49781e-05
1.71731e-07
-3.98723e-08
-5.02774e-05
-2.68347e-05
3.73113e-08
-2.68727e-05
9.40749e-08
-5.03333e-05
-7.50449e-05
1.64492e-07
-9.64248e-08
-7.51165e-05
1.71909e-07
-3.77025e-08
-5.03913e-05
-2.69114e-05
3.72209e-08
-2.69494e-05
9.59879e-08
-5.04509e-05
-7.519e-05
1.68281e-07
-1.00857e-07
-7.52694e-05
1.78317e-07
-3.92441e-08
-5.0513e-05
-2.6988e-05
3.72942e-08
-2.70244e-05
9.84035e-08
-5.05745e-05
-7.5347e-05
1.72566e-07
-1.02356e-07
-7.54311e-05
1.81958e-07
-3.80344e-08
-5.06394e-05
-2.70613e-05
3.62547e-08
-2.70966e-05
1.01434e-07
-5.07049e-05
-7.55151e-05
1.82193e-07
-1.06478e-07
-7.56073e-05
1.94179e-07
-3.75116e-08
-5.07747e-05
-2.71337e-05
3.4515e-08
-2.71675e-05
1.03344e-07
-5.0844e-05
-7.56982e-05
1.90107e-07
-1.08388e-07
-7.57962e-05
2.02305e-07
-3.55188e-08
-5.09172e-05
-2.72023e-05
3.40785e-08
-2.72352e-05
1.08865e-07
-5.09922e-05
-7.5896e-05
2.0464e-07
-1.15008e-07
-7.60042e-05
2.19972e-07
-3.52343e-08
-5.10715e-05
-2.72686e-05
3.11562e-08
-2.72985e-05
1.11176e-07
-5.11521e-05
-7.61139e-05
2.16197e-07
-1.16493e-07
-7.62327e-05
2.30615e-07
-3.17059e-08
-5.1238e-05
-2.73288e-05
3.01589e-08
-2.73571e-05
1.18988e-07
-5.1327e-05
-7.63555e-05
2.37337e-07
-1.27198e-07
-7.64884e-05
2.56356e-07
-3.17863e-08
-5.14222e-05
-2.73867e-05
2.87416e-08
-2.7415e-05
1.26124e-07
-5.15218e-05
-7.66256e-05
2.56927e-07
-1.36785e-07
-7.67732e-05
2.78627e-07
-3.16536e-08
-5.16282e-05
-2.74455e-05
3.3722e-08
-2.74768e-05
1.45925e-07
-5.17396e-05
-7.69252e-05
2.93357e-07
-1.61181e-07
-7.70896e-05
3.22151e-07
-3.90581e-08
-5.18609e-05
-2.75134e-05
4.00044e-08
-2.75521e-05
1.6796e-07
-5.19872e-05
-7.72586e-05
3.3938e-07
-1.87224e-07
-7.74414e-05
3.74787e-07
-4.7018e-08
-5.21248e-05
-2.75977e-05
4.88796e-08
-2.76472e-05
1.98062e-07
-5.22714e-05
-7.7633e-05
4.00749e-07
-2.19932e-07
-7.78406e-05
4.34431e-07
-5.83508e-08
-5.24324e-05
-2.77079e-05
6.37988e-08
-2.77754e-05
2.34654e-07
-5.26049e-05
-7.80584e-05
4.53455e-07
-2.65869e-07
-7.82932e-05
4.95253e-07
-7.97234e-08
-5.27932e-05
-2.7857e-05
9.61975e-08
-2.79519e-05
2.98606e-07
-5.29963e-05
-7.85385e-05
5.34866e-07
-3.36996e-07
-7.88041e-05
5.88621e-07
-1.17541e-07
-5.32184e-05
-2.80671e-05
1.39953e-07
-2.82015e-05
3.78682e-07
-5.34581e-05
-7.90797e-05
6.38341e-07
-4.33562e-07
-7.93793e-05
7.17856e-07
-1.69557e-07
-5.37225e-05
-2.83624e-05
1.94446e-07
-2.85526e-05
4.79994e-07
-5.40067e-05
-7.96982e-05
8.03804e-07
-5.50355e-07
-8.00319e-05
9.03175e-07
-2.2893e-07
-5.43184e-05
-2.87794e-05
2.57795e-07
-2.90449e-05
6.04401e-07
-5.46615e-05
-8.03868e-05
9.8847e-07
-6.83857e-07
-8.07698e-05
1.09191e-06
-3.03789e-07
-5.50403e-05
-2.93587e-05
3.59626e-07
-2.97276e-05
7.78903e-07
-5.54605e-05
-8.11864e-05
1.20134e-06
-9.03204e-07
-8.16417e-05
1.34285e-06
-4.36025e-07
-5.5931e-05
-3.01612e-05
5.18115e-07
-3.06666e-05
1.04055e-06
-5.6452e-05
-8.21353e-05
1.51796e-06
-1.19814e-06
-8.26951e-05
1.75638e-06
-5.98561e-07
-5.70466e-05
-3.12551e-05
8.37451e-07
-3.20907e-05
1.58023e-06
-5.77883e-05
-8.2801e-05
1.68488e-06
-1.5269e-06
-8.33172e-05
2.04452e-06
-9.39305e-07
-5.83784e-05
-3.30338e-05
7.40097e-07
-3.37764e-05
1.39804e-06
-5.90375e-05
-8.38573e-05
1.93854e-06
-1.239e-06
-8.53482e-05
2.72841e-06
-2.92871e-07
-5.99839e-05
-3.40703e-05
1.28764e-06
-3.53572e-05
1.67807e-06
-6.03733e-05
-8.61466e-05
2.47698e-06
-1.97921e-06
-8.69368e-05
2.76664e-06
-5.91151e-07
-6.17624e-05
-3.59484e-05
9.23014e-07
-3.68712e-05
1.69369e-06
-6.2535e-05
-8.82068e-05
2.96027e-06
-2.33823e-06
-8.89001e-05
3.02746e-06
-1.02417e-06
-6.38521e-05
-3.78942e-05
1.09336e-06
-3.89878e-05
1.92047e-06
-6.46879e-05
-9.06893e-05
3.69763e-06
-2.64952e-06
-9.18784e-05
3.82953e-06
-1.39258e-06
-6.59427e-05
-4.03681e-05
1.35415e-06
-4.17096e-05
2.60079e-06
-6.71787e-05
-9.29789e-05
3.68963e-06
-2.56175e-06
-9.47837e-05
4.35275e-06
-1.12913e-06
-6.86026e-05
-4.2831e-05
1.05228e-06
-4.38751e-05
2.85713e-06
-7.0391e-05
-9.66037e-05
4.67611e-06
-4.30445e-06
-9.9601e-05
7.3314e-06
-2.41177e-06
-7.22843e-05
-4.6305e-05
2.46751e-06
-4.87822e-05
6.33229e-06
-7.61376e-05
-0.000103727
1.06414e-05
6.79788e-05
-5.04938e-05
-0.000121144
2.72452e-05
-3.54791e-05
-2.162e-05
4.84173e-06
-2.60767e-05
1.46668e-05
-4.59401e-05
-6.59311e-05
3.02697e-05
-8.62935e-06
-7.3048e-05
1.57165e-05
-3.03233e-06
-5.14847e-05
-2.91066e-05
1.0686e-06
-3.01711e-05
2.37631e-06
-5.28056e-05
-7.43117e-05
3.61059e-06
-1.55344e-07
-7.44651e-05
3.12689e-07
-3.4088e-07
-5.26138e-05
-3.05041e-05
1.50367e-06
-3.19781e-05
3.32635e-06
-5.4396e-05
-7.61357e-05
5.04832e-06
-2.4817e-06
-7.73944e-05
3.7284e-06
-1.19528e-06
-5.56488e-05
-3.31311e-05
2.23386e-06
-3.53138e-05
4.39228e-06
-5.77347e-05
-7.9795e-05
6.85409e-06
-2.77611e-06
-8.19119e-05
4.99307e-06
-1.54356e-06
-5.89227e-05
-3.68362e-05
2.36346e-06
-3.91969e-05
4.99928e-06
-6.15032e-05
-8.44527e-05
7.62881e-06
-4.4177e-06
-8.72028e-05
7.12907e-06
-2.01485e-06
-6.38749e-05
-4.12108e-05
2.79742e-06
-4.39413e-05
6.5328e-06
-6.75935e-05
-9.22851e-05
1.14127e-05
-9.62986e-06
-9.91751e-05
1.64915e-05
-4.29844e-06
-7.28723e-05
-4.81907e-05
-2.57708e-05
-2.24986e-05
-6.31439e-05
-3.55717e-05
-4.94747e-05
-0.000112772
-1.70177e-05
-6.55909e-05
3.3358e-05
-7.0691e-06
-4.64779e-05
-2.89803e-05
4.51029e-06
-3.34923e-05
1.23423e-05
-5.41629e-05
-7.42269e-05
2.10613e-05
-7.41882e-06
-8.07076e-05
1.38896e-05
-3.67415e-06
-5.7901e-05
-3.71366e-05
2.52764e-06
-3.96505e-05
6.45425e-06
-6.17973e-05
-8.45164e-05
1.02732e-05
-5.49344e-06
-8.80614e-05
9.03906e-06
-2.44225e-06
-6.48415e-05
-4.2086e-05
2.69174e-06
-4.4767e-05
5.7568e-06
-6.79146e-05
-9.1755e-05
9.43425e-06
-7.01327e-06
-9.69094e-05
1.21558e-05
-2.9835e-06
-7.19731e-05
-4.77486e-05
3.16038e-06
-5.09335e-05
6.92178e-06
-7.57755e-05
-0.0001015
1.14951e-05
6.56076e-05
-5.04067e-05
-0.000116731
2.67601e-05
-3.68561e-05
-2.40996e-05
6.32792e-06
-3.07244e-05
1.82506e-05
-4.78916e-05
-6.63272e-05
3.3627e-05
-1.14938e-05
-7.56519e-05
2.08459e-05
-4.37706e-06
-5.50787e-05
-3.51588e-05
2.80579e-06
-3.79479e-05
6.06676e-06
-5.83217e-05
-7.90012e-05
9.41631e-06
-3.89226e-06
-8.0943e-05
5.8819e-06
-1.78879e-06
-6.04013e-05
-3.97504e-05
3.18749e-06
-4.29738e-05
6.631e-06
-6.38215e-05
-8.66368e-05
1.23612e-05
-9.3942e-06
-9.27262e-05
1.55727e-05
-4.30775e-06
-6.88512e-05
-4.72871e-05
-2.43151e-05
-2.30703e-05
-5.88832e-05
-3.43645e-05
-4.67963e-05
-0.000104744
-1.82466e-05
-6.22734e-05
3.39709e-05
-7.39633e-06
-4.61971e-05
-2.98723e-05
6.22227e-06
-3.60339e-05
1.41241e-05
-5.39123e-05
-7.22894e-05
2.42195e-05
-9.8714e-06
-8.06544e-05
1.82075e-05
-4.20463e-06
-5.94987e-05
-4.01661e-05
4.53558e-06
-4.47188e-05
9.61137e-06
-6.45389e-05
-8.73479e-05
1.63064e-05
-7.62433e-06
-9.16848e-05
1.20911e-05
-3.36154e-06
-6.87666e-05
-4.80964e-05
-2.5186e-05
-2.29993e-05
-5.96457e-05
-3.44163e-05
-4.6055e-05
-0.000105243
-1.75744e-05
-6.05921e-05
3.21595e-05
-7.88961e-06
-4.50726e-05
-3.02245e-05
5.25119e-06
-3.54455e-05
1.21496e-05
-5.18616e-05
-6.97364e-05
2.12115e-05
-9.09123e-06
-7.60072e-05
1.54378e-05
-4.02292e-06
-5.69459e-05
-3.95209e-05
4.60758e-06
-4.41172e-05
1.04462e-05
-6.27269e-05
-8.27964e-05
1.73664e-05
5.33575e-05
-4.24692e-05
-9.36729e-05
2.23896e-05
-3.18866e-05
-2.18086e-05
8.03273e-06
-2.916e-05
1.80291e-05
-4.2874e-05
-5.66398e-05
3.21984e-05
-1.47074e-05
-6.82665e-05
2.63037e-05
-6.59348e-06
-5.09039e-05
-3.57631e-05
5.4052e-06
-4.11938e-05
1.24589e-05
-5.79695e-05
-7.68195e-05
2.10808e-05
-7.66385e-06
-8.14352e-05
1.22815e-05
-3.98843e-06
-6.16611e-05
-4.51965e-05
-2.26024e-05
-2.25993e-05
-5.25763e-05
-3.16925e-05
-4.18808e-05
-9.21258e-05
-1.88263e-05
-5.60034e-05
3.29368e-05
-7.58944e-06
-4.29389e-05
-3.01868e-05
6.81253e-06
-3.70065e-05
1.40115e-05
-5.01445e-05
-6.54228e-05
2.3433e-05
4.23326e-05
-3.41717e-05
-7.362e-05
1.78727e-05
-2.57103e-05
-1.90384e-05
6.5829e-06
-2.59752e-05
1.75449e-05
-3.58193e-05
-4.73811e-05
3.02282e-05
-1.37695e-05
-5.55381e-05
2.19504e-05
-6.6315e-06
-4.30754e-05
-3.25918e-05
-1.63545e-05
-1.62263e-05
-3.78477e-05
-2.15689e-05
-2.78397e-05
-6.55541e-05
-1.0805e-05
-3.52683e-05
1.82368e-05
-5.07472e-06
-2.72992e-05
-2.12993e-05
-1.27069e-05
-8.59259e-06
-2.84979e-05
-1.15087e-05
-1.52037e-05
-4.85639e-05
7.87191e-07
-1.65224e-05
5.30375e-07
5.63941e-07
-1.12864e-05
-8.02951e-06
-1.36061e-05
5.5759e-06
-3.24086e-05
7.51532e-06
9.60747e-06
-5.85387e-05
2.53891e-05
2.64215e-05
-4.22028e-05
1.17344e-05
2.11701e-05
1.73103e-05
-1.08395e-05
2.81501e-05
-2.3942e-05
3.42729e-05
4.28891e-05
-4.04092e-05
2.75709e-05
6.34897e-05
-4.81706e-05
1.15368e-05
5.03079e-05
3.96877e-05
-1.34839e-05
5.31715e-05
-3.28877e-05
6.97116e-05
8.96986e-05
-5.90972e-05
-4.88773e-05
5.56697e-05
8.28997e-05
-2.13128e-05
4.21431e-05
3.18564e-05
-1.9135e-05
5.10011e-05
-4.36997e-05
6.67175e-05
8.72992e-05
-7.53259e-05
-4.04099e-05
5.92613e-05
6.84447e-05
-1.8403e-05
4.4712e-05
3.25945e-05
-2.41558e-05
5.66793e-05
-5.58423e-05
7.63628e-05
9.9657e-05
-9.61005e-05
-3.73706e-05
7.50508e-05
6.21583e-05
-1.66663e-05
5.58023e-05
3.97949e-05
1.45817e-05
2.6314e-05
3.19038e-05
3.68457e-05
4.89751e-05
5.83698e-05
4.77904e-05
8.61559e-05
-8.52221e-05
2.03463e-05
6.47268e-05
4.63373e-05
1.40993e-05
3.23147e-05
3.31239e-05
4.57016e-05
6.01713e-05
5.9153e-05
5.98114e-05
0.0001073
-0.000106938
2.4742e-05
8.07913e-05
5.70541e-05
1.41021e-05