/*--------------------------------*- C++ -*----------------------------------*\
| =========                 |                                                 |
| \\      /  F ield         | OpenFOAM: The Open Source CFD Toolbox           |
|  \\    /   O peration     | Version:  v2006                                 |
|   \\  /    A nd           | Website:  www.openfoam.com                      |
|    \\/     M anipulation  |                                                 |
\*---------------------------------------------------------------------------*/
FoamFile
{
    version     2.0;
    format      ascii;
    class       volScalarField;
    location    "0.098";
    object      alphat;
}
// * * * * * * * * * * * * * * * * * * * * * * * * * * * * * * * * * * * * * //

dimensions      [1 -1 -1 0 0 0 0];


internalField   nonuniform List<scalar> 
16277
(
36.8357
24.7988
91.2682
17.9247
26.4833
15.2134
6.32008
2.60773
1.41149
0.953738
0.750116
0.646771
0.585006
0.540194
0.502464
0.468499
0.437583
0.409774
0.385107
0.363412
0.344355
0.327538
0.312578
0.299152
0.287001
0.275928
0.265783
0.25645
0.247836
0.239865
0.232474
0.225609
0.219223
0.213278
0.207737
0.202572
0.197756
0.193268
0.189086
0.185192
0.181571
0.178209
0.175092
0.172212
0.169557
0.167121
0.164894
0.162873
0.161052
0.159429
0.157999
0.156763
0.155721
0.154872
0.154217
0.153762
0.153512
0.153472
0.153651
0.154052
0.154689
0.155575
0.156725
0.158159
0.159897
0.161965
0.164395
0.167223
0.170497
0.174277
0.178645
0.183706
0.189596
0.196476
0.204502
0.213784
0.224326
0.23605
0.249061
0.2645
0.28636
0.325981
0.412487
0.621745
1.15806
2.43491
4.29953
4.59799
2.72449
1.7997
0.886062
0.403998
0.219666
0.10364
0.0245576
0.00441852
0.0001464
0.000127054
0.00207673
0.00956443
0.00527018
0.00134568
0.00011128
9.9637e-05
0.00122688
0.00443178
0.00353618
0.00105454
9.2069e-05
8.61343e-05
0.00102197
0.00335344
0.00290157
0.000920534
8.108e-05
7.76729e-05
0.000904697
0.00282632
0.00257243
0.000843074
7.43144e-05
7.24986e-05
0.000848154
0.00254625
0.00238182
0.000803042
7.02802e-05
6.90876e-05
0.00081025
0.00236723
0.00224242
0.000773925
6.7451e-05
6.66267e-05
0.000781079
0.00223589
0.00213273
0.000750269
6.5348e-05
6.47502e-05
0.000757219
0.0021307
0.00204133
0.000730108
6.37119e-05
6.32626e-05
0.000737033
0.00204219
0.00196266
0.000712411
6.23848e-05
6.20308e-05
0.000719366
0.00196542
0.00189328
0.000696438
6.12596e-05
6.09713e-05
0.000703312
0.0018973
0.00183097
0.000681711
6.02783e-05
6.0036e-05
0.0006885
0.0018359
0.0017744
0.000668009
5.93999e-05
5.91901e-05
0.000674728
0.00178
0.00172256
0.000655201
5.85971e-05
5.84111e-05
0.000661861
0.00172874
0.00167471
0.000643181
5.78519e-05
5.76841e-05
0.000649776
0.00168141
0.00163039
0.000631843
5.7152e-05
5.69984e-05
0.000638373
0.00163754
0.00158921
0.000621111
5.64884e-05
5.63459e-05
0.000627577
0.00159675
0.00155086
0.000610929
5.58543e-05
5.57207e-05
0.000617344
0.00155876
0.0015151
0.000601272
5.52449e-05
5.51189e-05
0.00060764
0.00152328
0.00148163
0.0005921
5.46566e-05
5.45374e-05
0.000598417
0.00149002
0.00145017
0.000583359
5.40866e-05
5.39731e-05
0.00058962
0.00145872
0.00142048
0.000575001
5.3532e-05
5.34234e-05
0.000581202
0.00142913
0.00139234
0.000566979
5.29901e-05
5.28854e-05
0.000573115
0.00140106
0.00136558
0.000559247
5.24583e-05
5.23569e-05
0.000565311
0.00137432
0.00134001
0.000551759
5.19343e-05
5.18354e-05
0.000557747
0.00134875
0.00131551
0.000544476
5.14157e-05
5.13186e-05
0.000550381
0.00132422
0.00129195
0.000537362
5.09005e-05
5.08044e-05
0.000543182
0.00130061
0.00126922
0.000530389
5.03864e-05
5.02907e-05
0.000536121
0.0012778
0.00124722
0.00052353
4.98716e-05
4.97757e-05
0.000529171
0.00125571
0.00122588
0.000516763
4.93542e-05
4.92576e-05
0.000522314
0.00123428
0.00120514
0.000510072
4.88326e-05
4.87348e-05
0.000515534
0.00121344
0.00118495
0.000503447
4.83052e-05
4.8206e-05
0.000508822
0.00119316
0.00116529
0.00049688
4.77707e-05
4.76699e-05
0.000502189
0.0011734
0.00114612
0.000490377
4.7228e-05
4.71256e-05
0.000495675
0.00115417
0.00112746
0.000483958
4.66765e-05
4.65726e-05
0.000489229
0.00113545
0.0011093
0.000477601
4.61156e-05
4.60102e-05
0.000482865
0.00111723
0.00109163
0.000471326
4.55448e-05
4.54381e-05
0.000476608
0.00109955
0.0010745
0.000465163
4.49641e-05
4.48565e-05
0.000470488
0.00108244
0.00105795
0.000459148
4.4374e-05
4.42661e-05
0.000464548
0.00106597
0.00104208
0.000453327
4.37756e-05
4.36686e-05
0.000458848
0.00105037
0.00102705
0.000447773
4.3171e-05
4.30661e-05
0.000453468
0.0010358
0.001013
0.00044257
4.25632e-05
4.24625e-05
0.000448493
0.00102226
0.00100004
0.000437811
4.19565e-05
4.18624e-05
0.000444029
0.00100999
0.000988432
0.000433609
4.13562e-05
4.12719e-05
0.000440204
0.000999274
0.000978479
0.000430107
4.0769e-05
4.06994e-05
0.000437166
0.00099042
0.000970513
0.000427483
4.02031e-05
4.01564e-05
0.000434985
0.000983771
0.000964923
0.000425862
3.96763e-05
3.96454e-05
0.00043349
0.000979577
0.000961824
0.000424851
3.92093e-05
3.91831e-05
0.000432715
0.000978326
0.000961697
0.000424684
3.8801e-05
3.87786e-05
0.000432783
0.000980041
0.000964499
0.000425427
3.84851e-05
3.84465e-05
0.000433665
0.000984533
0.000970121
0.000427055
3.82584e-05
3.82077e-05
0.000435243
0.000991419
0.000978029
0.000429158
3.80406e-05
3.80635e-05
0.00043721
0.00100051
0.000988105
0.000431379
3.78989e-05
3.79846e-05
0.000439146
0.00101146
0.000999859
0.000433632
3.78383e-05
3.8e-05
0.000440765
0.00102299
0.00101182
0.000435577
3.78787e-05
3.8093e-05
0.000442094
0.00103403
0.00102308
0.000436978
3.79965e-05
3.82518e-05
0.000443359
0.00104408
0.00103333
0.000438089
3.81807e-05
3.84722e-05
0.000444359
0.00105291
0.00104241
0.000439105
3.84256e-05
3.87461e-05
0.000445261
0.00106044
0.00105013
0.000439652
3.872e-05
3.90578e-05
0.000445921
0.00106681
0.00105628
0.000439994
3.90508e-05
3.9397e-05
0.000446357
0.00107174
0.00106057
0.000440157
3.94064e-05
3.97519e-05
0.000446564
0.00107589
0.00106352
0.000440197
3.97745e-05
4.01108e-05
0.00044663
0.00107839
0.00106481
0.000439897
4.0144e-05
4.04641e-05
0.000446558
0.00107914
0.00106359
0.000439139
4.05048e-05
4.08022e-05
0.000445832
0.00107773
0.00106104
0.000438155
4.08451e-05
4.11131e-05
0.000444863
0.00107489
0.00105743
0.000437059
4.11552e-05
4.13902e-05
0.000443755
0.00107083
0.0010528
0.000435928
4.14289e-05
4.16291e-05
0.000442542
0.00106563
0.00104728
0.000434797
4.16624e-05
4.18285e-05
0.000441286
0.00105947
0.00104104
0.000433702
4.18556e-05
4.19904e-05
0.000440036
0.00105256
0.00103424
0.000432655
4.2011e-05
4.21169e-05
0.000438791
0.00104503
0.00102696
0.00043163
4.21305e-05
4.22059e-05
0.000437535
0.00103707
0.00101924
0.000430604
4.2217e-05
4.22684e-05
0.000436271
0.00102889
0.00101133
0.000429556
4.22767e-05
4.2307e-05
0.000434976
0.00102059
0.00100331
0.000428466
4.23115e-05
4.23291e-05
0.000433655
0.0010123
0.000995161
0.000427236
4.23204e-05
4.23295e-05
0.000432246
0.00100399
0.000987035
0.000425854
4.23035e-05
4.23114e-05
0.000430824
0.000995748
0.000979001
0.000424466
4.22773e-05
4.22844e-05
0.000429382
0.000987572
0.000971007
0.000423044
4.22445e-05
4.22504e-05
0.000427918
0.000979471
0.000963058
0.00042163
4.22008e-05
4.22032e-05
0.000426419
0.000971343
0.000954951
0.000420104
4.21453e-05
4.21466e-05
0.000424811
0.00096315
0.000946806
0.000418502
4.20836e-05
4.20827e-05
0.000423115
0.000954908
0.000938629
0.000416817
4.20151e-05
4.20134e-05
0.000421382
0.000946679
0.00093057
0.00041512
4.19445e-05
4.19422e-05
0.000419683
0.000938644
0.000922638
0.000413412
4.18514e-05
4.18839e-05
0.000417983
0.000930715
0.000914147
0.000411644
4.17541e-05
4.18023e-05
0.000415821
0.000923231
0.00090698
0.0004087
4.15944e-05
4.1848e-05
0.000415995
0.00092055
0.000909321
0.000415443
4.17399e-05
4.24243e-05
0.000416066
0.000919379
0.000962585
0.000437578
4.27415e-05
4.55767e-05
0.000410421
0.000935953
0.00142876
0.000597158
5.15204e-05
5.55309e-05
0.000309644
0.000710507
0.00175245
0.00401363
0.00750273
0.0106977
0.0128831
0.0169341
0.0195203
0.021841
0.0231476
0.0237725
0.0235968
0.0225469
0.0210523
0.018655
0.0163046
0.0127412
0.0111326
0.00810048
0.00606052
0.00411596
0.00233969
0.00107361
0.000390714
0.000162204
3.13122e-05
2.04851e-05
0.000150587
0.000355644
0.000335184
0.000143102
1.97088e-05
1.89262e-05
0.00013818
0.000317687
0.000318892
0.000136193
1.87233e-05
1.8605e-05
0.0001354
0.000313916
0.000314043
0.00013406
1.84232e-05
1.8408e-05
0.000134023
0.00031374
0.000314649
0.0001341
1.84341e-05
1.84401e-05
0.000134305
0.000315307
0.000315796
0.000134527
1.84689e-05
1.84827e-05
0.000134718
0.00031672
0.000317171
0.000134929
1.84978e-05
1.85278e-05
0.000135191
0.000318213
0.000318769
0.000135448
1.85204e-05
1.85525e-05
0.000135734
0.000319792
0.000320337
0.000135912
1.85667e-05
1.85983e-05
0.000136209
0.000321415
0.000321936
0.000136395
1.86034e-05
1.86101e-05
0.000136798
0.000323065
0.000323608
0.000136896
1.86491e-05
1.866e-05
0.000137335
0.00032478
0.000325379
0.000137515
1.86776e-05
1.86844e-05
0.000137913
0.00032655
0.000327089
0.000138061
1.87296e-05
1.87335e-05
0.000138432
0.00032831
0.000328899
0.000138664
1.87543e-05
1.87608e-05
0.000139057
0.00033017
0.000330765
0.000139228
1.88046e-05
1.8816e-05
0.000139677
0.000332043
0.000332675
0.000139882
1.88344e-05
1.88421e-05
0.000140314
0.000333953
0.00033454
0.000140487
1.88888e-05
1.88948e-05
0.000140908
0.000335917
0.000336582
0.000141182
1.89179e-05
1.89264e-05
0.000141624
0.000337967
0.000338604
0.0001419
1.89602e-05
1.89978e-05
0.000142266
0.00033995
0.000340592
0.000142492
1.90018e-05
1.90128e-05
0.000143002
0.000341953
0.000342576
0.000143243
1.90461e-05
1.90803e-05
0.000143626
0.000344041
0.000344758
0.000143907
1.90883e-05
1.9104e-05
0.00014447
0.0003462
0.000346858
0.000144708
1.91369e-05
1.91732e-05
0.000145102
0.000348269
0.000348983
0.000145364
1.91787e-05
1.91936e-05
0.000145964
0.000350482
0.000351164
0.000146233
1.92297e-05
1.92665e-05
0.000146626
0.000352589
0.000353246
0.000146865
1.92708e-05
1.92847e-05
0.000147463
0.000354754
0.000355445
0.00014773
1.93197e-05
1.9359e-05
0.000148142
0.000356849
0.000357455
0.000148355
1.93625e-05
1.93738e-05
0.00014891
0.000358851
0.000359444
0.000149114
1.94038e-05
1.94409e-05
0.000149522
0.000360816
0.00036143
0.00014971
1.9444e-05
1.94549e-05
0.000150246
0.000362806
0.000363368
0.000150425
1.94866e-05
1.95199e-05
0.000150732
0.000364569
0.000364936
0.000150811
1.95169e-05
1.95203e-05
0.000151218
0.000366042
0.000366454
0.000151168
1.95553e-05
1.95573e-05
0.000151464
0.000367417
0.000367729
0.000151397
1.95648e-05
1.95576e-05
0.000151528
0.000368472
0.000368571
0.000151305
1.95871e-05
1.95733e-05
0.000151241
0.00036899
0.000369046
0.000150931
1.95692e-05
1.95491e-05
0.000150768
0.000369276
0.000369268
0.000150362
1.95582e-05
1.95656e-05
0.000149897
0.000369353
0.000368982
0.000149303
1.95382e-05
1.95117e-05
0.00014875
0.000368884
0.000368092
0.00014791
1.95073e-05
1.9502e-05
0.000147044
0.000367804
0.000366593
0.000145914
1.9466e-05
1.94249e-05
0.000144903
0.000366126
0.000364631
0.000143504
1.94221e-05
1.93901e-05
0.000142387
0.000364291
0.000362693
0.000140899
1.93755e-05
1.93571e-05
0.000139605
0.000362117
0.000359954
0.00013789
1.93617e-05
1.93725e-05
0.000136377
0.000359334
0.000357935
0.000134917
1.9376e-05
1.94348e-05
0.000133816
0.000358655
0.000357507
0.000132338
1.95066e-05
1.95987e-05
0.000131085
0.000357568
0.000356588
0.00012957
1.96882e-05
1.98403e-05
0.000128862
0.000358482
0.000360492
0.000127543
2.00256e-05
2.02246e-05
0.00012688
0.000364707
0.000369975
0.000128193
2.0428e-05
2.06318e-05
0.000128829
0.000374888
0.000377751
0.000128123
2.06894e-05
2.08368e-05
0.000125783
0.000383425
0.000389836
0.000132561
2.1133e-05
2.13375e-05
0.000128717
0.000395339
0.000400648
0.000131948
2.16891e-05
2.19464e-05
0.000133761
0.000410582
0.000413267
0.000136816
2.23272e-05
2.28576e-05
0.000143956
0.000426282
0.000428464
0.000147647
2.33706e-05
2.37931e-05
0.000153442
0.000439237
0.000441821
0.000158536
2.46448e-05
2.64436e-05
0.000182978
0.000460252
0.000457815
0.000193136
1.98387e-05
1.52319e-05
4.70497e-05
0.000128462
0.000359403
0.00011123
1.7978e-05
1.88867e-05
0.000100048
0.000330467
0.000349359
0.000104289
1.9358e-05
1.97074e-05
9.87384e-05
0.000334159
0.000360267
0.000106526
2.03005e-05
2.08914e-05
0.000105027
0.000355486
0.000391589
0.000119995
2.16105e-05
2.23846e-05
0.000119233
0.000384113
0.000420257
0.000138864
2.33094e-05
2.44856e-05
0.000142041
0.000422369
0.000468079
0.000169411
2.69203e-05
2.05612e-05
0.000187245
0.000479233
0.000128713
4.42248e-05
1.63926e-05
1.96343e-05
0.000120729
0.000402441
0.000393808
0.000112293
2.13261e-05
2.26395e-05
0.000147188
0.000486414
0.000496005
0.000148856
2.36181e-05
2.49829e-05
0.000173437
0.000551493
0.000566981
0.000185028
2.66627e-05
2.9887e-05
0.000222059
0.0006213
0.000605572
0.000241129
2.33399e-05
1.76563e-05
5.49303e-05
0.000159775
0.000493797
0.000145821
2.09436e-05
2.26879e-05
0.000135983
0.000484248
0.000556865
0.000168153
2.42813e-05
2.59497e-05
0.00016799
0.000548901
0.000620059
0.000211997
2.97501e-05
2.37011e-05
0.000242723
0.000622074
0.000168616
5.37291e-05
1.76075e-05
2.19727e-05
0.000153649
0.000559515
0.000577287
0.000161885
2.48658e-05
2.88848e-05
0.000229573
0.000742352
0.000775356
0.000265624
3.35081e-05
2.74028e-05
0.000306985
0.000782291
0.000217479
6.32078e-05
1.85713e-05
2.40635e-05
0.000205714
0.000696707
0.000692369
0.000199486
2.80651e-05
3.5195e-05
0.000296072
0.000873562
0.000887804
0.000342098
2.91275e-05
1.95291e-05
7.1302e-05
0.000270072
0.000899969
0.000264791
2.79247e-05
3.52973e-05
0.000280229
0.000968746
0.00134177
0.000472111
4.82185e-05
4.01921e-05
0.000503435
0.00128957
0.00045541
0.000119599
2.62076e-05
4.68023e-05
0.000491022
0.00140726
0.00141067
0.000526282
4.36939e-05
2.97698e-05
0.000136204
0.000557828
0.00194948
0.000648485
6.50159e-05
6.40935e-05
0.000747279
0.00211753
0.00096445
0.000266408
4.07565e-05
6.49246e-05
0.000867601
0.00252806
0.00167002
0.000553884
4.32313e-05
8.02885e-05
0.000976816
0.0019696
0.00168942
0.000817169
6.60141e-05
6.67794e-05
0.000778175
0.00185153
0.00237188
0.000857632
7.64771e-05
0.000105522
0.00159895
0.00394738
0.000879041
0.000273252
5.99232e-05
6.13504e-05
0.000766011
0.00175545
0.000542669
0.000193912
4.27611e-05
4.63729e-05
0.000473696
0.00113759
0.000971484
0.000348229
4.65675e-05
2.54318e-05
8.85566e-05
0.000278277
0.000654139
0.000355402
3.06196e-05
2.89018e-05
0.000114944
0.0002965
0.000721327
0.000313815
3.30422e-05
3.53745e-05
0.000256484
0.000654436
0.00021339
8.00032e-05
2.34065e-05
2.78334e-05
0.000252308
0.000567883
0.000522172
0.000211121
3.12841e-05
2.18169e-05
6.84369e-05
0.000174547
0.000482597
0.000214393
2.53067e-05
2.91989e-05
0.000186517
0.000443929
0.000154119
6.41522e-05
2.12349e-05
2.38891e-05
0.000191067
0.000425726
0.000386578
0.000168298
2.80571e-05
2.08381e-05
5.92813e-05
0.000138056
0.000377463
0.000172319
2.26258e-05
2.70982e-05
0.000151898
0.000344714
0.000125122
5.58871e-05
2.0564e-05
2.19908e-05
0.00016055
0.000340768
0.000308633
0.00014092
2.62724e-05
2.01547e-05
5.26331e-05
0.000115784
0.000310649
0.000148358
2.10593e-05
2.57598e-05
0.000131778
0.000284473
0.000111961
5.24082e-05
2.02466e-05
2.10835e-05
0.000150383
0.000302694
0.000257955
0.000121867
2.66036e-05
2.21874e-05
9.58852e-05
0.000210039
8.25942e-05
3.71568e-05
1.80501e-05
1.7523e-05
9.97276e-05
0.000203163
0.000193755
9.27412e-05
2.24936e-05
1.82866e-05
3.85017e-05
7.92458e-05
0.000191734
9.79112e-05
1.749e-05
2.24004e-05
8.96811e-05
0.000177262
7.40791e-05
3.65122e-05
1.79598e-05
1.66854e-05
8.84877e-05
0.00016705
0.000159428
8.41832e-05
2.14707e-05
1.78118e-05
3.58393e-05
6.9631e-05
0.000160345
8.70285e-05
1.68342e-05
2.17444e-05
8.23803e-05
0.000151093
6.74915e-05
3.48365e-05
1.76879e-05
1.6395e-05
8.11209e-05
0.000147984
0.0001405
7.76997e-05
2.13277e-05
1.75649e-05
3.34311e-05
6.30998e-05
0.000136443
7.67991e-05
1.5905e-05
2.07758e-05
7.1029e-05
0.000129036
6.021e-05
3.32918e-05
1.71597e-05
1.55593e-05
7.22241e-05
0.000123858
0.000120066
6.66968e-05
2.05008e-05
1.68964e-05
3.07424e-05
5.4207e-05
0.00010812
7.92242e-05
1.48673e-05
1.90864e-05
3.80591e-05
6.31763e-05
0.000144284
8.3353e-05
1.71967e-05
2.17745e-05
7.66114e-05
0.000133136
6.45471e-05
3.71253e-05
1.78389e-05
1.63213e-05
7.94351e-05
0.000132813
0.000125695
7.36751e-05
2.15053e-05
1.78961e-05
3.68643e-05
6.22831e-05
0.000130516
7.85661e-05
1.62796e-05
2.12546e-05
7.29876e-05
0.000123301
6.08727e-05
3.67826e-05
1.76893e-05
1.60949e-05
7.40661e-05
0.00011825
0.000112288
6.72233e-05
2.13861e-05
1.77864e-05
3.62189e-05
5.71074e-05
0.000110056
6.94361e-05
1.5691e-05
2.05763e-05
6.26451e-05
0.000102859
5.01939e-05
3.25946e-05
1.68439e-05
1.44333e-05
6.76119e-05
9.05145e-05
5.53733e-05
3.77701e-05
1.89041e-05
1.68256e-05
6.86797e-05
0.00010972
0.000100355
6.2483e-05
2.14846e-05
1.75582e-05
3.69105e-05
5.37463e-05
0.000100002
6.52401e-05
1.56641e-05
2.06843e-05
5.9944e-05
9.03698e-05
4.81163e-05
3.42459e-05
1.71354e-05
1.45394e-05
6.33017e-05
8.16852e-05
5.16744e-05
3.7432e-05
1.91646e-05
1.67209e-05
6.50844e-05
9.95659e-05
9.05881e-05
5.91656e-05
2.12733e-05
1.74935e-05
3.71897e-05
5.08441e-05
9.42671e-05
6.2887e-05
1.56034e-05
2.0634e-05
5.70586e-05
8.54323e-05
4.62842e-05
3.43173e-05
1.69925e-05
1.45152e-05
5.94759e-05
7.55737e-05
4.87003e-05
3.68444e-05
1.91935e-05
1.65124e-05
6.06103e-05
9.20886e-05
8.31277e-05
5.56085e-05
2.11276e-05
1.74187e-05
3.70754e-05
4.73541e-05
8.46833e-05
5.77018e-05
1.55715e-05
2.06701e-05
5.29605e-05
7.70251e-05
4.37139e-05
3.46464e-05
1.7228e-05
1.45938e-05
5.56868e-05
6.77197e-05
4.51101e-05
3.65243e-05
1.92526e-05
1.62466e-05
5.4812e-05
8.22783e-05
7.36204e-05
4.99698e-05
2.07815e-05
1.67992e-05
3.45182e-05
4.20985e-05
6.59175e-05
5.45998e-05
1.40904e-05
1.89419e-05
3.67888e-05
4.45799e-05
8.11399e-05
5.3988e-05
1.60372e-05
2.10361e-05
4.99822e-05
7.29071e-05
4.27475e-05
3.60008e-05
1.72721e-05
1.45402e-05
5.39957e-05
6.5657e-05
4.49969e-05
3.79426e-05
1.91002e-05
1.5914e-05
5.42237e-05
8.03654e-05
7.18342e-05
4.97895e-05
2.08075e-05
1.7085e-05
3.59691e-05
4.21973e-05
6.46295e-05
5.46399e-05
1.42029e-05
1.91352e-05
3.81297e-05
4.44761e-05
7.88908e-05
5.30085e-05
1.61409e-05
2.10108e-05
4.91868e-05
7.08831e-05
4.20806e-05
3.64978e-05
1.72309e-05
1.44182e-05
5.41689e-05
6.35379e-05
4.42192e-05
3.85899e-05
1.91456e-05
1.6106e-05
5.26629e-05
7.74716e-05
6.92462e-05
4.8699e-05
2.09172e-05
1.73715e-05
3.66268e-05
4.16378e-05
6.05797e-05
5.3928e-05
1.44148e-05
1.89452e-05
3.98694e-05
4.39379e-05
6.69681e-05
5.17119e-05
1.5192e-05
1.96505e-05
4.00573e-05
4.63991e-05
7.89787e-05
5.26695e-05
1.64781e-05
2.09321e-05
4.90573e-05
7.0387e-05
4.26025e-05
3.76565e-05
1.70794e-05
1.42363e-05
5.41714e-05
6.30032e-05
4.4507e-05
4.02474e-05
1.92773e-05
1.61759e-05
5.21251e-05
7.61416e-05
6.83648e-05
4.86845e-05
2.10924e-05
1.74309e-05
3.77428e-05
4.18599e-05
6.0092e-05
5.34504e-05
1.46166e-05
1.92423e-05
4.07812e-05
4.42641e-05
6.58951e-05
5.17245e-05
1.55406e-05
1.95957e-05
4.09425e-05
4.62821e-05
7.76872e-05
5.19531e-05
1.62208e-05
2.09602e-05
4.87248e-05
6.91594e-05
4.25434e-05
3.8892e-05
1.72259e-05
1.42429e-05
5.43725e-05
6.18202e-05
4.57662e-05
4.22114e-05
1.92564e-05
1.5481e-05
5.2595e-05
6.75615e-05
4.78452e-05
4.31094e-05
1.98118e-05
1.65288e-05
5.2942e-05
7.92095e-05
7.06944e-05
4.98378e-05
2.14031e-05
1.74472e-05
4.00456e-05
4.38272e-05
6.25013e-05
5.5816e-05
1.44689e-05
1.92777e-05
4.30374e-05
4.6559e-05
6.78103e-05
5.3872e-05
1.54971e-05
1.98309e-05
4.38735e-05
4.83984e-05
7.94226e-05
5.36139e-05
1.65316e-05
2.12589e-05
5.05634e-05
7.09126e-05
4.44991e-05
4.12784e-05
1.749e-05
1.46016e-05
5.63671e-05
6.36399e-05
4.76846e-05
4.43922e-05
1.95696e-05
1.58603e-05
5.44539e-05
6.89603e-05
4.95359e-05
4.50362e-05
1.99072e-05
1.64728e-05
5.41175e-05
7.99636e-05
7.13535e-05
5.09283e-05
2.11018e-05
1.73666e-05
4.08462e-05
4.43377e-05
6.28423e-05
5.62185e-05
1.45173e-05
1.95236e-05
4.36788e-05
4.69754e-05
6.71337e-05
5.31665e-05
1.57748e-05
2.00269e-05
4.45987e-05
4.85063e-05
7.73041e-05
5.2933e-05
1.65996e-05
2.13793e-05
5.02106e-05
6.9198e-05
4.40681e-05
4.1386e-05
1.76283e-05
1.45851e-05
5.60984e-05
6.22622e-05
4.70356e-05
4.40544e-05
1.93955e-05
1.54085e-05
5.2469e-05
6.64638e-05
4.94612e-05
4.50695e-05
1.96726e-05
1.5655e-05
5.39968e-05
6.92214e-05
5.08938e-05
4.78131e-05
1.99547e-05
1.66336e-05
5.50756e-05
7.9531e-05
7.09966e-05
5.23179e-05
2.13465e-05
1.75676e-05
4.34568e-05
4.58435e-05
6.33557e-05
5.78679e-05
1.47821e-05
1.96437e-05
4.54701e-05
4.82706e-05
6.70355e-05
5.38797e-05
1.58059e-05
1.98966e-05
4.60272e-05
5.04063e-05
6.94561e-05
5.4689e-05
1.57711e-05
2.0003e-05
4.86556e-05
5.15053e-05
7.93753e-05
5.55125e-05
1.66081e-05
2.12951e-05
5.27256e-05
7.11416e-05
4.63833e-05
4.41183e-05
1.76425e-05
1.45813e-05
5.87455e-05
6.4333e-05
4.93625e-05
4.66363e-05
1.97037e-05
1.58522e-05
5.42994e-05
6.85772e-05
5.17285e-05
4.76406e-05
2.00755e-05
1.60281e-05
5.62487e-05
7.09819e-05
5.30895e-05
5.04478e-05
2.02745e-05
1.68904e-05
5.71699e-05
8.09621e-05
7.25943e-05
5.42761e-05
2.1522e-05
1.76373e-05
4.5147e-05
4.78097e-05
6.48472e-05
5.97686e-05
1.46531e-05
1.97989e-05
4.74756e-05
5.02224e-05
6.85209e-05
5.48057e-05
1.57876e-05
2.00633e-05
4.77944e-05
5.19678e-05
7.03852e-05
5.5914e-05
1.59446e-05
2.03671e-05
5.05694e-05
5.31367e-05
7.95781e-05
5.64604e-05
1.68488e-05
2.1702e-05
5.42998e-05
7.20412e-05
4.85393e-05
4.65994e-05
1.8011e-05
1.52503e-05
5.95803e-05
6.48382e-05
5.10133e-05
4.87446e-05
2.00786e-05
1.58748e-05
5.63702e-05
6.89393e-05
5.28174e-05
4.89361e-05
2.00047e-05
1.57662e-05
5.5967e-05
7.06056e-05
5.41728e-05
5.02821e-05
2.00375e-05
1.6063e-05
5.86251e-05
7.23711e-05
5.49948e-05
5.31036e-05
2.02642e-05
1.68463e-05
5.8892e-05
8.1504e-05
7.38016e-05
5.61966e-05
2.15214e-05
1.77506e-05
4.66631e-05
4.9652e-05
6.52605e-05
6.08378e-05
1.47059e-05
2.00508e-05
4.90452e-05
5.17922e-05
6.87039e-05
5.55003e-05
1.60924e-05
2.03409e-05
4.97241e-05
5.35168e-05
7.04921e-05
5.63879e-05
1.59826e-05
2.01911e-05
5.14398e-05
5.47627e-05
7.29891e-05
5.92842e-05
1.61596e-05
2.04196e-05
5.43175e-05
5.59754e-05
8.29384e-05
6.01828e-05
1.69657e-05
2.18049e-05
5.77904e-05
7.52043e-05
5.16484e-05
4.94834e-05
1.804e-05
1.4897e-05
6.37897e-05
6.79686e-05
5.40487e-05
5.16843e-05
1.99851e-05
1.5836e-05
5.87074e-05
7.20722e-05
5.60124e-05
5.19749e-05
2.0272e-05
1.61275e-05
5.92911e-05
7.37651e-05
5.7312e-05
5.37074e-05
2.02697e-05
1.61531e-05
6.20526e-05
7.58715e-05
5.84172e-05
5.64759e-05
2.04959e-05
1.71659e-05
6.22496e-05
8.50035e-05
7.72848e-05
5.9565e-05
2.18035e-05
1.80344e-05
5.04182e-05
5.33099e-05
6.8407e-05
6.41448e-05
1.50872e-05
2.02357e-05
5.26481e-05
5.54462e-05
7.19545e-05
5.91747e-05
1.62215e-05
2.06188e-05
5.27706e-05
5.71056e-05
7.33454e-05
5.89514e-05
1.6308e-05
2.05576e-05
5.44656e-05
5.79975e-05
7.56088e-05
6.19332e-05
1.64867e-05
2.07271e-05
5.77838e-05
5.89686e-05
8.49728e-05
6.32829e-05
1.71826e-05
2.20973e-05
6.09868e-05
7.78912e-05
5.47115e-05
5.24129e-05
1.82483e-05
1.5173e-05
6.63826e-05
7.01685e-05
5.70377e-05
5.45129e-05
2.03053e-05
1.61987e-05
6.1013e-05
7.38617e-05
5.89522e-05
5.48075e-05
2.06419e-05
1.63683e-05
6.1256e-05
7.58103e-05
6.02599e-05
5.63299e-05
2.05262e-05
1.64517e-05
6.4152e-05
7.77153e-05
6.09351e-05
5.92047e-05
2.06892e-05
1.71987e-05
6.44603e-05
8.65069e-05
7.91568e-05
6.20909e-05
2.21428e-05
1.829e-05
5.29636e-05
5.57572e-05
6.97133e-05
6.67303e-05
1.5178e-05
2.04569e-05
5.51376e-05
5.77305e-05
7.24031e-05
6.03385e-05
1.63121e-05
2.08106e-05
5.53738e-05
5.90607e-05
7.40534e-05
6.07186e-05
1.64785e-05
2.06398e-05
5.67689e-05
6.00978e-05
7.61705e-05
6.31069e-05
1.64332e-05
2.05596e-05
5.87392e-05
6.1734e-05
7.90569e-05
6.62711e-05
1.64279e-05
2.07691e-05
6.17254e-05
6.27537e-05
8.89675e-05
6.68917e-05
1.73009e-05
2.24609e-05
6.47908e-05
8.19049e-05
5.88071e-05
5.69659e-05
1.86026e-05
1.54948e-05
7.04776e-05
7.40048e-05
6.1321e-05
5.91919e-05
2.06508e-05
1.64662e-05
6.54989e-05
7.77732e-05
6.31207e-05
5.93072e-05
2.08096e-05
1.64922e-05
6.59789e-05
8.00001e-05
6.47213e-05
6.10034e-05
2.06607e-05
1.65224e-05
6.90829e-05
8.28369e-05
6.60795e-05
6.4137e-05
2.09089e-05
1.74981e-05
6.94447e-05
9.18425e-05
8.41678e-05
6.70762e-05
2.26318e-05
1.87002e-05
5.85472e-05
6.07592e-05
7.54737e-05
7.24839e-05
1.55427e-05
2.07776e-05
6.0686e-05
6.33537e-05
7.81661e-05
6.67497e-05
1.66345e-05
2.09866e-05
6.03639e-05
6.44792e-05
7.92649e-05
6.61184e-05
1.67632e-05
2.08726e-05
6.18516e-05
6.53729e-05
8.13424e-05
6.86208e-05
1.66748e-05
2.11288e-05
6.49672e-05
6.60809e-05
9.04554e-05
6.92874e-05
1.75926e-05
2.30504e-05
6.76441e-05
8.35623e-05
6.18978e-05
6.05619e-05
1.89983e-05
1.57131e-05
7.34529e-05
7.60502e-05
6.45056e-05
6.27994e-05
2.09925e-05
1.6764e-05
6.86707e-05
7.96206e-05
6.62591e-05
6.27745e-05
2.10797e-05
1.66816e-05
6.8549e-05
8.14494e-05
6.74419e-05
6.43466e-05
2.09641e-05
1.68437e-05
7.09896e-05
8.42093e-05
6.88828e-05
6.78461e-05
2.1421e-05
1.78255e-05
7.21404e-05
9.33611e-05
8.59209e-05
7.02938e-05
2.31522e-05
1.90971e-05
6.2637e-05
6.41296e-05
7.81889e-05
7.64051e-05
1.57866e-05
2.09953e-05
6.43308e-05
6.66603e-05
8.07089e-05
6.98724e-05
1.67948e-05
2.13379e-05
6.43416e-05
6.79328e-05
8.19516e-05
6.97499e-05
1.68946e-05
2.13747e-05
6.6175e-05
6.90209e-05
8.41967e-05
7.20055e-05
1.7018e-05
2.18441e-05
6.98139e-05
6.99376e-05
9.35044e-05
7.32472e-05
1.83009e-05
2.38541e-05
7.19891e-05
8.67545e-05
6.63897e-05
6.59115e-05
1.96275e-05
1.6334e-05
7.8462e-05
8.03671e-05
6.91347e-05
6.78901e-05
2.1379e-05
1.70468e-05
7.4282e-05
8.42292e-05
7.11196e-05
6.82375e-05
2.16849e-05
1.70475e-05
7.41926e-05
8.66273e-05
7.198e-05
7.09134e-05
2.2019e-05
1.85013e-05
7.41432e-05
9.48925e-05
8.76446e-05
7.28509e-05
2.42501e-05
1.98506e-05
6.61723e-05
6.71762e-05
7.9576e-05
7.84737e-05
1.64012e-05
2.16733e-05
6.81751e-05
6.95233e-05
8.25028e-05
7.35388e-05
1.73408e-05
2.21299e-05
6.85837e-05
7.1071e-05
8.46018e-05
7.29668e-05
1.74574e-05
2.25572e-05
7.20049e-05
7.1855e-05
9.28816e-05
7.41086e-05
1.86766e-05
2.4605e-05
7.34177e-05
8.65268e-05
6.82715e-05
6.8533e-05
2.0108e-05
1.66153e-05
7.98891e-05
8.0588e-05
7.08713e-05
7.04935e-05
2.20039e-05
1.73224e-05
7.46625e-05
8.42988e-05
7.28271e-05
7.09808e-05
2.23659e-05
1.77492e-05
7.52592e-05
8.67322e-05
7.40337e-05
7.41266e-05
2.28108e-05
1.88994e-05
7.60869e-05
9.4593e-05
8.81109e-05
7.54512e-05
2.50454e-05
2.03422e-05
6.94322e-05
7.01457e-05
8.07586e-05
8.10314e-05
1.66312e-05
2.22751e-05
7.16662e-05
7.19497e-05
8.38397e-05
7.5585e-05
1.77357e-05
2.27617e-05
7.23344e-05
7.37476e-05
8.64555e-05
7.54211e-05
1.79639e-05
2.33748e-05
7.62615e-05
7.48983e-05
9.51473e-05
7.73662e-05
1.94578e-05
2.55735e-05
7.70208e-05
8.90458e-05
7.20611e-05
7.30043e-05
2.07617e-05
1.70123e-05
8.38991e-05
8.36555e-05
7.47538e-05
7.54925e-05
2.28448e-05
1.81703e-05
7.94406e-05
8.80272e-05
7.73807e-05
7.64509e-05
2.34736e-05
1.86946e-05
7.9452e-05
9.12256e-05
7.91982e-05
8.05565e-05
2.42384e-05
2.01403e-05
8.15961e-05
9.98112e-05
9.35008e-05
8.14354e-05
2.65849e-05
2.16214e-05
7.67513e-05
7.64468e-05
8.71849e-05
8.79816e-05
1.7657e-05
2.34597e-05
7.90526e-05
7.85454e-05
9.11873e-05
8.2409e-05
1.87017e-05
2.46617e-05
8.17287e-05
8.03093e-05
9.94346e-05
8.1857e-05
2.05227e-05
2.69511e-05
8.12397e-05
9.35445e-05
7.69111e-05
7.82328e-05
2.2141e-05
1.79342e-05
8.84353e-05
8.77828e-05
7.97286e-05
8.10644e-05
2.40231e-05
1.91611e-05
8.4088e-05
9.24534e-05
8.25026e-05
8.25481e-05
2.4871e-05
1.97984e-05
8.45217e-05
9.64427e-05
8.50337e-05
8.75463e-05
2.57818e-05
2.14445e-05
8.79537e-05
0.000105954
9.9433e-05
8.81328e-05
2.83464e-05
2.31356e-05
8.50055e-05
8.33076e-05
9.4185e-05
9.56787e-05
1.87666e-05
2.51316e-05
8.73884e-05
8.62574e-05
9.92996e-05
9.00477e-05
2.01045e-05
2.64041e-05
9.04822e-05
8.81522e-05
0.000108473
8.99871e-05
2.15859e-05
2.88178e-05
9.02073e-05
0.00010247
8.6503e-05
8.87471e-05
2.42635e-05
1.99433e-05
9.7821e-05
9.7274e-05
8.94282e-05
9.19011e-05
2.65071e-05
2.12441e-05
9.37958e-05
0.000103238
9.22863e-05
9.56109e-05
2.78892e-05
2.32598e-05
9.44781e-05
0.000113019
0.000106736
9.49496e-05
3.0736e-05
2.51045e-05
9.29243e-05
9.06984e-05
0.000101915
0.000102533
2.03488e-05
2.76896e-05
9.75715e-05
9.34313e-05
0.000112372
9.5707e-05
2.30926e-05
3.08269e-05
9.56062e-05
0.000106925
9.09137e-05
9.22019e-05
2.50658e-05
2.00077e-05
0.000103235
0.000101268
9.35431e-05
9.51769e-05
2.72443e-05
2.18501e-05
9.62511e-05
0.000105755
9.56357e-05
9.90075e-05
2.90088e-05
2.41717e-05
9.68406e-05
0.000114764
0.000109197
9.81486e-05
3.21208e-05
2.63118e-05
9.713e-05
9.46974e-05
0.000104449
0.000105169
2.15818e-05
2.92291e-05
0.000102541
9.71578e-05
0.000114547
9.93407e-05
2.4513e-05
3.27105e-05
9.96101e-05
0.000109499
9.59885e-05
9.88618e-05
2.69518e-05
2.17785e-05
0.000106793
0.000105279
9.78514e-05
0.000103466
2.93462e-05
2.39517e-05
9.94168e-05
0.000114955
0.000110066
0.000100238
3.26644e-05
2.7291e-05
9.92428e-05
9.66011e-05
0.000105675
0.000106264
2.2387e-05
3.04881e-05
0.000105367
9.93492e-05
0.000115127
0.000100952
2.5307e-05
3.40693e-05
0.000101773
0.00011043
9.84438e-05
0.000102106
2.80072e-05
2.26695e-05
0.000108556
0.000106737
0.000100714
0.000107308
3.06975e-05
2.5352e-05
0.000102373
0.000116654
0.000111947
0.000102951
3.41049e-05
2.79893e-05
0.000102967
9.96709e-05
0.000108094
0.000111639
2.18363e-05
3.05091e-05
0.000108358
0.000101952
0.000117419
0.000102586
2.57859e-05
3.52006e-05
0.000103723
0.000112892
0.000102123
0.000107642
2.93752e-05
2.40209e-05
0.000111677
0.000110388
0.000105518
0.000114326
3.26398e-05
2.71802e-05
0.000108293
0.000121844
0.000117198
0.000109461
3.63718e-05
2.9987e-05
0.000111724
0.000106479
0.000114767
0.000116636
2.42581e-05
3.30278e-05
0.000118561
0.000109423
0.00012682
0.000112867
2.72072e-05
3.61295e-05
0.000112484
0.000122091
0.000110515
0.000119882
3.141e-05
2.71667e-05
0.000119516
0.000124968
0.000121029
0.000119098
3.77596e-05
3.19593e-05
0.000118962
0.000112576
0.000121857
0.00012267
2.6241e-05
3.55526e-05
0.000125611
0.0001168
0.000132916
0.000118431
2.9685e-05
3.95422e-05
0.000120011
0.00012807
0.000117665
0.000127892
3.32804e-05
2.82583e-05
0.000127013