/*--------------------------------*- C++ -*----------------------------------*\
| =========                 |                                                 |
| \\      /  F ield         | OpenFOAM: The Open Source CFD Toolbox           |
|  \\    /   O peration     | Version:  v2006                                 |
|   \\  /    A nd           | Website:  www.openfoam.com                      |
|    \\/     M anipulation  |                                                 |
\*---------------------------------------------------------------------------*/
FoamFile
{
    version     2.0;
    format      ascii;
    class       surfaceScalarField;
    location    "0.098";
    object      phi;
}
// * * * * * * * * * * * * * * * * * * * * * * * * * * * * * * * * * * * * * //

dimensions      [1 0 -1 0 0 0 0];
oriented        oriented;


internalField   nonuniform List<scalar> 
32242
(
-2.61561e-05
-0.0013544
0.00133512
4.55297e-05
-0.00127013
0.00124391
8.34938e-06
7.76952e-05
-3.49556e-06
0.00146285
3.80276e-05
0.00159994
-3.29071e-05
0.00165139
-3.66847e-06
0.00169139
-1.63746e-05
0.00168406
-2.33006e-06
0.00168002
-2.43094e-06
0.00166947
-4.47941e-07
0.00166257
-1.01587e-06
0.00165676
-1.15349e-06
0.00165309
-1.27938e-06
0.00164974
-1.47981e-06
0.00164692
-1.51036e-06
0.00164385
-1.61888e-06
0.00164092
-1.7234e-06
0.00163777
-1.82391e-06
0.0016345
-1.92044e-06
0.00163109
-2.01317e-06
0.00162755
-2.10245e-06
0.00162388
-2.18866e-06
0.00162008
-2.27217e-06
0.00161616
-2.35328e-06
0.00161211
-2.43217e-06
0.00160794
-2.50897e-06
0.00160365
-2.5837e-06
0.00159924
-2.65635e-06
0.00159471
-2.72685e-06
0.00159007
-2.79511e-06
0.00158533
-2.86103e-06
0.00158047
-2.92448e-06
0.00157551
-2.98533e-06
0.00157045
-3.04345e-06
0.0015653
-3.09869e-06
0.00156005
-3.15092e-06
0.00155472
-3.19999e-06
0.00154931
-3.24579e-06
0.00154383
-3.28818e-06
0.00153827
-3.32705e-06
0.00153265
-3.36228e-06
0.00152697
-3.39376e-06
0.00152124
-3.42139e-06
0.00151546
-3.44505e-06
0.00150964
-3.46467e-06
0.00150378
-3.48015e-06
0.00149789
-3.49141e-06
0.00149199
-3.49836e-06
0.00148606
-3.50093e-06
0.00148013
-3.49907e-06
0.00147419
-3.49275e-06
0.00146826
-3.48198e-06
0.00146234
-3.4666e-06
0.00145643
-3.4451e-06
0.00145055
-3.41996e-06
0.00144471
-3.39043e-06
0.0014389
-3.35609e-06
0.00143314
-3.317e-06
0.00142744
-3.27314e-06
0.0014218
-3.22454e-06
0.00141622
-3.17123e-06
0.00141072
-3.11322e-06
0.00140531
-3.05054e-06
0.00139999
-2.98321e-06
0.00139476
-2.91122e-06
0.00138963
-2.83452e-06
0.00138462
-2.75298e-06
0.00137973
-2.66639e-06
0.00137495
-2.57446e-06
0.00137031
-2.47683e-06
0.0013658
-2.37317e-06
0.00136144
-2.26325e-06
0.00135722
-2.14698e-06
0.00135316
-2.02408e-06
0.00134927
-1.89333e-06
0.00134552
-1.75125e-06
0.00134191
-9.21968e-07
0.00133772
-1.39991e-06
0.00133426
-1.16976e-06
0.00132816
-2.89537e-06
0.00131955
-4.61647e-06
0.00130742
-1.96294e-05
0.00128696
-3.00953e-05
0.00126105
-8.36235e-05
0.00122473
-0.000143177
0.00120263
-0.000328503
0.00121428
-0.000736197
0.00140183
-0.000202563
0.000361197
2.04325e-05
0.000599542
4.44665e-06
0.000786408
-3.85986e-05
0.000696039
-1.24937e-05
0.000609995
-7.50924e-06
0.000220539
-4.58125e-06
0.000183625
0.000148435
8.52639e-06
0.000139909
1.73474e-05
0.000174804
0.000210944
2.69429e-05
-1.36292e-05
0.000203716
2.08567e-05
-6.80518e-06
0.00016798
0.000133104
2.50444e-06
0.000130599
4.1278e-06
0.000166357
0.000202481
5.3631e-06
-4.65157e-06
0.000200396
6.73664e-06
-2.87149e-06
0.000164577
0.000127728
1.54675e-06
0.000126181
2.02866e-06
0.000164095
0.000200281
2.14361e-06
-4.45896e-06
0.000198717
6.02264e-06
-2.60025e-06
0.000162236
0.000123581
1.26908e-06
0.000122312
1.1465e-06
0.000162358
0.000198482
1.38152e-06
-3.62732e-06
0.000197499
4.61058e-06
-1.77607e-06
0.000160507
0.000120536
4.71933e-07
0.000120064
3.54575e-07
0.000160625
0.00019786
-6.28337e-09
-2.83712e-06
0.00019616
4.5363e-06
-1.60635e-06
0.000159394
0.000118457
3.42442e-07
0.000118115
2.39667e-07
0.000159497
0.000196461
-6.07442e-08
-2.71692e-06
0.000195374
3.80383e-06
-1.48144e-06
0.000158261
0.000116633
2.51168e-07
0.000116382
1.47986e-07
0.000158364
0.00019564
-1.18477e-07
-2.62296e-06
0.000194523
3.74033e-06
-1.38807e-06
0.000157129
0.000114994
1.83386e-07
0.000114811
8.26997e-08
0.00015723
0.000194759
-1.53483e-07
-2.54962e-06
0.000193618
3.6907e-06
-1.31737e-06
0.000155998
0.000113493
1.32266e-07
0.000113361
2.7346e-08
0.000156103
0.000193833
-1.87656e-07
-2.48675e-06
0.000192676
3.64342e-06
-1.26185e-06
0.000154878
0.000112099
9.25751e-08
0.000112007
-1.27213e-08
0.000154983
0.000192873
-2.09134e-07
-2.43706e-06
0.000191704
3.60577e-06
-1.22107e-06
0.000153767
0.000110786
6.11076e-08
0.000110724
-4.2196e-08
0.00015387
0.000191884
-2.22153e-07
-2.39752e-06
0.000190702
3.57961e-06
-1.18739e-06
0.00015266
0.000109537
3.8816e-08
0.000109498
-6.16314e-08
0.000152761
0.000190868
-2.27503e-07
-2.36731e-06
0.000189674
3.56128e-06
-1.1601e-06
0.000151554
0.000108338
2.28592e-08
0.000108315
-7.47204e-08
0.000151651
0.000189826
-2.26407e-07
-2.34307e-06
0.00018862
3.54828e-06
-1.1378e-06
0.000150446
0.000107178
1.16279e-08
0.000107166
-8.11956e-08
0.000150539
0.000188757
-2.18094e-07
-2.32495e-06
0.000187541
3.54184e-06
-1.11992e-06
0.000149334
0.000106046
4.38552e-09
0.000106042
-8.17695e-08
0.00014942
0.000187662
-2.0294e-07
-2.31214e-06
0.000186432
3.54135e-06
-1.10573e-06
0.000148213
0.000104936
4.6811e-10
0.000104935
-7.72347e-08
0.000148291
0.000186537
-1.81638e-07
-2.30382e-06
0.000185295
3.54614e-06
-1.0946e-06
0.000147082
0.000103841
-1.15058e-09
0.000103842
-6.89091e-08
0.00014715
0.000185381
-1.55927e-07
-2.29899e-06
0.000184125
3.55499e-06
-1.08598e-06
0.000145937
0.000102756
-4.28839e-10
0.000102756
-5.70115e-08
0.000145993
0.000184194
-1.25744e-07
-2.29727e-06
0.000182924
3.56773e-06
-1.07929e-06
0.000144775
0.000101677
2.10446e-09
0.000101675
-4.1761e-08
0.000144819
0.000182973
-9.1093e-08
-2.29851e-06
0.000181687
3.5844e-06
-1.0744e-06
0.000143595
0.0001006
6.36256e-09
0.000100594
-2.32733e-08
0.000143624
0.000181716
-5.19537e-08
-2.30262e-06
0.000180413
3.60513e-06
-1.07119e-06
0.000142393
9.95229e-05
1.1973e-08
9.95109e-05
-2.38677e-09
0.000142407
0.00018042
-9.66903e-09
-2.30853e-06
0.000179101
3.62803e-06
-1.06923e-06
0.000141168
9.84417e-05
1.98673e-08
9.84218e-05
2.26018e-08
0.000141165
0.000179084
3.93141e-08
-2.31632e-06
0.000177748
3.653e-06
-1.06833e-06
0.000139917
9.73535e-05
2.92217e-08
9.73243e-05
5.04205e-08
0.000139896
0.000177706
9.24868e-08
-2.32663e-06
0.000176351
3.68155e-06
-1.06877e-06
0.000138638
9.62556e-05
3.99944e-08
9.62156e-05
8.10609e-08
0.000138597
0.000176282
1.49786e-07
-2.33939e-06
0.000174908
3.71365e-06
-1.07049e-06
0.000137328
9.51451e-05
5.2223e-08
9.50929e-05
1.14599e-07
0.000137266
0.000174811
2.11427e-07
-2.35448e-06
0.000173416
3.74914e-06
-1.07343e-06
0.000135985
9.40195e-05
6.58742e-08
9.39536e-05
1.50985e-07
0.0001359
0.00017329
2.77403e-07
-2.37179e-06
0.000171874
3.78788e-06
-1.07753e-06
0.000134606
9.2876e-05
8.08833e-08
9.27951e-05
1.90116e-07
0.000134496
0.000171716
3.47613e-07
-2.39114e-06
0.000170278
3.82963e-06
-1.08266e-06
0.000133188
9.17124e-05
9.71594e-08
9.16152e-05
2.31832e-07
0.000133053
0.000170087
4.21848e-07
-2.41232e-06
0.000168626
3.87408e-06
-1.08873e-06
0.000131729
9.05264e-05
1.14586e-07
9.04118e-05
2.75916e-07
0.000131568
0.000168402
4.99802e-07
-2.43507e-06
0.000166916
3.92085e-06
-1.09559e-06
0.000130228
8.93161e-05
1.33035e-07
8.91831e-05
3.22126e-07
0.000130039
0.000166657
5.81024e-07
-2.4589e-06
0.000165147
3.96929e-06
-1.10302e-06
0.000128683
8.80801e-05
1.52263e-07
8.79278e-05
3.69979e-07
0.000128466
0.000164852
6.64841e-07
-2.48337e-06
0.000163316
4.0187e-06
-1.11079e-06
0.000127093
8.6817e-05
1.71986e-07
8.6645e-05
4.18887e-07
0.000126846
0.000162985
7.50338e-07
-2.50766e-06
0.000161425
4.06785e-06
-1.11848e-06
0.000125457
8.55265e-05
1.91723e-07
8.53348e-05
4.67882e-07
0.000125181
0.000161057
8.36072e-07
-2.53068e-06
0.000159472
4.1151e-06
-1.12554e-06
0.000123776
8.42093e-05
2.10827e-07
8.39985e-05
5.15692e-07
0.000123471
0.000159068
9.20063e-07
-2.55119e-06
0.000157461
4.15844e-06
-1.13147e-06
0.000122051
8.28671e-05
2.28809e-07
8.26383e-05
5.61025e-07
0.000121719
0.000157022
1.00014e-06
-2.56786e-06
0.000155394
4.19565e-06
-1.13566e-06
0.000120287
8.15027e-05
2.44919e-07
8.12579e-05
6.02304e-07
0.00011993
0.000154923
1.0738e-06
-2.57901e-06
0.000153278
4.22409e-06
-1.13734e-06
0.000118488
8.01206e-05
2.5824e-07
7.98624e-05
6.3755e-07
0.000118109
0.000152777
1.13787e-06
-2.58253e-06
0.00015112
4.24035e-06
-1.13555e-06
0.000116662
7.87268e-05
2.67623e-07
7.84592e-05
6.64259e-07
0.000116265
0.000150595
1.18833e-06
-2.57581e-06
0.000148931
4.24024e-06
-1.1291e-06
0.000114819
7.73301e-05
2.71658e-07
7.70584e-05
6.79333e-07
0.000114411
0.00014839
1.22023e-06
-2.55568e-06
0.000146727
4.21868e-06
-1.11658e-06
0.000112972
7.59418e-05
2.68666e-07
7.56731e-05
6.79039e-07
0.000112561
0.000146179
1.22757e-06
-2.51844e-06
0.000144527
4.16968e-06
-1.09632e-06
0.000111139
7.45768e-05
2.56693e-07
7.432e-05
6.5912e-07
0.000110737
0.000143983
1.20344e-06
-2.45995e-06
0.000142356
4.0864e-06
-1.06645e-06
0.000109343
7.32536e-05
2.33539e-07
7.302e-05
6.14745e-07
0.000108962
0.000141831
1.13989e-06
-2.3754e-06
0.000140246
3.96097e-06
-1.02484e-06
0.000107611
7.19951e-05
1.96651e-07
7.17985e-05
5.40197e-07
0.000107268
0.000139758
1.02762e-06
-2.25937e-06
0.000138233
3.78451e-06
-9.69163e-07
0.000105978
7.08293e-05
1.43189e-07
7.06862e-05
4.29186e-07
0.000105692
0.000137806
8.56227e-07
-2.10656e-06
0.000136364
3.54823e-06
-8.9715e-07
0.000104482
6.9789e-05
7.09458e-08
6.97182e-05
2.76642e-07
0.000104277
0.000136024
6.17319e-07
-1.91252e-06
0.000134691
3.24566e-06
-8.05129e-07
0.000103169
6.89131e-05
-2.44629e-08
6.89376e-05
7.56282e-08
0.000103069
0.000134467
2.99557e-07
-1.66779e-06
0.000133269
2.8659e-06
-6.86922e-07
0.000102089
6.82508e-05
-1.47824e-07
6.83987e-05
-1.81777e-07
0.000102123
0.000133191
-1.03516e-07
-1.37931e-06
0.000132167
2.40334e-06
-5.53312e-07
0.000101297
6.78454e-05
-2.84748e-07
6.81302e-05
-4.79267e-07
0.000101491
0.000132264
-5.76559e-07
-1.0563e-06
0.000131439
1.88184e-06
-4.06202e-07
0.000100841
6.77241e-05
-4.35642e-07
6.81598e-05
-8.11371e-07
0.000101217
0.000131739
-1.11114e-06
-7.16897e-07
0.000131125
1.33082e-06
-2.53738e-07
0.000100754
6.7906e-05
-5.90887e-07
6.84969e-05
-1.15881e-06
0.000101322
0.000131643
-1.67695e-06
-3.73938e-07
0.000131249
7.67729e-07
-1.01532e-07
0.000101049
6.83953e-05
-7.34626e-07
6.91299e-05
-1.48567e-06
0.0001018
0.00013198
-2.21679e-06
-4.10622e-08
0.000131798
2.22423e-07
5.03066e-08
0.000101709
6.918e-05
-8.96214e-07
7.00762e-05
-1.84923e-06
0.000102662
0.000132765
-2.81646e-06
3.00689e-07
0.000132807
-3.42945e-07
2.00364e-07
0.000102762
7.02763e-05
-1.05477e-06
7.1331e-05
-2.20208e-06
0.000103909
0.000134009
-3.40423e-06
5.40665e-07
0.000134236
-7.67473e-07
2.89723e-07
0.00010416
7.16206e-05
-1.14252e-06
7.27631e-05
-2.42839e-06
0.000105446
0.000135613
-3.80571e-06
6.93264e-07
0.000135972
-1.052e-06
3.41822e-07
0.000105797
7.3105e-05
-1.18848e-06
7.42936e-05
-2.56623e-06
0.000107175
0.000137471
-4.06546e-06
7.6728e-07
0.000137918
-1.21363e-06
3.57507e-07
0.000107585
7.46513e-05
-1.20769e-06
7.58592e-05
-2.6437e-06
0.000109021
0.000139503
-4.22845e-06
7.8669e-07
0.000140003
-1.28633e-06
3.49558e-07
0.000109459
7.62089e-05
-1.20401e-06
7.74132e-05
-2.66841e-06
0.000110923
0.000141639
-4.30467e-06
7.55978e-07
0.000142159
-1.27549e-06
3.20357e-07
0.000111359
7.77337e-05
-1.17864e-06
7.89125e-05
-2.6433e-06
0.000112824
0.000143814
-4.29765e-06
6.80679e-07
0.000144322
-1.1893e-06
2.72148e-07
0.000113233
7.91848e-05
-1.13518e-06
8.032e-05
-2.57511e-06
0.000114673
0.000145965
-4.21725e-06
5.68737e-07
0.000146436
-1.03953e-06
2.09239e-07
0.000115032
8.05294e-05
-1.07767e-06
8.16071e-05
-2.47205e-06
0.000116427
0.00014804
-4.07605e-06
4.2865e-07
0.00014845
-8.39152e-07
1.35577e-07
0.00011672
8.17427e-05
-1.00961e-06
8.27523e-05
-2.34185e-06
0.000118052
0.000149994
-3.88597e-06
2.68306e-07
0.000150327
-6.00811e-07
5.52309e-08
0.000118265
8.28075e-05
-9.36652e-07
8.37441e-05
-2.19249e-06
0.000119521
0.000151794
-3.65975e-06
9.61816e-08
0.000152035
-3.37247e-07
-2.69764e-08
0.000119644
8.37171e-05
-8.64187e-07
8.45813e-05
-2.03411e-06
0.000120814
0.000153412
-3.41103e-06
-7.97264e-08
0.000153552
-6.04578e-08
-1.08175e-07
0.000120842
8.44731e-05
-7.89422e-07
8.52626e-05
-1.87241e-06
0.000121925
0.000154833
-3.1534e-06
-2.49845e-07
0.000154873
2.0974e-07
-1.8628e-07
0.000121862
8.50762e-05
-7.17708e-07
8.57936e-05
-1.71423e-06
0.000122858
0.000156056
-2.89684e-06
-4.10747e-07
0.000155997
4.71008e-07
-2.58217e-07
0.000122705
8.55346e-05
-6.52941e-07
8.61861e-05
-1.56698e-06
0.00012362
0.000157085
-2.65147e-06
-5.5562e-07
0.000156931
7.15176e-07
-3.19599e-07
0.000123383
8.58621e-05
-5.95399e-07
8.64556e-05
-1.43325e-06
0.000124222
0.000157929
-2.42077e-06
-6.7812e-07
0.00015769
9.31212e-07
-3.68456e-07
0.000123911
8.6077e-05
-5.50488e-07
8.66217e-05
-1.3208e-06
0.000124684
0.000158607
-2.219e-06
-7.82268e-07
0.000158294
1.11726e-06
-4.0829e-07
0.00012431
8.62005e-05
-5.1536e-07
8.6706e-05
-1.22919e-06
0.000125026
0.00015914
-2.05114e-06
-8.6788e-07
0.000158765
1.27039e-06
-4.40125e-07
0.000124599
8.62519e-05
-4.87602e-07
8.67271e-05
-1.15527e-06
0.000125269
0.000159553
-1.91531e-06
-9.36268e-07
0.000159124
1.39317e-06
-4.64796e-07
0.000124799
8.62479e-05
-4.66527e-07
8.66993e-05
-1.09657e-06
0.000125428
0.000159862
-1.80648e-06
-9.89443e-07
0.000159391
1.48302e-06
-4.85034e-07
0.000124925
8.62026e-05
-4.44561e-07
8.66407e-05
-1.04477e-06
0.000125525
0.000160091
-1.73123e-06
-1.04403e-06
0.000159586
1.54863e-06
-5.12528e-07
0.000124997
8.61304e-05
-4.17689e-07
8.65549e-05
-9.91928e-07
0.000125571
0.00016026
-1.67481e-06
-1.08063e-06
0.000159723
1.59246e-06
-5.31939e-07
0.000125022
8.60364e-05
-4.00721e-07
8.64548e-05
-9.58346e-07
0.000125582
0.000160365
-1.62703e-06
-1.10463e-06
0.000159811
1.6349e-06
-5.3803e-07
0.000125017
8.5931e-05
-4.06349e-07
8.63393e-05
-9.57436e-07
0.000125563
0.000160431
-1.5898e-06
-1.10576e-06
0.000159866
1.67269e-06
-5.245e-07
0.000124987
8.58198e-05
-4.19461e-07
8.62278e-05
-9.60348e-07
0.000125525
0.000160477
-1.55965e-06
-1.09282e-06
0.000159892
1.70172e-06
-5.06153e-07
0.000124935
8.57045e-05
-4.22811e-07
8.6112e-05
-9.57066e-07
0.000125471
0.000160486
-1.51962e-06
-1.11507e-06
0.000159896
1.73355e-06
-5.15732e-07
0.000124874
8.5584e-05
-4.25092e-07
8.59868e-05
-9.56759e-07
0.0001254
0.000160485
-1.5177e-06
-1.11474e-06
0.000159885
1.74999e-06
-5.10129e-07
0.000124807
8.54716e-05
-4.15559e-07
8.58746e-05
-9.36448e-07
0.000125328
0.000160463
-1.49082e-06
-1.10328e-06
0.000159854
1.73632e-06
-5.0323e-07
0.000124718
8.53444e-05
-4.12683e-07
8.57583e-05
-9.29595e-07
0.000125252
0.000160451
-1.48428e-06
-1.11146e-06
0.000159823
1.75954e-06
-5.04581e-07
0.000124636
8.52288e-05
-4.20024e-07
8.56358e-05
-9.38752e-07
0.000125159
0.000160404
-1.48538e-06
-1.11218e-06
0.000159788
1.76065e-06
-5.04998e-07
0.000124555
8.5118e-05
-4.20216e-07
8.55162e-05
-9.36651e-07
0.000125063
0.000160353
-1.48076e-06
-1.1118e-06
0.000159741
1.7603e-06
-5.0449e-07
0.000124468
8.50073e-05
-4.2759e-07
8.54095e-05
-9.55429e-07
0.000124984
0.000160315
-1.51114e-06
-1.11086e-06
0.000159693
1.75564e-06
-5.04344e-07
0.000124388
8.49045e-05
-4.09568e-07
8.53144e-05
-9.32157e-07
0.000124913
0.000160279
-1.5102e-06
-1.09559e-06
0.000159676
1.68499e-06
-5.06623e-07
0.000124314
8.48016e-05
-4.10555e-07
8.52295e-05
-9.49352e-07
0.000124862
0.000160831
-2.11337e-06
-5.51809e-07
0.000159725
1.62702e-06
-4.78214e-07
0.00012479
8.47674e-05
-9.30718e-07
8.56943e-05
-1.57887e-06
0.000125424
0.000161468
-3.33809e-06
1.75704e-07
0.000161544
-2.44669e-07
8.02986e-08
0.000125531
8.57901e-05
-1.67924e-06
8.74324e-05
-4.59736e-06
0.00012841
0.000164065
-7.12629e-06
6.21e-06
0.000168371
-1.04655e-05
3.02148e-06
0.000131592
9.04262e-05
-8.76943e-06
9.90837e-05
-1.98137e-05
0.000142538
0.000181969
-3.33809e-05
4.35115e-05
0.000211535
-7.2867e-05
1.96086e-05
0.000166365
0.000118578
3.92055e-05
9.4705e-05
0.00016573
4.00107e-05
-0.000288017
-5.73669e-05
-0.000325986
-6.17093e-05
-0.000510514
-2.49909e-05
-0.000550489
-1.59451e-05
-0.000577017
-3.11482e-06
-0.000579758
-2.56277e-06
-0.000584682
-2.03417e-07
-0.000585153
-8.03757e-07
-0.000585844
9.64456e-07
-0.000585301
1.54837e-06
-0.000583075
5.07328e-06
-0.000577011
9.77865e-06
-0.00056895
2.14717e-05
-0.00055489
3.83929e-05
-0.000540866
8.52351e-05
-0.000536069
0.000189253
-0.000544794
8.52698e-05
-0.000335931
4.86681e-05
-0.000332991
2.7192e-05
-0.000323202
2.72123e-05
-0.000275558
7.94747e-06
-0.000237141
4.43931e-06
-8.34805e-05
1.79532e-06
-5.64407e-05
-3.04483e-05
-2.18238e-06
-2.82034e-05
-5.8568e-06
-5.27579e-05
-7.8401e-05
-1.10793e-05
4.10217e-06
-7.53549e-05
-7.04699e-06
1.45205e-06
-5.01266e-05
-2.68131e-05
-1.0064e-06
-2.58492e-05
-1.75488e-06
-4.93851e-05
-7.35473e-05
-3.46537e-06
6.89712e-07
-7.29116e-05
-1.32572e-06
1.59617e-07
-4.88496e-05
-2.56817e-05
-4.24709e-07
-2.52467e-05
-5.40682e-07
-4.87341e-05
-7.23104e-05
-1.17071e-06
5.23398e-07
-7.27581e-05
-8.7726e-08
6.34312e-08
-4.82797e-05
-2.51857e-05
-3.69005e-09
-2.51792e-05
-2.05785e-08
-4.82589e-05
-7.27651e-05
-8.59073e-09
-2.68755e-08
-7.27792e-05
4.82733e-08
-1.29547e-08
-4.82671e-05
-2.51878e-05
1.95154e-08
-2.52088e-05
4.20609e-08
-4.82911e-05
-7.28045e-05
6.564e-08
-5.15714e-08
-7.28378e-05
8.46887e-08
-2.34387e-08
-4.83211e-05
-2.52341e-05
2.34857e-08
-2.52567e-05
5.1737e-08
-4.83479e-05
-7.28635e-05
8.10247e-08
-6.14612e-08
-7.29025e-05
9.84803e-08
-2.78035e-08
-4.83839e-05
-2.52866e-05
2.67735e-08
-2.53125e-05
5.9028e-08
-4.84145e-05
-7.29335e-05
9.31617e-08
-6.57719e-08
-7.29764e-05
1.08019e-07
-2.93977e-08
-4.84531e-05
-2.53443e-05
2.76544e-08
-2.53745e-05
6.2111e-08
-4.84901e-05
-7.30146e-05
9.94756e-08
-6.74957e-08
-7.3053e-05
1.10286e-07
-3.0221e-08
-4.85253e-05
-2.54035e-05
2.93698e-08
-2.54359e-05
6.50632e-08
-4.85643e-05
-7.30935e-05
1.03154e-07
-7.09914e-08
-7.31373e-05
1.15858e-07
-3.22592e-08
-4.86045e-05
-2.54699e-05
2.9323e-08
-2.55013e-05
6.57843e-08
-4.86428e-05
-7.31765e-05
1.05882e-07
-7.12633e-08
-7.3222e-05
1.16014e-07
-3.19571e-08
-4.86849e-05
-2.55364e-05
3.30015e-08
-2.55682e-05
7.19782e-08
-4.87212e-05
-7.3258e-05
1.13704e-07
-7.45787e-08
-7.33089e-05
1.22682e-07
-3.33334e-08
-4.87666e-05
-2.56053e-05
3.05124e-08
-2.56383e-05
6.83569e-08
-4.88067e-05
-7.33509e-05
1.10537e-07
-7.33738e-08
-7.33926e-05
1.19716e-07
-3.32181e-08
-4.88457e-05
-2.56713e-05
3.19303e-08
-2.5709e-05
7.06657e-08
-4.88908e-05
-7.34397e-05
1.12769e-07
-7.73565e-08
-7.34867e-05
1.26992e-07
-3.48716e-08
-4.89337e-05
-2.5745e-05
3.23849e-08
-2.57792e-05
7.23028e-08
-4.8975e-05
-7.3529e-05
1.16245e-07
-7.58644e-08
-7.35794e-05
1.23742e-07
-3.4203e-08
-4.9021e-05
-2.58177e-05
3.49628e-08
-2.58515e-05
7.62112e-08
-4.90597e-05
-7.36185e-05
1.21312e-07
-7.94914e-08
-7.36726e-05
1.30815e-07
-3.57019e-08
-4.91083e-05
-2.58918e-05
3.35132e-08
-2.59281e-05
7.44495e-08
-4.91518e-05
-7.37185e-05
1.20372e-07
-8.0261e-08
-7.37622e-05
1.3075e-07
-3.65954e-08
-4.91928e-05
-2.59634e-05
3.52284e-08
-2.6004e-05
7.77363e-08
-4.92409e-05
-7.38121e-05
1.23884e-07
-8.35811e-08
-7.38638e-05
1.36695e-07
-3.78384e-08
-4.92879e-05
-2.60437e-05
3.54134e-08
-2.60792e-05
7.87504e-08
-4.93305e-05
-7.39084e-05
1.26794e-07
-8.06741e-08
-7.39617e-05
1.32229e-07
-3.6333e-08
-4.93784e-05
-2.61191e-05
3.75501e-08
-2.61564e-05
8.15376e-08
-4.94211e-05
-7.40055e-05
1.2961e-07
-8.56788e-08
-7.40614e-05
1.4026e-07
-3.87197e-08
-4.94705e-05
-2.61974e-05
3.62239e-08
-2.62359e-05
7.99837e-08
-4.95167e-05
-7.41108e-05
1.28083e-07
-8.57119e-08
-7.41602e-05
1.37466e-07
-3.93221e-08
-4.95624e-05
-2.6275e-05
3.9397e-08
-2.63164e-05
8.58959e-08
-4.9612e-05
-7.42129e-05
1.3362e-07
-9.35573e-08
-7.42684e-05
1.48963e-07
-4.23887e-08
-4.96616e-05
-2.6357e-05
3.86554e-08
-2.63947e-05
8.61784e-08
-4.97076e-05
-7.43191e-05
1.39083e-07
-8.65098e-08
-7.43778e-05
1.43378e-07
-3.83706e-08
-4.97595e-05
-2.64369e-05
3.8982e-08
-2.6476e-05
8.69179e-08
-4.9807e-05
-7.44287e-05
1.40513e-07
-9.41092e-08
-7.44881e-05
1.50586e-07
-4.24881e-08
-4.98592e-05
-2.65181e-05
3.91789e-08
-2.65583e-05
8.80285e-08
-4.99102e-05
-7.4546e-05
1.41444e-07
-9.09374e-08
-7.46045e-05
1.52248e-07
-3.98181e-08
-4.99606e-05
-2.6598e-05
3.92491e-08
-2.66377e-05
9.03422e-08
-5.00116e-05
-7.46618e-05
1.49672e-07
-9.74526e-08
-7.47249e-05
1.62828e-07
-4.23031e-08
-5.00655e-05
-2.66791e-05
4.01343e-08
-2.67176e-05
9.35265e-08
-5.01171e-05
-7.47844e-05
1.53967e-07
-9.54731e-08
-7.485e-05
1.60352e-07
-4.04876e-08
-5.01715e-05
-2.67574e-05
3.79365e-08
-2.67956e-05
9.12033e-08
-5.02243e-05
-7.49123e-05
1.55976e-07
-9.29906e-08
-7.49826e-05
1.65738e-07
-3.77832e-08
-5.02813e-05
-2.68363e-05
3.43631e-08
-2.68749e-05
8.74466e-08
-5.03372e-05
-7.50495e-05
1.57421e-07
-9.31995e-08
-7.51214e-05
1.67378e-07
-3.6451e-08
-5.03963e-05
-2.69149e-05
3.89438e-08
-2.69536e-05
9.78512e-08
-5.04562e-05
-7.51944e-05
1.6723e-07
-1.06083e-07
-7.52732e-05
1.80505e-07
-4.24657e-08
-5.05183e-05
-2.69927e-05
3.81956e-08
-2.70294e-05
1.00421e-07
-5.05802e-05
-7.53522e-05
1.75705e-07
-9.98941e-08
-7.54371e-05
1.8702e-07
-3.55634e-08
-5.06453e-05
-2.70665e-05
3.29753e-08
-2.71002e-05
9.74429e-08
-5.07083e-05
-7.55189e-05
1.87537e-07
-1.01188e-07
-7.56091e-05
1.98398e-07
-3.32464e-08
-5.07768e-05
-2.71366e-05
3.23875e-08
-2.71714e-05
1.0092e-07
-5.08468e-05
-7.57007e-05
1.93939e-07
-1.10832e-07
-7.5796e-05
2.0295e-07
-3.67279e-08
-5.09182e-05
-2.72041e-05
3.52464e-08
-2.72344e-05
1.10925e-07
-5.09913e-05
-7.58947e-05
2.04719e-07
-1.13595e-07
-7.60064e-05
2.18845e-07
-3.38705e-08
-5.10728e-05
-2.72683e-05
2.66936e-08
-2.72967e-05
1.06089e-07
-5.11526e-05
-7.61157e-05
2.19272e-07
-1.08658e-07
-7.62312e-05
2.3191e-07
-2.55338e-08
-5.12347e-05
-2.73236e-05
2.53177e-08
-2.73528e-05
1.10666e-07
-5.13231e-05
-7.63534e-05
2.3416e-07
-1.18748e-07
-7.64855e-05
2.47779e-07
-2.69444e-08
-5.14197e-05
-2.7384e-05
2.80674e-08
-2.74141e-05
1.24071e-07
-5.15193e-05
-7.66213e-05
2.53407e-07
-1.33529e-07
-7.67699e-05
2.77183e-07
-2.97378e-08
-5.16273e-05
-2.74469e-05
2.72246e-08
-2.74796e-05
1.35112e-07
-5.17389e-05
-7.69225e-05
2.91813e-07
-1.55528e-07
-7.70898e-05
3.31079e-07
-3.43341e-08
-5.18613e-05
-2.75179e-05
4.17301e-08
-2.75582e-05
1.71609e-07
-5.19892e-05
-7.72594e-05
3.46581e-07
-1.90811e-07
-7.7446e-05
3.77106e-07
-4.95841e-08
-5.21279e-05
-2.76045e-05
5.36165e-08
-2.76533e-05
2.06651e-07
-5.22753e-05
-7.76404e-05
4.06292e-07
-2.26899e-07
-7.78465e-05
4.42169e-07
-6.19644e-08
-5.24337e-05
-2.77104e-05
6.87603e-08
-2.77755e-05
2.44061e-07
-5.26029e-05
-7.80587e-05
4.66249e-07
-2.71329e-07
-7.82877e-05
5.03602e-07
-8.24541e-08
-5.27891e-05
-2.78561e-05
9.87777e-08
-2.7951e-05
3.0381e-07
-5.29941e-05
-7.85293e-05
5.33811e-07
-3.36153e-07
-7.87958e-05
5.79419e-07
-1.19852e-07
-5.32127e-05
-2.80657e-05
1.25644e-07
-2.8198e-05
3.60004e-07
-5.34544e-05
-7.90713e-05
6.29722e-07
-3.94135e-07
-7.93735e-05
7.17593e-07
-1.44318e-07
-5.37161e-05
-2.83631e-05
1.84414e-07
-2.85557e-05
4.65782e-07
-5.40022e-05
-7.96887e-05
7.90213e-07
-5.72678e-07
-8.00173e-05
8.69175e-07
-2.4613e-07
-5.43215e-05
-2.8783e-05
2.85862e-07
-2.90443e-05
6.36058e-07
-5.46596e-05
-8.0378e-05
9.64743e-07
-6.86783e-07
-8.07717e-05
1.07754e-06
-3.08747e-07
-5.50356e-05
-2.93499e-05
3.37104e-07
-2.97108e-05
7.50027e-07
-5.54542e-05
-8.11817e-05
1.21196e-06
-8.65772e-07
-8.16332e-05
1.36798e-06
-4.10402e-07
-5.5914e-05
-3.01432e-05
5.13599e-07
-3.06487e-05
1.03958e-06
-5.64389e-05
-8.21115e-05
1.50085e-06
-1.21411e-06
-8.26909e-05
1.73653e-06
-6.17957e-07
-5.70316e-05
-3.1242e-05
8.41101e-07
-3.20735e-05
1.58686e-06
-5.77741e-05
-8.27924e-05
1.67175e-06
-1.52651e-06
-8.33079e-05
2.04877e-06
-9.37898e-07
-5.83634e-05
-3.30145e-05
7.39789e-07
-3.37552e-05
1.39762e-06
-5.90213e-05
-8.38482e-05
1.94104e-06
-1.24008e-06
-8.53394e-05
2.73166e-06
-2.93644e-07
-5.99674e-05
-3.40483e-05
1.28609e-06
-3.53357e-05
1.67648e-06
-6.03582e-05
-8.61399e-05
2.47955e-06
-1.97641e-06
-8.69302e-05
2.76437e-06
-5.8993e-07
-6.1747e-05
-3.59269e-05
9.18999e-07
-3.68508e-05
1.68891e-06
-6.2522e-05
-8.82015e-05
2.95827e-06
-2.34194e-06
-8.88957e-05
3.03823e-06
-1.02329e-06
-6.38415e-05
-3.78755e-05
1.09301e-06
-3.89746e-05
1.9274e-06
-6.46804e-05
-9.06862e-05
3.71873e-06
-2.65677e-06
-9.18826e-05
3.83869e-06
-1.39628e-06
-6.59421e-05
-4.03675e-05
1.34101e-06
-4.17068e-05
2.57974e-06
-6.71769e-05
-9.29791e-05
3.68343e-06
-2.52422e-06
-9.47845e-05
4.32463e-06
-1.11373e-06
-6.85958e-05
-4.28294e-05
1.03818e-06
-4.38849e-05
2.81601e-06
-7.03902e-05
-9.66058e-05
4.63515e-06
-4.28907e-06
-9.95912e-05
7.30604e-06
-2.4162e-06
-7.22691e-05
-4.63152e-05
2.49749e-06
-4.88069e-05
6.37431e-06
-7.61478e-05
-0.000103751
1.04961e-05
6.78547e-05
-5.05619e-05
-0.000121076
2.71928e-05
-3.54045e-05
-2.1646e-05
5.78744e-06
-2.61072e-05
1.44163e-05
-4.58814e-05
-6.59767e-05
3.04987e-05
-8.69015e-06
-7.30535e-05
1.57746e-05
-2.97706e-06
-5.14867e-05
-2.91116e-05
1.07587e-06
-3.01557e-05
2.4339e-06
-5.28016e-05
-7.43184e-05
3.74605e-06
-2.19898e-07
-7.44652e-05
4.22171e-07
-3.53185e-07
-5.26278e-05
-3.04817e-05
1.49223e-06
-3.19653e-05
3.30315e-06
-5.44129e-05
-7.61734e-05
5.05617e-06
-2.37091e-06
-7.74287e-05
3.72684e-06
-1.12246e-06
-5.56605e-05
-3.3122e-05
2.13653e-06
-3.53138e-05
4.20185e-06
-5.77389e-05
-7.98495e-05
6.75572e-06
-2.5674e-06
-8.19769e-05
4.84844e-06
-1.41587e-06
-5.89521e-05
-3.6848e-05
2.27892e-06
-3.92271e-05
4.82371e-06
-6.15368e-05
-8.45368e-05
7.53881e-06
-4.30978e-06
-8.72873e-05
7.14931e-06
-1.95144e-06
-6.39003e-05
-4.1209e-05
2.69294e-06
-4.39079e-05
6.37762e-06
-6.75707e-05
-9.23101e-05
1.14998e-05
-9.58708e-06
-9.91992e-05
1.64146e-05
-4.3022e-06
-7.28431e-05
-4.81645e-05
-2.57475e-05
-2.24902e-05
-6.30002e-05
-3.54405e-05
-4.95398e-05
-0.000112684
-1.65333e-05
-6.56221e-05
3.36125e-05
-8.33154e-06
-4.63679e-05
-2.89809e-05
4.36909e-06
-3.34681e-05
1.22927e-05
-5.41755e-05
-7.42433e-05
2.08805e-05
-7.51247e-06
-8.06827e-05
1.37325e-05
-3.75649e-06
-5.79014e-05
-3.71086e-05
2.66885e-06
-3.96308e-05
6.61226e-06
-6.17886e-05
-8.44885e-05
1.0184e-05
-5.55037e-06
-8.80455e-05
9.02262e-06
-2.49221e-06
-6.48172e-05
-4.20623e-05
2.63507e-06
-4.4733e-05
5.70824e-06
-6.79005e-05
-9.17451e-05
9.47227e-06
-7.04949e-06
-9.69331e-05
1.22215e-05
-2.99746e-06
-7.19569e-05
-4.77318e-05
3.16484e-06
-5.08774e-05
6.98234e-06
-7.57466e-05
-0.000101478
1.15632e-05
6.56335e-05
-5.03525e-05
-0.00011671
2.67752e-05
-3.69541e-05
-2.40038e-05
5.18999e-06
-3.0729e-05
1.84184e-05
-4.7985e-05
-6.62718e-05
3.36137e-05
-1.14395e-05
-7.56486e-05
2.08712e-05
-4.45123e-06
-5.50714e-05
-3.51628e-05
2.79702e-06
-3.79704e-05
6.03481e-06
-5.83212e-05
-7.9019e-05
9.39595e-06
-3.80582e-06
-8.09942e-05
5.86596e-06
-1.74787e-06
-6.03951e-05
-3.97691e-05
3.11971e-06
-4.29518e-05
6.51733e-06
-6.38207e-05
-8.6658e-05
1.23182e-05
-9.41702e-06
-9.27719e-05
1.54133e-05
-4.3541e-06
-6.8887e-05
-4.72498e-05
-2.42795e-05
-2.30731e-05
-5.87416e-05
-3.42615e-05
-4.6864e-05
-0.000104652
-1.77772e-05
-6.22823e-05
3.42167e-05
-8.72788e-06
-4.60764e-05
-2.9887e-05
6.02089e-06
-3.60261e-05
1.39966e-05
-5.3931e-05
-7.23091e-05
2.40037e-05
-9.70965e-06
-8.06825e-05
1.81152e-05
-4.12914e-06
-5.9514e-05
-4.01681e-05
4.51926e-06
-4.47161e-05
9.51776e-06
-6.45245e-05
-8.73431e-05
1.62579e-05
-7.66013e-06
-9.17002e-05
1.1986e-05
-3.39192e-06
-6.87986e-05
-4.80898e-05
-2.51517e-05
-2.30442e-05
-5.94795e-05
-3.43181e-05
-4.61081e-05
-0.000105102
-1.70732e-05
-6.0546e-05
3.24866e-05
-9.23074e-06
-4.49803e-05
-3.02984e-05
5.06942e-06
-3.54862e-05
1.2092e-05
-5.18756e-05
-6.97106e-05
2.12263e-05
-9.08103e-06
-7.60074e-05
1.54008e-05
-4.03051e-06
-5.6928e-05
-3.95225e-05
4.63734e-06
-4.41097e-05
1.04748e-05
-6.27711e-05
-8.2867e-05
1.72518e-05
5.32089e-05
-4.25331e-05
-9.35261e-05
2.23928e-05
-3.17975e-05
-2.18386e-05
9.48493e-06
-2.92325e-05
1.75009e-05
-4.27928e-05
-5.65814e-05
3.25873e-05
-1.46754e-05
-6.82511e-05
2.63262e-05
-6.44309e-06
-5.091e-05
-3.57868e-05
5.39387e-06
-4.11944e-05
1.24569e-05
-5.79729e-05
-7.68211e-05
2.10658e-05
-7.69582e-06
-8.14389e-05
1.22946e-05
-4.00537e-06
-6.16614e-05
-4.51941e-05
-2.25969e-05
-2.25963e-05
-5.25671e-05
-3.16925e-05
-4.18843e-05
-9.21314e-05
-1.88285e-05
-5.59955e-05
3.29558e-05
-7.59883e-06
-4.29388e-05
-3.01852e-05
6.82654e-06
-3.70275e-05
1.40689e-05
-5.01497e-05
-6.54136e-05
2.34775e-05
4.2433e-05
-3.41647e-05
-7.36267e-05
1.7873e-05
-2.58223e-05
-1.8982e-05
5.40186e-06
-2.60214e-05
1.7806e-05
-3.58667e-05
-4.73705e-05
3.02059e-05
-1.37529e-05
-5.55387e-05
2.19347e-05
-6.66519e-06
-4.308e-05
-3.2592e-05
-1.63632e-05
-1.62285e-05
-3.78539e-05
-2.15704e-05
-2.78424e-05
-6.55604e-05
-1.08067e-05
-3.52729e-05
1.82392e-05
-5.07655e-06
-2.73031e-05
-2.13029e-05
-1.271e-05
-8.59409e-06
-2.85035e-05
-1.15104e-05
-1.52056e-05
-4.85724e-05
7.87574e-07
-1.65232e-05
5.29454e-07
5.64006e-07
-1.12873e-05
-8.03034e-06
-1.36059e-05
5.57594e-06
-3.24081e-05
7.51542e-06
9.60778e-06
-5.85385e-05
2.53886e-05
2.64213e-05
-4.22021e-05
1.17342e-05
2.11698e-05
1.73102e-05
-1.08391e-05
2.81492e-05
-2.39414e-05
3.42719e-05
4.2888e-05
-4.04086e-05
2.75691e-05
6.34869e-05
-4.81676e-05
1.1536e-05
5.03054e-05
3.96856e-05
-1.34833e-05
5.31703e-05
-3.28859e-05
6.97101e-05
8.96967e-05
-5.90925e-05
-4.88779e-05
5.56714e-05
8.29035e-05
-2.13129e-05
4.2145e-05
3.18575e-05
-1.91373e-05
5.09953e-05
-4.37065e-05
6.67147e-05
8.72968e-05
-7.53312e-05
-4.04059e-05
5.92754e-05
6.8427e-05
-1.84044e-05
4.47158e-05
3.25917e-05
-2.40725e-05
5.66884e-05
-5.5749e-05
7.6385e-05
9.96734e-05
-9.61645e-05
-3.75177e-05
7.50091e-05
6.20612e-05
-1.64943e-05
5.56239e-05
3.99361e-05
1.71583e-05
2.63889e-05
3.10265e-05
3.66264e-05
4.90412e-05
5.86882e-05
4.74296e-05
8.61593e-05
-8.51742e-05
2.10727e-05
6.48399e-05
4.62472e-05
1.40428e-05
3.23063e-05
3.29591e-05
4.5699e-05
6.01888e-05
5.91348e-05
5.98909e-05
0.000107286
-0.000106969
2.47826e-05
8.08174e-05
5.70589e-05
1.40649e-05