/*--------------------------------*- C++ -*----------------------------------*\
| =========                 |                                                 |
| \\      /  F ield         | OpenFOAM: The Open Source CFD Toolbox           |
|  \\    /   O peration     | Version:  v2006                                 |
|   \\  /    A nd           | Website:  www.openfoam.com                      |
|    \\/     M anipulation  |                                                 |
\*---------------------------------------------------------------------------*/
FoamFile
{
    version     2.0;
    format      ascii;
    class       volScalarField;
    location    "0.098";
    object      yPlus;
}
// * * * * * * * * * * * * * * * * * * * * * * * * * * * * * * * * * * * * * //

dimensions      [0 0 0 0 0 0 0];


internalField   uniform 0;

boundaryField
{
    bottomEmptyFaces
    {
        type            empty;
    }
    topEmptyFaces
    {
        type            empty;
    }
    inlet
    {
        type            calculated;
        value           uniform 0;
    }
    outlet
    {
        type            calculated;
        value           uniform 0;
    }
    walls
    {
        type            calculated;
        value           nonuniform List<scalar> 
1055
(
30.3875
29.6475
28.9674
28.3428
27.7791
27.2706
26.8186
26.412
26.049
25.7236
25.4375
25.1844
24.9645
24.7711
24.6057
24.4623
24.3425
24.2396
24.1551
24.0834
24.0257
23.9771
23.9391
23.9074
23.8838
23.8646
23.8513
23.8407
23.8341
23.8293
23.8286
23.8278
23.8294
23.8321
23.8357
23.8406
23.8457
23.8512
23.8554
23.8596
23.8618
23.8642
23.8639
23.8647
23.8624
23.8619
23.8578
23.856
23.8508
23.8481
23.8419
23.8381
23.8314
23.8267
23.8193
23.8138
23.806
23.7999
23.7918
23.7853
23.7772
23.7706
23.7622
23.7555
23.7471
23.7405
23.7319
23.7253
23.7169
23.7103
23.7021
23.6957
23.6875
23.6814
23.6735
23.6677
23.6602
23.655
23.648
23.6434
23.6369
23.633
23.6271
23.624
23.6187
23.6164
23.6118
23.6102
23.6064
23.6055
23.6027
23.6024
23.6006
23.6008
23.6001
23.6008
23.6012
23.6025
23.604
23.6057
23.608
23.6104
23.6133
23.6166
23.6199
23.624
23.6278
23.6326
23.6369
23.6423
23.647
23.6528
23.6579
23.6641
23.6696
23.6762
23.6821
23.6891
23.6952
23.7026
23.709
23.7166
23.7233
23.7312
23.7382
23.7463
23.7535
23.7618
23.7692
23.7777
23.7853
23.7939
23.8017
23.8105
23.8184
23.8273
23.8353
23.8443
23.8524
23.8614
23.8696
23.8787
23.8868
23.8959
23.9041
23.9133
23.9214
23.9305
23.9387
23.9477
23.9558
23.9648
23.9729
23.9818
23.99
23.9988
24.007
24.0158
24.0239
24.0328
24.0408
24.0497
24.0577
24.0667
24.0747
24.0836
24.0917
24.1006
24.1086
24.1177
24.1257
24.1347
24.1427
24.1517
24.1596
24.1686
24.1763
24.1852
24.1926
24.2014
24.2085
24.2255
24.2244
24.225
24.2395
24.2488
24.2543
24.2804
24.2894
24.317
24.2765
24.2165
23.9998
24.1588
24.5683
8.4487
7.25102
6.57871
11.4035
10.5644
9.67442
7.98995
18.262
13.3596
11.5844
11.4902
12.7305
9.35332
7.97389
12.4893
11.3848
13.6572
13.6329
10.7131
9.18981
9.76667
9.65527
8.55176
7.37992
10.1338
9.90795
8.85269
7.48454
9.13948
7.61016
8.62301
7.38434
9.61852
10.0873
8.55214
7.42292
8.38457
7.30146
8.34571
7.18683
6.47385
10.4481
10.9363
9.73262
10.6135
9.49034
10.4145
9.22076
9.95417
9.25814
10.1365
10.1284
10.5472
9.3249
10.218
11.5541
8.39014
8.84847
9.00031
9.72446
10.3289
10.7754
11.8786
8.59787
9.07672
9.58776
10.3858
8.36457
9.01043
10.0077
7.29509
7.6335
8.80564
9.07231
10.1694
7.39618
7.77584
8.02579
8.49187
9.16306
9.5312
8.15281
8.71414
8.41981
9.13259
8.67279
9.40377
8.34515
8.90757
10.7579
9.39653
9.77544
7.73947
8.19049
10.5481
7.64922
8.08531
10.4416
9.10172
9.40706
8.29785
9.02169
7.97329
8.54008
7.55946
7.88766
9.88343
10.2915
11.3911
8.27646
8.73661
8.85742
9.74586
11.0268
7.92844
8.39745
8.68589
9.28667
9.13234
9.94985
9.64182
10.0984
8.97156
9.738
8.64949
9.53208
8.52285
9.20549
9.46035
9.83271
10.884
8.01101
8.28066
8.66748
9.41178
9.13721
9.98833
8.82559
9.58394
8.66903
9.1215
7.87178
7.68509
7.34046
7.05534
9.56462
7.44074
7.87167
8.34423
8.5251
9.46548
7.01206
7.19979
8.38273
8.58955
9.7135
7.08991
7.41731
7.60817
8.04939
8.15201
8.25759
7.02866
7.24828
7.97816
7.98835
7.82028
7.79092
9.1797
6.87516
7.02953
9.21346
7.87271
7.9422
6.81703
7.0202
9.08204
7.35524
7.04602
8.97482
7.78479
7.74829
8.69966
6.69304
6.71721
7.82694
7.73421
6.65631
6.70581
6.66199
6.79537
9.25493
7.96723
8.04007
9.28502
6.90749
7.10423
6.87209
7.0823
8.99267
8.80153
7.40012
6.96708
8.32732
6.95213
6.52426
8.31616
7.15243
6.53466
8.47286
7.08129
6.54875
8.39167
7.03392
6.48558
8.06425
6.40097
6.26497
8.23352
6.80764
6.43341
7.7702
7.3641
8.36949
7.72491
7.48072
6.46182
6.45542
8.74507
8.68763
7.26588
6.86596
7.39681
6.94546
7.10133
6.8286
8.96765
7.22456
6.93295
8.56434
6.62109
6.68429
8.73081
8.95289
10.0672
7.38416
7.69219
9.90847
7.20768
7.50624
8.58823
8.83345
7.7793
8.27672
7.86669
8.34374
8.71849
9.03973
8.04991
8.57358
13.2265
11.3569
8.65292
11.2559
8.33598
11.6933
9.73735
7.02232
10.6714
10.3525
7.15186
12.2517
9.99175
26.1801
24.6639
8.23559
8.77266
6.1067
25.2924
21.2262
21.232
20.3906
10.3649
20.1471
8.86705
25.4227
7.73728
20.6645
8.90333
6.11013
20.101
21.4485
20.9116
10.6894
9.58417
8.45446
7.44109
8.25574
5.9496
28.0667
26.4979
21.8386
21.386
22.1064
21.5545
25.0696
22.0433
20.9478
27.1515
23.2792
22.3674
9.97257
9.01353
8.48189
7.98462
7.32821
8.52913
6.07439
10.5021
9.66862
9.11145
8.61273
8.21168
7.66642
6.95087
7.80727
5.70293
9.66174
8.93581
8.51098
8.14225
7.82973
7.53084
7.27963
7.04937
6.92159
6.77452
6.40888
7.76725
5.36094
9.81391
9.27983
8.97275
8.8041
8.60303
13.9731
8.37861
8.20236
8.06508
7.91463
7.82021
10.9712
12.0143
7.67752
12.0625
12.5077
10.3945
11.2154
13.4646
11.6623
12.1856
9.70319
10.2833
10.6825
11.7194
7.58587
7.54543
7.42686
7.30576
7.20895
7.12428
7.0544
7.00269
14.7152
10.5402
11.1895
12.6163
13.1775
11.5921
12.7062
6.95548
6.91568
6.88028
6.85677
6.83554
6.81799
6.80633
6.7955
13.5641
14.1697
12.3874
13.4713
6.78969
6.78002
6.77823
6.77614
6.76942
6.76292
6.76092
6.75936
13.8181
14.2653
13.2346
14.3589
12.5558
13.5434
16.1006
11.6477
12.3544
6.75254
15.7988
6.74562
6.74404
11.3682
12.0365
6.73968
6.73771
12.2949
13.1743
6.72845
6.72517
6.71913
15.2188
11.8348
12.9244
13.073
13.598
11.8154
12.7792
10.9909
11.6124
11.3827
12.2585
11.3052
12.3269
12.1866
12.6643
11.0804
12.198
14.1137
10.1814
10.7677
10.8959
11.7453
14.4488
11.1548
12.0791
10.436
10.9914
12.3966
12.9333
10.7956
11.6634
10.1625
10.7007
19.2159
14.3645
14.9384
6.71436
6.70383
6.6987
6.69472
20.703
6.68502
6.6753
6.66903
20.0028
6.66379
14.5181
15.4558
17.3291
17.3904
19.8396
16.8699
17.2404
14.6133
15.3532
16.718
16.9891
6.65296
6.64352
6.63729
6.63228
6.62159
6.61155
6.60505
6.59988
6.58957
6.57939
6.5727
6.5673
6.55698
6.54733
6.54085
15.4321
6.53518
15.7229
16.2552
16.7835
14.423
15.4049
18.2104
13.1205
13.9296
6.52523
6.51565
6.50988
6.50513
6.49491
6.48536
6.48029
6.4721
17.4744
13.9971
14.9646
12.9075
13.6448
13.3563
14.286
17.109
14.6376
15.1976
12.2494
13.0313
14.8212
15.4556
18.3941
15.7145
16.2075
13.3012
14.061
19.24
19.0451
13.9625
14.6309
16.2859
16.4925
16.1417
16.611
6.46723
14.1281
6.45569
14.8938
6.45071
6.44373
6.43818
6.427
6.42254
6.41514
21.4122
6.4109
6.39984
15.8989
16.6216
6.39542
6.38882
6.38356
6.37352
6.36922
22.1926
6.36486
21.9224
18.1169
17.8915
18.7153
18.8992
19.8486
19.9453
23.5491
6.35636
18.8449
6.351
18.6898
6.34258
6.34091
6.33294
22.7668
6.3277
6.32288
18.7517
18.4103
6.31571
22.9944
17.8927
18.4183
16.8239
17.3799
18.0998
18.3622
15.5116
16.1552
6.31303
6.30784
6.31107
6.373
6.4158
6.5139
6.77768
7.12825
29.3189
25.9854
30.2419
23.7585
22.1175
29.8933
27.09
26.8723
23.3622
22.3034
9.91105
10.7551
33.3294
32.1788
31.0228
32.8769
25.5176
23.4352
30.9575
26.8433
25.3968
22.8616
12.5406
30.5605
9.97937
10.9149
10.8489
11.2674
29.138
35.5282
27.4212
25.4079
10.2491
11.2105
10.0377
11.0039
35.8491
12.8049
11.1212
11.5896
9.28106
9.78131
36.4524
9.78863
10.5741
9.12919
9.57498
36.8576
36.8013
36.8711
36.5218
35.7664
13.1666
34.8402
10.755
11.7117
10.4451
11.4901
10.2432
11.0592
9.52133
10.0204
10.4152
11.3906
11.3358
11.7787
10.2216
11.1444
33.8898
32.9472
32.0404
31.1859
9.60834
10.563
11.9862
8.66997
9.15897
9.33955
10.0693
9.78344
10.7281
25.0509
7.55675
36.471
33.1929
31.0012
29.531
28.4213
27.3887
26.6569
25.9466
25.5499
25.0744
24.7908
24.4221
24.2085
23.9079
23.7399
23.4854
23.3472
23.1238
23.0058
22.8044
22.7008
22.5154
22.4219
22.2482
22.162
21.9971
21.9162
21.7582
21.6813
21.5286
21.4547
21.3063
21.2346
21.0897
21.0196
20.8774
20.8086
20.6687
20.6008
20.4626
20.3953
20.2584
20.1915
20.0554
19.9886
19.8529
19.7858
19.6501
19.5825
19.4465
19.3781
19.2412
19.1719
19.0339
18.9633
18.8238
18.7518
18.6105
18.5369
18.3934
18.3181
18.1723
18.095
17.9467
17.8675
17.7164
17.6355
17.4816
17.3989
17.2423
17.158
16.9988
16.9132
16.7517
16.6652
16.5017
16.4149
16.2501
16.1639
15.9987
15.9141
15.7497
15.6681
15.506
15.4291
15.2713
15.2012
15.0498
14.9891
14.8465
14.7989
14.6689
14.6359
14.5253
14.5069
14.4189
14.4165
14.3585
14.3687
14.3439
14.3665
14.3591
14.4107
14.4189
14.4977
14.5217
14.6234
14.6591
14.7763
14.8204
14.9481
14.9985
15.1337
15.1881
15.3275
15.3834
15.523
15.5786
15.7153
15.7688
15.8998
15.9497
16.0726
16.118
16.2309
16.2711
16.3724
16.4066
16.4951
16.5228
16.5983
16.6196
16.6821
16.6972
16.7479
16.7575
16.7978
16.8026
16.8338
16.8344
16.8568
16.8548
16.8704
16.8663
16.8763
16.8701
16.8765
16.8669
16.8707
16.857
16.8603
16.8444
16.8472
16.8303
16.8324
16.8131
16.8147
16.7935
16.7948
16.7728
16.7736
16.7507
16.7513
16.7282
16.729
16.7024
16.7092
16.6763
16.6858
16.6405
16.7144
16.7431
16.9451
17.2286
18.2794
20.9435
18.9602
39.9397
)
;
    }
    rightWall
    {
        type            calculated;
        value           uniform 0;
    }
    symmetryLine
    {
        type            symmetryPlane;
    }
}


// ************************************************************************* //
