/*--------------------------------*- C++ -*----------------------------------*\
| =========                 |                                                 |
| \\      /  F ield         | OpenFOAM: The Open Source CFD Toolbox           |
|  \\    /   O peration     | Version:  v2006                                 |
|   \\  /    A nd           | Website:  www.openfoam.com                      |
|    \\/     M anipulation  |                                                 |
\*---------------------------------------------------------------------------*/
FoamFile
{
    version     2.0;
    format      ascii;
    class       volScalarField;
    location    "0.036";
    object      rho;
}
// * * * * * * * * * * * * * * * * * * * * * * * * * * * * * * * * * * * * * //

dimensions      [1 -3 0 0 0 0 0];


internalField   nonuniform List<scalar> 
12716
(
1.71124
1.71124
1.71124
1.71124
1.71124
1.71124
1.71124
1.71124
1.71124
1.71125
1.71129
1.71135
1.71143
1.71152
1.71161
1.7117
1.7118
1.7119
1.712
1.7121
1.71221
1.71232
1.71244
1.71256
1.71268
1.7128
1.71293
1.71306
1.71319
1.71333
1.71346
1.7136
1.71374
1.71388
1.71403
1.71417
1.71431
1.71446
1.7146
1.71474
1.71488
1.71502
1.71516
1.7153
1.71543
1.71557
1.71569
1.71582
1.71594
1.71606
1.71618
1.71629
1.7164
1.71651
1.71661
1.71671
1.71679
1.71686
1.7169
1.71691
1.71691
1.7169
1.7169
1.71688
1.71688
1.71693
1.71703
1.71725
1.71766
1.71791
1.71779
1.71743
1.7178
1.71781
1.71777
1.71766
1.71718
1.71692
1.7175
1.71767
1.71754
1.71734
1.7167
1.71652
1.71718
1.7174
1.71729
1.71705
1.71638
1.71627
1.71693
1.71718
1.71709
1.71683
1.71618
1.71611
1.71674
1.71701
1.71694
1.71667
1.71606
1.71602
1.7166
1.71688
1.71682
1.71655
1.71599
1.71597
1.71651
1.71678
1.71674
1.71647
1.71596
1.71595
1.71645
1.71671
1.71669
1.71643
1.71595
1.71596
1.71642
1.71668
1.71666
1.71641
1.71597
1.716
1.71642
1.71666
1.71666
1.71642
1.71602
1.71605
1.71644
1.71667
1.71668
1.71645
1.71608
1.71612
1.71648
1.7167
1.71672
1.7165
1.71615
1.7162
1.71653
1.71675
1.71678
1.71656
1.71624
1.7163
1.71661
1.71682
1.71686
1.71665
1.71635
1.71641
1.7167
1.7169
1.71695
1.71675
1.71647
1.71654
1.71681
1.71701
1.71706
1.71686
1.71661
1.71669
1.71694
1.71712
1.71718
1.717
1.71676
1.71685
1.71708
1.71725
1.71732
1.71714
1.71692
1.71702
1.71723
1.7174
1.71748
1.71731
1.71711
1.71721
1.7174
1.71757
1.71765
1.71749
1.7173
1.71741
1.71759
1.71775
1.71784
1.71768
1.71751
1.71763
1.7178
1.71794
1.71804
1.7179
1.71774
1.71787
1.71802
1.71816
1.71826
1.71813
1.71798
1.71812
1.71826
1.71839
1.7185
1.71837
1.71824
1.71839
1.71852
1.71864
1.71876
1.71864
1.71852
1.71868
1.71879
1.71891
1.71904
1.71893
1.71882
1.71899
1.71909
1.7192
1.71934
1.71923
1.71914
1.71932
1.71941
1.71951
1.71966
1.71956
1.71948
1.71967
1.71975
1.71984
1.72
1.71991
1.71984
1.72005
1.72011
1.72019
1.72036
1.72028
1.72023
1.72045
1.72049
1.72057
1.72075
1.72067
1.72063
1.72087
1.7209
1.72097
1.72116
1.72109
1.72107
1.72131
1.72133
1.72139
1.7216
1.72154
1.72152
1.72178
1.72179
1.72184
1.72206
1.72201
1.72201
1.72228
1.72228
1.72232
1.72255
1.72251
1.72252
1.72281
1.72279
1.72282
1.72307
1.72304
1.72306
1.72336
1.72333
1.72336
1.72362
1.72359
1.72363
1.72395
1.7239
1.72391
1.72419
1.72418
1.72423
1.72456
1.72449
1.72449
1.72478
1.72478
1.72485
1.72519
1.72511
1.7251
1.72539
1.72541
1.72549
1.72584
1.72575
1.72572
1.72603
1.72606
1.72616
1.72651
1.72641
1.72637
1.72669
1.72672
1.72684
1.7272
1.72708
1.72704
1.72736
1.72741
1.72754
1.7279
1.72777
1.72771
1.72804
1.7281
1.72824
1.72861
1.72847
1.7284
1.72874
1.72881
1.72895
1.72932
1.72917
1.7291
1.72942
1.7295
1.72965
1.73
1.72985
1.72977
1.73008
1.73016
1.73032
1.73065
1.7305
1.7304
1.73068
1.73078
1.73095
1.73126
1.73109
1.73098
1.73124
1.73135
1.73152
1.73181
1.73163
1.73151
1.73175
1.73186
1.73205
1.7323
1.73212
1.73199
1.7322
1.73233
1.73251
1.73273
1.73255
1.73242
1.7326
1.73273
1.73291
1.73309
1.73292
1.73279
1.73296
1.73309
1.73326
1.73342
1.73325
1.73313
1.73327
1.7334
1.73357
1.7337
1.73354
1.73341
1.73353
1.73366
1.73382
1.73393
1.73376
1.73364
1.73374
1.73386
1.73402
1.7341
1.73394
1.73382
1.73389
1.73401
1.73417
1.73422
1.73406
1.73394
1.73398
1.73411
1.73427
1.7343
1.73414
1.73402
1.73404
1.73417
1.73433
1.73436
1.73419
1.73407
1.73408
1.73421
1.73438
1.73439
1.73422
1.73409
1.73409
1.73422
1.7344
1.7344
1.73423
1.73409
1.73409
1.73422
1.73438
1.73435
1.73421
1.73409
1.7341
1.73421
1.73433
1.73432
1.7342
1.7341
1.73411
1.7342
1.73429
1.73428
1.7342
1.73411
1.73413
1.7342
1.73426
1.73425
1.73421
1.73414
1.73415
1.73421
1.73425
1.73425
1.73422
1.73417
1.73419
1.73424
1.73426
1.73428
1.73425
1.73421
1.73422
1.73426
1.73429
1.73432
1.73428
1.73423
1.73423
1.73429
1.7344
1.73447
1.73432
1.73424
1.73425
1.73437
1.73459
1.73466
1.73442
1.73428
1.73431
1.73448
1.73477
1.73488
1.73457
1.73437
1.73441
1.73462
1.73498
1.73508
1.7347
1.73447
1.73448
1.73473
1.73514
1.73522
1.7348
1.73453
1.73454
1.73483
1.7353
1.73537
1.73489
1.73459
1.73461
1.73494
1.73548
1.73555
1.73502
1.73467
1.73471
1.73508
1.73566
1.73575
1.73518
1.7348
1.73485
1.73526
1.73588
1.73599
1.73538
1.73497
1.73507
1.73551
1.73617
1.73632
1.73567
1.73522
1.73535
1.73581
1.7365
1.73665
1.73596
1.73549
1.73559
1.73607
1.73677
1.73685
1.73618
1.73571
1.73582
1.7363
1.73703
1.73717
1.73644
1.73594
1.73606
1.73661
1.73743
1.73753
1.73669
1.73614
1.73629
1.73685
1.73762
1.73758
1.73685
1.73632
1.73638
1.73688
1.73757
1.7357
1.73517
1.7348
1.73451
1.7343
1.73412
1.73398
1.73388
1.7338
1.73375
1.7337
1.73368
1.73366
1.73364
1.73363
1.73362
1.73361
1.7336
1.73359
1.73357
1.73349
1.73347
1.73336
1.73322
1.73339
1.73409
1.73444
1.73399
1.7358
1.73249
1.73049
1.73838
1.73354
1.73807
1.72984
1.73411
1.73434
1.7323
1.73376
1.73339
1.7333
1.73352
1.73366
1.7329
1.73311
1.73286
1.73294
1.73366
1.73344
1.73341
1.73223
1.73226
1.73334
1.73356
1.73394
1.73229
1.73304
1.7326
1.73323
1.73368
1.7341
1.73241
1.73342
1.73357
1.73269
1.73398
1.73396
1.73279
1.73342
1.73349
1.73297
1.73383
1.73365
1.73333
1.7332
1.73305
1.73374
1.73346
1.73325
1.73394
1.73309
1.73353
1.73356
1.73353
1.73377
1.7332
1.7338
1.73397
1.73338
1.73373
1.73385
1.73334
1.73401
1.73382
1.7339
1.73366
1.7333
1.7348
1.73349
1.73334
1.73489
1.73347
1.73362
1.73453
1.73377
1.73379
1.73459
1.73372
1.7339
1.73423
1.73412
1.73419
1.73418
1.73401
1.73424
1.73383
1.73436
1.73444
1.73371
1.73429
1.7345
1.73324
1.73457
1.73458
1.73334
1.73433
1.7343
1.73332
1.73441
1.73439
1.73339
1.73414
1.734
1.73353
1.73422
1.73416
1.73362
1.734
1.73391
1.73365
1.73422
1.7347
1.73307
1.73433
1.73432
1.73328
1.73439
1.73444
1.73352
1.73422
1.73414
1.73385
1.73407
1.73409
1.73397
1.73405
1.73379
1.73445
1.73397
1.73385
1.73463
1.73391
1.73373
1.73508
1.73367
1.73358
1.73506
1.73398
1.734
1.73502
1.73372
1.73365
1.73504
1.73409
1.73408
1.73491
1.73381
1.73374
1.73502
1.73409
1.73405
1.73497
1.73383
1.73372
1.735
1.7341
1.73407
1.73487
1.73386
1.73375
1.73495
1.73406
1.73399
1.73488
1.73395
1.73383
1.73501
1.73397
1.73392
1.73498
1.73403
1.73396
1.73493
1.73408
1.73407
1.73494
1.73397
1.73386
1.735
1.73411
1.73413
1.73489
1.73404
1.73393
1.73501
1.73414
1.73415
1.7349
1.73403
1.73389
1.73497
1.73414
1.73413
1.73478
1.73399
1.73381
1.73481
1.73408
1.73402
1.73459
1.73389
1.73376
1.73455
1.73399
1.7339
1.73449
1.7338
1.73361
1.73433
1.73399
1.73393
1.73426
1.73355
1.7335
1.73421
1.73393
1.73401
1.73387
1.73379
1.73367
1.73419
1.73394
1.73393
1.73423
1.73358
1.73357
1.73417
1.73396
1.73399
1.73396
1.73378
1.73375
1.73406
1.7339
1.73392
1.73386
1.73378
1.73378
1.73378
1.73387
1.73378
1.73383
1.73374
1.73397
1.73366
1.73393
1.73378
1.73406
1.73363
1.7337
1.73384
1.73393
1.73392
1.73392
1.73398
1.73421
1.73389
1.73413
1.73397
1.7349
1.73363
1.73409
1.73427
1.73441
1.73449
1.73438
1.73422
1.73431
1.73449
1.73459
1.73461
1.73442
1.73427
1.73426
1.73442
1.73464
1.7347
1.73445
1.73423
1.73426
1.73454
1.73478
1.73487
1.73467
1.73437
1.73454
1.73488
1.735
1.73518
1.73512
1.73512
1.7357
1.73551
1.7354
1.73559
1.73574
1.73619
1.73643
1.73591
1.73574
1.73581
1.73592
1.73646
1.73653
1.73588
1.73588
1.73595
1.7358
1.73671
1.73734
1.73561
1.73607
1.73632
1.73486
1.73888
1.74154
1.73204
1.73688
1.73723
1.72872
1.74581
1.75453
1.7211
1.73805
1.73755
1.7374
1.73464
1.73656
1.73731
1.73702
1.73728
1.73713
1.73711
1.73721
1.7374
1.73742
1.73753
1.73758
1.73744
1.73757
1.73764
1.7377
1.73812
1.73816
1.73815
1.73837
1.73846
1.73842
1.73875
1.73881
1.73871
1.739
1.7392
1.73912
1.73938
1.7395
1.73937
1.73953
1.73983
1.73967
1.73998
1.74016
1.73984
1.74021
1.74064
1.74036
1.74075
1.74125
1.74067
1.74119
1.74184
1.74137
1.74188
1.74239
1.74162
1.74217
1.74307
1.74242
1.74281
1.74348
1.74266
1.74309
1.74381
1.7432
1.74386
1.74435
1.74352
1.74393
1.7448
1.74426
1.74451
1.7451
1.74435
1.74474
1.74541
1.74478
1.74546
1.74595
1.74516
1.74563
1.74636
1.74556
1.7458
1.74667
1.7462
1.74681
1.74684
1.74589
1.74604
1.74709
1.74744
1.74812
1.74738
1.74638
1.7463
1.74736
1.74865
1.74898
1.74702
1.74581
1.74573
1.74675
1.74902
1.7488
1.74604
1.74501
1.7435
1.7446
1.74788
1.74566
1.74312
1.74284
1.73768
1.73817
1.74124
1.73421
1.73388
1.73401
1.7272
1.72681
1.72216
1.70308
1.71859
1.7194
1.70978
1.70986
1.6852
1.65289
1.697
1.70298
1.69185
1.68827
1.64595
1.63875
1.68055
1.68715
1.68176
1.67566
1.64734
1.65419
1.67539
1.67986
1.68078
1.67469
1.65991
1.66324
1.67336
1.67913
1.68077
1.6748
1.66616
1.66833
1.6754
1.68151
1.68019
1.67488
1.67013
1.67206
1.67462
1.67983
1.68243
1.67675
1.67378
1.67493
1.67776
1.68306
1.68219
1.67769
1.67601
1.67731
1.67777
1.68219
1.68439
1.67957
1.67864
1.68006
1.68106
1.6848
1.6869
1.68295
1.68154
1.68279
1.68398
1.68776
1.68806
1.68418
1.68379
1.68484
1.68534
1.68884
1.69087
1.68745
1.68619
1.6872
1.68817
1.69134
1.69095
1.68852
1.68807
1.68914
1.6895
1.69156
1.69334
1.69131
1.69041
1.69123
1.69195
1.69379
1.694
1.69241
1.69181
1.69231
1.69279
1.694
1.69447
1.69354
1.69314
1.69408
1.69477
1.69583
1.69572
1.69485
1.69441
1.69465
1.69476
1.69525
1.69532
1.695
1.69505
1.6972
1.69669
1.69689
1.69726
1.69715
1.69718
1.69725
1.69765
1.69773
1.69788
1.69786
1.69741
1.69734
1.69783
1.69787
1.69979
1.6998
1.6997
1.69954
1.69965
1.69983
1.69979
1.69952
1.69967
1.69727
1.70174
1.6993
1.69779
1.7003
1.70152
1.70373
1.69946
1.70231
1.70139
1.70016
1.70353
1.70272
1.70043
1.70075
1.69724
1.70977
1.69714
1.70356
1.70214
1.70234
1.70203
1.7016
1.70354
1.70343
1.70169
1.70163
1.70484
1.69408
1.70849
1.70343
1.70346
1.70284
1.70323
1.70356
1.70175
1.70195
1.70313
1.70342
1.70229
1.70671
1.70005
1.69054
1.71804
1.70035
1.70312
1.71037
1.69992
1.70739
1.70257
1.70265
1.70192
1.70206
1.70704
1.70544
1.70567
1.70174
1.7025
1.70662
1.70448
1.70778
1.70255
1.70275
1.70241
1.70199
1.70738
1.70498
1.7066
1.70214
1.70335
1.7073
1.70517
1.70837
1.70286
1.70336
1.70221
1.70242
1.70837
1.69781
1.71371
1.69998
1.70354
1.70938
1.70185
1.70552
1.70425
1.70402
1.70305
1.70422
1.70487
1.69516
1.71333
1.70093
1.70417
1.70871
1.70144
1.70395
1.70477
1.70436
1.70361
1.70403
1.70425
1.7028
1.70385
1.70337
1.70649
1.70394
1.70487
1.70067
1.70535
1.705
1.7054
1.70018
1.70104
1.70304
1.70464
1.70687
1.70588
1.70656
1.70028
1.69991
1.70597
1.70586
1.70172
1.71827
1.69048
1.70188
1.70846
1.70515
1.70439
1.70356
1.70706
1.70655
1.70362
1.70274
1.69917
1.72205
1.69249
1.70091
1.71186
1.70335
1.70299
1.70479
1.70741
1.70467
1.71009
1.7012
1.70271
1.70597
1.70594
1.7076
1.70303
1.70297
1.70204
1.70246
1.70727
1.69997
1.70884
1.7009
1.70387
1.70637
1.70266
1.70311
1.70434
1.70374
1.70184
1.70662
1.699
1.70304
1.70407
1.70429
1.70384
1.70397
1.70145
1.70001
1.70256
1.70371
1.70553
1.69189
1.70907
1.70605
1.70045
1.70405
1.70363
1.70184
1.70194
1.70393
1.69777
1.70331
1.70341
1.70193
1.70309
1.70176
1.70231
1.70297
1.70227
1.70166
1.70118
1.70037
1.70206
1.70182
1.70243
1.7036
1.70223
1.70215
1.70179
1.70221
1.70126
1.70234
1.70063
1.70162
1.70275
1.70169
1.70143
1.70131
1.70204
1.70184
1.69929
1.70116
1.70329
1.69137
1.7083
1.7056
1.69871
1.70148
1.70143
1.70039
1.70125
1.70472
1.69451
1.7017
1.70126
1.69867
1.7028
1.69873
1.70039
1.70072
1.70095
1.69469
1.70199
1.70102
1.69934
1.70084
1.7003
1.69913
1.69942
1.69969
1.69886
1.69976
1.70039
1.70034
1.70034
1.69944
1.69968
1.69989
1.69907
1.69871
1.69844
1.69737
1.69842
1.69833
1.69911
1.69953
1.69861
1.69787
1.69838
1.69866
1.69769
1.69776
1.69641
1.69834
1.69922
1.69878
1.69841
1.69809
1.69745
1.69627
1.69698
1.69728
1.69805
1.69819
1.69758
1.6966
1.6971
1.69754
1.69643
1.69595
1.69566
1.69678
1.69727
1.69733
1.69699
1.69671
1.69605
1.69527
1.6959
1.69614
1.69483
1.69801
1.69247
1.69488
1.69745
1.69651
1.69582
1.69581
1.69427
1.69218
1.69527
1.69437
1.69576
1.69606
1.69435
1.6936
1.69476
1.6952
1.69373
1.69398
1.692
1.69404
1.69511
1.69517
1.69465
1.69422
1.69323
1.69213
1.69282
1.69351
1.6944
1.69432
1.69348
1.69238
1.69319
1.69376
1.69228
1.69172
1.69112
1.6926
1.69333
1.69342
1.69287
1.6924
1.69157
1.69054
1.69099
1.69159
1.6927
1.69254
1.69175
1.6912
1.69201
1.69229
1.69157
1.69101
1.69023
1.68918
1.68964
1.69042
1.69142
1.6913
1.69048
1.68931
1.69022
1.69083
1.68952
1.68841
1.68839
1.68974
1.69032
1.6905
1.68991
1.68917
1.68855
1.68763
1.68761
1.68865
1.68967
1.68949
1.68896
1.68793
1.6886
1.68912
1.68783
1.68695
1.68694
1.68801
1.68864
1.68876
1.68816
1.68754
1.68677
1.68568
1.68583
1.68681
1.68776
1.68761
1.68692
1.68583
1.68661
1.68717
1.68567
1.68495
1.68453
1.68599
1.68675
1.6869
1.68636
1.6858
1.685
1.68381
1.68427
1.6849
1.6859
1.68585
1.68508
1.68378
1.6846
1.68524
1.68367
1.68304
1.68257
1.68388
1.68469
1.68479
1.68424
1.68358
1.68276
1.68133
1.68217
1.6826
1.68374
1.68375
1.68287
1.68173
1.68251
1.68316
1.68158
1.68111
1.68039
1.68192
1.68274
1.68277
1.68227
1.68192
1.68101
1.67957
1.68047
1.6812
1.67985
1.67909
1.67853
1.6802
1.68108
1.68119
1.6805
1.67984
1.67888
1.67734
1.67799
1.67868
1.68006
1.67996
1.67906
1.67762
1.67866
1.67934
1.67748
1.67676
1.67613
1.67781
1.67869
1.6788
1.67809
1.6774
1.6764
1.67493
1.67551
1.6763
1.67762
1.67752
1.67656
1.67527
1.67625
1.67697
1.67496
1.67428
1.67356
1.67519
1.67615
1.67628
1.67558
1.67484
1.67388
1.67228
1.67303
1.6736
1.67503
1.67494
1.67394
1.67252
1.67356
1.67431
1.67238
1.6716
1.67092
1.6726
1.6736
1.67369
1.67301
1.6723
1.67126
1.6697
1.67032
1.6711
1.67241
1.67225
1.67122
1.66997
1.67097
1.67174
1.66981
1.66905
1.66842
1.66995
1.67094
1.67101
1.6703
1.66947
1.66848
1.66669
1.66743
1.66821
1.66951
1.66933
1.66826
1.667
1.6681
1.66889
1.667
1.66619
1.66547
1.66705
1.66814
1.66828
1.66764
1.6672
1.66602
1.6644
1.6656
1.66641
1.66472
1.66372
1.66295
1.66505
1.6662
1.6663
1.66555
1.66451
1.66329
1.66148
1.6623
1.6632
1.6644
1.66415
1.66287
1.66131
1.66267
1.66355
1.66135
1.66044
1.65956
1.66154
1.66279
1.66297
1.66229
1.66138
1.66013
1.6582
1.65915
1.65999
1.66146
1.66135
1.66009
1.65849
1.65969
1.66063
1.65816
1.65746
1.65649
1.65831
1.65954
1.65967
1.65895
1.65791
1.65665
1.65412
1.65509
1.65618
1.65772
1.65741
1.65606
1.65483
1.65619
1.65704
1.65468
1.65387
1.6528
1.65487
1.6562
1.65636
1.65571
1.65467
1.65335
1.65118
1.65217
1.65316
1.65461
1.6544
1.65309
1.65175
1.65323
1.65381
1.65205
1.65086
1.64955
1.6478
1.64876
1.64979
1.65125
1.65076
1.64907
1.64759
1.64939
1.65046
1.64815
1.64684
1.64596
1.64811
1.64963
1.64988
1.64903
1.64796
1.64631
1.64433
1.64524
1.64648
1.64811
1.64793
1.64652
1.64462
1.64605
1.64724
1.64437
1.64322
1.64224
1.64425
1.64561
1.64579
1.6449
1.64375
1.6423
1.63909
1.64031
1.64162
1.64351
1.64314
1.64161
1.64054
1.64222
1.64287
1.64135
1.64021
1.63849
1.6366
1.63772
1.63903
1.64103
1.6408
1.63918
1.63714
1.63878
1.64015
1.63691
1.6357
1.63459
1.63665
1.63827
1.63854
1.63767
1.63631
1.63477
1.6315
1.63276
1.63413
1.63553
1.63492
1.63295
1.63179
1.63383
1.6347
1.63312
1.63182
1.62975
1.62794
1.62924
1.63066
1.63304
1.63271
1.63086
1.62897
1.63092
1.63232
1.62868
1.62718
1.62596
1.6284
1.63022
1.63054
1.62941
1.62795
1.62624
1.62363
1.62471
1.62588
1.62705
1.62619
1.62379
1.62219
1.6247
1.62593
1.62449
1.62296
1.62045
1.61888
1.62033
1.62198
1.62448
1.62407
1.62193
1.61992
1.62212
1.62363
1.61988
1.61831
1.61693
1.61942
1.62142
1.62179
1.62068
1.61902
1.61702
1.61392
1.6152
1.61671
1.61804
1.61746
1.61528
1.61254
1.61522
1.61646
1.61446
1.61289
1.61019
1.60861
1.6102
1.61185
1.61469
1.61438
1.61229
1.61011
1.61228
1.61397
1.61004
1.60844
1.607
1.60934
1.61147
1.61191
1.61075
1.60975
1.60754
1.6039
1.60593
1.60773
1.60376
1.60213
1.6005
1.60141
1.60418
1.60539
1.6044
1.60273
1.59961
1.59755
1.59927
1.60119
1.6039
1.60333
1.60083
1.5992
1.60191
1.60303
1.6005
1.59853
1.59602
1.59351
1.5951
1.59684
1.59917
1.59853
1.59602
1.59392
1.5965
1.59788
1.59408
1.59158
1.58822
1.58395
1.58646
1.58916
1.59292
1.5922
1.58943
1.58761
1.59069
1.59229
1.58853
1.58661
1.58473
1.58764
1.59025
1.59089
1.58982
1.58843
1.58551
1.58171
1.58436
1.58653
1.58223
1.58018
1.57851
1.57986
1.58268
1.58358
1.5812
1.57905
1.57494
1.57218
1.57626
1.57862
1.5756
1.57336
1.57113
1.57579
1.57869
1.57929
1.57867
1.57713
1.57381
1.57
1.57313
1.57559
1.57074
1.56835
1.56618
1.56966
1.572
1.57272
1.57012
1.56853
1.5645
1.55805
1.56284
1.56581
1.56191
1.55949
1.55663
1.56283
1.56583
1.56634
1.56596
1.56413
1.56066
1.55777
1.56132
1.56335
1.56003
1.55726
1.55376
1.55012
1.5523
1.55466
1.5559
1.5542
1.54986
1.54407
1.54982
1.55291
1.55046
1.54747
1.54202
1.54095
1.54398
1.54696
1.5513
1.55039
1.54665
1.54432
1.54851
1.55078
1.54701
1.54415
1.53962
1.53512
1.53908
1.54218
1.53206
1.527
1.52204
1.53142
1.53571
1.53775
1.53843
1.53585
1.53096
1.52956
1.53455
1.53697
1.53383
1.53032
1.52595
1.52171
1.52443
1.52755
1.52905
1.52662
1.52151
1.51294
1.52112
1.52516
1.52276
1.51892
1.51234
1.51236
1.51937
1.52235
1.52102
1.51723
1.51101
1.50709
1.51104
1.51467
1.51579
1.51255
1.50565
1.49827
1.50766
1.51228
1.51063
1.50631
1.49813
1.49892
1.50668
1.5104
1.50929
1.50536
1.49793
1.49009
1.49908
1.50441
1.49844
1.49152
1.4806
1.48198
1.48691
1.49319
1.50268
1.50051
1.49433
1.49174
1.4989
1.5034
1.49822
1.49155
1.48018
1.48101
1.49078
1.49621
1.49765
1.49335
1.4847
1.47936
1.49092
1.49711
1.49676
1.49021
1.47882
1.48321
1.4937
1.49977
1.50278
1.49579
1.48438
1.4892
1.49971
1.50673
1.51149
1.50457
1.49505
1.49832
1.5075
1.51494
1.51765
1.51011
1.50153
1.50364
1.51167
1.51959
1.52139
1.51357
1.50606
1.50793
1.51482
1.52284
1.5242
1.51637
1.50994
1.51162
1.51746
1.52529
1.52635
1.51875
1.51333
1.51489
1.51977
1.52722
1.52806
1.52088
1.51635
1.51769
1.52183
1.52878
1.52944
1.52278
1.51891
1.52008
1.52364
1.53006
1.53056
1.52445
1.52113
1.52221
1.52525
1.5311
1.5315
1.52597
1.52314
1.52418
1.52675
1.53204
1.53238
1.52741
1.52506
1.52606
1.52819
1.53292
1.53323
1.52881
1.5269
1.52786
1.5296
1.5338
1.5341
1.53022
1.52863
1.5295
1.53098
1.53469
1.53499
1.53156
1.53017
1.53094
1.53226
1.5356
1.53589
1.53278
1.53151
1.53221
1.53343
1.5365
1.53683
1.53392
1.53274
1.53342
1.53455
1.53742
1.53776
1.53502
1.53392
1.53457
1.53561
1.53832
1.53867
1.53608
1.53506
1.5357
1.53667
1.53922
1.53956
1.53713
1.53621
1.5368
1.53769
1.54008
1.54042
1.53812
1.53727
1.53782
1.53869
1.54093
1.54125
1.53908
1.53825
1.53875
1.53961
1.54172
1.54204
1.53998
1.53915
1.53964
1.54049
1.5425
1.54279
1.54085
1.54001
1.54047
1.54132
1.54323
1.54349
1.54166
1.54081
1.54124
1.54211
1.54393
1.54415
1.54242
1.54156
1.54196
1.54283
1.54458
1.54477
1.54312
1.54225
1.54264
1.54352
1.54519
1.54536
1.5438
1.54291
1.54327
1.54416
1.54576
1.54593
1.54442
1.54353
1.54388
1.54478
1.5463
1.54645
1.54502
1.54412
1.54445
1.54535
1.54681
1.54696
1.54558
1.54468
1.54499
1.54591
1.5473
1.54743
1.54611
1.5452
1.5455
1.54641
1.54774
1.54787
1.54661
1.5457
1.54599
1.54689
1.54816
1.54827
1.54707
1.54618
1.54645
1.54734
1.54856
1.54867
1.54752
1.54664
1.54691
1.54778
1.54894
1.54903
1.54794
1.54709
1.54734
1.54819
1.5493
1.54939
1.54835
1.54752
1.54777
1.54859
1.54964
1.54972
1.54874
1.54794
1.54817
1.54896
1.54996
1.55004
1.5491
1.54833
1.54857
1.54933
1.55026
1.55033
1.54945
1.54872
1.54894
1.54966
1.55055
1.55062
1.54978
1.54908
1.54929
1.54998
1.55082
1.55087
1.55009
1.54942
1.54962
1.55028
1.55107
1.55112
1.55038
1.54974
1.54993
1.55056
1.55131
1.55135
1.55065
1.55004
1.55022
1.55082
1.55153
1.55157
1.5509
1.5503
1.55048
1.55106
1.55174
1.55177
1.55113
1.55056
1.55072
1.55128
1.55193
1.55196
1.55134
1.55079
1.55095
1.55149
1.55211
1.55214
1.55154
1.55101
1.55116
1.55168
1.55229
1.55231
1.55173
1.55122
1.55136
1.55187
1.55245
1.55247
1.55192
1.55142
1.55155
1.55204
1.55261
1.55262
1.55208
1.5516
1.55173
1.55221
1.55276
1.55276
1.55225
1.55178
1.5519
1.55236
1.5529
1.5529
1.5524
1.55194
1.55207
1.55251
1.55302
1.55303
1.55254
1.5521
1.55222
1.55265
1.55315
1.55315
1.55267
1.55224
1.55236
1.55278
1.55326
1.55326
1.5528
1.55238
1.55249
1.5529
1.55338
1.55337
1.55292
1.55251
1.55261
1.55301
1.55348
1.55347
1.55303
1.55263
1.55273
1.55312
1.55358
1.55357
1.55313
1.55274
1.55284
1.55322
1.55366
1.55365
1.55324
1.55286
1.55295
1.55332
1.55375
1.55374
1.55333
1.55296
1.55305
1.55341
1.55383
1.55382
1.55342
1.55306
1.55314
1.5535
1.55391
1.55389
1.5535
1.55314
1.55323
1.55358
1.55398
1.55396
1.55358
1.55323
1.55331
1.55365
1.55405
1.55403
1.55365
1.55331
1.55339
1.55372
1.55411
1.55409
1.55372
1.55338
1.55346
1.55379
1.55417
1.55415
1.55378
1.55345
1.55353
1.55385
1.55422
1.5542
1.55384
1.55351
1.55358
1.5539
1.55428
1.55425
1.55389
1.55357
1.55364
1.55395
1.55432
1.55429
1.55394
1.55362
1.55369
1.554
1.55437
1.55434
1.55399
1.55367
1.55374
1.55405
1.5544
1.55438
1.55403
1.55372
1.55378
1.55409
1.55444
1.55441
1.55407
1.55376
1.55383
1.55413
1.55447
1.55445
1.55411
1.5538
1.55387
1.55416
1.55451
1.55448
1.55415
1.55384
1.55391
1.5542
1.55454
1.55451
1.55418
1.55388
1.55394
1.55423
1.55457
1.55453
1.55421
1.55391
1.55398
1.55426
1.55459
1.55456
1.55424
1.55395
1.55401
1.55429
1.55462
1.55458
1.55427
1.55398
1.55404
1.55431
1.55463
1.5546
1.55429
1.55401
1.55406
1.55433
1.55466
1.55462
1.55431
1.55403
1.55409
1.55436
1.55467
1.55463
1.55433
1.55406
1.55411
1.55437
1.55469
1.55465
1.55435
1.55408
1.55413
1.55439
1.5547
1.55466
1.55437
1.5541
1.55415
1.5544
1.55471
1.55467
1.55438
1.55411
1.55416
1.55442
1.55471
1.55467
1.55439
1.55413
1.55417
1.55442
1.55472
1.55468
1.55439
1.55413
1.55418
1.55443
1.55472
1.55468
1.5544
1.55414
1.55419
1.55443
1.55472
1.55468
1.5544
1.55415
1.55419
1.55443
1.55472
1.55467
1.5544
1.55415
1.55419
1.55443
1.55472
1.55467
1.5544
1.55415
1.55419
1.55443
1.55471
1.55466
1.55439
1.55415
1.55418
1.55442
1.5547
1.55465
1.55438
1.55414
1.55418
1.55441
1.55468
1.55463
1.55437
1.55413
1.55416
1.55439
1.55467
1.55461
1.55435
1.55411
1.55414
1.55437
1.55464
1.55459
1.55433
1.55409
1.55412
1.55434
1.55461
1.55455
1.55429
1.55406
1.55408
1.55431
1.55457
1.5545
1.55425
1.55401
1.55403
1.55425
1.55453
1.55444
1.55419
1.55395
1.55397
1.55419
1.55447
1.55437
1.55411
1.55387
1.55387
1.55411
1.55439
1.5543
1.55402
1.55375
1.55379
1.55406
1.55439
1.55439
1.55405
1.55378
1.55433
1.55463
1.55512
1.55595
1.55557
1.55534
1.55682
1.55672
1.55691
1.55699
1.55681
1.5572
1.55773
1.5611
1.56242
1.56456
1.56683
1.56719
1.56795
1.56856
1.5692
1.56968
1.57008
1.57041
1.57067
1.57088
1.57104
1.57116
1.57125
1.57132
1.57137
1.5714
1.57143
1.57145
1.57146
1.57147
1.57148
1.57148
1.57148
1.57148
1.57148
1.57148
1.57148
1.57151
1.57153
1.57157
1.5716
1.57164
1.57169
1.57175
1.57181
1.57188
1.57197
1.57208
1.57221
1.57237
1.57255
1.57275
1.57298
1.57322
1.57344
1.5736
1.57369
1.57373
1.57378
1.57386
1.57396
1.57408
1.57421
1.57435
1.5745
1.57466
1.57484
1.57503
1.57525
1.5755
1.57579
1.57612
1.57649
1.57692
1.5774
1.57795
1.57857
1.57927
1.58005
1.58092
1.58189
1.58296
1.58413
1.58542
1.58681
1.58832
1.58995
1.59169
1.59354
1.5955
1.59757
1.59972
1.60197
1.60429
1.60668
1.60912
1.61161
1.61414
1.6167
1.61927
1.62184
1.62442
1.62698
1.62953
1.63205
1.63455
1.637
1.63942
1.64179
1.64412
1.6464
1.64862
1.65079
1.65291
1.65497
1.65697
1.65892
1.66081
1.66265
1.66443
1.66616
1.66783
1.66945
1.67102
1.67254
1.674
1.67542
1.67679
1.67812
1.6794
1.68064
1.68183
1.68299
1.6841
1.68518
1.68622
1.68722
1.68819
1.68912
1.69002
1.69089
1.69173
1.69254
1.69333
1.69408
1.69481
1.69551
1.69619
1.69685
1.69748
1.69809
1.69868
1.69925
1.69979
1.70032
1.70083
1.70132
1.7018
1.70225
1.70269
1.70311
1.70352
1.70391
1.70429
1.70466
1.70501
1.70534
1.70566
1.70597
1.70627
1.70656
1.70683
1.70709
1.70734
1.70759
1.70782
1.70804
1.70825
1.70845
1.70864
1.70882
1.70899
1.70916
1.70931
1.70946
1.7096
1.70973
1.70985
1.70997
1.71007
1.71017
1.71026
1.71033
1.71041
1.71048
1.71055
1.71064
1.71074
1.71087
1.71104
1.71117
1.71122
1.71124
1.71124
1.71124
1.71124
1.71123
1.71123
1.71125
1.71139
1.71156
1.71163
1.71169
1.71175
1.71182
1.71189
1.71197
1.71205
1.71213
1.71222
1.71232
1.71242
1.71252
1.71263
1.71274
1.71286
1.71298
1.71311
1.71323
1.71336
1.7135
1.71363
1.71377
1.7139
1.71404
1.71418
1.71432
1.71446
1.7146
1.71474
1.71488
1.71501
1.71515
1.71528
1.71541
1.71553
1.71565
1.71577
1.71589
1.71599
1.7161
1.7162
1.71629
1.71638
1.71647
1.71655
1.71663
1.7167
1.71679
1.71685
1.71683
1.71681
1.7169
1.71708
1.71739
1.71753
1.71761
1.71751
1.71741
1.71733
1.71726
1.71719
1.71713
1.71708
1.71704
1.717
1.71698
1.71695
1.71693
1.71692
1.71691
1.71691
1.71691
1.71692
1.71693
1.71695
1.71697
1.717
1.71703
1.71706
1.7171
1.71714
1.71719
1.71724
1.71729
1.71735
1.71741
1.71748
1.71755
1.71762
1.7177
1.71778
1.71787
1.71796
1.71805
1.71815
1.71825
1.71836
1.71847
1.71858
1.7187
1.71883
1.71895
1.71909
1.71922
1.71937
1.71952
1.71967
1.71983
1.72
1.72016
1.72034
1.72052
1.72071
1.7209
1.7211
1.7213
1.72152
1.72173
1.72196
1.72218
1.72243
1.72267
1.72292
1.72317
1.72344
1.72371
1.72399
1.72427
1.72456
1.72484
1.72515
1.72545
1.72576
1.72607
1.7264
1.72671
1.72705
1.72737
1.72771
1.72803
1.72838
1.72871
1.72906
1.72938
1.72971
1.73002
1.73033
1.73061
1.7309
1.73115
1.73141
1.73164
1.73188
1.73208
1.73229
1.73247
1.73265
1.73281
1.73298
1.73312
1.73326
1.73338
1.73349
1.73358
1.73366
1.73373
1.73378
1.73382
1.73385
1.73388
1.73391
1.73392
1.73393
1.73393
1.73393
1.73393
1.73394
1.73394
1.73394
1.73395
1.73397
1.73398
1.73401
1.73403
1.73406
1.73408
1.73412
1.73414
1.73415
1.73416
1.73416
1.73416
1.73416
1.73417
1.7342
1.73422
1.73424
1.73426
1.73427
1.73426
1.73428
1.73429
1.73432
1.73434
1.7344
1.73444
1.73453
1.7346
1.73473
1.73484
1.73495
1.73504
1.73516
1.73525
1.73536
1.73546
1.73554
1.73563
1.73566
1.73515
1.73479
1.73479
1.73514
1.73508
1.73476
1.73473
1.73502
1.73494
1.73467
1.73431
1.73447
1.7345
1.73451
1.73428
1.73426
1.73425
1.73409
1.7341
1.73411
1.73395
1.73392
1.7339
1.73396
1.73395
1.73422
1.73457
1.73484
1.73478
1.73453
1.73442
1.73467
1.7346
1.73438
1.73412
1.73404
1.73428
1.73449
1.73441
1.73424
1.73416
1.73432
1.73427
1.73413
1.734
1.73401
1.73409
1.73421
1.73418
1.73408
1.73406
1.73414
1.73414
1.73406
1.73403
1.73405
1.73406
1.73412
1.73413
1.73407
1.73409
1.73413
1.73414
1.73409
1.73407
1.73407
1.73411
1.73415
1.73414
1.73409
1.7341
1.73414
1.73412
1.73408
1.73405
1.73405
1.73409
1.73411
1.7341
1.73406
1.73407
1.7341
1.73409
1.73405
1.73404
1.73402
1.73406
1.73409
1.73408
1.73403
1.73402
1.73406
1.73403
1.73398
1.73398
1.73394
1.73397
1.734
1.73397
1.73392
1.73392
1.73394
1.73392
1.73388
1.73392
1.7339
1.73388
1.7339
1.73387
1.73384
1.73385
1.73386
1.73385
1.73382
1.73387
1.73385
1.73383
1.73384
1.73384
1.7338
1.73382
1.73384
1.73383
1.7338
1.73384
1.73382
1.73381
1.73383
1.73382
1.73379
1.7338
1.73382
1.7338
1.73377
1.73381
1.7338
1.73378
1.73379
1.73376
1.73374
1.73374
1.73374
1.73369
1.73368
1.73377
1.73371
1.73367
1.73365
1.73358
1.73358
1.73354
1.73351
1.73342
1.73344
1.73361
1.73345
1.73337
1.73332
1.7332
1.73323
1.73314
1.73307
1.73293
1.73298
1.73325
1.733
1.73287
1.73277
1.73262
1.73269
1.73256
1.73244
1.73228
1.73236
1.7327
1.73233
1.7322
1.73207
1.73188
1.73198
1.7318
1.73164
1.73143
1.73154
1.73191
1.73143
1.73133
1.73117
1.73092
1.73104
1.73081
1.73064
1.73037
1.73048
1.73089
1.7303
1.73023
1.73005
1.72976
1.72988
1.72961
1.72942
1.72911
1.72924
1.72967
1.72902
1.72897
1.72877
1.72845
1.72858
1.72831
1.7281
1.72778
1.72792
1.72836
1.72771
1.72766
1.72745
1.72713
1.72728
1.72703
1.7268
1.72649
1.72664
1.72707
1.72645
1.72639
1.72617
1.72587
1.72601
1.72578
1.72556
1.72526
1.72541
1.72584
1.72524
1.72518
1.72497
1.72468
1.72482
1.7246
1.72439
1.72411
1.72426
1.72467
1.72412
1.72405
1.72384
1.72357
1.72372
1.72352
1.72331
1.72305
1.7232
1.7236
1.7231
1.72301
1.72281
1.72256
1.72271
1.72254
1.72233
1.7221
1.72224
1.72262
1.72217
1.72208
1.72188
1.72166
1.72181
1.72165
1.72146
1.72125
1.72139
1.72175
1.72135
1.72125
1.72106
1.72086
1.721
1.72087
1.72068
1.72049
1.72063
1.72097
1.72062
1.72051
1.72033
1.72015
1.72029
1.72018
1.72
1.71983
1.71997
1.72028
1.71997
1.71986
1.71968
1.71953
1.71966
1.71957
1.71939
1.71925
1.71938
1.71968
1.7194
1.71929
1.71912
1.71898
1.71912
1.71904
1.71887
1.71874
1.71887
1.71915
1.71891
1.7188
1.71864
1.71852
1.71864
1.71858
1.71842
1.71831
1.71843
1.71869
1.71848
1.71837
1.71822
1.71812
1.71824
1.71819
1.71804
1.71794
1.71806
1.71829
1.71812
1.71801
1.71787
1.71778
1.7179
1.71785
1.71772
1.71764
1.71775
1.71796
1.71781
1.71771
1.71758
1.71751
1.71761
1.71758
1.71746
1.71739
1.7175
1.71768
1.71757
1.71747
1.71735
1.71729
1.71739
1.71737
1.71726
1.71721
1.7173
1.71746
1.71737
1.71729
1.71718
1.71714
1.71723
1.71722
1.71712
1.71709
1.71717
1.7173
1.71724
1.71716
1.71707
1.71705
1.71713
1.71713
1.71704
1.71703
1.7171
1.71719
1.71716
1.7171
1.71703
1.71703
1.71709
1.7171
1.71704
1.71705
1.7171
1.71715
1.71715
1.71711
1.71707
1.71709
1.71712
1.71715
1.71712
1.71715
1.71717
1.71716
1.71719
1.7172
1.71719
1.71724
1.71723
1.71727
1.71729
1.71735
1.71732
1.71721
1.7172
1.71735
1.71741
1.71747
1.71739
1.71697
1.71707
1.71712
1.71715
1.71716
1.71719
1.71722
1.71726
1.71732
1.71739
1.71747
1.71757
1.71768
1.7178
1.71794
1.71809
1.71826
1.71843
1.71863
1.71884
1.71906
1.7193
1.71956
1.71984
1.72013
1.72044
1.72078
1.72113
1.72151
1.72191
1.72233
1.72277
1.72324
1.72373
1.72425
1.72479
1.72535
1.72594
1.72655
1.72718
1.72782
1.72848
1.72914
1.72981
1.73047
1.7311
1.73168
1.7322
1.73265
1.73301
1.73331
1.73353
1.7337
1.73381
1.73388
1.73393
1.73395
1.73396
1.73396
1.73397