/*--------------------------------*- C++ -*----------------------------------*\
| =========                 |                                                 |
| \\      /  F ield         | OpenFOAM: The Open Source CFD Toolbox           |
|  \\    /   O peration     | Version:  v2006                                 |
|   \\  /    A nd           | Website:  www.openfoam.com                      |
|    \\/     M anipulation  |                                                 |
\*---------------------------------------------------------------------------*/
FoamFile
{
    version     2.0;
    format      ascii;
    class       volScalarField;
    location    "0.036";
    object      T;
}
// * * * * * * * * * * * * * * * * * * * * * * * * * * * * * * * * * * * * * //

dimensions      [0 0 0 1 0 0 0];


internalField   nonuniform List<scalar> 
12716
(
297.875
297.875
297.875
297.875
297.875
297.875
297.875
297.875
297.875
297.875
297.877
297.88
297.885
297.891
297.898
297.906
297.913
297.92
297.928
297.935
297.943
297.951
297.959
297.968
297.977
297.986
297.995
298.004
298.014
298.023
298.033
298.043
298.053
298.063
298.073
298.084
298.094
298.104
298.114
298.125
298.135
298.145
298.155
298.164
298.174
298.184
298.193
298.202
298.211
298.219
298.228
298.236
298.244
298.252
298.26
298.267
298.273
298.277
298.278
298.278
298.277
298.277
298.276
298.276
298.276
298.278
298.283
298.291
298.304
298.319
298.374
298.386
298.317
298.297
298.296
298.321
298.407
298.428
298.326
298.297
298.298
298.332
298.442
298.454
298.34
298.302
298.306
298.347
298.462
298.468
298.354
298.311
298.316
298.36
298.472
298.475
298.366
298.321
298.326
298.372
298.476
298.478
298.377
298.331
298.337
298.383
298.479
298.48
298.387
298.341
298.347
298.392
298.481
298.482
298.396
298.351
298.357
298.401
298.483
298.483
298.405
298.361
298.366
298.41
298.485
298.485
298.413
298.371
298.376
298.418
298.486
298.487
298.42
298.38
298.385
298.425
298.489
298.49
298.428
298.389
298.395
298.434
298.492
298.494
298.437
298.399
298.405
298.442
298.497
298.498
298.445
298.409
298.415
298.451
298.501
298.503
298.454
298.42
298.426
298.46
298.507
298.509
298.463
298.43
298.437
298.469
298.513
298.515
298.473
298.441
298.448
298.479
298.52
298.522
298.483
298.453
298.46
298.49
298.527
298.53
298.494
298.465
298.473
298.501
298.536
298.539
298.505
298.478
298.486
298.513
298.545
298.548
298.517
298.491
298.5
298.525
298.555
298.558
298.53
298.505
298.514
298.539
298.565
298.569
298.543
298.52
298.53
298.553
298.577
298.581
298.558
298.536
298.546
298.568
298.59
298.594
298.573
298.552
298.563
298.583
298.603
298.608
298.589
298.57
298.581
298.6
298.617
298.622
298.606
298.588
298.6
298.617
298.633
298.638
298.624
298.607
298.62
298.636
298.649
298.655
298.643
298.628
298.641
298.656
298.667
298.673
298.663
298.649
298.663
298.677
298.685
298.692
298.684
298.672
298.687
298.699
298.705
298.712
298.707
298.697
298.712
298.723
298.727
298.734
298.731
298.722
298.738
298.748
298.75
298.758
298.757
298.749
298.766
298.774
298.773
298.782
298.783
298.777
298.795
298.801
298.798
298.807
298.811
298.807
298.825
298.829
298.824
298.834
298.84
298.838
298.856
298.859
298.851
298.861
298.87
298.87
298.889
298.89
298.879
298.89
298.902
298.903
298.924
298.922
298.909
298.92
298.935
298.938
298.959
298.955
298.939
298.951
298.968
298.974
298.995
298.989
298.97
298.982
299.002
299.01
299.031
299.023
299.001
299.015
299.036
299.046
299.068
299.057
299.034
299.047
299.071
299.083
299.103
299.091
299.066
299.079
299.104
299.118
299.138
299.124
299.098
299.111
299.137
299.152
299.171
299.155
299.129
299.14
299.167
299.184
299.202
299.185
299.157
299.168
299.196
299.214
299.232
299.213
299.183
299.193
299.223
299.243
299.259
299.238
299.207
299.215
299.247
299.269
299.283
299.26
299.228
299.236
299.268
299.291
299.303
299.28
299.247
299.254
299.286
299.309
299.319
299.295
299.263
299.27
299.301
299.324
299.331
299.308
299.277
299.283
299.312
299.335
299.34
299.318
299.288
299.293
299.321
299.343
299.348
299.326
299.297
299.301
299.329
299.35
299.352
299.33
299.303
299.304
299.331
299.352
299.352
299.331
299.304
299.303
299.33
299.351
299.351
299.329
299.302
299.3
299.327
299.349
299.347
299.326
299.298
299.296
299.323
299.345
299.343
299.321
299.291
299.289
299.318
299.34
299.339
299.316
299.285
299.283
299.313
299.335
299.333
299.311
299.283
299.285
299.309
299.329
299.326
299.307
299.286
299.286
299.305
299.323
299.321
299.305
299.289
299.29
299.304
299.318
299.316
299.303
299.292
299.295
299.303
299.314
299.314
299.304
299.297
299.299
299.304
299.313
299.312
299.304
299.299
299.299
299.303
299.311
299.31
299.303
299.298
299.293
299.3
299.309
299.308
299.298
299.28
299.267
299.292
299.306
299.304
299.283
299.245
299.233
299.273
299.297
299.291
299.262
299.212
299.194
299.247
299.28
299.273
299.237
299.176
299.156
299.22
299.261
299.254
299.212
299.141
299.12
299.194
299.24
299.231
299.181
299.099
299.079
299.161
299.213
299.201
299.143
299.051
299.032
299.123
299.183
299.172
299.109
299.009
298.991
299.09
299.156
299.147
299.078
298.97
298.954
299.06
299.131
299.119
299.043
298.929
298.908
299.021
299.097
299.078
298.999
298.88
298.855
298.974
299.055
299.039
298.956
298.836
298.823
298.939
299.019
299.004
298.92
298.795
298.775
298.9
298.985
298.969
298.874
298.732
298.714
298.858
298.953
298.923
298.827
298.694
298.697
298.822
298.913
298.894
298.808
298.688
299.01
299.103
299.165
299.214
299.25
299.279
299.3
299.316
299.328
299.337
299.343
299.348
299.352
299.354
299.356
299.358
299.36
299.362
299.366
299.373
299.38
299.385
299.402
299.435
299.423
299.312
299.253
299.346
299.055
299.596
299.785
298.48
299.267
298.589
299.967
299.246
299.237
299.571
299.328
299.411
299.421
299.389
299.365
299.494
299.459
299.513
299.492
299.376
299.408
299.416
299.617
299.614
299.436
299.392
299.324
299.61
299.479
299.557
299.452
299.373
299.296
299.59
299.414
299.39
299.543
299.319
299.318
299.516
299.41
299.398
299.485
299.339
299.363
299.412
299.439
299.464
299.341
299.393
299.417
299.303
299.447
299.369
299.367
299.37
299.322
299.423
299.318
299.288
299.395
299.33
299.309
299.392
299.281
299.317
299.302
299.347
299.406
299.146
299.373
299.403
299.14
299.382
299.355
299.203
299.331
299.332
299.199
299.346
299.313
299.262
299.277
299.268
299.274
299.3
299.256
299.332
299.238
299.226
299.356
299.254
299.214
299.432
299.202
299.203
299.416
299.246
299.246
299.41
299.226
299.231
299.4
299.273
299.293
299.369
299.253
299.266
299.356
299.293
299.306
299.346
299.25
299.173
299.452
299.237
299.239
299.413
299.226
299.226
299.381
299.262
299.279
299.324
299.29
299.297
299.314
299.303
299.351
299.233
299.319
299.351
299.213
299.34
299.371
299.142
299.382
299.404
299.153
299.336
299.331
299.161
299.382
299.397
299.161
299.322
299.321
299.183
299.369
299.384
299.167
299.324
299.325
299.172
299.366
299.385
299.168
299.321
299.319
299.187
299.358
299.378
299.174
299.324
299.331
299.182
299.339
299.362
299.16
299.338
299.342
299.164
299.324
299.337
299.175
299.317
299.315
299.169
299.333
299.354
299.16
299.311
299.302
299.178
299.321
299.34
299.157
299.305
299.298
299.174
299.32
299.344
299.162
299.301
299.297
299.189
299.323
299.352
299.183
299.307
299.309
299.217
299.333
299.354
299.221
299.314
299.322
299.225
299.341
299.37
299.25
299.306
299.307
299.256
299.374
299.38
299.262
299.307
299.284
299.315
299.323
299.342
299.256
299.298
299.289
299.244
299.351
299.35
299.249
299.285
299.269
299.281
299.307
299.309
299.257
299.285
299.267
299.285
299.293
299.283
299.287
299.272
299.282
299.269
299.282
299.248
299.304
299.259
299.282
299.224
299.305
299.289
299.271
299.258
299.265
299.263
299.247
299.226
299.284
299.245
299.285
299.126
299.338
299.276
299.247
299.226
299.225
299.24
299.266
299.272
299.242
299.226
299.231
299.26
299.284
299.303
299.28
299.245
299.254
299.295
299.332
299.35
299.304
299.263
299.265
299.299
299.35
299.333
299.278
299.259
299.25
299.258
299.257
299.178
299.214
299.234
299.226
299.197
299.116
299.108
299.197
299.227
299.233
299.212
299.114
299.129
299.244
299.246
299.257
299.283
299.124
299.038
299.338
299.263
299.247
299.488
298.795
298.382
299.987
299.201
299.157
300.564
297.777
296.263
301.895
298.993
299.163
299.128
299.637
299.331
299.223
299.264
299.258
299.284
299.287
299.303
299.271
299.269
299.279
299.273
299.296
299.284
299.284
299.289
299.296
299.294
299.292
299.311
299.304
299.307
299.32
299.317
299.317
299.329
299.327
299.333
299.344
299.338
299.334
299.348
299.349
299.352
299.365
299.363
299.372
299.383
299.375
299.378
299.395
299.392
299.403
299.411
299.412
299.415
299.438
299.436
299.444
299.456
299.46
299.463
299.496
299.487
299.472
299.489
299.51
299.523
299.537
299.531
299.506
299.527
299.551
299.558
299.583
299.572
299.544
299.561
299.592
299.604
299.617
299.612
299.581
299.602
299.632
299.638
299.661
299.655
299.623
299.645
299.679
299.687
299.71
299.701
299.67
299.697
299.722
299.725
299.743
299.739
299.724
299.74
299.749
299.757
299.747
299.749
299.75
299.722
299.719
299.728
299.661
299.647
299.636
299.418
299.464
299.478
299.346
299.309
299.154
298.385
298.906
298.982
298.56
298.476
298.083
296.888
297.736
297.991
297.484
297.085
296.377
296.309
296.421
296.867
296.605
296.226
296.827
298.258
296.515
296.584
296.713
297.006
298.481
298.932
297.308
296.916
297.062
297.588
299.147
299.219
297.932
297.297
297.372
298.046
299.277
299.282
298.179
297.498
297.73
298.353
299.275
299.245
298.519
297.862
297.848
298.479
299.239
299.21
298.518
297.893
298.05
298.592
299.175
299.122
298.645
298.107
298.067
298.587
299.079
299.007
298.509
298.07
297.991
298.426
298.938
298.91
298.392
297.978
298.079
298.454
298.907
298.888
298.455
298.108
298.11
298.462
298.831
298.809
298.466
298.125
298.251
298.519
298.781
298.747
298.507
298.254
298.259
298.503
298.712
298.699
298.506
298.266
298.292
298.503
298.662
298.649
298.517
298.356
298.344
298.488
298.605
298.596
298.493
298.35
298.351
298.482
298.562
298.528
298.503
298.417
298.408
298.475
298.466
298.439
298.485
298.406
298.395
298.449
298.465
298.466
298.395
298.396
298.403
298.394
298.472
298.453
298.354
298.356
298.352
298.389
298.399
298.413
298.382
298.337
298.337
298.389
298.362
298.802
297.996
298.462
298.672
298.114
298.106
297.961
298.647
298.136
298.271
298.476
297.915
298.014
298.4
298.355
298.93
296.644
299.006
298.094
298.307
298.255
298.273
298.347
298.026
298.022
298.303
298.307
297.682
299.65
297.013
298.173
298.214
298.273
298.159
298.129
298.443
298.378
298.173
298.117
298.322
297.57
298.737
300.33
295.525
298.606
298.301
297.059
298.898
297.527
298.355
298.342
298.415
298.399
297.552
297.688
297.79
298.383
298.459
297.817
298.099
297.488
298.412
298.356
298.346
298.443
297.494
297.75
297.63
298.322
298.35
297.746
298.049
297.426
298.396
298.28
298.399
298.357
297.332
299.047
296.338
298.7
298.281
297.307
298.597
297.944
298.146
298.163
298.266
298.065
297.978
299.546
296.376
298.536
298.137
297.372
298.645
298.147
297.993
298.054
298.142
298.034
298.015
298.353
297.964
298.127
297.722
298.133
298.088
298.638
297.818
297.884
297.711
298.507
298.53
298.295
298.003
297.593
297.715
297.607
298.722
298.75
297.665
297.665
298.302
295.43
300.298
298.43
297.268
297.828
297.888
298.031
297.436
297.429
297.916
298.09
298.64
294.635
299.851
298.599
296.641
298.083
298.067
297.74
297.324
297.611
296.681
298.216
298.081
297.54
297.538
297.182
297.97
297.972
298.059
297.974
297.151
298.38
296.776
298.183
297.824
297.42
298.107
297.875
297.652
297.749
297.929
297.044
298.448
297.864
297.672
297.614
297.621
297.604
298.055
298.211
297.765
297.556
297.166
299.568
296.563
297.279
298.262
297.58
297.54
297.872
297.852
297.316
298.384
297.43
297.539
297.825
297.622
297.771
297.668
297.542
297.572
297.685
297.776
297.803
297.547
297.565
297.614
297.476
297.689
297.582
297.632
297.545
297.529
297.364
297.613
297.597
297.419
297.57
297.531
297.564
297.436
297.375
297.808
297.462
296.988
299.157
296.038
296.762
298.063
297.488
297.381
297.615
297.437
296.587
298.426
297.152
297.343
297.836
297.082
297.683
297.402
297.331
297.131
298.219
296.945
297.283
297.58
297.289
297.303
297.516
297.47
297.338
297.451
297.282
297.278
297.326
297.335
297.353
297.302
297.253
297.258
297.32
297.375
297.421
297.241
297.26
297.254
297.217
297.366
297.385
297.292
297.235
297.24
297.227
297.451
297.343
297.182
297.206
297.158
297.228
297.35
297.329
297.202
297.155
297.128
297.138
297.241
297.279
297.187
297.106
297.118
297.191
297.245
297.206
297.126
297.083
297.063
297.129
297.256
297.269
297.144
297.097
297.214
296.654
297.672
297.359
296.894
297.026
297.014
297.015
297.293
297.444
296.884
297.063
296.935
296.911
297.211
297.212
297.005
296.926
297.001
296.945
297.305
297.12
296.933
296.887
296.882
296.973
297.164
297.168
297.02
296.899
296.839
296.887
297.035
297.068
296.922
296.817
296.868
296.951
297.065
296.962
296.836
296.787
296.772
296.861
297.01
296.994
296.903
296.808
296.737
296.795
296.927
296.961
296.797
296.725
296.715
296.827
296.995
296.969
296.872
296.742
296.677
296.729
296.87
296.928
296.762
296.649
296.651
296.835
296.844
296.768
296.671
296.604
296.586
296.719
296.83
296.77
296.765
296.592
296.549
296.616
296.706
296.773
296.638
296.531
296.536
296.685
296.704
296.637
296.532
296.478
296.453
296.566
296.704
296.66
296.625
296.463
296.413
296.474
296.587
296.645
296.499
296.393
296.43
296.537
296.621
296.537
296.407
296.346
296.327
296.439
296.595
296.566
296.465
296.36
296.287
296.334
296.469
296.521
296.374
296.258
296.301
296.399
296.494
296.408
296.272
296.219
296.189
296.312
296.463
296.456
296.301
296.24
296.158
296.194
296.347
296.39
296.246
296.127
296.168
296.237
296.37
296.281
296.134
296.084
296.049
296.127
296.301
296.331
296.158
296.028
296.074
296.193
296.308
296.197
296.043
295.982
295.958
296.079
296.255
296.24
296.111
296.012
295.904
295.963
296.126
296.185
296
295.879
295.932
296.04
296.164
296.051
295.896
295.835
295.812
295.935
296.113
296.097
295.983
295.863
295.764
295.823
295.991
296.049
295.867
295.729
295.795
295.891
296.029
295.913
295.748
295.687
295.662
295.799
295.974
295.96
295.814
295.734
295.606
295.662
295.837
295.894
295.711
295.576
295.629
295.746
295.875
295.759
295.588
295.53
295.502
295.634
295.823
295.791
295.669
295.552
295.444
295.51
295.683
295.748
295.56
295.414
295.46
295.583
295.712
295.592
295.42
295.362
295.319
295.468
295.647
295.614
295.482
295.372
295.267
295.331
295.506
295.579
295.38
295.235
295.282
295.409
295.546
295.441
295.254
295.186
295.158
295.253
295.474
295.524
295.291
295.14
295.2
295.358
295.505
295.358
295.153
295.083
295.029
295.216
295.433
295.377
295.219
295.081
294.97
295.041
295.248
295.337
295.098
294.943
295.01
295.148
295.309
295.176
294.963
294.887
294.852
295.021
295.251
295.233
295.051
294.924
294.801
294.867
295.087
295.154
294.933
294.758
294.835
294.936
295.122
294.981
294.765
294.694
294.623
294.809
295.035
295.004
294.847
294.702
294.576
294.661
294.88
294.955
294.705
294.545
294.636
294.756
294.958
294.804
294.57
294.489
294.428
294.624
294.869
294.839
294.654
294.509
294.381
294.472
294.706
294.739
294.457
294.332
294.301
294.517
294.775
294.707
294.522
294.366
294.213
294.308
294.563
294.685
294.371
294.189
294.253
294.47
294.641
294.469
294.21
294.115
294.074
294.269
294.564
294.518
294.344
294.141
294.004
294.097
294.347
294.416
294.156
293.937
294.004
294.179
294.36
294.199
293.958
293.871
293.79
293.99
294.244
294.213
294.042
293.882
293.733
293.84
294.095
294.147
293.838
293.707
293.682
293.891
294.221
294.191
293.979
293.768
293.598
293.704
293.992
294.08
293.778
293.521
293.615
293.8
294.012
293.838
293.553
293.448
293.351
293.597
293.882
293.804
293.601
293.423
293.264
293.377
293.676
293.748
293.393
293.24
293.233
293.463
293.843
293.82
293.581
293.353
293.156
293.285
293.611
293.692
293.325
293.057
293.184
293.417
293.645
293.432
293.107
292.985
292.908
293.183
293.502
293.341
293.131
292.961
292.769
292.9
293.251
293.32
292.919
292.737
292.743
293.003
293.445
293.419
293.157
292.882
292.667
292.811
293.181
293.278
292.868
292.58
292.706
292.957
293.219
292.982
292.625
292.492
292.39
292.691
293.054
292.917
292.677
292.455
292.231
292.347
292.697
292.749
292.356
292.188
292.178
292.419
292.862
292.849
292.583
292.324
292.098
292.242
292.611
292.71
292.31
291.987
292.111
292.358
292.622
292.429
292.047
291.896
291.802
292.013
292.442
292.447
292.045
291.722
291.784
291.997
292.279
292.11
291.729
291.563
291.53
291.787
292.312
292.295
291.984
291.675
291.436
291.615
292.054
292.102
291.594
291.365
291.322
291.682
292.165
292.057
291.74
291.451
291.167
291.357
291.811
291.776
291.293
291.042
290.911
291.262
291.804
291.807
291.465
291.129
290.871
291.063
291.534
291.682
291.118
290.822
290.96
291.271
291.621
291.357
290.885
290.688
290.569
290.84
291.387
291.4
290.881
290.483
290.516
290.84
291.173
290.854
290.404
290.242
290.137
290.38
290.905
291.075
290.463
290.138
290.356
290.712
291.069
290.792
290.276
290.05
289.92
290.233
290.853
290.887
290.291
289.847
289.949
290.341
290.76
290.233
289.804
289.61
289.51
289.681
290.251
290.351
289.723
289.394
289.661
289.989
290.397
290.1
289.567
289.347
289.237
289.606
290.256
290.232
289.547
289.16
289.049
289.575
290.263
289.893
289.461
289.09
288.688
288.932
289.574
289.651
288.904
288.567
288.597
289.031
289.89
289.86
289.357
288.863
288.485
288.788
289.463
289.52
288.73
288.285
288.129
288.634
289.498
289.173
288.391
287.865
288.143
288.64
289.198
288.829
288.129
287.775
287.755
288.223
289.158
289.168
288.207
287.747
287.683
288.344
289.202
288.754
288.226
287.74
287.209
287.535
288.268
288.395
287.413
287.05
287.08
287.635
288.623
288.842
287.61
287.07
286.956
287.696
288.848
288.443
287.73
287.129
286.459
286.825
287.759
287.975
286.776
286.327
286.368
286.985
288.257
288.411
287.017
286.359
286.216
286.916
288.271
288.259
286.856
286.097
286.085
286.978
288.555
288.46
287.71
286.711
286.076
286.64
287.762
287.651
286.511
285.849
285.897
286.576
287.898
288.38
286.899
286.117
286.14
286.897
288.43
288.803
287.135
286.248
286.557
287.559
289.329
289.777
287.936
286.833
287.185
288.347
290.226
290.879
289
287.687
288.062
289.409
291.212
291.662
289.914
288.467
288.725
290.174
291.814
292.103
290.569
289.052
289.267
290.762
292.202
292.404
291.085
289.556
289.741
291.236
292.47
292.612
291.495
290.004
290.165
291.614
292.654
292.751
291.818
290.402
290.542
291.909
292.779
292.86
292.071
290.752
290.875
292.143
292.885
292.956
292.278
291.061
291.173
292.336
292.971
293.023
292.445
291.337
291.433
292.487
293.03
293.06
292.571
291.571
291.653
292.599
293.049
293.063
292.661
291.767
291.834
292.676
293.041
293.046
292.718
291.924
291.978
292.716
293.021
293.026
292.747
292.046
292.086
292.739
293.005
293.014
292.765
292.135
292.163
292.754
292.997
293.007
292.778
292.199
292.209
292.763
292.989
292.994
292.782
292.242
292.24
292.763
292.974
292.972
292.776
292.266
292.257
292.75
292.945
292.938
292.756
292.277
292.262
292.724
292.901
292.893
292.726
292.276
292.255
292.693
292.857
292.85
292.688
292.266
292.242
292.655
292.815
292.808
292.648
292.25
292.223
292.615
292.774
292.766
292.607
292.229
292.201
292.571
292.732
292.722
292.562
292.204
292.177
292.527
292.689
292.68
292.518
292.176
292.154
292.484
292.649
292.639
292.475
292.148
292.129
292.443
292.61
292.6
292.434
292.121
292.104
292.402
292.571
292.561
292.393
292.093
292.074
292.361
292.532
292.521
292.352
292.067
292.048
292.321
292.493
292.483
292.312
292.04
292.019
292.282
292.455
292.445
292.274
292.014
291.993
292.244
292.418
292.408
292.237
291.989
291.968
292.209
292.382
292.372
292.201
291.965
291.945
292.174
292.345
292.334
292.167
291.94
291.92
292.139
292.307
292.296
292.132
291.917
291.897
292.105
292.268
292.257
292.098
291.892
291.872
292.071
292.229
292.218
292.064
291.869
291.85
292.037
292.19
292.178
292.031
291.845
291.825
292.004
292.151
292.139
291.998
291.824
291.805
291.972
292.112
292.101
291.966
291.801
291.781
291.941
292.075
292.064
291.936
291.782
291.762
291.912
292.039
292.029
291.907
291.76
291.74
291.883
292.005
291.996
291.879
291.741
291.722
291.856
291.974
291.965
291.853
291.721
291.702
291.832
291.945
291.937
291.829
291.704
291.686
291.809
291.918
291.911
291.807
291.686
291.668
291.787
291.893
291.886
291.786
291.671
291.652
291.766
291.868
291.862
291.766
291.653
291.635
291.746
291.845
291.839
291.746
291.638
291.62
291.727
291.822
291.817
291.727
291.622
291.604
291.708
291.801
291.796
291.709
291.608
291.59
291.69
291.78
291.776
291.691
291.593
291.575
291.673
291.76
291.756
291.674
291.58
291.562
291.656
291.741
291.737
291.658
291.565
291.548
291.64
291.723
291.72
291.643
291.554
291.536
291.625
291.706
291.703
291.628
291.54
291.523
291.61
291.689
291.687
291.613
291.529
291.511
291.596
291.673
291.671
291.599
291.515
291.499
291.582
291.657
291.655
291.585
291.505
291.488
291.569
291.642
291.64
291.572
291.492
291.476
291.555
291.627
291.625
291.559
291.483
291.466
291.543
291.612
291.611
291.546
291.47
291.454
291.53
291.599
291.598
291.534
291.461
291.444
291.518
291.586
291.585
291.523
291.45
291.434
291.507
291.573
291.573
291.512
291.441
291.425
291.496
291.561
291.561
291.501
291.431
291.415
291.486
291.55
291.55
291.491
291.423
291.406
291.476
291.539
291.539
291.481
291.413
291.397
291.466
291.529
291.529
291.472
291.406
291.389
291.457
291.519
291.52
291.463
291.396
291.381
291.448
291.51
291.51
291.454
291.39
291.374
291.44
291.5
291.501
291.446
291.381
291.365
291.431
291.491
291.492
291.437
291.375
291.359
291.423
291.483
291.484
291.429
291.366
291.351
291.415
291.474
291.475
291.422
291.361
291.345
291.408
291.465
291.466
291.414
291.352
291.337
291.4
291.457
291.458
291.406
291.347
291.331
291.392
291.448
291.45
291.399
291.339
291.323
291.385
291.44
291.441
291.391
291.333
291.317
291.377
291.432
291.433
291.384
291.325
291.31
291.37
291.424
291.425
291.376
291.32
291.304
291.362
291.416
291.417
291.369
291.312
291.297
291.355
291.408
291.409
291.362
291.307
291.291
291.348
291.4
291.401
291.355
291.299
291.284
291.341
291.392
291.393
291.347
291.294
291.278
291.334
291.384
291.386
291.34
291.286
291.271
291.327
291.377
291.378
291.333
291.281
291.265
291.32
291.369
291.371
291.327
291.274
291.258
291.313
291.362
291.364
291.32
291.269
291.253
291.306
291.354
291.356
291.313
291.261
291.245
291.299
291.347
291.349
291.306
291.256
291.24
291.292
291.34
291.341
291.299
291.248
291.232
291.285
291.332
291.334
291.291
291.242
291.226
291.277
291.324
291.325
291.284
291.234
291.218
291.269
291.316
291.317
291.276
291.228
291.211
291.261
291.307
291.308
291.267
291.218
291.201
291.252
291.298
291.298
291.257
291.21
291.192
291.242
291.287
291.287
291.246
291.197
291.181
291.23
291.276
291.274
291.234
291.183
291.165
291.216
291.262
291.259
291.215
291.167
291.141
291.194
291.245
291.233
291.184
291.129
291.1
291.164
291.214
291.16
291.109
291.022
291.018
291.088
291.122
291.012
291.038
290.992
291.026
291.077
291.002
290.847
290.205
289.876
289.564
289.2
289.019
288.879
288.793
288.624
288.508
288.421
288.354
288.302
288.263
288.233
288.211
288.195
288.182
288.173
288.166
288.16
288.156
288.153
288.15
288.148
288.147
288.146
288.145
288.145
288.145
288.145
288.145
288.145
288.144
288.144
288.144
288.144
288.144
288.143
288.143
288.143
288.143
288.142
288.142
288.142
288.142
288.142
288.142
288.142
288.142
288.142
288.142
288.141
288.141
288.142
288.146
288.152
288.16
288.171
288.184
288.199
288.217
288.238
288.261
288.287
288.316
288.348
288.384
288.424
288.469
288.518
288.573
288.634
288.7
288.774
288.854
288.943
289.038
289.142
289.254
289.374
289.502
289.637
289.78
289.93
290.087
290.25
290.418
290.59
290.767
290.947
291.13
291.314
291.5
291.686
291.873
292.058
292.242
292.425
292.605
292.782
292.957
293.128
293.296
293.46
293.621
293.777
293.929
294.077
294.221
294.36
294.496
294.627
294.754
294.877
294.996
295.111
295.222
295.33
295.433
295.533
295.63
295.723
295.813
295.9
295.983
296.064
296.142
296.217
296.289
296.358
296.426
296.49
296.553
296.613
296.671
296.727
296.781
296.833
296.883
296.931
296.977
297.022
297.065
297.106
297.146
297.184
297.22
297.256
297.289
297.322
297.353
297.383
297.412
297.439
297.466
297.491
297.515
297.538
297.561
297.582
297.602
297.621
297.64
297.658
297.674
297.69
297.706
297.72
297.734
297.746
297.759
297.77
297.781
297.791
297.8
297.809
297.817
297.825
297.832
297.838
297.844
297.849
297.854
297.858
297.862
297.865
297.868
297.87
297.871
297.873
297.874
297.874
297.875
297.875
297.875
297.875
297.875
297.875
297.875
297.875
297.875
297.875
297.875
297.877
297.88
297.884
297.89
297.896
297.903
297.91
297.917
297.925
297.932
297.94
297.948
297.957
297.966
297.974
297.984
297.993
298.003
298.012
298.022
298.032
298.042
298.052
298.063
298.073
298.083
298.094
298.104
298.115
298.125
298.135
298.145
298.156
298.166
298.175
298.185
298.195
298.204
298.213
298.222
298.23
298.238
298.247
298.254
298.262
298.268
298.273
298.276
298.277
298.278
298.277
298.277
298.277
298.277
298.277
298.278
298.282
298.282
298.283
298.285
298.287
298.29
298.293
298.296
298.3
298.304
298.308
298.312
298.316
298.32
298.325
298.33
298.334
298.339
298.344
298.349
298.354
298.359
298.364
298.369
298.375
298.38
298.386
298.392
298.398
298.403
298.41
298.416
298.423
298.429
298.436
298.443
298.45
298.457
298.465
298.472
298.48
298.488
298.497
298.505
298.514
298.523
298.532
298.541
298.551
298.561
298.572
298.581
298.593
298.603
298.615
298.626
298.639
298.651
298.664
298.677
298.691
298.704
298.719
298.732
298.748
298.762
298.779
298.793
298.811
298.826
298.844
298.86
298.879
298.896
298.916
298.933
298.954
298.971
298.992
299.01
299.031
299.05
299.071
299.089
299.11
299.127
299.148
299.164
299.184
299.199
299.218
299.232
299.25
299.263
299.28
299.292
299.307
299.316
299.33
299.337
299.348
299.353
299.361
299.364
299.37
299.373
299.377
299.379
299.381
299.381
299.381
299.38
299.379
299.378
299.376
299.373
299.371
299.368
299.366
299.363
299.361
299.356
299.354
299.351
299.348
299.344
299.341
299.337
299.335
299.332
299.33
299.326
299.323
299.321
299.32
299.318
299.318
299.316
299.314
299.309
299.304
299.299
299.292
299.284
299.278
299.266
299.258
299.245
299.237
299.225
299.219
299.207
299.199
299.181
299.165
299.147
299.133
299.114
299.102
299.085
299.072
299.056
299.038
299.026
299.115
299.177
299.184
299.122
299.137
299.195
299.2
299.148
299.157
299.204
299.263
299.24
299.232
299.224
299.257
299.262
299.266
299.293
299.29
299.285
299.304
299.307
299.309
299.309
299.313
299.274
299.222
299.174
299.179
299.221
299.242
299.198
299.206
299.242
299.288
299.297
299.262
299.224
299.233
299.263
299.277
299.247
299.252
299.277
299.303
299.306
299.287
299.262
299.265
299.286
299.296
299.275
299.279
299.297
299.311
299.315
299.306
299.29
299.294
299.308
299.314
299.302
299.306
299.315
299.318
299.322
299.319
299.311
299.314
299.32
299.324
299.319
299.321
299.325
299.326
299.33
299.329
299.324
299.325
299.33
299.333
299.328
299.328
299.334
299.335
299.341
299.338
299.331
299.332
299.339
299.345
299.337
299.339
299.347
299.348
299.357
299.353
299.345
299.348
299.356
299.362
299.353
299.355
299.364
299.366
299.373
299.37
299.361
299.363
299.371
299.377
299.368
299.37
299.379
299.38
299.387
299.384
299.374
299.376
299.385
299.389
299.38
299.382
299.39
299.392
299.397
299.395
299.386
299.387
299.395
299.399
299.391
299.392
299.4
299.402
299.404
299.403
299.395
299.395
299.403
299.405
299.398
299.397
299.405
299.405
299.405
299.406
299.399
299.397
299.403
299.405
299.398
299.394
299.4
299.401
299.395
299.4
299.394
299.388
299.394
299.392
299.386
299.379
299.384
299.384
299.37
299.381
299.376
299.365
299.369
299.365
299.361
299.347
299.35
299.351
299.326
299.343
299.34
299.324
299.325
299.316
299.315
299.297
299.296
299.296
299.262
299.285
299.285
299.266
299.263
299.25
299.253
299.233
299.228
299.224
299.185
299.213
299.218
299.197
299.19
299.174
299.182
299.16
299.151
299.143
299.1
299.134
299.143
299.121
299.11
299.092
299.103
299.08
299.068
299.056
299.013
299.05
299.062
299.039
299.026
299.007
299.02
298.998
298.984
298.97
298.927
298.965
298.979
298.958
298.943
298.924
298.939
298.918
298.903
298.887
298.847
298.884
298.9
298.88
298.864
298.846
298.862
298.843
298.827
298.809
298.773
298.81
298.826
298.808
298.791
298.775
298.792
298.774
298.757
298.739
298.706
298.741
298.759
298.742
298.725
298.71
298.728
298.712
298.694
298.675
298.646
298.68
298.697
298.682
298.665
298.651
298.669
298.655
298.637
298.618
298.591
298.624
298.642
298.628
298.611
298.598
298.616
298.603
298.586
298.566
298.543
298.574
298.592
298.58
298.562
298.551
298.569
298.558
298.54
298.521
298.5
298.529
298.547
298.537
298.519
298.509
298.527
298.517
298.5
298.481
298.462
298.49
298.508
298.498
298.481
298.471
298.489
298.48
298.463
298.445
298.429
298.454
298.472
298.463
298.447
298.438
298.455
298.447
298.431
298.413
298.399
298.423
298.44
298.432
298.416
298.408
298.425
298.418
298.402
298.386
298.374
298.395
298.411
298.405
298.389
298.382
298.398
298.392
298.377
298.362
298.351
298.37
298.385
298.38
298.365
298.359
298.373
298.368
298.354
298.341
298.332
298.349
298.362
298.357
298.344
298.339
298.352
298.347
298.334
298.323
298.315
298.329
298.341
298.337
298.325
298.321
298.332
298.328
298.317
298.308
298.301
298.313
298.323
298.319
298.309
298.306
298.315
298.311
298.302
298.296
298.291
298.299
298.307
298.304
298.296
298.293
298.3
298.297
298.291
298.287
298.283
298.288
298.294
298.291
298.286
298.284
298.288
298.286
298.282
298.28
298.279
298.281
298.284
298.282
298.279
298.278
298.28
298.279
298.278
298.277
298.277
298.277
298.278
298.278
298.277
298.277
298.277
298.278
298.28
298.282
298.285
298.288
298.292
298.297
298.302
298.308
298.315
298.323
298.331
298.34
298.35
298.361
298.372
298.385
298.398
298.412
298.428
298.444
298.462
298.48
298.5
298.522
298.544
298.568
298.594
298.621
298.65
298.68
298.713
298.747
298.783
298.82
298.86
298.901
298.943
298.987
299.032
299.077
299.123
299.168
299.211
299.252
299.289
299.321
299.348
299.367
299.381
299.39
299.395
299.397
299.397
299.395
299.392
299.388