/*--------------------------------*- C++ -*----------------------------------*\
| =========                 |                                                 |
| \\      /  F ield         | OpenFOAM: The Open Source CFD Toolbox           |
|  \\    /   O peration     | Version:  v2006                                 |
|   \\  /    A nd           | Website:  www.openfoam.com                      |
|    \\/     M anipulation  |                                                 |
\*---------------------------------------------------------------------------*/
FoamFile
{
    version     2.0;
    format      ascii;
    class       volScalarField;
    location    "0.082";
    object      turbulenceProperties:L;
}
// * * * * * * * * * * * * * * * * * * * * * * * * * * * * * * * * * * * * * //

dimensions      [0 1 0 0 0 0 0];


internalField   nonuniform List<scalar> 
24416
(
2000
2000
2000
2000
2000
2000
2000
2000
2000
2000
1999.98
1999.92
1999.76
1999.49
1999.18
1998.86
1998.56
1998.3
1998.08
1997.89
1997.73
1997.59
1997.46
1997.34
1997.22
1997.12
1997.01
1996.92
1996.83
1996.74
1996.66
1996.58
1996.5
1996.42
1996.35
1996.27
1996.19
1996.11
1996.03
1995.94
1995.84
1995.73
1995.61
1995.46
1995.29
1995.07
1994.81
1994.46
1994.02
1993.45
1992.7
1991.7
1990.37
1988.59
1986.2
1982.98
1978.63
1972.76
1964.83
1954.13
1939.74
1920.44
1894.71
1860.68
1816.17
1758.78
1686.15
1596.37
1488.59
1363.6
1224.32
1075.8
924.659
777.948
641.879
520.868
417.153
330.981
261.142
205.592
161.974
127.989
101.615
81.249
65.9068
56.0357
60.2607
53.6449
49.3058
52.2612
68.1455
107.645
185.869
337.25
817.622
142.773
37.7329
13.6251
5.60171
2.40159
1.00461
0.713093
0.831682
0.317835
0.118016
0.0472644
0.0143705
0.00170421
0.000315542
2.14311e-05
2.07729e-05
0.000147947
0.000657013
0.000424937
0.000114767
2.02491e-05
1.99855e-05
0.000103551
0.000347538
0.000301992
9.59086e-05
1.996e-05
1.99434e-05
9.4124e-05
0.00027694
0.000255207
8.98383e-05
1.99956e-05
1.99263e-05
8.815e-05
0.000244226
0.000230954
8.43358e-05
1.97635e-05
1.96063e-05
8.34351e-05
0.000225036
0.000216155
8.23708e-05
1.95576e-05
1.95198e-05
8.20307e-05
0.000213326
0.000207374
8.11391e-05
1.94795e-05
1.94495e-05
8.08875e-05
0.000205587
0.000201035
8.01056e-05
1.94157e-05
1.93913e-05
7.99115e-05
0.000199807
0.000196027
7.92064e-05
1.93625e-05
1.93418e-05
7.90352e-05
0.000195104
0.00019181
7.83979e-05
1.93168e-05
1.92987e-05
7.8225e-05
0.000191063
0.00018814
7.76469e-05
1.92765e-05
1.92603e-05
7.74724e-05
0.000187517
0.000184873
7.69463e-05
1.92401e-05
1.92253e-05
7.67693e-05
0.000184344
0.000181922
7.62858e-05
1.92067e-05
1.91929e-05
7.61103e-05
0.000181469
0.000179229
7.56625e-05
1.91755e-05
1.91625e-05
7.54911e-05
0.000178838
0.000176751
7.50742e-05
1.9146e-05
1.91337e-05
7.49112e-05
0.000176413
0.000174457
7.45171e-05
1.9118e-05
1.91062e-05
7.4361e-05
0.000174164
0.00017232
7.39874e-05
1.9091e-05
1.90797e-05
7.38389e-05
0.000172066
0.000170323
7.34849e-05
1.9065e-05
1.9054e-05
7.33451e-05
0.000170104
0.000168452
7.30083e-05
1.90397e-05
1.9029e-05
7.28765e-05
0.000168265
0.000166694
7.25553e-05
1.90151e-05
1.90046e-05
7.24313e-05
0.000166534
0.000165038
7.21243e-05
1.8991e-05
1.89808e-05
7.20076e-05
0.000164903
0.000163474
7.17138e-05
1.89674e-05
1.89573e-05
7.16042e-05
0.000163362
0.000161994
7.13225e-05
1.89442e-05
1.89343e-05
7.12195e-05
0.000161902
0.000160591
7.0949e-05
1.89214e-05
1.89116e-05
7.08524e-05
0.000160519
0.000159261
7.05925e-05
1.88989e-05
1.88892e-05
7.05021e-05
0.000159206
0.000157998
7.02524e-05
1.88767e-05
1.88671e-05
7.01681e-05
0.000157961
0.000156795
6.99282e-05
1.88547e-05
1.88452e-05
6.98497e-05
0.000156776
0.000155648
6.96186e-05
1.88329e-05
1.88234e-05
6.95457e-05
0.000155646
0.000154555
6.93228e-05
1.88112e-05
1.88018e-05
6.9255e-05
0.000154569
0.000153511
6.90398e-05
1.87897e-05
1.87804e-05
6.8977e-05
0.000153538
0.000152512
6.87687e-05
1.87683e-05
1.8759e-05
6.87107e-05
0.000152552
0.000151553
6.85087e-05
1.8747e-05
1.87376e-05
6.8455e-05
0.000151605
0.000150633
6.82588e-05
1.87256e-05
1.87163e-05
6.82094e-05
0.000150695
0.000149748
6.80186e-05
1.87043e-05
1.8695e-05
6.79732e-05
0.000149821
0.000148899
6.77876e-05
1.86829e-05
1.86735e-05
6.77463e-05
0.00014898
0.00014808
6.75653e-05
1.86615e-05
1.8652e-05
6.75277e-05
0.00014817
0.00014729
6.7351e-05
1.86399e-05
1.86304e-05
6.73171e-05
0.000147389
0.000146528
6.7144e-05
1.86182e-05
1.86086e-05
6.71135e-05
0.000146633
0.00014579
6.69437e-05
1.85963e-05
1.85866e-05
6.69165e-05
0.000145902
0.000145077
6.67499e-05
1.85742e-05
1.85644e-05
6.67259e-05
0.000145195
0.000144385
6.6562e-05
1.85518e-05
1.85418e-05
6.65412e-05
0.000144508
0.000143712
6.63795e-05
1.85291e-05
1.8519e-05
6.63616e-05
0.00014384
0.000143058
6.62019e-05
1.8506e-05
1.84958e-05
6.61868e-05
0.000143189
0.00014242
6.60286e-05
1.84826e-05
1.84721e-05
6.60162e-05
0.000142555
0.000141797
6.58594e-05
1.84587e-05
1.8448e-05
6.58496e-05
0.000141936
0.000141189
6.56939e-05
1.84344e-05
1.84234e-05
6.56868e-05
0.000141332
0.000140595
6.55319e-05
1.84095e-05
1.83983e-05
6.55274e-05
0.000140741
0.000140014
6.53732e-05
1.8384e-05
1.83725e-05
6.53711e-05
0.000140162
0.000139445
6.52175e-05
1.83579e-05
1.83461e-05
6.52182e-05
0.000139598
0.000138889
6.5065e-05
1.83311e-05
1.83189e-05
6.50684e-05
0.000139045
0.000138342
6.49153e-05
1.83035e-05
1.8291e-05
6.4921e-05
0.000138502
0.000137806
6.47678e-05
1.82752e-05
1.82623e-05
6.47763e-05
0.000137973
0.000137282
6.46229e-05
1.8246e-05
1.82327e-05
6.4634e-05
0.000137455
0.000136768
6.44803e-05
1.82158e-05
1.82022e-05
6.44939e-05
0.000136946
0.000136261
6.43394e-05
1.81847e-05
1.81706e-05
6.43554e-05
0.000136444
0.000135762
6.41999e-05
1.81526e-05
1.81379e-05
6.42184e-05
0.000135948
0.000135268
6.40616e-05
1.81193e-05
1.81041e-05
6.40825e-05
0.000135459
0.00013478
6.39242e-05
1.80847e-05
1.80689e-05
6.39477e-05
0.000134975
0.000134297
6.37876e-05
1.80488e-05
1.80324e-05
6.38137e-05
0.000134496
0.000133819
6.36517e-05
1.80115e-05
1.79945e-05
6.36804e-05
0.000134022
0.000133345
6.35162e-05
1.79727e-05
1.79549e-05
6.35476e-05
0.000133552
0.000132875
6.33811e-05
1.79322e-05
1.79137e-05
6.34152e-05
0.000133086
0.000132407
6.3246e-05
1.789e-05
1.78706e-05
6.32827e-05
0.000132623
0.000131943
6.31108e-05
1.78458e-05
1.78256e-05
6.31498e-05
0.000132163
0.000131483
6.29765e-05
1.77997e-05
1.77785e-05
6.30169e-05
0.000131707
0.000131025
6.28422e-05
1.77513e-05
1.77291e-05
6.2884e-05
0.000131254
0.00013057
6.27079e-05
1.77007e-05
1.76774e-05
6.27512e-05
0.000130804
0.000130117
6.25733e-05
1.76476e-05
1.76231e-05
6.26182e-05
0.000130355
0.000129664
6.24384e-05
1.75918e-05
1.7566e-05
6.24848e-05
0.000129908
0.000129213
6.2303e-05
1.75331e-05
1.75061e-05
6.23509e-05
0.000129462
0.000128763
6.21667e-05
1.74714e-05
1.74429e-05
6.22161e-05
0.000129017
0.000128314
6.20297e-05
1.74064e-05
1.73763e-05
6.20808e-05
0.000128573
0.000127864
6.18915e-05
1.73378e-05
1.73061e-05
6.19444e-05
0.000128129
0.000127413
6.17517e-05
1.72654e-05
1.7232e-05
6.18063e-05
0.000127685
0.000126963
6.16103e-05
1.7189e-05
1.71536e-05
6.16667e-05
0.000127242
0.000126513
6.14674e-05
1.71081e-05
1.70707e-05
6.15261e-05
0.0001268
0.000126065
6.13237e-05
1.70225e-05
1.69829e-05
6.13849e-05
0.000126361
0.00012562
6.11794e-05
1.69318e-05
1.689e-05
6.12435e-05
0.000125925
0.000125177
6.1035e-05
1.68358e-05
1.67915e-05
6.11022e-05
0.000125494
0.000124739
6.08909e-05
1.67341e-05
1.66872e-05
6.09617e-05
0.000125068
0.000124305
6.07466e-05
1.66264e-05
1.65767e-05
6.08216e-05
0.000124648
0.000123877
6.06029e-05
1.65123e-05
1.64596e-05
6.06822e-05
0.000124229
0.000123455
6.04588e-05
1.63915e-05
1.63352e-05
6.05442e-05
0.000123821
0.000123043
6.0315e-05
1.62638e-05
1.62028e-05
6.04082e-05
0.000123425
0.000122643
6.01719e-05
1.61296e-05
1.60607e-05
6.02691e-05
0.000123037
0.000122242
6.00169e-05
1.59909e-05
1.59387e-05
6.00839e-05
0.000122631
0.000121812
5.98014e-05
1.58753e-05
1.58248e-05
5.98461e-05
0.000122175
0.000121336
5.95478e-05
1.57604e-05
1.5708e-05
5.9582e-05
0.000121674
0.000120821
5.92791e-05
1.56407e-05
1.55855e-05
5.93109e-05
0.000121142
0.000120284
5.90091e-05
1.5515e-05
1.54569e-05
5.90462e-05
0.0001206
0.000119744
5.87497e-05
1.5383e-05
1.53222e-05
5.87964e-05
0.000120067
0.00011922
5.85093e-05
1.52451e-05
1.51817e-05
5.85686e-05
0.000119561
0.000118731
5.82936e-05
1.51016e-05
1.5036e-05
5.83696e-05
0.000119102
0.000118295
5.81097e-05
1.49532e-05
1.48857e-05
5.82053e-05
0.000118707
0.000117931
5.7963e-05
1.48007e-05
1.47318e-05
5.80811e-05
0.000118395
0.000117653
5.78585e-05
1.4645e-05
1.45754e-05
5.80013e-05
0.000118179
0.000117477
5.77999e-05
1.44875e-05
1.44179e-05
5.79691e-05
0.000118073
0.000117414
5.779e-05
1.43296e-05
1.42606e-05
5.79867e-05
0.000118088
0.000117474
5.78304e-05
1.41728e-05
1.41052e-05
5.80548e-05
0.000118232
0.000117667
5.79222e-05
1.40186e-05
1.39534e-05
5.81734e-05
0.000118513
0.000117995
5.80622e-05
1.38688e-05
1.38067e-05
5.83404e-05
0.000118932
0.000118458
5.82462e-05
1.3725e-05
1.36665e-05
5.85489e-05
0.000119491
0.000119032
5.84692e-05
1.35883e-05
1.35341e-05
5.87908e-05
0.00012017
0.000119747
5.87233e-05
1.34599e-05
1.34102e-05
5.9059e-05
0.00012096
0.000120569
5.89999e-05
1.33405e-05
1.32956e-05
5.93456e-05
0.000121848
0.000121482
5.92893e-05
1.32305e-05
1.31905e-05
5.96387e-05
0.000122813
0.000122461
5.95783e-05
1.31301e-05
1.30947e-05
5.99259e-05
0.000123831
0.000123486
5.98586e-05
1.30389e-05
1.30079e-05
6.01978e-05
0.00012488
0.000124535
6.01206e-05
1.29565e-05
1.29295e-05
6.04455e-05
0.000125927
0.000125605
6.03556e-05
1.28822e-05
1.28588e-05
6.06623e-05
0.00012696
0.000126625
6.05574e-05
1.28153e-05
1.2795e-05
6.08413e-05
0.000127956
0.000127595
6.07162e-05
1.27549e-05
1.27368e-05
6.09731e-05
0.000128891
0.000128499
6.08225e-05
1.26996e-05
1.26829e-05
6.10551e-05
0.00012976
0.000129327
6.08805e-05
1.26483e-05
1.26328e-05
6.10843e-05
0.000130533
0.00013005
6.08842e-05
1.26e-05
1.2585e-05
6.10552e-05
0.000131183
0.000130645
6.08259e-05
1.2553e-05
1.25377e-05
6.09584e-05
0.000131686
0.000131077
6.06814e-05
1.25039e-05
1.24897e-05
6.08706e-05
0.000132145
0.000130938
6.02711e-05
1.24453e-05
1.24357e-05
6.05197e-05
0.000132062
0.00013102
6.00538e-05
1.24062e-05
1.23745e-05
5.99592e-05
0.000131638
0.000130412
5.94146e-05
1.23796e-05
1.22792e-05
5.8969e-05
0.000130165
0.000130778
5.91938e-05
1.23898e-05
1.27426e-05
6.14966e-05
0.000135295
0.000140019
6.31097e-05
1.33048e-05
0.000322734
0.000547742
0.000786519
0.00104553
0.00124277
0.00151488
0.0017492
0.0019995
0.00222948
0.00246969
0.0026992
0.00293524
0.00316421
0.00339672
0.00362342
0.00385105
0.00407271
0.00429253
0.00450499
0.00471223
0.00490936
0.00509694
0.00527023
0.0054286
0.00556726
0.0056844
0.00577553
0.00583767
0.0058674
0.00586113
0.00581507
0.0057269
0.00559405
0.00541499
0.00519024
0.00491933
0.00460701
0.00425341
0.00387018
0.00345615
0.00303373
0.00259753
0.002179
0.00175928
0.00146494
0.00107595
0.000781113
0.000508709
0.000267647
0.000102732
3.99342e-05
7.78186e-06
6.92023e-06
3.47033e-05
8.97429e-05
8.19435e-05
3.11479e-05
6.07543e-06
5.38167e-06
2.76145e-05
7.26836e-05
6.93029e-05
2.62774e-05
5.04536e-06
4.87369e-06
2.58614e-05
6.88273e-05
6.61091e-05
2.50552e-05
4.79131e-06
4.76234e-06
2.53491e-05
6.76097e-05
6.65503e-05
2.49585e-05
4.76501e-06
4.77495e-06
2.56085e-05
6.82873e-05
6.69462e-05
2.50071e-05
4.76103e-06
4.7842e-06
2.57336e-05
6.86208e-05
6.77559e-05
2.53211e-05
4.79207e-06
4.81663e-06
2.61275e-05
6.95381e-05
6.82498e-05
2.55255e-05
4.80402e-06
4.83059e-06
2.62871e-05
7.00208e-05
6.92051e-05
2.58688e-05
4.83976e-06
4.87301e-06
2.67206e-05
7.1046e-05
6.97446e-05
2.61045e-05
4.84936e-06
4.8848e-06
2.69165e-05
7.16e-05
7.07872e-05
2.64896e-05
4.89476e-06
4.93022e-06
2.73863e-05
7.26916e-05
7.1365e-05
2.67543e-05
4.90686e-06
4.94469e-06
2.76108e-05
7.32986e-05
7.24769e-05
2.71729e-05
4.95533e-06
4.99286e-06
2.81141e-05
7.44438e-05
7.30856e-05
2.7463e-05
4.96958e-06
5.00975e-06
2.83629e-05
7.50882e-05
7.42471e-05
2.79108e-05
5.02094e-06
5.0607e-06
2.88954e-05
7.62652e-05
7.48608e-05
2.82222e-05
5.03745e-06
5.08035e-06
2.91667e-05
7.69295e-05
7.60635e-05
2.86981e-05
5.09221e-06
5.13466e-06
2.97273e-05
7.81399e-05
7.66695e-05
2.90287e-05
5.11158e-06
5.15789e-06
3.00203e-05
7.88229e-05
7.79118e-05
2.95316e-05
5.17069e-06
5.21636e-06
3.06024e-05
8.00621e-05
7.84797e-05
2.98687e-05
5.19363e-06
5.24412e-06
3.08962e-05
8.07309e-05
7.96946e-05
3.03653e-05
5.25837e-06
5.30254e-06
3.14476e-05
8.1905e-05
8.01258e-05
3.06334e-05
5.29419e-06
5.34791e-06
3.16609e-05
8.24725e-05
8.13604e-05
3.1051e-05
5.36872e-06
5.43285e-06
3.22092e-05
8.38189e-05
8.25603e-05
3.13815e-05
5.43609e-06
5.49238e-06
3.28435e-05
8.58096e-05
8.50282e-05
3.24197e-05
5.51286e-06
5.59655e-06
3.43973e-05
8.89501e-05
8.7399e-05
3.37101e-05
5.66795e-06
5.8243e-06
3.54366e-05
9.03915e-05
8.91299e-05
3.48715e-05
5.9735e-06
6.25868e-06
3.57904e-05
9.06451e-05
8.82193e-05
3.51674e-05
6.65228e-06
7.61133e-06
3.69864e-05
8.93957e-05
8.62634e-05
4.08464e-05
5.48087e-06
2.65703e-06
1.06247e-05
3.4142e-05
7.47629e-05
2.86748e-05
4.09057e-06
4.80099e-06
2.69871e-05
7.2698e-05
8.47447e-05
3.02671e-05
5.57411e-06
6.46652e-06
3.42682e-05
9.71483e-05
0.000158742
4.29104e-05
1.36593e-05
2.20577e-05
0.00010324
0.000226517
0.000254528
0.000109182
2.67743e-05
3.06207e-05
0.000147832
0.000318005
0.000313977
0.000150937
3.10125e-05
3.24428e-05
0.000139549
0.000271559
0.000323054
0.000162078
3.66228e-05
4.30891e-05
0.000188845
0.000368034
0.000417291
0.000218372
4.91184e-05
5.73826e-05
0.000255876
0.000503183
0.000634489
0.000304228
6.44263e-05
7.28268e-05
0.000388902
0.000776924
0.000868524
0.000474461
7.87551e-05
9.36499e-05
0.000633364
0.00111258
0.0013522
0.000796795
0.00010773
0.000124217
0.000943562
0.00143643
0.00151901
0.00109509
0.000137887
0.000163326
0.00123802
0.00173925
0.00192572
0.00142944
0.00018239
0.000206805
0.00156459
0.00204376
0.00225978
0.0016646
0.000222793
0.00022643
0.00155342
0.0021669
0.00209062
0.00154415
0.000213085
0.00019037
0.000851771
0.002028
0.000712619
0.000290564
0.000163336
0.000130223
0.000167801
0.000246817
0.000214509
0.000140388
0.000113133
9.14965e-05
0.000110825
0.000166253
0.00011266
9.05927e-05
7.71672e-05
6.31253e-05
7.57328e-05
0.000107103
9.53898e-05
6.61476e-05
5.47422e-05
4.39147e-05
5.23089e-05
6.97918e-05
7.03439e-05
4.80761e-05
3.85101e-05
3.28971e-05
4.37502e-05
6.61004e-05
5.04237e-05
3.6207e-05
2.73371e-05
2.34163e-05
3.43998e-05
5.46089e-05
5.07386e-05
3.30603e-05
1.95079e-05
1.07262e-05
1.74931e-05
3.25092e-05
3.7002e-05
1.90945e-05
5.94221e-06
7.02991e-06
1.74637e-05
3.32086e-05
1.76981e-05
8.04733e-06
3.85376e-06
5.24113e-06
1.93248e-05
2.82477e-05
2.76403e-05
1.77486e-05
6.33124e-06
3.57389e-06
8.14134e-06
1.59493e-05
2.63723e-05
1.79005e-05
4.8376e-06
6.07238e-06
1.68347e-05
2.59651e-05
1.4896e-05
7.23018e-06
3.47054e-06
4.72925e-06
1.71536e-05
2.55464e-05
2.49164e-05
1.57424e-05
5.91897e-06
3.49426e-06
7.04895e-06
1.37051e-05
2.37246e-05
1.56152e-05
4.38742e-06
5.55446e-06
1.45415e-05
2.3392e-05
1.20999e-05
6.10375e-06
3.22502e-06
3.79351e-06
1.80406e-05
2.19878e-05
1.41712e-05
7.69556e-06
4.46694e-06
5.51094e-06
1.72301e-05
2.69106e-05
2.57536e-05
1.57338e-05
6.79341e-06
4.05855e-06
7.22708e-06
1.35906e-05
2.6693e-05
1.70493e-05
4.98642e-06
6.35482e-06
1.53318e-05
2.58046e-05
1.32811e-05
7.00502e-06
3.90426e-06
4.82558e-06
1.66126e-05
2.61917e-05
2.52646e-05
1.50969e-05
6.03947e-06
3.60607e-06
6.22538e-06
1.22675e-05
2.19953e-05
1.84376e-05
4.0327e-06
4.67321e-06
7.79348e-06
1.37744e-05
2.6328e-05
1.64461e-05
5.48771e-06
6.63103e-06
1.47867e-05
2.48676e-05
1.21421e-05
6.46841e-06
3.84862e-06
4.2126e-06
1.80812e-05
2.14678e-05
1.37478e-05
8.02171e-06
4.95606e-06
5.86386e-06
1.63141e-05
2.53355e-05
2.41931e-05
1.48589e-05
7.12973e-06
4.2341e-06
7.04657e-06
1.28372e-05
2.31081e-05
1.54383e-05
4.9637e-06
6.18871e-06
1.36259e-05
2.22919e-05
1.11654e-05
5.97586e-06
3.55548e-06
3.95904e-06
1.61017e-05
1.88084e-05
1.2025e-05
7.53251e-06
4.52543e-06
4.74447e-06
1.68038e-05
2.14908e-05
1.36538e-05
8.28962e-06
5.40551e-06
5.99031e-06
1.55543e-05
2.45846e-05
2.27429e-05
1.35214e-05
7.0466e-06
4.15395e-06
6.81268e-06
1.1624e-05
1.99867e-05
1.57624e-05
4.46354e-06
5.11988e-06
8.07526e-06
1.29512e-05
2.34358e-05
1.53785e-05
5.7227e-06
6.796e-06
1.34952e-05
2.16603e-05
1.11445e-05
6.66342e-06
3.98155e-06
4.24839e-06
1.50802e-05
1.84135e-05
1.20448e-05
7.7069e-06
4.80146e-06
4.93542e-06
1.56139e-05
2.02869e-05
1.31522e-05
8.14635e-06
5.57378e-06
6.15089e-06
1.50172e-05
2.33352e-05
2.13534e-05
1.31468e-05
7.29575e-06
4.14316e-06
6.57651e-06
1.12243e-05
1.77496e-05
1.51122e-05
4.40931e-06
5.06913e-06
8.06904e-06
1.18952e-05
2.00577e-05
1.5684e-05
5.12187e-06
5.73973e-06
8.49078e-06
1.3113e-05
2.29579e-05
1.46935e-05
6.24145e-06
7.19987e-06
1.28157e-05
2.08936e-05
1.08933e-05
6.85992e-06
4.17585e-06
4.3603e-06
1.49207e-05
1.71952e-05
1.15511e-05
7.77089e-06
4.93331e-06
5.05382e-06
1.45912e-05
1.90154e-05
1.25584e-05
8.08494e-06
5.70589e-06
6.23132e-06
1.41178e-05
2.17103e-05
1.98975e-05
1.25464e-05
7.26257e-06
4.23277e-06
6.87739e-06
1.06242e-05
1.67742e-05
1.44683e-05
4.40008e-06
4.97631e-06
7.71654e-06
1.13036e-05
1.82466e-05
1.41643e-05
5.08706e-06
5.57887e-06
8.19594e-06
1.22406e-05
1.94323e-05
1.47898e-05
5.48909e-06
6.04147e-06
8.58281e-06
1.29906e-05
2.1975e-05
1.43386e-05
6.51313e-06
7.51065e-06
1.24497e-05
1.98774e-05
1.06344e-05
6.95413e-06
4.33304e-06
4.52134e-06
1.44168e-05
1.6293e-05
1.12743e-05
8.17292e-06
5.18036e-06
5.11552e-06
1.41848e-05
1.78451e-05
1.19633e-05
8.23177e-06
5.5237e-06
5.30429e-06
1.40793e-05
1.84043e-05
1.23748e-05
8.44308e-06
5.75386e-06
5.69621e-06
1.47085e-05
1.90249e-05
1.29373e-05
8.89379e-06
6.24304e-06
6.72582e-06
1.42542e-05
2.15174e-05
1.96555e-05
1.2737e-05
7.78144e-06
4.51428e-06
7.10516e-06
1.08424e-05
1.67193e-05
1.40881e-05
4.66521e-06
5.32593e-06
8.11968e-06
1.15302e-05
1.79385e-05
1.41134e-05
5.39727e-06
5.82966e-06
8.47273e-06
1.23025e-05
1.86355e-05
1.44728e-05
5.6486e-06
6.06763e-06
8.78692e-06
1.27579e-05
1.92941e-05
1.49655e-05
6.00981e-06
6.50056e-06
9.23976e-06
1.3181e-05
2.15097e-05
1.43652e-05
6.87824e-06
7.90455e-06
1.27134e-05
1.95251e-05
1.08976e-05
7.4507e-06
4.65637e-06
4.8885e-06
1.44974e-05
1.62882e-05
1.15256e-05
8.4591e-06
5.52678e-06
5.38001e-06
1.41546e-05
1.74967e-05
1.19911e-05
8.44723e-06
5.78677e-06
5.63274e-06
1.37824e-05
1.77959e-05
1.2397e-05
8.76414e-06
6.12714e-06
6.07325e-06
1.44393e-05
1.83624e-05
1.27752e-05
9.24768e-06
6.54983e-06
6.95402e-06
1.4017e-05
2.06505e-05
1.89292e-05
1.25857e-05
8.00777e-06
4.74487e-06
7.47005e-06
1.0773e-05
1.60235e-05
1.42652e-05
4.92376e-06
5.49929e-06
8.4155e-06
1.14099e-05
1.7235e-05
1.39945e-05
5.50704e-06
5.95498e-06
8.61714e-06
1.20423e-05
1.774e-05
1.39803e-05
5.85125e-06
6.25789e-06
8.92936e-06
1.24135e-05
1.83551e-05
1.45483e-05
6.20944e-06
6.68261e-06
9.43115e-06
1.28423e-05
2.04599e-05
1.40017e-05
7.05567e-06
8.05008e-06
1.25143e-05
1.86789e-05
1.07531e-05
7.33502e-06
4.68723e-06
4.93206e-06
1.38811e-05
1.6064e-05
1.13449e-05
8.16157e-06
5.46814e-06
5.54616e-06
1.35077e-05
1.68248e-05
1.19415e-05
8.50346e-06
6.03129e-06
5.87459e-06
1.37855e-05
1.71997e-05
1.21855e-05
8.75251e-06
6.22809e-06
6.18202e-06
1.40294e-05
1.76629e-05
1.25354e-05
9.3013e-06
6.73181e-06
7.10569e-06
1.3664e-05
1.98486e-05
1.82791e-05
1.24432e-05
8.15348e-06
4.911e-06
7.61425e-06
1.0699e-05
1.57462e-05
1.40332e-05
5.02668e-06
5.67443e-06
8.41531e-06
1.12853e-05
1.68267e-05
1.36063e-05
5.65362e-06
6.12894e-06
8.65497e-06
1.18806e-05
1.73e-05
1.3748e-05
6.07221e-06
6.50449e-06
9.04087e-06
1.22989e-05
1.78907e-05
1.44016e-05
6.36093e-06
6.91629e-06
9.56244e-06
1.27945e-05
2.00186e-05
1.38727e-05
7.3271e-06
8.33076e-06
1.2529e-05
1.83668e-05
1.08283e-05
7.76255e-06
4.99819e-06
5.18822e-06
1.40936e-05
1.58799e-05
1.15018e-05
8.59694e-06
5.74714e-06
5.86014e-06
1.39453e-05
1.68832e-05
1.2076e-05
8.88923e-06
6.33111e-06
6.2172e-06
1.39408e-05
1.74199e-05
1.24729e-05
9.40782e-06
6.83761e-06
7.24859e-06
1.35572e-05
1.94471e-05
1.79297e-05
1.24494e-05
8.28874e-06
5.11338e-06
7.79159e-06
1.08396e-05
1.59152e-05
1.39338e-05
5.30568e-06
5.90921e-06
8.74528e-06
1.16128e-05
1.70573e-05
1.40406e-05
6.08993e-06
6.53216e-06
9.15549e-06
1.22871e-05
1.77141e-05
1.43072e-05
6.45101e-06
7.00824e-06
9.61902e-06
1.27484e-05
1.97817e-05
1.38185e-05
7.56641e-06
8.62401e-06
1.26222e-05
1.8264e-05
1.10291e-05
7.85192e-06
5.16811e-06
5.46482e-06
1.41358e-05
1.59916e-05
1.17873e-05
8.86039e-06
6.05222e-06
6.19541e-06
1.43491e-05
1.72082e-05
1.23819e-05
9.37448e-06
6.76717e-06
7.42076e-06
1.34731e-05
1.91955e-05
1.78899e-05
1.2411e-05
8.51633e-06
5.21774e-06
7.91111e-06
1.08839e-05
1.58558e-05
1.3955e-05
5.44267e-06
6.05933e-06
8.89989e-06
1.16635e-05
1.71647e-05
1.42667e-05
6.24924e-06
6.90608e-06
9.52775e-06
1.24251e-05
1.92501e-05
1.35413e-05
7.43834e-06
8.48976e-06
1.24374e-05
1.78606e-05
1.09324e-05
7.89444e-06
5.2086e-06
5.53618e-06
1.39232e-05
1.57994e-05
1.173e-05
8.91151e-06
6.12328e-06
6.30243e-06
1.42269e-05
1.70547e-05
1.23924e-05
9.51929e-06
6.88823e-06
7.54325e-06
1.35383e-05
1.92303e-05
1.79622e-05
1.25959e-05
8.7767e-06
5.49157e-06
8.16322e-06
1.11985e-05
1.61921e-05
1.39417e-05
5.83299e-06
6.61451e-06
9.38642e-06
1.20222e-05
1.87971e-05
1.3679e-05
7.34961e-06
8.45785e-06
1.27873e-05
1.76892e-05
1.09764e-05
7.89665e-06
5.26152e-06
5.71141e-06
1.36232e-05
1.58445e-05
1.17646e-05
9.20081e-06
6.53347e-06
7.39678e-06
1.35391e-05
1.84074e-05
1.73935e-05
1.26873e-05
8.6139e-06
5.39342e-06
8.17195e-06
1.10665e-05
1.59324e-05
1.41139e-05
5.77488e-06
6.5965e-06
9.37482e-06
1.18681e-05
1.85084e-05
1.33492e-05
7.44768e-06
8.68671e-06
1.2603e-05
1.75279e-05
1.11252e-05
8.10557e-06
5.43536e-06
5.9735e-06
1.38769e-05
1.59962e-05
1.20547e-05
9.65416e-06
6.78776e-06
7.74408e-06
1.37828e-05
1.90133e-05
1.80983e-05
1.31721e-05
9.23078e-06
6.23458e-06
8.99731e-06
1.18495e-05
1.82378e-05
1.40916e-05
7.21424e-06
8.69317e-06
1.35859e-05
1.76684e-05
1.15993e-05
8.64821e-06
5.81564e-06
6.95674e-06
1.37043e-05
1.79642e-05
1.74906e-05
1.32156e-05
8.56888e-06
5.85357e-06
8.66705e-06
1.15191e-05
1.76905e-05
1.36448e-05
6.99663e-06
8.35327e-06
1.30983e-05
1.72764e-05
1.11926e-05
8.52739e-06
5.75862e-06
6.92759e-06
1.336e-05
1.73945e-05
1.70085e-05
1.28522e-05
8.498e-06
5.91268e-06
8.70102e-06
1.13361e-05
1.75016e-05
1.34928e-05
6.98086e-06
8.49193e-06
1.30351e-05
1.70946e-05
1.13315e-05
8.69494e-06
6.0111e-06
7.36984e-06
1.35715e-05
1.77364e-05
1.74752e-05
1.32747e-05
8.9578e-06
6.33954e-06
9.19613e-06
1.18092e-05
1.85542e-05
1.42244e-05
7.95875e-06
1.02908e-05
1.43781e-05
1.80686e-05
1.72025e-05
1.35122e-05
8.2391e-06
5.98015e-06
8.77384e-06
1.16256e-05
1.84494e-05
1.38898e-05
7.78313e-06
1.03252e-05
1.39789e-05
1.81256e-05
1.79115e-05
1.36571e-05
9.17252e-06
8.50722e-06
1.2378e-05
1.68917e-05
1.7436e-05
1.24345e-05
8.04341e-06
7.80049e-06
1.11508e-05
1.62947e-05
1.69529e-05
1.11399e-05
7.12386e-06
5.73365e-06
7.84399e-06
1.07889e-05
1.75927e-05
1.29462e-05
8.16122e-06
1.11704e-05
1.31858e-05
1.75735e-05
1.75281e-05
1.36679e-05
1.10951e-05
1.10421e-05
1.40464e-05
1.77652e-05
1.804e-05
1.44331e-05
1.10722e-05
1.10636e-05
1.49121e-05
1.83948e-05
1.87488e-05
1.53538e-05
1.1017e-05
1.09939e-05
1.58532e-05
1.91643e-05
1.96023e-05
1.62903e-05
1.09364e-05
1.08697e-05
1.67529e-05
2.00397e-05
2.05286e-05
1.71654e-05
1.07975e-05
1.07217e-05
1.76126e-05
2.09892e-05
2.15479e-05
1.8005e-05
1.06435e-05
1.05642e-05
1.83878e-05
2.20341e-05
2.2629e-05
1.87037e-05
1.04846e-05
1.04052e-05
1.8975e-05
2.326e-05
2.39979e-05
1.91872e-05
1.03266e-05
1.02492e-05
1.93972e-05
2.47062e-05
2.54097e-05
1.96098e-05
1.0174e-05
1.01011e-05
1.98286e-05
2.60799e-05
2.67514e-05
2.00544e-05
1.00315e-05
9.96528e-06
2.02906e-05
2.73958e-05
2.80457e-05
2.05349e-05
9.90313e-06
9.84499e-06
2.07926e-05
2.86723e-05
2.93056e-05
2.10571e-05
9.79135e-06
9.74201e-06
2.13376e-05
2.99182e-05
3.05166e-05
2.16234e-05
9.69731e-06
9.65691e-06
2.19229e-05
3.10953e-05
3.16622e-05
2.22253e-05
9.62097e-06
9.58905e-06
2.25419e-05
3.22169e-05
3.27635e-05
2.28586e-05
9.56115e-06
9.53673e-06
2.31861e-05
3.32967e-05
3.38229e-05
2.35102e-05
9.51568e-06
9.4976e-06
2.38446e-05
3.43407e-05
3.48535e-05
2.417e-05
9.48214e-06
9.46899e-06
2.45052e-05
3.53549e-05
3.58516e-05
2.48277e-05
9.45789e-06
9.44856e-06
2.51565e-05
3.63395e-05
3.68227e-05
2.54691e-05
9.44065e-06
9.434e-06
2.57857e-05
3.72941e-05
3.77593e-05
2.60822e-05
9.42825e-06
9.42343e-06
2.63836e-05
3.8215e-05
3.86634e-05
2.66616e-05
9.41909e-06
9.41536e-06
2.69426e-05
3.91002e-05
3.95279e-05
2.71975e-05
9.41179e-06
9.40869e-06
2.74575e-05
3.9947e-05
4.03548e-05
2.76895e-05
9.40555e-06
9.4027e-06
2.79256e-05
4.07524e-05
4.11355e-05
2.81327e-05
9.39965e-06
9.3969e-06
2.83457e-05
4.15146e-05
4.18755e-05
2.85306e-05
9.39379e-06
9.39102e-06
2.8719e-05
4.22377e-05
4.25751e-05
2.88831e-05
9.38764e-06
9.38505e-06
2.90482e-05
4.29219e-05
4.32432e-05
2.91945e-05
9.3815e-06
9.37898e-06
2.93382e-05
4.35752e-05
4.38844e-05
2.94663e-05
9.37549e-06
9.37304e-06
2.95926e-05
4.41987e-05
4.44985e-05
2.97052e-05
9.36958e-06
9.36723e-06
2.98173e-05
4.47991e-05
4.50892e-05
2.9916e-05
9.36378e-06
9.3616e-06
3.00167e-05
4.53806e-05
4.56608e-05
3.01041e-05
9.35832e-06
9.35639e-06
3.01956e-05
4.59463e-05
4.62171e-05
3.02727e-05
9.35326e-06
9.35163e-06
3.0357e-05
4.64978e-05
4.67627e-05
3.04262e-05
9.34884e-06
9.34759e-06
3.05054e-05
4.70398e-05
4.72982e-05
3.05674e-05
9.3451e-06
9.34423e-06
3.06431e-05
4.7573e-05
4.78261e-05
3.07008e-05
9.3422e-06
9.34184e-06
3.07744e-05
4.81e-05
4.83462e-05
3.0827e-05
9.3402e-06
9.34031e-06
3.08993e-05
4.8621e-05
4.88614e-05
3.09482e-05
9.33927e-06
9.33968e-06
3.10196e-05
4.91362e-05
4.93681e-05
3.1064e-05
9.33919e-06
9.33993e-06
3.11339e-05
4.9644e-05
4.98684e-05
3.11757e-05
9.34011e-06
9.34113e-06
3.12415e-05
5.01337e-05
5.03438e-05
3.12779e-05
9.34192e-06
9.34321e-06
3.13392e-05
5.05995e-05
5.07991e-05
3.13723e-05
9.34443e-06
9.34595e-06
3.14296e-05
5.10463e-05
5.12357e-05
3.1459e-05
9.34735e-06
9.34924e-06
3.15125e-05
5.14745e-05
5.16582e-05
3.15397e-05
9.35084e-06
9.35307e-06
3.15903e-05
5.18879e-05
5.20652e-05
3.16149e-05
9.35481e-06
9.35731e-06
3.16622e-05
5.22862e-05
5.24595e-05
3.16862e-05
9.35923e-06
9.36205e-06
3.1731e-05
5.2673e-05
5.28421e-05
3.17531e-05
9.3641e-06
9.36717e-06
3.17952e-05
5.30481e-05
5.32145e-05
3.18173e-05
9.3694e-06
9.37277e-06
3.18579e-05
5.34136e-05
5.35761e-05
3.18787e-05
9.37518e-06
9.37874e-06
3.19172e-05
5.3768e-05
5.39278e-05
3.19385e-05
9.38146e-06
9.38523e-06
3.19761e-05
5.41132e-05
5.42686e-05
3.19963e-05
9.38818e-06
9.3921e-06
3.20322e-05
5.44471e-05
5.45996e-05
3.20529e-05
9.39536e-06
9.39947e-06
3.20879e-05
5.47719e-05
5.49195e-05
3.21074e-05
9.40295e-06
9.40717e-06
3.21405e-05
5.50851e-05
5.52292e-05
3.21606e-05
9.41091e-06
9.41528e-06
3.21925e-05
5.53888e-05
5.55276e-05
3.22113e-05
9.41918e-06
9.42364e-06
3.22413e-05
5.5681e-05
5.58157e-05
3.22605e-05
9.42773e-06
9.43231e-06
3.22893e-05
5.59638e-05
5.6091e-05
3.23076e-05
9.4365e-06
9.44117e-06
3.23341e-05
5.62335e-05
5.63586e-05
3.23519e-05
9.44546e-06
9.45022e-06
3.23778e-05
5.64936e-05
5.66116e-05
3.23935e-05
9.45453e-06
9.45934e-06
3.24179e-05
5.67426e-05
5.68588e-05
3.24329e-05
9.46372e-06
9.46856e-06
3.24564e-05
5.69824e-05
5.70932e-05
3.24695e-05
9.47294e-06
9.47778e-06
3.24917e-05
5.72114e-05
5.73177e-05
3.25038e-05
9.48218e-06
9.48703e-06
3.25249e-05
5.7431e-05
5.75313e-05
3.25352e-05
9.49141e-06
9.49622e-06
3.25547e-05
5.76395e-05
5.7735e-05
3.25643e-05
9.50059e-06
9.50537e-06
3.25821e-05
5.7839e-05
5.79272e-05
3.2591e-05
9.50969e-06
9.51442e-06
3.26066e-05
5.80272e-05
5.81124e-05
3.26142e-05
9.51871e-06
9.52337e-06
3.26285e-05
5.82061e-05
5.8285e-05
3.26355e-05
9.52758e-06
9.53219e-06
3.26477e-05
5.83743e-05
5.84508e-05
3.26532e-05
9.53634e-06
9.54087e-06
3.26645e-05
5.85329e-05
5.86048e-05
3.26688e-05
9.54494e-06
9.54936e-06
3.26782e-05
5.86824e-05
5.87495e-05
3.26818e-05
9.55337e-06
9.55772e-06
3.26894e-05
5.88234e-05
5.88846e-05
3.26918e-05
9.56164e-06
9.56587e-06
3.26983e-05
5.89549e-05
5.90107e-05
3.26998e-05
9.56972e-06
9.57386e-06
3.27051e-05
5.90791e-05
5.91272e-05
3.27053e-05
9.57759e-06
9.58164e-06
3.27096e-05
5.9193e-05
5.92386e-05
3.27082e-05
9.58529e-06
9.58923e-06
3.27117e-05
5.92997e-05
5.9339e-05
3.27092e-05
9.59277e-06
9.59661e-06
3.27118e-05
5.93976e-05
5.94347e-05
3.27079e-05
9.60007e-06
9.6038e-06
3.27099e-05
5.94887e-05
5.95208e-05
3.27047e-05
9.60715e-06
9.61077e-06
3.27062e-05
5.95707e-05
5.96002e-05
3.27001e-05
9.61405e-06
9.61757e-06
3.27005e-05
5.96484e-05
5.9672e-05
3.26931e-05
9.62074e-06
9.62415e-06
3.26929e-05
5.97193e-05
5.97358e-05
3.26848e-05
9.62724e-06
9.63056e-06
3.26837e-05
5.97867e-05
5.97991e-05
3.26749e-05
9.63353e-06
9.63674e-06
3.26734e-05
5.98388e-05
5.98554e-05
3.26638e-05
9.63965e-06
9.64276e-06
3.26618e-05
5.98898e-05
5.99035e-05
3.26511e-05
9.64557e-06
9.64858e-06
3.26486e-05
5.99357e-05
5.9946e-05
3.26375e-05
9.65132e-06
9.65425e-06
3.26344e-05
5.99775e-05
5.99829e-05
3.26228e-05
9.65688e-06
9.65972e-06
3.2619e-05
6.00123e-05
6.00183e-05
3.26071e-05
9.66229e-06
9.66504e-06
3.26029e-05
6.00426e-05
6.00467e-05
3.25902e-05
9.66753e-06
9.67018e-06
3.25855e-05
6.00687e-05
6.00707e-05
3.25727e-05
9.6726e-06
9.67517e-06
3.25678e-05
6.00911e-05
6.00905e-05
3.25541e-05
9.67752e-06
9.68e-06
3.25491e-05
6.01087e-05
6.01064e-05
3.25328e-05
9.68228e-06
9.68467e-06
3.25336e-05
6.0122e-05
6.01186e-05
3.25115e-05
9.68691e-06
9.68924e-06
3.25079e-05
6.01338e-05
6.01246e-05
3.24929e-05
9.69139e-06
9.69364e-06
3.24907e-05
6.01419e-05
6.01277e-05
3.24751e-05
9.69564e-06
9.69783e-06
3.24681e-05
6.01454e-05
6.01314e-05
3.24532e-05
9.6998e-06
9.70194e-06
3.24465e-05
6.01471e-05
6.01295e-05
3.24316e-05
9.70385e-06
9.70592e-06
3.24246e-05
6.0145e-05
6.01279e-05
3.24096e-05
9.70779e-06
9.7098e-06
3.24026e-05
6.01414e-05
6.012e-05
3.23876e-05
9.7116e-06
9.71355e-06
3.23802e-05
6.01338e-05
6.01146e-05
3.23652e-05
9.71531e-06
9.7172e-06
3.23579e-05
6.01258e-05
6.01007e-05
3.23429e-05
9.71889e-06
9.72072e-06
3.23351e-05
6.0113e-05
6.00923e-05
3.23202e-05
9.72237e-06
9.72415e-06
3.23125e-05