/*--------------------------------*- C++ -*----------------------------------*\
| =========                 |                                                 |
| \\      /  F ield         | OpenFOAM: The Open Source CFD Toolbox           |
|  \\    /   O peration     | Version:  v2006                                 |
|   \\  /    A nd           | Website:  www.openfoam.com                      |
|    \\/     M anipulation  |                                                 |
\*---------------------------------------------------------------------------*/
FoamFile
{
    version     2.0;
    format      ascii;
    class       volScalarField;
    location    "0.077";
    object      isentropic(p);
}
// * * * * * * * * * * * * * * * * * * * * * * * * * * * * * * * * * * * * * //

dimensions      [1 -1 -2 0 0 0 0];


internalField   nonuniform List<scalar> 
16277
(
150008
150014
150017
150003
150012
150010
150011
150012
150013
150013
150013
150012
150012
150011
150011
150011
150010
150010
150010
150010
150010
150010
150010
150009
150009
150009
150009
150009
150009
150009
150009
150009
150008
150008
150008
150008
150008
150008
150008
150008
150007
150007
150007
150007
150007
150007
150007
150007
150006
150006
150006
150006
150006
150006
150006
150006
150005
150005
150005
150005
150005
150005
150005
150005
150005
150004
150004
150004
150004
150004
150004
150004
150004
150004
150004
150003
150003
150003
150003
150002
150002
150001
150001
150000
150001
150003
150004
150005
150004
150006
150005
150007
150008
150011
150017
150015
149976
149936
150011
150022
150021
150002
149897
149860
149993
150018
150013
149981
149826
149796
149971
150008
150002
149959
149768
149744
149949
149997
149991
149938
149721
149703
149929
149986
149979
149919
149684
149669
149911
149975
149968
149901
149653
149640
149893
149964
149958
149884
149627
149616
149877
149953
149947
149868
149605
149595
149862
149943
149937
149854
149585
149577
149849
149934
149928
149841
149568
149561
149836
149925
149919
149828
149553
149547
149824
149916
149911
149817
149540
149534
149813
149908
149903
149807
149528
149523
149803
149901
149896
149797
149517
149513
149794
149893
149889
149787
149508
149504
149785
149887
149882
149779
149499
149496
149776
149880
149876
149771
149492
149489
149769
149874
149870
149763
149485
149483
149761
149868
149864
149756
149479
149477
149755
149863
149859
149750
149474
149473
149748
149857
149853
149744
149470
149469
149743
149852
149849
149738
149466
149465
149737
149847
149844
149733
149463
149463
149732
149843
149839
149728
149461
149461
149727
149839
149835
149724
149459
149459
149723
149835
149831
149720
149458
149458
149719
149831
149827
149716
149457
149458
149715
149827
149824
149712
149457
149458
149712
149824
149821
149709
149458
149459
149709
149820
149817
149706
149459
149460
149706
149817
149814
149704
149460
149462
149704
149814
149811
149702
149462
149464
149702
149811
149809
149700
149465
149467
149700
149809
149806
149698
149468
149470
149699
149806
149804
149697
149471
149474
149698
149804
149802
149696
149475
149478
149697
149802
149800
149695
149480
149483
149696
149801
149799
149695
149485
149488
149696
149799
149797
149695
149490
149493
149697
149798
149796
149696
149496
149499
149697
149797
149795
149696
149502
149506
149698
149796
149795
149698
149508
149512
149700
149796
149795
149700
149515
149519
149702
149796
149795
149702
149522
149526
149704
149796
149796
149704
149530
149534
149707
149797
149797
149708
149537
149541
149711
149799
149799
149711
149545
149549
149715
149801
149801
149716
149552
149557
149719
149804
149804
149721
149560
149564
149724
149807
149807
149726
149567
149571
149729
149810
149811
149731
149573
149578
149735
149814
149815
149737
149579
149583
149741
149819
149820
149742
149585
149588
149746
149823
149824
149748
149589
149591
149751
149828
149828
149753
149591
149593
149756
149832
149832
149757
149592
149594
149760
149835
149836
149760
149592
149593
149763
149839
149839
149763
149591
149591
149765
149842
149842
149765
149589
149588
149767
149844
149844
149767
149585
149584
149768
149846
149846
149767
149581
149580
149769
149848
149847
149767
149575
149574
149768
149849
149848
149767
149570
149568
149767
149850
149849
149765
149564
149562
149766
149850
149849
149764
149558
149556
149764
149850
149849
149762
149552
149550
149762
149850
149848
149760
149546
149545
149760
149849
149847
149757
149541
149539
149757
149848
149846
149755
149535
149534
149755
149847
149845
149752
149530
149529
149752
149845
149843
149749
149525
149524
149749
149844
149842
149746
149521
149519
149746
149842
149840
149743
149516
149515
149743
149840
149838
149741
149512
149512
149741
149838
149837
149738
149508
149508
149738
149837
149835
149736
149506
149503
149734
149834
149833
149733
149502
149501
149732
149833
149831
149730
149498
149497
149729
149831
149829
149727
149496
149495
149727
149829
149827
149724
149492
149492
149724
149827
149825
149722
149490
149488
149721
149825
149823
149719
149487
149486
149719
149823
149821
149716
149483
149484
149717
149821
149819
149714
149481
149481
149714
149818
149817
149712
149478
149478
149712
149818
149816
149712
149478
149479
149714
149819
149820
149717
149484
149496
149727
149831
149867
149775
149551
149516
149697
149792
149864
149922
149955
149966
149972
149984
149989
149994
149997
149999
149999
149998
149997
149993
149989
149979
149974
149967
149960
149946
149913
149841
149707
149544
149277
149274
149529
149672
149661
149510
149251
149235
149496
149654
149658
149491
149222
149226
149492
149656
149653
149492
149225
149225
149491
149653
149654
149491
149226
149227
149492
149655
149655
149493
149228
149229
149495
149657
149658
149496
149230
149230
149497
149659
149660
149498
149231
149232
149499
149661
149662
149500
149233
149234
149501
149663
149665
149502
149235
149236
149504
149666
149667
149505
149237
149238
149506
149668
149669
149507
149239
149240
149508
149670
149671
149509
149241
149242
149511
149672
149673
149512
149243
149244
149513
149674
149675
149514
149245
149246
149515
149676
149677
149517
149247
149248
149518
149678
149680
149519
149249
149250
149520
149681
149682
149521
149251
149252
149523
149683
149685
149524
149252
149253
149525
149686
149687
149526
149254
149256
149528
149689
149690
149529
149256
149257
149530
149691
149692
149531
149259
149260
149533
149693
149694
149534
149261
149261
149535
149696
149697
149536
149262
149263
149538
149698
149699
149539
149265
149266
149540
149700
149701
149542
149267
149267
149543
149703
149705
149544
149268
149269
149545
149706
149707
149547
149271
149271
149548
149708
149710
149549
149271
149272
149550
149712
149712
149552
149274
149275
149553
149714
149715
149554
149275
149275
149556
149718
149719
149557
149276
149276
149559
149721
149722
149560
149277
149277
149561
149724
149725
149563
149278
149279
149564
149727
149729
149566
149279
149278
149567
149731
149733
149569
149278
149279
149571
149735
149737
149573
149280
149280
149574
149739
149742
149576
149279
149279
149578
149745
149748
149580
149279
149279
149582
149750
149753
149585
149279
149279
149587
149757
149760
149590
149279
149279
149593
149763
149766
149596
149279
149279
149599
149770
149772
149603
149282
149285
149608
149774
149778
149612
149287
149289
149617
149782
149790
149621
149288
149291
149626
149796
149802
149633
149295
149302
149640
149804
149804
149648
149312
149318
149656
149809
149818
149667
149328
149337
149678
149827
149835
149691
149351
149367
149699
149842
149849
149713
149383
149399
149723
149856
149862
149733
149417
149436
149744
149869
149875
149755
149458
149478
149767
149881
149885
149777
149497
149516
149786
149892
149898
149793
149532
149563
149811
149900
149908
149829
149576
149365
149582
149825
149878
149736
149394
149413
149755
149894
149898
149766
149433
149455
149773
149902
149912
149787
149479
149504
149798
149920
149932
149816
149534
149558
149825
149938
149935
149843
149600
149626
149854
149938
149962
149870
149650
149671
149892
149963
149904
149666
149546
149564
149837
149944
149955
149854
149599
149617
149871
149976
149968
149889
149663
149694
149902
149965
149985
149913
149709
149741
149933
149994
149988
149943
149768
149531
149902
149915
149991
149901
149673
149686
149918
150012
150018
149935
149721
149757
149944
150009
150004
149964
149801
149822
149985
150016
149998
149792
149749
149759
149952
150013
150008
149981
149831
149841
149990
150029
150056
150004
149858
149877
150018
150050
150040
149843
149843
149850
150010
150055
150042
150025
149901
149929
150041
150063
150075
150063
149953
149938
149896
150087
150115
150057
149922
149961
150068
150115
150112
150097
150021
150039
150101
150109
150107
150080
149996
150068
150129
150141
150139
150130
150099
150000
150225
150128
150185
150177
150152
150178
150192
150180
150209
150214
150197
150275
150251
150217
150181
150222
150234
150277
150228
150187
150215
150260
150311
150293
150272
150233
150187
150213
150180
150035
150104
150103
150006
149952
149842
149888
149965
149977
149923
149868
149742
149800
149906
149934
149927
149862
149693
149827
149608
149909
149864
149885
149632
149629
149783
149856
149904
149845
149676
149623
149808
149911
149839
149755
149580
149632
149821
149902
149927
149778
149561
149528
149714
149812
149860
149817
149642
149673
149808
149801
149798
149733
149561
149623
149812
149871
149907
149764
149537
149491
149688
149795
149858
149817
149644
149665
149801
149792
149773
149713
149539
149673
149820
149824
149762
149805
149687
149551
149717
149775
149850
149812
149638
149597
149781
149848
149788
149700
149508
149633
149812
149865
149865
149790
149601
149522
149755
149860
149833
149497
149588
149575
149808
149832
149799
149734
149567
149316
149783
149702
149834
149758
149570
149521
149751
149830
149812
149538
149574
149582
149813
149857
149852
149756
149560
149355
149791
149738
149848
149782
149589
149563
149751
149830
149733
149807
149343
149599
149782
149850
149829
149766
149544
149571
149548
149801
149853
149800
149575
149537
149767
149854
149819
149520
149591
149583
149807
149839
149807
149755
149534
149602
149473
149803
149831
149829
149527
149497
149709
149813
149884
149819
149611
149567
149779
149883
149801
149701
149498
149600
149812
149895
149919
149770
149530
149490
149698
149810
149861
149829
149646
149672
149812
149789
149787
149719
149537
149613
149816
149878
149907
149759
149514
149470
149682
149792
149893
149810
149593
149533
149787
149902
149849
149498
149643
149563
149858
149864
149825
149732
149525
149595
149825
149907
149926
149788
149547
149497
149712
149822
149902
149831
149615
149547
149795
149896
149846
149541
149630
149584
149850
149877
149827
149733
149519
149648
149849
149896
149875
149821
149632
149527
149731
149815
149903
149840
149633
149554
149801
149901
149852
149543
149636
149577
149859
149881
149838
149738
149520
149651
149856
149903
149878
149820
149625
149515
149727
149813
149905
149844
149625
149604
149797
149899
149756
149927
149297
149639
149785
149908
149824
149754
149517
149617
149851
149935
149959
149805
149533
149594
149594
149854
149893
149867
149586
149526
149748
149849
149915
149854
149627
149592
149807
149901
149793
149801
149419
149615
149825
149907
149846
149760
149530
149666
149869
149905
149847
149824
149658
149407
149844
149777
149910
149811
149627
149521
149761
149839
149908
149860
149645
149601
149821
149870
149844
149604
149595
149601
149886
149897
149845
149755
149533
149648
149869
149905
149864
149818
149645
149291
149944
149759
149937
149734
149677
149493
149759
149828
149904
149846
149605
149518
149755
149839
149927
149873
149646
149603
149830
149908
149838
149684
149537
149591
149860
149904
149846
149751
149517
149630
149866
149909
149871
149811
149626
149263
149949
149757
149942
149720
149668
149466
149752
149822
149908
149852
149597
149515
149763
149847
149925
149865
149622
149562
149821
149906
149852
149577
149591
149541
149869
149885
149836
149732
149482
149588
149851
149911
149847
149753
149496
149608
149860
149923
149898
149802
149569
149356
149832
149788
149923
149789
149610
149463
149749
149834
149911
149850
149583
149494
149754
149848
149919
149862
149613
149562
149814
149892
149834
149609
149533
149535
149859
149886
149828
149716
149458
149572
149847
149910
149849
149751
149486
149602
149859
149922
149905
149809
149526
149610
149505
149852
149853
149936
149461
149440
149704
149830
149898
149839
149544
149449
149731
149833
149911
149843
149571
149487
149790
149896
149839
149460
149577
149450
149930
149849
149827
149700
149432
149534
149832
149896
149824
149715
149439
149546
149832
149896
149828
149731
149454
149572
149843
149904
149874
149778
149544
149202
149883
149735
149919
149690
149590
149380
149705
149792
149882
149809
149502
149413
149706
149810
149890
149822
149526
149433
149719
149824
149897
149835
149561
149483
149780
149870
149818
149472
149541
149423
149881
149836
149799
149669
149379
149486
149806
149875
149800
149687
149385
149504
149810
149878
149804
149696
149401
149539
149822
149888
149865
149771
149464
149540
149447
149812
149813
149915
149374
149358
149650
149791
149863
149797
149467
149351
149664
149783
149863
149792
149474
149371
149680
149791
149873
149805
149508
149468
149727
149838
149678
149880
149070
149535
149611
149894
149750
149655
149299
149446
149776
149852
149767
149653
149329
149444
149776
149852
149771
149654
149332
149451
149779
149854
149780
149667
149353
149479
149785
149855
149829
149730
149391
149523
149329
149783
149746
149950
149245
149278
149584
149751
149825
149752
149387
149275
149614
149742
149835
149758
149414
149295
149628
149751
149836
149759
149421
149313
149641
149760
149842
149769
149454
149368
149703
149810
149736
149420
149378
149316
149801
149778
149730
149583
149256
149370
149736
149813
149726
149595
149253
149374
149733
149814
149728
149601
149260
149395
149741
149819
149742
149622
149285
149418
149748
149824
149799
149688
149328
149430
149291
149736
149719
149879
149204
149197
149550
149712
149789
149714
149315
149187
149557
149698
149793
149713
149332
149198
149569
149702
149793
149711
149339
149229
149585
149712
149800
149722
149376
149291
149657
149771
149692
149321
149309
149222
149767
149728
149683
149522
149157
149277
149688
149769
149675
149531
149150
149298
149690
149773
149679
149540
149159
149302
149687
149773
149687
149554
149182
149336
149694
149774
149742
149627
149228
149370
149175
149683
149643
149885
149062
149088
149472
149653
149736
149653
149215
149089
149486
149640
149741
149650
149227
149093
149498
149644
149741
149649
149233
149108
149503
149646
149744
149654
149252
149127
149516
149656
149752
149666
149291
149222
149585
149722
149567
149498
148968
149227
149566
149726
149607
149472
149029
149199
149618
149720
149612
149467
149044
149200
149622
149717
149620
149471
149067
149210
149623
149718
149628
149486
149087
149246
149637
149725
149689
149561
149157
149102
149269
149587
149647
149653
149074
148985
149402
149583
149686
149593
149138
148979
149420
149579
149684
149588
149137
148999
149430
149584
149686
149590
149150
149015
149442
149592
149687
149592
149175
149097
149502
149649
149488
149435
148823
149102
149478
149662
149530
149383
148896
149080
149543
149657
149541
149378
148914
149095
149555
149658
149549
149387
148936
149102
149556
149657
149561
149404
148962
149143
149570
149666
149632
149490
149043
148936
149202
149500
149581
149576
148962
148853
149297
149506
149608
149512
148993
148843
149310
149496
149610
149501
149007
148857
149329
149501
149617
149510
149029
148872
149345
149512
149624
149525
149070
148978
149443
149591
149434
149176
148799
148933
149492
149566
149464
149263
148778
148955
149483
149586
149471
149284
148797
148985
149486
149586
149466
149284
148790
148978
149467
149577
149536
149380
148858
148879
148944
149428
149474
149515
148769
148676
149194
149417
149534
149430
148849
148674
149203
149409
149537
149423
148875
148699
149228
149421
149547
149437
148927
148828
149326
149509
149281
149308
148392
148854
149258
149521
149357
149188
148573
148813
149362
149504
149341
149153
148560
148784
149355
149483
149363
149164
148599
148825
149369
149494
149445
149271
148680
148751
148749
149332
149372
149440
148585
148477
149059
149309
149446
149325
148705
148497
149090
149312
149454
149323
148718
148514
149110
149324
149460
149339
148771
148639
149244
149424
149256
148824
148533
148536
149273
149352
149228
148963
148350
148597
149247
149387
149243
149015
148377
148614
149256
149397
149260
149037
148406
148662
149271
149407
149363
149162
148526
148355
148783
149172
149306
149254
148472
148302
148932
149206
149353
149232
148530
148318
148963
149211
149361
149237
148592
148467
149139
149332
149117
148548
148327
148340
149132
149221
149105
148816
148143
148406
149126
149284
149126
148870
148167
148435
149141
149295
149147
148899
148204
148484
149159
149311
149268
149038
148362
148007
148757
149007
149241
149034
148366
148068
148820
149079
149262
149094
148381
148107
148859
149101
149255
149125
148481
148201
148930
149168
148908
148608
147875
148195
148965
149141
148986
148711
147934
148226
149008
149181
149023
148753
147974
148282
149036
149202
149155
148901
148130
147787
148555
148879
149109
148923
148127
147842
148658
148956
149150
148983
148198
148042
148855
149119
148813
148479
147662
147969
148823
149018
148781
148454
147579
147904
148792
149004
148833
148522
147645
148000
148849
149043
148994
148707
147830
147483
148283
148703
148952
148773
147819
147524
148443
148789
149009
148826
147921
147733
148658
148962
148620
148232
147315
147704
148722
148896
148753
148399
147456
147777
148707
148906
148779
148437
147453
146995
148057
148439
148765
148521
147504
147149
148200
148571
148830
148607
147622
147403
148449
148784
148431
147924
147009
147356
148531
148713
148533
148109
147073
147511
148587
148784
148745
148379
147308
146829
147899
148352
148619
148520
147338
146804
147882
148337
148593
148340
147221
147010
148113
148508
148147
147810
146454
147103
148225
148548
148308
147892
146652
147212
148337
148603
148554
148174
146969
146478
147579
148130
148456
148272
146959
146638
147811
148284
148528
148351
147253
147002
148142
148500
147914
147380
146117
146724
147960
148274
148205
147755
146487
145888
147416
147824
148260
147879
146641
146086
147541
147994
148341
148044
146787
146505
147881
148299
147821
147272
145899
146608
147918
148200
148271
147814
146484
145527
147214
147662
147955
147547
146000
145695
147263
147820
147347
146834
145024
145909
147489
147888
147606
147030
145411
146206
147683
148020
147999
147498
145955
145283
146827
147460
147875
147566
146129
146020
147488
147979
147273
146722
144952
145398
147095
147563
147412
146807
145031
144475
146266
146975
147521
147103
145429
145140
146926
147516
147015
146269
144461
145455
147133
147521
147586
147015
145191
144510
146307
147012
147245
146786
145032
144282
146349
147025
146770
145993
143790
143196
145259
146306
146938
146493
144370
144090
146245
147013
146401
145658
143173
144654
146545
146975
147254
146776
144598
143005
145523
146468
145569
144488
141858
143343
145716
146349
146353
145558
142972
142431
145342
146228
145748
144144
141968
143573
145939
146330
146570
145838
143271
141301
144434
145593
144712
143363
140249
142289
145039
145664
145784
144910
141914
141404
144907
145826
146029
144604
141818
138101
142785
143887
144982
143754
140304
139943
143731
144930
144917
143574
139440
139379
143835
145161
144775
142972
137722
136485
141780
143963
142705
141021
135034
139379
143235
144479
144422
143009
138557
137377
142365
144106
143727
141925
136610
136198
141715
143504
143351
141267
135327
134905
141024
143249
143233
140865
134635
134354
140673
143207
143143
140447
134067
133808
140214
143054
142956
139985
133586
133398
139761
142851
142740
139544
133237
133101
139336
142625
142508
139139
132988
132893
138952
142388
142267
138777
132817
132756
138612
142144
142022
138457
132710
132675
138312
141898
141775
138178
132650
132635
138054
141652
141532
137939
132629
132630
137833
141412
141295
137737
132638
132652
137648
141179
141067
137568
132671
132694
137495
140956
140849
137429
132721
132752
137369
140744
140644
137315
132786
132822
137268
140545
140451
137226
132861
132901
137188
140359
140271
137155
132943
132985
137124
140186
140106
137098
133028
133071
137074
140028
139954
137053
133114
133157
137035
139883
139817
137019
133201
133243
137005
139752
139693
136993
133286
133327
136982
139635
139582
136974
133369
133409
136967
139531
139484
136961
133449
133487
136955
139439
139398
136951
133525
133562
136948
139358
139323
136946
133598
133632
136944
139288
139258
136943
133666
133698
136943
139228
139201
136944
133730
133759
136944
139175
139153
136946
133788
133816
136948
139131
139112
136951
133843
133868
136954
139093
139077
136958
133892
133915
136961
139061
139047
136966
133938
133959
136969
139033
139022
136974
133980
133999
136979
139011
139001
136984
134018
134035
136988
138991
138983
136994
134052
134068
136999
138975
138969
137004
134084
134099
137009
138961
138956
137014
134114
134127
137019
138950
138945
137024
134140
134152
137028
138940
138936
137033
134165
134176
137037
138931
138927
137042
134187
134197
137046
138923
138920
137050
134207
134216
137054
138917
138914
137059
134226
134234
137062
138911
138909
137066
134242
134250
137070
138906
138904
137074
134258
134265
137077
138902
138900
137081
134272
134279
137084
138898
138898
137088
134285
134291
137091
138895
138895
137095
134297
134303
137098
138893
138893
137102
134308
134314
137104
138891
138892
137108
134319
134324
137111
138890
138891
137115
134329
134333
137117
138890
138890
137121
134338
134343
137124
138889
138890
137127
134347
134351
137130
138889
138891
137134
134356
134360
137137
138890
138892
137140
134365
134369
137143
138891
138893
137147
134373
134377
137150
138892
138894
137153
134381
134385
137156
138894
138896
137160
134390
134393
137163
138896
138898
137167
134398
134402
137170
138898
138901
137174
134406
134410
137177
138901
138904
137181
134414
134418
137184
138904
138908
137188
134422
134426
137192
138908
138911
137196
134430
134433
137199
138912
138916
137203
134438
134441
137206
138916
138920
137211
134445
134449
137214
138921
138925
137218
134453
134457
137222
138926
138930
137226
134461
134465
137230
138931
138935
137234
134469
134472
137237
138936
138940
137242
134476
134480
137245
138942
138946
137250
134484
134488
137253
138948
138952
137258
134492
134495
137262
138954
138959
137266
134499
134503
137270
138960
138965
137274
134507
134510
137278
138967
138972
137283
134514
134518
137286
138974
138979
137291
134521
134525
137295
138981
138986
137299
134529
134532
137303
138988
138993
137308
134536
134539
137312
138995
139000
137316
134543
134546
137320
139002
139008
137324
134550
134553
137328
139010
139015
137333
134557
134560
137337
139017
139023
137341
134563
134567
137345
139025
139030
137350
134570
134573
137354
139033
139038
137358
134576
134580
137362
139040
139046
137366
134583
134586
137370
139048
139053
137374
134589
134592
137378
139056
139061
137383
134595
134598
137386
139064
139069
137391
134601
134604
137395
139071
139077
137399
134607
134610
137403
139079
139085
137407
134613
134615
137411
139087
139093
137415
134618
134621
137419
139095
139101
137423
134624
134626
137426
139103
139108
137431
134629
134631
137434
139111
139116
137438
134634
134636
137442
139119
139124
137446
134639
134641
137450
139127
139132
137454
134644
134646
137457
139134
139140
137461
134648
134650
137464
139142
139147
137468
134652
134654
137471
139149
139155
137475
134656
134658
137478
139157
139162
137482
134660
134662
137485
139164
139169
137489
134664
134665
137492
139171
139178
137495
134667
134668
137498
139179
139185
137503
134673
134675
137507
139189
139192
137511
134679
134680
137509
139189
139177
137498
134678
134670
137482
139159
139204
137503
134685
134760
137599
139355
139448
137673
134818
142056
144691
146369
146740
146890
147546
147883
148029
148174
148587
148855
149138
149349
149505
149620
149703
149763
149805
149836
149859
149877
149890
149901
149909
149916
149922
149926
149929
149931
149933
149934
149936
149936
149932
149934
149941
149946
149954
149962
149972
149983
149994
150005
150015
150021
150023
150022
150020
150017
150015
150013
150012
150010
150008
150007
150005
150003
150000
149998
149996
149994
149992
149990
149989
149988
149987
149986
149986
149986
149986
149987
149989
149991
149993
149997
150000
150005
150010
150015
150021
150027
150033
150040
150046
150052
150058
150063
150068
150072
150075
150078
150080
150081
150082
150081
150080
150079
150077
150074
150071
150068
150064
150061
150057
150053
150048
150044
150040
150036
150032
150028
150024
150020
150016
150013
150009
150006
150003
150000
149997
149994
149991
149989
149986
149984
149982
149980
149978
149977
149975
149974
149972
149971
149970
149969
149968
149967
149966
149965
149965
149964
149964
149963
149963
149963
149962
149962
149962
149962
149962
149962
149962
149962
149962
149962
149962
149962
149963
149963
149963
149963
149964
149964
149965
149965
149966
149966
149966
149967
149968
149968
149969
149969
149970
149971
149971
149972
149973
149973
149974
149975
149976
149976
149977
149978
149979
149980
149980
149981
149982
149983
149984
149985
149986
149987
149988
149989
149990
149991
149993
149994
149996
150000
150007
150012
150015
150015
150017
150004
150012
150012
150020
150026
150029
150029
150027
150026
150024
150022
150021
150020
150019
150018
150017
150016
150016
150015
150015
150014
150014
150013
150013
150012
150012
150012
150011
150011
150011
150011
150010
150010
150010
150010
150009
150009
150009
150009
150008
150008
150008
150008
150008
150007
150007
150007
150007
150006
150006
150006
150006
150006
150005
150005
150005
150005
150005
150004
150004
150004
150004
150003
150003
150003
150003
150002
150002
150002
150001
150001
150000
150000
149999
149999
149998
149997
149995
149994
149994
149995
149997
149999
150000
150004
150009
150019
150024
150024
150021
150019
150016
150013
150010
150008
150005
150003
150000
149998
149995
149993
149990
149988
149985
149983
149980
149979
149976
149975
149971
149970
149967
149966
149963
149963
149959
149959
149956
149955
149952
149952
149949
149949
149945
149945
149942
149942
149939
149939
149936
149936
149933
149934
149930
149931
149928
149928
149925
149926
149923
149923
149920
149921
149918
149918
149915
149916
149913
149914
149911
149911
149908
149909
149906
149907
149904
149905
149902
149903
149900
149901
149899
149899
149897
149898
149895
149896
149894
149895
149893
149894
149892
149893
149891
149893
149891
149893
149891
149893
149891
149894
149892
149895
149893
149896
149895
149898
149897
149900
149899
149902
149901
149905
149903
149907
149906
149910
149909
149912
149911
149915
149914
149917
149916
149919
149918
149921
149920
149923
149922
149925
149923
149926
149924
149927
149925
149927
149925
149927
149926
149927
149926
149927
149925
149927
149925
149926
149924
149926
149924
149925
149923
149924
149923
149924
149920
149923
149920
149921
149919
149920
149918
149919
149918
149918
149915
149917
149914
149915
149914
149915
149912
149912
149911
149913
149909
149912
149910
149914
149922
149932
149956
149955
149952
149965
149949
149951
149965
149949
149952
149966
149949
149954
149967
149950
149954
149968
149951
149956
149969
149952
149956
149970
149954
149957
149971
149954
149958
149971
149955
149959
149972
149955
149960
149973
149957
149959
149974
149958
149961
149975
149958
149962
149975
149959
149962
149976
149959
149963
149976
149960
149964
149977
149960
149964
149977
149960
149964
149978
149961
149964
149978
149961
149964
149978
149960
149964
149978
149960
149964
149978
149959
149963
149977
149958
149962
149976
149957
149961
149976
149956
149960
149974
149954
149958
149973
149952
149956
149972
149950
149954
149970
149948
149952
149968
149946
149950
149967
149945
149949
149966
149943
149947
149965
149941
149945
149964
149940
149944
149964
149939
149943
149962
149938
149942
149962
149938
149942
149963
149938
149943
149963
149938
149943
149964
149939
149944
149965
149939
149945
149966
149940
149946
149967
149941
149947
149969
149942
149948
149970
149944
149950
149971
149945
149951
149972
149946
149952
149974
149948
149954
149975
149949
149955
149976
149951
149957
149977
149952
149958
149979
149954
149960
149980
149955
149961
149981
149957
149963
149982
149958
149964
149983
149960
149965
149985
149961
149967
149986
149963
149968
149987
149965
149970
149988
149966
149972
149989
149968
149973
149990
149970
149975
149992
149971
149976
149993
149973
149978
149994
149975
149980
149995
149977
149981
149996
149979
149983
149998
149981
149985
149999
149983
149987
150000
149985
149989
150002
149987
149991
150003
149989
149993
150004
149991
149995
150006
149994
149997
150007
149996
150000
150008
149999
150002
150010
150002
150004
150011
150004
150007
150013
150007
150010
150014
150010
150013
150016
150013
150015
150017
150017
150018
150019
150020
150022
150020
150023
150013
150015
150015
150015
150015
150014
150014
150013
150013
150013
150012
150012
150011
150011
150011
150011
150010
150010
150010
150009
150009
150009
150008
150008
150008
150007
150007
150006
150006
150005
150005
150004
150004
150003
150002
150002
150001
150000
149999
149997
149996
149995
149994
149993
149992
149991
149991
149990
149992
149994
149996
149997
150000
150002
150005
150007
150009
150011
150012
150012
150012
150011
150011
150010
150008
150007
150006
150005
150004
150003
150001
150000
149999
149998
149997
149996
149995
149994
149993
149992
149991
149990
149989
149988
149988
149986
149969
149966
149966
149970
149985
149989
149989
149995
149995
149997
149997
149997
149998
149999
150000
150001
150002
150003
150004
150005
150006
150007
150008
150009
150010
150011
150015
150014
150013
150011
150010
150009
150008
150007
150006
150005
150004
150003
150002
150001
150001
150000
149999
149999
150000
149999
149999
149997
149998
150000
150000
150001
149994
149993
149993
149993
149993
149990
149990
149975
149977
149972
149972
149972
149973
149974
149976
149996