/*--------------------------------*- C++ -*----------------------------------*\
| =========                 |                                                 |
| \\      /  F ield         | OpenFOAM: The Open Source CFD Toolbox           |
|  \\    /   O peration     | Version:  v2006                                 |
|   \\  /    A nd           | Website:  www.openfoam.com                      |
|    \\/     M anipulation  |                                                 |
\*---------------------------------------------------------------------------*/
FoamFile
{
    version     2.0;
    format      ascii;
    class       volScalarField;
    location    "0.064";
    object      Ma;
}
// * * * * * * * * * * * * * * * * * * * * * * * * * * * * * * * * * * * * * //

dimensions      [0 0 0 0 0 0 0];


internalField   nonuniform List<scalar> 
24416
(
0.239295
0.239295
0.239295
0.239295
0.239296
0.239296
0.239296
0.239297
0.239297
0.239297
0.239295
0.239278
0.239218
0.239102
0.238939
0.238743
0.238528
0.238306
0.238082
0.23786
0.23764
0.237421
0.237201
0.236978
0.236752
0.23652
0.236284
0.236042
0.235795
0.235543
0.235286
0.235025
0.23476
0.23449
0.234216
0.233939
0.233658
0.233372
0.233084
0.232792
0.232497
0.232198
0.231897
0.231593
0.231287
0.230978
0.230668
0.230355
0.23004
0.229725
0.229408
0.229089
0.228771
0.228451
0.228131
0.227812
0.227492
0.227173
0.226854
0.226537
0.22622
0.225905
0.225592
0.22528
0.22497
0.224663
0.224358
0.224056
0.223757
0.223461
0.223168
0.222879
0.222594
0.222312
0.222036
0.221764
0.221498
0.221236
0.220981
0.220729
0.220481
0.220234
0.219985
0.219731
0.219469
0.219201
0.218936
0.218691
0.218496
0.218379
0.218351
0.218386
0.218447
0.218512
0.218578
0.218643
0.218706
0.218764
0.218814
0.218847
0.218851
0.218784
0.218671
0.218467
0.218097
0.217617
0.216997
0.216037
0.214956
0.210809
0.208078
0.214917
0.216245
0.216337
0.214602
0.205098
0.202157
0.214143
0.21639
0.216367
0.213605
0.199468
0.197016
0.213036
0.216262
0.216095
0.212354
0.194817
0.192835
0.211684
0.215897
0.215661
0.210945
0.190941
0.189197
0.210346
0.215419
0.215155
0.209742
0.18761
0.186176
0.209149
0.214888
0.2146
0.208553
0.184836
0.183608
0.20797
0.214304
0.213992
0.207389
0.182444
0.181369
0.206823
0.213677
0.213349
0.20626
0.18034
0.179382
0.205712
0.213022
0.212685
0.205166
0.178457
0.177589
0.204636
0.212351
0.212007
0.204107
0.176746
0.175949
0.203593
0.21167
0.211323
0.20308
0.175171
0.174433
0.202582
0.210984
0.210636
0.202083
0.173709
0.173018
0.2016
0.210297
0.209949
0.201115
0.172339
0.17169
0.200645
0.209612
0.209267
0.200176
0.171051
0.170436
0.199719
0.208933
0.208584
0.199255
0.169823
0.169234
0.198806
0.208249
0.2079
0.198353
0.168649
0.168084
0.197912
0.207567
0.207219
0.197468
0.167523
0.166979
0.197036
0.206887
0.206539
0.196598
0.166438
0.165912
0.196173
0.206208
0.20586
0.195742
0.165388
0.164879
0.195322
0.205529
0.205182
0.194897
0.164369
0.163874
0.194482
0.204851
0.204503
0.194061
0.163378
0.162895
0.193651
0.204172
0.203823
0.193234
0.162411
0.161938
0.192827
0.203492
0.203142
0.192413
0.161464
0.161001
0.192009
0.20281
0.202458
0.191598
0.160536
0.160081
0.191196
0.202125
0.201771
0.190786
0.159624
0.159176
0.190386
0.201436
0.201081
0.189978
0.158726
0.158285
0.189579
0.200744
0.200386
0.189172
0.157841
0.157406
0.188773
0.200047
0.199687
0.188367
0.156967
0.156536
0.187968
0.199345
0.198982
0.187561
0.156102
0.155676
0.187163
0.198637
0.19827
0.186755
0.155246
0.154823
0.186356
0.197923
0.197552
0.185948
0.154396
0.153976
0.185547
0.197201
0.196827
0.185137
0.153551
0.153133
0.184734
0.196471
0.196093
0.184322
0.15271
0.152294
0.183917
0.195733
0.19535
0.183503
0.151872
0.151456
0.183096
0.194986
0.194598
0.182678
0.151036
0.15062
0.182268
0.194229
0.193836
0.181848
0.150199
0.149784
0.181434
0.193461
0.193063
0.18101
0.149362
0.148946
0.180591
0.192681
0.192277
0.180163
0.148523
0.148105
0.17974
0.19189
0.191479
0.179307
0.147681
0.147261
0.178879
0.191085
0.190668
0.178441
0.146834
0.146411
0.178007
0.190265
0.189841
0.177564
0.145982
0.145556
0.177124
0.189431
0.189
0.176674
0.145123
0.144693
0.176228
0.188581
0.188141
0.175771
0.144257
0.143822
0.175317
0.187713
0.187266
0.174853
0.143381
0.142942
0.174392
0.186828
0.186371
0.173919
0.142495
0.14205
0.17345
0.185924
0.185458
0.172969
0.141597
0.141146
0.172491
0.185
0.184524
0.172001
0.140687
0.140229
0.171513
0.184054
0.183569
0.171014
0.139763
0.139298
0.170516
0.183087
0.182591
0.170007
0.138825
0.138352
0.169499
0.182097
0.181589
0.168979
0.13787
0.137389
0.168459
0.181082
0.180563
0.167928
0.136899
0.136409
0.167397
0.180044
0.179512
0.166854
0.135909
0.135409
0.166311
0.17898
0.178434
0.165756
0.1349
0.13439
0.1652
0.177888
0.177328
0.164632
0.133871
0.13335
0.164063
0.176767
0.176192
0.163481
0.132819
0.132288
0.162897
0.175616
0.175026
0.1623
0.131745
0.131202
0.161702
0.174433
0.173826
0.16109
0.130647
0.13009
0.160476
0.173217
0.172594
0.159849
0.129522
0.128953
0.159218
0.171967
0.171326
0.158574
0.128371
0.127788
0.157927
0.170681
0.170021
0.157265
0.127192
0.126595
0.156601
0.169358
0.168679
0.155921
0.125984
0.125371
0.155238
0.167996
0.167298
0.154539
0.124744
0.124115
0.153837
0.166594
0.165875
0.153118
0.123472
0.122827
0.152396
0.16515
0.16441
0.151657
0.122166
0.121504
0.150914
0.163663
0.1629
0.150154
0.120826
0.120145
0.14939
0.162131
0.161346
0.148608
0.119449
0.11875
0.147822
0.160553
0.159744
0.147018
0.118035
0.117317
0.146208
0.158927
0.158094
0.145381
0.116582
0.115845
0.144548
0.157252
0.156394
0.143697
0.115091
0.114333
0.14284
0.155526
0.154642
0.141964
0.113558
0.112779
0.141082
0.153749
0.152838
0.140182
0.111983
0.111184
0.139274
0.151918
0.15098
0.138348
0.110366
0.109545
0.137414
0.150032
0.149066
0.136461
0.108705
0.107861
0.135501
0.148089
0.147095
0.13452
0.106998
0.106132
0.133533
0.14609
0.145067
0.132525
0.105246
0.104357
0.13151
0.144033
0.142981
0.130475
0.103448
0.102536
0.129432
0.141917
0.140837
0.128369
0.101604
0.100669
0.127299
0.139744
0.138634
0.126208
0.0997149
0.0987579
0.125111
0.137512
0.136373
0.123994
0.0977814
0.096803
0.12287
0.135222
0.134055
0.121726
0.0958047
0.0948052
0.120576
0.132875
0.13168
0.119405
0.093786
0.0927662
0.11823
0.130473
0.12925
0.117034
0.0917267
0.0906877
0.115834
0.128016
0.126767
0.114614
0.0896289
0.0885718
0.11339
0.125507
0.124233
0.112147
0.0874937
0.0864195
0.1109
0.122948
0.12165
0.109632
0.0853062
0.0841844
0.108361
0.120343
0.119024
0.107069
0.0830289
0.0818685
0.105773
0.117697
0.116358
0.104458
0.080678
0.079487
0.103141
0.115012
0.113656
0.101804
0.0782702
0.0770569
0.100469
0.112294
0.110922
0.0991164
0.0758217
0.0745947
0.0977677
0.109548
0.108166
0.0964044
0.0733497
0.0721176
0.0950485
0.106784
0.105397
0.093681
0.0708715
0.0696428
0.0923245
0.104013
0.102626
0.0909596
0.0684042
0.0671879
0.0896104
0.101246
0.0998671
0.0882565
0.0659664
0.0647722
0.0869231
0.0984989
0.0971349
0.0855889
0.0635772
0.0624147
0.0842802
0.0957863
0.0944453
0.0829748
0.0612556
0.0601342
0.0816999
0.0931244
0.0918144
0.0804324
0.0590206
0.0579494
0.0792007
0.0905297
0.0892592
0.0779801
0.0568898
0.0558773
0.0768004
0.0880189
0.0867961
0.0756356
0.0548801
0.053934
0.0745164
0.0856085
0.0844416
0.0734156
0.0530065
0.0521335
0.0723648
0.0833143
0.0822091
0.0713341
0.0512807
0.0504857
0.070358
0.0811488
0.080113
0.0694046
0.0497127
0.0489982
0.0685075
0.0791249
0.0781632
0.0676347
0.0483065
0.0476737
0.0668196
0.0772516
0.0763673
0.0660301
0.0470637
0.0465121
0.065299
0.0755349
0.0747293
0.0645932
0.0459822
0.0455094
0.0639457
0.0739771
0.0732507
0.0633223
0.0450565
0.0446583
0.0627561
0.0725779
0.0719289
0.0622117
0.0442769
0.0439472
0.0617227
0.0713333
0.0707595
0.0612534
0.0436317
0.0433642
0.060837
0.0702379
0.0697353
0.0604373
0.0431078
0.0428954
0.0600874
0.0692831
0.0688468
0.059751
0.0426907
0.0425258
0.0594609
0.0684573
0.0680814
0.0591807
0.0423653
0.0422404
0.0589428
0.0677489
0.0674262
0.0587112
0.0421162
0.0420225
0.0585172
0.0671438
0.0668662
0.0583252
0.041925
0.0418545
0.0581684
0.0666317
0.06639
0.0580087
0.041777
0.0417219
0.0578803
0.0661932
0.0659787
0.0577439
0.0416562
0.0416083
0.0576341
0.0658084
0.0656127
0.0575114
0.0415455
0.041495
0.0574095
0.0654573
0.0652712
0.0572893
0.0414231
0.0413669
0.0571886
0.0651203
0.0649034
0.0570405
0.0412711
0.0411871
0.0569371
0.0647447
0.0645201
0.0567664
0.0410626
0.0409317
0.0565907
0.0643334
0.0640658
0.0563685
0.0407546
0.0405016
0.0561178
0.0638173
0.063751
0.0560016
0.0403093
0.0405005
0.0561179
0.0639523
0.0639536
0.0561237
0.0406554
0.0725604
0.0786606
0.0830658
0.08574
0.0872867
0.0903869
0.0920806
0.0941119
0.0954343
0.0968791
0.0979225
0.0990328
0.099888
0.100784
0.101506
0.102256
0.102883
0.103533
0.104093
0.104674
0.105187
0.105722
0.106204
0.106711
0.107174
0.107665
0.10812
0.108605
0.109059
0.109548
0.110006
0.110506
0.110977
0.111496
0.111984
0.112529
0.11304
0.113616
0.114147
0.114749
0.11528
0.115878
0.116358
0.116861
0.117132
0.117227
0.117179
0.116741
0.11524
0.11065
0.103389
0.0812575
0.0786471
0.101924
0.10965
0.108734
0.100561
0.0760651
0.0736895
0.0993262
0.107891
0.107198
0.0983745
0.0718927
0.071144
0.0979057
0.106858
0.106425
0.0974165
0.0704162
0.0704345
0.0973173
0.106296
0.106024
0.0970697
0.0702883
0.0704736
0.0970969
0.10597
0.105726
0.0968803
0.0703516
0.0706291
0.0969616
0.105704
0.105509
0.0968194
0.0706516
0.0709323
0.0969307
0.105501
0.105294
0.0967777
0.0708915
0.0712128
0.096892
0.105294
0.105128
0.0967796
0.0712886
0.0715988
0.0969037
0.105124
0.104925
0.0967669
0.0715969
0.0719387
0.0968844
0.104922
0.104756
0.0967781
0.0720391
0.0723617
0.0968956
0.104741
0.104536
0.0967588
0.0723784
0.0727286
0.0968658
0.104517
0.10434
0.0967539
0.0728394
0.073165
0.0968534
0.104303
0.104083
0.0967078
0.0731897
0.0735416
0.096796
0.10404
0.103846
0.0966723
0.0736559
0.0739796
0.096747
0.103779
0.103539
0.0965883
0.0740085
0.0743604
0.0966541
0.103468
0.103253
0.0965175
0.0744779
0.0748006
0.0965668
0.103153
0.102894
0.0963974
0.0748381
0.0751959
0.0964456
0.102794
0.102564
0.0963042
0.0753278
0.0756605
0.096338
0.102435
0.102165
0.0961731
0.0757279
0.0761157
0.0962245
0.10205
0.10182
0.0961063
0.076305
0.0766965
0.0961615
0.101683
0.101433
0.0960502
0.0768795
0.0774053
0.0961719
0.101339
0.101163
0.0961641
0.0778335
0.0785375
0.0963886
0.101107
0.101043
0.0965874
0.0793534
0.080555
0.0970382
0.101137
0.100999
0.0971993
0.081463
0.0820348
0.097037
0.100551
0.0996898
0.0963276
0.0819691
0.0817796
0.095442
0.0986355
0.0972974
0.0941931
0.0811806
0.0808002
0.0929592
0.0958818
0.0943695
0.0916884
0.0805745
0.0803245
0.0903913
0.0927945
0.0906428
0.0886498
0.0796779
0.0691701
0.0843166
0.0883191
0.0879087
0.0849716
0.0733621
0.0732581
0.083713
0.0860355
0.0840208
0.0822652
0.0740122
0.0746381
0.0808753
0.0820954
0.0795112
0.0789995
0.0762601
0.0740468
0.0761783
0.0763237
0.0721417
0.072104
0.0703277
0.0668584
0.0677238
0.0673345
0.0623511
0.0628699
0.0629483
0.057778
0.0580481
0.0586379
0.0542869
0.052601
0.0518963
0.0448622
0.0463241
0.0490764
0.0437392
0.039907
0.0371132
0.0293977
0.0343327
0.0397488
0.039517
0.0329724
0.0253831
0.0300415
0.0390956
0.0448376
0.0516368
0.0479245
0.0410254
0.0572139
0.0604661
0.0620964
0.079237
0.0775461
0.0764133
0.0962582
0.0940416
0.0936095
0.105641
0.108059
0.115393
0.135247
0.124267
0.120712
0.1357
0.13933
0.154089
0.171142
0.150574
0.146608
0.160327
0.163806
0.189203
0.207004
0.176786
0.173561
0.185733
0.189687
0.225919
0.246488
0.21061
0.202361
0.225742
0.23418
0.264275
0.276642
0.252097
0.244344
0.260086
0.265846
0.284857
0.286814
0.271173
0.270751
0.273576
0.270504
0.282627
0.272894
0.266807
0.276405
0.274031
0.258837
0.25827
0.240097
0.246592
0.264652
0.261458
0.235318
0.219425
0.200182
0.222525
0.24948
0.234496
0.208388
0.182832
0.167137
0.196616
0.231002
0.21512
0.185155
0.157239
0.146242
0.162286
0.194973
0.189085
0.152238
0.1313
0.121352
0.14309
0.17747
0.157607
0.129475
0.105753
0.114882
0.147361
0.166948
0.159509
0.140822
0.110215
0.0993025
0.128783
0.146694
0.160947
0.144479
0.11317
0.110069
0.139818
0.156115
0.145345
0.128743
0.100151
0.11426
0.143728
0.158354
0.154148
0.13959
0.111719
0.102956
0.129791
0.144493
0.15623
0.14331
0.11595
0.11385
0.140962
0.153603
0.145013
0.131619
0.106005
0.118424
0.144089
0.156072
0.149804
0.137776
0.112011
0.124923
0.149532
0.160272
0.157923
0.146587
0.122948
0.116278
0.138997
0.150651
0.161215
0.150614
0.128242
0.125969
0.148513
0.15929
0.152901
0.141907
0.119239
0.131038
0.153046
0.162706
0.161413
0.151535
0.129463
0.122543
0.144424
0.155101
0.163453
0.154501
0.132732
0.128051
0.150344
0.159626
0.167856
0.159684
0.138179
0.136298
0.157382
0.166427
0.160826
0.151064
0.130589
0.140308
0.160665
0.168656
0.16494
0.156359
0.135155
0.144233
0.164721
0.172074
0.171558
0.162816
0.143361
0.13826
0.157418
0.167004
0.174113
0.167168
0.14677
0.145068
0.165004
0.173708
0.168969
0.159445
0.138318
0.147966
0.169968
0.176701
0.17321
0.164805
0.144447
0.152456
0.173247
0.180462
0.176694
0.168513
0.148154
0.157293
0.17642
0.183212
0.182858
0.175477
0.156412
0.151367
0.17015
0.17842
0.184957
0.178048
0.15835
0.153582
0.174381
0.182158
0.189154
0.182781
0.163636
0.162971
0.181854
0.189186
0.184781
0.176499
0.157696
0.16468
0.184129
0.191116
0.188325
0.180456
0.159783
0.169458
0.189166
0.195164
0.192889
0.185331
0.1665
0.174686
0.193248
0.199268
0.198884
0.191266
0.173621
0.167462
0.186218
0.194733
0.201517
0.19554
0.175462
0.173191
0.191373
0.199134
0.205927
0.200031
0.181101
0.177544
0.196441
0.203373
0.209217
0.203145
0.18458
0.183152
0.202072
0.209049
0.20537
0.197476
0.178737
0.187016
0.205628
0.211775
0.209604
0.202197
0.182546
0.190478
0.209992
0.215374
0.213117
0.205899
0.186503
0.194914
0.21323
0.218875
0.219295
0.212558
0.194251
0.18984
0.207986
0.215782
0.221706
0.215703
0.197609
0.192501
0.212375
0.219395
0.225769
0.220002
0.200391
0.197131
0.21591
0.223481
0.22942
0.223995
0.205434
0.202935
0.22062
0.227522
0.232966
0.227549
0.21018
0.208364
0.226072
0.232686
0.228808
0.221797
0.203052
0.210536
0.22975
0.235547
0.23309
0.225773
0.207499
0.214233
0.233971
0.23903
0.236832
0.230276
0.210907
0.218255
0.237587
0.242655
0.240215
0.233574
0.214461
0.221513
0.240384
0.245704
0.243991
0.237285
0.219015
0.227067
0.244574
0.249527
0.250185
0.243536
0.226553
0.221868
0.239127
0.247162
0.252786
0.247846
0.228021
0.224261
0.243361
0.250501
0.256242
0.250921
0.231809
0.228862
0.247765
0.254387
0.260393
0.255315
0.236705
0.233273
0.251873
0.258318
0.26355
0.258598
0.240139
0.237478
0.255324
0.261821
0.267087
0.262228
0.245281
0.244006
0.261347
0.2675
0.264222
0.257568
0.23929
0.246151
0.265288
0.270422
0.268081
0.261003
0.242915
0.249677
0.268875
0.273669
0.27168
0.265331
0.2465
0.253358
0.272251
0.276982
0.274971
0.268592
0.249865
0.256676
0.275355
0.28022
0.278762
0.272267
0.254245
0.262457
0.279539
0.284054
0.284902
0.278665
0.261799
0.257315
0.273344
0.282139
0.28705
0.282266
0.262681
0.259227
0.278537
0.285457
0.291301
0.286288
0.267096
0.263695
0.283291
0.289559
0.295118
0.290357
0.271354
0.268331
0.287283
0.293452
0.298699
0.294094
0.275243
0.272851
0.291063
0.297371
0.302747
0.298424
0.281129
0.280611
0.297414
0.303633
0.300866
0.292852
0.275194
0.281444
0.300618
0.305417
0.304174
0.297404
0.27717
0.285608
0.305378
0.310107
0.308546
0.301496
0.282161
0.289978
0.309229
0.313896
0.312438
0.305787
0.287467
0.294592
0.313131
0.317801
0.31625
0.309679
0.291583
0.299172
0.316616
0.321249
0.322264
0.316122
0.298073
0.293958
0.312249
0.31967
0.325728
0.320872
0.302003
0.298151
0.31745
0.324087
0.329974
0.325307
0.305745
0.302332
0.321613
0.328189
0.333626
0.328846
0.309472
0.30644
0.325244
0.33196
0.33772
0.333265
0.314903
0.3126
0.330488
0.336709
0.342018
0.337586
0.320702
0.320288
0.33741
0.343364
0.34037
0.333537
0.315297
0.320815
0.340754
0.345766
0.344127
0.337136
0.31774
0.325913
0.345654
0.350308
0.349111
0.342416
0.323045
0.332334
0.350925
0.355133
0.354427
0.348474
0.330124
0.338182
0.355867
0.359958
0.361466
0.355604
0.337421
0.332184
0.35115
0.358549
0.363903
0.358927
0.338602
0.335412
0.355495
0.36246
0.369004
0.3644
0.344324
0.342523
0.36206
0.368566
0.375289
0.371373
0.352636
0.350126
0.368499
0.374402
0.379098
0.374655
0.356705
0.355673
0.373507
0.380143
0.377967
0.369981
0.351017
0.359498
0.379524
0.384264
0.383806
0.376777
0.357126
0.368035
0.386901
0.390947
0.390764
0.384731
0.366594
0.373777
0.391835
0.395994
0.397185
0.390916
0.371818
0.367146
0.386836
0.394462
0.40094
0.396014
0.375453
0.37267
0.393569
0.400437
0.408099
0.404134
0.384615
0.38318
0.402482
0.408364
0.414426
0.410453
0.39205
0.390543
0.409691
0.415876
0.412828
0.405009
0.384737
0.392166
0.413326
0.418564
0.417869
0.410601
0.389339
0.402216
0.421984
0.426179
0.427528
0.421418
0.402522
0.412333
0.430646
0.434174
0.435545
0.429431
0.409837
0.404548
0.424839
0.432808
0.439138
0.433956
0.41299
0.410162
0.43155
0.43886
0.447067
0.442974
0.423813
0.427168
0.446719
0.452591
0.450889
0.443525
0.423675
0.42975
0.45133
0.456569
0.454858
0.447277
0.424842
0.436451
0.457172
0.462022
0.46625
0.458995
0.437208
0.436477
0.458317
0.466413
0.476148
0.47203
0.451031
0.447357
0.468835
0.475417
0.481398
0.476655
0.455069
0.453189
0.475676
0.483384
0.482277
0.472976
0.449719
0.465356
0.487145
0.491731
0.495152
0.488502
0.467553
0.482054
0.501894
0.504779
0.50712
0.500922
0.478789
0.473081
0.496195
0.504924
0.512447
0.50736
0.485093
0.487438
0.510987
0.518418
0.521123
0.51268
0.489664
0.505476
0.528107
0.531715
0.534153
0.526636
0.50138
0.494852
0.521863
0.531665
0.540556
0.534683
0.510875
0.516457
0.541541
0.548661
0.549982
0.542271
0.516947
0.530877
0.555299
0.560676
0.563744
0.555366
0.527459
0.523724
0.552794
0.563285
0.576042
0.572735
0.551915
0.559239
0.581866
0.586844
0.586372
0.578038
0.553097
0.563598
0.588605
0.594255
0.600075
0.592595
0.565173
0.570866
0.596803
0.604853
0.620157
0.617479
0.593024
0.586996
0.61753
0.624224
0.629447
0.620888
0.587999
0.589741
0.621702
0.631705
0.645082
0.641161
0.611655
0.607181
0.642834
0.649038
0.656972
0.649545
0.611602
0.609216
0.653128
0.663343
0.667865
0.657041
0.603458
0.594569
0.65425
0.668228
0.664565
0.648342
0.582029
0.55653
0.622112
0.644599
0.6428
0.624621
0.566016
0.524527
0.59109
0.61233
0.586478
0.560696
0.486246
0.452583
0.534046
0.563523
0.54542
0.512936
0.426064
0.40384
0.495298
0.530623
0.517825
0.479698
0.384446
0.366645
0.465225
0.506048
0.495035
0.451635
0.350474
0.335624
0.438795
0.484631
0.474804
0.426736
0.32209
0.309759
0.415364
0.465462
0.45656
0.404658
0.298468
0.288119
0.394571
0.448064
0.439943
0.385083
0.278632
0.269928
0.376155
0.43217
0.424739
0.36778
0.26194
0.254621
0.359929
0.417614
0.410799
0.35258
0.247926
0.2418
0.34569
0.404265
0.397997
0.339231
0.2362
0.231085
0.333173
0.391984
0.386215
0.327494
0.226423
0.222177
0.322166
0.38068
0.375381
0.317175
0.218323
0.214833
0.312482
0.370291
0.365416
0.308072
0.211679
0.208828
0.30392
0.360742
0.356273
0.300016
0.206261
0.203956
0.29634
0.351978
0.347866
0.292882
0.201891
0.200043
0.289625
0.343922
0.340156
0.286564
0.198396
0.196934
0.28368
0.336544
0.333099
0.280968
0.195638
0.194489
0.278413
0.329805
0.326672
0.276011
0.193476
0.192585
0.273748
0.323676
0.320831
0.27162
0.191802
0.191112
0.269617
0.318118
0.31555
0.267735
0.190506
0.189978
0.265963
0.313101
0.310787
0.2643
0.189516
0.18911
0.262736
0.308587
0.306512
0.261271
0.188755
0.188448
0.259894
0.30454
0.302684
0.258605
0.188179
0.187944
0.257396
0.300923
0.299267
0.256265
0.187737
0.187558
0.255205
0.297698
0.296224
0.254214
0.187401
0.187263
0.25329
0.29483
0.293521
0.252426
0.18714
0.18704
0.251618
0.292284
0.291126
0.250869
0.186951
0.186886
0.250171
0.290032
0.289008
0.249524
0.186828
0.186792
0.248924
0.288043
0.287143
0.248373
0.186761
0.186749
0.247864
0.286294
0.2855
0.247398
0.186739
0.186748
0.246969
0.284754
0.284061
0.246583
0.186761
0.186791
0.24623
0.283409
0.2828
0.245911
0.186821
0.186869
0.245622
0.282229
0.281702
0.245369
0.186922
0.186992
0.245145
0.281207
0.280746
0.244948
0.187062
0.18715
0.244783
0.280309
0.279913
0.244644
0.187244
0.187356
0.244535
0.279539
0.279197
0.244445
0.187469
0.1876
0.244377
0.278876
0.278587
0.24433
0.187733
0.187884
0.244308
0.278332
0.278087
0.244297
0.188029
0.188193
0.244307
0.277889
0.277705
0.244329
0.188359
0.188542
0.244371
0.277555
0.27741
0.244416
0.188721
0.188913
0.244479
0.277297
0.277194
0.24455
0.189105
0.189311
0.244638
0.277119
0.277044
0.24473
0.189511
0.189723
0.244834
0.277002
0.276964
0.244948
0.189934
0.190156
0.245077
0.276951
0.276938
0.245207
0.190372
0.190597
0.24535
0.276949
0.276967
0.245499
0.190822
0.191057
0.245662
0.277008
0.277047
0.245826
0.191286
0.191523
0.246002
0.277108
0.277175
0.246184
0.191761
0.192008
0.246378
0.277262
0.277347
0.246572
0.19225
0.192498
0.246776
0.277452
0.277561
0.246987
0.192749
0.193008
0.247208
0.277689
0.277814
0.247429
0.193262
0.193522
0.247658
0.277956
0.278103
0.247894
0.193785
0.194055
0.248138
0.278265
0.278423
0.248382
0.194321
0.194592
0.248632
0.278597
0.278773
0.248888
0.194865
0.195144
0.249151
0.278964
0.27915
0.249413
0.195419
0.195698
0.24968
0.279349
0.27955
0.249951
0.195978
0.196264
0.250229
0.279764
0.27997
0.250507
0.196546
0.196832
0.250785
0.280194
0.280414
0.25107
0.197119
0.197409
0.251359
0.280647
0.280872
0.251649
0.197697
0.197987
0.251939
0.281113
0.28135
0.252233
0.198276
0.198569
0.25253
0.281596
0.281838
0.252826
0.198858
0.199149
0.253125
0.282089
0.282339
0.253425
0.199439
0.199732
0.253728
0.282596
0.282849
0.254029
0.20002
0.20031
0.254332
0.28311
0.283368
0.254636
0.200598
0.200888
0.254942
0.283634
0.283893
0.255247
0.201174
0.20146
0.255549
0.284163
0.284428
0.255855
0.201745
0.20203
0.256161
0.284699
0.284962
0.256466
0.202311
0.202592
0.256768
0.285236
0.285505
0.257073
0.202871
0.203151
0.257378
0.285779
0.286048
0.25768
0.203426
0.2037
0.257982
0.286321
0.286592
0.258284
0.203973
0.204245
0.258586
0.286868
0.287138
0.258885
0.204513
0.204779
0.259184
0.287411
0.287682
0.259481
0.205043
0.205307
0.259778
0.287956
0.288222
0.260073
0.205565
0.205823
0.260364
0.288497
0.288766
0.260656
0.206078
0.206332
0.260948
0.289037
0.289301
0.261236
0.20658
0.206828
0.261521
0.289572
0.289838
0.261806
0.207073
0.207317
0.26209
0.290106
0.290366
0.262372
0.207555
0.207792
0.26265
0.29063
0.290892
0.262927
0.208026
0.20826
0.263202
0.291155
0.291413
0.263475
0.208488
0.208714
0.263745
0.291671
0.291928
0.264014
0.208938
0.209161
0.26428
0.292188
0.292437
0.264546
0.209378
0.209594
0.264806
0.292692
0.292942
0.265067
0.209807
0.210018
0.265326
0.293193
0.293438
0.26558
0.210225
0.21043
0.265833
0.293684
0.293927
0.266084
0.210632
0.210833
0.266334
0.294171
0.294408
0.26658
0.211029
0.211224
0.266822
0.294649
0.294885
0.267064
0.211416
0.211607
0.267304
0.295122
0.295354
0.267541
0.211793
0.211978
0.267775
0.295585
0.295814
0.268007
0.21216
0.212341
0.268238
0.296043
0.296268
0.268465
0.212517
0.212691
0.26869
0.296491
0.296713
0.268912
0.212863
0.213034
0.269134
0.296933
0.297149
0.269351
0.2132
0.213365
0.269566
0.297364
0.297577
0.269778
0.213527
0.213688
0.269988
0.29779
0.297997
0.270198
0.213844
0.214
0.270402
0.298207
0.298412
0.270606
0.214153
0.214305
0.270809
0.298617
0.298817
0.271009
0.214454
0.214602
0.271205
0.299019
0.299217
0.2714
0.214746
0.214891
0.271594
0.299415
0.299607
0.271787
0.215032
0.215172
0.271974
0.299802
0.299993
0.272161
0.215309
0.215445
0.272346
0.300183
0.300368
0.27253
0.215578
0.215711
0.272709
0.300555
0.300738
0.272888
0.21584
0.215969
0.273065
0.300921
0.301099
0.273241
0.216095
0.21622
0.273411
0.301278
0.301454
0.273582
0.216342
0.216464
0.273751
0.301629
0.3018
0.273919
0.216582
0.2167
0.274081
0.301972
0.302141
0.274244
0.216815
0.21693
0.274405
0.302309
0.302473
0.274565
0.217042
0.217153
0.27472
0.302638
0.302799
0.274875
0.217262
0.217371
0.275029
0.30296
0.303117
0.275182
0.217477
0.217582
0.275331
0.303273
0.303428
0.275478
0.217685
0.217788
0.275623
0.303584
0.303734
0.275769
0.217888
0.217988
0.27591
0.303885
0.304032
0.276051
0.218085
0.218181
0.27619
0.304178
0.304321
0.276329
0.218276
0.218369
0.276463
0.304463
0.304604
0.276596
0.218461
0.218553
0.276727
0.304745
0.304881
0.276859
0.218642
0.21873
0.276987
0.305016
0.305151
0.277113
0.218816
0.218902
0.277238
0.305283
0.305415
0.277362
0.218987
0.219069
0.277483
0.305543
0.305671
0.277603
0.219151
0.219232
0.27772
0.305799
0.305922
0.27784
0.219311
0.219389
0.277953
0.306046
0.306167
0.278067
0.219465
0.219541
0.27818
0.306287
0.306405
0.278293
0.219615
0.219688
0.2784
0.306523
0.306638
0.278508
0.21976
0.219831
0.278615
0.306752
0.306865
0.27872
0.219901
0.219969
0.278823
0.306976
0.307085
0.278925
0.220036
0.220103
0.279026
0.307194
0.3073
0.279127
0.220168
0.220233
0.279222
0.307407
0.307509
0.27932
0.220295
0.220358
0.279415
0.307612
0.307715
0.279509
0.22042
0.22048
0.279601
0.307814
0.307914
0.279692
0.220539
0.220598
0.279782
0.308011
0.308109
0.279871
0.220656
0.220712
0.279958
0.308203
0.308296
0.280043
0.220767
0.220822
0.280127
0.308391
0.308481
0.280213
0.220876
0.220928
0.280295
0.30857
0.308659
0.280376
0.22098
0.221032
0.280455
0.308748
0.308834
0.280536
0.221082
0.221132
0.280612
0.30892
0.309004
0.280688
0.22118
0.221228
0.280764
0.309087
0.309168
0.280841
0.221275
0.221321
0.280912
0.309249
0.309329
0.280984
0.221366
0.221411
0.281056
0.309407
0.309484
0.281127
0.221455
0.221498
0.281195
0.309562
0.309637
0.281263
0.22154
0.221582
0.28133
0.309712
0.309784
0.281398
0.221623
0.221664
0.281461
0.309858
0.309929
0.281525
0.221703
0.221743
0.281589
0.31
0.310068
0.281653
0.22178
0.221819
0.281712
0.310138
0.310206
0.281773
0.221855
0.221892
0.281833
0.310273
0.310338
0.281893
0.221927
0.221963
0.281949
0.310404
0.310469
0.282006
0.221997
0.222032
0.282063
0.310532
0.310594
0.28212
0.222065
0.222098
0.282173
0.310657
0.310718
0.282227
0.22213
0.222162
0.28228
0.310778
0.310836
0.282334
0.222193
0.222224
0.282384
0.310896
0.310954
0.282435
0.222254
0.222284
0.282485
0.311011
0.311068
0.282535
0.222313
0.222342
0.282583
0.311123
0.311178
0.282631
0.22237
0.222398
0.282678
0.311232
0.311285
0.282727
0.222425
0.222453
0.282771
0.311339
0.311389
0.282817
0.222479
0.222505
0.28286
0.311442
0.311492
0.282906
0.22253
0.222556
0.282949
0.311542
0.311591
0.282991
0.22258
0.222605
0.283032
0.311642
0.311689
0.283075
0.222629
0.222653
0.283115
0.311738
0.311784
0.283155
0.222676
0.222699
0.283195
0.311831
0.311877
0.283235
0.222721
0.222744
0.283274
0.311922
0.311966
0.283312
0.222765
0.222787
0.28335
0.312011
0.312055
0.283387
0.222808
0.222829
0.283424
0.312097
0.31214
0.28346
0.22285
0.22287
0.283496
0.312182
0.312223
0.283531
0.22289
0.22291
0.283565
0.312263
0.312304
0.283599
0.222929
0.222948
0.283633
0.312344
0.312383
0.283667
0.222967
0.222985
0.283699
0.312422
0.31246
0.283731
0.223003
0.223021
0.283763
0.312498
0.312535
0.283795
0.223038
0.223056
0.283826
0.312572
0.312608
0.283856
0.223073
0.22309
0.283886
0.312644
0.31268
0.283916
0.223107
0.223123
0.283946
0.312715
0.31275
0.283975
0.223139
0.223155
0.284003
0.312783
0.312819
0.284032
0.223171
0.223186
0.284059
0.312851
0.312885
0.284087
0.223201
0.223217
0.284115
0.312918
0.31295
0.284142
0.223232
0.223247
0.284168
0.312982
0.313014
0.284195
0.223261
0.223276
0.284221
0.313045
0.313077
0.284247
0.223291
0.223305
0.284272
0.313107
0.313138
0.284297
0.223319
0.223333
0.284323
0.313168
0.313198
0.284347
0.223347
0.223361
0.284372
0.313227
0.313256
0.284396
0.223374
0.223388
0.28442
0.313286
0.313313
0.284446
0.223401
0.223415
0.284467
0.313343
0.313371
0.284491
0.223428
0.223441
0.284514
0.313399
0.313426
0.284538
0.223454
0.223467
0.284559
0.313455
0.313482
0.284582
0.22348
0.223493
0.284605
0.313509
0.313535
0.284629
0.223506
0.223519
0.284649
0.313563
0.31359
0.284672
0.223532
0.223545
0.284694
0.313617
0.313642
0.284718
0.223557
0.223571
0.284738
0.31367
0.313697
0.28476
0.223584
0.223598
0.284783
0.313723
0.31375
0.284805
0.223611
0.223624
0.284827
0.313776
0.313803
0.28485
0.223638
0.223653
0.284873
0.31383
0.313856
0.284897
0.223667
0.223682
0.284919
0.313883
0.31391
0.284943
0.223697
0.223713
0.284966
0.313938
0.313968
0.284991
0.22373
0.223746
0.285015
0.313994
0.314024
0.28504
0.223763
0.223781
0.285064
0.314055
0.314083
0.285091
0.223798
0.223816
0.285116
0.314113
0.314143
0.285142
0.223834
0.223854
0.28517
0.314174
0.314204
0.285198
0.223872
0.223893
0.285224
0.314236
0.314267
0.285252
0.223912
0.223932
0.285281
0.314299
0.314329
0.28531
0.223951
0.223971
0.285336
0.314361
0.314392
0.285363
0.22399
0.22401
0.285391
0.314423
0.314453
0.28542
0.224028
0.224046
0.285445
0.314484
0.314514
0.285471
0.224063
0.224081
0.285497
0.314543
0.314572
0.285522
0.224096
0.224112
0.285546
0.3146
0.314628
0.28557
0.224126
0.224142
0.285595
0.314656
0.314684
0.285618
0.224157
0.224174
0.285644
0.314713
0.314743
0.28567
0.224192
0.224215
0.285701
0.314777
0.314813
0.285731
0.224241
0.224289
0.285776
0.314857
0.314885
0.285822
0.22435
0.224431
0.285849
0.314935
0.314955
0.285822
0.224418
0.224596
0.286017
0.315332
0.316799
0.286856
0.225492
0.227492
0.288807
0.31942
0.321699
0.291001
0.229714
0.354575
0.37633
0.38822
0.393874
0.39999
0.405274
0.408988
0.412052
0.418206
0.422022
0.427353
0.431871
0.435491
0.438545
0.441076
0.443192
0.444959
0.446439
0.447685
0.448738
0.449631
0.450393
0.451045
0.451605
0.452089
0.452507
0.452872
0.45319
0.453469
0.453714
0.453931
0.454123
0.454294
0.454446
0.454582
0.454705
0.454815
0.454914
0.455004
0.455085
0.455158
0.455225
0.455285
0.455339
0.455388
0.455432
0.455471
0.455506
0.455537
0.455564
0.455588
0.455608
0.455625
0.455637
0.455646
0.45565
0.455652
0.455668
0.455673
0.455677
0.455683
0.455689
0.455695
0.455702
0.455709
0.455716
0.455722
0.455729
0.455736
0.455742
0.455748
0.455753
0.455757
0.45576
0.455762
0.455762
0.455761
0.455758
0.455752
0.455743
0.455732
0.455718
0.4557
0.455679
0.455655
0.455627
0.455595
0.45556
0.455522
0.455482
0.455441
0.455398
0.455357
0.455318
0.455283
0.455242
0.455186
0.455113
0.455026
0.454926
0.454816
0.454695
0.454566
0.454427
0.45428
0.454123
0.453956
0.45378
0.453594
0.453398
0.453191
0.452973
0.452744
0.452502