/*--------------------------------*- C++ -*----------------------------------*\
| =========                 |                                                 |
| \\      /  F ield         | OpenFOAM: The Open Source CFD Toolbox           |
|  \\    /   O peration     | Version:  v2006                                 |
|   \\  /    A nd           | Website:  www.openfoam.com                      |
|    \\/     M anipulation  |                                                 |
\*---------------------------------------------------------------------------*/
FoamFile
{
    version     2.0;
    format      ascii;
    class       volScalarField;
    location    "0.045";
    object      k;
}
// * * * * * * * * * * * * * * * * * * * * * * * * * * * * * * * * * * * * * //

dimensions      [0 2 -2 0 0 0 0];


internalField   nonuniform List<scalar> 
16277
(
78.7496
78.7513
78.7584
78.7604
78.7663
78.7592
78.7449
78.6989
78.5918
78.4186
78.1942
77.9435
77.6828
77.4194
77.1538
76.8835
76.6058
76.3184
76.0199
75.7098
75.3879
75.0545
74.7098
74.3542
73.9878
73.6108
73.2235
72.8261
72.419
72.0023
71.5766
71.1421
70.6994
70.2487
69.7907
69.3257
68.8543
68.3769
67.8941
67.4065
66.9144
66.4186
65.9195
65.4177
64.9138
64.4084
63.902
63.3952
62.8885
62.3827
61.8782
61.3756
60.8755
60.3785
59.8851
59.396
58.9116
58.4326
57.9594
57.4927
57.033
56.5808
56.1366
55.7008
55.2741
54.8568
54.4495
54.0524
53.6661
53.2909
52.9272
52.5754
52.2358
51.909
51.5954
51.2949
51.007
50.7302
50.462
50.1996
49.9431
49.6998
49.4913
49.3475
49.2827
49.2738
49.2883
49.3071
49.3186
49.3173
49.3069
49.2412
49.0904
48.8381
48.3207
47.4674
43.1345
38.68
45.3967
47.7158
46.0165
41.1649
34.5262
31.6356
38.9006
44.7181
42.2923
35.364
28.9187
27.2053
33.9423
41.2599
39.018
31.294
25.4441
24.3788
30.4098
38.2133
36.3911
28.5348
23.1884
22.4913
28.0231
35.8081
34.3541
26.7524
21.6584
21.1741
26.4176
33.9038
32.7074
25.4704
20.5479
20.1908
25.2381
32.358
31.3431
24.4891
19.6926
19.4169
24.3205
31.0635
30.1794
23.6997
19.0027
18.7797
23.5727
29.9498
29.1641
23.039
18.4218
18.234
22.9396
28.9712
28.2612
22.4663
17.916
17.7533
22.3851
28.0958
27.4453
21.9548
17.4642
17.3191
21.8862
27.3011
26.6989
21.4883
17.0514
16.9191
21.4289
26.5713
26.01
21.0566
16.6679
16.5451
21.0042
25.8958
25.3686
20.6529
16.3069
16.1914
20.606
25.2652
24.7674
20.272
15.9637
15.8538
20.2295
24.6734
24.2018
19.9103
15.6347
15.5292
19.8715
24.1164
23.6689
19.5653
15.3173
15.2152
19.5298
23.5913
23.1662
19.2356
15.0094
14.9101
19.203
23.0956
22.6907
18.9195
14.7096
14.6125
18.8894
22.6262
22.2395
18.6154
14.4165
14.3213
18.5874
22.1803
21.8097
18.3216
14.129
14.0352
18.2952
21.755
21.3988
18.0365
13.8459
13.7532
18.0112
21.3478
21.0043
17.7583
13.5664
13.4742
17.7339
20.9564
20.6242
17.4858
13.2893
13.1974
17.4618
20.579
20.2567
17.2176
13.0138
12.9219
17.1936
20.2136
19.9002
16.9524
12.7391
12.6469
16.9283
19.8588
19.5532
16.6893
12.4645
12.3717
16.6647
19.5132
19.2144
16.4274
12.1894
12.0958
16.4021
19.1753
18.8824
16.1658
11.9132
11.8185
16.1397
18.8441
18.5566
15.9039
11.6354
11.5396
15.8768
18.5188
18.2359
15.6413
11.3557
11.2587
15.6132
18.1985
17.9198
15.3775
11.0739
10.9758
15.3484
17.8826
17.6076
15.1124
10.79
10.691
15.0825
17.5705
17.2988
14.8462
10.5043
10.4045
14.8154
17.2617
16.9931
14.5785
10.2171
10.1168
14.5469
16.9559
16.69
14.3094
9.92898
9.82857
14.2771
16.6528
16.3895
14.0393
9.64076
9.54083
14.0066
16.3522
16.0915
13.7688
9.35362
9.2549
13.7359
16.0543
15.7962
13.4987
9.06911
8.97252
13.4662
15.7593
15.5043
13.2304
8.78919
8.69589
13.1989
15.4681
15.2166
12.9657
8.51634
8.42775
12.9358
15.1815
14.9341
12.7064
8.25353
8.17132
12.679
14.9005
14.6582
12.4549
8.00425
7.93044
12.431
14.6268
14.3908
12.2143
7.77258
7.7096
12.1951
14.3624
14.1343
11.9884
7.56305
7.51417
11.9739
14.1099
13.892
11.7807
7.38221
7.34872
11.7675
13.8721
13.665
11.5843
7.2376
7.21902
11.5738
13.6502
13.4551
11.4042
7.13133
7.12869
11.3976
13.4459
13.2641
11.2444
7.07123
7.08118
11.2424
13.2608
13.0947
11.1084
7.05418
7.07878
11.1102
13.0964
12.9459
10.9926
7.07139
7.1224
10.9981
12.9524
12.818
10.8933
7.13043
7.20885
10.9024
12.8299
12.7127
10.8124
7.23281
7.3348
10.8252
12.7291
12.6274
10.7511
7.37078
7.48958
10.7683
12.648
12.561
10.7105
7.53462
7.66555
10.7331
12.586
12.5141
10.6928
7.71758
7.85798
10.722
12.5437
12.4872
10.6975
7.91495
8.06159
10.7368
12.5215
12.4795
10.7193
8.12087
8.26967
10.7739
12.5218
12.489
10.7626
8.32936
8.47696
10.8308
12.5392
12.511
10.8247
8.53518
8.67833
10.9047
12.5724
12.548
10.9033
8.73338
8.86914
10.9927
12.6187
12.5976
10.9947
8.91976
9.04579
11.0917
12.6753
12.6559
11.0941
9.09112
9.20529
11.1926
12.737
12.7183
11.1949
9.24416
9.34476
11.2937
12.7999
12.7811
11.2954
9.37659
9.46294
11.3931
12.8607
12.841
11.3935
9.48762
9.55975
11.4879
12.916
12.8947
11.4867
9.57754
9.63628
11.5765
12.9634
12.94
11.5734
9.64774
9.69464
11.657
13.0013
12.9752
11.6517
9.70032
9.73631
11.728
13.0274
12.9987
11.7201
9.73714
9.76254
11.7881
13.0418
13.0087
11.7775
9.76003
9.77756
11.837
13.0452
13.0075
11.8238
9.77256
9.78389
11.8752
13.0381
12.9958
11.8596
9.7768
9.78428
11.9035
13.0223
12.974
11.8845
9.77411
9.77929
11.9222
12.9972
12.9426
11.8988
9.76455
9.7686
11.9324
12.9627
12.9026
11.905
9.7511
9.75434
11.9344
12.9201
12.855
11.9034
9.73449
9.737
11.9292
12.87
12.8005
11.8948
9.71472
9.71667
11.9171
12.8132
12.7397
11.8796
9.69266
9.69424
11.8987
12.7501
12.6733
11.8588
9.6687
9.66958
11.8749
12.6817
12.6023
11.8328
9.64265
9.64323
11.8471
12.6089
12.5267
11.8022
9.61575
9.61658
11.8154
12.5317
12.4473
11.7678
9.5886
9.58987
11.78
12.4507
12.3634
11.7309
9.56235
9.56401
11.7405
12.368
12.278
11.6872
9.53456
9.54659
11.6997
12.2853
12.2072
11.6883
9.53396
9.55702
11.6591
12.1961
12.178
11.698
9.59736
9.70479
11.4853
12.1286
12.8047
12.1966
10.2365
10.2197
10.8468
11.5259
13.7713
16.2948
18.9368
21.1676
22.709
24.7505
26.0452
27.1513
27.8996
28.4233
28.6706
28.6658
28.3952
27.792
26.9155
25.3843
24.2936
22.1072
20.1229
18.0174
15.8499
14.2344
12.596
12.5261
8.17414
7.93488
12.4863
12.5532
12.5257
12.4854
7.7273
7.57696
12.4974
12.5219
12.5786
12.5355
7.48187
7.48401
12.5606
12.6005
12.6336
12.5658
7.41436
7.41686
12.5845
12.6702
12.6933
12.6024
7.42578
7.43457
12.6119
12.7212
12.7395
12.6305
7.44689
7.45844
12.6464
12.7729
12.7889
12.662
7.47149
7.48485
12.6825
12.8243
12.8408
12.695
7.49792
7.51283
12.7198
12.8776
12.8948
12.7316
7.5256
7.54155
12.7568
12.9321
12.9496
12.7693
7.55513
7.57135
12.7937
12.9886
13.0065
12.8104
7.58563
7.60173
12.8312
13.0461
13.0646
12.8512
7.61751
7.63355
12.8725
13.1053
13.1243
12.8933
7.64949
7.66564
12.9132
13.1661
13.1858
12.9357
7.68246
7.69899
12.9573
13.2286
13.2489
12.9792
7.71547
7.73281
13.0005
13.2929
13.3139
13.0231
7.74992
7.76736
13.0466
13.359
13.3801
13.0692
7.7844
7.80221
13.0922
13.4265
13.4484
13.1166
7.82048
7.83804
13.1404
13.496
13.5186
13.1649
7.85644
7.87481
13.1924
13.5673
13.5905
13.2134
7.89316
7.91222
13.2423
13.6413
13.6651
13.2664
7.93062
7.9504
13.2984
13.7161
13.7404
13.3195
7.9689
7.98921
13.3525
13.7933
13.8182
13.3768
8.00759
8.02796
13.4117
13.8715
13.8967
13.4336
8.04662
8.06723
13.4693
13.9522
13.9783
13.4957
8.08616
8.10682
13.5327
14.0335
14.0597
13.5572
8.12607
8.14696
13.5953
14.1163
14.1429
13.6243
8.16604
8.18705
13.6646
14.1985
14.2248
13.6897
8.20556
8.22663
13.731
14.2806
14.3066
13.7604
8.24496
8.26553
13.803
14.361
14.3867
13.8297
8.28349
8.30354
13.8719
14.4405
14.4649
13.9026
8.32129
8.34083
13.9456
14.5146
14.5376
13.9724
8.3571
8.37581
14.0135
14.5845
14.6052
14.0424
8.39043
8.4076
14.0775
14.6449
14.6619
14.1064
8.42182
8.43625
14.1362
14.695
14.7082
14.1633
8.44948
8.46173
14.1828
14.7304
14.738
14.2044
8.47403
8.48467
14.2168
14.7484
14.7497
14.2254
8.49476
8.50459
14.2291
14.7519
14.7382
14.2234
8.51367
8.52296
14.2102
14.7331
14.7018
14.1891
8.53224
8.54198
14.1586
14.6869
14.6369
14.1097
8.55315
8.56667
14.0577
14.6135
14.5458
13.9867
8.58275
8.60254
13.9037
14.5123
14.4276
13.8078
8.6293
8.66293
13.7005
14.3851
14.2869
13.5751
8.70595
8.76035
13.4444
14.2381
14.1313
13.2783
8.82506
8.91006
13.1303
14.0803
13.9784
12.94
9.00716
9.1343
12.7704
13.9302
13.839
12.5592
9.28147
9.47241
12.3742
13.7987
13.7383
12.1389
9.69555
9.9521
11.9733
13.72
13.6983
11.8622
10.1772
10.3917
11.6548
13.6944
13.6791
11.4344
10.6113
10.7641
11.2901
13.7714
13.7649
11.2362
10.9242
11.0696
10.9903
13.9095
13.9575
10.9176
11.228
11.3762
10.8807
14.2125
14.3373
10.8994
11.4864
11.609
11.086
14.7441
14.9356
11.1804
11.7663
11.9395
11.5635
15.4875
15.8198
11.9867
12.0735
12.288
12.9302
16.6513
16.9491
13.5733
12.5072
10.8096
9.76922
10.5481
14.382
11.4763
11.1531
10.9881
10.7686
14.2122
14.4062
10.5962
11.2796
11.5226
10.3098
14.1923
14.6259
10.3614
11.7652
11.9879
10.289
14.6244
15.3791
10.6616
12.2025
12.3954
10.7694
15.4394
16.5322
11.5292
12.6109
12.8123
11.9126
16.9458
18.6919
13.3007
13.144
13.4612
14.1619
19.353
10.9748
9.60492
12.3483
12.6416
11.594
16.6106
16.9387
11.4785
12.4282
12.5894
12.3608
18.7476
19.2706
12.6201
12.6973
12.8931
13.6093
20.7465
21.4375
14.198
13.2165
13.8239
15.8576
23.2871
23.7038
16.9659
14.561
13.2079
10.5845
12.9493
20.6418
13.1408
13.0275
13.0529
13.1593
21.0593
23.1054
14.4651
13.4153
13.714
14.902
23.5004
26.3829
17.3805
14.4654
15.3816
19.1811
27.2896
15.054
11.5622
13.3665
13.8224
15.26
25.2103
26.5277
16.0884
13.8397
14.6143
19.275
30.6083
32.2196
21.206
15.4451
17.0299
24.4106
33.994
19.3261
13.5864
13.7984
14.7009
19.3203
32.2086
33.2702
20.2325
14.9833
16.7193
26.1004
39.182
41.0337
29.1406
18.1944
14.3167
16.013
25.2366
41.8799
25.7719
16.2208
17.0748
28.0625
44.7291
53.3459
37.4547
20.2007
21.6668
40.3811
55.0118
39.0403
23.6112
16.499
21.2945
43.0743
60.4247
63.1843
47.1681
23.525
17.7297
28.3097
49.058
74.3981
56.0533
25.5165
29.1804
62.7764
79.3684
70.9048
44.0834
19.5026
37.6908
81.3865
94.1089
87.6735
63.0806
20.0576
38.0463
89.8567
105.756
107.532
89.6302
37.5712
39.4153
87.8806
105.519
101.701
86.3212
42.8124
56.0202
95.7958
102.218
77.8091
53.7672
38.8716
45.1923
71.1101
82.5193
58.2502
41.9149
31.8277
33.4244
51.8223
65.2204
59.3225
43.214
29.647
23.7026
24.7058
36.491
48.4208
37.3605
27.0372
22.761
24.745
32.8183
43.1291
32.0851
24.0619
21.7331
27.7264
39.5558
23.7549
18.1853
20.1714
21.248
24.9516
35.1132
32.0787
22.0146
19.4475
18.8922
15.4414
19.1379
29.5451
20.7983
19.3873
18.1738
18.8418
26.8539
16.4172
14.0532
18.0635
18.0298
18.0111
25.4699
22.8902
16.5515
17.3148
17.5899
12.9522
14.3731
22.0969
16.0057
16.9696
16.5499
14.7366
19.9119
12.7723
11.8968
17.12
16.0995
14.4821
19.5776
17.6112
13.3666
15.8428
16.6665
11.0931
11.6237
17.5879
13.2059
15.34
15.2484
12.214
15.9261
10.7471
10.3924
16.1418
14.7585
12.5107
16.3937
14.057
11.3392
14.594
15.0058
10.3049
12.2136
9.16104
9.36502
15.6977
13.766
10.0665
12.4661
11.4839
9.45244
14.3697
16.0862
8.50047
8.42264
11.3342
9.11244
13.5319
14.0427
8.92929
10.5038
7.97049
8.44753
15.1637
12.7887
8.44539
10.0628
9.46897
8.31546
13.5052
15.3854
7.77632
7.31573
9.43017
7.98671
12.8155
13.5064
8.01345
8.87309
7.05893
7.54989
15.3728
12.6057
7.5076
8.66544
8.21357
7.45155
13.2788
14.7623
7.79088
6.72518
8.09593
7.19735
12.0871
12.9775
7.06662
7.6492
6.463
7.80651
14.579
12.1202
6.88466
7.47716
7.18308
6.74767
13.1996
14.8205
7.86669
6.17099
7.09912
6.80893
12.3812
14.1667
7.02901
6.02373
7.69927
6.78109
11.7745
12.6697
6.77722
7.24621
6.27405
7.45799
14.5548
11.9641
6.77899
7.36123
7.01394
6.70837
12.8814
14.7366
7.44326
6.13587
7.25198
6.72953
12.0339
12.9731
6.57565
6.84711
6.11266
7.71718
14.9886
12.2671
6.52793
6.69946
6.38311
6.31697
13.2834
15.25
7.82714
5.88007
6.3369
6.32715
12.282
13.4575
6.13247
5.98042
5.72432
8.3072
15.3204
12.5307
5.85832
6.00612
5.47138
7.16009
14.7627
12.0943
5.98729
6.08279
5.69156
5.83945
13.1252
15.1478
7.76784
5.51707
5.8515
5.94005
12.3336
13.515
5.7783
5.33805
5.40008
8.37137
15.5117
12.5926
5.44889
5.38573
5.06897
7.01097
14.908
11.9982
5.58908
5.5307
5.14701
5.54239
13.1538
15.3868
7.84073
5.21121
5.52196
5.71767
12.4687
13.7953
5.65999
5.07565
5.27961
8.54601
15.9419
12.961
5.25489
5.09953
4.89718
7.07907
15.4219
12.3287
5.4125
5.27457
4.85779
5.41634
13.6089
15.9751
8.04566
5.02973
5.15418
5.47922
12.8505
14.3362
5.45707
4.70747
5.10536
8.32109
17.5438
13.5835
4.79605
4.69523
4.74946
7.24414
15.8556
12.4503
5.12249
4.95409
4.56411
5.25541
13.8916
16.3346
8.63362
4.97729
4.63555
4.90677
13.1729
16.1169
7.21667
4.66133
4.85543
5.08321
12.7223
14.1946
5.15298
4.46955
4.97286
8.60937
17.0393
13.5075
4.88215
4.58331
4.65956
7.33709
16.1401
12.6813
5.05004
4.8129
4.45657
5.2189
14.3065
17.4852
8.78154
5.00135
4.60353
4.86024
13.77
16.7068
7.53501
4.71831
4.84093
5.09039
13.099
14.7167
5.2946
4.48032
5.0675
9.16582
17.3602
13.8949
4.98127
4.60585
4.72025
7.59363
16.9938
13.4638
5.10329
4.80943
4.44108
5.27203
15.2347
18.9959
9.12697
5.12545
4.57288
4.77728
14.726
17.8949
8.38121
4.97522
4.61816
4.69319
13.9964
16.6926
7.65906
4.77544
4.86106
5.12025
13.2785
14.991
5.38893
4.53567
5.20878
9.42706
18.2345
14.4929
5.0702
4.68881
4.87795
8.03431
17.803
14.0309
5.23154
4.91047
4.54186
5.50169
15.9316
19.9842
9.61423
5.31815
4.66901
4.95144
15.5548
18.8228
8.74285
5.13271
4.68769
4.80069
14.8464
17.6431
7.95363
4.88604
4.91701
5.23577
13.9471
15.7978
5.47861
4.58158
5.37874
10.1129
19.008
15.3048
5.26624
4.7916
5.2472
8.82799
19.0729
15.073
4.8303
4.78259
5.02922
8.28177
18.1061
14.3964
5.35816
5.03726
4.71331
5.74106
16.3139
19.9862
10.1945
5.55222
4.89413
5.27688
15.8891
19.6891
9.115
5.40298
4.88789
4.97792
15.494
18.6295
8.5619
5.16495
5.12744
5.48808
14.7148
16.6681
5.83093
4.80165
5.68322
10.7024
20.1881
16.1942
5.55023
5.03047
5.56256
9.4154
20.1231
16.0042
5.15911
5.01688
5.33898
8.87708
19.1634
15.1924
5.63846
5.24186
4.92019
6.03157
17.319
20.8643
11.1566
5.87574
5.19315
5.72241
17.1166
21.3774
9.78383
5.78291
5.12057
5.19597
16.794
20.2063
9.24865
5.4988
5.30121
5.74611
15.8326
17.9425
6.12488
4.96638
5.98639
11.574
21.3936
17.3169
5.89795
5.27045
5.90464
10.1255
21.7519
16.978
5.29824
5.19959
5.76505
9.55292
20.7567
16.5203
5.30735
5.17105
5.62471
9.48034
20.0461
15.8823
5.86657
5.41963
5.12993
6.38692
18.1578
23.0413
11.7348
6.28025
5.41334
5.93313
18.3289
22.8092
10.4347
6.10349
5.37851
5.54464
17.9734
21.7021
10.0048
5.9944
5.34845
5.54126
17.133
20.7497
9.92543
5.84531
5.58082
6.10127
16.5021
18.8366
6.52024
5.26726
6.43254
12.3218
22.9232
18.6103
6.3043
5.61299
6.35452
10.9083
23.5708
18.4863
5.71917
5.5577
6.20785
10.3242
22.4575
17.7874
5.70128
5.51609
6.0628
10.334
21.4839
17.1244
6.32879
5.73839
5.45614
6.81841
19.4784
23.6473
12.8518
6.72931
5.79779
6.56771
19.3716
24.5591
11.3376
6.62262
5.74724
5.90668
19.3495
23.7259
10.9054
6.48734
5.713
5.97213
18.7486
22.7193
10.8132
6.3064
5.88976
6.52172
17.9231
20.5252
7.11013
5.60012
7.09068
13.1139
26.2017
20.6485
6.53307
5.94609
6.83059
11.6382
25.4332
19.8749
6.01096
5.88132
6.70891
11.2457
24.3236
19.3858
6.14447
5.8736
6.65649
11.1328
23.8608
19.047
6.22548
5.89112
6.56431
11.1479
23.1402
18.5771
6.88185
6.10786
5.8577
7.47568
21.2699
25.9129
14.1935
7.39047
6.2221
7.13005
21.3251
26.9703
12.4287
7.28074
6.17493
6.40731
21.1034
25.7131
11.8597
7.07356
6.11925
6.39758
20.3314
24.9447
11.6796
6.95595
6.12629
6.51619
19.9863
24.2922
11.6948
6.81896
6.34103
7.13475
19.3114
22.0248
7.66836
6.05894
7.69654
14.5339
27.0496
21.6331
7.33889
6.46451
7.61425
12.9819
27.5265
21.6005
6.78217
6.47797
7.43535
12.3651
26.6304
21.0954
6.73738
6.4401
7.36012
12.263
25.8286
20.6909
6.91815
6.47732
7.23145
12.1891
25.1705
20.1827
7.52123
6.66308
6.41591
8.19072
23.06
28.1735
15.4336
8.15855
6.77534
7.83955
23.0797
29.3825
13.6206
8.02956
6.73307
7.07233
23.2774
28.5282
13.0095
7.85366
6.68034
6.97748
22.5579
27.5717
12.8487
7.7113
6.68598
7.12025
21.9133
26.469
12.8784
7.55795
6.90991
7.83054
21.003
24.0731
8.51798
6.64954
8.52851
16.0838
29.6244
23.954
8.14122
7.03343
8.41008
14.2362
30.4763
23.9544
7.37206
7.00377
8.17832
13.5016
29.3687
23.2988
7.3159
6.97419
8.11188
13.3786
28.5429
22.8415
7.49936
7.0014
7.96907
13.4809
27.7512
22.1523
8.235
7.20242
6.96939
9.05488
25.5544
31.2869
17.1824
9.06408
7.36998
8.61646
25.537
32.5533
15.1843
8.95968
7.26267
7.76038
25.4686
31.1758
14.3188
8.63833
7.20716
7.63805
24.762
30.3538
14.1129
8.51244
7.24876
7.74715
24.2064
29.6439
14.1077
8.51045
7.31856
7.94024
23.7364
28.8623
14.1457
8.33186
7.53204
8.59765
22.8472
26.4353
9.40557
7.2904
9.5523
17.6714
33.3568
26.4809
8.88258
7.72896
9.29743
15.6169
33.2505
26.0442
8.11335
7.658
9.07426
14.9184
31.8779
25.232
8.16157
7.67785
9.02694
14.8465
30.8639
24.7215
8.43915
7.75655
8.89237
14.7561
30.0162
23.9793
9.05892
7.92189
7.69161
9.95468
27.8347
34.701
18.7727
10.1358
8.1557
9.52289
27.8109
35.1175
16.6377
9.93596
8.01939
8.66642
27.7655
34.0436
15.8379
9.61984
7.95685
8.53928
26.9762
32.8715
15.607
9.4956
7.98066
8.71189
26.2741
32.0851
15.604
9.29259
8.149
9.42184
25.342
29.4695
10.3529
7.90669
10.6392
19.7506
37.1992
29.347
9.87831
8.42597
10.2992
17.3345
36.6414
28.695
8.97655
8.30288
10.0132
16.4874
34.9843
27.74
8.94818
8.26507
9.88554
16.2702
34.0729
27.1869
9.12267
8.32144
9.72941
16.2969
33.3698
26.5089
9.86559
8.49782
8.28096
10.9499
30.936
38.6488
20.9126
11.1872
8.87367
10.519
30.9126
39
18.5092
10.9921
8.73979
9.59044
30.5387
37.4699
17.6896
10.6641
8.67925
9.5392
29.5756
36.41
17.3958
10.5348
8.70098
9.64615
28.9313
35.6953
17.3795
10.2983
8.86735
10.3699
28.2601
32.9566
11.4511
8.63045
11.7514
22.0015
40.8925
32.5315
11.0639
9.27178
11.4908
19.3841
40.4856
31.6554
10.0889
9.1675
11.1877
18.4415
39.0599
30.7662
10.056
9.14395
10.9837
18.4588
38.2436
30.4301
11.0226
9.26031
9.04733
12.2438
35.6073
43.6914
23.8733
12.6457
9.74776
11.9197
34.8497
43.6403
20.7196
12.2649
9.54411
10.6004
34.1035
42.0734
19.733
11.8433
9.43164
10.5191
32.7693
40.4454
19.4985
11.4757
9.49676
11.3756
31.8384
37.3417
12.6489
9.27167
13.1868
24.7413
46.9882
36.7835
12.0432
10.0386
12.6519
21.4572
45.8611
35.3216
10.8394
9.84777
12.3135
20.5651
44.0286
34.5802
11.0106
9.83019
12.1271
20.6414
42.9246
33.8687
12.0644
9.91264
9.73835
13.5421
39.8186
48.429
26.6588
14.0205
10.4895
13.1622
38.3734
48.625
23.0089
13.5048
10.318
11.5497
37.5713
46.671
21.829
13.0085
10.2057
11.553
36.4857
45.4447
21.6976
12.62
10.2702
12.5048
35.8749
42.1783
13.8822
10.0576
14.5457
27.546
51.6817
40.4447
13.4997
10.9521
14.146
24.334
51.2046
39.6007
12.2998
10.8622
13.732
23.0473
49.362
38.7014
12.2188
10.8416
13.5206
23.1173
48.2893
38.2337
13.435
10.9289
10.7713
15.096
45.0035
55.2507
29.8057
15.8099
11.726
14.6369
43.1411
54.1813
25.8331
15.1479
11.4828
13.1564
41.898
52.2543
24.7055
14.4188
11.3562
13.9638
40.9476
47.94
15.2797
11.1535
16.5569
31.835
59.0014
45.4616
15.4078
12.1284
15.9137
27.3575
57.3175
44.3964
13.749
12.0177
15.3701
25.9866
55.5848
43.4444
13.6298
11.9766
15.0697
25.976
54.3072
42.739
14.8834
12.0249
11.9099
16.7874
50.2158
62.4263
33.6059
17.7809
13.0483
16.4838
48.3905
60.9646
29.165
17.0607
12.8727
14.8302
47.3021
59.1652
28.0114
16.288
12.7484
15.7595
45.8972
54.0699
17.5932
12.5789
18.8937
35.8283
67.7564
52.4572
17.3261
13.778
18.127
31.2539
65.7116
50.7685
15.8447
13.5947
17.305
29.8839
63.0878
49.3282
16.7497
13.4653
13.3678
18.8695
57.6997
71.2867
38.3663
20.1743
14.5856
18.7166
54.8638
68.7784
33.4574
19.0889
14.2333
17.7712
53.088
62.1402
19.7002
14.0519
21.2833
40.2549
77.0592
58.4307
19.1151
15.27
20.482
35.4481
74.1122
57.0306
17.7591
14.9512
19.4115
33.7274
71.0245
55.4896
18.6392
14.704
14.6109
21.1067
64.9926
80.0987
42.7462
22.477
15.94
20.6175
61.9308
77.4015
37.043
21.085
15.3279
19.3279
59.5755
69.5134
21.3982
15.1619
23.4596
44.837
85.8472
65.6072
21.1578
16.5293
22.0671
38.9237
82.1941
62.7707
20.5148
15.9399
15.8031
23.0593
73.9738
92.4512
48.4413
25.1082
17.3723
22.4089
69.9129
87.0408
41.5824
23.4023
16.4934
21.2063
66.2932
77.2555
23.5714
16.3402
25.8185
49.7831
94.9259
72.4338
23.1995
17.8264
24.185
42.8309
90.3344
69.2723
22.0837
17.1044
16.9895
24.641
81.1027
100.737
52.3881
27.0536
18.6276
23.3858
74.6674
95.3062
45.4643
25.4886
17.6892
23.2913
72.7893
85.0359
25.6811
17.5429
28.204
54.7157
106.033
80.2972
25.0715
19.3046
26.2548
46.9137
99.6889
76.1832
23.9393
18.4195
18.3105
26.6638
88.6007
109.035
57.1895
29.3336
20.0464
26.3978
82.8326
103.414
48.9722
27.285
19.0572
24.8915
78.1753
90.4012
26.5384
18.8208
29.8771
59.704
114.333
86.6209
28.1259
20.2982
20.0518
30.3053
100.317
124.707
64.3504
32.9589
22.1212
28.9513
93.9527
115.888
54.2483
30.3057
20.6834
27.0212
87.8352
101.387
30.0089
20.5965
32.7552
65.1858
124.495
94.5147
31.0143
22.0328
21.6035
31.6629
108.441
136.772
69.7676
34.9792
22.8967
32.2158
102.305
117.979
33.8375
22.4857
37.6038
74.288
145.907
108.173
32.4567
24.678
34.1911
61.7643
132.142
99.0911
30.2003
22.9171
22.8193
33.3996
113.734
138.97
73.0204
36.4412
24.228
34.3338
104.681
119.484
34.6076
23.76
38.3508
76.4197
150.751
112.562
35.3266
25.086
24.7006
37.3659
129.285
159.07
81.8529
40.4224
26.1269
37.4119
117.91
133.974
38.8048
25.7032
41.7497
83.6032
162.921
121.397
38.2546
26.8417
26.4835
39.8216
138.526
170.254
85.9405
42.9163
27.3771
38.9455
126.151
142.386
46.1169
27.8388
28.0785
50.2876
165.123
198.759
102.621
49.4811
29.7561
44.089
144.435
162.797
44.6018
28.9964
47.7363
96.753
196.838
143.255
42.3263
29.2064
29.0229
46.4044
159.22
182.998
51.8018
29.192
52.921
113.048
223.951
160.923
46.5564
30.8911
31.1814
53.3791
177.005
201.696
57.5633
31.5034
56.3824
120.916
234.817
165.524
48.774
32.2679
32.0642
53.8878
185.858
212.976
58.7927
31.8916
57.4815
124.889
256.232
180.829
50.3789
32.501
31.2696
48.8394
196.861
227.84
68.9857
33.4312
32.2158
57.9597
238.155
296.391
139.734
63.4311
34.5701
54.2949
206.639
223.674
55.4127
33.4008
33.6237
68.3792
248.639
268.039
61.4261
31.851
33.8243
78.8737
290.184
304.44
75.4294
31.8124
64.224
150.563
340.802
214.903
53.8862
32.6239
31.0149
53.0259
225.901
247.494
65.5191
30.8484
30.0693
65.0586
263.44
275.259
66.988
29.5868
29.4446
72.2319
276.343
273.051
75.4708
29.3521
29.325
78.4124
265.369
252.713
82.277
29.4453
29.5868
85.2674
239.15
225.588
89.0261
29.9747
30.3578
92.7685
212.502
200.23
97.6559
31.1907
31.8766
102.39
189.065
179.004
106.981
33.2034
34.2236
111.398
169.992
161.94
115.686
35.8862
37.1962
119.815
154.736
148.352
123.78
39.1718
41.035
127.133
142.672
137.665
130.308
43.5439
45.832
132.993
133.223
129.315
135.626
48.6785
51.054
138.079
125.873
122.863
140.463
53.9822
56.4053
142.639
120.235
117.95
144.724
59.3846
61.8561
146.577
115.95
114.241
148.353
64.8973
67.4284
149.913
112.763
111.523
151.411
70.5127
73.1015
152.682
110.451
109.553
153.865
76.2535
78.8951
154.817
108.781
108.138
155.668
82.0973
84.6665
156.336
107.593
107.146
156.931
87.7244
90.1388
157.357
106.766
106.464
157.728
93.0179
95.2486
157.933
106.203
106
158.111
97.9259
99.9407
158.124
105.822
105.684
158.092
102.371
104.128
157.986
105.561
105.476
157.852
106.295
107.795
157.568
105.392
105.336
157.36
109.705
110.979
156.971
105.291
105.256
156.677
112.656
113.717
156.213
105.231
105.205
155.839
115.161
116.007
155.314
105.188
105.158
154.872
117.214
117.857
154.302
105.136
105.094
153.806
118.837
119.296
153.21
105.063
105.005
152.675
120.074
120.383
152.071
104.964
104.893
151.516
120.979
121.177
150.922
104.844
104.761
150.362
121.617
121.742
149.789
104.704
104.614
149.233
122.045
122.11
148.681
104.55
104.452
148.136
122.299
122.313
147.605
104.38
104.277
147.075
122.389
122.369
146.563
104.199
104.093
146.057
122.375
122.309
145.562
104.009
103.902
145.085
122.285
122.171
144.61
103.815
103.708
144.161
122.11
121.93
143.706
103.621
103.514
143.278
121.844
121.622
142.842
103.428
103.321
142.431
121.52
121.271
142.017
103.235
103.129
141.622
121.16
120.9
141.233
103.045
102.939
140.853
120.786
120.528
140.49
102.856
102.753
140.127
120.409
120.162
139.793
102.673
102.573
139.446
120.043
119.82
139.138
102.496
102.399
138.811
119.7
119.498
138.532
102.326
102.234
138.225
119.39
119.209
137.972
102.166
102.077
137.687
119.111
118.953
137.461
102.015
101.932
137.201
118.869
118.736
136.999
101.876
101.798
136.764
118.666
118.556
136.586
101.749
101.678
136.375
118.501
118.415
136.221
101.636
101.571
136.033
118.374
118.31
135.901
101.537
101.479
135.734
118.283
118.241
135.623
101.452
101.401
135.475
118.227
118.205
135.385
101.38
101.338
135.256
118.204
118.201
135.183
101.323
101.29
135.071
118.214
118.226
135.015
101.279
101.257
134.919
118.249
118.28
134.877
101.251
101.237
134.797
118.309
118.356
134.765
101.235
101.231
134.702
118.393
118.453
134.679
101.234
101.236
134.631
118.496
118.569
134.615
101.245
101.252
134.582
118.617
118.701
134.573
101.268
101.279
134.552
118.753
118.846
134.55
101.303
101.317
134.543
118.902
119.004
134.547
101.347
101.366
134.548
119.063
119.171
134.559
101.401
101.424
134.565
119.233
119.347
134.585
101.464
101.49
134.595
119.41
119.528
134.623
101.534
101.564
134.637
119.593
119.715
134.673
101.611
101.644
134.691
119.781
119.906
134.733
101.694
101.73
134.754
119.973
120.1
134.802
101.784
101.822
134.825
120.167
120.296
134.879
101.878
101.918
134.904
120.362
120.492
134.962
101.976
102.019
134.99
120.558
120.688
135.052
102.079
102.124
135.081
120.753
120.882
135.146
102.186
102.233
135.177
120.946
121.074
135.245
102.296
102.345
135.277
121.137
121.262
135.347
102.409
102.459
135.38
121.324
121.446
135.451
102.525
102.577
135.485
121.506
121.626
135.557
102.643
102.696
135.591
121.684
121.801
135.664
102.763
102.817
135.699
121.857
121.97
135.772
102.884
102.939
135.807
122.024
122.134
135.881
103.007
103.061
135.916
122.186
122.292
135.99
103.13
103.184
136.024
122.342
122.444
136.098
103.253
103.308
136.133
122.492
122.591
136.207
103.377
103.432
136.241
122.637
122.733
136.315
103.5
103.555
136.35
122.777
122.869
136.423
103.624
103.678
136.457
122.911
122.999
136.529
103.747
103.801
136.563
123.039
123.124
136.635
103.87
103.924
136.669
123.163
123.244
136.74
103.993
104.047
136.773
123.28
123.358
136.843
104.116
104.17
136.875
123.393
123.467
136.944
104.239
104.294
136.976
123.499
123.57
137.044
104.363
104.417
137.075
123.6
123.667
137.141
104.488
104.542
137.172
123.696
123.759
137.238
104.613
104.667
137.268
123.786
123.846
137.333
104.739
104.793
137.363
123.871
123.928
137.427
104.865
104.919
137.457
123.952
124.006
137.521
104.991
105.045
137.55
124.028
124.079
137.614
105.116
105.169
137.643
124.1
124.146
137.706
105.24
105.291
137.735
124.166
124.212
137.797
105.361
105.41
137.826
124.227
124.279
137.892
105.481
105.529
137.921
124.296
124.338
137.98
105.598
105.641
138.009
124.354
124.394
138.078
105.715
105.75
138.096
124.409
124.442
138.156
105.864
105.896
138.171
124.448
124.464
138.232
105.988
106.018
138.252
124.508
124.521
138.109
106.126
106.025
137.83
124.68
124.447
137.413
106.304
107
137.218
124.325
124.382
137.597
107.412
116.116
72.1563
43.2317
40.4521
41.3894
45.6078
49.1544
54.7768
56.9124
63.8593
67.6863
68.8068
68.9704
68.4435
67.9126
67.6048
67.5063
67.5453
67.6538
67.7886
67.9269
68.0576
68.176
68.2806
68.3714
68.4493
68.5144
68.568
68.6096
68.6404
68.6609
68.673
68.6785
68.6856
68.6986
68.7178
68.743
68.773
68.8078
68.8463
68.8891
68.9364
68.9889
69.0477
69.1139
69.2047
69.3517
69.5688
69.8336
70.1104
70.3766
70.6236
70.8501
71.0574
71.247
71.4199
71.5772
71.7195
71.8476
71.9621
72.0643
72.1554
72.2369
72.3103
72.3771
72.4384
72.4954
72.5492
72.6004
72.65
72.6986
72.7469
72.7955
72.8451
72.896
72.9488
73.004
73.0619
73.1228
73.187
73.2547
73.326
73.4009
73.4794
73.5614
73.6466
73.7349
73.8258
73.9191
74.0143
74.1111
74.2089
74.3075
74.4064
74.5051
74.6034
74.701
74.7974
74.8926
74.9861
75.0779
75.1678
75.2556
75.3412
75.4245
75.5055
75.5842
75.6605
75.7345
75.8061
75.8754
75.9423
76.0071
76.0696
76.13
76.1883
76.2447
76.299
76.3515
76.4022
76.4511
76.4984
76.544
76.5881
76.6307
76.6719
76.7117
76.7503
76.7876
76.8237
76.8587
76.8926
76.9256
76.9575
76.9886
77.0188
77.0481
77.0767
77.1045
77.1316
77.1581
77.1839
77.2092
77.2339
77.258
77.2817
77.305
77.3278
77.3502
77.3722
77.3939
77.4153
77.4364
77.4572
77.4778
77.4982
77.5183
77.5383
77.5582
77.5779
77.5975
77.617
77.6365
77.6559
77.6753
77.6948
77.7142
77.7337
77.7533
77.773
77.7929
77.8129
77.833
77.8534
77.8741
77.895
77.9162
77.9378
77.9597
77.9821
78.0049
78.0282
78.052
78.0764
78.1014
78.1271
78.1535
78.1807
78.2086
78.2375
78.2673
78.2981
78.3299
78.3628
78.3968
78.4319
78.4681
78.5051
78.5428
78.5803
78.617
78.6514
78.6817
78.7051
78.7206
78.7282
78.7343
78.7411
78.74
78.7391
78.735
78.7188
78.6762
78.5845
78.4316
78.225
77.9845
77.7276
77.4639
77.1957
76.922
76.6407
76.3498
76.0482
75.7353
75.411
75.0754
74.7286
74.3711
74.003
73.6244
73.2357
72.837
72.4288
72.0111
71.5845
71.1493
70.7059
70.2547
69.7962
69.3308
68.859
68.3813
67.8982
67.4102
66.9179
66.4219
65.9226
65.4206
64.9166
64.411
63.9044
63.3975
62.8908
62.3848
61.8802
61.3775
60.8773
60.3802
59.8869
59.3977
58.9133
58.4342
57.961
57.4942
57.0344
56.5821
56.1378
55.7019
55.2751
54.8576
54.4501
54.0529
53.6664
53.291
52.9271
52.5752
52.2358
51.9092
51.5958
51.2958
51.0086
50.7331
50.4673
50.2101
49.9632
49.7353
49.5447
49.4108
49.3366
49.3027
49.285
49.2674
49.2228
49.056
48.2002
46.6684
45.5497
45.1397
43.9832
43.6595
42.5209
42.2625
41.1717
40.972
39.9208
39.771
38.759
38.6513
37.677
37.6047
36.6657
36.6232
35.7167
35.6994
34.824
34.8271
33.9847
34.0012
33.1864
33.215
32.4267
32.4668
31.7045
31.7562
31.0199
31.0821
30.3698
30.4412
29.751
29.8301
29.1599
29.2456
28.5937
28.6849
28.0497
28.1455
27.5258
27.6254
27.0199
27.1229
26.5306
26.6362
26.0559
26.1636
25.5944
25.7036
25.1446
25.2548
24.7053
24.8163
24.2757
24.3871
23.8547
23.9661
23.4414
23.5525
23.0349
23.1454
22.6344
22.7441
22.2394
22.3479
21.8492
21.9565
21.4634
21.5692
21.0816
21.1858
20.7036
20.8059
20.3292
20.4296
19.9589
20.0576
19.5933
19.6904
19.2334
19.3293
18.8807
18.9758
18.5373
18.6322
18.2057
18.3015
17.8899
17.9876
17.5932
17.6935
17.3182
17.4223
17.0682
17.1767
16.844
16.9582
16.6507
16.7734
16.4947
16.6272
16.3741
16.5164
16.2861
16.4376
16.2283
16.3889
16.1989
16.3684
16.1955
16.3731
16.2147
16.3992
16.2471
16.4406
16.294