/*--------------------------------*- C++ -*----------------------------------*\
| =========                 |                                                 |
| \\      /  F ield         | OpenFOAM: The Open Source CFD Toolbox           |
|  \\    /   O peration     | Version:  v2006                                 |
|   \\  /    A nd           | Website:  www.openfoam.com                      |
|    \\/     M anipulation  |                                                 |
\*---------------------------------------------------------------------------*/
FoamFile
{
    version     2.0;
    format      ascii;
    class       volScalarField;
    location    "0.01";
    object      rho;
}
// * * * * * * * * * * * * * * * * * * * * * * * * * * * * * * * * * * * * * //

dimensions      [1 -3 0 0 0 0 0];


internalField   nonuniform List<scalar> 
10108
(
1.71738
1.71739
1.71742
1.71741
1.71743
1.71753
1.71761
1.71772
1.71786
1.718
1.71817
1.71834
1.71853
1.71873
1.71894
1.71917
1.71941
1.71966
1.71993
1.7202
1.72049
1.72079
1.72109
1.72141
1.72173
1.72206
1.72239
1.72273
1.72308
1.72342
1.72378
1.72413
1.72448
1.72483
1.72519
1.72554
1.72589
1.72623
1.72657
1.7269
1.72723
1.72755
1.72787
1.72817
1.72847
1.72875
1.72903
1.7293
1.72955
1.72979
1.73002
1.73024
1.73044
1.73064
1.73081
1.73097
1.73112
1.73125
1.73137
1.73148
1.73157
1.73164
1.73167
1.73167
1.73168
1.7317
1.73171
1.73175
1.73185
1.732
1.73208
1.73201
1.73189
1.73206
1.73207
1.73208
1.73203
1.73182
1.73177
1.73202
1.73208
1.73208
1.73199
1.73172
1.73169
1.73197
1.73208
1.73208
1.73197
1.73168
1.73168
1.73197
1.73209
1.7321
1.73197
1.73169
1.73171
1.73198
1.73211
1.73213
1.732
1.73173
1.73176
1.73202
1.73215
1.73217
1.73204
1.7318
1.73184
1.73207
1.7322
1.73223
1.7321
1.73188
1.73192
1.73214
1.73227
1.73231
1.73218
1.73197
1.73202
1.73222
1.73234
1.73239
1.73227
1.73208
1.73214
1.73232
1.73243
1.73248
1.73237
1.7322
1.73227
1.73242
1.73253
1.73259
1.73248
1.73234
1.73241
1.73254
1.73264
1.7327
1.73261
1.73248
1.73255
1.73267
1.73276
1.73282
1.73274
1.73262
1.73269
1.73279
1.73288
1.73294
1.73286
1.73275
1.73281
1.73291
1.733
1.73306
1.73298
1.73288
1.73295
1.73303
1.73312
1.73318
1.7331
1.73302
1.73309
1.73316
1.73324
1.73331
1.73324
1.73317
1.73325
1.7333
1.73337
1.73344
1.73338
1.73334
1.73343
1.73346
1.73351
1.73359
1.73354
1.73352
1.73361
1.73362
1.73366
1.73375
1.73371
1.7337
1.73379
1.73379
1.73382
1.73391
1.73388
1.73388
1.73397
1.73396
1.73399
1.73408
1.73406
1.73407
1.73416
1.73414
1.73416
1.73425
1.73424
1.73426
1.73436
1.73433
1.73434
1.73444
1.73443
1.73447
1.73457
1.73452
1.73452
1.73462
1.73463
1.73467
1.73477
1.73472
1.73471
1.73482
1.73483
1.73488
1.73498
1.73492
1.73491
1.73502
1.73504
1.73509
1.73519
1.73513
1.73511
1.73522
1.73525
1.73532
1.73542
1.73536
1.73533
1.73543
1.73548
1.73556
1.73567
1.73561
1.73556
1.73566
1.73571
1.7358
1.7362
1.73601
1.73584
1.73578
1.73527
1.73263
1.72944
1.73223
1.7351
1.7332
1.73026
1.72976
1.7301
1.73024
1.73113
1.73106
1.7306
1.73028
1.73047
1.73085
1.73138
1.73143
1.73093
1.73059
1.73088
1.73102
1.73138
1.73118
1.73106
1.73115
1.73161
1.73143
1.73137
1.7315
1.73164
1.7318
1.7322
1.73206
1.7319
1.732
1.73212
1.73223
1.73255
1.73245
1.73234
1.73236
1.73244
1.73252
1.73281
1.73274
1.73265
1.73267
1.73273
1.73278
1.73304
1.73299
1.73293
1.73303
1.73307
1.7331
1.7333
1.73328
1.73323
1.73338
1.7334
1.73341
1.73357
1.73357
1.73355
1.73369
1.7337
1.73368
1.73381
1.73384
1.73384
1.73394
1.73394
1.73389
1.73395
1.734
1.734
1.734
1.734
1.73395
1.73392
1.73397
1.73396
1.73386
1.73387
1.73383
1.7337
1.73372
1.7337
1.73352
1.73355
1.73354
1.73336
1.73335
1.73331
1.7331
1.73316
1.73318
1.73296
1.73293
1.73286
1.73266
1.73273
1.73277
1.73258
1.73252
1.73243
1.73241
1.73248
1.73253
1.73233
1.73226
1.73217
1.73234
1.73241
1.73247
1.73223
1.73217
1.73208
1.73237
1.73243
1.73248
1.73224
1.73219
1.73211
1.73233
1.73239
1.73244
1.73213
1.73212
1.73202
1.73188
1.73211
1.73219
1.73186
1.73154
1.73103
1.73035
1.73085
1.73133
1.73069
1.73025
1.72984
1.72955
1.72983
1.73024
1.72972
1.72946
1.72926
1.7289
1.72919
1.7295
1.72904
1.7285
1.72892
1.73017
1.72844
1.72802
1.72807
1.7298
1.73076
1.73088
1.7308
1.73
1.73081
1.73083
1.73077
1.73063
1.7307
1.73074
1.73062
1.73057
1.73048
1.73036
1.73044
1.73051
1.73041
1.73034
1.73025
1.73016
1.73024
1.73032
1.73025
1.73017
1.73008
1.73001
1.7301
1.73018
1.73013
1.73005
1.72996
1.72992
1.73
1.73008
1.73005
1.72997
1.72989
1.72986
1.72994
1.73001
1.72999
1.72992
1.72985
1.72983
1.7299
1.72997
1.72995
1.72989
1.72983
1.72982
1.72987
1.72993
1.72991
1.72986
1.72982
1.72982
1.72985
1.72988
1.72988
1.72985
1.72983
1.72985
1.72986
1.72988
1.72989
1.72988
1.72987
1.72987
1.72988
1.72989
1.72991
1.72991
1.7299
1.72991
1.72991
1.72991
1.72991
1.72991
1.72991
1.72991
1.7299
1.72991
1.7299
1.7299
1.7299
1.7299
1.7299
1.7299
1.72989
1.72989
1.72989
1.7299
1.72991
1.72992
1.72993
1.72996
1.7298
1.73033
1.72892
1.73021
1.73049
1.72847
1.72905
1.7299
1.7303
1.73173
1.73113
1.73008
1.72976
1.72938
1.72945
1.72994
1.72956
1.72916
1.72918
1.72906
1.72892
1.72919
1.72899
1.72878
1.72898
1.72885
1.7285
1.72862
1.72839
1.72829
1.72871
1.72855
1.72802
1.72808
1.72787
1.72783
1.7284
1.72823
1.72758
1.72759
1.72742
1.7274
1.72809
1.72792
1.72716
1.72718
1.72703
1.727
1.72777
1.7276
1.72676
1.72682
1.72668
1.7266
1.72742
1.72723
1.72638
1.7265
1.72636
1.72622
1.72704
1.72683
1.726
1.72618
1.72605
1.72585
1.72663
1.72642
1.72565
1.72589
1.72576
1.7255
1.72621
1.72599
1.7253
1.72559
1.72544
1.72516
1.72577
1.72556
1.72496
1.72528
1.72512
1.72482
1.72533
1.72511
1.72461
1.72494
1.72477
1.72446
1.72488
1.72467
1.72425
1.72459
1.7244
1.72409
1.72443
1.72421
1.72387
1.72419
1.72399
1.72369
1.72396
1.72375
1.72346
1.72377
1.72353
1.72326
1.72349
1.72327
1.723
1.72328
1.72301
1.72277
1.72299
1.72277
1.72249
1.72274
1.72244
1.72223
1.72244
1.7222
1.72191
1.72212
1.72177
1.7216
1.72185
1.72155
1.72123
1.7214
1.72096
1.72085
1.72112
1.72079
1.72039
1.72049
1.71997
1.7199
1.72022
1.7198
1.71929
1.71931
1.7183
1.71852
1.71895
1.71829
1.71755
1.71741
1.71633
1.71668
1.71731
1.71674
1.7159
1.71555
1.71499
1.71531
1.71616
1.71587
1.71492
1.71448
1.71389
1.71435
1.71534
1.71503
1.71383
1.71334
1.71271
1.71337
1.71448
1.71422
1.71285
1.71227
1.71148
1.71222
1.71362
1.71315
1.71159
1.71084
1.71001
1.71078
1.71262
1.7121
1.71048
1.70961
1.70908
1.70976
1.71268
1.70809
1.70675
1.70662
1.70793
1.70789
1.70903
1.70918
1.70758
1.7072
1.70508
1.70606
1.70785
1.70636
1.70434
1.70302
1.70107
1.70286
1.70487
1.70331
1.70119
1.69937
1.69728
1.69998
1.70205
1.69618
1.69417
1.69271
1.6926
1.69342
1.69511
1.69374
1.69184
1.68945
1.6855
1.68819
1.69003
1.68667
1.68503
1.67994
1.67145
1.67494
1.67697
1.66989
1.66779
1.6645
1.6598
1.66359
1.66553
1.65239
1.6515
1.64576
1.62398
1.63617
1.64407
1.61518
1.60874
1.60695
1.56048
1.5903
1.60349
1.58182
1.56814
1.52468
1.56411
1.57572
1.58415
1.59656
1.60226
1.6061
1.60046
1.6011
1.60094
1.60401
1.60324
1.60322
1.60298
1.60292
1.6029
1.60303
1.60301
1.60302
1.6026
1.60263
1.60278
1.6025
1.60246
1.60248
1.60222
1.60223
1.60225
1.60177
1.60161
1.60155
1.60147
1.60155
1.60161
1.60134
1.60128
1.60122
1.60066
1.60074
1.6009
1.60083
1.60077
1.60059
1.60043
1.60053
1.60059
1.6002
1.60004
1.59992
1.59993
1.60016
1.60022
1.60001
1.59995
1.59982
1.59933
1.59947
1.59964
1.5997
1.59964
1.59937
1.59925
1.59942
1.59949
1.59918
1.59902
1.59887
1.59895
1.59925
1.5993
1.59907
1.59899
1.59878
1.59843
1.59859
1.59876
1.59888
1.59883
1.59847
1.59834
1.59858
1.59866
1.5984
1.59823
1.59805
1.59806
1.59848
1.59854
1.59835
1.59827
1.59799
1.59772
1.59792
1.59809
1.59826
1.59823
1.59779
1.59763
1.59794
1.59804
1.59785
1.59767
1.59744
1.59762
1.59808
1.59806
1.59788
1.59776
1.59742
1.59733
1.59755
1.59772
1.59794
1.59797
1.59762
1.59729
1.59753
1.59769
1.59784
1.59783
1.59724
1.59748
1.59781
1.59788
1.59782
1.59768
1.59749
1.59737
1.59799
1.59801
1.59802
1.59793
1.59761
1.59776
1.59797
1.59811
1.5984
1.59848
1.59816
1.59766
1.59799
1.59817
1.59847
1.59847
1.59796
1.59825
1.59862
1.59866
1.59882
1.59876
1.59861
1.59859
1.59906
1.59905
1.59912
1.59896
1.59869
1.59909
1.59956
1.59951
1.59983
1.59985
1.59957
1.59954
1.59977
1.59989
1.60023
1.60024
1.5998
1.60013
1.60036
1.60049
1.60096
1.60104
1.60062
1.60106
1.60132
1.60129
1.60145
1.6013
1.60103
1.60155
1.60195
1.60189
1.60233
1.6022
1.60195
1.60258
1.603
1.60294
1.60329
1.60328
1.60296
1.60319
1.60345
1.60356
1.60411
1.60417
1.6038
1.60416
1.60444
1.60453
1.60524
1.6053
1.60491
1.60533
1.60562
1.60562
1.60595
1.6059
1.60566
1.6063
1.6066
1.60654
1.60708
1.60705
1.60687
1.60765
1.60787
1.60776
1.60831
1.60828
1.60806
1.60859
1.60899
1.60897
1.60945
1.6094
1.60912
1.60977
1.61
1.61001
1.61073
1.61082
1.61062
1.61119
1.61134
1.61131
1.61198
1.61208
1.61189
1.61222
1.61247
1.61252
1.61326
1.61327
1.61294
1.61356
1.61379
1.61382
1.61445
1.61447
1.61427
1.61514
1.61526
1.61513
1.61564
1.61568
1.61557
1.61631
1.61641
1.61629
1.61698
1.61702
1.61695
1.61763
1.61775
1.61764
1.61841
1.61841
1.61827
1.61899
1.61924
1.61917
1.61968
1.61965
1.61949
1.62012
1.62027
1.62028
1.62088
1.62097
1.62088
1.62145
1.62154
1.62151
1.62212
1.62224
1.62221
1.62279
1.62282
1.62276
1.62332
1.62342
1.62339
1.62388
1.624
1.62399
1.6246
1.62464
1.62449
1.62502
1.62515
1.62516
1.62579
1.62581
1.62571
1.6264
1.62643
1.62633
1.62691
1.62696
1.62693
1.62753
1.62754
1.62744
1.62807
1.62812
1.62811
1.62871
1.62868
1.62857
1.62921
1.62927
1.62928
1.62986
1.62981
1.62968
1.63039
1.63044
1.63041
1.63092
1.63092
1.63083
1.63142
1.63146
1.63141
1.63197
1.632
1.63197
1.63234
1.63244
1.63249
1.63296
1.63294
1.6329
1.6332
1.63332
1.63338
1.63386
1.63383
1.63378
1.63402
1.63414
1.63421
1.63471
1.63467
1.63461
1.63484
1.63498
1.63508
1.63559
1.63556
1.6355
1.63572
1.63585
1.63591
1.63633
1.63635
1.63627
1.63669
1.63672
1.63671
1.63694
1.6369
1.63681
1.63732
1.63736
1.63735
1.63743
1.63739
1.6373
1.63789
1.63795
1.63796
1.63783
1.63779
1.63769
1.6384
1.63849
1.63852
1.63823
1.63818
1.63804
1.6389
1.63904
1.6391
1.63889
1.63884
1.63869
1.63896
1.63906
1.63905
1.63968
1.63963
1.63948
1.63918
1.63924
1.63924
1.64011
1.64004
1.63987
1.63952
1.63956
1.63957
1.6404
1.6403
1.64011
1.63971
1.63975
1.63975
1.64057
1.64047
1.64028
1.6399
1.63992
1.63995
1.64056
1.64048
1.64031
1.64008
1.64021
1.64028
1.63976
1.63979
1.63983
1.64032
1.64054
1.64064
1.63975
1.63973
1.63973
1.63995
1.64014
1.64025
1.63943
1.63939
1.63938
1.63959
1.63978
1.63988
1.63901
1.63896
1.63894
1.63916
1.63935
1.6394
1.63848
1.63845
1.63847
1.63865
1.6388
1.63887
1.63808
1.63804
1.63795
1.63731
1.63721
1.63717
1.63771
1.63771
1.63757
1.63682
1.63669
1.63661
1.63673
1.63679
1.63668
1.63588
1.63576
1.63569
1.63585
1.63595
1.63585
1.63498
1.63472
1.63462
1.63481
1.635
1.63493
1.634
1.63381
1.63372
1.63402
1.63414
1.63406
1.63308
1.63306
1.63292
1.6317
1.63176
1.63201
1.63213
1.63221
1.63193
1.63074
1.63091
1.63111
1.63062
1.63059
1.63014
1.62872
1.62899
1.62947
1.6295
1.62959
1.62921
1.62786
1.62808
1.62837
1.62821
1.62823
1.62792
1.62649
1.62684
1.62695
1.62555
1.62514
1.62502
1.62498
1.62549
1.62544
1.62409
1.62365
1.62327
1.62325
1.62386
1.62388
1.62262
1.62198
1.6217
1.62182
1.62247
1.62244
1.621
1.62054
1.62014
1.62012
1.62064
1.62066
1.61908
1.61889
1.61835
1.6159
1.61624
1.61703
1.61693
1.61685
1.61605
1.6145
1.61496
1.61552
1.61522
1.61524
1.6144
1.61248
1.61296
1.61368
1.61323
1.61316
1.61247
1.61034
1.61106
1.61134
1.60889
1.60825
1.6079
1.60699
1.60819
1.60851
1.60671
1.60567
1.60482
1.60561
1.60675
1.60672
1.60495
1.60438
1.6037
1.60318
1.60422
1.6043
1.60211
1.60172
1.60067
1.59796
1.59849
1.59935
1.59852
1.59807
1.59655
1.59406
1.5952
1.59639
1.5965
1.59627
1.59504
1.59331
1.59449
1.59488
1.59176
1.59072
1.59011
1.59006
1.59122
1.59136
1.58888
1.58801
1.58689
1.58399
1.58605
1.58669
1.58476
1.58345
1.58135
1.57896
1.57993
1.58132
1.58217
1.58207
1.5804
1.57809
1.57912
1.58008
1.57807
1.57795
1.57645
1.57216
1.57405
1.57514
1.56922
1.56716
1.56532
1.56757
1.56942
1.5699
1.568
1.56685
1.56567
1.56476
1.56663
1.56694
1.56436
1.56337
1.56123
1.55544
1.55687
1.55848
1.55607
1.55475
1.55195
1.54832
1.5506
1.55278
1.553
1.5524
1.55018
1.54812
1.5502
1.55146
1.54615
1.54466
1.5435
1.54193
1.54342
1.54373
1.53897
1.53666
1.53239
1.52697
1.52997
1.53268
1.53352
1.53283
1.53037
1.52808
1.53063
1.53251
1.52575
1.52405
1.5226
1.51734
1.52012
1.52122
1.51596
1.51278
1.50681
1.50378
1.50717
1.51002
1.51051
1.50961
1.507
1.50364
1.50751
1.50944
1.49944
1.49641
1.49367
1.4834
1.48977
1.49313
1.48997
1.48702
1.48199
1.47922
1.48201
1.48504
1.48157
1.48076
1.47875
1.45983
1.47011
1.47473
1.46695
1.46328
1.45562
1.45406
1.45839
1.46181
1.45868
1.45734
1.45411
1.43368
1.44717
1.45195
1.44555
1.44136
1.43223
1.43393
1.43928
1.44129
1.42944
1.42196
1.41043
1.41735
1.42564
1.42987
1.43075
1.42539
1.41499
1.40368
1.41955
1.4267
1.42409
1.41883
1.40446
1.40072
1.41735
1.42355
1.42487
1.41917
1.40294
1.41748
1.4307
1.43575
1.45141
1.44621
1.43424
1.44547
1.4562
1.46215
1.46828
1.46145
1.45122
1.45689
1.46607
1.47325
1.47736
1.46969
1.46116
1.46578
1.47339
1.48106
1.48393
1.47602
1.46918
1.47273
1.47885
1.48651
1.48858
1.48091
1.47555
1.47849
1.48332
1.49062
1.49229
1.48515
1.48098
1.48348
1.48724
1.49397
1.49537
1.48893
1.48568
1.48783
1.49076
1.49678
1.49797
1.49231
1.48976
1.49161
1.4939
1.49917
1.50025
1.49536
1.49335
1.49496
1.49677
1.5013
1.50233
1.49813
1.49653
1.49795
1.49939
1.50326
1.50427
1.50066
1.49938
1.50065
1.5018
1.50511
1.50613
1.50298
1.50197
1.5031
1.50401
1.50688
1.50787
1.50511
1.50432
1.50536
1.50605
1.50858
1.50956
1.5071
1.50648
1.50742
1.50798
1.51023
1.51118
1.50897
1.50846
1.50932
1.50979
1.51183
1.51275
1.51073
1.51029
1.51107
1.5115
1.5134
1.51425
1.51237
1.51195
1.51266
1.51309
1.51487
1.51568
1.51392
1.5135
1.51414
1.51459
1.51628
1.51702
1.51537
1.51492
1.51552
1.51599
1.51759
1.5183
1.51674
1.51625
1.51681
1.51732
1.51883
1.51948
1.51801
1.51749
1.51802
1.51855
1.51999
1.52061
1.51922
1.51867
1.51916
1.51972
1.52107
1.52165
1.52033
1.51976
1.52022
1.5208
1.52207
1.52263
1.52139
1.5208
1.52124
1.52184
1.52301
1.52354
1.52237
1.52177
1.52219
1.52278
1.52388
1.5244
1.5233
1.52269
1.52309
1.52369
1.52471
1.52517
1.52415
1.52354
1.52392
1.52451
1.52546
1.5259
1.52496
1.52436
1.52472
1.5253
1.52618
1.52657
1.5257
1.52511
1.52544
1.52601
1.52682
1.5272
1.5264
1.52583
1.52615
1.5267
1.52744
1.52779
1.52704
1.5265
1.52679
1.52732
1.52801
1.52834
1.52765
1.52713
1.52741
1.52791
1.52855
1.52885
1.52821
1.52771
1.52797
1.52845
1.52903
1.52931
1.52873
1.52826
1.5285
1.52895
1.52948
1.52975
1.52921
1.52877
1.52899
1.52942
1.52991
1.53016
1.52966
1.52924
1.52945
1.52985
1.5303
1.53054
1.53008
1.52968
1.52988
1.53026
1.53068
1.5309
1.53047
1.5301
1.53029
1.53065
1.53103
1.53125
1.53085
1.53049
1.53067
1.53101
1.53137
1.53157
1.5312
1.53086
1.53103
1.53135
1.53168
1.53188
1.53153
1.53121
1.53136
1.53167
1.53198
1.53217
1.53184
1.53154
1.53169
1.53198
1.53227
1.53245
1.53214
1.53185
1.53198
1.53226
1.53254
1.53271
1.53242
1.53214
1.53227
1.53254
1.53279
1.53296
1.53268
1.53242
1.53253
1.53279
1.53304
1.53319
1.53293
1.53267
1.53279
1.53304
1.53327
1.53342
1.53316
1.53292
1.53302
1.53326
1.53349
1.53363
1.53338
1.53315
1.53325
1.53349
1.5337
1.53384
1.5336
1.53338
1.53347
1.53369
1.5339
1.53403
1.5338
1.53359
1.53368
1.5339
1.5341
1.53422
1.534
1.53379
1.53387
1.53408
1.53427
1.53439
1.53418
1.53398
1.53406
1.53426
1.53444
1.53456
1.53435
1.53416
1.53423
1.53442
1.5346
1.5347
1.53451
1.53433
1.53439
1.53458
1.53475
1.53485
1.53465
1.53448
1.53454
1.53472
1.53489
1.53498
1.5348
1.53463
1.53469
1.53486
1.53502
1.53511
1.53493
1.53477
1.53482
1.53499
1.53514
1.53523
1.53506
1.53491
1.53496
1.53512
1.53527
1.53535
1.53519
1.53504
1.53509
1.53524
1.53538
1.53546
1.53531
1.53517
1.53522
1.53537
1.5355
1.53557
1.53542
1.53529
1.53534
1.53548
1.53561
1.53568
1.53554
1.53541
1.53545
1.53559
1.53571
1.53578
1.53564
1.53552
1.53555
1.53568
1.5358
1.53586
1.53573
1.53561
1.53564
1.53577
1.53588
1.53594
1.5358
1.53569
1.53571
1.53584
1.53596
1.536
1.53588
1.53577
1.53579
1.53591
1.53602
1.53607
1.53594
1.53584
1.53586
1.53597
1.53608
1.53612
1.53601
1.53591
1.53593
1.53604
1.53613
1.53617
1.53606
1.53598
1.536
1.53609
1.53618
1.53621
1.53611
1.53604
1.53605
1.53614
1.53622
1.53625
1.53616
1.53608
1.5361
1.53618
1.53626
1.53628
1.53619
1.53613
1.53613
1.53621
1.53628
1.53631
1.53622
1.53616
1.53617
1.53624
1.53631
1.53632
1.53625
1.53619
1.5362
1.53626
1.53632
1.53634
1.53627
1.53622
1.53623
1.53628
1.53634
1.53635
1.53629
1.53625
1.53625
1.5363
1.53635
1.53637
1.53631
1.53627
1.53628
1.53632
1.53636
1.53638
1.53633
1.5363
1.5363
1.53634
1.53638
1.53639
1.53634
1.53632
1.53633
1.53635
1.53639
1.5364
1.53636
1.53635
1.53635
1.53638
1.5364
1.53642
1.53638
1.53638
1.53638
1.5364
1.53642
1.53644
1.53641
1.53641
1.53642
1.53643
1.53645
1.53647
1.53645
1.53645
1.53646
1.53647
1.53648
1.5365
1.53649
1.53649
1.53651
1.53651
1.53652
1.53655
1.53653
1.53654
1.53655
1.53656
1.53657
1.53659
1.53658
1.53659
1.5366
1.5366
1.53661
1.53663
1.53662
1.53663
1.53664
1.53664
1.53665
1.53667
1.53666
1.53667
1.53668
1.53668
1.53669
1.53671
1.5367
1.53671
1.53673
1.53672
1.53672
1.53674
1.53674
1.53676
1.53678
1.53676
1.53675
1.53677
1.53677
1.53681
1.53682
1.53679
1.53678
1.53679
1.5368
1.53683
1.53683
1.53681
1.5368
1.53679
1.5368
1.53683
1.5368
1.5368
1.53679
1.53677
1.53677
1.53679
1.53676
1.53676
1.53675
1.53672
1.53672
1.53673
1.53668
1.53668
1.53668
1.53665
1.53664
1.53665
1.53658
1.53659
1.5366
1.53654
1.53652
1.53652
1.53641
1.53643
1.53644
1.53641
1.53638
1.53637
1.53627
1.5363
1.53632
1.53629
1.53624
1.53622
1.53611
1.53615
1.53618
1.53615
1.53607
1.53603
1.53596
1.53602
1.53612
1.53656
1.53628
1.53619
1.53685
1.53696
1.53732
1.53737
1.53713
1.53713
1.53739
1.54092
1.54217
1.54233
1.54762
1.55078
1.55164
1.55191
1.55688
1.56112
1.56374
1.56565
1.56734
1.56852
1.56947
1.57024
1.57094
1.57125
1.57145
1.57165
1.57181
1.57187
1.57182
1.5717
1.57155
1.57143
1.57139
1.57145
1.57156
1.57168
1.57175
1.57181
1.57178
1.57158
1.57138
1.57127
1.57122
1.57121
1.5712
1.57126
1.57138
1.57154
1.57174
1.57199
1.57228
1.57261
1.57298
1.57338
1.57382
1.57428
1.57476
1.57527
1.57578
1.57626
1.57671
1.57714
1.57756
1.57797
1.57836
1.57875
1.57913
1.57951
1.5799
1.5803
1.58071
1.58114
1.58161
1.58211
1.58267
1.58329
1.58398
1.58477
1.58566
1.58667
1.5878
1.58907
1.59049
1.59206
1.59377
1.59564
1.59765
1.59979
1.60207
1.60446
1.60696
1.60955
1.61221
1.61493
1.61769
1.62048
1.62328
1.6261
1.62891
1.63172
1.63451
1.6373
1.64007
1.64284
1.64559
1.64832
1.65104
1.65374
1.65641
1.65906
1.66167
1.66424
1.66676
1.66923
1.67164
1.67398
1.67624
1.6784
1.68047
1.68243
1.68428
1.68603
1.68768
1.68923
1.69071
1.69212
1.69348
1.69481
1.6961
1.69737
1.69861
1.69982
1.70099
1.70213
1.70323
1.7043
1.70532
1.70629
1.70722
1.70811
1.70895
1.70974
1.71048
1.71118
1.71184
1.71245
1.71303
1.71357
1.71407
1.71454
1.71498
1.71537
1.71574
1.71606
1.71634
1.71659
1.71679
1.71696
1.71707
1.71715
1.7172
1.71721
1.71719
1.71715
1.7171
1.71705
1.71702
1.71699
1.71698
1.71697
1.71698
1.71697
1.71698
1.71701
1.71724
1.71728
1.71743
1.71765
1.7178
1.71792
1.71805
1.7182
1.71836
1.71854
1.71873
1.71894
1.71916
1.71939
1.71964
1.7199
1.72017
1.72045
1.72074
1.72105
1.72136
1.72168
1.72201
1.72234
1.72269
1.72303
1.72338
1.72373
1.72409
1.72444
1.7248
1.72515
1.7255
1.72585
1.7262
1.72654
1.72688
1.72721
1.72753
1.72785
1.72816
1.72846
1.72876
1.72904
1.72931
1.72958
1.72983
1.73006
1.73029
1.7305
1.7307
1.73088
1.73105
1.7312
1.73134
1.73146
1.73157
1.73167
1.73177
1.73187
1.73195
1.73203
1.73213
1.73214
1.73213
1.73215
1.73217
1.73219
1.73222
1.73224
1.73227
1.73229
1.73233
1.73236
1.73239
1.73243
1.73247
1.73252
1.73256
1.73261
1.73266
1.73271
1.73277
1.73282
1.73288
1.73294
1.733
1.73306
1.73311
1.73317
1.73323
1.73329
1.73335
1.73341
1.73347
1.73354
1.73361
1.73368
1.73375
1.73383
1.7339
1.73398
1.73406
1.73414
1.73422
1.73431
1.73439
1.73448
1.73456
1.73466
1.73474
1.73484
1.73493
1.73503
1.73512
1.73522
1.73532
1.73542
1.73552
1.73561
1.7357
1.73574
1.73563
1.73534
1.73476
1.73396
1.73343
1.73306
1.73274
1.73189
1.73161
1.73141
1.73171
1.73181
1.73217
1.7322
1.73253
1.73255
1.73283
1.73294
1.73316
1.73331
1.7335
1.73367
1.73383
1.73394
1.734
1.73399
1.73393
1.7338
1.73363
1.73342
1.7332
1.73298
1.7327
1.73251
1.73223
1.7323
1.732
1.73233
1.73193
1.73235
1.73193
1.73219
1.73174
1.73131
1.73022
1.73003
1.72979
1.72972
1.72982
1.73014
1.73045
1.73061
1.73062
1.73059
1.7305
1.73042
1.73032
1.73022
1.73015
1.73007
1.73002
1.72997
1.72993
1.7299
1.72988
1.72986
1.72985
1.72984
1.72983
1.72982
1.72982
1.72982
1.72982
1.72984
1.72987
1.72988
1.72988
1.72988
1.72986
1.72986
1.72984
1.72981
1.72975
1.72985
1.72988
1.72984
1.72981
1.72984
1.72985
1.72987
1.72988
1.72988
1.72987
1.72982
1.72984
1.72987
1.72988
1.72986
1.72984
1.72976
1.7297
1.72976
1.72984
1.72989
1.7299
1.72988
1.72988
1.72992
1.72993
1.7299
1.72974
1.72974
1.72991
1.72996
1.72998
1.72993
1.72994
1.73001
1.73004
1.72997
1.72976
1.7298
1.73
1.73009
1.73012
1.73004
1.73008
1.73018
1.73023
1.73014
1.72987
1.72995
1.73018
1.7303
1.73037
1.73027
1.73029
1.73045
1.73052
1.7304
1.73005
1.73015
1.7304
1.7306
1.73065
1.73052
1.73046
1.73066
1.73068
1.73056
1.73021
1.73025
1.73045
1.73064
1.73063
1.73056
1.7304
1.73054
1.73053
1.73065
1.73031
1.73038
1.73043
1.73051
1.73059
1.73108
1.73057
1.73042
1.73069
1.73126
1.73052
1.7305
1.73046
1.73055
1.7313
1.73141
1.73043
1.73166
1.73221
1.7321
1.73053
1.73061
1.73068
1.73165
1.73212
1.73254
1.73091
1.73166
1.73211
1.73228
1.73103
1.73136
1.73101
1.73199
1.73233
1.73216
1.73187
1.73246
1.73284
1.7328
1.73215
1.73229
1.73279
1.73301
1.73327
1.73317
1.73332
1.7335
1.73372
1.73359
1.73291
1.73372
1.7338
1.73389
1.73398
1.73393
1.73403
1.73403
1.73397
1.734
1.73408
1.73401
1.73391
1.73386
1.73365
1.73369
1.73349
1.73346
1.73324
1.73323
1.73354
1.73332
1.73313
1.73307
1.73282
1.73278
1.73283
1.7327
1.73239
1.7323
1.73334
1.73374
1.73257
1.73234
1.73203
1.73214
1.73275
1.73204
1.73184
1.7326
1.73441
1.73493
1.73383
1.73208
1.73226
1.73385
1.73485
1.73332
1.73381
1.73472
1.73519
1.73534
1.73525
1.73438
1.73455
1.73509
1.73541
1.73497
1.73518
1.73537
1.73544
1.73551
1.73555
1.73545
1.73555
1.73553
1.73564
1.73564
1.73566
1.73559
1.73554
1.73552
1.73564
1.73565
1.73558
1.73554
1.73554
1.73551
1.73542
1.73542
1.73545
1.73534
1.73539
1.73534
1.73524
1.73527
1.73523
1.73515
1.73506
1.73511
1.73521
1.73506
1.73506
1.73497
1.73488
1.73494
1.73489
1.73479
1.73471
1.73477
1.73491
1.73475
1.73472
1.73462
1.73454
1.73461
1.73455
1.73445
1.73437
1.73444
1.73459
1.73444
1.73439
1.73428
1.73421
1.73428
1.73423
1.73412
1.73405
1.73413
1.73429
1.73414
1.73408
1.73397
1.7339
1.73398
1.73394
1.73383
1.73376
1.73384
1.734
1.73386
1.7338
1.73369
1.73362
1.73371
1.73366
1.73356
1.73349
1.73358
1.73373
1.7336
1.73354
1.73343
1.73337
1.73345
1.73341
1.73331
1.73325
1.73333
1.73348
1.73336
1.73329
1.7332
1.73314
1.73321
1.73318
1.73308
1.73302
1.7331
1.73325
1.73313
1.73306
1.73296
1.73291
1.73298
1.73295
1.73285
1.7328
1.73288
1.73302
1.73292
1.73284
1.73275
1.7327
1.73277
1.73274
1.73265
1.7326
1.73268
1.73282
1.73272
1.73265
1.73256
1.73251
1.73258
1.73256
1.73248
1.73244
1.7325
1.73263
1.73253
1.73247
1.7324
1.73236
1.73242
1.73239
1.73234
1.7323
1.73234
1.73244
1.73233
1.73231
1.73227
1.73224
1.73226
1.73223
1.73221
1.73217
1.73217
1.7322
1.73214
1.73231
1.73245
1.73257
1.73268
1.73278
1.73288
1.73297
1.73307
1.73317
1.73328
1.73338
1.73349
1.73361
1.73373
1.73385
1.73398
1.73411
1.73425
1.73439
1.73454
1.73468
1.73483
1.73497
1.7351
1.73522
1.73532
1.7354
1.73545
1.73546
1.73546
1.73547
1.73546
1.73541
1.73527
1.73498
1.73464
1.73448
1.73458
1.73474
1.73452
1.73357
1.73265
1.73195
1.73144
1.73122
1.73093
1.7307
1.73052
1.73044
1.73025
1.73009
1.72994
1.72988
1.72984
1.72981
1.72977
1.72973
1.7297
1.72967
1.72966
1.72966
1.72967
1.72963
1.72969
1.72976
1.72979
1.72982
1.72986
1.72987
1.72985
1.72981
1.72976
1.72979
1.72985
1.72986
1.72983
1.72979
1.7297
1.72961
1.72958
1.7297
1.72971
1.72976
1.72983
1.72985
1.72981
1.72978
1.72968
1.7297
1.72983
1.72984
1.72982
1.72972
1.72963
1.72948
1.72933
1.72946
1.72953
1.72946
1.72959
1.72954
1.72952
1.72933
1.7294
1.72926
1.72936
1.72919
1.72902
1.72885
1.72915
1.72904
1.72926
1.72949
1.72947
1.72919
1.72909
1.72945
1.72941
1.72899
1.72858
1.72876
1.72891
1.72837
1.72864
1.72828
1.72858
1.72883
1.72905
1.72924
1.72941
1.72956
1.72966
1.72973
1.72982
1.72982
1.72976
1.72969
1.72967
1.72975
1.72982
1.72986
1.72982
1.72976
1.72957
1.72936
1.72957
1.72969
1.72991
1.73003
1.72999
1.72996
1.73004
1.72986
1.7299
1.73007
1.72924
1.7293
1.73016
1.73004
1.72931
1.7291
1.72982
1.7302
1.73017
1.72937
1.72959
1.72897
1.72883
1.72876
1.72936
1.72914
1.72992
1.72974
1.72956
1.72943
1.72938
1.72927
1.72917
1.72898
1.72874
1.72846
1.72839
1.72854
1.72871
1.72883
1.72899
1.72909
1.72913
1.72927
1.72874
1.72888
1.72879
1.72896
1.72888
1.72905
1.72894
1.72917
1.72848
1.72855
1.7283
1.72826
1.72809
1.72809
1.7279
1.7279
1.7277
1.72772
1.7288
1.72864
1.72869
1.72752
1.72751
1.72732
1.72854
1.72897
1.72884
1.72838
1.72858
1.72734
1.72715
1.72716
1.72842
1.72823
1.72866
1.72851
1.72829
1.72811
1.72819
1.72799
1.72803
1.72758
1.72786
1.72738
1.72805
1.72766
1.72728
1.7284
1.72887
1.72938
1.72935
1.72876
1.72864
1.72934
1.72937
1.72856
1.72797
1.72805
1.72822
1.72682
1.72649
1.72612
1.72323
1.72411
1.72504
1.72591
1.72671
1.72599
1.7268
1.7267
1.72701
1.72744
1.72772
1.72758
1.72782
1.72736
1.7276
1.7276
1.72785
1.72784
1.72805
1.72803
1.72826
1.72699
1.72698
1.72681
1.7268
1.72661
1.72659
1.72638
1.72634
1.72611
1.72607
1.72733
1.72704
1.72701
1.72574
1.7258
1.72543
1.72672
1.72719
1.72685
1.7263
1.72666
1.72537
1.72501
1.72492
1.72624
1.72586
1.72629
1.72578
1.72601
1.72557
1.72451
1.72417
1.72492
1.72456
1.72508
1.72525
1.72572
1.7244
1.72451
1.72389
1.72373
1.72311
1.72283
1.72419
1.72353
1.72297
1.72153
1.72201
1.7206
1.72229
1.72305
1.72396
1.72482
1.72378
1.72237
1.72103
1.71821
1.7189
1.72042
1.72095
1.72217
1.72266
1.72218
1.72127
1.72036
1.71926
1.71977
1.7202
1.72069
1.72113
1.7217
1.72017
1.71951
1.71927
1.71867
1.71844
1.71782
1.71755
1.71877
1.7182
1.7194
1.71818
1.71695
1.71541
1.71628
1.7155
1.71923
1.72231
1.72604
1.72789
1.72854
1.72947
1.7296
1.72855
1.72872
1.72977
1.72988
1.72894
1.7281
1.7279
1.72787
1.72597
1.72635
1.72676
1.72763
1.72843
1.72937
1.73021
1.73072
1.7301
1.73091
1.73134
1.73198
1.73173
1.73136
1.73028
1.72925
1.72847
1.7295
1.73074
1.73193
1.73228
1.73241
1.73228
1.7332
1.7331
1.73438
1.73468
1.73521
1.73572
1.73584
1.7343
1.73314
1.73292
1.73415
1.73579
1.73621
1.73611
1.73579
1.73525
1.73521
1.73569
1.73564
1.7353
1.73538
1.73555
1.73556
1.73575
1.73594
1.73599
1.7357
1.73544
1.73518
1.73547
1.73581
1.736
1.73542
1.73377
1.7324
1.73125
1.72986
1.72867
1.72781
1.72504
1.7232
1.722
1.72184
1.71764
1.71561
1.71618
1.70672
1.70645
1.70958
1.71209
1.7131
1.71162
1.7137
1.71202
1.71282
1.71402
1.71452
1.71555
1.71622
1.71698
1.71761
1.71648
1.71685
1.71566
1.71529
1.71419
1.71336
1.71266
1.7119
1.70978
1.71059
1.71035
1.70847
1.71047
1.7092
1.71026
1.70935
1.70735
1.70594
1.70751
1.70554
1.70696
1.70343
1.70106
1.70408
1.70632
1.70942
1.70728
1.70161
1.70447
1.70265
1.69893
1.6955
1.69756
1.69275
1.69764
1.69243
1.68825
1.68228
1.69067
1.70023
1.69378
1.68299
1.68588
1.6771
1.6719
1.66823
1.6785
1.67939
1.69357
1.6944
1.69776
1.68217
1.68071
1.67284
1.6696
1.65589
1.65442
1.66248
1.66919
1.67737
1.64372
1.64278
1.65054
1.66507
1.67281
1.6857
1.65828
1.64112
1.62206
1.60875
1.63174
1.62051
1.59537
1.59729
1.61191
1.63885
1.66448
1.62408
1.60853
1.60311
1.60274
1.60343
1.60356
1.60307
1.60304
1.60255
1.60207
1.60201
1.60156
1.60116
1.60112
1.60073
1.6004
1.60044
1.60013
1.59983
1.59995
1.5996
1.59931
1.59945
1.59918
1.59891
1.59907
1.59876
1.5985
1.59864
1.59841
1.5982
1.59836
1.5981
1.59791
1.59803
1.5979
1.59779
1.5979
1.59772
1.59791
1.59779
1.59778
1.59797
1.59798
1.59801
1.59816
1.59819
1.59847
1.59848
1.59865
1.59882
1.59893
1.59926
1.59953
1.59976
1.60002
1.60027
1.60063
1.60095
1.60127
1.60156
1.60199
1.6024
1.60298
1.60339
1.6038
1.60424
1.60473
1.60527
1.60581
1.60623
1.60673
1.60727
1.60791
1.60834
1.60907
1.60982
1.61029
1.61096
1.61149
1.61218
1.61266
1.61343
1.61422
1.61465
1.61533
1.61585
1.61658
1.61705
1.61794
1.6184
1.61931
1.62005
1.62052
1.62121
1.6217
1.62242
1.62285
1.62363
1.62396
1.62477
1.62553
1.62586
1.62662
1.62696
1.62775
1.62805
1.62888
1.62914
1.63001
1.6301
1.63095
1.63166
1.63185
1.63261
1.63275
1.63345
1.63351
1.63424
1.63425
1.63508
1.63493
1.63577
1.63637
1.63625
1.63702
1.63689
1.63758
1.63729
1.63799
1.63769
1.63847
1.63787
1.63868
1.63904
1.63871
1.63938
1.63903
1.63963
1.63925
1.63979
1.63925
1.63989
1.63925
1.63973
1.63985
1.63915
1.63959
1.63884
1.63925
1.63844
1.63883
1.63789
1.63828
1.63719
1.63747
1.6373
1.63638
1.63658
1.6356
1.63589
1.63472
1.63492
1.63367
1.63385
1.63256
1.63234
1.63201
1.63077
1.63096
1.62944
1.62951
1.62807
1.62819
1.6267
1.62622
1.6256
1.62434
1.62428
1.62274
1.62266
1.62093
1.6209
1.61908
1.61818
1.61724
1.61581
1.61565
1.61384
1.61342
1.61155
1.61063
1.60936
1.60768
1.60703
1.60535
1.60487
1.60273
1.60131
1.59969
1.59789
1.59683
1.5954
1.59397
1.59209
1.59012
1.58891
1.58674
1.58436
1.58253
1.58088
1.57966
1.57726
1.57431
1.57111
1.57007
1.56837
1.5661
1.56309
1.55938
1.55734
1.55434
1.55328
1.5506
1.54645
1.54449
1.53942
1.53533
1.53459
1.53161
1.5258
1.52437
1.51739
1.51289
1.51224
1.50861
1.50051
1.50021
1.49257
1.48636
1.48678
1.47834
1.47106
1.4641
1.46673
1.45826
1.45164
1.44623
1.43747
1.44585
1.43942
1.43633
1.43554
1.43553
1.43754
1.44571
1.45765
1.46816
1.47424
1.47992
1.48413
1.48834
1.49155
1.49461
1.49715
1.49958
1.50176
1.50374
1.50564
1.50721
1.50883
1.51008
1.51153
1.51251
1.5138
1.51456
1.51574
1.51635
1.51744
1.5179
1.51892
1.51926
1.52022
1.52044
1.52136
1.52147
1.52241
1.52238
1.5233
1.52319
1.52412
1.52396
1.52482
1.52464
1.52548
1.5253
1.52608
1.52587
1.52664
1.52645
1.52715
1.52695
1.52765
1.52746
1.52809
1.52791
1.52854
1.52833
1.52891
1.52871
1.52929