/*--------------------------------*- C++ -*----------------------------------*\
| =========                 |                                                 |
| \\      /  F ield         | OpenFOAM: The Open Source CFD Toolbox           |
|  \\    /   O peration     | Version:  v2006                                 |
|   \\  /    A nd           | Website:  www.openfoam.com                      |
|    \\/     M anipulation  |                                                 |
\*---------------------------------------------------------------------------*/
FoamFile
{
    version     2.0;
    format      ascii;
    class       volScalarField;
    location    "0.095";
    object      omega;
}
// * * * * * * * * * * * * * * * * * * * * * * * * * * * * * * * * * * * * * //

dimensions      [0 0 -1 0 0 0 0];


internalField   nonuniform List<scalar> 
23013
(
0.00641163
0.00641175
0.0064109
0.00641064
0.00641015
0.00641027
0.00640994
0.00640954
0.00640832
0.00640569
0.00640132
0.00639539
0.00638836
0.00638072
0.00637278
0.00636465
0.00635633
0.00634776
0.00633887
0.0063296
0.00631992
0.00630981
0.00629927
0.0062883
0.00627691
0.0062651
0.00625287
0.00624023
0.00622718
0.00621372
0.00619986
0.00618558
0.00617091
0.00615583
0.00614037
0.00612451
0.00610827
0.00609165
0.00607466
0.0060573
0.00603959
0.00602152
0.00600311
0.00598437
0.0059653
0.00594592
0.00592622
0.00590623
0.00588595
0.0058654
0.00584458
0.0058235
0.00580218
0.00578063
0.00575886
0.00573688
0.00571471
0.00569235
0.00566983
0.00564715
0.00562433
0.00560138
0.00557832
0.00555515
0.00553191
0.00550859
0.00548522
0.00546182
0.00543838
0.00541495
0.00539152
0.00536812
0.00534477
0.00532148
0.00529826
0.00527514
0.00525214
0.00522926
0.00520654
0.005184
0.00516164
0.00513949
0.00511757
0.00509589
0.00507449
0.00505338
0.0050326
0.00501221
0.00499232
0.00497317
0.00495532
0.00494012
0.00493077
0.00493541
0.00497441
0.005081
0.00532972
0.00587534
0.00703579
0.00942918
0.0142319
0.0236538
0.0420047
0.0771144
0.143198
0.266594
0.489649
0.838124
1.10304
1.62632
2.10107
2.66186
4.45169
6.63764
11.5197
14.7854
13.1497
32.7187
97.9736
385.751
3211.05
17177.8
218167
218238
34442.8
8049.31
15009
49934.5
218296
218431
50826.7
16556.1
20353.5
55034
212852
211555
54226.1
20648.8
22564.1
55767
207683
205652
54031.2
22333.3
23245.3
54969
201746
199454
52589.6
22783.3
23412.5
53750
196253
194808
51957.1
22980.3
23490
53227.8
192366
191401
51582.1
23063.4
23568.2
52924.1
189405
188727
51399.7
23157.6
23664.7
52788.7
187012
186476
51340.8
23265.8
23772.4
52741.1
184964
184510
51334.5
23378.2
23881.1
52730.1
183133
182737
51349.7
23487.5
23982.6
52726.6
181465
181106
51359
23585.1
24069.5
52720.6
179908
179580
51362.4
23665.7
24140.4
52699.9
178434
178131
51350.4
23732.5
24202.3
52681.7
177024
176747
51347.4
23794.2
24258.2
52655.2
175690
175430
51322.8
23844.8
24299.3
52615.3
174410
174159
51288
23882.9
24331.8
52560.4
173164
172931
51237.8
23912.9
24358.8
52502.4
171954
171734
51192.5
23941.5
24385.8
52448.2
170804
170640
51148.9
23968.2
24409.7
52403.8
169891
169779
51126.1
23994.7
24438.2
52405.3
169116
169020
51152.7
24027.6
24474.5
52430.6
168383
168288
51188.6
24067.2
24517.7
52472.9
167648
167551
51245.1
24114.8
24568.5
52526.3
166917
166818
51306
24168.1
24622.5
52581.2
166187
166079
51364.1
24223.5
24677.5
52628.6
165447
165344
51410.9
24276.9
24729.2
52661.3
164711
164605
51446.5
24328.5
24781.3
52690.4
163964
163857
51482.6
24382.1
24835
52717.5
163215
163111
51512
24435.7
24886.4
52733.2
162470
162363
51527.6
24485.8
24933.1
52736
161718
161609
51531.2
24530.4
24974.9
52724.2
160960
160851
51519
24571.5
25013.2
52699.3
160202
160094
51493.7
24607.7
25044.7
52656.5
159443
159338
51449.9
24636.4
25068.3
52596.3
158691
158590
51387.5
24657
25082.3
52516.6
157946
157850
51305.5
24665.9
25083.8
52414
157212
157128
51199
24662.9
25072
52286.9
156503
156432
51065.7
24643.4
25040.4
52126.4
155825
155773
50898.4
24603.1
24987.7
51935.7
155192
155168
50701.4
24540.3
24908.9
51711
154623
154629
50465
24447.3
24797.8
51443.4
154138
154174
50186.4
24321.6
24652.4
51129.4
153745
153816
49859.1
24155.6
24466.6
50765.7
153467
153582
49482.2
23940
24239.3
50359.4
153334
153503
49071.4
23687.1
23974.4
49921.3
153341
153594
48626.6
23396.8
23671.8
49443
153496
153896
48139.5
23065.6
23328.5
48935
153863
154413
47626.5
22694.8
22951.6
48417.3
154452
155130
47121.5
22310.3
22569
47911.5
155249
156049
46649.1
21929
22186.8
47488.8
156241
157136
46254
21559
21823.9
47151.8
157398
158377
45951.5
21223.6
21500.5
46911.3
158694
159725
45750.4
20936.1
21227.9
46776.5
160085
161149
45654.4
20704.6
21014
46748.1
161534
162607
45668.9
20533.7
20861.8
46831.4
163008
164077
45787.7
20414
20769.1
47010.9
164489
165543
46000.4
20345.7
20733.3
47284.4
165949
166969
46301.8
20334.4
20755.3
47656.3
167367
168347
46697
20380.3
20834.4
48114.8
168728
169661
47166.9
20479.7
20962.7
48633.9
170023
170894
47691.4
20621.9
21133.5
49208.1
171257
172228
48276.8
20801.4
21347.1
49850.6
172691
173796
48936
21018.4
21594.7
50568.9
174283
175401
49671.7
21269
21878
51372.2
175872
176937
50473.6
21554.5
22196.4
52232.2
177371
178347
51316.3
21874.5
22546.6
53113.8
178732
179610
52179.9
22224.3
22921.7
54004.1
179941
180715
53051.6
22597.6
23316.9
54891.4
180986
181646
53919.7
22990.6
23728.9
55763.9
181853
182400
54772
23399.2
24150.2
56605.6
182544
182987
55592.1
23814.2
24570.3
57404.6
183070
183408
56370.5
24228.3
24985.3
58144.4
183429
183652
57087.6
24635.3
25390.4
58824.3
183621
183739
57748.8
25033.6
25785
59455.1
183676
183730
58347.7
25419.3
26154
60010.1
183613
183648
58862.8
25776.6
26490.6
60477.6
183463
183485
59295.7
26101.6
26793.9
60867.5
183257
183263
59656.7
26395.4
27068.1
61193.4
182997
182997
59960.9
26661.8
27317
61467
182706
182708
60214.6
26901.9
27537.7
61691.4
182405
182409
60422.8
27115.5
27738.5
61875.7
182099
182108
60597.2
27307
27920.4
62027.5
181801
181812
60736.1
27478.1
28079.9
62147.8
181503
181519
60850.1
27627.8
28220.1
62244.9
181208
181236
60940.9
27757.9
28342.6
62319.8
180930
180956
61014
27875.4
28453.9
62384.1
180658
180688
61076.3
27981.1
28553.7
62441.2
180391
180421
61130.5
28076.5
28643.9
62482.9
180122
180156
61170.8
28161.6
28726.7
62521.8
179858
179897
61215.6
28244.6
28807.8
62558.8
179616
179659
61250.9
28322.1
28878.4
62588.4
179376
179415
61278.5
28386.6
28937.8
62610.1
179131
179175
61303.9
28444.4
28996.2
62636.3
178893
178946
61335.1
28503.3
29054.3
62660.6
178664
178711
61360.1
28560
29107.7
62680.2
178435
178481
61380.2
28611.9
29158.2
62704.2
178205
178254
61409.2
28661.9
29206.7
62726.7
177973
178030
61430.6
28707.3
29251.2
62744.8
177756
177808
61455.6
28753.6
29296.5
62766.5
177540
177592
61476.4
28797.3
29337.7
62788
177321
177373
61498.5
28836.7
29378.3
62803.8
177099
177154
61512.3
28871.2
29462
62905.6
176922
176888
61649.7
28898.9
29484.6
62711.4
176175
174638
60707.4
28474.4
29051.6
61340.1
172347
166206
58517.2
27161.6
25154.1
54985
159536
154081
54927.6
25159.1
24016.7
52286.8
151259
148059
51985.1
23651
9542.5
5234.94
3673.41
3153.12
2383.33
2105.68
1926.77
1876.42
1903.74
1989.48
2196.21
2455.46
3147.84
3552.12
4538.16
5935.61
6434.91
10331.4
21719.2
54570.7
122924
360890
378969
125470
56197.3
61228.7
135451
398523
413953
138474
62882.6
62807.6
138961
418096
427410
143547
65398.4
64775
143265
433456
438104
146231
66510.9
66211.1
145840
441200
444933
148248
67513.4
66790.8
147153
445276
444802
147721
67284.8
66506.7
147230
445152
445180
148428
67520.9
66739.1
147493
445253
445283
147886
67449.2
66356.1
147181
445365
445381
148410
67428.4
66657.1
147478
445460
445486
147875
67372
66281.9
147166
445563
445581
148405
67354.8
66578.9
147476
445664
445693
147883
67288.1
66189.8
147168
445771
445794
148396
67259.8
66483.4
147465
445884
445907
147867
67195
66098
147150
445985
446020
148388
67173.6
66402.3
147458
446112
446123
147853
67122.7
66031.4
147143
446209
446255
148378
67109.5
66332.9
147442
446339
446354
147839
67044.6
65940.4
147123
446444
446494
148353
67009.4
66225.6
147411
446577
446594
147812
66936.3
65833
147093
446685
446723
148332
66907.9
66129.8
147392
446811
446840
147792
66848.4
65750.7
147079
446940
446967
148309
66831.3
66052.9
147364
447060
447093
147760
66768.7
65663.5
147037
447186
447223
148263
66736.9
65950
147313
447317
447359
147714
66662.7
65555.2
146989
447444
447476
148212
66631.3
65850.9
147267
447576
447609
147669
66571.5
65469.9
146947
447689
447726
148181
66553.4
65776.8
147237
447824
447854
147640
66499.8
65394.1
146916
447946
447987
148144
66473.8
65692.2
147193
448081
448115
147590
66414.2
65311.4
146862
448208
448246
148095
66398.4
65624
147146
448336
448374
147543
66352.7
65253.8
146825
448474
448498
148058
66342.4
65567.4
147106
448592
448631
147498
66296.2
65198.2
146786
448726
448746
148017
66288.1
65514.2
147070
448832
448867
147461
66244.7
65148.9
146756
448955
448968
147994
66242.9
65474.8
147053
449048
449079
147451
66212.4
65123
146748
449156
449168
148010
66222.6
65458.9
147081
449242
449266
147494
66200.9
65113.6
146795
449335
449345
148070
66218.6
65459.7
147149
449410
449419
147564
66211.6
65135.1
146879
449468
449474
148183
66253.7
65505.6
147284
449524
449507
147708
66269.9
65202
147050
449541
449534
148401
66333.4
65594.6
147528
449573
449523
147963
66372.9
65315.9
147340
449537
449494
148753
66465.1
65738.6
147920
449509
449415
148378
66536.2
65492.1
147815
449405
449306
149329
66663.7
65949.9
148558
449288
449125
149053
66770.8
65740.8
148564
449089
448910
150228
66939.8
66235.6
149542
448852
448596
150094
67075.6
66044.2
149698
448505
448217
151558
67262.5
66551.4
150970
448102
447715
151670
67403.9
66359.3
151362
447545
447108
153449
67595.9
66865.7
152941
446915
446368
153878
67717.3
66624.6
153633
446107
445511
155928
67849.2
67055.2
155476
445237
444561
156539
67864.6
66673.5
156295
444241
443609
158584
67848.3
66954.8
158094
443343
442828
159010
67686.9
66362.5
158672
442655
442462
160673
67439
66398.7
159975
442452
442435
160578
67017.3
65398.5
159917
442734
443029
161234
66315.3
65095.2
160101
443677
444275
160392
65616.1
63737
158730
445308
446368
159451
64574
63149.6
157620
447868
449465
157543
63566.7
61607.8
154718
451536
453743
154840
62426.7
61161.6
150904
460160
462843
151522
61452.4
60107.7
145593
465559
467783
147136
61216.8
60640.7
140393
466162
462381
140776
61987.7
62111.4
135735
455021
440226
135531
63610.7
63403.5
126573
402251
595330
122205
63466
148329
362394
1.00214e+06
731397
195966
74013.6
80001.5
207702
641073
598663
188863
71836.6
72280.5
186179
587343
576266
182805
68160.4
67479.3
173390
560261
545190
170938
64837.7
63220.5
162422
530428
512092
157929
60642.7
59970.4
148945
494540
482936
145766
58389.6
57221.9
136697
466980
455681
134542
56907
56409
129241
443200
423622
125170
56615.3
56796.7
120158
396998
367049
112929
56882.2
57938.2
111482
550681
936190
333446
133042
64617.2
172813
670620
605251
181654
69928.7
66804.8
174273
597921
586449
175805
68494.5
65276.7
161096
569833
548526
160928
65918
63253.1
146154
521809
496062
146396
64046
62518.7
131465
457203
400930
125379
62802.3
61891
117441
581367
972127
348339
137443
65170.6
165316
693139
583872
176058
68846.9
60440.6
145767
531625
496596
146850
60869.9
57480.9
128313
464137
434697
128729
57921.1
56687
118043
398299
362724
111280
57039.8
58411.8
109290
536743
895125
321859
127158
63104.2
154513
639217
565241
160827
66576.5
63381.5
146405
538495
503820
147010
65437.7
64081.5
131812
461579
412130
126681
64481.2
63849.3
119086
598770
975444
345714
136516
66709.5
163667
673570
548953
165766
68895.3
60969.2
129899
483416
430460
130936
61426.6
60186.8
113118
386448
575253
116902
62457.3
133056
337803
951887
683704
154383
66786.7
71315.1
168056
583967
529948
149187
67703.2
66724.9
139924
470967
405993
122017
64621.3
65718.1
119475
577462
905996
329418
135065
69091.5
150666
618024
489978
149827
69919.3
63980.6
118889
412391
599595
122181
67238.1
138462
338797
966503
655543
151078
71753.7
74556.1
160363
537816
458393
135061
69470.5
70843.1
125126
645866
992179
343980
143829
72513.3
162354
641704
496691
152399
72000.6
64524.2
116920
420592
595857
122962
69028.4
139316
325170
895755
591401
143433
72946.8
73406.9
144895
452444
627557
125504
71665
142377
333281
887215
557599
132918
71601.2
74483.4
140256
723456
1.03128e+06
364223
151627
70730.8
144694
624407
448658
144779
66992.3
62813.5
114149
595919
735400
287742
128128
69521.4
127714
876614
1.00887e+06
334221
141168
56120.7
133395
544549
616247
114809
51917.4
93818.4
204589
554420
549965
85335.5
27078.2
45906.9
120812
639711
758238
140468
53623.4
55202.2
144839
784020
717023
135679
52752.2
46902.3
119778
632001
532457
72500.7
30015
100052
231179
584717
718893
113554
54261.8
127603
263504
691038
725110
119834
67173.7
131095
278691
653968
589643
128936
69712.4
74616.8
149542
517052
915778
377498
165471
92658.3
121566
801856
723319
299000
145018
76851
135015
582017
482265
147862
79057.4
153447
333352
852130
664147
140494
83949.3
82880.2
146979
527669
887507
344524
154306
83959.9
140647
687366
550185
147611
83353.9
156689
357522
919945
696316
145339
85682.1
84934.1
151229
564239
999722
390598
166840
93850.9
118183
797641
697895
285787
138994
76039.4
118220
526548
411200
140584
78663.5
82466.4
159504
591527
1.01494e+06
371455
159270
85378.3
145575
702831
539574
149371
83479.7
154202
349084
912302
674893
139902
83967.7
82515.7
144661
533684
908027
333682
149818
81633.7
135469
656617
521396
142389
81085.3
150197
338144
891645
642624
135457
81940.8
80576.8
141590
509821
881979
326894
148462
80618.2
132925
634950
499466
138287
80116
147886
331646
856578
626498
133249
80742.3
79616
138596
495245
848538
320137
145869
79315.5
129144
609998
484782
135813
78865.4
144307
315286
828070
598792
128750
78817.4
77925.5
133259
473741
803364
308180
141183
77116.2
125662
586025
469276
131734
76808.5
140872
310435
808750
587254
127327
77143.1
76332.1
132691
467775
798458
307202
139684
76103.9
125895
577732
463431
132119
75676.7
139684
304633
795873
572325
126323
76498.9
75647
131354
456291
781214
305853
139251
75747.6
125212
565580
455979
133968
75539.7
139728
303962
792120
577788
127222
76412.4
75771
133625
465627
798643
305703
139936
76112.8
127253
571374
456662
133885
75928.7
141067
307699
783518
574021
129268
76907
76323.2
134429
457959
793668
310657
141733
76856
128237
573735
460439
136713
76633.2
142809
310214
795689
583995
130884
77909.2
77376.9
139086
473071
811336
314555
143935
77999.7
131374
583226
472522
140820
78019.6
146343
318075
822251
605688
134748
79721
79084.2
141928
486124
833280
324160
148781
80248.1
135614
608526
490204
145372
80286.2
152823
336437
855045
628279
141513
82833.6
82199
148600
502331
877953
345317
156370
84078.9
143366
648249
525735
153315
83732.6
166852
379972
950212
747378
123415
93750.5
142452
287906
673366
520570
126505
76972.3
78570.7
141068
438036
783147
311275
145836
80286.2
132812
584444
474738
143048
80355.2
152085
329328
839592
623423
139485
83113.1
83737.3
152729
508665
933434
363982
165516
93721.7
119393
750490
675748
287292
142717
78242.4
127860
515906
440082
143824
80312.1
148457
313363
789373
596162
135763
82579.8
82693.4
146722
489955
857229
335723
155074
84866.6
143256
638918
523262
155035
84824.7
168437
369998
951847
765075
121181
95739.4
146535
295028
695699
527725
132166
80330.8
82522.4
148976
448735
821427
326712
154225
85475.8
140475
619513
514687
154120
86354.5
170452
373244
956400
776867
122050
97581.8
149212
296803
704365
548690
136842
82813.2
85095.8
155836
480020
914341
373876
169703
97877.3
126395
740504
665682
289516
147004
81476.4
129233
506678
439146
143050
83004.1
151986
317224
787008
603275
139320
85885.7
87035.4
153121
507646
930587
369705
170972
98506.9
122760
762840
701174
296730
150327
83693.3
137173
544468
467269
152703
85919.6
168470
363711
865281
717766
129240
98049.3
146978
287245
660122
518292
130856
82383
84761.2
147161
450644
833753
337926
158990
89217.6
146060
632578
524055
161692
90268
177750
384779
971691
785898
128231
102930
157244
309507
723685
581279
146353
88423.1
90885.2
164861
505503
962227
385133
178405
104403
136013
792926
725111
311307
157117
88774.8
140537
559473
490942
160310
91128
178703
393989
942681
797198
133543
105357
159697
316443
745050
587373
147425
90419.1
92930.6
167307
511608
986638
392985
182842
108631
130822
821349
783647
325690
166247
98626.2
130315
660435
626700
287173
148942
86733.2
140884
511527
453936
157835
89838.1
171817
361946
857671
725227
127008
102268
152161
293077
682079
538462
139479
87218
90502.6
158821
473520
892427
379935
176625
104623
132902
757172
708446
305160
157126
89728.6
143728
555801
487480
162856
92346.5
179738
380944
928151
765622
132466
106643
159777
309850
706455
561202
145485
91850.9
95388.3
167603
502141
970114
412513
188179
113036
136089
821282
790086
333269
171722
102638
136448
684164
655646
299459
155262
91324.9
148322
541899
484991
168029
94942.3
184491
387862
929789
789877
132220
112565
168461
319050
760770
649762
133644
101275
150806
285340
620025
507160
144394
89550.7
93810.5
165117
460480
897661
383496
181381
109126
134808
755637
711243
310851
162519
94304.5
149238
562109
498876
171137
97674
191069
415530
960232
814993
141738
114871
173921
333315
786327
688128
138626
105329
159362
304990
668664
561263
154371
94184.4
98825.1
176318
503502
971770
406890
192430
116437
140885
817155
788061
339915
176049
107042
138456
675257
653544
302896
159804
95208.6
153027
539684
482546
173814
99471.2
192983
408852
929782
815280
140969
117556
176515
337378
792775
685936
141836
107606
161885
307193
664379
557906
156727
96266.2
101065
178540
502193
972993
410876
196722
119639
144001
832708
802850
340274
178948
109649
143261
694169
666385
309519
163565
98514.8
156490
550039
498697
177546
102557
197100
420745
953849
827388
145594
120691
180977
344443
804963
708403
145635
110944
168117
319600
709932
641756
140310
105717
158374
298195
637076
531891
154061
95581.7
101170
178015
485416
956422
411827
197130
121261
144209
824598
798684
340818
180286
111245
144590
689588
672933
313480
166041
100002
160958
555320
500133
182669
104463
200840
423398
957128
826159
150582
123436
183197
342046
799906
709175
147315
113501
170806
322837
716268
653581
144809
108757
162736
304824
649150
556284
159736
98961.3
104683
184049
510248
992798
426851
203585
125130
150634
855305
833104
355059
187494
116859
152495
730495
727885
330488
175061
111456
147990
650309
638935
303734
164289
100477
160157
539351
491936
180900
105362
200788
417007
935552
819000
149642
124781
186187
348778
807494
705740
152959
115667
172822
323196
701586
639219
146088
110645
164907
305497
641889
549623
162158
100929
106776
186149
506628
994076
430838
208412
128916
153395
854489
829603
357351
191341
119772
156144
733201
736122
334634
178815
114653
151423
658862
651938
310994
169451
104143
164611
544370
495480
187016
109182
206737
422814
952435
827176
152167
129462
191983
354636
816440
728513
156263
119854
179152
332981
729285
663904
151752
115163
171410
315748
666551
570033
168927
105241
111574
194297
525995
1.03105e+06
448912
216398
133528
161156
879646
851808
369527
198552
124874
160752
752347
761082
350650
186890
120099
158797
692253
685331
326535
177163
108824
173147
579969
533057
198113
114504
218851
457125
1.01544e+06
876420
167515
136331
201732
372569
855719
761589
162647
126328
189473
355482
777731
718198
163279
122113
181392
336561
726805
666298
155161
118061
174126
318872
669878
562576
170090
107983
114682
197030
523540
1.02349e+06
449368
220982
137128
163563
882354
862535
373802
202370
128400
165261
775580
792140
361025
193053
125747
166053
723158
736425
344708
186580
122033
160200
675372
676796
325171
178824
111176
174407
563538
519361
197437
116915
219526
440941
991861
863957
161973
138199
204166
372365
854858
760591
166304
128745
192015
353443
772780
698658
164179
124848
184879
337723
713231
653205
158755
120965
177067
320436
659745
563775
174182
110343
117255
201300
527192
1.01224e+06
458112
224395
141577
169167
877130
874742
388299
210413
133542
173970
784251
797300
369822
199176
129947
172488
727694
741671
352306
192089
126053
165234
677713
681169
332977
183854
114951
179587
571165
528694
203328
120871
226438
456133
999640
884522
173136
142731
209787
383254
877145
765223
171164
133266
198706
367617
784288
719668
171019
129626
192026
350955
736604
672583
165417
126170
184490
330845
676521
572435
180216
115845
122833
208538
536725
1.03583e+06
462987
231406
145411
173948
898065
896500
395090
215302
137749
177807
786594
801693
379041
205048
134778
177936
750508
767439
363717
198302
131137
172023
695492
697595
339587
190512
119698
185778
586386
546710
211915
125891
236617
480168
1.04234e+06
899964
182550
149372
220459
398743
889750
788897
179142
140127
207755
379985
808900
742155
179332
135881
200463
364214
759656
687434
173562
132025
192236
344028
692897
589934
188455
120744
128144
216739
553193
1.0735e+06
480050
242603
152737
180694
926684
919716
409433
224949
144368
186895
814345
830689
389878
213204
140873
184522
769306
797263
377692
207565
138462
180658
732204
759691
365486
202758
134828
177116
698165
700721
346300
194924
123193
190391
588455
547650
215417
129782
240228
474691
1.03779e+06
898384
185226
152042
222091
399971
889727
786336
182145
142529
210545
381576
805296
738330
180746
138920
204695
369022
766895
698391
179190
136349
198549
351990
706048
606981
195480
125229
132812
222328
566732
1.07009e+06
490424
248216
157613
187516
936112
945326
419795
231449
149259
191755
825834
839266
397981
219693
145525
190900
767927
788564
381379
212818
141156
183351
717950
729109
362078
204403
129250
199894
608966
568156
227025
135824
251837
492041
1.07629e+06
931396
190463
159290
232357
412816
923743
809347
188563
149403
219899
393371
834699
763248
190499
145373
213029
382512
788782
723121
185292
142323
206846
366316
735735
625322
203716
131038
138756
233733
588569
1.12164e+06
509536
259620
164834
196053
966105
963687
430868
240869
155822
197948
851881
871961
410277
227944
151458
195662
789352
821385
398038
222392
147981
193826
752083
756560
377670
213760
135554
208129
626844
587144
234807
142231
261204
505795
1.10394e+06
946052
197240
166193
242638
432399
953555
841563
200318
156234
228695
408490
858905
783130
198254
151713
221211
394335
811258
736952
192577
148094
215450
378294
755448
646245
212065
136832
144753
240088
603641
1.13397e+06
520777
267368
170691
203016
981258
982286
443146
248453
161417
204614
857026
880311
420900
235221
156888
205474
795905
820081
401017
227920
152382
197211
745156
759676
382114
219469
139636
213464
632985
595209
241457
146738
267073
512319
1.10962e+06
945493
205220
170674
247233
434092
950547
837435
201519
160285
234281
413596
862254
778767
201372
155923
227569
402043
813217
737066
198730
152506
219818
380360
749578
635990
216088
140302
148323
245546
601643
1.12986e+06
536022
273300
175837
216376
974159
977641
451495
255061
165882
208070
851262
871679
423471
240299
159726
207918
776096
782077
395661
229163
145309
222242
655338
613498
249836
152668
278771
536755
1.13686e+06
986246
214491
178766
261198
458462
993437
864564
215394
168590
243948
427480
880141
794237
210107
162746
235127
410811
825690
746569
206085
157846
225571
387639
758185
633345
218539
144500
152772
248869
603162
1.12516e+06
530861
277934
179184
217278
967483
981321
453524
259461
169648
213416
858905
878780
429376
245571
164004
212640
778893
787826
403130
234534
150032
227815
661242
623726
254680
157493
285706
544354
1.14932e+06
982504
217123
183653
266092
462930
991174
862402
220419
172426
249878
435282
881877
780421
216748
165916
237647
406860
790298
661782
229553
151755
160250
260718
629854
1.17296e+06
554985
291131
187393
227416
996274
1.00342e+06
468833
270047
176791
221902
876551
897698
440882
254205
170243
221321
799345
809996
414511
242745
155962
234600
673783
636602
261547
163345
291821
552228
1.1523e+06
987773
231582
188399
271133
466789
997413
867522
220608
176679
254226
436932
889859
790890
218949
169405
242752
412390
814078
676023
235749
154549
163554
266061
638364
1.16821e+06
562420
297401
191744
235425
992518
995738
473491
275475
179635
228031
863709
867671
437029
255984
163068
245138
705968
664652
273366
170072
305556
580341
1.19931e+06
1.02561e+06
242199
197440
283869
487916
1.03574e+06
893294
231374
184898
265388
456563
918683
817833
231628
177570
254759
432998
840189
701221
246613
163023
171392
277271
665553
1.21486e+06
582543
309173
200079
245228
1.02848e+06
1.03208e+06
488187
286094
186279
232995
879436
892862
449744
266020
168450
254780
731482
690816
285306
176064
317090
598688
1.23994e+06
1.04086e+06
252190
203724
291518
497026
1.04705e+06
894179
238992
189462
271911
461396
912756
753944
261653
172504
180570
293202
711023
1.28756e+06
618937
326566
210405
257460
1.08529e+06
1.08963e+06
512096
300236
196699
245116
940226
974107
481548
281563
188222
243765
849427
868118
449602
267382
170772
256559
712900
675255
284305
178420
315757
589319
1.2001e+06
1.01693e+06
251970
204789
292502
494076
1.03073e+06
871154
234779
189763
272093
457286
889027
723773
260593
171652
180676
291655
688493
1.21417e+06
597399
321806
206632
261906
1.00529e+06
1.00133e+06
493883
293305
182361
266927
791776
741739
296083
188767
335789
629290
1.3088e+06
1.09293e+06
265069
215767
309694
523844
1.10416e+06
930257
255439
200920
286774
482641
946287
779407
273866
182145
190319
306151
742152
1.3223e+06
644949
342140
220816
274909
1.10956e+06
1.1165e+06
535223
315215
204822
260557
935971
954177
489506
291008
184413
275038
773480
735028
301126
191485
341651
638796
1.29721e+06
1.05573e+06
280163
218756
310996
520040
1.04493e+06
820674
280546
191801
199620
313933
775155
1.36866e+06
663400
355535
227390
283293
1.12955e+06
1.13641e+06
545440
324820
210716
268648
956022
977841
502265
299092
189599
281123
783026
743903
312273
197088
344893
636192
1.2955e+06
1.05869e+06
282598
222995
317291
526463
1.06434e+06
848526
287308
196392
203274
319482
802153
1.39522e+06
679184
360945
230719
292893
1.13768e+06
1.13872e+06
554714
330204
202331
296768
886803
831418
329942
208638
374251
702840
1.43465e+06
1.16114e+06
305331
238115
341124
571096
1.15678e+06
914860
308632
209041
216016
342240
859562
1.47877e+06
727363
385241
246337
310440
1.20284e+06
1.21614e+06
594155
351281
225891
290773
1.00721e+06
1.02685e+06
531461
320422
201288
298100
821668
778429
328346
209136
360056
654211
1.30405e+06
1.00449e+06
315939
220819
224681
342896
920070
1.55024e+06
756479
396989
249660
322835
1.24526e+06
1.24273e+06
610643
358390
217009
318963
954767
894208
352949
223303
401998
751534
1.5178e+06
1.21869e+06
328714
253850
363894
605320
1.21901e+06
953623
325301
221066
228021
359262
896784
1.51786e+06
754397
402696
255268
330808
1.21246e+06
1.20569e+06
602268
361920
220196
320024
931843
875996
350095
226921
394919
728230
1.46868e+06
1.18643e+06
324427
251809
358538
593424
1.18835e+06
919524
319198
217585
223911
348822
863509
1.42059e+06
709564
385922
233531
341088
1.07242e+06
985118
353870
235859
423826
804091
1.6399e+06
1.26796e+06
348480
263588
378362
634941
1.25645e+06
956389
333211
226323
233445
363896
894603
1.45339e+06
731683
402734
241212
348969
1.08967e+06
997001
375253
245089
430049
801911
1.63638e+06
1.28619e+06
350133
269398
385696
637508
1.27985e+06
987378
340085
231183
237266
369814
924031
1.48876e+06
745510
406887
244800
355380
1.11778e+06
1.01889e+06
379496
248505
431555
804157
1.63379e+06
1.23039e+06
375975
257254
259287
406084
1.12243e+06
1.81733e+06
895615
471450
288671
384148
1.39796e+06
1.37966e+06
691998
414187
244005
357681
1.02944e+06
952069
384061
249608
422362
761679
1.50699e+06
1.1148e+06
364618
251513
254736
386918
1.01393e+06
1.59264e+06
788827
433568
253587
372034
1.15984e+06
1.04581e+06
392883
255892
440851
815634
1.64069e+06
1.21093e+06
381794
259170
262062
405263
1.09844e+06
1.74569e+06
850675
457681
264422
393851
1.26651e+06
1.13054e+06
416723
265569
468588
875136
1.75554e+06
1.27007e+06
404256
271521
274333
426823
1.13734e+06
1.75862e+06
872480
474338
273100
405107
1.26335e+06
1.13342e+06
427239
274909
474122
871544
1.75179e+06
1.2713e+06
405837
275269
277639
427609
1.14574e+06
1.77486e+06
875732
477665
274220
406714
1.27374e+06
1.15103e+06
427198
275366
477484
879407
1.81429e+06
1.30882e+06
413307
275853
277982
437692
1.16854e+06
1.77994e+06
884920
479693
274898
414498
1.25424e+06
1.06753e+06
436284
279334
291406
493718
1.40868e+06
2.09877e+06
1.0276e+06
525794
295779
456599
1.44257e+06
1.27262e+06
469880
293972
510150
942293
1.92647e+06
1.36506e+06
435555
290581
289837
450605
1.22098e+06
1.85906e+06
903901
493781
276459
416308
1.28419e+06
1.08412e+06
438622
278662
293555
497773
1.40141e+06
2.06633e+06
1.01434e+06
523468
291732
451369
1.39922e+06
1.17153e+06
473743
295922
303302
518108
1.49375e+06
2.14452e+06
1.04547e+06
535720
292369
454520
1.42384e+06
1.18908e+06
480155
295038
305439
513512
1.54591e+06
2.31222e+06
1.11746e+06
563133
305053
483741
1.53605e+06
1.26811e+06
502810
308426
311263
541177
1.56517e+06
2.18013e+06
1.05853e+06
547466
289336
458826
1.39529e+06
1.13744e+06
447481
280117
302941
532159
1.34599e+06
1.6969e+06
575058
307314
568951
1.14823e+06
2.42743e+06
1.56207e+06
481946
297912
299578
507138
1.2694e+06
1.43282e+06
516564
295882
310839
601677
1.59583e+06
1.84537e+06
618714
303801
567133
1.16645e+06
2.44769e+06
1.50887e+06
487862
286858
271190
425332
1.21025e+06
1.37191e+06
542293
285192
285041
549080
1.4879e+06
1.59273e+06
592915
289389
289605
627723
1.69179e+06
1.78901e+06
666675
298037
292320
677313
1.89566e+06
1.94872e+06
762652
321120
320022
757278
1.94926e+06
1.95203e+06
776782
331500
329283
770729
1.94206e+06
1.93295e+06
791000
348187
347709
779333
1.88241e+06
1.82189e+06
787251
354652
359589
790394
1.75848e+06
1.7011e+06
797076
367992
372421
796865
1.65124e+06
1.60666e+06
798145
379328
383430
796555
1.56885e+06
1.53431e+06
795988
388474
390601
790894
1.50543e+06
1.47888e+06
788469
393600
394532
780610
1.45729e+06
1.43746e+06
776566
394953
393487
765773
1.42194e+06
1.40785e+06
760021
392890
389789
748322
1.39726e+06
1.3876e+06
741042
388977
385263
727834
1.38053e+06
1.37415e+06
719841
384437
381015
706554
1.36963e+06