/*--------------------------------*- C++ -*----------------------------------*\
| =========                 |                                                 |
| \\      /  F ield         | OpenFOAM: The Open Source CFD Toolbox           |
|  \\    /   O peration     | Version:  v2006                                 |
|   \\  /    A nd           | Website:  www.openfoam.com                      |
|    \\/     M anipulation  |                                                 |
\*---------------------------------------------------------------------------*/
FoamFile
{
    version     2.0;
    format      ascii;
    class       volScalarField;
    location    "0.095";
    object      turbulenceProperties:I;
}
// * * * * * * * * * * * * * * * * * * * * * * * * * * * * * * * * * * * * * //

dimensions      [0 0 0 0 0 0 0];


internalField   nonuniform List<scalar> 
23013
(
0.149983
0.149982
0.149988
0.149991
0.149993
0.149992
0.149993
0.149994
0.149997
0.150003
0.150009
0.150014
0.150017
0.150017
0.150016
0.150015
0.150013
0.150011
0.15001
0.150008
0.150007
0.150006
0.150006
0.150005
0.150005
0.150004
0.150004
0.150003
0.150003
0.150003
0.150003
0.150002
0.150002
0.150002
0.150002
0.150002
0.150002
0.150002
0.150002
0.150002
0.150002
0.150002
0.150002
0.150002
0.150002
0.150002
0.150002
0.150002
0.150001
0.150001
0.150001
0.150001
0.150001
0.150001
0.150001
0.150001
0.150001
0.150001
0.150001
0.150001
0.150001
0.150001
0.150001
0.150001
0.150001
0.150001
0.150001
0.150001
0.150001
0.150001
0.150001
0.150001
0.150001
0.150001
0.150001
0.150001
0.150001
0.150001
0.150001
0.150001
0.150001
0.150001
0.150001
0.150001
0.150001
0.150001
0.150001
0.150001
0.150001
0.150001
0.150001
0.150001
0.150001
0.150001
0.15
0.15
0.15
0.15
0.15
0.149999
0.149999
0.149998
0.149997
0.149996
0.149995
0.149996
0.150002
0.150012
0.150026
0.150035
0.150029
0.150012
0.149993
0.149974
0.149954
0.149963
0.149981
0.14998
0.149996
0.150008
0.149817
0.149081
0.144715
0.13882
0.145206
0.148399
0.144638
0.136551
0.132496
0.128509
0.132852
0.142354
0.137007
0.125038
0.123879
0.121392
0.122741
0.135139
0.130513
0.117044
0.11817
0.11673
0.115979
0.129306
0.125782
0.11241
0.114574
0.113859
0.112189
0.12517
0.122488
0.110019
0.112427
0.112173
0.110114
0.122159
0.120039
0.10859
0.111123
0.111111
0.108838
0.119891
0.118099
0.10763
0.110283
0.110396
0.107952
0.11807
0.116501
0.106937
0.109713
0.109862
0.107284
0.11655
0.115134
0.106381
0.109292
0.109455
0.106738
0.115228
0.113926
0.1059
0.108943
0.109111
0.106258
0.114044
0.112839
0.105473
0.108644
0.108815
0.105838
0.11299
0.111855
0.105099
0.108372
0.108526
0.105461
0.11203
0.11097
0.104776
0.108121
0.10829
0.105155
0.111177
0.110178
0.104499
0.107883
0.10804
0.104867
0.110385
0.109445
0.104239
0.107649
0.107832
0.10463
0.109683
0.108815
0.104053
0.107464
0.107627
0.104442
0.109066
0.108237
0.103886
0.107256
0.107431
0.104292
0.10852
0.107753
0.103783
0.10709
0.107264
0.104188
0.108035
0.107302
0.103685
0.106933
0.107185
0.104108
0.107597
0.106932
0.103673
0.107088
0.107437
0.104129
0.10725
0.106606
0.103734
0.107417
0.107776
0.104192
0.106932
0.106343
0.103855
0.107825
0.108224
0.104353
0.106702
0.106159
0.104067
0.108286
0.108693
0.104576
0.106522
0.106021
0.104314
0.108754
0.109191
0.104847
0.106404
0.105947
0.104626
0.109271
0.109711
0.105175
0.106344
0.105916
0.104979
0.10979
0.110247
0.105548
0.106334
0.105956
0.105398
0.110357
0.110834
0.105993
0.106397
0.106057
0.10587
0.110944
0.111437
0.10648
0.10651
0.106192
0.106366
0.11154
0.112053
0.106993
0.106657
0.106374
0.106901
0.112169
0.112697
0.107547
0.106857
0.106602
0.107474
0.11281
0.113353
0.108138
0.107101
0.106876
0.10808
0.113473
0.114029
0.10876
0.107389
0.107186
0.108717
0.114146
0.114712
0.10941
0.10771
0.107528
0.109372
0.114829
0.115409
0.110077
0.108059
0.107894
0.110043
0.115517
0.116092
0.110753
0.108433
0.108285
0.110726
0.116199
0.116773
0.111438
0.108824
0.108683
0.1114
0.116868
0.117434
0.112101
0.109213
0.109067
0.112048
0.117507
0.118044
0.112731
0.109584
0.109431
0.112656
0.118103
0.118607
0.113306
0.109923
0.10975
0.1132
0.118637
0.119089
0.113805
0.110206
0.110004
0.113653
0.119084
0.119454
0.114183
0.110403
0.110156
0.113969
0.119417
0.119667
0.1144
0.110479
0.110174
0.114111
0.119593
0.119716
0.11443
0.110403
0.110031
0.114064
0.119607
0.119552
0.114234
0.110148
0.109663
0.113743
0.119388
0.119148
0.113748
0.109654
0.109081
0.113161
0.11893
0.118563
0.112995
0.108931
0.108252
0.112288
0.118206
0.117708
0.111885
0.107904
0.107072
0.111008
0.117137
0.116509
0.110382
0.106546
0.105605
0.109392
0.115812
0.115094
0.108587
0.104927
0.103899
0.107469
0.114295
0.113534
0.106551
0.103091
0.101992
0.105339
0.112657
0.11185
0.104337
0.101093
0.099942
0.103048
0.110917
0.110114
0.102006
0.098999
0.0978231
0.100682
0.109173
0.108389
0.0996626
0.0968721
0.0956924
0.0983507
0.107478
0.106735
0.0973949
0.0947801
0.0936223
0.0961307
0.10588
0.105186
0.0952761
0.0927871
0.0916738
0.0940881
0.104403
0.103771
0.0933445
0.09094
0.0898873
0.092246
0.103075
0.102501
0.0916234
0.0892537
0.0882743
0.0906283
0.101887
0.101368
0.0901189
0.0877379
0.0868344
0.0892277
0.100827
0.100365
0.0888137
0.0863859
0.0855562
0.0880181
0.099892
0.0994821
0.0876776
0.0851864
0.0844287
0.0869689
0.0990753
0.0987008
0.0866984
0.0841259
0.0834363
0.0860737
0.0983814
0.0982245
0.0858775
0.0831959
0.0825683
0.085347
0.0980995
0.0981752
0.0852475
0.0823897
0.0818251
0.0848116
0.0981595
0.0983325
0.0848123
0.0817097
0.0812127
0.084464
0.098382
0.0985967
0.0845347
0.0811582
0.0807259
0.0842682
0.0986902
0.0989206
0.0843934
0.0807236
0.0803537
0.0842083
0.0990493
0.0992796
0.0843842
0.0803986
0.0800906
0.0842741
0.0994354
0.0996634
0.0844935
0.0801739
0.079925
0.0844524
0.0998408
0.100058
0.0847066
0.0800381
0.0798453
0.0847264
0.100252
0.100456
0.0850047
0.0799788
0.0798368
0.0850779
0.100666
0.100856
0.0853743
0.0799838
0.0798897
0.085494
0.101072
0.101238
0.0857971
0.0800486
0.0799936
0.0859515
0.101455
0.101582
0.086257
0.0801585
0.0801424
0.0864441
0.10181
0.101903
0.0867464
0.0803033
0.0803125
0.0869389
0.102119
0.102187
0.0872127
0.0804519
0.0804794
0.0874114
0.102395
0.102462
0.087665
0.0806042
0.0806405
0.0878611
0.10262
0.102687
0.0880826
0.0807425
0.0807927
0.0882754
0.102808
0.102879
0.0884735
0.0808785
0.0809332
0.08867
0.102982
0.103038
0.088841
0.081011
0.0810587
0.0890251
0.103109
0.103157
0.0891698
0.0811223
0.0811663
0.0893392
0.103214
0.10325
0.089465
0.0812193
0.0812542
0.0896177
0.103293
0.103329
0.0897279
0.0812941
0.0813261
0.0898623
0.103359
0.103393
0.0899571
0.0813506
0.08138
0.0900854
0.103429
0.103439
0.0901617
0.0813977
0.0814095
0.0902698
0.103455
0.103468
0.0903328
0.0814161
0.0814335
0.0904328
0.103491
0.103507
0.0904823
0.0814242
0.081429
0.0905628
0.103507
0.103515
0.0906005
0.0814132
0.0814117
0.0906794
0.103529
0.103522
0.0907042
0.0813917
0.0813818
0.0907717
0.103528
0.103526
0.0907882
0.0813559
0.0813413
0.0908454
0.103526
0.103516
0.0908451
0.0812973
0.0812733
0.0908909
0.103515
0.103512
0.0908901
0.0812278
0.0812014
0.0909357
0.103514
0.103499
0.0909257
0.08115
0.0811238
0.0909665
0.103502
0.103477
0.090947
0.0810676
0.0810305
0.0909799
0.103474
0.103454
0.0909558
0.0809676
0.0809436
0.0909891
0.103458
0.103448
0.0909615
0.0808665
0.0808335
0.0909829
0.103434
0.103413
0.0909499
0.0807532
0.0807199
0.090978
0.103419
0.103387
0.0909408
0.0806403
0.0806042
0.0909633
0.103381
0.103358
0.0909243
0.0805166
0.0804925
0.0909436
0.103356
0.10334
0.090902
0.0803931
0.0803612
0.0909146
0.103327
0.1033
0.0908694
0.0802608
0.0802335
0.090892
0.103301
0.103266
0.0908425
0.0801334
0.0801108
0.0908599
0.103258
0.103232
0.0908106
0.080005
0.0799768
0.0908139
0.103218
0.103188
0.0906915
0.0798274
0.0796991
0.0906876
0.10319
0.10307
0.0905083
0.0795006
0.0792574
0.0904657
0.103143
0.102727
0.0896364
0.0786807
0.0784083
0.0892441
0.102805
0.102968
0.0889493
0.0781053
0.0778166
0.0886101
0.102893
0.103443
0.0886003
0.0775329
0.0740067
0.0748174
0.0780382
0.0808673
0.0846429
0.0867183
0.0882122
0.0890264
0.0892979
0.0890078
0.0881689
0.0867273
0.0834828
0.0810274
0.0775423
0.0746911
0.0737141
0.0735962
0.0804181
0.0938129
0.113256
0.130935
0.13278
0.114262
0.0945119
0.095716
0.115778
0.134525
0.135481
0.117211
0.096983
0.0971076
0.117472
0.136159
0.136761
0.118225
0.0977553
0.0978705
0.118551
0.137234
0.137742
0.118814
0.0982186
0.0983713
0.119022
0.137927
0.138246
0.119242
0.098587
0.0985451
0.119135
0.138123
0.138115
0.119155
0.0986724
0.0986011
0.119073
0.138171
0.138166
0.119232
0.0987071
0.0986348
0.11912
0.138054
0.138034
0.119113
0.0987546
0.0986569
0.119031
0.138088
0.138086
0.119196
0.0987541
0.0986826
0.119091
0.137989
0.137977
0.119089
0.0987998
0.0987032
0.119004
0.138021
0.138001
0.119164
0.0987968
0.0987308
0.119069
0.137929
0.137931
0.119074
0.0988507
0.0987545
0.118979
0.137953
0.137923
0.119138
0.0988527
0.0987913
0.119053
0.137871
0.13788
0.11906
0.0989123
0.0988167
0.118949
0.137871
0.137835
0.119102
0.0989118
0.0988539
0.119029
0.137814
0.137807
0.119026
0.0989723
0.0988717
0.118896
0.137763
0.137753
0.11906
0.0989694
0.0989145
0.118996
0.137745
0.137715
0.118985
0.0990298
0.0989354
0.118866
0.13769
0.137693
0.11904
0.0990308
0.0989779
0.118972
0.137673
0.13763
0.11896
0.0990985
0.0990105
0.118856
0.137629
0.137638
0.119032
0.0991089
0.0990564
0.118944
0.137577
0.137531
0.118929
0.0991791
0.0990951
0.118835
0.13756
0.137567
0.119008
0.0991924
0.0991379
0.118908
0.13748
0.137449
0.118904
0.0992649
0.0991844
0.118816
0.137483
0.137472
0.118988
0.0992804
0.0992345
0.118902
0.137407
0.137389
0.118906
0.0993613
0.0992855
0.118821
0.137417
0.137383
0.118986
0.0993832
0.0993457
0.118911
0.137334
0.137335
0.118925
0.0994753
0.0994031
0.118828
0.137337
0.13731
0.118995
0.0994991
0.0994671
0.118927
0.137278
0.137258
0.118931
0.0995964
0.0995271
0.118831
0.137253
0.137245
0.119009
0.0996262
0.0996001
0.118945
0.137216
0.137182
0.118945
0.0997321
0.0996688
0.118853
0.137186
0.13719
0.119036
0.0997689
0.0997442
0.118961
0.137137
0.137094
0.118955
0.0998722
0.0998178
0.118878
0.137131
0.137136
0.119058
0.099917
0.0998917
0.11897
0.13704
0.137016
0.118979
0.100021
0.0999758
0.118921
0.137079
0.137093
0.119108
0.100074
0.100049
0.119019
0.136986
0.136965
0.119035
0.100175
0.100133
0.118983
0.137029
0.137039
0.119171
0.100228
0.100207
0.119097
0.13695
0.136944
0.119124
0.100329
0.100286
0.119071
0.136999
0.136995
0.119257
0.100374
0.100357
0.119199
0.136933
0.13695
0.119236
0.100476
0.100428
0.119178
0.136987
0.136977
0.119363
0.100512
0.100494
0.119314
0.136925
0.136967
0.119365
0.10061
0.100554
0.1193
0.136978
0.136982
0.119491
0.100626
0.100601
0.119459
0.136964
0.136995
0.119504
0.100699
0.100628
0.119426
0.13698
0.137007
0.119629
0.100692
0.100652
0.119609
0.13702
0.137058
0.119659
0.100733
0.100643
0.119579
0.137047
0.137092
0.119788
0.100688
0.100621
0.119763
0.13711
0.137156
0.119812
0.100677
0.100553
0.119722
0.137166
0.137228
0.119926
0.100561
0.100457
0.119883
0.137257
0.137282
0.11991
0.100467
0.100294
0.119794
0.137322
0.137409
0.119985
0.100247
0.100072
0.119895
0.137451
0.137462
0.119886
0.100004
0.0997414
0.119697
0.13754
0.137609
0.119827
0.0995597
0.0993036
0.119671
0.13766
0.137647
0.119543
0.0990727
0.0987127
0.119238
0.13777
0.137795
0.119211
0.0983332
0.0979636
0.118939
0.137856
0.137798
0.118568
0.0974953
0.0970018
0.118108
0.137928
0.137869
0.117749
0.0963505
0.0958397
0.117269
0.137907
0.137765
0.116465
0.0950823
0.0944386
0.115741
0.137809
0.137643
0.114849
0.0934901
0.0928368
0.114066
0.137538
0.137317
0.112637
0.0917869
0.0910097
0.111577
0.137108
0.136879
0.110088
0.0897793
0.0889981
0.108978
0.136527
0.13607
0.107022
0.0876878
0.0868
0.105687
0.135723
0.135207
0.103752
0.0853206
0.0844387
0.102393
0.134775
0.134091
0.100093
0.0829586
0.0820262
0.0986014
0.133616
0.132908
0.0963543
0.0804808
0.0796052
0.0948205
0.132298
0.131525
0.0924863
0.0781232
0.0772176
0.0908987
0.130878
0.129918
0.0884731
0.0758745
0.0750913
0.08678
0.128898
0.127691
0.0846149
0.0741051
0.0735645
0.0830945
0.12655
0.12508
0.0814293
0.0730965
0.0729677
0.0804398
0.1234
0.121504
0.0795717
0.0730092
0.0738917
0.0797457
0.119199
0.116115
0.0796413
0.0742223
0.0763043
0.0814538
0.11217
0.109779
0.0825665
0.0777114
0.0779403
0.0911715
0.143024
0.135061
0.0939403
0.0786331
0.0769783
0.0918474
0.134637
0.133859
0.0908425
0.0766134
0.0753399
0.0882777
0.13286
0.131676
0.0870808
0.0749463
0.0740172
0.0851872
0.130318
0.129144
0.0833511
0.0736735
0.0729861
0.0821105
0.127762
0.126261
0.0802291
0.072645
0.0722141
0.0790957
0.124787
0.12314
0.0773181
0.0721092
0.0721092
0.0766525
0.12165
0.119999
0.0755393
0.0724141
0.0728938
0.0752883
0.117623
0.115194
0.0753119
0.0738044
0.0747435
0.0757464
0.111825
0.108403
0.0767418
0.0766637
0.0780656
0.0781233
0.106092
0.139821
0.0803539
0.0697215
0.0729559
0.0822795
0.130735
0.130483
0.0779212
0.071684
0.0717217
0.0776709
0.130723
0.129129
0.0760116
0.0710626
0.0713659
0.0750616
0.127061
0.125061
0.074156
0.0713945
0.0725218
0.0740426
0.122666
0.119051
0.073723
0.0728185
0.0750503
0.0746724
0.114763
0.110506
0.0757098
0.0766829
0.0796367
0.0769982
0.107615
0.13688
0.0767452
0.0682552
0.0738708
0.0787576
0.128351
0.126392
0.0756657
0.0734808
0.0752715
0.07595
0.124153
0.121154
0.0748613
0.0755249
0.077369
0.0750556
0.118314
0.115875
0.0753103
0.0783458
0.0805498
0.0765682
0.112362
0.108865
0.0773191
0.0828897
0.0851886
0.0792584
0.106819
0.134995
0.0761111
0.0683491
0.0764956
0.0776763
0.127431
0.124985
0.0744672
0.0761276
0.0784631
0.0753983
0.12273
0.120387
0.0761407
0.0787538
0.0821109
0.0776524
0.116688
0.112552
0.078778
0.0843651
0.0887391
0.0813826
0.109983
0.135147
0.0771421
0.0704984
0.080759
0.0796894
0.12643
0.12246
0.0782907
0.081398
0.0860265
0.0797861
0.1188
0.115871
0.0807971
0.0880174
0.092897
0.0833867
0.113584
0.112325
0.0854161
0.0948874
0.0718554
0.077602
0.134552
0.127079
0.080577
0.0849512
0.0852983
0.0792582
0.124842
0.121528
0.0825011
0.0902038
0.0931692
0.0842288
0.117651
0.115486
0.0885
0.0993096
0.104081
0.0916899
0.115051
0.131524
0.082389
0.0789464
0.09555
0.0864146
0.122632
0.119598
0.0885116
0.0994761
0.108852
0.0937583
0.118058
0.11767
0.0962491
0.111405
0.0829242
0.0844997
0.134209
0.125793
0.0906348
0.102806
0.105807
0.0925786
0.123621
0.121838
0.0998568
0.116757
0.121739
0.103893
0.121616
0.135166
0.0903353
0.0924869
0.117006
0.100907
0.12647
0.123011
0.104174
0.122676
0.136506
0.113836
0.12367
0.127341
0.119073
0.140637
0.107393
0.100045
0.134121
0.128063
0.116316
0.138506
0.146875
0.123122
0.129898
0.135358
0.138437
0.159408
0.127634
0.111783
0.135016
0.135837
0.138122
0.167056
0.174462
0.147142
0.140537
0.141076
0.118832
0.141743
0.187131
0.152756
0.140983
0.147217
0.167548
0.202251
0.224316
0.197331
0.160402
0.154973
0.166321
0.202029
0.249516
0.218994
0.175048
0.162861
0.171373
0.228615
0.305194
0.261713
0.188214
0.224631
0.31786
0.358137
0.404531
0.315971
0.228978
0.379054
0.550856
0.581726
0.915709
0.845786
0.528693
1
1
1
1
1
0.616998
0.339342
0.540524
0.604233
0.427513
0.380414
0.24892
0.238762
0.330774
0.350988
0.276703
0.226153
0.187245
0.190396
0.242254
0.265843
0.213438
0.180879
0.161911
0.166643
0.202671
0.222988
0.183408
0.154924
0.149793
0.148264
0.17159
0.196369
0.182472
0.153646
0.139812
0.138008
0.118669
0.139997
0.163096
0.143297
0.1396
0.134641
0.118585
0.131975
0.152315
0.131029
0.132673
0.129853
0.122448
0.143384
0.110133
0.101861
0.132296
0.126102
0.112618
0.133924
0.126674
0.10857
0.127663
0.132471
0.0968472
0.0991458
0.12188
0.104801
0.122953
0.123463
0.0997853
0.114241
0.0909175
0.0914639
0.132144
0.12156
0.0977101
0.111266
0.104408
0.0934584
0.123269
0.13163
0.0870647
0.0849317
0.101197
0.0921312
0.120103
0.128228
0.0861266
0.0864726
0.104765
0.0924215
0.115192
0.116774
0.0876784
0.0950359
0.0887329
0.0844914
0.120838
0.134886
0.081134
0.0764366
0.0906642
0.082352
0.114823
0.119182
0.080402
0.0865729
0.0735591
0.0793896
0.131008
0.112467
0.0788534
0.0861191
0.0824943
0.0781029
0.117226
0.132211
0.0771121
0.0712501
0.0833297
0.0766175
0.112024
0.116853
0.0765034
0.0798927
0.0698897
0.0765844
0.13008
0.109628
0.0742671
0.0792859
0.0765378
0.0746111
0.115121
0.130056
0.074786
0.0678628
0.0769267
0.0724561
0.10917
0.114705
0.0729549
0.0742576
0.0667637
0.0746666
0.128522
0.107593
0.0703373
0.0734365
0.0713279
0.0713614
0.113461
0.128117
0.0729657
0.0650114
0.0716426
0.0686564
0.106946
0.112894
0.0702322
0.0696424
0.0642916
0.0726221
0.127246
0.106469
0.0669496
0.0689999
0.0674305
0.0687928
0.112317
0.126511
0.0719196
0.0630386
0.0674022
0.06598
0.10535
0.11109
0.0672977
0.0657453
0.0619172
0.0719142
0.125693
0.104785
0.0646674
0.0648272
0.0636138
0.0657601
0.110827
0.125724
0.0714693
0.0606232
0.0635198
0.0639469
0.104139
0.109884
0.0646287
0.0621985
0.0595886
0.0711156
0.124504
0.103555
0.062573
0.0611778
0.0601111
0.0626686
0.109547
0.124166
0.0714617
0.0582693
0.0598094
0.061859
0.103355
0.109836
0.0623234
0.0589968
0.057558
0.0711628
0.12409
0.103124
0.0603172
0.0579402
0.0570494
0.0603793
0.109444
0.124126
0.0704616
0.0560855
0.0569533
0.0594388
0.102789
0.109178
0.0592036
0.0554674
0.0555445
0.0713489
0.12399
0.103011
0.0590505
0.0560942
0.0543009
0.0583961
0.109176
0.123417
0.0709567
0.054635
0.0551689
0.0580902
0.101558
0.108205
0.0579254
0.0530485
0.0539643
0.0707888
0.123089
0.102822
0.0573738
0.0541233
0.051912
0.0573384
0.109371
0.124832
0.0708491
0.0532752
0.053526
0.0570173
0.102483
0.108869
0.0567023
0.0509821
0.0524559
0.0706212
0.12356
0.102714
0.0556299
0.0520348
0.0496133
0.05526
0.109541
0.12456
0.0705336
0.0514654
0.0510978
0.0549774
0.102663
0.109912
0.0550995
0.0487603
0.0510397
0.0715577
0.12545
0.102934
0.0545447
0.0500808
0.0476044
0.0541012
0.109867
0.124788
0.0709576
0.049885
0.0487004
0.0531971
0.10252
0.110003
0.0530966
0.0464438
0.0497213
0.0720558
0.12566
0.103598
0.0495497
0.0463852
0.0469407
0.0629091
0.117627
0.0976552
0.0501197
0.0472148
0.0456283
0.0516313
0.105608
0.120845
0.0690998
0.0483342
0.0479922
0.0522521
0.0991208
0.106164
0.0523715
0.0457777
0.0484972
0.0695939
0.121413
0.10075
0.0516515
0.047046
0.0452157
0.0523797
0.108361
0.124987
0.0709615
0.0489687
0.045353
0.0483213
0.103545
0.117068
0.0629174
0.0463137
0.0459652
0.0490893
0.0973296
0.105123
0.0509034
0.0442359
0.0473971
0.0689952
0.119647
0.0993347
0.0504781
0.0456613
0.0437908
0.0508743
0.106386
0.121655
0.0693449
0.0471418
0.0449374
0.0500789
0.100782
0.108219
0.0506615
0.043234
0.0475961
0.0703705
0.124956
0.103234
0.0466904
0.0434387
0.0448153
0.0624635
0.116796
0.0963988
0.0474889
0.0440621
0.0425767
0.049705
0.10454
0.119172
0.0688222
0.046226
0.0441701
0.0492465
0.0986446
0.106157
0.0500551
0.0425391
0.0471234
0.0700754
0.123093
0.10216
0.045983
0.0428411
0.0443778
0.0622417
0.115798
0.0963315
0.0468304
0.0433879
0.0418399
0.0490796
0.1044
0.119533
0.0705533
0.0467585
0.0426957
0.0466214
0.100495
0.114645
0.0615753
0.0441702
0.0432847
0.0467756
0.0947101
0.101382
0.0481925
0.0414767
0.0454693
0.0677729
0.115513
0.0977411
0.0481836
0.0429866
0.0415601
0.0491408
0.104914
0.120986
0.0698873
0.0465942
0.042286
0.0456366
0.101365
0.114597
0.0619501
0.0440705
0.0426118
0.0462515
0.0951085
0.102727
0.0479806
0.0410316
0.0463938
0.070002
0.117417
0.0995106
0.0466736
0.0422501
0.0439602
0.0617121
0.113028
0.0932562
0.0460849
0.0425271
0.0408765
0.0478703
0.100315
0.114794
0.0682076
0.0452573
0.0423212
0.0476588
0.0966295
0.10441
0.0490755
0.0410464
0.0463858
0.0698357
0.120746
0.100727
0.0451713
0.0416746
0.0440072
0.062586
0.114173
0.0957734
0.0457744
0.0418429
0.0404161
0.0480245
0.103705
0.120073
0.0696899
0.0459654
0.0413948
0.045854
0.101714
0.115228
0.0618277
0.0435564
0.0412556
0.0450793
0.0940632
0.101649
0.0472991
0.0397705
0.045418
0.0699626
0.116221
0.0994023
0.0450718
0.0409048
0.0432028
0.0616187
0.113475
0.094359
0.0447164
0.0408339
0.0395481
0.0473423
0.102409
0.119212
0.0693636
0.0455071
0.0406295
0.0440944
0.100038
0.114299
0.0637914
0.0442094
0.0401673
0.0417286
0.094824
0.108213
0.0600902
0.042605
0.0408034
0.044468
0.0914436
0.0989115
0.046602
0.0394537
0.0450162
0.0681358
0.112964
0.0956174
0.0444227
0.0406468
0.0428466
0.0606619
0.109151
0.0912798
0.0443127
0.0406444
0.0394253
0.0466739
0.0988996
0.113026
0.0689806
0.0452919
0.0408596
0.0450087
0.0966985
0.110099
0.0611103
0.0432233
0.0407644
0.0445082
0.0919228
0.0995876
0.0470343
0.03955
0.0455648
0.0686629
0.114794
0.0973023
0.0446852
0.0408718
0.0434603
0.0615795
0.110618
0.0924636
0.0447613
0.0408478
0.0395231
0.0471498
0.0997562
0.113695
0.0696863
0.0457326
0.0406039
0.0442519
0.0971123
0.11151
0.0632709
0.0443666
0.0398709
0.0415611
0.0929755
0.106101
0.059916
0.042511
0.040034
0.0435727
0.0896654
0.0973436
0.0461184
0.0388465
0.0452191
0.0679583
0.112814
0.0960137
0.0435425
0.0401728
0.0438768
0.0624621
0.109807
0.0923193
0.0414529
0.0396816
0.0424025
0.0594914
0.104693
0.0891154
0.0436442
0.0400382
0.0390049
0.046422
0.0964722
0.110085
0.0679511
0.0451861
0.0402111
0.0442406
0.0932735
0.10692
0.0606179
0.0428978
0.0399379
0.0436712
0.0894336
0.0970628
0.0462886
0.0388207
0.0453608
0.0688654
0.110936
0.0952955
0.0440864
0.0400181
0.0440999
0.0625008
0.109396
0.0918646
0.0411229
0.0394456
0.0424845
0.0599243
0.104672
0.088964
0.0433908
0.0396704
0.0386792
0.0461564
0.0966526
0.11245
0.0680576
0.0453913
0.0397067
0.0436439
0.0956645
0.109499
0.0630001
0.0440584
0.0393088
0.0412508
0.0912319
0.103192
0.0593556
0.0421576
0.0392295
0.0427979
0.0867137
0.0943325
0.0453617
0.03817
0.0448833
0.0676359
0.108104
0.0933331
0.0432818
0.039339
0.043562
0.0619296
0.107595
0.0903057
0.0406588
0.0388742
0.04207
0.0594504
0.10275
0.0874707
0.042847
0.0391322
0.0382088
0.0456446
0.0950559
0.110478
0.0674444
0.0452022
0.0391764
0.0431551
0.0945543
0.108217
0.0618426
0.0436219
0.0387149
0.0406151
0.0910369
0.10341
0.0590662
0.0420451
0.038883
0.0426853
0.0874909
0.0944664
0.0450458
0.0378243
0.0446529
0.0674481
0.107743
0.0925996
0.0430033
0.038868
0.0433817
0.0614266
0.106566
0.0901277
0.0399073
0.0382966
0.0423603
0.0591067
0.102798
0.0874056
0.0398311
0.0380079
0.041376
0.0585817
0.0993215
0.0842746
0.0421874
0.038408
0.0377281
0.0452848
0.0917955
0.106675
0.0665296
0.0447316
0.0388261
0.0428084
0.0916038
0.105414
0.0611112
0.0433308
0.0382612
0.04022
0.0891249
0.100976
0.0588624
0.0418874
0.0384069
0.0422407
0.0858751
0.0933851
0.0449526
0.0375896
0.044547
0.0667698
0.106138
0.0911945
0.0428362
0.0385021
0.0431319
0.0605443
0.10489
0.0889516
0.0394502
0.0377666
0.0420233
0.0584866
0.101285
0.0864759
0.0395501
0.0375447
0.0413264
0.0581107
0.0982779
0.0842831
0.041933
0.0378055
0.0371336
0.0448065
0.0914777
0.10659
0.0661952
0.0444374
0.0381434
0.042407
0.0914793
0.104986
0.0607007
0.0430646
0.037466
0.0392138
0.0886406
0.100997
0.0583274
0.0418968
0.0371909
0.0392715
0.0860323
0.0974526
0.0576772
0.0410119
0.0375164
0.0416382
0.0837453
0.0907446
0.0440929
0.0368343
0.0439325
0.0654992
0.103393
0.0887548
0.0421944
0.0378572
0.0427257
0.0600772
0.102555
0.0863656
0.0392035
0.0371896
0.0415854
0.0577043
0.0985326
0.0841997
0.0389856
0.0369585
0.0409202
0.0572806
0.0955194
0.0821488
0.0414634
0.0371968
0.03658
0.0443937
0.0892586
0.103884
0.0652838
0.0442349
0.0377102
0.0419579
0.0891161
0.102529
0.0599536
0.0427774
0.0369325
0.0390004
0.0874298
0.0993365
0.0576312
0.0415776
0.036521
0.038725
0.0847262
0.0958073
0.0570328
0.0406509
0.0367787
0.0409652
0.081828
0.0888055
0.0439195
0.0361976
0.0437394
0.0647918
0.102264
0.0874663
0.0415902
0.0373398
0.0424084
0.0594952
0.100722
0.0856168
0.038777
0.0366095
0.0412573
0.0570468
0.0975508
0.0836934
0.0384216
0.0362488
0.0404986
0.0565958
0.0947884
0.08168
0.0408747
0.0363675
0.0358238
0.0439111
0.0886269
0.103351
0.0650566
0.0437684
0.0370316
0.0415589
0.0884954
0.101524
0.0594706
0.0424148
0.0362496
0.0383206
0.0861764
0.0980434
0.0574282
0.0412686
0.0357672
0.0383467
0.0837745
0.0950839
0.0566306
0.0402485
0.0357963
0.0403931
0.0814773
0.0884962
0.0434081
0.0352646
0.0432388
0.0649525
0.101222
0.0876908
0.0416383
0.0367013
0.0420763
0.0590241
0.100737
0.0856524
0.0380271
0.0358305
0.0409265
0.0570276
0.097536
0.083579
0.0378615
0.035373
0.0402568
0.0560113
0.0952347
0.0818819
0.0377552
0.035168
0.0396316
0.0556297
0.0927088
0.0794256
0.0398046
0.0352721
0.034832
0.0430829
0.086175
0.100383
0.0637528
0.0431362
0.0363189
0.0408138
0.0866033
0.0994603
0.0585105
0.0417977
0.0355301
0.0377984
0.0849835
0.0967712
0.0566026
0.0408053
0.0351563
0.0375238
0.0827672
0.0942249
0.0559566
0.0402795
0.0349405
0.0378415
0.0812364
0.0919816
0.055543
0.0395454
0.0350439
0.0397738
0.0789937
0.0855061
0.0426118
0.0345593
0.0426438
0.0628675
0.0985689
0.0848899
0.0402607
0.0359208
0.0413904
0.0578709
0.0976004
0.0835009
0.0375942
0.0352427
0.0403225
0.0556369
0.0946888
0.0809913
0.0370811
0.0348308
0.039854
0.0551445
0.0919649
0.079372
0.0376586
0.0347226
0.0392581
0.0548053
0.0896241
0.0771748
0.0395073
0.0347209
0.0343471
0.0426735
0.0838328
0.0962842
0.062833
0.0426116
0.03596
0.0406348
0.0835164
0.0965197
0.0580302
0.041621
0.0351893
0.0378975
0.0826465
0.0942097
0.056004
0.0405059
0.0347231
0.0374475
0.0808973
0.0919357
0.0552704
0.0399484
0.0344414
0.0375559
0.0792462
0.0895766
0.0548541
0.0391648
0.0343534
0.039199
0.0768383
0.0830825
0.0418764
0.0339359
0.0421588
0.0619963
0.0950264
0.08305
0.0402251
0.0353405
0.0408516
0.0569444
0.0957197
0.0816398
0.0369752
0.0345482
0.0398916
0.0553435
0.0925308
0.0793401
0.0369249
0.0341801
0.0393844
0.0545136
0.0901574
0.077624
0.0370015
0.0340272
0.0387935
0.0539189
0.0877293
0.0755574
0.0387073
0.033941
0.0336763
0.0420597
0.0819401
0.0950742
0.0614602
0.0421258
0.0350908
0.0397724
0.0824896
0.0948447
0.0569505
0.0408648
0.0343466
0.0370747
0.0807616
0.0918278
0.0552533
0.0398779
0.0339509
0.0368964
0.0791627
0.0901434
0.0544054
0.0392538
0.0336824
0.0369146
0.0780354
0.087831
0.053614
0.0385203
0.0334909
0.0383681
0.0754075
0.0816414
0.0413455
0.0331732
0.0416862
0.0613987
0.0932423
0.0808783
0.0397579
0.0346687
0.0404914
0.0563742
0.093346
0.0798482
0.0365865
0.0339497
0.0393969
0.0544947
0.0907247
0.0777677
0.0363969
0.0335378
0.0388219
0.0537006
0.0883125
0.0761477
0.0365958
0.0333484
0.0382554
0.053331
0.0859687
0.0741197
0.0382089
0.0331828
0.0330072
0.041477
0.0804061
0.0935236
0.0605945
0.0417732
0.0345198
0.0391156
0.0807943
0.0928454
0.0561466
0.040409
0.0336824
0.0366537
0.0797783
0.0904382
0.0541626
0.0392334
0.0332085
0.036076
0.0781589
0.0887255
0.0535577
0.0387339
0.0329795
0.0361102
0.0766779
0.0868857
0.0531629
0.0383768
0.0328551
0.0363288
0.0750642
0.0847875
0.0525773
0.0377803
0.0326474
0.0376927
0.0732438
0.0791018
0.0404582
0.0324332
0.0408597
0.0595318
0.0909299
0.0787975
0.0387594
0.0338689
0.0396039
0.0550586
0.0905956
0.0774687
0.0360057
0.0331443
0.0385831
0.0531771
0.0876719
0.0756835
0.0356447
0.0328137
0.0381537
0.0525531
0.0857109
0.0739562
0.0360226
0.0326936
0.0376391
0.0521536
0.0834152
0.0724815
0.0376697
0.032495
0.0323846
0.0404639
0.0783207
0.0907326
0.0594241
0.041046
0.0338229
0.0383866
0.0790197
0.0906457
0.0549844
0.0396942
0.0329232
0.0359099
0.0772113
0.0874567
0.0529821
0.0384999
0.0324238
0.0354291
0.0753482
0.0854212
0.0523147
0.0378613
0.0322453
0.0355642
0.0738867
0.0831891
0.0518218
0.0372465
0.0320114
0.0370858
0.0715008
0.0773476
0.0401158
0.0318314
0.040459
0.0586117
0.0892781
0.0774808
0.0379476
0.0333658
0.03914
0.0539749
0.0888751
0.0763191
0.0352214
0.0325875
0.0380468
0.0521051
0.0860924
0.0742002
0.0350667
0.0321901
0.0375448
0.0517302
0.0839742
0.0726679
0.0353908
0.0320479
0.0370586
0.0513842
0.081948
0.0709322
0.0370058
0.0318476
0.0317776
0.0401386
0.0767683
0.0891029
0.0583877
0.0405455
0.0332378
0.0377279
0.077347
0.0885851
0.0539149
0.0391332
0.0323717
0.0352501
0.076187
0.0860894
0.0519849
0.0379315
0.0317681
0.0345162
0.0738876
0.083524
0.0514669
0.0373153
0.0315666
0.0350894
0.0722918
0.0816013
0.0510171
0.0366742
0.0313209
0.0364042
0.0703072
0.0758681
0.0392552
0.0311828
0.0398147
0.0574749
0.0873881
0.0756566
0.0372006
0.0327202
0.0385935
0.0533514
0.0867114
0.074444
0.0350703
0.0319157
0.0374201
0.0513061
0.0841435
0.072706
0.0344709
0.0314803
0.03686
0.0506908
0.0821155
0.0712069
0.0346799
0.0312887
0.0363964
0.0503962
0.0800213
0.0693026
0.0363116
0.0310763
0.0310444
0.0390797
0.0748856
0.0867529
0.057126
0.0397207
0.0324994
0.0369988
0.0752826
0.0862137
0.0528853
0.0383707
0.0316454
0.034616
0.0738697
0.0832807
0.0509517
0.0371896
0.0310463
0.034155
0.0717952
0.0808623
0.0500309
0.0364659
0.0308068
0.0341322
0.0701603
0.0789391
0.0497314
0.035898
0.0305827
0.0356813
0.0680131
0.0735319
0.0385763
0.0305193
0.0390343
0.0560902
0.0845581
0.0735317
0.036622
0.0321011
0.03785
0.0519942
0.0840267
0.0721429
0.0342403
0.0313381
0.0368128
0.0501836
0.0813278
0.0702648
0.033906
0.0309562
0.0363195
0.0497041
0.0791337
0.0685358
0.0342683
0.0307828
0.0357143
0.0490557
0.0769698
0.0667601
0.035627
0.0304974
0.0304788
0.0384126
0.0723502
0.082625
0.0560411
0.0389485
0.0320066
0.0369629
0.0721429
0.0830618
0.051816
0.0377688
0.0311627
0.0341251
0.0712589
0.080202
0.0497905
0.0365878
0.0305381
0.0338209
0.0691142
0.0772266
0.0487362
0.0354861
0.0299926
0.0349597
0.0663832
0.0719185
0.0376194
0.0299406
0.038539
0.055456
0.0828621
0.0719365
0.0361356
0.0315175
0.0374588
0.0514474
0.0823655
0.0706405
0.0340189
0.0308578
0.036265
0.0492934
0.0794782
0.0687236
0.0333483
0.0303388
0.0356253
0.0486259
0.0772214
0.0669941
0.0336065
0.0300934
0.0349429
0.0479772
0.0749534
0.0647591
0.0345945
0.0297416
0.0297487
0.0374779
0.0702724
0.0803936
0.0544613
0.0381417
0.0314023
0.0360626
0.0702982
0.0804335
0.0505432
0.0370721
0.0305977
0.03365
0.0691543
0.0777485
0.048704
0.0359538
0.030052
0.0332794
0.0670959
0.0749105
0.0478084
0.0350189
0.029419
0.0344504
0.0646874
0.0700534
0.0368253
0.0293434
0.0377378
0.0540192
0.0802527
0.0689864
0.0351661
0.0308515
0.0365501
0.049931
0.0789346
0.0682033
0.0333292
0.0301023
0.0354936
0.0482151
0.0766964
0.0663251
0.032982
0.0297066
0.0346732
0.0474066
0.0740625
0.0639377
0.034171
0.0292565
0.0293025
0.0370096
0.069485
0.0797293
0.0539254
0.0377674