/*--------------------------------*- C++ -*----------------------------------*\
| =========                 |                                                 |
| \\      /  F ield         | OpenFOAM: The Open Source CFD Toolbox           |
|  \\    /   O peration     | Version:  v2006                                 |
|   \\  /    A nd           | Website:  www.openfoam.com                      |
|    \\/     M anipulation  |                                                 |
\*---------------------------------------------------------------------------*/
FoamFile
{
    version     2.0;
    format      ascii;
    class       volScalarField;
    location    "0.061";
    object      Co;
}
// * * * * * * * * * * * * * * * * * * * * * * * * * * * * * * * * * * * * * //

dimensions      [0 0 0 0 0 0 0];


internalField   nonuniform List<scalar> 
16277
(
0.00667753
0.00636511
0.00690834
0.00717273
0.00721093
0.00705974
0.00705602
0.00693706
0.0068853
0.00687132
0.00683333
0.00681894
0.006805
0.00679508
0.0067841
0.006773
0.00676133
0.006749
0.00673629
0.00672301
0.00670915
0.00669473
0.00667975
0.00666423
0.00664818
0.0066316
0.0066145
0.00659688
0.00657876
0.00656015
0.00654105
0.00652149
0.00650148
0.00648103
0.00646016
0.00643888
0.00641723
0.0063952
0.00637284
0.00635014
0.00632715
0.00630388
0.00628034
0.00625658
0.0062326
0.00620845
0.00618413
0.00615968
0.00613512
0.00611048
0.0060858
0.00606108
0.00603637
0.0060117
0.00598708
0.00596256
0.00593815
0.0059139
0.00588982
0.00586596
0.00584234
0.00581899
0.00579593
0.00577321
0.00575085
0.00572888
0.00570733
0.00568621
0.00566557
0.00564543
0.0056258
0.00560671
0.0055882
0.00557028
0.00555299
0.00553634
0.00552031
0.00550482
0.00548833
0.00547342
0.00546016
0.00545071
0.00544856
0.00548158
0.00554548
0.00571922
0.00603327
0.00675138
0.00842373
0.0120114
0.0180116
0.0141703
0.0127306
0.0121951
0.0119267
0.0116621
0.0111375
0.0100999
0.0110817
0.0117215
0.0109201
0.0108036
0.0101638
0.00839146
0.00903447
0.009241
0.00919037
0.00918795
0.00861949
0.0078417
0.0085495
0.00872251
0.00899173
0.00883424
0.00804785
0.0078285
0.00863348
0.00881928
0.00902315
0.00880127
0.00789379
0.00779447
0.00867329
0.00886657
0.00903606
0.00877325
0.0077974
0.00769664
0.00864414
0.0088673
0.00899412
0.00871538
0.00767829
0.00758238
0.00858281
0.00883577
0.00895432
0.00865002
0.00756606
0.00747582
0.00851798
0.0087961
0.0089113
0.00858486
0.00746389
0.00737821
0.00845398
0.00875433
0.00886665
0.00852081
0.00736957
0.00728749
0.00839184
0.00871153
0.00882101
0.00845793
0.00728141
0.00720196
0.00833152
0.00866816
0.00877449
0.00839577
0.00719792
0.00712064
0.00827133
0.00862304
0.00872712
0.00833407
0.00711804
0.00704252
0.00821109
0.00857642
0.00867879
0.00827261
0.00704094
0.00696687
0.00815067
0.00852829
0.00862953
0.00821121
0.006966
0.00689308
0.00808987
0.00847863
0.00857924
0.00814963
0.00689268
0.00682068
0.00802852
0.00842739
0.00852781
0.00808765
0.00682052
0.00674931
0.00796651
0.00837457
0.00847513
0.00802509
0.00674917
0.00667846
0.00790356
0.00832012
0.00842112
0.0079618
0.00667831
0.00660801
0.00783964
0.00826396
0.00836569
0.00789763
0.00660771
0.00653772
0.00777463
0.00820601
0.00830874
0.00783243
0.00653714
0.00646735
0.00770837
0.0081462
0.00825013
0.00776605
0.0064664
0.00639674
0.00764197
0.00808714
0.00818973
0.00769836
0.00639526
0.00632565
0.00757436
0.00802687
0.0081275
0.00762926
0.00632356
0.00625392
0.00750528
0.00796474
0.00806334
0.00755859
0.00625111
0.00618137
0.00743459
0.00790064
0.00799712
0.00748623
0.00617776
0.00610781
0.00736214
0.00783446
0.00792873
0.00741202
0.00610331
0.0060331
0.00728781
0.00776608
0.00785804
0.00733584
0.00602761
0.00595707
0.00721146
0.0076954
0.00778494
0.00725755
0.00595052
0.00587958
0.00713297
0.00762228
0.00770932
0.00717703
0.00587189
0.00580051
0.00705222
0.00754664
0.00763107
0.00709417
0.00579162
0.00571975
0.00696912
0.00746837
0.0075501
0.00700888
0.00570961
0.00563724
0.00688358
0.00738739
0.00746634
0.0069211
0.00562581
0.00555295
0.00679556
0.00730363
0.00737974
0.0068308
0.00554023
0.00546691
0.00670505
0.00721705
0.00729029
0.00673802
0.00545295
0.00537925
0.00661215
0.00712771
0.00719807
0.00664288
0.00536412
0.00529016
0.00651699
0.00703568
0.00710322
0.00654558
0.00527398
0.00519992
0.00641981
0.00694115
0.00700595
0.0064464
0.00518288
0.00510895
0.00632096
0.00684437
0.00690658
0.00634576
0.0050913
0.00501779
0.00622091
0.00674571
0.00680557
0.00624421
0.00499989
0.0049272
0.00612031
0.00664567
0.00670351
0.00614253
0.0049095
0.00483814
0.00602001
0.00654495
0.00660124
0.0060417
0.00482122
0.00475182
0.00592112
0.00644446
0.00649981
0.00594296
0.00473641
0.00466972
0.00582498
0.00634535
0.00640055
0.00584786
0.00465673
0.00459367
0.00573328
0.00624907
0.00630513
0.00575829
0.00458417
0.0045258
0.0056481
0.00615745
0.00621556
0.00567641
0.00452101
0.00447022
0.00557289
0.0060725
0.00613393
0.00560438
0.00447005
0.00443496
0.00552394
0.00600927
0.00606304
0.00554567
0.00443482
0.00441728
0.00549691
0.00598057
0.00600644
0.00550334
0.00441718
0.00441899
0.00548999
0.00597158
0.00596725
0.00548009
0.00441892
0.00444071
0.00550386
0.00598273
0.00594439
0.00547466
0.00444068
0.0044817
0.00553738
0.00601256
0.00594751
0.00549772
0.00448494
0.00454307
0.00559264
0.00606434
0.00599652
0.00556052
0.00455607
0.00462455
0.0056687
0.00613642
0.0060719
0.00564103
0.00464339
0.0047176
0.00575667
0.00621913
0.00615727
0.00573254
0.00473986
0.0048171
0.00585286
0.00630939
0.00624863
0.00583029
0.00484041
0.00491893
0.00595399
0.0064048
0.00634385
0.00593145
0.00494175
0.00502006
0.00605695
0.00650262
0.00644008
0.00603297
0.00504101
0.00511771
0.00615872
0.00659996
0.00653468
0.00613206
0.00513555
0.00520945
0.00625676
0.00669435
0.0066254
0.00622641
0.00522322
0.0052934
0.00634896
0.00678376
0.00671043
0.00631414
0.00530239
0.00536816
0.00643364
0.00686655
0.00678832
0.00639384
0.00537195
0.00543298
0.0065096
0.00694148
0.00685808
0.00646586
0.00543315
0.00548773
0.00657606
0.00700777
0.00692259
0.00653538
0.00548789
0.00553233
0.00663254
0.00706501
0.00699203
0.00660012
0.00553248
0.00556715
0.00667947
0.00711341
0.00705486
0.00665486
0.00556727
0.00559292
0.00671741
0.00715346
0.00710824
0.00669985
0.00559303
0.00561068
0.00674714
0.00718579
0.00715238
0.00673563
0.00561077
0.00562174
0.00676978
0.0072115
0.00718809
0.00676323
0.00562181
0.00562743
0.00678643
0.00723158
0.00721636
0.00678377
0.00562747
0.00562894
0.00679811
0.00724694
0.00723824
0.00679841
0.00562897
0.00562734
0.00680579
0.00725846
0.00725482
0.00680826
0.00562736
0.00562348
0.00681027
0.00726684
0.00726707
0.00681432
0.0056235
0.00561792
0.0068121
0.00727254
0.00727569
0.00681738
0.00561803
0.0056113
0.00681202
0.0072764
0.00728167
0.00681823
0.00561155
0.00560407
0.00681068
0.00727879
0.00728554
0.00681738
0.00560436
0.00559644
0.0068084
0.00728011
0.00728787
0.00681513
0.0055966
0.00558877
0.00680546
0.00728046
0.00728892
0.00681198
0.00558875
0.0055811
0.00680196
0.00728006
0.00728892
0.0068081
0.00558085
0.00557346
0.00679803
0.00727916
0.00728812
0.00680387
0.00557307
0.00556578
0.00679361
0.0072778
0.00728682
0.0067994
0.00556542
0.00555823
0.00678899
0.0072761
0.00728509
0.00679466
0.00555791
0.00555095
0.00678446
0.00727432
0.00728303
0.00678985
0.00555058
0.00554406
0.00678023
0.00727277
0.00728096
0.00678512
0.00554086
0.00552931
0.00676283
0.00725704
0.00723184
0.00673031
0.0054878
0.00547448
0.00669993
0.0072021
0.00706064
0.0065302
0.00531387
0.00541649
0.00662607
0.00711517
0.00681142
0.00626237
0.00506683
0.00559811
0.00684621
0.00731202
0.00731389
0.00661361
0.00526277
0.00651212
0.00811197
0.00881382
0.0095701
0.00848256
0.00655789
0.00822039
0.0119362
0.0149566
0.0140286
0.0182248
0.0155706
0.014613
0.0139368
0.0137497
0.0136344
0.0136621
0.0136694
0.0136929
0.013705
0.0137608
0.0138646
0.014031
0.0143978
0.0152841
0.0195581
0.0279108
0.029938
0.0272958
0.0258373
0.0235878
0.0211047
0.0180846
0.012453
0.0110734
0.0165893
0.0198931
0.0177562
0.0154289
0.0105507
0.00877291
0.0129383
0.0150997
0.0141205
0.0123689
0.008495
0.00784654
0.0115575
0.01336
0.0131255
0.011449
0.00774918
0.00761975
0.0112373
0.0129535
0.0129695
0.0112361
0.00761377
0.00761143
0.0112311
0.0129501
0.0129587
0.0112394
0.00762656
0.00763374
0.0112458
0.0129634
0.0129718
0.011255
0.00764237
0.0076428
0.0112396
0.0129642
0.012999
0.0112944
0.00766767
0.00766874
0.0112792
0.0129916
0.0129997
0.0112886
0.00767828
0.00768014
0.011275
0.0129805
0.0130417
0.011319
0.00769819
0.00771532
0.0113272
0.0130216
0.0130299
0.0113142
0.00771003
0.0077276
0.0113231
0.0130107
0.0130724
0.0113565
0.00773849
0.00775628
0.0113651
0.0130526
0.0130615
0.0113528
0.00775145
0.00776935
0.0113617
0.0130423
0.0131046
0.0113957
0.0077807
0.0077991
0.0114048
0.013085
0.0130944
0.0113926
0.00779458
0.00781333
0.0114023
0.0130755
0.0131381
0.0114363
0.00782499
0.00784399
0.0114458
0.0131188
0.0131282
0.0114334
0.00783954
0.00785894
0.0114439
0.0131096
0.0131724
0.0114776
0.00787037
0.00789009
0.0114882
0.0131533
0.0131629
0.0114873
0.0078934
0.00789719
0.0114749
0.0131445
0.013208
0.0115212
0.00791729
0.00793679
0.0115312
0.0131892
0.0131995
0.0115315
0.00794101
0.00794483
0.011519
0.0131816
0.0132456
0.0115659
0.00796545
0.00798514
0.0115761
0.0132273
0.0132376
0.0115763
0.00798942
0.00799349
0.0115647
0.0132207
0.013285
0.0116118
0.00801415
0.0080339
0.0116225
0.0132671
0.0132781
0.0116232
0.00803817
0.00804198
0.0116116
0.0132616
0.0133271
0.0116595
0.00806269
0.00808237
0.0116708
0.0133102
0.0133225
0.0116724
0.00808668
0.00809035
0.0116615
0.0133069
0.0133734
0.0117098
0.00811065
0.00813028
0.0117221
0.0133578
0.0133714
0.0117245
0.00813401
0.00813723
0.0117142
0.0133572
0.0134258
0.0117643
0.00815725
0.00817617
0.0117777
0.0134119
0.0134273
0.011781
0.00817901
0.00818114
0.011772
0.0134153
0.0134862
0.0118241
0.00820047
0.0082183
0.0118392
0.0134749
0.0134929
0.0118323
0.00821183
0.00822963
0.0118494
0.013484
0.0135584
0.0118918
0.00823964
0.00825677
0.0119099
0.0135505
0.0135727
0.0119065
0.00824978
0.00826649
0.0119262
0.0135673
0.0136468
0.0119729
0.0082759
0.0082928
0.0119954
0.0136437
0.0136713
0.0120085
0.00829396
0.00829501
0.0120105
0.0136723
0.0137584
0.0120752
0.00831405
0.00833361
0.0121054
0.0137628
0.0137985
0.0121268
0.00833846
0.00834479
0.0121379
0.0138081
0.0139051
0.0122149
0.00837159
0.00840054
0.0122567
0.0139193
0.0139661
0.0122794
0.00840879
0.0084459
0.0123292
0.0139866
0.0140964
0.0124097
0.0084811
0.00853059
0.012471
0.0141245
0.0141859
0.0125256
0.00857106
0.00863636
0.0125979
0.0142369
0.0143361
0.0126801
0.00869647
0.00877618
0.0127683
0.0143976
0.0144814
0.0128686
0.00887109
0.008982
0.0129797
0.0145732
0.014672
0.0131007
0.00911178
0.00926494
0.0132417
0.0147848
0.0149264
0.0134242
0.00946202
0.0096956
0.0136293
0.0150666
0.0152134
0.0138171
0.00994465
0.0101118
0.0139242
0.0152727
0.0154242
0.0139811
0.0102662
0.0105952
0.0142547
0.0155089
0.0156
0.0143059
0.0106673
0.0109041
0.0144065
0.0156509
0.0157803
0.0145773
0.0111287
0.0113704
0.0146723
0.0158814
0.0161333
0.0150463
0.0117664
0.0119789
0.0151605
0.0162361
0.0166022
0.0155871
0.0125077
0.0126796
0.0156745
0.0166761
0.0167765
0.0162419
0.0135545
0.0131694
0.0150316
0.01465
0.0436259
0.0321682
0.0187879
0.012178
0.0206797
0.0290553
0.0191721
0.0170465
0.0119807
0.0110692
0.0150615
0.0163754
0.0157736
0.0147238
0.0111036
0.0112013
0.0149576
0.0162797
0.0160344
0.014904
0.0114076
0.0118568
0.0153365
0.0165272
0.0162409
0.0150952
0.0119962
0.0127604
0.0159472
0.016981
0.0168591
0.0158308
0.0129297
0.0137305
0.0164324
0.0171865
0.01501
0.0153847
0.0136726
0.0191044
0.0315397
0.0422958
0.030015
0.0217531
0.0135472
0.0136437
0.0181117
0.0200468
0.017923
0.0165399
0.013122
0.0132457
0.0164022
0.0174636
0.0172816
0.016346
0.0134792
0.0136008
0.0163118
0.017182
0.0171133
0.0165372
0.0141565
0.0137716
0.0150288
0.014419
0.0421191
0.0314496
0.0194265
0.015613
0.0226724
0.0295182
0.0199793
0.0180732
0.014006
0.0137126
0.0166658
0.0174679
0.0168196
0.0162544
0.0138017
0.0142112
0.0165393
0.0170988
0.0147253
0.0154037
0.014154
0.019363
0.0310301
0.0410256
0.0305863
0.022458
0.0145193
0.0151403
0.0189678
0.0205787
0.0183598
0.0172022
0.0144172
0.0149319
0.0171606
0.0175507
0.0142487
0.0150974
0.0142383
0.0198196
0.0310421
0.0408452
0.0301473
0.0226072
0.015054
0.0150494
0.0183986
0.0196941
0.017263
0.0167761
0.0145987
0.0144541
0.0152939
0.0144579
0.0390925
0.029938
0.0193696
0.01521
0.0225958
0.0301307
0.0200504
0.0185963
0.0153924
0.0149885
0.0169921
0.0174774
0.0135478
0.0146797
0.0144775
0.0193888
0.0289126
0.0366315
0.0275227
0.0221264
0.0164155
0.0147228
0.0157059
0.0149999
0.0341663
0.0271139
0.0184493
0.0162202
0.0212556
0.0256366
0.0131716
0.0139628
0.0132754
0.0156185
0.0218082
0.0260649
0.0138669
0.0128703
0.0109781
0.0110529
0.0161057
0.0195715
0.00483396
0.00459472
0.00428186
0.00562477
0.00911058
0.0111718
0.0138965
0.0120676
0.00869764
0.0142818
0.0170943
0.018605
0.0224205
0.0213193
0.0188522
0.0206954
0.0219323
0.0215832
0.0370857
0.0322036
0.0244833
0.0252173
0.0331059
0.0383224
0.0373986
0.0329503
0.025603
0.0269542
0.0365446
0.042869
0.0266776
0.0269198
0.0237364
0.023296
0.0349617
0.046362
0.0489869
0.0386622
0.0260326
0.0239868
0.0314905
0.036702
0.0453137
0.0371204
0.0262739
0.0221371
0.0254298
0.0257773
0.0429619
0.0338047
0.0240937
0.0261002
0.0386241
0.0489648
0.0250907
0.0247088
0.0213505
0.0233304
0.0331307
0.0420575
0.0487765
0.0382158
0.0254754
0.020818
0.0240902
0.0245375
0.041555
0.0324433
0.0227621
0.0250907
0.037822
0.0485463
0.0244923
0.0239857
0.0205609
0.0226721
0.0321226
0.0411677
0.0483967
0.0377219
0.0251655
0.0205816
0.023871
0.0242651
0.0409193
0.0319881
0.0223915
0.0247378
0.0374575
0.0480552
0.0243621
0.0238578
0.0204356
0.0222331
0.0316242
0.0406339
0.0480684
0.0373303
0.0246545
0.0200615
0.0233651
0.0238733
0.039552
0.030793
0.0217111
0.0243303
0.0369247
0.047499
0.0211502
0.0213497
0.0190897
0.0201744
0.0253784
0.027954
0.0412846
0.0302021
0.0193587
0.023397
0.036791
0.0478899
0.0227879
0.0223647
0.019067
0.0223962
0.0315155
0.0397202
0.0472863
0.0364409
0.0237913
0.0196182
0.0231898
0.0236847
0.0411429
0.0307044
0.0199148
0.023724
0.0370436
0.0476687
0.0235534
0.0230187
0.0194402
0.0224109
0.0317694
0.0403457
0.0478127
0.0366879
0.0238402
0.0194648
0.0232759
0.0239857
0.0403081
0.0318951
0.0226672
0.0239945
0.036726
0.0477745
0.0236968
0.0232285
0.0195639
0.0205416
0.0311682
0.0411717
0.0479106
0.0371383
0.0240386
0.0199301
0.0237414
0.0242574
0.0419103
0.0312433
0.0204022
0.024272
0.0373655
0.0482308
0.0244154
0.0239823
0.0202618
0.0201475
0.0319348
0.0435821
0.0478576
0.0370594
0.0236585
0.0214431
0.0292034
0.0349837
0.0444341
0.0360063
0.0244635
0.0207958
0.0246558
0.0253759
0.0417842
0.0325906
0.0226641
0.0249005
0.0376878
0.0482752
0.0250279
0.0241905
0.0203632
0.0224044
0.0323431
0.0414761
0.0485745
0.0379162
0.0249162
0.0206081
0.0242498
0.0248574
0.042301
0.032875
0.022762
0.0249424
0.0378742
0.0487938
0.0252889
0.0245731
0.0206969
0.0227871
0.0328882
0.0424667
0.0492943
0.0384593
0.025477
0.0213444
0.0250737
0.0256625
0.0453813
0.0335147
0.0215269
0.0247948
0.03821
0.0493107
0.0370947
0.0312865
0.022885
0.0250134
0.0366159
0.0451915
0.0263718
0.0255018
0.021376
0.0237055
0.034268
0.0438447
0.0500004
0.0393083
0.0259719
0.0217248
0.0255891
0.0262772
0.0463258
0.0346096
0.0225182
0.0253934
0.0387338
0.0500445
0.0376847
0.0318084
0.0234696
0.025845
0.0375075
0.0462178
0.0273736
0.0265018
0.0223007
0.0244549
0.0349832
0.0449035
0.0510371
0.0400126
0.0267119
0.0225373
0.0264997
0.0270702
0.0473626
0.0353153
0.0231433
0.0259926
0.0394443
0.0507285
0.0386513
0.0325983
0.0239903
0.026383
0.0382024
0.0468997
0.0277097
0.0268964
0.0228477
0.0249479
0.035906
0.0462218
0.0520095
0.041162
0.0273986
0.022856
0.0269267
0.0277008
0.0474919
0.0379602
0.0272985
0.0273033
0.0404457
0.0517352
0.0397002
0.033729
0.0247525
0.0271091
0.039132
0.0478178
0.0288898
0.0280103
0.0236962
0.024856
0.0371762
0.0494688
0.0525835
0.0411526
0.0273261
0.0254582
0.034394
0.0407104
0.0487673
0.0399796
0.0279012
0.0239146
0.0283791
0.0292985
0.0493883
0.0388704
0.0273261
0.0280048
0.0413906
0.0527903
0.0412178
0.0348718
0.0258703
0.0284718
0.0405541
0.0494189
0.030102
0.0291729
0.0245337
0.0283037
0.0398301
0.0504502
0.0539683
0.042477
0.0289592
0.0265418
0.0356901
0.0421149
0.0501775
0.0412204
0.0288813
0.0250916
0.0295341
0.0303546
0.0516383
0.0393668
0.0262827
0.0286849
0.043033
0.0547171
0.0430179
0.0362729
0.0268361
0.0291721
0.0416198
0.0508987
0.0311788
0.0302153
0.0254345
0.03002
0.0419573
0.0522641
0.0550011
0.0438453
0.0304078
0.027918
0.0381608
0.0451545
0.0507918
0.0416055
0.0293903
0.0274803
0.0371641
0.0435675
0.0509087
0.0421567
0.0297131
0.0261824
0.0311166
0.0321832
0.0536441
0.0418815
0.0294575
0.0305388
0.0447918
0.056559
0.0450613
0.0381488
0.0283152
0.0304327
0.0433689
0.0524763
0.0322992
0.0314088
0.0266101
0.0313214
0.0435446
0.0543593
0.0569131
0.0452898
0.031534
0.0287923
0.039383
0.0469195
0.0526387
0.0429021
0.0302158
0.0287338
0.0386136
0.0454938
0.053051
0.0439945
0.0313526
0.0273519
0.0323622
0.0334837
0.0569082
0.0433929
0.0292807
0.0312851
0.0463835
0.0588334
0.0485811
0.0405722
0.0296438
0.0313031
0.0443041
0.0538578
0.0471137
0.0399584
0.0297594
0.0317715
0.0447485
0.0537684
0.0342544
0.0330362
0.0278712
0.0318479
0.0449988
0.0572144
0.0592642
0.0471195
0.0325105
0.0306132
0.0417049
0.049553
0.0551144
0.0454316
0.0321807
0.0306152
0.0409221
0.0479343
0.0552606
0.046136
0.0329034
0.0289817
0.0341762
0.0352203
0.0590581
0.0453918
0.0310796
0.0329401
0.0483122
0.0609153
0.05061
0.0422498
0.0308587
0.0327413
0.0461064
0.0558981
0.0491857
0.0415792
0.0309944
0.0337894
0.0470282
0.0563248
0.0358932
0.034774
0.0296707
0.0308655
0.0463388
0.0612447
0.0625059
0.0490237
0.0326785
0.0317687
0.0436375
0.052105
0.0575377
0.0475439
0.0335202
0.0320925
0.0429887
0.0503814
0.0577507
0.0481553
0.0345519
0.0303004
0.0355837
0.036648
0.0624918
0.0469809
0.0314033
0.0335337
0.0500742
0.0636903
0.0534076
0.0446569
0.0328703
0.0347214
0.0486152
0.0585804
0.053786
0.0453318
0.0332373
0.0350174
0.0486287
0.0586033
0.052362
0.0444934
0.0330933
0.0357955
0.0497553
0.0591591
0.038581
0.0373093
0.0314334
0.0367504
0.0509248
0.063434
0.0647936
0.0517811
0.0366147
0.0340704
0.0462887
0.0548938
0.0594836
0.0493276
0.0353991
0.0340719
0.0461385
0.0550163
0.0599089
0.0498264
0.0360997
0.0341375
0.0457363
0.0535505
0.0608739
0.0510412
0.0368629
0.0324155
0.0380845
0.0392812
0.0664607
0.0508023
0.0343523
0.0361761
0.0533777
0.0670911
0.0567375
0.0476324
0.0350903
0.0367741
0.0511866
0.0617721
0.0568431
0.0481058
0.0352981
0.0370634
0.0513576
0.0614858
0.0552432
0.0470541
0.0352282
0.037815
0.0521213
0.0624312
0.040645
0.0393245
0.0333697
0.0353258
0.0521948
0.0683746
0.0691475
0.0544991
0.0368009
0.0360457
0.0488738
0.0584929
0.0631718
0.0524193
0.0377928
0.0365952
0.0495458
0.0588398
0.0634107
0.0529075
0.0383545
0.0362477
0.0481517
0.0567951
0.0642536
0.0538282
0.0391979
0.0343104
0.0402678
0.0413688
0.0690761
0.0557222
0.0402298
0.0402318
0.0567095
0.0704413
0.0600599
0.0504527
0.0371705
0.0389796
0.0542581
0.0651732
0.0608618
0.0513456
0.0379631
0.0394888
0.0541735
0.0646982
0.0612818
0.051333
0.0378387
0.0400225
0.0547644
0.0655338
0.0598116
0.0507747
0.0379682
0.0405314
0.0556886
0.0664109
0.0431824
0.0419362
0.0359723
0.0373345
0.05523
0.0735206
0.0737174
0.0579413
0.0389288
0.0384517
0.0522219
0.0623314
0.0671771
0.0561582
0.0403124
0.0391054
0.0526705
0.0624263
0.0667418
0.0560261
0.0409276
0.0392751
0.0529835
0.0627738
0.0677562
0.0565667
0.0414083
0.039296
0.0519674
0.0613475
0.0689947
0.0578461
0.0424155
0.0370889
0.0432427
0.044776
0.075551
0.0582172
0.040128
0.0419405
0.0608116
0.0761178
0.0648843
0.0549861
0.0407836
0.0423458
0.0583921
0.0699169
0.0649757
0.0551193
0.0409223
0.0426312
0.0581014
0.0692784
0.0656464
0.055428
0.0411427
0.0431328
0.0587975
0.0700433
0.0640963
0.0541811
0.0407623
0.0437935
0.0597024
0.0710302
0.0464327
0.0452813
0.0388031
0.0405248
0.0596657
0.0783239
0.0790587
0.0623573
0.0422287
0.0417726
0.0563049
0.0670469
0.0723734
0.0598294
0.0434379
0.0421201
0.0567343
0.0672909
0.0714907
0.06028
0.0441293
0.042365
0.0570105
0.0679894
0.0728662
0.0611424
0.0446462
0.042391
0.0561941
0.0657517
0.0739108
0.0625042
0.0455893
0.0401552
0.0465889
0.0478853
0.0814548
0.0622806
0.0430884
0.0447608
0.0647471
0.0820536
0.0696619
0.058834
0.0436761
0.0454468
0.0626807
0.0751151
0.0699725
0.0588174
0.0438629
0.0458908
0.0622074
0.074346
0.0706502
0.0594898
0.0442001
0.0464201
0.0630273
0.0750403
0.0688361
0.0585286
0.0442037
0.0473206
0.0645104
0.0764004
0.0496954
0.0484765
0.0418804
0.0434138
0.0640155
0.0848097
0.0854083
0.0671114
0.0452564
0.0452771
0.0608043
0.0722332
0.0776542
0.0650132
0.0471782
0.0455273
0.0612738
0.0725292
0.0772425
0.0648937
0.0475485
0.0458946
0.0617711
0.0732958
0.0778182
0.0655295
0.0482605
0.0463065
0.0620317
0.0734204
0.0787303
0.0662589
0.0489013
0.0461535
0.0606341
0.0712164
0.0800411
0.0674514
0.0498605
0.0436846
0.0505641
0.0520435
0.0872178
0.068882
0.0493496
0.0504351
0.0711228
0.0881931
0.0752999
0.0638001
0.0478283
0.0497273
0.068118
0.0814587
0.0758178
0.0643219
0.0481554
0.050294
0.0682097
0.0808267
0.0763889
0.0646308
0.0485452
0.0508294
0.0685626
0.0819612
0.0741693
0.0632594
0.0481071
0.0514385
0.0697856
0.0828064
0.0544505
0.0528592
0.0456067
0.0496083
0.0708578
0.0913647
0.0920171
0.0736795
0.0511213
0.0494471
0.0660789
0.0782253
0.0840067
0.0700151
0.0513802
0.0497236
0.066499
0.078602
0.0836982
0.0705636
0.0519852
0.0502375
0.0669862
0.0790109
0.0846997
0.0713427
0.052652
0.0500308
0.0656296
0.0767948
0.0862325
0.0730471
0.0537338
0.0470635
0.0543655
0.0558714
0.0940754
0.074659
0.0538773
0.0547204
0.0767592
0.0950558
0.0810545
0.0686295
0.0516096
0.0537048
0.073293
0.0876964
0.0815702
0.0691581
0.0519665
0.0543647
0.0733558
0.087322
0.0821801
0.0695141
0.0521996
0.0548859
0.0740908
0.088285
0.079894
0.0682233
0.0520809
0.0558792
0.0755508
0.0892545
0.0587026
0.0570981
0.049404
0.0542287
0.0767116
0.098602
0.0994649
0.0792936
0.0557895
0.0539519
0.0716575
0.084676
0.0907855
0.0761647
0.0560138
0.0541437
0.0718845
0.0848303
0.0907419
0.076297
0.0566459
0.0543801
0.0722614
0.0851728
0.0917214
0.0773257
0.0572356
0.0539294
0.0705883
0.0825692
0.0932667
0.0790258
0.0582116
0.0512071
0.0588876
0.0604116
0.101711
0.0795568
0.0565687
0.0582628
0.0824981
0.103119
0.0875055
0.0740688
0.0559505
0.0584543
0.0793931
0.095145
0.0881524
0.0748692
0.0565671
0.0592545
0.0796379
0.094835
0.0862961
0.0738332
0.0564038
0.059889
0.0813118
0.0964123
0.0622439
0.0608801
0.0530854
0.0570611
0.0816916
0.105938
0.106797
0.085475
0.0594028
0.0575458
0.0763434
0.0903279
0.0981736
0.0816694
0.0598708
0.057911
0.0766316
0.0902372
0.0981496
0.0824481
0.0609586
0.0577244
0.0753943
0.0880316
0.0996513
0.0843017
0.0622456
0.0544862
0.0624962
0.0639275
0.108472
0.086445
0.0627058
0.06364
0.0890666
0.110257
0.0935687
0.0794323
0.0600669
0.0629617
0.0855017
0.101857
0.0940475
0.0802102
0.0606128
0.062933
0.0850668
0.101463
0.0919042
0.0785714
0.0601396
0.0643889
0.0870821
0.103283
0.0660142
0.0647251
0.0565089
0.0606019
0.086941
0.113429
0.114803
0.0913547
0.0636267
0.0614081
0.0815359
0.096405
0.105004
0.0881269
0.0644916
0.0621925
0.0821188
0.096516
0.105161
0.0882298
0.0652458
0.0618437
0.0806487
0.0940899
0.107072
0.0905733
0.0667792
0.0587574
0.0671042
0.068489
0.117748
0.0915243
0.0645049
0.0672815
0.0960033
0.11974
0.100199
0.0849846
0.0641863
0.0672354
0.0914031
0.109678
0.10035
0.0853482
0.0645028
0.0675248
0.0914628
0.108928
0.0978995
0.0838254
0.0642139
0.068879
0.0931621
0.110498
0.0706056
0.0691069
0.0604467
0.0665551
0.0937031
0.120052
0.123246
0.0981397
0.0689566
0.0661918
0.0870749
0.102583
0.113625
0.0946115
0.0694721
0.0660177
0.0856027
0.0994014
0.114698
0.0968087
0.0711132
0.0630427
0.0715873
0.0726537
0.125437
0.0973878
0.0685545
0.071999
0.102761
0.128181
0.106329
0.0901408
0.0683647
0.0716973
0.0972511
0.116789
0.10626
0.0904886
0.068632
0.0724178
0.0980247
0.116678
0.103454
0.0887721
0.0684023
0.0739174
0.0998375
0.118629
0.0760502
0.074159
0.0645267
0.0730278
0.100914
0.127454
0.130723
0.105242
0.0751996
0.0711002
0.0931709
0.109231
0.121612
0.101626
0.0746803
0.0711508
0.0915735
0.10597
0.122775
0.103604
0.0771751
0.0674929
0.0765261
0.0775123
0.131146
0.103473
0.0744243
0.0773394
0.109067
0.135638
0.11192
0.0951828
0.0726189
0.0771946
0.104699
0.12556
0.108288
0.0931369
0.0720347
0.0781106
0.105928
0.125802
0.0797334
0.0778782
0.0679476
0.0765736
0.105704
0.133713
0.140207
0.112197
0.0797661
0.0738441
0.0950973
0.110513
0.130447
0.109298
0.0801425
0.0698042
0.0789927
0.0799692
0.138996
0.109524
0.0790186
0.0824928
0.116003
0.143942
0.119029
0.10186
0.0779487
0.0811884
0.11067
0.132737
0.114884
0.0989836
0.0765992
0.0818396
0.111319
0.132591
0.0827004
0.0813929
0.0717459
0.0792718
0.110225
0.140298
0.147667
0.117713
0.0830458
0.076922
0.0992836
0.115561
0.137493
0.1151
0.0837653
0.0725018
0.0820141
0.0831292
0.144144
0.113584
0.0817652
0.0855094
0.121638
0.152273
0.120659
0.10367
0.0803514
0.0870984
0.118822
0.142233
0.0851743
0.084799
0.0756228
0.0836401
0.116149
0.147479
0.156782
0.125251
0.088126
0.0811511
0.104523
0.121134
0.144864
0.12106
0.0880757
0.076087
0.0857256
0.0865492
0.150996
0.118193
0.0845767
0.0890549
0.127206
0.160444
0.125232
0.107539
0.0831411
0.0900252
0.12423
0.148665
0.0885662
0.0879921
0.0781652
0.0882278
0.122253
0.15533
0.16729
0.133765
0.0937928
0.0875358
0.111995
0.128797
0.15398
0.128357
0.0932722
0.080178
0.0900158
0.0908191
0.157627
0.124767
0.0905212
0.0947435
0.133992
0.168131
0.130373
0.112351
0.0872429
0.0945376
0.130048
0.156653
0.0925857
0.0921101
0.0819748
0.091349
0.126489
0.16067
0.173293
0.13837
0.0970704
0.0894681
0.114248
0.132343
0.163302
0.136176
0.0993515
0.0857421
0.0950337
0.09515
0.161111
0.128954
0.0947437
0.100855
0.144217
0.180079
0.094965
0.0943093
0.0845009
0.0955584
0.131524
0.165906
0.179955
0.143528
0.100907
0.0919778
0.117751
0.13597
0.167085
0.139057
0.100906
0.086608
0.097146
0.0978066
0.164178
0.130809
0.0962192
0.104879
0.150266
0.187677
0.0965453
0.0970129
0.0880221
0.100882
0.136122
0.169525
0.194291
0.154232
0.108015
0.0888174
0.0983554
0.0983475
0.175705
0.139284
0.100979
0.107452
0.153867
0.194202
0.143705
0.124456
0.0974277
0.107722
0.149195
0.179365
0.103203
0.102553
0.0916943
0.102035
0.137589
0.171867
0.200414
0.160205
0.112249
0.0935192
0.102589
0.102319
0.177339
0.142664
0.106201
0.114411
0.163575
0.205559
0.103222
0.103107
0.0933819
0.103619
0.140313
0.175681
0.207693
0.164777
0.114583
0.093806
0.103472
0.103519
0.177449
0.141701
0.104787
0.116168
0.167446
0.210444
0.105943
0.106095
0.0961427
0.107684
0.144746
0.18117
0.218113
0.173934
0.121272
0.0939609
0.0975395
0.0927172
0.123363
0.115244
0.0980775
0.104566
0.144504
0.185404
0.225139
0.17525
0.118877
0.0956863
0.104695
0.103656
0.182214
0.145997
0.108575
0.123825
0.180065
0.227979
0.0927629
0.0979782
0.0960373
0.105769
0.12291
0.130238
0.191688
0.150457
0.109579
0.12357
0.183373
0.236845
0.0934216
0.0977731
0.0939391
0.101159
0.119037
0.127842
0.1924
0.148092
0.106565
0.129001
0.191188
0.243674
0.0922061
0.098721
0.0975943
0.106334
0.123703
0.130019
0.190472
0.148142
0.107221
0.127536
0.190798
0.246731
0.0911871
0.0965665
0.0941044
0.0994987
0.110972
0.114121
0.130748
0.119581
0.101326
0.118899
0.159314
0.195718
0.248782
0.190483
0.125697
0.090678
0.0937739
0.0890729
0.103924
0.102272
0.0926213
0.091677
0.100303
0.10259
0.107739
0.105685
0.0937422
0.0925241
0.111503
0.11999
0.175433
0.136695
0.0997547
0.124348
0.190009
0.249941
0.0842073
0.0895707
0.0875088
0.0868422
0.0961538
0.0967554
0.0918714
0.0881622
0.0776924
0.0764757
0.0875687
0.0900582
0.0868341
0.0833966
0.070779
0.06627
0.0796442
0.0837308
0.0807032
0.0760974
0.0619394
0.0590599
0.0737911
0.0788557
0.0769124
0.0716205
0.0564061
0.0542179
0.0698395
0.0755883
0.0742092
0.0681874
0.0522668
0.050612
0.0667907
0.0731747
0.0721315
0.0654892
0.0491139
0.0477453
0.064268
0.0712365
0.0703679
0.0632366
0.046585
0.0453496
0.0620208
0.0695568
0.0686268
0.0609817
0.0443048
0.0433554
0.0600056
0.0678857
0.0670916
0.0590833
0.0424907
0.0417064
0.0582181
0.0664137
0.065677
0.0573996
0.0409939
0.0403505
0.0566336
0.065052
0.0643661
0.0559092
0.0397671
0.0392421
0.0552331
0.0637885
0.0631484
0.0545937
0.0387676
0.038343
0.0539982
0.0626128
0.0620124
0.0534338
0.0379607
0.0376217
0.05291
0.061515
0.060953
0.0524141
0.037318
0.0370512
0.0519557
0.060492
0.0599649
0.0515207
0.0368128
0.0366056
0.0511206
0.0595376
0.0590451
0.0507409
0.0364213
0.0362628
0.0503928
0.058652
0.0581935
0.0500603
0.036122
0.0360032
0.0497562
0.0578334
0.0574076
0.0494643
0.0358981
0.035811
0.0491985
0.0570791
0.0566845
0.0489421
0.0357341
0.0356724
0.04871
0.0563863
0.0560214
0.0484844
0.0356175
0.0355754
0.0482814
0.0557524
0.0554165
0.0480828
0.0355378
0.0355106
0.0479047
0.0551751
0.0548658
0.0477289
0.0354859
0.0354704
0.0475725
0.0546508
0.0543675
0.0474205
0.0354616
0.0354552
0.0472823
0.0541771
0.053917
0.0471482
0.035456
0.0354551
0.0470255
0.0537495
0.0535122
0.0469062
0.0354597
0.0354612
0.0467975
0.0533664
0.0531482
0.046691
0.0354678
0.0354704
0.0465946
0.0530213
0.0528228
0.0465004
0.0354774
0.0354797
0.0464149
0.0527133
0.0525303
0.0463309
0.0354868
0.0354892
0.0462555
0.0524361
0.0522695
0.0461812
0.0354956
0.0354967
0.0461147
0.0521895
0.0520346
0.0460483
0.035503
0.0355044
0.0459901
0.051967
0.0518265
0.0459321
0.0355099
0.0355096
0.0458812
0.0517711
0.0516402
0.0458293
0.0355139
0.0355136
0.0457843
0.0515933
0.0514739
0.0457389
0.0355169
0.0355151
0.0456994
0.0514361
0.0513238
0.0456586
0.0355176
0.0355158
0.0456239
0.051293
0.0511902
0.0455881
0.0355177
0.0355148
0.0455573
0.0511667
0.0510689
0.0455246
0.0355163
0.0355136
0.045497
0.0510505
0.0509603
0.0454679
0.0355144
0.0355105
0.0454431
0.0509476
0.0508609
0.0454161
0.0355109
0.0355072
0.0453939
0.050852
0.0507717
0.04537
0.0355071
0.0355029
0.0453503
0.0507672
0.0506893
0.0453276
0.0355018
0.0354979
0.0453099
0.0506876
0.0506154