/*--------------------------------*- C++ -*----------------------------------*\
| =========                 |                                                 |
| \\      /  F ield         | OpenFOAM: The Open Source CFD Toolbox           |
|  \\    /   O peration     | Version:  v2006                                 |
|   \\  /    A nd           | Website:  www.openfoam.com                      |
|    \\/     M anipulation  |                                                 |
\*---------------------------------------------------------------------------*/
FoamFile
{
    version     2.0;
    format      ascii;
    class       volScalarField;
    location    "0.061";
    object      isentropic(p);
}
// * * * * * * * * * * * * * * * * * * * * * * * * * * * * * * * * * * * * * //

dimensions      [1 -1 -2 0 0 0 0];


internalField   nonuniform List<scalar> 
16277
(
150008
150014
150017
150003
150012
150010
150011
150012
150013
150013
150013
150012
150012
150011
150011
150011
150010
150010
150010
150010
150010
150010
150010
150009
150009
150009
150009
150009
150009
150009
150009
150009
150008
150008
150008
150008
150008
150008
150008
150008
150007
150007
150007
150007
150007
150007
150007
150007
150006
150006
150006
150006
150006
150006
150006
150006
150005
150005
150005
150005
150005
150005
150005
150005
150005
150004
150004
150004
150004
150004
150004
150004
150004
150004
150004
150003
150003
150003
150003
150002
150002
150001
150001
150000
150001
150003
150004
150005
150004
150006
150005
150007
150008
150011
150017
150015
149976
149936
150011
150022
150021
150002
149897
149860
149993
150018
150013
149981
149826
149796
149971
150008
150002
149959
149768
149744
149949
149997
149991
149938
149721
149703
149929
149986
149979
149919
149684
149669
149911
149975
149968
149901
149653
149640
149893
149964
149958
149884
149627
149616
149877
149953
149947
149868
149605
149595
149862
149943
149937
149854
149585
149577
149849
149934
149928
149841
149568
149561
149836
149925
149919
149829
149553
149547
149824
149916
149911
149817
149540
149534
149813
149908
149903
149807
149528
149523
149803
149901
149896
149797
149517
149513
149794
149893
149889
149787
149508
149504
149785
149887
149882
149779
149499
149496
149776
149880
149876
149771
149492
149489
149769
149874
149870
149763
149485
149483
149761
149868
149864
149756
149479
149477
149755
149863
149859
149750
149474
149473
149748
149857
149853
149744
149470
149469
149743
149852
149848
149738
149466
149465
149737
149847
149844
149733
149463
149463
149732
149843
149839
149728
149461
149461
149727
149839
149835
149724
149459
149459
149723
149835
149831
149720
149458
149458
149719
149831
149827
149716
149457
149458
149715
149827
149824
149712
149457
149458
149712
149824
149821
149709
149458
149459
149709
149820
149817
149706
149459
149460
149706
149817
149814
149704
149460
149462
149704
149814
149811
149702
149462
149464
149702
149811
149809
149700
149465
149467
149700
149809
149806
149698
149468
149470
149699
149807
149804
149697
149471
149474
149698
149804
149802
149696
149475
149478
149697
149802
149800
149695
149480
149483
149696
149801
149799
149695
149485
149488
149696
149799
149797
149695
149490
149493
149697
149798
149796
149696
149496
149499
149697
149797
149795
149696
149502
149506
149698
149796
149795
149698
149508
149512
149700
149796
149795
149700
149515
149519
149702
149796
149795
149702
149522
149526
149704
149796
149796
149704
149530
149534
149707
149797
149797
149708
149537
149542
149711
149799
149799
149711
149545
149549
149715
149801
149801
149716
149552
149557
149719
149804
149804
149721
149560
149564
149724
149807
149807
149726
149567
149571
149729
149810
149811
149731
149573
149578
149735
149814
149815
149737
149579
149583
149741
149819
149820
149742
149585
149588
149746
149823
149824
149748
149589
149591
149751
149828
149828
149753
149591
149593
149756
149832
149832
149757
149592
149594
149760
149835
149836
149760
149592
149593
149763
149839
149839
149763
149591
149591
149766
149842
149842
149765
149589
149588
149767
149844
149844
149767
149585
149584
149768
149846
149846
149767
149581
149580
149769
149848
149847
149767
149576
149574
149768
149849
149848
149767
149570
149568
149767
149850
149849
149765
149564
149563
149766
149850
149849
149764
149558
149556
149764
149850
149849
149762
149552
149550
149762
149850
149848
149760
149546
149545
149760
149849
149847
149757
149541
149539
149757
149848
149846
149755
149535
149534
149755
149847
149845
149752
149530
149529
149752
149845
149843
149749
149525
149524
149749
149844
149842
149746
149521
149520
149746
149842
149840
149743
149516
149515
149743
149840
149838
149741
149512
149512
149741
149839
149836
149738
149509
149508
149738
149837
149834
149735
149505
149504
149735
149835
149833
149732
149502
149501
149732
149833
149831
149730
149498
149498
149730
149831
149829
149727
149495
149495
149727
149829
149827
149724
149492
149492
149724
149827
149825
149722
149489
149489
149722
149825
149822
149719
149486
149486
149719
149823
149821
149717
149484
149483
149717
149821
149819
149714
149481
149481
149714
149819
149817
149712
149478
149479
149712
149818
149816
149711
149477
149479
149714
149819
149821
149716
149484
149496
149727
149831
149868
149776
149552
149516
149697
149792
149864
149922
149955
149966
149972
149984
149989
149994
149997
149999
149999
149998
149997
149993
149989
149979
149974
149967
149959
149946
149913
149842
149703
149543
149279
149260
149525
149686
149671
149507
149241
149235
149497
149657
149657
149493
149225
149228
149492
149652
149652
149491
149224
149225
149491
149653
149654
149492
149226
149227
149492
149655
149656
149494
149228
149229
149495
149657
149658
149496
149230
149231
149497
149659
149660
149498
149232
149232
149499
149661
149662
149500
149233
149234
149501
149663
149664
149502
149235
149236
149504
149665
149666
149505
149237
149238
149506
149668
149669
149507
149239
149240
149508
149670
149671
149509
149241
149242
149510
149672
149673
149512
149243
149244
149513
149674
149675
149514
149245
149246
149515
149676
149678
149517
149247
149248
149518
149679
149680
149519
149249
149250
149520
149681
149682
149521
149251
149252
149523
149683
149685
149524
149253
149254
149525
149686
149687
149526
149254
149256
149528
149688
149689
149529
149257
149258
149530
149690
149692
149531
149259
149260
149533
149693
149694
149534
149261
149262
149535
149695
149696
149536
149263
149264
149538
149698
149699
149539
149265
149265
149540
149701
149702
149541
149266
149267
149543
149703
149704
149544
149268
149269
149545
149706
149707
149547
149270
149271
149548
149709
149710
149549
149272
149273
149551
149711
149712
149552
149274
149274
149553
149714
149716
149555
149275
149275
149556
149718
149719
149557
149276
149277
149559
149721
149722
149560
149277
149277
149562
149724
149725
149563
149278
149279
149565
149727
149729
149566
149279
149279
149568
149731
149733
149569
149279
149279
149571
149735
149737
149573
149280
149279
149574
149740
149742
149576
149279
149279
149578
149745
149747
149580
149279
149279
149582
149750
149752
149585
149279
149279
149587
149755
149758
149590
149280
149280
149593
149762
149765
149596
149280
149282
149600
149768
149771
149603
149283
149283
149607
149777
149781
149611
149284
149287
149616
149786
149789
149622
149290
149295
149628
149793
149798
149634
149298
149303
149640
149802
149807
149647
149309
149316
149655
149812
149820
149667
149327
149337
149678
149827
149835
149691
149351
149367
149699
149842
149849
149713
149383
149399
149723
149856
149862
149733
149417
149436
149744
149868
149875
149755
149458
149478
149767
149881
149885
149776
149496
149516
149786
149890
149895
149794
149536
149565
149814
149905
149911
149829
149584
149274
149709
149770
149866
149729
149405
149410
149752
149890
149897
149763
149429
149450
149769
149902
149898
149787
149487
149512
149798
149906
149930
149815
149535
149567
149827
149928
149938
149844
149599
149626
149855
149940
149950
149873
149661
149686
149892
149967
149831
149845
149432
149594
149832
149925
149958
149853
149596
149636
149875
149957
149973
149890
149660
149687
149902
149976
149985
149915
149711
149741
149934
149995
149988
149947
149764
149647
149759
149960
149984
149904
149669
149702
149921
149994
149998
149938
149739
149762
149946
150004
150021
149962
149790
149827
149980
150032
149924
149990
149624
149792
149948
149993
150031
149977
149809
149832
149988
150043
150050
150008
149867
149888
150016
150064
149962
150050
149702
149892
150008
150027
150059
150023
149887
149919
150040
150077
150091
150052
149950
149788
150111
149997
150066
150059
149982
149968
150070
150105
150115
150096
150018
150037
150101
150111
150108
150082
149997
150071
150129
150141
150129
150142
150088
150139
150051
150182
150181
150183
150141
150181
150192
150179
150210
150215
150198
150275
150251
150217
150180
150221
150233
150277
150228
150187
150215
150261
150311
150293
150272
150233
150188
150213
150180
150035
150104
150103
150007
149953
149843
149888
149965
149977
149923
149868
149741
149795
149904
149937
149892
149855
149766
149471
150015
149783
149899
149781
149714
149620
149793
149854
149894
149848
149693
149655
149817
149882
149828
149755
149587
149636
149824
149900
149909
149790
149589
149546
149732
149829
149884
149814
149622
149576
149781
149891
149814
149715
149520
149619
149812
149880
149888
149777
149568
149506
149701
149806
149872
149812
149625
149574
149774
149878
149797
149701
149508
149639
149813
149851
149833
149787
149619
149518
149705
149783
149869
149808
149621
149594
149779
149853
149792
149705
149514
149631
149815
149873
149859
149784
149593
149601
149744
149796
149684
149854
149354
149604
149773
149864
149860
149764
149516
149563
149530
149823
149830
149811
149598
149606
149756
149790
149712
149827
149360
149587
149782
149865
149863
149761
149516
149546
149553
149812
149852
149800
149577
149540
149766
149837
149820
149536
149569
149583
149804
149840
149819
149751
149574
149356
149803
149721
149855
149787
149594
149587
149755
149820
149716
149832
149346
149610
149788
149850
149805
149748
149597
149307
149875
149670
149878
149735
149612
149473
149718
149832
149884
149820
149617
149595
149786
149856
149788
149701
149506
149608
149814
149886
149888
149779
149562
149507
149709
149808
149895
149820
149609
149561
149784
149903
149809
149703
149492
149651
149827
149847
149795
149797
149640
149521
149712
149773
149875
149829
149628
149641
149785
149830
149718
149901
149327
149627
149772
149890
149827
149738
149507
149617
149832
149895
149883
149803
149595
149514
149719
149814
149891
149833
149623
149602
149785
149871
149749
149877
149346
149622
149798
149892
149825
149742
149517
149648
149852
149904
149892
149820
149621
149523
149727
149820
149896
149844
149640
149626
149798
149866
149754
149889
149360
149629
149802
149904
149838
149746
149510
149668
149861
149893
149873
149827
149637
149524
149735
149818
149913
149843
149619
149540
149808
149916
149878
149495
149639
149568
149887
149875
149820
149737
149522
149666
149864
149885
149856
149820
149651
149401
149848
149768
149912
149816
149632
149517
149759
149848
149887
149858
149657
149626
149825
149847
149827
149635
149581
149598
149859
149893
149852
149760
149537
149631
149858
149929
149913
149818
149574
149598
149612
149854
149896
149871
149593
149526
149750
149846
149914
149860
149635
149609
149808
149885
149779
149833
149389
149643
149830
149921
149851
149766
149520
149667
149870
149889
149851
149840
149612
149667
149511
149872
149860
149957
149513
149510
149730
149842
149903
149850
149602
149521
149755
149839
149919
149871
149647
149604
149830
149902
149835
149685
149534
149595
149861
149905
149851
149753
149517
149648
149863
149886
149856
149829
149586
149654
149491
149871
149854
149957
149483
149480
149715
149835
149907
149858
149597
149520
149765
149849
149919
149864
149622
149593
149809
149892
149777
149855
149350
149598
149796
149918
149834
149746
149475
149590
149852
149915
149851
149754
149495
149610
149859
149920
149894
149813
149552
149567
149600
149847
149888
149892
149544
149481
149730
149842
149907
149851
149584
149498
149754
149844
149916
149860
149610
149574
149806
149891
149785
149792
149372
149578
149801
149909
149825
149732
149450
149575
149848
149912
149850
149751
149485
149603
149859
149917
149877
149797
149585
149249
149896
149745
149935
149719
149618
149415
149737
149816
149901
149836
149549
149445
149731
149833
149905
149842
149572
149553
149777
149865
149725
149892
149211
149611
149713
149931
149812
149722
149416
149541
149826
149899
149825
149721
149435
149545
149832
149898
149831
149731
149453
149576
149842
149901
149873
149795
149505
149572
149473
149836
149836
149919
149426
149402
149678
149809
149879
149814
149499
149415
149705
149810
149888
149822
149527
149433
149717
149821
149896
149833
149556
149524
149766
149858
149722
149851
149207
149553
149705
149903
149787
149692
149363
149491
149803
149878
149801
149690
149384
149504
149810
149880
149806
149695
149399
149535
149822
149888
149851
149756
149512
149165
149848
149709
149912
149657
149560
149332
149681
149773
149867
149790
149473
149345
149669
149785
149863
149791
149472
149368
149678
149792
149868
149802
149511
149419
149748
149839
149801
149363
149516
149321
149910
149784
149771
149631
149314
149440
149783
149849
149765
149647
149331
149441
149774
149848
149769
149652
149332
149451
149778
149852
149778
149665
149352
149474
149785
149855
149811
149708
149456
149008
149868
149646
149905
149533
149551
149233
149637
149721
149830
149743
149397
149270
149619
149743
149835
149756
149412
149291
149625
149752
149835
149759
149420
149312
149640
149759
149840
149768
149451
149398
149691
149802
149660
149717
149109
149431
149641
149840
149717
149606
149239
149377
149730
149816
149726
149600
149246
149373
149732
149815
149729
149601
149260
149396
149742
149820
149741
149620
149283
149415
149747
149822
149777
149668
149392
148954
149800
149609
149859
149526
149453
149174
149582
149688
149797
149700
149329
149173
149569
149697
149793
149710
149330
149194
149567
149702
149792
149710
149338
149228
149584
149711
149798
149720
149373
149331
149642
149758
149597
149683
148981
149361
149575
149804
149667
149551
149137
149291
149676
149774
149673
149540
149140
149298
149688
149774
149679
149540
149158
149303
149687
149773
149686
149553
149181
149330
149693
149773
149723
149600
149300
148789
149778
149537
149835
149398
149409
149054
149512
149621
149744
149631
149233
149070
149503
149637
149742
149647
149227
149086
149496
149643
149741
149647
149231
149106
149502
149646
149744
149654
149252
149127
149516
149656
149750
149663
149290
149209
149592
149717
149602
149350
149106
149158
149664
149691
149620
149445
149055
149187
149632
149716
149617
149458
149055
149199
149624
149717
149619
149471
149069
149210
149623
149718
149628
149485
149087
149244
149636
149725
149684
149550
149181
148858
149527
149521
149715
149483
149197
148963
149431
149568
149689
149588
149144
148973
149423
149581
149685
149587
149137
148997
149429
149585
149687
149590
149150
149016
149442
149591
149686
149591
149176
149079
149511
149648
149537
149234
149005
149030
149587
149620
149543
149353
148920
149068
149556
149652
149545
149369
148924
149093
149558
149657
149549
149385
148938
149103
149557
149657
149561
149403
148962
149142
149570
149665
149624
149478
149064
148752
149395
149450
149645
149420
149085
148813
149343
149490
149616
149488
149011
148829
149328
149494
149613
149500
149010
148855
149331
149502
149618
149510
149031
148871
149345
149512
149623
149523
149066
148986
149435
149590
149408
149280
148704
148982
149433
149587
149459
149285
148760
148967
149468
149590
149468
149296
148787
148992
149480
149589
149466
149289
148785
148975
149467
149575
149525
149358
148910
148437
149396
149312
149575
149272
148937
148644
149228
149393
149542
149403
148870
148653
149222
149404
149542
149416
148882
148691
149232
149422
149549
149436
148929
148793
149339
149508
149370
148925
148745
148722
149448
149446
149380
149146
148610
148783
149392
149492
149346
149124
148579
148782
149357
149481
149363
149162
148600
148823
149373
149491
149430
149242
148747
148185
149331
149189
149498
149135
148799
148441
149095
149281
149452
149307
148714
148479
149098
149308
149459
149316
148720
148506
149113
149323
149461
149341
148770
148669
149225
149417
149169
149147
148231
148608
149166
149400
149211
149007
148314
148599
149245
149388
149245
149021
148381
148619
149258
149401
149263
149042
148411
148664
149275
149407
149358
149149
148551
148145
148999
149115
149367
149109
148576
148262
148979
149188
149357
149191
148553
148299
148994
149205
149361
149235
148604
148516
149114
149317
148994
149022
147870
148419
149014
149282
149089
148856
148113
148410
149119
149285
149127
148876
148168
148441
149141
149298
149149
148905
148206
148489
149161
149314
149268
149045
148350
148077
148689
149026
149215
149102
148315
148095
148796
149085
149254
149124
148354
148129
148837
149106
149252
149137
148473
148209
148923
149168
148907
148609
147874
148196
148963
149141
148986
148710
147933
148225
149008
149181
149022
148753
147973
148282
149036
149202
149155
148901
148130
147785
148558
148878
149112
148914
148136
147837
148661
148955
149151
148981
148201
148040
148856
149119
148813
148479
147662
147968
148823
149018
148780
148454
147578
147905
148793
149003
148833
148522
147646
147998
148851
149042
148995
148694
147843
147395
148391
148678
148977
148716
147873
147496
148464
148785
149010
148811
147932
147726
148665
148961
148619
148253
147296
147774
148654
148909
148752
148422
147423
147777
148706
148906
148778
148441
147446
147042
148003
148455
148758
148531
147498
147154
148194
148571
148827
148612
147618
147421
148430
148783
148395
148086
146877
147453
148408
148754
148529
148173
147028
147542
148552
148791
148739
148400
147296
146809
147909
148349
148674
148306
147514
146737
147954
148324
148597
148323
147232
146964
148145
148496
148207
147613
146655
147026
148311
148503
148313
147849
146696
147187
148367
148594
148554
148142
146996
146390
147691
148113
148490
148136
147077
146581
147878
148284
148527
148327
147277
146984
148152
148493
147912
147383
146112
146727
147956
148277
148200
147793
146455
146080
147202
147880
148221
148008
146539
146151
147472
148002
148331
148079
146749
146540
147858
148302
147821
147274
145904
146627
147903
148204
148257
147871
146415
145751
146983
147727
147954
147526
146026
145668
147287
147820
147398
146642
145204
145918
147491
147872
147606
147024
145418
146206
147685
148019
147999
147494
145955
145279
146830
147463
147881
147550
146150
145964
147543
147969
147323
146575
145075
145410
147087
147564
147414
146807
145038
144473
146269
146973
147523
147101
145429
145136
146927
147516
147015
146265
144461
145447
147140
147517
147586
146999
145195
144495
146337
147006
147246
146790
145032
144282
146353
147027
146770
145974
143815
143014
145462
146242
146976
146432
144402
144002
146335
146985
146501
145398
143385
144598
146589
146969
147261
146733
144671
142965
145541
146464
145571
144493
141856
143351
145716
146349
146352
145576
142952
142592
145206
146265
145529
144797
141392
143704
145803
146396
146553
145887
143193
141291
144438
145598
144636
143523
140116
142311
144982
145736
145784
144968
141858
141591
144742
145884
145837
145133
141161
138916
141923
144274
144982
143846
140355
139958
143647
144942
144905
143533
139441
139379
143804
145150
144759
142935
137717
136381
141919
143914
143029
140175
135659
139327
143307
144417
144428
142982
138571
137380
142342
144098
143708
141911
136610
136200
141709
143488
143340
141254
135328
134899
141009
143241
143229
140856
134624
134343
140670
143206
143143
140447
134059
133805
140215
143055
142958
139986
133584
133398
139763
142852
142742
139548
133238
133102
139341
142626
142509
139144
132989
132893
138957
142389
142268
138780
132816
132755
138614
142145
142022
138459
132709
132675
138314
141899
141777
138180
132651
132637
138057
141655
141537
137943
132631
132632
137838
141418
141302
137742
132640
132654
137654
141186
141074
137573
132673
132696
137500
140963
140856
137434
132724
132755
137374
140750
140649
137320
132788
132824
137272
140550
140455
137229
132863
132902
137190
140361
140273
137156
132944
132986
137125
140187
140106
137099
133029
133072
137075
140028
139954
137054
133115
133158
137035
139883
139816
137019
133202
133244
137005
139752
139692
136993
133287
133328
136983
139635
139582
136975
133369
133409
136967
139531
139484
136961
133449
133487
136956
139439
139399
136952
133526
133562
136948
139359
139324
136946
133598
133633
136945
139289
139258
136944
133667
133699
136944
139229
139202
136945
133730
133760
136946
139177
139154
136948
133789
133816
136950
139132
139113
136953
133843
133868
136955
139094
139078
136959
133893
133916
136962
139062
139048
136967
133938
133959
136970
139035
139023
136975
133980
133999
136979
139012
139002
136984
134018
134035
136989
138992
138984
136994
134052
134068
136999
138976
138969
137004
134084
134099
137009
138962
138956
137014
134113
134127
137018
138950
138945
137023
134140
134152
137028
138939
138935
137033
134164
134175
137037
138931
138927
137042
134187
134197
137046
138923
138920
137050
134207
134216
137054
138916
138914
137058
134225
134234
137062
138910
138908
137066
134242
134250
137070
138906
138904
137074
134258
134265
137077
138901
138900
137081
134272
134278
137084
138898
138897
137088
134285
134291
137091
138895
138895
137095
134297
134302
137098
138893
138893
137101
134308
134313
137104
138891
138891
137108
134319
134323
137111
138890
138891
137114
134329
134333
137117
138889
138890
137121
134338
134342
137124
138889
138890
137127
134347
134351
137130
138889
138891
137133
134356
134360
137136
138890
138891
137140
134365
134369
137143
138891
138893
137147
134373
134377
137149
138892
138894
137153
134381
134385
137156
138894
138896
137160
134389
134393
137163
138896
138898
137167
134398
134401
137170
138898
138901
137174
134406
134409
137177
138901
138904
137181
134414
134417
137184
138904
138907
137188
134422
134425
137191
138908
138911
137195
134429
134433
137199
138912
138915
137203
134437
134441
137206
138916
138920
137210
134445
134449
137214
138920
138924
137218
134453
134457
137221
138925
138929
137226
134461
134464
137229
138930
138935
137233
134468
134472
137237
138936
138940
137241
134476
134480
137245
138941
138946
137249
134484
134487
137253
138947
138952
137257
134491
134495
137261
138954
138958
137266
134499
134503
137270
138960
138965
137274
134506
134510
137278
138967
138971
137282
134514
134517
137286
138973
138978
137291
134521
134525
137295
138980
138985
137299
134528
134532
137303
138987
138993
137307
134536
134539
137311
138995
139000
137316
134543
134546
137320
139002
139007
137324
134550
134553
137328
139009
139015
137333
134556
134560
137337
139017
139022
137341
134563
134566
137345
139025
139030
137349
134570
134573
137353
139032
139038
137358
134576
134579
137362
139040
139045
137366
134583
134586
137370
139048
139053
137374
134589
134592
137378
139056
139061
137383
134595
134598
137386
139064
139069
137391
134601
134604
137395
139071
139077
137399
134607
134610
137403
139079
139085
137407
134613
134615
137411
139087
139093
137415
134618
134621
137419
139095
139101
137423
134624
134626
137427
139103
139109
137431
134629
134632
137434
139111
139117
137438
134634
134637
137442
139119
139124
137446
134639
134641
137450
139127
139132
137454
134644
134646
137457
139134
139140
137461
134648
134650
137464
139142
139147
137468
134652
134654
137471
139149
139155
137475
134656
134658
137478
139157
139162
137482
134660
134662
137485
139164
139170
137489
134664
134665
137492
139171
139178
137495
134667
134669
137498
139179
139186
137503
134673
134676
137507
139189
139192
137511
134679
134680
137509
139189
139177
137498
134678
134670
137482
139159
139204
137503
134685
134760
137599
139355
139448
137673
134818
142056
144691
146369
146740
146890
147546
147883
148029
148174
148587
148855
149138
149349
149505
149620
149703
149763
149805
149836
149859
149877
149890
149901
149909
149916
149922
149926
149929
149931
149933
149934
149936
149936
149932
149934
149941
149946
149954
149962
149972
149983
149994
150005
150015
150021
150023
150022
150020
150017
150015
150013
150012
150010
150008
150007
150005
150003
150000
149998
149996
149994
149992
149990
149989
149988
149987
149986
149986
149986
149986
149987
149989
149991
149993
149997
150000
150005
150010
150015
150021
150027
150033
150040
150046
150052
150058
150063
150068
150072
150075
150078
150080
150081
150081
150081
150080
150079
150077
150074
150071
150068
150064
150061
150057
150053
150048
150044
150040
150036
150032
150028
150024
150020
150016
150013
150009
150006
150003
150000
149997
149994
149991
149989
149987
149984
149982
149980
149978
149977
149975
149974
149972
149971
149970
149969
149968
149967
149966
149965
149965
149964
149964
149963
149963
149963
149962
149962
149962
149962
149962
149962
149962
149962
149962
149962
149962
149962
149963
149963
149963
149963
149964
149964
149965
149965
149965
149966
149966
149967
149968
149968
149969
149969
149970
149971
149971
149972
149973
149973
149974
149975
149976
149976
149977
149978
149979
149980
149980
149981
149982
149983
149984
149985
149986
149987
149988
149989
149990
149991
149993
149994
149996
150000
150007
150013
150015
150015
150017
150004
150012
150012
150020
150026
150029
150029
150027
150026
150024
150022
150021
150020
150019
150018
150017
150016
150016
150015
150015
150014
150014
150013
150013
150012
150012
150012
150011
150011
150011
150011
150010
150010
150010
150010
150009
150009
150009
150009
150008
150008
150008
150008
150008
150007
150007
150007
150007
150006
150006
150006
150006
150006
150005
150005
150005
150005
150005
150004
150004
150004
150004
150003
150003
150003
150003
150002
150002
150002
150001
150001
150000
150000
149999
149999
149998
149997
149995
149994
149994
149995
149997
149999
150000
150004
150010
150019
150024
150024
150021
150019
150016
150013
150010
150008
150005
150003
150000
149998
149995
149993
149990
149988
149985
149983
149980
149979
149976
149975
149971
149970
149967
149966
149963
149963
149959
149959
149956
149955
149952
149952
149949
149949
149945
149945
149942
149942
149939
149939
149936
149936
149933
149934
149930
149931
149928
149928
149925
149926
149923
149923
149920
149921
149918
149918
149915
149916
149913
149913
149911
149911
149908
149909
149906
149907
149904
149905
149902
149903
149900
149901
149899
149899
149897
149898
149895
149896
149894
149895
149893
149894
149892
149893
149891
149893
149891
149893
149891
149893
149891
149894
149892
149895
149893
149896
149895
149898
149897
149900
149899
149902
149901
149905
149903
149907
149906
149910
149909
149912
149911
149915
149914
149917
149916
149920
149918
149922
149920
149923
149922
149925
149923
149926
149924
149927
149925
149927
149925
149927
149926
149927
149926
149927
149925
149927
149925
149926
149924
149926
149924
149925
149923
149924
149922
149923
149921
149922
149920
149921
149919
149920
149918
149919
149917
149918
149916
149917
149914
149915
149913
149914
149912
149913
149911
149912
149910
149912
149910
149914
149922
149932
149956
149955
149953
149965
149949
149952
149965
149949
149952
149966
149949
149953
149967
149950
149954
149968
149951
149955
149969
149952
149956
149970
149953
149957
149971
149954
149958
149971
149955
149959
149972
149956
149960
149973
149957
149960
149974
149957
149961
149975
149958
149962
149975
149959
149962
149976
149959
149963
149977
149960
149963
149977
149960
149964
149977
149960
149964
149978
149961
149964
149978
149961
149964
149978
149960
149964
149978
149960
149964
149978
149959
149963
149977
149958
149963
149977
149957
149961
149976
149956
149960
149975
149954
149958
149973
149952
149956
149972
149950
149954
149970
149948
149952
149968
149946
149950
149967
149945
149949
149966
149943
149947
149964
149941
149945
149964
149940
149944
149964
149939
149943
149962
149938
149942
149962
149938
149942
149963
149938
149943
149964
149938
149943
149964
149939
149944
149965
149939
149945
149966
149940
149946
149967
149941
149947
149969
149942
149948
149970
149944
149950
149971
149945
149951
149972
149946
149952
149974
149948
149954
149975
149949
149955
149976
149951
149957
149977
149952
149958
149979
149954
149960
149980
149955
149961
149981
149957
149963
149982
149958
149964
149983
149960
149965
149985
149961
149967
149986
149963
149968
149987
149965
149970
149988
149966
149972
149989
149968
149973
149990
149970
149975
149992
149971
149976
149993
149973
149978
149994
149975
149980
149995
149977
149981
149996
149979
149983
149998
149981
149985
149999
149983
149987
150000
149985
149989
150002
149987
149991
150003
149989
149993
150004
149991
149995
150006
149994
149997
150007
149996
150000
150008
149999
150002
150010
150002
150004
150011
150004
150007
150013
150007
150010
150014
150010
150013
150016
150013
150015
150017
150017
150018
150019
150020
150022
150020
150023
150013
150015
150015
150015
150015
150014
150014
150013
150013
150013
150012
150012
150011
150011
150011
150011
150010
150010
150010
150009
150009
150009
150008
150008
150008
150007
150007
150006
150006
150005
150005
150004
150004
150003
150002
150001
150001
150000
149999
149997
149996
149995
149994
149993
149992
149991
149991
149990
149992
149994
149996
149997
150000
150002
150005
150007
150009
150011
150012
150012
150012
150011
150011
150010
150009
150007
150006
150005
150004
150003
150002
150000
149999
149998
149997
149996
149995
149994
149993
149992
149991
149990
149989
149988
149988
149986
149969
149966
149966
149970
149985
149989
149989
149995
149995
149997
149997
149997
149998
149999
150000
150001
150002
150003
150004
150005
150006
150007
150008
150009
150010
150011
150015
150014
150013
150011
150010
150009
150008
150007
150006
150005
150004
150003
150002
150001
150001
150000
149999
149999
150000
149999
149999
149997
149998
150000
150000
150001
149994
149993
149993
149993
149993
149990
149990
149975
149977
149972
149972
149972
149973
149974
149976
149996