/*--------------------------------*- C++ -*----------------------------------*\
| =========                 |                                                 |
| \\      /  F ield         | OpenFOAM: The Open Source CFD Toolbox           |
|  \\    /   O peration     | Version:  v2006                                 |
|   \\  /    A nd           | Website:  www.openfoam.com                      |
|    \\/     M anipulation  |                                                 |
\*---------------------------------------------------------------------------*/
FoamFile
{
    version     2.0;
    format      ascii;
    class       volScalarField;
    location    "0.064";
    object      rho;
}
// * * * * * * * * * * * * * * * * * * * * * * * * * * * * * * * * * * * * * //

dimensions      [1 -3 0 0 0 0 0];


internalField   nonuniform List<scalar> 
9148
(
1.71418
1.7142
1.71421
1.71418
1.71421
1.71424
1.71432
1.71442
1.71454
1.71466
1.71479
1.71492
1.71506
1.71521
1.71537
1.71553
1.71571
1.71589
1.71608
1.71628
1.71649
1.71671
1.71693
1.71715
1.71739
1.71763
1.71787
1.71812
1.71837
1.71862
1.71888
1.71914
1.7194
1.71966
1.71992
1.72018
1.72044
1.72069
1.72095
1.7212
1.72145
1.72169
1.72193
1.72216
1.72239
1.72262
1.72283
1.72304
1.72324
1.72343
1.72362
1.7238
1.72396
1.72412
1.72427
1.7244
1.72453
1.72464
1.72474
1.72483
1.72489
1.72495
1.72499
1.72501
1.72498
1.725
1.72503
1.72509
1.72526
1.72552
1.72565
1.72552
1.72524
1.72552
1.72555
1.72546
1.72538
1.72504
1.72486
1.72525
1.72536
1.72525
1.72512
1.7247
1.72459
1.72501
1.72516
1.72509
1.72493
1.7245
1.72444
1.72486
1.72503
1.72499
1.72482
1.7244
1.72437
1.72478
1.72496
1.72493
1.72475
1.72435
1.72435
1.72473
1.72492
1.72492
1.72473
1.72436
1.72437
1.72473
1.72492
1.72493
1.72474
1.7244
1.72443
1.72476
1.72494
1.72497
1.72479
1.72447
1.72451
1.72482
1.725
1.72503
1.72486
1.72457
1.72462
1.7249
1.72507
1.72512
1.72495
1.72469
1.72475
1.725
1.72517
1.72523
1.72506
1.72482
1.72489
1.72512
1.72528
1.72535
1.7252
1.72498
1.72505
1.72527
1.72542
1.7255
1.72535
1.72515
1.72524
1.72543
1.72558
1.72567
1.72553
1.72535
1.72544
1.72562
1.72576
1.72586
1.72573
1.72556
1.72567
1.72583
1.72596
1.72608
1.72595
1.7258
1.72592
1.72606
1.72619
1.72632
1.7262
1.72607
1.7262
1.72632
1.72644
1.72658
1.72647
1.72635
1.72649
1.7266
1.72671
1.72685
1.72675
1.72665
1.7268
1.72689
1.72699
1.72714
1.72705
1.72697
1.72712
1.7272
1.72729
1.72745
1.72737
1.7273
1.72747
1.72753
1.72761
1.72778
1.72771
1.72765
1.72783
1.72787
1.72795
1.72813
1.72807
1.72802
1.72821
1.72825
1.72831
1.72851
1.72845
1.72843
1.72863
1.72865
1.7287
1.72892
1.72887
1.72886
1.72908
1.72909
1.72913
1.72937
1.72933
1.72932
1.72957
1.72956
1.72959
1.72984
1.72981
1.72982
1.73008
1.73006
1.73009
1.73035
1.73033
1.73036
1.73063
1.7306
1.73061
1.73089
1.73088
1.73092
1.73121
1.73116
1.73117
1.73146
1.73146
1.73151
1.73182
1.73175
1.73174
1.73205
1.73206
1.73213
1.73245
1.73237
1.73235
1.73266
1.73269
1.73277
1.73311
1.73302
1.73298
1.73331
1.73335
1.73344
1.7338
1.7337
1.73366
1.73401
1.73405
1.73414
1.73454
1.73444
1.73438
1.73476
1.73481
1.73491
1.73536
1.73525
1.73518
1.73558
1.73566
1.73577
1.73627
1.73615
1.73606
1.73647
1.73657
1.73668
1.73731
1.73721
1.73702
1.73719
1.7368
1.73539
1.73468
1.73521
1.7368
1.7356
1.73491
1.73477
1.73478
1.73494
1.73525
1.7354
1.73511
1.7349
1.73505
1.73528
1.73558
1.73562
1.73539
1.73536
1.7356
1.73554
1.73559
1.73546
1.7354
1.73541
1.7355
1.73552
1.73564
1.7355
1.73536
1.73527
1.73535
1.73551
1.73563
1.73549
1.7354
1.73524
1.73534
1.73548
1.73554
1.73542
1.73541
1.73528
1.73535
1.73544
1.73544
1.73537
1.73541
1.73537
1.73543
1.73542
1.73537
1.73531
1.73538
1.73544
1.73545
1.73535
1.73527
1.7352
1.73529
1.73541
1.73534
1.73523
1.73514
1.73508
1.73516
1.73526
1.73519
1.7351
1.73504
1.735
1.73506
1.73514
1.73509
1.73503
1.73499
1.73499
1.73501
1.73506
1.73504
1.73502
1.735
1.73503
1.73504
1.73505
1.73508
1.73508
1.73508
1.73512
1.73512
1.73511
1.73514
1.73515
1.73516
1.73523
1.73521
1.73519
1.73524
1.73526
1.73529
1.73535
1.73532
1.73529
1.73534
1.73538
1.73542
1.73549
1.73544
1.73539
1.73544
1.7355
1.73556
1.73563
1.73556
1.73549
1.73554
1.73562
1.7357
1.73578
1.73569
1.7356
1.73565
1.73575
1.73586
1.73594
1.73582
1.73571
1.73578
1.73589
1.73602
1.73612
1.73597
1.73585
1.73592
1.73604
1.73621
1.73631
1.73612
1.736
1.73606
1.73617
1.73638
1.73646
1.73623
1.73611
1.73615
1.73623
1.73648
1.73647
1.73624
1.73617
1.73614
1.73619
1.7364
1.73693
1.7372
1.73717
1.7371
1.73703
1.73695
1.73688
1.73682
1.73677
1.73674
1.73675
1.73676
1.73681
1.73686
1.73693
1.73701
1.7371
1.73717
1.73721
1.73721
1.7372
1.73721
1.7373
1.73731
1.7374
1.73746
1.7376
1.73723
1.73763
1.73731
1.73795
1.73825
1.73537
1.73769
1.73812
1.73773
1.73746
1.73782
1.73819
1.73807
1.73773
1.73741
1.73742
1.7376
1.73782
1.73762
1.73739
1.73748
1.73735
1.73748
1.73735
1.73771
1.73762
1.73693
1.73693
1.73697
1.73764
1.73725
1.73703
1.73693
1.73688
1.73705
1.73708
1.73708
1.73678
1.73685
1.73652
1.73678
1.73662
1.73674
1.73684
1.73663
1.73704
1.73706
1.73621
1.73486
1.73643
1.73704
1.7369
1.73616
1.73474
1.73495
1.73578
1.73669
1.73656
1.73569
1.73529
1.73606
1.73601
1.73652
1.73623
1.73665
1.73558
1.73596
1.73587
1.73654
1.73658
1.73628
1.73669
1.73586
1.73679
1.73636
1.73623
1.73637
1.73533
1.73592
1.73583
1.73636
1.73639
1.7359
1.73647
1.73673
1.73614
1.73644
1.73649
1.73624
1.73666
1.73604
1.73671
1.73634
1.73634
1.73666
1.73606
1.73642
1.73647
1.73649
1.73663
1.73661
1.73654
1.7367
1.73677
1.73678
1.73696
1.73695
1.73686
1.73699
1.73712
1.73714
1.73734
1.73728
1.73708
1.73725
1.73747
1.73753
1.73775
1.73771
1.7375
1.73778
1.73798
1.738
1.73828
1.73826
1.73802
1.73826
1.73852
1.73855
1.73885
1.7379
1.73911
1.73922
1.73887
1.73894
1.7392
1.73927
1.73932
1.7396
1.73954
1.73944
1.73964
1.73976
1.73982
1.73995
1.73997
1.7398
1.7401
1.74011
1.74017
1.74014
1.74015
1.73994
1.74002
1.74039
1.74078
1.7397
1.73966
1.73952
1.73909
1.73915
1.74051
1.73786
1.73721
1.73637
1.73437
1.73463
1.7343
1.72715
1.7259
1.72985
1.71638
1.71411
1.71232
1.69626
1.70392
1.70536
1.6872
1.68765
1.66978
1.6544
1.67287
1.68063
1.67837
1.67399
1.6675
1.67583
1.68114
1.6846
1.686
1.68221
1.67775
1.68051
1.68332
1.68576
1.69127
1.68956
1.68713
1.68911
1.69023
1.69175
1.69605
1.69495
1.69311
1.69438
1.69423
1.6959
1.69968
1.69873
1.69737
1.69824
1.69894
1.69986
1.70088
1.69794
1.7007
1.70148
1.70293
1.70228
1.70279
1.70232
1.70146
1.70385
1.70489
1.70501
1.70509
1.70457
1.70392
1.70543
1.70331
1.70551
1.70801
1.7036
1.70866
1.70876
1.70422
1.7067
1.70808
1.70735
1.70836
1.70797
1.70734
1.70769
1.70916
1.70887
1.70898
1.70906
1.70887
1.70896
1.70866
1.70947
1.70824
1.70768
1.71306
1.70923
1.70947
1.7129
1.70636
1.70994
1.71136
1.71077
1.71026
1.71041
1.70904
1.71059
1.71126
1.71124
1.71076
1.71051
1.71003
1.71128
1.71177
1.71179
1.71135
1.71112
1.7109
1.71165
1.71221
1.71224
1.71193
1.71173
1.71142
1.71312
1.70962
1.71194
1.71443
1.70884
1.71501
1.71537
1.70959
1.71211
1.7128
1.71188
1.71332
1.71331
1.71109
1.71218
1.7129
1.71242
1.71292
1.7126
1.71215
1.71234
1.71282
1.71272
1.71274
1.71207
1.71199
1.71213
1.71293
1.71295
1.71282
1.71211
1.71215
1.71231
1.71272
1.71263
1.71231
1.71171
1.7119
1.71209
1.71285
1.71286
1.71249
1.71167
1.71191
1.71211
1.71253
1.71245
1.71199
1.71133
1.71161
1.71183
1.71253
1.71252
1.71208
1.71125
1.71152
1.71176
1.71215
1.71206
1.71154
1.71086
1.71118
1.71139
1.71205
1.71206
1.7116
1.71068
1.711
1.71122
1.71158
1.71144
1.71087
1.7102
1.71035
1.71074
1.71099
1.71184
1.7106
1.70923
1.71089
1.71052
1.71011
1.71306
1.7099
1.70455
1.71288
1.70934
1.70924
1.71381
1.70661
1.7097
1.71118
1.71104
1.70954
1.70927
1.70808
1.70897
1.70966
1.70977
1.70895
1.70873
1.70819
1.70893
1.7096
1.70953
1.7086
1.70842
1.70793
1.70805
1.70878
1.70884
1.7078
1.70752
1.70702
1.70751
1.70812
1.70821
1.70734
1.70715
1.70679
1.70714
1.70779
1.70777
1.70666
1.70642
1.70585
1.70619
1.70655
1.70693
1.70581
1.70567
1.70482
1.70546
1.7066
1.70607
1.7062
1.70612
1.70523
1.70383
1.70469
1.70489
1.70519
1.7051
1.70455
1.70349
1.7039
1.70409
1.70455
1.70451
1.70395
1.70279
1.70321
1.70341
1.70355
1.70351
1.70287
1.70152
1.70207
1.7023
1.70245
1.70311
1.70186
1.69973
1.70172
1.7015
1.70119
1.70249
1.69972
1.70019
1.70148
1.70165
1.70027
1.70005
1.6988
1.69953
1.70004
1.70026
1.69905
1.69892
1.69828
1.69874
1.69943
1.69945
1.69823
1.69802
1.69743
1.69727
1.69817
1.69831
1.69693
1.69666
1.69592
1.69645
1.69723
1.69732
1.69595
1.69549
1.69486
1.69446
1.69607
1.69565
1.69586
1.69563
1.69458
1.69264
1.69389
1.69421
1.69425
1.69411
1.69349
1.69167
1.69256
1.69276
1.69299
1.69284
1.69206
1.69044
1.69121
1.69148
1.6916
1.6915
1.69078
1.689
1.6897
1.68998
1.69024
1.68899
1.68959
1.68858
1.68951
1.68962
1.68807
1.68759
1.68738
1.68704
1.68807
1.68791
1.68655
1.68594
1.68523
1.68561
1.68653
1.68657
1.685
1.68443
1.68379
1.68401
1.68502
1.68505
1.68349
1.68282
1.68208
1.68229
1.68339
1.68333
1.68144
1.6809
1.6797
1.67953
1.68183
1.68115
1.68133
1.68096
1.6792
1.67753
1.67906
1.67938
1.67894
1.67861
1.67791
1.67567
1.6768
1.677
1.67676
1.6764
1.67552
1.67318
1.67444
1.67483
1.67512
1.67491
1.67401
1.67182
1.67295
1.67322
1.673
1.67264
1.6716
1.66915
1.67038
1.67079
1.67062
1.66999
1.66916
1.66795
1.66969
1.66997
1.66734
1.66665
1.66522
1.66605
1.66746
1.66756
1.66555
1.66497
1.66384
1.66377
1.66505
1.66511
1.66279
1.66213
1.66104
1.65964
1.66135
1.66181
1.65941
1.65853
1.65706
1.65862
1.65993
1.65993
1.65757
1.65695
1.65567
1.65488
1.65627
1.65679
1.65599
1.65593
1.65402
1.6495
1.65139
1.65252
1.65193
1.65163
1.64992
1.64727
1.64866
1.64946
1.64933
1.64926
1.64771
1.64483
1.64607
1.64664
1.64554
1.64539
1.64389
1.63959
1.64127
1.64228
1.64119
1.64057
1.63859
1.63589
1.63751
1.63844
1.63859
1.63859
1.6368
1.63363
1.63513
1.63579
1.63455
1.63452
1.63279
1.62788
1.62979
1.6309
1.62903
1.62828
1.62583
1.62263
1.62465
1.62579
1.62594
1.62595
1.62392
1.62024
1.622
1.62289
1.62099
1.62102
1.61898
1.61286
1.61513
1.61656
1.61404
1.61304
1.61008
1.60685
1.6091
1.61073
1.61052
1.60869
1.60842
1.60559
1.60881
1.60879
1.60399
1.60234
1.6008
1.59726
1.59934
1.59993
1.59512
1.59339
1.59058
1.59252
1.59439
1.59461
1.59219
1.59115
1.58918
1.58337
1.58435
1.58543
1.58286
1.58328
1.58067
1.56898
1.57301
1.57547
1.57459
1.57408
1.57035
1.5664
1.56917
1.57048
1.56856
1.56886
1.56593
1.55706
1.56034
1.56283
1.55473
1.55259
1.54751
1.54197
1.54625
1.54822
1.54822
1.54797
1.54475
1.53856
1.54197
1.54316
1.53643
1.53611
1.53193
1.51394
1.5215
1.52652
1.52201
1.52097
1.51674
1.51316
1.51697
1.51986
1.50793
1.5076
1.50374
1.48806
1.4933
1.49664
1.48663
1.482
1.47543
1.47853
1.4827
1.48382
1.47623
1.47369
1.46939
1.44988
1.4583
1.4617
1.45078
1.44561
1.43577
1.42866
1.43349
1.43742
1.42435
1.42286
1.41518
1.3881
1.40349
1.41027
1.39525
1.38899
1.37869
1.3686
1.37666
1.37969
1.36621
1.35635
1.33633
1.33659
1.34559
1.35012
1.32228
1.30955
1.28719
1.30027
1.31057
1.31817
1.31366
1.29934
1.26782
1.26267
1.29566
1.30784
1.30654
1.29492
1.25985
1.28677
1.31491
1.31915
1.35997
1.35784
1.33674
1.37217
1.39011
1.39498
1.41386
1.40677
1.39023
1.40292
1.41711
1.42541
1.43431
1.42498
1.41238
1.42201
1.43266
1.44222
1.4487
1.43871
1.42959
1.43706
1.44462
1.4542
1.45864
1.44912
1.44288
1.44861
1.45392
1.46273
1.46626
1.45767
1.45331
1.45803
1.46175
1.46958
1.47248
1.46504
1.46212
1.46619
1.46863
1.47524
1.47769
1.47167
1.46984
1.47323
1.47478
1.48009
1.48236
1.47756
1.47628
1.47914
1.48025
1.48456
1.48667
1.48271
1.4818
1.48427
1.48502
1.48857
1.49053
1.48724
1.48666
1.48883
1.48929
1.49223
1.49415
1.49135
1.49099
1.49292
1.49318
1.4957
1.49758
1.49509
1.49489
1.49659
1.49676
1.499
1.50078
1.49854
1.49836
1.49988
1.50006
1.50214
1.50382
1.50173
1.50153
1.50292
1.50317
1.50514
1.50674
1.50475
1.50448
1.50574
1.50608
1.50796
1.50944
1.50756
1.5072
1.50838
1.50879
1.51059
1.51199
1.5102
1.50975
1.51088
1.51136
1.51306
1.51435
1.51266
1.51213
1.5132
1.51374
1.51532
1.51657
1.51499
1.5144
1.51541
1.51602
1.51743
1.51862
1.51716
1.51651
1.51748
1.51813
1.5194
1.52055
1.51921
1.51853
1.51944
1.52011
1.52128
1.52234
1.5211
1.5204
1.52126
1.52194
1.52302
1.52403
1.52289
1.52218
1.52299
1.52367
1.52465
1.52557
1.52453
1.52383
1.52459
1.52525
1.52613
1.52701
1.52608
1.52541
1.52612
1.52675
1.52754
1.52832
1.52749
1.52686
1.52752
1.52812
1.52881
1.52957
1.52883
1.52823
1.52885
1.52941
1.53004
1.53071
1.53005
1.52949
1.53007
1.53059
1.53114
1.53179
1.53121
1.53069
1.53122
1.53171
1.5322
1.53279
1.53227
1.53178
1.53228
1.53273
1.53317
1.53374
1.53327
1.53282
1.53328
1.5337
1.53409
1.53461
1.53419
1.53377
1.5342
1.53459
1.53494
1.53543
1.53506
1.53467
1.53507
1.53543
1.53574
1.5362
1.53586
1.5355
1.53586
1.5362
1.53648
1.53692
1.53661
1.53628
1.53662
1.53693
1.53719
1.53759
1.53731
1.537
1.53731
1.5376
1.53784
1.53823
1.53797
1.53767
1.53797
1.53825
1.53846
1.53882
1.53858
1.5383
1.53857
1.53883
1.53903
1.53938
1.53915
1.53889
1.53914
1.53939
1.53958
1.5399
1.53968
1.53943
1.53966
1.5399
1.54008
1.54039
1.54018
1.53994
1.54015
1.54038
1.54056
1.54084
1.54064
1.5404
1.5406
1.54083
1.54099
1.54128
1.54108
1.54084
1.54103
1.54125
1.54142
1.54168
1.54148
1.54125
1.54142
1.54164
1.5418
1.54206
1.54186
1.54163
1.54179
1.54201
1.54217
1.54241
1.54222
1.54199
1.54213
1.54235
1.54251
1.54275
1.54255
1.54233
1.54246
1.54268
1.54284
1.54306
1.54287
1.54264
1.54276
1.54298
1.54314
1.54336
1.54316
1.54294
1.54305
1.54328
1.54344
1.54363
1.54344
1.54322
1.54332
1.54354
1.5437
1.5439
1.54371
1.54348
1.54358
1.5438
1.54396
1.54414
1.54395
1.54373
1.54381
1.54404
1.5442
1.54438
1.54419
1.54396
1.54405
1.54427
1.54443
1.5446
1.54441
1.54419
1.54426
1.54448
1.54464
1.54481
1.54462
1.5444
1.54447
1.54469
1.54485
1.545
1.54481
1.5446
1.54466
1.54487
1.54503
1.54519
1.545
1.54479
1.54484
1.54506
1.54522
1.54537
1.54518
1.54496
1.54501
1.54523
1.54539
1.54554
1.54535
1.54513
1.54518
1.5454
1.54556
1.5457
1.54551
1.5453
1.54534
1.54555
1.54571
1.54585
1.54566
1.54545
1.54549
1.5457
1.54586
1.54599
1.5458
1.54559
1.54563
1.54584
1.546
1.54613
1.54594
1.54573
1.54576
1.54597
1.54613
1.54626
1.54606
1.54586
1.54589
1.5461
1.54626
1.54638
1.54619
1.54599
1.54601
1.54622
1.54638
1.5465
1.5463
1.5461
1.54612
1.54633
1.5465
1.54661
1.54642
1.54621
1.54624
1.54644
1.54661
1.54672
1.54652
1.54632
1.54634
1.54654
1.54671
1.54682
1.54662
1.54642
1.54644
1.54664
1.54681
1.54692
1.54672
1.54652
1.54653
1.54673
1.5469
1.547
1.54681
1.54661
1.54662
1.54683
1.54699
1.54709
1.54689
1.5467
1.5467
1.54691
1.54708
1.54717
1.54698
1.54678
1.54679
1.54699
1.54716
1.54725
1.54705
1.54686
1.54686
1.54706
1.54724
1.54733
1.54713
1.54693
1.54694
1.54714
1.54731
1.5474
1.5472
1.547
1.54701
1.54721
1.54738
1.54746
1.54727
1.54707
1.54708
1.54728
1.54745
1.54753
1.54733
1.54714
1.54714
1.54734
1.54751
1.54759
1.54739
1.5472
1.5472
1.5474
1.54758
1.54765
1.54745
1.54726
1.54725
1.54745
1.54763
1.5477
1.5475
1.54731
1.54731
1.54751
1.54769
1.54776
1.54755
1.54736
1.54736
1.54756
1.54774
1.54781
1.5476
1.54741
1.54741
1.5476
1.54779
1.54785
1.54765
1.54746
1.54745
1.54765
1.54783
1.54789
1.54769
1.5475
1.54749
1.54769
1.54787
1.54794
1.54773
1.54754
1.54752
1.54772
1.54791
1.54797
1.54776
1.54757
1.54756
1.54776
1.54794
1.548
1.54779
1.5476
1.54758
1.54778
1.54797
1.54802
1.54782
1.54763
1.54761
1.54781
1.548
1.54805
1.54784
1.54765
1.54763
1.54783
1.54802
1.54807
1.54786
1.54767
1.54765
1.54785
1.54804
1.54809
1.54788
1.54768
1.54766
1.54786
1.54805
1.5481
1.54789
1.5477
1.54768
1.54788
1.54807
1.54812
1.54791
1.54772
1.54769
1.54789
1.54808
1.54814
1.54792
1.54774
1.54771
1.54791
1.54811
1.54817
1.54795
1.54776
1.54773
1.54794
1.54814
1.54823
1.54801
1.54781
1.5478
1.54802
1.54822
1.54834
1.54812
1.54791
1.54793
1.54815
1.54836
1.54852
1.54827
1.54804
1.5481
1.54832
1.54858
1.54924
1.54879
1.54853
1.54942
1.54965
1.55011
1.55015
1.54981
1.54969
1.55065
1.55368
1.55468
1.55459
1.55761
1.56064
1.56127
1.56116
1.56339
1.56516
1.56664
1.56768
1.56866
1.56953
1.57026
1.57081
1.57119
1.57145
1.57162
1.57174
1.57181
1.57186
1.57189
1.57191
1.57191
1.57191
1.57189
1.57188
1.57186
1.57186
1.57184
1.57184
1.57194
1.57198
1.57203
1.5721
1.57217
1.57228
1.5724
1.57256
1.57274
1.57295
1.57318
1.57341
1.57362
1.57377
1.57385
1.5739
1.57398
1.57409
1.57422
1.57436
1.57451
1.57468
1.57486
1.57505
1.57527
1.57552
1.5758
1.57612
1.57648
1.5769
1.57738
1.57793
1.57855
1.57926
1.58006
1.58095
1.58196
1.58309
1.58435
1.58575
1.58729
1.58899
1.59085
1.59288
1.59508
1.59744
1.59997
1.60266
1.6055
1.60848
1.61159
1.6148
1.6181
1.62147
1.62488
1.62833
1.63178
1.63522
1.63863
1.64199
1.6453
1.64854
1.65169
1.65476
1.65773
1.6606
1.66337
1.66603
1.66859
1.67103
1.67338
1.67562
1.67775
1.67979
1.68173
1.68358
1.68533
1.687
1.68859
1.6901
1.69153
1.69289
1.69418
1.6954
1.69657
1.69767
1.69871
1.6997
1.70064
1.70153
1.70237
1.70316
1.70391
1.70463
1.7053
1.70594
1.70654
1.70711
1.70765
1.70816
1.70864
1.7091
1.70953
1.70994
1.71032
1.71068
1.71102
1.71134
1.71164
1.71192
1.71217
1.71241
1.71263
1.71283
1.71302
1.71319
1.71334
1.71348
1.71361
1.71371
1.7138
1.71391
1.71406
1.71417
1.7142
1.71417
1.71427
1.7145
1.71465
1.71475
1.71484
1.71493
1.71503
1.71514
1.71526
1.71539
1.71553
1.71568
1.71583
1.716
1.71618
1.71637
1.71657
1.71678
1.71699
1.71721
1.71744
1.71767
1.71791
1.71816
1.71841
1.71866
1.71891
1.71917
1.71942
1.71968
1.71993
1.72019
1.72045
1.7207
1.72095
1.7212
1.72145
1.72169
1.72193
1.72216
1.72239
1.72261
1.72282
1.72302
1.72322
1.72341
1.72359
1.72376
1.72392
1.72406
1.7242
1.72433
1.72445
1.72456
1.72467
1.72478
1.72487
1.72494
1.72499
1.72509
1.7252
1.72523
1.72524
1.72518
1.72514
1.72511
1.72509
1.72508
1.72507
1.72507
1.72508
1.7251
1.72512
1.72515
1.72518
1.72522
1.72526
1.7253
1.72536
1.72541
1.72547
1.72554
1.72561
1.72568
1.72576
1.72585
1.72594
1.72603
1.72614
1.72625
1.72636
1.72648
1.7266
1.72673
1.72686
1.727
1.72714
1.72729
1.72744
1.72759
1.72775
1.72791
1.72808
1.72825
1.72843
1.72862
1.72882
1.72902
1.72924
1.72946
1.72969
1.72993
1.73017
1.73043
1.73069
1.73096
1.73123
1.73151
1.73179
1.73208
1.73238
1.73269
1.733
1.73332
1.73366
1.734
1.73437
1.73474
1.73514
1.73554
1.73596
1.73637
1.73677
1.73703
1.7371
1.73699
1.73668
1.73655
1.73675
1.73677
1.73594
1.7355
1.73572
1.73556
1.73573
1.7355
1.73556
1.73537
1.7354
1.73531
1.73533
1.73526
1.73523
1.73515
1.7351
1.73504
1.735
1.73497
1.73496
1.73497
1.735
1.73503
1.73507
1.73512
1.73517
1.73525
1.73532
1.7354
1.73547
1.73556
1.73564
1.73573
1.73582
1.73592
1.73601
1.73613
1.73624
1.73637
1.73649
1.73663
1.73673
1.73686
1.73692
1.73696
1.7372
1.73715
1.73706
1.73712
1.73704
1.73698
1.73688
1.73691
1.73682
1.73678
1.73672
1.73689
1.73696
1.73705
1.73696
1.73688
1.73681
1.73675
1.7368
1.73688
1.7368
1.73673
1.73668
1.73663
1.73647
1.73655
1.73665
1.73666
1.73655
1.73654
1.73641
1.7364
1.73629
1.7363
1.73633
1.73613
1.73618
1.73615
1.73605
1.73608
1.73597
1.73593
1.73584
1.73588
1.73594
1.73576
1.73577
1.73573
1.73564
1.73568
1.73558
1.73554
1.73545
1.7355
1.7356
1.73543
1.73541
1.73536
1.73528
1.73533
1.73526
1.73521
1.73515
1.7352
1.7353
1.73522
1.73515
1.7351
1.73505
1.73511
1.73508
1.73502
1.735
1.73506
1.73518
1.73519
1.73506
1.73499
1.735
1.73507
1.73511
1.73503
1.73507
1.73515
1.73526
1.7353
1.73524
1.73512
1.73517
1.73526
1.73541
1.73527
1.7353
1.7353
1.73564
1.73596
1.73552
1.73541
1.73535
1.73509
1.73546
1.73541
1.7353
1.73492
1.73587
1.73654
1.73579
1.73552
1.73537
1.73517
1.73622
1.73568
1.73564
1.73601
1.73732
1.73762
1.73759
1.7362
1.73627
1.7373
1.73801
1.73729
1.73737
1.73747
1.73752
1.73725
1.73759
1.73731
1.73717
1.7372
1.73724
1.73719
1.7371
1.73699
1.73694
1.73658
1.73696
1.73703
1.73686
1.73668
1.73656
1.73662
1.73627
1.73614
1.73613
1.73556
1.73592
1.73591
1.73551
1.73547
1.73521
1.73514
1.73476
1.73476
1.73495
1.73433
1.73451
1.7344
1.73404
1.73409
1.73384
1.73371
1.73338
1.73345
1.73373
1.73314
1.73321
1.73306
1.73276
1.73284
1.73261
1.73246
1.73216
1.73226
1.73257
1.73202
1.73204
1.73188
1.7316
1.7317
1.73149
1.73132
1.73105
1.73116
1.73148
1.73096
1.73096
1.73078
1.73053
1.73064
1.73045
1.73027
1.73003
1.73015
1.73047
1.73
1.72997
1.7298
1.72957
1.72968
1.72952
1.72935
1.72913
1.72925
1.72956
1.72915
1.7291
1.72893
1.72874
1.72885
1.72871
1.72855
1.72837
1.72849
1.72878
1.72843
1.72836
1.7282
1.72803
1.72815
1.72803
1.72787
1.72771
1.72783
1.7281
1.72779
1.72771
1.72757
1.72741
1.72753
1.72742
1.72727
1.72713
1.72724
1.7275
1.72721
1.72714
1.727
1.72686
1.72697
1.72687
1.72673
1.7266
1.72671
1.72695
1.7267
1.72662
1.72649
1.72637
1.72647
1.72639
1.72627
1.72616
1.72626
1.72647
1.72627
1.72619
1.72607
1.72597
1.72606
1.726
1.72589
1.7258
1.72589
1.72608
1.72592
1.72584
1.72573
1.72565
1.72574
1.72569
1.72559
1.72552
1.7256
1.72577
1.72563
1.72556
1.72547
1.72541
1.72548
1.72545
1.72536
1.72531
1.72538
1.72552
1.72541
1.72535
1.72528
1.72524
1.7253
1.72527
1.72521
1.72518
1.72523
1.72533
1.72526
1.72521
1.72516
1.72514
1.72518
1.72518
1.72514
1.72513
1.72516
1.72521
1.72518
1.72516
1.72514
1.72515
1.72516
1.72518
1.72517
1.7252
1.72519
1.72515
1.72508
1.72518
1.72525
1.72532
1.72541
1.7255
1.72562
1.72574
1.72588
1.72603
1.7262
1.72638
1.72658
1.72681
1.72705
1.72731
1.72759
1.72788
1.72819
1.72851
1.72885
1.72921
1.7296
1.73002
1.73047
1.73094
1.73144
1.73196
1.73249
1.73303
1.73358
1.73414
1.7347
1.73527
1.7358
1.73629
1.73672
1.73711
1.73746
1.7377
1.73783
1.73775
1.73742
1.73684
1.73613
1.73585
1.73561
1.73547
1.73539
1.73538
1.73541
1.7355
1.73565
1.7358
1.73595
1.73611
1.73628
1.73619
1.73636
1.73652
1.73663
1.73667
1.73673
1.73668
1.73662
1.73656
1.73652
1.73658
1.73664
1.73665
1.73658
1.7365
1.73641
1.73625
1.73615
1.73635
1.73649
1.73657
1.73665
1.73667
1.73659
1.73648
1.73652
1.73663
1.73671
1.73678
1.73669
1.73655
1.73635
1.73612
1.73587
1.73593
1.73606
1.73589
1.73602
1.73588
1.73574
1.73561
1.73574
1.73559
1.73574
1.73568
1.73552
1.73542
1.73548
1.73542
1.73552
1.7356
1.7355
1.73545
1.73543
1.73545
1.73547
1.73549
1.73558
1.73545
1.7354
1.73546
1.7354
1.73563
1.73558
1.73564
1.73578
1.73596
1.7362
1.73645
1.73663
1.73677
1.73686
1.73693
1.73683
1.73669
1.73681
1.73693
1.73701
1.73705
1.73695
1.73681
1.7366
1.73637
1.73656
1.73668
1.73677
1.73688
1.73702
1.7371
1.73727
1.73716
1.7373
1.7372
1.73744
1.73727
1.73725
1.73725
1.73724
1.73728
1.73727
1.73705
1.73692
1.73722
1.73723
1.7373
1.73731
1.73721
1.73701
1.73695
1.7368
1.73672
1.73663
1.73656
1.73648
1.73636
1.73617
1.73604
1.73595
1.73593
1.73614
1.73618
1.73613
1.7362
1.73621
1.73631
1.73642
1.73648
1.73653
1.73655
1.73657
1.7366
1.73668
1.73672
1.73679
1.7368
1.73689
1.7371
1.73686
1.73681
1.73669
1.73655
1.73651
1.73658
1.73659
1.73656
1.7365
1.73646
1.73644
1.73644
1.73649
1.7364
1.73639
1.73634
1.7363
1.73635
1.73638
1.7364
1.73637
1.73638
1.73634
1.73632
1.73626
1.73628
1.73629
1.73638
1.73626
1.7363
1.73603
1.73625
1.73578
1.73605
1.7356
1.73584
1.73626
1.73585
1.73561
1.73551
1.73564
1.73588
1.73643
1.7359
1.73648
1.73703
1.73729
1.73689
1.73632
1.73676
1.73716
1.73725
1.73692
1.73719
1.73715
1.73684
1.73643
1.73707
1.73661
1.73723
1.73697
1.73667
1.73652
1.73671
1.7365
1.73648
1.73645
1.73639
1.73638
1.73633
1.73633
1.73631
1.73632
1.73634
1.73636
1.73631
1.73633
1.73636
1.7364
1.73641
1.73645
1.73651
1.73663
1.73663
1.73671
1.7369
1.73695
1.73677
1.73712
1.73702
1.73697
1.7373
1.73739
1.73724
1.73733
1.73752
1.73773
1.73761
1.73779
1.73766
1.73801
1.73752
1.73787
1.73787
1.73842
1.73834
1.73861
1.73837
1.73822
1.73802
1.73821
1.73796
1.73844
1.73861
1.7388
1.73864
1.73902
1.73882
1.73899
1.73873
1.73891
1.7388
1.73918
1.73916
1.73942
1.73922
1.73942
1.73981
1.73959
1.73943
1.73926
1.73902
1.73866
1.73809
1.73752
1.73729
1.73688
1.73632
1.7353
1.73662
1.73774
1.73664
1.7384
1.73923
1.73833
1.7393
1.73951
1.73965
1.73907
1.73954
1.73824
1.73778
1.73741
1.73849
1.73859
1.73574
1.73435
1.73561
1.735
1.73389
1.73514
1.73723
1.73931
1.7339
1.73069
1.7301
1.73212
1.73135
1.73159
1.72908
1.72736
1.72676
1.72544
1.72933
1.71415
1.72091
1.72168
1.72767
1.72733
1.73131
1.73261
1.73432
1.73537
1.73381
1.73357
1.73046
1.72644
1.72461
1.72259
1.71812
1.71307
1.70795
1.7006
1.68969
1.69147
1.70045
1.70401
1.69729
1.69262
1.6911
1.69677
1.69546
1.69948
1.69857
1.70152
1.70181
1.70171
1.70394
1.70405
1.70547
1.70593
1.70609
1.70709
1.70728
1.70829
1.70828
1.70911
1.70927
1.70952
1.70996
1.71016
1.7106
1.71064
1.71111
1.71113
1.71154
1.71168
1.71197
1.71215
1.71209
1.71217
1.7124
1.71239
1.71233
1.7124
1.71242
1.71243
1.71236
1.71241
1.71242
1.7124
1.7123
1.71228
1.71223
1.71218
1.71204
1.71197
1.71186
1.71177
1.7116
1.71145
1.7113
1.71117
1.71095
1.71077
1.71049
1.71042
1.7101
1.70999
1.71028
1.71061
1.71078
1.71114
1.71111
1.71136
1.71152
1.71179
1.71176
1.71193
1.71203
1.71228
1.71221
1.71235
1.71238
1.71261
1.71251
1.71261
1.71258
1.71281
1.71265
1.71271
1.71265
1.71283
1.71258
1.71265
1.71251
1.71265
1.71238
1.71221
1.71253
1.71262
1.71274
1.71297
1.71283
1.71287
1.71292
1.71295
1.71284
1.71283
1.71283
1.71286
1.71269
1.71259
1.71241
1.71238
1.71215
1.71197
1.7122
1.71192
1.71157
1.71124
1.7113
1.71083
1.7105
1.71092
1.71053
1.71033
1.70975
1.70955
1.70927
1.7091
1.70887
1.70864
1.70828
1.70794
1.70779
1.70749
1.70713
1.70677
1.70648
1.70601
1.70586
1.7063
1.70674
1.70699
1.70733
1.70754
1.70797
1.70824
1.70855
1.70868
1.70912
1.70933
1.70957
1.70963
1.71009
1.70949
1.709
1.70844
1.70789
1.7072
1.70667
1.70594
1.70607
1.70551
1.70497
1.7047
1.70427
1.70385
1.70344
1.703
1.70244
1.70211
1.70165
1.70138
1.70076
1.70013
1.69978
1.6993
1.69886
1.69836
1.69784
1.69726
1.69666
1.69599
1.69566
1.69625
1.69686
1.69732
1.69791
1.69842
1.69896
1.69945
1.69997
1.70039
1.70091
1.70133
1.7018
1.70222
1.70266
1.70314
1.70351
1.70393
1.70436
1.70479
1.70521
1.70542
1.70504
1.70496
1.70415
1.70344
1.7043
1.70351
1.70259
1.70178
1.70265
1.70176
1.70088
1.70005
1.69898
1.69805
1.69689
1.69598
1.69573
1.69492
1.69416
1.69354
1.69302
1.69223
1.69159
1.69094
1.69023
1.68981
1.69033
1.68963
1.68883
1.6881
1.6873
1.68655
1.68586
1.68514
1.68434
1.68348
1.68267
1.68181
1.68119
1.6799
1.67911
1.678
1.6771
1.67616
1.67523
1.67422
1.67337
1.6722
1.67112
1.67026
1.67131
1.67041
1.66891
1.66776
1.66654
1.66554
1.6641
1.66278
1.66156
1.65996
1.65898
1.65747
1.65647
1.65425
1.65266
1.65118
1.64969
1.64801
1.64659
1.64444
1.64255
1.6408
1.63907
1.63732
1.63571
1.63319
1.63086
1.62886
1.62668
1.62471
1.6225
1.6198
1.61657
1.61451
1.61128
1.61014
1.61286
1.61075
1.60664
1.60318
1.60015
1.59639
1.59448
1.59057
1.58549
1.58204
1.57735
1.57489
1.57096
1.56636
1.56159
1.55636
1.55082
1.54776
1.5428
1.53606
1.52831
1.52594
1.51827
1.50729
1.50198
1.49062
1.487
1.47586
1.47224
1.4552
1.43892
1.43977
1.41803
1.3999
1.40599
1.38214
1.36215
1.33982
1.36015
1.33953
1.33391
1.335
1.34287
1.37337
1.40401
1.42302
1.43484
1.44438
1.45243
1.45971
1.46547
1.47082
1.47509
1.47953
1.48289
1.48669
1.48929
1.49249
1.49446
1.49721
1.49874
1.50121
1.50243
1.50467
1.50561
1.50762
1.50835
1.5102
1.51078
1.51254
1.51299
1.51464
1.51498
1.51656
1.51679
1.51829
1.51846
1.51993
1.52006
1.52143
1.52153
1.52286
1.52292
1.52413
1.52418
1.52536
1.52545
1.5265
1.52662
1.52764
1.52778
1.52868
1.52884
1.5297
1.52989
1.53063
1.53086
1.53161
1.53183
1.53248
1.53271
1.53338
1.53359
1.53417
1.53439
1.53498
1.53519
1.5357
1.53591
1.53642
1.53662
1.53707
1.53727
1.53772
1.53792
1.53831
1.5385
1.5389
1.53908
1.53942
1.5396
1.53995
1.54012
1.54042
1.54058
1.54089
1.54104
1.54131
1.54145
1.54172
1.54186
1.54209
1.54222
1.54247
1.54259
1.5428
1.54291
1.54313
1.54324
1.54343
1.54353
1.54372
1.54382
1.54399
1.54408
1.54425
1.54434
1.54449
1.54457
1.54473
1.54481
1.54495
1.54502
1.54517
1.54523
1.54536
1.54542
1.54556
1.54561
1.54573
1.54578
1.54591
1.54596
1.54607
1.54611
1.54623
1.54627
1.54637
1.54641
1.54652
1.54656
1.54665
1.54668
1.54679
1.54681
1.5469
1.54692
1.54703
1.54705
1.54713
1.54715
1.54725
1.54726
1.54734
1.54735
1.54744
1.54745
1.54753
1.54753
1.54762
1.54763
1.5477
1.5477
1.54779
1.54779
1.54786
1.54785
1.54794
1.54793
1.548
1.54799
1.54807
1.54807
1.54813
1.54812
1.54819
1.54818
1.54825
1.54823
1.5483
1.54829
1.54835
1.54833
1.5484
1.54838
1.54844
1.54841
1.54848
1.54846
1.54851
1.54848
1.54854
1.54852
1.54857
1.54853
1.54859
1.54856
1.54861
1.54857
1.54863
1.5486
1.54865
1.54861
1.54868
1.54865
1.5487
1.54868
1.54878
1.54879
1.54892
1.54893
1.54925
1.5492
1.54985
1.55064
1.55379
1.55306
1.55447
1.5516
1.55191
1.55311
1.55092
1.55129
1.5524
1.55061
1.55104
1.55213
1.55044
1.55089
1.55193
1.55041
1.55088
1.55196
1.55036
1.55081
1.55183
1.55035
1.55082
1.55191
1.55031
1.55077
1.55176
1.55031
1.55078
1.55189
1.55026
1.55073
1.55172
1.55027
1.55074
1.55186
1.55022
1.55068
1.55168
1.55021
1.55068
1.55182
1.55015
1.55062
1.55162
1.55014
1.55061
1.55176
1.55007
1.55054
1.55155
1.55006
1.55053
1.55169
1.54998
1.55045
1.55148
1.54996
1.55043
1.55161
1.54987
1.55035
1.55139
1.54985
1.55032
1.55152
1.54976
1.55023
1.55129
1.54972
1.5502
1.55142
1.54963
1.55011
1.55119
1.54959
1.55007
1.55131
1.54949
1.54998
1.55108
1.54945
1.54993
1.5512
1.54934
1.54983
1.55095
1.54929
1.54978
1.55107
1.54918
1.54967
1.55082
1.54912
1.54962
1.55093
1.549
1.5495
1.55068
1.54893
1.54944
1.55078
1.5488
1.54931
1.55052
1.54872
1.54924
1.55062
1.54859
1.5491
1.55035
1.5485
1.54903
1.55045
1.54836
1.54888
1.55017
1.54826
1.5488
1.55026
1.5481
1.54864
1.54997
1.548
1.54855
1.55005
1.54783
1.54838
1.54976
1.54771
1.54828
1.54983
1.54754
1.5481
1.54954
1.54741
1.54799
1.54959
1.54723
1.5478
1.54929
1.54708
1.54768
1.54933
1.54689
1.54748
1.54902
1.54673
1.54735
1.54905
1.54653
1.54713
1.54873
1.54635
1.54699
1.54875
1.54613
1.54676
1.5484
1.54594
1.5466
1.54841
1.54571
1.54635
1.54804
1.5455
1.54618
1.54805
1.54525
1.54591
1.54765
1.54502
1.54573
1.54764
1.54475
1.54544
1.5472
1.5445
1.54524
1.54719
1.54421
1.54492
1.5467
1.54393
1.5447
1.54668
1.54361
1.54435
1.54614
1.5433
1.54411
1.54609
1.54295
1.54372
1.5455
1.54261
1.54345
1.54541
1.54222
1.54302
1.54477
1.54185
1.5427
1.54463
1.54142
1.54224
1.5439
1.54101
1.54189
1.54373
1.54051
1.54134
1.54291
1.54005
1.54095
1.54269
1.53947
1.54031
1.54177
1.53894
1.53984
1.54147
1.53827
1.53909
1.54044
1.53762
1.53851
1.54002