/*--------------------------------*- C++ -*----------------------------------*\
| =========                 |                                                 |
| \\      /  F ield         | OpenFOAM: The Open Source CFD Toolbox           |
|  \\    /   O peration     | Version:  v2006                                 |
|   \\  /    A nd           | Website:  www.openfoam.com                      |
|    \\/     M anipulation  |                                                 |
\*---------------------------------------------------------------------------*/
FoamFile
{
    version     2.0;
    format      ascii;
    class       volScalarField;
    location    "0.071";
    object      alphat;
}
// * * * * * * * * * * * * * * * * * * * * * * * * * * * * * * * * * * * * * //

dimensions      [1 -1 -1 0 0 0 0];


internalField   nonuniform List<scalar> 
16277
(
41.1577
29.3428
90.8496
20.9122
30.4243
16.0939
6.42251
2.61896
1.41278
0.954055
0.750414
0.647063
0.58523
0.540321
0.502508
0.468498
0.437566
0.409757
0.385097
0.363412
0.344363
0.327552
0.312596
0.29917
0.287018
0.275942
0.265793
0.256456
0.247838
0.239865
0.232471
0.225603
0.219216
0.213269
0.207728
0.202563
0.197748
0.19326
0.189079
0.185186
0.181566
0.178205
0.17509
0.172211
0.169557
0.167121
0.164896
0.162875
0.161054
0.15943
0.158
0.156764
0.155721
0.154872
0.154216
0.153761
0.15351
0.153469
0.153648
0.154049
0.154686
0.155571
0.156721
0.158154
0.159892
0.161961
0.16439
0.167219
0.170493
0.174273
0.178641
0.183702
0.189593
0.196472
0.204498
0.213779
0.22432
0.236043
0.249053
0.26449
0.286347
0.325965
0.412472
0.621726
1.15798
2.43435
4.29752
4.59549
2.72336
1.79892
0.885861
0.403957
0.219658
0.103639
0.0245576
0.00441851
0.0001464
0.000127054
0.00207673
0.0095644
0.00527016
0.00134567
0.00011128
9.96369e-05
0.00122688
0.00443177
0.00353617
0.00105454
9.2069e-05
8.61343e-05
0.00102197
0.00335343
0.00290156
0.000920533
8.10801e-05
7.7673e-05
0.000904697
0.00282632
0.00257243
0.000843075
7.43145e-05
7.24987e-05
0.000848155
0.00254625
0.00238183
0.000803044
7.02803e-05
6.90877e-05
0.000810252
0.00236724
0.00224242
0.000773927
6.7451e-05
6.66267e-05
0.000781081
0.0022359
0.00213273
0.000750271
6.5348e-05
6.47501e-05
0.00075722
0.0021307
0.00204133
0.000730108
6.37118e-05
6.32625e-05
0.000737033
0.00204219
0.00196266
0.00071241
6.23846e-05
6.20306e-05
0.000719365
0.00196542
0.00189328
0.000696437
6.12595e-05
6.09711e-05
0.000703311
0.0018973
0.00183097
0.00068171
6.02781e-05
6.00358e-05
0.000688499
0.0018359
0.00177439
0.000668008
5.93998e-05
5.91899e-05
0.000674727
0.00178
0.00172255
0.0006552
5.8597e-05
5.8411e-05
0.00066186
0.00172873
0.0016747
0.00064318
5.78518e-05
5.76841e-05
0.000649775
0.00168141
0.00163039
0.000631842
5.7152e-05
5.69984e-05
0.000638373
0.00163754
0.0015892
0.000621111
5.64884e-05
5.63459e-05
0.000627576
0.00159675
0.00155086
0.000610929
5.58544e-05
5.57208e-05
0.000617344
0.00155876
0.0015151
0.000601272
5.5245e-05
5.51191e-05
0.00060764
0.00152328
0.00148163
0.0005921
5.46568e-05
5.45375e-05
0.000598417
0.00149002
0.00145017
0.000583359
5.40868e-05
5.39733e-05
0.000589621
0.00145872
0.00142048
0.000575002
5.35322e-05
5.34236e-05
0.000581203
0.00142913
0.00139234
0.000566979
5.29903e-05
5.28857e-05
0.000573115
0.00140106
0.00136558
0.000559247
5.24586e-05
5.23572e-05
0.000565312
0.00137432
0.00134002
0.000551759
5.19346e-05
5.18356e-05
0.000557747
0.00134876
0.00131552
0.000544476
5.1416e-05
5.13188e-05
0.000550381
0.00132422
0.00129195
0.000537362
5.09007e-05
5.08045e-05
0.000543182
0.0013006
0.00126922
0.000530389
5.03865e-05
5.02907e-05
0.00053612
0.0012778
0.00124722
0.000523529
4.98715e-05
4.97755e-05
0.000529171
0.00125571
0.00122588
0.000516762
4.93539e-05
4.92572e-05
0.000522313
0.00123427
0.00120514
0.000510071
4.88321e-05
4.87343e-05
0.000515533
0.00121344
0.00118495
0.000503446
4.83047e-05
4.82055e-05
0.000508821
0.00119315
0.00116529
0.00049688
4.77702e-05
4.76694e-05
0.000502188
0.0011734
0.00114612
0.000490376
4.72275e-05
4.71252e-05
0.000495674
0.00115417
0.00112746
0.000483958
4.66762e-05
4.65724e-05
0.000489229
0.00113545
0.0011093
0.000477601
4.61154e-05
4.601e-05
0.000482865
0.00111723
0.00109163
0.000471327
4.55447e-05
4.5438e-05
0.000476608
0.00109955
0.0010745
0.000465163
4.4964e-05
4.48563e-05
0.000470488
0.00108244
0.00105795
0.000459147
4.43738e-05
4.42659e-05
0.000464547
0.00106596
0.00104208
0.000453326
4.37753e-05
4.36682e-05
0.000458847
0.00105037
0.00102705
0.000447772
4.31707e-05
4.30658e-05
0.000453467
0.0010358
0.00101299
0.000442569
4.2563e-05
4.24623e-05
0.000448492
0.00102226
0.00100004
0.00043781
4.19563e-05
4.18623e-05
0.000444028
0.00100999
0.000988431
0.000433608
4.13562e-05
4.1272e-05
0.000440203
0.000999274
0.000978479
0.000430106
4.07691e-05
4.06996e-05
0.000437166
0.00099042
0.000970514
0.000427484
4.02033e-05
4.01566e-05
0.000434985
0.000983772
0.000964924
0.000425862
3.96766e-05
3.96458e-05
0.00043349
0.000979578
0.000961826
0.000424852
3.92096e-05
3.91835e-05
0.000432716
0.000978328
0.000961699
0.000424685
3.88013e-05
3.87789e-05
0.000432784
0.000980043
0.000964501
0.000425427
3.84854e-05
3.84468e-05
0.000433666
0.000984534
0.000970123
0.000427056
3.82586e-05
3.82079e-05
0.000435243
0.000991421
0.000978031
0.000429158
3.80408e-05
3.80637e-05
0.00043721
0.00100051
0.000988105
0.000431379
3.7899e-05
3.79846e-05
0.000439146
0.00101146
0.000999859
0.000433632
3.78384e-05
3.8e-05
0.000440765
0.00102299
0.00101182
0.000435577
3.78788e-05
3.80931e-05
0.000442094
0.00103403
0.00102308
0.000436978
3.79965e-05
3.82518e-05
0.000443359
0.00104408
0.00103333
0.000438089
3.81807e-05
3.84722e-05
0.00044436
0.00105291
0.00104241
0.000439106
3.84256e-05
3.87461e-05
0.000445261
0.00106045
0.00105014
0.000439653
3.87201e-05
3.90579e-05
0.000445922
0.00106681
0.00105628
0.000439995
3.90509e-05
3.93971e-05
0.000446358
0.00107175
0.00106057
0.000440157
3.94064e-05
3.97518e-05
0.000446565
0.0010759
0.00106352
0.000440198
3.97744e-05
4.01107e-05
0.00044663
0.00107839
0.00106482
0.000439899
4.01438e-05
4.04639e-05
0.000446559
0.00107915
0.0010636
0.00043914
4.05046e-05
4.08021e-05
0.000445833
0.00107773
0.00106104
0.000438156
4.08451e-05
4.11132e-05
0.000444864
0.00107489
0.00105743
0.000437062
4.11554e-05
4.13908e-05
0.000443758
0.00107084
0.00105281
0.000435936
4.14297e-05
4.16307e-05
0.000442551
0.00106564
0.0010473
0.000434814
4.16645e-05
4.18313e-05
0.000441307
0.00105948
0.00104106
0.000433728
4.18587e-05
4.19932e-05
0.00044006
0.00105257
0.00103423
0.000432679
4.20137e-05
4.21189e-05
0.000438809
0.00104501
0.00102691
0.000431645
4.21323e-05
4.22063e-05
0.000437546
0.00103702
0.00101915
0.000430601
4.22166e-05
4.22663e-05
0.00043626
0.00102881
0.00101122
0.000429529
4.22737e-05
4.23033e-05
0.000434942
0.00102049
0.00100323
0.00042842
4.23074e-05
4.23248e-05
0.000433611
0.00101226
0.000995179
0.000427206
4.23196e-05
4.23303e-05
0.000432242
0.00100404
0.000987104
0.000425858
4.23071e-05
4.23158e-05
0.000430835
0.000995816
0.000979043
0.000424487
4.22819e-05
4.22893e-05
0.000429404
0.000987624
0.000970993
0.00042308
4.22457e-05
4.22507e-05
0.000427928
0.000979423
0.000962954
0.000421616
4.2198e-05
4.22021e-05
0.000426405
0.000971245
0.000954912
0.00042013
4.21484e-05
4.21481e-05
0.000424832
0.000963079
0.000946753
0.000418534
4.20869e-05
4.20883e-05
0.000423159
0.000954905
0.000938659
0.000416906
4.20187e-05
4.20172e-05
0.000421481
0.00094673
0.000930595
0.000415201
4.19443e-05
4.194e-05
0.000419711
0.000938592
0.000922591
0.000413397
4.18506e-05
4.18803e-05
0.00041795
0.000930637
0.000914039
0.000411587
4.17512e-05
4.18004e-05
0.00041576
0.000923111
0.000906806
0.000408593
4.15903e-05
4.18462e-05
0.000415915
0.000920463
0.000909291
0.000415395
4.17404e-05
4.24235e-05
0.000416102
0.000919446
0.000962921
0.000437575
4.27416e-05
4.55336e-05
0.000410357
0.00093616
0.00142965
0.000596449
5.13567e-05
5.54211e-05
0.00030929
0.000709989
0.00175148
0.00401378
0.00750352
0.0106976
0.0128832
0.016934
0.0195202
0.0218408
0.0231473
0.0237722
0.0235965
0.0225466
0.0210519
0.0186546
0.0163042
0.0127407
0.0111322
0.0081002
0.00606025
0.00411604
0.00233964
0.00107382
0.000391462
0.000162606
3.13907e-05
2.04749e-05
0.000150743
0.000355258
0.000334704
0.000143228
1.96961e-05
1.89151e-05
0.000138147
0.00031837
0.000318244
0.000136127
1.87209e-05
1.86044e-05
0.0001354
0.000314226
0.00031382
0.00013404
1.8422e-05
1.84092e-05
0.000133993
0.000313726
0.000314599
0.000134077
1.84319e-05
1.84364e-05
0.000134274
0.000315269
0.00031579
0.000134518
1.84677e-05
1.84804e-05
0.000134719
0.000316715
0.000317147
0.000134932
1.84961e-05
1.85279e-05
0.000135175
0.000318137
0.000318668
0.00013539
1.85174e-05
1.85489e-05
0.000135679
0.000319679
0.000320259
0.000135872
1.85615e-05
1.85962e-05
0.000136188
0.000321349
0.000321855
0.000136338
1.85976e-05
1.86065e-05
0.000136777
0.000323015
0.000323556
0.000136885
1.86475e-05
1.86589e-05
0.000137289
0.00032471
0.000325255
0.000137433
1.86734e-05
1.86781e-05
0.000137852
0.000326451
0.000327022
0.000138018
1.87236e-05
1.87319e-05
0.000138425
0.000328274
0.000328855
0.000138628
1.87516e-05
1.87581e-05
0.000139035
0.000330099
0.000330679
0.000139201
1.88025e-05
1.88104e-05
0.000139623
0.000331945
0.000332555
0.000139842
1.88309e-05
1.88386e-05
0.000140268
0.000333893
0.000334512
0.000140461
1.8885e-05
1.88943e-05
0.000140902
0.000335835
0.000336479
0.000141123
1.89127e-05
1.89224e-05
0.000141599
0.000337875
0.000338515
0.000141873
1.89593e-05
1.89927e-05
0.000142202
0.00033986
0.00034048
0.000142454
1.89974e-05
1.90089e-05
0.000142974
0.000341893
0.000342596
0.000143227
1.90441e-05
1.90815e-05
0.000143616
0.000344005
0.000344685
0.000143877
1.90866e-05
1.90992e-05
0.000144436
0.000346162
0.000346837
0.000144706
1.91328e-05
1.91731e-05
0.000145127
0.000348297
0.000348974
0.000145366
1.91795e-05
1.91922e-05
0.000145925
0.000350407
0.00035107
0.000146173
1.92253e-05
1.92611e-05
0.00014659
0.000352525
0.000353213
0.000146871
1.92689e-05
1.92823e-05
0.000147461
0.000354718
0.000355414
0.000147719
1.93176e-05
1.93583e-05
0.000148149
0.000356845
0.000357446
0.000148357
1.93613e-05
1.93709e-05
0.000148913
0.000358831
0.000359454
0.000149136
1.94026e-05
1.94426e-05
0.000149541
0.000360848
0.000361396
0.000149707
1.94446e-05
1.94527e-05
0.000150226
0.000362711
0.00036326
0.000150388
1.94819e-05
1.95158e-05
0.00015071
0.000364463
0.000364945
0.000150804
1.95152e-05
1.95211e-05
0.000151206
0.00036608
0.00036642
0.000151145
1.95561e-05
1.95556e-05
0.000151421
0.000367379
0.000367604
0.000151354
1.95604e-05
1.95535e-05
0.0001515
0.000368327
0.000368506
0.000151286
1.95838e-05
1.95728e-05
0.000151256
0.00036898
0.00036905
0.000150943
1.95723e-05
1.95532e-05
0.000150767
0.00036928
0.000369229
0.000150328
1.95579e-05
1.95618e-05
0.000149854
0.000369295
0.00036889
0.000149267
1.95349e-05
1.9504e-05
0.000148709
0.000368744
0.00036781
0.00014784
1.9499e-05
1.94909e-05
0.000146884
0.000367439
0.000366241
0.000145712
1.94498e-05
1.94099e-05
0.000144775
0.000365766
0.000364484
0.000143445
1.94143e-05
1.93932e-05
0.000142392
0.000364353
0.000362701
0.000140876
1.93794e-05
1.93496e-05
0.000139582
0.000362082
0.000360322
0.000138035
1.93602e-05
1.93896e-05
0.000136542
0.000359893
0.00035784
0.000134808
1.93808e-05
1.94228e-05
0.00013354
0.000357938
0.000356935
0.000132064
1.94896e-05
1.95886e-05
0.000131004
0.000357504
0.000356705
0.000129789
1.96875e-05
1.98555e-05
0.00012919
0.000359033
0.000361144
0.000127869
2.00498e-05
2.02317e-05
0.000126886
0.000364824
0.00037015
0.000128294
2.04301e-05
2.0634e-05
0.000128936
0.000374952
0.000377714
0.000128175
2.06866e-05
2.08356e-05
0.000125806
0.000383378
0.00038971
0.000132523
2.11309e-05
2.13364e-05
0.000128753
0.000395372
0.00040087
0.000132018
2.1692e-05
2.19562e-05
0.000133838
0.000411015
0.000414004
0.000136891
2.23302e-05
2.28357e-05
0.000143716
0.000426138
0.000427821
0.000147121
2.33358e-05
2.37525e-05
0.000152604
0.000437286
0.000439543
0.0001577
2.4594e-05
2.64027e-05
0.000182241
0.00045916
0.000457137
0.000193718
1.98614e-05
1.54012e-05
4.77547e-05
0.000127522
0.000357786
0.000110849
1.79599e-05
1.88536e-05
9.9334e-05
0.000328909
0.000346336
0.000103247
1.93231e-05
1.96113e-05
9.75577e-05
0.000331072
0.000356491
0.000105415
2.02582e-05
2.07996e-05
0.000103635
0.000351434
0.000386169
0.000117674
2.14655e-05
2.22133e-05
0.000116952
0.00037889
0.000415313
0.000136223
2.31e-05
2.43254e-05
0.000140048
0.000417848
0.000465732
0.000169009
2.68842e-05
2.06344e-05
0.000188841
0.000476863
0.000127183
4.52409e-05
1.67063e-05
1.95817e-05
0.000120455
0.000402093
0.000393546
0.000112624
2.1358e-05
2.27224e-05
0.000147679
0.000487727
0.000497329
0.000149155
2.36036e-05
2.50275e-05
0.00017453
0.000554313
0.000571285
0.000186843
2.67396e-05
3.00349e-05
0.000223361
0.000623295
0.000603241
0.000238951
2.32097e-05
1.73509e-05
5.36434e-05
0.000159751
0.000490598
0.00014484
2.08837e-05
2.26956e-05
0.000135188
0.000480808
0.000551266
0.00016601
2.41166e-05
2.57186e-05
0.000165481
0.000542495
0.000615361
0.000209936
2.96416e-05
2.38795e-05
0.000247425
0.000620406
0.000167814
5.5057e-05
1.7915e-05
2.18742e-05
0.00015208
0.000555338
0.000572541
0.000160158
2.46959e-05
2.87256e-05
0.000226643
0.000736999
0.000770355
0.000264449
3.34276e-05
2.75588e-05
0.000311295
0.000781077
0.000216562
6.51285e-05
1.89053e-05
2.39369e-05
0.000203743
0.000691166
0.000684856
0.000197286
2.78806e-05
3.50469e-05
0.000293206
0.000865287
0.000882998
0.000346428
2.92027e-05
1.99248e-05
7.4152e-05
0.000269299
0.000899121
0.00026467
2.79179e-05
3.53038e-05
0.000280338
0.000969136
0.00134577
0.000473288
4.82956e-05
4.02442e-05
0.000505139
0.00129501
0.000458416
0.000120221
2.63151e-05
4.69284e-05
0.000492013
0.00141584
0.00141508
0.000524352
4.37376e-05
2.93862e-05
0.000133138
0.000553838
0.00194916
0.000647171
6.49506e-05
6.40766e-05
0.000747085
0.00211754
0.000964372
0.000266389
4.07542e-05
6.49185e-05
0.000867524
0.00252798
0.00167003
0.000553878
4.32305e-05
8.02888e-05
0.000976836
0.00196993
0.00168946
0.000817171
6.60126e-05
6.67778e-05
0.000778179
0.00185147
0.00237178
0.000857634
7.64767e-05
0.000105518
0.00159901
0.00394657
0.000879024
0.000273242
5.99208e-05
6.13477e-05
0.000765994
0.00175552
0.0005426
0.000193896
4.27594e-05
4.63791e-05
0.000473022
0.00113758
0.000972144
0.000349865
4.6511e-05
2.63329e-05
9.16465e-05
0.00027799
0.000653249
0.000377317
3.07505e-05
2.8916e-05
0.000118094
0.000297735
0.000718644
0.000313599
3.29818e-05
3.52463e-05
0.000254026
0.000649091
0.000210939
7.91457e-05
2.33393e-05
2.77451e-05
0.00025048
0.00056379
0.000518346
0.00021028
3.12467e-05
2.18194e-05
6.83356e-05
0.000174012
0.000482228
0.000214271
2.53057e-05
2.92866e-05
0.00018701
0.000443497
0.000154168
6.43002e-05
2.12822e-05
2.39464e-05
0.000191741
0.000427203
0.000387334
0.000169059
2.81215e-05
2.08639e-05
5.92199e-05
0.000137816
0.000377094
0.000172353
2.26214e-05
2.70552e-05
0.000152028
0.000343557
0.000123969
5.59941e-05
2.04921e-05
2.19416e-05
0.00015964
0.000338091
0.0003052
0.000139945
2.61432e-05
2.0033e-05
5.25828e-05
0.000114161
0.000307517
0.000146877
2.09514e-05
2.56195e-05
0.000130233
0.000280556
0.00011022
5.20054e-05
2.01067e-05
2.10339e-05
0.000148895
0.000299742
0.000256887
0.000121048
2.64926e-05
2.20372e-05
9.5678e-05
0.000207069
7.98744e-05
3.80746e-05
1.85486e-05
1.77351e-05
9.95484e-05
0.000202878
0.000188927
9.10125e-05
2.23643e-05
1.77339e-05
3.68124e-05
7.78923e-05
0.000187402
9.56659e-05
1.70707e-05
2.22113e-05
8.89448e-05
0.000176021
7.42975e-05
3.77503e-05
1.83984e-05
1.71413e-05
9.04112e-05
0.000169838
0.000160744
8.50154e-05
2.17562e-05
1.75339e-05
3.50445e-05
7.00212e-05
0.000159534
8.63237e-05
1.65238e-05
2.15214e-05
8.18421e-05
0.000151414
6.85252e-05
3.47549e-05
1.74518e-05
1.62806e-05
8.03562e-05
0.000147163
0.000141236
7.86532e-05
2.13411e-05
1.79705e-05
3.38151e-05
6.31246e-05
0.000138767
7.86484e-05
1.62861e-05
2.10811e-05
7.39884e-05
0.000131052
5.99844e-05
3.26688e-05
1.75179e-05
1.56683e-05
7.21125e-05
0.000124172
0.000119234
6.85944e-05
2.04877e-05
1.73048e-05
2.96738e-05
5.35058e-05
0.000105554
8.22165e-05
1.5165e-05
1.91677e-05
3.78417e-05
6.14866e-05
0.000141947
8.02826e-05
1.70713e-05
2.15382e-05
7.47964e-05
0.000131673
6.43395e-05
3.70611e-05
1.77017e-05
1.6345e-05
7.97272e-05
0.000133064
0.000126147
7.40096e-05
2.15602e-05
1.7898e-05
3.68344e-05
6.25286e-05
0.000131559
7.8712e-05
1.62784e-05
2.12638e-05
7.28335e-05
0.000123536
6.10791e-05
3.69318e-05
1.76661e-05
1.61354e-05
7.45488e-05
0.000119172
0.000112667
6.74065e-05
2.14799e-05
1.78348e-05
3.62806e-05
5.74024e-05
0.000110379
6.9586e-05
1.57272e-05
2.07368e-05
6.40954e-05
0.000103083
5.10421e-05
3.30569e-05
1.74299e-05
1.4875e-05
7.11183e-05
9.0777e-05
5.5046e-05
3.82202e-05
1.90803e-05
1.68056e-05
6.63676e-05
0.000108264
9.88951e-05
6.05312e-05
2.13328e-05
1.74048e-05
3.652e-05
5.32022e-05
9.93708e-05
6.49191e-05
1.56209e-05
2.07053e-05
5.99742e-05
9.01321e-05
4.84697e-05
3.47732e-05
1.75046e-05
1.47576e-05
6.49863e-05
8.22529e-05
5.19824e-05
3.81026e-05
1.9247e-05
1.672e-05
6.418e-05
9.99232e-05
9.04589e-05
5.83874e-05
2.11664e-05
1.73845e-05
3.70085e-05
5.06991e-05
9.41551e-05
6.27854e-05
1.55578e-05
2.06761e-05
5.71405e-05
8.52489e-05
4.6602e-05
3.48899e-05
1.74427e-05
1.47077e-05
6.08615e-05
7.54998e-05
4.8879e-05
3.75307e-05
1.92663e-05
1.65128e-05
5.98882e-05
9.22331e-05
8.29538e-05
5.49239e-05
2.10415e-05
1.73282e-05
3.68577e-05
4.71539e-05
8.4497e-05
5.76377e-05
1.55169e-05
2.05802e-05
5.27319e-05
7.66893e-05
4.31511e-05
3.39535e-05
1.67096e-05
1.44225e-05
5.40878e-05
6.77948e-05
4.51624e-05
3.59411e-05
1.924e-05
1.63046e-05
5.59999e-05
8.27167e-05
7.40866e-05
5.10203e-05
2.09762e-05
1.71785e-05
3.51516e-05
4.25744e-05
6.61329e-05
5.55271e-05
1.42731e-05
1.89119e-05
3.71806e-05
4.46774e-05
8.1269e-05
5.35259e-05
1.60078e-05
2.09838e-05
4.95006e-05
7.26787e-05
4.24714e-05
3.56564e-05
1.70593e-05
1.4433e-05
5.34641e-05
6.54229e-05
4.49328e-05
3.77231e-05
1.91631e-05
1.59589e-05
5.46089e-05
8.02396e-05
7.19747e-05
5.00218e-05
2.08278e-05
1.68517e-05
3.58682e-05
4.21542e-05
6.48985e-05
5.40746e-05
1.41296e-05
1.91883e-05
3.77628e-05
4.45957e-05
7.93266e-05
5.36552e-05
1.62051e-05
2.11267e-05
4.97767e-05
7.11926e-05
4.23808e-05
3.69465e-05
1.75015e-05
1.45667e-05
5.46757e-05
6.35447e-05
4.42078e-05
3.89063e-05
1.91344e-05
1.60817e-05
5.22767e-05
7.75622e-05
6.9027e-05
4.82842e-05
2.08175e-05
1.67874e-05
3.62231e-05
4.11648e-05
6.16538e-05
5.2408e-05
1.43036e-05
1.89938e-05
3.92985e-05
4.42074e-05
6.69546e-05
5.15625e-05
1.5231e-05
1.96905e-05
4.00207e-05
4.6393e-05
7.90467e-05
5.28697e-05
1.65009e-05
2.09561e-05
4.92493e-05
7.06166e-05
4.26863e-05
3.77539e-05
1.70941e-05
1.42474e-05
5.42638e-05
6.31024e-05
4.45441e-05
4.02452e-05
1.92794e-05
1.61701e-05
5.223e-05
7.63544e-05
6.83384e-05
4.86627e-05
2.10207e-05
1.68528e-05
3.7239e-05
4.14803e-05
6.08666e-05
5.21638e-05
1.45317e-05
1.92777e-05
4.00492e-05
4.4392e-05
6.58781e-05
5.11315e-05
1.55817e-05
1.96419e-05
4.11366e-05
4.63946e-05
7.77495e-05
5.25312e-05
1.62541e-05
2.10195e-05
4.92044e-05
6.94939e-05
4.27725e-05
3.90093e-05
1.75309e-05
1.44042e-05
5.50719e-05
6.16805e-05
4.57208e-05
4.24275e-05
1.92062e-05
1.54262e-05
5.24922e-05
6.73959e-05
4.78102e-05
4.32129e-05
1.97913e-05
1.65215e-05
5.2705e-05
7.89608e-05
7.0358e-05
4.96085e-05
2.13906e-05
1.72104e-05
3.98848e-05
4.35946e-05
6.27843e-05
5.55236e-05
1.43662e-05
1.93198e-05
4.28571e-05
4.65463e-05
6.76735e-05
5.33306e-05
1.55198e-05
1.98455e-05
4.36887e-05
4.82898e-05
7.93684e-05
5.37303e-05
1.65403e-05
2.1287e-05
5.07555e-05
7.10125e-05
4.46857e-05
4.14572e-05
1.76804e-05
1.4704e-05
5.68324e-05
6.36787e-05
4.7669e-05
4.44922e-05
1.95332e-05
1.58233e-05
5.45362e-05
6.89056e-05
4.94962e-05
4.50554e-05
1.98786e-05
1.64591e-05
5.39774e-05
7.9977e-05
7.12846e-05
5.08557e-05
2.1142e-05
1.78199e-05
4.11445e-05
4.45695e-05
6.22556e-05
5.7116e-05
1.47393e-05
1.94428e-05
4.40681e-05
4.67775e-05
6.69294e-05
5.3276e-05
1.57048e-05
1.99916e-05
4.469e-05
4.84343e-05
7.7251e-05
5.27877e-05
1.65856e-05
2.14256e-05
5.00715e-05
6.89912e-05
4.42315e-05
4.17629e-05
1.81049e-05
1.48571e-05
5.6768e-05
6.19348e-05
4.69271e-05
4.43415e-05
1.93256e-05
1.53374e-05
5.25627e-05
6.63781e-05
4.94007e-05
4.50689e-05
1.96189e-05
1.56348e-05
5.39186e-05
6.91811e-05
5.09445e-05
4.78584e-05
1.99669e-05
1.66492e-05
5.51967e-05
7.93734e-05
7.08656e-05
5.22637e-05
2.12903e-05
1.71216e-05
4.27156e-05
4.5451e-05
6.38929e-05
5.7329e-05
1.46589e-05
1.96683e-05
4.5327e-05
4.85364e-05
6.71053e-05
5.39244e-05
1.58494e-05
1.9941e-05
4.59308e-05
5.03723e-05
6.94153e-05
5.45732e-05
1.57874e-05
1.99921e-05
4.86157e-05
5.1428e-05
7.95423e-05
5.54896e-05
1.66029e-05
2.13417e-05
5.2844e-05
7.13072e-05
4.67384e-05
4.46279e-05
1.80376e-05
1.48004e-05
5.95495e-05
6.39628e-05
4.91823e-05
4.68924e-05
1.96471e-05
1.57833e-05
5.41673e-05
6.83402e-05
5.15602e-05
4.75733e-05
2.00241e-05
1.60001e-05
5.61182e-05
7.08777e-05
5.30896e-05
5.04193e-05
2.02857e-05
1.69107e-05
5.72042e-05
8.08823e-05
7.2446e-05
5.43813e-05
2.15728e-05
1.80514e-05
4.5591e-05
4.80567e-05
6.50239e-05
6.0629e-05
1.48797e-05
1.97197e-05
4.77632e-05
5.02644e-05
6.83702e-05
5.48187e-05
1.5709e-05
2.00167e-05
4.77831e-05
5.18132e-05
7.02967e-05
5.5787e-05
1.59174e-05
2.0372e-05
5.05258e-05
5.31304e-05
7.95388e-05
5.65867e-05
1.68643e-05
2.16282e-05
5.43086e-05
7.19258e-05
4.80276e-05
4.56326e-05
1.74615e-05
1.50524e-05
5.87279e-05
6.46916e-05
5.10152e-05
4.8562e-05
2.01107e-05
1.59408e-05
5.67073e-05
6.92057e-05
5.30431e-05
4.89417e-05
2.00742e-05
1.58097e-05
5.59951e-05
7.08021e-05
5.42214e-05
5.03466e-05
2.00423e-05
1.60588e-05
5.86731e-05
7.24973e-05
5.50574e-05
5.30334e-05
2.02666e-05
1.68602e-05
5.90091e-05
8.17979e-05
7.40125e-05
5.64817e-05
2.15962e-05
1.83126e-05
4.7379e-05
5.01792e-05
6.5556e-05
6.19984e-05
1.50008e-05
1.99463e-05
4.94579e-05
5.19232e-05
6.84647e-05
5.55699e-05
1.59874e-05
2.02723e-05
4.97123e-05
5.31821e-05
7.01825e-05
5.60815e-05
1.5932e-05
2.01862e-05
5.12657e-05
5.46235e-05
7.28645e-05
5.91552e-05
1.61716e-05
2.04324e-05
5.44259e-05
5.59679e-05
8.27312e-05
6.01997e-05
1.69626e-05
2.18235e-05
5.77478e-05
7.50049e-05
5.18646e-05
4.99636e-05
1.83186e-05
1.50559e-05
6.41007e-05
6.75965e-05
5.39094e-05
5.17653e-05
1.99517e-05
1.57919e-05
5.85017e-05
7.18791e-05
5.58433e-05
5.19678e-05
2.02335e-05
1.61006e-05
5.9293e-05
7.36512e-05
5.72986e-05
5.36582e-05
2.02666e-05
1.61633e-05
6.20265e-05
7.59167e-05
5.84771e-05
5.65789e-05
2.05069e-05
1.7168e-05
6.22986e-05
8.50079e-05
7.7251e-05
5.95984e-05
2.18503e-05
1.85198e-05
5.12032e-05
5.37252e-05
6.85982e-05
6.46825e-05
1.53889e-05
2.01701e-05
5.28219e-05
5.54369e-05
7.18535e-05
5.90631e-05
1.61322e-05
2.0544e-05
5.27674e-05
5.69005e-05
7.30641e-05
5.88422e-05
1.62564e-05
2.0544e-05
5.43235e-05
5.78656e-05
7.55593e-05
6.1802e-05
1.64929e-05
2.07414e-05
5.78773e-05
5.90136e-05
8.48969e-05
6.33622e-05
1.71885e-05
2.21177e-05
6.09953e-05
7.7735e-05
5.49449e-05
5.30088e-05
1.85588e-05
1.5361e-05
6.662e-05
7.00989e-05
5.69449e-05
5.45166e-05
2.02727e-05
1.61485e-05
6.0746e-05
7.38108e-05
5.88356e-05
5.47886e-05
2.05953e-05
1.63335e-05
6.12867e-05
7.56526e-05
6.0191e-05
5.62532e-05
2.05125e-05
1.64548e-05
6.40706e-05
7.77208e-05
6.10128e-05
5.928e-05
2.07041e-05
1.72064e-05
6.45458e-05
8.64972e-05
7.91864e-05
6.21805e-05
2.22075e-05
1.88479e-05
5.39392e-05
5.62347e-05
6.98625e-05
6.71505e-05
1.55241e-05
2.03716e-05
5.52525e-05
5.76853e-05
7.23144e-05
6.0166e-05
1.61987e-05
2.07176e-05
5.53745e-05
5.88409e-05
7.38257e-05
6.07118e-05
1.64124e-05
2.06101e-05
5.65898e-05
5.99299e-05
7.60781e-05
6.27758e-05
1.64261e-05
2.05778e-05
5.88236e-05
6.17892e-05
7.90373e-05
6.65126e-05
1.64462e-05
2.07663e-05
6.18035e-05
6.27148e-05
8.87754e-05
6.67258e-05
1.72889e-05
2.24293e-05
6.46264e-05
8.17536e-05
5.86616e-05
5.67079e-05
1.85002e-05
1.54368e-05
7.04005e-05
7.39081e-05
6.13105e-05
5.92254e-05
2.0663e-05
1.64835e-05
6.56823e-05
7.78052e-05
6.3191e-05
5.93298e-05
2.08321e-05
1.65116e-05
6.59455e-05
8.00906e-05
6.47902e-05
6.10483e-05
2.06727e-05
1.653e-05
6.91939e-05
8.29017e-05
6.6085e-05
6.41531e-05
2.09033e-05
1.74897e-05
6.93929e-05
9.18825e-05
8.42448e-05
6.7094e-05
2.2656e-05
1.89127e-05
5.90424e-05
6.1026e-05
7.56665e-05
7.27209e-05
1.56777e-05
2.07531e-05
6.06975e-05
6.33938e-05
7.81761e-05
6.65518e-05
1.65979e-05
2.09577e-05
6.03386e-05
6.44213e-05
7.91869e-05
6.61895e-05
1.6743e-05
2.08586e-05
6.18101e-05
6.53057e-05
8.12799e-05
6.84842e-05
1.66671e-05
2.11361e-05
6.49519e-05
6.60737e-05
9.04072e-05
6.93514e-05
1.76028e-05
2.30243e-05
6.76505e-05
8.35067e-05
6.17394e-05
6.01997e-05
1.88504e-05
1.56177e-05
7.32985e-05
7.59308e-05
6.44734e-05
6.28086e-05
2.1002e-05
1.67828e-05
6.88834e-05
7.96046e-05
6.63106e-05
6.28045e-05
2.11037e-05
1.67e-05
6.84643e-05
8.15125e-05
6.75031e-05
6.43809e-05
2.09821e-05
1.68553e-05
7.11154e-05
8.42623e-05
6.88974e-05
6.78801e-05
2.14163e-05
1.78169e-05
7.20712e-05
9.33771e-05
8.59698e-05
7.02731e-05
2.31659e-05
1.923e-05
6.29848e-05
6.431e-05
7.83514e-05
7.65327e-05
1.58832e-05
2.0979e-05
6.43549e-05
6.66989e-05
8.07497e-05
6.97566e-05
1.67696e-05
2.13069e-05
6.43124e-05
6.79093e-05
8.19218e-05
6.98256e-05
1.68767e-05
2.13606e-05
6.61643e-05
6.89794e-05
8.41621e-05
7.19216e-05
1.70091e-05
2.18451e-05
6.97767e-05
6.9925e-05
9.34745e-05
7.32556e-05
1.83039e-05
2.38603e-05
7.20082e-05
8.67307e-05
6.64582e-05
6.60962e-05
1.96909e-05
1.63838e-05
7.84743e-05
8.04061e-05
6.91314e-05
6.78885e-05
2.13781e-05
1.70359e-05
7.41649e-05
8.42014e-05
7.1081e-05
6.82083e-05
2.16711e-05
1.704e-05
7.4183e-05
8.6569e-05
7.19282e-05
7.09092e-05
2.20089e-05
1.84884e-05
7.40604e-05
9.48375e-05
8.76645e-05
7.28903e-05
2.4294e-05
2.0192e-05
6.70743e-05
6.76072e-05
7.9857e-05
7.88124e-05
1.66534e-05
2.16931e-05
6.82502e-05
6.96573e-05
8.25845e-05
7.32935e-05
1.73089e-05
2.20781e-05
6.85264e-05
7.10116e-05
8.44893e-05
7.3057e-05
1.74272e-05
2.25046e-05
7.19634e-05
7.16788e-05
9.27415e-05
7.3924e-05
1.86335e-05
2.45143e-05
7.3239e-05
8.64305e-05
6.80407e-05
6.78269e-05
1.98776e-05
1.64404e-05
7.93736e-05
7.99001e-05
7.08022e-05
7.03403e-05
2.19977e-05
1.73463e-05
7.49481e-05
8.42997e-05
7.28937e-05
7.10907e-05
2.23968e-05
1.77719e-05
7.51848e-05
8.68055e-05
7.41134e-05
7.40882e-05
2.28537e-05
1.89298e-05
7.60955e-05
9.46295e-05
8.81689e-05
7.55679e-05
2.51252e-05
2.07458e-05
7.05453e-05
7.06142e-05
8.11709e-05
8.14312e-05
1.69299e-05
2.23195e-05
7.18e-05
7.22107e-05
8.40089e-05
7.55647e-05
1.77023e-05
2.27077e-05
7.23213e-05
7.37783e-05
8.64078e-05
7.55854e-05
1.79434e-05
2.33074e-05
7.62525e-05
7.4735e-05
9.49808e-05
7.71169e-05
1.93887e-05
2.55324e-05
7.68211e-05
8.89703e-05
7.22828e-05
7.35524e-05
2.09782e-05
1.71835e-05
8.40353e-05
8.37934e-05
7.48646e-05
7.56306e-05
2.29136e-05
1.81754e-05
7.93179e-05
8.80702e-05
7.73766e-05
7.63795e-05
2.34512e-05
1.8679e-05
7.94874e-05
9.11466e-05
7.90748e-05
8.0549e-05
2.41902e-05
2.00849e-05
8.14069e-05
9.9612e-05
9.33456e-05
8.12381e-05
2.65355e-05
2.17186e-05
7.70358e-05
7.65089e-05
8.72297e-05
8.79475e-05
1.77603e-05
2.34582e-05
7.91009e-05
7.85457e-05
9.11562e-05
8.24202e-05
1.86853e-05
2.46376e-05
8.17246e-05
8.0266e-05
9.94058e-05
8.17727e-05
2.05124e-05
2.69449e-05
8.11732e-05
9.34985e-05
7.71255e-05
7.90439e-05
2.24008e-05
1.81863e-05
8.87116e-05
8.81671e-05
7.99122e-05
8.13273e-05
2.41727e-05
1.91923e-05
8.42138e-05
9.25202e-05
8.25255e-05
8.2558e-05
2.48628e-05
1.98121e-05
8.44883e-05
9.6395e-05
8.48967e-05
8.74799e-05
2.57558e-05
2.13966e-05
8.77677e-05
0.000105788
9.92556e-05
8.78964e-05
2.82454e-05
2.30422e-05
8.46851e-05
8.31299e-05
9.39088e-05
9.54367e-05
1.86989e-05
2.50982e-05
8.72351e-05
8.6163e-05
9.92461e-05
8.99614e-05
2.00914e-05
2.63874e-05
9.04347e-05
8.81299e-05
0.000108441
9.00009e-05
2.15751e-05
2.88155e-05
9.02349e-05
0.000102475
8.65398e-05
8.87776e-05
2.42716e-05
1.99518e-05
9.78505e-05
9.72876e-05
8.94307e-05
9.1915e-05
2.65099e-05
2.12433e-05
9.37869e-05
0.000103211
9.22543e-05
9.55871e-05
2.78802e-05
2.32508e-05
9.44308e-05
0.000112973
0.000106697
9.49106e-05
3.07268e-05
2.51028e-05
9.29163e-05
9.06818e-05
0.000101899
0.000102518
2.03487e-05
2.76949e-05
9.75786e-05
9.34358e-05
0.000112387
9.57261e-05
2.30971e-05
3.08319e-05
9.56297e-05
0.000106947
9.09358e-05
9.22136e-05
2.50687e-05
2.00106e-05
0.000103262
0.000101297
9.35624e-05
9.51885e-05
2.72473e-05
2.18528e-05
9.62709e-05
0.000105781
9.56518e-05
9.90138e-05
2.90099e-05
2.4172e-05
9.68385e-05
0.000114782
0.000109217
9.81326e-05
3.21198e-05
2.63559e-05
9.73604e-05
9.47638e-05
0.000104702
0.000105319
2.1662e-05
2.92689e-05
0.000102702
9.72444e-05
0.000114566
9.93856e-05
2.4525e-05
3.2712e-05
9.96153e-05
0.000109482
9.59802e-05
9.89e-05
2.69495e-05
2.18071e-05
0.000106768
0.00010534
9.7833e-05
0.000103485
2.93394e-05
2.39313e-05
9.93781e-05
0.000114931
0.000110017
0.000100177
3.26256e-05
2.72536e-05
9.90848e-05
9.65117e-05
0.000105546
0.000106115
2.23503e-05
3.04488e-05
0.000105252
9.92795e-05
0.000115092
0.000100887
2.5283e-05
3.4051e-05
0.00010172
0.000110411
9.85251e-05
0.000102417
2.80743e-05
2.27681e-05
0.00010868
0.000107087
0.000100809
0.000107519
3.07536e-05
2.53678e-05
0.000102424
0.000116686
0.000111975
0.000103005
3.41194e-05
2.80012e-05
0.000103041
9.97026e-05
0.000108174
0.00011141
2.18685e-05
3.05272e-05
0.000108449
0.000101951
0.000117406
0.000102554
2.57887e-05
3.51283e-05
0.000103597
0.000112816
0.000101909
0.000107092
2.92654e-05
2.38946e-05
0.000111312
0.000109885
0.000105282
0.000113929
3.25215e-05
2.7125e-05
0.000108151
0.000121775
0.000117192
0.000109415
3.63324e-05
2.99992e-05
0.000111932
0.000106537
0.000114971
0.000116663
2.433e-05
3.30846e-05
0.000118731
0.000109514
0.000126881
0.000112958
2.72237e-05
3.61499e-05
0.000112583
0.000122142
0.000110622
0.000120006
3.14446e-05
2.72078e-05
0.000119652
0.000125065
0.000121059
0.000119138
3.77467e-05
3.18663e-05
0.000118415
0.000112352
0.000121349
0.000122323
2.61286e-05
3.54219e-05
0.000125143
0.000116494
0.000132773
0.000118166
2.95941e-05
3.94727e-05
0.00011992
0.000127999
0.000117682
0.000127933
3.32649e-05
2.82667e-05
0.000127046
0.000132172