/*--------------------------------*- C++ -*----------------------------------*\
| =========                 |                                                 |
| \\      /  F ield         | OpenFOAM: The Open Source CFD Toolbox           |
|  \\    /   O peration     | Version:  v2006                                 |
|   \\  /    A nd           | Website:  www.openfoam.com                      |
|    \\/     M anipulation  |                                                 |
\*---------------------------------------------------------------------------*/
FoamFile
{
    version     2.0;
    format      ascii;
    class       surfaceScalarField;
    location    "0.01";
    object      phi;
}
// * * * * * * * * * * * * * * * * * * * * * * * * * * * * * * * * * * * * * //

dimensions      [1 0 -1 0 0 0 0];
oriented        oriented;


internalField   nonuniform List<scalar> 
25161
(
-3.25668e-05
-0.00183624
0.00180937
5.94088e-05
-0.00171229
0.00167969
1.31269e-05
0.000107299
-1.92519e-05
0.0019509
2.91299e-05
0.00214583
-7.34121e-05
0.00214321
-1.5868e-05
0.00218927
-3.38526e-05
0.00214198
-4.05701e-06
0.00213476
-6.20113e-06
0.00210729
-1.82585e-07
0.00209668
-1.65975e-06
0.00208595
-1.1441e-06
0.00208023
-1.45194e-06
0.00207533
-1.54811e-06
0.0020708
-1.64263e-06
0.00206629
-1.73655e-06
0.00206157
-1.82915e-06
0.00205662
-1.91966e-06
0.00205144
-2.00841e-06
0.00204603
-2.09546e-06
0.00204039
-2.18079e-06
0.00203452
-2.26422e-06
0.00202843
-2.34546e-06
0.00202212
-2.4241e-06
0.0020156
-2.49972e-06
0.00200888
-2.57188e-06
0.00200196
-2.6401e-06
0.00199485
-2.70393e-06
0.00198757
-2.7629e-06
0.00198012
-2.81655e-06
0.00197253
-2.86436e-06
0.0019648
-2.90588e-06
0.00195695
-2.94068e-06
0.001949
-2.96835e-06
0.00194097
-2.98855e-06
0.00193286
-3.00097e-06
0.00192471
-3.00532e-06
0.00191653
-3.00137e-06
0.00190834
-2.98893e-06
0.00190017
-2.96789e-06
0.00189202
-2.93851e-06
0.00188393
-2.89821e-06
0.00187592
-2.85046e-06
0.00186801
-2.79333e-06
0.00186021
-2.72694e-06
0.00185256
-2.65104e-06
0.00184507
-2.56532e-06
0.00183776
-2.46965e-06
0.00183066
-2.36401e-06
0.00182379
-2.24833e-06
0.00181716
-2.12151e-06
0.00181079
-1.97964e-06
0.00180376
-1.81291e-06
0.00179603
-4.29052e-06
0.00178665
-6.69247e-06
0.00177293
-1.70374e-05
0.00175066
-3.09015e-05
0.00172229
-6.70221e-05
0.00168154
-0.000125426
0.00164885
-0.000277966
0.00164556
-0.000546765
0.00166993
-0.000262758
0.00101702
-0.000152702
0.00103118
-8.34981e-05
0.00100589
-8.52774e-05
0.000875363
-2.62207e-05
0.000785962
-1.59531e-05
0.00028368
-8.54287e-06
0.000235182
0.000191172
1.20417e-05
0.000179133
2.38743e-05
0.000223353
0.000269073
3.84862e-05
-1.61924e-05
0.000260257
2.50138e-05
-8.01121e-06
0.000215177
0.000171126
4.76172e-06
0.000166371
8.63036e-06
0.000211315
0.000256834
1.20614e-05
-4.25861e-06
0.000255863
5.23997e-06
-2.84603e-06
0.000209911
0.000163531
2.77678e-06
0.000160763
3.40887e-06
0.000209289
0.000254791
4.49353e-06
-2.43437e-06
0.000253614
3.62505e-06
-1.75594e-06
0.000208623
0.000159017
1.62843e-06
0.0001574
2.35804e-06
0.000207906
0.000253246
2.7423e-06
-2.2604e-06
0.000252811
2.71196e-06
-1.49958e-06
0.000207159
0.000155912
1.40163e-06
0.000154523
3.04497e-06
0.000205531
0.000253201
2.6736e-06
-1.24208e-06
0.000251806
2.65547e-06
-1.30976e-06
0.000205615
0.000153226
1.24416e-06
0.000151996
2.89943e-06
0.000203976
0.000252112
2.61418e-06
-1.12794e-06
0.000250654
2.60587e-06
-1.17675e-06
0.000204042
0.000150832
1.1332e-06
0.000149713
2.79249e-06
0.0002024
0.000250896
2.57111e-06
-1.05081e-06
0.000249392
2.5771e-06
-1.08405e-06
0.00020245
0.000148643
1.05735e-06
0.0001476
2.71997e-06
0.000200806
0.000249582
2.55141e-06
-1.00271e-06
0.000248039
2.56797e-06
-1.02032e-06
0.000200841
0.000146593
1.00451e-06
0.000145603
2.67067e-06
0.000199193
0.000248183
2.54781e-06
-9.75839e-07
0.000246606
2.57439e-06
-9.76889e-07
0.000199211
0.00014464
9.67175e-07
0.000143687
2.64028e-06
0.000197555
0.000246705
2.56332e-06
-9.67963e-07
0.000245096
2.59841e-06
-9.48919e-07
0.000197554
0.000142753
9.42678e-07
0.000141825
2.6274e-06
0.000195887
0.000245145
2.59994e-06
-9.70869e-07
0.000243499
2.63766e-06
-9.26525e-07
0.00019586
0.000140913
9.26516e-07
0.000140002
2.62013e-06
0.000194185
0.000243508
2.63319e-06
-9.7786e-07
0.000241828
2.6788e-06
-9.08387e-07
0.000194134
0.000139109
9.12145e-07
0.000138213
2.61715e-06
0.000192447
0.000241792
2.67447e-06
-9.91233e-07
0.000240081
2.72417e-06
-8.9562e-07
0.00019237
0.000137333
9.02927e-07
0.000136447
2.62183e-06
0.00019067
0.000239999
2.72554e-06
-1.01442e-06
0.000238254
2.78208e-06
-8.88906e-07
0.000190563
0.000135574
8.9998e-07
0.000134691
2.6367e-06
0.000188845
0.000238122
2.79054e-06
-1.04905e-06
0.000236339
2.85484e-06
-8.88981e-07
0.000188705
0.000133818
9.043e-07
0.00013293
2.66337e-06
0.000186965
0.000236154
2.87152e-06
-1.09652e-06
0.000234328
2.94431e-06
-8.96636e-07
0.000186784
0.000132049
9.16452e-07
0.000131147
2.70289e-06
0.000185015
0.000234083
2.97e-06
-1.15757e-06
0.000232208
3.05186e-06
-9.11961e-07
0.000184786
0.000130247
9.36347e-07
0.000129321
2.75568e-06
0.000182981
0.000231895
3.08719e-06
-1.23371e-06
0.000229966
3.17942e-06
-9.35855e-07
0.000182697
0.000128395
9.64555e-07
0.00012744
2.82253e-06
0.000180851
0.00022958
3.2246e-06
-1.32463e-06
0.000227592
3.32746e-06
-9.6748e-07
0.000180505
0.000126481
9.99732e-07
0.000125489
2.90212e-06
0.000178613
0.000227126
3.38116e-06
-1.42734e-06
0.000225074
3.49225e-06
-1.00498e-06
0.000178201
0.000124493
1.03986e-06
0.000123461
2.99149e-06
0.000176259
0.000224524
3.55352e-06
-1.54067e-06
0.000222402
3.67351e-06
-1.04701e-06
0.000175775
0.000122422
1.08404e-06
0.000121346
3.0901e-06
0.000173778
0.00022176
3.74258e-06
-1.66452e-06
0.000219562
3.87222e-06
-1.09297e-06
0.000173214
0.00012026
1.13233e-06
0.000119135
3.19876e-06
0.000171156
0.00021882
3.95037e-06
-1.801e-06
0.000216537
4.09185e-06
-1.14362e-06
0.000170506
0.000117998
1.18592e-06
0.000116818
3.32018e-06
0.000168378
0.000215684
4.18128e-06
-1.95339e-06
0.000213307
4.33743e-06
-1.20049e-06
0.000167632
0.000115623
1.24671e-06
0.000114381
3.45804e-06
0.000165425
0.00021233
4.44101e-06
-2.12609e-06
0.000209845
4.61535e-06
-1.2658e-06
0.000164569
0.000113118
1.31724e-06
0.000111803
3.61711e-06
0.000162272
0.000208729
4.73671e-06
-2.32452e-06
0.000206122
4.93339e-06
-1.34235e-06
0.000161291
0.000110462
1.40042e-06
0.000109062
3.80276e-06
0.000158889
0.000204849
5.07641e-06
-2.5541e-06
0.000202103
5.29943e-06
-1.433e-06
0.000157768
0.000107628
1.49877e-06
0.000106128
4.01955e-06
0.000155245
0.000200653
5.46718e-06
-2.81892e-06
0.000197749
5.71935e-06
-1.53973e-06
0.000153963
0.000104586
1.61375e-06
0.000102969
4.27064e-06
0.000151302
0.000196101
5.91387e-06
-3.12246e-06
0.000193019
6.19839e-06
-1.66378e-06
0.000149839
0.000101302
1.7472e-06
9.95505e-05
4.56087e-06
0.000147019
0.000191148
6.42489e-06
-3.47258e-06
0.000187863
6.74959e-06
-1.80821e-06
0.000145349
9.77373e-05
1.90335e-06
9.58282e-05
4.90002e-06
0.000142345
0.000185737
7.01698e-06
-3.8822e-06
0.000182215
7.39417e-06
-1.97855e-06
0.000140433
9.38434e-05
2.08811e-06
9.17482e-05
5.30125e-06
0.000137211
0.000179793
7.71185e-06
-4.3632e-06
0.000175995
8.14991e-06
-2.17968e-06
0.000135018
8.9561e-05
2.31247e-06
8.72403e-05
5.78878e-06
0.000131531
0.000173222
8.54871e-06
-4.95651e-06
0.000169083
9.08182e-06
-2.4303e-06
0.000128993
8.48011e-05
2.59528e-06
8.21963e-05
6.40301e-06
0.000125174
0.000165879
9.59184e-06
-5.70887e-06
0.00016131
1.0262e-05
-2.75151e-06
0.000122203
7.94347e-05
2.96586e-06
7.64582e-05
7.20766e-06
0.000117948
0.000157559
1.09418e-05
-6.70935e-06
0.000152424
1.18265e-05
-3.18395e-06
0.000114408
7.32631e-05
3.47945e-06
6.97719e-05
8.32101e-06
0.000109552
0.000147945
1.27814e-05
-8.11887e-06
0.000142026
1.4019e-05
-3.8021e-06
0.00010522
6.59576e-05
4.23763e-06
6.17071e-05
9.95817e-06
9.94837e-05
0.000136525
1.54393e-05
-1.02345e-05
0.000129456
1.72838e-05
-4.74349e-06
9.3976e-05
5.69505e-05
5.44032e-06
5.14965e-05
1.25371e-05
8.68628e-05
0.000122437
1.95357e-05
-1.36804e-05
0.00011356
2.25351e-05
-6.29647e-06
7.94607e-05
4.51855e-05
7.56507e-06
3.76074e-05
1.70173e-05
6.99915e-05
0.00010408
2.64761e-05
-2.0081e-05
9.21592e-05
3.19794e-05
-9.17513e-06
5.9067e-05
2.84149e-05
1.2921e-05
1.54869e-05
2.65293e-05
4.54386e-05
7.9034e-05
3.96296e-05
-3.4263e-05
6.44467e-05
4.88435e-05
-1.87741e-05
3.00104e-05
-3.11416e-06
1.16072e-05
-1.47358e-05
3.32295e-05
8.49982e-06
4.69436e-05
5.07823e-05
-2.43956e-05
2.37133e-05
4.77534e-05
-4.78896e-06
-1.11071e-05
-1.95385e-05
4.50666e-06
-2.40614e-05
1.45441e-05
-2.11688e-05
1.3841e-06
3.68616e-05
-5.97708e-06
-1.22586e-05
1.95885e-05
-1.70054e-06
-2.54615e-05
-2.5774e-05
-1.65811e-06
-2.41266e-05
-1.9965e-06
-2.51255e-05
-1.57129e-05
1.45184e-06
1.16945e-05
-1.70463e-05
-1.03419e-05
7.471e-06
-2.0908e-05
-1.66715e-05
-8.41198e-06
-8.28208e-06
-1.23095e-05
-1.70355e-05
-2.08688e-05
-8.50279e-06
7.52875e-06
-2.08392e-05
-7.58911e-06
4.44034e-06
-1.39731e-05
-3.86452e-06
1.24914e-06
-5.13635e-06
3.52466e-06
-1.62749e-05
-2.45633e-05
7.21906e-06
-2.92096e-06
-2.56608e-05
3.99027e-06
-1.44728e-06
-1.77747e-05
-6.60652e-06
4.8855e-06
-1.1515e-05
1.04799e-05
-2.33951e-05
-3.21521e-05
1.69432e-05
-5.42553e-06
-3.45999e-05
7.85035e-06
-2.63985e-06
-2.62044e-05
-1.41769e-05
3.77749e-06
-1.79759e-05
8.08041e-06
-3.05292e-05
-3.96455e-05
1.31063e-05
-1.61157e-06
-3.96693e-05
1.62267e-06
-9.21923e-07
-3.12367e-05
-1.89182e-05
1.32228e-06
-2.026e-05
2.53324e-06
-3.24643e-05
-4.11862e-05
4.03993e-06
1.81802e-06
-3.93493e-05
-3.65788e-06
7.06935e-07
-3.1365e-05
-1.95712e-05
-5.36311e-07
-1.90522e-05
-1.40338e-06
-3.0509e-05
-3.85741e-05
-2.17983e-06
3.23518e-06
-3.61551e-05
-5.65e-06
1.45309e-06
-2.87349e-05
-1.76153e-05
-6.63917e-07
-1.69677e-05
-1.61163e-06
-2.77958e-05
-3.53349e-05
-2.42877e-06
1.60827e-06
-3.39422e-05
-2.99344e-06
6.74555e-07
-2.68677e-05
-1.63079e-05
-1.35695e-07
-1.61866e-05
-6.74e-07
-2.63352e-05
-3.35301e-05
-1.07934e-06
4.65522e-07
-3.27596e-05
-1.22361e-06
8.36128e-08
-2.5956e-05
-1.61163e-05
-5.01564e-08
-1.60787e-05
-6.43242e-07
-2.53639e-05
-3.2197e-05
-1.19117e-06
6.58971e-07
-3.12417e-05
-1.59335e-06
1.37061e-07
-2.48382e-05
-1.59521e-05
-3.69582e-07
-1.55915e-05
-1.35828e-06
-2.38433e-05
-3.01903e-05
-2.38655e-06
1.56314e-06
-2.86408e-05
-3.08607e-06
5.32755e-07
-2.28042e-05
-1.50662e-05
-8.69049e-07
-1.42034e-05
-2.41082e-06
-2.12514e-05
-2.69309e-05
-4.09269e-06
2.59128e-06
-2.47451e-05
-4.74593e-06
9.97146e-07
-1.96439e-05
-1.32114e-05
-1.37222e-06
-1.18423e-05
-3.47565e-06
-1.75254e-05
-2.23596e-05
-5.83237e-06
3.51477e-06
-1.96632e-05
-6.18157e-06
1.43808e-06
-1.54333e-05
-1.04064e-05
-1.84706e-06
-8.56235e-06
-4.5001e-06
-1.27647e-05
-1.66128e-05
-7.51984e-06
4.12269e-06
-1.35358e-05
-7.16472e-06
1.69934e-06
-1.03214e-05
-6.86428e-06
-2.22751e-06
-4.63639e-06
-5.30807e-06
-7.22051e-06
-1.00412e-05
-8.77339e-06
4.60243e-06
-6.86053e-06
-7.75839e-06
1.92874e-06
-4.53261e-06
-2.70968e-06
-1.97864e-06
-7.32399e-07
-4.95433e-06
-1.53785e-06
-3.24729e-06
-8.53354e-06
4.60771e-06
1.1527e-07
-7.94261e-06
1.84898e-06
1.23914e-06
1.11637e-06
-1.59378e-06
2.70853e-06
-3.91326e-06
3.57228e-06
3.00087e-06
-6.77811e-06
4.7014e-06
6.25097e-06
-7.92584e-06
1.94162e-06
6.34955e-06
4.65039e-06
-1.60761e-06
6.25732e-06
-3.95056e-06
8.70762e-06
9.12017e-06
-6.79809e-06
4.40282e-06
1.21459e-05
-7.40746e-06
1.77716e-06
1.13487e-05
8.0341e-06
-1.43309e-06
9.46636e-06
-3.5877e-06
1.35171e-05
1.48182e-05
-6.24113e-06
3.8567e-06
1.7496e-05
-6.51584e-06
1.49596e-06
1.58919e-05
1.0962e-05
-1.19147e-06
1.21536e-05
-3.09291e-06
1.78067e-05
1.99098e-05
-5.48811e-06
3.20506e-06
2.21992e-05
-5.47669e-06
1.17852e-06
1.98466e-05
1.33329e-05
-9.33929e-07
1.42679e-05
-2.56679e-06
2.14929e-05
2.43238e-05
-4.67538e-06
2.59719e-06
2.62216e-05
-4.48022e-06
8.81505e-07
2.32229e-05
1.51501e-05
-6.99463e-07
1.5849e-05
-2.02893e-06
2.45647e-05
2.80518e-05
-3.84712e-06
2.05324e-06
2.95765e-05
-3.56862e-06
6.3329e-07
2.59945e-05
1.64804e-05
-5.00949e-07
1.69727e-05
-1.51208e-06
2.70121e-05
3.10941e-05
-3.02723e-06
1.54308e-06
3.22378e-05
-2.70125e-06
4.32957e-07
2.81206e-05
1.73764e-05
-3.37304e-07
1.76706e-05
-1.04673e-06
2.88045e-05
3.34057e-05
-2.24484e-06
1.09976e-06
3.41842e-05
-1.91997e-06
2.93002e-07
2.95617e-05
1.79149e-05
-2.34136e-07
1.80972e-05
-6.59151e-07
2.99303e-05
3.5037e-05
-1.56223e-06
7.77014e-07
3.55216e-05
-1.31597e-06
2.04911e-07
3.04414e-05
1.82498e-05
-1.66655e-07
1.83654e-05
-3.92215e-07
3.06039e-05
3.61312e-05
-1.05771e-06
5.60996e-07
3.64049e-05
-8.88827e-07
1.46123e-07
3.09575e-05
1.84635e-05
-1.20248e-07
1.85397e-05
-2.17718e-07
3.09973e-05
3.68492e-05
-7.12796e-07
4.23788e-07
3.6987e-05
-6.07392e-07
1.05309e-07
3.12635e-05
1.86052e-05
-8.61689e-08
1.86559e-05
-1.07001e-07
3.12373e-05
3.7328e-05
-4.89016e-07
3.35699e-07
3.73814e-05
-4.24769e-07
7.45657e-08
3.14573e-05
1.86994e-05
-5.99174e-08
1.87326e-05
-3.39606e-08
3.13955e-05
3.76584e-05
-3.41833e-07
2.74282e-07
3.76554e-05
-2.97529e-07
5.11153e-08
3.15881e-05
1.87605e-05
-3.96776e-08
1.87796e-05
1.94272e-08
3.15027e-05
3.78867e-05
-2.34314e-07
2.25693e-07
3.78414e-05
-1.99266e-07
3.21418e-08
3.16736e-05
1.87939e-05
-2.2907e-08
1.88019e-05
6.36028e-08
3.15679e-05
3.80355e-05
-1.4622e-07
1.85191e-07
3.79569e-05
-1.18757e-07
1.72655e-08
3.17205e-05
1.88076e-05
-9.10664e-09
1.88088e-05
1.03526e-07
3.15965e-05
3.81196e-05
-6.79006e-08
1.47449e-07
3.80126e-05
-4.55987e-08
4.90652e-09
3.17317e-05
1.88092e-05
3.11467e-09
1.88042e-05
1.4181e-07
3.15894e-05
3.81463e-05
6.01599e-09
1.12437e-07
3.80138e-05
2.03052e-08
-5.92168e-09
3.17067e-05
1.87981e-05
1.34452e-08
1.87853e-05
1.74185e-07
3.15465e-05
3.81231e-05
6.59928e-08
8.26532e-08
3.79689e-05
7.36342e-08
-1.5405e-08
3.16457e-05
1.87711e-05
2.13271e-08
1.87512e-05
1.99395e-07
3.14694e-05
3.80594e-05
1.11195e-07
6.06476e-08
3.78896e-05
1.11445e-07
-2.17351e-08
3.15537e-05
1.87308e-05
2.6514e-08
1.87057e-05
2.16961e-07
3.13652e-05
3.79668e-05
1.42221e-07
4.58495e-08
3.77879e-05
1.3557e-07
-2.5844e-08
3.1439e-05
1.86813e-05
3.01414e-08
1.86526e-05
2.28775e-07
3.12425e-05
3.78567e-05
1.62446e-07
3.84376e-08
3.76745e-05
1.46219e-07
-2.73399e-08
3.13102e-05
1.86266e-05
3.2046e-08
1.85958e-05
2.33767e-07
3.11104e-05
3.77407e-05
1.69829e-07
3.96326e-08
3.75606e-05
1.42362e-07
-2.47335e-08
3.11764e-05
1.85721e-05
2.00768e-08
1.85529e-05
9.1813e-08
3.11061e-05
3.74874e-05
1.66781e-07
4.72886e-08
3.76819e-05
-2.40125e-07
1.07949e-07
3.10468e-05
1.86617e-05
-1.14483e-07
1.87771e-05
-2.96147e-07
3.12299e-05
3.78229e-05
-4.35381e-07
5.58519e-07
3.81349e-05
-8.68779e-07
3.45847e-07
3.14439e-05
1.91238e-05
-1.2706e-07
1.92518e-05
-3.15342e-07
3.16337e-05
3.83125e-05
-4.91158e-07
3.85471e-07
3.84719e-05
-5.43169e-07
1.92051e-07
3.18285e-05
1.94446e-05
-6.20125e-07
2.00656e-05
-1.23684e-06
3.24467e-05
3.92985e-05
-2.06168e-06
3.305e-07
-4.26095e-07
1.07544e-07
-5.67126e-06
-0.000100908
2.55826e-07
-0.000105439
-3.12969e-06
-0.000112575
1.97173e-06
-0.00011452
-4.14826e-07
-0.000117628
5.44069e-07
-0.000120022
-7.74865e-07
-0.00012069
-9.22946e-07
-0.000123228
-1.39894e-06
-0.000123735
-1.43416e-06
-0.000125138
-1.58938e-06
-0.000124943
-1.71524e-06
-0.000122932
-1.59554e-06
-0.000121189
-1.42676e-06
-0.000114701
6.24466e-08
-0.00011084
7.33866e-07
-0.000101124
4.98902e-06
-9.6075e-05
8.52049e-06
-8.89252e-05
2.15986e-05
-8.79002e-05
4.73863e-05
-9.97474e-05
1.4044e-05
-2.84864e-05
-5.3399e-06
-4.32617e-05
-2.7456e-06
-5.24067e-05
1.6463e-06
-5.5389e-05
8.02491e-07
-1.71494e-05
2.40672e-07
-1.34376e-05
-7.78588e-06
-4.9628e-06
-2.82294e-06
-1.26613e-05
-5.73889e-06
-7.9326e-06
-2.18778e-05
-1.47565e-06
-1.06037e-05
4.14689e-06
-9.07247e-08
-7.1237e-06
-2.91359e-06
3.48485e-07
-3.26193e-06
9.58316e-07
-7.73328e-06
-1.15862e-05
1.94119e-06
-4.77812e-07
-1.21759e-05
1.06781e-06
-9.57205e-08
-8.11512e-06
-3.3575e-06
-1.18269e-07
-3.23904e-06
-2.38345e-07
-7.99475e-06
-1.19758e-05
-4.3805e-07
-6.7864e-08
-1.19073e-05
-1.30584e-10
-4.38058e-08
-8.01849e-06
-3.28264e-06
-1.13987e-07
-3.16843e-06
-3.24902e-07
-7.80723e-06
-1.17941e-05
-4.37647e-07
-6.78791e-08
-1.19389e-05
2.13161e-07
-4.77899e-08
-7.82696e-06
-3.21598e-06
-1.13478e-07
-3.10224e-06
-1.33387e-07
-7.80667e-06
-1.17227e-05
-3.49086e-07
-1.66952e-07
-1.17672e-05
2.1198e-07
-4.39059e-08
-7.92933e-06
-3.14589e-06
-5.07082e-08
-3.0949e-06
-2.36215e-07
-7.74341e-06
-1.17672e-05
-2.3571e-07
-1.8318e-07
-1.19234e-05
3.39994e-07
-6.46425e-08
-7.86154e-06
-3.15926e-06
-5.59907e-08
-3.10299e-06
-1.53158e-07
-7.76396e-06
-1.18145e-05
-2.61584e-07
-1.75682e-07
-1.19589e-05
3.20673e-07
-5.78173e-08
-7.88141e-06
-3.16052e-06
-5.31253e-08
-3.10711e-06
-1.48135e-07
-7.786e-06
-1.18531e-05
-2.53412e-07
-1.82343e-07
-1.20023e-05
3.32073e-07
-6.08945e-08
-7.90705e-06
-3.16773e-06
-5.7588e-08
-3.10988e-06
-1.57734e-07
-7.80652e-06
-1.18899e-05
-2.69644e-07
-1.73082e-07
-1.20325e-05
3.16221e-07
-5.68242e-08
-7.92242e-06
-3.16646e-06
-5.46718e-08
-3.11156e-06
-1.52341e-07
-7.82441e-06
-1.19239e-05
-2.60474e-07
-1.79561e-07
-1.20723e-05
3.28399e-07
-5.96441e-08
-7.94401e-06
-3.17099e-06
-5.8028e-08
-3.11278e-06
-1.59285e-07
-7.84248e-06
-1.19597e-05
-2.71563e-07
-1.71931e-07
-1.21035e-05
3.16027e-07
-5.61786e-08
-7.958e-06
-3.16881e-06
-5.53041e-08
-3.1134e-06
-1.5363e-07
-7.85949e-06
-1.19957e-05
-2.61148e-07
-1.78895e-07
-1.21464e-05
3.29729e-07
-5.89276e-08
-7.97935e-06
-3.17227e-06
-5.80318e-08
-3.11423e-06
-1.58639e-07
-7.87869e-06
-1.20364e-05
-2.68495e-07
-1.72965e-07
-1.21842e-05
3.20664e-07
-5.59429e-08
-7.99575e-06
-3.17023e-06
-5.52273e-08
-3.11511e-06
-1.5221e-07
-7.89888e-06
-1.20799e-05
-2.56568e-07
-1.80794e-07
-1.22352e-05
3.35878e-07
-5.88554e-08
-8.02101e-06
-3.17414e-06
-5.7369e-08
-3.11701e-06
-1.55588e-07
-7.92307e-06
-1.213e-05
-2.61155e-07
-1.76141e-07
-1.22833e-05
3.28987e-07
-5.62982e-08
-8.04327e-06
-3.17361e-06
-5.46802e-08
-3.11929e-06
-1.49176e-07
-7.94922e-06
-1.21838e-05
-2.4926e-07
-1.84049e-07
-1.23447e-05
3.44288e-07
-5.91829e-08
-8.07461e-06
-3.17889e-06
-5.64025e-08
-3.12297e-06
-1.51631e-07
-7.97999e-06
-1.22448e-05
-2.52267e-07
-1.8009e-07
-1.24043e-05
3.38663e-07
-5.69168e-08
-8.10384e-06
-3.18042e-06
-5.40163e-08
-3.12701e-06
-1.45877e-07
-8.01274e-06
-1.23097e-05
-2.41433e-07
-1.87632e-07
-1.24765e-05
3.53353e-07
-5.96555e-08
-8.14156e-06
-3.18732e-06
-5.54028e-08
-3.13264e-06
-1.47749e-07
-8.05014e-06
-1.23819e-05
-2.43435e-07
-1.84141e-07
-1.25477e-05
3.48623e-07
-5.76227e-08
-8.17767e-06
-3.19106e-06
-5.34639e-08
-3.13846e-06
-1.43028e-07
-8.08921e-06
-1.24578e-05
-2.34391e-07
-1.91293e-07
-1.26306e-05
3.62578e-07
-6.01858e-08
-8.22153e-06
-3.1996e-06
-5.44587e-08
-3.14619e-06
-1.44166e-07
-8.13315e-06
-1.25411e-05
-2.35349e-07
-1.88512e-07
-1.27135e-05
3.59011e-07
-5.84553e-08
-8.26467e-06
-3.2058e-06
-5.30205e-08
-3.15404e-06
-1.40492e-07
-8.17879e-06
-1.26278e-05
-2.28182e-07
-1.95491e-07
-1.28072e-05
3.72662e-07
-6.0898e-08
-8.31511e-06
-3.21631e-06
-5.34786e-08
-3.16431e-06
-1.40592e-07
-8.22985e-06
-1.27226e-05
-2.27492e-07
-1.9368e-07
-1.29023e-05
3.709e-07
-5.95895e-08
-8.36593e-06
-3.22548e-06
-5.25985e-08
-3.17456e-06
-1.38045e-07
-8.28257e-06
-1.2821e-05
-2.22058e-07
-2.00675e-07
-1.30079e-05
3.84823e-07
-6.19693e-08
-8.42347e-06
-3.23828e-06
-5.23779e-08
-3.18773e-06
-1.36829e-07
-8.3413e-06
-1.29285e-05
-2.19116e-07
-1.99993e-07
-1.31168e-05
3.85256e-07
-6.11725e-08
-8.48248e-06
-3.25079e-06
-5.21443e-08
-3.2006e-06
-1.35594e-07
-8.40147e-06
-1.30399e-05
-2.15551e-07
-2.06907e-07
-1.32357e-05
3.99546e-07
-6.34191e-08
-8.54745e-06
-3.26603e-06
-5.13573e-08
-3.21672e-06
-1.3313e-07
-8.46823e-06
-1.31621e-05
-2.10022e-07
-2.07443e-07
-1.33608e-05
4.02756e-07
-6.30495e-08
-8.61525e-06
-3.28187e-06
-5.17633e-08
-3.23224e-06
-1.32936e-07
-8.53674e-06
-1.32898e-05
-2.073e-07
-2.14853e-07
-1.34974e-05
4.18959e-07
-6.52999e-08
-8.68901e-06
-3.29973e-06
-5.03137e-08
-3.25163e-06
-1.2878e-07
-8.61329e-06
-1.34319e-05
-1.97844e-07
-2.16697e-07
-1.36447e-05
4.25906e-07
-6.5257e-08
-8.76753e-06
-3.31913e-06
-5.16069e-08
-3.2698e-06
-1.29689e-07
-8.69229e-06
-1.35827e-05
-1.95322e-07
-2.25064e-07
-1.38068e-05
4.45375e-07
-6.74898e-08
-8.85277e-06
-3.33962e-06
-4.9101e-08
-3.29289e-06
-1.22927e-07
-8.78192e-06
-1.37533e-05
-1.80465e-07
-2.28903e-07
-1.39855e-05
4.56949e-07
-6.809e-08
-8.94581e-06
-3.36339e-06
-5.12137e-08
-3.31464e-06
-1.24694e-07
-8.87553e-06
-1.39367e-05
-1.77879e-07
-2.38338e-07
-1.41827e-05
4.79661e-07
-7.03578e-08
-9.04684e-06
-3.38755e-06
-4.76686e-08
-3.3425e-06
-1.15319e-07
-8.98266e-06
-1.4145e-05
-1.57831e-07
-2.43247e-07
-1.44007e-05
4.94031e-07
-7.12346e-08
-9.15827e-06
-3.41643e-06
-5.12769e-08
-3.36793e-06
-1.19947e-07
-9.0933e-06
-1.43668e-05
-1.58826e-07
-2.51618e-07
-1.46364e-05
5.16156e-07
-7.28098e-08
-9.27587e-06
-3.4436e-06
-4.75607e-08
-3.39897e-06
-1.10712e-07
-9.21652e-06
-1.4614e-05
-1.38128e-07
-2.55361e-07
-1.48935e-05
5.29831e-07
-7.32035e-08
-9.4025e-06
-3.47516e-06
-5.36861e-08
-3.42452e-06
-1.20996e-07
-9.33907e-06
-1.48723e-05
-1.47365e-07
-2.60723e-07
-1.51658e-05
5.49119e-07
-7.33448e-08
-9.53033e-06
-3.50095e-06
-5.16197e-08
-3.45247e-06
-1.15496e-07
-9.4704e-06
-1.5155e-05
-1.31497e-07
-2.59121e-07
-1.54586e-05
5.57594e-07
-7.09027e-08
-9.66254e-06
-3.52652e-06
-6.31271e-08
-3.46658e-06
-1.35535e-07
-9.5941e-06
-1.5446e-05
-1.53214e-07
-2.5918e-07
-1.57655e-05
5.74009e-07
-6.68091e-08
-9.79032e-06
-3.53655e-06
-6.57208e-08
-3.47401e-06
-1.34993e-07
-9.72486e-06
-1.57644e-05
-1.40565e-07
-2.54689e-07
-1.60987e-05
5.85269e-07
-5.90258e-08
-9.9241e-06
-3.53613e-06
-7.884e-08
-3.46034e-06
-1.51791e-07
-9.85461e-06
-1.60987e-05
-1.55242e-07
-2.82784e-07
-1.64647e-05
6.45677e-07
-6.62555e-08
-1.00742e-05
-3.52947e-06
-3.32846e-08
-3.49896e-06
-7.49148e-08
-1.00352e-05
-1.63428e-05
-1.99153e-07
-3.44145e-07
-1.68733e-05
8.72431e-07
-1.05152e-07
-1.02767e-05
-3.60668e-06
-6.38534e-08
-3.54532e-06
-3.59825e-08
-1.03069e-05
-1.67181e-05
-1.93225e-07
-3.01438e-07
-1.72608e-05
8.41893e-07
-1.54767e-07
-1.04558e-05
-3.70238e-06
-1.0328e-07
-3.60117e-06
-5.66947e-08
-1.05042e-05
-1.72839e-05
-3.60953e-08
-3.62415e-07
-1.79074e-05
9.83479e-07
-1.21338e-07
-1.0747e-05
-3.72441e-06
-1.18366e-07
-3.60765e-06
-9.77891e-08
-1.0769e-05
-1.79937e-05
-1.26613e-08
-3.76962e-07
-1.89525e-05
1.3351e-06
-8.57139e-08
-1.10616e-05
-3.69486e-06
-2.35196e-08
-3.67259e-06
1.60339e-07
-1.12465e-05
-1.93392e-05
5.43191e-07
-7.28953e-07
-2.05165e-05
1.89948e-06
-9.32474e-08
-1.18832e-05
-3.76701e-06
2.77794e-08
-3.79576e-06
4.75441e-07
-1.23328e-05
-2.16044e-05
1.55082e-06
-1.35783e-06
-2.3243e-05
2.97352e-06
-2.8269e-07
-1.34124e-05
-4.07957e-06
3.91458e-07
-4.47259e-06
1.40316e-06
-1.44324e-05
-2.4434e-05
2.56398e-06
-2.39601e-06
-2.66419e-05
4.57066e-06
-7.40541e-07
-1.61016e-05
-5.21541e-06
9.2536e-07
-6.14592e-06
2.57425e-06
-1.77695e-05
-2.85312e-05
4.45114e-06
-3.8379e-06
-3.10074e-05
6.31376e-06
-1.62219e-06
-2.00089e-05
-7.77767e-06
1.8292e-06
-9.62585e-06
4.08067e-06
-2.22681e-05
-3.27672e-05
5.8461e-06
-4.8481e-06
-3.52424e-05
7.3408e-06
-2.32573e-06
-2.47894e-05
-1.19722e-05
2.26878e-06
-1.42418e-05
4.52267e-06
-2.70293e-05
-3.70843e-05
6.38799e-06
-4.75279e-06
-3.97227e-05
7.40301e-06
-2.41036e-06
-2.93493e-05
-1.66373e-05
2.16115e-06
-1.87783e-05
4.03979e-06
-3.12202e-05
-4.13354e-05
5.65692e-06
-4.2981e-06
-4.34745e-05
6.441e-06
-1.9525e-06
-3.35627e-05
-2.07254e-05
2.01429e-06
-2.27372e-05
3.56415e-06
-3.51085e-05
-4.51523e-05
5.24694e-06
-4.2898e-06
-4.67427e-05
5.88249e-06
-1.97224e-06
-3.74226e-05
-2.47053e-05
1.86469e-06
-2.65683e-05
3.45673e-06
-3.9015e-05
-4.89108e-05
5.62347e-06
-5.15837e-06
-5.13968e-05
7.64268e-06
-2.64734e-06
-4.15274e-05
-2.92162e-05
3.09435e-06
-3.23106e-05
6.9514e-06
-4.53856e-05
-5.61554e-05
1.17075e-05
3.987e-05
-2.83752e-05
-6.76524e-05
1.67883e-05
-2.23057e-05
-1.55231e-05
4.7015e-06
-2.02257e-05
1.194e-05
-2.95454e-05
-3.71076e-05
2.06709e-05
-8.27285e-06
-4.19527e-05
1.31145e-05
-3.64576e-06
-3.41749e-05
-2.38732e-05
2.6353e-06
-2.65108e-05
4.60377e-06
-3.61464e-05
-4.46668e-05
7.31409e-06
-3.71039e-06
-4.65639e-05
5.60266e-06
-1.95333e-06
-3.79072e-05
-2.84671e-05
1.94799e-06
-3.04184e-05
3.51199e-06
-3.94753e-05
-8.99529e-05
4.68933e-05
-3.83975e-05
-7.08457e-05
1.92804e-05
-1.48487e-06
-7.63946e-05
-3.19071e-05
3.13549e-05
-6.32678e-05
2.11024e-05
-6.61508e-05
-7.68771e-05
2.71244e-05
-1.689e-05
-7.8771e-05
1.8773e-05
-8.20496e-06
-7.48453e-05
-7.14814e-05
7.54713e-06
-7.90385e-05
1.08609e-05
-7.81698e-05
-7.98682e-05
1.19464e-05
-7.57623e-06
-8.00175e-05
7.71271e-06
-4.82154e-06
-8.09364e-05
-8.38712e-05
-1.58226e-06
-8.23007e-05
-3.98566e-06
-7.8546e-05
-8.53451e-05
1.32516e-06
2.30515e-05
-5.43767e-05
-5.40289e-05
8.86389e-06
-6.43682e-05
-7.34477e-05
-1.95991e-06
-7.14974e-05
-1.70196e-06
-6.46341e-05
-6.7049e-05
1.09639e-05
-1.8035e-06
-6.69054e-05
1.64995e-06
-1.42012e-06
-6.5027e-05
-7.29281e-05
-1.56974e-07
-7.27824e-05
-2.33194e-06
-6.28625e-05
-6.37832e-05
-5.46536e-06
5.87825e-06
-5.98919e-05
-9.78115e-06
1.53362e-06
-5.85286e-05
-7.12605e-05
-3.27348e-06
-6.7999e-05
-9.4626e-06
-5.23498e-05
-4.96677e-05
-1.96975e-05
6.88049e-06
-4.85122e-05
-8.04647e-06
2.39887e-06
-4.78784e-05
-6.5612e-05
-4.39757e-06
-6.12266e-05
-1.0529e-05
-4.17572e-05
-3.97625e-05
-1.92897e-05
1.58669e-05
-2.97825e-05
-2.58604e-05
7.35936e-06
-3.32602e-05
-5.38794e-05
-1.07613e-05
-4.31293e-05
-2.16106e-05
-2.24186e-05
-1.72047e-05
-3.41958e-05
1.50538e-05
-1.88545e-05
-1.34092e-05
9.89212e-06
-1.72627e-05
-3.32466e-05
-1.05136e-05
-2.27414e-05
-1.77991e-05
-9.98239e-06
-7.94987e-06
-2.87093e-05
1.70082e-05
3.31248e-06
-2.82766e-05
1.03711e-05
-3.3502e-06
-1.23782e-05
-1.12543e-05
-1.13104e-06
-1.65315e-05
1.92317e-06
2.64621e-06
-1.5869e-05
1.51281e-05
4.11657e-06
-1.66007e-05
1.15005e-05
5.54795e-06
1.03634e-05
-1.2132e-05
2.24897e-05
-1.80524e-05
1.14653e-05
1.02301e-05
-2.41689e-05
2.13316e-05
1.76735e-05
-2.87783e-05
1.38645e-05
1.89292e-05
3.63485e-05
-1.48518e-05
5.11947e-05
-2.3121e-05
2.71953e-05
3.58726e-05
-4.13241e-05
1.60184e-05
2.34901e-05
-3.63814e-06
1.42051e-05
2.90062e-05
6.53946e-05
-1.86205e-05
8.40104e-05
-2.36188e-05
3.40024e-05
2.87672e-05
-2.88977e-05
3.69559e-05
3.94915e-05
-4.76829e-05
2.57776e-05
4.51783e-05
0.000109783
-3.28662e-05
0.000142645
-4.68676e-05
5.91772e-05
7.15249e-05
-7.89046e-05
3.28847e-05
4.68488e-05
-8.21072e-06
3.26402e-05
5.94197e-05
0.000175281
-4.58697e-05
0.000221146
-5.32884e-05
6.68367e-05
5.39975e-05
-6.04387e-05
8.60751e-05
0.000103893
-0.000135974
6.51943e-05
8.77154e-05
0.000286337
-6.96545e-05
0.000355988
-6.9864e-05
8.79231e-05
7.24983e-05
-3.84715e-05
9.92421e-05
0.000110625
-0.000137371
8.0976e-05
0.000106187
0.000436962
-7.00305e-05
0.00050699
-7.94278e-05
0.000115583
0.000130078
-9.88848e-05
1.56746e-05
0.000135715
-2.13134e-05
6.08408e-06
0.000125171
0.000513072
5.68191e-05
0.000456253
3.25977e-05
0.000149391
0.000159941
8.36919e-06
-0.000101718
0.000185054
7.66008e-05
-0.000107522
0.000155193
0.000348732
0.000109989
0.000238743
0.000136114
0.000129068
0.000126084
0.000195082
-8.89304e-05
0.000191556
2.34572e-05
-8.50476e-05
0.000125184
0.000153694
7.09567e-05
8.27365e-05
0.000112856
8.32849e-05
0.00010369
0.00020072
-7.68939e-05
7.74041e-05
0.00010318
-5.0097e-05
5.64884e-05
3.26393e-05
3.42311e-05
-1.59291e-06
4.41219e-05
4.65979e-05
0.000117989
3.53778e-06
-5.19014e-05
5.42765e-05
0.000115614
-2.41736e-05
1.88697e-05
-2.57682e-05
1.34977e-05
-3.92668e-05
3.45178e-05
-2.15132e-06
3.21498e-05
5.66445e-05
-1.67162e-05
4.42122e-05
4.65357e-06
-2.49616e-06
-1.63718e-05
-4.17632e-05
8.51203e-06
-5.02754e-05
2.11386e-05
-2.89985e-05
4.70624e-07
6.48803e-05
-9.64475e-06
-1.9325e-05
2.94408e-05
-5.57804e-06
-3.30647e-05
-5.58531e-05
6.20903e-06
-6.20616e-05
9.35607e-06
-3.62111e-05
-1.8763e-05
8.79441e-06
-1.60221e-05
-2.46344e-05
2.18943e-05
-8.77303e-06
-4.34591e-05
-7.08337e-05
8.07091e-06
-7.89037e-05
1.36298e-05
-4.90161e-05
-3.42861e-05
2.32831e-05
-3.89136e-06
-3.71948e-05
6.80099e-06
-3.24963e-06
-4.96561e-05
-8.21527e-05
6.36545e-06
-8.8518e-05
9.02348e-06
-5.23126e-05
-3.18773e-05
3.7067e-06
-2.11456e-05
-4.54474e-05
3.47163e-05
-1.29028e-05
-6.0554e-05
-0.000101421
1.67296e-05
-0.000118152
2.36869e-05
-6.75102e-05
-3.74285e-05
1.56685e-05
-3.32557e-05
-5.26262e-05
4.8453e-05
-1.74247e-05
-8.33406e-05
-0.000135579
1.06471e-05
-0.000146229
1.63533e-05
-8.90467e-05
-5.18083e-05
1.55338e-05
-5.61673e-06
-5.78219e-05
1.16247e-05
-4.00893e-06
-9.06568e-05
-0.000150244
6.57531e-06
-0.000156827
9.39814e-06
-9.34843e-05
-5.0389e-05
1.96007e-06
-2.74315e-05
-6.77638e-05
4.47958e-05
-1.27717e-05
-0.000108153
-0.00016961
3.80485e-06
-0.00017343
9.70556e-06
-0.000114069
-6.62428e-05
8.16201e-06
1.61641e-05
-6.65721e-05
-1.58571e-05
1.00708e-05
-0.000107994
-0.000163375
-4.93625e-06
-0.000158455
-6.43098e-06
-0.000106516
-5.92528e-05
-1.37644e-05
-9.67662e-06
-8.13009e-05
3.17058e-05
7.71694e-07
-0.000116982
-0.0001577
-1.63843e-05
-0.000141332
-3.24065e-05
-0.000100982
-4.94367e-05
-6.43012e-05
4.43126e-05
-4.42605e-05
-4.95111e-05
2.57071e-05
-8.23949e-05
-0.00011564
-2.18993e-05
-9.37546e-05
-3.54746e-05
-6.88359e-05
-4.11619e-05
-3.85915e-05
1.95221e-05
-3.59168e-05
-2.47775e-05
1.20255e-05
-6.1351e-05
-8.17412e-05
-5.36939e-06
-7.63855e-05
-5.61401e-06
-6.11197e-05
-4.63108e-05
4.76688e-06
2.59389e-05
-2.87236e-05
-4.35505e-05
1.35817e-05
-4.87809e-05
-6.28194e-05
-1.59491e-05
-4.68826e-05
-2.56584e-05
-3.90851e-05
-3.01997e-05
-2.41984e-05
1.67109e-05
-2.81866e-05
-1.8733e-05
2.8745e-05
-5.11294e-05
-1.81447e-05
1.31014e-05
-3.12519e-05
-7.21433e-06
-3.08241e-05
-4.46682e-05
9.25365e-06
8.7758e-06
-2.04269e-05
-3.3038e-05
3.89801e-06
-2.59568e-05
-2.73618e-05
-6.51804e-06
-2.08507e-05
-1.29601e-05
-1.95234e-05
-1.61663e-05
-1.72316e-05
1.02836e-05
-1.25836e-05
-1.38752e-05
5.38526e-06
-1.46325e-05
-1.54716e-05
-4.68288e-06
-1.07934e-05
-8.74989e-06
-1.05707e-05
-9.60165e-06
-1.17375e-05
-1.13261e-05
-1.1862e-05
1.35786e-05
-6.57235e-06
-1.53313e-05
-1.73718e-05
-3.35433e-06
-1.40258e-05
-8.55761e-06
-1.01389e-05
-4.01502e-06