/*--------------------------------*- C++ -*----------------------------------*\
| =========                 |                                                 |
| \\      /  F ield         | OpenFOAM: The Open Source CFD Toolbox           |
|  \\    /   O peration     | Version:  v2006                                 |
|   \\  /    A nd           | Website:  www.openfoam.com                      |
|    \\/     M anipulation  |                                                 |
\*---------------------------------------------------------------------------*/
FoamFile
{
    version     2.0;
    format      ascii;
    class       volScalarField;
    location    "0.01";
    object      turbulenceProperties:I;
}
// * * * * * * * * * * * * * * * * * * * * * * * * * * * * * * * * * * * * * //

dimensions      [0 0 0 0 0 0 0];


internalField   nonuniform List<scalar> 
12716
(
0.150001
0.15
0.15
0.15
0.150001
0.150005
0.150014
0.150027
0.15004
0.150051
0.150058
0.150062
0.150064
0.150063
0.150062
0.15006
0.150058
0.150056
0.150054
0.150053
0.150052
0.15005
0.150049
0.150048
0.150047
0.150046
0.150045
0.150044
0.150043
0.150042
0.150041
0.15004
0.150038
0.150037
0.150035
0.150033
0.150031
0.150029
0.150026
0.150024
0.150021
0.150017
0.150014
0.15001
0.150007
0.150003
0.15
0.149996
0.149992
0.149988
0.149984
0.149981
0.149977
0.149973
0.149968
0.149965
0.149966
0.149973
0.149991
0.150009
0.150011
0.149998
0.149981
0.149977
0.149967
0.149958
0.149962
0.14998
0.149862
0.149338
0.14524
0.138519
0.145614
0.148718
0.146434
0.140399
0.133119
0.12839
0.134938
0.143394
0.140616
0.13061
0.12477
0.121716
0.126429
0.137626
0.135315
0.123546
0.119569
0.117626
0.120559
0.132737
0.131073
0.118925
0.116459
0.115194
0.116655
0.128886
0.127717
0.115782
0.114568
0.113715
0.114074
0.125906
0.12506
0.113616
0.113387
0.112789
0.112285
0.123526
0.122897
0.112046
0.11262
0.11218
0.110981
0.121556
0.12107
0.110847
0.112101
0.11176
0.109963
0.119858
0.119466
0.109891
0.111735
0.111459
0.10912
0.118347
0.118027
0.109095
0.111471
0.111254
0.108423
0.116996
0.116748
0.10845
0.111304
0.111135
0.107866
0.115806
0.115614
0.107936
0.111211
0.111083
0.107437
0.114772
0.114639
0.107552
0.111185
0.111094
0.107135
0.113897
0.113824
0.107294
0.11122
0.111162
0.106954
0.113183
0.113166
0.107154
0.111312
0.11128
0.106884
0.112619
0.112658
0.107124
0.111453
0.111445
0.106914
0.112195
0.112285
0.107192
0.111639
0.111652
0.107033
0.111895
0.11203
0.107346
0.111865
0.111894
0.107226
0.111699
0.111873
0.107573
0.112125
0.112168
0.107482
0.111585
0.111795
0.10786
0.112417
0.112472
0.10779
0.111537
0.111782
0.108202
0.11274
0.112811
0.108151
0.11155
0.111834
0.108601
0.113102
0.113192
0.108576
0.111633
0.111963
0.10907
0.113512
0.113627
0.109076
0.111801
0.112185
0.109624
0.113982
0.114128
0.109671
0.112075
0.112527
0.110284
0.114525
0.11471
0.110384
0.112485
0.113021
0.111077
0.11516
0.11539
0.111248
0.113067
0.113705
0.112039
0.115903
0.116188
0.112295
0.113857
0.114616
0.113203
0.116775
0.11712
0.113559
0.114889
0.115785
0.114604
0.117794
0.11821
0.115068
0.116187
0.117239
0.116275
0.11899
0.119492
0.116864
0.117784
0.119022
0.118267
0.120405
0.121019
0.119004
0.119729
0.121194
0.120652
0.122102
0.122865
0.121574
0.122095
0.123853
0.123541
0.124181
0.125161
0.124713
0.125012
0.127171
0.127121
0.126812
0.128126
0.128665
0.128708
0.131453
0.131722
0.130297
0.132158
0.133862
0.133586
0.137248
0.137951
0.135213
0.138054
0.141104
0.140388
0.145578
0.146975
0.142781
0.147625
0.152069
0.150608
0.15848
0.161402
0.156168
0.166277
0.17073
0.167585
0.180701
0.187701
0.186006
0.223697
0.210278
0.199373
0.220912
0.221385
0.536649
0.247949
0.288789
0.215031
0.335955
1
0.232376
0.199936
0.535311
1
1
0.405904
0.179284
0.150575
0.337745
0.981933
0.974744
0.307315
0.129576
0.0995439
0.115591
0.241321
0.142705
0.139913
0.255562
0.230727
0.119995
0.110833
0.121157
0.135164
0.290462
0.214537
0.114852
0.104417
0.0933689
0.0986644
0.17469
0.158162
0.0899567
0.0855118
0.078579
0.0799058
0.136666
0.133787
0.0781642
0.0778024
0.0764615
0.0750045
0.125833
0.126799
0.0767555
0.077849
0.0797409
0.0782172
0.126937
0.133279
0.0814542
0.0827134
0.0842898
0.0826162
0.133942
0.136052
0.0844209
0.0867097
0.0884833
0.0849958
0.134422
0.132146
0.0854484
0.090562
0.0932697
0.0865818
0.129426
0.126541
0.0888632
0.0971562
0.101833
0.0918262
0.124064
0.121937
0.0969281
0.108572
0.116764
0.103624
0.120265
0.119381
0.114086
0.12908
0.144824
0.127794
0.119264
0.122744
0.149668
0.168318
0.201548
0.179792
0.125413
0.14176
0.234046
0.255092
0.364521
0.359767
0.183564
0.277474
0.566902
0.523233
1
1
1
0.42569
0.804672
1
0.591624
0.377807
0.250615
0.199801
0.24447
0.366862
0.269754
0.185679
0.175955
0.160634
0.145362
0.208491
0.174908
0.123472
0.151846
0.144941
0.105776
0.148443
0.131581
0.0946138
0.140298
0.136811
0.0848124
0.117238
0.107318
0.0781021
0.134149
0.132124
0.0715341
0.0981142
0.0914341
0.0670774
0.130417
0.129189
0.0623962
0.0847416
0.0798518
0.0594578
0.12824
0.127593
0.0562646
0.074831
0.0713397
0.0544325
0.127042
0.126633
0.0525285
0.067854
0.0656285
0.0515601
0.126272
0.125981
0.0506115
0.0634043
0.0620846
0.0501345
0.125708
0.125469
0.0496682
0.0606966
0.0599203
0.0494951
0.125235
0.125023
0.0492269
0.0590052
0.058488
0.0491643
0.124818
0.124623
0.0489509
0.0578007
0.0574085
0.0488495
0.124428
0.124242
0.0486454
0.0568173
0.0565009
0.0485402
0.124056
0.123879
0.0483015
0.0559701
0.0557151
0.0481844
0.123706
0.123524
0.0479052
0.055237
0.0550453
0.0477959
0.12334
0.123153
0.0475172
0.0546481
0.0545434
0.047438
0.122959
0.122773
0.0472067
0.0542726
0.0542538
0.0471757
0.122593
0.122421
0.0470372
0.0541251
0.0541827
0.0470742
0.122258
0.122104
0.0470488
0.0541841
0.0543142
0.0471391
0.121957
0.12182
0.0471816
0.0543796
0.0545887
0.0473136
0.12168
0.121569
0.0474046
0.0546888
0.0549663
0.0475836
0.121406
0.121367
0.0477144
0.0550726
0.0554913
0.0478535
0.12091
0.120745
0.0480333
0.0558158
0.0566686
0.0481894
0.119741
0.119641
0.0487187
0.0575834
0.0578945
0.0490574
0.11932
0.117873
0.0495172
0.0590853
0.0604345
0.0502211
0.118144
0.0822818
0.0893174
0.091795
0.0929879
0.0924625
0.0904492
0.0895385
0.0867241
0.0855769
0.084146
0.0848009
0.0878291
0.0917903
0.100076
0.105076
0.113662
0.115057
0.118788
0.11725
0.113819
0.10979
0.100451
0.0963245
0.0738679
0.0423523
0.0358901
0.11502
0.103719
0.0373723
0.0426464
0.0202071
0.0282432
0.131903
0.124545
0.0299619
0.0299848
0.0289509
0.0290029
0.123629
0.122987
0.029207
0.0300863
0.0290146
0.028951
0.123617
0.123412
0.0290024
0.0293204
0.0287843
0.0288556
0.123974
0.123843
0.0288975
0.0293199
0.0289033
0.0288114
0.124521
0.124476
0.029
0.0294015
0.029001
0.0290264
0.124746
0.124663
0.0291675
0.0295627
0.029167
0.029171
0.125072
0.125032
0.0293247
0.0297135
0.0293143
0.0293119
0.125358
0.125299
0.0294493
0.029863
0.0294583
0.0294445
0.125741
0.125713
0.0295826
0.0298891
0.0294212
0.0295476
0.126081
0.126041
0.0296585
0.0297957
0.0292824
0.0296245
0.126515
0.1265
0.0297347
0.0295902
0.0290333
0.0296776
0.126907
0.126882
0.0297672
0.0293141
0.0287558
0.0297213
0.127387
0.127389
0.0298196
0.0290212
0.028489
0.0297682
0.127834
0.127828
0.0298596
0.0287571
0.0282502
0.0298299
0.128367
0.128389
0.0299358
0.0285127
0.0280213
0.0299044
0.128879
0.128895
0.030005
0.0282847
0.0278189
0.0299935
0.129475
0.129516
0.0301067
0.0280696
0.0275966
0.0300918
0.130057
0.130092
0.0301961
0.027814
0.0273397
0.0301952
0.130713
0.130768
0.0303094
0.0275408
0.027093
0.0303098
0.131359
0.131402
0.030423
0.0273088
0.0269107
0.0304459
0.132061
0.132117
0.0305765
0.0271388
0.0267694
0.0306054
0.132755
0.132795
0.0307356
0.0270004
0.0266601
0.0307822
0.133487
0.133536
0.0309229
0.0268914
0.0265598
0.0309729
0.134216
0.134251
0.0311062
0.0267619
0.0264222
0.0311675
0.134973
0.135014
0.0313034
0.0265937
0.026257
0.031365
0.135734
0.135761
0.0314931
0.026419
0.0261055
0.0315703
0.136509
0.136539
0.0317028
0.0262664
0.0259606
0.0317883
0.137295
0.137313
0.0319116
0.0260804
0.0257569
0.0320079
0.138083
0.138098
0.0321286
0.0258209
0.0254618
0.0322298
0.138886
0.138902
0.0323399
0.0254593
0.0250986
0.0324591
0.139695
0.139698
0.0325685
0.0250882
0.0247713
0.0327152
0.140514
0.14053
0.0328228
0.0247534
0.0244598
0.0330201
0.141332
0.141325
0.0331239
0.0244244
0.0241436
0.033374
0.142172
0.142191
0.033472
0.024108
0.0238535
0.0337828
0.14302
0.143
0.0338818
0.0238441
0.0236152
0.0342625
0.143917
0.143906
0.0343744
0.0236387
0.0234478
0.0348118
0.144824
0.144773
0.0349848
0.0235403
0.0234045
0.0354886
0.145841
0.145792
0.0358141
0.0236554
0.0236304
0.0363932
0.146908
0.146961
0.0370077
0.0240823
0.0241676
0.0377046
0.148284
0.148945
0.0386126
0.0246407
0.0247695
0.0393262
0.149719
0.150022
0.0401532
0.0253156
0.0256399
0.0412394
0.151511
0.151066
0.0423357
0.0264449
0.0272674
0.0437783
0.152652
0.152469
0.0455029
0.0289091
0.031097
0.0469741
0.154618
0.154933
0.0485547
0.0346036
0.0388454
0.0492328
0.155503
0.156022
0.0517415
0.0447274
0.0503784
0.0537832
0.15619
0.155491
0.058912
0.0578931
0.0626851
0.0622074
0.153557
0.152027
0.0679043
0.0706439
0.07423
0.0721895
0.150947
0.150415
0.0780716
0.0821427
0.0858247
0.0820659
0.149774
0.148567
0.0869898
0.0949071
0.0979163
0.0892011
0.146255
0.143564
0.0924165
0.105841
0.106903
0.0927068
0.140633
0.137915
0.0959445
0.114353
0.115847
0.0976481
0.135424
0.133482
0.102313
0.123586
0.125955
0.105696
0.131345
0.130901
0.114069
0.137414
0.14263
0.120891
0.131607
0.140767
0.0975169
0.104271
0.137705
0.111812
0.13719
0.135052
0.113851
0.142094
0.158139
0.125371
0.136182
0.138373
0.130412
0.167892
0.195837
0.148672
0.145821
0.154678
0.174717
0.223591
0.243554
0.209483
0.168998
0.175569
0.219696
0.258939
0.280502
0.245399
0.186685
0.194958
0.261139
0.300666
0.317934
0.277064
0.203764
0.208568
0.280028
0.320704
0.348019
0.306154
0.227945
0.246269
0.334199
0.376703
0.414849
0.371208
0.270957
0.299477
0.419485
0.4658
0.530109
0.480813
0.33629
0.387348
0.577928
0.629981
0.77854
0.704652
0.446515
0.519729
0.872765
0.952354
1
1
0.607448
0.760621
1
1
1
1
1
1
1
1
1
1
1
1
1
1
1
1
1
0.836514
0.84649
0.823286
0.685545
0.681253
0.589236
0.452483
0.566282
0.573503
0.483637
0.471745
0.362588
0.302316
0.39163
0.399396
0.350352
0.334874
0.245992
0.210518
0.294544
0.306477
0.252082
0.249607
0.180844
0.156697
0.21414
0.219875
0.186639
0.185971
0.134582
0.119296
0.163621
0.16146
0.146474
0.149723
0.102205
0.0941267
0.132907
0.140684
0.129769
0.120571
0.0924718
0.103622
0.116441
0.123662
0.122128
0.128316
0.138116
0.215647
0.154964
0.127946
0.147787
0.205468
0.402176
0.714868
0.278332
0.181173
0.205967
0.287907
0.455891
0.277356
0.541055
0.227726
0.381489
0.84928
0.273434
0.241578
0.491661
0.452292
0.858017
0.360886
0.225371
0.211909
0.333636
0.596136
0.644576
0.33484
0.206666
0.202137
0.342142
0.721909
0.589686
0.335005
0.198688
0.196728
0.311673
0.490651
0.4951
0.314632
0.199258
0.204841
0.338806
0.54401
0.669845
0.378396
0.21128
0.217197
0.444702
1
0.948158
0.43913
0.215564
0.216873
0.423162
0.758542
0.819842
0.437107
0.216944
0.219251
0.46677
1
0.912704
0.445854
0.215469
0.211982
0.407597
0.736344
0.725089
0.413329
0.219406
0.242337
0.488612
1
1
0.523807
0.252327
0.259358
0.540938
1
0.953271
0.538247
0.262036
0.279999
0.580194
1
1
0.715375
0.313575
0.299258
0.616541
1
1
0.517284
0.288363
0.235583
0.444107
1
1
0.640235
0.31536
0.296399
0.625774
1
1
0.707343
0.324557
0.322271
0.683034
1
1
0.695701
0.347848
0.5887
1
1
1
1
0.518218
0.563521
1
1
1
1
0.516261
0.60166
1
1
1
1
1
1
1
1
1
1
1
1
1
1
1
1
1
1
1
1
1
1
1
0.87875
0.984749
0.897801
0.722151
0.766633
0.672492
0.719676
0.745354
0.68299
0.635987
0.664707
0.567583
0.546815
0.581831
0.587634
0.586216
0.601621
0.492244
0.416948
0.516278
0.52059
0.485682
0.470239
0.35927
0.32897
0.388084
0.429652
0.454143
0.449317
0.357187
0.307603
0.393663
0.41353
0.391197
0.365443
0.273936
0.249924
0.294453
0.337332
0.372583
0.360963
0.285218
0.250986
0.321751
0.345826
0.328101
0.298505
0.2256
0.208083
0.238922
0.278
0.315836
0.300035
0.237896
0.213211
0.270817
0.294278
0.280936
0.253092
0.195189
0.182163
0.202389
0.233445
0.270169
0.253982
0.203795
0.186029
0.2302
0.253736
0.242156
0.213736
0.17202
0.163536
0.169555
0.196104
0.232907
0.214776
0.176227
0.163395
0.200926
0.223441
0.18153
0.15902
0.153536
0.164702
0.198323
0.213998
0.203284
0.181222
0.155058
0.145986
0.168125
0.193557
0.153795
0.135472
0.141663
0.14881
0.172918
0.189488
0.180577
0.15899
0.139986
0.134102
0.148349
0.172502
0.13709
0.122253
0.1344
0.137656
0.153647
0.169825
0.163579
0.144409
0.130791
0.128422
0.118291
0.130077
0.158952
0.144806
0.131049
0.125535
0.132693
0.150636
0.143768
0.124011
0.12207
0.124598
0.106795
0.113878
0.142268
0.127899
0.123147
0.117837
0.120863
0.13736
0.109306
0.103931
0.118872
0.11725
0.122867
0.134939
0.128836
0.113839
0.11521
0.112146
0.107309
0.121831
0.0981824
0.0953542
0.116901
0.112825
0.109838
0.122551
0.117832
0.10428
0.108775
0.112034
0.0924848
0.0950367
0.116636
0.105639
0.108316
0.107005
0.0988347
0.109638
0.103045
0.0949298
0.106266
0.111866
0.0872812
0.0860091
0.105107
0.0943899
0.104622
0.102944
0.0911381
0.100527
0.0833056
0.0844773
0.106872
0.100512
0.0913268
0.101073
0.0948874
0.0872868
0.100504
0.100884
0.0841272
0.0894312
0.0769714
0.0799829
0.107678
0.0982171
0.0844341
0.092505
0.0885928
0.0816389
0.0977321
0.103255
0.0777793
0.0750655
0.0895888
0.081678
0.094268
0.0949423
0.0792133
0.0856197
0.0735905
0.0762291
0.100582
0.091823
0.0789745
0.0856577
0.082086
0.0768528
0.0931629
0.0987834
0.0744586
0.0715065
0.083147
0.0769947
0.0895813
0.0906633
0.0739689
0.0778222
0.0741209
0.0719161
0.0925493
0.100014
0.0709798
0.0673595
0.0747113
0.0704055
0.0882458
0.0898698
0.0692997
0.0722409
0.0651498
0.0692236
0.0968094
0.0856134
0.067966
0.0716755
0.0694134
0.0671183
0.0872208
0.0937377
0.0671948
0.062798
0.0699377
0.0660617
0.0830375
0.0850992
0.0654717
0.0675397
0.0617842
0.0657559
0.0916149
0.0812103
0.064606
0.0678432
0.0643724
0.0630483
0.0833357
0.086436
0.0634682
0.0625581
0.0598135
0.0648747
0.0941998
0.0814532
0.0611503
0.0624857
0.0607886
0.0605025
0.083835
0.0910314
0.0633531
0.0573887
0.0612536
0.0599131
0.0793099
0.0820034
0.0590413
0.0591335
0.0567083
0.0630682
0.0889282
0.0779266
0.0585462
0.0589711
0.0571949
0.0576798
0.0808733
0.0875148
0.0623376
0.0553638
0.0576151
0.057343
0.0763019
0.0791086
0.0563201
0.0557163
0.0542163
0.0614761
0.08572
0.0748897
0.0557084
0.0552167
0.0537877
0.0549139
0.0779964
0.084553
0.06051
0.0528267
0.05415
0.0546894
0.0741158
0.0771318
0.0544534
0.0530245
0.0509899
0.054168
0.0811101
0.088756
0.0618106
0.0513699
0.0507743
0.0523217
0.0756967
0.0791508
0.0516058
0.0487256
0.0495295
0.0604825
0.0863662
0.0739819
0.0507252
0.0489819
0.0472787
0.0502884
0.0776058
0.0847787
0.0594696
0.0482654
0.0480572
0.049842
0.0727411
0.0764321
0.0495349
0.0463674
0.0474869
0.0589397
0.083293
0.0715011
0.0488237
0.0469904
0.0453448
0.0484633
0.0752272
0.0821904
0.0580121
0.0465149
0.0462254
0.0480747
0.0705884
0.0743981
0.0478977
0.0446138
0.0459412
0.057682
0.0812508
0.0700668
0.0473769
0.0454078
0.0438927
0.0471946
0.0739517
0.0805498
0.0571672
0.045272
0.044826
0.0467855
0.0692319
0.0730922
0.0466503
0.0432446
0.0447729
0.0569453
0.0797805
0.068773
0.0461041
0.0439848
0.0425483
0.0459245
0.0726865
0.0795201
0.0564299
0.0441418
0.0434625
0.0455891
0.0683649
0.0722864
0.0455654
0.0420534
0.0436849
0.0561971
0.0791999
0.0681628
0.0449763
0.0427826
0.0417994
0.0457139
0.0715255
0.0763217
0.046772
0.0409492
0.0438296
0.0588912
0.0831079
0.0702023
0.0448734
0.0419262
0.0406674
0.0447286
0.0742723
0.0812254
0.057011
0.043057
0.0413498
0.0439996
0.0689441
0.0730883
0.0440938
0.0400785
0.0426172
0.0565465
0.0801562
0.0682288
0.043448
0.0407609
0.0395859
0.0436832
0.0724501
0.0796246
0.0562171
0.0421678
0.0403536
0.0430669
0.0679105
0.0720626
0.0432165
0.0391854
0.0419101
0.0560547
0.0792287
0.0674221
0.0426786
0.0399067
0.0388282
0.0430432
0.0716903
0.0789512
0.0559137
0.0416301
0.039599
0.0424395
0.0671502
0.0713277
0.0426572
0.0385216
0.0414495
0.055674
0.0786427
0.0671007
0.042147
0.0393042
0.0382928
0.0425173
0.0713417
0.078599
0.0556722
0.0413236
0.039135
0.0420078
0.0669438
0.0711538
0.0423085
0.0381301
0.0412511
0.0555915
0.0783782
0.0666614
0.0418483
0.038959
0.0379702
0.042211
0.0707902
0.0780805
0.0554534
0.041093
0.0387852
0.0417957
0.066547
0.0707227
0.0420288
0.0378399
0.0408626
0.055099
0.0780321
0.0664685
0.04157
0.0386133
0.0377822
0.0430015
0.0700907
0.0751558
0.0448169
0.037279
0.0426475
0.0587489
0.0824145
0.0694763
0.042267
0.0383225
0.0372679
0.0422101
0.0737687
0.0811502
0.0565319
0.0414321
0.0376098
0.041097
0.0682996
0.0727447
0.0416564
0.0367075
0.0410608
0.0563737
0.0801788
0.0678266
0.0410173
0.0373268
0.036481
0.0413917
0.0722617
0.0796994
0.0558309
0.0407014
0.0370892
0.0405923
0.0672729
0.0716058
0.0410664
0.0362349
0.0404571
0.0554848
0.0790114
0.0668928
0.0404086
0.0368538
0.0359498
0.0406334
0.0710595
0.0785474
0.0550825
0.0400875
0.0366122
0.0401117
0.0664981
0.0709035
0.0407256
0.0359066
0.0401323
0.0551163
0.0783458
0.066495
0.0402103
0.0366062
0.0358131
0.0405035
0.070665
0.0780461
0.0545092
0.0396695
0.0364446
0.0398496
0.06602
0.0694583
0.0412978
0.0355586
0.0351159
0.0431938
0.0744099
0.0816741
0.057853
0.0413836
0.0362099
0.0405788
0.0682726
0.0727874
0.0407823
0.0354362
0.0404216
0.0561248
0.0803851
0.0675236
0.040006
0.0360094
0.0353182
0.0405805
0.0718665
0.0792435
0.0557333
0.0402043
0.0358674
0.0398727
0.0667932
0.0709616
0.0402656
0.0351511
0.0398793
0.0550264
0.0783001
0.0660313
0.0394529
0.0356249
0.0349007
0.0399276
0.0700358
0.0774825
0.0547022
0.0395881
0.0354481
0.0394041
0.0660713
0.0698373
0.0411848
0.034651
0.0342963
0.042979
0.0749102
0.0823863
0.0580632
0.0412201
0.035364
0.0401834
0.0686761
0.0730023
0.0405108
0.0345675
0.0400938
0.0559724
0.0804214
0.0673736
0.039397
0.0350381
0.0342287
0.0395378
0.0713842
0.0786879
0.054807
0.0392222
0.0345962
0.0387097
0.0661058
0.0698053
0.0404697
0.0337932
0.0335726
0.0425736
0.0749754
0.082507
0.0582382
0.0410005
0.0348486
0.0398486
0.0687159
0.0729636
0.0400297
0.0340669
0.0399119
0.0558416
0.0803704
0.0671602
0.0389136
0.0344308
0.0337211
0.0396192
0.0714088
0.0785453
0.0550177
0.039321
0.0340799
0.0384846
0.0659455
0.0698931
0.0405015
0.0333623
0.0331339
0.0423391
0.0752078
0.0828742
0.058117
0.0408902
0.0342362
0.039431
0.0687948
0.0731411
0.0397664
0.0335109
0.0397763
0.0557937
0.0805415
0.067209
0.0385761
0.033823
0.0330447
0.0387908
0.0712543
0.0784731
0.0542612
0.0385897
0.0331395
0.0375364
0.0651729
0.0685369
0.0391946
0.0323642
0.0322298
0.0415319
0.0738028
0.081561
0.0574155
0.0401573
0.033532
0.0387701
0.067774
0.0719056
0.0390328
0.032838
0.0390161
0.0548088
0.0791766
0.0659595
0.0376623
0.0329292
0.0323858
0.0396247
0.0693047
0.0738624
0.0414971
0.032157
0.0402969
0.0573005
0.0810122
0.0675195
0.0383812
0.033057
0.0324112
0.0384963
0.0718763
0.0795635
0.054669
0.0388733
0.0323925
0.0372933
0.0660721
0.0695073
0.0390814
0.0318844
0.0317486
0.0413058
0.074321
0.0814523
0.0572262
0.0399413
0.0325312
0.0380569
0.0675206
0.0710443
0.0399527
0.0319859
0.0315882
0.0408843
0.0752527
0.0828424
0.0573917
0.0401432
0.0322878
0.0380094
0.0685387
0.0728381
0.0383952
0.0317337
0.0386001
0.0548052
0.0801103
0.0662369
0.0369135
0.0317894
0.031126
0.0384211
0.0693908
0.0738663
0.0401746
0.0308542
0.0387988
0.0561247
0.080731
0.0656978
0.0367169
0.031396
0.0309434
0.0384754
0.069021
0.0742043
0.0406503
0.0309198
0.0394453
0.056816
0.0819036
0.0675529
0.0373055
0.0315918
0.0310753
0.0388211
0.0709709
0.0753852
0.0403627
0.0308519
0.0392447
0.0565877
0.0820852
0.0665865
0.0366631
0.0310274
0.0305989
0.0382934
0.0695195
0.074203
0.0402605
0.030509
0.0392815
0.0567148
0.0820373
0.0677788
0.0370233
0.0310927
0.0305098
0.0373719
0.0715141
0.0756859
0.04244
0.0308548
0.030276
0.0423888
0.0795261
0.0858614
0.0581746
0.0398478
0.0303521
0.0364585
0.0682757
0.0719109
0.0383411
0.0299877
0.0299451
0.0401896
0.0770731
0.0845048
0.0572845
0.039106
0.0304886
0.0367749
0.0686785
0.0716771
0.0363668
0.0295308
0.0296416
0.0409738
0.075853
0.078021
0.0396213
0.028859
0.0384939
0.0573393
0.0849332
0.0690341
0.0362096
0.0296761
0.0290556
0.0359269
0.0729392
0.0769118
0.0416391
0.029717
0.02939
0.0422648
0.0808444
0.0866793
0.0584039
0.0393402
0.0296241
0.0360099
0.0678755
0.0718166
0.0370784
0.0290078
0.0289914
0.039522
0.0767012
0.0816516
0.0425103
0.0293543
0.0285987
0.0417417
0.0851499
0.0906173
0.0583835
0.0385218
0.0284459
0.0349121
0.0687646
0.0723135
0.0358756
0.0277865
0.0274581
0.036704
0.0769335
0.081349
0.0399762
0.0275193
0.0270118
0.0394662
0.0842974
0.0865736
0.0439775
0.0282307
0.0275172
0.0436879
0.0893962
0.0965374
0.0617718
0.0396545
0.0286406
0.0365924
0.0734822
0.0752
0.0358477
0.0279848
0.0280128
0.040146
0.0792661
0.0840811
0.0405199
0.0277653
0.0276368
0.0410705
0.0878244
0.0908472
0.0420718
0.0275412
0.0278021
0.0442842
0.0945949
0.0975822
0.0440466
0.0276172
0.0285723
0.0475659
0.100819
0.104182
0.0489322
0.0289466
0.0300079
0.051908
0.106183
0.107134
0.0533913
0.0303734
0.031607
0.0565389
0.107632
0.107781
0.0580867
0.0319591
0.0334463
0.0614139
0.107867
0.10782
0.0628664
0.0338375
0.0355828
0.065964
0.107798
0.107721
0.0673615
0.0360694
0.0380116
0.0700878
0.107677
0.107646
0.0717447
0.038549
0.0407765
0.0738503
0.107607
0.107629
0.0756037
0.0414145
0.043875
0.07723
0.107608
0.107667
0.0788353
0.0445027
0.0470569
0.0802818
0.107661
0.107768
0.0816952
0.0477167
0.050236
0.0830081
0.10776
0.107916
0.0842638
0.0508766
0.0534007
0.0854528
0.107887
0.108078
0.0865584
0.0540445
0.0565264
0.0876064
0.108037
0.108243
0.0885254
0.0570988
0.0594818
0.0894599
0.108205
0.108391
0.0902481
0.0600034
0.0622362
0.0910641
0.108386
0.108528
0.0917026
0.0626676
0.0647668
0.0924269
0.108564
0.108671
0.0929654
0.0651343
0.0670721
0.0935969
0.108745
0.108808
0.0940141
0.067342
0.0691277
0.0945691
0.108885
0.108915
0.0949136
0.0693254
0.070944
0.0953938
0.109005
0.109013
0.0956531
0.0710549
0.0725218
0.0960593
0.109085
0.109085
0.0962826
0.0725774
0.0738887
0.0966097
0.109149
0.109152
0.096763
0.0738771
0.0750667
0.0970396
0.109194
0.10919
0.0971597
0.0750096
0.0760704
0.0973927
0.109222
0.109214
0.0974561
0.0759591
0.0769217
0.09765
0.10923
0.109214
0.0976905
0.0767769
0.0776374
0.0978503
0.109225
0.109205
0.097844
0.0774505
0.0782345
0.0979749
0.109206
0.109179
0.0979554
0.0780255
0.0787302
0.0980597
0.109176
0.109146
0.0980028
0.0784901
0.0791375
0.0980876
0.109138
0.109101
0.0980251
0.0788841
0.0794689
0.0980891
0.109089
0.109051
0.0979968
0.0791938
0.0797384
0.0980491
0.109038
0.108995
0.0979577
0.0794566
0.0799513
0.0979947
0.108979
0.108936
0.0978824
0.0796395
0.080115
0.0979153
0.108922
0.108877
0.0978106
0.0798203
0.0802511
0.0978323
0.108861
0.108814
0.0977066
0.079946
0.0803565
0.0977221
0.108797
0.108748
0.097605
0.0800522
0.0804348
0.0976141
0.108732
0.108683
0.0974805
0.0801216
0.0804923
0.0974865
0.108667
0.108617
0.0973639
0.0801801
0.0805296
0.0973661
0.108603
0.108553
0.0972294
0.0802098
0.0805507
0.0972306
0.108539
0.108489
0.0971058
0.0802344
0.080557
0.0971043
0.108477
0.108427
0.0969668
0.0802351
0.0805519
0.0969655
0.108416
0.108366
0.0968406
0.0802326
0.0805304
0.0968387
0.108357
0.108307
0.0967014
0.0802028
0.0804922
0.0967019
0.108299
0.108249
0.096576
0.0801666
0.080439
0.0965755
0.108244
0.108193
0.0964369
0.080108
0.0803763
0.0964385
0.108189
0.108138
0.0963114
0.0800502
0.0803053
0.0963123
0.108137
0.108085
0.0961733
0.0799765
0.0802308
0.0961769
0.108086
0.108033
0.0960501
0.0799085
0.0801516
0.0960538
0.108038
0.107985
0.095916
0.0798277
0.0800718
0.0959231
0.10799
0.107937
0.095799
0.0797532
0.0799868
0.0958061
0.107946
0.107892
0.0956722
0.0796647
0.0798999
0.0956821
0.107903
0.107849
0.0955617
0.0795827
0.0798086
0.0955713
0.107862
0.107809
0.0954409
0.0794888
0.0797181
0.0954533
0.107823
0.10777
0.0953368
0.0794044
0.079626
0.0953494
0.107788
0.107735
0.0952238
0.079311
0.0795379
0.0952402
0.107754
0.107701
0.0951293
0.0792302
0.0794512
0.0951471
0.107724
0.107672
0.0950282
0.0791434
0.0793713
0.0950507
0.107696
0.107643
0.0949472
0.0790716
0.0792944
0.0949715
0.107672
0.107618
0.0948602
0.0789947
0.0792248
0.0948891
0.107648
0.107595
0.0947927
0.0789326
0.0791573
0.094823
0.107627
0.107575
0.0947181
0.0788643
0.0790959
0.0947524
0.107607
0.107555
0.0946617
0.0788099
0.0790362
0.0946969
0.107589
0.107538
0.0945972
0.0787494
0.078983
0.0946361
0.107571
0.107521
0.0945501
0.0787032
0.0789318
0.0945894
0.107556
0.107507
0.0944941
0.0786508
0.0788863
0.0945366
0.107542
0.107493
0.0944546
0.0786114
0.078841
0.0944973
0.107529
0.107481
0.0944056
0.078564
0.0788004
0.0944514
0.107518
0.10747
0.0943731
0.0785296
0.0787606
0.094419
0.107508
0.107461
0.0943308
0.0784882
0.0787264
0.0943796
0.107499
0.107451
0.0943044
0.0784598
0.0786922
0.094353
0.10749
0.107444
0.0942676
0.0784232
0.0786624
0.0943187
0.107482
0.107435
0.0942459
0.078399
0.0786325
0.0942964
0.107474
0.107428
0.094213
0.0783666
0.0786067
0.0942656
0.107466
0.107418
0.0941942
0.0783459
0.0785798
0.0942459
0.107457
0.10741
0.0941636
0.0783161
0.0785565
0.0942171
0.107447
0.1074
0.0941467
0.0782976
0.0785318
0.094199
0.107438
0.107391
0.0941177
0.07827
0.0785107
0.0941718
0.107428
0.10738
0.0941023
0.0782537
0.078488
0.0941553
0.107418
0.107371
0.0940748
0.078228
0.078469
0.0941296
0.107408
0.10736
0.0940608
0.0782138
0.0784484
0.0941141
0.107398
0.10735
0.0940341
0.07819
0.078431
0.094089
0.107387
0.107339
0.0940205
0.0781768
0.078411
0.0940738
0.107376
0.107329
0.093994
0.0781534
0.0783938
0.0940489
0.107365
0.107317
0.0939806
0.0781405
0.0783745
0.094034
0.107354
0.107306
0.0939545
0.0781182
0.0783589
0.0940097
0.107343
0.107295
0.0939417
0.078107
0.0783411
0.0939953
0.107333
0.107285
0.0939162
0.0780859
0.0783263
0.0939714
0.107322
0.107274
0.0939036
0.0780749
0.0783082
0.0939572
0.107312
0.107264
0.0938779
0.0780531
0.0782927
0.0939329
0.107302
0.107252
0.0938647
0.0780415
0.0782742
0.0939178
0.10729
0.107241
0.0938376
0.0780192
0.0782578
0.0938915
0.107277
0.107226
0.0938213
0.0780059
0.0782365
0.0938724
0.107262
0.107209
0.0937894
0.0779794
0.0782145
0.0938406
0.107244
0.107188
0.0937666
0.0779593
0.0781856
0.0938138
0.107221
0.107163
0.0937257
0.0779251
0.0781564
0.0937716
0.107193
0.107131
0.0936909
0.0778974
0.0781186
0.0937319
0.107159
0.107096
0.0936373
0.0778532
0.0780776
0.0936767
0.107122
0.107057
0.0935894
0.0778128
0.0780276
0.0936255
0.107083
0.107023
0.0935271
0.0777579
0.0779767
0.0935621
0.107046
0.106979
0.0934661
0.0777076
0.0779063
0.0934944
0.107
0.106925
0.0933831
0.0776258
0.0778169
0.0933982
0.10694
0.106827
0.0932186
0.0774655
0.0775498
0.0932258
0.106834
0.106499
0.0928294
0.0769086
0.0762734
0.0924427
0.106259
0.105454
0.0912271
0.0750785
0.0723833
0.089549
0.104579
0.103175
0.0875161
0.0699797
0.0663508
0.085501
0.101608
0.0480977
0.0391937
0.0385509
0.0403431
0.0431635
0.0446237
0.0484678
0.0521478
0.053032
0.0537312
0.0540568
0.0541271
0.0540515
0.0539081
0.0537492
0.0536038
0.0534832
0.0533889
0.0533177
0.0532653
0.0532273
0.0532002
0.0531809
0.053168
0.0531587
0.0531534
0.0531492
0.0531474
0.0531455
0.0531451
0.05316
0.0531728
0.0531882
0.0532076
0.0532288
0.0532513
0.0532742
0.0532974
0.0533207
0.0533442
0.0533682
0.0533929
0.0534188
0.0534462
0.0534755
0.053507
0.0535409
0.0535775
0.0536166
0.053658
0.0537009
0.0537509
0.0538226
0.0539253
0.0540455
0.0541672
0.0542853
0.0544023
0.0545215
0.0546446
0.0547724
0.054905
0.0550424
0.0551846
0.055332
0.055485
0.0556445
0.0558112
0.0559863
0.0561711
0.0563667
0.0565747
0.0567966
0.057034
0.0572886
0.057562
0.0578559
0.0581719
0.0585116
0.0588765
0.0592678
0.0596868
0.0601343
0.0606112
0.061118
0.0616548
0.0622218
0.0628188
0.0634454
0.0641008
0.0647844
0.0654951
0.0662318
0.0669933
0.0677782
0.0685851
0.0694126
0.0702592
0.0711233
0.0720035
0.0728983
0.0738062
0.0747257
0.0756556
0.0765944
0.0775409
0.0784941
0.0794528
0.0804163
0.0813838
0.0823549
0.0833287
0.0843027
0.0852785
0.0862569
0.0872375
0.0882182
0.0891987
0.0901788
0.0911589
0.0921394
0.0931207
0.0941027
0.0950856
0.0960697
0.0970554
0.0980431
0.0990333
0.10003
0.10103
0.102033
0.10304
0.104052
0.105068
0.106091
0.107118
0.108152
0.109191
0.110237
0.11129
0.11235
0.113416
0.114488
0.115567
0.116651
0.117741
0.118836
0.119933
0.121032
0.122131
0.123227
0.124319
0.125403
0.126476
0.127536
0.128581
0.129608
0.130616
0.131603
0.132568
0.133512
0.134436
0.135339
0.136223
0.137089
0.137937
0.138769
0.139583
0.14038
0.141156
0.14191
0.142638
0.143337
0.144005
0.144639
0.145237
0.145799
0.146325
0.146816
0.147272
0.147696
0.148086
0.148443
0.148765
0.149048
0.149292
0.149496
0.14966
0.149787
0.149883
0.149948
0.149984
0.149999
0.150004
0.150005
0.150004
0.150002
0.150003
0.150006
0.150018
0.150043
0.15008
0.150122
0.150162
0.150195
0.150217
0.15023
0.150235
0.150234
0.15023
0.150223
0.150215
0.150207
0.1502
0.150192
0.150184
0.150176
0.150169
0.150162
0.150156
0.150149
0.150144
0.150138
0.150133
0.150129
0.150124
0.15012
0.150115
0.150111
0.150106
0.150102
0.150097
0.150092
0.150086
0.15008
0.150074
0.150068
0.150061
0.150055
0.150048
0.150041
0.150033
0.150026
0.15002
0.150014
0.150009
0.150004
0.150002
0.150003
0.150014
0.15004
0.15008
0.150116
0.150107
0.150042
0.149944
0.149842
0.149725
0.149293
0.148739
0.147076
0.145771
0.144646
0.143304
0.142307
0.141004
0.14015
0.13892
0.138199
0.137036
0.136429
0.135314
0.134794
0.133712
0.133252
0.132195
0.131786
0.130763
0.130415
0.129435
0.129144
0.128218
0.127993
0.127138
0.126977
0.126205
0.126106
0.125418
0.12538
0.124774
0.124793
0.12426
0.12433
0.123856
0.123972
0.123541
0.123697
0.123297
0.123491
0.123116
0.123349
0.123002
0.123282
0.12297
0.123306
0.123044
0.12345
0.123257
0.123751
0.123647
0.124244
0.12425
0.124967
0.125095
0.125947
0.126206
0.127209
0.127608
0.128783
0.129333
0.130712
0.13144
0.133076
0.134032
0.136007
0.137281
0.139735
0.141497
0.144666
0.147232
0.15144
0.155543
0.161156
0.167824
0.175661
0.185055
0.193258
0.201425
0.205589
0.229764
0.289144
0.431717
0.749558
1
0.55719
0.186611
0.16612
0.127106
0.119545
0.108401
0.103987
0.101304
0.0989741
0.0972474