/*--------------------------------*- C++ -*----------------------------------*\
| =========                 |                                                 |
| \\      /  F ield         | OpenFOAM: The Open Source CFD Toolbox           |
|  \\    /   O peration     | Version:  v2006                                 |
|   \\  /    A nd           | Website:  www.openfoam.com                      |
|    \\/     M anipulation  |                                                 |
\*---------------------------------------------------------------------------*/
FoamFile
{
    version     2.0;
    format      ascii;
    class       volScalarField;
    location    "0.03";
    object      alphat;
}
// * * * * * * * * * * * * * * * * * * * * * * * * * * * * * * * * * * * * * //

dimensions      [1 -1 -1 0 0 0 0];


internalField   nonuniform List<scalar> 
10108
(
29.9424
137.22
50.7671
42.7694
34.5207
14.3864
4.61415
2.05752
1.24287
0.921858
0.770699
0.685848
0.628082
0.581761
0.541459
0.505651
0.474007
0.446351
0.42236
0.401573
0.383491
0.367652
0.353677
0.34127
0.330208
0.320321
0.31148
0.303584
0.296551
0.290316
0.284826
0.280039
0.27592
0.272446
0.269597
0.267362
0.265738
0.264718
0.26432
0.264564
0.265467
0.267068
0.269416
0.272579
0.276649
0.28175
0.288046
0.295737
0.305044
0.316151
0.329141
0.343966
0.360633
0.379946
0.405162
0.44637
0.529888
0.723251
1.21364
2.52963
5.5485
8.33525
6.35115
7.79445
2.53043
1.13472
0.588967
0.325829
0.152439
0.0313619
0.00579199
0.000194217
0.000167914
0.00284413
0.0124527
0.00793604
0.00208261
0.000150578
0.000135357
0.00181783
0.00638697
0.0054538
0.00165458
0.000127233
0.000118517
0.00150962
0.00486687
0.00440002
0.00142447
0.000112732
0.000107902
0.00134999
0.00413969
0.00386212
0.00129113
0.000103782
0.00010111
0.00126635
0.00372867
0.00352565
0.00121746
9.82953e-05
9.65403e-05
0.00120412
0.00345171
0.00330131
0.00116476
9.44153e-05
9.31682e-05
0.00115636
0.00324796
0.00312635
0.00112352
9.15109e-05
9.05693e-05
0.00111728
0.00308554
0.00298237
0.00108934
8.9241e-05
8.84949e-05
0.00108396
0.00295023
0.00286012
0.00105984
8.73812e-05
8.6765e-05
0.00105506
0.00283421
0.00275394
0.00103373
8.58077e-05
8.52855e-05
0.00102946
0.00273253
0.00266027
0.00101027
8.44426e-05
8.39879e-05
0.00100638
0.00264181
0.00257641
0.000988852
8.32303e-05
8.28258e-05
0.000985315
0.00256024
0.00250041
0.000969134
8.21335e-05
8.17673e-05
0.000965917
0.00248608
0.00243089
0.000950837
8.11263e-05
8.07899e-05
0.000947912
0.00241809
0.00236684
0.000933748
8.01896e-05
7.9877e-05
0.000931083
0.00235531
0.00230738
0.000917681
7.93097e-05
7.90163e-05
0.000915244
0.00229695
0.00225178
0.000902479
7.84756e-05
7.81978e-05
0.000900241
0.00224237
0.00219966
0.000888015
7.76787e-05
7.74134e-05
0.00088596
0.00219113
0.0021506
0.000874197
7.69117e-05
7.66564e-05
0.000872312
0.00214283
0.00210424
0.000860947
7.61687e-05
7.59216e-05
0.000859214
0.00209712
0.00206024
0.000848188
7.5445e-05
7.52045e-05
0.000846593
0.00205369
0.00201832
0.000835854
7.47364e-05
7.4501e-05
0.000834383
0.00201224
0.00197822
0.000823882
7.40388e-05
7.38073e-05
0.000822519
0.00197254
0.00193971
0.000812209
7.3349e-05
7.31202e-05
0.00081094
0.00193436
0.0019026
0.000800778
7.26635e-05
7.24364e-05
0.000799588
0.00189752
0.00186669
0.000789533
7.19793e-05
7.17528e-05
0.000788411
0.00186184
0.00183182
0.000778424
7.12934e-05
7.10665e-05
0.000777357
0.00182713
0.00179783
0.0007674
7.06027e-05
7.03745e-05
0.000766376
0.00179325
0.00176454
0.000756411
6.99043e-05
6.96738e-05
0.000755421
0.00176003
0.00173181
0.000745413
6.9195e-05
6.89612e-05
0.00074445
0.00172733
0.00169953
0.000734367
6.84716e-05
6.82333e-05
0.000733432
0.00169504
0.00166759
0.000723248
6.77308e-05
6.74869e-05
0.000722298
0.00166306
0.00163589
0.000712011
6.69693e-05
6.6719e-05
0.000711072
0.00163132
0.00160438
0.000700666
6.61843e-05
6.59271e-05
0.000699734
0.00159975
0.00157299
0.000689187
6.53736e-05
6.51089e-05
0.000688263
0.00156829
0.00154169
0.000677557
6.45346e-05
6.42619e-05
0.000676648
0.00153692
0.00151044
0.000665772
6.36648e-05
6.33837e-05
0.000664898
0.00150568
0.00147928
0.000653851
6.2762e-05
6.24722e-05
0.000653043
0.0014747
0.00144828
0.000641838
6.18244e-05
6.1526e-05
0.000641134
0.00144391
0.0014175
0.000629793
6.08512e-05
6.05445e-05
0.000629245
0.00141347
0.00138713
0.000617812
5.98429e-05
5.95277e-05
0.000617453
0.00138362
0.00135746
0.000606123
5.88014e-05
5.84795e-05
0.000605943
0.00135472
0.00132888
0.000594824
5.77303e-05
5.74036e-05
0.000594956
0.00132724
0.00130196
0.00058422
5.66363e-05
5.63101e-05
0.000584752
0.00130137
0.00127712
0.000574531
5.55314e-05
5.52111e-05
0.000575633
0.00127821
0.00125528
0.000566125
5.443e-05
5.41227e-05
0.000567967
0.00125847
0.00123721
0.000559379
5.33515e-05
5.30661e-05
0.000562118
0.00124289
0.0012236
0.000554622
5.23181e-05
5.20631e-05
0.000558408
0.00123217
0.00121513
0.000552119
5.13528e-05
5.11352e-05
0.000557025
0.00122698
0.00121227
0.000552011
5.04771e-05
5.03022e-05
0.000557953
0.00122751
0.0012153
0.000554085
4.9708e-05
4.9575e-05
0.000560834
0.00123344
0.00122385
0.000557895
4.90532e-05
4.89503e-05
0.000565098
0.00124397
0.00123702
0.00056294
4.85129e-05
4.84179e-05
0.000569785
0.00125777
0.00125217
0.00056597
4.81118e-05
4.79837e-05
0.000572023
0.00127233
0.00126733
0.000567079
4.7728e-05
4.757e-05
0.000572626
0.00128713
0.00128169
0.00056741
4.73314e-05
4.7167e-05
0.000572328
0.00130041
0.00129398
0.000567065
4.69406e-05
4.67788e-05
0.000571147
0.00131108
0.00130344
0.000565801
4.65664e-05
4.64369e-05
0.000569095
0.0013188
0.00130999
0.000563688
4.62381e-05
4.61273e-05
0.000566312
0.00132359
0.00131389
0.000560939
4.59433e-05
4.58455e-05
0.000563043
0.00132595
0.00131564
0.000557801
4.5677e-05
4.55916e-05
0.000559477
0.00132634
0.00131583
0.000554459
4.54394e-05
4.5362e-05
0.000555792
0.0013252
0.00131485
0.000551057
4.52237e-05
4.51827e-05
0.000552209
0.00132309
0.00131282
0.000547767
4.50182e-05
4.50071e-05
0.000548739
0.00132018
0.00131009
0.000544487
4.48351e-05
4.48584e-05
0.000545377
0.00131671
0.00130687
0.000541926
4.46231e-05
4.49086e-05
0.000544014
0.00131519
0.00131832
0.000542606
4.47944e-05
4.58852e-05
0.000552946
0.00134033
0.00135779
0.000558712
4.59145e-05
4.67261e-05
0.000553343
0.0013478
0.00140303
0.000578786
4.68779e-05
5.87299e-05
0.000578265
0.00141889
0.00396489
0.00768736
0.0120447
0.0169445
0.0216253
0.026895
0.0317679
0.0362987
0.0401011
0.0431299
0.0451621
0.0460979
0.045814
0.0442584
0.0415332
0.0377006
0.0331752
0.0281022
0.0233192
0.018014
0.0124282
0.00816923
0.00578604
0.002683
0.000759799
0.000325318
3.84569e-05
2.64312e-05
0.000303665
0.000652868
0.000196282
7.69949e-05
1.7566e-05
2.08581e-05
0.000193212
0.000504799
0.000467497
0.000174137
2.20524e-05
2.22167e-05
0.000195212
0.000518573
0.000482822
0.000178769
2.19908e-05
2.20158e-05
0.000187121
0.00050192
0.000479656
0.000176592
2.18324e-05
2.19489e-05
0.000186826
0.00050122
0.000485195
0.000178246
2.17181e-05
2.1924e-05
0.000187223
0.000510313
0.000494064
0.000179765
2.18913e-05
2.21169e-05
0.000190117
0.000520525
0.000505672
0.00018344
2.20635e-05
2.22741e-05
0.00019336
0.000532028
0.00051682
0.000186554
2.22371e-05
2.24569e-05
0.000196782
0.000544001
0.000528503
0.000189843
2.24191e-05
2.26483e-05
0.000200401
0.000556654
0.000540822
0.000193306
2.26095e-05
2.2849e-05
0.000204196
0.000569819
0.000553624
0.000196947
2.28092e-05
2.30594e-05
0.000208213
0.000583772
0.000567065
0.000200793
2.30183e-05
2.32796e-05
0.00021242
0.000598312
0.000581269
0.000204815
2.32371e-05
2.35109e-05
0.00021686
0.000613606
0.000596095
0.000209064
2.34675e-05
2.37531e-05
0.000221502
0.000629648
0.000611758
0.000213491
2.3709e-05
2.4007e-05
0.000226372
0.000646543
0.000628135
0.000218132
2.39612e-05
2.42717e-05
0.000231409
0.000664248
0.000645365
0.000222902
2.42239e-05
2.45477e-05
0.000236584
0.00068277
0.000663368
0.000227763
2.4497e-05
2.48353e-05
0.000241775
0.000701953
0.0006817
0.000232567
2.47821e-05
2.51455e-05
0.000246876
0.00072192
0.00070082
0.000237147
2.50937e-05
2.55103e-05
0.00025179
0.000743052
0.000721592
0.000241477
2.54755e-05
2.59622e-05
0.000257041
0.000768276
0.000748332
0.00024657
2.60115e-05
2.66054e-05
0.000264936
0.00080281
0.000787057
0.000256096
2.67004e-05
2.72969e-05
0.000282595
0.000858028
0.000840906
0.000273381
2.72042e-05
2.77331e-05
0.00030375
0.000923393
0.000901364
0.000291693
2.76848e-05
2.86704e-05
0.000324572
0.00099322
0.000975337
0.000320863
2.89405e-05
2.98798e-05
0.000344699
0.00106363
0.00105906
0.000354222
3.06e-05
3.18704e-05
0.000382289
0.00114926
0.00114126
0.00037805
3.28629e-05
3.53956e-05
0.00041962
0.00125316
0.00124278
0.000408287
3.82845e-05
4.37488e-05
0.000461718
0.00135941
0.00138538
0.000470438
4.93974e-05
6.1231e-05
0.00057711
0.00154861
0.00154871
0.00069261
4.80602e-05
2.69921e-05
0.000153011
0.000504347
0.00140903
0.000476069
3.86471e-05
4.54637e-05
0.000464715
0.00142766
0.00178301
0.000609784
5.58443e-05
6.29913e-05
0.000639842
0.0018562
0.00212276
0.000750267
7.77775e-05
9.48622e-05
0.000863387
0.00233892
0.00233439
0.00100763
7.97494e-05
3.93527e-05
0.000243609
0.000824128
0.0020811
0.000757295
6.82036e-05
8.59073e-05
0.000742973
0.0021667
0.00266155
0.000948529
0.000126548
0.000111417
0.00113601
0.00281791
0.00114377
0.000350194
5.62906e-05
0.000117421
0.00109309
0.00296664
0.00376456
0.00137815
0.000163999
0.000165565
0.00169615
0.00430319
0.00327694
0.00135944
0.000129365
0.00015943
0.00161399
0.00225268
0.00198596
0.00121184
0.000130757
0.000100722
0.00124183
0.00265939
0.0049914
0.0024207
0.000153244
0.000104738
0.000462005
0.00129373
0.00229108
0.00097664
0.000108657
0.00011401
0.000771716
0.00194398
0.000590641
0.00021801
5.86767e-05
6.95005e-05
0.000651943
0.00132878
0.00124188
0.000557737
7.89617e-05
4.49789e-05
0.000178698
0.000447026
0.00107767
0.000549267
5.51796e-05
6.3694e-05
0.000463161
0.00100401
0.00036873
0.000157765
3.84002e-05
4.74083e-05
0.000480705
0.000925052
0.000864375
0.00040853
5.58478e-05
3.47068e-05
0.000141378
0.000320987
0.000815782
0.000426931
4.21653e-05
4.98651e-05
0.000360327
0.00075653
0.000282705
0.000127724
3.18421e-05
3.83807e-05
0.000383836
0.000731437
0.000676686
0.000326813
4.60415e-05
3.02223e-05
0.000118471
0.000255917
0.00066305
0.000347938
3.54739e-05
4.28882e-05
0.000295531
0.000603331
0.00023196
0.000110752
2.87986e-05
3.31919e-05
0.000316437
0.000600974
0.000544946
0.000272618
4.03602e-05
2.75491e-05
0.000104282
0.000211909
0.000543142
0.000288019
3.11582e-05
3.81433e-05
0.000248733
0.000489907
0.000194363
9.75193e-05
2.65491e-05
2.92568e-05
0.000262203
0.000489287
0.000443988
0.000226534
3.5759e-05
2.56274e-05
8.99383e-05
0.000177746
0.000435257
0.000238645
2.68571e-05
3.28922e-05
0.000201697
0.000390432
0.000155097
7.76196e-05
2.39668e-05
2.38306e-05
0.000240281
0.000341698
0.000181216
0.000100951
2.69453e-05
2.82803e-05
0.00023605
0.000441268
0.000381047
0.000198118
3.37551e-05
2.4512e-05
8.24984e-05
0.000158381
0.000359128
0.00020314
2.46326e-05
3.05886e-05
0.000177116
0.000323392
0.000138395
7.1444e-05
2.27648e-05
2.19284e-05
0.000202013
0.000284976
0.000157319
9.1142e-05
2.58713e-05
2.58202e-05
0.000206849
0.000372523
0.000320284
0.0001744
3.09867e-05
2.2867e-05
7.41621e-05
0.000141543
0.000280938
0.000190546
2.19308e-05
2.55429e-05
9.29041e-05
0.00015801
0.000363341
0.000202703
2.49699e-05
3.02859e-05
0.000170185
0.000309241
0.00013752
7.24358e-05
2.26067e-05
2.13514e-05
0.000186708
0.000266318
0.000153923
9.07875e-05
2.51036e-05
2.42357e-05
0.000189295
0.000329079
0.000285999
0.000163093
2.9875e-05
2.25333e-05
7.18356e-05
0.000130114
0.000245758
0.000181785
2.06994e-05
2.4615e-05
8.90176e-05
0.000143818
0.000303788
0.000176201
2.34938e-05
2.91379e-05
0.000151109
0.000263177
0.000122482
7.07062e-05
2.2021e-05
2.00904e-05
0.000168672
0.000222371
0.000134753
8.53233e-05
2.41462e-05
2.25447e-05
0.000159798
0.000263349
0.00022997
0.000137424
2.8244e-05
2.14278e-05
7.06835e-05
0.000113591
0.000197254
0.00015383
1.90923e-05
2.30669e-05
8.26542e-05
0.000122286
0.00022042
0.000163193
2.03431e-05
2.43688e-05
8.66814e-05
0.000134392
0.000252678
0.000150026
2.25899e-05
2.80818e-05
0.000128383
0.000215276
0.00010902
7.09467e-05
2.12005e-05
1.88075e-05
0.000146514
0.000181719
0.000116524
8.35073e-05
2.28749e-05
2.01411e-05
0.000151241
0.000202305
0.000127107
8.5835e-05
2.41728e-05
2.19613e-05
0.00014317
0.000230482
0.000199531
0.00012394
2.75602e-05
2.11279e-05
7.17719e-05
0.000105459
0.000166183
0.000137884
1.85761e-05
2.26775e-05
8.36767e-05
0.000110602
0.000179285
0.000144102
1.94217e-05
2.32513e-05
8.69978e-05
0.000118143
0.000195861
0.000145199
1.99414e-05
2.40319e-05
8.71343e-05
0.000124658
0.000221387
0.000137975
2.16158e-05
2.74621e-05
0.000119063
0.00018926
0.000104264
7.35871e-05
2.11013e-05
1.82473e-05
0.000130588
0.000153213
0.000105864
8.45941e-05
2.25675e-05
1.91002e-05
0.000133822
0.000162078
0.000111268
8.70656e-05
2.33276e-05
1.99127e-05
0.000133153
0.000176152
0.000117088
8.71244e-05
2.4257e-05
2.14676e-05
0.000132175
0.000201
0.000175535
0.000117082
2.73472e-05
2.1141e-05
7.70509e-05
0.000100707
0.000146691
0.000127568
1.81436e-05
2.29437e-05
8.65444e-05
0.000103701
0.000156568
0.000130299
1.92394e-05
2.34398e-05
8.86694e-05
0.000109556
0.0001658
0.000130474
1.93607e-05
2.37169e-05
9.06964e-05
0.000114788
0.000174865
0.000133527
1.98848e-05
2.46601e-05
9.28267e-05
0.000119783
0.000200184
0.000133676
2.17637e-05
2.77785e-05
0.000119048
0.000174439
0.000102321
8.22423e-05
2.14734e-05
1.83605e-05
0.000129718
0.000147339
0.000106019
8.98835e-05
2.33508e-05
1.94165e-05
0.000130192
0.000154
0.000109751
9.10331e-05
2.40192e-05
1.99091e-05
0.000128298
0.000159434
0.000113495
9.35672e-05
2.4531e-05
2.03942e-05
0.00013059
0.000165154
0.000116911
9.75714e-05
2.55042e-05
2.24391e-05
0.000131025
0.000189559
0.000168041
0.0001192
2.87187e-05
2.2567e-05
8.79553e-05
0.00010274
0.00014716
0.000130332
1.90884e-05
2.44707e-05
9.37386e-05
0.000107714
0.000155498
0.000130924
2.01601e-05
2.51359e-05
9.56423e-05
0.000112338
0.000160771
0.000131122
2.05366e-05
2.56064e-05
9.88478e-05
0.000116381
0.000166908
0.000133192
2.13733e-05
2.67199e-05
0.000104783
0.000120226
0.000190701
0.000133807
2.3225e-05
2.97966e-05
0.000122319
0.000168795
0.000104859
9.25386e-05
2.33786e-05
1.97348e-05
0.000133157
0.000147478
0.000109374
9.74829e-05
2.52593e-05
2.07068e-05
0.000131017
0.000153849
0.000113326
9.83861e-05
2.60549e-05
2.12034e-05
0.000130054
0.000156936
0.000115901
0.00010122
2.64016e-05
2.17046e-05
0.000131423
0.000161726
0.000118301
0.0001072
2.75124e-05
2.38557e-05
0.000132322
0.000185208
0.000166093
0.000123103
3.08244e-05
2.44177e-05
9.68668e-05
0.000106393
0.00014837
0.000135751
2.02114e-05
2.6427e-05
0.000102197
0.000111736
0.000157193
0.000133513
2.15565e-05
2.73545e-05
0.000104289
0.000117237
0.000162188
0.000134213
2.22264e-05
2.78477e-05
0.000108017
0.000121142
0.000168283
0.000137774
2.27853e-05
2.88062e-05
0.000114404
0.000124423
0.00019152
0.000138675
2.47324e-05
3.19628e-05
0.000129206
0.00017202
0.000111298
0.000103228
2.5432e-05
2.12766e-05
0.000141253
0.000154589
0.000117857
0.000108817
2.7921e-05
2.27769e-05
0.000139183
0.000162
0.000122294
0.000110169
2.86627e-05
2.29194e-05
0.000139372
0.000165437
0.000125324
0.000113426
2.89484e-05
2.37197e-05
0.000140558
0.000170978
0.000128364
0.00012072
3.03575e-05
2.61576e-05
0.000143192
0.000195012
0.000176928
0.000135168
3.38755e-05
2.70816e-05
0.000111809
0.00011791
0.000162618
0.000148575
2.26022e-05
2.95576e-05
0.000117871
0.000125361
0.000172973
0.000148063
2.40293e-05
3.06624e-05
0.000120793
0.00013175
0.000179923
0.000148702
2.51425e-05
3.18418e-05
0.000127179
0.000135014
0.00020223
0.000149184
2.71838e-05
3.52249e-05
0.000140781
0.000183549
0.000123438
0.000116432
2.80579e-05
2.32717e-05
0.000154226
0.000166623
0.000129577
0.00012244
3.06745e-05
2.50729e-05
0.000151068
0.000176609
0.00013583
0.000125722
3.19433e-05
2.60238e-05
0.000152178
0.000183955
0.000139978
0.000133842
3.32721e-05
2.8623e-05
0.000155893
0.000209158
0.000190776
0.000148206
3.67821e-05
2.95527e-05
0.000125338
0.000130943
0.000177131
0.000161904
2.47394e-05
3.27914e-05
0.000133461
0.000138693
0.000192146
0.000162762
2.69619e-05
3.46019e-05
0.000140531
0.000146528
0.000217512
0.000162385
2.9506e-05
3.80814e-05
0.00015431
0.000198521
0.000136797
0.000130068
3.02763e-05
2.53373e-05
0.000167351
0.000182397
0.000144174
0.000137274
3.37304e-05
2.78983e-05
0.000165677
0.000196365
0.000150777
0.00014512
3.58579e-05
3.05395e-05
0.000167118
0.000222888
0.000204637
0.000159936
3.98156e-05
3.17678e-05
0.000137477
0.000143594
0.000189816
0.000173289
2.63615e-05
3.56763e-05
0.000147397
0.000149235
0.000220049
0.000167527
3.07687e-05
4.07744e-05
0.000161222
0.000203202
0.000144774
0.000137873
3.29053e-05
2.72171e-05
0.000172433
0.000187561
0.000150136
0.000148672
3.62924e-05
3.06436e-05
0.000166926
0.000216492
0.000200961
0.000161339
4.1129e-05
3.38652e-05
0.000142139
0.000145449
0.000188199
0.000172927
2.83208e-05
3.76972e-05
0.000152957
0.000152463
0.000217018
0.000169894
3.16786e-05
4.1316e-05
0.00016445
0.000201345
0.000146712
0.000143381
3.39407e-05
2.84865e-05
0.000172699
0.000187755
0.000153553
0.000155455
3.86801e-05
3.28538e-05
0.000172893
0.000218648
0.00020453
0.00016864
4.37274e-05
3.49747e-05
0.000152682
0.000152177
0.000194872
0.000181281
2.86865e-05
3.95272e-05
0.000163918
0.000159632
0.000229088
0.000179221
3.40775e-05
4.56264e-05
0.000175982
0.000215468
0.000159901
0.000163279
3.79246e-05
3.21061e-05
0.000187565
0.000219735
0.000209102
0.000182757
4.37078e-05
3.8402e-05
0.000164177
0.000159416
0.000217838
0.000188121
3.38207e-05
4.67998e-05
0.000183387
0.000208724
0.000161904
0.000166551
3.98582e-05
3.34202e-05
0.000186109
0.000217703
0.000207839
0.000181421
4.60476e-05
4.04691e-05
0.000168745
0.000161275
0.000217958
0.000188254
3.53181e-05
4.85008e-05
0.000182722
0.000209901
0.00016362
0.000173381
4.10401e-05
3.53671e-05
0.000188779
0.000220527
0.000211121
0.000185309
5.01482e-05
4.37948e-05
0.000181128
0.000167195
0.000231685
0.000200091
3.67358e-05
5.17149e-05
0.000207257
0.000220542
0.000206022
0.000199215
4.95506e-05
4.54307e-05
0.00018621
0.000172363
0.0002348
0.000201695
3.93418e-05
5.58877e-05
0.000199156
0.000228014
0.00020969
0.000211105
5.81124e-05
5.20093e-05
0.000198494
0.000202543
0.000171564
0.000183282
4.854e-05
4.33107e-05
0.000194621
0.000226064
0.000221628
0.000191307
6.45428e-05
6.49334e-05
0.000204154
0.000207888
0.000206214
0.000196805
6.91e-05
7.38453e-05
0.000200384
0.000198905
0.000197468
0.000194594
8.1158e-05
8.79478e-05
0.000203004
0.000198384
0.000201334
0.00020728
9.32891e-05
9.39183e-05
0.000221068
0.000203171
0.000205257
0.000229068
9.10312e-05
8.78457e-05
0.000241101
0.000208385
0.000212724
0.000253309
8.4164e-05
8.07348e-05
0.000266091
0.0002194
0.000224428
0.000278411
7.71672e-05
7.41483e-05
0.000291106
0.000234939
0.000240422
0.000290582
7.13071e-05
6.89577e-05
0.000299648
0.000254201
0.000261439
0.000303184
6.68223e-05
6.50153e-05
0.000308142
0.000281925
0.000291095
0.000311942
6.33626e-05
6.19578e-05
0.000316554
0.000315461
0.000325652
0.000320591
6.06887e-05
5.96171e-05
0.00032598
0.000350703
0.000361943
0.000330733
5.86812e-05
5.78816e-05
0.000336521
0.000387343
0.000399179
0.000341966
5.72459e-05
5.66543e-05
0.000348332
0.00042477
0.000429319
0.000354329
5.62966e-05
5.58175e-05
0.000360948
0.000455804
0.000458135
0.000367742
5.57543e-05
5.53564e-05
0.000374685
0.000484301
0.000486747
0.000381631
5.55208e-05
5.52249e-05
0.000388468
0.000511755
0.000513957
0.000395362
5.54598e-05
5.53006e-05
0.000401918
0.000538084
0.000539885
0.000408367
5.55594e-05
5.55049e-05
0.000414594
0.000562591
0.000564077
0.000420642
5.57522e-05
5.5746e-05
0.000426629
0.00058578
0.000586906
0.000432003
5.59798e-05
5.60019e-05
0.000437513
0.000607058
0.000608035
0.000442375
5.62149e-05
5.62503e-05
0.000447573
0.000627141
0.000627892
0.000451685
5.64449e-05
5.64724e-05
0.000456373
0.000645699
0.00064644
0.000460047
5.66659e-05
5.66799e-05
0.000464351
0.000663405
0.000663939
0.000467431
5.6874e-05
5.6873e-05
0.00047117
0.000679894
0.000680374
0.000473864
5.70572e-05
5.70401e-05
0.000477316
0.000695795
0.000696091
0.000479489
5.72161e-05
5.71897e-05
0.000482473
0.000710587
0.000710924
0.000484362
5.73575e-05
5.7319e-05
0.000487159
0.00072505
0.000725113
0.000488611
5.74799e-05
5.74373e-05
0.000490876
0.000738739
0.000738524
0.00049231
5.75444e-05
5.75855e-05
0.000494401
0.000751783
0.000751726
0.000495353
5.76883e-05
5.76356e-05
0.000497404
0.000764592
0.000764496
0.000498194
5.77818e-05
5.77229e-05
0.000500177
0.000777081
0.000776574
0.000500687
5.78648e-05
5.78056e-05
0.00050241
0.000789092
0.000788302
0.000502825
5.79434e-05
5.78813e-05
0.000504507
0.000800595
0.000799316
0.000504699
5.80152e-05
5.79539e-05
0.000506144
0.000811392
0.000809782
0.000506272
5.80833e-05
5.80196e-05
0.000507661
0.000821463
0.000819214
0.000507582
5.81439e-05
5.80819e-05
0.000508745
0.000830985
0.000828452
0.000508645
5.8202e-05
5.81402e-05
0.00050973
0.000837279
0.00083653
0.000509422
5.82523e-05
5.81912e-05
0.000510317
0.000842001
0.000844153
0.000510001
5.82975e-05
5.82388e-05
0.000510812
0.000846
0.000850736
0.000510275
5.83365e-05
5.82788e-05
0.000510903
0.000849472
0.00085695
0.00051037
5.83687e-05
5.83123e-05
0.00051095
0.000852376
0.000859926
0.00051022
5.83944e-05
5.83402e-05
0.000510649
0.000854738
0.000862089
0.000509932
5.84157e-05
5.83622e-05
0.000510317
0.000856517
0.000863541
0.000509409
5.84299e-05
5.83788e-05
0.000509651
0.000857932
0.000864876
0.00050877
5.84399e-05
5.839e-05
0.000509011
0.000858931
0.00086564
0.000507959
5.84439e-05
5.83959e-05
0.000508088
0.000859709
0.000866406
0.00050709
5.84444e-05
5.8398e-05
0.000507255
0.00086017
0.000866679
0.000506108
5.84412e-05
5.83971e-05
0.00050619
0.000860493
0.000867127
0.000505117
5.84361e-05
5.83936e-05
0.000505263
0.000860602
0.000866958
0.00050406
5.84287e-05
5.83886e-05
0.000504139
0.00086055
0.000867283
0.000503024
5.84206e-05
5.83821e-05
0.000503197
0.000860449
0.000866856
0.000501957
5.84115e-05
5.83754e-05
0.000502059
0.000860143
0.000866926
0.000500922
5.84023e-05
5.8368e-05
0.000501147
0.000859809
0.000866266
0.000499892
5.8393e-05
5.83607e-05
0.000500039
0.000859298
0.000866144
0.000498918
5.83838e-05
5.83531e-05
0.000499162
0.000858796
0.00086532
0.00049793
5.83745e-05
5.83459e-05
0.000498088
0.000858152
0.000865074
0.00049701
5.83659e-05
5.83385e-05
0.000497256
0.000857547
0.000864158
0.000496072
5.83572e-05
5.83316e-05
0.000496236
0.000856821
0.000863823
0.000495206
5.83491e-05
5.83247e-05
0.000495459
0.000856143
0.000862834
0.000494323
5.83411e-05
5.83184e-05
0.000494493
0.000855364
0.00086245
0.000493505
5.83333e-05
5.83115e-05
0.000493773
0.000854647
0.000861419
0.000492678
5.83254e-05
5.83052e-05
0.000492862
0.000853815
0.000861015
0.000491913
5.83179e-05
5.82985e-05
0.000492197
0.000853091
0.000859948
0.000491142
5.83104e-05
5.82923e-05
0.000491342
0.000852245
0.000859532
0.000490433
5.83032e-05
5.82858e-05
0.000490733
0.000851519
0.000858481
0.000489718
5.8296e-05
5.82798e-05
0.000489936
0.000850688
0.000858076
0.000489066
5.82892e-05
5.82736e-05
0.000489385
0.000849982
0.000857042
0.000488408
5.82826e-05
5.8268e-05
0.000488646
0.00084918
0.000856652
0.000487814
5.82764e-05
5.82623e-05
0.000488152
0.000848496
0.000855647
0.000487211
5.82704e-05
5.82574e-05
0.00048747
0.000847756
0.00085523
0.000486667
5.8265e-05
5.82524e-05
0.000487027
0.000847103
0.000854253
0.000486117
5.82598e-05
5.82481e-05
0.000486394
0.000846399
0.000853869
0.000485622
5.8255e-05
5.82437e-05
0.000485998
0.000845761
0.00085292
0.000485115
5.82505e-05
5.824e-05
0.00048541
0.000845077
0.000852565
0.000484662
5.82463e-05
5.82362e-05
0.000485056
0.000844463
0.000851644
0.000484199
5.82423e-05
5.8233e-05
0.000484509
0.000843814
0.000851324
0.000483786
5.82387e-05
5.82297e-05
0.000484194
0.000843239
0.000850443
0.00048336
5.82352e-05
5.82269e-05
0.000483686
0.000842628
0.000850158
0.000482986
5.82324e-05
5.82241e-05
0.000483408
0.000842087
0.000849308
0.000482596
5.82293e-05
5.82217e-05
0.000482936
0.000841507
0.000849052
0.000482255
5.82269e-05
5.82191e-05
0.000482693
0.000840993
0.000848227
0.0004819
5.8224e-05
5.82168e-05
0.000482253
0.000840441
0.000848
0.000481592
5.82217e-05
5.82145e-05
0.000482041
0.000839961
0.000847212
0.000481267
5.82191e-05
5.82124e-05
0.000481632
0.000839444
0.000847017
0.000480988
5.8217e-05
5.82101e-05
0.00048145
0.000838995
0.000846257
0.000480694
5.82145e-05
5.82082e-05
0.000481071
0.000838509
0.000846096
0.000480443
5.82126e-05
5.82063e-05
0.000480917
0.000838093
0.00084537
0.000480177
5.82105e-05
5.82047e-05
0.000480566
0.000837643
0.000845243
0.000479954
5.82091e-05
5.82033e-05
0.000480437
0.000837266
0.000844557
0.000479712
5.82075e-05
5.82025e-05
0.000480111
0.000836851
0.000844462
0.000479512
5.82069e-05
5.82019e-05
0.000480006
0.000836501
0.000843801
0.000479293
5.8207e-05
5.82022e-05
0.0004797
0.000836111
0.000843727
0.000479114
5.82076e-05
5.82029e-05
0.000479612
0.000835781
0.000843082
0.000478908
5.82088e-05
5.82046e-05
0.000479319
0.0008354
0.00084301
0.000478737
5.82106e-05
5.82066e-05
0.00047924
0.000835063
0.000842355
0.000478536
5.82128e-05
5.82093e-05
0.000478949
0.000834676
0.000842275
0.000478369
5.82151e-05
5.82117e-05
0.000478859
0.000834254
0.000841701
0.000478192
5.82158e-05
5.82126e-05
0.000478697
0.000834101
0.000841266
0.000478429
5.82573e-05
5.82826e-05
0.000478819
0.000833836
0.000841344
0.000478101
5.82873e-05
5.83123e-05
0.000478732
0.000833606
0.000841795
0.000478643
5.8411e-05
5.85261e-05
0.000479672
0.000834489
0.000845824
0.000480289
5.87836e-05
5.87867e-05
0.000482116
0.000838591
0.000852383
0.000483622
5.94074e-05
5.95067e-05
0.000485453
0.000845406
0.000875145
0.000494731
6.15056e-05
6.399e-05
0.000510625
0.000924992
0.000976277
0.000535245
6.71796e-05
0.00163079
0.0026361
0.00392943
0.00441806
0.00714869
0.0119971
0.0162513
0.0180651
0.0251399
0.038857
0.0507323
0.0661387
0.087441
0.116726
0.157223
0.211051
0.280419
0.36621
0.468772
0.587498
0.721014
0.867082
1.0229
1.18471
1.34881
1.50878
1.65994
1.79174
1.89973
1.97732
2.02571
2.04851
2.06837
2.10419
2.15473
2.21814
2.2916
2.37454
2.46518
2.56478
2.67395
2.79481
2.9295
3.08109
3.25338
3.45168
3.68335
3.95941
3.28481
2.13167
1.51847
1.22792
1.07478
0.972246
0.884256
0.80107
0.722866
0.650854
0.585035
0.524734
0.469401
0.418852
0.373098
0.332097
0.295696
0.263502
0.235124
0.210114
0.188085
0.168655
0.15153
0.136449
0.123162
0.111503
0.101269
0.0923032
0.0844853
0.0776619
0.0717343
0.0666019
0.0621592
0.0583429
0.0550709
0.0522838
0.0499254
0.0479456
0.0463035
0.0449594
0.0438842
0.0430476
0.0424296
0.0420061
0.041765
0.0416873
0.0417622
0.0419792
0.0423302
0.0428081
0.0434073
0.0441234
0.0449529
0.0458907
0.0469419
0.0480997
0.0493642
0.0507368
0.0522172
0.0538083
0.0555106
0.0573289
0.0592622
0.0613206
0.0634952
0.065804
0.0682449
0.0708239
0.0735463
0.076421
0.079458
0.0826622
0.0860451
0.0896083
0.0933723
0.0973417
0.10153
0.105953
0.110624
0.11556
0.120779
0.1263
0.132145
0.138337
0.144905
0.151877
0.159286
0.16717
0.175569
0.184532
0.194111
0.204366
0.215369
0.227199
0.239948
0.253728
0.268668
0.28492
0.302665
0.322126
0.343578
0.367356
0.393881
0.423689
0.457474
0.496148
0.540941
0.593555
0.656448
0.733345
0.830247
0.957606
1.13529
1.40195
1.83039
2.57947
4.12323
8.25397
19.0855
53.3947
35.2121
67.2893
24.8586
13.263
4.76671
2.34578
1.45392
1.08919
0.927069
0.843918
0.787836
0.738477
0.690384
0.643985
0.600961
0.562444
0.528677
0.499315
0.473817
0.451596
0.432137
0.415022
0.399927
0.386592
0.374812
0.364416
0.355265
0.347242
0.340251
0.334215
0.329074
0.324781
0.321303
0.318615
0.316706
0.315586
0.315267
0.315761
0.317111
0.319364
0.322586
0.326864
0.33231
0.339075
0.347348
0.357353
0.369291
0.383207
0.398786
0.415155
0.430996
0.445701
0.462512
0.493904
0.571097
0.764578
1.23559
2.27506
3.83097
3.07662
1.74724
0.649619
0.156315
0.066927
0.0224414
0.0191621
0.0176178
0.0157827
0.0149504
0.0137601
0.0132439
0.012383
0.0120298
0.0113706
0.0111069
0.0105834
0.0103793
0.0099484
0.00978518
0.00942013
0.00928674
0.00897048
0.00885941
0.00858075
0.00848613
0.00823782
0.0081555
0.00793198
0.00785946
0.00765611
0.00759153
0.00740484
0.00734682
0.00717415
0.00712165
0.00696099
0.0069132
0.00676294
0.00671916
0.0065779
0.00653752
0.00640404
0.00636654
0.00623983
0.00620477
0.00608396
0.00605095
0.0059354
0.00590407
0.00579313
0.00576325
0.00565633
0.00562766
0.0055242
0.00549651
0.00539598
0.00536908
0.00527101
0.0052447
0.00514866
0.00512276
0.0050284
0.00500279
0.00490992
0.00488442
0.00479276
0.00476723
0.00467656
0.00465093
0.00456106
0.00453525
0.00444607
0.00442003
0.00433146
0.0043052
0.00421724
0.00419083
0.00410359
0.00407711
0.00399077
0.00396439
0.00387927
0.00385324
0.00376995
0.00374453
0.0036641
0.00363957
0.00356294
0.00353969
0.00346799
0.00344654
0.00337964
0.00336378
0.00330056
0.00329111
0.00323284
0.00323167
0.00317924
0.00318744
0.0031417
0.00316027
0.00312188
0.00315068
0.00311958
0.00315766
0.00313331
0.00317952
0.00316043
0.00321258
0.00319734
0.00325146
0.00323897
0.00329333
0.00328178
0.00333543
0.00332383
0.00337608
0.00336333
0.00341367
0.00340022
0.00344752
0.00343408
0.00347814
0.00346423
0.00350546
0.00349103
0.00352956
0.00351453
0.00355094
0.00353504
0.00357221
0.00354716
0.00359397
0.00358721
0.00366057
0.00370982
0.00375209
0.00378696
0.00748221
0.0118994
0.0117619
0.00736888
0.00728928
0.011575
0.0111187
0.00712046
0.00686323
0.0103389
0.0183546
0.0170942
0.0169967
0.0169624
0.02153
0.0213212
0.0209736
0.0273844
0.0271787
0.0270123
0.0318656
0.0319368
0.0318653
0.0298606
0.0293784
0.018021
0.0111626
0.00699102
0.00679142
0.010215
0.0110259
0.00691511
0.00673948
0.0101385
0.0178822
0.0177695
0.0109363
0.00685914
0.00668095
0.0100563
0.0108449
0.00679867
0.00661882
0.00996835
0.0176818
0.0175631
0.0107494
0.00673519
0.00655318
0.00987601
0.0106515
0.00666848
0.0064838
0.00978164
0.0174531
0.0173374
0.0105527
0.00659925
0.00641253
0.00968854
0.0104564
0.00652879
0.00634073
0.0095994
0.0172351
0.017142
0.0103665
0.00645878