/*--------------------------------*- C++ -*----------------------------------*\
| =========                 |                                                 |
| \\      /  F ield         | OpenFOAM: The Open Source CFD Toolbox           |
|  \\    /   O peration     | Version:  v2006                                 |
|   \\  /    A nd           | Website:  www.openfoam.com                      |
|    \\/     M anipulation  |                                                 |
\*---------------------------------------------------------------------------*/
FoamFile
{
    version     2.0;
    format      ascii;
    class       volScalarField;
    location    "0.03";
    object      Co;
}
// * * * * * * * * * * * * * * * * * * * * * * * * * * * * * * * * * * * * * //

dimensions      [0 0 0 0 0 0 0];


internalField   nonuniform List<scalar> 
10108
(
0.00787714
0.00754225
0.00817889
0.008455
0.00855983
0.00835607
0.00836613
0.00828411
0.0082
0.00816799
0.00810687
0.00808559
0.00806414
0.00805072
0.00803531
0.00801967
0.00800292
0.0079854
0.00796711
0.00794806
0.00792827
0.00790779
0.00788665
0.00786487
0.00784249
0.00781955
0.00779608
0.00777212
0.00774772
0.00772291
0.00769775
0.00767228
0.00764655
0.00762061
0.00759452
0.00756833
0.0075421
0.00751588
0.00748973
0.00746371
0.00743786
0.00741225
0.00738694
0.00736197
0.0073374
0.00731328
0.00728967
0.00726663
0.00724421
0.00722246
0.00720139
0.0071808
0.0071591
0.00713972
0.0071223
0.00710951
0.0071052
0.00714556
0.0072251
0.00746123
0.00788172
0.00886107
0.0110485
0.0159708
0.0240663
0.0188529
0.016223
0.0160652
0.0157029
0.0150614
0.0149249
0.0144153
0.0129686
0.0140447
0.0147007
0.013634
0.0137037
0.0131397
0.0108689
0.0116263
0.0118371
0.0118478
0.0119099
0.0112616
0.010254
0.0111704
0.011428
0.0116374
0.0114542
0.0105311
0.0102778
0.0112944
0.0115338
0.011662
0.0114067
0.0103529
0.0102605
0.0113763
0.0116476
0.0116806
0.011406
0.0102282
0.0101474
0.0113192
0.0116247
0.0116421
0.01133
0.0100784
0.0100067
0.0112417
0.0115785
0.0115904
0.0112474
0.00993868
0.00987331
0.0111596
0.0115245
0.0115349
0.0111654
0.0098104
0.00974948
0.011078
0.0114681
0.0114773
0.0110842
0.00969094
0.00963335
0.0109972
0.0114097
0.0114176
0.0110033
0.00957781
0.0095229
0.0109168
0.0113495
0.0113563
0.0109227
0.00946975
0.00941687
0.0108364
0.0112876
0.0112933
0.010842
0.00936548
0.0093141
0.0107559
0.0112239
0.0112285
0.0107609
0.00926403
0.00921374
0.0106747
0.0111584
0.0111618
0.0106791
0.00916461
0.00911509
0.0105928
0.011091
0.0110931
0.0105964
0.00906661
0.00901757
0.0105098
0.0110216
0.0110224
0.0105125
0.00896946
0.00892064
0.0104256
0.01095
0.0109494
0.0104271
0.00887264
0.00882378
0.0103397
0.0108762
0.010874
0.01034
0.00877565
0.00872653
0.0102519
0.0107997
0.0107959
0.0102509
0.00867807
0.00862848
0.010162
0.0107205
0.010715
0.0101594
0.00857949
0.00852925
0.0100696
0.0106384
0.0106309
0.0100653
0.00847952
0.00842845
0.00997442
0.010553
0.0105435
0.00996829
0.0083778
0.00832571
0.00987623
0.0104642
0.0104526
0.00986807
0.00827398
0.0082207
0.0097747
0.0103717
0.0103577
0.00976434
0.00816771
0.00811306
0.00966953
0.0102752
0.0102587
0.00965677
0.0080586
0.00800239
0.00956036
0.0101744
0.0101553
0.00954502
0.00794628
0.00788831
0.00944684
0.010069
0.0100471
0.0094287
0.00783034
0.0077704
0.00932859
0.00995872
0.00993371
0.00930743
0.00771036
0.00764824
0.00920518
0.00984307
0.00981477
0.00918076
0.0075859
0.00752138
0.00907619
0.00972167
0.00968984
0.00904824
0.00745653
0.0073894
0.00894115
0.00959407
0.00955846
0.00890942
0.00732183
0.00725188
0.00879962
0.00945982
0.0094202
0.00876389
0.00718142
0.0071085
0.00865123
0.00931855
0.00927471
0.00861129
0.00703499
0.00695894
0.00849562
0.00916989
0.00912164
0.00845127
0.00688223
0.00680292
0.00833246
0.0090135
0.00896062
0.0082835
0.00672289
0.00664021
0.00816143
0.00884903
0.00879133
0.00810769
0.00655676
0.00647063
0.00798227
0.00867615
0.00861347
0.0079236
0.00638372
0.00629414
0.00779481
0.00849463
0.00842685
0.00773116
0.00620381
0.00611088
0.00759904
0.00830431
0.00823138
0.00753044
0.00601729
0.00592123
0.00739515
0.00810522
0.00802722
0.00732176
0.0058247
0.00572592
0.00718361
0.00789761
0.00781473
0.00710577
0.00562694
0.00552608
0.00696527
0.00768202
0.00759465
0.00688354
0.00542541
0.00532336
0.00674147
0.00745941
0.00736813
0.00665666
0.00522206
0.00512009
0.006514
0.00723101
0.00713713
0.00642759
0.00501971
0.00491943
0.00628585
0.00699946
0.00690418
0.00619933
0.00482168
0.00472502
0.00606025
0.00676734
0.00667242
0.00597566
0.00463203
0.00454129
0.0058414
0.00653832
0.00644591
0.00576113
0.00445546
0.00437314
0.00563417
0.00631679
0.00622937
0.00556087
0.00429702
0.00422566
0.0054438
0.00610771
0.0060283
0.00538043
0.00416178
0.00410363
0.00527576
0.00591668
0.00584828
0.00522244
0.00405201
0.00401077
0.00513506
0.00574664
0.00569741
0.00509907
0.00397656
0.00394867
0.00502507
0.00560765
0.00557356
0.00500481
0.00392975
0.00391659
0.00494685
0.00549934
0.00548035
0.00494242
0.00391287
0.00392153
0.0049257
0.00543762
0.00541479
0.00491798
0.00393349
0.00395131
0.00493181
0.00541429
0.00539942
0.00491871
0.00397074
0.00399458
0.00495459
0.00542585
0.00542009
0.00494824
0.00401892
0.00404622
0.00498925
0.00544571
0.00544624
0.00498663
0.00407287
0.00410138
0.00503044
0.00547459
0.00547729
0.00502966
0.0041285
0.00415658
0.00507452
0.00550688
0.00550782
0.00507412
0.00418279
0.0042095
0.0051191
0.00554349
0.00554203
0.00511837
0.00423418
0.00425913
0.00516296
0.00557791
0.00557913
0.00516145
0.00428204
0.004305
0.00520524
0.00560933
0.00561302
0.00520279
0.00432613
0.00434729
0.00524573
0.00564297
0.00564339
0.00524214
0.00436664
0.00438838
0.00528434
0.00567861
0.00567516
0.00527924
0.00440155
0.00441502
0.00530992
0.00569859
0.00566899
0.00527477
0.00439812
0.00441228
0.00529962
0.00567804
0.00558197
0.00517221
0.00428844
0.00439718
0.00525868
0.00562696
0.00548621
0.00503243
0.00413665
0.00456528
0.00541619
0.00571773
0.00555481
0.00511226
0.00421423
0.00503757
0.0059163
0.00619134
0.00659449
0.00597209
0.00484863
0.00536865
0.00643035
0.00689011
0.00750155
0.0078005
0.00786655
0.00801987
0.00799904
0.00806857
0.00815007
0.00822861
0.00829933
0.00836349
0.00840788
0.00845472
0.008489
0.00851867
0.00858787
0.00870469
0.00898962
0.00944894
0.0104971
0.0129682
0.0188403
0.0278508
0.0215403
0.0165308
0.0156734
0.0165293
0.0155353
0.0196184
0.0337606
0.0470863
0.0290594
0.0214734
0.0139165
0.010465
0.0144667
0.0166082
0.0147669
0.0135206
0.010243
0.00933333
0.0124028
0.0135521
0.0133458
0.0123606
0.00935459
0.00919636
0.0123738
0.0136046
0.0134489
0.0122796
0.00922666
0.00923733
0.0122955
0.0135039
0.0135398
0.0123777
0.00922256
0.00921344
0.0123742
0.0135563
0.013628
0.0124129
0.0092839
0.0092933
0.0123508
0.013535
0.0136746
0.01247
0.0093597
0.00935964
0.0124062
0.0135743
0.0137202
0.0125306
0.00943834
0.00943828
0.0124637
0.0136153
0.0137688
0.0125943
0.00952094
0.00952088
0.0125245
0.0136591
0.013819
0.0126605
0.00960707
0.00960701
0.0125873
0.0137042
0.0138727
0.0127304
0.00969767
0.00969761
0.0126537
0.0137383
0.0139431
0.0128035
0.0097925
0.00979245
0.0127227
0.013802
0.0139894
0.0128814
0.00989287
0.00989283
0.0127961
0.0138411
0.0140681
0.012964
0.00999886
0.00999882
0.0128734
0.0139108
0.014124
0.0130533
0.0101122
0.0101121
0.0129564
0.0139566
0.0142151
0.0131499
0.0102337
0.0102336
0.013045
0.0140342
0.0142857
0.0132566
0.0103661
0.0103661
0.0131418
0.0141032
0.014382
0.0133763
0.0105126
0.0105126
0.0132472
0.0141768
0.0144932
0.0135138
0.0106796
0.0106796
0.0133646
0.0142575
0.0146263
0.0136769
0.0108769
0.010877
0.0134964
0.0143441
0.0147892
0.0138767
0.011121
0.0111211
0.0136469
0.0144374
0.0149988
0.0141329
0.0114416
0.0114812
0.0138726
0.0145509
0.0152584
0.0145069
0.0118898
0.0119833
0.0142458
0.0148237
0.015552
0.0147942
0.0123782
0.0124059
0.0144933
0.0149895
0.0156519
0.0149301
0.0126946
0.0127075
0.0146738
0.0150823
0.0155832
0.0148637
0.012785
0.0129413
0.0147674
0.0151512
0.0156049
0.0149366
0.0130037
0.013016
0.0147404
0.0151702
0.0158304
0.0152142
0.0133418
0.0133363
0.0148924
0.0153714
0.0160595
0.0155901
0.0139473
0.0139024
0.0154372
0.0158767
0.0161345
0.0159287
0.0145101
0.0141911
0.0145391
0.0138129
0.0416191
0.0311182
0.0197729
0.0159258
0.0226813
0.0295856
0.0187152
0.0172544
0.0147038
0.0140613
0.015808
0.0164781
0.0158138
0.0154628
0.0140653
0.0136663
0.0149479
0.0152673
0.0147876
0.0148165
0.0139098
0.0131903
0.0128422
0.0116512
0.0379262
0.0288639
0.0187983
0.0151208
0.020163
0.0255682
0.0157116
0.0149515
0.0132466
0.0126126
0.0131414
0.0129265
0.00969365
0.0111042
0.0117803
0.0163041
0.0244359
0.0315034
0.0199301
0.015972
0.012244
0.010312
0.0106828
0.0106297
0.00768424
0.00765632
0.0082567
0.0102327
0.0146531
0.0177449
0.012374
0.00978174
0.00570319
0.0123303
0.0181602
0.0211774
0.0325982
0.0301971
0.0252145
0.034591
0.0392897
0.0430934
0.0424651
0.0411791
0.0373988
0.0403565
0.0537102
0.0630015
0.066071
0.0542537
0.039046
0.0334565
0.0389289
0.0403636
0.0654454
0.0506359
0.0350996
0.0366764
0.0552059
0.0718417
0.0357096
0.0341917
0.0295545
0.0317886
0.0462833
0.0605383
0.0689124
0.0524219
0.0342669
0.0277804
0.0323171
0.0337847
0.057208
0.0439432
0.0307619
0.0330846
0.0507921
0.0670038
0.0324876
0.0310153
0.0267843
0.0296073
0.0426873
0.0557552
0.0650325
0.0495831
0.0324058
0.026346
0.0305344
0.0319517
0.054397
0.0418279
0.029281
0.0321748
0.0490647
0.0644864
0.031412
0.0300797
0.0260439
0.0290604
0.0414522
0.0538605
0.0636064
0.0482594
0.0318403
0.0258932
0.0299648
0.0313153
0.0533591
0.0410201
0.0287949
0.0317817
0.0482271
0.0632422
0.0310698
0.0298034
0.0258595
0.0288738
0.041124
0.0534965
0.0629442
0.0482597
0.031766
0.0259952
0.0299795
0.0312651
0.0537779
0.0413276
0.0289924
0.0318588
0.0482955
0.0630604
0.0314151
0.0301927
0.0261975
0.0293943
0.0420119
0.054693
0.0639208
0.0490289
0.0324469
0.02667
0.0309984
0.0322421
0.0570693
0.0436706
0.0307064
0.0327592
0.0488604
0.063502
0.0471493
0.0395705
0.0296603
0.0324564
0.0470673
0.0587609
0.0339397
0.0324132
0.0279825
0.0310816
0.0441244
0.0571431
0.0650401
0.0502196
0.0335678
0.0278036
0.0320923
0.0333849
0.0594924
0.0457215
0.0322983
0.0339994
0.0504068
0.0654965
0.0489122
0.041092
0.0308841
0.0341137
0.04897
0.0605809
0.0354059
0.0339262
0.0293544
0.0328366
0.0471282
0.0614462
0.0660879
0.0508472
0.0344122
0.031864
0.0425068
0.05099
0.0619501
0.050023
0.0351704
0.0304241
0.0351575
0.0366841
0.063077
0.0484557
0.0338563
0.0358729
0.0527833
0.0680656
0.0523177
0.0438207
0.0331128
0.0366085
0.0518577
0.0639765
0.0379485
0.0362532
0.0313201
0.0354322
0.0505316
0.0654985
0.0701031
0.054816
0.0374478
0.034799
0.0460819
0.0549011
0.0655548
0.0533845
0.0376703
0.0326178
0.0376073
0.0391868
0.0677542
0.0521826
0.0365679
0.0387012
0.0566772
0.0725608
0.0563931
0.0473959
0.0359069
0.0390032
0.0549458
0.0677922
0.0403053
0.0387091
0.0337108
0.0373924
0.0540365
0.0707091
0.0745639
0.0577802
0.0395936
0.0375413
0.0505538
0.0609294
0.0687942
0.0558215
0.0398926
0.0377196
0.0499647
0.0594459
0.0691857
0.0563891
0.0403297
0.03543
0.0413305
0.0433694
0.0744126
0.0575332
0.0408727
0.0421766
0.0608352
0.0772909
0.0638516
0.0531829
0.0396407
0.0415416
0.0580349
0.0712764
0.0620094
0.052047
0.0393402
0.0426169
0.059387
0.0724395
0.0450637
0.0432002
0.037306
0.0428992
0.060361
0.0780664
0.0808941
0.0633946
0.0440864
0.0415491
0.0557305
0.0670627
0.0742074
0.0606221
0.0437775
0.0419397
0.0563742
0.0678543
0.0745366
0.0609192
0.0442012
0.0421214
0.055847
0.0666568
0.075609
0.0623878
0.045316
0.039326
0.0457158
0.0477982
0.0821514
0.0635457
0.0453904
0.0467486
0.066534
0.0843101
0.0707418
0.0590465
0.0441798
0.0460426
0.0638676
0.0778982
0.0712029
0.0592764
0.0441841
0.0463004
0.0638341
0.078138
0.0695403
0.058308
0.0440901
0.0477656
0.0658486
0.0799819
0.0504238
0.0482132
0.0415993
0.0481243
0.0675351
0.0870585
0.0890032
0.0704262
0.0492472
0.0464572
0.0622552
0.0747517
0.081664
0.0671391
0.0485949
0.0469647
0.0629634
0.0756531
0.0819154
0.0675967
0.0494266
0.047498
0.0636734
0.0765934
0.0829424
0.0683987
0.0502535
0.0476011
0.062787
0.0747727
0.0846514
0.0698965
0.0511677
0.0446726
0.0518986
0.0545227
0.092793
0.0719136
0.0512401
0.0525421
0.0748134
0.0945577
0.079858
0.0666333
0.0498905
0.0517139
0.0710461
0.0866073
0.0807122
0.0672181
0.0501757
0.0523055
0.071214
0.0863825
0.0812596
0.0675193
0.0503739
0.0533568
0.0727513
0.0882057
0.079304
0.0665428
0.0504026
0.0543999
0.0745036
0.0902406
0.0574901
0.054951
0.0476045
0.0536319
0.07648
0.0988813
0.100516
0.0793062
0.0550085
0.0528262
0.070621
0.084853
0.0926314
0.0756875
0.0551292
0.053524
0.0717285
0.0860104
0.0920624
0.0760491
0.0558626
0.0536809
0.0720777
0.0867817
0.0936228
0.0772149
0.0566093
0.0538921
0.0711166
0.0847008
0.0955376
0.0789461
0.0577236
0.0507489
0.0588591
0.0616412
0.105031
0.0814302
0.0580378
0.0594805
0.0843374
0.106506
0.0903714
0.0753618
0.0566255
0.058831
0.0805929
0.0980957
0.0911774
0.0760854
0.0568071
0.0594132
0.0807928
0.0974784
0.0919608
0.076627
0.0573804
0.0605165
0.0820334
0.099389
0.0894968
0.0752362
0.0571115
0.0616085
0.0843603
0.101696
0.06456
0.0618411
0.0538048
0.0605674
0.0864872
0.111948
0.114313
0.0901146
0.0627376
0.0600796
0.0802842
0.0960918
0.104553
0.0859326
0.0625828
0.0603666
0.08083
0.0969247
0.104358
0.0861579
0.0633957
0.0609045
0.0815639
0.0980645
0.106222
0.0876546
0.0645588
0.0610959
0.0804048
0.0956487
0.108354
0.0896263
0.0658332
0.057795
0.0665965
0.0695585
0.119214
0.092034
0.0646531
0.0667025
0.0956378
0.121931
0.102136
0.0851758
0.0636151
0.0665477
0.0915716
0.111275
0.103198
0.0863304
0.0645916
0.0680838
0.0923952
0.110841
0.104134
0.0868998
0.0652562
0.0691513
0.0936494
0.113363
0.101029
0.0852118
0.0649964
0.0701365
0.0955418
0.115567
0.0733206
0.070214
0.06111
0.0694335
0.0978418
0.12632
0.129259
0.101645
0.0714444
0.068131
0.0907842
0.108731
0.118986
0.0979532
0.0714417
0.0687635
0.0915276
0.109477
0.119272
0.0980269
0.072033
0.068719
0.0902987
0.107194
0.121646
0.100543
0.0736591
0.0644305
0.0740099
0.0771061
0.133187
0.103251
0.0733679
0.0761414
0.108666
0.137442
0.1143
0.0958138
0.0723496
0.0756757
0.103514
0.125733
0.11427
0.0958846
0.0724342
0.0766966
0.104183
0.126145
0.111417
0.0941919
0.0720963
0.078005
0.106745
0.129547
0.0812519
0.0781304
0.0684057
0.0777004
0.109173
0.14033
0.145494
0.115005
0.080455
0.0752981
0.0998859
0.119229
0.134429
0.110457
0.080213
0.0752508
0.0982426
0.116046
0.135622
0.112096
0.0818022
0.0716047
0.0819681
0.0853333
0.147269
0.114281
0.0813953
0.0840352
0.119779
0.152394
0.125019
0.104702
0.0792471
0.083778
0.115094
0.140745
0.120845
0.10281
0.0791735
0.0852683
0.117583
0.142152
0.0877427
0.0846561
0.0743832
0.0847271
0.118473
0.152528
0.159984
0.125696
0.0882468
0.0820922
0.106679
0.125945
0.149506
0.122476
0.0881106
0.0766739
0.0862202
0.0886109
0.156782
0.121631
0.0857521
0.0913573
0.131936
0.167456
0.129578
0.110651
0.0850844
0.0925185
0.128366
0.15659
0.0917632
0.0894734
0.0795441
0.0897403
0.12586
0.162465
0.174202
0.136492
0.0949199
0.087983
0.114097
0.134538
0.163116
0.133467
0.0958876
0.0835127
0.0931874
0.0952069
0.170409
0.132821
0.0943677
0.0989109
0.143188
0.18369
0.137855
0.117515
0.0910068
0.0996636
0.139119
0.170758
0.0984499
0.0963594
0.0857984
0.0986244
0.137404
0.176275
0.190854
0.149278
0.103835
0.0951885
0.122515
0.143626
0.177337
0.144922
0.103736
0.0879568
0.0977861
0.0997679
0.171876
0.135259
0.0988623
0.109401
0.157388
0.199966
0.100506
0.0996973
0.0911007
0.100821
0.138501
0.176172
0.206629
0.16094
0.110274
0.0905469
0.0986232
0.0993391
0.180627
0.142193
0.102722
0.115631
0.167741
0.214075
0.104067
0.103838
0.0953161
0.1058
0.145324
0.184607
0.221714
0.172511
0.117673
0.0961254
0.104417
0.103849
0.191024
0.152309
0.112683
0.122214
0.178395
0.22925
0.106634
0.105809
0.0974778
0.109391
0.147765
0.18666
0.23749
0.186118
0.127708
0.0973126
0.0973377
0.0915881
0.126866
0.118075
0.101992
0.108286
0.147129
0.189285
0.248322
0.191608
0.129907
0.0976961
0.0957927
0.0887708
0.110581
0.107254
0.0976807
0.101932
0.116068
0.125781
0.193588
0.154098
0.113579
0.124899
0.188926
0.25
0.0857295
0.0899603
0.090111
0.0914993
0.0992105
0.100727
0.0945196
0.0911941
0.0830044
0.0804124
0.0903218
0.0931109
0.0841526
0.0814781
0.0717245
0.0665515
0.0779611
0.08103
0.0760765
0.0727894
0.0608798
0.0570802
0.0705676
0.0752178
0.0711522
0.0667444
0.053487
0.0509194
0.0651838
0.0705898
0.0670153
0.0620343
0.0482205
0.0464327
0.0610199
0.0670035
0.064
0.058359
0.0443334
0.0430979
0.0578271
0.0643548
0.0616204
0.0554852
0.0413807
0.0404287
0.0550876
0.0620498
0.0594847
0.052954
0.0389677
0.0382248
0.0527354
0.0599989
0.0575413
0.050769
0.0369693
0.036413
0.0506388
0.0580822
0.0557687
0.0488503
0.0353477
0.0349501
0.0488882
0.0564033
0.0541947
0.0472462
0.0340405
0.0337789
0.0473537
0.0548618
0.0527724
0.0458491
0.0330035
0.0328504
0.0460895
0.0535248
0.051516
0.0446888
0.0321808
0.0321203
0.0449595
0.0522864
0.0503921
0.0437314
0.0316066
0.0315778
0.0440299
0.0512125
0.0495491
0.0430073
0.0312129
0.0311871
0.0432011
0.0502253
0.0488748
0.0424331
0.03094
0.0309169
0.0425481
0.0493996
0.0482561
0.0419069
0.0307558
0.0307348
0.0419636
0.0486554
0.047754
0.0415074
0.0306402
0.0306214
0.0415195
0.0480476
0.0472941
0.0411376
0.0305747
0.0305576
0.0411159
0.0474986
0.0469347
0.0408765
0.0305502
0.0305342
0.04083
0.047067
0.0466064
0.0406314
0.0305549
0.0305399
0.0405685
0.0466812
0.0463667
0.0404798
0.0305827
0.0305687
0.0404013
0.0463883
0.0461432
0.0403312
0.030629
0.0306158
0.0402449
0.0461272
0.045995
0.0402629
0.0306888
0.0306762
0.0401659
0.0459403
0.0458503
0.0401866
0.0307606
0.0307486
0.0400863
0.0457721
0.0457696
0.0401795
0.0308405
0.0308291
0.0400712
0.0456622
0.0456815
0.0401544
0.0309283
0.0309174
0.0400868
0.0456514
0.0456723
0.0402313
0.0310513
0.0309791
0.0399976
0.0454374
0.0456075
0.0402042
0.0311184
0.0311086
0.0400924
0.0454575
0.0456107
0.0402722
0.0312192
0.0312098
0.0401553
0.0454444
0.0455929
0.0403101
0.0313244
0.0313155
0.0401957
0.0454278
0.0456231
0.0403972
0.0314297
0.0314211
0.0402807
0.0454437
0.0456252
0.040452
0.0315379
0.0315299
0.040339
0.0454518
0.0456722
0.0405518
0.0316447
0.031637
0.0404376
0.0454877
0.0456868
0.0406152
0.0317526
0.0317454
0.0405084
0.0455138
0.045744
0.0407223
0.0318573
0.0318504
0.0406123
0.045562
0.0457665
0.0407879
0.0319624
0.031956
0.0406863
0.0455979
0.0458283
0.0408948
0.032063
0.0320568
0.0407924
0.0456558
0.0458543
0.0409579
0.0321612
0.0321555
0.040864
0.0456951
0.0459186
0.0410622
0.0322547
0.0322493
0.0409683
0.0457577
0.0459457
0.0411209
0.0323449
0.0323398
0.0410357
0.0457991
0.0460102
0.0412197
0.03243
0.0324253
0.0411352
0.0458637
0.0460377
0.0412726
0.0325111
0.0325067
0.0411967
0.0459047
0.0461006
0.0413649
0.0325865
0.0325823
0.0412903
0.0459687
0.046128
0.0414125
0.0326581
0.0326542
0.0413454
0.0460079
0.0461898
0.0414994
0.0327246
0.032721
0.0414336
0.0460709
0.0462159
0.0415417
0.0327876
0.0327842
0.0414827
0.0461078
0.0462758
0.0416234
0.032846
0.0328428
0.0415654
0.046169
0.0463001
0.0416606
0.0329012
0.0328982
0.0416087
0.0462031
0.0463581
0.0417374
0.0329525
0.0329497
0.0416862
0.0462619
0.0463808
0.0417697
0.033001
0.0329984
0.0417241
0.0462939
0.0464376
0.0418416
0.033046
0.0330435
0.0417966
0.0463515
0.0464588
0.0418695
0.0330887
0.0330864
0.0418293
0.0463809
0.0465131
0.041937
0.0331285
0.0331263
0.041897
0.0464355
0.0465322
0.0419615
0.0331662
0.0331641
0.041926
0.046461
0.0465834
0.0420257
0.0332014
0.0331994
0.0419904
0.046513
0.0465995
0.0420464
0.0332349
0.033233
0.0420148
0.0465355
0.0466481
0.0421068
0.0332665
0.0332647
0.0420746
0.0465843
0.0466615
0.0421234
0.033297
0.0332953
0.0420943
0.0466035
0.046707
0.0421791
0.0333251
0.0333235
0.0421506
0.0466499
0.0467177
0.0421918
0.0333519
0.0333503
0.0421663
0.0466662
0.0467606
0.0422439
0.0333764
0.0333749
0.0422187
0.0467097
0.046769
0.0422533
0.0333998
0.0333984
0.0422308
0.046723
0.0468097
0.0423022
0.0334213
0.03342
0.0422798
0.0467639
0.0468161
0.0423087
0.0334421
0.0334408
0.0422887
0.0467748
0.046855
0.0423551
0.0334613
0.0334601
0.042335
0.0468135
0.0468597
0.0423593
0.0334799
0.0334788
0.0423412
0.0468223
0.0468969
0.0424034
0.0334972
0.0334961
0.0423851
0.0468592
0.0469
0.0424053
0.033514
0.0335129
0.0423891
0.0468661
0.0469356
0.0424474
0.0335295
0.0335285
0.0424308
0.0469012
0.0469372
0.0424474
0.0335447
0.0335438
0.0424327
0.0469064
0.0469713
0.0424875
0.0335587
0.0335578
0.0424726
0.04694
0.0469716
0.0424857
0.0335724
0.0335716
0.0424725
0.0469436
0.0470043
0.0425242
0.0335851
0.0335842
0.0425106
0.0469758
0.0470033
0.0425207
0.0335975
0.0335967
0.0425087
0.0469779
0.0470346
0.0425575
0.0336088
0.0336081
0.0425452
0.0470087
0.0470323
0.0425525
0.03362
0.0336193
0.0425417
0.0470094
0.0470623
0.0425877
0.0336301
0.0336294
0.0425766
0.0470389
0.0470587
0.0425811
0.03364
0.0336393
0.0425715
0.0470381
0.0470875
0.042615
0.0336489
0.0336483
0.0426049
0.0470662
0.0470829
0.0426071
0.0336579
0.0336573
0.0425984
0.0470642
0.0471108
0.0426398
0.033666
0.0336654
0.0426306
0.0470912
0.0471054
0.042631
0.0336742
0.0336737
0.0426229
0.0470881
0.0471329
0.0426631
0.0336819
0.0336814
0.0426543
0.0471143
0.0471272
0.0426538
0.0336899
0.0336895
0.042646
0.0471105
0.0471548
0.0426858
0.0336977
0.0336973
0.042677
0.0471363
0.0471494
0.0426767
0.0337062
0.0337058
0.0426686
0.0471325
0.0471775
0.0427092
0.0337146
0.0337142
0.0427
0.0471586
0.047173
0.0427007
0.0337238
0.0337235
0.0426921
0.0471552
0.047202
0.0427341
0.0337333
0.033733
0.0427242
0.047182
0.0471984
0.0427266
0.0337436
0.0337434
0.0427174
0.0471797
0.0472277
0.0427603
0.0337538
0.0337536
0.0427504
0.0472076
0.0472239
0.0427527
0.0337643
0.0337641
0.0427439
0.0472058
0.0472524
0.0427858
0.033774
0.0337739
0.0427767
0.0472337
0.0472476
0.0427771
0.0337834
0.0337833
0.0427694
0.0472314
0.0472756
0.0428094
0.0337921
0.033792
0.0428013
0.0472573
0.0472875
0.0428227
0.0338013
0.0338012
0.0427933
0.0472382
0.0472833
0.0428294
0.0338362
0.0338186
0.0427883
0.0472374
0.0473566
0.0428476
0.0338242
0.0337391
0.0427051
0.047131
0.0473379
0.0428753
0.0338111
0.0335399
0.0423899
0.0468107
0.0476474
0.0432154
0.0341327
0.0336698
0.0426016
0.0470204
0.0501663
0.0459025
0.0365722
0.036389
0.0464768
0.0519594
0.0629413
0.0564002
0.0439048
0.0447734
0.0598015
0.0700044
0.0724093
0.0638805
0.0494657
0.0799116
0.0868641
0.0956559
0.118165
0.0734029
0.058338
0.0520456
0.0620645
0.0430334
0.0294002
0.0236262
0.020922
0.0198335
0.0192174
0.0190374
0.0189364
0.0189353
0.0189394
0.0189576
0.0189719
0.0189847
0.0189959
0.0190205
0.0190346
0.0191498
0.0192016
0.0193776
0.019561
0.0195393
0.0200191
0.0197742
0.0191281
0.0176326
0.0174727
0.0153526
0.0158399
0.0149408
0.0155054
0.0153982
0.0156901
0.0157168
0.0158022
0.0158054
0.0158201
0.0158145
0.0158086
0.0158102
0.0158124
0.015803
0.0158087
0.0157974
0.0158003
0.0157863
0.0157873
0.0157716
0.0157672
0.0157579
0.0157477
0.0157362
0.0157235
0.0157093
0.0156933
0.0156754
0.0156551
0.0156363
0.0156028
0.0155818
0.0155415
0.015513
0.0154647
0.015427
0.0153688
0.0153164
0.0152579
0.0151815
0.0151131
0.015026
0.0149313
0.0148396
0.014725
0.0146131
0.0144927
0.0143536
0.0142207
0.0140662
0.0139185
0.0137506
0.0135905
0.0134118
0.013242
0.0130555
0.0128759
0.0126911
0.0125049
0.0123182
0.0121317
0.0119459
0.0117614
0.0115787
0.0113984
0.0112208
0.0110463
0.0108778
0.0107051
0.0105466
0.0103819
0.0102314
0.0100752
0.00993329
0.00978592
0.00965259
0.00951652
0.00938481
0.00926439
0.00913911
0.00902712
0.00891029
0.00880643
0.00869784
0.00860179
0.00850099
0.00841033
0.00832117
0.00823555
0.00815339
0.00807473
0.00799892
0.0079263
0.00785711
0.00779068
0.00772712
0.00766633
0.00760823
0.00755273
0.00749975
0.00744921
0.00740102
0.00735511
0.00731141
0.00726984
0.00723033
0.00719284
0.00715742
0.00712351
0.00709145
0.00706151
0.00703304
0.00700623
0.00698106
0.00695743
0.00693531
0.00691467
0.00689547
0.00687767
0.00686125
0.00684617
0.00683242
0.00681997
0.00680848
0.00679415
0.00678299
0.00673982
0.0067218
0.00658852
0.00663585
0.00639031
0.00677449
0.00656565
0.0074746
0.00716557
0.00710444
0.00710322
0.00710551
0.00708929
0.00705364
0.00701483
0.0069816
0.00695771
0.00694081
0.00692727
0.00691526
0.00690389
0.00689163
0.00687846
0.00686467
0.0068501
0.00683475
0.00681865
0.00680186
0.00678442
0.00676634
0.00674767
0.00672845
0.00670869
0.00668843
0.00666771
0.00664641
0.00662475
0.00660292
0.0065808
0.00655845
0.00653591
0.00651321
0.00649042
0.00646757
0.00644471
0.00642188
0.00639914
0.00637652
0.00635422
0.00633212
0.00631011
0.00628837
0.00626697
0.00624593
0.00622546
0.00620521
0.00618527
0.00616702
0.00614844
0.0061311
0.00611963
0.00611674
0.0061383
0.00619877
0.00630579
0.00644989
0.00655343
0.00642694
0.00634051
0.013428
0.0115353
0.0114462
0.0116166
0.0116099
0.0117362
0.0117144
0.0117703
0.0117243
0.0117636
0.0117075
0.0117405
0.0116809
0.0117114
0.0116499
0.0116783
0.0116149
0.0116415
0.0115766
0.0116014
0.0115351
0.0115581
0.0114904
0.0115118
0.0114427
0.0114624
0.0113921
0.0114101
0.0113384
0.0113547
0.0112818
0.0112963
0.011222
0.0112347
0.011159
0.0111698
0.0110926
0.0111014
0.0110227
0.0110294
0.0109491
0.0109535
0.0108715
0.0108735
0.0107898
0.0107893
0.0107037
0.0107005
0.0106129
0.010607
0.0105172
0.0105083
0.0104163
0.0104042
0.0103097
0.0102942
0.0101972
0.010178
0.0100783
0.0100552
0.00995253
0.00992541
0.00981964
0.00978825
0.00967929
0.00964343
0.00953114
0.00949063
0.00937489
0.00932954
0.00921025
0.00915992
0.00903702
0.00898159
0.00885508
0.00879453
0.00866448
0.00859889
0.00846549
0.00839506
0.00825866
0.00818376
0.0080449
0.00796609
0.00782552
0.00774399
0.00760278
0.00751959
0.00737907
0.00729579
0.00715764
0.00707617
0.00694237
0.0068649
0.00673771
0.00666681
0.00654843
0.00649002
0.00637337
0.00633577
0.00622907
0.00620424
0.00611149
0.00610009
0.00602105
0.00601991
0.00597084
0.00597391
0.00595454
0.00595253
0.00594804
0.00594364
0.00595378
0.0059468
0.00596612
0.00595863
0.00598584
0.00597709
0.00600562
0.00600091
0.00602451
0.00602334
0.00604736
0.00604053
0.00607685
0.00606389
0.00608817
0.00605982
0.00606289
0.00598701
0.00597809
0.00585941
0.00594797
0.00592338
0.0063933
0.00699694
0.00733192
0.00748623
0.00692656
0.00664099
0.00628801
0.00650333
0.00756485
0.00635827
0.00614653
0.00730608
0.0031866
0.00755638
0.0072959
0.00758619
0.00765263
0.00746825
0.00761433
0.0078509
0.00762145
0.00777017
0.00785624
0.00771061
0.00790718
0.00313358
0.00330573
0.00345995
0.00772306
0.00638937
0.00637612
0.00767207
0.00783293
0.00648314
0.00644254
0.00777506
0.00352637
0.00354602
0.00785785
0.00650663
0.00644589
0.00778292
0.00784451
0.00649426
0.0064305
0.00777051
0.00355
0.0035506
0.00784076
0.00647943
0.00641938
0.00776078
0.0078304
0.00646557
0.00640731
0.00775461
0.00354652
0.00354541
0.00782181
0.00645306
0.00639802
0.00775279
0.0078149
0.00644262
0.00639308
0.00775706
0.00354272
0.00354131
0.0078099
0.00643511
0.00639413
0.00776964
0.0078081
0.00643134
0.00640871
0.00779458
0.0035471
0.00356353
0.00781131
0.00643205
0.00643749
0.00783707
0.00782154
0.00643923
0.00648472
0.0079011
0.00358536
0.00361953
0.00784108
0.00645612
0.00655316
0.00798921
0.00787456
0.00649825
0.00664588
0.00810599
0.00366437
0.00372181
0.00792703
0.00656916
0.00676483
0.00825323
0.00800334
0.00666355
0.00691005
0.0084303
0.00379214
0.00387533
0.00810736
0.00678273
0.00707921
0.00863793
0.00823994
0.00692928
0.00726567
0.00886038
0.00396749
0.00406804
0.00840224
0.00709506
0.00747046
0.00910153
0.00859533
0.00728308
0.00768585
0.00935156
0.0041745
0.00428333
0.00881753
0.00749314
0.00790621
0.00960584
0.00904984
0.00770621
0.00812801
0.00985996
0.00439318
0.00450242
0.00928774
0.00791898
0.00834813
0.0101106
0.00952738
0.00812881
0.00856409
0.0103552
0.00460973
0.0047144
0.00976541
0.00833414
0.00877501
0.0105918
0.0100123
0.00854613
0.00897827
0.0108199
0.00481563
0.00491272
0.0102555
0.00875313
0.0091734
0.0110381
0.0104923
0.00895337
0.00935993
0.0112461
0.00500564
0.00509444
0.0107213
0.00914594
0.00953766
0.011444
0.0109413
0.00933027
0.00970659
0.0116318
0.00517886
0.00525872
0.0111518
0.0095061
0.00986684
0.0118096
0.0113524
0.00967333
0.0100187
0.0119779
0.00533445
0.00540594
0.0115431
0.00983206
0.0101623
0.0121369
0.0117238
0.00998246
0.0102981
0.0122871
0.00547382
0.00553738
0.0118949
0.0101248
0.0104265
0.0124287
0.0120567
0.0102594
0.0105476
0.0125623
0.00559778
0.00565427
0.0122095
0.0103865
0.0106618
0.012688
0.0123535
0.0105064
0.0107695
0.0128063
0.00570748
0.00575736
0.0124891
0.0106194
0.0108711
0.0129176
0.0126165
0.010726
0.0109669
0.0130223
0.00580449
0.00584877
0.0127364
0.0108264
0.0110573
0.0131209
0.012849
0.0109212
0.0111427
0.0132137
0.00589009
0.00592899
0.0129549
0.0110105
0.0112232
0.013301
0.0130544
0.0110947
0.0112992
0.013383
0.00596546
0.00599962
0.0131479
0.0111741
0.0113709
0.01346
0.0132356
0.011249
0.0114385
0.0135323
0.00603156
0.00606137
0.0133179
0.0113195
0.0115021
0.0135999
0.013395
0.0113858
0.0115619
0.013663
0.00608912
0.00611484
0.013467
0.0114481
0.011618
0.0137219
0.0135342
0.0115066
0.0116708
0.0137768
0.00613864
0.00616063
0.0135969
0.0115615
0.0117201
0.0138277
0.0136551
0.0116128
0.0117662
0.0138748
0.00618085
0.00619931
0.0137091
0.0116607
0.0118091
0.0139181
0.0137589
0.0117052
0.0118487
0.0139575
0.00621599
0.0062309
0.0138047
0.0117463
0.0118851
0.013993
0.0138464
0.0117841
0.011918
0.0140245
0.006244
0.00625526
0.013884
0.0118184
0.0119475
0.014052
0.0139173
0.0118491
0.0119735
0.0140755
0.00626447
0.0062709
0.0139465
0.0118762
0.0119957
0.0140941
0.0139719
0.0118997
0.0120128
0.0141065
0.00627389
0.0062669
0.0139921
0.0119185
0.0120305
0.0141148
0.0139955
0.0119277
0.0120244
0.014102
0.00624875
0.0062245
0.0139585
0.0119098
0.0119871
0.014054
0.0137811
0.0117941
0.0118452
0.0138988
0.00621871
0.00593595
0.00581372
0.00583053
0.00586853
0.00589011
0.00589378
0.00589287
0.00588886
0.00588277
0.00587507
0.00586576
0.00585489
0.00584251
0.00582862
0.00581323
0.00579629
0.00577775
0.00575752
0.00573554
0.00571176
0.00568615
0.00565863
0.0056291
0.00559761
0.00556366
0.00552744
0.0054891
0.00544807
0.00540432
0.00535718
0.00530741
0.00525377