/*--------------------------------*- C++ -*----------------------------------*\
| =========                 |                                                 |
| \\      /  F ield         | OpenFOAM: The Open Source CFD Toolbox           |
|  \\    /   O peration     | Version:  v2006                                 |
|   \\  /    A nd           | Website:  www.openfoam.com                      |
|    \\/     M anipulation  |                                                 |
\*---------------------------------------------------------------------------*/
FoamFile
{
    version     2.0;
    format      ascii;
    class       surfaceScalarField;
    location    "0.009";
    object      phi;
}
// * * * * * * * * * * * * * * * * * * * * * * * * * * * * * * * * * * * * * //

dimensions      [1 0 -1 0 0 0 0];
oriented        oriented;


internalField   nonuniform List<scalar> 
25161
(
-3.27932e-05
-0.00184159
0.00181476
5.98577e-05
-0.0017174
0.00168484
1.32067e-05
0.000107694
-1.91346e-05
0.00195632
2.94975e-05
0.00215151
-7.31749e-05
0.00214873
-1.539e-05
0.00219486
-3.33632e-05
0.00214737
-3.48605e-06
0.00214002
-5.65066e-06
0.00211232
3.47148e-07
0.00210149
-1.17983e-06
0.00209051
-7.1733e-07
0.00208453
-1.08204e-06
0.00207933
-1.23376e-06
0.00207446
-1.38081e-06
0.00206957
-1.52257e-06
0.00206444
-1.65823e-06
0.00205905
-1.78683e-06
0.00205341
-1.91003e-06
0.0020475
-2.02837e-06
0.00204135
-2.14262e-06
0.00203493
-2.2527e-06
0.00202827
-2.35862e-06
0.00202136
-2.46032e-06
0.0020142
-2.55762e-06
0.0020068
-2.65031e-06
0.00199918
-2.73805e-06
0.00199133
-2.82054e-06
0.00198328
-2.89741e-06
0.00197503
-2.96834e-06
0.00196659
-3.0329e-06
0.00195799
-3.09073e-06
0.00194924
-3.14145e-06
0.00194035
-3.18456e-06
0.00193135
-3.22012e-06
0.00192225
-3.24705e-06
0.00191307
-3.26639e-06
0.00190383
-3.27778e-06
0.00189456
-3.27869e-06
0.00188527
-3.26807e-06
0.00187598
-3.24556e-06
0.00186674
-3.21143e-06
0.00185756
-3.16584e-06
0.00184849
-3.10874e-06
0.00183954
-3.03979e-06
0.00183075
-2.95852e-06
0.00182212
-2.86432e-06
0.00181371
-2.7568e-06
0.00180552
-2.6356e-06
0.00179759
-2.50023e-06
0.00178994
-2.34913e-06
0.00178258
-2.1781e-06
0.00177462
-1.97885e-06
0.00176604
-4.38124e-06
0.00175597
-6.72251e-06
0.00174181
-1.68536e-05
0.00171929
-3.03975e-05
0.00169053
-6.5718e-05
0.00164913
-0.000122863
0.00161566
-0.000272229
0.00161159
-0.000535466
0.0016352
-0.000257373
0.000995981
-0.000149625
0.00101003
-8.18624e-05
0.000985534
-8.36381e-05
0.000857986
-2.57537e-05
0.000770686
-1.57095e-05
0.000278255
-8.33644e-06
0.000230567
0.000187531
1.1903e-05
0.00017562
2.33668e-05
0.000219093
0.000263791
3.78183e-05
-1.59283e-05
0.000255204
2.45037e-05
-7.86055e-06
0.000211016
0.000167751
4.73458e-06
0.000163009
8.58789e-06
0.000207154
0.000251771
1.20107e-05
-4.30859e-06
0.00025074
5.33081e-06
-2.86118e-06
0.000205699
0.000160142
2.78466e-06
0.000157354
3.46445e-06
0.000205015
0.000249613
4.58532e-06
-2.49357e-06
0.000248386
3.71766e-06
-1.77305e-06
0.000204292
0.000155579
1.64018e-06
0.000153937
2.40661e-06
0.000203524
0.000247952
2.83856e-06
-2.3021e-06
0.000247457
2.79857e-06
-1.50926e-06
0.000202732
0.000152427
1.41383e-06
0.000151014
3.06626e-06
0.000201082
0.000247772
2.75407e-06
-1.3056e-06
0.000246347
2.73798e-06
-1.3291e-06
0.000201111
0.00014969
1.27243e-06
0.000148426
2.93337e-06
0.00019946
0.00024659
2.7012e-06
-1.21069e-06
0.000245114
2.70247e-06
-1.21481e-06
0.000199478
0.000147224
1.17908e-06
0.000146062
2.84653e-06
0.000197829
0.000245306
2.6757e-06
-1.1511e-06
0.000243794
2.69027e-06
-1.1357e-06
0.000197837
0.000144947
1.11151e-06
0.000143861
2.78615e-06
0.000196191
0.000243943
2.66919e-06
-1.11084e-06
0.0002424
2.69207e-06
-1.07498e-06
0.000196188
0.000142814
1.05743e-06
0.000141789
2.73996e-06
0.000194544
0.00024251
2.67384e-06
-1.08226e-06
0.000240939
2.70324e-06
-1.02507e-06
0.000194529
0.0001408
1.01257e-06
0.000139826
2.70405e-06
0.000192884
0.000241011
2.68781e-06
-1.06441e-06
0.000239411
2.72442e-06
-9.84241e-07
0.000192855
0.000138885
9.77183e-07
0.000137953
2.67993e-06
0.000191208
0.000239442
2.71416e-06
-1.06025e-06
0.000237813
2.75972e-06
-9.54012e-07
0.00019116
0.000137048
9.53777e-07
0.000136145
2.67137e-06
0.000189505
0.000237802
2.7575e-06
-1.07355e-06
0.000236141
2.81355e-06
-9.37035e-07
0.000189434
0.000135261
9.44149e-07
0.000134373
2.68095e-06
0.000187765
0.000236084
2.82092e-06
-1.10495e-06
0.000234388
2.88718e-06
-9.33354e-07
0.000187666
0.000133498
9.46444e-07
0.000132614
2.70679e-06
0.000185981
0.000234283
2.90335e-06
-1.15085e-06
0.000232552
2.97766e-06
-9.39544e-07
0.000185849
0.00013174
9.56538e-07
0.000130852
2.74431e-06
0.000184144
0.000232395
3.00061e-06
-1.20659e-06
0.000230625
3.08084e-06
-9.51475e-07
0.000183975
0.000129973
9.7051e-07
0.000129077
2.78897e-06
0.000182247
0.000230413
3.10872e-06
-1.26864e-06
0.0002286
3.19394e-06
-9.65966e-07
0.000182038
0.00012819
9.86178e-07
0.000127285
2.83844e-06
0.000180283
0.000228329
3.22619e-06
-1.33617e-06
0.00022647
3.31677e-06
-9.82054e-07
0.00018003
0.000126387
1.00379e-06
0.000125471
2.89329e-06
0.000178245
0.000226134
3.35407e-06
-1.41074e-06
0.000224221
3.45125e-06
-1.00088e-06
0.000177942
0.000124559
1.0252e-06
0.000123625
2.95592e-06
0.000176121
0.000223814
3.49523e-06
-1.49606e-06
0.000221843
3.60138e-06
-1.02499e-06
0.000175763
0.000122693
1.05306e-06
0.000121736
3.03026e-06
0.0001739
0.000221357
3.65428e-06
-1.59599e-06
0.000219321
3.77177e-06
-1.05686e-06
0.000173478
0.000120776
1.08968e-06
0.000119785
3.12003e-06
0.000171567
0.000218749
3.83593e-06
-1.71405e-06
0.00021664
3.96727e-06
-1.09837e-06
0.000171072
0.000118787
1.13657e-06
0.000117752
3.22821e-06
0.000169103
0.000215971
4.04464e-06
-1.85271e-06
0.000213781
4.19173e-06
-1.15057e-06
0.000168525
0.000116704
1.19421e-06
0.000115614
3.35641e-06
0.000166488
0.000213005
4.28366e-06
-2.0132e-06
0.000210722
4.4478e-06
-1.21355e-06
0.000165815
0.000114506
1.26244e-06
0.00011335
3.5054e-06
0.0001637
0.000209826
4.55545e-06
-2.1965e-06
0.000207439
4.73837e-06
-1.28698e-06
0.00016292
0.00011217
1.34094e-06
0.000110938
3.67607e-06
0.000160715
0.000206408
4.8632e-06
-2.40378e-06
0.000203902
5.06667e-06
-1.37067e-06
0.000159813
0.000109676
1.4296e-06
0.000108356
3.86933e-06
0.000157505
0.00020272
5.20983e-06
-2.63601e-06
0.00020008
5.43502e-06
-1.4646e-06
0.000156466
0.000107002
1.52836e-06
0.000105585
4.08545e-06
0.000154042
0.000198728
5.59658e-06
-2.89415e-06
0.000195937
5.84497e-06
-1.56893e-06
0.00015285
0.000104127
1.63892e-06
0.0001026
4.32812e-06
0.000150295
0.000194396
6.02942e-06
-3.18568e-06
0.000191434
6.30805e-06
-1.6872e-06
0.00014893
0.000101024
1.76583e-06
9.93691e-05
4.6068e-06
0.000146223
0.000189678
6.52336e-06
-3.52239e-06
0.000186517
6.84252e-06
-1.82487e-06
0.000144658
9.76548e-05
1.91508e-06
9.58497e-05
4.93397e-06
0.000141771
0.000184512
7.09815e-06
-3.91761e-06
0.000181118
7.46856e-06
-1.98809e-06
0.000139973
9.39708e-05
2.09426e-06
9.19848e-05
5.32554e-06
0.000136873
0.000178821
7.7789e-06
-4.39007e-06
0.000175152
8.21446e-06
-2.18548e-06
0.000134797
8.99067e-05
2.3147e-06
8.76984e-05
5.80556e-06
0.000131434
0.000172508
8.60352e-06
-4.97368e-06
0.000168501
9.13258e-06
-2.43269e-06
0.00012902
8.53709e-05
2.59452e-06
8.28805e-05
6.41178e-06
0.000125328
0.000165432
9.63088e-06
-5.71513e-06
0.000161001
1.0294e-05
-2.7511e-06
0.000122487
8.02321e-05
2.96261e-06
7.7371e-05
7.20594e-06
0.000118366
0.000157396
1.09572e-05
-6.69854e-06
0.000152412
1.18271e-05
-3.17897e-06
0.000114966
7.42918e-05
3.47007e-06
7.09203e-05
8.29728e-06
0.000110258
0.000148099
1.27518e-05
-8.07402e-06
0.000142354
1.39594e-05
-3.78546e-06
0.000106085
6.72315e-05
4.21009e-06
6.31172e-05
9.88516e-06
0.000100525
0.000137056
1.53205e-05
-1.01179e-05
0.000130205
1.71034e-05
-4.69956e-06
9.52188e-05
5.85106e-05
5.36016e-06
5.32409e-05
1.23491e-05
8.83385e-05
0.000123449
1.92349e-05
-1.33929e-05
0.000114887
2.20825e-05
-6.18508e-06
8.12369e-05
4.71445e-05
7.31724e-06
3.99155e-05
1.65289e-05
7.21314e-05
0.000105807
2.57363e-05
-1.94014e-05
9.44349e-05
3.08979e-05
-9.00249e-06
6.18369e-05
3.09993e-05
1.11447e-05
1.99324e-05
2.4456e-05
4.86206e-05
8.13852e-05
3.76244e-05
-3.35693e-05
6.73432e-05
4.7737e-05
-1.88564e-05
3.40575e-05
1.32701e-06
1.39208e-05
-1.2482e-05
3.51708e-05
1.3062e-05
5.06615e-05
5.20246e-05
-2.70947e-05
2.78065e-05
5.02204e-05
-5.3953e-06
-8.49884e-06
-1.7793e-05
4.89e-06
-2.26032e-05
1.72646e-05
-2.0782e-05
3.1049e-06
4.21081e-05
-9.04191e-06
-1.30324e-05
2.52841e-05
-3.10886e-06
-2.66218e-05
-2.56317e-05
7.25754e-09
-2.55631e-05
1.61212e-06
-2.81302e-05
-1.8423e-05
7.1152e-06
8.65118e-06
-2.0369e-05
-6.56784e-06
5.7337e-06
-2.51135e-05
-1.9753e-05
-7.30863e-06
-1.23786e-05
-1.09973e-05
-2.1344e-05
-2.36138e-05
-7.64286e-06
7.70571e-06
-2.40338e-05
-7.19225e-06
4.64793e-06
-1.82072e-05
-7.66439e-06
1.19929e-06
-8.80571e-06
3.72226e-06
-2.06603e-05
-2.84969e-05
8.26951e-06
-2.83971e-06
-2.96328e-05
4.05433e-06
-1.4235e-06
-2.20109e-05
-1.01748e-05
4.83886e-06
-1.49592e-05
1.03858e-05
-2.74923e-05
-3.61474e-05
1.69789e-05
-6.02313e-06
-3.88737e-05
8.82771e-06
-2.95263e-06
-3.04973e-05
-1.78574e-05
4.33352e-06
-2.21379e-05
9.18089e-06
-3.52807e-05
-4.45582e-05
1.49422e-05
-2.21872e-06
-4.48356e-05
2.56988e-06
-1.23549e-06
-3.62028e-05
-2.33231e-05
1.85721e-06
-2.51314e-05
3.55229e-06
-3.78382e-05
-4.69754e-05
5.76498e-06
1.61463e-06
-4.51204e-05
-3.39839e-06
5.56696e-07
-3.67223e-05
-2.45273e-05
-4.7106e-07
-2.40101e-05
-1.50967e-06
-3.56267e-05
-4.41699e-05
-2.38967e-06
4.04533e-06
-4.10968e-05
-7.05251e-06
1.75268e-06
-3.32817e-05
-2.22154e-05
-1.22472e-06
-2.09521e-05
-2.98522e-06
-3.14726e-05
-3.93704e-05
-4.64985e-06
3.20563e-06
-3.69317e-05
-5.58525e-06
1.40103e-06
-2.96228e-05
-1.95157e-05
-7.63779e-07
-1.87192e-05
-2.08874e-06
-2.82554e-05
-3.56508e-05
-3.31332e-06
2.06579e-06
-3.38642e-05
-3.79686e-06
8.10387e-07
-2.69596e-05
-1.78784e-05
-8.19792e-07
-1.70303e-05
-2.33433e-06
-2.54065e-05
-3.22459e-05
-3.89841e-06
2.44562e-06
-3.01856e-05
-4.45108e-06
9.6249e-07
-2.38858e-05
-1.60412e-05
-1.30894e-06
-1.47071e-05
-3.39338e-06
-2.17647e-05
-2.78714e-05
-5.65274e-06
3.44202e-06
-2.52364e-05
-6.02129e-06
1.42583e-06
-1.97123e-05
-1.32572e-05
-1.85039e-06
-1.13836e-05
-4.52081e-06
-1.70056e-05
-2.22247e-05
-7.47542e-06
4.28716e-06
-1.91675e-05
-7.28861e-06
1.82135e-06
-1.45048e-05
-9.54033e-06
-2.25025e-06
-7.26937e-06
-5.35184e-06
-1.1369e-05
-1.56655e-05
-8.79742e-06
4.48526e-06
-1.24954e-05
-7.59692e-06
1.88335e-06
-8.73282e-06
-5.36598e-06
-2.22588e-06
-3.11926e-06
-5.42997e-06
-5.49181e-06
-8.73931e-06
-9.12335e-06
4.6654e-06
-5.54111e-06
-7.80331e-06
1.94968e-06
-2.74026e-06
-1.14897e-06
-1.99512e-06
8.67041e-07
-4.85268e-06
1.55343e-07
-2.10119e-06
-8.22631e-06
4.36829e-06
1.05473e-06
-7.46106e-06
1.75346e-06
2.80768e-06
2.6413e-06
-1.70998e-06
4.37102e-06
-4.10521e-06
5.23892e-06
3.93987e-06
-6.92914e-06
3.9688e-06
6.66026e-06
-6.62894e-06
1.62218e-06
7.62124e-06
6.01251e-06
-1.44417e-06
7.4749e-06
-3.54051e-06
9.75128e-06
9.16017e-06
-5.98443e-06
3.62544e-06
1.15574e-05
-5.96919e-06
1.45159e-06
1.19582e-05
8.94428e-06
-1.14895e-06
1.011e-05
-2.99541e-06
1.38357e-05
1.37959e-05
-5.18512e-06
3.0371e-06
1.58491e-05
-5.04568e-06
1.11297e-06
1.579e-05
1.12397e-05
-7.87452e-07
1.20435e-05
-2.31368e-06
1.7346e-05
1.77632e-05
-4.18628e-06
2.29751e-06
1.94268e-05
-3.91878e-06
6.97886e-07
1.89769e-05
1.27574e-05
-4.49101e-07
1.32219e-05
-1.60594e-06
2.0165e-05
2.09569e-05
-3.09518e-06
1.52896e-06
2.21747e-05
-2.70579e-06
3.78483e-07
2.13459e-05
1.36144e-05
-2.51065e-07
1.38775e-05
-9.25676e-07
2.20471e-05
2.32403e-05
-1.95799e-06
8.66004e-07
2.38954e-05
-1.51043e-06
2.27323e-07
2.27051e-05
1.41121e-05
-1.71764e-07
1.42805e-05
-3.81163e-07
2.29154e-05
2.4409e-05
-9.11794e-07
3.95137e-07
2.45587e-05
-5.80826e-07
1.53259e-07
2.31269e-05
1.44152e-05
-1.15187e-07
1.45061e-05
-4.0873e-08
2.30112e-05
2.4708e-05
-2.35576e-07
1.45348e-07
2.46373e-05
-1.22012e-07
8.67755e-08
2.30223e-05
1.45645e-05
-6.37777e-08
1.45981e-05
1.06039e-07
2.28041e-05
2.46769e-05
2.16696e-08
5.85985e-08
2.45535e-05
2.48563e-08
4.38454e-08
2.27728e-05
1.46122e-05
-3.34596e-08
1.46172e-05
1.44773e-07
2.25527e-05
2.45832e-05
8.02142e-08
4.49496e-08
2.44612e-05
4.70068e-08
2.30039e-08
2.25373e-05
1.46138e-05
-1.84389e-08
1.46079e-05
1.40931e-07
2.2345e-05
2.4501e-05
7.52705e-08
5.41043e-08
2.43877e-05
3.69623e-08
1.34869e-08
2.23568e-05
1.45994e-05
-1.13148e-08
1.4591e-05
1.27559e-07
2.21927e-05
2.44373e-05
5.87995e-08
6.40427e-08
2.4329e-05
2.7651e-08
8.52797e-09
2.22261e-05
1.45815e-05
-6.5924e-09
1.45721e-05
1.19503e-07
2.20807e-05
2.43809e-05
5.31731e-08
6.65979e-08
2.42708e-05
3.09823e-08
4.25979e-09
2.21264e-05
1.45622e-05
-1.47901e-09
1.45507e-05
1.20733e-07
2.19894e-05
2.43176e-05
6.29746e-08
5.88012e-08
2.41994e-05
5.02247e-08
-1.61315e-09
2.20371e-05
1.45372e-05
5.61732e-09
1.45217e-05
1.32009e-07
2.19004e-05
2.42363e-05
8.82222e-08
4.08502e-08
2.41076e-05
8.3359e-08
-9.80296e-09
2.19437e-05
1.45047e-05
1.48148e-08
1.44854e-05
1.53007e-07
2.18011e-05
2.41326e-05
1.25494e-07
1.46008e-08
2.39923e-05
1.24929e-07
-2.02205e-08
2.18338e-05
1.44629e-05
2.5184e-08
1.44371e-05
1.79044e-07
2.16795e-05
2.40054e-05
1.66219e-07
-1.20586e-08
2.38539e-05
1.64594e-07
-3.03522e-08
2.16984e-05
1.44072e-05
3.41483e-08
1.43738e-05
2.02143e-07
2.15313e-05
2.3857e-05
2.00318e-07
-3.29577e-08
2.36976e-05
1.93723e-07
-3.81047e-08
2.15376e-05
1.43367e-05
4.04073e-08
1.42972e-05
2.18154e-07
2.13609e-05
2.36943e-05
2.22618e-07
-4.62457e-08
2.35315e-05
2.09977e-07
-4.29999e-08
2.13584e-05
1.42549e-05
4.41659e-08
1.42112e-05
2.26716e-07
2.11764e-05
2.3526e-05
2.3287e-07
-5.33618e-08
2.33642e-05
2.1546e-07
-4.60477e-08
2.11694e-05
1.41654e-05
4.67838e-08
1.41187e-05
2.30226e-07
2.0986e-05
2.33599e-05
2.34444e-07
-5.66515e-08
2.3202e-05
2.14285e-07
-4.83867e-08
2.09775e-05
1.40701e-05
4.91026e-08
1.40206e-05
2.31411e-07
2.07947e-05
2.32006e-05
2.32166e-07
-5.91853e-08
2.30468e-05
2.12116e-07
-5.07713e-08
2.07856e-05
1.39693e-05
5.17099e-08
1.39168e-05
2.33613e-07
2.06028e-05
2.3047e-05
2.32251e-07
-6.12611e-08
2.28969e-05
2.10078e-07
-5.22688e-08
2.05927e-05
1.38637e-05
5.36368e-08
1.38091e-05
2.35141e-07
2.041e-05
2.28981e-05
2.32382e-07
-5.95413e-08
2.27509e-05
2.05015e-07
-5.02218e-08
2.03992e-05
1.37577e-05
5.07356e-08
1.37057e-05
1.48102e-07
2.03003e-05
2.26693e-05
2.27745e-07
-5.5938e-08
2.27493e-05
-2.60234e-08
3.84266e-08
2.02043e-05
1.37428e-05
-3.73806e-08
1.37788e-05
-8.84948e-08
2.02537e-05
2.27662e-05
-1.0739e-07
2.94535e-07
2.2909e-05
-4.39242e-07
2.2132e-07
2.03254e-05
1.3999e-05
-8.48111e-08
1.40827e-05
-1.64894e-07
2.04042e-05
2.30038e-05
-2.61273e-07
2.29551e-07
2.31151e-05
-3.41831e-07
1.28063e-07
2.05049e-05
1.42101e-05
-4.29334e-07
1.4639e-05
-7.92489e-07
2.08675e-05
2.36236e-05
-1.30163e-06
2.53967e-07
-3.51351e-07
1.00445e-07
-3.40961e-06
-5.73984e-05
-1.41657e-07
-5.81105e-05
-1.93889e-06
-6.07322e-05
7.52896e-07
-6.08678e-05
-6.17407e-07
-6.35139e-05
-9.65671e-08
-6.64163e-05
-9.16441e-07
-6.78195e-05
-1.0308e-06
-7.06326e-05
-1.37456e-06
-7.17529e-05
-1.4348e-06
-7.34218e-05
-1.59688e-06
-7.34377e-05
-1.74557e-06
-7.16644e-05
-1.70363e-06
-6.95919e-05
-1.69196e-06
-6.30266e-05
-8.50473e-07
-5.84691e-05
-5.88325e-07
-4.94882e-05
1.41873e-06
-4.45779e-05
2.85013e-06
-3.86178e-05
8.22942e-06
-3.68124e-05
1.89978e-05
-4.16122e-05
5.69248e-06
-1.25477e-05
-2.58156e-06
-1.83497e-05
-1.56756e-06
-2.23077e-05
3.80006e-07
-2.50035e-05
1.7668e-07
-8.67106e-06
2.86232e-09
-7.04214e-06
-3.8929e-06
-2.33761e-06
-1.55528e-06
-6.18997e-06
-3.18977e-06
-4.23556e-06
-1.06255e-05
-1.14209e-06
-5.781e-06
2.68753e-06
-1.86605e-07
-4.14524e-06
-1.74187e-06
2.80998e-07
-2.02286e-06
8.18212e-07
-4.68245e-06
-6.45682e-06
1.49405e-06
-4.85493e-07
-6.92052e-06
9.49218e-07
-1.21096e-07
-5.04682e-06
-2.14394e-06
-3.08237e-08
-2.1131e-06
6.15224e-09
-5.08377e-06
-6.94015e-06
2.58004e-08
-1.49357e-07
-7.00136e-06
2.10595e-07
-6.08233e-08
-5.17228e-06
-2.17389e-06
-4.76036e-08
-2.12626e-06
-1.10608e-07
-5.10925e-06
-7.03658e-06
-7.53521e-08
-1.10289e-07
-7.18696e-06
2.60707e-07
-4.74806e-08
-5.17202e-06
-2.17371e-06
-5.9354e-08
-2.11432e-06
-2.6525e-08
-5.20481e-06
-7.13373e-06
-7.97103e-08
-1.46161e-07
-7.19516e-06
2.07655e-07
-3.80225e-08
-5.31289e-06
-2.15229e-06
-1.14997e-08
-2.14073e-06
-8.63233e-08
-5.238e-06
-7.2625e-06
-1.88937e-08
-1.56034e-07
-7.37828e-06
2.71928e-07
-5.18011e-08
-5.34214e-06
-2.19246e-06
-2.75716e-08
-2.16479e-06
-6.85995e-08
-5.301e-06
-7.34956e-06
-9.71794e-08
-1.22812e-07
-7.43844e-06
2.11861e-07
-3.83518e-08
-5.38532e-06
-2.20301e-06
-2.20732e-08
-2.18079e-06
-6.17301e-08
-5.34548e-06
-7.41193e-06
-8.80086e-08
-1.2562e-07
-7.50362e-06
2.17581e-07
-4.09751e-08
-5.4299e-06
-2.22158e-06
-3.27502e-08
-2.18861e-06
-8.6618e-08
-5.37578e-06
-7.46233e-06
-1.27615e-07
-1.08707e-07
-7.54268e-06
1.89409e-07
-3.35261e-08
-5.45067e-06
-2.2219e-06
-2.56137e-08
-2.19601e-06
-7.2282e-08
-5.40367e-06
-7.5092e-06
-1.05355e-07
-1.18248e-07
-7.59687e-06
2.06368e-07
-3.79214e-08
-5.48363e-06
-2.23362e-06
-3.29269e-08
-2.20036e-06
-8.80988e-08
-5.42806e-06
-7.55394e-06
-1.30562e-07
-1.0638e-07
-7.63185e-06
1.84816e-07
-3.27209e-08
-5.50129e-06
-2.23272e-06
-2.59309e-08
-2.2064e-06
-7.44774e-08
-5.45228e-06
-7.59485e-06
-1.10916e-07
-1.14643e-07
-7.67786e-06
1.98255e-07
-3.69303e-08
-5.5295e-06
-2.24292e-06
-3.29708e-08
-2.20952e-06
-9.02447e-08
-5.47172e-06
-7.63091e-06
-1.36589e-07
-1.02626e-07
-7.70411e-06
1.76466e-07
-3.18995e-08
-5.54192e-06
-2.24097e-06
-2.68881e-08
-2.21363e-06
-7.87834e-08
-5.48949e-06
-7.66233e-06
-1.19911e-07
-1.10148e-07
-7.74194e-06
1.90418e-07
-3.55886e-08
-5.5635e-06
-2.24876e-06
-3.3701e-08
-2.21461e-06
-9.30206e-08
-5.50365e-06
-7.69347e-06
-1.40851e-07
-1.00224e-07
-7.76703e-06
1.74427e-07
-3.08906e-08
-5.57245e-06
-2.24505e-06
-2.76459e-08
-2.21697e-06
-8.04491e-08
-5.51913e-06
-7.72615e-06
-1.20699e-07
-1.09658e-07
-7.80889e-06
1.92979e-07
-3.48193e-08
-5.59349e-06
-2.25137e-06
-3.35374e-08
-2.21743e-06
-9.12709e-08
-5.5353e-06
-7.76463e-06
-1.34977e-07
-1.02911e-07
-7.8437e-06
1.8248e-07
-3.10248e-08
-5.60676e-06
-2.24809e-06
-2.70343e-08
-2.22072e-06
-7.72885e-08
-5.55612e-06
-7.8075e-06
-1.13016e-07
-1.13416e-07
-7.89576e-06
2.02081e-07
-3.53608e-08
-5.63384e-06
-2.25577e-06
-3.23836e-08
-2.22312e-06
-8.66959e-08
-5.57923e-06
-7.85693e-06
-1.25177e-07
-1.07584e-07
-7.94169e-06
1.9263e-07
-3.19346e-08
-5.65464e-06
-2.25482e-06
-2.58271e-08
-2.22879e-06
-7.29877e-08
-5.60727e-06
-7.90981e-06
-1.04629e-07
-1.17357e-07
-8.00247e-06
2.10201e-07
-3.61807e-08
-5.68828e-06
-2.2648e-06
-3.11754e-08
-2.23347e-06
-8.25721e-08
-5.63675e-06
-7.96803e-06
-1.16865e-07
-1.11338e-07
-8.05749e-06
2.00895e-07
-3.26878e-08
-5.71529e-06
-2.26603e-06
-2.48344e-08
-2.24108e-06
-6.97255e-08
-5.67032e-06
-8.0292e-06
-9.79499e-08
-1.20066e-07
-8.12559e-06
2.16482e-07
-3.66577e-08
-5.75367e-06
-2.27764e-06
-3.02474e-08
-2.24729e-06
-7.96437e-08
-5.7042e-06
-8.09467e-06
-1.10505e-07
-1.13976e-07
-8.18808e-06
2.07388e-07
-3.31482e-08
-5.78497e-06
-2.28033e-06
-2.41624e-08
-2.25606e-06
-6.76245e-08
-5.74147e-06
-8.16244e-06
-9.32973e-08
-1.21988e-07
-8.26191e-06
2.21412e-07
-3.68972e-08
-5.82652e-06
-2.29287e-06
-2.94033e-08
-2.26335e-06
-7.73174e-08
-5.77853e-06
-8.23351e-06
-1.05685e-07
-1.16421e-07
-8.33019e-06
2.13025e-07
-3.3657e-08
-5.86125e-06
-2.29689e-06
-2.36836e-08
-2.27309e-06
-6.62096e-08
-5.8187e-06
-8.30604e-06
-9.04728e-08
-1.23984e-07
-8.40803e-06
2.25868e-07
-3.71986e-08
-5.90546e-06
-2.3102e-06
-2.84339e-08
-2.28162e-06
-7.49473e-08
-5.85885e-06
-8.38114e-06
-1.01819e-07
-1.19478e-07
-8.4807e-06
2.1885e-07
-3.45001e-08
-5.94379e-06
-2.31598e-06
-2.32839e-08
-2.29256e-06
-6.4999e-08
-5.90206e-06
-8.45729e-06
-8.86055e-08
-1.26909e-07
-8.56205e-06
2.31576e-07
-3.78555e-08
-5.99106e-06
-2.33031e-06
-2.7224e-08
-2.30289e-06
-7.21107e-08
-5.94603e-06
-8.53665e-06
-9.75435e-08
-1.23737e-07
-8.63987e-06
2.26685e-07
-3.58753e-08
-6.03385e-06
-2.33857e-06
-2.30688e-08
-2.31532e-06
-6.4072e-08
-5.99279e-06
-8.61736e-06
-8.67405e-08
-1.30902e-07
-8.72605e-06
2.39474e-07
-3.89143e-08
-6.08468e-06
-2.35407e-06
-2.59914e-08
-2.32782e-06
-6.91976e-08
-6.0413e-06
-8.70255e-06
-9.28388e-08
-1.29201e-07
-8.81049e-06
2.369e-07
-3.77231e-08
-6.1327e-06
-2.3653e-06
-2.3062e-08
-2.34201e-06
-6.33912e-08
-6.09228e-06
-8.7892e-06
-8.48397e-08
-1.36166e-07
-8.90324e-06
2.50048e-07
-4.03841e-08
-6.18791e-06
-2.38218e-06
-2.46283e-08
-2.35722e-06
-6.57661e-08
-6.14655e-06
-8.88255e-06
-8.66138e-08
-1.36496e-07
-8.99728e-06
2.51052e-07
-4.01765e-08
-6.24272e-06
-2.39708e-06
-2.30712e-08
-2.3737e-06
-6.20937e-08
-6.20352e-06
-8.97915e-06
-8.03524e-08
-1.43743e-07
-9.10223e-06
2.66697e-07
-4.23926e-08
-6.30463e-06
-2.41578e-06
-2.28574e-08
-2.39251e-06
-6.01353e-08
-6.26706e-06
-9.08849e-06
-7.40151e-08
-1.47653e-07
-9.21625e-06
2.75225e-07
-4.34497e-08
-6.37106e-06
-2.43558e-06
-2.25369e-08
-2.41267e-06
-5.71683e-08
-6.33622e-06
-9.2079e-06
-6.57369e-08
-1.56946e-07
-9.34904e-06
2.97722e-07
-4.54817e-08
-6.4475e-06
-2.4578e-06
-2.00309e-08
-2.43736e-06
-4.88063e-08
-6.41858e-06
-9.35102e-06
-4.72613e-08
-1.65828e-07
-9.50193e-06
3.16084e-07
-4.80287e-08
-6.53638e-06
-2.48507e-06
-2.07744e-08
-2.46401e-06
-4.59618e-08
-6.51124e-06
-9.51137e-06
-3.72633e-08
-1.76613e-07
-9.67786e-06
3.42292e-07
-4.97395e-08
-6.63823e-06
-2.51355e-06
-1.64097e-08
-2.4969e-06
-3.28379e-08
-6.62193e-06
-9.69955e-06
-1.19429e-08
-1.88634e-07
-9.87562e-06
3.64036e-07
-5.2931e-08
-6.75775e-06
-2.54967e-06
-1.84834e-08
-2.53101e-06
-2.95915e-08
-6.74665e-06
-9.90275e-06
-3.0113e-09
-2.10309e-07
-1.00966e-05
4.03789e-07
-5.79179e-08
-6.89887e-06
-2.58866e-06
6.09776e-09
-2.59435e-06
2.31777e-08
-6.91569e-06
-1.00599e-05
-1.37848e-08
-2.56646e-07
-1.03595e-05
5.55855e-07
-7.99041e-08
-7.09215e-06
-2.67379e-06
-5.65063e-09
-2.66762e-06
7.21093e-08
-7.16963e-06
-1.03146e-05
2.66782e-08
-2.40101e-07
-1.0627e-05
5.52132e-07
-1.24104e-07
-7.28532e-06
-2.79113e-06
-2.20584e-08
-2.76843e-06
8.59291e-08
-7.39294e-06
-1.06876e-05
1.46315e-07
-3.23467e-07
-1.10111e-05
6.4686e-07
-1.25835e-07
-7.59007e-06
-2.89361e-06
3.86881e-09
-2.89677e-06
9.97848e-08
-7.68535e-06
-1.10571e-05
1.45882e-07
-3.2843e-07
-1.14746e-05
7.46284e-07
-1.29767e-07
-7.88314e-06
-3.02563e-06
6.37038e-08
-3.08828e-06
1.96865e-07
-8.0153e-06
-1.15512e-05
2.73976e-07
-4.13874e-07
-1.19017e-05
7.65159e-07
-1.05319e-07
-8.32267e-06
-3.19241e-06
5.60175e-08
-3.24715e-06
1.74433e-07
-8.43975e-06
-1.21682e-05
4.41912e-07
-4.70945e-07
-1.25533e-05
8.57341e-07
-1.393e-07
-8.76977e-06
-3.385e-06
1.52906e-07
-3.5363e-06
3.34141e-07
-8.94912e-06
-1.26633e-05
4.45955e-07
-5.26249e-07
-1.31546e-05
1.01996e-06
-1.73395e-07
-9.29964e-06
-3.70783e-06
8.30999e-08
-3.78873e-06
3.21987e-07
-9.53545e-06
-1.34708e-05
6.41727e-07
-5.61151e-07
-1.40061e-05
1.10091e-06
-1.94974e-07
-9.89787e-06
-3.98109e-06
1.43989e-07
-4.12184e-06
4.39424e-07
-1.01887e-05
-1.42691e-05
7.06642e-07
-6.22726e-07
-1.48531e-05
1.20938e-06
-2.34236e-07
-1.05725e-05
-4.35224e-06
2.07682e-07
-4.55556e-06
5.2041e-07
-1.08815e-05
-1.5256e-05
9.24259e-07
-7.4537e-07
-1.60419e-05
1.53239e-06
-3.03253e-07
-1.13209e-05
-4.85444e-06
3.25621e-07
-5.17629e-06
7.12002e-07
-1.17044e-05
-1.6516e-05
1.18823e-06
-1.06335e-06
-1.72913e-05
1.84236e-06
-3.81896e-07
-1.23823e-05
-5.55513e-06
5.36617e-07
-6.08836e-06
1.0888e-06
-1.29294e-05
-1.80192e-05
1.82265e-06
-1.70547e-06
-1.88527e-05
2.54446e-06
-6.92023e-07
-1.3937e-05
-6.77605e-06
8.69297e-07
-7.64001e-06
1.77715e-06
-1.48393e-05
-2.00424e-05
2.97013e-06
-2.72196e-06
-2.15379e-05
4.22103e-06
-1.28469e-06
-1.62717e-05
-8.91932e-06
1.6232e-06
-1.05369e-05
3.97508e-06
-1.86166e-05
-2.45419e-05
6.98862e-06
1.58801e-05
-1.21234e-05
-2.82906e-05
6.03274e-06
-8.76226e-06
-4.49952e-06
1.30281e-06
-5.79796e-06
4.37262e-06
-1.18266e-05
-1.64275e-05
8.68376e-06
-4.61932e-06
-1.93317e-05
7.53128e-06
-1.9595e-06
-1.44763e-05
-7.74986e-06
1.98836e-06
-9.72708e-06
3.85833e-06
-1.63355e-05
-2.14927e-05
6.02352e-06
-4.02106e-06
-2.33649e-05
5.88947e-06
-2.07898e-06
-1.8276e-05
-1.18006e-05
2.35443e-06
-1.41553e-05
4.25637e-06
-2.01818e-05
-4.6692e-05
2.75616e-05
-2.28679e-05
-3.79784e-05
1.40993e-05
-2.25017e-06
-4.08273e-05
-1.64161e-05
1.84456e-05
-3.49072e-05
1.41843e-05
-3.66379e-05
-4.23288e-05
1.84441e-05
-1.21909e-05
-4.43027e-05
1.4049e-05
-6.21446e-06
-4.27351e-05
-4.12304e-05
5.65389e-06
-4.70227e-05
8.40344e-06
-4.5576e-05
-4.55971e-05
9.63185e-06
-6.04728e-06
-4.61403e-05
6.57667e-06
-3.79765e-06
-4.78451e-05
-5.08603e-05
-3.34046e-07
-5.05226e-05
-1.34764e-06
-4.68239e-05
-4.9755e-05
2.27798e-06
1.3443e-05
-3.18041e-05
-3.13807e-05
5.1591e-06
-3.8528e-05
-4.53539e-05
-1.30485e-06
-4.40365e-05
-1.14873e-06
-3.86702e-05
-3.9172e-05
6.23129e-06
-3.95116e-07
-3.88792e-05
1.25887e-07
-5.4646e-07
-3.84967e-05
-4.45627e-05
-8.4844e-07
-4.36876e-05
-2.68025e-06
-3.66371e-05
-3.6497e-05
-5.03279e-06
5.55257e-06
-3.34534e-05
-8.56367e-06
2.13908e-06
-3.31931e-05
-4.15181e-05
-3.87753e-06
-3.76089e-05
-8.73548e-06
-2.83054e-05
-2.66171e-05
-1.55416e-05
8.23869e-06
-2.42276e-05
-1.05989e-05
3.93781e-06
-2.3975e-05
-3.36389e-05
-5.73031e-06
-2.78754e-05
-1.16865e-05
-1.79893e-05
-1.69151e-05
-1.89691e-05
1.46355e-05
-5.25943e-06
-2.62562e-05
7.1119e-06
-1.04365e-05
-2.07304e-05
-7.81488e-06
-1.28853e-05
-1.38597e-05
-4.37092e-06
-2.35412e-06
-1.67466e-05
1.10872e-05
-6.40412e-07
-1.27887e-05
7.31402e-06
-5.82706e-07
-5.54591e-06
-7.99603e-06
2.47267e-06
-1.28671e-05
4.30154e-06
4.44063e-06
-1.79355e-05
1.33575e-05
1.91184e-05
-2.80225e-05
7.67428e-06
9.99642e-06
1.01674e-05
-7.84494e-06
1.80306e-05
-1.03996e-05
1.25595e-05
1.17555e-05
-3.02937e-06
1.46351e-05
1.53641e-05
-1.824e-05
1.07429e-05
1.64571e-05
2.87877e-05
-1.39099e-05
4.271e-05
-2.08763e-05
2.34287e-05
2.28404e-05
-2.83481e-05
2.42907e-05
3.1019e-05
-3.24646e-05
1.59479e-05
3.17765e-05
5.86695e-05
-1.638e-05
7.50607e-05
-2.4914e-05
4.03152e-05
5.08589e-05
-4.47488e-05
1.47214e-05
3.27744e-05
3.36606e-06
1.46894e-05
4.03511e-05
8.97599e-05
-1.98001e-05
0.000109569
-2.51525e-05
4.57067e-05
4.02057e-05
-3.25817e-05
3.98213e-05
5.21642e-05
-5.17769e-05
2.7602e-05
5.79293e-05
0.000137181
-3.46781e-05
0.000171868
-4.89197e-05
7.21744e-05
8.59705e-05
-8.27223e-05
3.14823e-05
5.58363e-05
-1.34591e-06
3.31479e-05
7.05116e-05
0.000205026
-4.74993e-05
0.000252535
-5.50074e-05
7.80222e-05
6.51399e-05
-6.43092e-05
8.74814e-05
0.000116641
-0.000138978
6.6625e-05
9.88817e-05
0.000319171
-6.92454e-05
0.000388429
-6.71059e-05
9.6745e-05
8.02157e-05
-3.06785e-05
9.73923e-05
0.000121784
-0.000138958
7.93239e-05
0.000114816
0.000467767
-6.49745e-05
0.000532757
-7.17433e-05
0.000121589
0.000136965
-8.69193e-05
5.39713e-06
0.000140975
-9.4026e-06
-3.79026e-06
0.00013078
0.000528984
6.88539e-05
0.000460151
4.72343e-05
0.000152403
0.000164637
2.35764e-05
-0.000119719
0.000181914
0.000102448
-0.000119533
0.000152223
0.000340638
0.000118895
0.000221765
0.000149027
0.000122098
0.000121961
0.000208986
-0.000100523
0.000181924
4.05674e-05
-9.12778e-05
0.000112862
0.000130506
7.45148e-05
5.60098e-05
0.000119502
6.78873e-05
8.92465e-05
0.000212193
-7.83414e-05
6.5904e-05
0.000101694
-5.26039e-05
4.2161e-05
3.42278e-06
2.84646e-05
-2.50361e-05
4.32619e-05
2.73737e-05
9.56073e-05
1.35704e-05
-4.58909e-05
3.47643e-05
0.00010675
-1.52818e-05
-3.22577e-06
-4.03005e-05
4.07523e-06
-4.43588e-05
2.25172e-05
-2.1658e-05
1.3268e-05
4.40213e-05
-1.06463e-05
9.38929e-06
1.4534e-05
-2.69251e-06
-2.96009e-05
-4.70332e-05
7.98501e-06
-5.49983e-05
1.5557e-05
-3.71588e-05
-2.08529e-05
4.58184e-05
-6.56958e-06
-3.05877e-05
1.6319e-05
-4.90146e-06
-3.88134e-05
-5.98797e-05
5.17276e-06
-6.50326e-05
7.24369e-06
-4.08721e-05
-2.59516e-05
2.61731e-06
-1.70123e-05
-3.77316e-05
2.88057e-05
-8.75224e-06
-4.91174e-05
-7.37624e-05
7.74957e-06
-8.14884e-05
1.29501e-05
-5.42983e-05
-4.37394e-05
1.89823e-05
-5.32129e-06
-4.57384e-05
7.33834e-06
-4.07298e-06
-5.55282e-05
-8.55387e-05
7.03007e-06
-9.25467e-05
9.82504e-06
-5.83071e-05
-3.83198e-05
2.4181e-06
-2.37322e-05
-5.65255e-05
4.19528e-05
-1.38866e-05
-6.8135e-05
-0.000106409
1.71375e-05
-0.00012352
2.53706e-05
-7.63465e-05
-4.73518e-05
1.62167e-05
-3.5651e-05
-7.4666e-05
6.29922e-05
-1.6868e-05
-9.51003e-05
-0.000140356
9.12956e-06
-0.000149452
1.26949e-05
-9.86262e-05
-6.86381e-05
6.71843e-06
-9.61044e-06
-7.62222e-05
1.72301e-05
-6.02553e-06
-0.000102175
-0.000155445
8.42845e-06
-0.000163847
1.18932e-05
-0.000105612
-6.45874e-05
2.79506e-07
-3.36666e-05
-9.3952e-05
6.30549e-05
-1.54449e-05
-0.000123804
-0.000179264
4.99357e-06
-0.000184232
1.21092e-05
-0.000130891
-9.08601e-05
9.04949e-06
1.68432e-05
-8.75174e-05
-2.01663e-05
9.94386e-06
-0.000123969
-0.000174269
-6.32567e-06
-0.000167928
-9.23331e-06
-0.000121047
-7.54638e-05
-2.12769e-05
-1.00547e-05
-0.000109106
4.37065e-05
1.80997e-06
-0.000132898
-0.000166105
-1.79375e-05
-0.000148155
-3.59151e-05
-0.000114907
-7.31616e-05
-7.18448e-05
4.55566e-05
-6.49641e-05
-5.37469e-05
2.57001e-05
-9.50415e-05
-0.000122447
-2.22591e-05
-0.000100182
-3.71896e-05
-8.01051e-05
-5.819e-05
-4.39588e-05
2.03826e-05
-4.85636e-05
-3.0006e-05
1.21601e-05
-7.18787e-05
-8.80188e-05
-4.38299e-06
-8.36345e-05
-1.8786e-06
-7.43805e-05
-6.87833e-05
1.83435e-05
2.67396e-05
-4.78817e-05
-4.76388e-05
1.35364e-05
-6.11769e-05
-7.00988e-05
-1.55275e-05
-5.45741e-05
-2.7119e-05
-4.95881e-05
-4.69225e-05
-2.80808e-05
1.93248e-05
-4.13171e-05
-2.49327e-05
3.34302e-05
-6.36967e-05
-2.11462e-05
1.63525e-05
-3.75012e-05
-7.15858e-06
-4.01899e-05
-7.16844e-05
2.32038e-05
9.13196e-06
-3.36986e-05
-4.71262e-05
4.18064e-06
-3.52431e-05
-3.33243e-05
-6.18276e-06
-2.71457e-05
-1.25401e-05
-2.88908e-05
-2.89028e-05
-1.73421e-05
1.14969e-05
-2.35728e-05
-1.6833e-05
5.68614e-06
-2.30852e-05
-2.1464e-05
-6.07965e-06
-1.5388e-05
-1.22166e-05
-1.69522e-05
-1.77388e-05
-1.80547e-05
-2.33829e-05
-2.91077e-05
3.47454e-05
-1.16241e-05
-2.87168e-05
-2.70173e-05
-2.86521e-06
-2.41596e-05
-7.35971e-06
-2.42318e-05
-2.25355e-05
-1.3944e-05
8.82459e-06
-1.85587e-05