/*--------------------------------*- C++ -*----------------------------------*\
| =========                 |                                                 |
| \\      /  F ield         | OpenFOAM: The Open Source CFD Toolbox           |
|  \\    /   O peration     | Version:  v2006                                 |
|   \\  /    A nd           | Website:  www.openfoam.com                      |
|    \\/     M anipulation  |                                                 |
\*---------------------------------------------------------------------------*/
FoamFile
{
    version     2.0;
    format      ascii;
    class       volVectorField;
    location    "0.009";
    object      U;
}
// * * * * * * * * * * * * * * * * * * * * * * * * * * * * * * * * * * * * * //

dimensions      [0 1 -1 0 0 0 0];


internalField   nonuniform List<vector> 
12716
(
(61.5286 0.00711283 -7.12805e-19)
(61.5333 0.00236423 0)
(61.5311 0.000861534 -7.2572e-20)
(61.526 0.00256072 7.38866e-20)
(61.5144 0.00448604 -1.09118e-19)
(61.4927 0.00647335 1.62541e-19)
(61.4546 0.00762554 0)
(61.3951 0.00596339 0)
(61.312 0.000940095 -1.02606e-19)
(61.2117 -0.00626008 5.47018e-20)
(61.0987 -0.0144185 -1.16043e-19)
(60.9786 -0.022445 3.72204e-21)
(60.8535 -0.0301282 1.52225e-20)
(60.7243 -0.0374934 -7.71342e-21)
(60.5903 -0.0445567 -7.80244e-21)
(60.4506 -0.0513746 0)
(60.3043 -0.0579898 0)
(60.1506 -0.0643895 0)
(59.9892 -0.0705349 0)
(59.8201 -0.0763803 0)
(59.6433 -0.0819414 0)
(59.4589 -0.087275 0)
(59.2669 -0.0924123 0)
(59.0675 -0.0973684 0)
(58.8607 -0.10214 0)
(58.6467 -0.106726 0)
(58.4255 -0.111121 0)
(58.1976 -0.115315 0)
(57.9632 -0.119297 0)
(57.7226 -0.123053 0)
(57.4762 -0.126568 0)
(57.2245 -0.129825 0)
(56.9679 -0.132809 0)
(56.7068 -0.135503 0)
(56.4419 -0.13789 0)
(56.1736 -0.139951 0)
(55.9025 -0.141676 0)
(55.6292 -0.143043 0)
(55.3543 -0.144045 0)
(55.0784 -0.144708 0)
(54.8019 -0.144974 0)
(54.5258 -0.144753 0)
(54.251 -0.144009 0)
(53.9785 -0.142741 0)
(53.709 -0.140964 0)
(53.4434 -0.13868 0)
(53.1823 -0.135884 0)
(52.9266 -0.132557 0)
(52.6769 -0.128675 0)
(52.4342 -0.124214 0)
(52.1992 -0.119161 0)
(51.9726 -0.113503 0)
(51.7547 -0.107205 0)
(51.5455 -0.100157 0)
(51.3444 -0.0920724 0)
(51.1512 -0.0825826 -1.3302e-19)
(50.9665 -0.0712822 1.37132e-19)
(50.7929 -0.0575026 1.66922e-20)
(50.6373 -0.0414085 0)
(50.5144 -0.0259575 0)
(50.442 -0.0158289 2.53038e-19)
(50.4181 -0.0126494 1.84064e-18)
(50.4213 -0.0112407 -1.40127e-17)
(50.4316 -0.00780977 0)
(50.4379 -0.00927828 0)
(50.4296 -0.0138627 0)
(50.3886 -0.0222457 0)
(50.2909 -0.0441222 0)
(50.0844 -0.0690888 3.68162e-19)
(49.8381 -0.0791329 0)
(48.9566 -0.127835 0)
(48.407 -0.120735 5.33656e-18)
(49.8495 -0.145383 -3.57116e-18)
(50.1318 -0.121531 -3.71252e-19)
(50.1623 -0.148371 -5.86888e-18)
(49.7944 -0.170114 -4.51668e-19)
(47.779 -0.115522 -1.1096e-18)
(47.1192 -0.106823 -9.70752e-19)
(49.7019 -0.174573 4.04376e-19)
(50.1763 -0.161256 6.73019e-19)
(50.1661 -0.164529 -6.55622e-19)
(49.5828 -0.16508 9.04916e-19)
(46.5106 -0.0948244 -1.22652e-19)
(45.9205 -0.083459 1.71386e-19)
(49.4264 -0.151921 -9.4732e-20)
(50.1244 -0.162189 7.08023e-19)
(50.0598 -0.15852 -1.57229e-19)
(49.2584 -0.140628 9.47784e-20)
(45.3805 -0.0745008 4.07164e-24)
(44.8819 -0.0669094 -5.67377e-20)
(49.076 -0.130847 -8.20525e-20)
(49.977 -0.155133 7.82364e-20)
(49.8815 -0.151346 0)
(48.8868 -0.122367 -1.76144e-20)
(44.429 -0.0606756 0)
(44.0028 -0.0560007 0)
(48.6921 -0.115864 5.88736e-21)
(49.774 -0.14798 0)
(49.6633 -0.145621 0)
(48.4959 -0.110122 0)
(43.6092 -0.0518365 0)
(43.2298 -0.0491848 0)
(48.2989 -0.105917 0)
(49.5403 -0.143042 0)
(49.4178 -0.1418 0)
(48.1008 -0.102127 0)
(42.8746 -0.0463383 0)
(42.5265 -0.0447048 0)
(47.9023 -0.0993 0)
(49.2839 -0.139997 0)
(49.1526 -0.139551 0)
(47.7027 -0.0966363 0)
(42.1977 -0.0424856 0)
(41.8726 -0.0413899 0)
(47.5027 -0.0945671 0)
(49.0101 -0.138208 0)
(48.8713 -0.138215 0)
(47.3018 -0.0925095 0)
(41.5642 -0.0394486 0)
(41.2577 -0.0386664 0)
(47.1 -0.0908589 0)
(48.721 -0.137132 0)
(48.5755 -0.137457 0)
(46.8978 -0.0891908 0)
(40.9661 -0.0368857 0)
(40.6757 -0.0363353 0)
(46.6941 -0.0878715 0)
(48.4178 -0.136608 0)
(48.2657 -0.137275 0)
(46.4903 -0.0865692 0)
(40.3982 -0.0347053 0)
(40.1213 -0.0343999 0)
(46.2843 -0.085637 0)
(48.1007 -0.136751 0)
(47.942 -0.137886 0)
(46.0782 -0.0847642 0)
(39.8551 -0.0329817 0)
(39.5883 -0.0329833 0)
(45.8691 -0.0843278 0)
(47.7695 -0.137827 0)
(47.6037 -0.139546 0)
(45.6597 -0.0839581 0)
(39.3296 -0.0318432 0)
(39.0687 -0.0321705 0)
(45.4464 -0.0840629 0)
(47.4235 -0.140019 0)
(47.2503 -0.142317 0)
(45.2325 -0.0841563 0)
(38.8137 -0.0312884 0)
(38.5548 -0.0318709 0)
(45.014 -0.0847078 0)
(47.0618 -0.143252 0)
(46.8806 -0.146012 0)
(44.7943 -0.0851227 0)
(38.3003 -0.0311498 0)
(38.041 -0.0318883 0)
(44.5696 -0.0859715 0)
(46.6833 -0.147272 0)
(46.4934 -0.150356 0)
(44.3432 -0.0865623 0)
(37.7851 -0.0312319 0)
(37.5237 -0.032041 0)
(44.1113 -0.0875721 0)
(46.2866 -0.151825 0)
(46.0871 -0.155157 0)
(43.8772 -0.088248 0)
(37.2656 -0.0313861 0)
(37.0016 -0.0322276 0)
(43.6372 -0.0893585 0)
(45.8699 -0.156794 0)
(45.6598 -0.16038 0)
(43.3946 -0.0901151 0)
(36.7406 -0.0315672 0)
(36.4736 -0.0324588 0)
(43.1455 -0.0913552 0)
(45.4312 -0.162222 0)
(45.2095 -0.166123 0)
(42.8932 -0.0922479 0)
(36.2088 -0.0318293 0)
(35.9375 -0.0328205 0)
(42.6339 -0.0936992 0)
(44.9682 -0.168263 0)
(44.7336 -0.17261 0)
(42.3708 -0.0948421 0)
(35.6675 -0.0322848 0)
(35.3901 -0.0334253 0)
(42.0998 -0.0965982 0)
(44.4785 -0.175169 0)
(44.2297 -0.180091 0)
(41.8241 -0.0980932 0)
(35.1127 -0.0330337 0)
(34.8265 -0.0343611 0)
(41.5396 -0.100242 0)
(43.9593 -0.183196 0)
(43.6947 -0.188815 0)
(41.2493 -0.102164 0)
(34.5388 -0.034143 0)
(34.2407 -0.0356751 0)
(40.9492 -0.104766 0)
(43.4073 -0.19257 0)
(43.1249 -0.198976 0)
(40.642 -0.107159 0)
(33.9395 -0.0356376 0)
(33.6263 -0.0373697 0)
(40.3238 -0.110227 0)
(42.8184 -0.203437 0)
(42.5161 -0.210683 0)
(39.9971 -0.113101 0)
(33.3084 -0.0375057 0)
(32.9767 -0.039424 0)
(39.6579 -0.116628 0)
(42.1882 -0.215892 0)
(41.8634 -0.224043 0)
(39.3088 -0.11999 0)
(32.6389 -0.0397136 0)
(32.2856 -0.0418027 0)
(38.9458 -0.12397 0)
(41.5114 -0.230048 0)
(41.1612 -0.239173 0)
(38.5711 -0.127833 0)
(31.9249 -0.0422333 0)
(31.5469 -0.0444853 0)
(38.181 -0.132268 0)
(40.7819 -0.246011 0)
(40.403 -0.256152 0)
(37.7773 -0.136645 0)
(31.1601 -0.0450512 0)
(30.7544 -0.0474601 0)
(37.3566 -0.141523 0)
(39.993 -0.263815 0)
(39.5818 -0.275039 0)
(36.9204 -0.146451 0)
(30.3385 -0.0481654 0)
(29.9017 -0.0507818 0)
(36.4653 -0.151895 0)
(39.1375 -0.283734 0)
(38.6901 -0.296374 0)
(35.9925 -0.157568 0)
(29.4529 -0.0516953 0)
(28.9805 -0.0546032 0)
(35.4981 -0.163797 0)
(38.2068 -0.306476 0)
(37.7178 -0.321011 0)
(34.983 -0.170496 0)
(28.4934 -0.05582 0)
(27.9791 -0.0591184 0)
(34.4429 -0.177778 0)
(37.1894 -0.332974 0)
(36.6522 -0.349956 0)
(33.8782 -0.185805 0)
(27.4467 -0.0607339 0)
(26.8824 -0.0645669 0)
(33.2842 -0.194534 0)
(36.0711 -0.364526 0)
(35.4771 -0.384715 0)
(32.6607 -0.204287 0)
(26.2953 -0.0667043 0)
(25.6701 -0.071314 0)
(32.0018 -0.215087 0)
(34.8336 -0.403099 0)
(34.1712 -0.427819 0)
(31.3064 -0.22732 0)
(25.0152 -0.0742615 0)
(24.3132 -0.0799824 0)
(30.5672 -0.241032 0)
(33.4512 -0.451451 0)
(32.7043 -0.482652 0)
(29.7816 -0.256853 0)
(23.5718 -0.0841068 0)
(22.7703 -0.0915066 0)
(28.94 -0.275011 0)
(31.8884 -0.514239 0)
(31.0332 -0.555465 0)
(28.0369 -0.296402 0)
(21.9141 -0.097461 0)
(20.9776 -0.107541 0)
(27.0581 -0.321675 0)
(30.0916 -0.599756 0)
(29.0909 -0.657428 0)
(25.9938 -0.352251 0)
(19.9617 -0.116569 0)
(18.8322 -0.13114 0)
(24.8221 -0.389508 0)
(27.9762 -0.723098 0)
(26.7687 -0.808863 0)
(23.5226 -0.436042 0)
(17.58 -0.145677 0)
(16.1575 -0.168077 0)
(22.0621 -0.494685 0)
(25.402 -0.912599 0)
(23.8829 -1.05036 0)
(20.3964 -0.571759 0)
(14.5328 -0.193479 0)
(12.6238 -0.23133 0)
(18.4664 -0.673412 0)
(22.1245 -1.23026 0)
(20.11 -1.49083 0)
(16.1909 -0.825237 0)
(10.3732 -0.286851 0)
(7.61002 -0.368656 0)
(13.4547 -1.01301 0)
(17.7228 -1.83256 0)
(14.823 -2.40762 0)
(9.71279 -1.50084 0)
(3.43853 -0.679007 0)
(-2.84732 -0.158477 0)
(5.77939 -1.4175 0)
(11.7416 -2.5336 0)
(7.58309 -2.28983 0)
(-0.0627118 -0.752607 0)
(-4.20782 0.0551444 0)
(-5.78885 -0.166568 0)
(-3.96287 -0.380056 0)
(2.87056 -1.69172 0)
(-1.65567 -0.709304 0)
(-5.74629 -0.356262 0)
(-6.94439 -0.00549918 0)
(-7.5363 0.230902 0)
(-6.76127 -0.280205 0)
(-3.53044 0.155396 0)
(-3.4714 0.838027 0)
(-6.14792 0.255023 0)
(-6.52769 0.349761 0)
(-4.5968 0.367332 0)
(-5.58406 0.428409 0)
(-4.59349 0.889606 0)
(-4.34617 0.611929 0)
(-4.15333 0.317708 0)
(-2.15348 0.19938 0)
(-2.29313 -0.0901196 0)
(-4.52397 -0.0340888 0)
(-5.23129 -0.445413 0)
(-5.49147 -0.263291 0)
(-4.82282 -0.0747002 0)
(-2.43558 -0.0763681 0)
(-3.45491 -0.154787 0)
(-5.66641 -0.398806 0)
(-6.31776 -0.842759 0)
(-7.33986 -0.372341 0)
(-6.83168 -0.279494 0)
(-4.66136 -0.0730714 0)
(-5.57902 -0.131179 0)
(-7.63153 -0.383094 0)
(-8.08946 -0.684895 0)
(-8.81619 -0.108024 0)
(-8.48486 -0.109817 0)
(-6.52384 -0.0396817 0)
(-6.7432 -0.0843702 0)
(-8.57647 -0.126493 0)
(-8.87259 -0.313238 0)
(-9.03618 0.1245 0)
(-8.79171 0.0814277 0)
(-7.07853 -0.0111257 0)
(-6.76452 -0.0210978 0)
(-8.39321 0.08716 0)
(-8.63676 0.0504173 0)
(-8.28619 0.304769 0)
(-8.03724 0.168439 0)
(-6.50918 0.0416888 0)
(-5.98294 0.0295124 0)
(-7.48338 0.116266 0)
(-7.75755 0.203165 0)
(-7.38491 0.260457 0)
(-7.08895 0.125717 0)
(-5.64639 0.037413 0)
(-5.30531 0.0188107 0)
(-6.70079 0.0691456 0)
(-7.01106 0.162799 0)
(-6.74991 0.182458 0)
(-6.4238 0.0756444 0)
(-5.119 0.0180526 0)
(-4.88145 0.0146475 0)
(-6.09404 0.0810559 0)
(-6.4195 0.179514 0)
(-6.0734 0.198858 0)
(-5.74246 0.0961882 0)
(-4.63131 0.016671 0)
(-4.30746 0.0247727 0)
(-5.3193 0.128676 0)
(-5.64711 0.246604 0)
(-5.17269 0.26021 0)
(-4.83816 0.140152 0)
(-3.92347 0.0272206 0)
(-3.44719 0.0384617 0)
(-4.2758 0.178161 0)
(-4.61639 0.323954 0)
(-4.0341 0.315772 0)
(-3.67973 0.175996 0)
(-2.94002 0.0372879 0)
(-2.34676 0.0478789 0)
(-3.00774 0.215389 0)
(-3.38289 0.38101 0)
(-2.73502 0.327608 0)
(-2.32879 0.182677 0)
(-1.74839 0.0377923 0)
(-1.21119 0.0430448 0)
(-1.68464 0.217363 0)
(-2.09328 0.389527 0)
(-1.33503 0.339952 0)
(-0.905941 0.187294 0)
(-0.556598 0.0402523 0)
(-0.0695179 0.0370587 0)
(-0.345398 0.195962 0)
(-0.80061 0.348005 0)
(-0.0347323 0.323738 0)
(0.411739 0.167653 0)
(0.540062 0.036603 0)
(0.953074 0.0308581 0)
(0.908107 0.168944 0)
(0.454408 0.292319 0)
(1.05395 0.288341 0)
(1.51185 0.155378 0)
(1.46963 0.0329022 0)
(1.88267 0.0251398 0)
(2.01571 0.143381 0)
(1.53057 0.257301 0)
(2.01344 0.261714 0)
(2.52242 0.141144 0)
(2.30086 0.0272785 0)
(2.67157 0.0165383 0)
(3.00734 0.11763 0)
(2.47278 0.224604 0)
(2.8829 0.221131 0)
(3.44522 0.113779 0)
(2.99236 0.0159584 0)
(3.26512 0.00671585 0)
(3.87019 0.0856877 0)
(3.2851 0.182401 0)
(3.62895 0.171861 0)
(4.23722 0.0786644 0)
(3.47588 0.00368077 0)
(3.63669 -0.000984001 0)
(4.57492 0.0544478 0)
(3.95254 0.135779 0)
(4.21781 0.117168 0)
(4.8467 0.0459816 0)
(3.75352 -0.000775404 0)
(3.84081 -0.000132528 0)
(5.06695 0.03002 0)
(4.44398 0.0845314 0)
(4.61074 0.0617849 0)
(5.21943 0.0255472 0)
(3.90888 0.00137228 0)
(3.96526 0.00254023 0)
(5.32492 0.0175026 -3.73271e-19)
(4.73368 0.0355625 3.13719e-19)
(4.8075 0.0182225 0)
(5.38104 0.0157184 0)
(4.0122 0.00220239 0)
(4.05303 0.00281225 0)
(5.41022 0.0105483 0)
(4.85382 0.00404954 0)
(4.87205 -0.00262503 0)
(5.41276 0.00838348 0)
(4.08521 0.00186402 0)
(4.11073 0.00253585 0)
(5.40445 0.0048453 0)
(4.88099 -0.00702285 0)
(4.8796 -0.00820305 0)
(5.38821 0.00384786 0)
(4.13024 0.00142603 0)
(4.14536 0.00189701 0)
(5.37163 0.00201518 0)
(4.87987 -0.00865578 0)
(4.87557 -0.00778858 0)
(5.35418 0.00199455 0)
(4.15672 0.00081829 0)
(4.16551 0.00130166 0)
(5.33983 0.000837799 0)
(4.87475 -0.00707694 0)
(4.87069 -0.00588646 0)
(5.32621 0.00132631 0)
(4.1723 0.000363775 0)
(4.17774 0.000887695 0)
(5.31605 0.000415013 0)
(4.86999 -0.00511681 0)
(4.86622 -0.00447715 0)
(5.30615 0.00105149 0)
(4.18203 5.72979e-05 0)
(4.18535 0.000549224 0)
(5.29892 0.000211838 0)
(4.86497 -0.00402703 0)
(4.86025 -0.00396314 0)
(5.29091 0.000849143 0)
(4.18772 -0.000232073 0)
(4.18912 0.000255734 0)
(5.28464 -0.000102778 0)
(4.85735 -0.00395853 0)
(4.85049 -0.0044493 0)
(5.27665 0.000437136 0)
(4.18954 -0.000513873 0)
(4.18862 -3.18859e-06 0)
(5.26936 -0.000671852 0)
(4.84506 -0.00488534 0)
(4.8353 -0.00585039 0)
(5.25969 -0.000248581 0)
(4.18646 -0.000779744 0)
(4.1828 -0.000235444 0)
(5.24968 -0.00153629 0)
(4.82707 -0.00664577 0)
(4.81437 -0.00789483 0)
(5.23696 -0.00122505 0)
(4.17784 -0.00104535 0)
(4.17142 -0.000413324 0)
(5.22331 -0.00262336 0)
(4.80352 -0.00875433 0)
(4.7883 -0.00992504 0)
(5.20698 -0.00231741 0)
(4.16372 -0.00117672 0)
(4.15475 -0.000516211 0)
(5.1898 -0.00362608 0)
(4.77519 -0.0105913 0)
(4.75817 -0.0115127 0)
(5.17031 -0.00321349 0)
(4.14475 -0.00124816 0)
(4.13382 -0.000570972 0)
(5.1504 -0.00434767 0)
(4.74358 -0.0118661 0)
(4.72562 -0.0124825 0)
(5.1287 -0.00377859 0)
(4.12219 -0.00129282 0)
(4.10992 -0.000600066 0)
(5.10713 -0.00478506 0)
(4.71044 -0.0125366 0)
(4.69242 -0.0129187 0)
(5.08424 -0.00411604 0)
(4.09722 -0.00133251 0)
(4.08404 -0.000646403 0)
(5.062 -0.00505809 0)
(4.67746 -0.0127555 0)
(4.66005 -0.0130055 0)
(5.03878 -0.00433128 0)
(4.07051 -0.00139823 0)
(4.05655 -0.000718735 0)
(5.0165 -0.00526193 0)
(4.64573 -0.0127575 0)
(4.62912 -0.0130217 0)
(4.99331 -0.00452575 0)
(4.04224 -0.00148506 0)
(4.02744 -0.000801379 0)
(4.97097 -0.0054807 3.83707e-19)
(4.61534 -0.0128689 -3.19868e-19)
(4.59933 -0.012762 0)
(4.94768 -0.00487203 0)
(4.01243 -0.0014018 0)
(3.99697 -0.0010087 5.71984e-20)
(4.92516 -0.00573172 4.76045e-19)
(4.58595 -0.0124403 -3.97432e-19)
(4.57051 -0.0119746 7.92133e-20)
(4.90175 -0.00502957 -9.50703e-20)
(3.98195 -0.00125152 -5.72017e-20)
(3.96622 -0.00156415 4.43516e-19)
(4.87877 -0.00480991 0)
(4.55649 -0.0116706 -6.22731e-19)
(4.5411 -0.0124916 2.70316e-23)
(4.85629 -0.00331265 -1.86687e-19)
(3.9546 -0.00150066 -2.24994e-19)
(3.94344 -0.00246951 -6.29168e-19)
(4.83126 -0.00221374 5.28821e-19)
(4.52007 -0.014529 0)
(4.495 -0.011974 0)
(4.80513 -0.000140184 -7.44361e-19)
(3.9446 -0.001374 6.80943e-19)
(3.94762 0.000576628 -2.0723e-19)
(4.78277 -4.53362e-05 6.98841e-19)
(4.48048 -0.00836579 -1.17462e-18)
(4.47421 -0.00316506 1.94303e-18)
(4.76808 0.000855996 0)
(3.95495 0.00597059 -4.91203e-19)
(3.98131 0.00988889 9.17205e-19)
(4.75166 -0.00274066 0)
(4.46107 0.000982167 8.20921e-20)
(4.46653 0.00145188 6.10513e-19)
(4.74672 -0.000247648 -8.38175e-19)
(4.00024 0.00366135 0)
(4.04487 0.00896868 0)
(3.79216 0.0242171 -1.26185e-19)
(3.63642 0.02043 0)
(3.5288 0.0344517 -1.77362e-18)
(3.61342 0.0293601 1.68027e-18)
(3.78648 0.0630933 0)
(3.8862 0.0396298 0)
(4.06527 0.0928641 5.36762e-20)
(4.14694 0.0566456 -5.37819e-20)
(4.24777 0.119469 0)
(4.25457 0.0737919 0)
(4.16378 0.143217 0)
(4.04881 0.0913822 0)
(3.69815 0.14962 0)
(3.46284 0.10318 8.9418e-19)
(2.99535 0.126867 -2.7284e-18)
(2.75883 0.101324 1.90832e-18)
(2.44831 0.0877985 -7.80145e-18)
(2.31175 0.0873921 8.2707e-18)
(2.29762 0.0774827 3.25043e-17)
(2.281 0.0749955 -7.56655e-17)
(2.36797 0.0513011 0)
(2.37176 0.0685819 0)
(2.56792 0.0275158 1.21453e-17)
(2.83452 0.0775245 0)
(2.78133 0.0243882 0)
(1.78788 0.042734 0)
(1.87858 0.0147068 0)
(2.74188 0.0353435 -7.46271e-17)
(2.86617 0.04568 6.73276e-17)
(3.02176 -0.0458315 3.09717e-17)
(2.54655 -0.0888667 3.86272e-17)
(1.25166 -0.0179553 -1.50231e-17)
(1.4506 -0.0125154 0)
(2.801 0.0168565 1.31481e-17)
(3.20388 0.0161842 -2.18534e-17)
(3.2672 0.0231628 -1.29413e-17)
(2.87448 0.0125041 1.00789e-18)
(1.45463 -0.0107964 -2.45532e-18)
(1.48612 -0.0051426 -5.60179e-19)
(2.95375 0.0159226 9.28947e-19)
(3.34464 0.024323 -3.82545e-18)
(3.40288 0.0188664 7.81218e-19)
(2.99285 0.00679481 1.06161e-18)
(1.50035 -0.00191187 -5.70345e-19)
(1.51956 -0.00226164 1.40323e-19)
(3.0375 0.00928441 3.63561e-18)
(3.45401 0.0175994 -6.25394e-18)
(3.49988 0.0135498 7.86322e-19)
(3.05966 0.00125831 2.09475e-26)
(1.5219 0.000402022 -1.27821e-18)
(1.53436 -0.00338356 1.42336e-19)
(3.09474 0.0081783 -1.9014e-18)
(3.53792 0.0118635 -1.57469e-18)
(3.56974 0.00773474 0)
(3.11491 0.0014476 0)
(1.52664 -0.00181066 -1.43499e-19)
(1.54223 -0.00038623 0)
(3.14747 0.0078267 0)
(3.60357 0.0118153 -1.59143e-18)
(3.63214 0.0082075 1.58456e-18)
(3.16532 0.0025149 0)
(1.55524 0.000173953 0)
(1.56619 -0.00214647 0)
(3.1909 0.00615842 0)
(3.65346 0.00394361 -1.5846e-18)
(3.66833 0.00165478 1.58459e-18)
(3.19699 0.000357675 0)
(1.56582 -0.000838905 0)
(1.57548 -0.00135275 0)
(3.21639 0.00657608 0)
(3.68265 0.00563535 -1.58462e-18)
(3.70008 0.00225955 1.58462e-18)
(3.22349 0.00034838 0)
(1.57859 -0.000384465 0)
(1.58517 -0.00204634 0)
(3.23817 0.00489097 0)
(3.71031 0.00121919 -1.58464e-18)
(3.72209 -0.000732227 1.58465e-18)
(3.2382 -0.00101788 0)
(1.58031 -0.000818199 0)
(1.58771 -0.00125598 -1.147e-18)
(3.25249 0.00568127 -9.56628e-19)
(3.73129 0.00433692 1.58467e-18)
(3.74698 0.00103719 1.58467e-18)
(3.25634 -0.000513269 0)
(1.58768 -0.000387425 0)
(1.59349 -0.00186093 0)
(3.26938 0.00469431 0)
(3.75564 0.00144284 -1.58469e-18)
(3.76659 -0.00123768 1.5847e-18)
(3.26866 -0.00137735 0)
(1.58815 -0.000758605 0)
(1.59521 -0.00112171 0)
(3.28192 0.00551254 0)
(3.77432 0.00430667 -1.58472e-18)
(3.78797 0.000224171 1.58473e-18)
(3.28428 -0.000881969 0)
(1.59453 -0.000349165 0)
(1.6 -0.00167824 0)
(3.29591 0.00452179 0)
(3.7944 0.00141288 -1.58474e-18)
(3.80325 -0.00204684 1.58476e-18)
(3.29352 -0.00174342 0)
(1.59419 -0.000683197 0)
(1.60073 -0.00097328 0)
(3.3049 0.00514817 0)
(3.80831 0.0038999 -1.58477e-18)
(3.82008 -0.000595364 1.58478e-18)
(3.30509 -0.00136641 0)
(1.5989 -0.000275211 0)
(1.60388 -0.00149598 0)
(3.31519 0.00415722 0)
(3.82505 0.00138633 -1.58478e-18)
(3.83375 -0.00238477 1.58479e-18)
(3.31163 -0.00215316 0)
(1.59711 -0.000596191 0)
(1.60327 -0.000844636 0)
(3.32238 0.00483871 0)
(3.83905 0.00407881 -1.5848e-18)
(3.85174 -0.000610063 1.58479e-18)
(3.32228 -0.00164476 0)
(1.60066 -0.000240151 0)
(1.60563 -0.00141174 0)
(3.33305 0.00413079 0)
(3.85879 0.00212767 -1.58479e-18)
(3.86957 -0.00196935 1.58478e-18)
(3.33069 -0.002134 0)
(1.59886 -0.000619697 0)
(1.6054 -0.000854573 0)
(3.34314 0.00505051 0)
(3.87782 0.00491782 -1.58476e-18)
(3.89246 -0.000205032 1.58472e-18)
(3.34468 -0.00143436 0)
(1.6033 -0.000339391 0)
(1.60887 -0.00145696 0)
(3.35762 0.00453152 0)
(3.90276 0.00314839 -1.58469e-18)
(3.91564 -0.00149349 1.58463e-18)
(3.3573 -0.0018217 0)
(1.60296 -0.000737319 0)
(1.61024 -0.000926512 0)
(3.37202 0.00551221 0)
(3.92693 0.00582526 -1.58458e-18)
(3.94296 4.76315e-05 1.58449e-18)
(3.37525 -0.00113574 0)
(1.60906 -0.000472569 0)
(1.61529 -0.00149637 0)
(3.39014 0.00496267 0)
(3.9559 0.00409287 -1.58442e-18)
(3.97035 -0.00122249 1.58431e-18)
(3.39136 -0.00159684 0)
(1.61015 -0.00083686 0)
(1.61802 -0.00095587 0)
(3.40782 0.0058889 0)
(3.98417 0.00663712 -1.58422e-18)
(4.00133 9.18569e-05 1.58406e-18)
(3.41215 -0.00098176 0)
(1.61744 -0.000577109 0)
(1.6241 -0.00149505 0)
(3.42837 0.00529115 0)
(4.01642 0.00491446 -1.58396e-18)
(4.0321 -0.00115389 1.58378e-18)
(3.43053 -0.00148893 0)
(1.61939 -0.00091674 0)
(1.62763 -0.000959974 0)
(3.44817 0.00616848 0)
(4.04791 0.00731743 -1.58365e-18)
(4.06589 -5.03868e-06 1.58341e-18)
(3.45312 -0.000918193 0)
(1.62732 -0.000670252 0)
(1.6343 -0.00146623 0)
(3.47034 0.0055757 0)
(4.08268 0.00568074 -1.58329e-18)
(4.0992 -0.00114364 1.58304e-18)
(3.47317 -0.00140868 0)
(1.62996 -0.000975449 0)
(1.63853 -0.000941722 0)
(3.49175 0.00638201 0)
(4.11649 0.00794059 -1.58289e-18)
(4.13491 -8.15721e-05 1.58256e-18)
(3.49715 -0.000880967 0)
(1.63838 -0.000741357 0)
(1.64578 -0.00139407 0)
(3.51542 0.00584635 0)
(4.15303 0.0065156 -1.58244e-18)
(4.17004 -0.00101978 1.58212e-18)
(3.51895 -0.00131682 0)
(1.642 -0.000986812 0)
(1.65099 -0.000865306 0)
(3.53856 0.00651284 0)
(4.1885 0.00865102 -1.58195e-18)
(4.20727 8.46151e-05 1.58157e-18)
(3.54453 -0.000861675 0)
(1.65108 -0.000739576 0)
(1.6591 -0.00123358 0)
(3.56416 0.00607767 0)
(4.22686 0.00756209 -1.58146e-18)
(4.24452 -0.000643683 1.58106e-18)
(3.56865 -0.00120384 0)
(1.65624 -0.000920623 0)
(1.66573 -0.000736563 0)
(3.58951 0.00654528 0)
(4.26446 0.00945311 -1.58091e-18)
(4.28394 0.000452807 1.5805e-18)
(3.59616 -0.000814666 0)
(1.66608 -0.000691458 0)
(1.67493 -0.00104085 0)
(3.61748 0.00628953 0)
(4.30547 0.00869484 -1.58038e-18)
(4.32412 -8.52432e-05 1.57994e-18)
(3.62311 -0.00102792 0)
(1.67317 -0.000823113 0)
(1.68328 -0.00060164 0)
(3.64549 0.00653398 0)
(4.34591 0.0102944 -1.57981e-18)
(4.36652 0.00103313 1.57937e-18)
(3.65305 -0.000712102 0)
(1.68393 -0.000621446 0)
(1.69384 -0.000821688 0)
(3.67652 0.0065167 0)
(4.39064 0.0100025 -1.57927e-18)
(4.41094 0.000780093 1.57881e-18)
(3.68372 -0.000769335 0)
(1.69347 -0.00068831 0)
(1.70437 -0.000448184 0)
(3.70823 0.00651524 0)
(4.43573 0.011375 -1.57871e-18)
(4.45872 0.00205391 1.57826e-18)
(3.71735 -0.000543632 0)
(1.70548 -0.000517694 0)
(1.71678 -0.000570719 0)
(3.74408 0.00682978 0)
(4.48756 0.0118635 -1.57818e-18)
(4.51187 0.00237607 1.57773e-18)
(3.75429 -0.000383747 0)
(1.71831 -0.000519627 0)
(1.73042 -0.000285148 0)
(3.78278 0.00665296 0)
(4.54311 0.0133279 -1.57765e-18)
(4.57198 0.00411513 1.57717e-18)
(3.79583 -0.000171084 0)
(1.73271 -0.000399646 0)
(1.74605 -0.00034339 0)
(3.82861 0.00748174 0)
(4.61036 0.0149621 -1.57709e-18)
(4.64278 0.00513803 1.57654e-18)
(3.84511 0.000326247 0)
(1.75068 -0.000401007 0)
(1.76469 -0.000234493 0)
(3.88077 0.00730408 0)
(4.68539 0.0165128 -1.57643e-18)
(4.72324 0.00701787 1.5758e-18)
(3.90097 0.000610817 0)
(1.76939 -0.000440815 0)
(1.78531 -0.000349269 0)
(3.9423 0.0087021 0)
(4.77421 0.0188596 -1.57569e-18)
(4.81558 0.0081956 1.57505e-18)
(3.96726 0.0014411 0)
(1.79355 -0.000617653 0)
(1.80897 -0.000640484 0)
(4.01173 0.00873796 0)
(4.87006 0.0203997 -1.57497e-18)
(4.91723 0.0114199 1.57438e-18)
(4.04347 0.0027751 0)
(1.81757 -0.000911469 0)
(1.84332 0.000149087 0)
(4.10337 0.0141072 0)
(4.98428 0.0283088 0)
(5.04082 0.0272939 7.90277e-19)
(4.15025 0.0153572 -9.49092e-19)
(1.87317 0.00346778 -1.13789e-18)
(1.89735 0.0112623 0)
(4.21285 0.0369493 0)
(5.10905 0.0549274 -3.16112e-18)
(5.16907 0.0562258 0)
(4.25507 0.0390666 0)
(1.92503 0.0145464 0)
(1.96687 0.0195551 0)
(4.3383 0.0648988 0)
(5.24464 0.0898748 0)
(5.30724 0.0984942 -4.89831e-18)
(4.38686 0.0758015 3.75798e-18)
(1.99631 0.0301874 0)
(2.0319 0.0399639 0)
(4.46547 0.10482 0)
(5.38077 0.136029 1.9509e-19)
(5.4396 0.143086 -6.18297e-18)
(4.50929 0.114021 7.43695e-18)
(2.06125 0.047869 0)
(2.1073 0.0536115 1.76362e-17)
(4.5954 0.136343 -7.39872e-18)
(5.51814 0.174424 -6.13693e-18)
(5.58994 0.180327 6.11039e-18)
(4.66652 0.143283 0)
(2.14896 0.0591319 -8.78141e-18)
(2.18661 0.0695583 0)
(4.74488 0.165911 0)
(5.67376 0.210116 1.20838e-17)
(5.74855 0.215944 -1.86278e-19)
(4.81775 0.170887 1.43739e-17)
(2.23753 0.0738843 -1.73453e-17)
(2.31268 0.0854048 -1.71409e-17)
(4.91759 0.197261 0)
(5.84585 0.249196 1.85699e-19)
(5.93178 0.261599 0)
(5.0117 0.212583 -1.39707e-17)
(2.37873 0.0945458 1.68444e-17)
(2.42965 0.103143 -1.30102e-19)
(5.10588 0.233983 1.38015e-17)
(6.02595 0.289916 -1.16189e-17)
(6.11595 0.298005 1.14259e-17)
(5.18327 0.242712 1.38236e-17)
(2.48901 0.110713 -1.63581e-17)
(2.56996 0.118012 -1.63066e-17)
(5.29419 0.262868 -1.05587e-19)
(6.22849 0.327103 0)
(6.33852 0.341191 2.23868e-17)
(5.38901 0.277922 -2.67219e-17)
(2.6545 0.13178 1.61426e-17)
(2.74543 0.144382 -1.59184e-17)
(5.50089 0.302371 -2.06195e-19)
(6.46002 0.374801 -1.10269e-17)
(6.58505 0.398632 0)
(5.61111 0.322014 1.32794e-17)
(2.85196 0.158239 -1.57129e-17)
(2.97475 0.178067 0)
(5.74662 0.358419 -2.02454e-19)
(6.72687 0.444237 -1.07064e-17)
(6.87893 0.47597 1.06713e-17)
(5.90308 0.383715 -1.35006e-17)
(3.13086 0.191314 -1.54599e-17)
(3.33877 0.22434 -1.5778e-17)
(6.08477 0.431805 2.63224e-17)
(7.05642 0.540461 -2.17975e-17)
(7.2462 0.603673 6.65463e-19)
(6.31254 0.479087 -1.12309e-17)
(3.60386 0.263387 1.69451e-17)
(3.94319 0.313985 1.61151e-17)
(6.58887 0.532879 -1.56703e-18)
(7.48244 0.680913 0)
(7.75705 0.743316 -9.99613e-18)
(6.94753 0.583189 3.09094e-18)
(4.42406 0.371206 -1.90661e-18)
(4.9529 0.428897 0)
(7.36335 0.669634 -2.63827e-18)
(8.05735 0.854654 0)
(8.21449 0.87105 0)
(7.55517 0.684591 2.15191e-18)
(5.20577 0.342098 2.45763e-18)
(3.71603 0.237692 -6.18539e-18)
(6.90922 0.455352 -2.82863e-18)
(8.14751 0.457062 -2.09418e-17)
(8.8286 0.897728 0)
(7.75819 0.776519 0)
(4.82237 0.427107 2.51946e-18)
(5.56495 0.526757 -1.77057e-17)
(8.31728 0.891414 1.56082e-17)
(9.21455 1.07205 -1.05938e-17)
(9.63583 1.20282 1.00794e-17)
(8.99669 1.01813 -2.91746e-17)
(6.59001 0.671962 3.39305e-17)
(7.69419 0.81848 -6.38759e-17)
(9.62442 1.1059 5.33245e-17)
(10.0031 1.29457 -4.5987e-17)
(10.215 1.32389 -1.2129e-18)
(10.1915 1.18658 5.62342e-19)
(8.85956 0.987463 -3.18066e-17)
(10.1168 1.13091 -3.95062e-17)
(10.4736 1.17607 1.44068e-17)
(10.4271 1.32655 1.76555e-17)
(10.5007 1.37553 -4.84149e-18)
(10.7909 1.31455 0)
(10.5431 1.26739 -1.91972e-18)
(10.7348 1.30592 6.79717e-18)
(10.8306 1.25568 -3.26201e-18)
(10.4474 1.27224 1.53005e-18)
(10.324 1.14475 -5.71298e-18)
(10.7787 1.18604 1.51199e-17)
(10.8085 1.33344 -1.87589e-17)
(10.751 1.35715 2.37976e-17)
(10.6225 1.10058 1.11397e-17)
(10.1139 0.987035 0)
(9.9256 0.797235 -8.12422e-18)
(10.3863 0.996124 -1.48121e-17)
(10.5652 1.37321 -2.65609e-17)
(10.2574 1.31907 0)
(10.1861 0.888463 9.13277e-18)
(9.76193 0.815886 -6.29433e-22)
(9.39206 0.646653 7.38842e-18)
(9.76856 0.788966 -9.61457e-18)
(9.81229 1.31148 -1.39725e-17)
(9.27357 1.32966 1.29967e-17)
(9.1821 0.620723 2.62085e-18)
(8.86879 0.447789 1.15787e-17)
(8.21952 0.212459 1.5782e-18)
(8.46136 0.415014 -1.39042e-17)
(8.5838 1.32663 1.26407e-17)
(7.74242 1.21518 3.75662e-17)
(7.54381 0.0608099 1.35335e-17)
(7.38908 -0.23899 -2.88132e-17)
(6.38407 -0.588896 1.71823e-18)
(6.44351 -0.215409 0)
(6.74923 1.09319 -1.2605e-17)
(5.68686 0.874783 4.33956e-21)
(5.166 -0.63657 2.06263e-17)
(5.15515 -1.17636 -3.88831e-17)
(3.58727 -1.64485 2.09566e-17)
(3.74475 -0.904432 6.71821e-18)
(4.56023 0.677701 -4.94293e-17)
(3.50565 0.460202 6.73721e-17)
(2.45014 -1.21018 -1.81171e-17)
(2.31912 -2.07949 0)
(1.46043 -2.33072 -2.71075e-17)
(1.43845 -1.5762 1.20351e-17)
(2.54786 0.177358 -7.90009e-17)
(1.44296 -0.265305 0)
(0.107854 -2.1461 -1.29095e-17)
(0.158198 -3.00092 7.45715e-17)
(-1.05492 -3.75883 0)
(-1.24254 -2.40636 2.75886e-17)
(0.102441 -0.693137 -1.85651e-17)
(-0.951784 -1.09495 4.00497e-17)
(-2.49776 -3.24028 3.5446e-17)
(-2.22162 -4.98206 3.56172e-17)
(-3.96112 -6.65552 -1.53764e-17)
(-4.15546 -4.89938 2.39011e-17)
(-2.15645 -2.11798 -9.46072e-17)
(-4.00986 -3.37512 1.23886e-17)
(-6.41286 -6.04959 -4.97402e-21)
(-6.01016 -7.76467 -2.25945e-17)
(-7.96949 -8.96315 -6.627e-21)
(-8.76628 -7.18515 1.06075e-17)
(-6.34704 -4.81448 1.22881e-17)
(-9.02935 -6.48321 0)
(-11.2409 -8.58242 -1.04629e-17)
(-10.1549 -10.6554 -4.06318e-17)
(-12.3987 -11.7784 6.9642e-17)
(-13.539 -9.84681 -1.28577e-17)
(-11.8371 -8.26874 1.2712e-17)
(-14.7613 -10.5085 0)
(-15.788 -11.9675 -1.4892e-17)
(-14.1461 -14.1954 9.23213e-18)
(-16.0002 -17.1871 5.95206e-18)
(-18.2256 -15.0906 0)
(-18.0966 -13.5517 1.29551e-17)
(-21.729 -17.65 -1.22632e-17)
(-20.6115 -19.3977 2.29329e-17)
(-17.525 -21.7091 1.69834e-17)
(-20.2319 -24.6487 -2.86446e-17)
(-23.1732 -23.4872 0)
(-25.7639 -22.5191 3.72539e-17)
(-29.449 -28.4198 -7.53003e-17)
(-24.6852 -29.2015 -1.54678e-17)
(-20.9579 -30.1882 1.76498e-17)
(-19.8975 -38.4789 4.51262e-17)
(-24.5744 -37.6037 -8.84613e-17)
(-33.0714 -36.7668 3.41689e-17)
(-35.355 -46.8646 0)
(-23.9158 -46.5678 2.89341e-17)
(-20.4094 -45.4814 0)
(-16.5924 -54.6334 -1.81663e-19)
(-20.6157 -56.4805 -5.93668e-17)
(-36.5053 -59.1682 0)
(-33.407 -72.9658 4.24596e-17)
(-12.2075 -67.2919 0)
(-9.71324 -64.8007 0)
(-3.13656 -71.8703 6.66999e-18)
(-3.12881 -76.3774 -8.4202e-18)
(-28.6518 -87.7053 -5.85455e-17)
(-17.8057 -96.6535 3.38677e-17)
(5.76336 -84.542 -2.34943e-17)
(6.51776 -78.3526 -2.58262e-17)
(17.7852 -82.439 -1.74633e-17)
(14.8066 -86.0113 -1.93889e-17)
(-4.24763 -96.6074 -2.98688e-17)
(7.38411 -83.562 3.37532e-17)
(23.1796 -75.9748 6.9268e-17)
(24.0024 -79.784 -2.35873e-17)
(29.7746 -70.8034 1.21631e-16)
(25.7461 -60.3607 -1.09366e-16)
(9.3654 -58.6248 5.54581e-17)
(3.45453 -33.451 0)
(22.1376 -45.2671 0)
(29.4755 -61.3861 -9.67182e-17)
(23.5016 -47.7057 3.49495e-17)
(13.2262 -31.5161 0)
(-5.17889 -14.9815 1.95432e-17)
(-7.87626 0.846269 -3.739e-17)
(7.48041 -18.7303 0)
(19.3866 -36.3533 2.984e-17)
(15.8979 -28.1585 -2.8977e-17)
(2.97895 -10.1457 1.32958e-17)
(-9.64633 3.38279 -3.58932e-17)
(-13.3099 4.11223 0)
(-8.53867 2.28096 -1.27309e-21)
(5.56571 -16.2592 1.77983e-17)
(-0.599144 -8.36424 -2.84201e-17)
(-9.67402 5.36745 4.07782e-17)
(-14.5688 3.2883 -3.42275e-17)
(-16.8093 3.30375 0)
(-13.4424 3.34887 1.11793e-17)
(-4.18557 -4.73535 -3.36875e-17)
(-11.7503 0.267217 0)
(-15.5801 4.27909 -1.24163e-17)
(-19.2131 4.16328 -9.97188e-17)
(-21.46 4.81175 1.18805e-16)
(-17.1597 4.86957 -2.86155e-17)
(-14.3187 1.27861 0)
(-14.7661 1.45374 0)
(-18.3406 5.22979 0)
(-23.5362 5.40365 -2.26078e-20)
(-25.6208 5.96699 -5.85177e-17)
(-19.5447 5.15583 0)
(-15.1313 1.13083 -3.02742e-17)
(-17.1767 2.17061 0)
(-21.2158 5.62237 0)
(-27.5887 6.80994 -5.9685e-17)
(-29.3411 7.7098 5.97596e-17)
(-23.4853 5.55674 -2.4156e-17)
(-19.758 2.04144 3.10294e-17)
(-20.8917 2.53983 -1.58108e-20)
(-25.1441 5.8026 4.23047e-17)
(-30.6406 8.63686 -2.64794e-17)
(-31.4957 9.17636 4.54074e-17)
(-26.0798 6.00543 -1.61911e-21)
(-21.4625 2.64334 -7.17019e-17)
(-20.2372 4.60781 9.94948e-17)
(-25.7152 6.84735 -2.4013e-17)
(-31.9626 9.53166 0)
(-32.5783 9.53195 0)
(-24.2957 6.89573 1.70804e-17)
(-15.9829 5.34949 -2.4656e-17)
(-17.834 2.85525 0)
(-25.4457 5.70294 -2.63384e-17)
(-33.9081 9.61253 0)
(-35.1775 10.352 -1.64847e-17)
(-27.4011 5.71596 6.80309e-17)
(-20.6722 3.05543 -1.19367e-17)
(-20.7066 3.40048 -7.84556e-17)
(-28.4104 6.03288 3.27176e-17)
(-36.1699 11.1505 0)
(-36.8945 11.7323 0)