/*--------------------------------*- C++ -*----------------------------------*\
| =========                 |                                                 |
| \\      /  F ield         | OpenFOAM: The Open Source CFD Toolbox           |
|  \\    /   O peration     | Version:  v2006                                 |
|   \\  /    A nd           | Website:  www.openfoam.com                      |
|    \\/     M anipulation  |                                                 |
\*---------------------------------------------------------------------------*/
FoamFile
{
    version     2.0;
    format      ascii;
    class       volScalarField;
    location    "0.023";
    object      omega;
}
// * * * * * * * * * * * * * * * * * * * * * * * * * * * * * * * * * * * * * //

dimensions      [0 0 -1 0 0 0 0];


internalField   nonuniform List<scalar> 
16277
(
0.00810016
0.00809895
0.00809824
0.00809787
0.00809579
0.00809506
0.00809375
0.00809148
0.00808706
0.00808022
0.00807131
0.008061
0.00804987
0.00803825
0.00802622
0.00801375
0.00800078
0.00798721
0.00797299
0.0079581
0.00794252
0.00792626
0.00790933
0.00789173
0.00787348
0.00785459
0.00783507
0.00781492
0.00779415
0.00777278
0.00775081
0.00772827
0.00770517
0.00768151
0.00765733
0.00763265
0.00760747
0.00758182
0.00755573
0.00752922
0.00750232
0.00747504
0.00744742
0.00741949
0.00739127
0.00736279
0.00733409
0.00730518
0.00727612
0.00724692
0.00721762
0.00718825
0.00715885
0.00712945
0.00710009
0.0070708
0.00704161
0.00701257
0.0069837
0.00695505
0.00692665
0.00689857
0.00687088
0.00684375
0.00681748
0.00679282
0.0067715
0.00675776
0.00676259
0.00681448
0.00695981
0.00730552
0.00807702
0.00974477
0.013265
0.0204793
0.0349091
0.0633425
0.119136
0.22592
0.424783
0.759019
1.09795
1.77636
2.47572
2.9824
3.62594
6.59605
11.4275
14.4241
12.9361
34.2068
105.124
396.713
3397.15
18551.7
254237
251083
37752.8
8614.88
15080.3
52836.2
247980
244714
54767.6
17428.6
20661.1
57932.1
235929
231530
57376
21256.3
23234.8
58733.6
225630
222823
58074.3
23362.7
24447.9
58479
218471
215615
57091.8
24304.7
24930.3
57565
212093
210044
56343.1
24756.1
25214.3
56872.5
207338
205789
55840
25018.8
25408.4
56407.5
203602
202383
55506.6
25206.4
25562.8
56098.5
200535
199531
55274.9
25358.4
25695.5
55891.4
197913
197061
55113.9
25490.4
25814.6
55754.3
195608
194863
55011.1
25609.9
25924.7
55663.9
193528
192858
54944.1
25720.1
26026.1
55600.6
191609
190991
54896.1
25821.1
26119.3
55550.4
189807
189229
54856.1
25913.1
26205.5
55505.3
188096
187548
54818.5
25996.3
26282.7
55461.1
186454
185928
54780
26070.2
26350.7
55414.8
184866
184356
54738.2
26135.3
26410.4
55364.3
183319
182821
54690.7
26192.2
26462.1
55307.3
181804
181316
54636.3
26241.4
26506.7
55243.2
180316
179834
54574.3
26283.8
26544.8
55171.4
178848
178371
54504.5
26320.2
26577.3
55091.5
177394
176920
54426.3
26351.2
26604.7
55003.3
175950
175476
54339.7
26377.2
26627.3
54906.4
174510
174034
54244.2
26398.7
26645.6
54800.4
173068
172590
54139.3
26416
26659.7
54684.7
171621
171138
54024.6
26429.2
26669.6
54558.7
170164
169673
53899.1
26438.2
26675.2
54421.6
168693
168193
53762.3
26442.9
26676.4
54272.6
167204
166695
53613.3
26443.2
26673.2
54111.1
165694
165174
53451.5
26439.1
26665.4
53936.3
164161
163629
53276.3
26430.3
26652.8
53747.5
162602
162058
53086.7
26416.6
26634.9
53543.7
161016
160460
52880.3
26397.4
26611.2
53323.3
159401
158834
52652.3
26372
26580.7
53084.2
157759
157181
52407
26339.4
26542.4
52826.8
156090
155502
52141.2
26298.6
26495.2
52548
154396
153800
51852.2
26248.3
26437.5
52245.2
152681
152081
51537.3
26186.5
26367.3
51915.8
150952
150351
51193.7
26111.3
26282.2
51556.7
149217
148621
50817.6
26017.3
26178.7
51164.4
147488
146905
50405.1
25900.1
26053.7
50734.8
145781
145219
49952.8
25760.9
25905.5
50264.9
144115
143586
49457.1
25595.1
25729.1
49750.9
142514
142031
48913.9
25397.8
25519.9
49189.1
141007
140587
48320.3
25164.5
25273.3
48577.2
139627
139291
47677.8
24890.9
24985.4
47913.1
138414
138183
47014.9
24577.1
24656.5
47223.4
137434
137300
46320.2
24214.3
24280.2
46502.4
136702
136674
45601.9
23808.2
23863.4
45763.6
136271
136329
44880.6
23369.6
23417.6
45028.2
136099
136280
44181.6
22914
22958.3
44330.5
136222
136544
43527.3
22449.3
22492.6
43692.5
136584
137083
42943.7
21987.8
22036.1
43126.4
137230
137885
42464.8
21557.7
21617.4
42669.8
138112
138873
42102.6
21179.9
21255.4
42355.1
139157
139989
41829
20861.8
20954.7
42165.1
140315
141198
41677
20606.2
20716.2
42070.4
141554
142471
41633.9
20412.2
20539.7
42088.2
142841
143764
41700.9
20279.7
20424.5
42210.8
144134
145043
41866.5
20206.3
20367.7
42425.6
145401
146276
42117.8
20170.8
20360.3
42717.1
146612
147437
42443.3
20187.9
20405.8
43091.8
147744
148505
42820.8
20254.7
20511.7
43547.6
148779
149464
43272.4
20370.4
20655.8
44035
149699
150300
43751.9
20518.6
20822.2
44535.7
150492
151007
44241.8
20687.8
21005.5
45033.9
151157
151587
44727.1
20872.3
21199
45515.7
151696
152047
45194.7
21065.4
21396.1
45970
152119
152400
45634.5
21260.7
21591.2
46389.7
152439
152660
46039.7
21452.8
21779.8
46770.5
152672
152838
46406.8
21637.7
21958.6
47111
152830
152951
46734.6
21812.2
22125.2
47412.1
152930
153016
47024.4
21974.6
22278.8
47676.1
152982
153039
47278.5
22123.8
22419
47910.5
152995
153037
47501
22259.9
22546.3
48118.2
152973
153003
47694.2
22383.3
22661
48296.4
152917
152943
47859.6
22494.4
22763.8
48448.7
152842
152864
48001.5
22593.9
22855.9
48579.7
152751
152769
48124.4
22683
22940
48693.8
152645
152660
48232
22763.3
23016.5
48794.1
152527
152539
48327
22835.3
23084.7
48882.8
152399
152408
48411.1
22899.3
23145.1
48961.2
152261
152270
48485.4
22956
23198.4
49030
152149
152094
48545.6
23004.1
23259.4
49093.2
152033
151948
48641.5
23040.3
23282.5
49266.6
151995
151328
48448.7
22949.6
23084.7
48465.9
150796
148899
48255.9
22808.1
21742.1
46041.6
146471
137708
48214
22277.7
15393.4
26863.5
123446
138778
60435.6
27940
13523.4
6980.79
4345.42
3411.88
3042.46
2525.78
2307.96
2151.82
2087.24
2070.99
2104.55
2201.8
2334.91
2577.77
2854.22
3442.5
3768.46
4709.21
5725.51
7542.84
11674.3
22869.2
55634.2
128496
405089
434529
139199
61151.4
64617.7
147067
460361
482557
153585
68162
68218
154974
488855
494729
156190
69420.2
69599.2
157772
498472
499072
158163
69859.9
69785.9
158175
498872
499244
158212
69797.7
69786.9
158234
499080
499193
158220
69755.9
69744
158226
499318
499167
158210
69714.1
69684.6
158213
499865
499724
158176
69659.1
69630.1
158169
499850
499719
158153
69594.6
69575.3
158153
500136
500576
158073
69533.3
69514.4
158113
500144
500583
158032
69473.3
69454.8
158085
500733
501171
157971
69410.9
69392.4
158027
500752
501193
157934
69351
69332.9
157991
501352
501794
157872
69289.6
69271.6
157929
501383
501829
157834
69231.4
69214
157891
501994
502442
157773
69172.4
69155.5
157828
502037
502489
157735
69117.8
69101.8
157790
502660
503115
157672
69063.8
69049
157724
503000
502892
157683
69013
68998.2
157681
503346
503814
157602
68965.3
68952
157638
503699
503602
157608
68921.2
68908.8
157612
504058
504535
157541
68881.3
68870.8
157582
504424
504334
157558
68846.6
68837.7
157575
504793
505276
157515
68817.8
68811.7
157569
505166
505079
157554
68796.9
68793.3
157595
505539
506024
157552
68783.7
68783.4
157630
505912
505826
157628
68777.3
68781
157707
506283
506766
157687
68778.1
68786.7
157798
506650
506559
157829
68787.7
68801.8
157945
507008
507484
157959
68805.4
68824.8
158119
507356
507253
158194
68831.2
68854.3
158358
507687
508144
158436
68862.9
68889.9
158642
507712
508149
158764
68901.1
68929.4
159012
508284
508698
159146
68940.4
68971.6
159440
508248
508645
159629
68983.2
69010.7
159967
508756
509138
160176
69019.4
69041.5
160555
508947
508754
160849
69046.2
69058.5
161250
509126
509499
161555
69056.6
69059.4
162007
509306
509121
162370
69033.4
69023
162833
509518
509947
163178
68965.7
68935.7
163666
509534
510035
163999
68842.6
68782.3
164477
510290
510909
164744
68645.7
68544.4
165165
511017
511245
165394
68352.5
68201.3
165681
512138
512923
165819
67932.7
67690.6
165891
513859
515068
165897
67321.6
66930.7
165713
516496
518304
165265
66375.1
65759.5
164466
520435
522858
163285
64961.6
63868.6
159867
520231
517597
156240
63021.4
62487.1
154177
523974
521317
155111
62006.4
60996.5
146568
513534
510519
147789
60849.2
60291.3
143299
502471
495624
140939
59921.6
60000.7
138091
484009
469290
133356
59789.5
60182
131044
458835
451974
130163
60783.7
61692.4
130508
433835
405384
121756
62366.1
63839.8
120869
594448
970516
357265
141482
69225.3
172205
728239
656341
186819
74273.1
71534
176448
648787
642411
181754
73795.6
70710.2
169727
623586
601346
171035
71680.3
68536.8
155365
574152
547564
157755
70158.2
68475.4
144711
519007
487502
145548
69576.7
68621.9
134862
443931
634925
129647
69512.9
146731
371802
995753
717939
164756
71207.7
73986
176218
604535
547199
144861
66427.9
66915.5
146412
512421
477848
135323
64787.9
65191.4
131890
446589
412557
123195
64742.9
67776.5
122285
597580
943026
335235
140122
72331.3
156112
682768
593583
167555
75461.1
72088.4
149941
555796
516456
154412
74353
73699
141810
466218
664336
135196
75654.4
154191
370198
1.00484e+06
704414
172009
78256.7
79654.9
172842
577214
500360
146015
71468.4
71944.5
137621
448925
652366
137071
75191.3
153611
371316
990449
703920
162699
80356.8
83429
176094
578860
510112
152561
77627.8
79923.5
146989
716778
1.03376e+06
389653
161667
80606.7
168722
704417
550774
173798
79930.7
68697.8
137270
485056
663821
138967
73708.6
148194
342335
901826
623089
152093
74273.6
77678.1
155676
788207
989699
362310
152842
66264.7
150161
654564
791078
145869
65015.9
127483
286934
832269
1.01054e+06
163688
64950.4
90934.6
197696
808694
824318
160061
58579.9
71035.1
191000
991716
1.02732e+06
196491
72927.1
65688.3
174842
914229
799025
103713
39089.8
153502
341175
805736
934437
160786
81508.4
185940
374333
846157
780028
189659
99422.1
105780
214795
672676
1.10192e+06
482971
225794
128077
182055
956461
825469
371321
191880
103695
176180
694827
574543
186816
104846
192899
392626
915729
716127
171344
107318
106777
180526
574279
927198
389807
190441
106243
167793
712952
570902
174621
104980
184971
379112
912025
698124
163667
103815
103092
170841
564047
908471
379044
181784
102154
161778
685074
550951
168843
101089
178679
369258
885694
657938
157200
100422
100029
165012
535130
875324
364856
175760
98604.5
154874
645900
519589
161340
97794
167925
344525
828257
601320
144448
94405.6
95249.9
162275
462288
636278
186562
101705
192300
433384
1.0347e+06
745703
172948
105550
103004
176593
595533
991523
386749
185133
102961
162212
716023
579440
172096
102496
184372
393283
964777
708376
163275
103525
102117
169573
574475
962953
379351
181800
101583
159102
695772
567176
168852
101646
181572
378456
973537
703451
160826
101800
101070
165770
565867
949903
395778
183031
101818
161338
693123
562162
171013
101890
184778
399249
959217
718319
164875
103645
103212
174911
590497
1.02493e+06
436142
196100
113202
149935
812640
729082
319461
165950
93016.2
141339
556754
475620
153173
94258.6
168026
346317
824236
613859
147265
95618.3
96268.3
157019
501610
843455
349439
170114
95867.9
148163
621458
512100
155652
95867.9
173720
362790
873202
650504
152418
97798.5
98449.9
162923
530283
900637
374168
178187
99960.3
158129
677860
566200
169063
100740
195686
432679
1.00331e+06
806286
148366
114146
171758
326320
738114
577198
151804
96755.7
98585.6
163203
495978
868699
364975
178328
101696
158313
662276
550862
166952
102156
193440
417049
958419
780557
146908
113472
169387
322796
717045
556746
148147
95737.6
98149.7
162030
485208
857737
364281
177250
101583
157882
651518
550200
171877
102695
196836
424611
976892
793325
151052
116248
174136
331185
732446
576803
154035
99050
101135
168537
505019
892069
375500
184009
105522
164530
669462
567925
178956
106359
203166
420688
1.03445e+06
824573
149799
119614
179730
341028
762712
594053
160475
102500
105853
180139
527227
978784
425877
202663
120595
152888
806891
760691
338587
180153
103284
162892
598261
519274
178872
106076
201684
419387
948137
786082
158169
121032
179146
334759
742621
590772
160595
103423
107138
180801
519942
969464
429519
204851
122892
155661
811841
762297
341601
182699
105673
165431
597959
528580
185338
108921
207341
426099
966804
802795
156505
124833
184334
339740
762881
614690
167753
107188
111136
187952
549059
1.02754e+06
437414
214110
130564
154462
857665
837321
364698
195688
118973
156561
715696
684762
329705
177303
106136
167475
562875
513923
189213
110654
210045
432592
967250
810132
161253
127889
188661
344627
767528
618194
172858
110921
114851
195331
555615
1.05103e+06
446956
220479
134158
161306
876434
849049
371551
200201
122542
160730
732040
716344
335056
181525
109083
173118
587493
528949
193376
113742
217594
443655
988023
845162
164319
133041
196920
358433
816585
714189
157737
121987
181490
331732
701439
583302
175040
109799
115361
199212
530731
991343
445702
219009
135040
164862
852951
835831
367326
200472
124408
160280
721931
707031
337053
184045
111365
176396
580729
529015
198769
116673
220300
444546
983525
836319
168114
136088
200835
364192
815315
717334
162762
125410
185831
339898
715851
600792
180162
113134
119059
204636
554344
1.03706e+06
468355
229256
142135
174545
897418
879124
384605
211448
131443
167073
756708
750158
356913
195444
118510
187847
616121
560371
210898
124030
235038
479016
1.03235e+06
890084
180256
145634
215576
394771
884916
772555
172822
134825
201091
365075
777686
705789
169998
129029
190795
341968
704264
587408
183688
117653
124744
210556
545771
1.04584e+06
470399
236282
147089
177587
909383
904641
396639
217944
138142
178228
790502
799052
374972
204689
132440
174090
715652
715068
351526
195154
120867
189246
603782
557166
212730
127200
238904
477751
1.03651e+06
905447
182816
149673
220714
400847
897413
781328
180212
139396
206676
372813
788420
707966
174830
133940
196736
352916
711347
602351
190927
122272
129504
216420
559771
1.04853e+06
487555
242877
153302
187747
922622
918802
409452
225804
143993
183843
814788
832108
391916
214555
139664
183978
746934
745485
368000
204258
127436
198877
623986
579767
225510
133955
251700
488745
1.09431e+06
931257
189823
157750
230819
412001
927335
814706
184964
146991
218529
395848
837946
775247
188355
143072
211266
380759
795321
719323
182526
139801
204905
361068
729605
627565
200757
128626
136222
228361
588852
1.10909e+06
520763
256370
163139
200280
971671
963466
435050
240359
153902
196265
837800
855508
409257
226640
149079
195202
782759
803642
390300
218184
144322
189001
733335
744269
369842
209378
131579
203831
628814
582065
228209
138541
256554
501258
1.07873e+06
927855
195442
163178
241236
429133
935952
834353
197198
154057
227684
407824
852190
772814
195114
149808
220370
391982
799049
734729
191428
146531
212395
370399
743144
632880
207537
134672
142451
236085
596605
1.10666e+06
523697
263210
169261
207976
966006
975090
442890
247191
159957
203112
871301
892742
422030
235427
156081
203130
809522
831894
404642
227929
151660
197307
745267
756772
382114
219729
139644
212311
639259
598506
239748
146514
267961
523902
1.11245e+06
966631
208284
171539
251844
445972
976786
863079
205820
162163
237393
421317
881627
804057
204611
157500
230498
406760
833448
758764
200275
154282
223930
389872
775772
662266
218869
142652
150779
249727
626416
1.16742e+06
554481
278900
180136
219143
1.01233e+06
1.02291e+06
471246
264137
170932
217922
899060
916942
441595
249629
166220
215177
838473
872272
425404
242104
162741
210159
797290
830315
410765
235711
158436
204932
758687
772360
391789
227244
144911
220045
646108
608461
248427
152311
277358
531583
1.12798e+06
968009
216126
178623
259280
451493
975295
856803
212095
168265
245580
429907
881970
798965
211304
163907
238154
415648
831080
758730
208646
159901
229768
392833
770513
653192
222760
147233
155939
253331
621315
1.15113e+06
546013
284879
184154
222987
991822
1.00127e+06
466999
267045
174863
220791
894297
923096
447136
254328
171144
220351
830130
863861
430281
247618
167252
216500
786290
803654
409294
239626
153552
231767
670529
632565
260751
161276
292737
556394
1.17016e+06
1.00247e+06
230198
188927
272328
470801
1.005e+06
880491
223219
177686
257301
447502
907605
826135
222211
172738
249377
430210
859714
775431
218639
168166
240318
408686
796183
673055
232785
154873
163928
265030
643322
1.18387e+06
566827
296765
192732
233216
1.02667e+06
1.04435e+06
488543
279885
183876
232578
914105
943303
466842
266575
179887
232304
850817
884788
446514
259209
175511
227581
800322
819759
422615
249984
161031
240410
682941
651043
270069
168899
300543
566068
1.17588e+06
1.0072e+06
239039
195719
281867
484104
1.02497e+06
895429
230078
184586
266652
457842
927990
837432
229688
178953
258552
440833
861786
723747
251855
165362
174861
284737
692648
1.25676e+06
610612
319132
207359
255033
1.07816e+06
1.0905e+06
514125
298053
195506
243146
949772
983515
485954
281658
188564
243539
865798
884663
458105
270239
172888
259872
738777
703882
291319
181140
326061
610942
1.27437e+06
1.08628e+06
257229
210824
302199
514909
1.1031e+06
950792
246265
197701
285874
489772
985687
880585
247327
191548
276577
470095
914111
765773
267706
177003
186596
302925
730695
1.3181e+06
648463
337528
219754
271436
1.12716e+06
1.1397e+06
541621
315439
206966
257109
979464
1.01842e+06
506926
296530
198685
257189
899776
925194
478743
283711
181678
272312
771010
739830
303590
190076
339611
633396
1.32002e+06
1.11145e+06
268683
220444
317484
540671
1.1323e+06
977302
259471
207311
298022
505826
1.01556e+06
893844
258370
199760
286907
482060
928838
780317
276808
183996
193454
311347
750887
1.33407e+06
651760
347051
225918
278374
1.12477e+06
1.14775e+06
548318
323105
211078
267617
975853
994273
506097
300752
191402
285761
813519
778962
314883
199734
360621
682086
1.37969e+06
1.14846e+06
289692
232404
333219
564542
1.1666e+06
1.00288e+06
273565
217193
311006
525124
1.04583e+06
912106
268943
207511
296071
495349
948601
784693
282920
189585
200050
318078
754621
1.33457e+06
659255
356150
231109
287806
1.12905e+06
1.1534e+06
555999
329784
216160
274574
978923
1.00887e+06
515420
307834
195811
291815
826932
788517
324466
204358
363162
670901
1.35885e+06
1.13605e+06
294723
235737
337153
565415
1.16726e+06
985205
281027
219097
311740
519374
1.01096e+06
822778
294748
198088
208098
330077
789440
1.3719e+06
684688
369018
237530
302946
1.13838e+06
1.14348e+06
568379
338739
209982
307784
904455
858893
341159
217686
387148
721775
1.4983e+06
1.23121e+06
306116
249381
361754
614895
1.26049e+06
1.05816e+06
304943
233705
335342
562527
1.0836e+06
882402
318092
211741
221020
355067
848132
1.45912e+06
726169
391616
252060
323011
1.19922e+06
1.20572e+06
595796
357710
220607
320734
943657
894441
353615
228094
401876
745374
1.52198e+06
1.24632e+06
325763
258186
370633
618369
1.26555e+06
1.00183e+06
338541
227745
235583
377014
949474
1.62508e+06
798895
426006
269603
345944
1.29658e+06
1.29964e+06
646313
386088
234862
344322
1.01119e+06
953399
379121
242366
428812
798071
1.61361e+06
1.31078e+06
349180
273402
392285
652649
1.32156e+06
1.04172e+06
352396
239560
247662
390219
988280
1.68951e+06
827524
441947
280279
341289
1.3551e+06
1.37042e+06
681872
406283
244906
368196
1.05428e+06
991198
401595
252476
448286
823066
1.66399e+06
1.33346e+06
366325
283435
403907
665494
1.34176e+06
1.04478e+06
358515
245402
253362
394981
991007
1.66049e+06
828996
445884
282849
365943
1.33289e+06
1.33996e+06
667862
402910
242641
355876
1.0255e+06
965340
379783
248518
434171
798582
1.57277e+06
1.17707e+06
378324
261188
266366
408632
1.08478e+06
1.77055e+06
865637
470137
291291
381085
1.39476e+06
1.39796e+06
692931
416656
249946
366056
1.06726e+06
1.00623e+06
400910
257948
445109
814358
1.6197e+06
1.21857e+06
390257
266456
268764
406903
1.11624e+06
1.79428e+06
878029
471252
277242
411383
1.31539e+06
1.19149e+06
436851
279708
501988
936770
1.90925e+06
1.47323e+06
406854
308035
442788
733276
1.46662e+06
1.10184e+06
382030
259889
267710
415033
1.03123e+06
1.63641e+06
831481
458780
270146
397183
1.21628e+06
1.11146e+06
409318
272409
472652
867755
1.76255e+06
1.27473e+06
408050
276002
279146
432218
1.15049e+06
1.77378e+06
885748
482863
278470
413049
1.28086e+06
1.15568e+06
435075
280895
482118
881848
1.76965e+06
1.28788e+06
413489
279891
283613
436698
1.17471e+06
1.82263e+06
899735
488464
281114
416367
1.30639e+06
1.11962e+06
453407
286512
299624
512088
1.47073e+06
2.19183e+06
1.07261e+06
544487
305407
473753
1.50408e+06
1.33004e+06
488145
303064
524436
969589
1.9914e+06
1.38645e+06
445768
294978
295290
456425
1.18622e+06
1.54198e+06
526250
308470
570135
1.12021e+06
2.26645e+06
1.50865e+06
485276
308908
311824
506813
1.26682e+06
1.63657e+06
566065
326288
592001
1.18246e+06
2.37724e+06
1.586e+06
498755
317401
319204
516558
1.33734e+06
1.67882e+06
580618
325821
591730
1.17677e+06
2.38795e+06
1.54267e+06
499290
313691
305033
492012
1.26653e+06
1.55093e+06
608392
333988
328493
564191
1.91355e+06
2.74636e+06
1.28556e+06
648586
329366
543474
1.71421e+06
1.39224e+06
544225
325167
333372
616349
1.6102e+06
1.80775e+06
589019
316888
341993
725813
1.96241e+06
2.15968e+06
733074
326334
638890
1.31005e+06
2.79332e+06
1.63675e+06
519243
310497
302053
512861
1.30109e+06
1.4053e+06
563265
302775
296258
559905
1.47174e+06
1.52514e+06
572774
291607
289242
600163
1.53652e+06
1.5201e+06
609300
287608
284762
614533
1.49777e+06
1.46201e+06
613223
283123
280436
608234
1.42513e+06
1.38676e+06
599221
278375
276113
592303
1.34892e+06
1.31254e+06
587418
274936
273911
584214
1.27852e+06
1.24696e+06
582415
273939
274097
581519
1.21789e+06
1.19124e+06
581249
274965
275961
581182
1.16691e+06
1.14503e+06
581038
277624
279071
580694
1.12528e+06
1.10757e+06
580004
280892
282320
578795
1.09159e+06
1.07731e+06
577198
283865
284959
575031
1.06458e+06
1.05337e+06
572513
286028
286626
569436
1.04345e+06
1.03479e+06
566108
287100
287032
562252
1.02717e+06
1.02058e+06
558251
286851
286229
553776
1.0148e+06
1.00987e+06
549278
285502
284112
544347
1.00559e+06
1.00197e+06
539454
282973
281213
534180
998855
996259
528874
280123
278440
523310
994031
992213
517841
277401
275767
512183
990637
989367
506706
274748
273141
501086
988264
987389
495716
272127
270522
490242
986627
986022
485068
269489
267870
479826
985478
985085
474916
266810
265171
469964
984687
984399
465346
264081
262424
460726
984137
983922
456436
261315
259647
452154
983753
983590
448198
258529
256862
444246
983461
983292
440626
255749
254102
437004
983161
982963
433707
253000
251372
430403
982813
982566
427424
250297
248707
424424
982387
982094
421738
247655
246114
419024
981886
981540
416616
245093
243613
414166
981296
980914
412000
242619
241200
409788
980645
980230
407854
240236
238870
405863
979925
979489
404127
237916
236587
402327
979153
978698
400777
235665
234379
399149
978336
977879
397757
233486
232246
396278
977511
977054
395040
231391
230197
393706
976683
976232
392591
229378
228232
391377
975870
975420
390379
227457
226361
389273
975061
974617
388368
225625
224577
387353
974270
973831
386544
223885
222885
385614
973492
973063
384876
222231
221275
384014
972737
972322
383360
220662
219760
382569
972006
971602
381967
219177
218318
381232
971302
970916
380697
217775
216959
380020
970633
970262
379530
216449
215672
378905
970001
969654
378459
215195
214460
377885
969416
969090
377479
214013
213316
376952
968878
968576
376574
212897
212238
376092
968393
968116
375742
211846
211223
375299
967963
967712
374972
210853
210266
374564
967587
967363
374260
209920
209364
373878
967263
967075
373599
209038
208512
373240
966996
966845
372982
208207
207707
372641
966788
966677
372401
207422
206947
372080
966641
966567
371855
206681
206229
371549
966550
966518
371338
205981
205550
371050
966519
966515
370852
205320
204908
370578
966541
966556
370390
204692
204300
370133
966613
966645
369956
204099
203723
369711
966732
966780
369543
203536
203177
369314
966893
966958
369155
203002
202658
368939
967092
967174
368788
202495
202165
368586
967325
967420
368443
202015
201696
368252
967588
967697
368117
201557
201250
367939
967879
968000
367812
201122
200825
367644
968195
968327
367524
200706
200421
367369
968534
968675
367255
200310
200036
367110
968892
969042
367003
199931
199668
366870
969267
969426
366768
199570
199317
366645
969659
969827
366547
199224
198981
366435
970067
970241
366343
198893
198660
366239
970488
970670
366151
198576
198351
366058
970922
971110
365975
198272
198055
365890
971367
971560
365811
197981
197772
365735
971819
972017
365661
197701
197499
365593
972279
972481
365523
197432
197237
365463
972745
972949
365398
197174
196985
365344
973215
973421
365285
196925
196743
365238
973688
973894
365184
196686
196510
365141
974162
974368
365095
196457
196285
365056
974636
974843
365014
196235
196069
364980
975111
975316
364943
196022
195862
364916
975582
975788
364882
195818
195662
364861
976053
976258
364830
195621
195470
364814
976522
976727
364786
195430
195283
364772
976990
977194
364748
195246
195103
364738
977458
977661
364718
195069
194929
364709
977926
978128
364693
194896
194760
364687
978394
978596
364675
194729
194595
364669
978864
979067
364662
194567
194436
364658
979336
979539
364655
194409
194281
364653
979810
980014
364653
194256
194131
364655
980287
980490
364659
194107
193985
364662
980766
980968
364672
193963
193844
364679
981245
981445
364694
193825
193708
364704
981722
981916
364725
193692
193602
364745
982191
982375
364768
193538
193463
364786
982280
982837
364821
193451
193342
364840
983478
983265
364880
193351
193212
364907
983555
983685
365074
193238
193070
364702
983571
983501
364947
193030
192687
364162
983105
985269
365620
193268
193481
366608
989119
998385
371332
195355
196268
372308
993617
981409
361439
191175
189009
356692
963897
105326
58092.4
31343.9
19310.3
18014.7
12102.1
8864.41
7333.94
6935.48
5204.34
3760.83
2922.17
2191.78
1582.24
1114.37
776.244
546.959
393.56
291.097
221.475
173.161
138.868
114.016
95.6654
81.9234
71.5073
63.6342
57.6795
53.362
50.3181
48.3608
47.2276
46.7163
46.2133
45.3073
44.0599
42.5529
40.8954
39.1286
37.3175
35.455
33.5513
31.588
29.5506
27.4119
24.7424
20.9179
16.014
11.1081
7.1616
4.39764
2.61245
1.5254
0.903314
0.581091
0.428514
0.361153
0.333085
0.321564
0.316498
0.313859
0.311695
0.309678
0.307749
0.305868
0.303998
0.302108
0.300171
0.298156
0.296036
0.293784
0.291375
0.288781
0.28598
0.282949
0.279666
0.276109
0.272258
0.268097
0.263618
0.258814
0.253689
0.248249
0.242505
0.236475
0.230177
0.223643
0.216904
0.21
0.202971
0.195858
0.188697
0.181526
0.174382
0.1673
0.160316
0.153458
0.14675
0.140212
0.133861
0.12771
0.121775
0.116061
0.110574
0.105315
0.100283
0.0954785
0.0909002
0.0865406
0.0823969
0.0784611
0.0747265
0.0711857
0.0678319
0.0646567
0.0616521
0.0588096
0.0561218
0.0535813
0.05118
0.0489101
0.0467658
0.044739
0.0428242
0.0410142
0.0393038
0.0376868
0.0361583
0.034713
0.0333458
0.0320527
0.0308289
0.0296708
0.0285741
0.0275355
0.0265516
0.0256188
0.0247343
0.0238955
0.0230993
0.022343
0.0216245
0.0209412
0.0202911
0.0196723
0.0190827
0.0185207
0.0179846
0.0174729
0.0169846
0.0165183
0.0160728
0.0156474
0.015241
0.014853
0.0144827
0.0141294
0.0137926
0.0134716
0.013166
0.0128754
0.0125991
0.0123366
0.0120874
0.011851
0.0116268
0.0114144
0.011213
0.0110222
0.0108413
0.0106698
0.0105071
0.0103526
0.0102058
0.0100662
0.00993329
0.00980669
0.00968602
0.00957094
0.00946119
0.00935652
0.00925676
0.00916175
0.00907136
0.00898548
0.00890402
0.00882691
0.00875404
0.00868535
0.00862075
0.00856015
0.00850346
0.00845059
0.00840143
0.00835591
0.00831397
0.00827556
0.00824071
0.00820948
0.00818201
0.00815846
0.00813916
0.00812471
0.00811574
0.0081103
0.00810735
0.00810517
0.00810278
0.00810314
0.00810268
0.00810257
0.00810329
0.00810526
0.00810808
0.00811056
0.00811151
0.00811034
0.00810721
0.00810259
0.00809689
0.00809036
0.00808308
0.00807509
0.00806634
0.00805682
0.00804649
0.00803534
0.00802336
0.00801057
0.00799698
0.00798259
0.00796742
0.00795148
0.00793479
0.00791734
0.00789916
0.00788026
0.00786065
0.00784034
0.00781935
0.0077977
0.0077754
0.00775247
0.00772892
0.00770479
0.00768008
0.00765482
0.00762903
0.00760273
0.00757595
0.0075487
0.00752103
0.00749295
0.00746449
0.00743568
0.00740654
0.00737712
0.00734743
0.00731751
0.0072874
0.00725713
0.00722673
0.00719626
0.00716581
0.00713552
0.00710568
0.00707696
0.00705089
0.00703097
0.00702513
0.00705131
0.00714932
0.00740598
0.00800648
0.00933298
0.0121911
0.0182296
0.0306822
0.0557458
0.104912
0.199174
0.375879
0.701099
1.29298
2.36538
4.29193
7.61526
12.7445
19.1899
25.3486
30.5517
37.0745
54.4898
110.934
352.336
1706.41
5105.98
6278.6
6374.84
7279.61
7239.88
7971.38
7884.65
8492.85
8371.84
8913.61
8768.96
9261.68
9100.12
9555.16
9381.14
9806.39
9622.93
10024.3
9833.33
10215.4
10018.4
10384.3
10182.4
10534.5
10328.3
10668.2
10458.4
10787.9
10575.2
10895.5
10680.5
10992.9
10775.9
11081.4
10863
11162.7
10943.1
11237.6
11017.4
11307.6
11086.9
11373.2
11152.2
11435.1
11213.9
11493.7
11272.4
11549.5
11328.2
11602.8
11381.7
11654
11433
11703.5
11482.1
11751.3
11529.1
11796.7
11574.1
11840.3
11617.3
11882
11658.8
11922
11698.4
11960
11735.8
11995.3
11770.4
12027.2
11801.1
12054.8
11827
12076.6
11846.4
12091
11857.6
12095.6
11858.1
12088.1
11845.1
12065.5
11815.5
12024.2
11765.8
11960.6
11692.4
11871
11590
11751.9
11451.4
11602.2
11288.4
11428.1
11102.2
11231.4
10897.1
11016.5
10675.8
10788.8
10447.6
10557.6
10223.5
10332.6
10010.4
10120.2
9812.56
9924.25
9632.82
9747.38
9473.19
9591.4
9334.86
9457.31
9218.29
9345.36
9122.89
9254.72
9044.54
9183.54
8982.58
9131.69
8940.39
9101.06
8918.69
9090.71
8915.75
9098
8928.68
9119.76
8954.37
9152.81
8989.8
9194.16
9032.2
9242.1
9079.56
9293.54
9129.5
9345.82
9180.11
9397.82
9230.34
9448.65
9279.31
9497.61
9326.37
9544.56
9371.14
9589.31
9413.39
9631.17
9452.73
9669.96
9489.11
9705.69
9522.54
9738.38
9553
9768
9580.41
9794.36
9602.06
9826.88
9619.81
9860.86
9624.71
9871.03
9470.15
9790.57
8841.27
8681.75
6958.86
4643.01
5009.59
5464.02
3473.24
5921.16
5513.03
3491.28
5970.54
5516.75
3524.64
5983.64
5528.34
3520.12
5978.24
5522.13
3515.94
5964.19
5511.2
3507.25
5950.9
5498.79
3497.11
5936.49
5484.87
3486.6
5920.44