/*--------------------------------*- C++ -*----------------------------------*\
| =========                 |                                                 |
| \\      /  F ield         | OpenFOAM: The Open Source CFD Toolbox           |
|  \\    /   O peration     | Version:  v2006                                 |
|   \\  /    A nd           | Website:  www.openfoam.com                      |
|    \\/     M anipulation  |                                                 |
\*---------------------------------------------------------------------------*/
FoamFile
{
    version     2.0;
    format      ascii;
    class       volScalarField;
    location    "0.023";
    object      T;
}
// * * * * * * * * * * * * * * * * * * * * * * * * * * * * * * * * * * * * * //

dimensions      [0 0 0 1 0 0 0];


internalField   nonuniform List<scalar> 
16277
(
298.842
298.842
298.842
298.842
298.841
298.842
298.842
298.843
298.845
298.848
298.851
298.855
298.858
298.862
298.866
298.87
298.874
298.878
298.883
298.887
298.892
298.897
298.902
298.907
298.913
298.918
298.924
298.93
298.936
298.942
298.948
298.955
298.961
298.968
298.975
298.982
298.989
298.996
299.003
299.01
299.017
299.025
299.032
299.04
299.047
299.055
299.062
299.07
299.077
299.084
299.092
299.099
299.107
299.114
299.121
299.129
299.136
299.143
299.15
299.157
299.163
299.17
299.177
299.183
299.189
299.196
299.202
299.207
299.213
299.219
299.224
299.229
299.234
299.239
299.244
299.248
299.252
299.256
299.26
299.264
299.268
299.272
299.275
299.277
299.278
299.278
299.277
299.277
299.277
299.277
299.277
299.278
299.28
299.283
299.289
299.295
299.32
299.325
299.294
299.285
299.285
299.296
299.335
299.344
299.299
299.285
299.286
299.301
299.35
299.356
299.305
299.288
299.29
299.308
299.359
299.363
299.312
299.292
299.294
299.314
299.364
299.366
299.317
299.297
299.299
299.319
299.367
299.368
299.322
299.301
299.304
299.324
299.369
299.37
299.327
299.306
299.308
299.329
299.37
299.371
299.332
299.311
299.313
299.333
299.371
299.372
299.336
299.316
299.318
299.338
299.372
299.373
299.34
299.321
299.322
299.342
299.373
299.374
299.344
299.325
299.327
299.345
299.375
299.376
299.348
299.33
299.332
299.349
299.376
299.377
299.352
299.335
299.336
299.353
299.378
299.38
299.356
299.339
299.341
299.357
299.38
299.382
299.36
299.344
299.346
299.362
299.383
299.386
299.365
299.35
299.352
299.367
299.387
299.389
299.37
299.356
299.357
299.372
299.39
299.393
299.375
299.361
299.363
299.377
299.394
299.396
299.38
299.367
299.369
299.382
299.397
299.4
299.386
299.373
299.375
299.387
299.401
299.403
299.391
299.379
299.381
299.392
299.404
299.407
299.396
299.385
299.387
299.397
299.408
299.412
299.401
299.391
299.393
299.403
299.413
299.418
299.408
299.398
299.4
299.41
299.42
299.424
299.415
299.405
299.408
299.417
299.427
299.432
299.422
299.414
299.416
299.425
299.434
299.44
299.431
299.422
299.425
299.434
299.443
299.448
299.44
299.432
299.435
299.443
299.451
299.457
299.45
299.442
299.445
299.453
299.46
299.466
299.46
299.452
299.456
299.463
299.469
299.476
299.47
299.463
299.467
299.473
299.478
299.485
299.48
299.474
299.478
299.483
299.487
299.494
299.491
299.485
299.489
299.494
299.496
299.502
299.501
299.496
299.5
299.504
299.505
299.511
299.511
299.507
299.511
299.514
299.513
299.519
299.52
299.518
299.521
299.523
299.522
299.528
299.53
299.529
299.532
299.533
299.531
299.538
299.54
299.539
299.543
299.543
299.54
299.547
299.55
299.55
299.553
299.553
299.55
299.557
299.56
299.561
299.564
299.564
299.56
299.567
299.571
299.571
299.575
299.574
299.57
299.577
299.581
299.582
299.585
299.584
299.579
299.585
299.591
299.592
299.595
299.593
299.588
299.593
299.599
299.602
299.604
299.601
299.595
299.599
299.607
299.61
299.612
299.608
299.6
299.604
299.612
299.617
299.618
299.614
299.605
299.608
299.617
299.622
299.623
299.617
299.608
299.61
299.619
299.625
299.625
299.619
299.61
299.611
299.62
299.626
299.625
299.62
299.61
299.61
299.619
299.625
299.624
299.618
299.609
299.609
299.618
299.624
299.621
299.616
299.608
299.607
299.615
299.62
299.617
299.612
299.606
299.605
299.61
299.615
299.611
299.606
299.602
299.601
299.605
299.609
299.604
299.601
299.598
299.597
299.599
299.602
299.596
299.594
299.594
299.592
299.592
299.594
299.589
299.588
299.589
299.587
299.586
299.586
299.581
299.581
299.584
299.582
299.579
299.578
299.573
299.574
299.578
299.576
299.571
299.57
299.564
299.566
299.572
299.57
299.564
299.562
299.556
299.559
299.565
299.564
299.557
299.554
299.548
299.552
299.559
299.557
299.55
299.546
299.54
299.545
299.552
299.55
299.542
299.538
299.533
299.538
299.546
299.544
299.536
299.531
299.526
299.531
299.54
299.538
299.529
299.524
299.52
299.525
299.535
299.533
299.524
299.518
299.514
299.52
299.53
299.529
299.519
299.512
299.509
299.515
299.526
299.525
299.514
299.508
299.505
299.512
299.523
299.522
299.511
299.504
299.502
299.509
299.521
299.521
299.509
299.501
299.499
299.507
299.52
299.521
299.507
299.499
299.498
299.507
299.52
299.521
299.507
299.498
299.498
299.507
299.521
299.522
299.508
299.499
299.499
299.508
299.522
299.524
299.509
299.5
299.5
299.51
299.525
299.527
299.512
299.502
299.502
299.512
299.528
299.53
299.515
299.504
299.505
299.516
299.531
299.533
299.518
299.507
299.509
299.519
299.534
299.536
299.522
299.511
299.512
299.523
299.537
299.539
299.525
299.515
299.516
299.526
299.54
299.542
299.529
299.519
299.52
299.53
299.543
299.545
299.532
299.523
299.524
299.533
299.545
299.547
299.535
299.527
299.528
299.536
299.547
299.548
299.538
299.53
299.531
299.539
299.548
299.549
299.541
299.533
299.534
299.541
299.549
299.55
299.542
299.536
299.536
299.542
299.55
299.55
299.543
299.537
299.537
299.543
299.55
299.548
299.543
299.538
299.539
299.543
299.547
299.536
299.536
299.536
299.541
299.546
299.536
299.527
299.537
299.538
299.543
299.537
299.53
299.527
299.525
299.526
299.525
299.525
299.525
299.525
299.526
299.527
299.528
299.53
299.532
299.534
299.537
299.541
299.545
299.551
299.561
299.566
299.574
299.575
299.571
299.57
299.573
299.571
299.571
299.575
299.575
299.577
299.576
299.572
299.572
299.576
299.578
299.579
299.576
299.572
299.572
299.576
299.579
299.58
299.577
299.571
299.571
299.577
299.58
299.58
299.576
299.571
299.57
299.576
299.58
299.58
299.575
299.569
299.568
299.575
299.58
299.579
299.574
299.568
299.567
299.573
299.579
299.578
299.573
299.566
299.565
299.572
299.578
299.577
299.571
299.564
299.563
299.57
299.576
299.576
299.57
299.562
299.561
299.568
299.575
299.574
299.568
299.56
299.559
299.567
299.573
299.572
299.566
299.558
299.557
299.565
299.571
299.571
299.564
299.556
299.555
299.563
299.57
299.569
299.562
299.555
299.553
299.561
299.568
299.567
299.56
299.553
299.552
299.559
299.566
299.565
299.558
299.551
299.55
299.557
299.564
299.563
299.556
299.549
299.548
299.555
299.562
299.561
299.555
299.548
299.547
299.554
299.56
299.56
299.553
299.546
299.545
299.552
299.559
299.558
299.552
299.545
299.544
299.551
299.557
299.556
299.55
299.543
299.542
299.549
299.556
299.555
299.549
299.542
299.541
299.548
299.554
299.554
299.548
299.541
299.54
299.547
299.553
299.553
299.547
299.54
299.539
299.546
299.552
299.552
299.546
299.539
299.538
299.546
299.551
299.551
299.545
299.538
299.537
299.545
299.551
299.55
299.545
299.537
299.536
299.544
299.55
299.55
299.544
299.535
299.534
299.543
299.549
299.549
299.542
299.533
299.531
299.541
299.548
299.547
299.54
299.53
299.529
299.538
299.546
299.545
299.537
299.527
299.526
299.536
299.544
299.543
299.534
299.525
299.524
299.533
299.541
299.539
299.532
299.523
299.523
299.531
299.538
299.536
299.53
299.523
299.523
299.53
299.534
299.533
299.53
299.523
299.523
299.53
299.532
299.532
299.53
299.523
299.522
299.531
299.532
299.532
299.531
299.521
299.521
299.531
299.533
299.535
299.532
299.521
299.522
299.533
299.537
299.539
299.534
299.523
299.523
299.536
299.541
299.543
299.538
299.523
299.523
299.538
299.545
299.547
299.538
299.521
299.518
299.537
299.549
299.55
299.534
299.514
299.51
299.53
299.549
299.547
299.525
299.507
299.505
299.522
299.541
299.532
299.519
299.503
299.498
299.517
299.528
299.528
299.513
299.491
299.483
299.508
299.53
299.535
299.502
299.475
299.469
299.5
299.54
299.547
299.501
299.466
299.463
299.501
299.558
299.579
299.501
299.459
299.451
299.496
299.587
299.588
299.49
299.446
299.443
299.484
299.589
299.59
299.48
299.441
299.438
299.479
299.595
299.598
299.469
299.432
299.428
299.461
299.6
299.606
299.464
299.429
299.436
299.486
299.606
299.582
299.531
299.45
299.457
299.574
299.508
299.439
299.587
299.453
299.438
299.596
299.418
299.147
299.901
299.434
299.467
299.48
299.74
299.65
299.517
299.442
299.443
299.495
299.659
299.642
299.49
299.434
299.425
299.468
299.633
299.622
299.447
299.413
299.413
299.445
299.615
299.6
299.465
299.423
299.445
299.507
299.531
299.4
299.554
299.455
299.453
299.575
299.334
299.332
299.596
299.432
299.409
299.928
298.994
299.644
299.452
299.49
299.475
299.52
299.535
299.566
299.514
299.479
299.475
299.503
299.578
299.642
299.479
299.466
299.462
299.446
299.743
299.826
299.419
299.468
299.498
299.386
299.848
300.432
299.144
299.531
299.478
299.627
299.68
299.787
299.573
299.496
299.51
299.609
299.687
299.554
299.624
299.517
299.51
299.639
299.488
299.482
299.667
299.481
299.471
300.072
299.198
299.849
299.544
299.536
299.526
299.6
299.596
299.529
299.61
299.537
299.535
299.648
299.46
299.449
299.703
299.519
299.504
300.106
299.059
299.702
299.533
299.572
299.576
299.626
299.462
299.446
299.634
299.577
299.562
299.701
299.441
299.108
300.045
299.518
299.604
299.547
299.692
299.607
299.609
299.6
299.613
299.614
299.645
299.667
299.624
299.62
299.622
299.649
299.795
299.882
299.639
299.642
299.652
299.542
299.922
300.584
299.198
299.672
299.757
299.768
299.63
299.778
299.768
299.783
299.796
299.796
299.787
299.797
299.81
299.828
299.877
299.878
299.886
299.887
299.895
299.901
299.843
299.82
299.795
299.764
299.761
299.771
299.646
299.631
299.654
299.527
299.549
299.559
299.505
299.501
299.513
299.452
299.455
299.452
299.429
299.44
299.481
299.409
299.423
299.402
299.402
299.386
299.645
298.558
300.022
299.364
299.439
299.466
299.253
299.204
299.408
299.423
299.398
299.417
299.292
299.307
299.406
299.401
299.417
299.415
299.39
299.448
299.417
299.395
299.388
299.422
299.497
299.52
299.464
299.405
299.367
299.398
299.484
299.496
299.403
299.365
299.393
299.445
299.503
299.462
299.393
299.368
299.371
299.41
299.484
299.494
299.449
299.41
299.377
299.401
299.46
299.481
299.412
299.377
299.408
299.445
299.488
299.459
299.401
299.377
299.376
299.407
299.469
299.477
299.438
299.402
299.377
299.398
299.451
299.471
299.409
299.377
299.404
299.439
299.478
299.456
299.398
299.379
299.377
299.417
299.441
299.627
299.34
299.395
299.301
300.037
298.797
299.264
299.516
299.315
299.385
299.569
299.044
300.148
298.828
299.429
299.424
299.242
299.657
299.935
299.22
299.334
299.345
300.025
298.942
299.309
299.536
299.309
299.343
299.561
299.144
299.915
298.995
299.434
299.406
299.206
299.629
299.485
299.423
299.383
299.385
298.773
300.64
299.847
299.169
299.375
299.268
299.137
299.998
299.03
299.854
299.292
299.286
299.539
299.229
299.426
299.39
299.323
299.347
300.046
298.265
298.867
299.683
299.328
299.423
299.461
299.258
298.049
300.196
299.362
299.366
299.56
299.021
298.942
299.442
299.409
299.359
299.42
299.187
299.258
299.409
299.36
299.41
299.445
299.437
299.453
299.38
299.339
299.32
299.379
299.506
299.522
299.434
299.336
299.295
299.326
299.444
299.453
299.332
299.285
299.316
299.391
299.459
299.411
299.326
299.294
299.299
299.345
299.449
299.459
299.403
299.342
299.3
299.354
299.383
299.651
299.268
299.279
299.283
300.124
298.312
299.067
299.527
299.283
299.338
299.392
298.972
299.159
299.378
299.305
299.32
299.366
299.179
299.33
299.378
299.373
299.319
299.366
299.347
299.624
299.298
299.263
299.299
299.938
298.557
299.081
299.485
299.24
299.285
299.357
299.005
299.135
299.307
299.247
299.257
299.306
299.151
299.264
299.311
299.305
299.269
299.314
299.281
299.555
299.263
299.236
299.28
299.903
298.502
299.065
299.459
299.232
299.279
299.341
298.997
299.114
299.293
299.237
299.245
299.293
299.147
299.199
299.285
299.285
299.247
299.242
299.349
299.071
299.398
299.276
299.197
298.295
300.963
299.766
298.848
299.16
299.121
299.109
299.923
299.527
299.11
299.145
299.097
299.103
299.585
299.04
299.459
299.131
299.128
299.214
299.166
299.098
299.191
299.144
299.144
299.18
299.129
299.142
299.204
299.175
299.2
299.195
299.163
299.23
299.201
299.185
299.197
299.221
299.252
299.239
299.183
299.164
299.156
299.203
299.251
299.267
299.181
299.164
299.131
299.144
299.211
299.221
299.167
299.134
299.119
299.134
299.191
299.229
299.147
299.118
299.147
299.198
299.193
299.183
299.14
299.111
299.113
299.153
299.179
299.197
299.094
299.095
299.13
299.216
298.934
300.556
298.234
299.041
298.923
298.995
299.449
299.596
299.12
298.973
298.989
298.992
299.336
299.388
299.136
299.009
299.01
299.034
299.229
299.216
299.074
299.002
299.016
299.071
299.146
299.115
299.04
299.02
299.038
299.073
299.123
299.155
299.038
299.047
299.1
299.184
298.892
300.59
298.174
299.001
298.87
298.987
299.434
299.59
299.104
298.937
298.938
298.948
299.314
299.352
299.082
298.943
298.941
298.967
299.176
299.168
298.982
298.929
298.946
299.057
299.032
299.049
298.981
298.945
298.963
299.005
299.059
299.046
298.981
298.964
298.986
299.017
299.068
299.052
298.995
298.978
298.988
299.032
299.088
299.081
299.035
299
298.959
298.981
299.043
299.052
298.996
298.959
298.935
298.953
299.021
299.033
298.977
298.939
298.922
298.939
299.004
299.042
298.96
298.921
298.944
298.994
299.003
299.004
298.946
298.918
298.933
298.979
299.034
299.009
298.933
298.908
298.914
298.961
299.019
298.968
298.923
298.896
298.871
298.903
299.151
298.226
299.424
298.937
298.98
298.865
298.875
298.798
298.877
298.943
298.899
298.911
298.866
298.858
298.883
298.894
298.868
298.897
298.852
299.075
298.868
298.859
298.931
299.454
298.11
298.85
298.848
298.984
298.937
298.85
298.784
298.862
298.893
298.897
298.879
298.858
298.841
298.855
298.86
298.838
298.846
298.86
298.864
298.916
298.821
298.816
298.86
298.912
298.782
299.727
298.337
298.8
298.685
298.823
299.03
299.146
298.873
298.737
298.722
298.753
299.003
299.031
298.848
298.739
298.711
298.746
298.932
298.945
298.815
298.72
298.7
298.734
298.844
298.967
298.731
298.683
298.733
299.106
298.295
298.737
298.715
298.774
298.758
298.736
298.697
298.75
298.751
298.722
298.731
298.74
298.748
298.752
298.724
298.702
298.715
298.742
298.772
298.746
298.72
298.691
298.668
298.708
298.905
298.155
299.143
298.729
298.785
298.6
298.763
298.69
298.66
298.729
298.678
298.674
298.723
298.698
298.668
298.674
298.631
298.652
298.699
298.707
298.668
298.641
298.61
298.614
298.727
298.538
298.739
298.667
298.567
297.921
299.874
298.866
298.661
298.429
298.512
298.713
299.001
298.832
298.547
298.501
298.529
298.658
298.866
298.764
298.541
298.505
298.523
298.627
298.79
298.698
298.533
298.493
298.495
298.58
298.701
298.599
298.514
298.476
298.447
298.491
298.818
297.633
299.152
298.541
298.703
298.276
298.665
298.525
298.411
298.567
298.547
298.512
298.567
298.553
298.508
298.53
298.487
298.499
298.571
298.569
298.513
298.494
298.459
298.48
298.553
298.568
298.505
298.471
298.436
298.458
298.536
298.596
298.48
298.431
298.46
298.523
298.522
298.545
298.438
298.405
298.411
298.474
298.554
298.525
298.403
298.376
298.391
298.445
298.54
298.509
298.381
298.351
298.367
298.427
298.521
298.472
298.362
298.33
298.342
298.401
298.487
298.428
298.351
298.314
298.281
298.337
298.628
297.654
298.91
298.372
298.486
298.141
298.47
298.366
298.25
298.374
298.343
298.282
298.418
298.372
298.306
298.325
298.269
298.287
298.383
298.378
298.307
298.282
298.242
298.268
298.36
298.374
298.301
298.253
298.224
298.257
298.336
298.441
298.257
298.212
298.259
298.513
298.052
298.332
298.174
298.27
298.244
298.243
298.283
298.306
298.196
298.191
298.202
298.221
298.29
298.29
298.169
298.142
298.158
298.204
298.293
298.251
298.145
298.115
298.127
298.181
298.265
298.198
298.131
298.093
298.049
298.114
298.441
297.252
298.759
298.154
298.333
297.811
298.288
298.152
297.963
298.146
298.116
298.035
298.171
298.139
298.056
298.084
298.017
298.034
298.163
298.143
298.055
298.028
297.975
298.005
298.126
298.139
298.041
297.989
297.944
297.975
298.099
298.116
298.017
297.963
297.917
297.945
298.066
298.094
297.997
297.91
297.946
297.99
298.12
298.051
297.918
297.884
297.895
297.959
298.077
298.029
297.88
297.848
297.867
297.929
298.053
298.014
297.851
297.82
297.837
297.902
298.025
297.968
297.824
297.787
297.802
297.872
297.982
297.923
297.801
297.76
297.749
297.801
297.999
297.748
297.995
297.795
297.802
297.71
297.928
297.895
297.784
297.782
297.718
297.732
297.905
297.883
297.772
297.731
297.672
297.706
297.865
297.857
297.744
297.685
297.632
297.663
297.822
297.818
297.705
297.647
297.597
297.622
297.788
297.78
297.695
297.594
297.619
297.56
297.996
297.739
297.658
297.527
297.563
297.669
297.819
297.737
297.57
297.512
297.538
297.621
297.77
297.717
297.516
297.482
297.505
297.577
297.73
297.653
297.485
297.446
297.463
297.539
297.671
297.599
297.451
297.413
297.389
297.46
297.664
297.474
297.603
297.438
297.423
297.33
297.615
297.553
297.43
297.401
297.356
297.357
297.549
297.545
297.411
297.372
297.301
297.344
297.502
297.52
297.389
297.326
297.252
297.293
297.463
297.482
297.348
297.276
297.216
297.258
297.41
297.47
297.274
297.193
297.251
297.361
297.347
297.37
297.231
297.164
297.185
297.27
297.377
297.344
297.154
297.111
297.127
297.196
297.331
297.291
297.086
297.051
297.077
297.145
297.301
297.221
297.073
297.017
296.985
297.068
297.354
296.774
297.427
297.072
297.077
297.026
297.133
297.118
297.037
297.06
296.985
296.981
297.136
297.105
297.013
296.996
296.902
296.94
297.098
297.109
296.98
296.925
296.84
296.874
297.049
297.001
296.944
296.83
296.823
296.638
297.473
296.98
296.852
296.695
296.718
296.847
297.067
296.961
296.737
296.67
296.704
296.806
297.023
296.93
296.688
296.646
296.672
296.773
296.964
296.857
296.674
296.611
296.558
296.669
297.053
296.232
297.115
296.671
296.681
296.603
296.702
296.687
296.606
296.653
296.54
296.56
296.7
296.667
296.569
296.55
296.438
296.474
296.666
296.665
296.515
296.45
296.37
296.414
296.578
296.642
296.409
296.317
296.372
296.529
296.396
296.509
296.323
296.302
296.33
296.395
296.519
296.496
296.296
296.233
296.266
296.353
296.517
296.446
296.232
296.175
296.205
296.303
296.476
296.387
296.191
296.126
296.089
296.187
296.486
296.171
296.4
296.162
296.124
296.051
296.307
296.286
296.107
296.098
295.995
295.998
296.248
296.234
296.041
295.999
295.887
295.939
296.136
296.183
295.883
295.796
295.917
296.252
295.712
295.952
295.929
295.849
295.881
295.934
295.981
295.987
295.817
295.736
295.77
295.854
296.003
295.955
295.713
295.653
295.678
295.775
295.961
295.879
295.632
295.583
295.555
295.716
295.891
295.975
295.611
295.587
295.449
295.598
295.743
295.781
295.594
295.469
295.369
295.451
295.711
295.707
295.474
295.349
295.249
295.295
295.535
295.585
295.313
295.188
295.295
295.421
295.614
295.513
295.253
295.167
295.201
295.337
295.558
295.475
295.158
295.088
295.121
295.247
295.5
295.371
295.079
295.017
294.978
295.149
295.436
295.388
295.2
295.05
294.889
294.979
295.25
295.274
295.036
294.911
294.787
294.846
295.153
295.166
294.878
294.714
294.727
294.847
295.058
294.951
294.657
294.565
294.62
294.753
295.017
294.927
294.586
294.506
294.548
294.709
294.984
294.846
294.533
294.443
294.4
294.551
294.96
294.76
294.72
294.502
294.335
294.396
294.755
294.759
294.481
294.36
294.22
294.283
294.6
294.661
294.337
294.153
294.206
294.383
294.532
294.455
294.052
294.048
294.034
294.07
294.398
294.215
293.891
293.823
293.786
294.002
294.286
294.391
294.029
293.915
293.755
293.845
294.228
294.279
293.964
293.791
293.657
293.746
294.102
294.228
293.754
293.577
293.699
293.945
293.94
293.967
293.569
293.484
293.505
293.633
293.941
293.803
293.386
293.314
293.228
293.443
293.83
293.595
293.419
293.214
293.074
292.944
293.511
293.542
293.091
293.039
292.878
292.956
293.38
293.426
293.111
292.869
292.95
292.946
293.767
293.4
292.847
292.727
292.748
292.967
293.473
293.215
292.711
292.614
292.505
292.702
293.299
293.067
292.895
292.585
292.39
292.424
292.92
292.869
292.471
292.344
292.08
292.197
292.586
292.512
292.035
291.869
292.001
292.234
292.558
292.421
291.951
291.812
291.795
292.132
292.502
292.777
291.979
291.898
291.67
291.794
292.412
292.468
291.909
291.7
291.483
291.587
292.167
292.201
291.614
291.35
291.362
291.639
292.052
291.793
291.265
291.126
290.858
291.188
291.543
291.715
290.957
290.84
290.622
290.674
291.447
291.566
290.986
290.655
290.786
290.896
291.902
291.422
290.638
290.519
290.564
290.848
291.485
291.138
290.471
290.326
290.16
290.46
291.173
290.957
290.553
290.169
289.873
290.057
290.641
290.333
289.883
289.568
289.489
289.682
290.406
290.086
289.394
289.238
289.261
289.476
290.472
290.491
289.895
289.452
289.196
289.41
290.091
290.182
289.521
289.063
289.19
289.528
290.113
289.659
289.022
288.785
288.492
288.812
289.642
289.182
288.774
288.383
287.885
288.042
288.673
288.851
288.115
287.791
287.84
288.243
289.247
289.014
288.7
288.139
287.778
288.089
288.834
288.804
288.12
287.545
287.614
288.035
288.768
288.092
287.212
287.074
286.643
286.748
287.531
287.611
286.51
286.225
286.595
287.084
287.791
287.485
286.644
286.325
286.304
286.763
287.765
287.93
286.633
286.21
286.193
286.932
286.98
286.366
285.887
285.615
285.091
285.374
286.034
286.394
285.318
284.732
285.357
285.922
286.249
286.333
285.392
284.905
284.873
285.375
286.371
286.542
285.09
284.63
283.921
284.847
284.757
286.572
283.982
284.036
283.719
283.959
285.847
286.621
284.224
283.783
283.789
284.39
286.729
286.148
283.998
283.316
283.221
283.857
286.351
286.807
285.017
283.306
284.157
284.434
287.728
286.151
284.042
283.664
283.744
284.166
286.274
287.269
284.727
283.943
284.443
285.15
287.661
288.43
285.769
284.846
285.516
286.6
289.289
290.188
287.455
286.193
286.81
288.21
290.884
291.41
288.818
287.311
287.712
289.329
291.818
292.119
289.771
288.07
288.41
290.173
292.375
292.59
290.539
288.737
289.037
290.871
292.772
292.918
291.165
289.313
289.57
291.432
293.024
293.079
291.671
289.824
290.073
291.891
293.117
293.165
292.088
290.318
290.552
292.271
293.233
293.287
292.433
290.775
290.982
292.577
293.32
293.337
292.695
291.175
291.354
292.797
293.361
293.394
292.882
291.519
291.674
292.961
293.437
293.478
293.031
291.82
291.96
293.1
293.514
293.54
293.159
292.092
292.216
293.215
293.554
293.558
293.258
292.328
292.43
293.297
293.557
293.553
293.325
292.522
292.607
293.351
293.549
293.547
293.371
292.683
292.755
293.393
293.548
293.552
293.411
292.819
292.879
293.431
293.555
293.556
293.445
292.929
292.976
293.459
293.555
293.554
293.468
293.013
293.048
293.477
293.551
293.547
293.482
293.073
293.098
293.487
293.542
293.533
293.489
293.116
293.134
293.489
293.525
293.514
293.487
293.146
293.156
293.484
293.504
293.493
293.478
293.162
293.164
293.47
293.483
293.473
293.459
293.163
293.161
293.449
293.464
293.454
293.436
293.155
293.15
293.426
293.447
293.44
293.412
293.141
293.136
293.402
293.434
293.43
293.389
293.126
293.121
293.38
293.427
293.426
293.368
293.111
293.107
293.361
293.425
293.424
293.351
293.098
293.095
293.345
293.424
293.422
293.336
293.088
293.086
293.331
293.42
293.416
293.322
293.081
293.079
293.318
293.414
293.406
293.308
293.075
293.073
293.303
293.401
293.389
293.292
293.069
293.067
293.286
293.38
293.367
293.273
293.063
293.06
293.266
293.358
293.344
293.252
293.054
293.051
293.244
293.334
293.32
293.23
293.044
293.04
293.221
293.311
293.296
293.207
293.032
293.028
293.199
293.288
293.274
293.185
293.02
293.016
293.177
293.266
293.254
293.164
293.007
293.003
293.157
293.247
293.235
293.144
292.994
292.99
293.138
293.229
293.217
293.126
292.982
292.978
293.121
293.212
293.2
293.11
292.971
292.967
293.105
293.195
293.183
293.094
292.96
292.956
293.089
293.177
293.166
293.079
292.948
292.944
293.073
293.16
293.148
293.063
292.936
292.932
293.057
293.141
293.13
293.047
292.923
292.919
293.042
293.123
293.112
293.031
292.91
292.906
293.026
293.105
293.093
293.015
292.898
292.894
293.01
293.086
293.074
292.999
292.885
292.881
292.993
293.067
293.055
292.982
292.871
292.867
292.976
293.047
293.035
292.964
292.856
292.851
292.957
293.027
293.014
292.945
292.84
292.834
292.938
293.006
292.994
292.926
292.822
292.815
292.918
292.986
292.973
292.906
292.803
292.796
292.898
292.965
292.952
292.885
292.783
292.776
292.877
292.944
292.932
292.865
292.763
292.756
292.857
292.924
292.912
292.845
292.743
292.735
292.837
292.905
292.893
292.825
292.723
292.715
292.817
292.886
292.874
292.805
292.703
292.694
292.797
292.867
292.856
292.786
292.684
292.674
292.778
292.849
292.837
292.766
292.664
292.654
292.759
292.831
292.819
292.747
292.644
292.635
292.74
292.813
292.801
292.728
292.624
292.615
292.721
292.795
292.783
292.708
292.603
292.596
292.702
292.777
292.764
292.689
292.583
292.576
292.682
292.758
292.746
292.67
292.563
292.556
292.663
292.739
292.727
292.65
292.543
292.536
292.643
292.72
292.708
292.631
292.523
292.517
292.624
292.701
292.689
292.611
292.503
292.497
292.604
292.682
292.669
292.591
292.483
292.477
292.584
292.662
292.649
292.571
292.464
292.457
292.564
292.642
292.629
292.551
292.444
292.437
292.544
292.622
292.609
292.531
292.424
292.417
292.523
292.602
292.589
292.51
292.404
292.398
292.503
292.581
292.568
292.49
292.384
292.378
292.482
292.561
292.548
292.47
292.365
292.358
292.462
292.54
292.527
292.449
292.345
292.338
292.441
292.52
292.506
292.429
292.325
292.318
292.421
292.499
292.486
292.408
292.305
292.298
292.4
292.478
292.465
292.387
292.285
292.279
292.38
292.457
292.444
292.367
292.266
292.259
292.359
292.436
292.423
292.346
292.246
292.239
292.339
292.416
292.402
292.326
292.226
292.22
292.318
292.395
292.381
292.305
292.207
292.2
292.298
292.374
292.361
292.285
292.187
292.181
292.278
292.353
292.34
292.265
292.168
292.162
292.257
292.333
292.319
292.244
292.149
292.142
292.237
292.312
292.299
292.224
292.13
292.123
292.217
292.292
292.278
292.204
292.111
292.104
292.197
292.271
292.258
292.184
292.092
292.085
292.177
292.251
292.237
292.164
292.073
292.067
292.158
292.23
292.217
292.145
292.054
292.048
292.138
292.21
292.197
292.125
292.035
292.029
292.118
292.19
292.177
292.105
292.017
292.011
292.099
292.17
292.157
292.086
291.998
291.992
292.079
292.15
292.138
292.067
291.98
291.974
292.06
292.131
292.119
292.048
291.962
291.957
292.042
292.111
292.099
292.03
291.945
291.939
292.023
292.093
292.081
292.012
291.928
291.921
292.005
292.073
292.062
291.995
291.912
291.905
291.986
292.053
292.045
291.979
291.897
291.889
291.968
292.028
292.022
291.962
291.88
291.851
291.945
292.011
292.002
291.936
291.824
291.806
291.919
291.986
291.6
291.283
290.289
289.826
289.729
289.311
289.055
288.895
288.812
288.672
288.606
288.447
288.32
288.22
288.142
288.085
288.045
288.017
287.999
287.986
287.977
287.97
287.965
287.962
287.959
287.957
287.956
287.955
287.954
287.953
287.953
287.953
287.953
287.953
287.953
287.953
287.953
287.953
287.953
287.953
287.953
287.953
287.953
287.953
287.954
287.953
287.953
287.952
287.951
287.951
287.953
287.956
287.961
287.968
287.975
287.985
287.996
288.008
288.023
288.039
288.057
288.077
288.1
288.125
288.153
288.184
288.219
288.258
288.301
288.35
288.403
288.463
288.528
288.601
288.682
288.77
288.867
288.974
289.089
289.215
289.35
289.496
289.652
289.818
289.992
290.176
290.368
290.568
290.774
290.986
291.202
291.421
291.643
291.867
292.091
292.314
292.536
292.756
292.973
293.187
293.397
293.602
293.803
293.999
294.189
294.373
294.552
294.726
294.893
295.055
295.211
295.362
295.506
295.646
295.78
295.908
296.032
296.15
296.264
296.373
296.478
296.578
296.674
296.766
296.854
296.938
297.019
297.097
297.171
297.241
297.309
297.374
297.436
297.496
297.553
297.608
297.661
297.711
297.759
297.806
297.851
297.894
297.935
297.975
298.014
298.051
298.087
298.121
298.155
298.187
298.219
298.249
298.279
298.307
298.335
298.362
298.388
298.413
298.437
298.46
298.483
298.504
298.525
298.545
298.565
298.583
298.601
298.618
298.634
298.649
298.664
298.678
298.691
298.704
298.715
298.726
298.737
298.747
298.756
298.764
298.772
298.78
298.786
298.793
298.799
298.804
298.809
298.814
298.818
298.822
298.825
298.828
298.831
298.834
298.836
298.837
298.839
298.84
298.841
298.842
298.842
298.842
298.842
298.842
298.842
298.842
298.842
298.842
298.842
298.842
298.842
298.842
298.843
298.844
298.847
298.849
298.853
298.856
298.86
298.864
298.868
298.872
298.876
298.881
298.885
298.89
298.895
298.9
298.906
298.911
298.917
298.923
298.929
298.935
298.941
298.948
298.954
298.961
298.967
298.974
298.981
298.988
298.995
299.003
299.01
299.017
299.024
299.032
299.039
299.047
299.054
299.062
299.069
299.077
299.084
299.092
299.099
299.107
299.114
299.121
299.129
299.136
299.143
299.15
299.157
299.164
299.171
299.177
299.184
299.19
299.196
299.202
299.208
299.214
299.22
299.225
299.23
299.236
299.24
299.245
299.25
299.254
299.258
299.262
299.266
299.269
299.273
299.275
299.276
299.277
299.277
299.277
299.277
299.277
299.277
299.277
299.279
299.28
299.28
299.282
299.283
299.284
299.286
299.287
299.289
299.291
299.293
299.295
299.297
299.299
299.302
299.304
299.306
299.309
299.311
299.313
299.316
299.318
299.321
299.324
299.327
299.329
299.332
299.335
299.338
299.341
299.345
299.347
299.351
299.354
299.358
299.36
299.364
299.367
299.371
299.374
299.378
299.381
299.385
299.388
299.393
299.396
299.401
299.404
299.41
299.414
299.42
299.424
299.43
299.434
299.441
299.445
299.453
299.457
299.464
299.468
299.476
299.48
299.488
299.492
299.5
299.504
299.512
299.516
299.524
299.527
299.535
299.539
299.547
299.55
299.558
299.562
299.57
299.573
299.581
299.585
299.592
299.595
299.602
299.605
299.612
299.614
299.62
299.621
299.626
299.627
299.63
299.63
299.632
299.631
299.631
299.63
299.629
299.627
299.626
299.622
299.62
299.615
299.613
299.607
299.605
299.599
299.596
299.59
299.587
299.58
299.577
299.571
299.568
299.562
299.559
299.553
299.55
299.544
299.541