/*--------------------------------*- C++ -*----------------------------------*\
| =========                 |                                                 |
| \\      /  F ield         | OpenFOAM: The Open Source CFD Toolbox           |
|  \\    /   O peration     | Version:  v2006                                 |
|   \\  /    A nd           | Website:  www.openfoam.com                      |
|    \\/     M anipulation  |                                                 |
\*---------------------------------------------------------------------------*/
FoamFile
{
    version     2.0;
    format      ascii;
    class       volScalarField;
    location    "0.038";
    object      p;
}
// * * * * * * * * * * * * * * * * * * * * * * * * * * * * * * * * * * * * * //

dimensions      [1 -1 -2 0 0 0 0];


internalField   nonuniform List<scalar> 
11076
(
146290
146290
146289
146289
146289
146289
146289
146290
146293
146300
146309
146320
146332
146345
146357
146371
146384
146398
146412
146427
146443
146459
146475
146492
146509
146527
146545
146564
146582
146601
146620
146640
146659
146679
146698
146718
146738
146757
146777
146796
146816
146835
146853
146872
146890
146907
146925
146941
146957
146973
146988
147003
147017
147031
147044
147057
147068
147077
147083
147086
147087
147087
147085
147085
147082
147086
147092
147102
147125
147165
147191
147207
147181
147179
147172
147167
147169
147170
147158
147158
147158
147148
147147
147147
147137
147138
147138
147130
147129
147129
147123
147123
147124
147118
147118
147117
147113
147114
147114
147111
147110
147110
147108
147108
147109
147107
147106
147106
147105
147105
147106
147105
147105
147105
147105
147105
147106
147107
147106
147106
147107
147108
147108
147110
147110
147109
147112
147112
147113
147116
147115
147115
147118
147119
147119
147123
147122
147122
147127
147127
147127
147132
147132
147131
147137
147137
147137
147143
147142
147142
147148
147149
147149
147155
147155
147155
147161
147162
147162
147169
147169
147169
147176
147177
147177
147185
147185
147184
147193
147193
147194
147202
147202
147202
147211
147211
147212
147221
147221
147221
147231
147231
147232
147242
147241
147241
147252
147253
147253
147264
147264
147263
147275
147276
147276
147288
147288
147287
147300
147301
147301
147314
147313
147313
147327
147327
147328
147342
147341
147341
147355
147356
147356
147371
147371
147370
147386
147386
147387
147402
147402
147402
147418
147419
147419
147436
147436
147435
147453
147453
147454
147472
147471
147471
147489
147490
147490
147509
147509
147508
147528
147528
147529
147549
147548
147548
147569
147569
147570
147591
147590
147590
147612
147612
147613
147636
147635
147634
147658
147658
147659
147683
147682
147682
147707
147707
147708
147733
147733
147732
147758
147759
147760
147787
147786
147785
147813
147814
147814
147842
147841
147841
147869
147870
147871
147900
147899
147898
147928
147929
147929
147959
147958
147958
147988
147988
147989
148020
148019
148019
148050
148051
148052
148084
148083
148082
148115
148116
148116
148149
148149
148148
148182
148183
148184
148219
148218
148217
148252
148253
148254
148290
148289
148288
148324
148325
148325
148362
148361
148360
148396
148397
148399
148435
148434
148432
148468
148469
148470
148504
148504
148503
148537
148537
148538
148571
148570
148570
148601
148602
148604
148634
148633
148632
148661
148662
148663
148691
148690
148690
148718
148718
148719
148747
148746
148745
148772
148773
148774
148799
148798
148798
148823
148824
148824
148848
148848
148847
148870
148870
148871
148891
148891
148891
148909
148910
148910
148926
148926
148926
148940
148940
148941
148953
148952
148952
148963
148963
148963
148972
148972
148972
148980
148980
148980
148987
148987
148987
148994
148994
148994
148999
148999
149000
149003
149003
149003
149006
149006
149006
149008
149008
149008
149010
149010
149010
149010
149010
149010
149011
149011
149011
149011
149010
149010
149011
149011
149011
149010
149010
149010
149011
149011
149011
149010
149010
149011
149011
149011
149011
149012
149012
149012
149012
149013
149013
149014
149014
149014
149014
149014
149014
149014
149014
149014
149012
149012
149012
149011
149011
149011
149009
149010
149010
149011
149011
149010
149010
149010
149010
149012
149012
149012
149012
149012
149012
149011
149011
149011
149009
149009
149009
149007
149007
149007
149008
149008
149008
149011
149011
149011
149015
149015
149015
149017
149016
149016
149015
149015
149015
149011
149011
149011
149008
149007
149007
149005
149005
149006
149003
149003
149003
149004
149004
149003
149003
149001
149001
148998
148999
148997
148998
148998
148999
148999
149000
149000
149000
149000
149000
149001
149002
149002
149002
149003
149004
149006
149007
149007
149008
149006
149006
149007
148999
149006
149004
148995
149004
148998
149002
148998
149001
149002
149001
149000
149001
149001
149003
149001
149003
149000
149000
149000
149003
149000
149003
149001
148998
149000
149002
149000
149002
149000
148999
149000
149002
149000
149001
149000
148998
149000
149001
148999
149001
148999
149001
148998
149000
149001
149001
149000
149000
149000
149002
149003
149002
149002
149002
149001
149003
149005
149004
149004
149003
149003
149006
149004
149006
149005
149004
149005
149006
149006
149006
149005
149003
149005
149005
149004
149006
149004
149001
149003
149004
149002
149004
149002
149000
149001
149002
149001
149003
148999
149001
148999
149000
149001
149000
148998
149000
148998
148999
148999
148999
148998
148994
148998
148997
148999
148997
148996
148993
148996
148996
148995
148997
148995
148992
148994
148995
148994
148995
148993
148992
148993
148994
148993
148995
148993
148992
148993
148993
148995
148994
148993
148993
148993
148995
148993
148995
148994
148991
148994
148993
148995
148994
148992
148995
148992
148993
148995
148993
148993
148989
148992
148991
148991
148991
148989
148985
148988
148986
148986
148987
148980
148984
148980
148976
148977
148978
148971
148970
148968
148962
148965
148967
148965
148962
148959
148962
148967
148970
148981
148978
148975
148990
148993
148995
149009
149007
149005
149023
149025
149026
149037
149035
149032
149050
149053
149055
149077
149075
149074
149092
149094
149095
149110
149108
149105
149127
149129
149131
149152
149151
149149
149167
149170
149172
149191
149190
149187
149203
149209
149210
149237
149226
149215
149273
149283
149288
149315
149315
149306
149333
149340
149338
149364
149368
149356
149396
149407
149399
149438
149448
149426
149469
149493
149479
149523
149543
149508
149552
149598
149573
149625
149655
149594
149639
149702
149667
149716
149771
149681
149737
149836
149758
149826
149891
149794
149852
149937
149899
149946
149981
149901
149949
150041
150016
150043
150090
149998
150053
150150
150094
150126
150204
150118
150189
150241
150160
150183
150267
150266
150339
150297
150209
150230
150321
150411
150452
150314
150226
150171
150268
150450
150427
150221
150149
150067
150131
150359
150220
149996
149950
149855
149862
150004
149744
149655
149661
149460
149422
149390
149038
149177
149183
148897
148896
148625
148242
148655
148664
148421
148406
147781
147329
148142
148142
147906
147885
146743
146205
147580
147643
147423
147255
145624
145206
146891
147077
146778
146513
144785
144510
146152
146426
146110
145844
144356
144365
145619
145907
145660
145434
144376
144506
145348
145525
145476
145275
144621
144759
145224
145365
145354
145237
144887
145015
145237
145370
145342
145243
145123
145234
145310
145416
145468
145368
145318
145386
145435
145539
145591
145480
145438
145497
145499
145594
145616
145536
145574
145664
145631
145723
145770
145699
145719
145775
145740
145792
145890
145836
145846
145890
145888
145929
145947
145913
145922
145984
145965
145982
146084
146062
146055
146069
146077
146088
146060
146049
146050
146209
146186
146168
146202
146215
146223
146208
146209
146229
146234
146134
146293
146391
146373
146354
146344
146336
146354
146316
146300
146299
146421
146437
146435
146418
146414
146409
146397
146415
146423
146328
146420
146367
146496
146509
146487
146481
146478
146468
146429
146466
146429
146542
146539
146532
146502
146502
146508
146471
146463
146463
146559
146577
146581
146535
146529
146526
146475
146474
146478
146583
146582
146565
146545
146559
146573
146505
146502
146518
146494
146393
146568
146605
146564
146551
146537
146535
146551
146549
146433
146483
146531
146533
146560
146523
146512
146504
146457
146518
146446
146548
146549
146539
146492
146499
146503
146409
146445
146428
146511
146514
146524
146525
146484
146480
146401
146479
146363
146469
146481
146479
146433
146419
146445
146318
146413
146350
146446
146543
146397
146337
146453
146378
146401
146425
146392
146354
146365
146355
146303
146317
146304
146406
146408
146375
146331
146344
146352
146254
146248
146251
146295
146306
146305
146261
146265
146254
146203
146184
146229
146297
146259
146257
146196
146196
146216
146115
146116
146109
146146
146230
146108
146049
146143
146096
146151
146171
146164
146115
146102
146093
146015
145997
146032
146068
146059
146052
146000
146003
146008
145942
145925
145937
146007
145966
146073
145974
145884
145927
145921
145933
145946
145874
145861
145863
145780
145778
145780
145855
145853
145839
145797
145808
145823
145750
145732
145718
145734
145795
145711
145623
145698
145660
145676
145698
145676
145621
145627
145617
145538
145547
145532
145615
145641
145597
145526
145549
145531
145516
145528
145511
145448
145456
145455
145359
145366
145363
145409
145430
145421
145379
145375
145364
145280
145281
145304
145312
145341
145302
145226
145250
145221
145222
145243
145222
145161
145173
145169
145071
145080
145073
145116
145144
145121
145064
145068
145053
145046
145065
145061
144981
144980
144973
144870
144871
144873
144914
144918
144905
144831
144827
144830
144853
144854
144839
144775
144785
144797
144683
144670
144670
144700
144714
144721
144608
144604
144612
144608
144622
144623
144542
144537
144534
144424
144417
144424
144492
144489
144472
144396
144398
144409
144401
144400
144385
144302
144303
144304
144199
144191
144193
144225
144239
144239
144135
144136
144141
144142
144158
144156
144084
144076
144068
143952
143955
143970
143988
143989
143975
143884
143880
143880
143896
143897
143880
143797
143800
143802
143681
143672
143674
143703
143717
143713
143619
143615
143616
143606
143620
143616
143533
143527
143520
143388
143387
143396
143427
143431
143418
143328
143326
143330
143333
143335
143320
143231
143233
143233
143111
143102
143103
143136
143153
143153
143033
143033
143037
143019
143032
143025
142936
142931
142925
142785
142783
142792
142834
142834
142817
142712
142705
142703
142715
142717
142700
142602
142605
142608
142442
142439
142447
142486
142505
142506
142373
142375
142381
142366
142384
142383
142267
142265
142260
142103
142101
142112
142143
142146
142130
142020
142015
142016
141992
142002
141992
141884
141883
141882
141734
141728
141734
141771
141786
141780
141667
141663
141666
141646
141665
141663
141536
141532
141526
141340
141335
141344
141365
141370
141357
141236
141223
141213
141229
141237
141224
141119
141123
141126
140949
140940
140944
140975
140995
140994
140845
140845
140851
140812
140832
140829
140684
140676
140672
140444
140420
140410
140491
140500
140487
140378
140372
140371
140384
140388
140368
140249
140253
140253
140060
140048
140051
140074
140095
140096
139921
139922
139931
139856
139867
139855
139645
139669
139688
139503
139482
139467
139591
139594
139567
139463
139475
139484
139245
139237
139244
139264
139286
139286
139103
139103
139112
139034
139051
139045
138813
138829
138841
138592
138561
138542
138648
138660
138645
138520
138514
138514
138511
138517
138495
138344
138351
138352
138115
138101
138104
138104
138130
138134
137935
137935
137936
137606
137565
137542
137611
137631
137629
137496
137481
137471
137520
137526
137501
137365
137372
137377
137095
137084
137091
137086
137115
137119
136922
136913
136905
136544
136515
136510
136458
136493
136504
136326
136294
136271
136366
136378
136355
136224
136233
136240
135941
135931
135941
135935
135964
135966
135774
135758
135744
135351
135336
135353
135091
135158
135201
135022
134983
134960
135076
135092
135072
134948
134953
134957
134664
134649
134654
134621
134650
134651
134403
134398
134391
133967
133947
133963
133628
133721
133785
133639
133598
133559
133393
133399
133415
133475
133513
133509
133316
133307
133293
132883
132871
132886
132799
132802
132781
132461
132418
132374
131728
131825
131933
132022
132027
131996
131895
131904
131906
131588
131584
131595
131588
131587
131551
131270
131271
131271
130669
130656
130689
130346
130230
130088
130027
130091
130154
129910
129890
129880
130002
130016
129981
129778
129782
129784
129264
129246
129263
128966
128964
128936
128023
128256
128426
128007
127900
127774
128153
128183
128155
128012
128012
128001
127532
127528
127545
127215
127227
127209
126265
126484
126644
126077
125920
125699
125661
125748
125805
125896
125941
125918
125666
125672
125674
124989
124961
124979
123416
123651
123908
123949
123864
123763
123807
123836
123880
123557
123566
123583
122863
122854
122896
122149
121855
121560
121394
121615
121825
121566
121482
121383
121049
121090
121138
120744
120620
120432
119126
119714
120078
119690
119509
119225
119274
119392
119465
118931
118777
118535
117210
117607
117961
118362
118271
118147
117981
118232
118466
118112
117735
117123
117480
117811
118009
118035
117781
117277
117787
118166
118328
119100
118993
118698
120140
120306
120322
121480
121505
121453
122365
122393
122363
123013
123025
123007
123560
123575
123567
124028
124030
124021
124451
124460
124459
124813
124813
124808
125150
125156
125158
125440
125438
125435
125720
125724
125728
125960
125958
125956
126197
126202
126206
126399
126396
126395
126602
126605
126610
126771
126769
126768
126946
126949
126954
127089
127087
127086
127242
127245
127250
127365
127363
127363
127500
127503
127508
127605
127604
127604
127727
127729
127734
127819
127818
127817
127929
127931
127935
128009
128008
128008
128109
128111
128115
128180
128180
128180
128272
128274
128278
128335
128335
128335
128419
128421
128425
128475
128475
128475
128553
128555
128558
128602
128602
128603
128673
128675
128678
128717
128717
128718
128784
128786
128788
128822
128823
128824
128884
128885
128887
128918
128919
128919
128976
128977
128980
129006
129007
129008
129059
129060
129062
129086
129087
129088
129137
129138
129140
129161
129162
129162
129207
129208
129209
129228
129229
129230
129272
129273
129275
129291
129292
129293
129332
129332
129334
129349
129349
129350
129387
129388
129390
129402
129403
129404
129437
129438
129439
129451
129452
129452
129485
129485
129487
129497
129497
129498
129528
129528
129529
129538
129539
129540
129568
129569
129570
129577
129578
129579
129605
129605
129606
129613
129614
129614
129639
129640
129641
129646
129647
129648
129671
129671
129672
129676
129678
129678
129700
129701
129702
129705
129706
129707
129727
129728
129729
129731
129732
129733
129753
129753
129754
129756
129757
129758
129776
129776
129777
129778
129779
129780
129797
129798
129799
129799
129800
129801
129817
129817
129818
129818
129819
129820
129835
129836
129837
129836
129837
129838
129852
129852
129853
129852
129853
129854
129868
129868
129869
129867
129868
129869
129882
129882
129883
129880
129882
129882
129895
129896
129897
129893
129894
129895
129907
129907
129908
129905
129906
129907
129918
129919
129920
129916
129917
129918
129929
129929
129930
129926
129927
129928
129938
129939
129940
129935
129936
129937
129947
129947
129948
129943
129945
129945
129955
129956
129957
129952
129953
129953
129963
129963
129964
129959
129960
129960
129970
129970
129971
129966
129967
129967
129976
129977
129977
129971
129973
129973
129982
129983
129984
129977
129978
129979
129987
129988
129989
129982
129983
129984
129992
129993
129994
129987
129988
129989
129997
129997
129998
129991
129992
129993
130001
130001
130002
129995
129996
129997
130004
130005
130006
129999
130000
130000
130008
130008
130009
130002
130003
130004
130010
130011
130012
130004
130005
130006
130013
130014
130015
130007
130008
130009
130015
130016
130017
130009
130010
130011
130017
130018
130019
130011
130012
130013
130019
130019
130020
130012
130013
130014
130020
130021
130022
130014
130015
130015
130022
130022
130023
130015
130016
130016
130023
130023
130024
130016
130017
130017
130023
130024
130025
130016
130017
130018
130024
130024
130025
130017
130018
130018
130024
130025
130025
130017
130018
130019
130024
130025
130026
130017
130018
130019
130024
130025
130026
130017
130018
130019
130024
130025
130026
130017
130018
130019
130024
130024
130025
130016
130017
130018
130023
130024
130025
130016
130017
130018
130023
130023
130024
130015
130016
130017
130022
130023
130024
130015
130016
130016
130021
130022
130023
130014
130014
130015
130020
130021
130022
130013
130013
130014
130019
130019
130020
130011
130012
130013
130017
130018
130019
130010
130010
130011
130016
130016
130017
130008
130008
130009
130014
130014
130015
130006
130006
130007
130011
130012
130013
130003
130004
130004
130009
130009
130010
130000
130001
130002
130006
130006
130007
129997
129998
129999
130003
130003
130004
129994
129995
129996
129999
130000
130001
129991
129991
129992
129996
129996
129997
129987
129988
129988
129992
129992
129993
129983
129984
129984
129988
129988
129989
129979
129980
129980
129983
129984
129985
129974
129975
129975
129979
129979
129980
129969
129970
129971
129973
129974
129975
129963
129964
129964
129967
129968
129968
129956
129957
129957
129958
129959
129960
129946
129946
129947
129947
129948
129949
129933
129933
129934
129932
129933
129936
129924
129924
129924
129944
129946
129947
130008
130007
130004
130069
130072
130068
130079
130085
130085
130064
130067
130037
130064
130097
130024
129991
130034
130071
130052
130030
130020
130015
130011
130010
130009
130009
130009
130008
130008
130007
130007
130006
130005
130005
130004
130002
130001
130000
129999
129999
130003
130006
130009
130013
130017
130022
130028
130036
130045
130056
130069
130084
130102
130122
130142
130160
130175
130183
130186
130189
130196
130205
130216
130230
130245
130263
130283
130305
130330
130358
130391
130428
130470
130518
130572
130634
130704
130783
130871
130970
131081
131205
131341
131492
131658
131839
132036
132249
132478
132723
132983
133258
133547
133848
134161
134483
134814
135151
135493
135838
136185
136531
136877
137220
137558
137893
138221
138543
138857
139164
139462
139752
140034
140306
140569
140823
141069
141305
141532
141751
141962
142164
142358
142544
142722
142893
143058
143215
143365
143509
143647
143779
143906
144027
144143
144253
144359
144460
144557
144650
144738
144823
144904
144981
145055
145125
145192
145256
145317
145376
145431
145485
145535
145583
145629
145673
145715
145754
145792
145828
145862
145894
145925
145953
145981
146007
146031
146054
146075
146095
146114
146132
146148
146163
146177
146189
146201
146211
146219
146227
146235
146244
146257
146274
146285
146289
146290
146290
146289
146289
146289
146297
146316
146328
146335
146344
146353
146363
146374
146385
146397
146409
146422
146436
146450
146465
146481
146497
146514
146531
146549
146567
146585
146604
146622
146642
146661
146680
146700
146719
146738
146758
146777
146796
146815
146834
146852
146870
146888
146905
146922
146938
146953
146968
146982
146996
147009
147022
147033
147045
147055
147064
147072
147078
147079
147079
147086
147106
147125
147132
147137
147129
147123
147118
147114
147111
147109
147107
147107
147106
147107
147107
147109
147111
147114
147117
147120
147124
147128
147133
147138
147144
147150
147156
147163
147170
147178
147186
147195
147203
147213
147222
147233
147243
147254
147265
147277
147289
147302
147315
147329
147343
147357
147372
147388
147404
147420
147437
147455
147473
147492
147511
147530
147550
147571
147592
147614
147637
147660
147684
147709
147735
147761
147788
147816
147844
147872
147901
147931
147961
147991
148022
148053
148085
148118
148152
148186
148220
148256
148292
148328
148364
148400
148436
148472
148507
148541
148574
148605
148635
148665
148694
148722
148749
148775
148801
148827
148850
148873
148893
148912
148928
148942
148954
148965
148973
148981
148988
148995
149000
149004
149006
149008
149009
149010
149010
149011
149011
149011
149011
149011
149010
149011
149012
149013
149014
149013
149012
149010
149010
149009
149010
149011
149012
149011
149009
149007
149008
149010
149014
149016
149015
149011
149008
149006
149007
149010
149011
149008
149006
149008
149006
149012
149012
149014
149011
149013
149015
149012
149010
149007
149004
149009
149010
149007
149006
149009
149008
149009
149008
149008
149009
149011
149011
149010
149009
149011
149011
149009
149008
149009
149010
149010
149010
149009
149008
149011
149010
149011
149010
149011
149013
149013
149012
149012
149012
149014
149013
149011
149011
149014
149013
149013
149012
149011
149011
149013
149012
149011
149011
149012
149012
149013
149012
149010
149010
149012
149011
149009
149009
149011
149012
149012
149010
149009
149009
149012
149010
149007
149008
149013
149011
149009
149006
149001
149003
149002
148997
148989
148993
149006
148996
148990
148983
148975
148980
148975
148967
148956
148962
148980
148957
148954
148945
148930
148936
148924
148915
148896
148902
148925
148886
148886
148876
148853
148860
148841
148830
148804
148812
148842
148792
148792
148779
148753
148761
148739
148725
148697
148706
148738
148678
148682
148669
148639
148647
148622
148609
148576
148583
148615
148546
148556
148544
148509
148516
148487
148475
148439
148445
148474
148401
148415
148403
148366
148371
148341
148330
148293
148298
148328
148256
148269
148258
148222
148227
148199
148188
148153
148159
148187
148120
148131
148121
148088
148092
148066
148056
148024
148029
148055
147993
148003
147994
147963
147967
147943
147933
147903
147908
147932
147874
147884
147875
147846
147850
147827
147818
147790
147794
147817
147763
147772
147764
147737
147740
147720
147712
147686
147690
147711
147663
147670
147663
147639
147642
147624
147617
147594
147598
147617
147575
147581
147574
147552
147556
147540
147533
147512
147516
147534
147495
147501
147494
147475
147478
147464
147457
147439
147442
147459
147425
147429
147423
147405
147408
147396
147390
147374
147377
147392
147362
147365
147360
147344
147347
147336
147331
147317
147320
147334
147307
147310
147304
147291
147294
147284
147279
147267
147270
147282
147259
147261
147256
147245
147247
147239
147235
147224
147227
147238
147219
147219
147215
147205
147207
147201
147197
147188
147190
147200
147184
147184
147180
147172
147174
147169
147165
147158
147160
147169
147156
147155
147152
147145
147147
147143
147140
147134
147136
147144
147134
147133
147130
147125
147127
147125
147122
147118
147120
147126
147119
147118
147115
147112
147114
147112
147110
147109
147110
147113
147110
147109
147108
147107
147108
147108
147108
147108
147108
147109
147109
147110
147110
147111
147111
147113
147114
147118
147116
147110
147110
147119
147122
147127
147122
147093
147101
147106
147109
147112
147117
147123
147130
147139
147150
147161
147175
147190
147206
147224
147244
147265
147288
147312
147339
147367
147397
147429
147463
147500
147538
147578
147621
147666
147713
147764
147817
147873
147932
147992
148054
148118
148185
148254
148326
148399
148474
148549
148622
148691
148755
148813
148864
148908
148945
148974
148996
149010
149017
149019
149019
149018
149017
149015
149018
149018
149017
149015
149013
149011
149009
149008
149007
149004
149002
149003
149005
149001
149001
149004
148997
148997
149000
148999
148995
148995
148999
148998
148998
148998
148996
148995
148999
148998
148997
148997
148998
149000
149000
149000
149000
148999
149001
149001
149000
149000
149001
149002
149001
149001
149002
149003
149004
149003
149001
149000
149003
149004
149003
149005
149006
149006
149006
149003
149004
149000
149001
149003
149002
149002
149003
149002
149001
149002
149000
149001
149003
149001
149000
149002
149001
149002
149002
149001
149000
148999
148998
148998
149002
149001
149001
149001
149002
149002
149003
149005
149006
149004
149006
149006
149009
149009
149009
149005
149004
149003
149005
149008
149011
149014
149014
149014
149016
149015
149019
149019
149021
149021
149019
149017
149015
149013
149015
149017
149019
149022
149023
149022
149022
149026
149029
149024
149026
149033
149039
149032
149026
149024
149032
149044
149047
149030
149021
149015
149012
149010
149008
149006
149005
149004
149003
149003
149002
149002
149001
149001
149000
149001
149000
149001
149002
149004
149006
149005
149004
149004
149005
149006
149006
149006
149004
149003
149001
149002
148999
149002
148999
149002
149000
149002
149000
149000
149002
149002
149000
149001
148999
149002
149000
149002
149001
149000
149003
149002
149002
149003
149005
149005
149005
149006
149006
149004
149004
149006
149004
149005
149007
149006
149005
149003
149002
149002
149001
149003
149004
149005
149007
148999
149000
148999
149000
149001
149001
149000
149001
149001
149000
149003
149001
149004
149003
149006
149005
149004
149006
149005
149003
149004
149002
149003
149000
149001
148998
148998
149000
148997
148997
148999
148998
148999
148999
148998
148997
148996
148996
148997
148995
148995
148996
148997
148997
148997
148997
149000
149000
149009
149013
149021
149040
149017
149009
149001
149002
149001
149001
148998
148998
148996
148995
148996
148994
148996
148994
148996
148994
148994
148996
148995
148993
148995
148994
148995
148994
148995
148993
148995
148996
148994
148992
148994
148992
148995
148996
148995
148991
148992
148989
148988
148984
148987
148985
148993
148996
149007
149026
149038
149055
149072
149070
149060
149049
149038
149029
149032
149045
149054
149033
149032
149058
149096
149079
149062
149081
149108
149142
149161
149103
149058
149024
149007
149049
149027
148982
148947
148988
149029
149077
149101
149164
149135
149076
148990
148960
148932
148900
148843
148863
148786
148776
148703
148703
148695
148788
148878
148890
148784
148679
148578
148603
148619
148626
148548
148535
148452
148469
148393
148373
148345
148427
148513
148482
148392
148309
148263
148347
148439
148541
148652
148771
148899
149030
149146
149218
149247
149237
149199
149145
149102
149116
149175
149248
149263
149220
149175
149144
149108
149085
149080
149051
149033
149022
149007
148998
148987
148983
148981
148982
148975
148980
148973
148972
148978
148988
149000
149014
149029
149043
149049
149063
149083
149079
149060
149097
149098
149112
149146
149134
149117
149114
149134
149154
149156
149174
149185
149232
149287
149343
149311
149363
149321
149354
149336
149261
149431
149419
149493
149477
149453
149407
149461
149404
149413
149380
149344
149313
149280
149249
149216
149196
149192
149174
149215
149244
149289
149320
149355
149389
149395
149361
149333
149433
149426
149462
149449
149483
149518
149542
149502
149514
149471
149560
149611
149583
149555
149522
149583
149601
149567
149604
149638
149695
149619
149740
149648
149671
149780
149921
149856
149812
149741
149682
149641
149688
149726
149783
149860
149915
149990
150019
149908
149887
149707
149478
149671
149761
149875
149977
150080
150055
150091
150042
150026
149965
149977
150041
150068
150098
150142
150119
150190
150181
150127
150089
150015
149994
149888
149930
150019
150046
150156
149961
149989
150085
149812
149841
149841
149829
149732
149567
149480
149312
149316
149137
149084
148899
148742
148605
148530
148682
148871
148772
149070
149023
148922
149168
149354
149546
149673
149726
149706
149648
149491
149568
149415
149252
149356
149235
149361
149574
149753
149105
149055
148867
148877
148660
148666
148462
148434
148183
148252
148041
147911
147766
147492
147276
147025
146724
146374
146309
145988
145751
145850
145632
145515
145640
145887
145807
145962
146198
146196
146076
146347
146617
146645
146923
147191
147315
147538
147705
147858
147707
147746
147486
147295
147393
147103
146864
146804
146857
146963
146552
146397
146620
146537
146496
146130
146024
145835
145672
145469
145537
145601
145742
145693
145698
145721
145803
145816
145854
145910
145952
145988
146035
146067
146099
146124
146169
146198
146235
146277
146285
146327
146347
146347
146393
146405
146423
146422
146455
146472
146458
146490
146501
146482
146504
146508
146491
146514
146509
146511
146496
146504
146492
146480
146483
146483
146466
146472
146462
146441
146456
146441
146410
146421
146406
146379
146373
146351
146330
146319
146299
146291
146265
146241
146229
146210
146173
146170
146139
146111
146108
146055
146059
146031
145989
145975
145952
145917
145909
145855
145836
145804
145768
145761
145728
145685
145655
145615
145587
145557
145523
145499
145452
145418
145379
145351
145325
145285
145244
145209
145171
145128
145086
145059
145031
144981
144937
144884
144849
144821
144768
144736
144682
144636
144599
144541
144499
144444
144404
144376
144312
144269
144209
144169
144130
144070
144026
143962
143912
143871
143809
143760
143690
143647
143600
143533
143478
143404
143359
143314
143249
143195
143120
143074
143020
142948
142884
142802
142752
142698
142627
142562
142471
142426
142364
142286
142214
142119
142065
142001
141926
141851
141758
141715
141647
141560
141474
141358
141305
141227
141156
141075
140965
140908
140825
140724
140620
140484
140443
140366
140286
140198
140070
140003
139898
139795
139669
139547
139492
139400
139262
139193
139077
138958
138807
138644
138604
138503
138397
138280
138118
138034
137876
137661
137627
137501
137427
137299
137105
137007
136828
136578
136529
136358
136298
136157
135955
135859
135655
135351
135293
135081
135041
134887
134659
134543
134307
133976
133927
133677
133474
133409
133199
132880
132758
132446
132087
132095
131868
131600
131491
131180
130682
130628
130238
129996
129955
129692
129236
129099
128571
128205
128257
127971
127506
127379
126802
126305
125969
126014
125655
125033
124249
124480
124005
123562
122882
122965
122199
121768
121263
121393
120627
120169
119818
119331
118654
119370
118988
118757
118669
118729
119026
119619
120662
121634
122462
123076
123627
124063
124492
124830
125178
125449
125742
125966
126216
126403
126619
126773
126961
127090
127256
127365
127513
127605
127739
127818
127941
128008
128121
128179
128284