/*--------------------------------*- C++ -*----------------------------------*\
| =========                 |                                                 |
| \\      /  F ield         | OpenFOAM: The Open Source CFD Toolbox           |
|  \\    /   O peration     | Version:  v2006                                 |
|   \\  /    A nd           | Website:  www.openfoam.com                      |
|    \\/     M anipulation  |                                                 |
\*---------------------------------------------------------------------------*/
FoamFile
{
    version     2.0;
    format      ascii;
    class       volScalarField;
    location    "0.038";
    object      rho;
}
// * * * * * * * * * * * * * * * * * * * * * * * * * * * * * * * * * * * * * //

dimensions      [1 -3 0 0 0 0 0];


internalField   nonuniform List<scalar> 
11076
(
1.71077
1.71077
1.71077
1.71077
1.71077
1.71077
1.71077
1.71077
1.71081
1.71087
1.71095
1.71104
1.71114
1.71124
1.71135
1.71145
1.71157
1.71168
1.7118
1.71192
1.71205
1.71218
1.71232
1.71246
1.7126
1.71275
1.7129
1.71305
1.7132
1.71336
1.71352
1.71368
1.71384
1.714
1.71416
1.71433
1.71449
1.71465
1.71481
1.71497
1.71513
1.71529
1.71544
1.7156
1.71575
1.71589
1.71603
1.71617
1.71631
1.71644
1.71656
1.71668
1.7168
1.71691
1.71702
1.71712
1.71721
1.71729
1.71734
1.71738
1.71739
1.71739
1.71738
1.71738
1.71734
1.71739
1.71745
1.71753
1.71776
1.71815
1.71837
1.71824
1.71787
1.71825
1.71827
1.71822
1.71811
1.71763
1.71739
1.71795
1.71811
1.71799
1.71779
1.71719
1.71702
1.71764
1.71785
1.71773
1.7175
1.71688
1.71678
1.7174
1.71764
1.71755
1.7173
1.71669
1.71663
1.71722
1.71747
1.7174
1.71714
1.71657
1.71653
1.71708
1.71734
1.7173
1.71704
1.7165
1.71648
1.717
1.71726
1.71722
1.71697
1.71647
1.71647
1.71694
1.7172
1.71718
1.71693
1.71647
1.71648
1.71692
1.71717
1.71717
1.71693
1.7165
1.71652
1.71693
1.71717
1.71718
1.71694
1.71655
1.71658
1.71695
1.71719
1.71721
1.71698
1.71662
1.71666
1.717
1.71723
1.71726
1.71704
1.71671
1.71675
1.71707
1.71729
1.71733
1.71712
1.71681
1.71686
1.71716
1.71736
1.71741
1.71721
1.71693
1.71699
1.71726
1.71746
1.71752
1.71732
1.71706
1.71712
1.71738
1.71757
1.71764
1.71745
1.7172
1.71728
1.71751
1.7177
1.71777
1.7176
1.71737
1.71745
1.71767
1.71784
1.71792
1.71775
1.71755
1.71764
1.71783
1.718
1.71809
1.71793
1.71774
1.71783
1.71802
1.71817
1.71828
1.71812
1.71794
1.71805
1.71822
1.71837
1.71848
1.71833
1.71817
1.71828
1.71843
1.71857
1.71869
1.71856
1.71841
1.71853
1.71867
1.7188
1.71893
1.7188
1.71867
1.71879
1.71892
1.71904
1.71918
1.71906
1.71893
1.71905
1.71918
1.7193
1.71945
1.71933
1.7192
1.71933
1.71946
1.71959
1.71975
1.71962
1.71948
1.71963
1.71976
1.71989
1.72005
1.71993
1.71981
1.71998
1.72007
1.72019
1.72036
1.72026
1.72017
1.72034
1.72041
1.72052
1.72071
1.7206
1.72053
1.72071
1.72077
1.72087
1.72107
1.72098
1.72094
1.72119
1.72115
1.72122
1.7214
1.72137
1.72146
1.7217
1.72155
1.72158
1.72181
1.72178
1.7219
1.72209
1.72199
1.72202
1.72225
1.72224
1.72236
1.72265
1.72246
1.72246
1.72269
1.72272
1.72292
1.72308
1.72293
1.72294
1.72322
1.7232
1.7233
1.72363
1.72343
1.72345
1.72363
1.72368
1.72403
1.72438
1.72394
1.72385
1.72413
1.7242
1.7246
1.7247
1.72449
1.72445
1.72477
1.7248
1.725
1.72544
1.72507
1.725
1.72516
1.72536
1.72595
1.72625
1.72565
1.72545
1.72582
1.72597
1.72633
1.72662
1.7263
1.72619
1.72643
1.72662
1.72714
1.72761
1.72693
1.72665
1.727
1.72723
1.72785
1.72771
1.72754
1.72744
1.72781
1.72784
1.72808
1.72871
1.72813
1.728
1.72811
1.72846
1.72957
1.72997
1.72885
1.72845
1.72891
1.72921
1.72992
1.72958
1.72954
1.72945
1.72974
1.72977
1.72999
1.73062
1.72995
1.72978
1.72984
1.73019
1.73131
1.73152
1.73053
1.73018
1.73063
1.73083
1.73132
1.73161
1.73114
1.73097
1.73105
1.73134
1.73216
1.73276
1.73161
1.73116
1.73139
1.73185
1.73296
1.73306
1.73212
1.7317
1.732
1.73231
1.73289
1.73303
1.73254
1.73226
1.73246
1.73274
1.73321
1.73339
1.73293
1.73267
1.73286
1.73307
1.73338
1.7332
1.73309
1.73298
1.73305
1.73315
1.73323
1.73331
1.7332
1.73313
1.73324
1.73331
1.7334
1.73348
1.7334
1.73334
1.73342
1.7335
1.73359
1.73353
1.73346
1.73341
1.73346
1.73354
1.73365
1.73372
1.73353
1.73343
1.73362
1.73373
1.7339
1.73386
1.73366
1.73355
1.73367
1.73389
1.73423
1.73388
1.73374
1.73358
1.73367
1.73388
1.73409
1.73339
1.73358
1.73355
1.73376
1.73381
1.73376
1.73342
1.73354
1.73358
1.73363
1.73367
1.73381
1.73376
1.73354
1.73347
1.73357
1.73369
1.7339
1.73401
1.7337
1.7335
1.7336
1.73378
1.73401
1.73408
1.73386
1.73362
1.73361
1.73373
1.73377
1.73382
1.73369
1.73357
1.73344
1.73345
1.73342
1.7336
1.73356
1.73353
1.73341
1.73334
1.73318
1.73364
1.73358
1.73351
1.73343
1.7335
1.73352
1.73379
1.73377
1.73366
1.73369
1.73375
1.73361
1.73372
1.73374
1.73365
1.73371
1.73381
1.73386
1.73372
1.73371
1.73365
1.73369
1.73373
1.73375
1.73363
1.73367
1.73367
1.73381
1.73382
1.73384
1.73353
1.73368
1.73377
1.73368
1.73367
1.73368
1.73346
1.73362
1.73364
1.7334
1.73341
1.73356
1.73371
1.73332
1.73325
1.73352
1.73347
1.73331
1.73342
1.73331
1.73338
1.73345
1.73346
1.73349
1.73349
1.73352
1.73352
1.73355
1.73357
1.7336
1.73361
1.73364
1.73365
1.73367
1.73367
1.73368
1.73368
1.73366
1.73359
1.73352
1.73334
1.73332
1.73351
1.73399
1.735
1.73516
1.73441
1.73346
1.73339
1.73493
1.73507
1.73523
1.73479
1.73352
1.73384
1.73423
1.73584
1.73557
1.73477
1.7337
1.73379
1.7346
1.73568
1.73475
1.73482
1.73355
1.73374
1.73402
1.73423
1.73363
1.73428
1.7335
1.73366
1.73365
1.73385
1.73349
1.73369
1.73357
1.73354
1.73348
1.73343
1.73323
1.73352
1.7335
1.73347
1.73364
1.73323
1.73349
1.73358
1.73362
1.73391
1.73324
1.73411
1.73408
1.73369
1.73387
1.73396
1.73387
1.73402
1.73405
1.73397
1.73398
1.73402
1.73377
1.73411
1.7336
1.73401
1.73384
1.73385
1.73354
1.73319
1.73287
1.7337
1.7337
1.73381
1.73322
1.73311
1.73293
1.73352
1.73375
1.73383
1.73328
1.73318
1.73331
1.73342
1.73381
1.7338
1.73364
1.73342
1.73383
1.73373
1.73386
1.73387
1.73372
1.73405
1.7341
1.73378
1.73386
1.73393
1.73351
1.73422
1.7342
1.73367
1.73386
1.73383
1.73381
1.73407
1.73379
1.7343
1.7337
1.73374
1.73419
1.73389
1.73417
1.73385
1.73389
1.73382
1.734
1.73403
1.734
1.73389
1.73392
1.7339
1.73385
1.7339
1.73387
1.73378
1.73391
1.73389
1.73369
1.73385
1.73388
1.73374
1.73386
1.73387
1.73369
1.73393
1.73385
1.73384
1.73384
1.73388
1.73381
1.73374
1.7336
1.73407
1.7338
1.73391
1.73371
1.73383
1.73375
1.73385
1.73388
1.73406
1.73351
1.73387
1.73358
1.73399
1.7339
1.73372
1.73435
1.73327
1.7335
1.734
1.73391
1.73379
1.7342
1.73335
1.73367
1.7337
1.73403
1.73413
1.73337
1.73389
1.73355
1.73383
1.73393
1.73393
1.73382
1.73348
1.73343
1.73379
1.73391
1.73393
1.73381
1.73348
1.73367
1.7339
1.734
1.73416
1.73406
1.73386
1.734
1.73423
1.73433
1.7345
1.73441
1.73418
1.73438
1.73461
1.73469
1.73483
1.73473
1.73448
1.73468
1.73495
1.73505
1.73528
1.7352
1.73495
1.73513
1.73539
1.73548
1.73565
1.73555
1.73527
1.73552
1.7358
1.73588
1.73612
1.73605
1.73578
1.73598
1.73626
1.73632
1.73653
1.73648
1.73621
1.73644
1.7367
1.73669
1.73694
1.73683
1.73663
1.73725
1.73742
1.73747
1.73772
1.73775
1.73757
1.73779
1.73796
1.73794
1.73818
1.73821
1.73801
1.73839
1.73861
1.73853
1.73889
1.73901
1.73869
1.73911
1.73946
1.73928
1.73971
1.73994
1.73949
1.73993
1.74048
1.74017
1.74064
1.74105
1.74038
1.7408
1.74149
1.74101
1.74151
1.7422
1.74122
1.74173
1.74284
1.74188
1.74254
1.74333
1.74231
1.74286
1.74371
1.74321
1.74359
1.74408
1.74333
1.74376
1.74465
1.74431
1.74451
1.74511
1.74421
1.74473
1.74569
1.74502
1.74527
1.74619
1.74535
1.74603
1.74647
1.74551
1.74561
1.7466
1.74676
1.74741
1.74678
1.74574
1.74589
1.74695
1.74806
1.74845
1.74676
1.74574
1.74505
1.74619
1.74829
1.74804
1.74568
1.74487
1.74403
1.74481
1.74745
1.74619
1.74354
1.74295
1.74236
1.74249
1.74431
1.74205
1.74059
1.7405
1.73877
1.73856
1.7389
1.73582
1.73667
1.73653
1.73408
1.73425
1.73224
1.72882
1.73228
1.73214
1.73017
1.73036
1.72501
1.72076
1.72809
1.72784
1.72619
1.72648
1.71564
1.70983
1.7244
1.72419
1.72301
1.72234
1.70379
1.69941
1.71964
1.72023
1.71801
1.71607
1.6943
1.69052
1.71262
1.71521
1.71174
1.70912
1.68788
1.68699
1.70613
1.70947
1.70652
1.70327
1.68605
1.68672
1.70148
1.70484
1.70393
1.7
1.68738
1.68831
1.69824
1.70199
1.7018
1.69804
1.68943
1.69044
1.69748
1.70165
1.70063
1.69693
1.69153
1.69242
1.69801
1.7016
1.70193
1.69858
1.69345
1.694
1.69954
1.70273
1.70296
1.69964
1.69456
1.69514
1.69927
1.70234
1.70205
1.69887
1.69595
1.6969
1.70001
1.70325
1.70356
1.70054
1.69749
1.69809
1.70054
1.70318
1.70442
1.70174
1.69889
1.69941
1.70212
1.70454
1.70416
1.70189
1.69981
1.70053
1.70208
1.70403
1.70541
1.70338
1.70138
1.70167
1.70332
1.70529
1.70389
1.70212
1.70151
1.70391
1.70362
1.70541
1.70558
1.7042
1.70386
1.70446
1.70418
1.70495
1.7066
1.70098
1.70428
1.7052
1.7075
1.70778
1.70749
1.70803
1.70329
1.70457
1.70644
1.70694
1.70847
1.70819
1.70756
1.70723
1.70763
1.7082
1.70778
1.70747
1.70715
1.70484
1.71036
1.7073
1.70873
1.71032
1.70827
1.71018
1.70825
1.70891
1.70773
1.71354
1.70543
1.70957
1.71125
1.70999
1.70976
1.71008
1.70988
1.70949
1.70796
1.70938
1.71105
1.71029
1.71046
1.70884
1.70989
1.71035
1.70929
1.70839
1.70892
1.71015
1.71027
1.71073
1.71069
1.71043
1.70997
1.71056
1.70964
1.71031
1.71154
1.70611
1.7116
1.71053
1.71185
1.71193
1.71174
1.71199
1.70873
1.70664
1.71197
1.71154
1.71115
1.71327
1.70927
1.70986
1.71027
1.71114
1.71037
1.7141
1.7069
1.70992
1.71284
1.71067
1.71055
1.71065
1.71181
1.70734
1.71408
1.70962
1.71047
1.71362
1.70997
1.7111
1.71112
1.71131
1.71039
1.71372
1.70797
1.71186
1.71169
1.71139
1.71071
1.7121
1.70912
1.72169
1.69889
1.71146
1.71699
1.6936
1.72752
1.73419
1.69176
1.71209
1.71163
1.70491
1.71528
1.7124
1.70769
1.71025
1.70991
1.70823
1.71155
1.71151
1.7111
1.71098
1.71103
1.7109
1.71049
1.70818
1.71098
1.71004
1.71078
1.71155
1.70977
1.71065
1.70922
1.71056
1.70888
1.71673
1.70151
1.707
1.71418
1.70979
1.70979
1.71016
1.70876
1.7039
1.71273
1.70861
1.71131
1.70635
1.71228
1.71307
1.70322
1.70973
1.71036
1.70827
1.71028
1.70889
1.70886
1.70955
1.70876
1.70853
1.70791
1.70865
1.70956
1.70929
1.70825
1.70847
1.7076
1.70853
1.70701
1.70769
1.70631
1.71462
1.70386
1.70067
1.71563
1.70668
1.70761
1.70966
1.70744
1.70679
1.70774
1.70739
1.70624
1.70583
1.70652
1.70731
1.70689
1.70745
1.70702
1.70612
1.70692
1.70373
1.70655
1.70604
1.7097
1.69941
1.71186
1.71434
1.69668
1.7066
1.70677
1.70329
1.70789
1.70455
1.70453
1.7058
1.70485
1.70043
1.7074
1.70727
1.70302
1.70609
1.70499
1.70186
1.70596
1.70376
1.70446
1.70454
1.70377
1.70328
1.703
1.70277
1.70237
1.70281
1.70361
1.70358
1.70363
1.70231
1.70374
1.70314
1.70278
1.69921
1.70678
1.70781
1.69859
1.70446
1.70345
1.69563
1.70787
1.70314
1.70107
1.70277
1.70174
1.70111
1.70139
1.70151
1.70019
1.70094
1.70137
1.70057
1.70182
1.70107
1.70104
1.70097
1.70064
1.70119
1.7009
1.70008
1.69969
1.69988
1.69887
1.69924
1.69861
1.69904
1.69984
1.69932
1.69866
1.69918
1.69782
1.69869
1.69935
1.69895
1.69853
1.69815
1.69799
1.69655
1.69694
1.69719
1.69793
1.69821
1.69733
1.69557
1.69685
1.69685
1.6971
1.69729
1.69629
1.69484
1.69567
1.69631
1.69445
1.69392
1.69329
1.69455
1.69553
1.69569
1.69478
1.69429
1.69356
1.69438
1.69528
1.69519
1.69453
1.69402
1.69325
1.69231
1.69282
1.69319
1.69395
1.69392
1.69326
1.69181
1.69248
1.6929
1.69314
1.69321
1.69239
1.69111
1.6918
1.69232
1.69066
1.69032
1.68989
1.6906
1.69142
1.69152
1.6904
1.68995
1.68926
1.69002
1.69086
1.69081
1.69001
1.68948
1.68872
1.68749
1.68801
1.6884
1.68924
1.68915
1.68831
1.68707
1.68771
1.68813
1.68841
1.68841
1.68744
1.68615
1.68696
1.68752
1.68568
1.68519
1.68467
1.68553
1.6865
1.68667
1.68552
1.68501
1.68429
1.68486
1.68588
1.68589
1.685
1.68437
1.68345
1.68216
1.68279
1.68324
1.68426
1.68417
1.68325
1.68177
1.68256
1.68305
1.68325
1.68322
1.68215
1.68086
1.68175
1.68235
1.6804
1.67991
1.67929
1.68042
1.68137
1.6815
1.68017
1.6796
1.67876
1.67945
1.68051
1.68049
1.67954
1.67891
1.67795
1.67609
1.67684
1.67741
1.67858
1.67847
1.67751
1.67584
1.67668
1.67726
1.67757
1.67762
1.67655
1.67493
1.67589
1.67652
1.67443
1.674
1.67333
1.67431
1.67538
1.67552
1.67417
1.67362
1.67275
1.67298
1.67422
1.67433
1.67329
1.67252
1.67141
1.66982
1.67056
1.67118
1.67236
1.67216
1.67097
1.66952
1.67042
1.67103
1.67132
1.67135
1.6701
1.66841
1.66948
1.67016
1.66772
1.66718
1.6664
1.66735
1.66859
1.66879
1.6672
1.66654
1.66541
1.66621
1.66753
1.66759
1.6666
1.66581
1.66464
1.66276
1.66355
1.66419
1.66541
1.66525
1.66402
1.66218
1.66324
1.66388
1.66399
1.66397
1.66265
1.66085
1.66208
1.66275
1.65969
1.65882
1.6578
1.65944
1.66077
1.66105
1.6596
1.65889
1.65784
1.65869
1.66009
1.66013
1.65896
1.65814
1.6568
1.65472
1.6556
1.65628
1.65752
1.65738
1.65604
1.65396
1.65519
1.65581
1.65557
1.65539
1.65391
1.65127
1.65306
1.65407
1.65137
1.65032
1.64917
1.65141
1.6528
1.65294
1.65213
1.65117
1.64982
1.64715
1.64804
1.649
1.65034
1.65009
1.64858
1.64636
1.64768
1.64848
1.64826
1.64812
1.64653
1.64369
1.64555
1.64657
1.64309
1.6419
1.64061
1.6427
1.64435
1.64473
1.64305
1.6422
1.64093
1.64176
1.64351
1.64359
1.6421
1.64117
1.63959
1.63709
1.63821
1.63906
1.63996
1.63985
1.63845
1.63595
1.63763
1.63862
1.63429
1.63295
1.63159
1.63323
1.63505
1.63559
1.63376
1.63269
1.63123
1.63267
1.63448
1.63459
1.6334
1.63224
1.63055
1.62757
1.62875
1.62981
1.63081
1.63067
1.62903
1.6266
1.62816
1.62933
1.62474
1.62369
1.62242
1.62241
1.62483
1.6256
1.62312
1.62174
1.61986
1.62185
1.62416
1.62444
1.6234
1.6222
1.62011
1.61689
1.61814
1.61955
1.62057
1.62032
1.61838
1.61608
1.61783
1.61905
1.61421
1.61304
1.61196
1.6096
1.61264
1.61397
1.61142
1.60974
1.60761
1.61007
1.61256
1.61284
1.6119
1.6106
1.60823
1.60511
1.60652
1.60783
1.6089
1.60861
1.60642
1.60343
1.6057
1.60664
1.60203
1.60068
1.59924
1.5964
1.59966
1.60118
1.59974
1.5979
1.59451
1.59261
1.59447
1.59628
1.59828
1.59797
1.59547
1.59296
1.59527
1.59693
1.59166
1.59021
1.58858
1.5893
1.59147
1.59216
1.58962
1.58778
1.58437
1.57667
1.57961
1.58264
1.58498
1.58413
1.58127
1.57925
1.5823
1.58413
1.57957
1.57789
1.57606
1.57772
1.58033
1.58085
1.57885
1.57684
1.57393
1.56832
1.57003
1.57186
1.56991
1.56744
1.56297
1.56076
1.56546
1.56791
1.56395
1.56157
1.55911
1.56246
1.5658
1.56639
1.56512
1.56296
1.55971
1.55452
1.5566
1.5585
1.55753
1.55656
1.5539
1.54264
1.54906
1.55254
1.54633
1.54301
1.53926
1.54522
1.54884
1.54959
1.54913
1.54702
1.54321
1.53845
1.54067
1.54282
1.54167
1.54096
1.53802
1.52757
1.53356
1.53639
1.53038
1.52656
1.51991
1.5192
1.5229
1.52585
1.52881
1.52809
1.52421
1.52107
1.52559
1.52803
1.52153
1.51939
1.51567
1.4966
1.50262
1.50798
1.5106
1.5079
1.50253
1.50191
1.50759
1.51018
1.50734
1.50447
1.49936
1.49303
1.49593
1.49938
1.49411
1.48923
1.48088
1.47701
1.48577
1.49063
1.48792
1.48394
1.47665
1.47399
1.47851
1.48225
1.48105
1.47837
1.47181
1.45553
1.4687
1.47466
1.47039
1.46553
1.45526
1.45736
1.46502
1.46833
1.4636
1.45807
1.44787
1.4313
1.44087
1.44914
1.45676
1.45336
1.44569
1.44423
1.45363
1.45889
1.45397
1.44584
1.43061
1.43457
1.44677
1.45236
1.45133
1.44373
1.42826
1.43083
1.44553
1.45182
1.45829
1.45163
1.43725
1.44787
1.46152
1.46824
1.47853
1.47188
1.45991
1.4668
1.47835
1.48576
1.49123
1.48348
1.47286
1.47683
1.4869
1.49531
1.49897
1.49056
1.48137
1.48466
1.4931
1.50192
1.50459
1.49601
1.48828
1.49108
1.498
1.50677
1.5088
1.5004
1.49403
1.49648
1.50212
1.51049
1.51212
1.50415
1.49899
1.50117
1.50573
1.5135
1.51482
1.50747
1.50331
1.50526
1.50894
1.51598
1.51709
1.51046
1.5071
1.50884
1.51183
1.5181
1.51903
1.51316
1.51043
1.51199
1.51444
1.51997
1.52079
1.51563
1.51338
1.5148
1.51684
1.5217
1.52241
1.51789
1.51603
1.51735
1.51902
1.52331
1.52396
1.51998
1.51846
1.51967
1.52106
1.52485
1.52545
1.52193
1.52068
1.5218
1.52295
1.52635
1.52691
1.52378
1.52272
1.52376
1.52474
1.52781
1.52834
1.52551
1.5246
1.52556
1.52642
1.52921
1.52978
1.52715
1.52634
1.52724
1.52802
1.5306
1.53116
1.5287
1.52794
1.52878
1.52951
1.53193
1.53248
1.53017
1.52943
1.53022
1.53095
1.53323
1.53375
1.53156
1.53083
1.53156
1.53229
1.53444
1.53494
1.53286
1.53212
1.53282
1.53357
1.53561
1.53608
1.5341
1.53334
1.53399
1.53476
1.5367
1.53715
1.53526
1.53448
1.53511
1.5359
1.53775
1.53816
1.53638
1.53558
1.53616
1.53698
1.53873
1.5391
1.53743
1.53661
1.53717
1.538
1.53967
1.53999
1.53843
1.5376
1.53811
1.53895
1.54055
1.54084
1.53936
1.53852
1.53902
1.53987
1.54138
1.54165
1.54025
1.53941
1.53987
1.54072
1.54215
1.54241
1.54107
1.54023
1.54068
1.54153
1.54288
1.54312
1.54187
1.54103
1.54144
1.54228
1.54355
1.54379
1.5426
1.54177
1.54217
1.543
1.5442
1.54441
1.5433
1.54249
1.54286
1.54367
1.5448
1.545
1.54396
1.54317
1.54352
1.54431
1.54537
1.54555
1.54458
1.54381
1.54415
1.54491
1.54591
1.54608
1.54516
1.54442
1.54474
1.54548
1.54641
1.54656
1.54571
1.545
1.54529
1.546
1.54688
1.54703
1.54622
1.54553
1.54582
1.5465
1.54733
1.54745
1.5467
1.54604
1.54631
1.54696
1.54774
1.54786
1.54715
1.54652
1.54678
1.5474
1.54814
1.54824
1.54757
1.54697
1.54721
1.54781
1.5485
1.54861
1.54797
1.54739
1.54763
1.54819
1.54886
1.54894
1.54834
1.54779
1.54801
1.54855
1.54918
1.54926
1.54869
1.54816
1.54837
1.54889
1.54949
1.54956
1.54902
1.54851
1.54871
1.5492
1.54978
1.54985
1.54932
1.54884
1.54903
1.54951
1.55005
1.55011
1.54961
1.54914
1.54932
1.54978
1.55031
1.55037
1.54988
1.54943
1.54961
1.55005
1.55055
1.5506
1.55014
1.5497
1.54987
1.55029
1.55078
1.55083
1.55038
1.54995
1.55012
1.55053
1.55099
1.55104
1.5506
1.5502
1.55035
1.55075
1.5512
1.55124
1.55082
1.55042
1.55057
1.55095
1.55139
1.55143
1.55102
1.55063
1.55077
1.55115
1.55158
1.55161
1.55121
1.55083
1.55097
1.55133
1.55175
1.55178
1.55139
1.55102
1.55115
1.55151
1.55191
1.55194
1.55156
1.5512
1.55132
1.55167
1.55207
1.55209
1.55172
1.55137
1.55149
1.55183
1.55222
1.55223
1.55187
1.55153
1.55164
1.55198
1.55235
1.55237
1.55202
1.55168
1.55179
1.55211
1.55249
1.5525
1.55215
1.55182
1.55193
1.55225
1.55261
1.55262
1.55228
1.55196
1.55206
1.55237
1.55273
1.55273
1.5524
1.55208
1.55218
1.55249
1.55284
1.55284
1.55252
1.55221
1.5523
1.5526
1.55294
1.55295
1.55262
1.55232
1.55241
1.55271
1.55304
1.55304
1.55273
1.55243
1.55251
1.5528
1.55314
1.55314
1.55282
1.55253
1.55262
1.5529
1.55322
1.55322
1.55292
1.55263
1.55271
1.55299
1.55331
1.55331
1.553
1.55272
1.5528
1.55308
1.55339
1.55339
1.55309
1.55281
1.55288
1.55315
1.55347
1.55346
1.55316
1.55289
1.55296
1.55323
1.55354
1.55353
1.55324
1.55297
1.55304
1.5533
1.55361
1.5536
1.55331
1.55304
1.55311
1.55337
1.55367
1.55366
1.55338
1.55311
1.55318
1.55344
1.55373
1.55372
1.55344
1.55318
1.55325
1.5535
1.55379
1.55378
1.5535
1.55324
1.55331
1.55356
1.55385
1.55383
1.55356
1.5533
1.55337
1.55361
1.55389
1.55388
1.55361
1.55336
1.55342
1.55366
1.55395
1.55393
1.55366
1.55341
1.55348
1.55372
1.55399
1.55398
1.55371
1.55347
1.55353
1.55376
1.55404
1.55402
1.55376
1.55351
1.55357
1.55381
1.55408
1.55406
1.5538
1.55356
1.55362
1.55385
1.55412
1.5541
1.55384
1.5536
1.55366
1.55389
1.55415
1.55414
1.55388
1.55364
1.5537
1.55392
1.55419
1.55417
1.55391
1.55368
1.55373
1.55396
1.55422
1.5542
1.55395
1.55371
1.55376
1.55399
1.55425
1.55423
1.55397
1.55374
1.55379
1.55401
1.55427
1.55425
1.554
1.55377
1.55382
1.55404
1.5543
1.55427
1.55402
1.55379
1.55384
1.55406
1.55431
1.55429
1.55404
1.55381
1.55386
1.55407
1.55433
1.5543
1.55405
1.55383
1.55387
1.55409
1.55434
1.55431
1.55407
1.55384
1.55388
1.5541
1.55435
1.55432
1.55407
1.55385
1.55389
1.5541
1.55435
1.55432
1.55408
1.55386
1.5539
1.55411
1.55436
1.55432
1.55408
1.55386
1.5539
1.55411
1.55435
1.55432
1.55408
1.55387
1.5539
1.55411
1.55436
1.55432
1.55408
1.55386
1.5539
1.5541
1.55435
1.55431
1.55408
1.55386
1.55389
1.55409
1.55434
1.55429
1.55406
1.55384
1.55388
1.55407
1.55433
1.55427
1.55403
1.55382
1.55383
1.55404
1.5543
1.55423
1.55399
1.55377
1.55379
1.55401
1.55426
1.5542
1.55394
1.5537
1.55374
1.55399
1.55428
1.55428
1.55397
1.55373
1.55421
1.55449
1.55491
1.55568
1.55533
1.55511
1.55635
1.55631
1.55645
1.55644
1.55634
1.55661
1.5571
1.56021
1.56156
1.5634
1.56579
1.56602
1.5661
1.56746
1.56849
1.56915
1.5696
1.57004
1.57041
1.57071
1.57095
1.57114
1.57128
1.57138
1.57145
1.5715
1.57154
1.57157
1.57158
1.57159
1.5716
1.5716
1.57159
1.57158
1.57157
1.57156
1.57156
1.57162
1.57165
1.57169
1.57174
1.5718
1.57186
1.57194
1.57204
1.57216
1.5723
1.57246
1.57265
1.57287
1.57311
1.57336
1.57359
1.57377
1.57386
1.57391
1.57396
1.57405
1.57416
1.57429
1.57443
1.57458
1.57474
1.57491
1.5751
1.57531
1.57554
1.5758
1.5761
1.57645
1.57684
1.5773
1.57781
1.5784
1.57906
1.57981
1.58066
1.5816
1.58265
1.58382
1.58512
1.58654
1.58809
1.58979
1.59162
1.59359
1.59569
1.59793
1.60029
1.60277
1.60535
1.60803
1.61079
1.61361
1.61649
1.6194
1.62234
1.62529
1.62824
1.63117
1.63407
1.63694
1.63977
1.64254
1.64525
1.64791
1.65049
1.653
1.65544
1.65781
1.66009
1.6623
1.66444
1.6665
1.66848
1.67038
1.67222
1.67398
1.67567
1.6773
1.67886
1.68035
1.68179
1.68316
1.68448
1.68574
1.68695
1.6881
1.68921
1.69027
1.69128
1.69225
1.69318
1.69407
1.69493
1.69574
1.69652
1.69727
1.69798
1.69866
1.69931
1.69994
1.70053
1.7011
1.70164
1.70216
1.70266
1.70313
1.70359
1.70402
1.70443
1.70482
1.7052
1.70556
1.7059
1.70622
1.70653
1.70683
1.70711
1.70737
1.70762
1.70786
1.70809
1.7083
1.7085
1.70869
1.70887
1.70904
1.7092
1.70934
1.70948
1.70961
1.70972
1.70983
1.70992
1.71
1.71008
1.71016
1.71025
1.71039
1.71059
1.71072
1.71076
1.71077
1.71077
1.71077
1.71076
1.71076
1.71086
1.71108
1.71121
1.71127
1.71133
1.71141
1.71148
1.71156
1.71165
1.71174
1.71184
1.71194
1.71205
1.71216
1.71228
1.71241
1.71254
1.71267
1.71281
1.71295
1.7131
1.71325
1.7134
1.71355
1.71371
1.71386
1.71402
1.71418
1.71434
1.7145
1.71466
1.71481
1.71497
1.71512
1.71528
1.71543
1.71557
1.71572
1.71585
1.71599
1.71612
1.71624
1.71636
1.71648
1.71658
1.71669
1.71678
1.71688
1.71696
1.71705
1.71714
1.71723
1.71729
1.7173
1.71731
1.71738
1.71762
1.71783
1.71792
1.71795
1.71786
1.71778
1.71771
1.71764
1.71759
1.71754
1.7175
1.71747
1.71745
1.71743
1.71741
1.71741
1.71741
1.71741
1.71742
1.71743
1.71745
1.71747
1.7175
1.71753
1.71756
1.7176
1.71765
1.7177
1.71775
1.7178
1.71786
1.71793
1.71799
1.71807
1.71814
1.71822
1.7183
1.71839
1.71848
1.71857
1.71867
1.71878
1.71888
1.71899
1.71911
1.71923
1.71935
1.71948
1.71962
1.71976
1.71991
1.72006
1.72021
1.72036
1.72053
1.72069
1.72087
1.72104
1.72122
1.7214
1.72159
1.72178
1.72198
1.72219
1.72241
1.72263
1.72287
1.72311
1.72337
1.72361
1.72385
1.72409
1.72434
1.72459
1.72486
1.72511
1.72536
1.72562
1.72591
1.72621
1.72651
1.72679
1.72712
1.72745
1.72781
1.7281
1.72834
1.72859
1.72892
1.72926
1.72961
1.72987
1.73009
1.73031
1.73056
1.73082
1.731
1.73118
1.73139
1.73166
1.73189
1.7321
1.73229
1.7325
1.73267
1.7328
1.73291
1.73302
1.73314
1.73326
1.73334
1.73338
1.73335
1.73341
1.73346
1.73352
1.73348
1.7334
1.73341
1.73343
1.73359
1.73361
1.73365
1.73357
1.73349
1.7334
1.73342
1.7334
1.73348
1.73351
1.73352
1.73356
1.73348
1.73342
1.73334
1.73343
1.73349
1.73351
1.73358
1.73358
1.73363
1.73369
1.73384
1.73385
1.73379
1.73362
1.73342
1.73337
1.73335
1.73347
1.73356
1.73347
1.73349
1.73353
1.73351
1.73364
1.73367
1.73376
1.73366
1.73366
1.73379
1.73373
1.7336
1.73352
1.73347
1.73354
1.7336
1.73353
1.7335
1.73353
1.73353
1.7335
1.73352
1.73352
1.73354
1.73355
1.73349
1.73345
1.73352
1.73349
1.73338
1.73333
1.73344
1.7335
1.73351
1.73348
1.7334
1.73353
1.73351
1.73355
1.73358
1.73357
1.73353
1.73356
1.73353
1.73354
1.73351
1.73347
1.73351
1.73349
1.73338
1.73338
1.73346
1.7335
1.73351
1.73345
1.73338
1.73341
1.73339
1.73343
1.73349
1.73355
1.73343
1.73352
1.7335
1.73347
1.73356
1.73353
1.73349
1.73353
1.73347
1.73341
1.73351
1.73347
1.73347
1.7335
1.73342
1.73341
1.73341
1.73341
1.73345
1.73342
1.73337
1.73347
1.73347
1.73341
1.73342
1.73337
1.73341
1.73343
1.73339
1.73332
1.73335
1.73343
1.73337
1.73331
1.73325
1.73313
1.73319
1.73313
1.73303
1.73294
1.73303
1.73325
1.73306
1.73297
1.73286
1.73276
1.73286
1.73274
1.73264
1.73246
1.73255
1.73277
1.73243
1.73238
1.73227
1.73208
1.73216
1.73198
1.73184
1.73162
1.73175
1.73206
1.73167
1.73156
1.73137
1.73117
1.73131
1.73113
1.73095
1.73073
1.73089
1.73124
1.73076
1.73071
1.7305
1.73028
1.73043
1.7302
1.73002
1.72973
1.72987
1.73023
1.72966
1.72962
1.7294
1.72909
1.72926
1.72902
1.72879
1.72851
1.72866
1.72906
1.72844
1.72842
1.72823
1.72793
1.72806
1.72781
1.7276
1.72729
1.72744
1.72782
1.72722
1.72719
1.72697
1.72668
1.72683
1.72659
1.72638
1.72608
1.72624
1.72664
1.72607
1.72602
1.7258
1.72552
1.72568
1.72546
1.72526
1.72499
1.72514
1.72553
1.72501
1.72494
1.72473
1.72448
1.72463
1.72444
1.72424
1.72399
1.72413
1.7245
1.724
1.72394
1.72375
1.72349
1.72363
1.72345
1.72325
1.72301
1.72315
1.72352
1.72305
1.72298
1.72278
1.72255
1.72269
1.72253
1.72234
1.72213
1.72227
1.72262
1.72221
1.72212
1.72194
1.72173
1.72187
1.72173
1.72155
1.72136
1.72149
1.72183
1.72147
1.72137
1.72119
1.721
1.72114
1.72102
1.72084
1.72067
1.7208
1.72112
1.7208
1.72069
1.72052
1.72035
1.72049
1.72038
1.72021
1.72005
1.72019
1.72049
1.7202
1.72009
1.71992
1.71977
1.7199
1.71982
1.71965
1.71951
1.71964
1.71992
1.71967
1.71956
1.7194
1.71927
1.7194
1.71932
1.71916
1.71904
1.71917
1.71943
1.71921
1.7191
1.71894
1.71883
1.71895
1.71889
1.71874
1.71864
1.71876
1.719
1.71881
1.7187
1.71856
1.71846
1.71858
1.71853
1.71838
1.7183
1.71841
1.71863
1.71847
1.71836
1.71823
1.71815
1.71826
1.71822
1.71809
1.71801
1.71812
1.71832
1.71818
1.71809
1.71796
1.7179
1.718
1.71797
1.71785
1.71779
1.71789
1.71806
1.71796
1.71787
1.71775
1.7177
1.7178
1.71778
1.71767
1.71763
1.71772
1.71786
1.71779
1.71771
1.71761
1.71758
1.71766
1.71765
1.71756
1.71754
1.71761
1.71772
1.71767
1.71761
1.71753
1.71752
1.71758
1.71758
1.71752
1.71752
1.71757
1.71764
1.71762
1.71758
1.71753
1.71754
1.71758
1.7176
1.71756
1.71758
1.71761
1.71763
1.71764
1.71763
1.71761
1.71764
1.71765
1.71769
1.71769
1.71774
1.71772
1.71766
1.71767
1.71776
1.71779
1.71785
1.7178
1.71747
1.71756
1.71761
1.71763
1.71766
1.71769
1.71774
1.7178
1.71788
1.71796
1.71806
1.71817
1.7183
1.71844
1.7186
1.71877
1.71895
1.71914
1.71935
1.71958
1.71982
1.72008
1.72035
1.72065
1.72096
1.72128
1.72163
1.72199
1.72237
1.72277
1.7232
1.72366
1.72414
1.72463
1.72514
1.72566
1.7262
1.72676
1.72733
1.72793
1.72855
1.72918
1.72981
1.73041
1.73099
1.73151
1.73197
1.73236
1.73271
1.73301
1.73328
1.73348
1.73359
1.73363
1.73363
1.73361
1.7336
1.73362
1.73363
1.73367
1.73367
1.73366
1.73365
1.73365
1.73361
1.73358
1.73355
1.73354
1.73348
1.73347
1.7335
1.73353
1.73346
1.73346
1.73351
1.73346
1.73345
1.73352
1.73351
1.7335
1.73349
1.73352
1.73357
1.73356
1.73355
1.73355
1.73355
1.73361
1.7336
1.73361
1.73361
1.73362
1.73368
1.73367
1.73365
1.73366
1.73367
1.73371
1.73369
1.73369
1.7337
1.73373
1.73373
1.73371
1.7337
1.7337
1.73371
1.73366
1.73364
1.73353
1.7335
1.73355
1.7335
1.73349
1.73331
1.73332
1.73323
1.73327
1.73318
1.73334
1.73331
1.73313
1.73319
1.73347
1.73368
1.73372
1.73375
1.73376
1.73365
1.73344
1.73318
1.73334
1.73341
1.73366
1.73375
1.73375
1.73375
1.73376
1.73374
1.73369
1.73363
1.73356
1.73349
1.73353
1.7336
1.73365
1.7337
1.73373
1.73366
1.7336
1.73355
1.73358
1.73362
1.73366
1.73362
1.73367
1.73373
1.73378
1.73372
1.73369
1.73376
1.73378
1.73383
1.73389
1.73385
1.73379
1.73372
1.73374
1.73381
1.73385
1.73377
1.73379
1.73388
1.73395
1.73391
1.73387
1.73392
1.73396
1.73401
1.73406
1.73399
1.7339
1.7338
1.73379
1.73393
1.73396
1.73379
1.7338
1.734
1.73419
1.7341
1.73403
1.73413
1.73423
1.73436
1.7345
1.73432
1.7342
1.73411
1.73404
1.73399
1.73394
1.7339
1.73386
1.73383
1.73382
1.73379
1.73375
1.73376
1.73375
1.73374
1.73368
1.73366
1.73369
1.73379
1.73382
1.73382
1.73387
1.7339
1.73391
1.73389
1.73389
1.73388
1.73387
1.73387
1.73385
1.73384
1.73376
1.73372
1.73366
1.73366
1.73362
1.73367
1.73365
1.7337
1.73369
1.73351
1.73352
1.73354
1.7335
1.73352
1.73351
1.73355
1.73356
1.73364
1.73372
1.73377
1.73385
1.73387
1.73385
1.73381
1.7339
1.73392
1.73387
1.73388
1.73394
1.73392
1.7339
1.73394
1.73395
1.73394
1.73394
1.73388
1.73389
1.73388
1.73386
1.73388
1.73389
1.73392
1.73398
1.73402
1.73406
1.73401
1.73401
1.73399
1.73399
1.73395
1.73393
1.7339
1.73386
1.73375
1.73371
1.73377
1.73377
1.73385
1.73387
1.73391
1.73392
1.73397
1.73399
1.73396
1.73391
1.73386
1.73378
1.73373
1.73367
1.73367
1.73365
1.73371
1.73379
1.73378
1.73375
1.73371
1.73379
1.73387
1.73393
1.73397
1.73393
1.73386
1.73381
1.73387
1.73387
1.73392
1.73396
1.73398
1.73398
1.73399
1.73402
1.73405
1.73406
1.73412
1.73421
1.73433
1.73456
1.73441
1.73432
1.7342
1.73418
1.73413
1.73412
1.7341
1.73405
1.73399
1.73394
1.73395
1.73393
1.73395
1.73393
1.73395
1.73393
1.73385
1.73389
1.73385
1.73382
1.73385
1.73383
1.73387
1.73387
1.73393
1.73395
1.73402
1.73406
1.73408
1.73403
1.734
1.73405
1.7341
1.73413
1.73415
1.7341
1.7341
1.73407
1.73406
1.73404
1.7341
1.73409
1.73417
1.73425
1.73439
1.73463
1.73466
1.73484
1.7349
1.73474
1.73451
1.73428
1.73404
1.73382
1.73386
1.7341
1.73418
1.73388
1.73388
1.73421
1.73468
1.73453
1.73439
1.7347
1.73495
1.73526
1.73542
1.73473
1.73421
1.73381
1.73366
1.73412
1.73393
1.73344
1.73315
1.7336
1.73403
1.73447
1.7347
1.73539
1.73507
1.7345
1.73373
1.73344
1.73314
1.73279
1.73234
1.73258
1.73194
1.7318
1.73119
1.73124
1.73121
1.73199
1.73274
1.73288
1.73199
1.73111
1.73026
1.73043
1.73053
1.73054
1.72988
1.72982
1.72913
1.72923
1.72858
1.72847
1.72828
1.72896
1.72968
1.72946
1.72871
1.72802
1.72766
1.72836
1.72913
1.72998
1.7309
1.73191
1.73298
1.73411
1.73517
1.7359
1.73628
1.73632
1.73599
1.73546
1.73505
1.73535
1.73594
1.73664
1.73697
1.73656
1.7361
1.7358
1.73541
1.73518
1.73522
1.7349
1.73478
1.73467
1.73448
1.73438
1.73423
1.73417
1.7341
1.7341
1.73402
1.73403
1.73402
1.73406
1.73414
1.73428
1.73443
1.7346
1.73477
1.73493
1.73498
1.73512
1.73535
1.73534
1.73512
1.73553
1.73549
1.73556
1.73592
1.73587
1.73572
1.73572
1.73592
1.73615
1.73611
1.73627
1.73632
1.73679
1.73732
1.73783
1.73741
1.73789
1.7373
1.73743
1.73701
1.73623
1.73774
1.73763
1.7387
1.73868
1.73864
1.73824
1.73888
1.73839
1.73857
1.73826
1.73792
1.73763
1.73733
1.73703
1.73668
1.7365
1.73651
1.73633
1.7367
1.73701
1.73746
1.73774
1.73806
1.73838
1.73847
1.73814
1.73788
1.73883
1.73873
1.73906
1.73889
1.73919
1.73949
1.73978
1.73943
1.73958
1.73919
1.74
1.74046
1.74014
1.73982
1.73939
1.73984