/*--------------------------------*- C++ -*----------------------------------*\
| =========                 |                                                 |
| \\      /  F ield         | OpenFOAM: The Open Source CFD Toolbox           |
|  \\    /   O peration     | Version:  v2006                                 |
|   \\  /    A nd           | Website:  www.openfoam.com                      |
|    \\/     M anipulation  |                                                 |
\*---------------------------------------------------------------------------*/
FoamFile
{
    version     2.0;
    format      ascii;
    class       volScalarField;
    location    "0.038";
    object      T;
}
// * * * * * * * * * * * * * * * * * * * * * * * * * * * * * * * * * * * * * //

dimensions      [0 0 0 1 0 0 0];


internalField   nonuniform List<scalar> 
11076
(
297.842
297.842
297.842
297.842
297.842
297.842
297.842
297.842
297.842
297.845
297.85
297.856
297.864
297.872
297.88
297.888
297.896
297.904
297.913
297.922
297.931
297.94
297.95
297.96
297.971
297.981
297.992
298.003
298.014
298.025
298.037
298.048
298.06
298.071
298.083
298.095
298.106
298.118
298.129
298.141
298.152
298.164
298.175
298.186
298.196
298.207
298.217
298.227
298.237
298.246
298.255
298.264
298.272
298.281
298.289
298.297
298.304
298.309
298.311
298.311
298.311
298.31
298.309
298.309
298.309
298.31
298.312
298.317
298.324
298.337
298.351
298.407
298.418
298.349
298.33
298.329
298.352
298.438
298.455
298.357
298.329
298.33
298.362
298.467
298.477
298.369
298.334
298.338
298.377
298.484
298.49
298.383
298.343
298.347
298.389
298.494
298.497
298.395
298.353
298.357
298.401
298.5
298.502
298.407
298.363
298.367
298.411
298.503
298.505
298.417
298.373
298.377
298.421
298.506
298.507
298.426
298.382
298.387
298.429
298.508
298.51
298.434
298.392
298.396
298.438
298.51
298.512
298.443
298.402
298.406
298.446
298.513
298.515
298.451
298.411
298.415
298.454
298.516
298.519
298.459
298.421
298.425
298.462
298.52
298.522
298.468
298.431
298.435
298.471
298.524
298.527
298.476
298.441
298.445
298.479
298.529
298.532
298.485
298.452
298.456
298.489
298.535
298.539
298.495
298.462
298.467
298.498
298.541
298.546
298.505
298.474
298.479
298.508
298.548
298.552
298.516
298.486
298.491
298.519
298.555
298.56
298.527
298.499
298.503
298.53
298.563
298.569
298.538
298.512
298.516
298.542
298.572
298.579
298.55
298.525
298.53
298.554
298.582
298.589
298.563
298.539
298.545
298.567
298.592
298.599
298.576
298.554
298.56
298.581
298.603
298.612
298.591
298.57
298.576
298.596
298.617
298.628
298.606
298.586
298.592
298.612
298.634
298.646
298.623
298.603
298.609
298.629
298.653
298.664
298.642
298.621
298.628
298.649
298.669
298.678
298.662
298.642
298.65
298.668
298.682
298.693
298.681
298.664
298.671
298.688
298.7
298.711
298.701
298.685
298.694
298.708
298.713
298.714
298.722
298.712
298.726
298.731
298.714
298.72
298.746
298.742
298.751
298.754
298.733
298.75
298.769
298.764
298.776
298.776
298.755
298.759
298.791
298.794
298.807
298.802
298.766
298.794
298.821
298.82
298.828
298.83
298.812
298.812
298.848
298.847
298.874
298.863
298.802
298.801
298.879
298.896
298.906
298.893
298.823
298.867
298.904
298.911
298.918
298.912
298.876
298.863
298.929
298.943
298.981
298.943
298.84
298.854
298.96
298.995
298.997
298.97
298.907
298.927
298.982
299.002
299.032
298.998
298.905
298.896
299.016
299.066
299.076
299.035
298.927
299.024
299.055
299.073
299.082
299.075
299.032
298.995
299.099
299.124
299.178
299.114
298.919
298.924
299.118
299.189
299.178
299.124
299.003
299.128
299.136
299.153
299.17
299.162
299.123
299.078
299.195
299.228
299.279
299.216
299.019
299.043
299.216
299.277
299.257
299.22
299.135
299.142
299.223
299.256
299.298
299.244
299.101
299.052
299.252
299.333
299.343
299.262
299.07
299.104
299.267
299.34
299.337
299.282
299.182
299.202
299.288
299.338
299.343
299.295
299.213
299.22
299.299
299.345
299.345
299.307
299.255
299.313
299.333
299.354
299.366
299.348
299.333
299.341
299.359
299.373
299.37
299.358
299.343
299.346
299.359
299.37
299.37
299.357
299.34
299.365
299.376
299.386
299.388
299.374
299.356
299.352
299.384
299.401
299.374
299.356
299.326
299.335
299.37
299.39
299.373
299.334
299.277
299.338
299.362
299.388
299.375
299.338
299.304
299.423
299.39
299.395
299.36
299.351
299.36
299.417
299.396
299.39
299.383
299.375
299.351
299.358
299.396
299.409
299.392
299.372
299.336
299.318
299.371
299.405
299.39
299.359
299.319
299.31
299.349
299.389
299.391
299.371
299.364
299.355
299.378
299.399
299.417
299.416
299.42
299.387
299.395
299.4
299.417
299.43
299.458
299.379
299.39
299.401
299.415
299.404
299.401
299.357
299.36
299.379
299.374
299.364
299.388
299.367
299.364
299.379
299.364
299.346
299.339
299.359
299.36
299.371
299.366
299.358
299.355
299.381
299.375
299.374
299.358
299.358
299.355
299.41
299.384
299.369
299.382
299.384
299.382
299.413
299.384
299.38
299.414
299.412
299.385
299.357
299.424
299.436
299.384
299.393
299.423
299.404
299.423
299.409
299.398
299.391
299.387
299.381
299.377
299.373
299.37
299.366
299.363
299.36
299.357
299.355
299.353
299.352
299.351
299.353
299.36
299.372
299.385
299.417
299.422
299.394
299.311
299.139
299.112
299.238
299.402
299.415
299.134
299.124
299.093
299.15
299.388
299.32
299.261
298.976
299.026
299.167
299.35
299.332
299.194
299.008
299.174
299.157
299.38
299.341
299.293
299.256
299.366
299.249
299.388
299.356
299.353
299.323
299.389
299.35
299.375
299.376
299.383
299.395
299.433
299.379
299.385
299.387
299.356
299.428
299.387
299.367
299.364
299.309
299.428
299.274
299.283
299.352
299.32
299.304
299.319
299.292
299.291
299.306
299.304
299.296
299.339
299.279
299.372
299.304
299.331
299.329
299.382
299.443
299.505
299.357
299.36
299.338
299.439
299.46
299.493
299.392
299.353
299.335
299.426
299.447
299.426
299.406
299.34
299.338
299.36
299.403
299.334
299.348
299.328
299.321
299.345
299.291
299.283
299.335
299.326
299.307
299.382
299.256
299.261
299.355
299.321
299.32
299.329
299.279
299.331
299.242
299.347
299.338
299.252
299.311
299.26
299.319
299.309
299.319
299.282
299.282
299.289
299.305
299.304
299.302
299.306
299.301
299.308
299.322
299.303
299.301
299.334
299.309
299.306
299.328
299.31
299.305
299.335
299.293
299.309
299.314
299.312
299.302
299.315
299.327
299.355
299.271
299.32
299.299
299.327
299.312
299.325
299.312
299.306
299.269
299.371
299.303
299.355
299.288
299.301
299.329
299.213
299.405
299.365
299.278
299.295
299.311
299.232
299.384
299.326
299.321
299.265
299.234
299.373
299.275
299.324
299.279
299.263
299.25
299.266
299.322
299.318
299.262
299.246
299.239
299.253
299.304
299.277
299.248
299.236
299.231
299.242
299.272
299.275
299.242
299.229
299.228
299.24
299.275
299.277
299.241
299.229
299.227
299.239
299.277
299.278
299.239
299.227
299.229
299.24
299.281
299.286
299.244
299.231
299.232
299.244
299.287
299.287
299.245
299.234
299.236
299.246
299.289
299.29
299.248
299.241
299.244
299.251
299.289
299.283
299.252
299.254
299.266
299.263
299.273
299.283
299.275
299.276
299.286
299.283
299.294
299.311
299.296
299.296
299.307
299.307
299.318
299.333
299.318
299.317
299.331
299.331
299.343
299.357
299.345
299.346
299.363
299.36
299.37
299.382
299.377
299.381
299.404
299.395
299.387
299.406
299.413
299.425
299.437
299.429
299.419
299.441
299.45
299.457
299.481
299.474
299.456
299.477
299.501
299.512
299.541
299.525
299.495
299.517
299.547
299.557
299.575
299.565
299.538
299.558
299.586
299.59
299.61
299.608
299.581
299.606
299.635
299.637
299.666
299.663
299.635
299.667
299.691
299.695
299.712
299.712
299.699
299.716
299.73
299.729
299.738
299.736
299.739
299.736
299.73
299.725
299.706
299.699
299.701
299.64
299.649
299.657
299.569
299.56
299.532
299.401
299.473
299.501
299.397
299.356
299.235
299.057
299.191
299.227
299.077
299.044
298.846
298.665
298.9
298.942
298.793
298.73
298.395
298.217
298.59
298.633
298.442
298.35
297.918
297.834
298.094
298.258
298.017
297.793
297.702
297.611
297.523
297.797
297.577
297.376
297.644
297.742
297.24
297.349
297.308
297.222
297.892
298.067
297.281
297.289
297.298
297.404
298.256
298.407
297.54
297.314
297.376
297.65
298.526
298.645
297.855
297.486
297.497
297.917
298.713
298.799
298.014
297.556
297.676
298.123
298.827
298.898
298.07
297.658
297.709
298.09
298.89
298.932
298.059
297.713
297.779
298.132
298.941
298.959
298.237
297.893
297.991
298.383
298.976
298.992
298.377
297.998
298.039
298.423
299.002
299.01
298.508
298.152
298.135
298.494
299.017
299.015
298.534
298.193
298.298
298.626
299.009
299.009
298.697
298.392
298.357
298.668
299.006
298.983
298.71
298.386
298.574
298.863
298.972
298.877
298.879
298.53
298.57
298.837
298.913
298.778
298.828
298.735
298.457
299.237
298.983
299.022
298.584
298.496
298.524
298.414
299.28
298.979
298.618
298.529
298.509
298.593
298.698
298.721
298.642
298.533
298.583
298.674
298.745
298.956
298.178
298.606
298.618
298.366
298.68
298.334
298.664
298.529
298.655
297.72
299.059
298.566
298.265
298.471
298.452
298.394
298.442
298.433
298.686
298.437
298.343
298.511
298.49
298.679
298.483
298.396
298.478
298.632
298.548
298.548
298.526
298.408
298.376
298.449
298.557
298.317
298.47
298.385
298.123
298.867
298.263
298.527
298.211
298.171
298.177
298.13
298.731
299.093
297.925
298.101
298.266
297.903
298.655
298.476
298.381
298.213
298.252
297.727
298.836
298.515
298.01
298.367
298.294
298.29
298.094
298.685
297.584
298.324
298.346
297.802
298.46
298.262
298.177
298.134
298.136
297.714
298.48
298.018
298.071
298.12
298.143
297.874
298.447
296.011
300.179
297.846
297.081
301.384
295.169
293.914
301.524
297.791
297.919
299.142
297.266
297.689
298.533
298.065
298.02
298.339
297.735
297.949
298.027
297.979
297.88
297.931
298.017
298.221
297.72
297.889
297.852
297.738
298.047
297.805
298.061
297.807
297.994
296.594
299.339
298.514
297.187
297.946
297.822
297.756
298.043
298.686
297.149
297.851
297.456
298.493
297.21
296.953
298.861
297.628
297.632
298.036
297.672
297.813
297.792
297.655
297.633
297.635
297.815
297.761
297.583
297.616
297.692
297.658
297.821
297.523
297.753
297.659
298.045
296.517
298.608
298.966
296.174
297.815
297.642
297.308
297.723
297.687
297.496
297.56
297.592
297.659
297.543
297.559
297.627
297.502
297.491
297.67
297.562
297.969
297.44
297.501
296.895
298.82
296.475
295.867
299.101
297.285
297.286
297.941
297.092
297.561
297.578
297.338
297.34
298.131
296.883
297.078
297.871
297.245
297.291
297.885
297.132
297.484
297.389
297.341
297.344
297.447
297.495
297.337
297.423
297.338
297.293
297.342
297.314
297.459
297.201
297.284
297.174
297.8
296.526
296.365
298.031
296.926
296.947
298.366
296.168
296.993
297.398
297.058
297.112
297.246
297.19
296.969
297.217
297.071
297.085
297.281
297.016
297.031
297.045
297.026
297.068
297.012
297.055
297.034
297.1
297.052
297.017
296.955
297.07
297.079
296.946
297.011
296.974
296.876
297.119
297.014
296.9
296.94
296.882
296.969
297.022
297.04
296.944
296.901
296.833
296.813
296.981
297.058
296.826
296.842
296.789
296.785
296.961
297.049
296.895
296.775
296.875
296.955
297.079
296.998
296.821
296.756
296.759
296.85
297
296.84
296.681
296.666
296.611
296.702
296.839
296.788
296.682
296.62
296.554
296.589
296.704
296.744
296.627
296.564
296.526
296.545
296.686
296.761
296.625
296.516
296.569
296.634
296.741
296.654
296.512
296.466
296.475
296.545
296.666
296.567
296.42
296.394
296.363
296.463
296.6
296.566
296.458
296.393
296.305
296.349
296.49
296.513
296.39
296.32
296.249
296.279
296.441
296.497
296.342
296.229
296.281
296.362
296.475
296.387
296.225
296.168
296.184
296.27
296.405
296.31
296.135
296.102
296.075
296.189
296.35
296.325
296.196
296.12
296.008
296.059
296.22
296.234
296.093
296.016
295.944
295.976
296.151
296.193
296.024
295.908
295.96
296.041
296.169
296.058
295.891
295.834
295.851
295.936
296.08
295.982
295.801
295.769
295.732
295.85
296.025
296.01
295.872
295.787
295.662
295.72
295.891
295.91
295.765
295.676
295.59
295.619
295.805
295.849
295.676
295.555
295.597
295.669
295.81
295.7
295.519
295.461
295.471
295.556
295.714
295.622
295.425
295.383
295.342
295.477
295.671
295.644
295.501
295.404
295.272
295.337
295.536
295.557
295.391
295.288
295.194
295.23
295.446
295.48
295.282
295.15
295.193
295.277
295.435
295.31
295.102
295.04
295.067
295.156
295.337
295.228
295.012
294.973
294.93
295.078
295.29
295.254
295.095
294.99
294.839
294.909
295.123
295.139
294.952
294.85
294.75
294.794
295.023
295.037
294.803
294.675
294.74
294.845
295.006
294.885
294.665
294.59
294.617
294.73
294.917
294.793
294.551
294.503
294.462
294.615
294.854
294.816
294.636
294.521
294.348
294.419
294.657
294.661
294.445
294.353
294.237
294.292
294.53
294.56
294.29
294.149
294.241
294.383
294.558
294.42
294.178
294.096
294.021
294.217
294.478
294.449
294.273
294.116
293.92
294.012
294.281
294.291
294.055
293.929
293.806
293.866
294.137
294.154
293.854
293.699
293.791
293.94
294.131
293.981
293.711
293.614
293.649
293.787
294.013
293.859
293.559
293.498
293.444
293.624
293.911
293.854
293.624
293.478
293.316
293.392
293.651
293.675
293.375
293.198
293.272
293.426
293.623
293.474
293.191
293.088
293.133
293.293
293.535
293.381
293.069
292.996
292.918
293.141
293.456
293.39
293.154
292.98
292.789
292.875
293.179
293.195
292.896
292.668
292.721
292.848
293.066
292.956
292.595
292.48
292.544
292.726
293.016
292.86
292.468
292.368
292.274
292.511
292.904
292.842
292.596
292.36
292.165
292.272
292.627
292.63
292.279
292.028
292.057
292.236
292.467
292.329
291.922
291.775
291.85
292.071
292.407
292.212
291.796
291.701
291.602
291.85
292.288
292.221
291.931
291.704
291.437
291.554
291.955
291.96
291.536
291.351
291.266
291.47
291.767
291.554
291.163
291.026
290.969
291.216
291.749
291.736
291.407
291.111
290.879
291.017
291.463
291.502
291.06
290.728
290.792
291.032
291.363
291.041
290.649
290.478
290.241
290.482
291.012
291.006
290.678
290.359
290.126
290.292
290.751
290.897
290.357
290.026
290.164
290.462
290.824
290.503
290.019
289.846
289.593
289.965
290.502
290.202
289.859
289.593
289.191
289.39
289.902
290.176
289.447
289.135
289.325
289.72
290.155
289.805
289.217
289.029
288.813
289.222
289.827
289.631
289.203
288.889
288.405
288.58
289.011
289.06
288.384
288.121
288.335
288.712
289.13
288.87
288.263
288.059
287.825
288.216
288.903
288.735
288.311
287.947
287.416
287.576
288.085
287.904
287.275
287.109
286.947
287.306
288.058
288.105
287.605
287.177
286.828
287.066
287.743
287.762
286.922
286.468
286.123
286.464
287.209
287.23
286.623
286.198
285.797
286.113
286.9
287.123
286.106
285.717
285.51
286.074
287.089
286.626
286.051
285.49
284.755
284.999
285.915
286.272
285.1
284.662
284.574
285.14
286.315
286.044
285.265
284.658
283.962
284.184
285.007
285.068
283.907
283.618
283.523
284.034
285.36
285.064
283.853
283.388
283.033
283.737
285.155
285.231
284.296
283.527
283.002
283.445
284.65
284.537
283.298
282.836
282.946
283.627
285.157
285.237
283.629
283.012
283.277
284.155
286.002
286.732
284.728
283.883
284.466
285.514
287.657
289.017
286.712
285.438
286.18
287.531
289.766
290.569
288.365
286.857
287.323
288.852
290.891
291.414
289.476
287.829
288.198
289.829
291.605
291.968
290.338
288.632
288.94
290.596
292.093
292.345
291.007
289.318
289.58
291.197
292.431
292.614
291.527
289.918
290.142
291.674
292.674
292.809
291.933
290.442
290.633
292.044
292.849
292.949
292.243
290.897
291.054
292.325
292.975
293.048
292.477
291.28
291.41
292.536
293.064
293.119
292.652
291.599
291.706
292.694
293.127
293.17
292.782
291.858
291.945
292.811
293.17
293.198
292.88
292.066
292.136
292.898
293.191
293.212
292.95
292.231
292.285
292.959
293.2
293.215
292.999
292.356
292.396
292.996
293.2
293.211
293.027
292.447
292.474
293.016
293.192
293.2
293.04
292.514
292.519
293.022
293.179
293.183
293.038
292.55
292.543
293.014
293.162
293.161
293.025
292.568
292.552
292.996
293.139
293.137
293.002
292.573
292.55
292.97
293.111
293.109
292.972
292.567
292.54
292.938
293.082
293.078
292.937
292.554
292.523
292.903
293.05
293.043
292.898
292.533
292.502
292.864
293.014
293.005
292.856
292.509
292.478
292.818
292.973
292.964
292.81
292.48
292.453
292.772
292.93
292.92
292.763
292.449
292.425
292.725
292.884
292.874
292.715
292.416
292.395
292.677
292.838
292.827
292.667
292.384
292.361
292.629
292.791
292.78
292.619
292.351
292.327
292.582
292.744
292.733
292.572
292.32
292.295
292.535
292.696
292.685
292.526
292.288
292.263
292.49
292.649
292.637
292.48
292.257
292.233
292.445
292.6
292.589
292.436
292.225
292.201
292.402
292.553
292.541
292.393
292.196
292.173
292.359
292.506
292.494
292.351
292.165
292.142
292.318
292.46
292.449
292.311
292.137
292.115
292.279
292.416
292.405
292.272
292.108
292.086
292.242
292.373
292.362
292.235
292.081
292.06
292.206
292.331
292.321
292.199
292.054
292.033
292.171
292.291
292.281
292.165
292.028
292.009
292.138
292.253
292.243
292.132
292.003
291.983
292.106
292.216
292.207
292.101
291.978
291.959
292.076
292.181
292.172
292.071
291.954
291.935
292.046
292.147
292.139
292.042
291.931
291.913
292.018
292.115
292.107
292.014
291.908
291.89
291.991
292.085
292.077
291.988
291.887
291.869
291.966
292.056
292.048
291.963
291.865
291.847
291.941
292.028
292.02
291.938
291.846
291.828
291.917
292.001
291.994
291.915
291.825
291.807
291.895
291.976
291.969
291.893
291.807
291.789
291.873
291.951
291.945
291.871
291.788
291.77
291.852
291.928
291.922
291.851
291.771
291.752
291.831
291.906
291.9
291.831
291.752
291.734
291.812
291.884
291.88
291.812
291.736
291.718
291.793
291.863
291.859
291.793
291.719
291.701
291.775
291.844
291.84
291.776
291.704
291.686
291.757
291.824
291.821
291.758
291.687
291.67
291.74
291.806
291.803
291.742
291.673
291.655
291.724
291.788
291.785
291.725
291.657
291.64
291.708
291.771
291.768
291.71
291.644
291.626
291.692
291.754
291.752
291.694
291.629
291.612
291.677
291.738
291.736
291.68
291.617
291.599
291.662
291.722
291.72
291.665
291.602
291.585
291.648
291.707
291.705
291.651
291.591
291.573
291.634
291.692
291.691
291.637
291.577
291.56
291.621
291.678
291.677
291.624
291.566
291.548
291.608
291.664
291.662
291.611
291.552
291.536
291.595
291.65
291.649
291.598
291.542
291.524
291.582
291.637
291.636
291.586
291.529
291.512
291.57
291.624
291.623
291.574
291.519
291.501
291.558
291.611
291.61
291.562
291.507
291.49
291.546
291.598
291.597
291.55
291.497
291.479
291.534
291.586
291.585
291.539
291.485
291.468
291.523
291.574
291.573
291.528
291.476
291.458
291.512
291.562
291.562
291.517
291.464
291.447
291.501
291.551
291.55
291.506
291.455
291.438
291.49
291.539
291.539
291.495
291.444
291.427
291.48
291.528
291.528
291.485
291.435
291.418
291.47
291.518
291.518
291.475
291.425
291.408
291.46
291.507
291.507
291.465
291.416
291.399
291.45
291.497
291.497
291.455
291.406
291.389
291.44
291.486
291.487
291.445
291.398
291.38
291.43
291.476
291.477
291.436
291.387
291.371
291.421
291.466
291.467
291.426
291.379
291.362
291.411
291.456
291.457
291.417
291.369
291.352
291.402
291.447
291.447
291.407
291.361
291.344
291.392
291.437
291.437
291.398
291.351
291.334
291.383
291.427
291.428
291.388
291.343
291.325
291.373
291.417
291.418
291.379
291.332
291.316
291.364
291.407
291.408
291.369
291.324
291.307
291.354
291.397
291.398
291.36
291.314
291.297
291.345
291.388
291.389
291.35
291.306
291.288
291.335
291.378
291.379
291.341
291.295
291.279
291.326
291.368
291.369
291.331
291.287
291.27
291.316
291.359
291.359
291.322
291.277
291.26
291.306
291.349
291.35
291.312
291.268
291.25
291.296
291.339
291.339
291.301
291.257
291.241
291.286
291.328
291.327
291.291
291.246
291.229
291.274
291.316
291.315
291.278
291.232
291.214
291.26
291.302
291.299
291.259
291.214
291.19
291.239
291.285
291.274
291.23
291.18
291.155
291.212
291.257
291.212
291.165
291.088
291.083
291.146
291.178
291.092
291.107
291.07
291.097
291.13
291.078
290.941
290.366
290.049
289.768
289.398
289.195
289.107
288.951
288.845
288.681
288.549
288.446
288.365
288.302
288.255
288.22
288.194
288.174
288.16
288.15
288.142
288.136
288.131
288.128
288.125
288.123
288.121
288.12
288.12
288.119
288.119
288.119
288.118
288.118
288.117
288.116
288.115
288.114
288.113
288.112
288.111
288.11
288.109
288.108
288.107
288.107
288.106
288.105
288.105
288.103
288.101
288.1
288.099
288.101
288.105
288.112
288.122
288.134
288.149
288.166
288.187
288.21
288.236
288.266
288.3
288.337
288.379
288.426
288.479
288.537
288.602
288.674
288.753
288.841
288.936
289.041
289.155
289.279
289.412
289.555
289.707
289.869
290.04
290.219
290.406
290.6
290.799
291.004
291.212
291.424
291.637
291.851
292.065
292.278
292.489
292.697
292.903
293.104
293.302
293.494
293.682
293.865
294.042
294.213
294.379
294.539
294.694
294.842
294.986
295.123
295.255
295.382
295.504
295.62
295.732
295.839
295.941
296.039
296.133
296.222
296.308
296.39
296.468
296.542
296.614
296.681
296.746
296.808
296.867
296.923
296.977
297.028
297.077
297.123
297.168
297.21
297.25
297.288
297.324
297.359
297.391
297.423
297.452
297.48
297.507
297.532
297.556
297.578
297.6
297.62
297.639
297.657
297.674
297.69
297.705
297.719
297.733
297.745
297.756
297.767
297.777
297.786
297.794
297.802
297.809
297.815
297.82
297.825
297.829
297.833
297.836
297.838
297.839
297.84
297.841
297.841
297.841
297.842
297.842
297.842
297.842
297.842
297.842
297.843
297.845
297.848
297.854
297.86
297.868
297.875
297.883
297.891
297.9
297.909
297.918
297.927
297.937
297.947
297.957
297.968
297.978
297.989
298.001
298.012
298.023
298.035
298.047
298.058
298.07
298.082
298.094
298.106
298.118
298.129
298.141
298.153
298.164
298.175
298.187
298.198
298.208
298.219
298.229
298.239
298.248
298.258
298.267
298.275
298.284
298.292
298.299
298.304
298.308
298.31
298.31
298.31
298.31
298.31
298.31
298.31
298.311
298.315
298.316
298.317
298.32
298.323
298.326
298.329
298.333
298.336
298.34
298.344
298.348
298.353
298.357
298.362
298.366
298.371
298.376
298.381
298.386
298.391
298.396
298.401
298.407
298.412
298.418
298.424
298.43
298.436
298.442
298.449
298.455
298.462
298.469
298.476
298.483
298.491
298.498
298.506
298.514
298.523
298.531
298.54
298.548
298.558
298.566
298.576
298.584
298.594
298.604
298.615
298.625
298.636
298.646
298.658
298.669
298.683
298.696
298.71
298.724
298.739
298.752
298.767
298.78
298.795
298.806
298.822
298.839
298.857
298.874
298.892
298.906
298.927
298.949
298.97
298.987
299.003
299.021
299.045
299.06
299.076
299.087
299.11
299.141
299.168
299.182
299.192
299.198
299.215
299.238
299.26
299.274
299.286
299.31
299.332
299.347
299.352
299.361
299.37
299.377
299.378
299.382
299.388
299.392
299.394
299.39
299.386
299.386
299.392
299.408
299.406
299.402
299.396
299.405
299.42
299.418
299.416
299.388
299.386
299.378
299.391
299.405
299.422
299.42
299.425
299.414
299.407
299.402
299.393
299.406
299.415
299.429
299.417
299.408
299.402
299.386
299.383
299.376
299.371
299.352
299.355
299.362
299.384
299.412
299.417
299.423
299.409
299.395
299.404
299.396
299.395
299.393
299.384
299.379
299.365
299.377
299.382
299.364
299.368
299.385
299.392
299.397
299.395
299.386
299.391
299.396
299.396
299.394
299.4
299.395
299.395
299.393
299.395
299.405
299.412
299.397
299.406
299.424
299.43
299.41
299.401
299.4
299.406
299.419
299.395
299.398
299.396
299.39
299.392
299.398
299.395
299.405
299.402
299.405
299.413
299.405
299.412
299.428
299.426
299.413
299.411
299.407
299.417
299.428
299.419
299.423
299.422
299.408
299.396
299.417
299.405
299.407
299.414
299.395
299.398
299.404
299.402
299.41
299.417
299.399
299.409
299.412
299.406
299.418
299.417
299.418
299.422
299.41
299.41
299.422
299.414
299.411
299.417
299.408
299.406
299.405
299.399
299.395
299.392
299.394
299.407
299.397
299.396
299.393
299.395
299.395
299.396
299.397
299.391
299.387
299.384
299.371
299.38
299.384
299.37
299.366
299.361
299.36
299.352
299.35
299.358
299.34
299.346
299.346
299.333
299.333
299.326
299.327
299.315
299.308
299.313
299.281
299.3
299.306
299.287
299.28
299.267
299.271
299.251
299.241
299.245
299.209
299.226
299.236
299.214
299.203
299.192
299.198
299.181
299.172
299.173
299.133
299.16
299.173
299.158
299.14
299.124
299.141
299.116
299.102
299.092
299.052
299.083
299.091
299.07
299.057
299.041
299.053
299.034
299.018
299.011
298.971
299.002
299.017
298.997
298.981
298.964
298.979
298.961
298.944
298.932
298.895
298.928
298.944
298.925
298.908
298.892
298.907
298.889
298.873
298.858
298.823
298.856
298.872
298.853
298.836
298.82
298.835
298.818
298.802
298.788
298.756
298.788
298.802
298.788
298.772
298.758
298.774
298.759
298.743
298.726
298.696
298.729
298.746
298.731
298.714
298.7
298.717
298.702
298.685
298.668
298.641
298.671
298.688
298.675
298.658
298.645
298.662
298.65
298.633
298.615
298.591
298.621
298.638
298.626
298.61
298.598
298.615
298.604
298.587
298.569
298.547
298.576
298.593
298.582
298.566
298.555
298.572
298.562
298.545
298.527
298.508
298.535
298.552
298.543
298.526
298.516
298.534
298.524
298.508
298.49
298.473
298.498
298.515
298.507
298.49
298.481
298.498
298.49
298.474
298.457
298.442
298.465
298.482
298.474
298.458
298.45
298.466
298.459
298.444
298.428
298.414
298.436
298.452
298.445
298.43
298.423
298.438
298.432
298.417
298.402
298.391
298.41
298.425
298.419
298.405
298.398
298.412
298.407
298.393
298.38
298.37
298.387
298.401
298.395
298.382
298.377
298.39
298.385
298.372
298.361
298.352
298.367
298.379
298.375
298.363
298.358
298.369
298.365
298.354
298.345
298.338
298.35
298.36
298.356
298.346
298.342
298.352
298.348
298.339
298.332
298.326
298.335
298.344
298.34
298.332
298.329
298.336
298.333
298.326
298.321
298.318
298.323
298.329
298.327
298.321
298.319
298.324
298.321
298.317
298.315
298.312
298.315
298.319
298.317
298.314
298.312
298.314
298.313
298.311
298.311
298.31
298.311
298.312
298.311
298.31
298.31
298.311
298.312
298.314
298.316
298.319
298.323
298.327
298.333
298.339
298.345
298.353
298.361
298.37
298.38
298.39
298.402
298.414
298.427
298.441
298.457
298.473
298.49
298.509
298.528
298.549
298.571
298.594
298.619
298.645
298.673
298.702
298.732
298.764
298.798
298.833
298.87
298.908
298.947
298.988
299.029
299.071
299.113
299.155
299.196
299.234
299.271
299.306
299.335
299.356
299.369
299.378
299.387
299.394
299.399
299.401
299.4
299.397
299.391
299.389
299.389
299.39
299.387
299.383
299.385
299.387
299.39
299.39
299.393
299.391
299.389
299.389
299.392
299.392
299.388
299.382
299.384
299.379
299.378
299.373
299.374
299.378
299.367
299.369
299.369
299.366
299.365
299.361
299.362
299.359
299.358
299.358
299.35
299.354
299.356
299.354
299.352
299.349
299.352
299.351
299.348
299.345
299.346
299.35
299.351
299.353
299.352
299.363
299.365
299.379
299.382
299.38
299.391
299.392
299.425
299.425
299.44
299.434
299.444
299.42
299.417
299.448
299.442
299.393
299.356
299.351
299.343
299.341
299.361
299.394
299.441
299.416
299.4
299.354
299.343
299.341
299.342
299.342
299.343
299.35
299.359
299.368
299.38
299.382
299.369
299.359
299.349
299.348
299.358
299.371
299.383
299.38
299.369
299.366
299.375
299.372
299.362
299.352
299.355
299.357
299.344
299.343
299.341
299.338
299.35
299.361
299.371
299.373
299.36
299.36
299.374
299.374
299.359
299.344
299.346
299.348
299.335
299.332
299.329
299.325
299.342
299.359
299.375
299.377
299.36
299.361
299.38
299.383
299.363
299.343
299.342
299.342
299.323
299.322
299.323
299.303
299.302
299.303
299.308
299.314
299.318
299.322
299.326
299.329
299.332
299.334
299.339
299.343
299.342
299.341
299.343
299.353
299.357
299.35
299.334
299.333
299.334
299.33
299.324
299.319
299.323
299.325
299.33
299.331
299.33
299.33
299.329
299.34
299.347
299.354
299.358
299.36
299.358
299.356
299.351
299.349
299.381
299.383
299.379
299.382
299.381
299.38
299.377
299.373
299.363
299.346
299.335
299.328
299.322
299.327
299.334
299.322
299.32
299.328
299.329
299.319
299.317
299.321
299.318
299.314
299.317
299.322
299.329
299.325
299.323
299.323
299.322
299.318
299.317
299.308
299.303
299.299
299.293
299.294
299.296
299.298
299.305
299.31
299.313
299.321
299.342
299.346
299.341
299.338
299.33
299.325
299.324
299.319
299.31
299.311
299.315
299.317
299.328
299.338
299.348
299.353
299.355
299.353
299.343
299.331
299.329
299.334
299.344
299.329
299.316
299.305
299.297
299.302
299.312
299.321
299.312
299.308
299.3
299.296
299.294
299.293
299.291
299.288
299.289
299.286
299.293
299.285
299.281
299.281
299.259
299.259
299.265
299.268
299.275
299.279
299.275
299.283
299.29
299.295
299.297
299.298
299.297
299.297
299.296
299.297
299.309
299.307
299.311
299.313
299.312
299.312
299.308
299.306
299.299
299.292
299.283
299.278
299.271
299.274
299.284
299.271
299.269
299.267
299.259
299.26
299.261
299.263
299.262
299.257
299.253
299.25
299.252
299.245
299.242
299.241
299.258
299.261
299.286
299.309
299.328
299.347
299.366
299.385
299.384
299.369
299.373
299.383
299.381
299.377
299.371
299.362
299.354
299.337
299.349
299.364
299.375
299.377
299.378
299.376
299.37
299.374
299.363
299.357
299.335
299.341
299.349
299.37
299.379
299.385
299.383
299.362
299.322
299.313
299.308
299.304
299.266
299.267
299.222
299.227
299.186
299.176
299.166
299.217
299.267
299.268
299.209
299.151
299.093
299.114
299.13
299.142
299.097
299.082
299.035
299.053
299.01
298.99
298.966
299.013
299.062
299.038
298.987
298.939
298.908
298.956
299.009
299.067
299.13
299.198
299.27
299.338
299.387
299.405
299.397
299.372
299.353
299.334
299.319
299.297
299.314
299.338
299.313
299.297
299.285
299.275
299.27
299.263
299.245
299.242
299.228
299.225
299.228
299.227
299.231
299.233
299.241
299.242
299.242
299.251
299.239
299.231
299.228
299.224
299.223
299.222
299.222
299.221
299.226
299.23
299.23
299.223
299.223
299.227
299.236
299.251
299.258
299.243
299.236
299.228
299.233
299.236
299.246
299.255
299.268
299.28
299.3
299.323
299.333
299.354
299.372
299.414
299.451
299.434
299.517
299.512
299.476
299.444
299.404
299.381
299.38
299.35
299.337
299.323
299.31
299.297
299.284
299.273
299.268
299.259
299.248
299.243
299.262
299.268
299.28
299.295
299.309
299.32
299.318
299.307
299.295
299.333
299.335
299.35
299.353
299.369
299.389
299.387
299.367
299.365
299.348
299.384
299.408
299.408
299.406
299.414
299.459
299.452
299.43