/*--------------------------------*- C++ -*----------------------------------*\
| =========                 |                                                 |
| \\      /  F ield         | OpenFOAM: The Open Source CFD Toolbox           |
|  \\    /   O peration     | Version:  v2006                                 |
|   \\  /    A nd           | Website:  www.openfoam.com                      |
|    \\/     M anipulation  |                                                 |
\*---------------------------------------------------------------------------*/
FoamFile
{
    version     2.0;
    format      ascii;
    class       volScalarField;
    location    "0.004";
    object      nut;
}
// * * * * * * * * * * * * * * * * * * * * * * * * * * * * * * * * * * * * * //

dimensions      [0 2 -1 0 0 0 0];


internalField   nonuniform List<scalar> 
11076
(
2.14295
2.61891
10.6968
7.24658
3.10346
1.31137
0.680275
0.404393
0.276538
0.217239
0.18877
0.171627
0.157818
0.145539
0.134778
0.125513
0.11749
0.110461
0.104243
0.0987063
0.093761
0.0893201
0.0853131
0.0817148
0.0784757
0.0755348
0.072878
0.0705023
0.0683812
0.0664732
0.0647738
0.0632639
0.0619605
0.0608678
0.0599719
0.0592693
0.058747
0.0583845
0.0581969
0.0581875
0.0583654
0.0587391
0.0593202
0.0601219
0.0611622
0.062464
0.0640547
0.0659732
0.0682617
0.0709835
0.0742198
0.0780723
0.0826656
0.0881593
0.0947089
0.102471
0.111635
0.123613
0.144571
0.193899
0.325459
0.691149
1.39976
5.99703
2.1072
1.02777
0.404293
0.158066
0.0578534
0.0129811
0.00232888
7.63161e-05
6.63574e-05
0.00109657
0.00505002
0.00319155
0.000798221
5.91877e-05
5.32578e-05
0.000696461
0.00254564
0.00214498
0.000618726
4.94112e-05
4.60337e-05
0.000579071
0.00190942
0.00169927
0.00052556
4.332e-05
4.0994e-05
0.000494067
0.00156913
0.00143908
0.000463533
3.90202e-05
3.74986e-05
0.000444623
0.00136154
0.00126573
0.000418773
3.60309e-05
3.49421e-05
0.000405128
0.00121175
0.00113731
0.00038442
3.3892e-05
3.31536e-05
0.000374572
0.0010968
0.00103741
0.000359213
3.24333e-05
3.1945e-05
0.000353094
0.00101024
0.000965169
0.000342661
3.14475e-05
3.11168e-05
0.00033949
0.000949138
0.000916358
0.000332591
3.07569e-05
3.05147e-05
0.000331211
0.000907821
0.000884032
0.00032643
3.02437e-05
3.00705e-05
0.000326022
0.000880286
0.00086286
0.000323028
2.98738e-05
2.97586e-05
0.000323291
0.000861668
0.000848208
0.000321479
2.96102e-05
2.95381e-05
0.000321999
0.000848463
0.000836658
0.000320699
2.94261e-05
2.9398e-05
0.000321614
0.000838757
0.00082805
0.000320506
2.93137e-05
2.9302e-05
0.000321804
0.000831984
0.000822199
0.000320734
2.92038e-05
2.91748e-05
0.000321543
0.000825829
0.000816953
0.000320194
2.90363e-05
2.89841e-05
0.000320409
0.000818143
0.000809806
0.000318256
2.87762e-05
2.86652e-05
0.000317814
0.000809407
0.00079879
0.000314121
2.83405e-05
2.81333e-05
0.000312745
0.000795681
0.000779669
0.000306747
2.7674e-05
2.7362e-05
0.000304512
0.000773734
0.000751805
0.000296152
2.67793e-05
2.63656e-05
0.000292982
0.000744233
0.000715135
0.000282423
2.56854e-05
2.51929e-05
0.000278165
0.000703087
0.000669521
0.000266086
2.44676e-05
2.39436e-05
0.000260911
0.00065359
0.00061843
0.000248665
2.32265e-05
2.27166e-05
0.000243069
0.00059983
0.000565676
0.000231425
2.20424e-05
2.15703e-05
0.000226116
0.000547472
0.000515673
0.000215544
2.09454e-05
2.051e-05
0.000210857
0.000499332
0.00047029
0.000201476
1.99137e-05
1.94985e-05
0.000197477
0.000457144
0.00043175
0.000188996
1.88925e-05
1.84623e-05
0.000185172
0.000420707
0.000397662
0.000177098
1.7858e-05
1.73158e-05
0.000173073
0.000387522
0.000365541
0.000164831
1.67071e-05
1.64071e-05
0.000160295
0.000354966
0.000333075
0.000151783
1.60813e-05
1.58715e-05
0.000147304
0.000322142
0.000301366
0.000139181
1.55316e-05
1.52142e-05
0.000133707
0.000289648
0.000269663
0.000125071
1.47423e-05
1.42765e-05
0.000118816
0.000257139
0.000238656
0.000110131
1.36581e-05
1.30409e-05
0.000102734
0.000224397
0.000207168
9.50078e-05
1.23072e-05
1.15995e-05
8.99823e-05
0.000197389
0.000188329
8.47553e-05
1.06846e-05
9.5943e-06
7.87805e-05
0.000178921
0.000166896
6.97997e-05
7.22076e-06
4.93583e-06
6.15315e-05
0.000146187
0.000121429
5.46157e-05
4.14516e-06
4.47707e-06
5.05182e-05
0.000103155
9.07245e-05
4.72263e-05
5.06386e-06
5.83542e-06
4.59544e-05
8.35259e-05
7.788e-05
4.43414e-05
6.47322e-06
6.86842e-06
4.23018e-05
7.37888e-05
6.96051e-05
3.86575e-05
6.99121e-06
6.98792e-06
3.54808e-05
6.53685e-05
6.03439e-05
3.15828e-05
6.69476e-06
6.22878e-06
2.75963e-05
5.53473e-05
5.05085e-05
2.26515e-05
5.57549e-06
4.86611e-06
2.03398e-05
4.57995e-05
4.21247e-05
1.72704e-05
4.01312e-06
3.07753e-06
1.4847e-05
3.98442e-05
3.69257e-05
1.18649e-05
2.13448e-06
1.30526e-06
9.41581e-06
3.33401e-05
3.06378e-05
7.67029e-06
7.39603e-07
3.97197e-07
6.12174e-06
2.91055e-05
2.53946e-05
5.24577e-06
2.51443e-07
3.93408e-07
5.41921e-06
2.56954e-05
2.61387e-05
5.72664e-06
9.25515e-07
1.74869e-06
7.01623e-06
2.87763e-05
2.86858e-05
8.06792e-06
2.78622e-06
3.9893e-06
1.08496e-05
3.14788e-05
3.08316e-05
1.23089e-05
5.26723e-06
6.50981e-06
1.37333e-05
3.05088e-05
3.19725e-05
1.40015e-05
7.50017e-06
8.39463e-06
1.48111e-05
3.46709e-05
3.84306e-05
1.77633e-05
8.9623e-06
8.93922e-06
2.20206e-05
4.26055e-05
4.70218e-05
2.4154e-05
8.6098e-06
7.68194e-06
2.64661e-05
4.9824e-05
5.398e-05
2.99499e-05
6.22011e-06
4.57466e-06
3.13776e-05
5.78467e-05
6.17032e-05
3.26036e-05
2.99717e-06
2.0292e-06
3.45873e-05
6.56548e-05
7.05117e-05
3.86163e-05
2.92799e-06
4.35417e-06
4.26678e-05
7.51811e-05
7.91184e-05
4.56665e-05
5.76244e-06
6.88353e-06
4.77235e-05
8.20018e-05
8.50937e-05
4.99069e-05
7.31046e-06
7.65388e-06
5.15765e-05
8.6795e-05
8.92048e-05
5.3359e-05
7.9675e-06
8.20634e-06
5.45633e-05
8.98901e-05
9.22399e-05
5.60269e-05
8.41804e-06
8.57536e-06
5.71383e-05
9.24337e-05
9.45668e-05
5.84123e-05
8.71238e-06
8.79828e-06
5.92246e-05
9.41637e-05
9.58871e-05
6.01199e-05
8.87036e-06
8.9034e-06
6.065e-05
9.53662e-05
9.65028e-05
6.10917e-05
8.92243e-06
8.91389e-06
6.13421e-05
9.61094e-05
9.66016e-05
6.13283e-05
8.89085e-06
8.8467e-06
6.12885e-05
9.6295e-05
9.66215e-05
6.09188e-05
8.78527e-06
8.71296e-06
6.04442e-05
9.66162e-05
9.81051e-05
5.97476e-05
8.63417e-06
8.53916e-06
5.88852e-05
9.86007e-05
0.000100279
5.82254e-05
8.4467e-06
8.35884e-06
5.79799e-05
0.000101015
0.000102871
5.76612e-05
8.28814e-06
8.22098e-06
5.74759e-05
0.00010341
0.000105675
5.69773e-05
8.15687e-06
8.07693e-06
5.62588e-05
0.000106122
0.000105784
5.52118e-05
7.98829e-06
7.89161e-06
5.44824e-05
0.000105243
0.000104647
5.37816e-05
7.80282e-06
7.71066e-06
5.30624e-05
0.000103104
0.000100103
5.14155e-05
7.59339e-06
7.43218e-06
4.92261e-05
9.69243e-05
9.29752e-05
4.66738e-05
7.22655e-06
6.97084e-06
4.39798e-05
8.83223e-05
8.29456e-05
4.04255e-05
6.69951e-06
6.35601e-06
3.58673e-05
7.73012e-05
7.19435e-05
3.15334e-05
6.25319e-06
6.21609e-06
2.73171e-05
6.69508e-05
6.52368e-05
2.21242e-05
5.90689e-06
0.000211074
0.000500174
0.000499999
0.000499746
0.000499802
0.000499696
0.000499866
0.000499749
0.000499928
0.000499799
0.000500049
0.000499898
0.000500203
0.000499981
0.000500024
0.000499798
0.000442874
0.0003313
0.000405833
0.000500273
0.000486706
0.000239601
0.000140452
4.36268e-05
2.56762e-05
1.93126e-05
4.06406e-06
3.58758e-06
1.72943e-05
2.56709e-05
2.58749e-05
9.9036e-06
2.75588e-06
1.84037e-06
5.24012e-06
2.26092e-05
2.13915e-05
4.02895e-06
1.42201e-06
1.23658e-06
3.69093e-06
2.04029e-05
2.13675e-05
4.60022e-06
1.21283e-06
1.19473e-06
4.83944e-06
2.16064e-05
2.34635e-05
6.35693e-06
1.26949e-06
1.28549e-06
6.29365e-06
2.41216e-05
2.61344e-05
7.46146e-06
1.36386e-06
1.36762e-06
7.20561e-06
2.66973e-05
2.83091e-05
8.25477e-06
1.44065e-06
1.44604e-06
7.95617e-06
2.87018e-05
3.0008e-05
8.99344e-06
1.52234e-06
1.52464e-06
8.64603e-06
3.03376e-05
3.15673e-05
9.72192e-06
1.60072e-06
1.60306e-06
9.33323e-06
3.19433e-05
3.318e-05
1.03874e-05
1.67496e-06
1.67218e-06
9.93067e-06
3.3562e-05
3.46498e-05
1.09389e-05
1.73891e-06
1.73536e-06
1.04315e-05
3.49401e-05
3.5827e-05
1.13746e-05
1.79799e-06
1.79092e-06
1.08272e-05
3.60458e-05
3.67324e-05
1.17407e-05
1.85068e-06
1.84371e-06
1.11657e-05
3.68997e-05
3.7472e-05
1.20428e-05
1.9013e-06
1.89156e-06
1.14447e-05
3.75863e-05
3.80492e-05
1.23049e-05
1.94699e-06
1.93744e-06
1.16776e-05
3.81215e-05
3.84736e-05
1.25251e-05
1.99195e-06
1.98041e-06
1.1884e-05
3.85017e-05
3.87743e-05
1.27159e-05
2.03451e-06
2.0239e-06
1.2058e-05
3.87746e-05
3.89823e-05
1.28908e-05
2.0787e-06
2.06712e-06
1.22277e-05
3.89646e-05
3.91098e-05
1.30629e-05
2.12354e-06
2.11357e-06
1.24029e-05
3.90643e-05
3.92063e-05
1.32368e-05
2.17234e-06
2.16208e-06
1.2585e-05
3.91542e-05
3.9299e-05
1.34349e-05
2.22405e-06
2.21614e-06
1.28019e-05
3.92703e-05
3.94557e-05
1.36662e-05
2.28304e-06
2.27598e-06
1.30505e-05
3.94762e-05
3.96781e-05
1.39403e-05
2.34943e-06
2.34588e-06
1.33436e-05
3.9708e-05
3.99648e-05
1.4247e-05
2.42741e-06
2.42611e-06
1.36681e-05
4.00278e-05
4.02992e-05
1.46002e-05
2.51811e-06
2.52417e-06
1.40561e-05
4.03874e-05
4.07278e-05
1.49675e-05
2.63091e-06
2.64395e-06
1.45071e-05
4.08555e-05
4.12186e-05
1.53935e-05
2.76994e-06
2.79854e-06
1.50444e-05
4.14084e-05
4.17941e-05
1.58704e-05
2.95216e-06
3.00303e-06
1.56108e-05
4.19608e-05
4.24882e-05
1.63493e-05
3.1936e-06
3.28954e-06
1.63946e-05
4.26289e-05
4.34332e-05
1.69362e-05
3.53284e-06
3.65712e-06
1.7035e-05
4.3579e-05
4.48672e-05
1.75249e-05
3.92132e-06
4.0218e-06
1.7517e-05
4.40801e-05
4.51387e-05
1.78714e-05
4.29153e-06
4.45219e-06
1.79413e-05
4.41644e-05
4.58477e-05
1.85717e-05
4.74226e-06
4.92311e-06
1.8732e-05
4.47872e-05
4.67513e-05
1.95303e-05
5.28975e-06
5.5761e-06
1.99933e-05
4.64433e-05
4.88025e-05
2.09575e-05
6.08508e-06
6.33617e-06
2.17931e-05
4.85105e-05
5.1098e-05
2.2767e-05
6.60316e-06
6.96998e-06
2.41143e-05
5.11321e-05
5.33286e-05
2.49907e-05
7.27918e-06
7.69029e-06
2.64214e-05
5.12274e-05
6.03499e-05
2.82391e-05
7.93145e-06
8.6259e-06
3.13478e-05
7.09732e-05
7.36894e-05
4.5376e-05
9.07566e-06
1.20576e-05
4.94165e-05
9.81885e-05
7.37587e-05
4.51585e-05
1.19796e-05
1.14693e-05
4.48459e-05
7.64155e-05
8.56007e-05
4.91526e-05
1.21116e-05
1.31436e-05
5.35672e-05
9.79885e-05
9.40985e-05
5.80295e-05
1.36247e-05
1.41518e-05
6.26513e-05
8.18416e-05
7.01448e-05
6.84471e-05
1.43163e-05
1.47065e-05
7.35905e-05
5.88219e-05
5.57326e-05
6.57188e-05
1.45471e-05
1.4177e-05
7.56099e-05
4.11985e-05
3.48343e-05
6.35498e-05
1.2818e-05
1.27999e-05
5.81349e-05
3.42507e-05
3.04809e-05
5.15911e-05
1.27064e-05
1.27499e-05
3.84224e-05
3.03509e-05
2.07133e-05
4.49481e-05
1.1664e-05
1.02022e-05
3.39581e-05
1.86485e-05
1.28502e-05
3.52573e-05
9.19178e-06
8.60426e-06
3.00389e-05
1.16889e-05
1.23394e-05
2.70997e-05
8.4372e-06
8.49815e-06
2.23282e-05
1.18804e-05
1.22324e-05
1.89851e-05
8.57734e-06
7.95294e-06
1.64295e-05
9.48327e-06
9.08715e-06
1.27619e-05
7.65778e-06
7.68869e-06
1.05937e-05
9.50142e-06
1.04719e-05
9.23206e-06
8.69921e-06
8.50166e-06
8.56951e-06
9.10477e-06
8.39376e-06
7.58868e-06
9.24483e-06
1.05594e-05
7.53287e-06
9.64201e-06
9.82631e-06
9.14186e-06
1.22774e-05
1.41764e-05
9.63636e-06
9.30053e-06
1.14758e-05
1.14952e-05
1.88672e-05
2.88355e-05
1.50696e-05
1.37634e-05
1.78063e-05
1.9579e-05
2.23502e-05
3.59144e-05
2.9368e-05
2.14114e-05
3.18518e-05
2.33562e-05
4.18423e-05
3.56927e-05
1.85645e-05
4.08062e-05
4.97785e-05
2.73548e-05
1.94526e-05
1.56202e-05
2.85481e-05
6.59699e-05
4.99244e-05
3.57842e-05
1.44612e-05
1.46928e-05
3.05314e-05
2.45061e-05
3.10738e-05
3.14877e-05
1.52919e-05
1.57025e-05
3.43818e-05
2.952e-05
2.70945e-05
3.94849e-05
1.85216e-05
2.16337e-05
4.00522e-05
4.4313e-05
4.41527e-05
6.75038e-05
2.56402e-05
2.99322e-05
7.01805e-05
3.85152e-05
0.000145903
0.000150611
5.18804e-05
5.33726e-05
0.000150098
0.000154404
0.00013737
0.000130432
4.75325e-05
4.45166e-05
0.000115249
0.000115479
9.23495e-05
8.75709e-05
3.89601e-05
3.68099e-05
6.21105e-05
8.02973e-05
7.55859e-05
5.10525e-05
3.47401e-05
1.24782e-05
6.27533e-05
8.10835e-05
9.10902e-05
7.00072e-05
2.55011e-05
3.74402e-05
7.2585e-05
0.000103174
0.000106426
7.24471e-05
3.74155e-05
3.96925e-05
7.47099e-05
0.000113866
0.000142677
7.87027e-05
3.96105e-05
3.66723e-05
7.85025e-05
0.0001424
0.000145139
7.82606e-05
3.64342e-05
3.58088e-05
8.24816e-05
0.000211363
0.000177694
7.83913e-05
2.9855e-05
2.51102e-05
6.87966e-05
0.000164317
0.000156226
6.65617e-05
2.38491e-05
2.2213e-05
7.36093e-05
0.000227953
0.000158632
5.04131e-05
1.25163e-05
1.42738e-05
3.51692e-05
0.000134766
0.000160965
5.61333e-05
1.61429e-05
1.38299e-05
4.54629e-05
8.05395e-05
7.71731e-05
4.13807e-05
1.04293e-05
1.24653e-05
3.37107e-05
6.09462e-05
0.000127398
8.54906e-05
1.39374e-05
1.07112e-05
4.20808e-05
9.11559e-05
7.20244e-05
3.7328e-05
1.27442e-05
1.49421e-05
9.11527e-05
0.000159195
0.000106648
4.4678e-05
1.29115e-05
9.84969e-06
4.27244e-05
8.13386e-05
6.32481e-05
3.27498e-05
1.15118e-05
1.24567e-05
8.88299e-05
0.000141072
9.02464e-05
3.78721e-05
9.61907e-06
1.11009e-05
3.21929e-05
6.20929e-05
0.000144735
8.86514e-05
1.17617e-05
9.23125e-06
3.49436e-05
8.37774e-05
5.71523e-05
2.98681e-05
1.07553e-05
1.12995e-05
8.25558e-05
0.000132863
7.78992e-05
3.27017e-05
9.02378e-06
1.08352e-05
2.81724e-05
5.54551e-05
0.000132319
6.97696e-05
1.22535e-05
1.08439e-05
3.14207e-05
7.96772e-05
5.8237e-05
2.88669e-05
8.51145e-06
1.03986e-05
2.39555e-05
4.69656e-05
0.000109961
6.86941e-05
1.16001e-05
8.99913e-06
2.94235e-05
7.48535e-05
5.65794e-05
2.71227e-05
1.09499e-05
1.24621e-05
8.71682e-05
0.000143358
9.42211e-05
3.38633e-05
9.33493e-06
1.12307e-05
2.97959e-05
6.94176e-05
0.000194038
0.000116696
1.2984e-05
9.42709e-06
3.93933e-05
0.000116261
8.14371e-05
3.16908e-05
1.11245e-05
1.29003e-05
0.000136274
0.000242409
0.000126639
4.01637e-05
8.89063e-06
1.02105e-05
2.88039e-05
8.12297e-05
0.000254039
0.000139451
1.19149e-05
7.27282e-06
3.27717e-05
0.000113848
5.59853e-05
1.924e-05
8.39739e-06
8.87925e-06
0.000107728
0.00018015
7.50209e-05
2.57163e-05
9.14201e-06
1.06869e-05
0.000123494
0.000212752
8.5617e-05
2.52884e-05
4.52007e-06
5.67725e-06
1.54388e-05
4.82891e-05
0.000143233
7.74618e-05
7.13957e-06
3.24738e-06
1.70419e-05
5.5855e-05
3.69701e-05
1.20059e-05
4.8203e-06
7.2635e-06
6.02798e-05
0.00012164
6.97258e-05
1.93496e-05
3.94842e-06
6.70663e-06
1.83365e-05
5.90077e-05
0.000217256
0.000120512
9.96568e-06
4.71446e-06
3.78688e-05
0.00012996
8.66262e-05
2.33231e-05
5.92884e-06
9.27224e-06
0.000155706
0.000320624
0.000174112
4.77233e-05
8.18894e-06
1.34819e-05
0.000225125
0.000469553
0.000263057
7.76577e-05
3.43554e-06
2.68138e-06
4.77644e-05
0.000198471
0.00037617
0.000139885
7.00746e-06
1.30663e-06
5.62866e-05
0.000214116
0.000235102
6.11471e-05
1.1254e-06
1.26511e-06
5.75378e-05
0.000211263
0.000339848
0.00012338
4.74138e-06
4.1721e-06
9.58611e-05
0.000306942
0.000136797
2.83722e-05
7.64296e-07
5.9719e-06
0.000121506
0.000326196
0.000287263
9.5855e-05
5.57181e-06
1.34065e-06
1.5587e-05
8.30901e-05
0.000256222
0.000101801
4.82946e-06
3.16627e-06
2.53269e-05
9.72271e-05
0.000292403
0.000123375
8.9178e-06
9.39492e-06
9.50596e-05
0.000261745
7.35521e-05
1.65678e-05
3.84897e-06
7.73302e-06
0.000113252
0.000207011
8.70882e-05
2.55282e-05
7.13989e-06
1.08253e-05
0.000102704
0.000229729
0.000202406
7.68843e-05
1.13589e-05
7.02509e-06
1.78604e-05
5.67847e-05
0.000168814
7.22784e-05
9.05059e-06
1.03659e-05
5.70041e-05
0.000152951
4.17609e-05
1.40352e-05
7.14297e-06
8.07319e-06
7.99239e-05
0.000118803
5.19891e-05
2.10483e-05
9.04091e-06
9.41491e-06
6.32614e-05
0.000143578
0.000123201
5.07612e-05
1.10001e-05
8.22007e-06
1.53763e-05
3.78672e-05
9.44081e-05
6.36558e-05
7.88228e-06
9.63011e-06
2.11931e-05
4.54419e-05
0.00011547
5.66611e-05
9.19376e-06
1.12086e-05
4.71144e-05
9.79373e-05
3.59428e-05
1.6425e-05
8.80845e-06
7.90745e-06
5.88165e-05
7.83812e-05
4.14675e-05
2.20008e-05
1.0049e-05
9.08355e-06
5.02428e-05
9.61283e-05
8.24395e-05
4.33003e-05
1.13066e-05
9.08248e-06
1.80941e-05
3.35798e-05
6.46888e-05
4.95306e-05
7.89518e-06
1.0307e-05
2.2974e-05
3.68639e-05
7.71077e-05
4.59041e-05
9.04035e-06
1.14624e-05
3.95381e-05
6.76532e-05
3.17815e-05
2.03697e-05
9.37334e-06
7.92389e-06
4.32538e-05
5.66843e-05
3.44046e-05
2.43589e-05
1.04597e-05
8.93915e-06
4.28871e-05
6.71107e-05
5.88261e-05
3.77482e-05
1.15014e-05
9.54491e-06
2.23478e-05
3.04478e-05
4.89874e-05
3.95074e-05
7.96638e-06
1.07254e-05
2.53946e-05
3.1895e-05
5.82824e-05
3.87729e-05
9.12416e-06
1.1754e-05
3.52552e-05
5.19819e-05
2.91589e-05
2.42942e-05
9.73469e-06
8.02214e-06
3.80607e-05
4.55513e-05
3.08359e-05
2.69024e-05
1.08605e-05
9.08322e-06
3.68194e-05
5.42481e-05
4.8549e-05
3.40956e-05
1.17815e-05
9.84315e-06
2.54719e-05
2.86368e-05
4.34438e-05
3.69491e-05
8.09509e-06
1.10543e-05
2.80489e-05
3.06504e-05
5.14781e-05
3.61204e-05
9.16317e-06
1.19744e-05
3.41751e-05
4.67391e-05
2.95992e-05
2.74833e-05
9.94575e-06
8.22385e-06
3.74787e-05
4.29581e-05
3.14012e-05
2.97525e-05
1.11523e-05
9.19494e-06
3.60468e-05
5.07276e-05
4.61609e-05
3.4329e-05
1.20412e-05
1.00894e-05
2.85615e-05
3.05018e-05
4.17994e-05
3.71616e-05
8.33097e-06
1.13257e-05
3.08995e-05
3.21637e-05
4.85934e-05
3.58662e-05
9.37746e-06
1.23069e-05
3.46661e-05
4.47688e-05
3.11779e-05
3.01836e-05
1.02502e-05
8.42462e-06
3.77647e-05
4.11712e-05
3.31463e-05
3.27629e-05
1.14203e-05
9.40076e-06
3.56862e-05
4.72028e-05
4.39435e-05
3.48829e-05
1.24101e-05
1.03852e-05
3.12326e-05
3.18997e-05
4.03586e-05
3.76209e-05
8.56873e-06
1.16053e-05
3.40387e-05
3.3797e-05
4.58885e-05
3.60055e-05
9.55777e-06
1.26654e-05
3.5499e-05
4.30449e-05
3.29394e-05
3.27856e-05
1.05772e-05
8.59721e-06
3.84806e-05
4.01515e-05
3.46532e-05
3.54991e-05
1.16536e-05
9.5079e-06
3.62567e-05
4.51901e-05
4.26577e-05
3.61502e-05
1.27504e-05
1.06745e-05
3.37877e-05
3.39197e-05
3.99022e-05
3.85775e-05
8.79781e-06
1.18966e-05
3.68066e-05
3.55762e-05
4.43696e-05
3.68842e-05
9.75872e-06
1.30541e-05
3.70664e-05
4.21783e-05
3.51723e-05
3.5731e-05
1.08572e-05
8.86115e-06
4.00742e-05
4.02619e-05
3.67619e-05
3.83633e-05
1.20319e-05
9.91329e-06
3.75484e-05
4.41684e-05
4.22613e-05
3.79018e-05
1.33022e-05
1.10726e-05
3.68821e-05
3.63355e-05
4.04394e-05
4.0572e-05
9.01946e-06
1.23624e-05
3.99319e-05
3.79059e-05
4.39975e-05
3.84495e-05
1.01726e-05
1.36384e-05
3.91118e-05
4.23381e-05
3.77284e-05
3.8851e-05
1.12597e-05
9.17556e-06
4.20302e-05
4.10865e-05
3.92483e-05
4.17693e-05
1.26118e-05
1.04177e-05
3.96753e-05
4.47281e-05
4.32177e-05
4.06153e-05
1.40511e-05
1.1602e-05
4.06717e-05
3.94953e-05
4.21218e-05
4.33678e-05
9.45608e-06
1.295e-05
4.37701e-05
4.09246e-05
4.53861e-05
4.1112e-05
1.06294e-05
1.44868e-05
4.24731e-05
4.41272e-05
4.18244e-05
4.47732e-05
1.23909e-05
1.04799e-05
4.44402e-05
4.51334e-05
4.41304e-05
4.4762e-05
1.45956e-05
1.22623e-05
4.31403e-05
4.21113e-05
4.38098e-05
4.55528e-05
9.9207e-06
1.36358e-05
4.5998e-05
4.33276e-05
4.61416e-05
4.26338e-05
1.11979e-05
1.51892e-05
4.3782e-05
4.5107e-05
4.35706e-05
4.5517e-05
1.27324e-05
1.02429e-05
4.67616e-05
4.43225e-05
4.5043e-05
4.8798e-05
1.42138e-05
1.17475e-05
4.45074e-05
4.74126e-05
4.64977e-05
4.65745e-05
1.59986e-05
1.35884e-05
5.02052e-05
4.64379e-05
4.79781e-05
4.88027e-05
1.14637e-05
1.58748e-05
4.88811e-05
4.73023e-05
4.71041e-05
4.86249e-05
1.35809e-05
1.09429e-05
4.96885e-05
4.70806e-05
4.80375e-05
5.17643e-05
1.51809e-05
1.25585e-05
4.68076e-05
4.93701e-05
4.87561e-05
4.90245e-05
1.71637e-05
1.45332e-05
5.35256e-05
4.97195e-05
4.97235e-05
5.1136e-05
1.22806e-05
1.70679e-05
5.14394e-05
4.91995e-05
5.01356e-05
5.22387e-05
1.45335e-05
1.16812e-05
5.2363e-05
4.93926e-05
5.12813e-05
5.5747e-05
1.62501e-05
1.34177e-05
4.97721e-05
5.14918e-05
5.09621e-05
5.23114e-05
1.83019e-05
1.5488e-05
5.78982e-05
5.30264e-05
5.28116e-05
5.47862e-05
1.30659e-05
1.82091e-05
5.57582e-05
5.23921e-05
5.42532e-05
5.65311e-05
1.52851e-05
1.23765e-05
5.63682e-05
5.28419e-05
5.53139e-05
6.02494e-05
1.72617e-05
1.4307e-05
5.36454e-05
5.47185e-05
5.43771e-05
5.62296e-05
1.95501e-05
1.66609e-05
6.29326e-05
5.75646e-05
5.61329e-05
5.90235e-05
1.40395e-05
1.96047e-05
6.00996e-05
5.58356e-05
5.91213e-05
6.33146e-05
1.68766e-05
1.42901e-05
5.98468e-05
5.75009e-05
5.72476e-05
6.08964e-05
2.03847e-05
1.78293e-05
6.63515e-05
6.12028e-05
5.9077e-05
6.14275e-05
1.50739e-05
2.10661e-05
6.20705e-05
5.88562e-05
6.23785e-05
6.6937e-05
1.80172e-05
1.50307e-05
6.20604e-05
6.01322e-05
5.98675e-05
6.18152e-05
2.09279e-05
1.84491e-05
6.79093e-05
6.31183e-05
6.09378e-05
6.28839e-05
1.55813e-05
2.20079e-05
6.3597e-05
6.07309e-05
6.4662e-05
6.98741e-05
1.89486e-05
1.58571e-05
6.43207e-05
6.21316e-05
6.18619e-05
6.45825e-05
2.22624e-05
1.90639e-05
6.98549e-05
6.51405e-05
6.29546e-05
6.50376e-05
1.60764e-05
2.29486e-05
6.61031e-05
6.27697e-05
6.76615e-05
7.39281e-05
1.99592e-05
1.67696e-05
6.77198e-05
6.47577e-05
6.45628e-05
6.78608e-05
2.35953e-05
2.03373e-05
7.58955e-05
6.94081e-05
6.64854e-05
6.84207e-05
1.66262e-05
2.33993e-05
6.96728e-05
6.62979e-05
7.17264e-05
7.88858e-05
2.08815e-05
1.77516e-05
7.21457e-05
6.84193e-05
6.82536e-05
7.23343e-05
2.50547e-05
2.20351e-05
8.33243e-05
7.45567e-05
7.07271e-05
7.41251e-05
1.85432e-05
2.62708e-05
8.27947e-05
7.17593e-05
7.21907e-05
8.31844e-05
2.495e-05
2.26263e-05
8.57416e-05
7.99897e-05
7.42541e-05
7.7567e-05
1.94964e-05
2.87474e-05
8.63399e-05
7.57204e-05
7.52515e-05
8.18552e-05
2.57308e-05
2.37307e-05
8.54819e-05
8.05574e-05
7.55053e-05
7.78092e-05
2.06537e-05
3.03619e-05
8.64442e-05
7.6475e-05
7.6434e-05
8.51367e-05
2.82962e-05
2.45014e-05
8.8939e-05
8.31444e-05
7.74108e-05
8.01939e-05
2.07715e-05
3.15316e-05
8.88447e-05
7.83912e-05
7.79127e-05
8.61205e-05
2.99962e-05
2.71073e-05
9.43717e-05
8.53356e-05
8.00159e-05
8.35852e-05
2.21382e-05
3.40292e-05
8.92938e-05
8.00797e-05
7.98886e-05
9.14512e-05
3.45822e-05
3.51467e-05
9.98537e-05
8.28618e-05
8.1955e-05
9.39947e-05
3.27852e-05
3.03625e-05
0.000100686
9.18382e-05
8.46673e-05
8.92747e-05
2.5679e-05
3.80636e-05
8.82175e-05
8.40846e-05
8.50636e-05
0.000101346
3.85588e-05
4.06583e-05
9.76415e-05
8.43362e-05
8.59013e-05
0.000102199
4.27899e-05
4.58257e-05
9.8868e-05
8.51264e-05
8.67141e-05
0.000103774
4.76612e-05
4.93389e-05
0.000103948
8.67107e-05
8.84981e-05
0.000110284
5.00421e-05
4.89274e-05
0.000112618
8.87536e-05
9.14564e-05
0.000119316
4.74619e-05
4.57005e-05
0.000125313
9.21895e-05
9.64699e-05
0.00013293
4.40366e-05
4.23007e-05
0.000139027
9.7779e-05
0.000103847
0.000146323
4.08085e-05
3.9357e-05
0.000145353
0.000105481
0.000112882
0.000151697
3.81442e-05
3.69921e-05
0.00015226
0.000114972
0.000123705
0.000157154
3.60276e-05
3.51439e-05
0.000159375
0.000126375
0.000137411
0.000162392
3.43885e-05
3.37076e-05
0.000164941
0.000140798
0.00015341
0.000167674
3.3129e-05
3.26136e-05
0.000170083
0.00015717
0.000170109
0.000173108
3.21709e-05
3.17986e-05
0.000175709
0.00017463
0.00018803
0.000178847
3.14619e-05
3.1221e-05
0.00018162
0.00019317
0.000206949
0.000184914
3.09473e-05
3.08352e-05
0.000187858
0.000208831
0.000223131
0.000191126
3.06156e-05
3.06031e-05
0.000194124
0.000223596
0.000237467
0.000197475
3.04335e-05
3.04799e-05
0.000200387
0.000237878
0.000251202
0.000203635
3.03679e-05
3.04355e-05
0.000206437
0.000251343
0.000264094
0.000209624
3.03785e-05
3.04555e-05
0.00021229
0.000263994
0.000276092
0.000215181
3.04157e-05
3.05124e-05
0.000217572
0.000275528
0.000286757
0.000220313
3.05406e-05
3.05865e-05
0.000222506
0.000286162
0.00029656
0.000225057
3.0606e-05
3.06705e-05
0.000226975
0.000295772
0.000305522
0.00022937
3.06889e-05
3.07536e-05
0.000230966
0.000304535
0.000313531
0.000233137
3.07736e-05
3.08447e-05
0.000234484
0.000312373
0.000320901
0.000236508
3.08571e-05
3.09255e-05
0.000237537
0.000319551
0.00032742
0.000239345
3.09331e-05
3.09983e-05
0.000240169
0.000325943
0.000333486
0.000241861
3.1e-05
3.10627e-05
0.000242418
0.000331866
0.000338879
0.000243909
3.10614e-05
3.11211e-05
0.000244325
0.000337181
0.000344004
0.000245729
3.11156e-05
3.11725e-05
0.000245926
0.000342177
0.000348593
0.000247165
3.11651e-05
3.12193e-05
0.000247269
0.00034672
0.00035305
0.000248451
3.12091e-05
3.1261e-05
0.00024838
0.000351058
0.00035705
0.000249424
3.12497e-05
3.12993e-05
0.00024931
0.000355034
0.000361075
0.000250332
3.12861e-05
3.13345e-05
0.000250095
0.000358917
0.00036476
0.00025101
3.13205e-05
3.13675e-05
0.000250767
0.000362529
0.000368408
0.000251675
3.13517e-05
3.13978e-05
0.000251326
0.000366036
0.000371726
0.000252138
3.13813e-05
3.14264e-05
0.000251805
0.000369317
0.00037507
0.000252622
3.14086e-05
3.14537e-05
0.00025221
0.000372569
0.000378147
0.000252942
3.14362e-05
3.1482e-05
0.00025256
0.000375603
0.000381254
0.000253309
3.14642e-05
3.15112e-05
0.000252861
0.000378644
0.000384135
0.000253533
3.14952e-05
3.15438e-05
0.000253122
0.00038148
0.000387041
0.000253822
3.15279e-05
3.15771e-05
0.000253361
0.000384311
0.000389705
0.000253991
3.15632e-05
3.16135e-05
0.000253568
0.000386928
0.000392299
0.000254227
3.15994e-05
3.16495e-05
0.000253759
0.000389462
0.00039476
0.000254354
3.16371e-05
3.16881e-05
0.000253928
0.000391823
0.000397191
0.000254555
3.16754e-05
3.17256e-05
0.000254087
0.000394195
0.000399417
0.000254656
3.17147e-05
3.17661e-05
0.000254238
0.000396436
0.000401355
0.000254842
3.17549e-05
3.18054e-05
0.000254381
0.000398582
0.000402666
0.000254937
3.17963e-05
3.18484e-05
0.000254524
0.000400605
0.00040389
0.000255114
3.18392e-05
3.189e-05
0.000254655
0.000402493
0.000405024
0.000255195
3.18829e-05
3.19352e-05
0.00025478
0.000404292
0.0004061
0.000255353
3.1928e-05
3.19786e-05
0.000254892
0.000405985
0.00040711
0.000255419
3.19735e-05
3.20258e-05
0.000255002
0.000407579
0.000408081
0.000255563
3.20205e-05
3.2071e-05
0.000255102
0.000409157
0.000409
0.000255619
3.20678e-05
3.21198e-05
0.000255204
0.000410615
0.00040989
0.000255756
3.21166e-05
3.21666e-05
0.000255298
0.000412073
0.000410739
0.000255807
3.21655e-05
3.2217e-05
0.000255396
0.000413414
0.000411566
0.000255943
3.22161e-05
3.22657e-05
0.000255493
0.000414364
0.000412333
0.000255997
3.22666e-05
3.23173e-05
0.000255594
0.00041526
0.000413063
0.000256135
3.23186e-05
3.23674e-05
0.000255694
0.000415869
0.000413729
0.000256191
3.23705e-05
3.24199e-05
0.000255796
0.000416673
0.000414383
0.000256335
3.24233e-05
3.24708e-05
0.000255901
0.000417214
0.000414993
0.000256396
3.24759e-05
3.25233e-05
0.00025601
0.000417966
0.000415599
0.000256551
3.25285e-05
3.2574e-05
0.000256129
0.000418461
0.000416174
0.000256627
3.25805e-05
3.26252e-05
0.000256264
0.000419179
0.000416752
0.000256804
3.26318e-05
3.26746e-05
0.000256397
0.000419646
0.000417303
0.000256897
3.2682e-05
3.27235e-05
0.000256551
0.00042034
0.000417857
0.000257095
3.27306e-05
3.27703e-05
0.000256701
0.000420782
0.000418393
0.000257203
3.27779e-05
3.2816e-05
0.000256869
0.000421465
0.000418942
0.00025742
3.28233e-05
3.28603e-05
0.000257041
0.000421899
0.000419469
0.000257549
3.28684e-05
3.29043e-05
0.000257222
0.000422571
0.000420009
0.000257791
3.29122e-05
3.29477e-05
0.000257421
0.000422997
0.000420535
0.000257943
3.29568e-05
3.29917e-05
0.000257624
0.00042367
0.000421075
0.000258207
3.30012e-05
3.3036e-05
0.000257846
0.00042409
0.000421593
0.00025838
3.30474e-05
3.30821e-05
0.000258069
0.000424756
0.000422135
0.000258659
3.30948e-05
3.31292e-05
0.000258304
0.000425185
0.000422672
0.000258847
3.31442e-05
3.31775e-05
0.000258542
0.000425869
0.00042323
0.000259145
3.31931e-05
3.32253e-05
0.000258802
0.000426303
0.000423764
0.000259359
3.32435e-05
3.32729e-05
0.000259067
0.000426991
0.000424334
0.000259674
3.32894e-05
3.33158e-05
0.00025935
0.000427439
0.000424876
0.00025991
3.33339e-05
3.33566e-05
0.000259636
0.000428125
0.000425442
0.000260244
3.33715e-05
3.33913e-05
0.000259953
0.000428569
0.000425981
0.000260507
3.34082e-05
3.34252e-05
0.000260258
0.000429254
0.000426546
0.000260857
3.3439e-05
3.34537e-05
0.000260591
0.000429696
0.000427088
0.000261139
3.34697e-05
3.34826e-05
0.000260915
0.000430384
0.000427654
0.000261501
3.34957e-05
3.35064e-05
0.000261247
0.000430821
0.000428192
0.000261795
3.35216e-05
3.35318e-05
0.000261587
0.000431504
0.000428754
0.000262167
3.35428e-05
3.35517e-05
0.000261918
0.000431935
0.000429282
0.000262465
3.35642e-05
3.35732e-05
0.000262265
0.000432607
0.000429833
0.000262844
3.35815e-05
3.35889e-05
0.000262599
0.000433026
0.000430353
0.000263142
3.35984e-05
3.36067e-05
0.000262946
0.00043369
0.000430897
0.000263523
3.36116e-05
3.36193e-05
0.000263281
0.000434102
0.000431409
0.000263822
3.36254e-05
3.36338e-05
0.000263627
0.000434756
0.000431942
0.000264201
3.36354e-05
3.36431e-05
0.000263958
0.000435154
0.000432438
0.000264496
3.36463e-05
3.36547e-05
0.0002643
0.00043579
0.000432953
0.000264871
3.36535e-05
3.3661e-05
0.000264628
0.000436166
0.00043343
0.000265161
3.36616e-05
3.36699e-05
0.000264966
0.000436787
0.000433933
0.000265532
3.36663e-05
3.36736e-05
0.000265287
0.000437158
0.00043441
0.000265817
3.3672e-05
3.36798e-05
0.00026562
0.00043778
0.00043488
0.000266173
3.36742e-05
3.368e-05
0.000265945
0.000438191
0.000435441
0.000266523
3.36772e-05
3.37042e-05
0.000266515
0.000438666
0.000435949
0.000267011
3.37173e-05
3.37209e-05
0.000266823
0.000439224
0.000436369
0.000267381
3.37208e-05
3.37325e-05
0.000267348
0.000440079
0.000436729
0.000268483
3.38699e-05
3.40167e-05
0.000268593
0.000443232
0.000447821
0.000272037
3.47347e-05
3.56382e-05
0.000275094
0.000454197
0.00048576
0.000287066
3.82025e-05
4.0441e-05
0.000302039
0.000503439
0.000525691
0.000321304
4.30741e-05
0.000551616
0.00041754
0.000361644
0.000318778
0.00031788
0.000404453
0.000424443
0.000405806
0.000781467
0.000727693
0.000719082
0.00071748
0.000732704
0.000762288
0.000796921
0.000828703
0.000851968
0.000857822
0.000838832
0.00081583
0.000795556
0.000778303
0.000763785
0.000751452
0.000741202
0.000732627
0.000726124
0.000720914
0.000717876
0.000715431
0.000714943
0.00071665
0.000717391
0.000719018
0.000719915
0.000721701
0.000722696
0.000724555
0.000725618
0.000727563
0.000728706
0.000730762
0.000732008
0.000734201
0.000735594
0.000737996
0.000739551
0.000742102
0.000743757
0.000746426
0.000748217
0.000751009
0.000752969
0.000755867
0.000757983
0.000760943
0.000763144
0.000766118
0.000768354
0.000771333
0.000773619
0.000776704
0.000779325
0.000783086
0.000786958
0.000792715
0.000799467
0.000809013