/*--------------------------------*- C++ -*----------------------------------*\
| =========                 |                                                 |
| \\      /  F ield         | OpenFOAM: The Open Source CFD Toolbox           |
|  \\    /   O peration     | Version:  v2006                                 |
|   \\  /    A nd           | Website:  www.openfoam.com                      |
|    \\/     M anipulation  |                                                 |
\*---------------------------------------------------------------------------*/
FoamFile
{
    version     2.0;
    format      ascii;
    class       volScalarField;
    location    "0.058";
    object      rho;
}
// * * * * * * * * * * * * * * * * * * * * * * * * * * * * * * * * * * * * * //

dimensions      [1 -3 0 0 0 0 0];


internalField   nonuniform List<scalar> 
9148
(
1.71417
1.71422
1.71418
1.71422
1.7142
1.71424
1.71432
1.71442
1.71454
1.71466
1.71479
1.71492
1.71506
1.71521
1.71537
1.71553
1.71571
1.71589
1.71608
1.71628
1.71649
1.71671
1.71693
1.71715
1.71739
1.71763
1.71787
1.71812
1.71837
1.71862
1.71888
1.71914
1.7194
1.71966
1.71992
1.72018
1.72044
1.72069
1.72095
1.7212
1.72145
1.72169
1.72193
1.72216
1.72239
1.72262
1.72283
1.72304
1.72324
1.72343
1.72362
1.72379
1.72396
1.72412
1.72427
1.7244
1.72453
1.72464
1.72474
1.72483
1.72489
1.72495
1.72499
1.72501
1.72498
1.725
1.72503
1.72509
1.72526
1.72552
1.72564
1.72552
1.72524
1.72552
1.72555
1.72546
1.72538
1.72504
1.72486
1.72525
1.72536
1.72525
1.72512
1.7247
1.72459
1.72501
1.72516
1.72509
1.72493
1.7245
1.72444
1.72486
1.72503
1.72499
1.72482
1.7244
1.72437
1.72478
1.72496
1.72494
1.72475
1.72436
1.72435
1.72473
1.72492
1.72492
1.72473
1.72436
1.72438
1.72473
1.72492
1.72493
1.72474
1.7244
1.72443
1.72476
1.72494
1.72497
1.72479
1.72447
1.72451
1.72481
1.72499
1.72503
1.72485
1.72456
1.72461
1.72489
1.72507
1.72511
1.72494
1.72468
1.72474
1.72499
1.72516
1.72522
1.72506
1.72481
1.72488
1.72512
1.72528
1.72535
1.72519
1.72497
1.72505
1.72526
1.72542
1.7255
1.72535
1.72515
1.72524
1.72543
1.72558
1.72568
1.72554
1.72535
1.72545
1.72563
1.72577
1.72587
1.72574
1.72557
1.72568
1.72584
1.72597
1.72609
1.72596
1.72581
1.72593
1.72607
1.7262
1.72632
1.72621
1.72607
1.7262
1.72632
1.72644
1.72657
1.72646
1.72635
1.72648
1.72659
1.7267
1.72684
1.72674
1.72664
1.72678
1.72688
1.72698
1.72713
1.72704
1.72695
1.7271
1.72718
1.72727
1.72744
1.72735
1.72728
1.72745
1.72751
1.72759
1.72777
1.72769
1.72764
1.72782
1.72787
1.72794
1.72813
1.72807
1.72802
1.72822
1.72825
1.72832
1.72852
1.72847
1.72844
1.72865
1.72867
1.72873
1.72895
1.7289
1.72889
1.72912
1.72912
1.72916
1.7294
1.72936
1.72936
1.7296
1.72959
1.72962
1.72987
1.72984
1.72985
1.7301
1.73008
1.7301
1.73036
1.73034
1.73036
1.73062
1.73059
1.7306
1.73087
1.73086
1.7309
1.73118
1.73113
1.73113
1.73142
1.73142
1.73147
1.73177
1.7317
1.7317
1.732
1.73201
1.73207
1.7324
1.73232
1.7323
1.73262
1.73264
1.73272
1.73307
1.73298
1.73295
1.7333
1.73333
1.73342
1.73381
1.7337
1.73366
1.73403
1.73408
1.73418
1.7346
1.73449
1.73443
1.73482
1.73488
1.73499
1.73543
1.73532
1.73525
1.73566
1.73573
1.73583
1.73631
1.7362
1.73611
1.73652
1.73662
1.73673
1.73739
1.73728
1.73707
1.73721
1.73674
1.73506
1.73425
1.73485
1.73671
1.73528
1.73452
1.73439
1.73441
1.73459
1.73491
1.73508
1.73478
1.73454
1.73472
1.735
1.7353
1.73532
1.73511
1.73498
1.73523
1.73528
1.7353
1.73516
1.73515
1.73505
1.73525
1.7353
1.73533
1.73521
1.73519
1.73515
1.7353
1.73535
1.73539
1.73531
1.73529
1.73521
1.73535
1.73543
1.73545
1.73541
1.7354
1.73534
1.73542
1.73548
1.73548
1.73548
1.73549
1.73545
1.7355
1.73551
1.73549
1.73543
1.73548
1.73551
1.7355
1.73542
1.73537
1.73532
1.73535
1.73545
1.7354
1.7353
1.7353
1.73529
1.73526
1.73528
1.73518
1.73524
1.73532
1.73534
1.73527
1.73514
1.73516
1.73527
1.7353
1.73524
1.73523
1.7352
1.73516
1.73516
1.73517
1.73513
1.73511
1.7351
1.73505
1.73506
1.73509
1.73507
1.73504
1.735
1.73497
1.73503
1.73507
1.7351
1.73504
1.73497
1.735
1.7351
1.73515
1.73521
1.73516
1.73505
1.73512
1.73523
1.73528
1.73537
1.73532
1.73521
1.73531
1.73543
1.73547
1.73559
1.73555
1.73543
1.73558
1.73569
1.73573
1.73587
1.73584
1.73573
1.73588
1.73599
1.73601
1.73616
1.73614
1.73604
1.7362
1.73629
1.7363
1.73643
1.73643
1.73634
1.73647
1.73655
1.73655
1.73665
1.73666
1.73659
1.73667
1.73674
1.73673
1.73679
1.73681
1.73674
1.73677
1.73685
1.73684
1.73687
1.73687
1.73679
1.73676
1.73684
1.73685
1.7367
1.73645
1.73635
1.73635
1.73636
1.73636
1.73637
1.7364
1.73641
1.73642
1.73644
1.73647
1.73652
1.73659
1.73669
1.73681
1.73693
1.73704
1.73711
1.73711
1.73715
1.73708
1.73705
1.737
1.73701
1.73702
1.73696
1.73732
1.73675
1.73701
1.73559
1.73496
1.74246
1.7381
1.73665
1.7366
1.7369
1.73713
1.73735
1.73724
1.73708
1.73686
1.73692
1.73671
1.73702
1.73688
1.73679
1.73689
1.73665
1.73704
1.73668
1.73745
1.73624
1.73663
1.73651
1.73651
1.73669
1.73651
1.73654
1.7365
1.73672
1.73598
1.73637
1.7362
1.7362
1.73639
1.7367
1.73558
1.73547
1.73588
1.73633
1.73657
1.7366
1.7372
1.73571
1.73418
1.73737
1.73652
1.73655
1.73749
1.73509
1.73487
1.73737
1.73655
1.7365
1.73714
1.73549
1.73531
1.73651
1.73651
1.73651
1.73619
1.73626
1.73572
1.73689
1.73636
1.7364
1.73632
1.73596
1.7365
1.73598
1.73646
1.73642
1.73644
1.73626
1.73573
1.73677
1.73632
1.73629
1.73662
1.7357
1.73583
1.73645
1.73628
1.7363
1.73627
1.7362
1.7366
1.73606
1.73638
1.73638
1.73626
1.73644
1.73634
1.7364
1.7364
1.73651
1.7365
1.73646
1.73662
1.73665
1.73665
1.73681
1.73681
1.73678
1.73695
1.73699
1.73698
1.73719
1.73719
1.73711
1.73719
1.73737
1.7374
1.73764
1.73759
1.7372
1.73717
1.73785
1.73792
1.7383
1.73822
1.73707
1.73714
1.73859
1.73863
1.73889
1.73907
1.73544
1.73911
1.73884
1.73879
1.73896
1.73905
1.73913
1.73939
1.73928
1.73916
1.73933
1.73949
1.73969
1.74025
1.73968
1.7394
1.73973
1.7399
1.74209
1.74011
1.73975
1.73947
1.73964
1.73998
1.74043
1.7393
1.73931
1.73915
1.73865
1.73913
1.73992
1.73783
1.73697
1.73607
1.73394
1.73365
1.7345
1.72637
1.72703
1.72944
1.715
1.71603
1.71172
1.69361
1.70395
1.7056
1.68739
1.68769
1.66842
1.65395
1.67299
1.68087
1.6786
1.67423
1.66744
1.67574
1.68124
1.68455
1.68609
1.6822
1.67736
1.67997
1.68288
1.68551
1.69118
1.68942
1.68667
1.68868
1.68994
1.69158
1.69595
1.69467
1.69288
1.6936
1.69441
1.69577
1.69961
1.69853
1.69736
1.69796
1.699
1.69991
1.69984
1.69966
1.69874
1.70183
1.70194
1.70296
1.70249
1.70195
1.70195
1.70409
1.70438
1.70485
1.70489
1.70451
1.7043
1.70406
1.70436
1.70499
1.70682
1.70656
1.70594
1.70577
1.7061
1.70652
1.708
1.70783
1.70735
1.70719
1.70737
1.70768
1.70914
1.70899
1.70852
1.7086
1.70867
1.70896
1.70901
1.70876
1.70837
1.70953
1.7104
1.70985
1.7097
1.70984
1.70832
1.70971
1.71078
1.71063
1.71034
1.71034
1.70897
1.71065
1.71144
1.71131
1.71081
1.71057
1.7101
1.71131
1.71172
1.71175
1.71127
1.71108
1.7109
1.71159
1.71208
1.71217
1.71188
1.71168
1.71146
1.711
1.71125
1.71161
1.7124
1.71265
1.71197
1.71127
1.71187
1.71193
1.7126
1.71269
1.71204
1.71104
1.71184
1.71199
1.71276
1.71277
1.71209
1.7116
1.71206
1.71224
1.7128
1.7128
1.71225
1.7115
1.71188
1.71211
1.71294
1.71295
1.71253
1.7118
1.71202
1.71226
1.71269
1.71257
1.7121
1.71148
1.71176
1.71202
1.71278
1.71277
1.71231
1.7115
1.71177
1.71204
1.71243
1.71234
1.71185
1.71121
1.71149
1.71173
1.7124
1.7124
1.71197
1.71113
1.7114
1.71163
1.712
1.71192
1.7114
1.71071
1.71102
1.71124
1.71189
1.7119
1.71144
1.71054
1.71084
1.71107
1.71139
1.71131
1.7107
1.70994
1.71032
1.71055
1.71123
1.71123
1.71075
1.70975
1.71005
1.71032
1.71084
1.71053
1.71015
1.70908
1.70923
1.70993
1.71041
1.70958
1.71033
1.70999
1.71005
1.71052
1.70915
1.7089
1.70924
1.70938
1.70923
1.70951
1.70858
1.70846
1.70863
1.70897
1.70917
1.70913
1.70823
1.70812
1.70792
1.70789
1.70849
1.70858
1.70761
1.70734
1.70694
1.70743
1.70795
1.70802
1.70718
1.70705
1.70673
1.70704
1.70756
1.70757
1.70645
1.70621
1.70575
1.70587
1.70663
1.7066
1.70552
1.70524
1.70469
1.70543
1.70596
1.70597
1.70596
1.70594
1.70514
1.70371
1.70429
1.70458
1.70502
1.70496
1.70423
1.70316
1.70369
1.70392
1.70444
1.70439
1.70375
1.70262
1.70309
1.7033
1.70348
1.70343
1.7028
1.70136
1.70193
1.70221
1.70258
1.70248
1.70183
1.70044
1.70093
1.70136
1.7016
1.70131
1.70124
1.70047
1.70143
1.70147
1.69995
1.69939
1.69893
1.69941
1.70002
1.70022
1.69905
1.69875
1.69838
1.69882
1.69937
1.69939
1.69818
1.69801
1.69762
1.69735
1.69812
1.69818
1.6968
1.69653
1.69592
1.69628
1.6973
1.69716
1.69573
1.69529
1.69455
1.69486
1.69586
1.6957
1.69563
1.6957
1.6947
1.69271
1.69345
1.69386
1.69422
1.69425
1.6934
1.69151
1.69238
1.69271
1.69299
1.69291
1.69193
1.69026
1.69108
1.69149
1.6916
1.69149
1.69069
1.68849
1.68935
1.68988
1.69003
1.6897
1.68946
1.68846
1.68974
1.68975
1.68786
1.6874
1.6866
1.68687
1.68782
1.68799
1.68642
1.68588
1.68515
1.6857
1.68643
1.68649
1.68487
1.68454
1.68388
1.68413
1.68498
1.68499
1.68334
1.68297
1.68219
1.68226
1.6832
1.68323
1.68124
1.68071
1.67965
1.68014
1.68085
1.68132
1.6811
1.68097
1.67955
1.67744
1.67844
1.67894
1.67884
1.6788
1.67763
1.67542
1.67635
1.67701
1.67675
1.67661
1.67523
1.67299
1.67406
1.67481
1.67507
1.67508
1.67381
1.67168
1.67267
1.67324
1.67293
1.67285
1.67151
1.6691
1.67013
1.67082
1.67052
1.6701
1.6689
1.66786
1.66969
1.66991
1.66731
1.66662
1.66512
1.66598
1.66741
1.66753
1.66552
1.66492
1.66379
1.66371
1.66499
1.66505
1.66272
1.66206
1.66098
1.65959
1.66127
1.66173
1.65933
1.65845
1.657
1.65854
1.65985
1.65985
1.65748
1.65687
1.65559
1.65479
1.65618
1.6567
1.65591
1.65585
1.65393
1.64941
1.65131
1.65243
1.65185
1.65155
1.64984
1.64719
1.64859
1.64938
1.64926
1.6492
1.64763
1.64476
1.64601
1.64657
1.64548
1.64533
1.64382
1.63953
1.64121
1.64222
1.64113
1.64051
1.63853
1.63583
1.63745
1.63839
1.63854
1.63853
1.63674
1.63357
1.63508
1.63574
1.6345
1.63446
1.63273
1.62782
1.62973
1.63083
1.62896
1.62821
1.62576
1.62255
1.62458
1.62572
1.62586
1.62588
1.62385
1.62016
1.62192
1.62281
1.62091
1.62094
1.61888
1.61275
1.61504
1.61646
1.61397
1.61307
1.61001
1.60641
1.60879
1.61045
1.60984
1.60998
1.60764
1.60624
1.60938
1.6089
1.60389
1.60294
1.60023
1.59648
1.59928
1.60012
1.59508
1.59306
1.58984
1.59225
1.59431
1.59464
1.59205
1.59103
1.58895
1.58321
1.5841
1.58535
1.58278
1.58302
1.58064
1.56883
1.57296
1.57551
1.57456
1.57396
1.5705
1.56651
1.56922
1.57047
1.56868
1.56911
1.56633
1.5576
1.56067
1.56273
1.55459
1.55244
1.5473
1.54168
1.54595
1.548
1.54804
1.54773
1.54448
1.53836
1.5418
1.54293
1.53629
1.53603
1.5317
1.51383
1.52133
1.52634
1.52181
1.52088
1.51631
1.51422
1.51619
1.51967
1.50883
1.50653
1.50281
1.48683
1.49478
1.49638
1.48649
1.48225
1.47441
1.47866
1.4817
1.48237
1.47723
1.47472
1.46763
1.44964
1.45751
1.46085
1.45055
1.445
1.43458
1.42789
1.43273
1.43694
1.42435
1.42267
1.41492
1.38833
1.40333
1.41015
1.39565
1.38928
1.37902
1.36889
1.37682
1.37972
1.36623
1.35655
1.33664
1.33694
1.3458
1.35018
1.32253
1.30989
1.28754
1.30051
1.31076
1.31829
1.31375
1.29952
1.26803
1.26282
1.2958
1.30793
1.30659
1.29497
1.25987
1.28664
1.31482
1.31909
1.35978
1.35755
1.33638
1.37172
1.38971
1.39469
1.41352
1.40637
1.38985
1.40272
1.41682
1.42511
1.4341
1.42482
1.41232
1.422
1.4326
1.44208
1.44861
1.43866
1.42948
1.43687
1.44451
1.45412
1.45855
1.44895
1.44267
1.44845
1.45373
1.46258
1.46609
1.45752
1.45326
1.458
1.46167
1.46943
1.47237
1.46498
1.46206
1.46608
1.46856
1.47517
1.47764
1.47157
1.46967
1.47306
1.47466
1.48002
1.48227
1.47742
1.47612
1.47898
1.4801
1.48445
1.48655
1.48256
1.48162
1.48409
1.48487
1.48844
1.4904
1.48707
1.48648
1.48866
1.48912
1.4921
1.494
1.49117
1.49083
1.49275
1.493
1.49554
1.4974
1.49491
1.49472
1.49643
1.49659
1.49883
1.50062
1.49839
1.49824
1.49978
1.49993
1.502
1.5037
1.50162
1.50145
1.50286
1.50307
1.50503
1.50664
1.50467
1.50443
1.5057
1.506
1.50787
1.50936
1.5075
1.50716
1.50835
1.50874
1.51052
1.51193
1.51015
1.50972
1.51084
1.51132
1.51301
1.5143
1.51262
1.51209
1.51315
1.5137
1.51527
1.51654
1.51495
1.51434
1.51534
1.51597
1.51739
1.51858
1.51711
1.51643
1.51738
1.51806
1.51936
1.52051
1.51914
1.51843
1.51933
1.52003
1.52123
1.52228
1.52102
1.52029
1.52114
1.52185
1.52295
1.52396
1.52279
1.52207
1.52287
1.52357
1.52456
1.52548
1.52443
1.52371
1.52447
1.52515
1.52604
1.52692
1.52597
1.52529
1.526
1.52665
1.52745
1.52823
1.52739
1.52674
1.5274
1.52801
1.52872
1.52948
1.52873
1.52812
1.52874
1.52931
1.52994
1.53061
1.52995
1.52938
1.52996
1.53049
1.53105
1.5317
1.53111
1.53058
1.53112
1.53161
1.53211
1.5327
1.53217
1.53169
1.53219
1.53264
1.53308
1.53365
1.53318
1.53273
1.5332
1.53362
1.53401
1.53452
1.5341
1.53369
1.53412
1.53451
1.53486
1.53536
1.53498
1.53459
1.53499
1.53535
1.53567
1.53612
1.53578
1.53543
1.53579
1.53613
1.53641
1.53685
1.53654
1.53621
1.53655
1.53686
1.53712
1.53752
1.53724
1.53693
1.53724
1.53753
1.53777
1.53817
1.5379
1.5376
1.5379
1.53818
1.5384
1.53876
1.53851
1.53823
1.5385
1.53876
1.53897
1.53932
1.53908
1.53881
1.53907
1.53932
1.53951
1.53983
1.53961
1.53936
1.53958
1.53983
1.54001
1.54033
1.54011
1.53986
1.54008
1.54032
1.54049
1.54078
1.54057
1.54033
1.54053
1.54076
1.54093
1.54121
1.54101
1.54078
1.54096
1.54119
1.54136
1.54162
1.54142
1.54119
1.54135
1.54158
1.54174
1.542
1.5418
1.54157
1.54173
1.54196
1.54212
1.54235
1.54216
1.54194
1.54208
1.5423
1.54246
1.54269
1.5425
1.54228
1.54241
1.54263
1.54279
1.54301
1.54282
1.5426
1.54272
1.54294
1.5431
1.54331
1.54312
1.5429
1.54302
1.54323
1.54339
1.54359
1.5434
1.54318
1.54328
1.5435
1.54366
1.54386
1.54367
1.54345
1.54355
1.54376
1.54392
1.5441
1.54392
1.5437
1.54379
1.544
1.54416
1.54434
1.54416
1.54394
1.54402
1.54424
1.5444
1.54457
1.54438
1.54416
1.54424
1.54445
1.54461
1.54478
1.5446
1.54438
1.54445
1.54466
1.54482
1.54498
1.54479
1.54458
1.54464
1.54485
1.54501
1.54517
1.54498
1.54477
1.54483
1.54504
1.5452
1.54535
1.54516
1.54495
1.545
1.54521
1.54537
1.54552
1.54533
1.54512
1.54517
1.54538
1.54554
1.54568
1.54549
1.54528
1.54532
1.54553
1.54569
1.54583
1.54564
1.54544
1.54548
1.54569
1.54584
1.54598
1.54578
1.54558
1.54562
1.54582
1.54598
1.54612
1.54592
1.54572
1.54575
1.54596
1.54612
1.54624
1.54605
1.54585
1.54588
1.54608
1.54625
1.54637
1.54618
1.54597
1.546
1.54621
1.54637
1.54649
1.54629
1.54609
1.54611
1.54632
1.54648
1.5466
1.5464
1.5462
1.54622
1.54643
1.54659
1.5467
1.54651
1.54631
1.54633
1.54653
1.5467
1.5468
1.54661
1.54641
1.54643
1.54663
1.5468
1.5469
1.5467
1.5465
1.54652
1.54672
1.54689
1.54699
1.54679
1.5466
1.54661
1.54681
1.54698
1.54708
1.54688
1.54668
1.54669
1.54689
1.54707
1.54716
1.54696
1.54676
1.54677
1.54698
1.54715
1.54724
1.54704
1.54684
1.54685
1.54705
1.54722
1.54731
1.54711
1.54692
1.54692
1.54712
1.5473
1.54738
1.54718
1.54699
1.54699
1.54719
1.54737
1.54745
1.54725
1.54705
1.54706
1.54726
1.54744
1.54752
1.54731
1.54712
1.54712
1.54732
1.5475
1.54757
1.54737
1.54718
1.54718
1.54738
1.54756
1.54763
1.54743
1.54724
1.54723
1.54743
1.54761
1.54769
1.54749
1.54729
1.54729
1.54749
1.54767
1.54774
1.54754
1.54734
1.54734
1.54754
1.54772
1.54779
1.54759
1.54739
1.54739
1.54759
1.54777
1.54784
1.54763
1.54744
1.54743
1.54763
1.54781
1.54788
1.54767
1.54748
1.54747
1.54767
1.54786
1.54792
1.54771
1.54752
1.54751
1.54771
1.54789
1.54795
1.54775
1.54755
1.54754
1.54774
1.54793
1.54799
1.54778
1.54758
1.54757
1.54777
1.54795
1.54801
1.5478
1.54761
1.54759
1.54779
1.54798
1.54804
1.54783
1.54763
1.54761
1.54781
1.548
1.54805
1.54785
1.54765
1.54763
1.54783
1.54802
1.54807
1.54786
1.54767
1.54765
1.54784
1.54803
1.54808
1.54788
1.54768
1.54766
1.54786
1.54805
1.5481
1.54789
1.5477
1.54768
1.54787
1.54807
1.54813
1.54791
1.54773
1.5477
1.5479
1.5481
1.54816
1.54794
1.54775
1.54772
1.54793
1.54812
1.54822
1.54799
1.5478
1.54779
1.548
1.54821
1.54833
1.5481
1.5479
1.54791
1.54814
1.54834
1.54851
1.54826
1.54803
1.54809
1.5483
1.54857
1.54922
1.54878
1.54851
1.54941
1.54964
1.5501
1.55014
1.5498
1.54967
1.55064
1.55367
1.55467
1.55458
1.55761
1.56064
1.56127
1.56115
1.56339
1.56516
1.56664
1.56768
1.56866
1.56953
1.57026
1.57081
1.57119
1.57145
1.57162
1.57174
1.57181
1.57186
1.57189
1.57191
1.57192
1.57191
1.5719
1.57188
1.57186
1.57186
1.57184
1.57184
1.57194
1.57199
1.57203
1.5721
1.57218
1.57228
1.5724
1.57256
1.57274
1.57295
1.57318
1.57341
1.57362
1.57377
1.57385
1.5739
1.57398
1.57409
1.57422
1.57436
1.57451
1.57468
1.57486
1.57505
1.57527
1.57551
1.57579
1.57611
1.57648
1.5769
1.57738
1.57793
1.57855
1.57926
1.58006
1.58096
1.58197
1.5831
1.58436
1.58575
1.5873
1.589
1.59086
1.59289
1.59509
1.59746
1.59999
1.60268
1.60552
1.6085
1.61161
1.61482
1.61812
1.62149
1.6249
1.62834
1.63179
1.63523
1.63864
1.64201
1.64532
1.64855
1.65171
1.65478
1.65775
1.66062
1.66339
1.66605
1.6686
1.67105
1.67339
1.67563
1.67776
1.6798
1.68174
1.68358
1.68534
1.68701
1.68859
1.6901
1.69153
1.69288
1.69417
1.69539
1.69655
1.69765
1.6987
1.69969
1.70062
1.70151
1.70236
1.70315
1.70391
1.70462
1.7053
1.70594
1.70654
1.70711
1.70765
1.70816
1.70865
1.7091
1.70953
1.70994
1.71032
1.71068
1.71102
1.71134
1.71163
1.71191
1.71217
1.71241
1.71263
1.71283
1.71302
1.71319
1.71335
1.71348
1.7136
1.71371
1.71381
1.71392
1.71407
1.71416
1.7142
1.71418
1.71426
1.71449
1.71464
1.71475
1.71484
1.71493
1.71503
1.71514
1.71526
1.71539
1.71553
1.71567
1.71583
1.716
1.71618
1.71637
1.71657
1.71678
1.71699
1.71721
1.71744
1.71767
1.71791
1.71816
1.71841
1.71866
1.71891
1.71916
1.71942
1.71968
1.71993
1.72019
1.72045
1.7207
1.72095
1.7212
1.72145
1.72169
1.72193
1.72216
1.72238
1.7226
1.72282
1.72302
1.72322
1.72341
1.72358
1.72375
1.72391
1.72406
1.7242
1.72433
1.72445
1.72456
1.72467
1.72477
1.72487
1.72494
1.72499
1.72509
1.7252
1.72523
1.72523
1.72518
1.72514
1.72511
1.72509
1.72508
1.72507
1.72508
1.72509
1.7251
1.72512
1.72514
1.72517
1.72521
1.72525
1.7253
1.72535
1.7254
1.72546
1.72553
1.7256
1.72568
1.72576
1.72585
1.72595
1.72605
1.72615
1.72626
1.72637
1.72648
1.7266
1.72673
1.72686
1.72699
1.72713
1.72727
1.72742
1.72757
1.72773
1.7279
1.72807
1.72825
1.72844
1.72864
1.72884
1.72905
1.72927
1.72949
1.72972
1.72995
1.73018
1.73043
1.73068
1.73093
1.73119
1.73147
1.73175
1.73204
1.73234
1.73265
1.73297
1.73331
1.73366
1.73403
1.73441
1.7348
1.73521
1.73561
1.73603
1.73642
1.73681
1.73705
1.7371
1.73694
1.73656
1.73637
1.73649
1.73641
1.73563
1.73515
1.7353
1.73516
1.73542
1.73527
1.73544
1.73534
1.73543
1.73542
1.73547
1.73541
1.73538
1.73533
1.73532
1.73533
1.73535
1.73536
1.73531
1.73524
1.73519
1.73514
1.73512
1.73511
1.73511
1.73514
1.73519
1.73524
1.73531
1.73539
1.73549
1.7356
1.73573
1.73586
1.73599
1.73613
1.73626
1.73637
1.73647
1.73656
1.73661
1.73665
1.73669
1.73672
1.73648
1.73638
1.73638
1.73647
1.73646
1.73637
1.73634
1.73644
1.73642
1.73631
1.73622
1.73636
1.73639
1.73639
1.73639
1.73637
1.73632
1.73625
1.73632
1.73637
1.73636
1.73629
1.7362
1.73608
1.73588
1.73607
1.73623
1.73634
1.73626
1.73614
1.73605
1.73615
1.73604
1.73593
1.73585
1.73565
1.73584
1.73592
1.7358
1.73571
1.73562
1.73569
1.73557
1.73551
1.73547
1.73533
1.73544
1.73547
1.73538
1.73535
1.73529
1.73531
1.73524
1.73522
1.73522
1.73514
1.7352
1.7352
1.73515
1.73514
1.73513
1.73513
1.73511
1.7351
1.73509
1.73508
1.73513
1.73512
1.73514
1.73512
1.73518
1.73518
1.73523
1.7352
1.73515
1.73524
1.73528
1.73529
1.73532
1.73529
1.73534
1.73533
1.73532
1.73534
1.73533
1.73533
1.73541
1.73534
1.73535
1.73538
1.73551
1.73542
1.73543
1.73533
1.73554
1.73575
1.73549
1.73549
1.73537
1.73497
1.73527
1.73535
1.73518
1.73466
1.73563
1.73634
1.73547
1.73531
1.73505
1.73482
1.73586
1.73525
1.73523
1.73568
1.73714
1.73751
1.73735
1.73582
1.73591
1.73708
1.73788
1.73705
1.73719
1.73737
1.73745
1.73722
1.73754
1.7372
1.73709
1.73716
1.73722
1.73715
1.73709
1.73698
1.73692
1.73661
1.73697
1.73704
1.73688
1.7367
1.7366
1.73666
1.73632
1.7362
1.73618
1.73563
1.73598
1.73597
1.73558
1.73553
1.73527
1.7352
1.73481
1.73482
1.73501
1.73436
1.73454
1.73444
1.73406
1.73411
1.73384
1.73371
1.73336
1.73344
1.73372
1.73311
1.73319
1.73304
1.73272
1.73281
1.73257
1.73241
1.73212
1.73222
1.73252
1.73197
1.732
1.73183
1.73156
1.73166
1.73145
1.73129
1.73103
1.73114
1.73145
1.73096
1.73094
1.73077
1.73053
1.73064
1.73046
1.73028
1.73005
1.73017
1.73048
1.73003
1.72999
1.72982
1.7296
1.72972
1.72955
1.72938
1.72916
1.72928
1.72959
1.72918
1.72912
1.72896
1.72875
1.72887
1.72872
1.72856
1.72837
1.72849
1.72878
1.72842
1.72835
1.7282
1.72802
1.72813
1.72801
1.72786
1.72769
1.72781
1.72808
1.72777
1.72769
1.72755
1.72739
1.72751
1.7274
1.72726
1.72711
1.72723
1.72748
1.72721
1.72713
1.72699
1.72685
1.72696
1.72687
1.72674
1.72661
1.72672
1.72695
1.72671
1.72663
1.7265
1.72638
1.72648
1.7264
1.72628
1.72617
1.72627
1.72648
1.72627
1.7262
1.72608
1.72597
1.72607
1.726
1.72589
1.7258
1.72589
1.72608
1.72591
1.72583
1.72573
1.72565
1.72573
1.72568
1.72558
1.72551
1.72559
1.72576
1.72562
1.72555
1.72546
1.7254
1.72548
1.72544
1.72536
1.72531
1.72538
1.72551
1.72541
1.72535
1.72527
1.72523
1.72529
1.72527
1.72521
1.72518
1.72523
1.72533
1.72526
1.72522
1.72516
1.72515
1.72519
1.72518
1.72514
1.72513
1.72516
1.72521
1.72518
1.72517
1.72514
1.72515
1.72517
1.72518
1.72517
1.7252
1.72519
1.72515
1.72508
1.72518
1.72525
1.72532
1.72541
1.7255
1.72561
1.72573
1.72587
1.72602
1.7262
1.72639
1.7266
1.72682
1.72706
1.72731
1.72758
1.72786
1.72817
1.72849
1.72885
1.72923
1.72963
1.73005
1.73049
1.73095
1.73142
1.73192
1.73244
1.73299
1.73356
1.73416
1.73476
1.73533
1.73586
1.73632
1.73672
1.73709
1.7374
1.73762
1.73771
1.73764
1.73729
1.73663
1.73591
1.7357
1.73544
1.7353
1.73517
1.73507
1.73505
1.73507
1.73513
1.73521
1.73533
1.73548
1.73566
1.73548
1.7357
1.73594
1.73614
1.73625
1.73636
1.73634
1.73623
1.7361
1.73606
1.7362
1.73633
1.73634
1.73621
1.73606
1.73586
1.73562
1.73568
1.73589
1.73606
1.73621
1.73635
1.73639
1.73625
1.73611
1.73617
1.73631
1.73645
1.73654
1.73642
1.73628
1.73604
1.73585
1.73563
1.73546
1.7354
1.73523
1.73531
1.73518
1.7351
1.73506
1.73512
1.73515
1.73529
1.73542
1.73525
1.73513
1.73507
1.73507
1.73505
1.73505
1.73505
1.73508
1.73512
1.73508
1.73514
1.73518
1.73522
1.73514
1.7351
1.73515
1.73511
1.73532
1.73532
1.73545
1.73565
1.73588
1.73614
1.73633
1.73642
1.73655
1.73664
1.73676
1.73667
1.73655
1.73674
1.73682
1.73687
1.73692
1.73686
1.73679
1.73666
1.73646
1.73671
1.73685
1.73692
1.7369
1.73692
1.73695
1.73703
1.73698
1.73707
1.737
1.73688
1.73687
1.73695
1.73687
1.73686
1.73685
1.7369
1.73686
1.73688
1.73683
1.73674
1.73679
1.73681
1.73666
1.73673
1.73687
1.73695
1.7369
1.73681
1.73671
1.73659
1.73644
1.73621
1.73599
1.73582
1.73573
1.736
1.73607
1.73607
1.73618
1.73622
1.73635
1.73648
1.73658
1.73668
1.73675
1.73681
1.73683
1.73688
1.73684
1.73691
1.73684
1.73663
1.73669
1.73676
1.73675
1.7368
1.73686
1.73682
1.73676
1.73669
1.73667
1.73665
1.73658
1.73653
1.73654
1.73661
1.73648
1.73645
1.73637
1.73631
1.73639
1.73643
1.73645
1.73641
1.73639
1.73636
1.73631
1.73623
1.73622
1.73619
1.73626
1.7361
1.7361
1.73574
1.73588
1.7354
1.73558
1.73524
1.73541
1.73581
1.73544
1.73528
1.73521
1.73536
1.73552
1.7361
1.7356
1.73617
1.73686
1.73714
1.73666
1.73595
1.73643
1.73695
1.73707
1.73673
1.73697
1.73685
1.73638
1.7359
1.73654
1.73616
1.73686
1.73665
1.73639
1.73629
1.73652
1.73634
1.73636
1.73634
1.73629
1.7363
1.73626
1.73629
1.73629
1.73632
1.73635
1.73636
1.73632
1.73632
1.7363
1.73633
1.73634
1.73637
1.7364
1.73651
1.73648
1.73654
1.73672
1.73677
1.73662
1.73694
1.73682
1.73674
1.73704
1.73717
1.73703
1.73714
1.73734
1.73757
1.7374
1.73757
1.73736
1.73767
1.73711
1.73741
1.73743
1.73803
1.73796
1.7383
1.73809
1.73797
1.7378
1.73807
1.73781
1.73824
1.73835
1.73859
1.73859
1.73876
1.73855
1.73869
1.7384
1.73856
1.73843
1.73884
1.73885
1.73911
1.73894
1.73908
1.73938
1.73921
1.7391
1.7389
1.73864
1.73823
1.73764
1.73707
1.73698
1.73667
1.73616
1.73519
1.73644
1.73744
1.73618
1.73797
1.73886
1.73792
1.73893
1.73916
1.7393
1.73872
1.73919
1.73791
1.73745
1.73713
1.7382
1.7383
1.73549
1.73413
1.73534
1.73474
1.73363
1.73485
1.73691
1.73896
1.7336
1.73045
1.72987
1.73191
1.73113
1.73142
1.72888
1.72718
1.72659
1.72523
1.72872
1.7139
1.72077
1.72153
1.72755
1.72727
1.73121
1.73247
1.73414
1.73518
1.73363
1.73351
1.73048
1.72651
1.72458
1.72252
1.718
1.71297
1.70776
1.70037
1.68964
1.69137
1.70025
1.70388
1.69718
1.69259
1.69101
1.69673
1.69537
1.69941
1.69852
1.70144
1.70176
1.70179
1.70392
1.704
1.70545
1.70582
1.706
1.70711
1.70719
1.70824
1.70828
1.7091
1.70919
1.70954
1.70991
1.71026
1.71056
1.7107
1.71111
1.71109
1.71148
1.7116
1.71192
1.71203
1.71211
1.71221
1.71233
1.71231
1.71228
1.71237
1.71239
1.71244
1.71235
1.71241
1.71239
1.71239
1.71223
1.71224
1.71213
1.71211
1.71192
1.71188
1.71171
1.71167
1.71144
1.71136
1.71114
1.71106
1.71081
1.71065
1.71036
1.71027
1.7099
1.70989
1.7102
1.71055
1.71069
1.71107
1.71105
1.71128
1.71142
1.71173
1.71168
1.71189
1.71196
1.71225
1.71217
1.71233
1.71235
1.71261
1.71251
1.7126
1.71258
1.71279
1.71264
1.71269
1.71262
1.71279
1.71255
1.7126
1.71247
1.71259
1.71232
1.71218
1.71253
1.71267
1.71277
1.71299
1.71282
1.71284
1.71291
1.71296
1.71283
1.71283
1.71283
1.71285
1.71268
1.71258
1.7124
1.71235
1.71213
1.71194
1.71217
1.71188
1.71153
1.7112
1.71123
1.71078
1.71045
1.71086
1.71047
1.71027
1.70966
1.70926
1.70912
1.70876
1.70871
1.70839
1.70816
1.70775
1.70769
1.70728
1.70699
1.70653
1.70629
1.70579
1.70566
1.7062
1.70668
1.70691
1.70729
1.70751
1.70795
1.70821
1.70851
1.70863
1.70906
1.70928
1.70953
1.7096
1.71002
1.70943
1.70895
1.70839
1.70785
1.70718
1.70663
1.7059
1.706
1.7054
1.70479
1.70459
1.70414
1.70376
1.70334
1.70293
1.70239
1.70205
1.70144
1.70128
1.70071
1.7001
1.69973
1.69922
1.69877
1.69822
1.69774
1.69714
1.69658
1.69586
1.69565
1.69617
1.69683
1.69726
1.69789
1.69837
1.69895
1.69944
1.69997
1.70037
1.7009
1.70131
1.70175
1.7022
1.70262
1.70311
1.70346
1.70389
1.70431
1.70475
1.70515
1.70537
1.705
1.70494
1.70413
1.70342
1.70427
1.70349
1.70257
1.70176
1.70263
1.70174
1.70086
1.70004
1.69898
1.69804
1.69688
1.69597
1.69569
1.6949
1.69414
1.6935
1.69296
1.69219
1.69152
1.69087
1.69009
1.68962
1.6903
1.68961
1.68878
1.68811
1.68729
1.68651
1.6858
1.68506
1.68425
1.6834
1.68259
1.68159
1.68107
1.67983
1.67904
1.67795
1.67709
1.67613
1.67519
1.67416
1.67326
1.67213
1.671
1.67017
1.67125
1.67038
1.66887
1.66772
1.66653
1.66549
1.66406
1.6627
1.6615
1.65987
1.65891
1.65739
1.65639
1.6542
1.65258
1.65113
1.64963
1.64797
1.64653
1.6444
1.64249
1.64076
1.63901
1.63727
1.63565
1.63313
1.6308
1.62881
1.62661
1.62464
1.62242
1.61973
1.61652
1.61438
1.61116
1.60982
1.6129
1.61076
1.60658
1.60326
1.60019
1.59642
1.59446
1.59053
1.58541
1.58202
1.57734
1.57482
1.57087
1.56628
1.56157
1.55634
1.55075
1.54766
1.54274
1.53602
1.52829
1.52594
1.51787
1.50795
1.50206
1.49082
1.48682
1.47652
1.47259
1.45501
1.4387
1.43958
1.4178
1.39976
1.40589
1.38201
1.36219
1.33989
1.3602
1.33959
1.33396
1.33503
1.34285
1.37332
1.40387
1.42288
1.43465
1.44426
1.45231
1.45965
1.4654
1.4708
1.47501
1.47946
1.48276
1.48658
1.48918
1.49245
1.49441
1.4972
1.49869
1.50117
1.50236
1.50462
1.50554
1.50757
1.50826
1.51012
1.51067
1.51243
1.51287
1.51453
1.51487
1.51647
1.51671
1.51822
1.5184
1.51987
1.51999
1.52136
1.52146
1.52279
1.52288
1.5241
1.52416
1.52535
1.52543
1.52648
1.52659
1.52761
1.52773
1.52863
1.52878
1.52965
1.52983
1.53058
1.5308
1.53155
1.53176
1.53242
1.53264
1.53331
1.53353
1.5341
1.53432
1.53491
1.53512
1.53563
1.53584
1.53635
1.53655
1.537
1.53721
1.53766
1.53785
1.53824
1.53844
1.53883
1.53901
1.53936
1.53954
1.53989
1.54006
1.54036
1.54052
1.54083
1.54098
1.54125
1.5414
1.54167
1.54181
1.54204
1.54217
1.54242
1.54254
1.54275
1.54286
1.54308
1.54319
1.54338
1.54348
1.54368
1.54378
1.54394
1.54404
1.54421
1.5443
1.54445
1.54453
1.5447
1.54477
1.54491
1.54498
1.54513
1.5452
1.54533
1.54539
1.54553
1.54558
1.5457
1.54575
1.54589
1.54593
1.54604
1.54609
1.54621
1.54625
1.54635
1.54639
1.5465
1.54654
1.54663
1.54666
1.54677
1.5468
1.54689
1.54691
1.54701
1.54703
1.54712
1.54713
1.54723
1.54725
1.54733
1.54734
1.54743
1.54744
1.54752
1.54752
1.54761
1.54762
1.54769
1.54769
1.54777
1.54778
1.54785
1.54784
1.54792
1.54792
1.54799
1.54798
1.54806
1.54805
1.54812
1.5481
1.54818
1.54817
1.54823
1.54822
1.54829
1.54828
1.54834
1.54832
1.54839
1.54837
1.54842
1.5484
1.54847
1.54844
1.5485
1.54847
1.54853
1.5485
1.54855
1.54852
1.54858
1.54855
1.54859
1.54856
1.54862
1.54859
1.54863
1.5486
1.54867
1.54864
1.54869
1.54867
1.54876
1.54877
1.54891
1.54892
1.54923
1.54918
1.54983
1.55063
1.55378
1.55305
1.55446
1.55159
1.5519
1.5531
1.55091
1.55128
1.55239
1.5506
1.55102
1.55212
1.55043
1.55088
1.55192
1.5504
1.55087
1.55195
1.55035
1.5508
1.55182
1.55034
1.55081
1.5519
1.5503
1.55076
1.55176
1.5503
1.55077
1.55189
1.55025
1.55072
1.55171
1.55026
1.55073
1.55185
1.55021
1.55067
1.55167
1.5502
1.55067
1.55181
1.55014
1.55061
1.55161
1.55013
1.5506
1.55175
1.55006
1.55053
1.55154
1.55005
1.55051
1.55168
1.54997
1.55044
1.55147
1.54995
1.55042
1.5516
1.54986
1.55034
1.55138
1.54984
1.55031
1.55151
1.54975
1.55022
1.55128
1.54971
1.55019
1.55141
1.54962
1.5501
1.55118
1.54958
1.55006
1.5513
1.54948
1.54996
1.55106
1.54943
1.54992
1.55118
1.54932
1.54982
1.55094
1.54927
1.54977
1.55105
1.54916
1.54965
1.55081
1.5491
1.5496
1.55092
1.54898
1.54948
1.55066
1.54891
1.54942
1.55077
1.54878
1.54929
1.5505
1.5487
1.54922
1.5506
1.54857
1.54908
1.55033
1.54848
1.54901
1.55043
1.54833
1.54886
1.55015
1.54824
1.54878
1.55024
1.54808
1.54862
1.54995
1.54797
1.54852
1.55003
1.54781
1.54835
1.54974
1.54768
1.54825
1.5498
1.54751
1.54807
1.54951
1.54738
1.54796
1.54956
1.54719
1.54777
1.54926
1.54705
1.54765
1.5493
1.54685
1.54744
1.54899
1.54669
1.54731
1.54902
1.54649
1.54709
1.5487
1.54631
1.54695
1.54872
1.54609
1.54672
1.54837
1.5459
1.54657
1.54838
1.54567
1.54631
1.54801
1.54546
1.54615
1.54802
1.54521
1.54587
1.54761
1.54498
1.54569
1.54761
1.54471
1.5454
1.54717
1.54445
1.5452
1.54715
1.54416
1.54488
1.54667
1.54388
1.54466
1.54664
1.54356
1.5443
1.5461
1.54325
1.54406
1.54605
1.5429
1.54368
1.54546
1.54256
1.5434
1.54537
1.54218
1.54298
1.54473
1.5418
1.54266
1.54459
1.54137
1.5422
1.54387
1.54097
1.54185
1.54371
1.54047
1.54131
1.54288
1.54001
1.54091
1.54266
1.53944
1.54027
1.54174
1.5389
1.5398
1.54143
1.53823
1.53905
1.5404
1.53758
1.53847
1.53998
1.5368