/*--------------------------------*- C++ -*----------------------------------*\
| =========                 |                                                 |
| \\      /  F ield         | OpenFOAM: The Open Source CFD Toolbox           |
|  \\    /   O peration     | Version:  v2006                                 |
|   \\  /    A nd           | Website:  www.openfoam.com                      |
|    \\/     M anipulation  |                                                 |
\*---------------------------------------------------------------------------*/
FoamFile
{
    version     2.0;
    format      ascii;
    class       volScalarField;
    location    "0.016";
    object      k;
}
// * * * * * * * * * * * * * * * * * * * * * * * * * * * * * * * * * * * * * //

dimensions      [0 2 -2 0 0 0 0];


internalField   nonuniform List<scalar> 
12716
(
137.357
137.357
137.36
137.36
137.361
137.359
137.357
137.341
137.272
137.096
136.797
136.408
135.971
135.516
135.052
134.581
134.099
133.603
133.092
132.564
132.02
131.459
130.88
130.284
129.672
129.045
128.402
127.746
127.078
126.398
125.707
125.007
124.299
123.585
122.865
122.142
121.417
120.692
119.968
119.246
118.529
117.818
117.114
116.419
115.735
115.063
114.405
113.764
113.139
112.534
111.947
111.377
110.82
110.272
109.733
109.212
108.747
108.396
108.206
108.162
108.191
108.239
108.278
108.292
108.252
108.109
107.802
107.266
106.139
104.354
95.1837
84.4936
99.259
104.768
101.764
92.1087
75.9511
68.7081
84.8281
97.6992
93.9844
79.1614
63.2408
58.7053
73.7808
89.9411
86.7725
70.0383
55.3795
52.4782
66.2546
83.2612
80.894
64.0003
50.461
48.479
61.1135
77.8886
76.114
59.6999
47.1463
45.6947
57.4699
73.5759
72.1796
56.5124
44.7388
43.6106
54.7109
69.993
68.8634
54.0188
42.8749
41.9619
52.5302
66.9491
66.0137
51.9755
41.3624
40.5966
50.733
64.3155
63.5318
50.2725
40.0882
39.4251
49.2084
62.0107
61.3451
48.8173
38.9817
38.3948
47.8882
59.9718
59.3954
47.5481
37.9982
37.4667
46.7223
58.1513
57.636
46.4194
37.104
36.614
45.6729
56.508
56.0414
45.3992
36.2765
35.8184
44.716
55.0087
54.5818
44.4652
35.5
35.0664
43.8324
53.6282
53.234
43.5995
34.7622
34.3469
43.0062
52.3458
51.9778
42.7864
34.0525
33.6507
42.2234
51.1424
50.7955
42.0135
33.3634
32.972
41.4744
50.004
49.6753
41.2724
32.6901
32.3069
40.7534
48.9221
48.6096
40.558
32.0288
31.6517
40.0561
47.8911
47.5931
39.8661
31.3759
31.0027
39.3784
46.9054
46.6198
39.1923
30.7277
30.3565
38.7157
45.9586
45.6835
38.5322
30.0809
29.71
38.0639
45.0448
44.7784
37.8818
29.4325
29.0602
37.4193
44.1588
43.8996
37.2376
28.7795
28.404
36.7784
43.2959
43.0423
36.5959
28.1188
27.7384
36.1376
42.4514
42.202
35.9532
27.4474
27.0605
35.4933
41.6211
41.3747
35.306
26.7624
26.3672
34.8424
40.8012
40.5565
34.6511
26.0608
25.6559
34.1817
39.9879
39.7439
33.9856
25.3402
24.9244
33.5086
39.1781
38.934
33.3071
24.5985
24.1707
32.8208
38.3692
38.1242
32.6131
23.8338
23.3928
32.116
37.5589
37.3124
31.9012
23.0439
22.5885
31.3918
36.7451
36.4962
31.1688
22.2263
21.7547
30.6448
35.9251
35.6728
30.4127
21.378
20.8886
29.872
35.0958
34.839
29.6296
20.496
19.9872
29.0699
34.2539
33.9915
28.816
19.5775
19.0478
28.2349
33.3959
33.1267
27.9684
18.6201
18.0686
27.3637
32.5182
32.2412
27.0839
17.6229
17.0494
26.4537
31.6173
31.3319
26.1603
16.5861
15.9914
25.5034
30.6909
30.3954
25.1947
15.5108
14.8957
24.5096
29.7344
29.4272
24.1838
14.3983
13.764
23.4682
28.7431
28.4232
23.1246
13.2509
12.5989
22.3766
27.7136
27.3793
22.0135
12.0711
11.4028
21.2297
26.6398
26.2894
20.8454
10.8617
10.1793
20.0236
25.5185
25.1526
19.6161
9.62647
8.93354
18.7642
24.3509
23.959
18.2809
8.35313
7.66507
17.4465
23.1489
22.6696
16.8245
7.0261
6.36032
15.9967
21.875
21.3245
15.2201
5.61056
4.89994
14.2702
20.4497
19.9457
13.4275
4.25946
2.93498
11.4045
18.8872
16.8353
9.26988
1.75678
1.56315
9.42905
15.9977
16.2983
11.1367
2.06197
2.6323
12.9684
17.3263
19.0728
13.7615
2.98486
3.1096
13.7021
19.8954
19.9588
13.4286
3.1844
3.1811
13.0864
19.7394
19.2749
12.6918
3.14725
2.96917
12.0686
18.5093
17.5861
11.2477
2.7213
2.38376
10.1493
16.2794
15.1067
9.37364
2.23814
2.20355
9.06119
14.5063
14.5061
9.16671
2.32878
2.52307
9.49892
14.7454
15.4931
10.1669
2.82118
3.00541
10.533
15.9541
16.3023
10.8606
3.20844
3.30191
10.8969
16.3012
16.2542
10.9065
3.40446
3.40272
10.6952
15.8891
15.5164
10.4506
3.39563
3.29181
9.87764
14.7009
14.1397
9.50445
3.23003
3.08261
8.87177
13.242
12.6139
8.4602
3.00359
2.84366
7.84811
11.7372
11.1441
7.46875
2.764
2.62439
6.93348
10.3701
9.88603
6.63438
2.56204
2.45687
6.21887
9.27898
8.94217
6.0216
2.41834
2.34696
5.72468
8.50444
8.30024
5.61389
2.32662
2.28425
5.41659
8.00537
7.9037
5.36338
2.2751
2.25172
5.23509
7.70863
7.65074
5.20505
2.24798
2.23556
5.1161
7.51222
7.4773
5.10037
2.23621
2.23286
5.04421
7.38343
7.37008
5.04325
2.23836
2.24184
5.01926
7.3214
7.32478
5.02895
2.25426
2.26097
5.02308
7.30975
7.32793
5.04704
2.27865
2.28777
5.04786
7.32601
7.36063
5.08459
2.3097
2.32046
5.08919
7.36458
7.40683
5.13072
2.3447
2.3563
5.1356
7.4114
7.45285
5.17651
2.38165
2.39376
5.18007
7.45525
7.49137
5.21803
2.4198
2.43233
5.22008
7.49112
7.52109
5.25478
2.45876
2.47147
5.25534
7.51856
7.54302
5.28653
2.49786
2.51019
5.28566
7.53762
7.55644
5.31298
2.53666
2.54693
5.31181
7.54596
7.57732
5.34797
2.58014
2.59267
5.34813
7.57059
7.62332
5.40649
2.63744
2.67459
5.47644
7.6779
7.66368
5.46609
2.69895
2.76293
5.57489
7.7641
7.796
5.62106
2.8283
11.0844
14.0204
16.8013
19.8265
23.5757
27.2835
29.7513
31.6428
32.6776
33.5063
34.0272
34.4949
34.7485
34.8546
34.6535
34.1065
33.1488
31.6479
30.0286
27.7419
24.1691
20.7598
18.7839
15.1607
12.074
10.9212
9.3989
9.55167
11.4269
12.4407
10.2841
9.65252
7.33364
7.75839
11.9927
12.1768
12.1613
11.7243
7.51275
7.54445
12.0342
12.4203
12.3388
11.8886
7.41413
7.48635
12.0102
12.4732
12.4429
11.9363
7.40472
7.4838
12.1005
12.5931
12.5666
12.0293
7.39856
7.48445
12.157
12.7326
12.7102
12.0858
7.45878
7.54991
12.2474
12.8817
12.8522
12.1797
7.52573
7.61644
12.3305
13.0244
12.9929
12.2592
7.59313
7.68643
12.4165
13.1728
13.1403
12.3418
7.66393
7.75944
12.5058
13.3278
13.2939
12.4274
7.73726
7.83489
12.5982
13.4892
13.454
12.5161
7.81316
7.91273
12.6948
13.6586
13.622
12.6089
7.891
7.99262
12.7951
13.8352
13.7973
12.7054
7.9711
8.07434
12.9001
14.0204
13.9811
12.8061
8.0524
8.15685
13.0087
14.2132
14.1721
12.91
8.13438
8.23878
13.12
14.4146
14.3718
13.0144
8.21482
8.32019
13.2282
14.6246
14.5803
13.1225
8.29669
8.40325
13.3413
14.8455
14.7999
13.2355
8.38008
8.4882
13.4589
15.0763
15.029
13.3533
8.46575
8.57527
13.5825
15.3188
15.2702
13.4768
8.55317
8.66439
13.7112
15.5724
15.5219
13.6059
8.643
8.75581
13.8469
15.8392
15.7874
13.7415
8.73477
8.84953
13.9886
16.1183
16.0646
13.8837
8.82922
8.94587
14.1381
16.4121
16.3571
14.033
8.926
9.04502
14.295
16.7195
16.6623
14.1896
9.02595
9.14739
14.4613
17.0429
16.9843
14.3542
9.12879
9.25312
14.6358
17.3811
17.3201
14.5274
9.23535
9.36272
14.8201
17.737
17.6745
14.7098
9.34565
9.4766
15.0136
18.109
18.0437
14.9018
9.46058
9.59539
15.2176
18.5001
18.4333
15.1037
9.58037
9.71973
15.4311
18.9085
18.8385
15.3153
9.70606
9.85034
15.6556
19.338
19.2665
15.5375
9.83769
9.98749
15.8896
19.786
19.7105
15.7692
9.97626
10.1321
16.1329
20.2559
20.1783
16.0089
10.1225
10.2852
16.3817
20.744
20.6611
16.2535
10.2779
10.4484
16.6334
21.2542
21.168
16.4988
10.444
10.6245
16.8804
21.7822
21.6892
16.7372
10.6248
10.8207
17.1174
22.3366
22.2414
16.9634
10.8311
11.0534
17.3451
22.9271
22.831
17.1823
11.084
11.3517
17.5824
23.5852
23.4987
17.4143
11.4288
11.7499
17.8596
24.3437
24.2518
17.7021
11.8741
12.1858
18.3087
25.2829
25.1567
18.114
12.2636
12.611
18.822
26.1815
26.0639
18.5893
12.5941
12.8685
19.3414
27.2013
27.0417
19.0755
12.8337
13.0666
19.7485
28.1674
28.0696
19.5887
13.0936
13.3321
20.1929
29.2751
29.2206
19.9935
13.3651
13.5699
20.7371
30.4908
30.4547
20.7136
13.5978
13.7702
21.4283
31.803
31.7906
21.2499
13.7611
13.9326
21.8747
33.1193
33.1359
21.7563
13.9434
14.0544
22.4033
34.5551
34.6492
22.309
14.0534
14.153
22.9404
36.1417
36.2182
22.8394
14.1758
14.3925
23.4437
37.8923
38.1308
23.4761
14.5656
15.1798
24.8233
40.1999
40.8068
25.3022
15.9362
17.7355
28.9367
43.3195
43.9839
32.1446
19.157
14.15
16.3568
24.4571
39.9561
23.8789
14.9457
15.2045
24.0502
40.2808
45.4511
26.7619
16.6541
18.5884
27.2503
48.8373
62.3888
32.6771
23.8111
28.8883
45.8896
75.6898
86.5108
63.6402
34.974
36.152
66.1119
91.5361
99.8749
76.9213
39.3931
41.1513
81.2627
105.628
108.2
83.8017
41.8193
40.5425
80.0846
103.532
112.545
86.9779
44.3396
47.1708
93.0023
118.243
124.823
99.1675
50.0591
52.6832
105.167
131.705
136.118
109.904
55.5786
60.2331
121.244
147.744
156.358
128.548
63.5131
66.3916
137.211
164.132
163.343
136.35
65.5813
67.341
142.339
169.583
176.137
147.194
69.0639
71.7955
154.265
182.531
180.682
154.389
71.811
75.067
161.767
189.396
200.549
173.511
82.2402
88.7419
185.528
213.659
222.198
194.618
94.195
100.203
203.259
227.779
241.405
218.032
111.374
127.889
236.525
256.169
269.115
251.723
137.656
153.237
270.574
280.226
284.139
282.804
174.447
193.236
292.26
290.235
280.607
298.398
206.864
219.815
301.888
273.633
286.365
312.846
224.491
219.648
320.423
292.221
316.703
315.513
212.422
205.751
274.516
309.573
295.801
239.999
200.367
190.461
209.984
275.712
216.409
184.973
175.661
154.838
175.255
218.816
207.043
164.071
133.884
111.108
144.063
171.411
180.089
143.324
90.84
73.3563
135.104
163.607
154.696
125.572
58.4642
43.51
106.117
139.459
146.81
108.999
32.825
26.4958
106.823
141.41
139.535
98.8991
20.0271
16.9403
83.3803
131.255
135.355
93.2271
20.1672
26.3527
95.8251
132.545
146.235
115.278
36.1662
35.542
123.359
149.885
150.432
126.385
29.7811
38.9827
128.705
143.863
153.108
136.38
59.011
57.3788
141.827
155.667
157.639
142.481
43.2204
38.0825
143.018
157.303
161.68
151.444
58.0676
61.5628
152.389
164.04
167.142
153.749
56.1092
49.6305
146.697
167.079
163.156
138.992
44.9808
54.6459
147.345
165.401
163.866
144.51
52.2373
49.9383
136.215
156.679
136.019
81.703
37.5451
37.4861
88.0272
145.112
136.253
78.6302
32.0069
27.7974
74.8858
116.193
109.677
74.8586
26.976
20.5385
48.7397
77.1619
104.971
85.5072
42.9837
39.118
79.7597
101.318
87.7026
61.707
32.2767
27.8432
56.2335
82.2835
53.0299
35.638
21.6328
35.0515
66.1932
85.1302
79.1891
57.4332
32.0296
28.6548
51.1516
73.0388
46.3274
32.4936
23.838
33.5547
57.6366
74.2073
68.5342
49.5521
31.3055
28.34
43.4117
62.5089
39.054
28.2261
24.3164
30.8865
48.6484
64.3662
61.2644
44.3991
29.4964
27.3133
35.6923
52.4764
49.7825
32.7152
25.0254
23.1692
23.4488
30.7134
52.8719
40.2934
27.8155
26.8384
35.1173
48.894
44.5428
30.8378
24.9805
23.9163
22.3169
27.5283
46.9665
35.8598
26.9883
26.2793
30.9435
42.9612
39.4378
27.9795
24.7957
24.4643
21.2773
24.891
43.1719
33.1388
26.6911
26.2804
29.131
39.8359
35.6047
26.4596
25.1255
25.3282
20.7024
23.0895
39.1908
29.8538
26.4041
26.1321
26.7402
35.6233
32.1714
24.846
25.2609
25.7844
20.2399
21.5837
37.0809
28.1567
26.3872
26.3611
25.8413
33.6479
30.0323
23.8661
25.8459
26.6
19.8444
20.7547
34.1673
25.8114
26.3294
26.5107
24.4783
32.0896
21.6962
20.7489
26.9597
27.0531
26.8437
35.2851
31.6139
24.9368
27.6572
27.6417
23.1552
28.1968
20.4977
20.1577
28.7298
26.9581
25.0343
31.9472
28.9305
23.2384
27.4099
27.842
21.6716
26.0708
19.5434
19.528
29.6326
26.4174
22.9847
28.5462
26.7688
21.7258
27.0514
28.9675
19.6747
19.6156
29.1029
23.314
26.6706
27.3546
21.6991
25.9705
23.7095
20.4992
28.3574
30.8341
19.1514
18.7218
25.7538
21.4159
26.5763
27.4757
20.3393
24.363
18.7094
19.2537
29.9302
26.7113
21.8223
26.4146
23.8871
20.3441
27.6006
29.0747
19.8835
22.0392
18.153
19.1151
31.9366
26.9549
20.3553
24.0817
22.8715
19.8256
28.1154
30.9898
19.1949
18.1861
24.712
20.8009
27.1076
28.2704
19.5931
22.0799
20.7312
19.5065
30.0399
33.5017
19.1438
17.9191
21.2797
19.0239
27.49
28.8441
18.8663
20.571
17.3259
18.7951
32.159
27.0347
18.9428
21.5171
19.786
18.276
28.3706
30.5762
18.2846
18.8206
17.0764
19.3722
34.5598
28.0551
18.1606
19.571
18.8067
17.7581
29.7162
33.4868
19.2896
16.6946
19.9227
18.3142
27.6587
29.5672
17.7745
18.8138
17.0145
19.8084
33.3723
27.794
18.31
19.5568
18.5789
17.7927
29.9119
33.6439
19.9602
16.9745
19.8167
18.4829
28.1321
29.991
18.1088
18.5324
17.6603
17.6468
32.857
37.3617
21.2195
16.7352
17.533
17.4636
29.774
32.0401
16.9261
16.7639
16.2186
21.0224
36.3388
29.219
17.0962
17.0293
16.3397
16.656
31.6311
35.9716
20.7673
15.9657
17.171
17.1536
29.1469
31.7394
16.7639
16.3703
16.081
21.0314
36.2349
29.3781
17.0288
17.0081
16.6275
17.1615
31.6367
35.1824
17.1338
15.666
15.9375
22.6732
40.0351
31.4384
17.0081
16.5849
15.6226
16.6167
34.256
39.1455
22.3219
15.8711
16.6918
17.0539
31.0884
34.0695
16.7458
15.6668
15.9934
22.619
39.0999
31.3701
17.0758
16.6096
15.6552
16.8851
34.5181
39.6573
22.9617
16.0491
16.7738
17.2599
31.7741
35.0165
17.0256
15.7364
16.2193
23.4893
40.5134
32.4293
17.3137
16.7056
15.7259
17.1796
35.8516
41.5536
24.0247
16.2989
16.6911
17.3927
33.2869
36.2911
17.9266
16.0627
15.301
18.2562
40.6246
46.2361
26.4549
16.4305
16.0197
17.2225
35.4975
39.0987
16.9901
15.0195
16.1004
25.5843
45.1104
35.0939
16.9207
15.7435
14.8111
16.8551
38.953
45.222
25.6495
15.9362
15.6818
16.9056
35.2574
39.2099
16.9098
14.8056
16.0762
26.0577
45.6504
35.6742
16.9743
15.6846
14.8184
16.9601
39.7691
46.6153
26.3813
16.1235
15.7685
17.0849
36.2739
40.4787
17.2024
14.9401
16.3828
26.985
47.4826
37.0822
17.3237
15.9044
15.0825
17.3928
41.343
48.4805
27.4789
16.5678
16.1051
17.5455
37.7234
42.1245
17.6961
15.295
16.9318
28.2122
49.5486
38.6321
17.8711
16.296
15.4847
17.9234
43.0874
50.7581
28.6568
17.1457
16.5436
18.102
39.3818
43.924
18.2982
15.7375
17.383
29.1749
51.7323
40.2866
18.4022
16.7899
16.1638
19.2848
44.0652
49.958
20.4696
15.6069
18.4581
33.0329
57.6727
43.8058
19.2537
17.0456
16.2325
19.239
48.7542
57.0369
31.846
18.4473
17.2429
19.166
43.62
48.731
19.3791
16.3809
18.7137
32.2337
57.231
43.9545
19.3836
17.4308
16.579
19.6818
49.1847
57.9397
32.6825
18.9357
17.6303
19.6352
44.6402
49.8983
19.852
16.7723
19.263
33.3023
58.8999
45.2318
19.9205
17.8474
17.0159
20.2968
50.6972
59.9561
33.9382
19.5693
18.0953
20.2703
46.0362
51.5426
20.5205
17.257
19.9242
34.4867
61.0802
47.0663
20.5681
18.3542
17.5297
20.9173
52.7159
62.3872
35.2493
20.2976
18.6804
20.9709
47.9693
53.6613
21.2432
17.8441
20.7699
35.944
63.4956
48.7667
21.3228
18.976
18.1496
21.6995
54.6038
64.8113
36.6984
21.1559
19.2412
21.7439
49.7646
55.6032
21.9616
18.4005
21.3542
36.9591
65.9396
50.6257
21.9273
19.4561
18.7239
23.4706
55.6564
63.283
25.4206
18.2715
23.6471
42.5255
73.6942
55.7452
23.1215
19.5493
18.6137
23.1046
62.2431
73.4742
40.5291
22.873
19.3004
22.479
55.4803
62.2118
23.0375
18.4805
22.91
41.1506
73.493
55.7705
22.7902
19.3976
18.606
23.1607
62.5545
74.0881
41.1457
22.9663
19.56
22.8341
56.1481
63.0517
23.3522
18.7932
23.2166
41.6575
74.8654
56.9926
23.1997
19.8115
19.0094
23.4895
63.9163
76.2747
42.183
23.415
20.0895
23.4625
57.8104
64.9202
24.0779
19.3812
23.8997
42.9816
77.1795
58.8665
24.0061
20.492
19.7168
24.3525
65.899
78.4481
43.0686
23.906
20.8503
24.1919
59.5759
65.4225
26.0375
20.0176
19.616
28.455
74.5857
87.5256
49.723
26.7663
21.2769
25.8723
65.2067
72.9583
26.0084
20.432
26.0695
47.7269
86.4835
64.9758
25.6524
21.4819
20.7546
26.2958
72.8321
86.2867
48.1168
26.3508
21.812
26.0478
65.1907
73.0674
26.5657
21.0937
26.629
48.2595
86.9534
65.7376
26.2716
22.132
21.4058
26.9301
73.6783
88.1558
49.1066
26.9874
22.49
26.8358
67.4128
74.2185
29.1806
21.5805
21.1662
31.5866
84.421
99.055
55.7954
29.7253
22.8585
28.4008
73.4546
82.1816
28.8199
21.9778
28.8471
53.3509
97.351
72.923
28.0973
23.062
22.2113
28.3591
81.4529
97.1129
52.9697
28.5117
23.2627
28.0816
72.8991
80.1223
30.54
22.2809
21.9743
33.4908
91.1813
106.859
60.4193
31.6995
23.9973
30.1209
79.0644
88.222
30.3362
23.0419
30.6669
57.1347
104.535
78.004
29.6206
24.1362
23.3257
30.6431
87.6033
104.176
57.4022
30.7981
24.55
30.1014
78.5997
86.9302
33.1328
23.5531
23.1521
35.7613
98.7896
115.897
64.7714
33.9038
25.1393
31.886
85.3331
95.3437
32.3145
24.1765
32.8468
61.4023
112.865
84.1337
31.4351
25.2538
24.3058
31.8271
94.0326
112.058
60.3531
32.0377
25.3017
31.1325
83.284
91.4359
33.9002
24.2561
23.9883
37.5924
104.374
123.028
68.9338
35.6529
26.3053
33.5868
90.4297
100.765
33.9489
25.327
34.3798
64.5709
119.459
88.6723
32.8087
26.2633
25.446
36.2848
97.3257
110.568
39.8259
25.2372
38.1961
73.6062
130.513
96.7533
35.4973
27.5474
26.5071
35.4429
107.695
128.042
68.3707
36.4193
27.0348
34.146
94.1568
103.049
37.3066
26.1119
25.9133
41.406
116.949
136.975
76.6685
39.3513
28.1021
36.5917
101.056
111.492
40.4215
27.2684
26.8169
42.4776
125.34
147.492
80.4633
41.4835
28.6562
37.7428
107.218
119.077
38.1575
27.6203
38.9847
74.5635
140.3
103.069
36.5389
28.4998
27.359
39.5859
112.363
127.199
43.2684
27.0424
41.0922
81.8289
149.312
107.919
38.1574
29.2716
28.4652
41.8879
118.583
134.491
46.1203
28.2733
43.7736
86.1721
157.713
114.618
39.9538
30.1992
29.1672
43.1271
125.029
140.484
46.5263
28.8726
44.8979
88.4736
163.258
117.251
40.3966
30.3757
29.7624
44.4253
128.638
145.404
48.8114
29.6092
46.7581
92.5823
170.57
123.815
42.2302
31.3933
30.1003
42.8745
135.667
150.632
54.9252
30.8673
30.0412
55.0994
165.83
190.143
100.982
50.1532
31.624
43.5198
133.774
147.07
48.0681
30.9182
30.6144
51.9429
164.768
190.572
100.928
49.6998
32.6142
44.9188
136.18
146.845
44.1052
30.6927
31.2394
56.0798
164.643
177.757
53.6105
30.2543
51.5958
108.728
207.021
145.767
46.4324
33.0175
31.307
45.198
158.234
173.02
59.6421
32.508
31.9106
61.3546
189.784
215.464
114.338
55.0717
34.3026
48.2023
149.878
166.6
51.2543
33.156
32.9433
57.322
183.861
201.73
65.4126
33.4708
31.8512
62.7709
215.342
240.681
119.729
55.6245
33.4699
47.8661
160.663
175.469
50.6203
32.2665
31.2698
52.3189
192.071
208.365
61.1607
31.2066
30.2345
59.7874
221.301
234.573
74.596
33.1568
31.543
73.0337
246.053
270.474
138.079
61.5352
35.0097
53.2759
179.148
187.443
51.2528
33.283
33.2908
63.4809
205.249
220.659
63.9857
32.568
31.9922
64.8389
232.899
241.409
67.0849
31.5503
31.5486
72.3672
247.424
246.611
69.497
30.5132
31.4702
77.2117
244.046
237.776
77.8859
31.2172
32.3151
83.4589
227.585
216.084
84.9038
32.2102
33.882
91.5717
205.084
194.289
93.5581
33.8998
36.1887
100.977
184.718
175.726
102.792
36.3485
39.2526
109.603
167.963
160.785
111.354
39.6402
43.0536
117.015
154.558
148.994
119.82
43.5844
47.7594
123.516
144.037
139.766
126.771
48.5358
53.4093
129.05
135.856
132.584
131.995
54.2029
59.4537
133.872
129.512
127.067
136.417
60.3496
65.6989
138.037
124.617
122.904
140.286
66.6008
72.1353
141.695
120.905
119.85
143.62
73.1057
78.7232
144.758
118.216
117.656
146.309
79.5641
85.0572
147.262
116.356
116.094
148.541
85.8185
91.0422
149.29
115.126
115.052
150.319
91.6171
96.5631
150.938
114.375
114.422
151.769
97.0342
101.632
152.232
113.953
114.071
152.875
101.909
106.165
153.252
113.743
113.916
153.765
106.323
110.189
154.023
113.689
113.901
154.43
110.173
113.652
154.59
113.714
113.994
154.959
113.559
116.646
154.971
113.83
114.153
155.271
116.439
119.217
155.223
113.997
114.341
155.481
118.953
121.399
155.379
114.191
114.545
155.585
121.046
123.242
155.449
114.399
114.762
155.628
122.854
124.787
155.453
114.618
114.981
155.596
124.335
126.074
155.4
114.839
115.203
155.527
125.606
127.143
155.3
115.064
115.425
155.4
126.629
128.018
155.165
115.286
115.644
155.26
127.506
128.741
155.001
115.506
115.86
155.077
128.197
129.322
154.82
115.723
116.072
154.897
128.79
129.796
154.622
115.936
116.281
154.696
129.221
130.167
154.436
116.146
116.487
154.519
129.636
130.479
154.245
116.354
116.695
154.316
129.935
130.721
154.047
116.564
116.901
154.128
130.199
130.923
153.851
116.772
117.105
153.926
130.389
131.082
153.659
116.977
117.307
153.745
130.564
131.218
153.476
117.18
117.507
153.559
130.68
131.306
153.299
117.382
117.707
153.393
130.785
131.367
153.132
117.584
117.906
153.22
130.827
131.372
152.966
117.784
118.105
153.06
130.836
131.338
152.8
117.984
118.299
152.882
130.775
131.246
152.625
118.179
118.487
152.708
130.691
131.129
152.443
118.366
118.666
152.514
130.555
130.973
152.252
118.544
118.836
152.324
130.414
130.807
152.055
118.713
118.995
152.117
130.231
130.612
151.853
118.872
119.144
151.919
130.043
130.402
151.647
119.02
119.283
151.703
129.816
130.168
151.435
119.157
119.41
151.495
129.595
129.932
151.221
119.284
119.527
151.273
129.346
129.682
151.004
119.399
119.634
151.063
129.113
129.437
150.79
119.504
119.728
150.844
128.858
129.185
150.579
119.598
119.815
150.64
128.624
128.943
150.373
119.683
119.891
150.43
128.374
128.698
150.171
119.759
119.96
150.238
128.148
128.466
149.978
119.827
120.02
150.042
127.909
128.234
149.792
119.886
120.074
149.865
127.697
128.016
149.615
119.94
120.12
149.685
127.472
127.8
149.445
119.986
120.162
149.525
127.276
127.598
149.284
120.027
120.198
149.361
127.066
127.397
149.128
120.063
120.23
149.215
126.882
127.207
148.981
120.095
120.26
149.064
126.683
127.016
148.84
120.124
120.286
148.933
126.51
126.839
148.707
120.15
120.309
148.796
126.326
126.667
148.58
120.172
120.33
148.678
126.175
126.511
148.46
120.192
120.348
148.553
126.008
126.351
148.341
120.209
120.363
148.443
125.862
126.195
148.229
120.225
120.377
148.325
125.694
126.038
148.12
120.238
120.389
148.227
125.557
125.901
148.02
120.251
120.4
148.122
125.416
125.773
147.923
120.26
120.408
148.033
125.304
125.65
147.829
120.268
120.414
147.932
125.165
125.516
147.735
120.274
120.42
147.847
125.044
125.388
147.648
120.28
120.423
147.756
124.909
125.271
147.565
120.283
120.426
147.681
124.816
125.175
147.487
120.285
120.426
147.597
124.708
125.072
147.408
120.284
120.425
147.525
124.614
124.964
147.332
120.283
120.422
147.444
124.492
124.854
147.259
120.28
120.419
147.379
124.405
124.767
147.192
120.277
120.415
147.307
124.312
124.685
147.125
120.273
120.41
147.247
124.241
124.601
147.06
120.268
120.405
147.175
124.139
124.506
146.996
120.263
120.4
147.119
124.061
124.425
146.937
120.259
120.395
147.055
123.975
124.353
146.879
120.255
120.392
147.004
123.918
124.284
146.824
120.252
120.389
146.943
123.832
124.205
146.769
120.25
120.389
146.895
123.767
124.134
146.718
120.251
120.39
146.838
123.687
124.066
146.668
120.254
120.394
146.796
123.636
124.006
146.622
120.259
120.4
146.743
123.56
123.938
146.575
120.266
120.408
146.704
123.507
123.878
146.532
120.276
120.418
146.655
123.435
123.816
146.49
120.287
120.43
146.62
123.388
123.76
146.452
120.301
120.445
146.576
123.318
123.699
146.414
120.317
120.463
146.546
123.272
123.645
146.381
120.338
120.487
146.507
123.206
123.587
146.349
120.365
120.52
146.483
123.16
123.532
146.323
120.402
120.565
146.451
123.091
123.473
146.299
120.451
120.627
146.43
123.052
123.405
146.279
120.516
120.75
146.399
122.969
123.315
146.238
120.647
120.945
146.303
122.817
122.942
146.357
120.874
121.343
146.312
122.239
121.321
146.205
121.827
123.127
145.384
120.673
115.815
144.161
125.284
126.946
142.336
111.89
104.09
140.765
129.074
67.5091
51.6883
52.7221
61.7589
73.7218
79.9502
93.9679
109.453
115.287
119.644
122.102
123.284
123.67
123.613
123.352
123.03
122.714
122.433
122.196
122
121.84
121.711
121.607
121.525
121.46
121.412
121.376
121.353
121.339
121.333
121.334
121.337
121.342
121.348
121.355
121.362
121.369
121.376
121.382
121.388
121.394
121.4
121.405
121.411
121.416
121.422
121.429
121.436
121.443
121.45
121.456
121.464
121.477
121.496
121.522
121.555
121.604
121.672
121.763
121.877
122.014
122.168
122.334
122.507
122.68
122.85
123.015
123.174
123.329
123.481
123.63
123.779
123.928
124.078
124.231
124.386
124.545
124.707
124.874
125.045
125.221
125.4
125.584
125.771
125.962
126.155
126.35
126.547
126.745
126.943
127.142
127.339
127.536
127.73
127.923
128.112
128.299
128.483
128.662
128.838
129.01
129.177
129.34
129.498
129.651
129.799
129.942
130.081
130.214
130.344
130.469
130.589
130.706
130.82
130.93
131.038
131.144
131.247
131.348
131.448
131.547
131.644
131.74
131.835
131.928
132.02
132.11
132.198
132.285
132.369
132.451
132.53
132.607
132.681
132.753
132.823
132.891
132.957
133.021
133.083
133.145
133.205
133.265
133.324
133.383
133.441
133.499
133.558
133.616
133.674
133.732
133.79
133.849
133.907
133.966
134.026
134.086
134.148
134.213
134.279
134.349
134.423
134.502
134.585
134.675
134.77
134.872
134.979
135.092
135.209
135.331
135.455
135.581
135.706
135.831
135.953
136.071
136.186
136.296
136.401
136.501
136.597
136.687
136.773
136.854
136.929
136.997
137.059
137.113
137.16
137.203
137.246
137.288
137.322
137.34
137.349
137.353
137.353
137.352
137.349
137.34
137.312
137.236
137.076
136.811
136.455
136.041
135.6
135.144
134.676
134.194
133.696
133.182
132.651
132.101
131.534
130.948
130.345
129.725
129.089
128.437
127.772
127.094
126.403
125.703
124.993
124.275
123.549
122.819
122.085
121.349
120.612
119.876
119.142
118.413
117.689
116.973
116.266
115.571
114.887
114.219
113.567
112.934
112.32
111.728
111.155
110.6
110.062
109.544
109.061
108.65
108.353
108.19
108.131
108.123
108.129
108.109
107.987
107.329
106.446
103.867
102.121
100.556
98.6246
97.1261
95.165
93.7806
91.8632
90.605
88.7555
87.6256
85.8528
84.8463
83.1574
82.264
80.6656
79.8676
78.3593
77.6476
76.226
75.5882
74.2492
73.6681
72.4096
71.8719
70.6883
70.1874
69.0674
68.5972
67.53
67.0856
66.064
65.6426
64.662
64.2614
63.3185
62.9368
62.0282
61.6633
60.7853
60.435
59.584
59.2463
58.4188
58.092
57.285
56.9674
56.178
55.868
55.0936
54.7898
54.0276
53.7284
52.9757
52.6799
51.9346
51.6412
50.9015
50.6097
49.8742
49.5832
48.8505
48.5594
47.828
47.536
46.8043
46.5102
45.776
45.4787
44.7398
44.4378
43.6916
43.3835
42.626
42.3107
41.5402
41.2156
40.4279
40.091
39.2809
38.9297
38.0936
37.7259
36.8584
36.4715
35.5711
35.1665
34.2337
33.8105
32.8461
32.4025
31.4075
30.9571
29.9638
29.4591
28.5261
27.4669
26.0282
25.2964
24.9022
25.003
25.2233
25.5092
25.6794
25.9495
25.9273
25.8043
25.2344
24.0026
23.101
22.968
23.0234
23.56
23.9006
24.1007
23.9278
23.7088
23.0329
22.5164
21.3883
20.6375
19.3822
18.5393
17.2994
16.4597
15.3453
14.6409
13.7562
13.2522
12.6053
12.287
11.8451
11.6829
11.3943
11.3077
11.1
11.0477
10.8943
10.8697
10.7696
10.7697
10.7203
10.7396
10.7198
10.7547
10.7452
10.791
10.7846
10.832
10.8241
10.865
10.8538
10.8867
10.8708
10.8981
10.8759
10.8968
10.869
10.9036
10.8653
10.9396
10.976
10.9673
10.9937
14.0306
16.8556
16.8801
14.0273
14.0594
16.9087
16.8098
14.0267
13.8691
16.2627
21.4816
20.2288
20.0487
19.9264
23.6354
23.5959
23.4036
28.0927
27.8171
27.5838
29.9302
30.0041
30.0163
29.1576
29.438
21.6681
16.9984
14.0152
13.8849
16.2662
16.9805
14.0215
13.9048
16.2933
21.7165
21.7931
17.0055
14.0384
13.9139
16.306
17.0194
14.0365
13.9065
16.2981
21.8599
21.9043
17.0146
14.0229
13.8848
16.2707
16.9925
13.9965
13.8526
16.2298
21.9299
21.9455
16.9593
13.9635
13.8204
16.1876
16.9305
13.9372
13.8031
16.1621
21.9623
21.9834
16.924
13.94
13.8249
16.1775
16.963
14.0086
13.9165
16.2511
22.0041
22.0095
17.0551
14.1553
14.0872
16.3768
17.1817
14.3732
14.3268
16.523
21.9677
21.8403
17.3118
14.659
14.644
16.7509
17.5629
15.0918
15.1684
17.1399
21.6699
21.6579
18.1164
15.8607
16.0945
17.8624
19.0508
17.0546
17.4547
18.9659
21.819
22.3188
20.3311
18.6652
19.2814
20.5011
21.9234
20.6955
21.4371
22.2783
23.1463
24.0368
23.508
22.864
23.6039
23.9364
24.8878
24.9383
25.6661
25.334
24.833
25.7184
26.103
26.8115
27.3703
26.6003
27.1861
28.1411
28.507
27.6691
26.8352
28.2517
28.1261
28.8676
28.9906
28.3187
28.9052
29.1084
29.0476
28.9278
29.8991
31.8278
29.732
29.1419
29.0063
29.5692
30.5961
29.1364
28.9515
30.2035
34.1327
36.8119
31.6456
28.9745
28.5923
31.0614
33.1657
28.668
28.374
32.4739
39.9678
43.2851
35.2535
28.9711
28.9274
34.5391
37.874
30.3435
30.6155
37.1616
46.7785
50.3269
40.8012
32.6787
33.2265
40.071
43.7655
35.4543
36.0126
42.9686
53.7671
56.9246
46.4723
37.8513
38.2083
45.5163
48.8264
39.868
40.1205
47.7413
59.6446
62.0108
50.9178
41.702
41.8999
49.7489
52.7779
43.4233
43.5811
51.5942
64.0531
65.8968
54.5087
45.0461
45.1694
53.3129
56.1265
46.5824
46.6746
54.9212
67.5994
69.1632
57.6405
48.0374
48.0997
56.429
59.0631
49.4174
49.4549
57.8518
70.618
71.9788
60.4104
50.7345
50.7513
59.2029
61.6937
51.9975
51.997
60.4933
73.2624
74.4828
62.9246
53.2193
53.2091
61.735
64.1132
54.4092
54.3928
62.939
75.6504
76.7697
65.2724
55.5772
55.5563
64.1151
66.4074
56.729
56.7056
65.272
77.8426
78.8812
67.5279
57.8703
57.8458
66.4183
68.6431
59.005
58.9797
67.5568
79.917
80.9382
69.7503
60.1351
60.11
68.689
70.8517
61.2627
61.2383
69.8154
81.9496
82.9473
71.9468
62.389
62.3661
70.9365
73.036
63.5158
63.495
72.053
83.9305
84.8974
74.12
64.645
64.6269
73.1658
75.2001
65.7782
65.764
74.2769
85.8478
86.7845
76.2788
66.9182
66.909
75.3892
77.3599
68.0679
68.0649
76.5053
87.7159
88.6394
78.4447
69.2315
69.2374
77.6276
79.5353
70.4123
70.4298
78.7584
89.5559
90.4656
80.6333
71.6132
71.644
79.8992
81.7403
72.8371
72.8827
81.052
91.3691
92.2669
82.8589
74.0872
74.1499
82.2194
83.9912
75.3673
75.4495
83.4038
93.1598
94.0494
85.1401
76.6818
76.7854
84.6084
86.309
78.0343
78.1621
85.8368
94.9383
95.8279
87.5021
79.4299
79.5851
87.0945
88.7266
80.875
81.061
88.3916
96.7189
97.6095
89.9969
82.3732
82.5908
89.7211
91.2992
83.9306
84.1837
91.0871
98.5128
99.4287
92.6366
85.5547
85.8477
92.4927
94.0108
87.2521
87.5898
93.939
100.357
101.294
95.4205
89.0283
89.4157
95.4237
96.8601
90.8895
91.333
96.965
102.234
103.163
98.3232
92.8336
93.3376
98.527
99.7935
94.8217
95.4147
100.096
104.072
104.946
101.257
96.8597
97.539
101.645
102.69
98.9252
99.6794
103.146
105.764
106.506
104.062
100.987
101.789
104.56
105.334
102.987
103.805
105.833
107.145
107.646
106.449
104.852
105.625
106.893
107.93
107.655
107.294
106.863
106.38
105.858
105.308
104.739
104.159
103.576
102.993
102.415
101.84
101.27
100.701
100.133
99.5635
98.9902
98.4082
97.816
97.2139
96.6027
95.983
95.3556
94.721
94.0835
93.4153
92.723
92.0134
91.2915
90.5606
89.8241
89.0815
88.3371
87.5834
86.8115
86.0142
85.1813
84.2974
83.3422
82.2917
81.1227
79.7926
78.2733
76.5027
74.3609
71.8922
68.9045
65.5693
62.0349
58.4233
54.8452
51.4918
48.2291
45.2065
42.5604
40.3469
38.5609
37.1492
36.0545
35.2043
34.4857
33.827
33.2549
32.7812