/*--------------------------------*- C++ -*----------------------------------*\
| =========                 |                                                 |
| \\      /  F ield         | OpenFOAM: The Open Source CFD Toolbox           |
|  \\    /   O peration     | Version:  v2006                                 |
|   \\  /    A nd           | Website:  www.openfoam.com                      |
|    \\/     M anipulation  |                                                 |
\*---------------------------------------------------------------------------*/
FoamFile
{
    version     2.0;
    format      ascii;
    class       volScalarField;
    location    "0.02";
    object      k;
}
// * * * * * * * * * * * * * * * * * * * * * * * * * * * * * * * * * * * * * //

dimensions      [0 2 -2 0 0 0 0];


internalField   nonuniform List<scalar> 
12716
(
141.602
141.601
141.604
141.605
141.607
141.611
141.618
141.627
141.637
141.639
141.605
141.465
141.176
140.766
140.286
139.777
139.259
138.738
138.21
137.672
137.119
136.548
135.961
135.356
134.736
134.101
133.453
132.792
132.119
131.437
130.745
130.044
129.337
128.624
127.907
127.188
126.466
125.745
125.025
124.309
123.597
122.891
122.193
121.505
120.827
120.162
119.512
118.877
118.259
117.66
117.077
116.508
115.949
115.394
114.846
114.322
113.869
113.559
113.424
113.416
113.462
113.519
113.563
113.577
113.533
113.381
113.058
112.501
111.331
109.468
99.837
88.6266
104.175
109.935
106.857
96.7351
79.6811
72.0981
89.1499
102.656
98.8185
83.2452
66.3752
61.6264
77.6395
94.6412
91.3822
73.7547
58.149
55.1164
69.8293
87.7689
85.3582
67.5152
53.0169
50.9528
64.5361
82.2793
80.493
63.1069
49.5749
48.0713
60.8204
77.9057
76.5157
59.8671
47.0907
45.9305
58.0354
74.2976
73.1834
57.3485
45.1806
44.2469
55.8467
71.2447
70.3247
55.2944
43.6399
42.8544
54.0375
68.5987
67.8246
53.5759
42.338
41.6559
52.4894
66.266
65.5994
52.0908
41.2052
40.5982
51.129
64.1805
63.587
50.7762
40.1942
39.6429
49.91
62.2931
61.7547
49.5921
39.2732
38.7644
48.8013
60.5671
60.0728
48.5108
38.4208
37.945
47.7803
58.9734
58.5162
47.5117
37.6212
37.1715
46.8303
57.4919
57.066
46.5792
36.863
36.434
45.9383
56.1058
55.7067
45.7017
36.1375
35.7251
45.0945
54.8016
54.4257
44.8696
35.4378
35.0385
44.2907
53.5687
53.2131
44.0757
34.7581
34.3694
43.5209
52.3991
52.0618
43.3141
34.0941
33.7135
42.7803
51.2866
50.9657
42.5804
33.4418
33.0675
42.0647
50.2256
49.9194
41.8706
32.7979
32.428
41.3702
49.2108
48.9177
41.1808
32.1592
31.7919
40.6931
48.2372
47.9555
40.5071
31.5226
31.1561
40.0297
47.3
47.0284
39.8462
30.8852
30.5181
39.3768
46.3948
46.132
39.1948
30.2445
29.8751
38.7311
45.5178
45.2625
38.5496
29.5978
29.2248
38.0896
44.6652
44.4164
37.9077
28.9425
28.5644
37.4493
43.8336
43.5901
37.2661
28.2762
27.8914
36.8072
43.0193
42.7799
36.6218
27.5961
27.2032
36.1604
42.2187
41.9823
35.9717
26.8995
26.4969
35.5057
41.4282
41.1936
35.3129
26.1838
25.7699
34.8402
40.6443
40.4104
34.6424
25.4464
25.02
34.1611
39.8636
39.6295
33.9574
24.685
24.245
33.4657
39.083
38.8476
33.255
23.8977
23.4428
32.7508
38.299
38.061
32.5321
23.0824
22.6115
32.0131
37.508
37.2664
31.7857
22.2372
21.7494
31.2504
36.7065
36.46
31.0134
21.3609
20.8556
30.4598
35.8909
35.6384
30.2124
20.4526
19.9295
29.639
35.0578
34.7983
29.3806
19.5124
18.9718
28.7862
34.2041
33.9368
28.5166
18.5413
17.9847
27.9007
33.3273
33.0519
27.6206
17.5425
16.9728
26.9848
32.4269
32.1438
26.6951
16.522
15.9436
26.0424
31.5038
31.2148
25.7451
15.4885
14.9066
25.0794
30.5625
30.2687
24.7773
14.4528
13.8744
24.1041
29.6065
29.3102
23.801
13.4288
12.8624
23.128
28.6426
28.3459
22.8287
12.4336
11.8893
22.1649
27.6784
27.3865
21.8761
11.4872
10.9769
21.2342
26.7291
26.4478
20.9632
10.6122
10.1483
20.3568
25.8107
25.546
20.1103
9.83136
9.42471
19.5512
24.9401
24.6962
19.3336
9.16358
8.82163
18.8303
24.1315
23.9112
18.6432
8.62067
8.34643
18.1983
23.393
23.1979
18.04
8.20553
7.99566
17.6484
22.7285
22.5576
17.5143
7.90856
7.75745
17.168
22.1356
21.9859
17.0536
7.71084
7.61634
16.7474
21.6098
21.4736
16.6268
7.60201
7.55215
16.3097
21.126
20.9961
16.1876
7.54713
7.51547
15.8764
20.6634
20.5394
15.7682
7.52153
7.50731
15.4857
20.2206
20.1023
15.3913
7.52279
7.5188
15.1337
19.7961
19.6828
15.0488
7.53997
7.54175
14.8104
19.389
19.2805
14.7331
7.5658
7.57019
14.5116
18.9982
18.8954
14.4415
7.59612
7.60217
14.2377
18.6279
18.5326
14.1755
7.6296
7.63686
13.9884
18.2814
18.1929
13.9329
7.66427
7.6707
13.7609
17.9567
17.8737
13.7107
7.69481
7.69994
13.5515
17.6505
17.5732
13.5064
7.72062
7.72463
13.3601
17.3637
17.2924
13.3202
7.74222
7.74512
13.1861
17.0964
17.0305
13.151
7.75971
7.76142
13.0278
16.8468
16.7854
12.9965
7.77289
7.77317
12.8826
16.6123
16.5548
12.8546
7.78132
7.78022
12.7487
16.3907
16.3363
12.7234
7.78613
7.78329
12.624
16.1797
16.1276
12.6011
7.78693
7.78228
12.5071
15.9767
15.9261
12.4856
7.78373
7.77753
12.3956
15.7792
15.7294
12.375
7.77695
7.76817
12.2874
15.5853
15.5358
12.2673
7.76553
7.75358
12.1814
15.3935
15.3443
12.1615
7.74931
7.73459
12.0769
15.2032
15.154
12.057
7.72868
7.71117
11.9733
15.0138
14.9642
11.953
7.70361
7.68324
11.8694
14.8243
14.774
11.8485
7.67399
7.65051
11.7639
14.633
14.5828
11.7424
7.63978
7.613
11.6577
14.4412
14.3874
11.6303
7.60105
7.56372
11.5488
14.2451
14.1885
11.5175
7.56476
7.53965
11.4521
14.0819
14.054
11.4539
7.56345
7.56511
11.4227
13.9916
13.8731
11.3577
7.56517
7.61546
11.4155
13.9174
13.8341
11.3897
7.63183
18.7558
23.4023
27.694
31.7927
35.5331
39.2965
42.3723
45.0046
47.1246
48.826
50.0825
50.9171
51.2926
51.2013
50.6116
49.4408
47.6555
45.201
42.4668
38.9613
33.8765
28.9852
25.8403
20.2993
15.2207
13.187
10.7967
11.067
13.7648
15.5055
11.9069
11.1133
8.60353
9.08154
13.7928
14.6772
14.6116
13.4904
8.81475
8.85406
13.8933
14.9972
14.851
13.6918
8.7207
8.80269
13.871
15.0128
14.9494
13.7464
8.71278
8.80327
13.9538
15.1427
15.0904
13.8491
8.7119
8.80531
14.0362
15.3065
15.2574
13.9218
8.77159
8.87005
14.1442
15.4829
15.4274
14.0366
8.83727
8.93476
14.2484
15.654
15.5963
14.1369
8.90217
9.00203
14.355
15.8304
15.7717
14.2391
8.96975
9.07164
14.4625
16.0147
15.955
14.3449
9.0397
9.14412
14.5721
16.2061
16.145
14.4549
9.11345
9.21995
14.6873
16.4064
16.344
14.5698
9.18984
9.29878
14.8062
16.6136
16.5496
14.6888
9.2698
9.38079
14.9306
16.8301
16.765
14.8129
9.35236
9.46588
15.0592
17.0552
16.9888
14.9419
9.4386
9.55442
15.1944
17.2918
17.2243
15.0771
9.52777
9.64637
15.3346
17.5374
17.4679
15.2174
9.62091
9.74197
15.4812
17.7939
17.7232
15.3637
9.71717
9.84114
15.6328
18.0607
17.9885
15.5158
9.81756
9.9443
15.7923
18.3419
18.2691
15.6753
9.92153
10.0516
15.9593
18.6355
18.5605
15.8418
10.0301
10.1633
16.1344
18.9421
18.8654
16.0152
10.1426
10.2792
16.3158
19.2601
19.1815
16.1953
10.2597
10.3999
16.5065
19.5955
19.5166
16.3848
10.3813
10.5257
16.7072
19.9478
19.867
16.5846
10.5085
10.6572
16.9186
20.3179
20.2355
16.7941
10.6412
10.7943
17.138
20.7012
20.6155
17.0117
10.7795
10.937
17.3667
21.102
21.0154
17.2384
10.9233
11.0858
17.6056
21.521
21.4323
17.4762
11.0738
11.2417
17.858
21.9644
21.8754
17.7272
11.2309
11.4049
18.1226
22.4281
22.3358
17.9903
11.3957
11.5757
18.3992
22.9143
22.8204
18.264
11.5678
11.7541
18.6841
23.4179
23.3189
18.5459
11.7477
11.9402
18.9756
23.9409
23.8385
18.8326
11.9354
12.135
19.2676
24.4763
24.3662
19.1186
12.1327
12.3403
19.5557
25.0267
24.9113
19.398
12.3415
12.5601
19.8311
25.5879
25.4636
19.663
12.568
12.802
20.0901
26.1719
26.0447
19.9095
12.8213
13.0824
20.3344
26.7897
26.6603
20.1438
13.1227
13.4288
20.5829
27.4723
27.3511
20.3852
13.5235
13.8885
20.8676
28.253
28.1218
20.6818
14.0264
14.3735
21.3321
29.2217
29.0496
21.1009
14.4571
14.8409
21.8521
30.1252
29.958
21.5731
14.8187
15.1115
22.3559
31.1418
30.9224
22.0366
15.0677
15.3067
22.7127
32.0749
31.921
22.5091
15.3289
15.5717
23.0766
33.1343
33.0202
22.817
15.5965
15.7854
23.5118
34.2847
34.1846
23.441
15.7986
15.9549
24.0698
35.5143
35.4364
23.8206
15.9357
16.0821
24.3201
36.7303
36.6779
24.1299
16.0815
16.171
24.6377
38.0575
38.0733
24.4765
16.1659
16.2884
25
39.5829
39.5969
24.8519
16.3397
16.6435
25.4583
41.3412
41.5492
25.5099
16.9613
17.8267
27.0543
43.7328
44.3473
27.6527
18.9979
20.8153
31.6142
47.0255
47.7529
34.9264
21.9151
17.2564
18.2962
26.0634
43.4016
26.036
17.7972
18.2234
26.4011
43.8087
49.7614
29.774
20.1675
22.9255
30.7122
53.2843
68.4257
37.2096
29.0427
33.8635
50.5608
83.2531
94.7674
69.5302
39.9966
41.234
72.232
100.146
109.195
83.9658
44.4246
46.1775
88.352
115.098
117.862
90.7914
46.9943
45.7979
86.4249
112.051
122.357
93.8705
50.02
53.0134
100.167
127.965
135.029
106.883
56.1671
59.0329
113.039
142.063
146.498
118.113
62.7781
67.6
130.683
159.013
167.23
138.266
70.873
73.7772
147.14
175.197
173.461
145.249
72.6791
74.5983
151.426
179.918
185.817
155.84
76.5462
79.7862
163.87
192.833
190.133
162.904
79.5252
84.0029
171.07
199.074
210.71
183.835
92.3178
99.5266
196.128
223.056
230.936
205.608
105.838
110.888
212.341
235.198
247.434
225.302
121.396
135.992
242.295
260.692
271.707
257.316
146.333
160.406
270.556
279.312
281.543
280.573
179.172
195.983
287.555
283.554
276.128
292.193
208.086
220.025
295.273
269.274
280.482
305.002
225.329
220.271
318.785
282.158
308.53
317.956
213.523
206.564
287.71
307.454
301.983
259.908
201.432
192.921
227.959
289.375
242.297
198.458
181.767
165.807
187.362
243.517
233.963
178.367
150.376
132.946
157.203
198.289
206.413
158.094
117.658
103.377
149.283
190.67
180.308
140.731
91.3492
78.9896
127.421
159.649
169.354
131.706
69.2884
61.4452
130.451
159.987
154.534
124.63
55.7863
48.1871
117.806
140.608
150.432
123.92
46.7858
49.8993
122.091
142.678
165.444
134.118
55.9395
58.0859
135.234
164.986
163.182
135.34
55.2909
51.5137
131.289
151.69
162.805
138.21
55.3648
56.5686
140.305
158.58
155.102
136.685
53.7969
51.3343
129.969
145.881
151.706
134.35
55.8869
57.696
135.562
151.18
147.624
132.554
55.9366
53.8036
125.391
144.548
135.074
116.279
50.9442
54.3937
121.901
141.353
135.827
115.163
52.6406
50.5737
107.759
127.547
107.049
66.6508
43.6676
42.7934
67.7941
115.969
105.703
60.1274
38.2339
32.9979
52.5457
88.3098
84.019
50.7948
29.8628
25.2182
34.7712
54.9427
80.9833
63.6471
37.3002
36.0503
60.5916
78.4824
68.1046
49.618
33.7576
31.0968
45.0456
63.9111
40.7994
31.08
27.0283
34.5254
52.0583
67.0827
62.556
45.8313
33.344
31.5382
41.1114
57.6641
36.7612
29.4406
28.7449
34.1147
46.8937
60.2347
55.4933
40.8943
33.2458
31.864
36.4911
50.2754
32.3523
27.403
29.5744
32.7043
40.7038
53.4832
50.6677
37.1928
32.2266
31.4246
32.0516
43.0382
40.1405
30.0653
29.8307
28.4726
24.4376
26.84
44.7828
34.7393
30.3321
30.1666
31.1685
40.8907
36.4426
28.7642
29.6478
28.9147
23.632
24.9311
40.6162
31.4658
29.7259
29.7882
28.4539
36.4403
33.1791
26.4659
29.4691
29.3279
22.4305
23.1654
38.1895
29.331
29.4308
29.891
27.05
34.5171
30.9915
25.1237
29.8215
30.2835
21.9295
22.2278
34.9716
27.3667
28.9728
29.4408
25.2179
31.5191
28.8194
23.5836
29.4887
31.3578
20.7255
21.0829
33.2698
26.039
28.6909
29.2843
24.3152
30.1591
27.2648
22.7834
29.7374
32.1711
20.3808
20.497
30.7312
24.4914
28.2844
29.0256
23.2264
29.0723
21.048
21.0968
30.7803
28.7435
25.4586
32.206
28.9715
23.8632
29.5719
30.7382
22.5892
26.2281
20.5641
21.0653
32.9246
29.0134
24.3167
29.4856
26.7069
22.5331
29.8231
31.168
21.7286
24.5706
19.8949
20.8011
33.564
28.4234
22.2943
26.2421
24.9075
21.4095
29.5344
32.2422
20.4596
19.5899
27.0395
22.6014
28.5094
29.6438
21.1861
24.2033
22.6102
20.818
31.3709
34.3026
20.4154
19.0701
23.8079
20.7328
28.4744
29.7958
20.3727
22.8652
18.6673
19.9628
32.9
28.3295
21.0643
24.6243
22.4411
20.0202
29.6415
31.8011
20.1943
21.1938
18.4991
20.1069
35.3257
29.0884
20.1006
22.5437
21.7582
20.0068
30.6312
34.0408
20.0106
18.3205
23.4176
20.3778
28.8933
30.4435
19.5507
21.1555
20.2691
19.9399
32.821
37.2326
20.3588
18.478
20.5695
19.1395
29.8217
31.5892
18.5833
19.6397
17.6565
20.5819
35.2374
29.0521
19.0506
20.4265
19.1243
18.5259
30.7418
33.5032
18.6818
18.5033
17.5302
20.7221
38.4576
30.4508
18.4613
19.0642
18.2483
17.8218
32.522
36.5284
21.154
17.0881
19.3124
18.6558
29.7375
32.0305
18.0844
18.4244
17.345
21.3995
36.1889
29.7419
18.5776
19.0005
18.2666
18.1256
32.2798
36.6003
21.4493
17.3097
19.3079
18.7826
30.1986
32.394
18.5995
18.6024
17.3461
18.3139
35.7469
41.0785
22.5759
17.2003
17.8788
18.0382
32.2967
34.9998
17.5725
16.7308
16.7976
22.9398
39.6274
31.6451
17.8125
17.5025
16.5357
17.4525
34.4311
39.2789
22.674
16.6427
17.6115
17.8537
31.6053
34.5956
17.5483
16.5975
16.7455
22.9817
39.7153
31.9442
17.7257
17.4876
17.0378
18.0388
34.5124
38.5029
18.1685
16.1372
16.6546
25.2479
43.1464
33.8273
17.8427
17.1298
16.0908
17.49
36.9543
42.4772
24.1409
16.5782
17.2085
17.7925
33.5684
36.9475
17.54
16.1288
16.7047
24.5614
42.571
33.957
17.8446
17.1358
16.1441
17.725
37.4752
43.1849
24.9291
16.7863
17.3386
18.0625
34.3806
37.9681
17.8831
16.2563
16.9764
25.4624
44.047
35.012
18.1262
17.2816
16.2688
18.0527
38.7523
45.013
25.9656
17.0684
17.3166
18.2401
35.8593
39.103
18.9001
16.6054
15.9208
19.3356
43.8613
49.2529
29.3104
17.3165
16.658
18.2123
38.0153
41.8833
17.9525
15.6688
16.9988
27.1718
48.7243
37.7127
17.7885
16.4523
15.4818
17.7398
41.9465
48.6296
27.6735
16.8435
16.403
17.8093
37.8163
42.0691
17.8693
15.5067
17.0256
27.8955
49.1748
38.2627
17.914
16.4495
15.5517
17.9202
42.6709
49.9767
28.3117
17.0698
16.5468
18.0271
38.7933
43.283
18.1944
15.694
17.3516
28.8461
50.838
39.601
18.2914
16.7121
15.8661
18.3981
44.1532
51.7504
29.3909
17.5504
16.932
18.5291
40.2034
44.8806
18.72
16.0932
17.9219
30.0829
52.7789
41.0816
18.8572
17.1288
16.2767
18.9317
45.7949
53.9108
30.4764
18.1159
17.3673
19.0676
41.7679
46.5658
19.2966
16.5265
18.3427
30.9493
54.8301
42.6466
19.3648
17.6089
16.9408
20.2985
46.6246
52.8287
21.6122
16.3651
19.5437
34.525
61.6513
46.5041
20.2499
17.9015
17.0416
20.2156
51.7384
60.1363
33.8817
19.4527
18.1171
20.1801
46.0508
51.4067
20.4224
17.2114
19.74
33.9658
60.4535
46.3761
20.3998
18.3246
17.4277
20.7153
51.8648
60.9615
34.5168
19.952
18.5285
20.6648
46.9929
52.4846
20.899
17.6259
20.2885
34.9907
61.9952
47.5702
20.9387
18.7521
17.8733
21.3312
53.2875
62.8851
35.7219
20.5812
18.9912
21.3016
48.3191
54.0532
21.5566
18.1078
20.9264
36.1537
64.0224
49.3225
21.5702
19.244
18.3691
21.9277
55.2021
65.2284
36.9386
21.2878
19.5474
21.9613
50.1722
56.0828
22.2407
18.6696
21.7702
37.5655
66.3331
50.9373
22.2816
19.8164
18.953
22.6706
57.0015
67.577
38.3376
22.1234
20.0657
22.6863
51.8934
57.941
22.9147
19.1853
22.2917
38.5277
68.6551
52.7051
22.8414
20.2621
19.4946
24.4342
57.9005
65.8274
26.4416
19.0209
24.5499
45.1763
75.4401
57.6268
24.0939
20.3392
19.3541
24.075
64.2717
76.3791
41.7275
23.8336
20.0767
23.3401
57.5336
64.551
23.8952
19.1964
23.7871
42.9399
75.9226
57.7608
23.6671
20.1549
19.3154
24.0636
64.7293
76.9297
42.5028
23.8718
20.3145
23.6873
58.2081
65.3685
24.1998
19.4994
24.0772
43.3296
77.3607
58.9919
24.0739
20.5638
19.7228
24.3792
66.1095
79.0066
43.5773
24.2955
20.849
24.3186
59.8369
67.1704
24.9506
20.1034
24.7587
44.564
79.6808
60.8363
24.8845
21.2592
20.4492
25.2458
68.0489
80.9885
44.4937
24.7612
21.6252
25.0594
61.5183
67.5157
26.9498
20.7625
20.335
29.4319
76.9192
89.8638
51.6007
27.6565
22.0506
26.7598
67.1553
75.0446
26.9088
21.1496
26.9532
48.9939
89.1732
66.9216
26.4983
22.2493
21.4761
27.1305
75.0178
88.6482
49.6759
27.1894
22.574
26.9089
67.0715
75.1151
27.4454
21.8248
27.4814
49.6139
89.4235
67.612
27.1257
22.9007
22.1371
27.7869
75.7471
90.4761
50.5635
27.8158
23.2588
27.6917
69.259
76.2042
30.0707
22.3165
21.8748
32.5348
86.6088
102.436
56.645
30.6699
23.6102
29.2558
75.5918
84.6052
29.6086
22.7081
29.6588
55.0952
99.6398
74.8382
28.9371
23.8218
22.9169
29.2283
83.4807
99.7487
54.1946
29.357
24.0283
28.9239
74.7552
82.1546
31.423
22.9999
22.6722
34.3957
93.4579
108.353
62.7234
32.4985
24.7574
30.9898
80.74
89.9561
31.239
23.7372
31.4912
58.176
107.079
79.7593
30.4475
24.9143
24.083
31.4312
89.6348
106.35
58.8842
31.589
25.3204
30.9394
80.3893
88.8422
33.9945
24.2744
23.8501
36.6952
100.86
120.203
64.7685
34.8864
25.8925
32.6613
87.7047
98.0335
32.9914
24.9026
33.5864
63.3943
115.046
86.0417
32.2853
26.0539
25.0416
32.7069
96.0027
114.568
61.5618
32.8229
26.1294
32.0019
85.0472
93.3745
34.7913
25.041
24.7421
38.5354
106.493
125.433
70.372
36.5009
27.1159
34.4705
92.2691
102.757
34.8217
26.0974
35.1385
65.9214
121.693
90.4329
33.7055
27.1147
26.2118
37.2165
99.2008
112.639
40.7922
25.9658
38.9765
75.4204
132.481
98.4711
36.4031
28.4131
27.3156
36.3737
109.452
130.222
69.4955
37.2251
27.9047
35.0473
95.8318
104.865
38.2226
26.8822
26.6431
42.3668
118.941
139.226
78.0565
40.119
28.9686
37.5082
102.819
113.373
41.3538
28.0377
27.5524
43.4364
127.372
150.656
81.2123
42.377
29.4854
38.6212
109.219
121.336
38.9591
28.4227
39.7147
76.2528
142.302
104.88
37.4569
29.4003
28.1355
40.5649
114.209
129.274
44.2149
27.7825
41.8228
83.1737
151.625
109.686
39.0894
30.1764
29.2662
42.8382
120.469
136.549
47.0974
29.0336
44.5484
87.5674
160.028
116.422
40.8986
31.1054
29.9739
44.0868
126.924
142.548
47.4951
29.6421
45.6773
89.9421
165.469
119.055
41.3163
31.28
30.5617
45.3927
130.477
147.426
49.7939
30.3662
47.5405
93.9761
172.855
125.598
43.1578
32.2739
30.8804
43.7895
137.557
152.649
55.9194
31.608
30.7468
56.0795
167.988
192.485
102.465
50.9038
32.4727
44.4171
135.578
148.949
49.0004
31.6727
31.3266
52.8931
166.822
192.862
102.328
50.4234
33.4814
45.837
137.962
148.71
44.9942
31.4575
31.9598
57.0298
166.65
179.876
54.5224
30.934
52.2874
110.115
209.448
147.598
47.3558
33.89
32.0773
46.0782
160.254
174.985
60.668
33.2275
32.5995
62.0868
192.165
216.217
117.378
55.5514
35.1939
49.2315
151.42
167.718
52.0921
33.9011
33.7439
58.6039
185.351
203.336
66.4388
34.1711
32.5346
63.396
217.556
240.421
123.572
55.9287
34.302
48.9289
162.02
176.582
51.5619
33.0417
32.0097
53.3749
193.398
209.954
62.1349
31.8784
30.8799
60.7346
223.196
236.696
75.5486
33.7788
32.1318
74.1861
248.395
276.825
136.734
62.4759
35.7309
54.0392
181.7
190.639
51.8078
34.0034
33.9278
64.3404
208.224
223.735
64.8433
33.1815
32.5748
65.6373
236.044
244.508
67.9173
32.1105
32.0886
73.2209
250.457
249.602
70.3031
31.0461
31.9733
78.0485
246.995
240.637
78.7096
31.7151
32.7983
84.3061
230.314
218.673
85.7515
32.6913
34.3573
92.4539
207.529
196.612
94.4599
34.375
36.6675
101.958
186.942
177.862
103.799
36.8308
39.7503
110.701
170.025
162.755
112.478
40.1464
43.5851
118.22
156.449
150.815
121.036
44.1214
48.311
124.781
145.799
141.485
128.061
49.0922
53.985
130.377
137.537
134.229
133.377
54.788
60.0779
135.289
131.124
128.654
137.884
60.9858
66.3779
139.533
126.182
124.454
141.821
67.2906
72.863
143.253
122.439
121.372
145.204
73.8502
79.5183
146.362
119.724
119.157
147.934
80.3763
85.9219
148.903
117.847
117.581
150.202
86.7023
91.9816
150.966
116.606
116.531
152.012
92.572
97.5711
152.647
115.85
115.898
153.497
98.0554
102.701
153.973
115.428
115.548
154.633
102.991
107.294
155.022
115.219
115.395
155.551
107.464
111.377
155.818
115.168
115.383
156.234
111.368
114.888
156.41
115.197
115.484
156.782
114.803
117.929
156.811
115.321
115.652
157.121
117.73
120.548
157.081
115.496
115.849
157.349
120.291
122.777
157.256
115.7
116.064
157.471
122.431
124.664
157.343
115.919
116.291
157.531
124.284
126.252
157.364
116.148
116.52
157.514
125.806
127.577
157.325
116.38
116.754
157.46
127.116
128.681
157.238
116.615
116.987
157.346
128.174
129.589
157.116
116.849
117.217
157.217
129.083
130.341
156.963
117.081
117.446
157.046
129.803
130.949
156.793
117.31
117.669
156.877
130.424
131.448
156.606
117.534
117.889
156.686
130.879
131.842
156.43
117.755
118.106
156.519
131.316
132.173
156.248
117.975
118.325
156.324
131.634
132.433
156.058
118.194
118.541
156.144
131.915
132.645
155.869
118.412
118.754
155.948
132.118
132.819
155.682
118.627
118.965
155.773
132.308
132.967
155.504
118.839
119.173
155.592
132.436
133.064
155.333
119.048
119.381
155.43
132.547
133.127
155.169
119.258
119.587
155.259
132.589
133.131
155.005
119.465
119.791
155.099
132.601
133.101
154.838
119.67
119.99
154.921
132.545
133.015
154.664
119.869
120.182
154.748
132.466
132.903
154.482
120.061
120.365
154.555
132.336
132.754
154.292
120.243
120.539
154.367
132.199
132.59
154.096
120.417
120.702
154.16
132.012
132.39
153.893
120.578
120.855
153.959
131.819
132.174
153.683
120.73
120.996
153.739
131.586
131.935
153.466
120.869
121.126
153.526
131.361
131.694
153.246
120.999
121.245
153.298
131.107
131.44
153.025
121.116
121.353
153.084
130.87
131.192
152.808
121.223
121.45
152.861
130.612
130.938
152.593
121.318
121.538
152.655
130.378
130.694
152.386
121.406
121.616
152.444
130.126
130.449
152.183
121.483
121.687
152.251
129.899
130.215
151.99
121.554
121.749
152.055
129.659
129.984
151.804
121.615
121.805
151.88
129.449
129.768
151.628
121.671
121.854
151.701
129.226
129.555
151.459
121.719
121.898
151.542
129.031
129.353
151.299
121.763
121.938
151.379
128.82
129.15
151.146
121.802
121.974
151.235
128.636
128.961
151.001
121.839
122.006
151.087
128.439
128.776
150.863
121.871
122.037
150.959
128.274
128.604
150.732
121.901
122.064
150.823
128.092
128.431
150.605
121.928
122.089
150.706
127.934
128.265
150.486
121.953
122.112
150.582
127.76
128.104
150.371
121.974
122.132
150.477
127.619
127.959
150.264
121.994
122.149
150.364
127.466
127.815
150.158
122.011
122.165
150.266
127.335
127.674
150.057
122.026
122.178
150.16
127.183
127.533
149.959
122.038
122.188
150.07
127.06
127.405
149.866
122.049
122.197
149.972
126.922
127.277
149.774
122.056
122.204
149.888
126.81
127.156
149.687
122.063
122.209
149.796
126.678
127.035
149.602
122.067
122.212
149.719
126.574
126.925
149.523
122.071
122.215
149.634
126.453
126.813
149.444
122.073
122.217
149.564
126.356
126.711
149.372
122.076
122.218
149.486
126.246
126.615
149.301
122.076
122.218
149.422
126.169
126.53
149.232
122.077
122.219
149.347
126.066
126.429
149.162
122.078
122.221
149.285
125.973
126.324
149.099
122.082
122.224
149.218
125.86
126.232
149.042
122.085
122.228
149.173
125.797
126.176
148.996
122.09
122.232
149.119
125.74
126.131
148.945
122.093
122.234
149.071
125.705
126.071
148.888
122.096
122.237
149.003
125.61
125.962
148.822
122.101
122.244
148.947
125.497
125.837
148.769
122.109
122.252
148.897
125.373
125.758
148.735
122.118
122.26
148.878
125.357
125.78
148.714
122.124
122.263
148.843
125.392
125.81
148.67
122.125
122.264
148.789
125.381
125.703
148.6
122.129
122.271
148.71
125.179
125.472
148.539
122.14
122.286
148.679
124.987
125.375
148.531
122.158
122.303
148.683
125.016
125.53
148.539
122.172
122.315
148.678
125.219
125.623
148.499
122.184
122.33
148.601
125.129
125.383
148.416
122.206
122.367
148.536
124.821
125.117
148.378
122.251
122.42
148.526
124.664
125.128
148.403
122.306
122.485
148.562
124.858
125.339
148.42
122.372
122.606
148.533
124.955
125.252
148.345
122.5
122.8
148.371
124.543
124.563
148.419
122.73
123.211
148.389
123.879
123.049
148.302
123.704
125.021
147.478
122.454
117.611
146.241
127.201
128.872
144.393
113.747
106.038
142.766
130.997
70.0018
54.5298
55.9259
66.1095
79.1492
85.8584
100.244
116.387
122.584
127.241
129.94
131.301
131.817
131.853
131.648
131.352
131.041
130.751
130.496
130.278
130.095
129.943
129.818
129.717
129.635
129.573
129.527
129.497
129.479
129.471
129.472
129.473
129.474
129.475
129.476
129.475
129.473
129.469
129.463
129.455
129.445
129.433
129.42
129.404
129.387
129.368
129.347
129.325
129.3
129.273
129.241
129.194
129.121
129.026
128.924
128.829
128.755
128.715
128.704
128.724
128.776
128.855
128.956
129.069
129.187
129.307
129.424
129.538
129.647
129.754
129.858
129.962
130.066
130.171
130.278
130.388
130.501
130.618
130.74
130.866
130.996
131.132
131.272
131.417
131.567
131.72
131.878
132.038
132.202
132.368
132.535
132.704
132.874
133.043
133.213
133.381
133.549
133.714
133.878
134.039
134.198
134.353
134.506
134.655
134.8
134.941
135.079
135.213
135.343
135.468
135.59
135.707
135.82
135.93
136.035
136.136
136.234
136.328
136.418
136.506
136.59
136.671
136.75
136.826
136.9
136.973
137.044
137.113
137.182
137.25
137.318
137.386
137.454
137.523
137.592
137.662
137.734
137.806
137.879
137.953
138.029
138.105
138.182
138.26
138.339
138.417
138.496
138.574
138.652
138.729
138.805
138.881
138.955
139.027
139.098
139.168
139.236
139.302
139.366
139.429
139.49
139.549
139.606
139.662
139.716
139.768
139.82
139.87
139.919
139.967
140.014
140.061
140.107
140.153
140.199
140.246
140.293
140.342
140.393
140.446
140.502
140.561
140.626
140.695
140.77
140.852
140.938
141.029
141.123
141.216
141.304
141.383
141.448
141.499
141.537
141.566
141.589
141.59
141.593
141.596
141.602
141.608
141.603
141.568
141.483
141.318
141.041
140.654
140.193
139.694
139.179
138.656
138.126
137.585
137.031
136.46
135.873
135.27
134.651
134.019
133.373
132.714
132.045
131.365
130.675
129.978
129.274
128.565
127.851
127.134
126.416
125.698
124.982
124.269
123.561
122.859
122.164
121.48
120.806
120.145
119.498
118.868
118.255
117.659
117.079
116.515
115.961
115.418
114.889
114.396
113.984
113.7
113.551
113.495
113.48
113.478
113.454
113.336
112.709
111.819
109.164
107.416
105.857
103.925
102.444
100.487
99.1285
97.2176
95.9918
94.1507
93.0566
91.2892
90.3142
88.6228
87.7489
86.1345
85.3449
83.8043
83.0883
81.6176
80.9637
79.5626
78.9519
77.6229
77.0496
75.7848
75.2447
74.0374
73.5267
72.3711
71.8872
70.7792
70.3201
69.257
68.8211
67.8002
67.3856
66.4038
66.0087
65.063
64.6857
63.773
63.4118
62.5294
62.1829
61.3283
60.9952
60.1665
59.8454
59.0404
58.7301
57.9462
57.6452
56.8799
56.5868
55.8376
55.5511
54.8154
54.5343
53.8098
53.5327
52.8171
52.5428
51.8336
51.5607
50.8554
50.5825
49.8783
49.6039
48.8979
48.6204
47.9096
47.6274
46.9086
46.62
45.8905
45.5938
44.8499
44.5442
43.7844
43.4692
42.6929
42.3678
41.5746
41.2395
40.4304
40.0858
39.2622
38.9096
38.0759
37.7184
36.8821
36.5243
35.6929
35.342
34.5271
34.1898
33.4032
33.0865
32.341
32.0525
31.3607
31.1056
30.4773
30.256
29.6918
29.5024
28.9994
28.8341
28.3763
28.2227
27.7912
27.6451
27.2325
27.0928
26.6971
26.564
26.1836
26.0576
25.6951
25.5776
25.2347
25.1267
24.8033
24.7021
24.3939
24.2995
24.0067
23.9193
23.642
23.561
23.2973
23.2215
22.9692
22.8974
22.6543
22.5852
22.349
22.2817
22.0505
21.984
21.756
21.6894
21.4632
21.3958
21.1704
21.102
20.8768
20.8071
20.5819
20.5108
20.2852
20.2127
19.986
19.9125
19.6848
19.6059
19.3754
19.2966
19.0993
19.0574
18.9656
18.8068
18.7583
23.5466
27.9766
28.0966
23.6065
23.8325
28.2423
28.184
23.8838
23.8386
27.7722
34.5473
32.8984
32.4971
32.1967
35.9117
36.0789
36.1335
40.8096
40.2847
39.8152
42.8696
43.2944
43.5474
43.1541
43.8088
35.2506
28.9826
24.2602
24.2062
28.2491
29.4554
24.6736
24.62
28.7541
35.9495
36.6642
29.9861
25.0988
25.0363
29.2714
30.5202
25.5142
25.4498
29.7868
37.4009
38.1142
31.0502
25.9281
25.8586
30.2958
31.5774
26.3374
26.2618
30.7916
38.829
39.5283
32.0974
26.7415
26.6597
31.2793
32.6085
27.1397
27.0515
31.7562
40.219
40.8927
33.1082
27.532
27.4378
32.2228
33.5971
27.9192
27.8195
32.6791
41.5514
42.1921
34.0755
28.3029
28.1986
33.1268
34.545
28.6856
28.5776
33.5678
42.8163
43.4243
35.0076
29.0702
28.9597
34.0042
35.4651
29.46
29.3485
34.4404
44.0134
44.5918
35.9226
29.8594
29.7485
34.8818
36.3858
30.2729
30.1643
35.3342
45.1664
45.7428
36.8609
30.705
30.5999
35.8038
37.3538
31.1583
31.0573
36.2962
46.3302
46.9433
37.8714
31.6356
31.5403
36.8222
38.428
32.1455
32.0591
37.4012
47.5976
48.3144
39.0455
32.6961
32.6193
38.0366
39.744
33.2919
33.2233
38.7362
49.1213
50.0427
40.5285
33.9338
33.8725
39.5172
41.4089
34.6286
34.5768
40.396
51.0961
52.3011
42.406
35.3914
35.3524
41.3898
43.5347
36.2407
36.2172
42.5124
53.6707
55.2091
44.8043
37.1906
37.1863
43.7723
46.2158
38.2581
38.281
45.1693
56.9083
58.7446
47.7566
39.4459
39.4969
46.6899
49.4026
40.7469
40.8232
48.3098
60.6837
62.6706
51.121
42.1444
42.2387
49.9964
52.8708
43.6056
43.7045
51.7108
64.6606
66.5997
54.6115
45.0946
45.1889
53.4157
56.309
46.5858
46.6684
55.0787
68.4597
70.202
57.9389
48.0568
48.1226
56.6804
59.4908
49.492
49.5382
58.2123
71.8195
73.3105
60.9635
50.8821
50.9085
59.6764
62.3681
52.2231
52.2293
61.0758
74.7227
76.0635
63.7079
53.5163
53.5067
62.4132
64.9853
54.7645
54.742
63.6921
77.3318
78.5333
66.206
55.9708
55.9378
64.919
67.3792
57.1418
57.1007
66.103
79.6707
80.7472
68.5149
58.2848
58.2371
67.2549
69.6235
59.4047
59.3522
68.3825
81.7886
82.8073
70.7132
60.5076
60.452
69.4925
71.7889
61.5989
61.5416
70.5904
83.8082
84.7964
72.8558
62.6837
62.6262
71.6809
73.9179
63.7666
63.7103
72.7684
85.7752
86.7471
74.9793
64.8519
64.798
73.8568
76.0432
65.9432
65.8927
74.9465
87.7134
88.6753
77.112
67.0439
66.9981
76.043
78.1877
68.1577
68.1177
77.1501
89.6358
90.6008
79.2738
69.2876
69.2542
78.2699
80.3721
70.436
70.4104
79.4036
91.5718
92.5468
81.4834
71.6055
71.5889
80.5527
82.609
72.7987
72.7921
81.7192
93.5253
94.5061
83.7508
74.0188
74.0249
82.9054
84.9104
75.2697
75.2919
84.11
95.4885
96.4726
86.088
76.5524
76.5919
85.3354
87.2855
77.8687
77.927
86.583
97.4591
98.4467
88.503
79.2207
79.2992
87.8532
89.7408
80.6105
80.7114
89.1467
99.4339
100.418
90.9995
82.0414
82.1664
90.4646
92.2804
83.5162
83.6679
91.8091
101.397
102.365
93.5865
85.0381
85.219
93.1851
94.9259
86.6078
86.8175
94.5873
103.317
104.255
96.2895
88.2221
88.4598
96.0061
97.6641
89.8801
90.1478
97.4392
105.182
106.094
99.0473
91.583
91.8833
98.884
100.436
93.3323
93.6681
100.338
106.987
107.857
101.828
95.1292
95.5042
101.797
103.217
96.9752
97.3939
103.266
108.699
109.506
104.596
98.8705
99.3382
104.736
105.958
100.796
101.331
106.186
110.271
110.985
107.291
102.739
103.356
107.602
108.581
104.697
105.39
108.961
111.638
112.219
109.809
106.649
107.394
110.234
110.941
108.541
109.308
111.375
112.708
113.085
111.93
110.308
111.038
112.321
113.351
113.19
112.971
112.699
112.381
112.022
111.623
111.191
110.726
110.233
109.713
109.171
108.607
108.025
107.424
106.805
106.171
105.525
104.869
104.206
103.538
102.862
102.18
101.496
100.81
100.127
99.4478
98.7761
98.1013
97.4111
96.7124
96.0095
95.3044
94.597
93.8856
93.1661
92.433
91.6783
90.8858
90.045
89.1444
88.1689
87.1062
85.9391
84.6331
83.1855
81.6077
79.9599
78.1129
76.167
74.182
72.2432
70.4138
68.7408