/*--------------------------------*- C++ -*----------------------------------*\
| =========                 |                                                 |
| \\      /  F ield         | OpenFOAM: The Open Source CFD Toolbox           |
|  \\    /   O peration     | Version:  v2006                                 |
|   \\  /    A nd           | Website:  www.openfoam.com                      |
|    \\/     M anipulation  |                                                 |
\*---------------------------------------------------------------------------*/
FoamFile
{
    version     2.0;
    format      ascii;
    class       volScalarField;
    location    "0.02";
    object      rho;
}
// * * * * * * * * * * * * * * * * * * * * * * * * * * * * * * * * * * * * * //

dimensions      [1 -3 0 0 0 0 0];


internalField   nonuniform List<scalar> 
12716
(
1.71174
1.71173
1.71177
1.71177
1.71178
1.71178
1.71178
1.71179
1.71178
1.71177
1.71178
1.71183
1.71191
1.71199
1.71208
1.71217
1.71227
1.71238
1.71248
1.71259
1.7127
1.71282
1.71294
1.71306
1.71319
1.71332
1.71345
1.71359
1.71373
1.71387
1.71401
1.71416
1.7143
1.71445
1.7146
1.71475
1.71489
1.71504
1.71519
1.71534
1.71549
1.71563
1.71578
1.71592
1.71606
1.7162
1.71633
1.71646
1.71659
1.71672
1.71684
1.71695
1.71706
1.71717
1.71728
1.71738
1.71747
1.71754
1.71759
1.71761
1.7176
1.71759
1.7176
1.71758
1.71758
1.71763
1.71773
1.71794
1.71832
1.71856
1.71846
1.71812
1.71848
1.71849
1.71845
1.71834
1.71787
1.71763
1.71819
1.71835
1.71823
1.71804
1.71742
1.71723
1.71788
1.7181
1.71798
1.71774
1.71707
1.71694
1.71761
1.71786
1.71776
1.7175
1.71685
1.71678
1.7174
1.71767
1.7176
1.71733
1.71673
1.7167
1.71727
1.71754
1.71749
1.71722
1.71668
1.71666
1.71718
1.71745
1.71742
1.71715
1.71666
1.71665
1.71713
1.71739
1.71737
1.71711
1.71666
1.71667
1.71711
1.71736
1.71735
1.71711
1.71668
1.71671
1.71711
1.71736
1.71736
1.71712
1.71673
1.71676
1.71714
1.71737
1.71738
1.71715
1.7168
1.71684
1.71718
1.71741
1.71743
1.71721
1.71688
1.71693
1.71725
1.71746
1.7175
1.71729
1.71699
1.71704
1.71734
1.71754
1.71758
1.71738
1.7171
1.71717
1.71744
1.71763
1.71768
1.71749
1.71724
1.71731
1.71756
1.71774
1.7178
1.71762
1.71739
1.71747
1.71769
1.71787
1.71793
1.71776
1.71754
1.71763
1.71784
1.71801
1.71808
1.71792
1.71771
1.71781
1.71801
1.71817
1.71824
1.71809
1.7179
1.718
1.71818
1.71834
1.71842
1.71827
1.71809
1.7182
1.71837
1.71852
1.71861
1.71846
1.7183
1.71842
1.71858
1.71872
1.71882
1.71868
1.71853
1.71866
1.7188
1.71893
1.71904
1.71891
1.71878
1.71892
1.71904
1.71917
1.71928
1.71916
1.71905
1.7192
1.71931
1.71942
1.71955
1.71944
1.71934
1.71951
1.71959
1.7197
1.71983
1.71973
1.71966
1.71984
1.7199
1.72
1.72015
1.72006
1.72
1.72019
1.72024
1.72032
1.72048
1.72041
1.72037
1.72057
1.7206
1.72067
1.72084
1.72078
1.72075
1.72097
1.72099
1.72104
1.72123
1.72117
1.72116
1.72138
1.72139
1.72144
1.72164
1.72159
1.72159
1.72182
1.72182
1.72186
1.72207
1.72203
1.72203
1.72228
1.72227
1.72231
1.72253
1.72249
1.7225
1.72277
1.72275
1.72278
1.723
1.72297
1.723
1.72327
1.72325
1.72327
1.72351
1.72349
1.72352
1.72381
1.72377
1.72378
1.72404
1.72402
1.72407
1.72438
1.72432
1.72433
1.72459
1.72459
1.72465
1.72497
1.7249
1.7249
1.72518
1.72519
1.72526
1.7256
1.72551
1.7255
1.72579
1.72581
1.72591
1.72625
1.72615
1.72612
1.72643
1.72646
1.72658
1.72694
1.72682
1.72677
1.72709
1.72714
1.72728
1.72766
1.72751
1.72745
1.72778
1.72785
1.72801
1.7284
1.72823
1.72815
1.7285
1.72858
1.72877
1.72916
1.72897
1.72887
1.72922
1.72933
1.72953
1.72992
1.72972
1.7296
1.72996
1.73008
1.73029
1.73067
1.73046
1.73034
1.73068
1.73081
1.73103
1.73139
1.73119
1.73105
1.73138
1.73152
1.73173
1.73207
1.73187
1.73173
1.73204
1.73218
1.73238
1.73269
1.7325
1.73236
1.73265
1.73278
1.73297
1.73322
1.73306
1.73293
1.73318
1.73329
1.73343
1.73364
1.73352
1.73341
1.73362
1.73371
1.73381
1.73396
1.73389
1.73381
1.73396
1.73403
1.7341
1.73425
1.73417
1.73411
1.73423
1.7343
1.73437
1.73446
1.73441
1.73435
1.73443
1.73448
1.73455
1.73465
1.73455
1.7345
1.73456
1.73465
1.73479
1.7351
1.73479
1.73466
1.73478
1.73503
1.73583
1.73685
1.73556
1.73503
1.73538
1.73612
1.73767
1.73842
1.73678
1.73587
1.73625
1.73725
1.73891
1.73936
1.73775
1.73669
1.73698
1.73805
1.73962
1.73992
1.73841
1.73733
1.73755
1.73862
1.74011
1.74038
1.73892
1.73785
1.73804
1.73911
1.74055
1.7408
1.7394
1.73833
1.73852
1.73958
1.74097
1.74119
1.73985
1.7388
1.73898
1.74002
1.74132
1.74149
1.74026
1.73924
1.73939
1.74038
1.74157
1.7417
1.74058
1.73962
1.73973
1.74066
1.74174
1.74184
1.74081
1.73991
1.73999
1.74086
1.74187
1.74194
1.74098
1.74013
1.74018
1.74102
1.74196
1.74203
1.74112
1.74031
1.74034
1.74115
1.74205
1.74212
1.74124
1.74045
1.74049
1.74127
1.74216
1.74225
1.74137
1.7406
1.74064
1.74141
1.7423
1.7424
1.74153
1.74076
1.74081
1.74158
1.74247
1.74258
1.74172
1.74096
1.74103
1.7418
1.74267
1.74279
1.74195
1.7412
1.7413
1.74206
1.7429
1.74302
1.74223
1.7415
1.74163
1.74235
1.74312
1.74323
1.74252
1.74184
1.74198
1.74265
1.74332
1.7434
1.7428
1.74219
1.74233
1.74291
1.74345
1.7435
1.74304
1.74251
1.74264
1.74312
1.74353
1.74355
1.74322
1.74279
1.74288
1.74327
1.74355
1.74354
1.74333
1.743
1.74307
1.74336
1.74352
1.74348
1.74339
1.74315
1.74319
1.74338
1.74343
1.74336
1.74337
1.74323
1.74324
1.74334
1.74326
1.74318
1.7433
1.74324
1.74322
1.74324
1.74306
1.74295
1.74317
1.74318
1.74313
1.74307
1.74278
1.74269
1.743
1.74308
1.74299
1.74287
1.7425
1.74295
1.74247
1.74175
1.74088
1.73989
1.73879
1.73781
1.73698
1.73627
1.73569
1.73521
1.73482
1.73449
1.73424
1.73402
1.73386
1.73372
1.73362
1.73354
1.73348
1.7334
1.73335
1.73329
1.73325
1.73348
1.73361
1.73275
1.73299
1.7337
1.73373
1.73358
1.73144
1.73179
1.73327
1.73334
1.73295
1.73317
1.73311
1.73298
1.73317
1.73319
1.73322
1.73324
1.73321
1.73317
1.73322
1.73326
1.73329
1.7333
1.73327
1.73324
1.73329
1.73331
1.73333
1.73334
1.73332
1.73329
1.73333
1.73336
1.73338
1.73339
1.73337
1.73335
1.73338
1.7334
1.73342
1.73343
1.73341
1.7334
1.73343
1.73344
1.73346
1.73347
1.73346
1.73344
1.73348
1.73348
1.7335
1.73351
1.73349
1.73349
1.73352
1.73352
1.73353
1.73354
1.73353
1.73353
1.73355
1.73356
1.73357
1.73358
1.73357
1.73356
1.73359
1.73359
1.7336
1.73361
1.7336
1.7336
1.73362
1.73363
1.73364
1.73364
1.73364
1.73363
1.73366
1.73366
1.73367
1.73368
1.73367
1.73367
1.73369
1.7337
1.73371
1.73371
1.7337
1.7337
1.73372
1.73373
1.73374
1.73375
1.73374
1.73373
1.73376
1.73377
1.73378
1.73379
1.73378
1.73377
1.73379
1.7338
1.73382
1.73383
1.73381
1.7338
1.73383
1.73384
1.73386
1.73387
1.73385
1.73384
1.73387
1.73388
1.7339
1.73391
1.7339
1.73388
1.73391
1.73392
1.73394
1.73395
1.73394
1.73392
1.73395
1.73397
1.73398
1.73399
1.73398
1.73396
1.73399
1.734
1.73402
1.73403
1.73402
1.734
1.73403
1.73404
1.73405
1.73406
1.73405
1.73404
1.73407
1.73408
1.73409
1.73409
1.73408
1.73408
1.7341
1.73411
1.73412
1.73412
1.73411
1.73411
1.73413
1.73414
1.73415
1.73416
1.73414
1.73413
1.73415
1.73417
1.73418
1.73419
1.73417
1.73416
1.73418
1.7342
1.73421
1.73422
1.7342
1.73419
1.73421
1.73423
1.73425
1.73426
1.73424
1.73421
1.73424
1.73426
1.73428
1.73429
1.73427
1.73424
1.73427
1.73429
1.73432
1.73432
1.7343
1.73427
1.7343
1.73432
1.73435
1.73435
1.73433
1.7343
1.73432
1.73435
1.73438
1.73438
1.73435
1.73432
1.73434
1.73437
1.7344
1.73441
1.73437
1.73434
1.73436
1.73439
1.73443
1.73443
1.73439
1.73435
1.73436
1.73441
1.73445
1.73445
1.73441
1.73436
1.73437
1.73442
1.73447
1.73448
1.73442
1.73436
1.73437
1.73444
1.73449
1.7345
1.73444
1.73436
1.73437
1.73445
1.73452
1.73451
1.73444
1.73435
1.73432
1.73443
1.7345
1.73453
1.73445
1.73433
1.73438
1.7345
1.73457
1.7346
1.73452
1.73439
1.73442
1.73457
1.73465
1.73474
1.73466
1.73451
1.73462
1.73477
1.73485
1.73494
1.73486
1.73473
1.73481
1.73495
1.73503
1.73511
1.73503
1.73488
1.73498
1.73513
1.73521
1.73527
1.73517
1.73498
1.73507
1.73528
1.73538
1.73552
1.73541
1.7352
1.73534
1.73556
1.73565
1.73579
1.7357
1.73549
1.73558
1.73583
1.73592
1.73606
1.73595
1.73568
1.73569
1.73607
1.7362
1.73635
1.73616
1.73559
1.73559
1.7363
1.7365
1.73661
1.73639
1.73565
1.7359
1.73657
1.73677
1.73692
1.73676
1.73629
1.73656
1.73696
1.73708
1.73726
1.73719
1.73667
1.73667
1.73775
1.7375
1.73756
1.73869
1.73626
1.73216
1.74206
1.73709
1.73784
1.73732
1.73827
1.73777
1.73804
1.73806
1.73828
1.73825
1.73808
1.73832
1.73847
1.73849
1.73863
1.73868
1.73859
1.73872
1.73878
1.73881
1.73921
1.73926
1.73929
1.73952
1.73959
1.73953
1.73986
1.73993
1.73986
1.74017
1.74033
1.74023
1.74051
1.74064
1.74054
1.74074
1.74097
1.74079
1.7411
1.74131
1.74106
1.74142
1.74179
1.74145
1.74186
1.74234
1.74186
1.74235
1.74292
1.74243
1.74287
1.74348
1.74277
1.74328
1.74411
1.74338
1.74372
1.74447
1.74372
1.74412
1.74479
1.74407
1.74471
1.74528
1.74451
1.7449
1.74572
1.7451
1.74517
1.74595
1.74527
1.74562
1.74619
1.74546
1.7461
1.74664
1.74599
1.74641
1.74696
1.7461
1.74626
1.74718
1.74689
1.74738
1.74722
1.74623
1.74629
1.74732
1.74786
1.74834
1.74741
1.74646
1.74623
1.74717
1.74863
1.74859
1.74659
1.7455
1.74536
1.7462
1.74857
1.74789
1.74514
1.74433
1.74249
1.74337
1.74643
1.7435
1.74159
1.74184
1.73593
1.73592
1.7382
1.72978
1.73121
1.73188
1.7244
1.7238
1.71663
1.69396
1.7165
1.71598
1.706
1.70675
1.6758
1.6401
1.69325
1.6986
1.68657
1.68431
1.63549
1.62955
1.67557
1.68171
1.67603
1.66921
1.63947
1.64755
1.66854
1.67484
1.67559
1.66791
1.65371
1.65717
1.66649
1.67367
1.67596
1.66813
1.66027
1.6626
1.66876
1.67662
1.67505
1.66823
1.66453
1.66662
1.66818
1.67449
1.67787
1.67061
1.66846
1.66965
1.6717
1.67834
1.6773
1.67173
1.67085
1.67233
1.67183
1.67713
1.67994
1.67383
1.67364
1.67506
1.67557
1.6803
1.68289
1.67787
1.67671
1.67813
1.67919
1.68401
1.68439
1.67966
1.67925
1.6803
1.68093
1.6852
1.68767
1.68334
1.68178
1.68288
1.68425
1.6882
1.68777
1.68456
1.68387
1.6849
1.68563
1.68826
1.69039
1.68771
1.68643
1.68738
1.6884
1.69077
1.69097
1.68891
1.68807
1.68865
1.68934
1.69088
1.69135
1.69016
1.68955
1.69069
1.69161
1.69297
1.69283
1.69173
1.69105
1.69142
1.69166
1.69232
1.6923
1.69183
1.69177
1.69411
1.69369
1.69409
1.69442
1.69418
1.69409
1.69427
1.69468
1.69497
1.69513
1.69506
1.69455
1.69435
1.69489
1.69499
1.6971
1.69712
1.69691
1.69686
1.69698
1.6972
1.69724
1.69689
1.69674
1.69646
1.69746
1.69739
1.69773
1.69384
1.69942
1.69916
1.6982
1.69893
1.69883
1.69822
1.69838
1.6976
1.69836
1.69867
1.6985
1.69738
1.69773
1.69941
1.69967
1.69987
1.69977
1.69943
1.69915
1.69881
1.69921
1.69954
1.69934
1.69879
1.69851
1.70018
1.7006
1.70066
1.70053
1.70028
1.69988
1.69965
1.69998
1.70044
1.70043
1.70053
1.69913
1.70222
1.6964
1.7008
1.70146
1.70047
1.70145
1.70093
1.70031
1.70126
1.70096
1.70085
1.69915
1.70277
1.69707
1.70131
1.70211
1.70109
1.70193
1.70126
1.70085
1.70187
1.70135
1.70108
1.69941
1.7024
1.6977
1.70144
1.70243
1.70159
1.70234
1.70164
1.70128
1.70219
1.70156
1.70132
1.6997
1.70286
1.69743
1.70166
1.70255
1.70141
1.70234
1.7015
1.70151
1.7024
1.702
1.70079
1.70139
1.69565
1.70457
1.7009
1.70236
1.70323
1.70044
1.70019
1.70281
1.70233
1.70172
1.70103
1.70142
1.69579
1.70616
1.7012
1.70262
1.704
1.70098
1.7005
1.70252
1.7022
1.7016
1.70149
1.70059
1.70215
1.70252
1.70251
1.70227
1.70205
1.70195
1.70162
1.70184
1.7019
1.70155
1.70055
1.7021
1.70231
1.70209
1.70241
1.70213
1.70166
1.70188
1.70039
1.7014
1.70153
1.70156
1.69815
1.70353
1.70296
1.70171
1.70245
1.70206
1.70122
1.70212
1.7006
1.70068
1.70109
1.70202
1.70196
1.70144
1.70098
1.70149
1.70184
1.70122
1.70114
1.69953
1.70287
1.69761
1.70129
1.702
1.70117
1.70226
1.70143
1.70062
1.70159
1.70037
1.69988
1.69995
1.70079
1.70128
1.7014
1.70119
1.70086
1.7002
1.69926
1.70028
1.70076
1.70019
1.69914
1.69932
1.70066
1.70112
1.70127
1.70089
1.70034
1.69987
1.69886
1.69923
1.69979
1.70076
1.70063
1.70005
1.69948
1.70023
1.70052
1.69966
1.69896
1.69946
1.69463
1.7027
1.69902
1.70036
1.70148
1.69903
1.6982
1.70032
1.70004
1.69905
1.6987
1.69776
1.69922
1.69975
1.69982
1.69955
1.69928
1.69873
1.69904
1.69785
1.69848
1.69784
1.70276
1.69259
1.69777
1.70056
1.69929
1.69913
1.69993
1.69688
1.6971
1.6972
1.69817
1.69874
1.69853
1.69809
1.69752
1.69771
1.69826
1.69717
1.69684
1.69672
1.69777
1.69809
1.69815
1.6977
1.69742
1.69708
1.69673
1.69684
1.69711
1.69787
1.69787
1.69748
1.69659
1.69725
1.69756
1.69631
1.69566
1.6963
1.69068
1.69971
1.69556
1.69683
1.6978
1.69508
1.69427
1.69726
1.69661
1.69572
1.69477
1.6943
1.69599
1.69647
1.69656
1.69612
1.69554
1.69532
1.69433
1.69451
1.69489
1.69565
1.69562
1.69526
1.69444
1.69479
1.69521
1.69402
1.69367
1.69344
1.69429
1.69491
1.69499
1.69471
1.69432
1.69387
1.69217
1.69375
1.69387
1.6939
1.68993
1.69599
1.6944
1.69342
1.69432
1.69374
1.69241
1.69366
1.69162
1.6924
1.69218
1.69326
1.69316
1.69253
1.69141
1.69253
1.69289
1.69171
1.69089
1.69042
1.69173
1.69261
1.69275
1.69239
1.69179
1.6911
1.6901
1.69073
1.69121
1.69207
1.69197
1.69113
1.69023
1.69103
1.69158
1.69014
1.68949
1.68905
1.69026
1.69099
1.69112
1.6907
1.69018
1.68943
1.68846
1.68888
1.68942
1.69041
1.69026
1.68936
1.68906
1.68965
1.6901
1.6892
1.6892
1.68726
1.69119
1.684
1.68942
1.68933
1.68834
1.68911
1.68859
1.68703
1.68874
1.68696
1.68848
1.685
1.68702
1.68813
1.68812
1.68774
1.68761
1.68544
1.6856
1.68497
1.68654
1.68746
1.68718
1.6861
1.68568
1.68613
1.68709
1.68549
1.68586
1.68373
1.68527
1.68643
1.68657
1.68605
1.68568
1.6842
1.68351
1.68372
1.68466
1.68553
1.68535
1.68442
1.68375
1.6843
1.68506
1.6835
1.68324
1.68215
1.68346
1.68444
1.6846
1.68415
1.68377
1.68262
1.68176
1.68197
1.6828
1.68365
1.68348
1.68268
1.68156
1.68238
1.6831
1.68145
1.68081
1.68029
1.68142
1.68233
1.68253
1.68209
1.68155
1.68051
1.67927
1.67973
1.68058
1.68154
1.68136
1.68045
1.67946
1.68034
1.68105
1.67946
1.67882
1.67812
1.67942
1.68033
1.6805
1.68022
1.67973
1.67859
1.67761
1.67772
1.67864
1.67759
1.68038
1.67315
1.677
1.67915
1.67881
1.67845
1.67861
1.67556
1.67603
1.6752
1.67709
1.67784
1.6776
1.67657
1.67573
1.6761
1.67721
1.67529
1.67523
1.67394
1.67545
1.67633
1.67643
1.67589
1.67545
1.67423
1.67356
1.67343
1.67437
1.67535
1.67521
1.67427
1.67349
1.67397
1.67483
1.67298
1.67284
1.67141
1.67281
1.67389
1.67403
1.67347
1.67303
1.6716
1.67056
1.67075
1.67179
1.67279
1.67257
1.67162
1.67043
1.67127
1.67222
1.67026
1.66968
1.66876
1.67017
1.67125
1.67144
1.67092
1.67035
1.66908
1.66782
1.66822
1.66917
1.6702
1.66995
1.6689
1.6679
1.66877
1.66966
1.66778
1.66718
1.66627
1.66753
1.66865
1.66881
1.66827
1.66756
1.66632
1.66471
1.66526
1.66622
1.66733
1.66701
1.66588
1.66483
1.66595
1.6668
1.66497
1.66415
1.66337
1.66455
1.66582
1.66606
1.66561
1.6649
1.66382
1.66136
1.66373
1.66397
1.66371
1.65857
1.66489
1.66348
1.66313
1.66419
1.66351
1.66156
1.6626
1.65919
1.66218
1.66087
1.66206
1.66172
1.66063
1.65859
1.66101
1.66141
1.65971
1.6576
1.65863
1.6589
1.66045
1.66081
1.66029
1.65883
1.65816
1.6556
1.65807
1.65798
1.65925
1.65897
1.65758
1.65585
1.65811
1.65861
1.65655
1.65484
1.65514
1.65571
1.65731
1.65755
1.65693
1.65558
1.65467
1.65177
1.65374
1.65419
1.65555
1.65507
1.65344
1.65231
1.65434
1.65492
1.65296
1.65156
1.6511
1.65245
1.65388
1.65422
1.65361
1.65239
1.65125
1.64914
1.65033
1.65117
1.65243
1.65213
1.65064
1.64968
1.65114
1.65182
1.65013
1.64916
1.6473
1.64718
1.64574
1.64779
1.64913
1.64849
1.64681
1.6462
1.64692
1.64853
1.64609
1.64614
1.64384
1.64573
1.64731
1.64772
1.64695
1.64632
1.64389
1.64266
1.64308
1.64469
1.64597
1.64566
1.64409
1.64265
1.64389
1.64525
1.64234
1.64162
1.64012
1.64174
1.64326
1.64363
1.64298
1.642
1.64015
1.63741
1.63832
1.63992
1.64143
1.6408
1.63921
1.63807
1.64009
1.64092
1.63939
1.63758
1.63665
1.63232
1.63902
1.63676
1.63874
1.63863
1.63636
1.63413
1.63777
1.63812
1.63553
1.63315
1.63336
1.63399
1.63625
1.63654
1.63576
1.63393
1.6329
1.62911
1.63139
1.63213
1.6335
1.63278
1.63057
1.62955
1.63164
1.6327
1.63101
1.63011
1.6271
1.62944
1.62569
1.62941
1.63103
1.63028
1.62906
1.62819
1.62835
1.63041
1.62691
1.62698
1.6245
1.62645
1.62794
1.62851
1.62751
1.62659
1.62407
1.6221
1.62252
1.62426
1.62517
1.62414
1.62182
1.61975
1.62269
1.6242
1.62163
1.61977
1.61891
1.61334
1.62438
1.62034
1.62233
1.62261
1.61908
1.61677
1.622
1.62184
1.6192
1.61605
1.61575
1.61693
1.6197
1.62003
1.61898
1.61678
1.61508
1.61199
1.6138
1.61487
1.61615
1.61528
1.61322
1.61053
1.61335
1.61464
1.61264
1.61094
1.60837
1.60692
1.60864
1.61019
1.61271
1.61229
1.61014
1.60846
1.61076
1.61205
1.60891
1.60724
1.60602
1.6073
1.60962
1.6102
1.6092
1.60814
1.60599
1.60246
1.6049
1.60639
1.60209
1.59936
1.59972
1.59962
1.6023
1.60357
1.6027
1.60027
1.59818
1.59631
1.59849
1.59961
1.60201
1.60131
1.59868
1.59742
1.60029
1.60127
1.59904
1.59706
1.59455
1.59184
1.59351
1.59523
1.59726
1.59648
1.5937
1.59226
1.59507
1.59651
1.59294
1.59009
1.58746
1.58093
1.58756
1.58743
1.59105
1.59001
1.58662
1.58495
1.58959
1.59055
1.58769
1.58474
1.58391
1.58537
1.58861
1.58936
1.58846
1.58686
1.58385
1.58025
1.58304
1.58524
1.5805
1.57845
1.57672
1.57788
1.58082
1.58199
1.57985
1.57769
1.57339
1.57058
1.5747
1.57716
1.57417
1.57198
1.56969
1.57345
1.57664
1.57746
1.57688
1.57549
1.57217
1.56884
1.57228
1.57447
1.5695
1.56673
1.56506
1.56725
1.57007
1.57107
1.56898
1.56716
1.56309
1.55631
1.56125
1.56441
1.5605
1.55793
1.5551
1.56043
1.56366
1.56455
1.56414
1.56249
1.55876
1.55663
1.56029
1.56226
1.55879
1.55601
1.55235
1.54852
1.55045
1.55313
1.55451
1.55273
1.54829
1.5425
1.54847
1.5516
1.5491
1.54601
1.54065
1.54005
1.54291
1.54579
1.54965
1.5485
1.54456
1.54292
1.5471
1.54915
1.5463
1.5436
1.53911
1.53397
1.53813
1.5412
1.53105
1.52607
1.52101
1.52935
1.53361
1.53602
1.53685
1.5344
1.52917
1.52837
1.53292
1.5359
1.53294
1.531
1.52489
1.52454
1.5221
1.52849
1.52849
1.52554
1.52081
1.51223
1.51967
1.52413
1.52141
1.5176
1.51113
1.51167
1.51699
1.52114
1.51893
1.51718
1.50957
1.51022
1.50882
1.51595
1.51581
1.5122
1.50577
1.49721
1.50653
1.51143
1.50939
1.50482
1.49734
1.49778
1.50496
1.50903
1.50816
1.50397
1.49703
1.49068
1.49963
1.5046
1.49796
1.48844
1.48086
1.47754
1.49215
1.49132
1.50097
1.49904
1.49116
1.4895
1.49844
1.50157
1.49829
1.49261
1.48005
1.47974
1.49114
1.49605
1.49645
1.49232
1.48246
1.47806
1.49063
1.49636
1.49593
1.48947
1.47756
1.48052
1.49151
1.49771
1.50113
1.49419
1.48265
1.48762
1.49835
1.50529
1.51001
1.50304
1.49343
1.49678
1.50584
1.5134
1.51611
1.50845
1.50011
1.50239
1.51019
1.51815
1.52004
1.51219
1.50484
1.50656
1.51343
1.52154
1.52286
1.5149
1.5085
1.51012
1.51593
1.52392
1.52494
1.51723
1.51186
1.51345
1.51829
1.52582
1.52668
1.51944
1.51494
1.51633
1.52049
1.52746
1.52816
1.52148
1.51759
1.51886
1.52239
1.52882
1.52935
1.52323
1.51999
1.52117
1.52409
1.52993
1.53036
1.52484
1.52215
1.5232
1.52568
1.53092
1.53127
1.52635
1.52407
1.52504
1.52714
1.53181
1.53212
1.52776
1.52585
1.52676
1.52853
1.53268
1.53298
1.52911
1.52748
1.52833
1.52985
1.53357
1.53386
1.53041
1.52899
1.52976
1.5311
1.53447
1.53475
1.53162
1.53037
1.53109
1.53227
1.53535
1.53565
1.53277
1.53165
1.53233
1.53339
1.53621
1.53655
1.53386
1.53283
1.53347
1.53445
1.53709
1.53743
1.53491
1.53395
1.53455
1.53547
1.53795
1.5383
1.53592
1.53501
1.53557
1.53645
1.53879
1.53915
1.53688
1.536
1.53652
1.5374
1.53961
1.53996
1.5378
1.53693
1.53742
1.53829
1.5404
1.54074
1.53867
1.5378
1.53827
1.53915
1.54115
1.54148
1.53952
1.53864
1.53907
1.53996
1.54187
1.54218
1.54031
1.53943
1.53985
1.54074
1.54256
1.54284
1.54107
1.54019
1.54057
1.54147
1.54321
1.54347
1.54179
1.5409
1.54127
1.54217
1.54384
1.54407
1.54248
1.54158
1.54193
1.54283
1.54442
1.54465
1.54312
1.54222
1.54255
1.54346
1.54497
1.54519
1.54374
1.54284
1.54315
1.54405
1.54548
1.54571
1.54431
1.54342
1.54371
1.54461
1.54597
1.54619
1.54487
1.54398
1.54426
1.54514
1.54643
1.54664
1.54538
1.54451
1.54477
1.54564
1.54686
1.54706
1.54587
1.54502
1.54527
1.54611
1.54727
1.54746
1.54633
1.5455
1.54574
1.54656
1.54765
1.54784
1.54677
1.54597
1.54619
1.54698
1.54802
1.5482
1.54718
1.54641
1.54662
1.54739
1.54836
1.54853
1.54758
1.54683
1.54703
1.54776
1.54869
1.54885
1.54795
1.54723
1.54742
1.54813
1.549
1.54915
1.5483
1.54761
1.5478
1.54846
1.54929
1.54944
1.54863
1.54798
1.54815
1.54879
1.54956
1.5497
1.54895
1.54832
1.54848
1.54909
1.54983
1.54996
1.54924
1.54864
1.5488
1.54938
1.55008
1.5502
1.54953
1.54895
1.5491
1.54965
1.55032
1.55044
1.54979
1.54924
1.54938
1.54991
1.55054
1.55065
1.55004
1.54952
1.54965
1.55015
1.55075
1.55086
1.55028
1.54978
1.5499
1.55038
1.55095
1.55106
1.5505
1.55003
1.55014
1.55059
1.55114
1.55124
1.55071
1.55026
1.55036
1.5508
1.55132
1.55142
1.55091
1.55047
1.55058
1.55099
1.5515
1.55159
1.5511
1.55068
1.55078
1.55118
1.55165
1.55175
1.55128
1.55088
1.55096
1.55135
1.55181
1.5519
1.55145
1.55106
1.55114
1.55151
1.55196
1.55204
1.55161
1.55124
1.55132
1.55167
1.5521
1.55219
1.55176
1.5514
1.55148
1.55182
1.55224
1.55232
1.55191
1.55156
1.55163
1.55196
1.55237
1.55245
1.55205
1.55171
1.55178
1.5521
1.55249
1.55257
1.55218
1.55186
1.55192
1.55223
1.55262
1.55269
1.55231
1.55199
1.55206
1.55236
1.55273
1.5528
1.55244
1.55213
1.55219
1.55248
1.55284
1.55291
1.55255
1.55225
1.55231
1.55259
1.55294
1.55301
1.55266
1.55237
1.55243
1.5527
1.55304
1.55311
1.55277
1.55249
1.55254
1.55281
1.55313
1.5532
1.55287
1.5526
1.55265
1.55291
1.55323
1.55329
1.55297
1.5527
1.55275
1.553
1.55331
1.55338
1.55306
1.5528
1.55285
1.55309
1.5534
1.55346
1.55315
1.5529
1.55294
1.55318
1.55348
1.55354
1.55324
1.55299
1.55303
1.55326
1.55356
1.55362
1.55332
1.55307
1.55312
1.55334
1.55363
1.55369
1.5534
1.55316
1.5532
1.55342
1.5537
1.55376
1.55348
1.55324
1.55328
1.55349
1.55377
1.55382
1.55355
1.55331
1.55335
1.55356
1.55384
1.55389
1.55362
1.55339
1.55342
1.55363
1.55389
1.55395
1.55368
1.55346
1.55349
1.5537
1.55396
1.55401
1.55375
1.55352
1.55355
1.55376
1.55401
1.55406
1.55381
1.55359
1.55362
1.55382
1.55407
1.55412
1.55386
1.55365
1.55367
1.55387
1.55412
1.55417
1.55392
1.5537
1.55373
1.55392
1.55417
1.55422
1.55397
1.55376
1.55378
1.55397
1.55421
1.55426
1.55401
1.5538
1.55383
1.55402
1.55426
1.55431
1.55406
1.55385
1.55387
1.55406
1.5543
1.55434
1.5541
1.55389
1.55391
1.5541
1.55433
1.55438
1.55413
1.55393
1.55394
1.55413
1.55436
1.5544
1.55416
1.55396
1.55397
1.55416
1.55439
1.55443
1.55419
1.55399
1.554
1.55419
1.55442
1.55445
1.55422
1.55402
1.55403
1.55421
1.55444
1.55448
1.55424
1.55404
1.55405
1.55423
1.55446
1.55449
1.55426
1.55406
1.55406
1.55425
1.55448
1.55451
1.55428
1.55407
1.55408
1.55427
1.55449
1.55452
1.55429
1.55409
1.55409
1.55428
1.55451
1.55454
1.5543
1.5541
1.5541
1.55429
1.55451
1.55454
1.55431
1.5541
1.5541
1.55429
1.55452
1.55454
1.55431
1.5541
1.5541
1.55429
1.55451
1.55454
1.5543
1.55409
1.55409
1.55428
1.55451
1.55453
1.55429
1.55408
1.55407
1.55427
1.55449
1.55451
1.55428
1.55406
1.55404
1.55425
1.55448
1.55449
1.55425
1.55403
1.55401
1.55421
1.55444
1.55445
1.55421
1.55398
1.55395
1.55416
1.55441
1.55439
1.55415
1.55392
1.55389
1.5541
1.55435
1.55432
1.55407
1.55384
1.5538
1.55402
1.55427
1.55425
1.55398
1.55371
1.5537
1.55398
1.55428
1.55433
1.55399
1.55371
1.5542
1.5545
1.55496
1.55564
1.55527
1.55503
1.55662
1.55656
1.55675
1.55696
1.55679
1.55715
1.55761
1.56088
1.5622
1.56442
1.56623
1.56692
1.5676
1.56797
1.56874
1.56925
1.56971
1.57012
1.57048
1.57079
1.57104
1.57124
1.57139
1.57152
1.57162
1.57169
1.57175
1.5718
1.57184
1.57187
1.57189
1.5719
1.57191
1.57192
1.57192
1.57193
1.57192
1.57196
1.57201
1.57205
1.57211
1.57217
1.57224
1.57231
1.57239
1.57248
1.57259
1.57271
1.57286
1.57303
1.57322
1.57344
1.57368
1.57393
1.57417
1.57436
1.57449
1.57458
1.57467
1.5748
1.57496
1.57513
1.5753
1.57548
1.57567
1.57585
1.57605
1.57625
1.57648
1.57673
1.57702
1.57734
1.5777
1.57812
1.57859
1.57912
1.57972
1.5804
1.58116
1.58201
1.58295
1.584
1.58515
1.58641
1.58779
1.58928
1.59088
1.5926
1.59443
1.59636
1.59839
1.60052
1.60273
1.60502
1.60737
1.60978
1.61223
1.61472
1.61723
1.61976
1.6223
1.62483
1.62735
1.62986
1.63234
1.63479
1.6372
1.63958
1.64192
1.64421
1.64645
1.64863
1.65077
1.65285
1.65488
1.65686
1.65878
1.66064
1.66245
1.66421
1.66591
1.66756
1.66916
1.67071
1.6722
1.67365
1.67506
1.67641
1.67772
1.67899
1.68022
1.6814
1.68255
1.68365
1.68472
1.68575
1.68675
1.68771
1.68864
1.68954
1.69041
1.69125
1.69205
1.69283
1.69359
1.69431
1.69502
1.69569
1.69635
1.69698
1.69759
1.69818
1.69875
1.6993
1.69983
1.70034
1.70084
1.70132
1.70179
1.70224
1.70267
1.70309
1.7035
1.70389
1.70426
1.70463
1.70498
1.70532
1.70565
1.70596
1.70626
1.70655
1.70684
1.7071
1.70736
1.70761
1.70785
1.70808
1.7083
1.70851
1.70871
1.70891
1.70909
1.70927
1.70944
1.7096
1.70975
1.70989
1.71003
1.71015
1.71027
1.71037
1.71047
1.71055
1.71063
1.71071
1.71079
1.71089
1.711
1.71111
1.71121
1.71135
1.71157
1.71159
1.7116
1.71162
1.71165
1.71168
1.7117
1.71177
1.71193
1.71205
1.71212
1.71218
1.71225
1.71233
1.71241
1.71249
1.71258
1.71267
1.71278
1.71288
1.71299
1.71311
1.71323
1.71335
1.71348
1.71361
1.71374
1.71388
1.71402
1.71416
1.7143
1.71445
1.71459
1.71474
1.71489
1.71503
1.71518
1.71532
1.71546
1.71561
1.71575
1.71589
1.71602
1.71615
1.71628
1.71641
1.71653
1.71664
1.71675
1.71686
1.71696
1.71705
1.71714
1.71723
1.71731
1.71739
1.71748
1.71753
1.71753
1.71753
1.71761
1.71777
1.71808
1.71821
1.71829
1.71819
1.7181
1.71802
1.71794
1.71787
1.71781
1.71775
1.71771
1.71767
1.71765
1.71762
1.71761
1.7176
1.7176
1.7176
1.7176
1.71761
1.71763
1.71765
1.71767
1.7177
1.71774
1.71777
1.71782
1.71786
1.71791
1.71797
1.71803
1.71809
1.71816
1.71823
1.7183
1.71838
1.71846
1.71854
1.71863
1.71872
1.71882
1.71891
1.71902
1.71912
1.71923
1.71935
1.71947
1.7196
1.71973
1.71986
1.72
1.72015
1.7203
1.72047
1.72063
1.7208
1.72098
1.72117
1.72135
1.72156
1.72176
1.72197
1.72218
1.72241
1.72263
1.72287
1.7231
1.72335
1.7236
1.72386
1.72412
1.72439
1.72466
1.72495
1.72524
1.72554
1.72583
1.72615
1.72646
1.72679
1.72711
1.72745
1.72777
1.72812
1.72846
1.72882
1.72916
1.72953
1.72987
1.73023
1.73057
1.73093
1.73126
1.7316
1.73191
1.73222
1.7325
1.73279
1.73304
1.73329
1.7335
1.7337
1.73387
1.73403
1.73416
1.73428
1.73436
1.73444
1.73449
1.73454
1.7346
1.73468
1.73478
1.73496
1.73516
1.73545
1.73567
1.73596
1.73615
1.73642
1.73659
1.73687
1.73703
1.73731
1.73748
1.73776
1.73791
1.73817
1.7383
1.73852
1.73862
1.73881
1.73888
1.73903
1.73908
1.73922
1.73926
1.73939
1.73943
1.73956
1.73962
1.73977
1.73983
1.74002
1.7401
1.74033
1.74045
1.74071
1.74086
1.74114
1.7413
1.74157
1.74173
1.74197
1.74211
1.74232
1.74243
1.7426
1.74268
1.74281
1.74286
1.74294
1.74297
1.74299
1.74299
1.74298
1.74243
1.74165
1.74159
1.7424
1.74233
1.74148
1.74141
1.74227
1.74221
1.74139
1.73997
1.74053
1.74067
1.74076
1.73975
1.73966
1.73962
1.7384
1.73855
1.73867
1.73767
1.73754
1.73747
1.73763
1.73738
1.73954
1.741
1.74202
1.74198
1.74109
1.74064
1.74172
1.74165
1.7407
1.73916
1.73867
1.74021
1.74135
1.74127
1.74026
1.73973
1.74092
1.74082
1.73977
1.73819
1.73769
1.73923
1.74045
1.74034
1.73927
1.73872
1.73996
1.73985
1.73877
1.73722
1.7368
1.73826
1.73949
1.7394
1.73833
1.73787
1.73908
1.73901
1.73796
1.73646
1.73619
1.73756
1.73875
1.7387
1.73767
1.73733
1.73848
1.73846
1.73744
1.73599
1.73584
1.73713
1.73827
1.73826
1.73725
1.73696
1.73809
1.73808
1.73708
1.7357
1.73557
1.73679
1.73791
1.73789
1.7369
1.73661
1.73771
1.73769
1.7367
1.73545
1.73532
1.73641
1.73748
1.73745
1.73648
1.73618
1.73721
1.73716
1.73623
1.73519
1.73507
1.73593
1.7369
1.73683
1.73597
1.73568
1.73656
1.73648
1.7357
1.73497
1.73489
1.73544
1.73621
1.73613
1.73545
1.73524
1.73588
1.7358
1.73523
1.73482
1.73477
1.73506
1.73557
1.73549
1.73504
1.7349
1.73528
1.73518
1.73487
1.73474
1.73473
1.73478
1.735
1.7349
1.73473
1.7347
1.73477
1.73469
1.73465
1.73472
1.73473
1.73465
1.73463
1.73458
1.73461
1.73462
1.73455
1.73452
1.73457
1.73473
1.73467
1.73456
1.73447
1.73443
1.73448
1.73443
1.73434
1.73425
1.73431
1.73454
1.73433
1.73422
1.73412
1.734
1.73406
1.73393
1.73382
1.73366
1.73373
1.73403
1.73365
1.73356
1.73344
1.73325
1.73332
1.73311
1.73299
1.73275
1.73283
1.73319
1.73266
1.7326
1.73246
1.7322
1.73228
1.73202
1.73188
1.73158
1.73167
1.73207
1.73144
1.7314
1.73124
1.73093
1.73103
1.73074
1.73057
1.73025
1.73036
1.73077
1.73009
1.73007
1.72989
1.72956
1.72967
1.72939
1.7292
1.72887
1.72899
1.72941
1.72874
1.72872
1.72851
1.72818
1.72832
1.72805
1.72784
1.72752
1.72765
1.72808
1.72743
1.7274
1.72718
1.72687
1.72701
1.72676
1.72654
1.72624
1.72638
1.7268
1.72619
1.72615
1.72593
1.72564
1.72578
1.72555
1.72534
1.72506
1.7252
1.7256
1.72503
1.72498
1.72477
1.7245
1.72464
1.72444
1.72423
1.72397
1.72411
1.72449
1.72398
1.72392
1.72372
1.72347
1.7236
1.72342
1.72322
1.72298
1.72312
1.72349
1.72302
1.72295
1.72276
1.72253
1.72266
1.7225
1.72231
1.72209
1.72223
1.72258
1.72216
1.72208
1.72189
1.72169
1.72182
1.72168
1.7215
1.7213
1.72144
1.72177
1.7214
1.72131
1.72113
1.72094
1.72108
1.72096
1.72078
1.72061
1.72075
1.72106
1.72074
1.72064
1.72046
1.7203
1.72044
1.72034
1.72016
1.72002
1.72015
1.72045
1.72017
1.72006
1.71989
1.71975
1.71988
1.7198
1.71963
1.71951
1.71963
1.71991
1.71967
1.71956
1.7194
1.71928
1.7194
1.71934
1.71918
1.71907
1.71919
1.71944
1.71924
1.71913
1.71898
1.71887
1.71899
1.71894
1.71879
1.71869
1.71881
1.71904
1.71886
1.71876
1.71862
1.71853
1.71864
1.71859
1.71846
1.71838
1.71849
1.7187
1.71855
1.71844
1.71831
1.71824
1.71834
1.71831
1.71818
1.71812
1.71822
1.71841
1.71829
1.71819
1.71807
1.71801
1.71811
1.71809
1.71797
1.71792
1.71801
1.71818
1.71808
1.71799
1.71789
1.71784
1.71793
1.71792
1.71782
1.71778
1.71787
1.718
1.71794
1.71786
1.71777
1.71774
1.71782
1.71782
1.71773
1.71772
1.71779
1.71789
1.71785
1.71779
1.71772
1.71771
1.71777
1.71778
1.71772
1.71773
1.71778
1.71784
1.71785
1.7178
1.71775
1.71777
1.71781
1.71784
1.7178
1.71783
1.71786
1.71787
1.7179
1.7179
1.71788
1.71792
1.71793
1.71797
1.71798
1.71804
1.71802
1.71792
1.7179
1.71804
1.7181
1.71817
1.71808
1.71767
1.71778
1.71784
1.71786
1.71787
1.71789
1.71792
1.71797
1.71802
1.7181
1.71818
1.71828
1.71839
1.71852
1.71867
1.71882
1.71899
1.71917
1.71937
1.71958
1.71981
1.72006
1.72032
1.7206
1.7209
1.72121
1.72155
1.72192
1.7223
1.72271
1.72315
1.72361
1.72409
1.7246
1.72513
1.72568
1.72626
1.72687
1.7275
1.72815
1.72881
1.72949
1.73019
1.73088
1.73158
1.73224
1.73287
1.73342
1.7339
1.73428
1.73458
1.73478
1.7349
1.73495
1.73494
1.7349
1.73486
1.73482
1.73479
1.73475