/*--------------------------------*- C++ -*----------------------------------*\
| =========                 |                                                 |
| \\      /  F ield         | OpenFOAM: The Open Source CFD Toolbox           |
|  \\    /   O peration     | Version:  v2006                                 |
|   \\  /    A nd           | Website:  www.openfoam.com                      |
|    \\/     M anipulation  |                                                 |
\*---------------------------------------------------------------------------*/
FoamFile
{
    version     2.0;
    format      ascii;
    class       volScalarField;
    location    "0.154";
    object      k;
}
// * * * * * * * * * * * * * * * * * * * * * * * * * * * * * * * * * * * * * //

dimensions      [0 2 -2 0 0 0 0];


internalField   nonuniform List<scalar> 
16277
(
78.755
78.7553
78.7617
78.7635
78.7681
78.7617
78.747
78.7002
78.5914
78.417
78.1925
77.9418
77.681
77.4176
77.1519
76.8817
76.604
76.3167
76.0182
75.7081
75.3862
75.0529
74.7082
74.3526
73.9862
73.6092
73.222
72.8246
72.4175
72.0009
71.5752
71.1408
70.6981
70.2475
69.7895
69.3246
68.8532
68.3759
67.8931
67.4055
66.9135
66.4177
65.9187
65.4169
64.9131
64.4077
63.9013
63.3945
62.8879
62.3821
61.8776
61.3751
60.875
60.378
59.8847
59.3956
58.9113
58.4323
57.9591
57.4925
57.0328
56.5806
56.1363
55.7006
55.2739
54.8566
54.4493
54.0522
53.6659
53.2907
52.927
52.5751
52.2356
51.9088
51.5951
51.2946
51.0067
50.7299
50.4617
50.1993
49.9428
49.6995
49.491
49.3473
49.2825
49.2736
49.2881
49.3069
49.3184
49.317
49.3067
49.241
49.0901
48.8378
48.3205
47.4671
43.1343
38.6798
45.3964
47.7155
46.0161
41.1645
34.526
31.6353
38.9003
44.7176
42.2919
35.3636
28.9184
27.205
33.9419
41.2594
39.0175
31.2936
25.4438
24.3785
30.4094
38.2128
36.3906
28.5344
23.1882
22.491
28.0227
35.8076
34.3536
26.752
21.6582
21.1739
26.4173
33.9033
32.7069
25.4701
20.5477
20.1906
25.2378
32.3576
31.3427
24.4887
19.6924
19.4167
24.3202
31.063
30.1789
23.6993
19.0025
18.7795
23.5723
29.9492
29.1635
23.0385
18.4216
18.2338
22.9391
28.9705
28.2604
22.4657
17.9157
17.753
22.3845
28.095
27.4445
21.9542
17.4639
17.3188
21.8856
27.3002
26.698
21.4877
17.0511
16.9188
21.4282
26.5703
26.009
21.0559
16.6675
16.5448
21.0035
25.8948
25.3676
20.6522
16.3066
16.1911
20.6053
25.2642
24.7664
20.2713
15.9634
15.8535
20.2288
24.6724
24.2009
19.9096
15.6344
15.5288
19.8708
24.1154
23.668
19.5647
15.317
15.2148
19.5291
23.5904
23.1653
19.2349
15.0091
14.9098
19.2023
23.0947
22.6898
18.9189
14.7093
14.6123
18.8888
22.6254
22.2387
18.6149
14.4162
14.321
18.5869
22.1795
21.809
18.3211
14.1287
14.035
18.2947
21.7543
21.3981
18.036
13.8457
13.753
18.0107
21.3471
21.0036
17.7579
13.5662
13.474
17.7334
20.9558
20.6236
17.4854
13.2891
13.1972
17.4614
20.5784
20.2561
17.2172
13.0136
12.9217
17.1932
20.2131
19.8997
16.9521
12.739
12.6467
16.9279
19.8583
19.5527
16.689
12.4644
12.3716
16.6643
19.5127
19.2139
16.427
12.1893
12.0956
16.4017
19.1748
18.882
16.1655
11.913
11.8184
16.1393
18.8436
18.5561
15.9036
11.6352
11.5395
15.8765
18.5183
18.2355
15.641
11.3556
11.2586
15.6129
18.1981
17.9194
15.3772
11.0738
10.9757
15.3481
17.8821
17.6071
15.112
10.7899
10.6909
15.0821
17.57
17.2984
14.8458
10.5042
10.4044
14.815
17.2613
16.9927
14.5782
10.2171
10.1167
14.5466
16.9555
16.6897
14.3092
9.92895
9.82856
14.2768
16.6525
16.3892
14.0391
9.64077
9.54085
14.0063
16.352
16.0913
13.7686
9.35366
9.25495
13.7357
16.0541
15.796
13.4986
9.06917
8.97258
13.4661
15.7592
15.5041
13.2303
8.78926
8.69597
13.1988
15.468
15.2165
12.9656
8.51642
8.42783
12.9357
15.1814
14.934
12.7063
8.25362
8.17142
12.6789
14.9004
14.6581
12.4548
8.00435
7.93055
12.431
14.6267
14.3907
12.2142
7.7727
7.70973
12.195
14.3623
14.1343
11.9884
7.5632
7.51433
11.9739
14.1099
13.8921
11.7807
7.38238
7.34889
11.7675
13.8722
13.6651
11.5843
7.23779
7.21922
11.5739
13.6503
13.4553
11.4042
7.13154
7.1289
11.3977
13.4461
13.2643
11.2445
7.07146
7.0814
11.2425
13.2611
13.0949
11.1085
7.05441
7.07902
11.1104
13.0967
12.9462
10.9928
7.07163
7.12264
10.9983
12.9527
12.8183
10.8935
7.13067
7.20909
10.9026
12.8303
12.7131
10.8126
7.23306
7.33506
10.8254
12.7295
12.6278
10.7514
7.37105
7.48985
10.7685
12.6485
12.5615
10.7108
7.53489
7.66583
10.7334
12.5865
12.5147
10.6931
7.71786
7.85827
10.7224
12.5443
12.4877
10.6979
7.91524
8.06188
10.7372
12.522
12.4801
10.7197
8.12116
8.26996
10.7743
12.5224
12.4896
10.763
8.32966
8.47727
10.8312
12.5399
12.5116
10.8252
8.53549
8.67865
10.9051
12.5731
12.5488
10.9038
8.73372
8.86949
10.9932
12.6195
12.5983
10.9952
8.92011
9.04616
11.0922
12.6761
12.6567
11.0946
9.09149
9.20568
11.1932
12.7378
12.7191
11.1955
9.24455
9.34515
11.2943
12.8007
12.7819
11.2959
9.37698
9.46334
11.3937
12.8616
12.8418
11.3941
9.48798
9.56016
11.4885
12.9169
12.8956
11.4873
9.57785
9.6366
11.5769
12.9644
12.941
11.5739
9.6479
9.69455
11.6574
13.0022
12.976
11.6521
9.70019
9.73625
11.7283
13.0282
12.9994
11.7205
9.73704
9.76292
11.7885
13.0424
13.0092
11.778
9.7605
9.77849
11.8376
13.0458
13.0078
11.8245
9.77352
9.78509
11.8758
13.0384
12.996
11.8602
9.77796
9.78549
11.9039
13.0224
12.9741
11.885
9.77517
9.78021
11.9225
12.9972
12.9425
11.899
9.76513
9.76909
11.9322
12.9627
12.9024
11.9048
9.75106
9.75419
11.9341
12.9199
12.8547
11.9029
9.73385
9.73637
11.9287
12.8696
12.8001
11.8942
9.71401
9.71601
11.9167
12.8127
12.7392
11.8792
9.69204
9.69352
11.8984
12.7497
12.6727
11.8584
9.66837
9.66942
11.8747
12.6812
12.6015
11.8327
9.64292
9.64357
11.8471
12.6082
12.5263
11.8026
9.61653
9.61715
11.8153
12.5312
12.4475
11.7679
9.58927
9.59049
11.7803
12.4511
12.3646
11.7312
9.5621
9.56368
11.741
12.3694
12.2794
11.6867
9.53309
9.54511
11.6992
12.2867
12.2078
11.6868
9.53211
9.55548
11.6577
12.1956
12.1777
11.6972
9.59617
9.70382
11.4847
12.1284
12.8051
12.1967
10.2361
10.2194
10.8473
11.5267
13.772
16.295
18.9368
21.1674
22.7087
24.7502
26.0448
27.1509
27.8992
28.4229
28.6701
28.6653
28.3947
27.7915
26.9149
25.3836
24.2928
22.1064
20.122
18.0167
15.8495
14.2343
12.593
12.5258
8.16012
7.96737
12.4939
12.5255
12.5013
12.4814
7.75438
7.58434
12.496
12.5211
12.5826
12.5349
7.47811
7.48188
12.5602
12.6016
12.6333
12.5665
7.41494
7.41697
12.5846
12.6709
12.6905
12.6027
7.42537
7.43458
12.6127
12.7212
12.7384
12.6299
7.4468
7.45726
12.6449
12.7737
12.7901
12.6602
7.46945
7.48346
12.6816
12.8242
12.8402
12.6947
7.49756
7.51303
12.7205
12.8765
12.8935
12.7328
7.52642
7.54251
12.7582
12.9316
12.95
12.7706
7.55622
7.57156
12.7945
12.9891
13.0062
12.8112
7.58551
7.60221
12.8327
13.0436
13.062
12.8524
7.61823
7.63298
12.8713
13.1049
13.1245
12.8914
7.64767
7.66413
12.9118
13.165
13.1845
12.9352
7.68186
7.69904
12.9577
13.2275
13.2475
12.98
7.71602
7.73324
13.0012
13.2919
13.3135
13.0253
7.75136
7.76798
13.0477
13.3606
13.382
13.0717
7.7851
7.80337
13.0946
13.4263
13.4478
13.1198
7.82209
7.83964
13.1425
13.4967
13.5202
13.1658
7.85679
7.87406
13.1926
13.5703
13.594
13.2125
7.8915
7.91088
13.2429
13.6443
13.6675
13.2666
7.92915
7.94936
13.2998
13.7163
13.7397
13.3223
7.96924
7.98978
13.355
13.7922
13.817
13.3804
8.00877
8.029
13.4143
13.8703
13.8957
13.4367
8.04773
8.06865
13.4722
13.9503
13.9757
13.4976
8.08707
8.10804
13.5351
14.0305
14.0571
13.5573
8.12639
8.14685
13.595
14.1162
14.1435
13.6205
8.16405
8.18458
13.6606
14.1996
14.2261
13.6861
8.20318
8.22473
13.7276
14.2818
14.3079
13.7567
8.24293
8.2638
13.7992
14.3623
14.3878
13.8252
8.28146
8.30213
13.8687
14.4414
14.4659
13.8988
8.31954
8.33936
13.9427
14.5166
14.5402
13.9696
8.35581
8.37435
14.0124
14.5867
14.6062
14.044
8.39004
8.40796
14.0795
14.6424
14.6587
14.1097
8.42336
8.43712
14.1374
14.6924
14.7058
14.1643
8.44963
8.46167
14.1839
14.7288
14.7373
14.207
8.47455
8.48541
14.2201
14.7496
14.7514
14.2304
8.49605
8.50641
14.2348
14.7541
14.7394
14.2319
8.51643
8.52513
14.2167
14.7329
14.697
14.195
8.53389
8.5437
14.1635
14.6798
14.627
14.111
8.55369
8.56657
14.057
14.6024
14.541
13.9826
8.58104
8.60013
13.8985
14.5117
14.44
13.7972
8.62105
8.65529
13.698
14.4005
14.2982
13.5744
8.69877
8.75813
13.4526
14.2351
14.1167
13.2938
8.83168
8.91724
13.1349
14.0667
13.9882
12.937
9.00954
9.12273
12.7615
13.9449
13.8413
12.558
9.27111
9.4694
12.3797
13.7921
13.731
12.1561
9.70123
9.9483
11.9693
13.7101
13.6876
11.8611
10.1691
10.3833
11.6439
13.6803
13.6636
11.4226
10.6016
10.7556
11.2807
13.7622
13.761
11.2304
10.9159
11.0661
10.9975
13.9256
13.9802
10.9283
11.2258
11.3734
10.8909
14.2324
14.339
10.901
11.4817
11.6036
11.0626
14.7194
14.8886
11.1457
11.7622
11.9303
11.5122
15.4234
15.7618
11.9288
12.0392
12.2235
12.847
16.6369
16.9601
13.5453
12.4624
10.8236
9.73045
10.5382
14.4099
11.5029
11.1497
11.0134
10.7955
14.2134
14.4025
10.5991
11.2753
11.5029
10.3214
14.1824
14.6006
10.379
11.7863
12.0107
10.2994
14.5984
15.3725
10.6147
12.2009
12.3461
10.6975
15.4384
16.4905
11.4816
12.571
12.8405
11.8932
16.8636
18.6039
13.3097
13.2873
13.6196
14.0579
19.2949
10.8997
9.42814
12.8045
12.5684
11.5959
16.6033
16.8647
11.5071
12.4938
12.5884
12.3546
18.7864
19.3068
12.6121
12.6589
12.9273
13.6472
20.7522
21.4574
14.2562
13.296
13.8533
15.8812
23.3305
23.7177
17.0231
14.6059
13.1963
10.6617
12.9596
20.5928
13.1285
13.0396
13.0191
13.123
21.0507
23.0617
14.4024
13.3898
13.6467
14.8084
23.4395
26.3243
17.2286
14.3408
15.3407
19.1665
27.2444
14.9979
11.4606
13.4021
13.8
15.2166
25.1571
26.4094
16.0491
13.8192
14.5608
19.1633
30.5431
32.1666
21.037
15.3345
16.9818
24.3728
33.9699
19.2872
13.482
13.8271
14.6111
19.2088
32.2229
33.2324
20.1001
14.8708
16.6243
25.931
39.0994
40.9739
29.1092
18.1446
14.415
15.9492
25.2212
41.9137
25.8017
16.2342
17.0704
28.1077
44.7729
53.3715
37.4934
20.236
21.7063
40.4414
55.0412
39.068
23.6892
16.5564
21.3569
43.1396
60.4802
63.2886
47.2229
23.5645
17.6678
28.4497
49.1027
74.4444
56.0404
25.4952
29.1701
62.7547
79.3464
70.9081
44.0797
19.5004
37.689
81.3851
94.1098
87.6774
63.0835
20.0585
38.048
89.8606
105.76
107.537
89.6341
37.5726
39.4168
87.8846
105.524
101.706
86.3253
42.8139
56.0225
95.8005
102.224
77.8117
53.7687
38.8722
45.1926
71.1127
82.5214
58.2538
41.9182
31.8293
33.3914
51.8252
65.2475
59.3625
43.2874
29.6041
23.8756
24.5282
36.5217
48.4693
37.4314
26.8055
22.5025
24.6768
33.0355
43.2789
32.0001
23.8822
21.6081
27.5639
39.5776
23.6423
18.0301
20.0913
21.2259
24.8963
35.0473
32.083
21.9733
19.3817
18.854
15.385
19.1428
29.4876
20.7615
19.3602
18.0905
18.7803
26.8436
16.3766
13.938
17.9255
17.95
18.0017
25.568
23.041
16.532
17.2015
17.4332
12.8822
14.4216
22.2507
15.9728
16.8653
16.57
14.7031
19.9992
12.7834
11.9268
17.2002
16.1259
14.4615
19.5035
17.5467
13.3665
15.9269
16.8016
11.1638
11.6395
17.5059
13.2401
15.4397
15.2614
12.2476
15.8898
10.7522
10.3892
16.1189
14.7371
12.4795
16.4
14.1059
11.3393
14.5415
14.978
10.2809
12.2316
9.1066
9.21501
15.8149
13.6495
9.98077
12.4793
11.4733
9.37284
14.1506
15.8125
8.50938
8.40329
11.2815
9.0673
13.4566
14.1093
8.90422
10.4349
7.91833
8.37893
15.3701
12.8449
8.43869
10.0442
9.4765
8.29447
13.4242
15.1583
7.7848
7.32061
9.40154
7.92946
12.7148
13.5229
8.01799
8.86196
7.0896
7.65076
15.4119
12.6855
7.54378
8.73661
8.22791
7.46991
13.3777
14.9121
7.71779
6.74576
8.14974
7.26539
12.1571
12.9567
7.10315
7.65633
6.43417
7.62214
14.5525
12.0176
6.89572
7.44938
7.11768
6.74717
13.0656
14.8099
7.64566
6.11439
7.07323
6.80664
12.2669
13.9193
6.98417
6.02302
7.68291
6.72027
11.6072
12.5317
6.73472
7.21647
6.24863
7.38834
14.436
11.8949
6.74581
7.33318
7.00864
6.68202
12.8044
14.6248
7.37783
6.13887
7.29361
6.7248
11.9645
12.9488
6.55688
6.84332
6.1257
7.78105
15.0393
12.3728
6.54421
6.69285
6.37986
6.3352
13.3796
15.3172
7.8578
5.88065
6.35149
6.34444
12.3049
13.4519
6.14422
5.97129
5.72283
8.19771
15.4174
12.4796
5.83589
6.01933
5.48928
7.151
14.572
11.9707
5.9443
6.06013
5.66585
5.79372
13.0215
15.0617
7.72074
5.50425
5.84997
5.93399
12.291
13.4919
5.7689
5.31684
5.38579
8.29137
15.5966
12.6112
5.42381
5.38024
5.08605
7.03171
14.8084
11.9345
5.57155
5.51966
5.14362
5.51685
13.0839
15.3063
7.79748
5.21066
5.54267
5.72696
12.4193
13.7749
5.66407
5.06273
5.26849
8.47551
16.0462
12.9825
5.23216
5.09373
4.92373
7.10414
15.3125
12.2518
5.4014
5.2814
4.85135
5.39537
13.5324
15.9184
8.01859
5.02366
5.14304
5.47274
12.863
14.2856
5.46078
4.7298
5.12788
8.42161
17.2727
13.5434
4.81103
4.68408
4.69321
7.20735
15.9886
12.5571
5.09653
4.90268
4.49921
5.24123
14.0326
16.5295
8.64793
4.93596
4.59785
4.8781
13.2628
16.1193
7.23231
4.64865
4.85101
5.07855
12.7152
14.1852
5.15053
4.46687
4.97014
8.64742
17.0138
13.5219
4.88687
4.57779
4.65172
7.33932
16.1941
12.7249
5.04332
4.79575
4.46666
5.2155
14.3143
17.372
8.82077
5.00785
4.60559
4.87026
13.7419
16.7681
7.52465
4.70792
4.83738
5.08884
13.1301
14.7663
5.29691
4.46118
5.05629
9.1479
17.4718
13.9325
4.97078
4.59545
4.72176
7.60598
16.974
13.4662
5.09608
4.79886
4.46631
5.27299
15.1819
18.7075
9.22585
5.15086
4.59249
4.80062
14.6705
17.9385
8.38536
4.96941
4.59171
4.67665
14.0151
16.6919
7.62406
4.74963
4.85523
5.11371
13.2649
14.9769
5.38733
4.52055
5.18947
9.44932
18.1955
14.4741
5.06377
4.67048
4.8651
8.02964
17.8182
14.0752
5.21554
4.88387
4.56171
5.50216
15.9321
19.695
9.73364
5.34005
4.69245
4.98135
15.5033
18.8515
8.73934
5.1332
4.66368
4.78077
14.8617
17.6698
7.93065
4.86221
4.91298
5.23587
13.9502
15.7971
5.48405
4.56645
5.37065
10.0863
19.0965
15.3096
5.23354
4.77095
5.22806
8.80484
19.0287
15.036
4.8137
4.78015
5.03793
8.28869
18.0818
14.3954
5.36789
5.045
4.72034
5.75208
16.317
19.929
10.2623
5.55776
4.89483
5.28557
15.8992
19.7483
9.12166
5.39692
4.87191
4.96802
15.5237
18.6489
8.55236
5.14904
5.11972
5.48182
14.7194
16.67
5.82858
4.79605
5.68612
10.6841
20.2303
16.1894
5.53973
5.02723
5.55881
9.40602
20.0779
15.9673
5.15579
5.01973
5.34697
8.87492
19.1357
15.1815
5.64534
5.25573
4.91486
6.03639
17.3303
21.0341
11.118
5.88162
5.17887
5.69643
17.1251
21.3793
9.78455
5.76801
5.12681
5.18943
16.7738
20.176
9.23861
5.51404
5.32776
5.76103
15.8218
17.9512
6.1336
4.96567
5.99306
11.5234
21.5775
17.3405
5.86528
5.25742
5.88923
10.1235
21.737
16.9515
5.29335
5.2081
5.78202
9.52674
20.7202
16.5139
5.31463
5.18932
5.64324
9.5056
20.0579
15.8952
5.88144
5.42291
5.1332
6.39063
18.1479
22.8583
11.8359
6.27928
5.41615
5.95274
18.3224
22.8744
10.4397
6.10518
5.35483
5.53288
18.0184
21.759
10.0152
5.96632
5.32511
5.52297
17.153
20.7545
9.91444
5.82712
5.5741
6.09597
16.5012
18.8449
6.5211
5.25914
6.44096
12.2745
23.0647
18.619
6.26951
5.60206
6.3379
10.8991
23.5318
18.4464
5.7124
5.55735
6.21204
10.2892
22.4
17.7593
5.69723
5.52882
6.07953
10.3428
21.4871
17.1309
6.34749
5.7464
5.45163
6.823
19.4826
23.7805
12.7795
6.73482
5.7846
6.52567
19.3459
24.5213
11.3236
6.60256
5.74381
5.89519
19.306
23.6785
10.8681
6.48698
5.72326
5.96243
18.7262
22.7254
10.8187
6.32017
5.89292
6.53918
17.9407
20.5146
7.12349
5.60512
7.08491
13.2512
25.9152
20.6223
6.57063
5.95078
6.83977
11.6416
25.5084
19.9307
6.0217
5.88883
6.71529
11.2906
24.4075
19.4359
6.15329
5.86934
6.64914
11.1336
23.8792
19.0492
6.21576
5.88817
6.56378
11.1468
23.1481
18.5755
6.89056
6.11056
5.85717
7.4784
21.2758
26.1544
14.0989
7.41022
6.20978
7.08183
21.276
26.965
12.4332
7.26639
6.15117
6.38961
21.0633
25.6574
11.8083
7.04262
6.1151
6.366
20.2948
24.9564
11.6659
6.96127
6.13208
6.52551
20.0071
24.3062
11.7192
6.82613
6.33934
7.1365
19.3086
22.0203
7.65962
6.05218
7.70058
14.4787
27.1462
21.6379
7.30401
6.45832
7.6071
12.977
27.484
21.5668
6.77721
6.46909
7.42528
12.3322
26.5814
21.0624
6.72218
6.439
7.36686
12.2575
25.8219
20.6971
6.92801
6.48209
7.23748
12.2045
25.1761
20.1757
7.52063
6.6629
6.40892
8.17988
23.0532
28.3823
15.3351
8.16799
6.7635
7.77949
23.0774
29.3458
13.6206
8.01397
6.71944
7.06581
23.2315
28.4517
12.9545
7.83394
6.6728
6.94554
22.5015
27.5634
12.8294
7.71531
6.6929
7.1286
21.9255
26.4832
12.9026
7.5691
6.91076
7.83615
21.0028
24.0627
8.50978
6.64189
8.53161
16.0118
29.7488
23.9584
8.09054
7.02469
8.39908
14.2321
30.4218
23.9124
7.37488
6.99624
8.16544
13.4589
29.299
23.2437
7.29067
6.96951
8.11553
13.3563
28.5215
22.8424
7.50424
7.00758
7.98116
13.5016
27.7631
22.1522
8.24469
7.20497
6.96544
9.04549
25.5481
31.5877
17.0525
9.06742
7.35043
8.5282
25.5146
32.5114
15.1814
8.93917
7.23951
7.75393
25.4171
31.0861
14.2589
8.60567
7.19408
7.60018
24.6878
30.3347
14.0781
8.50702
7.25334
7.74407
24.2127
29.6653
14.1333
8.5228
7.32239
7.96118
23.7523
28.8583
14.151
8.3313
7.52487
8.58048
22.8364
26.4203
9.39136
7.28178
9.5411
17.6872
33.3388
26.4882
8.88886
7.72228
9.29211
15.6147
33.2714
26.0577
8.10923
7.65793
9.07974
14.9328
31.8987
25.2545
8.17138
7.67846
9.02718
14.861
30.8761
24.7242
8.44131
7.75348
8.88716
14.7495
30.0109
23.9723
9.05004
7.91857
7.68897
9.94777
27.8311
34.7746
18.739
10.1422
8.15287
9.49811
27.8055
35.0799
16.6426
9.93731
8.01681
8.67519
27.7472
34.0035
15.8182
9.61295
7.95372
8.52817
26.9412
32.8457
15.5877
9.49291
7.98091
8.70662
26.2618
32.0893
15.6082
9.29566
8.15041
9.42906
25.3468
29.4638
10.3572
7.90772
10.6369
19.7736
37.1398
29.3446
9.89852
8.4238
10.2957
17.3337
36.6863
28.7184
8.96653
8.30093
10.0163
16.5039
35.0038
27.7645
8.95741
8.26442
9.88467
16.2865
34.0959
27.1976
9.12541
8.31885
9.72508
16.2931
33.367
26.5028
9.858
8.49612
8.2798
10.9423
30.9296
38.7332
20.8922
11.1929
8.86936
10.4991
30.9067
38.9876
18.5132
10.9932
8.73834
9.59659
30.5305
37.4506
17.6751
10.6603
8.67696
9.52978
29.5556
36.3846
17.3796
10.531
8.70055
9.64158
28.9159
35.6943
17.3777
10.2993
8.86936
10.3739
28.2622
32.9569
11.4546
8.63226
11.7553
21.9908
40.951
32.5422
11.0505
9.27129
11.4915
19.3742
40.4803
31.6451
10.0862
9.16478
11.1809
18.4252
39.0281
30.7366
10.0481
9.13998
10.9784
18.4397
38.2182
30.4109
11.0145
9.25969
9.0476
12.2386
35.5985
43.9117
23.795
12.6658
9.74009
11.8302
34.8785
43.6056
20.7085
12.2692
9.5394
10.6259
34.0921
42.0067
19.7011
11.8214
9.41579
10.4917
32.6929
40.3233
19.4294
11.4495
9.48836
11.3438
31.7533
37.2788
12.6332
9.2684
13.1823
24.8101
46.7909
36.7563
12.1411
10.0477
12.6511
21.4779
45.9154
35.3428
10.8162
9.85638
12.333
20.5903
44.0827
34.6442
11.0274
9.83815
12.1394
20.6932
43.0192
33.9238
12.079
9.9129
9.73321
13.5336
39.8228
48.701
26.5063
14.0219
10.4867
13.0042
38.3739
48.5599
22.967
13.4867
10.3164
11.5947
37.5599
46.6008
21.8134
12.9932
10.1928
11.538
36.3963
45.2557
21.6063
12.5851
10.2607
12.4558
35.7249
42.0496
13.8395
10.0546
14.5576
27.4863
51.8316
40.4682
13.4402
10.9602
14.1454
24.3194
51.1808
39.5964
12.3246
10.8642
13.7261
23.0401
49.3268
38.6635
12.2081
10.8314
13.4925
23.0608
48.1785
38.1292
13.3959
10.9146
10.7571
15.0534
44.8769
55.3322
29.7251
15.7972
11.719
14.5686
43.103
54.1604
25.8031
15.132
11.4818
13.1653
41.882
52.238
24.6958
14.4134
11.355
13.9598
40.9159
47.8488
15.241
11.1505
16.5515
31.7013
59.2568
45.4436
15.2619
12.1537
15.8742
27.2596
57.1889
44.3457
13.7764
12.0112
15.3581
25.9772
55.5275
43.3884
13.6191
11.9644
15.0326
25.9044
54.1489
42.592
14.8345
12.0068
11.8937
16.7295
50.0391
62.2723
33.5459
17.7481
13.037
16.474
48.3368
60.911
29.15
17.0448
12.8671
14.8188
47.2596
59.1215
27.9988
16.2826
12.7506
15.7589
45.8803
54.0762
17.5997
12.5833
18.906
35.8486
67.7973
52.4867
17.3358
13.7824
18.1272
31.2604
65.7155
50.7642
15.8448
13.5925
17.3019
29.8776
63.0785
49.3225
16.7456
13.4638
13.3671
18.8682
57.7004
71.2945
38.3698
20.1757
14.5848
18.7178
54.8671
68.7778
33.4574
19.0878
14.2322
17.7693
53.0856
62.1388
19.6987
14.0514
21.2844
40.2559
77.0619
58.4341
19.1161
15.2706
20.4837
35.4503
74.1161
57.0335
17.7601
14.9514
19.4113
33.7276
71.0245
55.49
18.6381
14.7033
14.6097
21.1008
64.9808
80.1926
42.7304
22.4822
15.9436
20.5938
61.9378
77.3856
37.0135
21.0788
15.3287
19.3406
59.5704
69.5177
21.3987
15.1627
23.4526
44.8147
85.8271
65.549
21.1481
16.5203
22.0478
38.8871
82.1297
62.7172
20.4858
15.9324
15.7978
23.0366
73.9263
92.4048
48.4291
25.1043
17.3703
22.4121
69.8962
87.0334
41.5858
23.4008
16.4922
21.2035
66.2873
77.235
23.5652
16.3381
25.8226
49.7571
95.0557
72.4016
23.1671
17.8342
24.1722
42.8027
90.3402
69.2709
22.0913
17.1064
16.9953
24.6434
81.1312
100.761
52.4028
27.0611
18.6074
23.4034
74.5498
95.4007
45.456
25.4698
17.6754
23.2322
72.8008
84.9441
25.6227
17.5289
28.1778
54.7288
105.648
80.2039
25.1579
19.2646
26.2652
47.0171
99.6613
76.1609
23.8836
18.4173
18.3041
26.6401
88.5262
109.131
57.1482
29.3227
20.0482
26.3674
82.754
103.439
48.9302
27.28
19.0668
24.9042
78.1938
90.4885
26.5568
18.836
29.9094
59.78
114.437
86.6849
28.1558
20.3073
20.0552
30.293
100.369
124.279
64.3552
32.9134
22.0834
29.0383
93.8165
115.842
54.3715
30.3138
20.6889
26.9644
87.8201
101.357
30.0021
20.5971
32.7435
65.1711
124.49
94.4813
31.0037
22.0217
21.5961
31.6286
108.398
136.431
69.7961
34.9673
22.8962
32.3827
102.332
118
33.9527
22.4911
37.6019
74.312
145.653
108.155
32.5182
24.6787
34.1982
61.9426
132.187
99.1185
30.1481
22.9209
22.8282
33.3874
113.756
139.034
73.0573
36.4754
24.2487
34.3917
104.743
119.59
34.6384
23.7823
38.3615
76.5155
150.634
112.634
35.4574
25.0912
24.7049
37.4747
129.331
159.149
81.8116
40.4319
26.1307
37.402
117.956
134.017
38.816
25.7102
41.7764
83.6325
162.956
121.43
38.2772
26.8599
26.5059
39.8526
138.568
170.349
85.9865
42.9586
27.3953
38.9693
126.208
142.444
46.1107
27.847
28.087
50.2845
165.095
199.43
102.263
49.507
29.7513
44.0493
144.724
162.809
44.5571
29.0008
47.7224
97.0248
196.264
143.016
42.354
29.2155
29.0449
46.5192
158.994
183.355
51.8412
29.2034
52.8898
113.026
224.409
161.099
46.535
30.8786
31.1698
53.337
177.122
201.421
57.4376
31.4769
56.3407
119.668
235.757
165.723
48.6542
32.3237
32.087
53.7471
186.284
212.938
58.7527
31.8984
57.5564
124.412
256.727
180.985
50.337
32.4902
31.2697
48.819
197.124
227.065
69.0968
33.4459
32.2726
57.8664
238.506
292.578
143.288
63.6631
34.518
54.6977
205.004
222.92
55.7325
33.388
33.6092
68.4223
249.05
267.734
61.3697
31.8383
33.7855
78.6649
289.372
303.837
75.2883
31.8041
64.2746
152.694
337.854
213.042
53.9919
32.5261
30.9711
53.2777
225.418
248.828
65.6036
30.8062
30.017
65.0592
263.668
274.662
66.829
29.5322
29.3988
72.1725
276.21
273.081
75.5916
29.3189
29.2988
78.6101
265.82
253.236
82.3619
29.4169
29.5489
85.2518
239.526
225.805
89.0404
29.9293
30.322
92.7975
212.645
200.366
97.6724
31.1815
31.8657
102.365
189.2
179.115
106.949
33.1754
34.191
111.398
170.064
161.976
115.723
35.8729
37.2045
119.867
154.75
148.354
123.824
39.1845
41.0492
127.177
142.667
137.653
130.35
43.5594
45.845
133.017
133.207
129.301
135.626
48.6835
51.0441
138.057
125.868
122.881
140.443
53.9542
56.3695
142.637
120.26
117.982
144.754
59.3497
61.8316
146.634
115.982
114.264
148.411
64.8866
67.4341
149.953
112.775
111.52
151.409
70.5275
73.1059
152.641
110.442
109.543
153.804
76.2379
78.844
154.748
108.771
108.133
155.613
82.0311
84.601
156.287
107.585
107.139
156.896
87.6807
90.117
157.322
106.757
106.455
157.694
93.0103
95.2414
157.904
106.196
105.995
158.072
97.9045
99.9053
158.101
105.823
105.69
158.073
102.332
104.1
157.979
105.572
105.491
157.852
106.29
107.817
157.581
105.41
105.355
157.379
109.747
111.027
156.988
105.308
105.272
156.687
112.694
113.733
156.213
105.246
105.218
155.827
115.149
115.969
155.292
105.197
105.165
154.842
117.156
117.788
154.271
105.141
105.099
153.778
118.765
119.229
153.189
105.069
105.012
152.666
120.018
120.343
152.073
104.972
104.901
151.528
120.954
121.166
150.94
104.851
104.766
150.383
121.615
121.742
149.809
104.706
104.613
149.25
122.048
122.112
148.695
104.548
104.448
148.147
122.299
122.312
147.613
104.375
104.272
147.079
122.385
122.365
146.564
104.193
104.087
146.055
122.369
122.3
145.557
104.002
103.895
145.076
122.274
122.158
144.599
103.808
103.7
144.148
122.096
121.915
143.692
103.613
103.506
143.263
121.829
121.607
142.829
103.42
103.312
142.42
121.506
121.259
142.007
103.226
103.12
141.614
121.15
120.893
141.226
103.037
102.932
140.848
120.78
120.524
140.486
102.849
102.746
140.123
120.407
120.162
139.79
102.666
102.567
139.443
120.044
119.822
139.136
102.489
102.393
138.809
119.704
119.502
138.529
102.32
102.228
138.223
119.394
119.213
137.968
102.159
102.071
137.685
119.116
118.957
137.457
102.009
101.927
137.198
118.873
118.739
136.996
101.872
101.794
136.761
118.669
118.558
136.583
101.746
101.675
136.372
118.502
118.416
136.218
101.633
101.568
136.029
118.375
118.31
135.897
101.534
101.475
135.73
118.283
118.24
135.619
101.448
101.397
135.471
118.226
118.203
135.38
101.376
101.334
135.251
118.201
118.197
135.177
101.318
101.286
135.065
118.209
118.219
135.008
101.276
101.253
134.912
118.241
118.271
134.869
101.248
101.234
134.789
118.3
118.346
134.757
101.233
101.23
134.694
118.383
118.444
134.672
101.233
101.236
134.625
118.487
118.561
134.61
101.245
101.252
134.578
118.611
118.697
134.571
101.269
101.28
134.552
118.751
118.846
134.551
101.304
101.318
134.545
118.904
119.007
134.55
101.348
101.367
134.551
119.066
119.175
134.562
101.402
101.425
134.568
119.237
119.351
134.588
101.464
101.49
134.598
119.413
119.531
134.625
101.533
101.563
134.639
119.594
119.715
134.673
101.61
101.643
134.69
119.78
119.903
134.731
101.693
101.729
134.752
119.969
120.095
134.799
101.782
101.82
134.823
120.161
120.289
134.876
101.876
101.917
134.902
120.356
120.485
134.96
101.975
102.018
134.988
120.552
120.682
135.05
102.078
102.123
135.079
120.748
120.876
135.144
102.185
102.231
135.175
120.941
121.068
135.243
102.295
102.343
135.275
121.132
121.257
135.344
102.408
102.458
135.377
121.318
121.441
135.447
102.524
102.575
135.481
121.501
121.62
135.553
102.642
102.694
135.587
121.678
121.794
135.66
102.761
102.815
135.694
121.851
121.964
135.768
102.883
102.937
135.802
122.018
122.128
135.877
103.006
103.06
135.912
122.18
122.287
135.986
103.129
103.184
136.021
122.337
122.441
136.096
103.253
103.308
136.131
122.489
122.589
136.206
103.377
103.431
136.24
122.636
122.732
136.315
103.5
103.555
136.349
122.776
122.869
136.423
103.623
103.678
136.457
122.911
123
136.53
103.747
103.801
136.564
123.04
123.125
136.636
103.87
103.924
136.669
123.163
123.244
136.739
103.993
104.047
136.772
123.28
123.357
136.842
104.115
104.169
136.874
123.391
123.465
136.942
104.239
104.293
136.974
123.497
123.567
137.041
104.362
104.416
137.073
123.597
123.664
137.139
104.487
104.541
137.17
123.693
123.756
137.236
104.612
104.666
137.266
123.783
123.843
137.331
104.738
104.793
137.361
123.868
123.925
137.426
104.864
104.919
137.456
123.949
124.003
137.519
104.991
105.045
137.549
124.025
124.077
137.613
105.116
105.169
137.642
124.097
124.144
137.705
105.24
105.291
137.734
124.164
124.21
137.797
105.361
105.409
137.825
124.225
124.277
137.891
105.48
105.529
137.92
124.294
124.336
137.979
105.598
105.64
138.008
124.352
124.391
138.077
105.715
105.75
138.095
124.406
124.439
138.155
105.864
105.896
138.171
124.446
124.462
138.232
105.988
106.017
138.252
124.506
124.519
138.108
106.126
106.025
137.829
124.678
124.445
137.412
106.303
106.999
137.216
124.323
124.38
137.595
107.412
116.115
72.1696
43.2346
40.4485
41.3875
45.6053
49.1492
54.7715
56.907
63.8535
67.6802
68.8007
68.9645
68.438
67.9078
67.6007
67.5028
67.5423
67.6511
67.7863
67.9248
68.0556
68.1741
68.2789
68.3698
68.4477
68.513
68.5666
68.6082
68.639
68.6596
68.6717
68.6772
68.6843
68.6973
68.7166
68.7419
68.772
68.8068
68.8454
68.8883
68.9357
68.9883
69.0471
69.1134
69.2042
69.3513
69.5686
69.8336
70.1108
70.3773
70.6247
70.8514
71.059
71.2488
71.4219
71.5794
71.7219
71.85
71.9647
72.067
72.1582
72.2398
72.3133
72.3801
72.4415
72.4986
72.5524
72.6037
72.6533
72.702
72.7503
72.799
72.8485
72.8995
72.9524
73.0075
73.0654
73.1264
73.1906
73.2583
73.3296
73.4046
73.4831
73.5652
73.6504
73.7387
73.8297
73.923
74.0182
74.115
74.2129
74.3115
74.4103
74.5091
74.6074
74.705
74.8014
74.8965
74.9901
75.0819
75.1717
75.2595
75.345
75.4284
75.5094
75.5881
75.6644
75.7383
75.8099
75.8791
75.9461
76.0108
76.0733
76.1337
76.192
76.2482
76.3026
76.355
76.4056
76.4545
76.5017
76.5473
76.5913
76.6338
76.6749
76.7147
76.7532
76.7904
76.8264
76.8614
76.8952
76.9281
76.9599
76.9909
77.021
77.0502
77.0786
77.1063
77.1333
77.1597
77.1853
77.2104
77.235
77.259
77.2825
77.3055
77.3282
77.3504
77.3722
77.3937
77.4149
77.4358
77.4564
77.4768
77.497
77.517
77.5368
77.5565
77.576
77.5955
77.6149
77.6342
77.6535
77.6728
77.6922
77.7115
77.731
77.7505
77.7702
77.79
77.8099
77.8301
77.8505
77.8711
77.892
77.9133
77.9348
77.9568
77.9792
78.002
78.0254
78.0492
78.0737
78.0988
78.1245
78.151
78.1782
78.2062
78.2352
78.265
78.2959
78.3278
78.3608
78.3948
78.4299
78.4659
78.5027
78.5401
78.5779
78.6155
78.6517
78.6841
78.7092
78.7258
78.7344
78.7414
78.7477
78.7469
78.7454
78.7407
78.7238
78.6798
78.5854
78.4302
78.223
77.9825
77.7257
77.462
77.1939
76.9202
76.6389
76.3481
76.0466
75.7337
75.4093
75.0737
74.727
74.3694
74.0013
73.6227
73.234
72.8353
72.427
72.0094
71.5828
71.1476
70.7042
70.253
69.7945
69.3291
68.8573
68.3796
67.8965
67.4086
66.9163
66.4203
65.921
65.4191
64.915
64.4094
63.9029
63.3961
62.8894
62.3835
61.8789
61.3762
60.8761
60.3791
59.8857
59.3966
58.9122
58.4332
57.96
57.4932
57.0335
56.5812
56.1369
55.7011
55.2743
54.8568
54.4493
54.0521
53.6657
53.2903
52.9264
52.5746
52.2351
51.9086
51.5952
51.2952
51.008
50.7325
50.4667
50.2095
49.9626
49.7348
49.5443
49.4104
49.3362
49.3023
49.2847
49.2671
49.2225
49.0557
48.1997
46.6679
45.5492
45.1391
43.9826
43.6589
42.5203
42.2619
41.1711
40.9714
39.9201
39.7703
38.7582
38.6505
37.6761
37.6038
36.6647
36.6222
35.7156
35.6983
34.8228
34.8258
33.9833
33.9999
33.1851
33.2136
32.4253
32.4654
31.7031
31.7549
31.0185
31.0808
30.3686
30.44
29.7498
29.8289
29.1587
29.2445
28.5926
28.6838
28.0487
28.1445
27.5249
27.6245
27.0191
27.122
26.5298
26.6354
26.0552
26.1629
25.5937
25.7029
25.1439
25.2541
24.7047
24.8156
24.275
24.3864
23.8541
23.9655
23.4408
23.5519
23.0343
23.1448
22.6339
22.7435
22.2389
22.3474
21.8487
21.956
21.463
21.5688
21.0813
21.1854
20.7033
20.8056
20.329
20.4295
19.9588
20.0574
19.5932
19.6903
19.2334
19.3292
18.8807
18.9758
18.5373
18.6323
18.2058
18.3017
17.8901
17.9878
17.5935
17.6939
17.3186
17.4227
17.0687
17.1772
16.8445
16.9587
16.6512
16.774
16.4953
16.6279
16.3748
16.5171
16.2869
16.4384
16.2291
16.3898
16.1998
16.3693
16.1964
16.374
16.2157
16.4002
16.2481
16.4417