/*--------------------------------*- C++ -*----------------------------------*\
| =========                 |                                                 |
| \\      /  F ield         | OpenFOAM: The Open Source CFD Toolbox           |
|  \\    /   O peration     | Version:  v2006                                 |
|   \\  /    A nd           | Website:  www.openfoam.com                      |
|    \\/     M anipulation  |                                                 |
\*---------------------------------------------------------------------------*/
FoamFile
{
    version     2.0;
    format      ascii;
    class       volScalarField;
    location    "0.07";
    object      alphat;
}
// * * * * * * * * * * * * * * * * * * * * * * * * * * * * * * * * * * * * * //

dimensions      [1 -1 -1 0 0 0 0];


internalField   nonuniform List<scalar> 
38932
(
0.104095
0.104098
0.104126
0.104123
0.104116
0.104105
0.104087
0.104065
0.104037
0.104004
0.103965
0.103922
0.103874
0.103821
0.103764
0.103701
0.103633
0.103561
0.103484
0.103401
0.103315
0.103223
0.103126
0.103025
0.10292
0.102809
0.102695
0.102575
0.102451
0.102323
0.102191
0.102054
0.101913
0.101768
0.101618
0.101465
0.101307
0.101146
0.100981
0.100812
0.100639
0.100463
0.100283
0.1001
0.0999135
0.0997235
0.0995304
0.0993342
0.0991349
0.0989327
0.0987277
0.09852
0.0983097
0.0980968
0.0978816
0.097664
0.0974443
0.0972225
0.0969987
0.0967731
0.0965458
0.0963169
0.0960866
0.0958549
0.095622
0.095388
0.0951531
0.0949174
0.0946811
0.0944442
0.0942069
0.0939694
0.0937318
0.0934943
0.0932569
0.09302
0.0927835
0.0925477
0.0923127
0.0920787
0.0918458
0.0916142
0.091384
0.0911554
0.0909286
0.0907037
0.0904808
0.0902602
0.090042
0.0898263
0.0896133
0.0894031
0.089196
0.088992
0.0887913
0.088594
0.0884004
0.0882105
0.0880245
0.0878426
0.0876648
0.0874912
0.0873221
0.0871576
0.0869977
0.0868425
0.0866923
0.086547
0.0864068
0.0862717
0.0861419
0.0860173
0.0858982
0.0857845
0.0856764
0.0855738
0.0854769
0.0853858
0.0853007
0.0852215
0.0851479
0.0850786
0.0850065
0.0849034
0.0847695
0.0844378
0.0833989
0.079085
0.064093
0.0229166
0.00837939
0.000314726
0.000326275
0.00353316
0.00945254
0.00655847
0.0023818
0.00032137
0.000312775
0.0018707
0.00512723
0.00440992
0.00157923
0.000303696
0.000292134
0.00140521
0.00391123
0.0036089
0.00130695
0.000282738
0.000273353
0.00122526
0.00341641
0.00328946
0.00118317
0.000265782
0.000259833
0.00115215
0.00319463
0.00312105
0.00112853
0.00025489
0.000250657
0.00110962
0.00305962
0.0030057
0.00109362
0.000247031
0.00024389
0.00107949
0.00295642
0.00290993
0.00106649
0.000241137
0.000238692
0.0010542
0.00286542
0.0028224
0.00104237
0.000236493
0.00023449
0.00103087
0.00278066
0.00274013
0.00101965
0.000232641
0.000230917
0.0010087
0.00270078
0.00266262
0.000998018
0.000229294
0.000227752
0.000987618
0.00262566
0.00258988
0.000977511
0.000226276
0.000224855
0.000967707
0.0025553
0.0025219
0.000958214
0.00022348
0.000222143
0.000949034
0.00248963
0.00245848
0.000940165
0.000220837
0.000219558
0.000931601
0.0024284
0.00239935
0.000923337
0.000218302
0.000217064
0.000915363
0.00237128
0.00234414
0.000907668
0.000215841
0.000214631
0.000900243
0.00231789
0.00229249
0.000893076
0.00021343
0.000212237
0.000886156
0.00226789
0.00224406
0.000879472
0.000211048
0.000209863
0.000873014
0.00222096
0.00219854
0.000866772
0.000208677
0.000207491
0.000860735
0.00217678
0.00215565
0.000854894
0.0002063
0.000205105
0.000849242
0.00213511
0.00211515
0.000843769
0.000203902
0.000202691
0.00083847
0.00209572
0.00207681
0.000833338
0.000201468
0.000200233
0.000828366
0.00205841
0.00204048
0.00082355
0.000198984
0.000197719
0.000818885
0.00202301
0.002006
0.000814367
0.000196437
0.000195135
0.000809993
0.00198941
0.00197325
0.000805761
0.000193813
0.000192468
0.000801668
0.0019575
0.00194214
0.000797711
0.000191099
0.000189703
0.000793891
0.00192718
0.0019126
0.000790205
0.000188279
0.000186825
0.000786652
0.0018984
0.00188456
0.000783234
0.000185339
0.000183818
0.00077995
0.00187109
0.00185798
0.000776802
0.000182261
0.000180665
0.000773791
0.00184524
0.00183284
0.00077092
0.000179027
0.000177346
0.000768195
0.00182082
0.00180916
0.000765619
0.000175618
0.000173842
0.0007632
0.00179787
0.00178697
0.000760946
0.000172015
0.000170134
0.000758866
0.00177647
0.00176638
0.000756972
0.000168196
0.0001662
0.000755279
0.00175673
0.00174754
0.000753798
0.000164142
0.000162019
0.000752553
0.00173885
0.00173067
0.000751564
0.000159829
0.00015757
0.000750856
0.00172306
0.00171606
0.000750455
0.000155237
0.00015283
0.000750409
0.00170976
0.00170419
0.000750746
0.000150346
0.000147785
0.000751538
0.00169947
0.00169564
0.000752812
0.000145144
0.000142426
0.000754676
0.0016929
0.00169126
0.000757167
0.00013963
0.000136761
0.000760431
0.00169104
0.00169221
0.000764527
0.000133823
0.000130826
0.000769611
0.00169515
0.00170006
0.000775821
0.000127778
0.0001247
0.000783356
0.00170724
0.00171675
0.000792298
0.000121604
0.000118519
0.0008029
0.00172927
0.00174497
0.000815321
0.000115469
0.000112492
0.000829663
0.00176395
0.00178557
0.000845554
0.000109586
0.000106788
0.000863327
0.00181126
0.00184015
0.000882472
0.000104089
0.000101472
0.000902624
0.0018726
0.00190807
0.000923499
9.89358e-05
9.62536e-05
0.000941863
0.00194566
0.00198517
0.000955517
9.4585e-05
9.40048e-05
0.000958244
0.00202336
0.00206343
0.000957244
9.2816e-05
9.07731e-05
0.000949032
0.00209373
0.00210387
0.000929244
8.77119e-05
8.36904e-05
0.000894207
0.00208483
0.00203603
0.000845698
7.88238e-05
7.33024e-05
0.00078272
0.00195269
0.00183128
0.000706127
6.76261e-05
6.23542e-05
0.000620558
0.00167244
0.00146286
0.000523229
5.77499e-05
5.51149e-05
0.000415464
0.00120958
0.00102314
0.000351979
5.43131e-05
5.4325e-05
0.000323033
0.000922303
0.000877132
0.0003082
5.49472e-05
5.56464e-05
0.000300963
0.000858403
0.000854005
0.000300815
5.64721e-05
5.72417e-05
0.000305081
0.000863316
0.000882111
0.000311925
5.79064e-05
5.84597e-05
0.000319481
0.000902785
0.000924288
0.000327914
5.88665e-05
5.90773e-05
0.000335783
0.000946091
0.000965342
0.000342734
5.91425e-05
5.9124e-05
0.000347843
0.000981958
0.000999967
0.00035388
5.89451e-05
5.85757e-05
0.000358026
0.00101273
0.0010231
0.000361748
5.80897e-05
5.74549e-05
0.000364482
0.0010305
0.00103439
0.000366242
5.66819e-05
5.58059e-05
0.000367105
0.00103522
0.00103251
0.000366812
5.47739e-05
5.36491e-05
0.000365668
0.0010267
0.00101748
0.000363425
5.24095e-05
5.10442e-05
0.000360158
0.00100504
0.000989413
0.000355985
4.9578e-05
4.80132e-05
0.000350854
0.000970644
0.000948623
0.000344735
4.63155e-05
4.45301e-05
0.000337802
0.000923406
0.000894415
0.000329763
4.25719e-05
4.05781e-05
0.000320835
0.000861201
0.000822865
0.00031043
3.83372e-05
3.57909e-05
0.000298338
0.000777505
0.000720126
0.000282849
3.27292e-05
2.93158e-05
0.000262162
0.000643808
0.000537838
0.000231735
2.48155e-05
1.93439e-05
0.000185284
0.000390904
0.000198631
0.000100628
1.42708e-05
9.14472e-06
4.39762e-05
4.98812e-05
6.28041e-05
8.50135e-05
0.000105131
0.000126307
0.000140177
0.000153816
0.00016325
0.000172208
0.000179231
0.000185401
0.000190585
0.000195062
0.000197094
0.000199451
0.000199687
0.000221159
0.000212431
0.000203523
0.000187654
0.000119161
6.65884e-05
8.26893e-05
9.83884e-05
6.63522e-05
3.17499e-05
3.4584e-05
3.61987e-05
3.33451e-05
2.94035e-05
2.57532e-05
1.50792e-05
1.16693e-05
9.31207e-06
7.51477e-06
5.6725e-06
1.24443e-05
2.30208e-05
3.70056e-05
6.35472e-05
0.000158075
0.000110833
6.72943e-05
2.83516e-05
7.17253e-06
9.06898e-06
5.29526e-05
0.000125998
0.00019665
0.000266195
0.000349441
0.000253604
0.00016074
6.66902e-05
1.0504e-05
1.12421e-05
7.59006e-05
0.000184326
0.000295062
0.00040623
0.0004407
0.000321507
0.000198451
8.14482e-05
1.17493e-05
1.18074e-05
8.31201e-05
0.000203101
0.000329903
0.000452947
0.000452631
0.000328889
0.000202068
8.25334e-05
1.16065e-05
1.12693e-05
8.12643e-05
0.000198596
0.000323342
0.00044586
0.000435178
0.000316372
0.000194598
8.0056e-05
1.08498e-05
1.04901e-05
7.93609e-05
0.000191892
0.000311127
0.000427508
0.000425162
0.00030863
0.000190742
7.95192e-05
1.01849e-05
9.92746e-06
7.97087e-05
0.000189922
0.000307193
0.000423781
0.000422961
0.000305617
0.00018885
7.96129e-05
9.60781e-06
9.2187e-06
7.82708e-05
0.000185829
0.000302223
0.000420592
0.00041099
0.000292697
0.000178528
7.45175e-05
8.62501e-06
8.04911e-06
6.7158e-05
0.000164823
0.000276062
0.000394661
0.00037116
0.0002523
0.000145387
5.70676e-05
7.19632e-06
5.80169e-06
4.30083e-05
0.000118757
0.000220417
0.000340315
0.000297913
0.000178269
8.0705e-05
2.27111e-05
3.64202e-06
2.44767e-06
1.08724e-05
5.06697e-05
0.000125574
0.000238674
0.000165258
7.08435e-05
3.1412e-05
8.92984e-06
2.64012e-06
3.26637e-06
5.26531e-06
1.75006e-05
4.68424e-05
9.31429e-05
6.60151e-05
2.43551e-05
8.36397e-06
4.87041e-06
7.38367e-06
7.39605e-06
5.04089e-06
8.72575e-06
2.62744e-05
7.16929e-05
8.14473e-05
2.85571e-05
1.01624e-05
6.62861e-06
7.02953e-06
6.80347e-06
6.98034e-06
1.08654e-05
2.94236e-05
8.01053e-05
8.38665e-05
3.8005e-05
1.50026e-05
7.38779e-06
4.213e-06
5.12232e-06
7.28578e-06
1.44687e-05
3.67523e-05
8.45725e-05
8.92739e-05
3.77604e-05
1.41391e-05
7.54019e-06
5.70446e-06
5.92744e-06
7.46037e-06
1.52087e-05
3.87286e-05
8.86293e-05
9.53808e-05
4.24938e-05
1.72254e-05
7.36312e-06
6.22961e-06
6.76735e-06
7.82969e-06
1.77099e-05
4.38296e-05
0.000100459
0.000114502
6.11485e-05
2.53243e-05
7.21566e-06
5.29846e-06
5.46452e-06
7.36185e-06
2.58668e-05
6.26808e-05
0.000117141
0.000102709
4.4801e-05
1.95073e-05
9.18235e-06
7.50013e-06
7.20028e-06
1.01665e-05
2.01448e-05
4.46798e-05
0.000100253
0.000104226
5.00979e-05
2.17909e-05
1.00759e-05
6.55643e-06
6.80469e-06
1.05575e-05
2.50465e-05
5.29363e-05
0.000107214
0.000113676
5.70506e-05
2.43023e-05
8.80331e-06
7.91808e-06
8.07003e-06
1.00698e-05
2.52441e-05
5.59534e-05
0.000112474
0.000113489
5.6311e-05
2.68124e-05
1.2687e-05
7.31846e-06
7.83836e-06
1.12669e-05
2.9903e-05
6.2187e-05
0.000118844
0.000127126
6.34072e-05
2.93762e-05
1.1355e-05
7.61782e-06
8.22551e-06
1.29719e-05
3.18267e-05
6.40032e-05
0.00013031
0.000140106
7.38091e-05
3.22431e-05
1.18078e-05
7.10341e-06
7.60862e-06
1.26122e-05
3.5936e-05
7.52858e-05
0.000143477
0.000153105
8.28506e-05
3.54186e-05
1.07268e-05
7.57001e-06
7.58156e-06
1.34607e-05
3.754e-05
8.06354e-05
0.000150831
0.000159818
8.74446e-05
3.80098e-05
1.063e-05
8.27807e-06
9.23621e-06
1.25035e-05
3.84373e-05
8.33924e-05
0.000156767
0.000165535
9.21917e-05
4.10435e-05
1.1816e-05
8.00632e-06
1.00088e-05
1.23197e-05
4.10263e-05
8.71396e-05
0.000162186
0.000167611
9.38624e-05
4.36614e-05
1.41105e-05
7.992e-06
1.02966e-05
1.25913e-05
4.46096e-05
9.23045e-05
0.000166958
0.000170807
9.55033e-05
4.62025e-05
1.64505e-05
8.1225e-06
9.78952e-06
1.43275e-05
4.79678e-05
9.70088e-05
0.000170161
0.000175849
9.53188e-05
4.78942e-05
1.59413e-05
9.05368e-06
9.46884e-06
2.01822e-05
5.14977e-05
9.52446e-05
0.00017303
0.000181177
0.000102537
5.10127e-05
1.72846e-05
8.88307e-06
9.98591e-06
1.79112e-05
5.58603e-05
0.000100503
0.000183191
0.00018771
0.000106292
5.13529e-05
1.48227e-05
1.10152e-05
1.0374e-05
1.92208e-05
5.6342e-05
0.000107231
0.000187332
0.000194421
0.000111943
5.67013e-05
1.97131e-05
9.98259e-06
1.19404e-05
1.5789e-05
6.02404e-05
0.000117063
0.000202014
0.000208862
0.000114082
5.91489e-05
1.89959e-05
1.03237e-05
1.06725e-05
2.41021e-05
6.48423e-05
0.000117941
0.000209843
0.000223529
0.000128207
6.29615e-05
1.94011e-05
9.71478e-06
1.10749e-05
2.08493e-05
6.875e-05
0.000123181
0.00022603
0.000232314
0.000135072
6.44356e-05
1.86728e-05
1.07663e-05
1.06136e-05
2.17091e-05
7.15146e-05
0.00013574
0.000234059
0.000240124
0.000140135
6.67175e-05
1.74735e-05
1.145e-05
1.17568e-05
2.27259e-05
7.17579e-05
0.000138491
0.000236173
0.000245634
0.000145079
7.02587e-05
1.95982e-05
1.14061e-05
1.37688e-05
1.95686e-05
7.47454e-05
0.000141934
0.000244476
0.000252455
0.000149402
7.61067e-05
2.55142e-05
1.1227e-05
1.3791e-05
1.94663e-05
7.87174e-05
0.00015299
0.000258862
0.000261149
0.000149941
7.83346e-05
2.48753e-05
1.16961e-05
1.27164e-05
2.70352e-05
8.44337e-05
0.000159974
0.000265806
0.000276211
0.000156951
8.10551e-05
2.4355e-05
1.17873e-05
1.29993e-05
2.97922e-05
8.85365e-05
0.000157336
0.000275484
0.000292112
0.000169933
8.48848e-05
2.54826e-05
1.16941e-05
1.3292e-05
2.73904e-05
9.26526e-05
0.000159953
0.000288615
0.000298132
0.000177154
8.79593e-05
2.7407e-05
1.25514e-05
1.30779e-05
2.67794e-05
9.38674e-05
0.000167304
0.000293696
0.000290019
0.000171948
8.53848e-05
2.26314e-05
1.44404e-05
1.37989e-05
3.22719e-05
9.51985e-05
0.000175674
0.000291979
0.00030682
0.000183635
9.61228e-05
3.39009e-05
1.34448e-05
1.39214e-05
2.84707e-05
9.38425e-05
0.000190903
0.000322581
0.000308995
0.000166247
8.21754e-05
2.0857e-05
1.72884e-05
2.08746e-05
2.28652e-05
9.32776e-05
0.000151138
0.000286525
0.000295973
0.000149876
0.000101217
3.28016e-05
1.67742e-05
1.67616e-05
2.65878e-05
8.5468e-05
0.000202636
0.000358383
0.000501069
0.000277315
0.000123636
4.32475e-05
2.19238e-05
2.8167e-05
7.35135e-05
0.000219778
0.000495912
0.000896359
0.00111187
0.000679554
0.000340689
0.00011794
3.53702e-05
4.30126e-05
0.000176583
0.000470706
0.000864342
0.00134252
0.00155612
0.00104449
0.00059782
0.000237151
5.01662e-05
5.62811e-05
0.000296842
0.000715668
0.00120873
0.00175308
0.00193637
0.00136185
0.0008235
0.000346216
6.11945e-05
6.61416e-05
0.000393896
0.000921264
0.00149949
0.0021001
0.00223
0.00162032
0.00101186
0.000440771
7.08742e-05
7.50696e-05
0.000488932
0.0011041
0.00174874
0.00239019
0.00254117
0.00186354
0.00118229
0.000526841
7.87467e-05
8.30411e-05
0.000555551
0.00125527
0.00197829
0.00269956
0.00286296
0.00209765
0.00133187
0.000592802
8.83727e-05
9.72881e-05
0.000626563
0.00140852
0.00220734
0.00299235
0.00312247
0.00233001
0.00150395
0.000683468
0.000106316
0.000113689
0.000745314
0.00161311
0.0024819
0.00331503
0.00350992
0.00263644
0.00172283
0.000801223
0.000120451
0.000127317
0.000865977
0.00183259
0.00278856
0.00369748
0.00388755
0.0029316
0.00193499
0.000930445
0.000131759
0.000132619
0.000963476
0.00199253
0.00302296
0.00406437
0.0039185
0.00296172
0.00195596
0.000942824
0.000130069
0.000127302
0.000915259
0.00189293
0.00283961
0.00369333
0.00387741
0.00291426
0.00192349
0.000921475
0.0001296
0.000131137
0.000962924
0.00200747
0.00304751
0.00405385
0.00422964
0.00318329
0.00210139
0.00101813
0.000134571
0.000135109
0.00104652
0.00218146
0.00330781
0.00439504
0.00454591
0.0034189
0.0022511
0.00107756
0.000138971
0.000135491
0.00107918
0.00227569
0.00347922
0.00466186
0.00463708
0.00342843
0.00223852
0.00106467
0.000133572
0.000124374
0.00100371
0.00211001
0.00320478
0.00421614
0.00376875
0.00290998
0.00193603
0.000921399
0.000114771
0.000105243
0.000850334
0.00179839
0.00274671
0.00370025
0.00347889
0.0026022
0.00169315
0.000791219
9.88446e-05
9.21494e-05
0.000742028
0.00159251
0.00243506
0.00320961
0.00326066
0.00240641
0.00155624
0.00072279
9.12164e-05
8.95332e-05
0.000716683
0.00155935
0.0024272
0.00329577
0.00328752
0.00242857
0.00156119
0.000718021
9.00408e-05
8.95055e-05
0.000719435
0.0015608
0.00242815
0.00329032
0.00330334
0.00243486
0.00156264
0.000721983
9.07372e-05
8.90379e-05
0.000722182
0.00156993
0.00245241
0.00333664
0.00336915
0.00244754
0.00156628
0.000722123
8.91558e-05
8.58722e-05
0.000701268
0.00151633
0.0023579
0.00318935
0.00298838
0.00224496
0.00144817
0.000668091
8.27691e-05
8.35414e-05
0.000670321
0.00146508
0.00229025
0.00312484
0.00325748
0.00238684
0.00152355
0.000698028
8.68817e-05
8.9174e-05
0.000734393
0.0015905
0.00248693
0.00338797
0.00351498
0.0025759
0.00164801
0.000760206
8.95394e-05
8.80084e-05
0.000759578
0.00165766
0.00260909
0.00360794
0.00342821
0.00252799
0.0016144
0.000736345
8.4541e-05
8.02842e-05
0.000707145
0.00155882
0.00242313
0.00322899
0.00339369
0.00248368
0.00157857
0.000706683
7.9083e-05
8.28794e-05
0.000730838
0.00164187
0.00259495
0.00355981
0.00371331
0.00270915
0.00171582
0.000763679
8.60789e-05
8.82378e-05
0.00079116
0.00177286
0.00280752
0.0038567
0.00397418
0.00285362
0.00179708
0.00080399
8.91537e-05
8.80008e-05
0.000796267
0.0017641
0.00277816
0.00378595
0.00358758
0.00268627
0.00172676
0.000783346
8.70834e-05
8.77016e-05
0.000792739
0.00176287
0.00276772
0.00378134
0.00398006
0.00290505
0.00183931
0.000822549
9.03209e-05
9.48392e-05
0.000856617
0.00192348
0.00304095
0.00417065
0.00435071
0.00316806
0.00200209
0.0009019
9.78945e-05
9.89856e-05
0.000912667
0.0020387
0.00323316
0.00450435
0.00430416
0.00315536
0.00200612
0.000906326
9.76193e-05
9.58897e-05
0.000900603
0.00197978
0.00307404
0.00410129
0.00433493
0.00317726
0.00202656
0.000914049
9.65908e-05
9.93044e-05
0.000950308
0.00212406
0.00334628
0.00457689
0.00481542
0.00350768
0.00221677
0.000991911
0.000104089
0.00010726
0.00101967
0.00226807
0.00359801
0.00501481
0.00481418
0.00353618
0.00225723
0.00102065
0.000107287
0.00010583
0.00101801
0.0022336
0.00346776
0.00461576
0.00489554
0.00359341
0.00229007
0.00103509
0.000107268
0.000111854
0.00107777
0.0023929
0.00377598
0.00518519
0.00543021
0.00388671
0.00245432
0.00111127
0.000115786
0.000114856
0.00111328
0.00244527
0.00383463
0.00522968
0.00504234
0.00378306
0.00243879
0.00111377
0.000115307
0.000117853
0.00114421
0.00252251
0.00394635
0.00536944
0.00570699
0.00416322
0.00263947
0.00119307
0.000122346
0.000126168
0.00123003
0.00271605
0.00430633
0.00601366
0.00581661
0.00427155
0.00273462
0.0012486
0.000127934
0.000129422
0.00126991
0.00275251
0.00424438
0.00563965
0.00603166
0.00444484
0.0028571
0.00130774
0.000131502
0.000133759
0.0013545
0.00300159
0.00472022
0.00645118
0.00684092
0.00491782
0.00310974
0.00141264
0.000142843
0.000150788
0.001468
0.00316409
0.00491551
0.00666918
0.00652648
0.00493014
0.00322049
0.00151037
0.000158562
0.000166822
0.00157472
0.003343
0.00517158
0.00700018
0.00747697
0.00540187
0.0034668
0.00163388
0.000174172
0.000177274
0.00166978
0.0035152
0.00541292
0.00731545
0.00718933
0.0054369
0.00356089
0.0016916
0.000173948
0.000169209
0.00169631
0.00365946
0.00569765
0.00772305
0.00827691
0.00593537
0.00374326
0.00167748
0.000156705
0.000159632
0.00168034
0.00378595
0.00597027
0.00813146
0.00806837
0.0060481
0.00388666
0.00176108
0.000175055
0.000190821
0.00185003
0.00403352
0.00631331
0.00872642
0.00868909
0.00643957
0.00416341
0.00193708
0.000205096
0.000221913
0.00204271
0.00431787
0.00660763
0.0087139
0.00947825
0.00693683
0.0045061
0.00214677
0.000237597
0.000253006
0.00224858
0.00466617
0.0071053
0.00949513
0.00956175
0.00731945
0.00485893
0.00236305
0.00026982
0.000285831
0.00248428
0.00508591
0.00771261
0.0104232
0.0104955
0.00792602
0.00528002
0.00259636
0.000302598
0.000320947
0.00272113
0.0055035
0.00819522
0.0105902
0.0114857
0.00857328
0.00568983
0.0028128
0.000330974
0.000316819
0.00280101
0.00569988
0.00861717
0.0114655
0.011389
0.00853707
0.00558057
0.00268845
0.000309809
0.000331451
0.00267312
0.00551148
0.00848451
0.0113979
0.0116996
0.00868689
0.00564088
0.00277222
0.000373467
0.00038947
0.00289769
0.0058809
0.00895956
0.011957
0.012707
0.00948293
0.00617192
0.00297257
0.000374274
0.000340069
0.00290631
0.00624266
0.00970056
0.0132405
0.0129303
0.00961941
0.00624058
0.00296625
0.000355393
0.000431643
0.00318156
0.00634012
0.00954034
0.0126645
0.0124286
0.00943952
0.00643244
0.00338891
0.000498046
0.000523699
0.00344004
0.00629329
0.00919896
0.0121088
0.0116288
0.00870357
0.00580338
0.00298657
0.000521085
0.000498683
0.00239403
0.00503001
0.00787121
0.0108107
0.009114
0.00662489
0.00416406
0.00187936
0.000440831
0.00037772
0.0015099
0.00351261
0.00576875
0.00808855
0.00711484
0.00504402
0.00310382
0.0013817
0.000339603
0.000316156
0.00120328
0.0027898
0.00462353
0.00662472
0.00595685
0.00419012
0.0025317
0.00107916
0.000288851
0.000267248
0.000963976
0.00234667
0.0039628
0.00573283
0.00520084
0.0036063
0.0021248
0.00084691
0.000237933
0.000200374
0.000765981
0.00202822
0.00351759
0.00516282
0.00475045
0.00329212
0.00191681
0.000712841
0.000178425
0.0001803
0.000783156
0.00195482
0.00332724
0.00486309
0.00455417
0.00321588
0.00195081
0.000821928
0.000179762
0.000176994
0.00086533
0.00200968
0.00330979
0.00474657
0.0046032
0.00322197
0.00199443
0.000878664
0.000173554
0.000165596
0.00085496
0.00190282
0.00300006
0.00405528
0.00419192
0.00303626
0.00192651
0.000868172
0.000157707
0.000156119
0.000918185
0.00194452
0.00300123
0.00407935
0.00434274
0.00315326
0.0020344
0.000976665
0.000160766
0.000165971
0.00100786
0.0020573
0.00314644
0.00433692
0.00396453
0.00302224
0.00203101
0.00102642
0.000169991
0.000170502
0.00102035
0.00205032
0.00308749
0.0041442
0.00413746
0.00305235
0.00203553
0.00101561
0.000169092
0.000164925
0.000978571
0.00196928
0.00292359
0.00380719
0.0039718
0.0029731
0.00196669
0.000945056
0.000158386
0.000151591
0.000933475
0.00194245
0.00293357
0.0039716
0.00366167
0.00281625
0.0018858
0.000905518
0.000145355
0.000139389
0.000908557
0.0019055
0.00286977
0.00381042
0.00379693
0.0028917
0.00194472
0.000953249
0.000137924
0.000142343
0.00100729
0.0020372
0.00304932
0.00405347
0.00411589
0.00307514
0.00206888
0.0010365
0.000145966
0.000147589
0.00103814
0.00205287
0.00299887
0.0038619
0.00405068
0.00308418
0.00208567
0.00105141
0.000148441
0.000149438
0.00106024
0.00209435
0.0030894
0.00410343
0.00385262
0.00300638
0.00206405
0.00104904
0.000149233
0.000149723
0.00106136
0.00209746
0.00308627
0.00403493
0.00408688
0.0030801
0.00208829
0.00105023
0.000149096
0.000147953
0.00104085
0.00205628
0.00299799
0.00384496
0.00402024
0.00307059
0.00207669
0.00104031
0.000146687
0.000145214
0.00102635
0.00207004
0.00307036
0.00407647
0.00383573
0.00298571
0.00203476
0.00101398
0.000142877
0.00014132
0.00101546
0.00206029
0.00305967
0.00401139
0.00407142
0.0030597
0.00205625
0.00101302
0.000139586
0.000137289
0.000993533
0.00202255
0.00298384
0.0038367
0.00401598
0.003065
0.00206212
0.0010188
0.000136823
0.000136584
0.00101366
0.00205994
0.00306784
0.00408534
0.00385599
0.0029964
0.00203133
0.00100429
0.000135411
0.000134181
0.00100172
0.00206378
0.00308054
0.00404418
0.00412168
0.00308521
0.00205181
0.000991484
0.000131961
0.000127865
0.000942693
0.00197585
0.00296522
0.00391204
0.00365369
0.00282894
0.00189105
0.000897663
0.000122927
0.000119895
0.00089754
0.00190055
0.00287564
0.00380086
0.00386093
0.00287048
0.00189548
0.000900721
0.000118133
0.000117191
0.000901336
0.00187259
0.00280247
0.00363912
0.0038153
0.00288465
0.00191001
0.000913651
0.000117017
0.000116387
0.000908532
0.00190907
0.00288922
0.00388556
0.00366422
0.00282258
0.00188423
0.000903042
0.000115278
0.000114947
0.000903421
0.00191333
0.00290054
0.00384005
0.00391342
0.0029076
0.00191659
0.000912698
0.000114339
0.000113873
0.000892381
0.00188699
0.00283853
0.00368686
0.00386285
0.00291511
0.00191966
0.000905909
0.000112972
0.000112941
0.000901082
0.00191512
0.0029142
0.00393042
0.0036987
0.00284249
0.0018868
0.0008921
0.000111923
0.000111686
0.000901712
0.00191592
0.00291596
0.00387123
0.00393703
0.00291639
0.00191133
0.000893788
0.000111243
0.00010992
0.0008812
0.00187886
0.00283797
0.00369995
0.00386929
0.00290806
0.00190417
0.000890386
0.000109686
0.000109104
0.000881616
0.00189665
0.00290649
0.00393445
0.00369223
0.00282494
0.00185858
0.000861853
0.000107333
0.000106135
0.000871463
0.00188451
0.00289056
0.00385783
0.00391695
0.00288306
0.00187639
0.000871183
0.000105511
0.000104409
0.000851537
0.00183989
0.0028048
0.00367464
0.00383795
0.00286993
0.00186484
0.000858313
0.000103218
0.00010285
0.000856928
0.00185632
0.00286423
0.00389368
0.00365361
0.00278655
0.00182695
0.000841425
0.00010165
0.000100132
0.000841881
0.00184607
0.00285066
0.0038176
0.00387438
0.00284384
0.00183921
0.000844725
9.9239e-05
9.8665e-05
0.000825971
0.00181121
0.00277433
0.00364269
0.00381754
0.00284905
0.00184171
0.000839328
9.8322e-05
9.88398e-05
0.000837873
0.0018458
0.00285892
0.00389423
0.00369267
0.00281083
0.00183747
0.000839624
9.8638e-05
0.000100916
0.000860744
0.00188922
0.00291983
0.0039058
0.0040198
0.00296337
0.00191991
0.000875792
0.000102961
0.000104674
0.000902355
0.00195589
0.00297683
0.00388879
0.00417408
0.00315535
0.00206171
0.000939489
0.000109867
0.00011273
0.00100375
0.00215408
0.00329232
0.0044295
0.00438586
0.00338248
0.00225041
0.00104432
0.00012475
0.00013225
0.00115259
0.00244719
0.00364756
0.00468556
0.00513032
0.00402203
0.00271809
0.00127769
0.000151112
0.000168678
0.00144221
0.00308256
0.00463302
0.00603724
0.00656007
0.00494711
0.00328834
0.00154074
0.000181304
0.000189385
0.00156156
0.00330392
0.0049531
0.00651738
0.00617589
0.00481922
0.00324552
0.0015422
0.000191379
0.000195373
0.00156164
0.00330053
0.00493794
0.00643638
0.00651386
0.00502431
0.00338162
0.00160853
0.00020284
0.000210791
0.00168057
0.00353403
0.0053111
0.00694316
0.00710924
0.00537229
0.00358533
0.00171476
0.000218698
0.000223882
0.0017088
0.00354175
0.00524283
0.0067181
0.00702455
0.00538129
0.00359751
0.00172206
0.000214734
0.000212832
0.00171854
0.00358622
0.00537866
0.00713439
0.00670326
0.00521805
0.00351155
0.00168615
0.000209861
0.000208956
0.00170497
0.00356616
0.00534933
0.00699712
0.00709867
0.00534607
0.00356271
0.00171009
0.000209137
0.000207969
0.00168129
0.00349123
0.00518421
0.00666606
0.00695928
0.00531067
0.00353697
0.00169016
0.000206755
0.000205948
0.00169052
0.00352989
0.00530734
0.00706113
0.00662693
0.00514152
0.00345076
0.00164731
0.00020421
0.000203777
0.00166523
0.00349974
0.00527011
0.00692276
0.00702441
0.00526825
0.00349432
0.00166765
0.000203721
0.000201756
0.00163631
0.00342213
0.00510471
0.00658914
0.00688166
0.0052285
0.00346548
0.00164438
0.000200738
0.000199708
0.00162963
0.00344364
0.0052159
0.00697258
0.00652802
0.00504242
0.00336281
0.00159454
0.000197665
0.000196087
0.00159107
0.00339128
0.0051524
0.00681145
0.00687545
0.00512617
0.00336899
0.00158089
0.00019354
0.000191955
0.00155763
0.00329175
0.00495003
0.00642297
0.00666269
0.00504864
0.00333536
0.0015734
0.000193093
0.000196178
0.00159848
0.00338404
0.00509122
0.00667283
0.00707405
0.00534154
0.00350306
0.0016423
0.000200492
0.000202516
0.00164707
0.00351726
0.00534746
0.00716673
0.00670374
0.0051641
0.00342987
0.0016207
0.000201956
0.000200766
0.00162144
0.00346016
0.00526972
0.00698465
0.00702253
0.00522118
0.00341836
0.00160086
0.000198164
0.000195474
0.00155818
0.00332455
0.00502579
0.0065326
0.00676773
0.00510802
0.00335369
0.00156667
0.000194747
0.000196809
0.00158426
0.00339051
0.00513411
0.00675447
0.00715578
0.00537699
0.00350324
0.0016244
0.000199657
0.000200783
0.00162966
0.00350509
0.00536589
0.00722542
0.00672736
0.00516067
0.0034062
0.00159177
0.000199492
0.000197667
0.00158964
0.00342863
0.00526164
0.00700992
0.00703291
0.00520099
0.00338103
0.0015632
0.000195594
0.00019378
0.00152824
0.00328119
0.00498758
0.00651215
0.00674587
0.00506412
0.00330357
0.00153012
0.000193491
0.000195119
0.00154727
0.00333569
0.00507979
0.00671737
0.00712044
0.0053201
0.00343978
0.00158243
0.00019809
0.000198682
0.00158362
0.00343949
0.00530415
0.00717829
0.00665109
0.00508443
0.00333806
0.00154879
0.000197004
0.000195423
0.00154279
0.0033503
0.00517441
0.00692807
0.00693926
0.00510982
0.00329982
0.00151354
0.000193384
0.000190324
0.00146083
0.00318394
0.00487443
0.00639686
0.00662414
0.00494612
0.00319717
0.0014654
0.000189463
0.00019057
0.00147804
0.00322252
0.0049425
0.00657267
0.0069701
0.00516772
0.00331177
0.00150906
0.00019253
0.000193283
0.00150928
0.00330329
0.00513182
0.00699535
0.00644275
0.0049022
0.00319974
0.0014748
0.000191318
0.00019162
0.00147541
0.00321508
0.00497545
0.00667218
0.00661525
0.00497468
0.00324398
0.00149281
0.000193887
0.00019615
0.00151841
0.00332335
0.0051859
0.00700654
0.00702651
0.00514995
0.00330563
0.00150919
0.000195625
0.000192947
0.00145393
0.00318876
0.00489877
0.00644663
0.00667345
0.00496277
0.00319134
0.00145165
0.000191744
0.000192591
0.0014589
0.00320284
0.00494356
0.00659709
0.00698708
0.00515147
0.00328316
0.0014849
0.000193835
0.000193534
0.00148076
0.00326581
0.00510786
0.00699494
0.00640201
0.00485359
0.00315112
0.00144306
0.000192027
0.000191895
0.00143651
0.00315691
0.00491777
0.00662963
0.00654824
0.00489814
0.00317101
0.00144548
0.000192914
0.000194628
0.00147076
0.00325132
0.00511043
0.0069418
0.00694902
0.00506239
0.00322745
0.0014651
0.00019477
0.000192945
0.0014065
0.00310425
0.00479936
0.00634424
0.00657027
0.00485505
0.00309815
0.00139613
0.000191522
0.00019223
0.00141172
0.00311293
0.00483347
0.00648367
0.00686945
0.00503891
0.00319076
0.00143495
0.00019371
0.00019247
0.00142581
0.00316297
0.00498602
0.00686776
0.00624822
0.00471553
0.00303705
0.00137188
0.000189643
0.000187694
0.00136138
0.00303074
0.00476694
0.00647242
0.00636525
0.00473103
0.00303199
0.00136377
0.000187887
0.000189149
0.0013865
0.00310039
0.00492318
0.00674715
0.00673618
0.00486672
0.00306916
0.00136046
0.000188132
0.000184185
0.00129403
0.0029241
0.00458077
0.0060985
0.00631556
0.00462041
0.00291219
0.00128644
0.000181731
0.000183719
0.00130635
0.00292408
0.00459186
0.00620284
0.00654848
0.00477794
0.00301896
0.00135012
0.000188245
0.000191487
0.00137479
0.00305993
0.00478501
0.0064533
0.00685921
0.00500161
0.00314274
0.00140451
0.000194393
0.000194544
0.00139591
0.00312445
0.00494937
0.0068432
0.00618622
0.00464584
0.00296772
0.0013209
0.000191365
0.000189217
0.00131081
0.00295114
0.00468751
0.00641478
0.00628261
0.00463938
0.00294698
0.00131367
0.000188919
0.000188998
0.00132977
0.00300506
0.00482541
0.00666125
0.00663406
0.00475897
0.0029717
0.00129707
0.000187067
0.000183195
0.00124928
0.00282588
0.0044587
0.00597284
0.00619275
0.00450021
0.00281222
0.00123965
0.000181807
0.000182197
0.00124481
0.00281519
0.0044547
0.00605637
0.00640732
0.0046363
0.00290003
0.00128294
0.000185181
0.000189108
0.00130562
0.00293477
0.00463112
0.00628456
0.00668229
0.00483559
0.00300497
0.00132189
0.000191014
0.000190286
0.00131924
0.00298525
0.00477507
0.00665402
0.00597037
0.00445532
0.00281073
0.00122337
0.000186417
0.000183159
0.00121491
0.00278493
0.00447702
0.00618403
0.00603167
0.00442603
0.00278333
0.00121939
0.000183824
0.000186231
0.00125636
0.00286208
0.00460626
0.00638692
0.00624744
0.00459056
0.00289482
0.00128077