/*--------------------------------*- C++ -*----------------------------------*\
| =========                 |                                                 |
| \\      /  F ield         | OpenFOAM: The Open Source CFD Toolbox           |
|  \\    /   O peration     | Version:  v2006                                 |
|   \\  /    A nd           | Website:  www.openfoam.com                      |
|    \\/     M anipulation  |                                                 |
\*---------------------------------------------------------------------------*/
FoamFile
{
    version     2.0;
    format      ascii;
    class       volScalarField;
    location    "0.07";
    object      turbulenceProperties:I;
}
// * * * * * * * * * * * * * * * * * * * * * * * * * * * * * * * * * * * * * //

dimensions      [0 0 0 0 0 0 0];


internalField   nonuniform List<scalar> 
38932
(
0.149717
0.149711
0.149908
0.14991
0.149909
0.14991
0.149909
0.149909
0.149909
0.14991
0.14991
0.14991
0.14991
0.14991
0.149911
0.149911
0.149911
0.149911
0.149912
0.149912
0.149912
0.149913
0.149913
0.149913
0.149914
0.149914
0.149915
0.149915
0.149916
0.149916
0.149917
0.149917
0.149918
0.149918
0.149919
0.149919
0.14992
0.14992
0.149921
0.149922
0.149922
0.149923
0.149923
0.149924
0.149925
0.149925
0.149926
0.149926
0.149927
0.149928
0.149928
0.149929
0.149929
0.14993
0.149931
0.149931
0.149932
0.149932
0.149933
0.149933
0.149934
0.149934
0.149935
0.149935
0.149936
0.149936
0.149936
0.149937
0.149937
0.149937
0.149938
0.149938
0.149938
0.149938
0.149939
0.149939
0.149939
0.149939
0.149939
0.149939
0.149939
0.149939
0.149939
0.149938
0.149938
0.149938
0.149938
0.149937
0.149937
0.149937
0.149936
0.149936
0.149936
0.149935
0.149935
0.149934
0.149933
0.149933
0.149932
0.149932
0.149931
0.14993
0.14993
0.149929
0.149928
0.149928
0.149927
0.149926
0.149926
0.149925
0.149924
0.149924
0.149923
0.149923
0.149922
0.149922
0.149921
0.149921
0.149921
0.149922
0.149923
0.149927
0.149935
0.149953
0.149989
0.150112
0.150214
0.151557
0.151343
0.159508
0.163449
0.172439
0.131122
0.173881
0.16068
0.157807
0.159709
0.131598
0.131472
0.148351
0.152841
0.147768
0.140049
0.129237
0.126779
0.133446
0.142982
0.138825
0.12844
0.124598
0.122707
0.124422
0.13529
0.132294
0.121356
0.121145
0.119888
0.118991
0.129756
0.127616
0.117153
0.118892
0.118118
0.115724
0.125806
0.124261
0.114595
0.117515
0.117048
0.113692
0.12293
0.121776
0.112964
0.116693
0.116428
0.11237
0.12077
0.119886
0.11188
0.116233
0.116095
0.111471
0.119104
0.118408
0.111126
0.116001
0.115942
0.110833
0.117787
0.11723
0.110584
0.115912
0.115906
0.110373
0.116729
0.116279
0.110195
0.11592
0.115952
0.110047
0.115876
0.115514
0.109927
0.115999
0.116061
0.109833
0.115191
0.114906
0.109764
0.116136
0.116224
0.10972
0.114655
0.114438
0.109699
0.116324
0.116437
0.109701
0.114254
0.114101
0.109727
0.116563
0.116701
0.109775
0.113979
0.113888
0.109847
0.116852
0.117016
0.109943
0.113827
0.113797
0.110062
0.117193
0.117385
0.110206
0.113796
0.113827
0.110373
0.11759
0.117811
0.110566
0.113887
0.113979
0.110784
0.118046
0.118298
0.111029
0.114102
0.114257
0.1113
0.118565
0.118849
0.111598
0.114445
0.114667
0.111925
0.119151
0.119472
0.112282
0.114923
0.115215
0.11267
0.119812
0.120173
0.113091
0.115545
0.115914
0.113547
0.120557
0.120965
0.11404
0.116325
0.11678
0.114572
0.121399
0.121862
0.115146
0.117283
0.117835
0.115766
0.122355
0.122882
0.116434
0.11844
0.119103
0.117154
0.123446
0.124048
0.11793
0.119827
0.120616
0.118767
0.124694
0.125385
0.11967
0.121476
0.122412
0.120642
0.126126
0.126922
0.121691
0.123429
0.124535
0.122822
0.127776
0.128695
0.124045
0.125738
0.127046
0.125366
0.129686
0.130756
0.126797
0.128469
0.130021
0.12835
0.131916
0.133175
0.130038
0.131715
0.133567
0.131877
0.134547
0.136048
0.133887
0.135596
0.137824
0.136088
0.137694
0.139507
0.138508
0.140277
0.142985
0.141175
0.141511
0.143738
0.144126
0.145982
0.149312
0.147403
0.146222
0.149007
0.151057
0.153023
0.157175
0.15515
0.152145
0.155702
0.159758
0.161842
0.167109
0.16497
0.159759
0.164419
0.170905
0.173088
0.179911
0.177706
0.169815
0.176123
0.185561
0.187755
0.196834
0.194709
0.18357
0.192468
0.205468
0.207435
0.219929
0.21826
0.203244
0.216503
0.233667
0.234814
0.252755
0.252478
0.233105
0.254343
0.275838
0.274692
0.30194
0.305415
0.282206
0.319933
0.34375
0.336431
0.380998
0.394758
0.372978
0.451635
0.465141
0.440234
0.521634
0.566782
0.577239
0.802849
0.723421
0.638758
0.818985
0.991357
1
1
1
1
1
1
1
1
1
1
1
1
1
0.89981
1
1
1
1
0.732166
0.617562
0.992617
1
1
0.794968
0.529193
0.458677
0.650954
0.803189
0.647879
0.537758
0.400034
0.351802
0.446912
0.529663
0.438949
0.374188
0.312704
0.287315
0.319337
0.371617
0.326483
0.285566
0.271942
0.260127
0.264719
0.297882
0.279319
0.250699
0.251307
0.243537
0.240208
0.266524
0.257543
0.233122
0.237286
0.232134
0.228194
0.251482
0.247684
0.225006
0.228132
0.225074
0.22294
0.245314
0.244266
0.221998
0.222962
0.221526
0.221927
0.244299
0.245265
0.222633
0.22096
0.221363
0.224259
0.247273
0.250413
0.22697
0.222543
0.224479
0.230277
0.25424
0.259077
0.234579
0.227335
0.231012
0.239691
0.264816
0.271541
0.245751
0.235605
0.241147
0.252777
0.279309
0.288221
0.260874
0.247693
0.255381
0.270156
0.298384
0.309973
0.280768
0.264323
0.274697
0.292943
0.323214
0.338364
0.306955
0.286784
0.30092
0.323181
0.355846
0.376154
0.34215
0.317547
0.337562
0.364731
0.400124
0.428903
0.392082
0.361921
0.392838
0.426414
0.464462
0.509653
0.470877
0.433233
0.49254
0.532998
0.570378
0.65527
0.623161
0.581539
0.750447
0.775381
0.784512
0.996421
1
1
1
1
1
1
1
1
1
1
1
1
1
0.77868
0.604526
0.516149
0.463443
0.434061
0.418685
0.41395
0.418812
0.433725
0.45909
0.496738
0.555627
0.636547
0.749958
0.844956
0.951679
1
1
1
1
1
1
1
1
1
1
1
1
1
1
1
1
1
1
1
1
1
1
1
1
1
1
1
1
1
1
1
1
1
1
1
1
1
1
1
1
1
1
1
1
1
1
1
1
1
1
1
1
1
1
1
1
1
1
1
1
1
1
1
1
1
1
1
1
1
1
1
1
1
1
1
1
1
1
1
1
1
1
1
1
1
1
1
1
1
1
1
1
1
1
1
1
1
1
1
1
1
1
1
1
1
1
1
1
1
1
1
1
1
1
1
1
1
1
1
1
1
1
1
1
1
1
1
1
1
1
1
1
1
1
1
1
1
1
1
1
1
1
1
1
1
1
1
1
1
1
1
1
1
1
1
1
1
1
1
1
1
1
1
1
1
1
1
1
1
1
1
1
1
1
1
1
1
1
1
1
1
0.974044
1
1
1
1
1
1
1
1
0.993774
0.944607
1
1
1
1
1
1
1
1
0.935893
0.858358
0.931379
1
1
1
1
1
1
0.966898
0.861072
0.808777
0.87348
1
1
1
1
1
1
0.951215
0.823748
0.779997
0.853605
1
1
1
1
1
1
0.913848
0.787041
0.728499
0.792961
0.980838
1
1
1
1
1
0.811391
0.727338
0.689265
0.740854
0.867999
1
1
1
1
0.922132
0.751492
0.692537
0.660271
0.706993
0.806459
1
1
1
1
0.845813
0.711707
0.654313
0.633479
0.679013
0.758914
0.886182
1
1
1
0.85391
0.700308
0.634113
0.608482
0.653687
0.735005
0.907042
1
1
1
0.822212
0.675977
0.613344
0.587666
0.629439
0.710775
0.903351
1
1
0.931535
0.79242
0.657603
0.595525
0.57475
0.616997
0.715265
0.938755
1
1
0.946233
0.768367
0.643954
0.582035
0.558555
0.600205
0.720159
0.942384
1
1
1
0.77587
0.623502
0.564948
0.539163
0.575458
0.667179
0.852074
1
1
0.913145
0.735923
0.589852
0.545225
0.528713
0.568845
0.637673
0.721861
1
1
0.95666
0.71083
0.587118
0.532271
0.515488
0.550343
0.614178
0.734701
1
1
0.798186
0.697665
0.57985
0.524123
0.500564
0.531511
0.633391
0.786269
1
1
0.862174
0.664786
0.549955
0.504995
0.485766
0.511714
0.579176
0.716122
1
0.986228
0.795182
0.643664
0.520857
0.489904
0.476093
0.50002
0.547772
0.643293
1
0.948423
0.704306
0.58028
0.502117
0.475707
0.467053
0.492666
0.53386
0.599642
1
1
0.692757
0.573415
0.503258
0.4695
0.457539
0.481688
0.519452
0.587711
1
1
0.681145
0.594539
0.507649
0.466182
0.45064
0.473083
0.516058
0.60185
1
0.881176
0.61549
0.562214
0.491863
0.458041
0.444051
0.463873
0.527289
0.63292
0.959749
0.988461
0.618821
0.529972
0.475651
0.446062
0.43322
0.450247
0.513188
0.609846
0.830556
0.986922
0.656142
0.543612
0.463601
0.436667
0.422777
0.437296
0.482069
0.571043
0.858901
0.791349
0.638214
0.54076
0.446936
0.425866
0.414458
0.428265
0.459492
0.519287
0.945221
0.712496
0.59059
0.509657
0.43183
0.416187
0.409155
0.427593
0.458017
0.493562
0.816083
0.941704
0.547806
0.474341
0.427449
0.407066
0.391395
0.40174
0.427995
0.481172
0.876386
0.792851
0.45706
0.416173
0.397729
0.387763
0.381055
0.397912
0.432546
0.42584
0.657058
0.760313
0.567997
0.553207
0.427541
0.384082
0.358464
0.372448
0.486554
0.517218
0.530352
0.626551
0.323038
0.301604
0.313671
0.32496
0.32818
0.307713
0.290586
0.304446
0.477252
0.387647
0.30071
0.312199
0.334969
0.357566
0.367734
0.344968
0.321084
0.298405
0.332351
0.304994
0.303843
0.332312
0.356829
0.379656
0.389379
0.366397
0.34106
0.30985
0.29172
0.284565
0.315389
0.348739
0.375017
0.398442
0.406571
0.382655
0.355375
0.319616
0.279617
0.276779
0.324123
0.361452
0.389571
0.413866
0.419975
0.395742
0.367074
0.328538
0.27523
0.274586
0.333241
0.373094
0.402612
0.427568
0.43501
0.409134
0.378563
0.336997
0.274174
0.274868
0.341004
0.384423
0.416141
0.443154
0.45167
0.423533
0.390662
0.346049
0.277442
0.284107
0.352353
0.397939
0.431264
0.459498
0.46831
0.440364
0.407026
0.361573
0.290811
0.295961
0.370685
0.416875
0.450868
0.479561
0.490843
0.461331
0.426506
0.379017
0.300019
0.303909
0.387813
0.435997
0.471714
0.502077
0.513986
0.482101
0.445176
0.396259
0.306689
0.307855
0.40258
0.452697
0.491179
0.526427
0.52696
0.494348
0.456123
0.405092
0.308429
0.308942
0.406941
0.458077
0.494962
0.524555
0.535218
0.502939
0.464839
0.412738
0.312944
0.315708
0.42068
0.473863
0.513023
0.54632
0.557909
0.523445
0.483371
0.429379
0.318957
0.322526
0.437164
0.492524
0.53371
0.569454
0.58104
0.543706
0.501145
0.445062
0.328036
0.330635
0.450961
0.508215
0.552363
0.592202
0.600448
0.557624
0.512692
0.455372
0.334396
0.334459
0.455855
0.512589
0.555583
0.592941
0.582453
0.549911
0.509517
0.453971
0.334601
0.33452
0.452697
0.508058
0.549394
0.586469
0.58441
0.549324
0.508041
0.451874
0.336031
0.337158
0.45203
0.507977
0.547882
0.579762
0.587836
0.552787
0.511753
0.455199
0.341882
0.345773
0.460411
0.518214
0.560423
0.596439
0.603912
0.56773
0.524994
0.466519
0.350782
0.354751
0.473319
0.532326
0.57565
0.612524
0.621882
0.584301
0.540192
0.480515
0.360608
0.364308
0.487813
0.548731
0.593926
0.632742
0.645016
0.603112
0.556804
0.495106
0.369679
0.371505
0.499023
0.561419
0.607206
0.646124
0.645245
0.609646
0.564471
0.500764
0.373331
0.378916
0.508826
0.573986
0.620565
0.659481
0.67505
0.634846
0.586828
0.520517
0.386362
0.392659
0.533446
0.600942
0.650261
0.691869
0.709757
0.666061
0.615065
0.545774
0.398078
0.402884
0.554786
0.626342
0.680064
0.728576
0.731636
0.686297
0.632751
0.559641
0.407042
0.408318
0.562006
0.637094
0.690015
0.731871
0.750345
0.703781
0.647835
0.569662
0.413545
0.427341
0.582859
0.663478
0.721981
0.771567
0.795175
0.743232
0.682382
0.599267
0.439361
0.449933
0.616336
0.70228
0.76632
0.821649
0.852131
0.789448
0.721699
0.632951
0.460986
0.46935
0.646302
0.736149
0.803694
0.862422
0.868979
0.815554
0.749479
0.65827
0.477069
0.485418
0.674076
0.769991
0.839918
0.899039
0.933946
0.870378
0.796024
0.695116
0.498611
0.515459
0.719339
0.825473
0.904504
0.973125
1
0.94254
0.857615
0.746937
0.533414
0.548772
0.772243
0.890017
0.982329
1
1
1
0.915185
0.794081
0.559922
0.571639
0.816001
0.940738
1
1
1
1
0.976695
0.843535
0.587147
0.606282
0.878941
1
1
1
1
1
1
0.922438
0.635899
0.666607
0.969243
1
1
1
1
1
1
1
0.691655
0.713047
1
1
1
1
1
1
1
1
0.742614
0.785469
1
1
1
1
1
1
1
1
0.836201
0.875755
1
1
1
1
1
1
1
1
0.925671
0.987235
1
1
1
1
1
1
1
1
1
1
1
1
1
1
1
1
1
1
1
1
1
1
1
1
1
1
1
1
1
1
1
1
1
1
1
1
1
1
1
1
1
1
1
1
1
1
1
1
1
1
1
1
1
1
1
1
1
1
1
1
1
1
1
1
1
1
1
1
1
1
1
1
1
1
1
1
1
1
1
1
1
1
1
1
1
1
1
1
1
1
1
1
1
1
1
1
1
1
1
1
1
1
1
1
1
1
1
1
1
0.930586
1
1
1
1
0.973495
0.985906
0.992275
0.978875
0.84043
0.755756
0.889437
0.906357
0.904016
0.891631
0.825353
0.8319
0.827821
0.805096
0.672438
0.595864
0.725931
0.754102
0.763699
0.765883
0.701362
0.698009
0.684153
0.650572
0.517932
0.423021
0.575154
0.618284
0.637339
0.645542
0.592644
0.584772
0.562052
0.511233
0.346173
0.318999
0.468622
0.517973
0.543063
0.557602
0.523039
0.511014
0.487009
0.444218
0.323147
0.318228
0.422149
0.460741
0.483405
0.498138
0.471518
0.458198
0.435194
0.394874
0.292234
0.254173
0.366138
0.409336
0.432071
0.446448
0.420966
0.408705
0.387508
0.347334
0.24123
0.249385
0.338679
0.372774
0.391548
0.402774
0.388502
0.378065
0.361646
0.332176
0.251332
0.235772
0.32304
0.350172
0.36587
0.376016
0.364808
0.354723
0.339094
0.310258
0.222986
0.222019
0.294868
0.326708
0.34347
0.353212
0.343269
0.332562
0.31365
0.279527
0.218263
0.208452
0.264702
0.301635
0.322358
0.334345
0.329373
0.315943
0.294159
0.257831
0.203405
0.205392
0.252043
0.289116
0.311362
0.325111
0.322126
0.307919
0.285466
0.248778
0.208262
0.213333
0.246633
0.283509
0.306105
0.320337
0.317994
0.302942
0.279544
0.241922
0.2139
0.204303
0.235915
0.276692
0.301761
0.317558
0.316231
0.300158
0.274605
0.232012
0.19783
0.206656
0.238104
0.278753
0.303298
0.318835
0.319691
0.305604
0.283357
0.245747
0.216006
0.22063
0.253071
0.289013
0.310645
0.32412
0.326052
0.31209
0.291501
0.258139
0.224407
0.22527
0.25946
0.290793
0.309975
0.321879
0.324686
0.312422
0.293118
0.261963
0.223281
0.222192
0.265425
0.294979
0.313333
0.325168
0.329923
0.318355
0.300367
0.272193
0.22714
0.236927
0.2799
0.305622
0.321743
0.333172
0.33207
0.323324
0.309796
0.287719
0.24669
0.25306
0.294072
0.315461
0.328637
0.336906
0.339635
0.331174
0.319235
0.299426
0.25845
0.261422
0.302001
0.32102
0.331734
0.338442
0.342044
0.335396
0.32421
0.304095
0.262648
0.26402
0.306401
0.325932
0.336591
0.343843
0.342266
0.336329
0.326326
0.306944
0.264099
0.262179
0.308228
0.328541
0.338942
0.345071
0.345954
0.3404
0.330563
0.311243
0.261988
0.268115
0.316844
0.334963
0.344468
0.350096
0.352749
0.347131
0.338729
0.322474
0.275197
0.280071
0.326479
0.341397
0.348708
0.352874
0.356523
0.352562
0.345363
0.330519
0.283338
0.286584
0.333918
0.347935
0.354506
0.358657
0.35878
0.355559
0.349466
0.335814
0.288454
0.291083
0.338953
0.352606
0.358658
0.361798
0.363469
0.360029
0.354225
0.340666
0.292842
0.293806
0.341832
0.355144
0.36072
0.363462
0.365986
0.363158
0.357367
0.343498
0.294567
0.295707
0.344526
0.358479
0.364117
0.367284
0.367124
0.364499
0.358897
0.345038
0.296054
0.296553
0.346388
0.360726
0.366565
0.369305
0.370303
0.367181
0.361456
0.347253
0.297186
0.29666
0.346965
0.361552
0.367353
0.369978
0.371909
0.369157
0.363219
0.348938
0.297625
0.298324
0.34946
0.363705
0.369557
0.372729
0.372297
0.369544
0.363652
0.349356
0.298257
0.298367
0.350022
0.364962
0.371164
0.374164
0.374964
0.371527
0.365195
0.350136
0.298566
0.297668
0.348673
0.364444
0.371134
0.374783
0.374028
0.370605
0.363606
0.347064
0.296424
0.295422
0.347476
0.364356
0.371561
0.375218
0.375467
0.371367
0.364239
0.34781
0.295277
0.295055
0.347676
0.363775
0.370887
0.374481
0.37585
0.371952
0.364647
0.348479
0.29532
0.295137
0.348243
0.364444
0.371701
0.376016
0.374909
0.371172
0.363926
0.347852
0.294871
0.294915
0.348068
0.364607
0.372111
0.376188
0.376286
0.371836
0.364463
0.348468
0.295017
0.294295
0.347194
0.363712
0.37118
0.375065
0.376245
0.371966
0.364282
0.347682
0.293863
0.293823
0.347368
0.363885
0.371521
0.376195
0.37482
0.370755
0.363104
0.346483
0.293068
0.292722
0.346679
0.363456
0.37136
0.375859
0.375661
0.370766
0.362876
0.345953
0.292043
0.290894
0.344693
0.361855
0.369829
0.374115
0.375047
0.370323
0.362135
0.344952
0.290819
0.290335
0.34427
0.361475
0.369642
0.374753
0.373017
0.368492
0.360147
0.342433
0.288777
0.287336
0.34208
0.360126
0.368769
0.373802
0.37338
0.367881
0.359241
0.341437
0.286555
0.285144
0.339656
0.35794
0.366697
0.371514
0.372277
0.366937
0.35795
0.33937
0.283999
0.283423
0.338734
0.357094
0.366059
0.37181
0.369852
0.364809
0.355807
0.337037
0.281722
0.279874
0.336128
0.355464
0.364882
0.370533
0.369984
0.363867
0.354457
0.33547
0.278558
0.276997
0.33361
0.35316
0.36264
0.367996
0.368671
0.362691
0.352997
0.333347
0.275775
0.2753
0.33221
0.351921
0.361684
0.368091
0.366257
0.360559
0.350702
0.331341
0.274128
0.273229
0.331073
0.35052
0.360769
0.367103
0.36652
0.36003
0.349895
0.329929
0.272618
0.268479
0.329768
0.349244
0.35952
0.365269
0.366643
0.360231
0.350065
0.32965
0.272981
0.264126
0.332654
0.350456
0.360433
0.366805
0.366263
0.360752
0.351267
0.332718
0.27381
0.264717
0.335777
0.352966
0.361997
0.367161
0.368147
0.363462
0.354741
0.336692
0.27009
0.270102
0.338505
0.356775
0.36559
0.371161
0.370584
0.365654
0.357109
0.338004
0.272548
0.275073
0.336763
0.355977
0.364448
0.369088
0.36659
0.362578
0.35393
0.335189
0.276491
0.27839
0.33518
0.353269
0.361864
0.366106
0.364825
0.360832
0.352739
0.335208
0.280091
0.281966
0.336134
0.352936
0.360876
0.364761
0.363355
0.359805
0.352582
0.336468
0.283951
0.286647
0.336162
0.35136
0.358114
0.360985
0.36083
0.357585
0.350872
0.335449
0.28279
0.279337
0.333673
0.349216
0.355885
0.359243
0.356694
0.353721
0.346877
0.330851
0.276022
0.274514
0.329773
0.34602
0.353044
0.356469
0.354886
0.351301
0.344392
0.328516
0.273457
0.271547
0.326051
0.342089
0.34908
0.352245
0.35196
0.348313
0.341114
0.3248
0.270131
0.268888
0.323453
0.339445
0.346514
0.350299
0.347549
0.34425
0.337101
0.320853
0.267227
0.266756
0.320078
0.336209
0.343424
0.347208
0.345448
0.34153
0.334444
0.318707
0.265632
0.263089
0.315878
0.331836
0.339049
0.342509
0.342017
0.337958
0.330528
0.314291
0.261298
0.259979
0.312435
0.328582
0.335998
0.34021
0.337255
0.333591
0.326207
0.310188
0.258882
0.257555
0.308739
0.324957
0.332546
0.336792
0.334943
0.330461
0.322831
0.306608
0.255165
0.253137
0.304068
0.320213
0.327866
0.331789
0.331115
0.326758
0.31899
0.302792
0.252051
0.250959
0.301315
0.317443
0.325166
0.329458
0.329002
0.324454
0.316483
0.300342
0.249998
0.249098
0.29889
0.314949
0.322558
0.327089
0.323875
0.320028
0.312551
0.296962
0.248513
0.247154
0.295548
0.311225
0.318781
0.323191
0.32113
0.31646
0.308812
0.29312
0.244547
0.241909
0.28984
0.305829
0.313562
0.317668
0.31673
0.312118
0.304171
0.288059
0.240148
0.239029
0.28636
0.302407
0.310317
0.314899
0.314264
0.309391
0.30125
0.285237
0.238023
0.236716
0.28361
0.299344
0.30723
0.312167
0.308629
0.304364
0.296559
0.280916
0.235105
0.233379
0.279212
0.294999
0.302999
0.307857
0.305867
0.300721
0.29269
0.276873
0.231303
0.229684
0.274283
0.289955
0.297885
0.302341
0.301537
0.296576
0.288468
0.2727
0.228332
0.227206
0.271171
0.286837
0.294844
0.299749
0.299217
0.294004
0.285655
0.269962
0.226156
0.224606
0.268224
0.283761
0.291896
0.297213
0.29355
0.288949
0.280964
0.265601
0.222918
0.221459
0.263961
0.27943
0.287623
0.292837
0.290931
0.285467
0.27729
0.261857
0.219755
0.217886
0.258945
0.274472
0.282558
0.28731
0.286562
0.281299
0.272936
0.257418
0.216555
0.215253
0.25584
0.271381
0.279548
0.284747
0.284324
0.278753
0.270199
0.254743
0.214251
0.212971
0.25319
0.268386
0.276711
0.282396
0.278701
0.27385
0.26577
0.250785
0.211253
0.210301
0.24938
0.26438
0.272635
0.277969
0.276169
0.270975
0.262947
0.248103
0.209466
0.208208
0.246828
0.261704
0.270096
0.275721
0.273806
0.268076
0.259816
0.244989
0.206534
0.204814
0.242271
0.257126
0.265161
0.270076
0.269399
0.263975
0.255671
0.240775
0.203791
0.202972
0.23947
0.254221
0.262312
0.267585
0.267227
0.261498
0.253097
0.238363
0.201885
0.200082
0.236598
0.25121
0.259483
0.265338
0.26159
0.256575
0.248543
0.234119
0.19847
0.197537
0.232637
0.247141
0.255418
0.260962
0.259192
0.253822
0.245769
0.231353
0.196625
0.195495
0.230271
0.244716
0.253135
0.258945
0.25723
0.251317
0.24307
0.228845
0.194326
0.19326
0.226579
0.240698
0.248612
0.253621
0.253128
0.247624
0.239501
0.225364
0.192676
0.191967
0.224428
0.238287
0.246152
0.251442
0.251178
0.245436
0.237216
0.223248
0.190693
0.189047
0.221512
0.235373
0.243488
0.249368
0.24562
0.240562
0.232684
0.218868
0.187284
0.185916
0.217199
0.231214
0.23942
0.245032
0.243254
0.237834
0.229808
0.215905
0.184961
0.184227
0.214937
0.228794
0.237131
0.243066
0.241428
0.235428
0.227286
0.213519
0.183234
0.181958
0.211083
0.224841
0.232694
0.237799
0.237396
0.231747
0.223613
0.209733
0.180777
0.180274
0.208885
0.222449
0.230387
0.235763
0.235626
0.229871
0.221885
0.208579
0.17986
0.17891
0.207537
0.220753
0.22855
0.233934
0.233785
0.227959
0.219823
0.206613
0.177897
0.176806
0.205257
0.218355
0.226261
0.232141
0.228569
0.223556
0.215957
0.202925
0.175718
0.174988
0.201715
0.214776
0.222671
0.228211
0.226568
0.221275
0.213597
0.200656
0.174173
0.173343
0.199749
0.212676
0.220716
0.226525
0.22499
0.219109
0.211277
0.19833
0.17239
0.171123
0.196204
0.208931
0.216451
0.221467
0.221126
0.215588
0.20772
0.194924
0.170143
0.169266
0.193796
0.206555
0.214214
0.21951
0.219447
0.213704
0.205913
0.193336
0.168597
0.16802
0.192533
0.204935
0.212502
0.217806
0.217798
0.212067
0.204173
0.191701
0.167329
0.166615
0.190734
0.202944
0.210569
0.21634
0.212917
0.208019
0.20073
0.188434
0.165546
0.164691
0.187304
0.199613
0.207237
0.212662
0.211151
0.206036
0.19866
0.186393
0.164229
0.163902
0.186197
0.198175
0.205673
0.211228
0.209649
0.204532
0.197294
0.185501
0.163259
0.16245
0.184742
0.196493
0.2041
0.209695
0.208249
0.202601
0.195193
0.183501
0.16153
0.160385
0.181419
0.193058
0.200085
0.204881
0.204637
0.1993
0.191894
0.1801
0.159388
0.158865
0.179123
0.190864
0.19807
0.203113
0.203186
0.197652
0.190282
0.178605
0.158403
0.157906
0.178022
0.189462
0.196568
0.201621
0.201746
0.196196
0.188741
0.177312
0.157332
0.1565
0.176269
0.187599
0.194839
0.200397
0.197115
0.192408
0.185543
0.174221
0.155516
0.15478
0.173131
0.184501
0.19172
0.196966
0.195483
0.19056
0.183566
0.172392
0.154305
0.153762
0.17191
0.183046
0.190195
0.195625
0.194115
0.189158
0.182262
0.171347
0.153182
0.152601
0.170679
0.181581
0.18882
0.194261
0.193003
0.187541
0.180513
0.169706
0.151915
0.151151
0.167954
0.178595
0.185214
0.189817
0.189734
0.184599
0.177628
0.166824
0.150521
0.150098
0.166032
0.176743
0.183507
0.188288
0.188475
0.183207
0.17632
0.165703
0.149675
0.149027
0.164936
0.175509
0.182219
0.187022
0.187199
0.181951
0.175063
0.164639
0.148582
0.148135
0.164067
0.17435
0.180932
0.18566
0.185821
0.180584
0.173685
0.163507
0.147589
0.146847
0.162481
0.172577
0.179293
0.184539
0.181398
0.176967
0.170658
0.160561
0.145913
0.145292
0.159338
0.169665
0.176334
0.181325
0.179906
0.17529
0.168803
0.158641
0.144878
0.14434
0.158132
0.168266
0.174938
0.180085
0.178661
0.173993
0.167507
0.157494
0.143802
0.143559
0.157228
0.167141
0.173809
0.17894
0.177479
0.172885
0.16654
0.156823
0.143348
0.142952
0.156364
0.165993
0.172646
0.177736
0.176566
0.171489
0.16503
0.155474
0.142352
0.141677
0.153932
0.163237
0.169251
0.173533
0.17348
0.168648
0.162289
0.152577
0.14091
0.140223
0.151772
0.16137
0.167599
0.172078
0.172293
0.167239
0.160752
0.151087
0.13958
0.139233
0.150634
0.160114
0.166368
0.170873
0.171191
0.166163
0.159759
0.150398
0.138972
0.138562
0.149925
0.159105
0.16526
0.169749
0.170044
0.165027
0.158565
0.149424
0.138223
0.137726
0.148627
0.157705
0.163987
0.168954
0.166052
0.161869
0.156039
0.147089
0.137059
0.13668
0.145917
0.155225
0.1614
0.166138
0.164804
0.160483
0.154476
0.145307
0.136287
0.135818
0.144988
0.154089
0.160252
0.165129
0.163784
0.159417
0.153426
0.14444
0.135423
0.13496
0.144251
0.153115
0.159297
0.164148
0.162753
0.15842
0.152474
0.14373
0.134492
0.134017
0.143371
0.151996
0.158196
0.163063
0.162043
0.157206
0.15113
0.142442
0.133534
0.133219
0.141203
0.149592
0.155185
0.159236
0.159355
0.154745
0.14882
0.14019
0.132818
0.132344
0.139563
0.148112
0.153875
0.158051
0.158423
0.153663
0.147696
0.13915
0.13206
0.131764
0.138732
0.147122
0.15291
0.1571
0.157533
0.152834
0.146934
0.138608
0.131513
0.131261
0.138293
0.146401
0.152073
0.156209
0.156579
0.151911
0.14608
0.137937
0.130634
0.130158
0.137439
0.145461
0.151046
0.155177
0.155475
0.150833
0.144952
0.136987
0.129817
0.129423
0.136235
0.144154
0.149877
0.154486
0.151803
0.147952
0.142677
0.134933
0.128892
0.128567
0.133967
0.141917
0.147515
0.151935
0.150644
0.146682
0.141256
0.133383
0.12829
0.127828
0.132965
0.140864
0.146498
0.151052
0.149768
0.145771
0.140319
0.132493
0.1275
0.127344
0.132365
0.140083
0.145698
0.150228
0.148927
0.144968
0.139607
0.132052
0.127092
0.126806
0.131757
0.139198
0.144828
0.149318
0.148412
0.143952
0.13849
0.131098
0.126454
0.125973
0.129792
0.137062
0.142116
0.145822
0.146002
0.14174
0.136392
0.12895
0.125731
0.125323
0.128325
0.135735
0.140915
0.144739
0.145172
0.140729
0.135309
0.127864
0.124844
0.124539
0.127463
0.134763
0.140017
0.143873
0.144355
0.139914
0.134493
0.127185
0.12417
0.123827
0.126784
0.13399
0.139205
0.143062
0.143547
0.139143
0.133763
0.126608
0.123616
0.123411
0.126308
0.133303
0.138427
0.142223
0.142641
0.138278
0.132926
0.126104
0.123219
0.122938
0.1255
0.132268
0.137458
0.141759
0.139236
0.135688
0.130923
0.124278
0.122531
0.122334
0.123371
0.130279
0.135353
0.139461
0.138196
0.134578
0.129652
0.122845
0.122178
0.121806
0.122429
0.129273
0.13441
0.138666
0.13736
0.133679
0.128716
0.121925
0.12136
0.121039
0.121658
0.128433
0.133596
0.137862
0.136578
0.132907
0.127946
0.121278
0.120783
0.120409
0.121079
0.127701
0.132811
0.137061
0.135781
0.132119
0.127196
0.120649
0.119906
0.119668
0.120449
0.126954
0.132044
0.136278
0.135014
0.131373
0.126533
0.120167
0.119556
0.119342
0.119969
0.126226
0.131298
0.135475
0.134678
0.130563
0.125664
0.119492
0.119149
0.118878
0.118584
0.124476
0.128955
0.132315
0.132585
0.128646
0.123932
0.117891
0.118727
0.118469
0.117284
0.123347
0.127967
0.131395
0.131914
0.127859
0.123048
0.116896
0.118132
0.117833
0.116503
0.122571
0.127226
0.130703
0.131258
0.127213
0.122398
0.116279
0.11752
0.117242
0.115957
0.121934
0.126576
0.130042
0.130592
0.126557
0.12175
0.11573
0.116928
0.116665
0.115466
0.121345
0.12591
0.129362
0.129819
0.125819
0.120998
0.11523
0.116434
0.116267
0.114786
0.120457
0.125125
0.129064
0.126815
0.123607
0.119371
0.114035
0.116122
0.116061
0.113372
0.118867
0.123332
0.127099
0.125919
0.122663
0.118319
0.112775
0.11576
0.115396
0.112315
0.117981
0.122547
0.126437
0.125249
0.121944
0.117523
0.111907
0.115109
0.114901
0.11171
0.117347
0.12193
0.125823
0.124639
0.121352
0.11694
0.111426
0.11471
0.114435
0.111264
0.116757
0.121324
0.125225
0.124024
0.120725
0.116361
0.110935
0.114102
0.113905
0.110705
0.116019
0.120625
0.124495
0.123788
0.11999
0.115533
0.11033
0.113818
0.113721
0.10967
0.114524
0.118528
0.121592
0.121931
0.11828
0.11404
0.10908
0.113638
0.113549
0.108606
0.113555
0.117653
0.120758
0.121326
0.117573
0.113242
0.108199
0.113185
0.112798
0.107769
0.112791
0.116987
0.120147
0.120752
0.116962
0.112593
0.107496
0.112511
0.112301
0.107205
0.112191
0.116391
0.119551
0.120168
0.116384
0.112037
0.107011
0.112012
0.111755
0.106739
0.11163
0.115787
0.118963
0.119449
0.115708
0.111339
0.106515
0.11153
0.111381
0.106093
0.110844
0.115096
0.118765
0.116636
0.113689
0.109883
0.105502
0.111229
0.11131
0.104926
0.109426
0.113469
0.11701
0.115874
0.112901
0.108993
0.104507
0.111344
0.111103
0.104169
0.108765
0.11287
0.116499
0.115332
0.112313
0.108342
0.10379
0.110747
0.110468
0.103529
0.108174
0.112334
0.115981
0.114813
0.111787
0.107775
0.10321
0.110137
0.109883
0.103031
0.10762
0.111798
0.115462
0.114298
0.111245
0.107271
0.102763
0.109606
0.109328
0.102567
0.106998
0.11121
0.114814
0.11418
0.110634
0.106561
0.102282
0.109275
0.109343
0.101875
0.105684
0.109319
0.112141
0.112547
0.109118
0.105267
0.101389
0.109244
0.109008
0.100848
0.104813
0.10853
0.111401
0.112052
0.10852
0.104598
0.100454
0.108704
0.108575
0.100124
0.104221
0.108008
0.110905
0.111592
0.108059
0.104092
0.0999084
0.108439
0.10805
0.0996241
0.103757
0.107552
0.110449
0.111127
0.107576
0.103604
0.0994373
0.107813
0.107648
0.0992342
0.103292
0.107062
0.109984
0.110503
0.10703
0.103072
0.0991247
0.107525
0.107431
0.0988738
0.102636
0.106495
0.109895
0.107892
0.105194
0.101727
0.0985067
0.107407
0.10745
0.098095
0.101311
0.104987
0.108305
0.107167
0.104442
0.100893
0.097484
0.107256
0.107044
0.0970845
0.100674
0.104393
0.1078
0.106659
0.103888
0.100287
0.0966992
0.106783
0.106479
0.0963559
0.100109
0.103905
0.107344
0.106194
0.103392
0.0997501
0.0960412
0.106178
0.105837
0.0957805
0.0995874
0.103419
0.106883
0.105764
0.102925
0.0992792
0.0955584
0.105663
0.105643
0.0954454
0.0991021
0.102926
0.106307
0.105755
0.102434
0.0987027
0.0953277
0.105663
0.105674
0.0950651
0.0977984
0.101205
0.103835
0.104284
0.101035
0.0974707
0.0947814
0.105729
0.105682
0.0943082
0.0971416
0.100547
0.103194
0.103874
0.100554
0.0969797
0.0939545
0.105549
0.10529
0.0936031
0.0966482
0.100082
0.102759
0.103471
0.100148
0.0965454
0.0932972
0.10497
0.104678
0.0929933
0.0961917
0.0996541
0.102354
0.103058
0.0997144
0.0960611
0.0927515
0.104319
0.103963
0.0924619
0.0957556
0.0992217
0.101947
0.102508
0.0992065
0.0955367
0.0922672
0.103773
0.103688
0.0921227
0.0951172
0.0987153
0.101959
0.100132
0.0975784
0.0943106
0.0919147
0.103701
0.103723
0.0916757
0.0940282
0.0974239
0.100606
0.0995407
0.0969603
0.093721
0.0912635
0.103687
0.103574
0.0909767
0.0936127
0.0970465
0.100257
0.099206
0.0966064
0.093336
0.0906896
0.103394
0.103014
0.0903781
0.0932352
0.0967068
0.0999411
0.0988981
0.096259
0.0929706
0.0901367
0.102795
0.102757
0.0899306
0.092794
0.0962849
0.0994875
0.0989743
0.0958314
0.0924203
0.0898951
0.102661
0.102655
0.0896781
0.09166
0.094746
0.0971936
0.0976731
0.0945918
0.0913812
0.0893586
0.102677
0.102592
0.0889497
0.0910456
0.0941332
0.0966246
0.0972984
0.0941769
0.0908952
0.0885959
0.102276
0.102
0.0882292
0.0905625
0.0937221
0.0962575
0.0969472
0.0937752
0.0904135
0.0878714
0.101482
0.101212
0.0875602
0.0901178
0.0933155
0.09592
0.0964724
0.0933077
0.0898805
0.0872363
0.100887
0.100864
0.0871464
0.089484
0.0928511
0.0959719
0.0942335
0.0917967
0.0887531
0.0869795
0.10108
0.101421
0.0867885
0.0885447
0.0916953
0.0947369
0.0937344
0.0912905
0.0882768
0.0864593
0.101429
0.101378
0.0861987
0.0882178
0.0913981
0.0944358
0.0934567
0.0909976
0.0879489
0.0859197
0.101075
0.100845
0.085673
0.0878812
0.0911186
0.0941813
0.0932012
0.0907028
0.087628
0.0854319
0.100581
0.100427
0.0852002
0.0874806
0.0907275
0.0937898
0.0932873
0.0902806
0.0870904
0.0851567
0.100319
0.100218
0.0849586
0.0863647
0.0892549
0.091588
0.0920522
0.0890876
0.0860764
0.0846643
0.10022
0.0999473
0.0841874
0.085715
0.088636
0.0910439
0.0916882
0.0886641
0.0855526