/*--------------------------------*- C++ -*----------------------------------*\
| =========                 |                                                 |
| \\      /  F ield         | OpenFOAM: The Open Source CFD Toolbox           |
|  \\    /   O peration     | Version:  v2006                                 |
|   \\  /    A nd           | Website:  www.openfoam.com                      |
|    \\/     M anipulation  |                                                 |
\*---------------------------------------------------------------------------*/
FoamFile
{
    version     2.0;
    format      ascii;
    class       volScalarField;
    location    "0.028";
    object      p;
}
// * * * * * * * * * * * * * * * * * * * * * * * * * * * * * * * * * * * * * //

dimensions      [1 -1 -2 0 0 0 0];


internalField   nonuniform List<scalar> 
16277
(
147989
147994
147996
147985
147993
147991
147992
147994
147998
148003
148008
148014
148020
148027
148033
148040
148046
148054
148061
148069
148077
148085
148094
148103
148112
148122
148132
148142
148152
148162
148173
148184
148195
148207
148218
148230
148242
148254
148267
148279
148291
148304
148317
148329
148342
148355
148368
148381
148394
148406
148419
148432
148445
148457
148470
148482
148494
148507
148519
148530
148542
148554
148565
148576
148587
148597
148608
148618
148627
148637
148646
148655
148664
148672
148680
148687
148695
148701
148708
148714
148720
148726
148731
148735
148737
148739
148739
148739
148738
148740
148739
148743
148748
148758
148774
148786
148793
148782
148781
148777
148774
148775
148776
148770
148770
148770
148765
148765
148765
148761
148761
148761
148757
148757
148757
148755
148755
148755
148753
148752
148752
148751
148751
148751
148750
148749
148749
148748
148749
148749
148748
148748
148748
148748
148748
148748
148748
148748
148747
148748
148748
148748
148748
148748
148748
148749
148749
148749
148750
148750
148750
148751
148751
148752
148753
148752
148752
148754
148754
148755
148756
148756
148756
148758
148758
148758
148760
148760
148760
148762
148763
148763
148765
148765
148764
148767
148768
148768
148770
148770
148770
148773
148773
148774
148776
148776
148776
148780
148780
148780
148783
148783
148783
148787
148787
148787
148790
148790
148790
148794
148794
148795
148798
148798
148798
148802
148803
148803
148807
148806
148806
148811
148811
148812
148816
148816
148816
148821
148821
148821
148826
148825
148825
148831
148831
148831
148836
148836
148836
148842
148842
148842
148847
148847
148847
148853
148853
148853
148859
148858
148858
148865
148865
148865
148871
148871
148871
148877
148878
148878
148884
148884
148884
148891
148891
148891
148897
148897
148897
148904
148905
148905
148912
148911
148911
148919
148919
148919
148926
148926
148926
148934
148934
148935
148942
148942
148942
148950
148950
148950
148958
148958
148958
148966
148966
148967
148975
148974
148974
148983
148983
148984
148992
148992
148992
149001
149001
149001
149010
149010
149009
149019
149019
149019
149028
149028
149028
149038
149038
149038
149047
149047
149047
149057
149057
149057
149066
149066
149066
149076
149076
149076
149086
149085
149085
149095
149096
149096
149105
149105
149105
149115
149115
149115
149125
149124
149124
149134
149135
149135
149144
149144
149144
149153
149154
149154
149163
149163
149162
149172
149172
149172
149181
149181
149181
149190
149190
149190
149198
149198
149198
149206
149206
149207
149214
149214
149214
149221
149221
149222
149228
149228
149228
149234
149234
149235
149240
149240
149240
149245
149245
149245
149249
149249
149249
149253
149253
149253
149256
149256
149256
149258
149258
149258
149259
149259
149259
149260
149260
149260
149260
149260
149260
149259
149259
149259
149256
149256
149256
149254
149254
149254
149249
149249
149250
149245
149245
149245
149239
149239
149240
149234
149234
149234
149227
149227
149227
149221
149221
149221
149213
149213
149213
149206
149206
149206
149197
149197
149198
149190
149190
149190
149181
149181
149181
149173
149173
149173
149164
149164
149164
149156
149156
149156
149147
149147
149147
149140
149139
149139
149130
149131
149131
149124
149123
149123
149115
149115
149115
149109
149108
149108
149101
149101
149101
149095
149095
149095
149088
149088
149088
149083
149082
149082
149076
149076
149077
149072
149072
149072
149066
149066
149066
149062
149062
149062
149058
149058
149058
149054
149054
149054
149050
149050
149050
149048
149048
149048
149044
149044
149044
149042
149042
149042
149039
149039
149039
149037
149037
149037
149034
149034
149034
149033
149033
149033
149030
149031
149031
149029
149029
149029
149027
149027
149027
149026
149026
149026
149024
149024
149024
149023
149024
149023
149022
149022
149022
149021
149021
149021
149019
149019
149020
149019
149019
149019
149017
149017
149017
149017
149017
149017
149015
149015
149015
149015
149015
149015
149014
149014
149014
149013
149013
149013
149012
149012
149012
149011
149011
149011
149010
149010
149010
149010
149010
149010
149009
149009
149009
149008
149008
149008
149007
149007
149007
149007
149007
149007
149005
149005
149005
149005
149005
149005
149004
149004
149004
149003
149003
149003
149002
149001
149001
149000
149001
149001
148999
148999
148999
148999
149000
149000
149007
149008
149006
148981
148978
148979
148986
148995
149000
149001
149000
149001
149000
149000
149000
149000
149000
149000
149000
149000
149001
149000
149002
149001
149001
149002
149003
149003
149005
149004
149004
149001
149002
149003
149002
148999
148996
148999
148998
148996
148999
148997
148996
148999
148999
148998
148999
148999
148998
148999
148999
148999
149000
149000
149000
149001
149001
149001
149001
149001
149001
149002
149002
149002
149002
149002
149002
149002
149002
149002
149003
149003
149003
149003
149003
149003
149004
149004
149004
149004
149004
149004
149004
149004
149004
149005
149005
149005
149005
149005
149005
149005
149005
149005
149006
149006
149006
149006
149006
149006
149006
149006
149007
149007
149007
149007
149007
149007
149007
149007
149007
149007
149008
149008
149008
149008
149008
149008
149008
149008
149008
149009
149009
149009
149009
149009
149009
149009
149009
149009
149009
149010
149010
149010
149010
149010
149010
149010
149010
149010
149010
149010
149011
149011
149011
149011
149011
149011
149011
149011
149011
149011
149011
149012
149012
149012
149012
149012
149012
149012
149012
149012
149012
149012
149013
149013
149013
149013
149013
149013
149013
149013
149013
149013
149013
149013
149013
149014
149014
149014
149014
149014
149014
149014
149014
149014
149014
149014
149014
149014
149014
149014
149014
149014
149014
149014
149014
149015
149015
149014
149015
149015
149015
149015
149015
149015
149015
149015
149015
149015
149015
149015
149015
149015
149015
149015
149015
149014
149015
149015
149015
149014
149014
149014
149014
149015
149014
149014
149014
149014
149014
149014
149014
149014
149014
149013
149013
149013
149013
149013
149013
149012
149012
149012
149012
149012
149012
149011
149011
149011
149011
149011
149011
149010
149010
149010
149009
149009
149009
149008
149008
149008
149007
149007
149007
149006
149006
149006
149005
149005
149004
149003
149003
149003
149002
149002
149001
149000
149000
149000
148999
148998
148998
148996
148996
148996
148994
148993
148993
148991
148991
148991
148988
148987
148987
148984
148984
148984
148981
148980
148980
148975
148975
148976
148970
148968
148967
148959
148960
148962
148957
148955
148954
148948
148950
148952
148951
148949
148946
148948
148949
148952
148954
148952
148950
148953
148955
148957
148959
148957
148956
148959
148961
148963
148969
148968
148966
148973
148974
148975
148980
148978
148976
148981
148982
148984
148990
148987
148985
149007
149004
149001
149026
149026
149015
148980
148927
148984
149004
148994
148988
149002
149007
149017
149018
149018
149017
149030
149026
149018
149034
149029
149026
149031
149035
149039
149048
149045
149043
149049
149050
149052
149058
149061
149062
149068
149066
149063
149077
149079
149085
149065
149096
149129
149089
148999
149070
149058
149078
149110
149109
149097
149091
149110
149107
149100
149118
149115
149114
149124
149124
149122
149135
149130
149126
149154
149151
149148
149166
149165
149159
149123
149171
149120
149133
149170
149192
149161
149172
149187
149187
149193
149195
149199
149201
149203
149218
149217
149216
149210
149238
149266
149245
149165
149249
149241
149244
149241
149265
149265
149266
149276
149278
149278
149301
149301
149301
149304
149323
149336
149327
149254
149340
149361
149351
149327
149373
149363
149353
149379
149390
149399
149410
149424
149423
149453
149356
149437
149429
149470
149490
149468
149482
149494
149528
149528
149523
149554
149561
149564
149592
149586
149578
149642
149648
149650
149692
149692
149693
149712
149787
149733
149817
149822
149822
149898
149901
149888
149994
150002
149996
150146
150123
150085
150118
150169
150187
150272
150217
150162
150121
150176
150225
149990
149987
149955
149682
149687
149633
149308
149379
149394
149220
149167
149079
149060
149085
149095
149013
148975
148915
148938
148959
148971
148933
148918
148873
148929
148761
148917
148850
148883
148827
148862
148850
148843
148863
148852
148835
148816
148832
148852
148817
148810
148806
148817
148828
148833
148828
148823
148820
148802
148801
148808
148828
148824
148815
148815
148817
148821
148803
148799
148797
148830
148835
148834
148823
148820
148818
148795
148796
148801
148836
148841
148839
148817
148819
148823
148800
148795
148793
148841
148843
148838
148829
148829
148831
148799
148799
148804
148839
148844
148841
148833
148831
148830
148810
148806
148807
148849
148854
148853
148834
148841
148844
148797
148821
148854
148859
148703
148853
148852
148869
148855
148837
148834
148843
148766
148875
148790
148856
148852
148855
148835
148842
148840
148839
148750
148864
148862
148869
148849
148836
148835
148844
148768
148863
148793
148856
148854
148856
148853
148841
148839
148793
148875
148773
148858
148851
148852
148836
148839
148833
148855
148749
148829
148851
148863
148853
148842
148844
148840
148836
148735
148863
148843
148858
148845
148837
148830
148814
148863
148694
148842
148826
148877
148850
148843
148823
148797
148886
148836
148794
148828
148821
148814
148779
148797
148810
148846
148839
148820
148825
148821
148819
148801
148797
148802
148829
148832
148828
148814
148810
148806
148777
148774
148778
148819
148820
148813
148800
148802
148803
148787
148780
148780
148815
148822
148822
148790
148798
148795
148792
148652
148820
148798
148821
148772
148743
148770
148792
148776
148795
148812
148791
148781
148782
148754
148748
148749
148776
148783
148782
148755
148761
148758
148750
148649
148782
148759
148780
148756
148731
148731
148735
148771
148775
148774
148750
148750
148755
148711
148708
148709
148740
148747
148747
148720
148725
148720
148713
148612
148749
148722
148745
148715
148691
148696
148704
148741
148742
148735
148714
148710
148711
148667
148665
148669
148696
148702
148700
148693
148677
148676
148610
148744
148577
148695
148661
148697
148664
148648
148633
148702
148695
148679
148654
148668
148674
148668
148572
148633
148647
148670
148648
148614
148611
148618
148634
148636
148630
148616
148613
148618
148579
148610
148565
148634
148627
148627
148598
148600
148605
148614
148616
148608
148584
148583
148589
148516
148591
148538
148582
148574
148591
148540
148544
148545
148565
148571
148570
148546
148550
148549
148533
148473
148556
148570
148588
148560
148526
148519
148521
148534
148537
148534
148507
148503
148516
148391
148568
148435
148519
148456
148542
148458
148476
148467
148518
148475
148446
148403
148445
148514
148524
148501
148474
148502
148478
148437
148415
148419
148451
148446
148452
148441
148410
148410
148414
148419
148427
148429
148407
148401
148412
148288
148474
148334
148423
148351
148446
148356
148376
148368
148399
148407
148412
148366
148362
148362
148367
148374
148373
148341
148343
148340
148315
148247
148347
148318
148349
148323
148293
148287
148294
148339
148327
148296
148249
148280
148301
148325
148310
148282
148294
148280
148280
148219
148297
148244
148286
148265
148301
148220
148230
148230
148239
148246
148247
148207
148204
148201
148219
148227
148225
148196
148198
148197
148164
148122
148180
148185
148208
148185
148156
148150
148154
148188
148190
148184
148151
148144
148144
148161
148164
148158
148126
148131
148125
148155
147998
148104
148094
148164
148079
148072
148055
148073
148085
148090
148082
148039
148041
148052
148067
148072
148069
148039
148047
148042
148032
147912
148082
148025
148111
148032
148007
147994
148014
148009
148017
148008
147967
147960
147964
147973
147978
147975
147941
147933
147930
147950
147957
147956
147925
147925
147938
147807
147977
147857
147935
147869
147960
147864
147882
147872
147893
147899
147900
147871
147863
147858
147868
147878
147879
147831
147827
147826
147835
147844
147844
147801
147808
147807
147779
147682
147823
147763
147831
147775
147749
147734
147747
147758
147765
147759
147722
147716
147717
147737
147741
147736
147700
147693
147691
147733
147732
147721
147693
147700
147697
147721
147562
147664
147651
147733
147632
147628
147608
147628
147631
147641
147633
147579
147578
147588
147598
147604
147601
147555
147555
147560
147575
147582
147579
147556
147541
147542
147463
147622
147406
147595
147468
147559
147487
147503
147488
147515
147510
147504
147454
147454
147453
147463
147465
147458
147412
147410
147412
147430
147432
147424
147384
147384
147388
147401
147403
147394
147364
147370
147362
147414
147191
147345
147309
147443
147273
147304
147271
147302
147313
147326
147314
147276
147268
147273
147284
147294
147294
147229
147229
147235
147241
147249
147246
147193
147193
147196
147203
147210
147208
147162
147167
147167
147127
147072
147162
147130
147185
147137
147101
147088
147102
147102
147112
147103
147058
147051
147054
147069
147074
147068
147025
147023
147025
147048
147049
147039
146993
146991
146992
147006
147008
147000
146966
146971
146964
146999
146795
146934
146907
147031
146881
146898
146867
146895
146891
146906
146891
146836
146830
146842
146853
146862
146861
146792
146795
146802
146813
146822
146819
146771
146768
146769
146776
146785
146782
146741
146745
146740
146696
146607
146744
146690
146767
146698
146662
146642
146660
146654
146668
146657
146607
146598
146604
146626
146627
146617
146562
146555
146552
146577
146579
146570
146521
146519
146520
146536
146538
146528
146490
146495
146483
146545
146291
146460
146413
146585
146371
146413
146370
146407
146404
146421
146403
146353
146341
146353
146356
146366
146360
146298
146296
146301
146306
146313
146309
146256
146252
146254
146257
146265
146262
146200
146200
146204
146209
146219
146216
146177
146171
146169
146088
146112
146075
146150
146122
146131
146068
146072
146063
146073
146072
146069
146008
146005
146001
146017
146020
146013
145958
145955
145956
145963
145968
145961
145910
145908
145910
145921
145924
145916
145875
145878
145878
145840
145762
145808
145817
145871
145808
145771
145758
145774
145776
145789
145782
145705
145704
145714
145714
145724
145721
145654
145651
145654
145649
145655
145651
145583
145582
145587
145585
145589
145581
145547
145542
145543
145459
145500
145446
145519
145482
145505
145433
145438
145428
145442
145441
145438
145374
145374
145371
145387
145386
145376
145309
145305
145302
145315
145318
145308
145247
145246
145248
145253
145255
145244
145190
145195
145194
145126
145059
145102
145108
145168
145102
145037
145025
145052
145045
145057
145038
144983
144974
144985
144990
144999
144993
144931
144927
144929
144925
144935
144931
144854
144854
144859
144859
144872
144870
144816
144812
144806
144708
144687
144715
144752
144756
144737
144669
144663
144666
144663
144669
144657
144576
144570
144574
144559
144564
144556
144470
144453
144439
144473
144482
144476
144436
144442
144434
144440
144254
144373
144356
144456
144337
144315
144289
144316
144303
144322
144302
144227
144215
144229
144225
144239
144229
144148
144144
144150
144145
144161
144162
144092
144080
144078
143938
144041
143897
144032
143940
143996
143890
143903
143879
143855
143850
143862
143757
143748
143721
143777
143783
143777
143713
143708
143706
143722
143727
143716
143659
143666
143658
143684
143431
143589
143545
143671
143510
143492
143462
143497
143483
143506
143490
143393
143381
143396
143373
143389
143374
143276
143268
143277
143261
143279
143278
143183
143182
143176
143027
142960
143052
142977
143035
143004
142938
142912
142924
142970
142977
142960
142886
142878
142878
142887
142893
142882
142798
142795
142795
142807
142809
142793
142723
142732
142731
142627
142538
142596
142605
142672
142613
142519
142499
142524
142485
142506
142484
142369
142356
142370
142340
142359
142352
142235
142238
142233
142050
141883
142051
142042
142124
142061
142013
141994
142006
142029
142039
142021
141933
141927
141930
141927
141934
141918
141816
141810
141813
141809
141814
141799
141711
141720
141731
141542
141561
141543
141572
141565
141598
141450
141465
141461
141408
141412
141417
141247
141256
141260
141194
141200
141200
140947
141006
141042
140911
140886
140865
140992
141000
140983
140908
140906
140907
140898
140907
140894
140786
140782
140786
140770
140778
140763
140662
140671
140677
140503
140486
140487
140502
140524
140518
140382
140382
140391
140334
140352
140348
140207
140193
140182
139933
139925
139940
139830
139861
139874
139724
139678
139643
139732
139755
139755
139684
139680
139681
139704
139709
139691
139604
139617
139617
139448
139387
139425
139428
139481
139441
139301
139285
139309
139254
139281
139267
139118
139107
139102
138860
138853
138879
138855
138892
138850
138690
138664
138677
138438
138489
138512
138338
138284
138222
138121
138174
138189
138294
138307
138309
138185
138194
138198
138182
138203
138203
138063
138068
138053
137812
137765
137843
137809
137866
137805
137657
137632
137658
137578
137597
137568
137356
137358
137372
137040
137025
137027
136936
137005
136893
136470
136529
136663
136662
136642
136581
136581
136578
136599
136424
136507
136391
136529
136483
136499
136351
136356
136333
136327
136318
136304
136125
136148
136140
135840
135769
135810
135777
135843
135789
135548
135521
135558
135346
135374
135353
134901
134949
135018
134576
134444
134310
134642
134680
134688
134657
134650
134653
134457
134548
134479
134512
134502
134557
134289
134326
134325
134239
134255
134268
134010
134014
133994
133602
133586
133602
133560
133563
133535
133271
133256
133301
132471
132658
132668
132517
132410
132289
132339
132376
132431
132254
132312
132199
132407
132369
132380
132214
132206
132173
132163
132155
132135
131877
131898
131893
131430
131401
131417
131284
131326
131307
130962
130911
130949
130219
130148
129938
129712
129875
130021
129940
129863
129783
129771
129780
129810
129907
129943
129930
129790
129783
129777
129394
129390
129386
129292
129266
129244
128864
128881
128873
128114
128091
128162
127636
127452
127257
126853
127117
127315
127192
127111
126970
127054
126972
127089
127188
127279
127230
127081
127031
127039
126475
126551
126430
126187
126142
126155
125577
125503
125426
123727
124127
124461
124019
123827
123602
124312
124361
124355
124426
124421
124421
124248
124291
124254
123848
123581
123912
123333
123460
123357
122620
122381
122187
120538
121080
121482
121230
120939
120839
121741
121816
121698
121751
121729
121747
121414
121477
121444
120685
120484
120781
117818
118866
118912
119214
118927
118839
119343
119358
119452
119477
119407
119405
119137
119169
119278
118527
118159
117619
117321
117666
117950
117878
117979
117532
118865
118826
118814
118988
118755
118311
118071
118630
118940
119137
118981
118730
119633
119779
119784
120643
120534
120245
121384
121508
121535
122406
122431
122396
123113
123131
123110
123657
123667
123653
124106
124116
124112
124510
124512
124504
124859
124866
124865
125184
125183
125178
125467
125471
125472
125737
125735
125731
125974
125978
125980
126204
126202
126198
126405
126408
126411
126602
126599
126596
126773
126775
126778
126943
126940
126937
127090
127092
127096
127239
127235
127233
127367
127369
127372
127498
127494
127492
127610
127612
127615
127726
127723
127721
127826
127827
127830
127929
127926
127924
128017
128019
128021
128110
128107
128106
128189
128190
128193
128272
128270
128269
128344
128345
128347
128419
128417
128416
128484
128485
128486
128552
128550
128549
128610
128611
128613
128672
128670
128669
128725
128726
128727
128781
128780
128779
128830
128831
128832
128881
128880
128879
128925
128926
128927
128972
128971
128970
129012
129013
129014
129055
129054
129053
129092
129093
129093
129131
129130
129130
129165
129166
129166
129201
129200
129200
129232
129233
129233
129265
129264
129264
129294
129294
129294
129324
129323
129323
129350
129350
129350
129378
129377
129377
129402
129403
129402
129427
129427
129427
129450
129450
129450
129473
129473
129473
129494
129494
129494
129515
129515
129515
129534
129535
129534
129554
129554
129554
129572
129572
129572
129590
129590
129590
129606
129606
129606
129623
129623
129623
129638
129638
129638
129653
129654
129653
129667
129668
129667
129682
129682
129682
129695
129695
129694
129708
129708
129708
129720
129720
129719
129732
129732
129732
129743
129743
129743
129754
129754
129754
129764
129764
129764
129774
129775
129774
129784
129784
129784
129793
129793
129793
129802
129802
129802
129811
129811
129811
129819
129819
129819
129827
129827
129827
129834
129834
129834
129842
129842
129842
129849
129849
129849
129856
129856
129856
129862
129862
129862
129869
129869
129869
129875
129875
129874
129881
129881
129881
129886
129886
129886
129892
129892
129892
129897
129897
129896
129902
129902
129902
129906
129906
129906
129911
129911
129911
129916
129916
129915
129920
129920
129920
129924
129924
129924
129928
129928
129928
129932
129932
129932
129936
129936
129936
129939
129939
129939
129943
129943
129943
129946
129946
129946
129950
129949
129949
129952
129952
129952
129956
129955
129955
129958
129958
129958
129961
129961
129961
129963
129963
129963
129966
129966
129966
129968
129968
129968
129971
129971
129971
129973
129973
129973
129975
129975
129975
129977
129977
129977
129979
129979
129979
129981
129981
129981
129983
129983
129983
129984
129984
129984
129986
129986
129986
129988
129988
129988
129989
129989
129989
129991
129991
129991
129992
129992
129992
129993
129993
129993
129995
129995
129995
129996
129996
129996
129997
129997
129997
129998
129998
129998
129999
129999
129999
130000
130000
130000
130001
130001
130001
130002
130002
130002
130003
130003
130003
130004
130004
130004
130005
130005
130005
130005
130005
130005
130006
130006
130006
130007
130006
130006
130007
130007
130007
130008
130008
130007
130008
130008
130008
130008
130008
130008
130009
130009
130009
130009
130009
130009
130010
130010
130010
130010
130010
130010
130010
130010
130010
130010
130010
130010
130010
130010
130010
130010
130010
130010
130011
130011
130011
130011
130010
130010
130011
130011
130011
130011
130010
130010
130011
130011
130011
130010
130010
130010
130010
130010
130010
130010
130010
130010
130010
130010
130010
130010
130010
130010
130010
130010
130010
130009
130009
130009
130009
130009
130009
130009
130009
130008
130008
130008
130008
130008
130008
130008
130007
130007
130007
130007
130007
130007
130006
130006
130006
130006
130005
130005
130005
130005
130005
130004
130004
130004
130003
130003
130003
130002
130002
130002
130002
130002
130002
130000
130000
130000
129999
129999
129999
129998
129998
129998
129997
129997
129997
129996
129996
129996
129995
129995
129995
129993
129993
129993
129992
129992
129992
129991
129990
129990
129989
129989
129989
129988
129988
129988
129987
129987
129987
129985
129985
129985
129984
129984
129984
129982
129982
129982
129981
129981
129981
129980
129980
129979
129979
129979
129979
129978
129978
129978
129976
129976
129976
129972
129972
129973
129967
129967
129967
129964
129964
129962
129972
129973
129973
130003
130006
130006
130031
130026
130024
130040
130067
130036
130014
129986
130035
130070
130028
130003
130028
130055
130044
130028
130019
130014
130012
130011
130011
130012
130012
130012
130012
130013
130013
130013
130013
130012
130012
130011
130011
130010
130011
130011
130008
130009
130016
130020
130028
130036
130046
130057
130069
130081
130091
130098
130102
130105
130108
130113
130120
130127
130136
130146
130156
130168
130181
130195
130212
130230
130251
130274
130301
130332
130366
130406
130450
130501
130558
130622
130695
130776
130867
130969
131082
131208
131347
131501
131670
131855
132056
132273
132507
132758
133024
133306
133603
133913
134235
134567
134909
135258
135612
135971
136332
136694
137055
137415
137771
138122
138469
138809
139142
139468
139786
140095
140396
140688
140971
141244
141509
141765
142012
142250
142480
142701
142914
143119
143316
143505
143687
143862
144031
144192
144348
144497
144640
144778
144910
145037
145159
145276
145388
145496
145600
145700
145796
145888
145977
146062
146143
146222
146298
146370
146440
146507
146572
146634
146694
146751
146806
146860
146911
146960
147007
147053
147097
147139
147179
147219
147256
147292
147327
147360
147393
147424
147453
147482
147510
147536
147561
147586
147609
147632
147653
147674
147694
147713
147731
147749
147766
147782
147797
147811
147825
147838
147851
147863
147874
147885
147895
147904
147913
147921
147929
147936
147943
147949
147954
147959
147964
147968
147971
147977
147984
147992
147995
147995
147997
147985
147992
147993
148000
148008
148012
148016
148021
148025
148030
148036
148041
148047
148053
148060
148066
148074
148081
148089
148097
148106
148115
148124
148134
148144
148154
148164
148175
148186
148197
148208
148220
148231
148243
148255
148268
148280
148292
148305
148318
148330
148343
148356
148369
148381
148394
148407
148420
148432
148445
148458
148470
148483
148495
148507
148519
148531
148542
148554
148565
148576
148587
148597
148607
148617
148627
148636
148645
148654
148662
148670
148678
148685
148692
148698
148705
148711
148716
148721
148726
148730
148734
148735
148736
148738
148743
148752
148758
148761
148757
148755
148753
148751
148750
148749
148748
148748
148748
148748
148749
148750
148750
148752
148753
148755
148756
148759
148760
148763
148765
148768
148771
148774
148777
148780
148783
148787
148791
148795
148798
148803
148807
148812
148816
148822
148826
148832
148836
148842
148847
148854
148859
148866
148871
148878
148884
148891
148898
148905
148912
148920
148927
148935
148942
148951
148958
148967
148975
148984
148992
149002
149010
149020
149028
149038
149047
149057
149066
149077
149086
149096
149105
149116
149125
149135
149144
149154
149163
149173
149181
149191
149198
149207
149214
149222
149228
149235
149240
149246
149250
149254
149256
149259
149259
149261
149260
149259
149256
149254
149249
149245
149239
149234
149226
149220
149212
149205
149196
149189
149180
149172
149163
149155
149146
149139
149130
149123
149114
149108
149100
149094
149087
149082
149075
149071
149066
149062
149057
149054
149050
149047
149044
149042
149038
149037
149034
149033
149030
149029
149027
149026
149024
149023
149022
149021
149019
149019
149017
149017
149015
149015
149013
149013
149012
149011
149010
149010
149009
149008
149007
149007
149005
149005
149004
149003
149002
149002
149001
149002
149005
149003
149003
149004
149003
149001
149001
149002
149002
149002
149004
149003
149004
149005
149005
149005
149007
149006
149007
149008
149008
149008
149010
149009
149010
149012
149011
149012
149013
149013
149013
149015
149014
149015
149017
149016
149017
149019
149018
149019
149021
149020
149021
149023
149022
149024
149026
149025
149026
149029
149028
149030
149032
149031
149033
149036
149035
149037
149041
149039
149042
149046
149045
149048
149053
149051
149055
149060
149058
149064
149069
149067
149073
149080
149078
149084
149092
149090
149097
149105
149103
149111
149120
149118
149127
149136
149135
149143
149153
149152
149160
149170
149169
149177
149187
149187
149194
149204
149204
149210
149219
149220
149225
149233
149235
149238
149245
149248
149249
149254
149258
149257
149260
149263
149261
149262
149264
149261
149261
149263
149258
149257
149258
149251
149249
149250
149242
149239
149239
149230
149226
149225
149216
149211
149210
149201
149194
149193
149183
149177
149175
149165
149158
149156
149146
149139
149137
149127
149120
149117
149107
149100
149097
149088
149080
149078
149068
149061
149058
149049
149042
149039
149030
149023
149021
149012
149005
149002
148994
148987
148985
148976
148970
148968
148960
148954
148952
148944
148938
148936
148928
148923
148921
148913
148908
148906
148899
148894
148892
148885
148881
148879
148873
148868
148867
148860
148856
148855
148849
148845
148844
148838
148834
148833
148827
148824
148823
148817
148814
148813
148808
148805
148805
148800
148797
148796
148792
148789
148789
148784
148782
148782
148778
148776
148776
148771
148770
148770
148766
148765
148765
148761
148760
148760
148757
148756
148757
148754
148753
148754
148751
148751
148751
148749
148749
148750
148749
148749
148749
148749
148750
148749
148750
148751
148750
148752
148754
148752
148756
148746
148748
148749
148749
148751
148753
148755
148758
148762
148767
148772
148777
148784
148791
148798
148806
148815
148824
148834
148845
148856
148868
148880
148894
148907
148922
148937
148952
148969
148985
149003
149021
149040
149059
149078
149098
149118
149138
149158
149178
149196
149214
149231
149245
149257
149266
149272
149273
149272
149266
149254
149239
149223
149205
149186
149168
149149
149131
149114
149099
149085
149073
149063
149055
149048
149042
149037
149033
149030
149027
149024
149022
149020
149018
149016
149014
149013
149011
149010
149008
149007
149005
149004
149003
149002
149002
149001
149002
149002
149000
149002
149000
149001
149001
149001
149000
149001
149002
149003
149004
149005
149006
149008
149009
149011
149012
149014
149015
149017
149018
149020
149022
149021
149019
149018
149016
149015
149013
149012
149010
149009
149008
149006
149005
149004
149003
149002
149001
149001
149000
149001
149001
149000
149001
149001
149002
149003
149004
149004
149003
149002
149001
149000
149001
149002
149000
149000
149001
149001
149001
149002
149003
149005
149005
149005