/*--------------------------------*- C++ -*----------------------------------*\
| =========                 |                                                 |
| \\      /  F ield         | OpenFOAM: The Open Source CFD Toolbox           |
|  \\    /   O peration     | Version:  v2006                                 |
|   \\  /    A nd           | Website:  www.openfoam.com                      |
|    \\/     M anipulation  |                                                 |
\*---------------------------------------------------------------------------*/
FoamFile
{
    version     2.0;
    format      ascii;
    class       surfaceScalarField;
    location    "0.028";
    object      phi;
}
// * * * * * * * * * * * * * * * * * * * * * * * * * * * * * * * * * * * * * //

dimensions      [1 0 -1 0 0 0 0];
oriented        oriented;


internalField   nonuniform List<scalar> 
32242
(
-2.61442e-05
-0.00135328
0.00133401
4.54984e-05
-0.00126906
0.00124286
8.34198e-06
7.76459e-05
-3.48861e-06
0.00146163
3.80061e-05
0.00159861
-3.2867e-05
0.00165004
-3.64676e-06
0.00169006
-1.63405e-05
0.00168278
-2.30697e-06
0.00167877
-2.4102e-06
0.00166823
-4.31546e-07
0.00166133
-1.00159e-06
0.00165551
-1.14127e-06
0.00165184
-1.26902e-06
0.00164848
-1.47119e-06
0.00164566
-1.50353e-06
0.00164259
-1.61365e-06
0.00163965
-1.7196e-06
0.0016365
-1.82133e-06
0.00163322
-1.91888e-06
0.0016298
-2.01247e-06
0.00162625
-2.10247e-06
0.00162257
-2.18931e-06
0.00161876
-2.27337e-06
0.00161483
-2.35496e-06
0.00161077
-2.43428e-06
0.0016066
-2.51145e-06
0.00160229
-2.58652e-06
0.00159787
-2.65947e-06
0.00159334
-2.73025e-06
0.00158869
-2.79877e-06
0.00158393
-2.86492e-06
0.00157906
-2.92858e-06
0.00157409
-2.98962e-06
0.00156902
-3.04791e-06
0.00156385
-3.10329e-06
0.0015586
-3.15565e-06
0.00155326
-3.20484e-06
0.00154784
-3.25075e-06
0.00154234
-3.29324e-06
0.00153678
-3.3322e-06
0.00153114
-3.36749e-06
0.00152545
-3.39904e-06
0.00151971
-3.4267e-06
0.00151392
-3.4504e-06
0.00150809
-3.47002e-06
0.00150222
-3.4855e-06
0.00149633
-3.49673e-06
0.00149041
-3.50363e-06
0.00148448
-3.50616e-06
0.00147853
-3.50424e-06
0.00147259
-3.49784e-06
0.00146665
-3.48696e-06
0.00146072
-3.4718e-06
0.00145481
-3.45171e-06
0.00144893
-3.42665e-06
0.00144308
-3.39646e-06
0.00143727
-3.36023e-06
0.0014315
-3.32009e-06
0.0014258
-3.27553e-06
0.00142015
-3.22681e-06
0.00141457
-3.1734e-06
0.00140907
-3.11533e-06
0.00140366
-3.05262e-06
0.00139833
-2.9852e-06
0.0013931
-2.91311e-06
0.00138798
-2.83628e-06
0.00138297
-2.75458e-06
0.00137807
-2.6678e-06
0.0013733
-2.5757e-06
0.00136866
-2.47791e-06
0.00136415
-2.37412e-06
0.00135979
-2.26409e-06
0.00135558
-2.1477e-06
0.00135152
-2.02467e-06
0.00134762
-1.8938e-06
0.00134388
-1.75162e-06
0.00134028
-9.23115e-07
0.00133609
-1.40028e-06
0.00133263
-1.17013e-06
0.00132654
-2.89319e-06
0.00131794
-4.61172e-06
0.00130582
-1.96061e-05
0.00128538
-3.00593e-05
0.00125951
-8.35222e-05
0.00122324
-0.000143003
0.00120116
-0.000328103
0.0012128
-0.000735299
0.00140012
-0.000202316
0.000360755
2.04075e-05
0.000598809
4.44111e-06
0.000785446
-3.85514e-05
0.000695187
-1.24785e-05
0.000609248
-7.50003e-06
0.000220269
-4.57567e-06
0.0001834
0.000148253
8.51632e-06
0.000139737
1.73266e-05
0.00017459
0.000210686
2.69101e-05
-1.36129e-05
0.000203467
2.08318e-05
-6.79723e-06
0.000167774
0.000132939
2.50183e-06
0.000130438
4.12325e-06
0.000166153
0.000202233
5.35699e-06
-4.6465e-06
0.000200151
6.72906e-06
-2.86846e-06
0.000164375
0.000127569
1.5454e-06
0.000126024
2.02689e-06
0.000163894
0.000200037
2.14169e-06
-4.4543e-06
0.000198475
6.01614e-06
-2.59762e-06
0.000162038
0.000123427
1.26809e-06
0.000122159
1.14591e-06
0.00016216
0.000198241
1.38069e-06
-3.62375e-06
0.000197259
4.60593e-06
-1.77447e-06
0.000160311
0.000120385
4.71902e-07
0.000119913
3.54972e-07
0.000160428
0.00019762
-5.37719e-09
-2.83456e-06
0.000195923
4.5319e-06
-1.60493e-06
0.000159199
0.000118309
3.42447e-07
0.000117966
2.40084e-07
0.000159302
0.000196223
-5.98082e-08
-2.71402e-06
0.000195138
3.79958e-06
-1.47988e-06
0.000158068
0.000116487
2.51008e-07
0.000116236
1.4806e-07
0.000158172
0.000195405
-1.18143e-07
-2.62069e-06
0.000194289
3.73735e-06
-1.38676e-06
0.000156938
0.00011485
1.83357e-07
0.000114667
8.31679e-08
0.000157039
0.000194525
-1.52459e-07
-2.5468e-06
0.000193386
3.68679e-06
-1.31577e-06
0.000155809
0.000113352
1.32224e-07
0.00011322
2.7625e-08
0.000155914
0.000193601
-1.86914e-07
-2.48388e-06
0.000192447
3.63955e-06
-1.26009e-06
0.000154691
0.000111961
9.25305e-08
0.000111869
-1.25975e-08
0.000154797
0.000192643
-2.08696e-07
-2.43447e-06
0.000191477
3.60167e-06
-1.2191e-06
0.000153582
0.00011065
6.11782e-08
0.00011059
-4.26758e-08
0.000153687
0.000191657
-2.22035e-07
-2.39441e-06
0.000190478
3.57517e-06
-1.18577e-06
0.000152479
0.000109405
3.86957e-08
0.000109367
-6.15485e-08
0.00015258
0.000190644
-2.27065e-07
-2.36445e-06
0.000189452
3.55707e-06
-1.15863e-06
0.000151375
0.000108209
2.28632e-08
0.000108186
-7.44885e-08
0.000151473
0.000189605
-2.25814e-07
-2.34049e-06
0.000188402
3.54446e-06
-1.13652e-06
0.00015027
0.00010705
1.16285e-08
0.00010704
-8.10807e-08
0.000150363
0.000188539
-2.17805e-07
-2.32227e-06
0.000187325
3.53777e-06
-1.11865e-06
0.000149161
0.000105922
4.37927e-09
0.000105918
-8.17443e-08
0.000149248
0.000187447
-2.02855e-07
-2.3094e-06
0.00018622
3.53713e-06
-1.10446e-06
0.000148043
0.000104814
4.19849e-10
0.000104815
-7.73461e-08
0.000148122
0.000186326
-1.81815e-07
-2.301e-06
0.000185086
3.54174e-06
-1.09331e-06
0.000146915
0.000103722
-1.1351e-09
0.000103724
-6.89274e-08
0.000146984
0.000185174
-1.55953e-07
-2.29625e-06
0.000183921
3.55068e-06
-1.08473e-06
0.000145773
0.00010264
-4.51486e-10
0.000102641
-5.70924e-08
0.000145831
0.000183991
-1.25858e-07
-2.29444e-06
0.000182723
3.56331e-06
-1.07799e-06
0.000144615
0.000101564
1.93173e-09
0.000101562
-4.21226e-08
0.00014466
0.000182773
-9.1627e-08
-2.29545e-06
0.00018149
3.57965e-06
-1.07296e-06
0.000143438
0.00010049
6.0642e-09
0.000100485
-2.38499e-08
0.000143469
0.00018152
-5.27742e-08
-2.29941e-06
0.00018022
3.60017e-06
-1.06966e-06
0.00014224
9.94156e-05
1.15734e-08
9.94047e-05
-3.13005e-09
0.000142256
0.000180229
-1.06917e-08
-2.3052e-06
0.000178912
3.62293e-06
-1.06762e-06
0.000141019
9.83377e-05
1.93485e-08
9.8319e-05
2.1647e-08
0.000141017
0.000178896
3.79782e-08
-2.31293e-06
0.000177562
3.64783e-06
-1.06669e-06
0.000139772
9.72529e-05
2.86497e-08
9.72249e-05
4.9371e-08
0.000139752
0.000177521
9.10315e-08
-2.32321e-06
0.000176169
3.67635e-06
-1.06711e-06
0.000138496
9.61584e-05
3.93961e-08
9.61195e-05
7.99694e-08
0.000138456
0.000176102
1.48284e-07
-2.336e-06
0.00017473
3.7085e-06
-1.06884e-06
0.00013719
9.50513e-05
5.16182e-08
9.50002e-05
1.13507e-07
0.000137129
0.000174634
2.0994e-07
-2.35115e-06
0.000173242
3.7441e-06
-1.07181e-06
0.00013585
9.39289e-05
6.52734e-08
9.38641e-05
1.49914e-07
0.000135766
0.000173117
2.75968e-07
-2.36853e-06
0.000171703
3.78295e-06
-1.07593e-06
0.000134474
9.27887e-05
8.02892e-08
9.27088e-05
1.89073e-07
0.000134366
0.000171546
3.4624e-07
-2.38795e-06
0.00017011
3.82482e-06
-1.0811e-06
0.000133059
9.16282e-05
9.65689e-08
9.1532e-05
2.3081e-07
0.000132925
0.000169921
4.20529e-07
-2.40919e-06
0.000168461
3.86937e-06
-1.0872e-06
0.000131604
9.04452e-05
1.13995e-07
9.03315e-05
2.74905e-07
0.000131443
0.000168238
4.98519e-07
-2.43198e-06
0.000166754
3.91622e-06
-1.09408e-06
0.000130106
8.92378e-05
1.32439e-07
8.91056e-05
3.21113e-07
0.000129918
0.000166496
5.79758e-07
-2.45585e-06
0.000164988
3.96472e-06
-1.10153e-06
0.000128564
8.80044e-05
1.51666e-07
8.78529e-05
3.68966e-07
0.000128347
0.000164693
6.63584e-07
-2.48037e-06
0.00016316
4.01419e-06
-1.10932e-06
0.000126976
8.67437e-05
1.71409e-07
8.65725e-05
4.17901e-07
0.000126729
0.000162829
7.49115e-07
-2.50474e-06
0.00016127
4.06345e-06
-1.11707e-06
0.000125342
8.54555e-05
1.91198e-07
8.52643e-05
4.66979e-07
0.000125066
0.000160902
8.34948e-07
-2.52791e-06
0.000159319
4.11089e-06
-1.12422e-06
0.000123662
8.41401e-05
2.10392e-07
8.39297e-05
5.14937e-07
0.000123358
0.000158915
9.19126e-07
-2.54862e-06
0.000157309
4.15448e-06
-1.13026e-06
0.00012194
8.27994e-05
2.28487e-07
8.25709e-05
5.6046e-07
0.000121608
0.00015687
9.99447e-07
-2.56551e-06
0.000155244
4.19197e-06
-1.13459e-06
0.000120177
8.14362e-05
2.44723e-07
8.11914e-05
6.01949e-07
0.000119819
0.000154772
1.07336e-06
-2.57689e-06
0.000153128
4.22069e-06
-1.13641e-06
0.000118379
8.00548e-05
2.58183e-07
7.97963e-05
6.37434e-07
0.000117999
0.000152628
1.13773e-06
-2.58069e-06
0.000150971
4.23731e-06
-1.13477e-06
0.000116553
7.86613e-05
2.67735e-07
7.83932e-05
6.64442e-07
0.000116156
0.000150446
1.18858e-06
-2.57432e-06
0.000148782
4.23767e-06
-1.1285e-06
0.000114709
7.72644e-05
2.71974e-07
7.6992e-05
6.7989e-07
0.000114301
0.000148241
1.22098e-06
-2.55459e-06
0.000146578
4.21667e-06
-1.1162e-06
0.000112862
7.58755e-05
2.69207e-07
7.5606e-05
6.80023e-07
0.000112451
0.000146029
1.22891e-06
-2.51779e-06
0.000144378
4.16828e-06
-1.09617e-06
0.000111029
7.45096e-05
2.57467e-07
7.42519e-05
6.60545e-07
0.000110626
0.000143833
1.2054e-06
-2.45972e-06
0.000142207
4.08559e-06
-1.06651e-06
0.000109232
7.31852e-05
2.34523e-07
7.29504e-05
6.16572e-07
0.00010885
0.000141681
1.14241e-06
-2.37552e-06
0.000140095
3.96065e-06
-1.02509e-06
0.0001075
7.19251e-05
1.97811e-07
7.17271e-05
5.42355e-07
0.000107155
0.000139607
1.03059e-06
-2.25977e-06
0.000138082
3.78457e-06
-9.69561e-07
0.000105864
7.07572e-05
1.44486e-07
7.06125e-05
4.316e-07
0.000105577
0.000137653
8.59526e-07
-2.10721e-06
0.000136212
3.54861e-06
-8.97665e-07
0.000104367
6.97146e-05
7.23632e-08
6.96419e-05
2.79286e-07
0.00010416
0.00013587
6.20916e-07
-1.91343e-06
0.000134537
3.24637e-06
-8.05891e-07
0.000103052
6.88358e-05
-2.27635e-08
6.88583e-05
7.8643e-08
0.00010295
0.000134311
3.03697e-07
-1.66905e-06
0.000133113
2.86717e-06
-6.87736e-07
0.000101969
6.81704e-05
-1.4616e-07
6.83163e-05
-1.78629e-07
0.000102001
0.000133033
-9.931e-08
-1.38062e-06
0.000132009
2.40475e-06
-5.54141e-07
0.000101174
6.7762e-05
-2.83027e-07
6.80448e-05
-4.76007e-07
0.000101367
0.000132105
-5.72143e-07
-1.05765e-06
0.000131279
1.88329e-06
-4.07037e-07
0.000100717
6.76376e-05
-4.3392e-07
6.80714e-05
-8.08111e-07
0.000101091
0.000131578
-1.1067e-06
-7.18164e-07
0.000130964
1.33214e-06
-2.54526e-07
0.000100627
6.78168e-05
-5.89198e-07
6.84059e-05
-1.15558e-06
0.000101193
0.000131481
-1.67259e-06
-3.75823e-07
0.000131087
7.70032e-07
-1.02675e-07
0.00010092
6.83032e-05
-7.33144e-07
6.90364e-05
-1.48285e-06
0.00010167
0.000131817
-2.2131e-06
-4.29007e-08
0.000131635
2.24733e-07
4.92237e-08
0.000101578
6.90857e-05
-8.9307e-07
6.99789e-05
-1.8438e-06
0.000102529
0.000132601
-2.80914e-06
2.97639e-07
0.000132642
-3.38583e-07
1.98823e-07
0.000102628
7.01779e-05
-1.05213e-06
7.12303e-05
-2.19689e-06
0.000103773
0.000133842
-3.39655e-06
5.38842e-07
0.000134068
-7.65071e-07
2.88739e-07
0.000104023
7.15193e-05
-1.14108e-06
7.26607e-05
-2.42557e-06
0.000105308
0.000135445
-3.80172e-06
6.92754e-07
0.000135804
-1.0516e-06
3.41448e-07
0.000105659
7.30025e-05
-1.1871e-06
7.41899e-05
-2.56371e-06
0.000107036
0.000137303
-4.06208e-06
7.66761e-07
0.00013775
-1.21333e-06
3.57052e-07
0.000107447
7.45474e-05
-1.20618e-06
7.5754e-05
-2.64103e-06
0.000108882
0.000139334
-4.2249e-06
7.86048e-07
0.000139835
-1.28588e-06
3.49013e-07
0.00010932
7.61035e-05
-1.20245e-06
7.73066e-05
-2.66566e-06
0.000110784
0.000141471
-4.30101e-06
7.55277e-07
0.000141992
-1.2749e-06
3.19801e-07
0.00011122
7.76271e-05
-1.17702e-06
7.8805e-05
-2.64039e-06
0.000112684
0.000143646
-4.29371e-06
6.79786e-07
0.000144156
-1.18836e-06
2.71517e-07
0.000113094
7.90774e-05
-1.13347e-06
8.02119e-05
-2.572e-06
0.000114533
0.000145798
-4.21294e-06
5.67669e-07
0.000146271
-1.03824e-06
2.08529e-07
0.000114894
8.04216e-05
-1.07585e-06
8.14987e-05
-2.46874e-06
0.000116288
0.000147875
-4.07141e-06
4.27406e-07
0.000148287
-8.3755e-07
1.34784e-07
0.000116582
8.16349e-05
-1.00774e-06
8.26442e-05
-2.33842e-06
0.000117915
0.000149832
-3.8811e-06
2.66967e-07
0.000150166
-5.99019e-07
5.441e-08
0.000118129
8.27002e-05
-9.348e-07
8.36367e-05
-2.189e-06
0.000119385
0.000151634
-3.65476e-06
9.47618e-08
0.000151877
-3.35339e-07
-2.78486e-08
0.00011951
8.36106e-05
-8.62249e-07
8.44747e-05
-2.03058e-06
0.000120681
0.000153255
-3.40603e-06
-8.12194e-08
0.000153397
-5.84464e-08
-1.09119e-07
0.000120711
8.43674e-05
-7.8744e-07
8.51568e-05
-1.86886e-06
0.000121794
0.00015468
-3.14847e-06
-2.51512e-07
0.000154722
2.11755e-07
-1.87367e-07
0.000121732
8.49713e-05
-7.15313e-07
8.56886e-05
-1.7102e-06
0.00012273
0.000155906
-2.8919e-06
-4.13149e-07
0.00015585
4.7252e-07
-2.60023e-07
0.000122579
8.54306e-05
-6.49098e-07
8.60818e-05
-1.56146e-06
0.000123494
0.000156939
-2.6478e-06
-5.6067e-07
0.000156788
7.14817e-07
-3.24527e-07
0.00012326
8.57595e-05
-5.90545e-07
8.63524e-05
-1.42681e-06
0.000124099
0.000157788
-2.42345e-06
-6.88581e-07
0.000157551
9.2843e-07
-3.78615e-07
0.000123792
8.59762e-05
-5.42167e-07
8.6521e-05
-1.31198e-06
0.000124565
0.000158472
-2.22891e-06
-7.95732e-07
0.00015816
1.11084e-06
-4.22202e-07
0.000124194
8.61014e-05
-5.03683e-07
8.66077e-05
-1.2172e-06
0.000124911
0.000159012
-2.06549e-06
-8.82619e-07
0.000158637
1.26199e-06
-4.55968e-07
0.000124487
8.61544e-05
-4.74167e-07
8.66312e-05
-1.14129e-06
0.000125158
0.000159431
-1.93195e-06
-9.50853e-07
0.000159002
1.38361e-06
-4.81048e-07
0.000124691
8.61527e-05
-4.52303e-07
8.66075e-05
-1.08202e-06
0.000125324
0.000159749
-1.82533e-06
-1.00322e-06
0.000159276
1.47949e-06
-4.99075e-07
0.000124822
8.61109e-05
-4.36476e-07
8.65498e-05
-1.03658e-06
0.000125425
0.000159984
-1.74148e-06
-1.04282e-06
0.000159476
1.55422e-06
-5.11729e-07
0.000124897
8.60404e-05
-4.24202e-07
8.6467e-05
-9.99991e-07
0.000125476
0.000160152
-1.67211e-06
-1.06939e-06
0.000159618
1.60657e-06
-5.18924e-07
0.000124928
8.59504e-05
-4.16609e-07
8.63693e-05
-9.7455e-07
0.000125489
0.000160268
-1.62148e-06
-1.08892e-06
0.000159714
1.6468e-06
-5.23573e-07
0.000124927
8.58481e-05
-4.11236e-07
8.62616e-05
-9.55364e-07
0.000125473
0.000160345
-1.58334e-06
-1.10156e-06
0.000159774
1.676e-06
-5.25754e-07
0.0001249
8.5738e-05
-4.06552e-07
8.61467e-05
-9.42443e-07
0.000125439
0.000160393
-1.55753e-06
-1.11022e-06
0.000159807
1.69935e-06
-5.24866e-07
0.000124856
8.56239e-05
-4.03918e-07
8.60298e-05
-9.33529e-07
0.000125388
0.000160414
-1.5378e-06
-1.11574e-06
0.000159817
1.71572e-06
-5.23372e-07
0.000124798
8.55084e-05
-4.03294e-07
8.59134e-05
-9.28119e-07
0.000125325
0.000160416
-1.52411e-06
-1.11914e-06
0.00015981
1.7273e-06
-5.22096e-07
0.00012473
8.5393e-05
-4.03585e-07
8.57983e-05
-9.24811e-07
0.000125254
0.000160402
-1.51451e-06
-1.12091e-06
0.00015979
1.73514e-06
-5.20886e-07
0.000124656
8.52789e-05
-4.04032e-07
8.56845e-05
-9.22878e-07
0.000125176
0.000160378
-1.50807e-06
-1.12116e-06
0.000159761
1.73982e-06
-5.19338e-07
0.000124576
8.51666e-05
-4.04868e-07
8.55729e-05
-9.22459e-07
0.000125096
0.000160346
-1.50464e-06
-1.11991e-06
0.000159726
1.74146e-06
-5.17439e-07
0.000124495
8.50567e-05
-4.06261e-07
8.54642e-05
-9.23778e-07
0.000125014
0.000160309
-1.50451e-06
-1.1165e-06
0.000159688
1.73918e-06
-5.14776e-07
0.000124413
8.49505e-05
-4.08954e-07
8.53604e-05
-9.28095e-07
0.000124934
0.00016027
-1.5094e-06
-1.10923e-06
0.00015965
1.73032e-06
-5.10498e-07
0.000124336
8.48508e-05
-4.13783e-07
8.52654e-05
-9.37574e-07
0.00012486
0.000160238
-1.52411e-06
-1.09834e-06
0.000159633
1.70412e-06
-5.05727e-07
0.000124269
8.47603e-05
-4.22504e-07
8.51833e-05
-9.64051e-07
0.000124811
0.000160784
-2.1139e-06
-5.21477e-07
0.000159684
1.62219e-06
-4.59013e-07
0.000124749
8.47248e-05
-9.33101e-07
8.56584e-05
-1.57144e-06
0.000125388
0.000161432
-3.31887e-06
1.73467e-07
0.000161502
-2.42943e-07
7.84385e-08
0.000125483
8.57372e-05
-1.67195e-06
8.74095e-05
-4.55852e-06
0.00012837
0.000164044
-7.10104e-06
6.13468e-06
0.000168365
-1.04554e-05
2.97706e-06
0.000131528
9.03867e-05
-8.65831e-06
9.9045e-05
-1.96744e-05
0.000142544
0.000181953
-3.32617e-05
4.32943e-05
0.000211479
-7.28205e-05
1.94539e-05
0.000166385
0.000118499
3.93374e-05
9.49771e-05
0.000165958
3.99677e-05
-0.000288166
-5.72816e-05
-0.000326038
-6.18031e-05
-0.000510391
-2.49786e-05
-0.000550394
-1.59412e-05
-0.000576984
-3.12081e-06
-0.000579679
-2.56532e-06
-0.000584621
-2.05544e-07
-0.000585105
-8.05978e-07
-0.0005858
9.62691e-07
-0.000585267
1.54705e-06
-0.000583047
5.07251e-06
-0.000576992
9.77849e-06
-0.000568937
2.14725e-05
-0.000554884
3.83953e-05
-0.000540866
8.52422e-05
-0.000536073
0.000189253
-0.000544807
8.52832e-05
-0.000335937
4.86858e-05
-0.000332996
2.7209e-05
-0.000323212
2.7236e-05
-0.000275588
7.96694e-06
-0.00023718
4.51187e-06
-8.3547e-05
1.84555e-06
-5.64697e-05
-3.04996e-05
-2.26287e-06
-2.82336e-05
-5.94896e-06
-5.27826e-05
-7.84155e-05
-1.10828e-05
4.12148e-06
-7.53475e-05
-7.08485e-06
1.46625e-06
-5.01384e-05
-2.68229e-05
-9.38027e-07
-2.58448e-05
-1.67911e-06
-4.93887e-05
-7.35732e-05
-3.53244e-06
7.22976e-07
-7.29231e-05
-1.31731e-06
1.88479e-07
-4.88599e-05
-2.5684e-05
-4.19416e-07
-2.52448e-05
-5.37822e-07
-4.8737e-05
-7.2323e-05
-1.17359e-06
5.38767e-07
-7.27607e-05
-8.43595e-08
7.57099e-08
-4.82771e-05
-2.51776e-05
-4.11489e-09
-2.51724e-05
-2.58867e-08
-4.82551e-05
-7.27673e-05
-2.28572e-08
-2.05621e-08
-7.2784e-05
3.81535e-08
-1.00988e-08
-4.82658e-05
-2.51833e-05
1.80979e-08
-2.52011e-05
3.84273e-08
-4.8286e-05
-7.28042e-05
5.83021e-08
-5.42219e-08
-7.28374e-05
8.92416e-08
-2.46738e-08
-4.83153e-05
-2.52265e-05
2.46619e-08
-2.52501e-05
5.36158e-08
-4.83437e-05
-7.28656e-05
8.07555e-08
-6.09924e-08
-7.2902e-05
9.92406e-08
-2.74772e-08
-4.83771e-05
-2.52782e-05
2.81343e-08
-2.53055e-05
6.12905e-08
-4.84101e-05
-7.29352e-05
9.29146e-08
-6.77081e-08
-7.29767e-05
1.11182e-07
-3.04635e-08
-4.84475e-05
-2.53371e-05
2.98607e-08
-2.53657e-05
6.52448e-08
-4.84825e-05
-7.30125e-05
9.92682e-08
-6.7931e-08
-7.3053e-05
1.10944e-07
-3.03743e-08
-4.852e-05
-2.53971e-05
3.16511e-08
-2.54275e-05
6.88683e-08
-4.85568e-05
-7.30905e-05
1.04563e-07
-7.35029e-08
-7.31349e-05
1.20478e-07
-3.3107e-08
-4.85972e-05
-2.54617e-05
3.23571e-08
-2.54927e-05
7.05952e-08
-4.86349e-05
-7.31739e-05
1.07551e-07
-7.21632e-08
-7.32167e-05
1.1774e-07
-3.23216e-08
-4.86748e-05
-2.55261e-05
3.31367e-08
-2.55584e-05
7.27895e-08
-4.87141e-05
-7.32556e-05
1.10622e-07
-7.9064e-08
-7.33021e-05
1.25114e-07
-3.64857e-08
-4.87564e-05
-2.55942e-05
3.64203e-08
-2.56271e-05
7.73014e-08
-4.87961e-05
-7.33422e-05
1.11414e-07
-8.26942e-08
-7.33876e-05
1.20416e-07
-3.97577e-08
-4.88377e-05
-2.5662e-05
3.78843e-08
-2.56959e-05
7.98972e-08
-4.88784e-05
-7.3429e-05
1.14947e-07
-8.39651e-08
-7.34785e-05
1.30372e-07
-3.96132e-08
-4.8922e-05
-2.57334e-05
3.38396e-08
-2.57681e-05
7.49281e-08
-4.8963e-05
-7.35209e-05
1.20278e-07
-8.05716e-08
-7.35683e-05
1.27389e-07
-3.71028e-08
-4.9006e-05
-2.58045e-05
3.47512e-08
-2.58403e-05
7.71819e-08
-4.90484e-05
-7.36107e-05
1.22618e-07
-8.61439e-08
-7.36614e-05
1.34012e-07
-4.02486e-08
-4.90935e-05
-2.58785e-05
3.49454e-08
-2.59145e-05
7.76793e-08
-4.91361e-05
-7.37047e-05
1.24108e-07
-8.44194e-08
-7.37538e-05
1.30656e-07
-3.93914e-08
-4.91804e-05
-2.59519e-05
3.59141e-08
-2.59889e-05
7.96865e-08
-4.92241e-05
-7.37978e-05
1.27149e-07
-8.87571e-08
-7.38501e-05
1.38169e-07
-4.14935e-08
-4.92705e-05
-2.60283e-05
3.60063e-08
-2.60654e-05
8.01954e-08
-4.93146e-05
-7.38951e-05
1.28784e-07
-8.70895e-08
-7.3946e-05
1.35016e-07
-4.05407e-08
-4.93603e-05
-2.61037e-05
3.70098e-08
-2.61419e-05
8.22625e-08
-4.94053e-05
-7.39919e-05
1.31931e-07
-9.13036e-08
-7.4046e-05
1.42506e-07
-4.26021e-08
-4.94531e-05
-2.61822e-05
3.70125e-08
-2.62204e-05
8.26932e-08
-4.94986e-05
-7.40931e-05
1.33668e-07
-8.96448e-08
-7.41462e-05
1.39632e-07
-4.15216e-08
-4.95458e-05
-2.62596e-05
3.79032e-08
-2.62987e-05
8.47522e-08
-4.95925e-05
-7.41947e-05
1.37082e-07
-9.37093e-08
-7.42514e-05
1.47265e-07
-4.34209e-08
-4.96418e-05
-2.63398e-05
3.76696e-08
-2.63787e-05
8.50197e-08
-4.96889e-05
-7.43012e-05
1.39026e-07
-9.20714e-08
-7.43571e-05
1.44694e-07
-4.22333e-08
-4.97378e-05
-2.64184e-05
3.83558e-08
-2.6458e-05
8.70341e-08
-4.97861e-05
-7.44086e-05
1.42832e-07
-9.58752e-08
-7.44684e-05
1.52431e-07
-4.3797e-08
-4.98371e-05
-2.64992e-05
3.77891e-08
-2.65382e-05
8.70549e-08
-4.98861e-05
-7.45216e-05
1.44784e-07
-9.4073e-08
-7.45809e-05
1.50079e-07
-4.22621e-08
-4.99367e-05
-2.65777e-05
3.81244e-08
-2.6617e-05
8.88862e-08
-4.99871e-05
-7.46364e-05
1.48953e-07
-9.75911e-08
-7.47003e-05
1.58087e-07
-4.33907e-08
-5.00402e-05
-2.66577e-05
3.71948e-08
-2.66963e-05
8.88566e-08
-5.00916e-05
-7.47584e-05
1.51554e-07
-9.59571e-08
-7.48231e-05
1.57109e-07
-4.15768e-08
-5.01451e-05
-2.67352e-05
3.73004e-08
-2.6774e-05
9.10369e-08
-5.01986e-05
-7.48848e-05
1.57167e-07
-9.97349e-08
-7.4955e-05
1.66359e-07
-4.23397e-08
-5.02552e-05
-2.68137e-05
3.61272e-08
-2.68513e-05
9.15661e-08
-5.03105e-05
-7.50203e-05
1.61505e-07
-9.89039e-08
-7.50925e-05
1.67907e-07
-4.03042e-08
-5.0368e-05
-2.68891e-05
3.61051e-08
-2.69265e-05
9.44548e-08
-5.04262e-05
-7.5163e-05
1.69186e-07
-1.0297e-07
-7.52419e-05
1.78808e-07
-4.05986e-08
-5.04876e-05
-2.69646e-05
3.46481e-08
-2.70007e-05
9.55215e-08
-5.05483e-05
-7.53175e-05
1.75329e-07
-1.02789e-07
-7.54007e-05
1.82866e-07
-3.82162e-08
-5.0612e-05
-2.70366e-05
3.41086e-08
-2.70719e-05
9.92702e-08
-5.06771e-05
-7.54834e-05
1.85324e-07
-1.06407e-07
-7.55753e-05
1.96211e-07
-3.71343e-08
-5.07457e-05
-2.71075e-05
2.96527e-08
-2.71402e-05
9.78354e-08
-5.08142e-05
-7.56652e-05
1.95003e-07
-1.00438e-07
-7.57627e-05
2.06934e-07
-2.87914e-08
-5.08863e-05
-2.71731e-05
2.57093e-08
-2.72042e-05
9.87224e-08
-5.09601e-05
-7.58613e-05
2.09427e-07
-1.07354e-07
-7.59682e-05
2.22653e-07
-2.86599e-08
-5.10389e-05
-2.7236e-05
2.93188e-08
-2.72643e-05
1.0999e-07
-5.11186e-05
-7.60762e-05
2.18045e-07
-1.15385e-07
-7.61929e-05
2.33577e-07
-2.99317e-08
-5.12033e-05
-2.72938e-05
3.0461e-08
-2.73218e-05
1.20041e-07
-5.12917e-05
-7.63144e-05
2.38392e-07
-1.24308e-07
-7.64457e-05
2.59502e-07
-2.92483e-08
-5.13865e-05
-2.73522e-05
2.98925e-08
-2.738e-05
1.28883e-07
-5.14845e-05
-7.65807e-05
2.61157e-07
-1.35202e-07
-7.67255e-05
2.83722e-07
-2.97119e-08
-5.15896e-05
-2.74106e-05
3.32049e-08
-2.74413e-05
1.45617e-07
-5.17008e-05
-7.68771e-05
2.94454e-07
-1.55447e-07
-7.70403e-05
3.2291e-07
-3.47011e-08
-5.18209e-05
-2.74769e-05
3.90786e-08
-2.75132e-05
1.66815e-07
-5.19471e-05
-7.72097e-05
3.33447e-07
-1.80062e-07
-7.73916e-05
3.66604e-07
-4.229e-08
-5.20843e-05
-2.75563e-05
5.1214e-08
-2.76044e-05
1.99778e-07
-5.22315e-05
-7.75838e-05
3.87829e-07
-2.17574e-07
-7.77898e-05
4.28848e-07
-5.71006e-08
-5.23919e-05
-2.76634e-05
6.96351e-08
-2.77294e-05
2.42319e-07
-5.25635e-05
-7.80065e-05
4.52855e-07
-2.65415e-07
-7.82376e-05
5.03123e-07
-7.83151e-08
-5.27509e-05
-2.78107e-05
9.83946e-08
-2.79045e-05
3.02641e-07
-5.29539e-05
-7.84835e-05
5.40504e-07
-3.31882e-07
-7.87447e-05
6.01399e-07
-1.11027e-07
-5.31755e-05
-2.80198e-05
1.39106e-07
-2.8153e-05
3.80227e-07
-5.34152e-05
-7.90221e-05
6.46357e-07
-4.19043e-07
-7.93164e-05
7.24364e-07
-1.57111e-07
-5.36783e-05
-2.83155e-05
1.97133e-07
-2.85047e-05
4.85162e-07
-5.39643e-05
-7.96333e-05
7.87662e-07
-5.34283e-07
-7.9964e-05
8.80161e-07
-2.20775e-07
-5.42787e-05
-2.87322e-05
2.73601e-07
-2.8996e-05
6.18621e-07
-5.46212e-05
-8.03211e-05
9.59114e-07
-6.84007e-07
-8.0701e-05
1.08307e-06
-3.05899e-07
-5.5e-05
-2.93107e-05
3.76186e-07
-2.96789e-05
7.97045e-07
-5.54181e-05
-8.1118e-05
1.19977e-06
-8.97406e-07
-8.15693e-05
1.36075e-06
-4.29832e-07
-5.58859e-05
-3.01145e-05
5.14295e-07
-3.06215e-05
1.03925e-06
-5.64082e-05
-8.20582e-05
1.5169e-06
-1.17284e-06
-8.26154e-05
1.759e-06
-5.79391e-07
-5.7005e-05
-3.12127e-05
8.44094e-07
-3.20509e-05
1.58694e-06
-5.77434e-05
-8.27269e-05
1.68836e-06
-1.51423e-06
-8.32446e-05
2.06165e-06
-9.28945e-07
-5.83316e-05
-3.2992e-05
7.47938e-07
-3.37314e-05
1.4056e-06
-5.89851e-05
-8.37962e-05
1.94174e-06
-1.23613e-06
-8.52857e-05
2.73339e-06
-2.91318e-07
-5.993e-05
-3.40239e-05
1.28596e-06
-3.53088e-05
1.67674e-06
-6.03197e-05
-8.6085e-05
2.47733e-06
-1.97998e-06
-8.68736e-05
2.77059e-06
-5.91605e-07
-6.17074e-05
-3.58992e-05
9.25936e-07
-3.68244e-05
1.70042e-06
-6.24815e-05
-8.81432e-05
2.97106e-06
-2.35263e-06
-8.88388e-05
3.05025e-06
-1.03104e-06
-6.38037e-05
-3.78553e-05
1.10303e-06
-3.89584e-05
1.94322e-06
-6.46424e-05
-9.06246e-05
3.73144e-06
-2.66202e-06
-9.18124e-05
3.853e-06
-1.39685e-06
-6.59049e-05
-4.03555e-05
1.35856e-06
-4.17138e-05
2.60235e-06
-6.71457e-05
-9.29076e-05
3.69752e-06
-2.55535e-06
-9.47081e-05
4.3538e-06
-1.1262e-06
-6.85749e-05
-4.28458e-05
1.05565e-06
-4.38998e-05
2.84934e-06
-7.03726e-05
-9.6537e-05
4.67225e-06
-4.28565e-06
-9.95721e-05
7.30533e-06
-2.43903e-06
-7.22323e-05
-4.63334e-05
2.51005e-06
-4.87253e-05
6.39835e-06
-7.61e-05
-0.000103737
1.04131e-05
6.79953e-05
-5.05451e-05
-0.000120893
2.7358e-05
-3.53279e-05
-2.16639e-05
6.03774e-06
-2.60514e-05
1.37496e-05
-4.5872e-05
-6.59407e-05
3.05022e-05
-8.39914e-06
-7.30606e-05
1.58548e-05
-2.78736e-06
-5.14468e-05
-2.9071e-05
8.46966e-07
-3.01249e-05
2.12929e-06
-5.27704e-05
-7.42747e-05
3.74142e-06
-1.61863e-07
-7.4429e-05
3.0399e-07
-3.58583e-07
-5.25645e-05
-3.04655e-05
1.67128e-06
-3.19336e-05
3.51725e-06
-5.43618e-05
-7.61408e-05
4.83003e-06
-2.31295e-06
-7.73511e-05
3.66726e-06
-1.08519e-06
-5.56133e-05
-3.31047e-05
2.15795e-06
-3.53072e-05
4.23468e-06
-5.76996e-05
-7.97518e-05
6.73894e-06
-2.67272e-06
-8.18481e-05
4.86589e-06
-1.48961e-06
-5.88925e-05
-3.68477e-05
2.37673e-06
-3.92483e-05
4.96261e-06
-6.14789e-05
-8.43774e-05
7.51768e-06
-4.49546e-06
-8.7133e-05
7.10476e-06
-2.09502e-06
-6.38686e-05
-4.12671e-05
2.83217e-06
-4.39846e-05
6.51918e-06
-6.7561e-05
-9.22382e-05
1.14346e-05
-9.62225e-06
-9.92672e-05
1.63473e-05
-4.38865e-06
-7.2763e-05
-4.8043e-05
-2.65083e-05
-2.257e-05
-6.37762e-05
-3.53588e-05
-4.95137e-05
-0.000112209
-1.53423e-05
-6.56386e-05
3.38189e-05
-8.53576e-06
-4.63851e-05
-2.8907e-05
3.76084e-06
-3.34392e-05
1.14664e-05
-5.41674e-05
-7.41666e-05
2.13074e-05
-7.09312e-06
-8.06434e-05
1.40197e-05
-3.45795e-06
-5.78553e-05
-3.70943e-05
2.68654e-06
-3.96172e-05
6.63105e-06
-6.17453e-05
-8.45008e-05
1.01353e-05
-5.43494e-06
-8.79931e-05
8.99734e-06
-2.4041e-06
-6.47935e-05
-4.20704e-05
2.73198e-06
-4.47323e-05
5.81824e-06
-6.7858e-05
-9.17109e-05
9.4069e-06
-6.98171e-06
-9.68826e-05
1.22459e-05
-2.97977e-06
-7.18897e-05
-4.77466e-05
3.19543e-06
-5.08446e-05
7.01442e-06
-7.5688e-05
-0.000101438
1.14251e-05
6.57116e-05
-5.02873e-05
-0.000116606
2.6884e-05
-3.69802e-05
-2.40005e-05
5.36783e-06
-3.07453e-05
1.89998e-05
-4.7954e-05
-6.61844e-05
3.35126e-05
-1.25027e-05
-7.57843e-05
2.04581e-05
-5.29713e-06
-5.49983e-05
-3.50996e-05
2.54078e-06
-3.80113e-05
5.73154e-06
-5.83043e-05
-7.89388e-05
9.50384e-06
-4.02614e-06
-8.0939e-05
5.77316e-06
-1.90457e-06
-6.03743e-05
-3.97542e-05
3.20668e-06
-4.29678e-05
6.57363e-06
-6.37819e-05
-8.66708e-05
1.23183e-05
-9.4707e-06
-9.28159e-05
1.53444e-05
-4.38056e-06
-6.88018e-05
-4.71321e-05
-2.49232e-05
-2.31322e-05
-5.93821e-05
-3.41706e-05
-4.68169e-05
-0.000104264
-1.69404e-05
-6.22329e-05
3.43326e-05
-9.20929e-06
-4.60762e-05
-2.98276e-05
6.16148e-06
-3.59919e-05
1.41611e-05
-5.38806e-05
-7.22587e-05
2.39502e-05
-9.76323e-06
-8.0619e-05
1.80965e-05
-4.15435e-06
-5.94806e-05
-4.01503e-05
4.61563e-06
-4.47294e-05
9.61285e-06
-6.44759e-05
-8.73358e-05
1.62438e-05
-7.7278e-06
-9.17144e-05
1.1913e-05
-3.4125e-06
-6.8742e-05
-4.80001e-05
-2.55152e-05
-2.3088e-05
-5.98044e-05
-3.4228e-05
-4.60589e-05
-0.00010484
-1.65133e-05
-6.04706e-05
3.2543e-05
-9.7466e-06
-4.49678e-05
-3.02254e-05
5.55776e-06
-3.53973e-05
1.27389e-05
-5.18158e-05
-6.9743e-05
2.0995e-05
-8.9056e-06
-7.59463e-05
1.54298e-05
-3.8672e-06
-5.69122e-05
-3.94667e-05
4.49596e-06
-4.40597e-05
1.0317e-05
-6.2757e-05
-8.27336e-05
1.73323e-05
5.29328e-05
-4.25204e-05
-9.35489e-05
2.21705e-05
-3.16964e-05
-2.18708e-05
1.02e-05
-2.91602e-05
1.6829e-05
-4.27871e-05
-5.64646e-05
3.26028e-05
-1.567e-05
-6.83169e-05
2.5953e-05
-7.19538e-06
-5.08215e-05
-3.56675e-05
5.29806e-06
-4.11851e-05
1.23099e-05
-5.79273e-05
-7.67669e-05
2.10923e-05
-7.75325e-06
-8.13884e-05
1.22714e-05
-4.02499e-06
-6.1608e-05
-4.51524e-05
-2.26443e-05
-2.25854e-05
-5.2594e-05
-3.16668e-05
-4.18442e-05
-9.2028e-05
-1.88152e-05
-5.59527e-05
3.29292e-05
-7.59013e-06
-4.29016e-05
-3.0167e-05
6.80104e-06
-3.69991e-05
1.40183e-05
-5.01001e-05
-6.53569e-05
2.34509e-05
4.23737e-05
-3.41105e-05
-7.35734e-05
1.78294e-05
-2.58087e-05
-1.89694e-05
5.26659e-06
-2.59859e-05
1.8087e-05
-3.58152e-05
-4.73472e-05
3.01224e-05
-1.37483e-05
-5.54996e-05
2.19286e-05
-6.70079e-06
-4.30471e-05
-3.25615e-05
-1.6376e-05
-1.62199e-05
-3.78615e-05
-2.15583e-05
-2.78244e-05
-6.55108e-05
-1.08041e-05
-3.52534e-05
1.82329e-05
-5.07369e-06
-2.72872e-05
-2.12891e-05
-1.2698e-05
-8.58997e-06
-2.84783e-05
-1.15054e-05
-1.51996e-05
-4.85329e-05
7.78592e-07
-1.65203e-05
5.42216e-07
5.59692e-07
-1.12865e-05
-8.03023e-06
-1.35933e-05
5.56286e-06
-3.23783e-05
7.49859e-06
9.58675e-06
-5.84844e-05
2.53669e-05
2.63858e-05
-4.21657e-05
1.17243e-05
2.11413e-05
1.72872e-05
-1.083e-05
2.81173e-05
-2.39208e-05
3.42322e-05
4.28383e-05
-4.03733e-05
2.75454e-05
6.3418e-05
-4.81254e-05
1.15265e-05
5.02509e-05
3.96437e-05
-1.34713e-05
5.31148e-05
-3.28567e-05
6.9636e-05
8.96011e-05
-5.90402e-05
-4.88238e-05
5.5614e-05
8.28111e-05
-2.12895e-05
4.21015e-05
3.18253e-05
-1.91125e-05
5.09439e-05
-4.36565e-05
6.66472e-05
8.72087e-05
-7.52614e-05
-4.03764e-05
5.92097e-05
6.83522e-05
-1.83941e-05
4.46691e-05
3.25575e-05
-2.4053e-05
5.65991e-05
-5.57085e-05
7.62986e-05
9.95674e-05
-9.60506e-05
-3.7648e-05
7.49015e-05
6.20428e-05
-1.64867e-05
5.567e-05
3.97976e-05
1.78097e-05
2.64355e-05
2.99433e-05
3.64367e-05
4.9048e-05
5.87027e-05
4.70429e-05
8.60822e-05
-8.52065e-05
2.06168e-05
6.47641e-05
4.61507e-05
1.44683e-05
3.2277e-05
3.35304e-05
4.56721e-05
6.00779e-05
5.88727e-05
5.98824e-05
0.000107238
-0.000106938
2.47943e-05
8.07384e-05
5.69793e-05
1.3966e-05
4.29085e-05
3.31012e-05
6.15485e-05
8.20499e-05