/*--------------------------------*- C++ -*----------------------------------*\
| =========                 |                                                 |
| \\      /  F ield         | OpenFOAM: The Open Source CFD Toolbox           |
|  \\    /   O peration     | Version:  v2006                                 |
|   \\  /    A nd           | Website:  www.openfoam.com                      |
|    \\/     M anipulation  |                                                 |
\*---------------------------------------------------------------------------*/
FoamFile
{
    version     2.0;
    format      ascii;
    class       volScalarField;
    location    "0.13";
    object      alphat;
}
// * * * * * * * * * * * * * * * * * * * * * * * * * * * * * * * * * * * * * //

dimensions      [1 -1 -1 0 0 0 0];


internalField   nonuniform List<scalar> 
38932
(
0.104095
0.104097
0.104125
0.104122
0.104115
0.104104
0.104086
0.104064
0.104036
0.104003
0.103964
0.103921
0.103873
0.103821
0.103763
0.1037
0.103632
0.10356
0.103483
0.1034
0.103314
0.103222
0.103126
0.103024
0.102919
0.102808
0.102694
0.102574
0.10245
0.102322
0.10219
0.102053
0.101912
0.101767
0.101617
0.101464
0.101306
0.101145
0.10098
0.100811
0.100638
0.100462
0.100282
0.100099
0.0999125
0.0997225
0.0995294
0.0993332
0.0991339
0.0989318
0.0987268
0.098519
0.0983087
0.0980958
0.0978806
0.097663
0.0974432
0.0972214
0.0969976
0.096772
0.0965447
0.0963158
0.0960854
0.0958537
0.0956208
0.0953868
0.0951518
0.0949161
0.0946797
0.0944428
0.0942055
0.0939679
0.0937303
0.0934927
0.0932554
0.0930184
0.0927819
0.092546
0.092311
0.092077
0.0918441
0.0916125
0.0913823
0.0911537
0.0909268
0.0907019
0.090479
0.0902584
0.0900401
0.0898244
0.0896114
0.0894012
0.0891941
0.0889901
0.0887894
0.0885921
0.0883985
0.0882086
0.0880226
0.0878406
0.0876628
0.0874893
0.0873202
0.0871556
0.0869957
0.0868405
0.0866902
0.0865449
0.0864047
0.0862696
0.0861398
0.0860153
0.0858961
0.0857824
0.0856743
0.0855717
0.0854748
0.0853838
0.0852986
0.0852194
0.0851459
0.0850765
0.0850044
0.0849014
0.0847673
0.0844356
0.0833969
0.0790833
0.0640921
0.0229164
0.00837924
0.000314717
0.000326266
0.00353307
0.00945244
0.00655837
0.00238174
0.000321361
0.000312768
0.00187067
0.00512716
0.00440984
0.0015792
0.000303689
0.000292128
0.00140516
0.00391114
0.00360878
0.0013069
0.000282732
0.000273347
0.00122522
0.0034163
0.00328936
0.00118313
0.000265776
0.000259827
0.00115211
0.00319454
0.00312097
0.0011285
0.000254885
0.000250653
0.0011096
0.00305957
0.00300567
0.00109361
0.000247026
0.000243885
0.00107947
0.00295639
0.0029099
0.00106648
0.000241132
0.000238688
0.00105419
0.00286539
0.00282236
0.00104236
0.000236489
0.000234485
0.00103086
0.00278062
0.00274008
0.00101963
0.000232636
0.000230912
0.00100868
0.00270073
0.00266256
0.000997993
0.000229288
0.000227746
0.00098759
0.00262558
0.00258981
0.000977481
0.00022627
0.00022485
0.000967677
0.00255522
0.00252182
0.000958185
0.000223474
0.000222137
0.000949006
0.00248956
0.00245842
0.00094014
0.000220832
0.000219554
0.00093158
0.00242834
0.0023993
0.000923318
0.000218298
0.00021706
0.000915347
0.00237124
0.0023441
0.000907655
0.000215838
0.000214628
0.000900231
0.00231786
0.00229246
0.000893065
0.000213427
0.000212234
0.000886144
0.00226787
0.00224403
0.000879458
0.000211045
0.000209858
0.000872997
0.00222092
0.00219849
0.000866751
0.000208673
0.000207485
0.000860709
0.00217672
0.00215558
0.000854865
0.000206294
0.000205098
0.000849209
0.00213503
0.00211506
0.000843735
0.000203896
0.000202684
0.000838435
0.00209563
0.00207672
0.000833303
0.000201462
0.000200227
0.000828333
0.00205832
0.0020404
0.00082352
0.000198979
0.000197715
0.000818859
0.00202295
0.00200594
0.000814346
0.000196433
0.000195133
0.000809977
0.00198937
0.00197322
0.000805749
0.000193811
0.000192466
0.000801658
0.00195748
0.00194213
0.000797703
0.000191097
0.000189701
0.000793882
0.00192717
0.00191258
0.000790194
0.000188276
0.000186821
0.000786639
0.00189837
0.00188452
0.000783217
0.000185334
0.000183812
0.000779929
0.00187104
0.00185792
0.000776776
0.000182253
0.000180656
0.000773762
0.00184516
0.00183276
0.00077089
0.000179018
0.000177336
0.000768165
0.00182073
0.00180907
0.00076559
0.000175609
0.000173833
0.000763174
0.00179779
0.0017869
0.000760923
0.000172007
0.000170128
0.000758847
0.00177641
0.00176634
0.000756956
0.000168192
0.000166197
0.000755266
0.0017567
0.00174751
0.000753787
0.00016414
0.000162017
0.000752543
0.00173882
0.00173065
0.000751554
0.000159827
0.000157567
0.000750844
0.00172303
0.00171603
0.000750442
0.000155234
0.000152825
0.000750395
0.00170972
0.00170414
0.00075073
0.00015034
0.000147777
0.00075152
0.00169942
0.00169558
0.000752792
0.000145135
0.000142415
0.000754655
0.00169283
0.00169119
0.000757146
0.000139619
0.00013675
0.000760411
0.00169098
0.00169215
0.00076451
0.000133813
0.000130817
0.0007696
0.00169511
0.00170004
0.000775817
0.000127771
0.000124693
0.00078336
0.00170724
0.00171676
0.000792306
0.000121599
0.000118515
0.000802907
0.00172928
0.00174498
0.000815331
0.000115466
0.000112489
0.000829668
0.00176395
0.00178559
0.000845572
0.000109584
0.000106786
0.000863343
0.00181128
0.00184023
0.000882521
0.000104089
0.000101472
0.000902654
0.00187269
0.00190819
0.000923552
9.89402e-05
9.62282e-05
0.000941168
0.00194516
0.00198292
0.000954008
9.46154e-05
9.41339e-05
0.000957529
0.00202138
0.00206417
0.000957669
9.30152e-05
9.09925e-05
0.000950237
0.00209651
0.00210724
0.000930125
8.78833e-05
8.38179e-05
0.000895481
0.00208932
0.00204091
0.000847022
7.89058e-05
7.33565e-05
0.000784015
0.00195752
0.00183549
0.000707243
6.76617e-05
6.23848e-05
0.000621273
0.00167523
0.00146395
0.000523483
5.78021e-05
5.52051e-05
0.000416505
0.00121191
0.00102698
0.000353574
5.44147e-05
5.44281e-05
0.000324831
0.00092686
0.000881934
0.000310095
5.50463e-05
5.57408e-05
0.000302919
0.000863374
0.00085903
0.000302796
5.65614e-05
5.73268e-05
0.000307113
0.000868444
0.00088732
0.000313978
5.79871e-05
5.85368e-05
0.000321581
0.00090791
0.000929503
0.000330013
5.89364e-05
5.91427e-05
0.000337954
0.000951292
0.00097054
0.000344862
5.92068e-05
5.91824e-05
0.00035007
0.000987527
0.00100529
0.000356145
5.9001e-05
5.86261e-05
0.000360276
0.00101815
0.00102844
0.000363979
5.81364e-05
5.74975e-05
0.0003667
0.00103579
0.00103958
0.000368422
5.67202e-05
5.58403e-05
0.000369249
0.0010403
0.00103745
0.000368908
5.48039e-05
5.36754e-05
0.000367727
0.0010315
0.00102215
0.000365453
5.24322e-05
5.10629e-05
0.000362158
0.00100957
0.000993794
0.000357953
4.95927e-05
4.80234e-05
0.000352802
0.00097489
0.000952679
0.000346644
4.632e-05
4.45291e-05
0.000339669
0.000927246
0.000898048
0.000331594
4.25647e-05
4.05628e-05
0.000322608
0.000864593
0.000825746
0.000312047
3.83111e-05
3.57532e-05
0.000299658
0.000779554
0.00072115
0.000283762
3.26799e-05
2.92577e-05
0.000262643
0.000643664
0.000536668
0.000231817
2.47518e-05
1.92669e-05
0.000184893
0.000389049
0.000196736
9.9802e-05
1.42138e-05
9.09778e-06
4.3736e-05
4.95154e-05
6.22979e-05
8.45073e-05
0.000104791
0.000126067
0.000140017
0.000153714
0.000163211
0.00017222
0.0001793
0.00018552
0.000190741
0.00019529
0.000197384
0.00019981
0.000200103
0.000221678
0.00021297
0.000204056
0.000188208
0.000119357
6.66674e-05
8.28355e-05
9.85605e-05
6.64771e-05
3.17867e-05
3.46268e-05
3.62455e-05
3.33881e-05
2.94409e-05
2.57844e-05
1.50985e-05
1.16849e-05
9.32591e-06
7.52107e-06
5.68039e-06
1.24301e-05
2.29635e-05
3.68916e-05
6.33283e-05
0.000157887
0.000110669
6.71959e-05
2.83012e-05
7.16743e-06
9.06311e-06
5.32361e-05
0.00012637
0.000196899
0.0002663
0.000349853
0.000254176
0.000161329
6.70388e-05
1.05154e-05
1.12541e-05
7.62896e-05
0.00018502
0.000295796
0.000406825
0.000441334
0.000322258
0.000199121
8.17884e-05
1.17673e-05
1.18261e-05
8.33896e-05
0.000203678
0.000330581
0.000453532
0.000453139
0.00032948
0.000202562
8.27568e-05
1.16268e-05
1.12887e-05
8.14404e-05
0.000198997
0.000323826
0.000446269
0.000435485
0.000316745
0.000194905
8.01831e-05
1.08693e-05
1.05079e-05
7.9462e-05
0.000192131
0.000311409
0.000427721
0.000425253
0.00030879
0.000190878
7.95625e-05
1.02035e-05
9.94303e-06
7.97307e-05
0.00019
0.000307271
0.000423788
0.000422927
0.00030564
0.00018887
7.96002e-05
9.62372e-06
9.23353e-06
7.82399e-05
0.000185833
0.000302241
0.000420567
0.00041109
0.000292862
0.000178681
7.45802e-05
8.63267e-06
8.03879e-06
6.73878e-05
0.00016518
0.000276404
0.000394907
0.000371491
0.000252697
0.000145747
5.72666e-05
7.19238e-06
5.79181e-06
4.32421e-05
0.000119136
0.000220781
0.00034062
0.000297858
0.000178227
8.07205e-05
2.27848e-05
3.64052e-06
2.46856e-06
1.0517e-05
4.96202e-05
0.000123937
0.000236571
0.000158194
6.30658e-05
2.56397e-05
7.28132e-06
2.81872e-06
3.44627e-06
4.84701e-06
1.32271e-05
3.86066e-05
8.37496e-05
5.52459e-05
1.93078e-05
8.0748e-06
6.93824e-06
6.58512e-06
5.55711e-06
7.25543e-06
9.12453e-06
2.21802e-05
6.04087e-05
6.91011e-05
2.87548e-05
1.21319e-05
7.02964e-06
4.62205e-06
4.95971e-06
6.72777e-06
1.47322e-05
3.49601e-05
7.7568e-05
8.27084e-05
3.49376e-05
1.31483e-05
5.80291e-06
6.37725e-06
6.70394e-06
6.01553e-06
1.31664e-05
3.52243e-05
8.49445e-05
8.37512e-05
3.35778e-05
1.25267e-05
7.14617e-06
6.80459e-06
6.03367e-06
8.20098e-06
1.46106e-05
3.78341e-05
8.94668e-05
0.000101451
4.49198e-05
1.67043e-05
7.03188e-06
6.57073e-06
6.89723e-06
7.83798e-06
1.63002e-05
4.17935e-05
9.75484e-05
0.000100525
4.72969e-05
1.94069e-05
8.7126e-06
5.56235e-06
6.43497e-06
8.45031e-06
2.13961e-05
4.9937e-05
0.000103654
0.000108905
5.38298e-05
2.24957e-05
8.87918e-06
5.88078e-06
6.7199e-06
8.72307e-06
2.20484e-05
5.00983e-05
0.000103659
0.000103365
4.83883e-05
2.14007e-05
9.17021e-06
7.98322e-06
7.58994e-06
1.08767e-05
2.35619e-05
5.06997e-05
0.000107241
0.00011379
5.55876e-05
2.46299e-05
1.03284e-05
7.07154e-06
8.22368e-06
9.80536e-06
2.67939e-05
5.87089e-05
0.000119526
0.000129272
6.40108e-05
2.72882e-05
1.0245e-05
7.47311e-06
7.15704e-06
1.22816e-05
2.97622e-05
6.54942e-05
0.000129734
0.000140978
7.39599e-05
3.19765e-05
9.92985e-06
7.066e-06
8.16442e-06
1.14782e-05
3.16443e-05
6.8273e-05
0.000136614
0.000137954
7.19823e-05
3.24766e-05
1.2575e-05
7.23789e-06
8.15731e-06
1.22462e-05
3.52245e-05
7.21604e-05
0.000138319
0.000142594
7.37084e-05
3.3529e-05
1.16678e-05
8.59532e-06
8.22235e-06
1.51414e-05
3.71337e-05
7.42058e-05
0.000142046
0.000151789
8.12566e-05
3.74324e-05
1.22387e-05
8.22052e-06
9.93007e-06
1.26696e-05
3.94347e-05
7.91541e-05
0.000153307
0.000159031
8.53297e-05
4.01682e-05
1.46074e-05
8.11934e-06
9.45749e-06
1.35295e-05
4.29605e-05
8.6379e-05
0.000160169
0.000172479
9.10966e-05
4.33174e-05
1.32849e-05
8.97815e-06
9.07423e-06
1.72176e-05
4.61926e-05
9.18292e-05
0.000171427
0.00019052
0.000107865
4.97198e-05
1.38083e-05
7.77101e-06
9.55025e-06
1.51666e-05
4.93951e-05
0.000100003
0.000186988
0.000194837
0.000110092
5.10252e-05
1.47795e-05
8.08922e-06
9.88062e-06
1.61947e-05
5.1023e-05
9.96748e-05
0.000184401
0.000186083
0.000105868
5.13573e-05
1.68939e-05
8.7141e-06
1.04535e-05
1.69353e-05
5.47998e-05
0.000101476
0.000185738
0.000190951
0.000107834
5.28894e-05
1.73618e-05
9.77265e-06
9.84664e-06
1.9179e-05
5.88711e-05
0.000111266
0.000193525
0.000202173
0.00011293
5.50327e-05
1.55856e-05
1.0501e-05
1.12569e-05
1.95835e-05
5.99874e-05
0.000111665
0.00020032
0.000212594
0.000122456
5.96744e-05
1.80625e-05
9.83109e-06
1.2331e-05
1.75061e-05
6.33192e-05
0.000117926
0.000214364
0.00022064
0.00012596
6.31694e-05
2.088e-05
1.02637e-05
1.18653e-05
1.83131e-05
6.72139e-05
0.000129343
0.000226889
0.000236837
0.000131687
6.65557e-05
1.88654e-05
1.0986e-05
1.13498e-05
2.48509e-05
7.24968e-05
0.000135924
0.000238539
0.000255561
0.000147341
7.10843e-05
1.96813e-05
1.00968e-05
1.19724e-05
2.19013e-05
7.36977e-05
0.000135984
0.000243419
0.000248477
0.000145083
7.16686e-05
2.16165e-05
1.05472e-05
1.24648e-05
2.30439e-05
7.71431e-05
0.000137702
0.000243598
0.000252836
0.000149954
7.59832e-05
2.50378e-05
1.11795e-05
1.24972e-05
2.27661e-05
8.16372e-05
0.000147585
0.000256095
0.000260461
0.000153297
7.72198e-05
2.27214e-05
1.22615e-05
1.22026e-05
2.65511e-05
8.52344e-05
0.000159482
0.000266662
0.000275458
0.000158821
7.93542e-05
2.12436e-05
1.29799e-05
1.40236e-05
2.57208e-05
8.7363e-05
0.000158941
0.000274642
0.000288969
0.000169396
8.35969e-05
2.41074e-05
1.23918e-05
1.52203e-05
2.33445e-05
9.01777e-05
0.000161711
0.000288334
0.000297131
0.000174515
8.88849e-05
2.86227e-05
1.28308e-05
1.48695e-05
2.30689e-05
9.11244e-05
0.000171632
0.000298647
0.000290185
0.000166453
8.943e-05
2.64484e-05
1.36969e-05
1.38576e-05
3.41098e-05
9.73055e-05
0.000174788
0.000289558
0.000303468
0.00018049
9.16376e-05
2.89687e-05
1.32288e-05
1.43053e-05
2.80833e-05
9.55935e-05
0.000178736
0.000311209
0.0003075
0.000172776
8.66534e-05
2.61086e-05
1.39541e-05
1.60656e-05
2.65201e-05
9.28364e-05
0.000154672
0.000293942
0.000313788
0.000166452
9.00162e-05
2.50947e-05
1.80921e-05
1.64657e-05
2.82753e-05
8.78088e-05
0.000201617
0.000362144
0.000502478
0.000278926
0.000124537
4.3366e-05
2.19445e-05
2.81452e-05
7.38022e-05
0.000219828
0.000496
0.000896563
0.00111338
0.000680794
0.000341704
0.000118231
3.53627e-05
4.30125e-05
0.000177039
0.000471639
0.00086574
0.00134439
0.00155822
0.00104614
0.000598973
0.000237704
5.01751e-05
5.62972e-05
0.000297478
0.000716922
0.0012105
0.00175532
0.00193872
0.00136376
0.000824898
0.000346931
6.12159e-05
6.61684e-05
0.000394667
0.000922696
0.00150145
0.00210252
0.00223251
0.00162237
0.00101338
0.000441598
7.0906e-05
7.51068e-05
0.000489814
0.00110566
0.00175083
0.00239275
0.00254379
0.00186564
0.00118382
0.000527666
7.87896e-05
8.3096e-05
0.00055638
0.00125681
0.00198044
0.00270226
0.00286576
0.00209986
0.00133342
0.000593608
8.84504e-05
9.73673e-05
0.000627373
0.00141014
0.00220963
0.00299525
0.00312548
0.0023324
0.00150564
0.00068434
0.000106407
0.000113787
0.000746253
0.00161489
0.0024844
0.00331819
0.00351323
0.00263906
0.00172468
0.000802183
0.000120556
0.00012743
0.000866993
0.00183454
0.00279133
0.00370097
0.00389125
0.00293452
0.00193705
0.000931543
0.000131879
0.00013274
0.000964628
0.00199467
0.00302599
0.00406825
0.00392229
0.00296471
0.00195808
0.000943967
0.000130188
0.000127418
0.000916381
0.00189502
0.00284254
0.00369697
0.00388122
0.00291726
0.00192561
0.000922595
0.00012972
0.000131259
0.000964091
0.00200967
0.00305064
0.00405785
0.00423382
0.00318656
0.00210369
0.00101935
0.000134698
0.000135237
0.00104778
0.00218384
0.00331122
0.00439941
0.00455047
0.00342244
0.00225356
0.00107886
0.000139104
0.000135622
0.00108049
0.00227819
0.00348284
0.00466656
0.00464189
0.00343207
0.00224101
0.00106597
0.000133703
0.000124496
0.00100494
0.00211239
0.00320821
0.00422054
0.00377281
0.00291319
0.00193827
0.000922566
0.000114884
0.000105346
0.000851428
0.00180051
0.00274977
0.00370427
0.00348269
0.00260512
0.00169516
0.000792253
9.89418e-05
9.22399e-05
0.000743001
0.00159443
0.00243787
0.00321322
0.00326435
0.00240922
0.00155816
0.000723753
9.13077e-05
8.96234e-05
0.000717646
0.00156129
0.00243006
0.00329954
0.00329135
0.00243148
0.00156316
0.000718992
9.01326e-05
8.95973e-05
0.00072042
0.0015628
0.00243112
0.00329421
0.00330732
0.00243791
0.00156469
0.000722995
9.08308e-05
8.91289e-05
0.000723236
0.00157205
0.00245553
0.00334071
0.00337333
0.00245072
0.00156847
0.000723232
8.92434e-05
8.59453e-05
0.000702403
0.00151848
0.00236098
0.00319332
0.00299216
0.00224792
0.00145023
0.000669158
8.28423e-05
8.36166e-05
0.000671373
0.00146712
0.00229323
0.00312875
0.00326154
0.0023899
0.00152561
0.000699057
8.69656e-05
8.92719e-05
0.000735415
0.00159262
0.00249013
0.0033922
0.00351941
0.00257927
0.00165027
0.000761323
8.96334e-05
8.80978e-05
0.000760738
0.00165999
0.00261254
0.00361252
0.00343258
0.00253136
0.00161672
0.000737542
8.46159e-05
8.03574e-05
0.000708293
0.00156108
0.00242639
0.00323317
0.00339802
0.00248698
0.00158083
0.000707837
7.91551e-05
8.29586e-05
0.000731961
0.00164414
0.00259833
0.00356429
0.00371794
0.00271261
0.00171811
0.00076478
8.61655e-05
8.83372e-05
0.000792254
0.00177518
0.00281107
0.00386148
0.00397911
0.00285722
0.00179943
0.000805101
8.92507e-05
8.80963e-05
0.000797379
0.00176642
0.00278167
0.00379064
0.00359207
0.0026897
0.00172906
0.000784465
8.71736e-05
8.77999e-05
0.000793826
0.00176517
0.00277123
0.00378605
0.00398499
0.00290872
0.00184169
0.000823674
9.04201e-05
9.49442e-05
0.000857773
0.00192596
0.00304476
0.00417582
0.0043561
0.00317203
0.00200465
0.000903105
9.80033e-05
9.90957e-05
0.000913879
0.0020413
0.00323719
0.00450992
0.00430948
0.00315929
0.00200867
0.000907528
9.77279e-05
9.59965e-05
0.0009018
0.00198231
0.0030779
0.00410639
0.00434031
0.00318124
0.00202915
0.000915264
9.66984e-05
9.94151e-05
0.000951561
0.00212676
0.00335046
0.00458257
0.00482138
0.00351205
0.00221957
0.000993209
0.000104205
0.00010738
0.00102099
0.00227092
0.00360248
0.00502101
0.00482012
0.00354056
0.00226007
0.00102197
0.000107408
0.000105949
0.00101932
0.00223641
0.00347207
0.00462148
0.0049016
0.00359788
0.00229296
0.00103643
0.000107388
0.00011198
0.00107916
0.0023959
0.00378066
0.00519161
0.00543692
0.00389151
0.00245738
0.00111268
0.000115916
0.000114984
0.00111469
0.0024483
0.00383935
0.00523611
0.00504857
0.00378774
0.00244182
0.00111518
0.000115436
0.000117985
0.00114565
0.00252565
0.00395122
0.00537607
0.00571403
0.00416834
0.00264273
0.00119456
0.000122483
0.000126309
0.00123155
0.00271938
0.00431162
0.00602106
0.00582373
0.00427676
0.00273796
0.00125014
0.000128077
0.000129567
0.00127147
0.00275587
0.00424957
0.00564657
0.00603905
0.00445026
0.00286058
0.00130934
0.000131649
0.000133908
0.00135616
0.00300523
0.00472596
0.00645908
0.00684927
0.00492378
0.00311349
0.00141434
0.000143002
0.000150955
0.00146975
0.00316788
0.00492143
0.00667728
0.00653439
0.00493606
0.00322433
0.00151216
0.000158737
0.000167006
0.00157658
0.00334697
0.00517778
0.00700865
0.00748598
0.00540831
0.00347089
0.00163579
0.000174364
0.00017747
0.0016717
0.00351931
0.00541933
0.0073242
0.00719789
0.0054433
0.00356502
0.00169353
0.000174139
0.000169393
0.00169824
0.0036637
0.00570434
0.00773224
0.00828673
0.00594232
0.00374758
0.00167939
0.000156874
0.000159803
0.00168225
0.00379029
0.00597722
0.00814104
0.00807783
0.0060551
0.0038911
0.00176306
0.000175242
0.000191023
0.0018521
0.0040381
0.00632058
0.00873662
0.00869918
0.00644695
0.00416811
0.00193923
0.000205311
0.000222144
0.00204497
0.00432271
0.00661515
0.00872395
0.00948915
0.00694469
0.00451112
0.00214912
0.000237842
0.000253265
0.00225103
0.00467134
0.0071133
0.00950597
0.00957258
0.00732762
0.00486427
0.0023656
0.000270094
0.000286118
0.00248694
0.00509145
0.00772116
0.010435
0.0105072
0.00793473
0.00528572
0.00259911
0.000302899
0.000321262
0.00272397
0.00550936
0.00820412
0.0106019
0.0114983
0.00858248
0.00569582
0.00281571
0.000331293
0.00031712
0.00280386
0.00570582
0.00862633
0.0114779
0.0114012
0.00854604
0.00558632
0.00269115
0.000310098
0.000331749
0.00267578
0.00551712
0.00849336
0.01141
0.0117118
0.00869586
0.00564661
0.00277498
0.000373799
0.000389812
0.00290056
0.00588682
0.00896873
0.0119694
0.01272
0.00949251
0.00617804
0.00297547
0.000374598
0.000340358
0.0029091
0.00624875
0.0097102
0.013254
0.0129432
0.00962881
0.00624657
0.00296903
0.000355683
0.000431991
0.00318449
0.00634608
0.00954947
0.0126768
0.0124404
0.00944835
0.00643835
0.00339197
0.000498441
0.000524105
0.00344304
0.00629892
0.00920735
0.01212
0.0116394
0.00871132
0.00580843
0.00298909
0.000521477
0.000499055
0.00239604
0.00503431
0.00787802
0.0108201
0.00912192
0.00663057
0.00416759
0.00188094
0.000441152
0.00037799
0.00151118
0.0035156
0.00577365
0.00809542
0.00712093
0.0050483
0.00310645
0.00138288
0.000339842
0.000316375
0.00120431
0.00279219
0.00462745
0.0066303
0.00596191
0.00419369
0.00253388
0.00108009
0.000289047
0.000267427
0.000964813
0.0023487
0.00396617
0.00573763
0.00520525
0.00360938
0.00212664
0.000847662
0.000238089
0.000200503
0.000766668
0.00203
0.00352059
0.00516713
0.0047545
0.00329496
0.00191852
0.000713505
0.000178538
0.000180413
0.000783906
0.00195658
0.00333012
0.00486722
0.00455811
0.00321871
0.00195259
0.000822725
0.000179875
0.000177106
0.000866177
0.00201153
0.00331271
0.00475065
0.00460717
0.00322482
0.00199626
0.000879521
0.000173664
0.000165702
0.000855796
0.00190459
0.00300277
0.00405887
0.00419557
0.00303898
0.00192831
0.000869021
0.000157808
0.00015622
0.000919088
0.00194635
0.00300396
0.004083
0.00434657
0.00315612
0.00203631
0.000977616
0.000160871
0.00016608
0.00100883
0.00205922
0.0031493
0.00434077
0.00396813
0.00302503
0.00203292
0.0010274
0.000170104
0.000170615
0.00102131
0.00205225
0.00309032
0.00414793
0.00414121
0.00305516
0.00203742
0.00101656
0.000169206
0.000165036
0.000979476
0.00197112
0.0029263
0.0038107
0.00397542
0.00297584
0.00196852
0.000945932
0.000158492
0.000151691
0.000934336
0.00194426
0.00293627
0.00397523
0.00366508
0.00281887
0.00188757
0.000906357
0.000145452
0.000139482
0.0009094
0.00190727
0.00287243
0.00381392
0.00380048
0.00289442
0.00194655
0.000954145
0.000138016
0.000142439
0.00100823
0.00203911
0.00305216
0.00405722
0.00411972
0.00307801
0.00207082
0.00103745
0.000146064
0.000147688
0.00103908
0.00205479
0.00300169
0.00386556
0.00405447
0.00308707
0.00208761
0.00105236
0.000148541
0.000149538
0.00106119
0.00209628
0.00309229
0.00410729
0.00385628
0.00300922
0.00206596
0.00104998
0.000149333
0.000149823
0.00106231
0.00209939
0.00308916
0.00403873
0.00409075
0.00308298
0.00209021
0.00105116
0.000149195
0.000148052
0.00104177
0.00205818
0.00300082
0.00384862
0.00402404
0.00307346
0.0020786
0.00104123
0.000146785
0.00014531
0.00102725
0.00207194
0.00307324
0.00408034
0.00383939
0.00298853
0.00203663
0.00101488
0.000142971
0.000141414
0.00101635
0.00206218
0.00306254
0.00401519
0.0040753
0.00306256
0.00205814
0.00101392
0.000139678
0.00013738
0.000994414
0.00202442
0.00298665
0.00384037
0.0040198
0.00306787
0.00206402
0.0010197
0.000136913
0.000136674
0.00101455
0.00206183
0.00307072
0.00408924
0.00385969
0.00299924
0.0020332
0.00100517
0.0001355
0.000134269
0.0010026
0.00206567
0.00308343
0.00404803
0.00412563
0.00308811
0.00205369
0.000992352
0.000132047
0.000127949
0.00094352
0.00197765
0.002968
0.00391577
0.00365719
0.00283161
0.00189279
0.000898463
0.000123007
0.000119973
0.000898342
0.0019023
0.00287833
0.00380447
0.00386461
0.00287318
0.00189723
0.000901524
0.000118211
0.000117267
0.000902143
0.00187433
0.00280512
0.00364261
0.00381894
0.00288736
0.00191177
0.000914464
0.000117093
0.000116463
0.000909338
0.00191083
0.00289194
0.00388928
0.00366774
0.00282525
0.00188597
0.000903844
0.000115353
0.000115022
0.000904223
0.00191509
0.00290326
0.00384372
0.00391717
0.00291034
0.00191835
0.000913504
0.000114413
0.000113947
0.000893173
0.00188874
0.00284122
0.0036904
0.00386654
0.00291784
0.00192143
0.000906713
0.000113045
0.000113015
0.000901879
0.00191688
0.00291694
0.00393419
0.00370226
0.00284518
0.00188854
0.000892893
0.000111996
0.000111758
0.000902513
0.00191768
0.0029187
0.00387492
0.0039408
0.00291913
0.00191308
0.000894578
0.000111315
0.000109991
0.000881983
0.0018806
0.00284066
0.00370351
0.00387298
0.00291079
0.00190592
0.000891176
0.000109758
0.000109175
0.000882396
0.00189839
0.00290922
0.00393822
0.00369578
0.00282761
0.0018603
0.000862623
0.000107403
0.000106203
0.000872241
0.00188625
0.00289327
0.0038615
0.00392069
0.00288576
0.00187811
0.000871958
0.000105579
0.000104477
0.0008523
0.00184159
0.00280745
0.00367818
0.00384162
0.00287263
0.00186656
0.000859083
0.000103284
0.000102916
0.000857699
0.00185803
0.00286692
0.0038974
0.00365713
0.00278919
0.00182865
0.000842188
0.000101715
0.000100196
0.000842661
0.00184779
0.00285335
0.00382126
0.00387811
0.00284653
0.00184092
0.00084548
9.93022e-05
9.87288e-05
0.000826729
0.00181291
0.00277698
0.00364623
0.00382124
0.00285178
0.00184345
0.00084009
9.83859e-05
9.89037e-05
0.00083865
0.00184757
0.00286169
0.00389804
0.00369639
0.00281365
0.0018393
0.00084045
9.86996e-05
0.000101002
0.000861379
0.00189107
0.00292272
0.00390974
0.00402397
0.00296649
0.00192182
0.00087743
0.000102931
0.000105073
0.000901678
0.00195854
0.00297995
0.0038929
0.00417854
0.00315879
0.00206317
0.000944532
0.000109235
0.000114104
0.00100044
0.00215756
0.00329582
0.00443427
0.00439035
0.00338583
0.00225176
0.00104993
0.000123237
0.000133784
0.0011512
0.00245026
0.00365122
0.00469034
0.00513565
0.00402602
0.0027205
0.00127986
0.000150559
0.000169076
0.00144294
0.00308531
0.00463746
0.00604335
0.0065666
0.00495175
0.00329121
0.00154213
0.000181358
0.000189508
0.00156288
0.00330678
0.00495766
0.00652371
0.00618175
0.0048236
0.00324834
0.00154353
0.000191504
0.000195499
0.00156294
0.00330337
0.0049424
0.00644246
0.00652004
0.00502889
0.00338459
0.00160986
0.000202963
0.000210922
0.00168202
0.00353715
0.00531593
0.00694975
0.00711599
0.00537721
0.0035885
0.00171623
0.000218836
0.000224023
0.00171029
0.00354493
0.00524768
0.00672447
0.00703115
0.00538624
0.00360076
0.00172357
0.000214869
0.000212966
0.00172004
0.00358945
0.00538362
0.00714112
0.00670965
0.00522293
0.00351475
0.00168764
0.000209994
0.000209089
0.00170648
0.00356942
0.0053543
0.00700375
0.00710542
0.00535105
0.00356595
0.0017116
0.00020927
0.000208102
0.00168277
0.00349444
0.0051891
0.00667246
0.0069659
0.00531563
0.00354022
0.00169165
0.000206887
0.000206079
0.001692
0.00353311
0.0053123
0.00706787
0.0066333
0.00514637
0.00345394
0.00164877
0.000204341
0.000203907
0.0016667
0.00350295
0.00527504
0.00692934
0.0070311
0.00527317
0.0034975
0.00166912
0.000203851
0.000201885
0.00163776
0.00342529
0.00510953
0.0065955
0.0068882
0.00523339
0.00346866
0.00164584
0.000200866
0.000199835
0.00163107
0.00344679
0.00522076
0.00697919
0.00653431
0.00504718
0.0033659
0.00159595
0.000197791
0.000196212
0.00159248
0.00339439
0.00515723
0.00681794
0.00688197
0.00513095
0.00337206
0.00158229
0.000193663
0.000192077
0.00155902
0.00329478
0.00495468
0.00642913
0.00666902
0.00505337
0.00333842
0.00157479
0.000193216
0.000196303
0.00159989
0.00338714
0.00509602
0.00667923
0.00708076
0.00534652
0.00350626
0.00164375
0.00020062
0.000202644
0.00164851
0.00352045
0.00535242
0.00717351
0.00671016
0.00516895
0.00343302
0.00162213
0.000202084
0.000200893
0.00162286
0.00346332
0.00527462
0.00699127
0.00702918
0.00522603
0.00342146
0.00160227
0.000198289
0.000195597
0.00155956
0.00332758
0.00503048
0.00653879
0.00677409
0.00511274
0.00335675
0.00156805
0.00019487
0.000196934
0.00158565
0.00339359
0.00513888
0.00676087
0.0071625
0.00538194
0.00350641
0.00162583
0.000199783
0.000200909
0.00163108
0.00350824
0.00537083
0.0072322
0.00673368
0.00516544
0.00340928
0.00159316
0.000199617
0.00019779
0.00159103
0.00343171
0.00526644
0.00701641
0.00703943
0.00520572
0.00338405
0.00156456
0.000195716
0.000193901
0.00152957
0.00328413
0.00499214
0.00651821
0.00675205
0.00506871
0.00330653
0.00153145
0.000193611
0.00019524
0.00154861
0.00333866
0.00508442
0.00672361
0.00712698
0.0053249
0.00344284
0.0015838
0.000198213
0.000198805
0.00158499
0.00344253
0.00530893
0.00718487
0.0066572
0.00508903
0.00334102
0.00155012
0.000197125
0.000195542
0.00154412
0.00335325
0.00517903
0.00693433
0.00694555
0.00511436
0.00330271
0.00151483
0.000193502
0.000190439
0.00146208
0.00318675
0.0048788
0.00640268
0.00663007
0.00495049
0.00319998
0.00146667
0.000189578
0.000190685
0.00147931
0.00322534
0.0049469
0.00657863
0.00697633
0.00517229
0.00331466
0.00151035
0.000192646
0.000193399
0.00151057
0.00330616
0.00513634
0.00700161
0.00644853
0.00490654
0.00320253
0.00147606
0.000191433
0.000191734
0.00147666
0.00321787
0.0049798
0.00667808
0.00662117
0.00497905
0.00324679
0.00149408
0.000194002
0.000196266
0.0015197
0.00332622
0.00519042
0.00701271
0.00703271
0.00515442
0.00330846
0.00151045
0.000195741
0.000193061
0.00145516
0.0031915
0.00490304
0.00645233
0.00667926
0.00496705
0.00319408
0.00145288
0.000191857
0.000192704
0.00146013
0.00320559
0.00494785
0.00660291
0.00699314
0.00515591
0.00328596
0.00148614
0.000193949
0.000193646
0.001482
0.00326858
0.00511223
0.00700101
0.00640759
0.00485778
0.0031538
0.00144427
0.000192138
0.000192006
0.00143771
0.00315959
0.00492196
0.00663532
0.00655393
0.00490233
0.00317369
0.00144668
0.000193026
0.00019474
0.00147199
0.00325406
0.00511477
0.00694773
0.00695496
0.00506666
0.00323015
0.00146631
0.000194881
0.000193055
0.00140766
0.00310686
0.00480344
0.00634969
0.00657582
0.00485913
0.00310074
0.00139729
0.00019163
0.000192339
0.00141288
0.00311554
0.00483755
0.00648922
0.00687524
0.00504313
0.00319343
0.00143613
0.00019382
0.000192578
0.00142698
0.0031656
0.00499018
0.00687355
0.00625352
0.00471949
0.00303958
0.00137301
0.000189749
0.000187798
0.0013625
0.00303326
0.00477091
0.00647781
0.00637065
0.00473499
0.00303452
0.00136489
0.000187991
0.000189254
0.00138764
0.00310296
0.00492727
0.00675277
0.0067418
0.00487074
0.00307169
0.00136158
0.000188236
0.000184286
0.0012951
0.00292652
0.00458458
0.00610362
0.00632077
0.00462422
0.0029146
0.0012875
0.00018183
0.000183819
0.00130743
0.00292651
0.00459567
0.00620804
0.00655385
0.00478187
0.00302145
0.00135123
0.000188347
0.000191591
0.00137592
0.00306245
0.00478896
0.00645869
0.00686483
0.00500571
0.00314533
0.00140566
0.000194498
0.00019465
0.00139704
0.00312699
0.0049534
0.00684882
0.00619133
0.00464965
0.00297015
0.00132198
0.000191468
0.000189318
0.00131187
0.00295355
0.00469132
0.00641997
0.00628779
0.00464317
0.00294939
0.00131475
0.00018902
0.000189098
0.00133086
0.00300751
0.00482931
0.00666664
0.00663944
0.00476281
0.00297411
0.00129813
0.000187166
0.000183291
0.0012503
0.00282818
0.00446232
0.00597773
0.00619771
0.00450384
0.00281451
0.00124066
0.000181903
0.000182293
0.00124583
0.00281749
0.00445831
0.00606132
0.00641244
0.00464002
0.00290238
0.00128399
0.000185278
0.000189207
0.00130668
0.00293716
0.00463487
0.00628968
0.00668762
0.00483947
0.0030074
0.00132296
0.000191113
0.000190385
0.0013203
0.00298765
0.00477888
0.00665934
0.0059752
0.0044589
0.002813
0.00122436
0.000186514
0.000183253
0.0012159
0.00278718
0.00448059
0.00618892
0.00603654
0.00442959
0.00278558
0.00122039
0.000183918
0.000186326
0.00125739
0.00286439
0.00460992
0.00639195
0.00625246
0.00459422