/*--------------------------------*- C++ -*----------------------------------*\
| =========                 |                                                 |
| \\      /  F ield         | OpenFOAM: The Open Source CFD Toolbox           |
|  \\    /   O peration     | Version:  v2006                                 |
|   \\  /    A nd           | Website:  www.openfoam.com                      |
|    \\/     M anipulation  |                                                 |
\*---------------------------------------------------------------------------*/
FoamFile
{
    version     2.0;
    format      ascii;
    class       volScalarField;
    location    "0.011";
    object      rho;
}
// * * * * * * * * * * * * * * * * * * * * * * * * * * * * * * * * * * * * * //

dimensions      [1 -3 0 0 0 0 0];


internalField   nonuniform List<scalar> 
31566
(
1.7356
1.73535
1.73663
1.73678
1.73716
1.73769
1.73855
1.73943
1.74033
1.7412
1.74201
1.74274
1.74335
1.74384
1.74417
1.74436
1.74442
1.74437
1.74422
1.74399
1.74372
1.74342
1.74312
1.74283
1.74258
1.74239
1.74233
1.7427
1.7454
1.74607
1.74511
1.74293
1.74074
1.73971
1.739
1.73838
1.73779
1.73729
1.73685
1.73648
1.73617
1.7359
1.73569
1.73551
1.73536
1.73525
1.73515
1.73508
1.73502
1.73498
1.73496
1.73496
1.73496
1.73497
1.73499
1.73503
1.73507
1.7351
1.73514
1.73518
1.73522
1.73526
1.7353
1.73534
1.73538
1.73543
1.73547
1.7355
1.73554
1.73558
1.73562
1.73565
1.73568
1.73571
1.73574
1.73577
1.7358
1.73582
1.73585
1.73587
1.73589
1.73591
1.73593
1.73595
1.73596
1.73598
1.73599
1.73601
1.73602
1.73603
1.73605
1.73605
1.73606
1.73607
1.73607
1.73608
1.73608
1.73608
1.73608
1.73607
1.73605
1.73607
1.73607
1.7361
1.73613
1.73615
1.7362
1.73629
1.73634
1.7363
1.7362
1.73631
1.73631
1.73629
1.73626
1.73611
1.736
1.73619
1.73624
1.73618
1.73612
1.73591
1.73584
1.73605
1.73613
1.73607
1.73599
1.73577
1.73571
1.73594
1.73603
1.73598
1.73588
1.73566
1.73561
1.73584
1.73594
1.7359
1.73579
1.73557
1.73554
1.73575
1.73586
1.73583
1.73572
1.73553
1.73553
1.73569
1.7358
1.73577
1.73568
1.73553
1.73554
1.73567
1.73576
1.73574
1.73566
1.73556
1.73558
1.73566
1.73573
1.73573
1.73566
1.73559
1.7356
1.73566
1.73572
1.73571
1.73566
1.73561
1.73561
1.73565
1.73571
1.7357
1.73564
1.73561
1.73559
1.73563
1.73568
1.73566
1.73561
1.73557
1.73553
1.73559
1.73564
1.73561
1.73555
1.73548
1.73542
1.73551
1.73558
1.73554
1.73546
1.73535
1.73527
1.7354
1.7355
1.73545
1.73534
1.7352
1.73513
1.73528
1.7354
1.73535
1.73522
1.73507
1.73502
1.73516
1.7353
1.73525
1.73511
1.73499
1.73498
1.73507
1.7352
1.73516
1.73504
1.735
1.73501
1.73502
1.73512
1.7351
1.73502
1.73505
1.73508
1.73501
1.73507
1.73507
1.73503
1.73514
1.73519
1.73504
1.73506
1.73507
1.73508
1.73527
1.73533
1.73511
1.73507
1.7351
1.73517
1.73543
1.73551
1.73521
1.73512
1.73517
1.73529
1.73562
1.73572
1.73534
1.73519
1.73526
1.73544
1.73585
1.73596
1.73551
1.7353
1.73539
1.73563
1.73609
1.73621
1.73572
1.73545
1.73556
1.73584
1.73635
1.73647
1.73594
1.73563
1.73575
1.73607
1.7366
1.73672
1.73617
1.73583
1.73596
1.73631
1.73686
1.73698
1.73642
1.73605
1.73618
1.73656
1.73712
1.73723
1.73668
1.73628
1.73643
1.73682
1.73736
1.73748
1.73694
1.73653
1.73669
1.73708
1.7376
1.7377
1.73719
1.73679
1.73695
1.73733
1.73781
1.7379
1.73743
1.73705
1.7372
1.73756
1.738
1.73809
1.73766
1.7373
1.73744
1.73777
1.73819
1.73827
1.73786
1.73753
1.73765
1.73796
1.73836
1.73844
1.73804
1.73773
1.73784
1.73814
1.73854
1.73862
1.73821
1.73791
1.73801
1.73831
1.73871
1.73878
1.73838
1.73807
1.73817
1.73846
1.73885
1.73891
1.73852
1.73822
1.7383
1.73859
1.73897
1.73901
1.73864
1.73834
1.73841
1.73869
1.73905
1.73907
1.73872
1.73844
1.7385
1.73876
1.73908
1.73908
1.73877
1.73851
1.73855
1.73879
1.73908
1.73906
1.73879
1.73855
1.73857
1.73879
1.73903
1.739
1.73877
1.73855
1.73856
1.73875
1.73896
1.73892
1.73872
1.73853
1.73852
1.73869
1.73887
1.73881
1.73865
1.73848
1.73846
1.73861
1.73874
1.73867
1.73856
1.73842
1.73838
1.7385
1.73859
1.73851
1.73843
1.73833
1.73828
1.73837
1.73843
1.73835
1.7383
1.73822
1.73817
1.73823
1.73828
1.73821
1.73816
1.7381
1.73805
1.73809
1.73815
1.73808
1.73803
1.73799
1.73794
1.73797
1.73803
1.73797
1.73791
1.73788
1.73783
1.73785
1.73793
1.73788
1.73779
1.73777
1.73773
1.73775
1.73786
1.73784
1.73769
1.73766
1.73761
1.73765
1.73783
1.73782
1.73761
1.73755
1.73751
1.73759
1.73783
1.73783
1.73756
1.73746
1.73743
1.73755
1.73784
1.73784
1.73752
1.73738
1.73735
1.73751
1.73784
1.73785
1.73749
1.73731
1.73727
1.73747
1.73785
1.73784
1.73745
1.73722
1.73719
1.73743
1.73784
1.73783
1.7374
1.73713
1.7371
1.73739
1.73781
1.73779
1.73737
1.73705
1.73702
1.73736
1.73775
1.73769
1.73733
1.73698
1.73696
1.73731
1.73762
1.73753
1.73727
1.73692
1.73691
1.73723
1.73743
1.73732
1.73718
1.73687
1.73686
1.73712
1.73721
1.7371
1.73705
1.73681
1.73678
1.73697
1.737
1.73692
1.73689
1.73673
1.73668
1.73681
1.73685
1.73681
1.73674
1.73661
1.73657
1.73669
1.73679
1.73678
1.73665
1.73651
1.73648
1.73662
1.73678
1.73679
1.73661
1.73646
1.73646
1.73661
1.73679
1.73679
1.73661
1.73646
1.73646
1.7366
1.73678
1.73679
1.73658
1.73645
1.73643
1.73656
1.73681
1.73684
1.73654
1.7364
1.73635
1.73652
1.73687
1.73691
1.73649
1.7363
1.73625
1.7365
1.73697
1.73702
1.7365
1.73619
1.73615
1.73652
1.73711
1.73724
1.73654
1.73611
1.7361
1.73663
1.73738
1.73748
1.73671
1.73611
1.73618
1.73682
1.73763
1.73778
1.73692
1.73622
1.73632
1.73705
1.73795
1.73814
1.7372
1.73639
1.73656
1.73738
1.73833
1.73854
1.73755
1.73668
1.7369
1.73779
1.73872
1.73882
1.73798
1.73711
1.73732
1.73813
1.73894
1.73905
1.73828
1.73746
1.73766
1.73844
1.73909
1.7391
1.73855
1.73781
1.73797
1.73863
1.73911
1.73912
1.73868
1.73805
1.73814
1.73873
1.73916
1.73922
1.7388
1.73823
1.73837
1.7389
1.73926
1.73929
1.73896
1.73845
1.73853
1.73902
1.7393
1.73931
1.7391
1.73866
1.7388
1.73917
1.7393
1.7393
1.7392
1.7389
1.73898
1.73924
1.73933
1.73934
1.73927
1.73906
1.73913
1.7393
1.73933
1.73934
1.73932
1.73919
1.73925
1.73935
1.73936
1.73932
1.73935
1.73928
1.73929
1.73931
1.73925
1.73918
1.73923
1.73923
1.73916
1.73916
1.73911
1.73903
1.73908
1.73909
1.73898
1.73897
1.73899
1.73905
1.73889
1.73885
1.73876
1.73888
1.73917
1.73927
1.73891
1.73872
1.73871
1.73898
1.73941
1.73959
1.73908
1.73876
1.73886
1.73925
1.73974
1.73989
1.73946
1.73903
1.73925
1.73966
1.74004
1.74014
1.73982
1.73944
1.73958
1.73991
1.74013
1.74006
1.73997
1.7397
1.73981
1.74002
1.7401
1.74024
1.74008
1.7399
1.73997
1.74013
1.7404
1.7405
1.74023
1.74004
1.74014
1.74035
1.74053
1.74052
1.74044
1.74023
1.74041
1.74062
1.74078
1.74125
1.74075
1.74056
1.74073
1.74094
1.74154
1.7416
1.74119
1.74087
1.74113
1.74141
1.74124
1.7405
1.74149
1.74139
1.74146
1.74131
1.73984
1.73942
1.74092
1.74144
1.74124
1.74034
1.73934
1.73939
1.7399
1.74066
1.74015
1.73967
1.73942
1.73938
1.73951
1.73979
1.73992
1.73976
1.73966
1.73985
1.74004
1.74017
1.74004
1.73984
1.73952
1.73937
1.73977
1.74
1.74036
1.74012
1.73966
1.73965
1.74021
1.74051
1.74042
1.74005
1.73939
1.73912
1.73983
1.7403
1.7403
1.7398
1.73916
1.73932
1.73984
1.7403
1.74014
1.7397
1.73928
1.73908
1.73955
1.73998
1.74008
1.73963
1.73885
1.73848
1.73967
1.7402
1.74008
1.73941
1.73815
1.73802
1.73916
1.73999
1.73992
1.73898
1.73815
1.73811
1.73864
1.73942
1.73901
1.73841
1.73786
1.73725
1.73829
1.73887
1.73914
1.73846
1.73694
1.73707
1.73874
1.73956
1.7392
1.73804
1.73632
1.73533
1.73696
1.73843
1.73802
1.73666
1.73532
1.73542
1.73659
1.73785
1.73751
1.73643
1.73524
1.7352
1.73651
1.73758
1.73726
1.7361
1.73467
1.73846
1.73895
1.739
1.73887
1.73865
1.73823
1.73776
1.73707
1.7364
1.73561
1.73491
1.7341
1.73336
1.73261
1.73201
1.73146
1.73107
1.73069
1.73041
1.73
1.72992
1.72989
1.72993
1.72991
1.72994
1.72991
1.72993
1.72989
1.72987
1.72983
1.72985
1.72973
1.72989
1.7295
1.73017
1.72999
1.72984
1.73004
1.73016
1.73013
1.73002
1.72998
1.72998
1.72998
1.72998
1.72999
1.73
1.73
1.73002
1.73004
1.72998
1.72957
1.72919
1.73105
1.72981
1.72979
1.7298
1.72974
1.72975
1.73002
1.7303
1.72983
1.72994
1.73041
1.73021
1.73107
1.73109
1.7307
1.73087
1.73137
1.73142
1.73307
1.73575
1.73248
1.73215
1.73348
1.73303
1.73998
1.74392
1.73602
1.73596
1.74009
1.74242
1.74833
1.75708
1.7523
1.74958
1.75835
1.76098
1.76507
1.77213
1.76932
1.76705
1.77357
1.7756
1.7774
1.78124
1.78048
1.77904
1.78284
1.78392
1.78395
1.78563
1.78656
1.78611
1.78785
1.788
1.78647
1.78649
1.78902
1.78932
1.79001
1.78944
1.78638
1.78597
1.78986
1.79074
1.79023
1.78905
1.78472
1.78296
1.78803
1.78952
1.78807
1.7863
1.78078
1.77883
1.78485
1.7868
1.78491
1.7827
1.77633
1.77406
1.78084
1.78314
1.78081
1.77823
1.7712
1.76865
1.77598
1.77856
1.77585
1.77297
1.76551
1.76272
1.7704
1.77317
1.77011
1.76699
1.75925
1.75622
1.7641
1.76694
1.7635
1.76023
1.75235
1.749
1.75694
1.75977
1.7559
1.75253
1.74461
1.74083
1.74876
1.75147
1.74705
1.74367
1.73579
1.73146
1.73927
1.74174
1.73661
1.7333
1.72557
1.72046
1.72808
1.73017
1.72409
1.72091
1.71339
1.70719
1.71456
1.71609
1.70863
1.70565
1.69844
1.69062
1.69761
1.69835
1.68881
1.68607
1.67925
1.66862
1.67519
1.67492
1.66138
1.65826
1.6523
1.63653
1.64183
1.63818
1.61853
1.6191
1.61492
1.59754
1.6016
1.59506
1.57638
1.58107
1.57769
1.56458
1.56801
1.56214
1.5481
1.55345
1.55006
1.54729
1.54995
1.54194
1.52928
1.5277
1.52095
1.51376
1.51546
1.51249
1.52098
1.5173
1.51866
1.52336
1.52136
1.52357
1.52112
1.52058
1.52253
1.52026
1.51764
1.51318
1.50018
1.50687
1.51139
1.4994
1.49561
1.48857
1.47257
1.47949
1.4825
1.47653
1.4734
1.46231
1.4431
1.44535
1.44734
1.42269
1.42048
1.41537
1.42361
1.41937
1.42524
1.42448
1.41827
1.41901
1.40823
1.4144
1.42316
1.40816
1.397
1.39008
1.3619
1.38342
1.39305
1.35908
1.34818
1.32931
1.27726
1.28829
1.29931
1.26843
1.25479
1.24776
1.23709
1.24702
1.26447
1.23364
1.21598
1.19791
1.11801
1.13931
1.16826
1.11705
1.08869
1.06914
1.02451
1.05422
1.09834
1.08021
1.04693
0.982331
0.978602
1.00902
1.07288
1.2496
1.19406
1.13556
1.34179
1.332
1.32099
1.27303
1.26855
1.2585
1.29306
1.29415
1.29534
1.29118
1.29021
1.28876
1.29147
1.29219
1.29267
1.29335
1.29256
1.29185
1.29357
1.29412
1.29441
1.29454
1.29435
1.29385
1.29352
1.29399
1.2945
1.29559
1.2954
1.2948
1.29475
1.29527
1.29547
1.29518
1.29476
1.29445
1.29537
1.29602
1.29617
1.29603
1.29584
1.29536
1.29498
1.29518
1.29555
1.29648
1.29638
1.29578
1.29567
1.29613
1.2963
1.29572
1.29538
1.29519
1.296
1.29656
1.29662
1.29641
1.29626
1.2958
1.29528
1.29543
1.29573
1.2966
1.2965
1.29592
1.29576
1.29622
1.29635
1.29564
1.29535
1.29522
1.29582
1.2964
1.29651
1.29625
1.29615
1.29573
1.29495
1.29511
1.29544
1.29632
1.29625
1.29564
1.29549
1.29593
1.29604
1.29517
1.29484
1.29465
1.29528
1.29596
1.29605
1.29581
1.29568
1.29522
1.29455
1.29469
1.29502
1.29566
1.29554
1.29505
1.29438
1.29454
1.29481
1.29559
1.29553
1.29502
1.29449
1.29492
1.29508
1.29427
1.29391
1.29373
1.29454
1.29511
1.29514
1.29465
1.29445
1.29393
1.29329
1.2935
1.29386
1.29474
1.29468
1.29398
1.29371
1.29423
1.29439
1.29348
1.29308
1.29286
1.29349
1.29403
1.29415
1.29325
1.29293
1.29273
1.29332
1.29396
1.29404
1.29352
1.29329
1.29281
1.29215
1.29237
1.29278
1.29345
1.29337
1.29291
1.29175
1.29203
1.29239
1.29314
1.293
1.29222
1.29189
1.29243
1.29265
1.2919
1.29149
1.29125
1.29191
1.29272
1.2928
1.29224
1.29198
1.29135
1.29063
1.29094
1.29142
1.29216
1.29202
1.29135
1.29065
1.29091
1.2913
1.29181
1.29169
1.29107
1.28998
1.29033
1.29075
1.29154
1.29145
1.29064
1.2903
1.29092
1.29114
1.29033
1.28992
1.28969
1.28984
1.29065
1.29085
1.28981
1.28937
1.289
1.28948
1.29044
1.29059
1.29025
1.29002
1.28942
1.28864
1.28894
1.28942
1.28999
1.28977
1.28891
1.28813
1.2885
1.28899
1.28954
1.28935
1.28865
1.28785
1.28824
1.28868
1.28948
1.28942
1.28859
1.28805
1.2887
1.28893
1.28795
1.28741
1.28702
1.28766
1.28845
1.28866
1.2877
1.28717
1.28678
1.28752
1.28816
1.28831
1.28732
1.28685
1.28645
1.28689
1.2879
1.28805
1.28747
1.28717
1.28644
1.28565
1.2861
1.28666
1.28739
1.28716
1.28625
1.28555
1.28595
1.28648
1.28704
1.28687
1.28607
1.28491
1.28542
1.28595
1.28677
1.28659
1.28543
1.28522
1.28598
1.2863
1.2855
1.28488
1.28437
1.28516
1.2861
1.28629
1.28528
1.28472
1.28422
1.28467
1.28564
1.28587
1.28483
1.28422
1.2837
1.28437
1.28523
1.28545
1.28457
1.28404
1.28352
1.28415
1.28527
1.28539
1.2848
1.28447
1.2836
1.28275
1.28327
1.28391
1.28466
1.28439
1.28329
1.28248
1.28303
1.28365
1.28426
1.28398
1.2829
1.28227
1.28281
1.28341
1.28401
1.28384
1.28293
1.28183
1.28232
1.28292
1.28344
1.28318
1.28217
1.28141
1.28196
1.28253
1.28329
1.28309
1.28186
1.28151
1.2824
1.28277
1.282
1.28136
1.28082
1.28137
1.28248
1.28273
1.28166
1.28103
1.28042
1.28086
1.28198
1.28227
1.28139
1.28075
1.28017
1.28082
1.28178
1.28199
1.28097
1.28033
1.27978
1.28022
1.28125
1.28153
1.28066
1.28004
1.27939
1.28003
1.28129
1.28146
1.28083
1.28043
1.27944
1.27876
1.27935
1.28002
1.28076
1.28046
1.27922
1.27841
1.27908
1.27976
1.28044
1.28016
1.27905
1.27832
1.27891
1.27957
1.28013
1.27989
1.27885
1.27785
1.27843
1.27909
1.27962
1.27931
1.27818
1.2775
1.27816
1.27881
1.27961
1.2794
1.27802
1.2778
1.27875
1.27911
1.27818
1.27744
1.27673
1.27742
1.27866
1.27896
1.27796
1.27725
1.27654
1.27719
1.27835
1.27863
1.27766
1.27693
1.27626
1.27693
1.278
1.27827
1.27724
1.27652
1.2759
1.2762
1.27742
1.27778
1.27701
1.2763
1.27559
1.27612
1.27758
1.27781
1.27731
1.27693
1.2759
1.27473
1.27554
1.27634
1.27717
1.27683
1.27546
1.27481
1.27552
1.27625
1.27687
1.27653
1.27521
1.27439
1.27513
1.27591
1.27657
1.27625
1.27506
1.27433
1.27496
1.27571
1.27627
1.27593
1.27468
1.27401
1.27476
1.27549
1.27629
1.27608
1.27461
1.274
1.27513
1.27561
1.2748
1.27394
1.27311
1.27392
1.27533
1.27568
1.27483
1.27404
1.27322
1.27388
1.27521
1.27553
1.27466
1.27392
1.27325
1.27346
1.27483
1.27518
1.27426
1.27351
1.2728
1.27319
1.27444
1.27481
1.27407
1.27332
1.27248
1.27302
1.2746
1.27488
1.27448
1.27414
1.2731
1.27173
1.27262
1.27351
1.27435
1.27399
1.27261
1.27184
1.27258
1.27336
1.2739
1.27348
1.27198
1.27138
1.2722
1.27299
1.27361
1.27318
1.27188
1.2713
1.27223
1.273
1.2738
1.27356
1.27206
1.27192
1.27301
1.27336
1.2724
1.2715
1.27058
1.27162
1.27292
1.27323
1.2721
1.27125
1.27036
1.27075
1.27225
1.27272
1.27199
1.27118
1.27032
1.27106
1.27222
1.27259
1.27193
1.27121
1.27038
1.27078
1.27234
1.27262
1.272
1.27163
1.27054
1.26911
1.27006
1.27094
1.27166
1.27124
1.26982
1.26877
1.26977
1.27073
1.27153
1.27112
1.26997
1.26937
1.27023
1.27099
1.27169
1.27139
1.26974
1.26958
1.27074
1.27114
1.27007
1.26917
1.26825
1.26868
1.27027
1.27075
1.26976
1.26883
1.26785
1.26846
1.2699
1.27045
1.27007
1.26931
1.2684
1.26892
1.27048
1.27079
1.27029
1.26997
1.26882
1.26724
1.26825
1.26915
1.26975
1.26931
1.26778
1.26646
1.26758
1.26856
1.26931
1.26872
1.26716
1.26761
1.26844
1.26912
1.26972
1.26939
1.26791
1.2678
1.26892
1.26923
1.26797
1.26713
1.26615
1.26642
1.268
1.26848
1.26761
1.26657
1.26525
1.2659
1.26796
1.26861
1.26842
1.26803
1.26689
1.2657
1.2666
1.26752
1.26814
1.26768
1.26625
1.26523
1.26619
1.26707
1.26766
1.2671
1.26518
1.26453
1.26603
1.26684
1.26642
1.2655
1.26448
1.26557
1.26672
1.2672
1.26678
1.26615
1.26538
1.26545
1.26687
1.26724
1.26613
1.26569
1.26465
1.26225
1.26343
1.26456
1.26548
1.2646
1.26295
1.26481
1.26555
1.26611
1.26669
1.26645
1.26544
1.26451
1.2655
1.2659
1.26418
1.26317
1.26226
1.26168
1.26363
1.26452
1.2647
1.26379
1.26216
1.26409
1.26477
1.2653
1.2659
1.26562
1.26458
1.2637
1.26472
1.265
1.26315
1.26201
1.26041
1.26071
1.26306
1.26425
1.26462
1.26413
1.26306
1.26341
1.26403
1.26449
1.26484
1.26456
1.26374
1.26183
1.26301
1.26351
1.26302
1.26147
1.259
1.26351
1.26415
1.26456
1.26464
1.26481
1.26404
1.2607
1.2619
1.26294
1.26267
1.26176
1.25994
1.26144
1.26312
1.26367
1.26443
1.26367
1.26321
1.26228
1.26334
1.26363
1.26468
1.2644
1.26228
1.26373
1.26499
1.26515
1.26639
1.26554
1.26456
1.26323
1.26606
1.26665
1.26926
1.26924
1.26646
1.26938
1.27121
1.27121
1.27308
1.27261
1.26775
1.27658
1.27817
1.27822
1.28215
1.28107
1.2776
1.28766
1.28825
1.28834
1.29329
1.29382
1.29441
1.30316
1.30122
1.30024
1.30594
1.30698
1.30737
1.30993
1.30942
1.30873
1.31148
1.31215
1.31263
1.31457
1.31413
1.31356
1.31551
1.3161
1.31656
1.3181
1.31765
1.31712
1.31864
1.3192
1.31967
1.32094
1.32047
1.31996
1.3212
1.32174
1.32223
1.3233
1.32282
1.32231
1.32336
1.32389
1.32439
1.32534
1.32483
1.32432
1.32524
1.32576
1.32628
1.32712
1.3266
1.32609
1.32691
1.32743
1.32796
1.32872
1.32819
1.32767
1.32841
1.32893
1.32947
1.33018
1.32963
1.32911
1.32979
1.33031
1.33087
1.33152
1.33096
1.33044
1.33107
1.33159
1.33216
1.33277
1.3322
1.33168
1.33227
1.33279
1.33337
1.33395
1.33336
1.33284
1.3334
1.33393
1.33452
1.33507
1.33447
1.33394
1.33448
1.33501
1.33561
1.33613
1.33553
1.335
1.33551
1.33604
1.33665
1.33716
1.33654
1.33601
1.3365
1.33704
1.33766
1.33815
1.33752
1.33699
1.33746
1.338
1.33863
1.33911
1.33847
1.33793
1.33839
1.33894
1.33958
1.34004
1.3394
1.33885
1.3393
1.33986
1.3405
1.34096
1.34031
1.33975
1.3402
1.34075
1.34141
1.34185
1.34119
1.34063
1.34107
1.34163
1.34229
1.34273
1.34206
1.3415
1.34193
1.34249
1.34317
1.3436
1.34292
1.34235
1.34277
1.34334
1.34403
1.34445
1.34377
1.34319
1.34361
1.34419
1.34488
1.3453
1.3446
1.34403
1.34444
1.34502
1.34572
1.34613
1.34543
1.34485
1.34526
1.34584
1.34655
1.34696
1.34625
1.34566
1.34607
1.34666
1.34738
1.34779
1.34707
1.34648
1.34688
1.34748
1.3482
1.34861
1.34788
1.34728
1.34768
1.34828
1.34902
1.34942
1.34869
1.34808
1.34848
1.34909
1.34983
1.35024
1.34949
1.34888
1.34928
1.34989
1.35064
1.35105
1.35029
1.34967
1.35007
1.35069
1.35145
1.35185
1.35109
1.35047
1.35086
1.35149
1.35226
1.35266
1.35189
1.35126
1.35165
1.35229
1.35306
1.35347
1.35268
1.35205
1.35244
1.35308
1.35387
1.35427
1.35348
1.35284
1.35323
1.35388
1.35467
1.35507
1.35427
1.35363
1.35402
1.35467
1.35548
1.35588
1.35507
1.35441
1.35481
1.35547
1.35628
1.35668
1.35586
1.3552
1.3556
1.35626
1.35709
1.35749
1.35666
1.35599
1.35639
1.35706
1.35789
1.3583
1.35746
1.35678
1.35718
1.35786
1.3587
1.35911
1.35826
1.35757
1.35797
1.35866
1.35951
1.35992
1.35906
1.35836
1.35876
1.35946
1.36032
1.36073
1.35986
1.35916
1.35955
1.36026
1.36114
1.36154
1.36066
1.35995
1.36035
1.36106
1.36195
1.36236
1.36147
1.36075
1.36115
1.36187
1.36277
1.36318
1.36227
1.36155
1.36195
1.36268
1.36359
1.364
1.36309
1.36235
1.36275
1.36349
1.36442
1.36483
1.3639
1.36316
1.36356
1.36431
1.36524
1.36566
1.36472
1.36397
1.36437
1.36513
1.36607
1.36649
1.36554
1.36477
1.36518
1.36595
1.36691
1.36732
1.36636
1.36559
1.366
1.36677
1.36774
1.36816
1.36718
1.36641
1.36682
1.3676
1.36858
1.36901
1.36801
1.36723
1.36764
1.36843
1.36943
1.36985
1.36885
1.36805
1.36846
1.36927
1.37028
1.3707
1.36968
1.36888
1.36929
1.3701
1.37113
1.37156
1.37052
1.36971
1.37012
1.37095
1.37199
1.37242
1.37137
1.37054
1.37096
1.3718
1.37285
1.37328
1.37222
1.37138
1.3718
1.37265
1.37372
1.37415
1.37308
1.37222
1.37265
1.37351
1.37459
1.37503
1.37394
1.37307
1.3735
1.37437
1.37547
1.37591
1.3748
1.37393
1.37436
1.37524
1.37635
1.3768
1.37567
1.37479
1.37522
1.37611
1.37724
1.37769
1.37655
1.37565
1.37608
1.37699
1.37814
1.37859
1.37743
1.37652
1.37695
1.37787
1.37904
1.37949
1.37831
1.37739
1.37783
1.37876
1.37995
1.3804
1.37921
1.37827
1.37871
1.37966
1.38086
1.38132
1.38011
1.37916
1.3796
1.38056
1.38178
1.38224
1.38101
1.38005
1.3805
1.38147
1.38271
1.38318
1.38192
1.38094
1.38139
1.38238
1.38364
1.38411
1.38284
1.38185
1.3823
1.3833
1.38459
1.38506
1.38377
1.38276
1.38321
1.38423
1.38554
1.38601
1.3847
1.38367
1.38413
1.38517
1.38649
1.38697
1.38564
1.3846
1.38506
1.38611
1.38746
1.38794
1.38658
1.38553
1.386
1.38706
1.38843
1.38892
1.38754
1.38646
1.38694
1.38802
1.38941
1.38991
1.3885
1.38741
1.38788
1.38898
1.3904
1.3909
1.38947
1.38836
1.38884
1.38995
1.3914
1.3919
1.39044
1.38932
1.3898
1.39093
1.3924
1.39291
1.39143
1.39028
1.39076
1.39192
1.39342
1.39393
1.39242
1.39125
1.39174
1.39291
1.39444
1.39495
1.39341
1.39223
1.39272
1.39392
1.39547
1.39599
1.39442
1.39321
1.39371
1.39493
1.39651
1.39703
1.39543
1.39421
1.3947
1.39594
1.39755
1.39808
1.39646
1.3952
1.39571
1.39697
1.39861
1.39914
1.39749
1.39621
1.39671
1.398
1.39968
1.40021
1.39852
1.39722
1.39773
1.39904
1.40075
1.40129
1.39957
1.39824
1.39876
1.40009
1.40183
1.40238
1.40062
1.39927
1.39979
1.40115
1.40292
1.40348
1.40168
1.40031
1.40083
1.40221
1.40403
1.40458
1.40275
1.40135
1.40188
1.40329
1.40514
1.4057
1.40383
1.4024
1.40293
1.40437
1.40626
1.40683
1.40492
1.40346
1.40399
1.40546
1.40739
1.40796
1.40601
1.40453
1.40506
1.40656
1.40853
1.40911
1.40712
1.4056
1.40614
1.40767
1.40968
1.41026
1.40823
1.40668
1.40723
1.40879
1.41084
1.41143
1.40935
1.40777
1.40832
1.40991
1.41201
1.4126
1.41048
1.40887
1.40942
1.41105
1.4132
1.41379
1.41161
1.40997
1.41053
1.41219
1.41439
1.41499
1.41276
1.41108
1.41165
1.41334
1.4156
1.4162
1.41392
1.41221
1.41277
1.41451
1.41681
1.41743
1.41509
1.41334
1.41391
1.41568
1.41804
1.41866
1.41627
1.41448
1.41505
1.41686
1.41928
1.41991
1.41746
1.41563
1.4162
1.41806
1.42054
1.42117
1.41866
1.41678
1.41737
1.41927
1.42181
1.42245
1.41987
1.41795
1.41854
1.42048
1.42309
1.42374
1.4211
1.41913
1.41972
1.42171
1.42439
1.42505
1.42234
1.42032
1.42091
1.42296
1.42571
1.42637
1.42359
1.42152
1.42212
1.42421
1.42704
1.42771
1.42485
1.42273
1.42334
1.42548
1.42838
1.42906
1.42612
1.42395
1.42457
1.42677
1.42975
1.43044
1.42741
1.42518
1.4258
1.42807
1.43113
1.43183
1.42872
1.42643
1.42706
1.42938
1.43253
1.43324
1.43004
1.42769
1.42832
1.4307
1.43395
1.43467
1.43138
1.42896
1.4296
1.43205
1.4354
1.43613
1.43273
1.43025
1.4309
1.43341
1.43686
1.4376
1.4341
1.43155
1.4322
1.43479
1.43834
1.4391
1.43549
1.43286
1.43353
1.43619
1.43985
1.44062
1.4369
1.43419
1.43486
1.4376
1.44139
1.44216
1.43832
1.43554
1.43622
1.43904
1.44294
1.44373
1.43976
1.4369
1.43759
1.4405
1.44452
1.44532
1.44123
1.43828
1.43897
1.44197
1.44613
1.44694
1.44271
1.43967
1.44038
1.44346
1.44775
1.44857
1.44422
1.44108
1.44179
1.44498
1.4494
1.45024
1.44574
1.44251
1.44323
1.44651
1.45108
1.45192
1.44728
1.44395
1.44468
1.44806
1.45277
1.45363
1.44885
1.44542
1.44615
1.44964
1.45449
1.45535
1.45043
1.4469
1.44764
1.45123
1.45622
1.4571
1.45203
1.44839
1.44915
1.45284
1.45797
1.45885
1.45366
1.44991
1.45067
1.45447
1.45974
1.46062
1.4553
1.45144
1.45221
1.45612
1.4615
1.46238
1.45695
1.45299
1.45377
1.45779
1.46326
1.46414
1.45863
1.45456
1.45535
1.45946
1.46501
1.46588
1.46031
1.45614
1.45694
1.46115
1.46673
1.46758
1.462
1.45775
1.45856
1.46285
1.46841
1.46922
1.4637
1.45937
1.46019
1.46456
1.47001
1.47077
1.46542
1.46102
1.46186
1.46629
1.4715
1.47221
1.46716
1.4627
1.46355
1.46804
1.47287
1.47349
1.46892
1.46441
1.46528
1.46982
1.47406
1.47458
1.4707
1.46615
1.46704
1.47158
1.47505
1.47548
1.47244
1.46794
1.46884
1.47329
1.47586
1.4762
1.47409
1.46976
1.47068
1.47486
1.47652
1.47681
1.47557
1.47161
1.47254
1.47624
1.47707
1.47732
1.47683
1.47348
1.47441
1.47738
1.47756
1.47779
1.47786
1.47532
1.47621
1.47828
1.47802
1.47825
1.47866
1.47706
1.47786
1.47901
1.47849
1.47872
1.47932
1.4786
1.47928
1.47961
1.47896
1.4792
1.47988
1.47989
1.48044
1.48015
1.47945
1.4797
1.4804
1.48093
1.48136
1.48066
1.47996
1.48022
1.48092
1.48176
1.48213
1.48118
1.48048
1.48074
1.48144
1.48246
1.48278
1.4817
1.48101
1.48128
1.48197
1.48309
1.48339
1.48224
1.48155
1.48182
1.48251
1.48368
1.48397
1.48279
1.48209
1.48236
1.48306
1.48426
1.48455
1.48334
1.48263
1.48291
1.48362
1.48485
1.48514
1.48391
1.48318
1.48346
1.48419
1.48544
1.48575
1.48448
1.48374
1.48402
1.48477
1.48605
1.48636
1.48506
1.48431
1.48459
1.48536
1.48667
1.48698
1.48565
1.48488
1.48516
1.48595
1.4873
1.48761
1.48625
1.48545
1.48574
1.48655
1.48793
1.48826
1.48686
1.48604
1.48633
1.48717
1.48858
1.48891
1.48748
1.48663
1.48693
1.48779
1.48925
1.48958
1.48811
1.48724
1.48754
1.48843
1.48992
1.49026
1.48875
1.48786
1.48817
1.48908
1.4906
1.49094
1.48941
1.48849
1.48881
1.48975
1.49129
1.49164
1.49009
1.48913
1.48946
1.49043
1.492
1.49236
1.49078
1.4898
1.49013
1.49113
1.49272
1.49308
1.49148
1.49047
1.49082
1.49184
1.49345
1.49382
1.49221
1.49117
1.49152
1.49258
1.49419
1.49456
1.49295
1.49188
1.49225
1.49333
1.49494
1.49532
1.49372
1.49262
1.49299
1.4941
1.4957
1.49608
1.4945
1.49337
1.49375
1.49489
1.49647
1.49686
1.4953
1.49414
1.49454
1.4957
1.49725
1.49765
1.49612
1.49494
1.49534
1.49653
1.49805
1.49845
1.49696
1.49576
1.49617
1.49738
1.49885
1.49926
1.49781
1.4966
1.49703
1.49825
1.49967
1.50008
1.49869
1.49746
1.4979
1.49914
1.5005
1.50092
1.49959
1.49835
1.49881
1.50005
1.50134
1.50176
1.50051
1.49927
1.49974
1.50098
1.50219
1.50263
1.50145
1.50021
1.50069
1.50193
1.50306
1.5035
1.50241
1.50118
1.50168
1.5029
1.50395
1.5044
1.50339
1.50218
1.50269
1.50389
1.50486
1.50531
1.50439
1.5032
1.50372
1.5049
1.50578
1.50625
1.50542
1.50426
1.50479
1.50593
1.50672
1.5072
1.50646
1.50534
1.50589
1.50699
1.50769
1.50818
1.50752
1.50645
1.50701
1.50806
1.50867
1.50917
1.5086
1.50758
1.50816
1.50915
1.50968
1.51019
1.5097
1.50875
1.50934
1.51026
1.5107
1.51122
1.51082
1.50994
1.51054
1.51138
1.51175
1.51228
1.51195
1.51115
1.51177
1.51252
1.51281
1.51334
1.51309
1.51239
1.513
1.51366
1.51388
1.51443
1.51423
1.51363
1.51425
1.5148
1.51497
1.51551
1.51537
1.51487
1.51549
1.51594
1.51605
1.51658
1.5165
1.5161
1.5167
1.51705
1.51711
1.51763
1.51759
1.5173
1.51787
1.51811
1.51813
1.51862
1.51862
1.51843
1.51896
1.5191
1.51909
1.51954
1.51957
1.51947
1.51994
1.51999
1.51995
1.52033
1.52039
1.52038
1.52077
1.52073
1.52065
1.52093
1.52103
1.5211
1.52136
1.52125
1.52115
1.52129
1.52142
1.52155
1.5215
1.52137
1.52125
1.52109
1.52124
1.52139
1.5212
1.52105
1.52086
1.52053
1.52075
1.5209
1.52034
1.52021
1.52001
1.51936
1.51954
1.51961
1.51848
1.51846
1.51825
1.51705
1.51727
1.51721
1.51465
1.51473
1.51445
1.51458
1.51502
1.51485
1.51348
1.51256
1.51173
1.51094
1.51057
1.51028
1.5101
1.50996
1.50986
1.50978
1.50969
1.50962
1.5095
1.50937
1.50924
1.50936
1.50931
1.50936
1.50931
1.50922
1.50923
1.50919
1.50896
1.50763
1.50113
1.48099
1.4551
1.42547
1.39677
1.3828
1.37859
1.37592
1.37376
1.37184
1.37
1.36821
1.36643
1.36462
1.36287
1.36116
1.35945
1.35765
1.35579
1.35387
1.35191
1.34995
1.34808
1.34629
1.34461
1.34309
1.34173
1.34056
1.33959
1.3388
1.33808
1.3375
1.33708
1.33686
1.33671
1.33676
1.33663
1.33677
1.33669
1.33676
1.33773
1.33889
1.33857
1.33825
1.33803
1.33785
1.33767
1.33753
1.33741
1.33731
1.33725
1.33722
1.33722
1.33726
1.33733
1.33744
1.33758
1.33776
1.33796
1.3382
1.33847
1.33877
1.33909
1.33944
1.33981
1.3402
1.3406
1.34102
1.34146
1.3419
1.34234
1.34279
1.34324
1.34369
1.34414
1.34459
1.34502
1.34546
1.34588
1.34631
1.34672
1.34714
1.34754
1.34795
1.34835
1.34876
1.34916
1.34956
1.34996
1.35036
1.35075
1.35115
1.35155
1.35196
1.35236
1.35276
1.35317
1.35357
1.35398
1.35438
1.35478
1.35518
1.35558
1.35598
1.35636
1.35675
1.35712
1.35749
1.35784
1.35819
1.35852
1.35884
1.35914
1.35943
1.35971
1.35996
1.36019
1.3604
1.36059
1.36076
1.36089
1.36101
1.36109
1.36115
1.36119
1.36119
1.36118
1.36114
1.36107
1.36099
1.36089
1.36078
1.36065
1.36052
1.36038
1.36024
1.3601
1.35997
1.35985
1.35974
1.35965
1.35958
1.35954
1.35953
1.35954
1.3596
1.35969
1.3598
1.35995
1.36012
1.36031
1.36047
1.36059
1.36085
1.36148
1.36223
1.36302
1.36382
1.36462
1.36553
1.36666
1.36792
1.36936
1.371
1.37286
1.37498
1.37738
1.3801
1.38317
1.38662
1.39051
1.39489
1.39973
1.40513
1.41112
1.41773
1.425
1.43296
1.44163
1.45105
1.46122
1.47216
1.48388
1.49635
1.50958
1.52353
1.53816
1.55343
1.56928
1.58562
1.60238
1.61945
1.6367
1.65403
1.67128
1.6883
1.70494
1.72105
1.73647
1.75103
1.76462
1.7771
1.78839
1.7984
1.80708
1.81453
1.82099
1.82538
1.82822
1.83029
1.83152
1.83139
1.83029
1.82865
1.82682
1.82424
1.82104
1.81735
1.81326
1.80886
1.80423
1.79946
1.7946
1.78972
1.78487
1.7801
1.77545
1.77094
1.76661
1.76248
1.75857
1.75487
1.75141
1.74818
1.74517
1.74239
1.73983
1.73747
1.73532
1.73336
1.73158
1.72998
1.72853
1.72724
1.7261
1.72509
1.7242
1.72343
1.72278
1.72223
1.72177
1.72141
1.72113
1.72091
1.72079
1.72076
1.72072
1.72071
1.72077
1.72099
1.72125
1.72153
1.72185
1.72225
1.7227
1.72322
1.7238
1.72445
1.72516
1.72593
1.72675
1.72762
1.72853
1.72949
1.73047
1.73148
1.7325
1.73355
1.73464
1.73493
1.7355
1.73641
1.73768
1.73917
1.74085
1.74259
1.74433
1.74599
1.74752
1.74886
1.74997
1.75082
1.75139
1.75168
1.7517
1.75147
1.75103
1.75042
1.74968
1.74886
1.74802
1.74721
1.74657
1.74632
1.74645
1.74647
1.74597
1.74464
1.7427
1.74038
1.73861
1.73787
1.73746
1.73706
1.73667
1.73634
1.73605
1.73581
1.73561
1.73545
1.73531
1.73521
1.73512
1.73503
1.73495
1.73485
1.73474
1.73471
1.73477
1.73483
1.73486
1.73489
1.73492
1.73495
1.73498
1.73501
1.73505
1.73509
1.73513
1.73517
1.73522
1.73526
1.7353
1.73534
1.73538
1.73541
1.73545
1.73548
1.73551
1.73554
1.73556
1.73559
1.73561
1.73564
1.73566
1.73568
1.73571
1.73573
1.73575
1.73577
1.7358
1.73582
1.73584
1.73586
1.73587
1.73589
1.73591
1.73593
1.73594
1.73595
1.73595
1.73594
1.73592
1.73591
1.73592
1.73597
1.73604
1.7361
1.73614
1.73616
1.73616
1.73612
1.73608
1.73604
1.736
1.73597
1.73593
1.7359
1.73588
1.73585
1.73583
1.73582
1.7358
1.73579
1.73578
1.73577
1.73576
1.73575
1.73573
1.73572
1.7357
1.73568
1.73565
1.73562
1.73559
1.73555
1.73552
1.73548
1.73544
1.73539
1.73535
1.73531
1.73527
1.73524
1.73521
1.73519
1.73516
1.73515
1.73513
1.73513
1.73513
1.73514
1.73515
1.73518
1.7352
1.73525
1.73529
1.73536
1.73541
1.73549
1.73555
1.73565
1.73572
1.73584
1.73592
1.73605
1.73614
1.73628
1.73639
1.73654
1.73664
1.73679
1.7369
1.73705
1.73714
1.73728
1.73737
1.73749
1.73756
1.73768
1.73774
1.73784
1.73789
1.73798
1.73803
1.7381
1.73813
1.7382
1.73821
1.73826
1.73827
1.7383
1.73829
1.73831
1.73828
1.73829
1.73826
1.73825
1.73822
1.7382
1.73816
1.73814
1.73809
1.73806
1.73801
1.73798
1.73793
1.73789
1.73785
1.73781
1.73777
1.73773
1.73768
1.73763
1.73757
1.73752
1.73745
1.7374
1.73734
1.73729
1.73723
1.73718
1.7371
1.73704
1.73695
1.73687
1.73679
1.7367
1.73662
1.73655
1.73647
1.73642
1.73636
1.73634
1.7363
1.73631
1.73628
1.73629
1.73625
1.73625
1.73621
1.7362
1.73617
1.73618
1.73618
1.73622
1.73623
1.73626
1.73625
1.73623
1.73619
1.73612
1.73602
1.73589
1.73574
1.73563
1.73552
1.73547
1.73543
1.73541
1.7354
1.73545
1.73551
1.73566
1.7358
1.73606
1.7362
1.73642
1.73656
1.73677
1.73689
1.73704
1.73716
1.73736
1.73749