/*--------------------------------*- C++ -*----------------------------------*\
| =========                 |                                                 |
| \\      /  F ield         | OpenFOAM: The Open Source CFD Toolbox           |
|  \\    /   O peration     | Version:  v2006                                 |
|   \\  /    A nd           | Website:  www.openfoam.com                      |
|    \\/     M anipulation  |                                                 |
\*---------------------------------------------------------------------------*/
FoamFile
{
    version     2.0;
    format      ascii;
    class       volScalarField;
    location    "0.045";
    object      k;
}
// * * * * * * * * * * * * * * * * * * * * * * * * * * * * * * * * * * * * * //

dimensions      [0 2 -2 0 0 0 0];


internalField   nonuniform List<scalar> 
23013
(
49.2503
49.2501
49.254
49.2551
49.2571
49.255
49.2529
49.2425
49.2121
49.1499
49.0533
48.9314
48.7961
48.6561
48.5154
48.3744
48.232
48.0866
47.937
47.7822
47.6217
47.4554
47.2833
47.1054
46.9219
46.7328
46.5382
46.3381
46.1325
45.9215
45.7051
45.4834
45.2565
45.0244
44.7873
44.5454
44.2987
44.0473
43.7915
43.5313
43.267
42.9986
42.7265
42.4506
42.1713
41.8886
41.6028
41.3141
41.0226
40.7286
40.4322
40.1336
39.8331
39.5308
39.227
38.9218
38.6155
38.3082
38.0003
37.6918
37.383
37.0741
36.7654
36.4569
36.1491
35.842
35.5359
35.2309
34.9274
34.6256
34.3255
34.0276
33.7319
33.4386
33.1481
32.8605
32.576
32.2948
32.0171
31.7432
31.4732
31.2073
30.9458
30.6888
30.4365
30.1891
29.9468
29.7097
29.4781
29.2521
29.0318
28.8174
28.6091
28.4069
28.211
28.0215
27.8385
27.6622
27.4927
27.3302
27.1746
27.0259
26.8832
26.7455
26.611
26.4791
26.3515
26.2366
26.1484
26.1003
26.0866
26.0909
26.1005
26.108
26.1088
26.1006
26.0841
26.0344
25.9369
25.7894
25.4939
24.9679
22.5252
20.0848
23.6753
25.0772
23.8386
20.8335
17.6469
16.003
19.6123
23.1058
21.3741
17.2341
14.3696
13.3616
16.4806
20.7637
19.3027
14.8428
12.2806
11.6648
14.4684
18.8962
17.8035
13.4614
10.953
10.5895
13.3189
17.575
16.7426
12.6786
10.1064
9.88552
12.6127
16.5897
15.9278
12.1402
9.5212
9.37903
12.1156
15.826
15.2636
11.7292
9.08382
8.98582
11.7254
15.193
14.6996
11.3915
8.73642
8.65941
11.3965
14.6488
14.2035
11.0942
8.44305
8.37841
11.1036
14.1656
13.7569
10.8239
8.18387
8.12775
10.8364
13.7286
13.3495
10.5744
7.94882
7.89898
10.5891
13.3286
12.9748
10.3422
7.73186
7.68684
10.3587
12.9599
12.6279
10.1248
7.52904
7.48789
10.1429
12.618
12.3055
9.92034
7.33774
7.29979
9.93972
12.3001
12.0054
9.72747
7.15608
7.12082
9.74801
12.004
11.7258
9.5451
6.98263
6.94968
9.56666
11.7274
11.4641
9.37206
6.81627
6.78532
9.39442
11.4679
11.2173
9.20691
6.65604
6.62673
9.22984
11.223
10.9837
9.04873
6.50435
6.48232
9.07271
10.9909
10.7623
8.90044
6.38342
6.36965
8.9265
10.7709
10.5529
8.7643
6.28316
6.27075
8.79195
10.563
10.355
8.63797
6.18731
6.17493
8.66665
10.3663
10.1676
8.51928
6.09257
6.07999
8.54868
10.18
9.98979
8.40684
5.99822
5.98542
8.43679
10.003
9.82064
8.29967
5.90406
5.89106
8.33002
9.83459
9.65937
8.19693
5.81002
5.79688
8.22753
9.67386
9.50515
8.09781
5.71604
5.70285
8.12846
9.51999
9.35711
8.00149
5.62215
5.60886
8.0321
9.37217
9.21454
7.90738
5.52819
5.5148
7.93787
9.22973
9.07697
7.81499
5.43412
5.42067
7.84532
9.09223
8.94393
7.72399
5.33999
5.32654
7.75411
8.95917
8.81496
7.63408
5.24592
5.23255
7.66397
8.83014
8.68968
7.54507
5.15211
5.13894
7.5747
8.70475
8.56778
7.45681
5.05883
5.04603
7.48617
8.5827
8.449
7.36926
4.96649
4.95428
7.39834
8.46377
8.33318
7.28247
4.87563
4.8643
7.31127
8.34781
8.22022
7.19658
4.78696
4.77689
7.22511
8.2347
8.11005
7.11185
4.7014
4.69307
7.14012
8.12442
8.00273
7.02867
4.62009
4.61405
7.0567
8.01703
7.89841
6.94755
4.54439
4.5413
6.97537
7.91272
7.79734
6.86914
4.47606
4.47656
6.89679
7.81176
7.69998
6.7944
4.4179
4.42193
6.82193
7.71465
7.60698
6.7244
4.371
4.37952
6.75194
7.62218
7.51936
6.66059
4.33835
4.35208
6.68835
7.53551
7.43809
6.60411
4.3225
4.34192
6.63219
7.45519
7.36352
6.5559
4.32256
4.35194
6.5845
7.38183
7.29678
6.51758
4.34061
4.38866
6.5468
7.31683
7.23985
6.48983
4.38446
4.44978
6.52021
7.26227
7.19516
6.47429
4.45418
4.53505
6.50772
7.22048
7.16315
6.47186
4.54879
4.64438
6.50931
7.19138
7.14447
6.48017
4.66745
4.77592
6.52198
7.17732
7.13941
6.49747
4.80759
4.92652
6.54527
7.17822
7.14764
6.52491
4.96507
5.0915
6.58067
7.19257
7.16722
6.56469
5.13541
5.2668
6.62932
7.2202
7.19862
6.61786
5.31463
5.44871
6.69198
7.26146
7.24361
6.68512
5.49904
5.63377
6.76915
7.31707
7.30264
6.7668
5.68528
5.81875
6.8595
7.38521
7.37352
6.86182
5.87027
6.00095
6.96205
7.46309
7.45364
6.96726
6.05192
6.17866
7.07162
7.54832
7.54044
7.07837
6.22801
6.34938
7.18476
7.6384
7.63157
7.19247
6.39633
6.51057
7.30013
7.7316
7.72552
7.30871
6.55746
6.68479
7.4189
7.82721
7.82187
7.43158
6.7459
6.89298
7.54975
7.92575
7.9217
7.56747
6.95787
7.10785
7.69396
8.02849
8.02592
7.71547
7.17142
7.31586
7.84554
8.13487
8.1335
7.87
7.37511
7.50934
8.00087
8.24302
8.2425
8.02795
7.56242
7.68402
8.15866
8.35097
8.35091
8.18739
7.72978
7.83738
8.3163
8.45665
8.4566
8.34549
7.875
7.96774
8.47073
8.55775
8.5573
8.49918
7.99667
8.07409
8.61899
8.65229
8.65109
8.6456
8.09404
8.15592
8.75858
8.73927
8.73678
8.78232
8.16701
8.21368
8.88718
8.81712
8.81303
8.9074
8.21641
8.24754
9.00324
8.88474
8.87892
9.01957
8.24403
8.26198
9.1066
8.94182
8.93385
9.11735
8.2535
8.2617
9.19451
8.98731
8.97731
9.19957
8.24542
8.25034
9.2675
9.02201
9.0103
9.2675
8.22469
8.22748
9.3254
9.04704
9.0338
9.32204
8.19513
8.19665
9.37208
9.06368
9.04768
9.36562
8.15966
8.16056
9.40858
9.07345
9.05499
9.39903
8.12054
8.12129
9.43618
9.07709
9.05633
9.42263
8.07938
8.08036
9.4562
9.07515
9.05224
9.4391
8.03756
8.03899
9.46941
9.0681
9.04321
9.44915
7.99593
7.99793
9.47651
9.05637
9.02977
9.45347
7.95498
7.95757
9.47817
9.0405
9.0124
9.45271
7.91496
7.91814
9.47506
9.02091
8.9915
9.44752
7.87599
7.87973
9.46784
8.99837
8.96736
9.4385
7.83809
7.84235
9.45705
8.97287
8.9403
9.42616
7.80123
7.80595
9.44314
8.94455
8.91066
9.41093
7.76532
7.77044
9.42651
8.91374
8.87875
9.3932
7.73027
7.73575
9.40756
8.88074
8.84487
9.37334
7.696
7.70179
9.38663
8.84585
8.80928
9.35166
7.66241
7.66847
9.36404
8.80933
8.77269
9.32852
7.62945
7.63574
9.3401
8.77158
8.73476
9.30416
7.59704
7.60354
9.31504
8.73258
8.69574
9.27877
7.56513
7.57181
9.28904
8.69258
8.65586
9.25255
7.53367
7.54051
9.26244
8.65181
8.61536
9.22565
7.50262
7.50961
9.23523
8.61048
8.5744
9.19823
7.47196
7.47907
9.20752
8.56876
8.53314
9.17043
7.44166
7.44889
9.17948
8.52679
8.49171
9.14239
7.41171
7.41907
9.15122
8.4847
8.45023
9.11422
7.38216
7.38968
9.12283
8.44258
8.40871
9.086
7.35311
7.3609
9.09452
8.40033
8.36571
9.05591
7.32422
7.33083
9.05875
8.35489
8.30595
9.032
7.29593
7.31877
9.04008
8.30279
8.25063
9.0305
7.31379
7.39835
8.98834
8.23093
8.23875
9.01442
7.51354
7.58014
8.99828
8.20057
8.18935
9.00955
7.67623
7.77866
9.03438
8.14427
8.39753
8.95779
9.8793
10.6745
11.8348
12.4695
12.9305
13.1663
13.2098
13.0733
12.7249
12.2121
11.0958
10.3287
9.37124
8.57159
8.30591
8.1146
8.88359
9.73767
10.6384
6.89814
6.8497
10.6791
9.79737
9.8483
10.6514
6.65908
6.54774
10.7248
9.95324
9.95391
10.7392
6.52237
6.46194
10.7411
9.99327
10.0148
10.7766
6.42459
6.37903
10.7668
10.0132
10.039
10.7901
6.39153
6.33942
10.7899
10.0444
10.0657
10.8088
6.34776
6.3503
10.8017
10.0686
10.0793
10.8115
6.35945
6.36337
10.8039
10.0782
10.094
10.8262
6.37116
6.3733
10.8214
10.0939
10.1127
10.8378
6.38114
6.38355
10.8303
10.1097
10.1257
10.8526
6.39184
6.39406
10.8479
10.1255
10.1448
10.8643
6.402
6.40452
10.857
10.1416
10.1582
10.8795
6.4129
6.41523
10.8749
10.158
10.178
10.8915
6.42338
6.42609
10.8845
10.1748
10.192
10.9072
6.43466
6.43717
10.9028
10.192
10.2126
10.9196
6.44555
6.44848
10.9129
10.2094
10.2273
10.9358
6.45725
6.45995
10.9317
10.2275
10.2488
10.9487
6.46856
6.47169
10.9423
10.2455
10.2642
10.9656
6.48064
6.48352
10.9616
10.2647
10.2866
10.9789
6.49232
6.49564
10.9728
10.2834
10.3028
10.9963
6.50474
6.50776
10.9926
10.3037
10.3263
11.0101
6.51673
6.5202
11.0044
10.3231
10.3433
11.0282
6.52942
6.53256
11.0247
10.3447
10.368
11.0424
6.54166
6.54526
11.037
10.3648
10.3859
11.0611
6.55457
6.5578
11.0578
10.3877
10.4117
11.0758
6.56701
6.57071
11.0707
10.4084
10.4306
11.095
6.58008
6.58338
11.092
10.4325
10.4576
11.1102
6.59267
6.59645
11.1054
10.4543
10.4777
11.13
6.60587
6.60923
11.1271
10.479
10.5058
11.1456
6.61859
6.62244
11.1412
10.502
10.5267
11.1661
6.6319
6.6353
11.1636
10.5283
10.556
11.1823
6.64472
6.64863
11.1783
10.5522
10.5779
11.2037
6.65808
6.66147
11.2014
10.5797
10.6083
11.2207
6.67084
6.67468
11.2169
10.6045
10.6311
11.2427
6.68403
6.68732
11.2408
10.6328
10.6624
11.2604
6.69654
6.70024
11.2568
10.6584
10.6859
11.283
6.70938
6.71247
11.2815
10.6873
10.7177
11.3015
6.72141
6.72485
11.298
10.7135
10.7416
11.3246
6.73363
6.73639
11.3233
10.7424
10.7736
11.3436
6.74487
6.74789
11.3403
10.7689
10.7973
11.3671
6.75611
6.75836
11.3661
10.797
10.8286
11.3866
6.76615
6.76857
11.3833
10.823
10.8513
11.4103
6.77595
6.77747
11.4095
10.8498
10.8809
11.4299
6.78427
6.78581
11.4265
10.8738
10.9012
11.4536
6.792
6.79248
11.453
10.898
10.9277
11.473
6.79763
6.79777
11.4697
10.9183
10.9438
11.4965
6.80287
6.80144
11.4961
10.9378
10.9651
11.5155
6.80521
6.80298
11.5121
10.9532
10.9754
11.5382
6.80643
6.80208
11.5378
10.966
10.9891
11.5556
6.80376
6.79804
11.5513
10.9735
10.9908
11.5755
6.79912
6.78985
11.5739
10.9768
10.9938
11.5878
6.78883
6.77719
11.5807
10.9714
10.9812
11.6002
6.77542
6.75869
11.5945
10.9592
10.9668
11.6006
6.75449
6.73538
11.5868
10.9338
10.9306
11.5974
6.73048
6.70409
11.5839
10.894
10.8846
11.5752
6.6941
6.66426
11.55
10.8265
10.8095
11.5513
6.65288
6.61267
11.5148
10.7422
10.7156
11.4857
6.5947
6.55021
11.4324
10.6208
10.5841
11.4164
6.53043
6.4737
11.3363
10.4727
10.4228
11.2838
6.44675
6.38572
11.1758
10.2782
10.2166
11.1294
6.35736
6.28723
10.979
10.0521
9.97609
10.889
6.25423
6.18931
10.696
9.77879
9.69321
10.6034
6.16146
6.10931
10.3572
9.48052
9.38396
10.219
6.09175
6.07225
9.94164
9.14189
9.03857
9.80915
6.07084
6.06874
9.50384
8.78805
8.678
9.34514
6.09819
6.12669
9.03357
8.40205
8.28842
8.88677
6.19247
6.25235
8.57661
8.02276
7.9129
8.42239
6.35613
6.46337
8.12248
7.64463
7.54335
7.98273
6.6158
6.77627
7.70731
7.30484
7.21351
7.57507
6.98691
7.21485
7.31212
7.00398
6.93524
7.19045
7.48652
7.73996
6.95488
6.80454
6.77287
6.85664
8.02381
8.28848
6.69292
6.72021
6.74212
6.6624
8.52393
8.66327
6.60941
6.75987
6.95013
6.72775
8.73096
8.72625
6.81003
7.02912
7.43045
7.20425
8.42906
8.12056
7.38071
7.63334
6.81946
6.85819
6.82693
7.21638
8.0454
7.48747
7.22623
7.73925
7.10494
7.20466
7.68416
7.20352
7.00557
7.37035
7.34203
7.50309
7.23469
6.96332
6.81314
7.02912
7.64308
7.79747
6.80015
6.76532
6.65628
6.68707
7.97288
8.12393
6.45441
6.61755
6.55144
6.3703
8.30439
8.46838
6.17356
6.54716
6.55645
6.1402
8.59431
8.71769
6.02421
6.61337
6.695
6.03974
8.75283
8.71304
6.09249
6.84837
7.01236
6.21857
8.53965
8.24108
6.43107
7.3557
7.50311
6.57479
7.87535
7.39162
5.54272
5.42868
6.3727
6.37545
7.68268
7.65745
5.7832
6.16501
6.13921
5.7461
7.95251
8.23045
5.5482
6.00469
6.07063
5.51695
8.50723
8.68899
5.43541
6.05938
6.25744
5.49531
8.83551
8.87918
5.52609
6.31647
6.71984
5.77426
8.73714
8.36973
5.98175
6.98897
7.45929
6.18303
8.05576
8.28143
5.04127
5.02683
6.28637
5.85103
8.50312
8.47421
5.4644
6.24149
6.58643
5.6319
8.67844
8.77676
5.56945
6.65885
6.99647
5.68752
8.7913
8.75914
5.76645
7.16801
7.59018
6.03384
8.62629
8.39857
6.22391
8.01661
8.31062
6.46044
8.14563
8.46048
4.96227
4.94341
6.56889
5.67516
8.69485
8.71806
5.31359
6.53986
6.92226
5.49119
8.85015
8.91054
5.62748
6.92537
7.53483
5.94837
8.87126
8.68437
6.20748
7.94415
8.67561
6.59603
8.44686
8.83205
4.98842
5.07538
7.04371
5.83211
8.96322
8.89012
5.76204
7.21875
8.10213
6.12636
8.85699
8.78808
6.36555
8.48055
9.40621
6.84688
8.71044
8.67094
7.13644
9.6774
5.19135
5.04941
8.91136
9.04993
5.90898
7.61423
7.64625
5.7484
9.06148
9.22664
6.34022
8.55328
9.14269
6.73087
9.21139
9.17052
7.47753
10.3139
11.147
7.96174
9.21019
9.5042
5.69693
6.06886
9.32531
6.80156
9.42726
9.30163
7.23304
10.098
12.0089
8.15534
9.3059
9.45584
8.58283
12.3883
6.48387
5.88606
9.44755
9.45685
7.16454
10.3405
10.891
7.56848
9.49827
9.78221
8.90696
13.1909
14.0619
9.60911
9.93979
9.59893
6.49006
7.66828
12.6993
8.54517
9.75073
9.81226
9.3618
13.9941
17.1071
11.1849
10.147
10.5929
11.9172
17.593
9.82341
7.75411
9.91806
10.2398
10.9713
16.7429
18.4219
12.1689
10.5082
11.6217
15.1587
21.114
12.899
9.10661
10.1418
10.8398
14.3449
22.2162
23.2093
15.816
11.5026
10.1388
9.5499
14.5335
25.1015
15.8351
11.1329
11.9371
18.3237
27.7225
31.7738
24.1769
14.0053
10.8632
15.2585
23.6262
34.0095
25.8063
14.2435
10.3163
13.6838
25.2228
39.861
28.7461
13.864
16.4836
33.8808
42.9162
40.0537
23.9712
12.5328
23.8532
48.3508
53.8208
52.2433
42.186
15.9387
13.4139
41.8781
52.8556
52.6011
41.6782
14.4446
15.6709
40.708
51.2929
50.2481
40.8721
17.7284
23.1343
45.6274
50.8693
37.6808
24.8946
16.0489
19.0815
34.0117
41.1774
28.3306
19.6524
13.6267
16.6006
27.7598
33.9824
23.5211
16.1472
12.8601
14.0326
21.4426
28.6681
25.9332
17.8147
12.8308
11.2627
10.1203
15.0673
21.3214
15.902
12.4792
11.1994
10.749
14.039
19.5185
13.9053
11.6787
10.7874
11.9494
17.4116
10.0653
7.95013
10.3337
10.4329
10.5152
15.6094
13.9678
9.55839
10.1194
9.81365
7.05225
8.20774
13.0165
9.085
9.76408
9.68265
8.24217
11.6004
7.00626
6.34312
9.78753
9.16617
7.84003
10.8853
9.69244
7.13875
9.19134
9.46344
5.69445
6.14077
9.13968
7.07394
8.86993
9.21206
5.85319
6.46678
9.89466
7.22787
8.55082
8.57091
6.44502
8.19483
7.07741
5.80095
8.81042
9.28403
4.95473
4.96516
7.32179
5.59428
7.95307
8.29427
5.26496
6.71204
4.60116
4.66934
8.92605
7.67079
5.14977
6.66004
6.13873
4.97637
8.10716
8.87842
4.50224
4.33089
6.1941
4.84451
7.47012
7.90497
4.7626
5.70798
4.14063
4.34858
8.71559
7.28143
4.55724
5.6365
5.27389
4.52027
7.79522
8.65642
4.21713
3.92118
5.294
4.34625
7.16893
7.66976
4.34645
4.94588
3.78412
4.13474
8.59325
7.0545
4.09614
4.8512
4.59479
4.15937
7.60494
8.54345
4.01789
3.60891
4.61224
3.91597
6.96297
7.524
4.03319
4.3687
3.52823
3.98039
8.48138
6.89032
3.7239
4.28926
4.10567
3.87136
7.43983
8.41757
3.9126
3.39988
4.10182
3.63487
6.81253
7.39967
3.73871
3.92426
3.30526
3.94204
8.43945
6.78414
3.50298
3.81596
3.6864
3.57214
7.39067
8.44344
3.89121
3.16657
3.66504
3.42555
6.7282
7.3529
3.46855
3.53765
3.08322
3.89965
8.43377
6.73118
3.31056
3.42306
3.31952
3.28248
7.35881
8.45056
3.94198
2.95702
3.27841
3.23489
6.70246
7.35722
3.23226
3.19526
2.89065
3.91981
8.4194
6.72331
3.10169
3.0944
3.01847
3.07682
7.4014
8.51575
3.89215
2.77359
3.01378
3.03629
6.73456
7.39407
2.96944
2.86331
2.71806
3.97452
8.49663
6.70195
2.97982
2.91594
2.74992
2.8889
7.36407
8.50179
3.96099
2.65033
2.85691
2.92881
6.68528
7.40724
2.87725
2.65188
2.60537
3.98431
8.573
6.81641
2.86483
2.7584
2.54584
2.82345
7.51776
8.65675
3.96968
2.53459
2.69153
2.81411
6.71585
7.45392
2.76371
2.46105
2.4802
3.98779
8.61572
6.86047
2.72685
2.57863
2.35533
2.65818
7.58658
8.7379
4.00143
2.40352
2.50082
2.67438
6.85379
7.59327
2.64226
2.27737
2.34968
4.04629
8.74579
6.78198
2.59564
2.38362
2.17215
2.54016
7.54624
8.75386
3.9994
2.26266
2.2866
2.51117
6.86206
7.6961
2.48021
2.09024
2.27507
4.1341
8.9391
6.97096
2.17152
2.06893
2.06645
3.35837
8.28634
6.56638
2.32304
2.21525
2.06015
2.40093
7.41486
8.64964
3.96583
2.18882
2.28191
2.50646
6.7742
7.6372
2.50132
2.09563
2.2404
4.10965
8.97969
7.07548
2.48926
2.22763
2.06108
2.50335
7.95611
9.26699
4.32361
2.29212
2.07906
2.20724
7.28564
8.63509
3.48952
2.09276
2.16591
2.30001
6.76828
7.64785
2.41805
1.99847
2.18464
4.13647
8.92378
7.069
2.4321
2.13837
1.98386
2.45068
7.95566
9.32615
4.23449
2.19165
2.09947
2.42164
7.31085
8.22336
2.42892
1.95129
2.24321
4.41811
9.58413
7.4793
2.13471
1.97201
2.02646
3.55951
8.89828
6.88908
2.22835
2.06214
1.91775
2.38322
7.82715
9.18892
4.25676
2.15252
2.07741
2.40131
7.24644
8.24164
2.44088
1.94114
2.26534
4.53129
9.75141
7.67605
2.14331
1.98215
2.05935
3.6794
9.21475
7.21083
2.25149
2.06708
1.92026
2.43179
8.23764
9.7408
4.59899
2.27469
1.99167
2.19983
7.6986
9.20688
3.65482
2.06271
2.07373
2.26789
7.08456
8.04562
2.38753
1.91815
2.20827
4.43555
9.55726
7.64022
2.43772
2.07589
1.95223
2.49422
8.65074
10.1997
4.7866
2.34073
2.03316
2.2338
8.04581
9.64788
3.85819
2.14051
2.10023
2.32243
7.51697
8.51959
2.45872
1.94348
2.35396
4.80212
10.0613
7.95169
2.31832
2.04602
2.15111
3.85612
9.51126
7.37731
2.33376
2.11923
1.96916
2.49373
8.43747
10.1056
4.75105
2.3133
2.12181
2.51945
7.99918
9.09556
2.61276
2.00109
2.43839
5.04122
10.756
8.4257
2.29383
2.07785
2.24071
4.12388
10.1148
7.96673
2.38258
2.12194
1.97479
2.54608
9.08145
10.7261
5.07354
2.42768
2.06692
2.37564
8.5076
10.127
4.02647
2.20814
2.07815
2.32401
7.75591
8.92402
2.53795
1.94328
2.42821
5.10429
10.7346
8.61541
2.33095
2.05899
2.24194
4.1855
10.4693
8.13058
2.37263
2.10247
1.97272
2.58417
9.34529
11.1392
5.27803
2.48401
2.09432
2.30239
8.81251
10.7374
4.54933
2.3966
2.06859
2.09888
8.24393
10.0465
4.10161
2.24852
2.15173
2.39869
7.86311
9.00823
2.59118
2.01229
2.50919
5.21122
10.8232
8.61314
2.42054
2.15436
2.34513
4.32639
10.6422
8.2692
2.48161
2.21238
2.07989
2.70922
9.46984
11.3677
5.49844
2.62383
2.23447
2.5434
9.07878
11.0627
4.49771
2.44212
2.26982
2.55618
8.54476
9.77899
2.77831
2.13009
2.6987
5.61228
11.649
9.22758
2.56831
2.27304
2.48397
4.56757
11.1102
8.58725
2.5784
2.28568
2.15214
2.84405
9.88279
11.9303
5.75363
2.7755
2.28234
2.55652
9.43064
11.6538
4.96118
2.65186
2.24804
2.30651
8.97947
11.0543
4.57468
2.49189
2.30365
2.5849
8.66807
10.0071
2.82608
2.16773
2.81014
5.84301
12.1015
9.60592
2.58992
2.32808
2.6997
5.04421
11.8628
9.17239
2.37883
2.30416
2.5496
4.63544
11.1104
8.7046
2.64471
2.35985
2.23567
2.93652
9.97312
12.0579
5.93464
2.881
2.3931
2.73176
9.53016
11.8659
4.92122
2.66736
2.41345
2.73151
9.14412
10.5187
3.02968
2.27975
2.99673
6.21713
12.7843
10.1007
2.76794
2.42184
2.86179
5.30175
12.4885
9.66677
2.46387
2.39821
2.70813
4.99445
11.8654
9.33625
2.7821
2.45426
2.32556
3.06114
10.7703
13.0379
6.35448
3.06253
2.4494
2.79328
10.2766
12.6364
5.48022
2.91857
2.42461
2.52243
9.68185
11.8615
4.9979
2.72784
2.46695
2.78333
9.22728
10.6703
3.09049
2.33634
3.11295
6.40421
13.1173
10.4657
2.84753
2.49091
2.97656
5.56783
13.0915
10.069
2.56556
2.47785
2.83093
5.25664
12.3751
9.73052
2.89868
2.54505
2.42004
3.19945
11.2411
13.6803
6.68817
3.24267
2.55558
2.93016
10.8751
13.4184
5.70924
3.07714
2.52397
2.64058
10.3762
12.6027
5.27178
2.88644
2.55644
2.91624
9.81319
11.2853
3.22325
2.42545
3.26562
6.73413
13.8067
10.9275
2.97571
2.56926
3.12565
5.81441
13.7096
10.6349
2.62609
2.55234
3.04289
5.50574
13.1486
10.2911
2.66554
2.55285
2.95765
5.53115
12.6978
9.90363
3.04207
2.64632
2.54545
3.42699
11.5059
14.2126
7.03635
3.43291
2.70405
3.12145
11.3099
14.171
6.06387
3.28456
2.66055
2.801
10.9497
13.3735
5.71778
3.10828
2.70089
3.10352
10.3991
11.9462
3.45778
2.5771
3.49569
7.12857
14.5511
11.5175
3.18304
2.71547
3.32889
6.09503
14.4191
11.2411
2.76619
2.66998
3.22586
5.82105
13.8887
10.916
2.83125
2.67944
3.1727
5.86208
13.4639
10.6774
3.22995
2.752
2.65253
3.60289
12.3817
15.2627
7.53599
3.64488
2.80813
3.29023
12.1011
15.1405
6.44646
3.49323
2.74452
2.87881
11.6944
14.4306
6.0477
3.34282
2.72848
2.89716
11.2427
13.7504
5.98103
3.23478
2.79622
3.28001
10.8624
12.4702
3.62394
2.69035
3.6997
7.54307
15.2715
12.0675
3.37273
2.86042
3.56362
6.56717
15.3053
11.744
2.97894
2.81521
3.43406
6.17964
14.5621
11.4179
2.99172
2.81743
3.38261
6.2172
14.1266
11.179
3.43782
2.89197
2.79445
3.85377
12.9845
16.1199
8.00317
3.92875
2.98458
3.51472
12.7355
16.0403
6.8755
3.75309
2.89889
3.0993
12.5023
15.3824
6.45064
3.58512
2.86393
3.0751
11.9916
14.6641
6.39718
3.46489
2.92873
3.47477
11.4555
13.1982
3.8994
2.82634
3.97271
8.11392
16.1983
12.7885
3.58667
3.02992
3.83153
7.03927
16.239
12.6304
3.19192
2.96947
3.68629
6.61159
15.6806
12.3346
3.16901
2.94859
3.60467
6.6173
15.2075
12.0466
3.63327
3.00317
2.91092
4.09054
13.9625
17.3383
8.67286
4.17777
3.12768
3.73364
13.6477
17.109
7.34443
4.00445
3.02918
3.25323
13.2619
16.4012
6.95857
3.83532
2.98165
3.27489
12.8107
15.7811
6.85747
3.69022
3.01178
3.66457
12.4057
14.3072
4.18279
2.91308
4.24469
8.74122
17.6841
13.9499
3.86685
3.14684
4.0512
7.46172
17.5421
13.63
3.29215
3.06333
3.90945
7.11114
16.9099
13.2718
3.32268
3.03414
3.84453
6.99055
16.5014
13.0448
3.35684
3.03984
3.78737
7.03742
16.1146
12.6114
3.78732
3.09534
3.01697
4.33876
14.6639
18.2975
9.18382
4.45543
3.3009
3.97011
14.5163
18.2759
7.83741
4.27437
3.19908
3.48163
14.2902
17.7367
7.46187
4.12492
3.16072
3.45179
13.8237
17.1814
7.36299
4.05627
3.15299
3.54713
13.5648
16.7241
7.36801
3.95671
3.2022
3.95795
13.0952
15.0864
4.45454
3.10987
4.5734
9.35576
18.6547
14.8157
4.08431
3.39066
4.41361
8.10397
18.795
14.6626
3.6253
3.31388
4.25129
7.62883
18.1431
14.1405
3.5706
3.28065
4.20229
7.58472
17.5151
13.8319
3.71862
3.29235
4.13303
7.61526
17.0395
13.4595
4.14712
3.33545
3.25892
4.78875
15.5993
19.5276
9.81743
4.87452
3.5665
4.37882
15.3899
19.6675
8.58745
4.68622
3.47167
3.85913
15.2795
19.005
8.10502
4.49961
3.41567
3.81048
14.8397
18.4039
7.99009
4.42478
3.39621
3.87773
14.4873
17.8463
7.99099
4.31072
3.41636
4.27636
13.9739
16.1037
4.83691
3.33603
5.0077
10.0564
20.0991
16.0475
4.50616
3.62818
4.76198
8.73082
20.4149
15.771
3.87755
3.52827
4.60965
8.36897
19.4832
15.2111
3.92545
3.50105
4.55686
8.25451
18.9183
14.8751
3.99677
3.51198
4.4845
8.21699
18.3732
14.424
4.43353
3.53389
3.47772
5.13361
16.7688
20.9963
10.6186
5.26343
3.80141
4.67214
16.7117
21.2177
9.24547
5.05788
3.69082
4.14357
16.3538
20.3076
8.82389
4.87031
3.63943
4.13766
15.9914
19.9636
8.66221
4.76823
3.61588
4.17549
15.757
19.3056
8.54013
4.64872
3.62071
4.57584
15.1385
17.4592
5.27115
3.55242
5.47442
11.0062
21.834
17.1438
4.91517
3.89056
5.20898
9.54183
21.8795
16.9633
4.23545
3.79377
5.00704
9.05443
21.0474
16.4049
4.24827
3.75175
4.9355
8.94898
20.4453
16.0393
4.35603
3.75622
4.85568
8.94918
19.7646
15.5457
4.8119
3.76044
3.71801
5.55446
18.0792
22.7202
11.5511
5.75665
4.10161
5.02911
18.0186
22.9083
10.0396
5.51287
3.94939
4.50699
17.8592
22.1019
9.48126
5.25637
3.87901
4.41496
17.4298
21.6561
9.36802
5.1754
3.86511
4.46027
17.0441
21.173
9.35367
5.13999
3.88291
4.58155
16.7123
20.6317
9.30173
5.04839
3.87541
4.988
16.236
18.6978
5.66098
3.82386
5.90577
11.8828
23.333
18.4802
5.30273
4.20447
5.64176
10.3099
23.4485
18.186
4.64874
4.08273
5.43539
9.79559
22.545
17.7019
4.61425
4.05068
5.37968
9.69212
21.9889
17.253
4.7619
4.06743
5.30574
9.69724
21.3018
16.9393
5.28649
4.0646
4.03706
5.98783
19.568
24.5429
12.5893
6.28388
4.4343
5.48171
19.6152
24.9057
10.9031
6.00833
4.26422
4.90234
19.1699
23.7933
10.3146
5.73316
4.18777
4.83549
18.6261
23.1272
10.163
5.60496
4.18259
4.90816
18.212
22.4284
10.1368
5.49577
4.17321
5.4219
17.4898
20.2218
6.22961
4.12442
6.46985
12.9562
25.3275
20.1337
5.68877
4.56701
6.17918
11.1498
25.5397
19.861
4.99322
4.41683
5.92338
10.5775
24.5183
19.2009
5.01658
4.36612
5.8383
10.5421
23.8215
18.78
5.15418
4.37674
5.76265
10.5677
23.2024
18.269
5.71255
4.36748
4.35086
6.59733
21.2103
26.7143
13.696
6.87181
4.80715
5.9353
21.2834
26.9431
11.7902
6.55021
4.61442
5.29571
21.0169
25.9918
11.1662
6.23759
4.50228
5.1568
20.2313
25.1417
11.087
6.11652
4.50113
5.37462
19.7773
24.4069
11.046
5.97761
4.46876
5.85141
19.0229
21.9311
6.69619
4.43044
7.02405
14.0152
27.4303
21.697
6.1303
4.9186
6.73681
12.2316
27.5823
21.4023
5.54621
4.75041
6.42723
11.5149
26.5148
20.8142
5.43904
4.67816
6.31161
11.382
25.7816
20.3226
5.55055
4.67569
6.23922
11.4238
25.0029
19.7526
6.19085
4.67041
4.66381
7.04977
22.8455
28.7607
14.7679
7.41586
5.15891
6.42424
22.8826
29.0324
12.7817
7.08076
4.95863
5.74235
22.4589
27.806
12.1121
6.75997
4.84696
5.69971
21.7342
26.8715
11.8615
6.59569
4.84148
5.7589
21.2253
26.0844
11.8946
6.47501
4.81549
6.36042
20.312
23.4755
7.33216
4.79293
7.6464
15.1256
29.4334
23.3641
6.72381
5.33937
7.31186
13.1569
29.5552
22.9461
5.97306
5.16399
7.02379
12.4813
28.3893
22.1883
5.94287
5.10008
6.922
12.4005
27.4518
21.5583
6.13434
5.10902
6.7883
12.2681
26.5176
20.8975
6.71721
5.07385
5.07376
7.75584
24.2479
30.7561
15.8561
8.13944
5.63585
7.27325
24.2489
31.0542
13.9017
7.73658
5.4177
6.30675
23.9928
29.5773
13.0708
7.37165
5.28489
6.28368
23.0648
28.1663
12.7912
7.06433
5.18442
6.86549
21.9665
25.5424
7.84645
5.1748
8.37059
16.6719
32.1201
25.3625
7.35277
5.77587
8.02823
14.4749
32.1782
24.7925
6.59652
5.60114
7.62776
13.4872
30.5374
23.9119
6.44435
5.48169
7.45695
13.3128
29.4624
23.1942
6.60754
5.46214
7.27826
13.1691
28.3763
22.1949
7.1076
5.40355
5.41678
8.28011
25.8983
32.7589
16.966
8.73111
6.06927
7.75301
25.9647
32.9824
14.877
8.35968
5.86069
6.88893
25.5617
31.5127
14.0738
7.99579
5.73473
6.83457
24.5675
29.9449
13.8082
7.70697
5.58179
7.457
23.4456
27.3131
8.45828
5.58008
9.05679
17.8352
34.4547
26.8395
7.88033
6.2469
8.66586
15.5495
34.259
26.5453
7.18728
6.03265
8.26581
14.6429
32.6308
25.4307
7.11293
5.92693
7.97214
14.3263
30.9474
24.1417
7.71572
5.8123
5.83782
8.95779
28.2481
35.6536
18.5954
9.49107
6.54412
8.39221
28.0425
35.3794
16.1072
9.05364
6.30092
7.47011
27.4299
33.7061
15.136
8.61992
6.14666
7.40615
26.4186
32.271
14.8327
8.31489
5.96035
7.96955
25.1916
29.3558
9.05821
5.96921
9.72803
18.9697
36.8616
29.0235
8.66437
6.65638
9.27694
16.4982
36.4849
28.2259
7.60489
6.43651
8.82674
15.4922
34.6118
27.1125
7.55465
6.31167
8.5331
15.2423
33.4095
26.002
8.32534
6.18608
6.22382
9.61442
30.5173
38.398
20.0642
10.2806
7.01868
9.1559
30.0373
37.6177
17.3565
9.78518
6.76391
8.19199
29.1639
35.8189
16.3328
9.19158
6.45117
8.58678
27.6505
32.1904
9.80892
6.46506
10.6675
20.7089
40.1341
31.3314
9.45519
7.21015
10.0928
17.9373
39.3201
30.2432
8.29846
6.94813
9.5786
16.8628
37.2947
29.1459
8.2851
6.80382
9.30494
16.6893
36.0168
28.0693
9.00609
6.66715
6.71134
10.3858
33.0006
41.3793
21.645
11.1267
7.5472
9.82809
32.4705
40.6005
18.6379
10.5206
7.21453
8.63872
31.1214
38.6682
17.5823
9.89794
6.89791
9.30609
29.8954
35.1313
10.7412
6.92287
11.5766
22.6051
43.8532
34.0532
10.2602
7.77761
10.9435
19.4283
42.5319
32.6911
9.04873
7.48927
10.3257
18.4396
40.2647
31.119
9.78664
7.20869
7.26142
11.2372
36.5463
45.388
23.9084
12.1269
8.13955
10.594
35.465
44.1833
20.1277
11.3834
7.76089
9.33664
34.1119
42.276
19.0031
10.8173
7.55927
9.21976
32.5802
40.4568
18.6733
10.3792
7.34079
9.97323
31.5104
36.9817
11.3348
7.3762
12.2753
24.0171
45.7775
35.4147
10.9723
8.29275
11.679
20.748
44.8547
33.6846
9.60243
8.03932
11.0852
19.7734
42.5813
33.1356
10.5172
7.77361
7.84629
12.12
39.036
48.1391
25.3647
13.0294
8.75914
11.7122
37.188
46.6205
21.987
12.2501
8.24481
11.0248
35.6474
41.7377
12.4758
8.27209
13.7129
26.64
50.9821
39.4066
12.0001
9.18871
12.9281
22.7172
49.3713
37.6672
10.6982
8.75649
12.1113
21.4827
46.7388
36.4278
11.3681
8.36134
8.44767
13.0495
42.8917
52.7349
27.7442
14.2505
9.42346
12.5964
40.6173
51.2089
23.6828
13.3739
9.01314
11.0222
39.0244
48.7453
22.4156
12.531
8.55721
11.6849
37.5841
44.1675
13.0392
8.59797
14.5962
28.848
55.5409
42.1086
13.1014
9.65558
13.7246
24.8229
52.8494
40.3394
12.2753
9.12976
9.21326
14.1826
47.4145
58.2279
30.4856
15.601
10.2981
13.7487
44.3825
55.464
25.6623
14.6352
9.82211
12.056
42.5509
53.0721
24.428
13.6896
9.29056
12.6176
40.8021
47.9589
14.541
9.37842
15.8651
30.8251
59.4082
45.5306
14.1377
10.4749
14.9411
26.7953
57.0149
43.8889
13.445
9.87925
9.96022
15.299
51.5781
63.8764
33.0193
16.9384
11.0483
14.8662
48.5722
60.8972
28.2311
15.7479
10.196
13.8396
45.6463
54.0829
15.8101
10.2501
17.7267
34.8663
67.8334
51.313
15.5395
11.469
16.509
29.774
64.0131
48.9023
14.7064
10.7091
10.8005
16.7137
57.2316
70.4453
36.1877
18.6222
11.9606
16.233
52.8539
66.334
30.7655
17.3171
11.338
14.1506
50.3071
62.7035
28.8074
16.0267
10.6987
14.7088
48.143
56.4292
16.8667
10.819
18.3846
36.5561
69.9584
53.525
17.1151
11.8228
11.8041
18.5789
62.4257
77.6417
39.5975
20.4656
12.923
17.7066
58.117
73.0244
33.7025
18.6781
11.7655
16.0585
54.0798
63.9241
18.2421
11.83
20.8099
41.2056
80.4467
60.7309
18.1001
13.2793
19.3468
35.0294
75.6192
57.4868
17.0849
12.3267
12.4394
19.4012
67.0827
82.6267
42.5583
21.6638
13.7316
18.9442
62.0766
77.3641
36.0477
19.9155
12.6076
17.3657
58.7235
68.2962
19.4456
12.7063
21.9315
43.24
84.1243
63.6336
19.3089
14.081
20.4332
37.0581
79.3398
60.4034
18.0703
13.0531
13.1541
20.3205
70.2326
86.9238
45.1894
22.5329
14.1436
20.905
65.8225
75.8186
21.2043
14.0234
24.7615
48.2819
96.4896
71.4143
21.1367
15.4609
22.6725
41.2825
88.9428
66.9408
19.5883
14.117
14.2535
22.2034
77.4284
94.5556
49.2887
24.6205
15.3112
22.4443
71.3083
82.4323
24.1767
15.3115
26.7297
52.3159
100.966
75.635
22.9191
16.8445
24.3417
43.5978
93.3332
70.7955
21.0809
15.1537
15.269
23.4925
81.9763
100.831
52.1696
26.1244
16.1527
23.7261
76.1473
87.9442
25.1853
16.1484
27.9707
55.4481
108.858
80.9874
24.9237
17.1196
16.9876
26.7472
94.309
117.942
60.0233
30.3876
18.6956
25.5581
87.2686
107.239
49.5186
27.2624
16.5153
23.0502
80.0022
91.7578
25.4145
16.5973
28.4996
57.6306
111.731
83.8306
26.0452
17.5346
17.49
27.6017
96.1341
117.73
60.7424
30.3109
18.323
27.0865
87.5532
100.22
28.3
18.2341
31.5698
63.0666
122.818
91.2524
27.9547
18.9619
18.8985
29.2616
105.106
129.917
64.5452
32.5252
19.4503
28.8278
96.3974
110.825
30.4559
19.2784
34.437
69.6246
136.767
100.463
30.4285
20.2342
20.1995
31.7701
114.532
138.492
71.0323
35.2782
20.7702
30.9398
101.959
116.028
32.4453
20.6502
36.1217
71.7614
140.466
103.715
31.615
21.1749
21.1007
32.8429
118.478
144.201
73.2684
36.6403
21.5343
31.875
105.874
121.096
33.2741
21.3279
36.9989
72.8399
149.463
111.083
32.8575
21.7377
21.6458
34.8995
127.403
156.721
78.7097
38.6112
22.3183
34.0786
115.166
127.857
39.7586
22.9493
23.5629
43.8492
146.502
174.239
89.2445
44.0524
24.2569
37.5516
125.525
141.84
37.9439
23.8809
41.9964
85.0744
170.392
124.581
36.4415
24.1029
23.7084
37.2849
141.128
172.261
83.5465
41.2842
23.4126
35.3992
125.333
140.795
41.6024
23.756
24.6633
46.5879