/*--------------------------------*- C++ -*----------------------------------*\
| =========                 |                                                 |
| \\      /  F ield         | OpenFOAM: The Open Source CFD Toolbox           |
|  \\    /   O peration     | Version:  v2006                                 |
|   \\  /    A nd           | Website:  www.openfoam.com                      |
|    \\/     M anipulation  |                                                 |
\*---------------------------------------------------------------------------*/
FoamFile
{
    version     2.0;
    format      ascii;
    class       volScalarField;
    location    "0.018";
    object      Co;
}
// * * * * * * * * * * * * * * * * * * * * * * * * * * * * * * * * * * * * * //

dimensions      [0 0 0 0 0 0 0];


internalField   nonuniform List<scalar> 
24416
(
0.0177009
0.016942
0.0183269
0.0190317
0.019344
0.0189082
0.0190128
0.018864
0.0187031
0.0186677
0.0185495
0.0185523
0.0185332
0.0185286
0.0185291
0.01853
0.0185315
0.0185334
0.0185342
0.0185322
0.0185245
0.0185111
0.018493
0.0184718
0.018449
0.0184255
0.0184016
0.0183776
0.0183533
0.0183286
0.0183034
0.0182777
0.0182514
0.0182246
0.0181971
0.0181691
0.0181406
0.0181117
0.0180824
0.0180526
0.0180224
0.0179918
0.0179608
0.0179295
0.0178979
0.0178659
0.0178337
0.0178013
0.0177685
0.0177356
0.0177026
0.0176693
0.0176359
0.0176024
0.0175688
0.0175351
0.0175015
0.0174678
0.0174342
0.0174006
0.0173671
0.0173337
0.0173005
0.0172674
0.0172345
0.0172019
0.0171695
0.0171374
0.0171056
0.0170741
0.017043
0.0170122
0.0169819
0.016952
0.0169225
0.0168935
0.016865
0.0168371
0.0168096
0.0167828
0.0167566
0.016731
0.0167061
0.0166816
0.0166575
0.0166333
0.0166089
0.0165839
0.0165586
0.016534
0.0165114
0.0164949
0.0164886
0.0165063
0.0165418
0.0166725
0.0168788
0.0174096
0.0183234
0.0204827
0.0253446
0.0361306
0.0554792
0.0447136
0.0394409
0.0393162
0.0382515
0.0366075
0.0360652
0.0347102
0.0314479
0.03402
0.0354986
0.0322538
0.0322639
0.0306589
0.0256301
0.0273629
0.0278389
0.0268259
0.0269955
0.0254776
0.0231732
0.0253063
0.0258663
0.025809
0.0254319
0.0232437
0.0226785
0.0250806
0.0256277
0.0256437
0.0251695
0.0226754
0.0223559
0.0250043
0.0256282
0.0256995
0.0249491
0.0221863
0.0220029
0.0248662
0.025489
0.02562
0.0247855
0.0218351
0.0216751
0.0247015
0.0254014
0.0255267
0.0246207
0.021526
0.0213852
0.0245394
0.0253066
0.02543
0.024462
0.0212531
0.021127
0.0243838
0.0252096
0.0253321
0.0243096
0.021008
0.0208935
0.0242344
0.0251119
0.0252337
0.024163
0.0207848
0.0206795
0.0240904
0.025014
0.0251351
0.0240214
0.020579
0.0204813
0.0239517
0.0249195
0.025037
0.0238843
0.0203872
0.0202958
0.023817
0.0248266
0.0249401
0.0237519
0.0202072
0.02012
0.0236852
0.0247331
0.0248425
0.0236219
0.0200361
0.0199531
0.0235566
0.0246393
0.0247452
0.0234947
0.019873
0.0197934
0.0234307
0.0245452
0.0246481
0.0233701
0.0197165
0.01964
0.023307
0.0244507
0.0245511
0.0232474
0.0195658
0.0194917
0.0231852
0.0243557
0.024454
0.0231264
0.0194199
0.019348
0.0230648
0.0242601
0.0243567
0.0230067
0.0192781
0.019208
0.0229456
0.024164
0.0242591
0.022888
0.0191399
0.0190713
0.0228274
0.0240671
0.024161
0.0227702
0.0190047
0.0189374
0.0227098
0.0239695
0.0240623
0.022653
0.0188721
0.0188059
0.0225927
0.023871
0.023963
0.0225361
0.0187417
0.0186765
0.0224759
0.0237714
0.0238628
0.0224194
0.0186131
0.0185487
0.0223591
0.0236707
0.0237618
0.0223026
0.0184861
0.0184224
0.0222422
0.0235689
0.0236596
0.0221856
0.0183603
0.0182972
0.022125
0.0234657
0.0235563
0.0220682
0.0182356
0.0181728
0.0220074
0.0233611
0.0234517
0.0219504
0.0181117
0.0180492
0.0218891
0.0232549
0.0233457
0.0218317
0.0179883
0.017926
0.02177
0.023147
0.0232382
0.0217122
0.0178652
0.017803
0.02165
0.0230374
0.023129
0.0215918
0.0177423
0.01768
0.0215289
0.0229257
0.023018
0.02147
0.0176192
0.0175567
0.0214065
0.022812
0.0229051
0.0213469
0.0174957
0.017433
0.0212826
0.0226961
0.02279
0.0212222
0.0173718
0.0173087
0.0211571
0.0225777
0.0226728
0.0210959
0.017247
0.0171835
0.0210297
0.0224581
0.0225531
0.0209676
0.0171214
0.0170573
0.0209004
0.0223381
0.022431
0.0208372
0.0169945
0.0169297
0.0207689
0.0222154
0.0223062
0.0207046
0.0168663
0.0168007
0.0206351
0.02209
0.0221785
0.0205695
0.0167365
0.0166701
0.0204987
0.0219616
0.0220478
0.0204319
0.0166049
0.0165375
0.0203596
0.0218301
0.0219138
0.0202913
0.0164713
0.0164029
0.0202176
0.0216954
0.0217764
0.0201478
0.0163355
0.0162659
0.0200723
0.021557
0.0216353
0.0200009
0.0161973
0.0161262
0.0199237
0.021415
0.0214904
0.0198504
0.0160563
0.0159838
0.0197714
0.021269
0.0213413
0.0196962
0.0159122
0.0158382
0.0196152
0.0211188
0.0211879
0.0195379
0.015765
0.0156892
0.0194547
0.0209642
0.0210299
0.0193754
0.0156142
0.0155365
0.0192899
0.0208048
0.020867
0.0192081
0.0154596
0.01538
0.0191203
0.0206406
0.020699
0.0190361
0.015301
0.0152192
0.0189457
0.0204711
0.0205257
0.018859
0.0151381
0.015054
0.0187659
0.0202962
0.0203467
0.0186763
0.0149705
0.014884
0.0185804
0.0201155
0.0201617
0.0184879
0.014798
0.0147089
0.018389
0.0199287
0.0199705
0.0182934
0.0146202
0.0145283
0.0181912
0.0197354
0.0197725
0.0180923
0.0144367
0.0143418
0.0179867
0.0195353
0.0195674
0.0178843
0.0142471
0.014149
0.017775
0.019328
0.0193548
0.0176688
0.014051
0.0139495
0.0175557
0.0191129
0.0191342
0.0174455
0.0138479
0.0137428
0.0173283
0.0188897
0.0189052
0.0172138
0.0136374
0.0135284
0.0170922
0.018658
0.0186673
0.0169733
0.013419
0.0133057
0.016847
0.0184171
0.0184199
0.0167232
0.013192
0.0130742
0.0165919
0.0181665
0.0181624
0.0164629
0.0129557
0.012833
0.0163262
0.0179055
0.0178941
0.0161916
0.0127094
0.0125812
0.016049
0.0176333
0.0176141
0.0159083
0.012452
0.0123178
0.0157593
0.0173492
0.017322
0.0156123
0.0121822
0.0120407
0.0154573
0.0170534
0.0170183
0.0153038
0.011896
0.0117436
0.015141
0.0167452
0.0167003
0.0149785
0.0115871
0.0114229
0.0148061
0.0164213
0.0163655
0.0146335
0.0112545
0.0110781
0.0144505
0.0160799
0.016012
0.0142668
0.0108973
0.0107082
0.0140721
0.0157188
0.0156378
0.0138762
0.0105142
0.0103113
0.0136685
0.0153362
0.0152406
0.0134589
0.010103
0.00988493
0.0132367
0.0149293
0.0148173
0.0130117
0.00966051
0.00942537
0.0127729
0.0144947
0.0143652
0.0125308
0.00918294
0.00892813
0.0122733
0.0140301
0.0138804
0.012011
0.00866435
0.00838597
0.0117313
0.0135303
0.0133577
0.0114451
0.00809641
0.00778922
0.0111387
0.0129899
0.0127905
0.0108235
0.00746754
0.00712373
0.0104841
0.0124017
0.0121707
0.0101322
0.0067603
0.00636781
0.00975069
0.0117561
0.011487
0.00935096
0.00594754
0.00548731
0.00891344
0.0110404
0.0107253
0.0084485
0.00498552
0.00442553
0.00793436
0.0102409
0.00987292
0.00737985
0.00379817
0.00307498
0.00674281
0.00934122
0.00901265
0.00616955
0.00225053
0.00151213
0.00549454
0.00851381
0.00755837
0.00410153
0.00152257
0.00196627
0.00239284
0.00624185
0.0049828
0.00148101
0.00223178
0.00253046
0.00156834
0.00336272
0.00193056
0.00199373
0.002776
0.00285659
0.00212294
0.000938686
0.00077658
0.00218015
0.00285556
0.00282176
0.00235328
0.00096661
0.0012264
0.0024011
0.00260932
0.00232694
0.00257204
0.00158717
0.00191675
0.00255486
0.00185082
0.00134873
0.0024898
0.00235632
0.00234553
0.00203915
0.000863329
0.000712831
0.00205466
0.00239867
0.00305641
0.002497
0.000914814
0.0011886
0.00272948
0.00318683
0.00388656
0.00333293
0.00165518
0.00193033
0.00337492
0.0036992
0.00406772
0.00373003
0.00227497
0.00233892
0.0034775
0.00357829
0.00363949
0.00353066
0.00243812
0.00243749
0.00355314
0.00380398
0.00363404
0.00336892
0.00230927
0.00216399
0.00329687
0.00364985
0.00332857
0.00296982
0.00188215
0.00163049
0.00274844
0.00313983
0.0028011
0.00242127
0.00135328
0.00115718
0.0022278
0.00261576
0.00244703
0.00204466
0.000991204
0.00086971
0.00192457
0.00232542
0.00225285
0.00182944
0.000772959
0.000696648
0.00175689
0.0021706
0.00214017
0.00170701
0.000638212
0.000591335
0.00166889
0.00208926
0.0020792
0.0016445
0.000555749
0.000528612
0.00162846
0.00205456
0.00205933
0.00162736
0.000511079
0.000512106
0.00165299
0.00210875
0.00213895
0.00169202
0.00052929
0.000556336
0.00174037
0.00220378
0.00224519
0.00179608
0.000592383
0.000634992
0.00185451
0.0023148
0.00236136
0.00191882
0.000684669
0.000737794
0.00198206
0.00242733
0.00247295
0.00204769
0.00079468
0.000851717
0.00210929
0.00253454
0.00257242
0.00217036
0.00090914
0.000963918
0.0022256
0.00262627
0.00265361
0.00227814
0.00101643
0.00106411
0.00232353
0.00269716
0.00271201
0.0023644
0.00110721
0.00114413
0.00239779
0.00274396
0.00274568
0.00242566
0.00117535
0.00120051
0.00244648
0.00276602
0.002755
0.00246107
0.00122007
0.00123493
0.00246959
0.00276436
0.00274637
0.00247152
0.00124545
0.00125278
0.00246832
0.00274364
0.00274212
0.00246234
0.00125674
0.00125897
0.00245566
0.00271763
0.00272603
0.0024441
0.00125893
0.00125865
0.00242859
0.0026921
0.00269324
0.00241087
0.00125689
0.00125233
0.00238831
0.00265326
0.0026497
0.00236512
0.00124626
0.00123716
0.00233791
0.00260614
0.00259897
0.00231093
0.00122649
0.00121298
0.00228113
0.00255316
0.00254302
0.00225223
0.00119799
0.00118067
0.00222187
0.00249594
0.00248314
0.00219284
0.00116241
0.00114344
0.00216388
0.0024355
0.00243252
0.0021488
0.00112664
0.00111053
0.00209497
0.00237053
0.00237255
0.00211489
0.00113135
0.00115856
0.00210469
0.00235088
0.00245084
0.00223788
0.00129109
0.00134969
0.00231702
0.00255098
0.00291054
0.00269412
0.00164477
0.00172694
0.00283494
0.00319122
0.00337121
0.00306896
0.00192005
0.00360618
0.00365153
0.00349076
0.0033277
0.00296731
0.00234161
0.0020425
0.00185246
0.00183077
0.00190146
0.00204602
0.0022144
0.00238386
0.00246892
0.00248097
0.002374
0.00223086
0.00197056
0.00167149
0.00198966
0.00239591
0.00291186
0.00341002
0.00402092
0.00459017
0.00529889
0.00592606
0.00671788
0.00737582
0.0082212
0.00888077
0.00974039
0.0103788
0.0112182
0.0118213
0.0126061
0.013161
0.0138786
0.0143572
0.0149909
0.0153521
0.0158643
0.0164119
0.0183042
0.0242219
0.0351857
0.0376556
0.0351943
0.0320124
0.0290799
0.0242889
0.0139196
0.0125076
0.0227504
0.0280861
0.0257106
0.0214424
0.0117387
0.00941424
0.0180191
0.021979
0.0197274
0.0167351
0.00879414
0.00796538
0.0155743
0.0187978
0.0185072
0.0154963
0.0079686
0.0079708
0.0153947
0.0182729
0.0188394
0.0157803
0.00820522
0.00828185
0.0156605
0.0184664
0.0190365
0.0160917
0.00855276
0.00865297
0.0160484
0.0187843
0.0193732
0.0164789
0.00893922
0.00901594
0.0163531
0.0189699
0.0195221
0.0167687
0.0093005
0.00940615
0.0167082
0.0192577
0.0198215
0.0171324
0.00970274
0.00976026
0.0169142
0.0193075
0.0200022
0.0174572
0.0100918
0.0101773
0.0173033
0.0196283
0.0201739
0.0177133
0.0104785
0.0105287
0.0174597
0.0196661
0.0202941
0.0179901
0.0108648
0.0109414
0.0178018
0.0198826
0.0204006
0.018188
0.0112392
0.0112729
0.0178898
0.0199157
0.0204428
0.0183963
0.0116035
0.0116616
0.0181651
0.0200312
0.0204643
0.0185158
0.0119442
0.01195
0.0181955
0.020047
0.0204096
0.0186321
0.0122628
0.0122916
0.0183495
0.0200488
0.0203263
0.0186522
0.0125471
0.012521
0.0183591
0.0200388
0.0201526
0.018653
0.0127956
0.0127868
0.0183941
0.0199318
0.0199426
0.0185476
0.0130055
0.0129782
0.0183291
0.0198259
0.0196267
0.0184052
0.0131515
0.0131238
0.0182148
0.019587
0.0192697
0.0181568
0.0132585
0.013257
0.0181058
0.0194352
0.0187911
0.0177906
0.0132638
0.0132623
0.0177536
0.0189476
0.0183493
0.017484
0.0133129
0.0133647
0.0175413
0.0186415
0.0179512
0.0170955
0.013327
0.0133921
0.0171387
0.0180853
0.0174663
0.0167536
0.0134518
0.0134453
0.0168268
0.0177084
0.0169777
0.0162817
0.0133116
0.0132273
0.0160929
0.016832
0.0162786
0.0157848
0.0132256
0.0128143
0.0152921
0.0159273
0.0143747
0.0144622
0.0127384
0.011936
0.0124809
0.0112736
0.0376671
0.0281239
0.016856
0.0111162
0.0170943
0.0225708
0.0130279
0.0124907
0.00991887
0.00871836
0.0103999
0.0109538
0.0120987
0.00993776
0.00839267
0.00755131
0.0104235
0.0104258
0.0076746
0.0085545
0.00853948
0.00567749
0.00646449
0.00751545
0.00705078
0.00560263
0.00414687
0.00247436
0.00467922
0.00696403
0.00817227
0.00578696
0.00264756
0.00584263
0.0101513
0.0134042
0.0147946
0.013814
0.00977913
0.0147705
0.0185388
0.0191543
0.0242343
0.0241362
0.0203181
0.0284952
0.0335207
0.0337143
0.0450134
0.0440745
0.0374192
0.0495943
0.0565058
0.0530624
0.0807115
0.0733771
0.06298
0.0755138
0.0784411
0.0705154
0.0790399
0.0883347
0.0848996
0.101608
0.105796
0.0939083
0.121929
0.123568
0.116081
0.123511
0.127926
0.10668
0.119398
0.144215
0.130151
0.138269
0.161152
0.144376
0.109588
0.143063
0.130149
0.140781
0.113731
0.101256
0.0793523
0.101811
0.156074
0.167214
0.135249
0.0891369
0.143058
0.170168
0.193169
0.211473
0.201452
0.221748
0.165343
0.186501
0.203905
0.188717
0.175918
0.16443
0.216203
0.182925
0.181011
0.151084
0.152854
0.144212
0.138138
0.13566
0.127866
0.103798
0.128403
0.170367
0.0973442
0.0938796
0.0774148
0.0565217
0.0771483
0.0905655
0.10759
0.0692928
0.0409262
0.0237327
0.0443352
0.0563701
0.0579178
0.0371128
0.0150605
0.00685152
0.0203055
0.0517172
0.0163259
0.0193776
0.0208026
0.0190801
0.0192308
0.0143771
0.0293127
0.0329981
0.0273245
0.0388006
0.0529537
0.0588768
0.0257244
0.0313086
0.0315987
0.0362036
0.0445073
0.0467592
0.0634152
0.0560618
0.0416081
0.0337891
0.0351517
0.0316441
0.0468872
0.0444287
0.0358865
0.0392532
0.0528375
0.0608985
0.0312997
0.0335733
0.0321464
0.0347173
0.0431005
0.0464146
0.0521105
0.0467577
0.0360069
0.0296791
0.0310995
0.0285573
0.0402152
0.0382055
0.0304339
0.0298123
0.0378898
0.0415087
0.0329863
0.031531
0.0270385
0.0251419
0.0264858
0.0220477
0.016548
0.0197563
0.0210894
0.0207319
0.0222703
0.0179019
0.00404198
0.00741225
0.0115328
0.00949765
0.00634316
0.00507976
0.00776569
0.00737508
0.00992139
0.00490641
0.00717599
0.016435
0.00674877
0.00284179
0.00226001
0.00310264
0.00574068
0.0118487
0.0266855
0.0146911
0.00438132
0.00355441
0.0106019
0.0170721
0.0338328
0.0214717
0.0089784
0.00771521
0.0144814
0.0187606
0.0297023
0.017481
0.00714793
0.0128977
0.0281762
0.043206
0.0303611
0.021846
0.0118188
0.016786
0.0324591
0.0467706
0.0266236
0.0220383
0.0144532
0.0152597
0.0285389
0.0427701
0.059082
0.0403959
0.0209323
0.0175816
0.0257364
0.0302528
0.0516025
0.0347197
0.0188336
0.0243324
0.0449692
0.0641907
0.0489516
0.0373395
0.0232224
0.0275493
0.046592
0.0636331
0.051923
0.0403111
0.0257775
0.0309079
0.0511959
0.0681812
0.0413329
0.0364461
0.027045
0.0298177
0.0489888
0.0683643
0.0789449
0.0573961
0.0333248
0.0309884
0.047387
0.0605525
0.0786302
0.0598179
0.0369794
0.0321378
0.0421255
0.0468381
0.0794151
0.0578009
0.0361722
0.0395412
0.0658676
0.089572
0.0715074
0.0562649
0.0372893
0.0424391
0.066755
0.0872155
0.0731435
0.058704
0.0400537
0.0459993
0.071643
0.0925773
0.0566127
0.0512872
0.0399642
0.0443063
0.0696075
0.0948759
0.105704
0.0784227
0.0489985
0.0462962
0.0682261
0.0854679
0.10149
0.078646
0.05123
0.0486167
0.0703183
0.0869086
0.105022
0.082392
0.0540384
0.0477713
0.0600792
0.0654052
0.110802
0.0827657
0.0541187
0.0576959
0.0912222
0.118193
0.0976552
0.0788771
0.0546154
0.059352
0.0890856
0.1127
0.0968276
0.079222
0.0558666
0.0624405
0.0934234
0.116917
0.0730089
0.0677043
0.0548958
0.0616809
0.0931088
0.124477
0.131583
0.101135
0.0655662
0.0619681
0.0883857
0.109134
0.124506
0.0987698
0.0666102
0.0639009
0.0910728
0.112309
0.126383
0.100645
0.0692054
0.0654938
0.0916954
0.11204
0.130796
0.105388
0.0722409
0.0633111
0.0777288
0.0834657
0.140862
0.106224
0.0716222
0.0742847
0.113213
0.147757
0.123111
0.100125
0.0702039
0.0743657
0.109444
0.137689
0.12668
0.103248
0.0728239
0.0771781
0.110938
0.139072
0.128583
0.104723
0.0739952
0.0799876
0.115223
0.142307
0.127037
0.10451
0.0754354
0.0834186
0.120432
0.148139
0.0939458
0.0879572
0.0727512
0.0826581
0.121713
0.159863
0.167109
0.128753
0.0852784
0.0807163
0.113436
0.138996
0.153476
0.124088
0.0857899
0.0834893
0.116933
0.142333
0.155097
0.125755
0.0880444
0.0847837
0.118715
0.145447
0.159686
0.129184
0.0911809
0.0867427
0.118657
0.143311
0.163875
0.134088
0.0947616
0.0826562
0.0993855
0.106086
0.178996
0.136502
0.0931754
0.096147
0.143704
0.183977
0.155518
0.127579
0.0917809
0.0959828
0.136565
0.170146
0.157959
0.130183
0.0938194
0.0986382
0.139312
0.169474
0.159734
0.131215
0.0943961
0.100562
0.142327
0.174144
0.15725
0.130769
0.0961654
0.104498
0.147859
0.180226
0.114872
0.108539
0.0912701
0.102625
0.149414
0.19557
0.202739
0.156909
0.105785
0.101034
0.139553
0.169723
0.185868
0.149957
0.105774
0.102693
0.142197
0.172762
0.186893
0.152625
0.108353
0.1045
0.144505
0.17583
0.192249
0.15644
0.110994
0.106129
0.143824
0.172757
0.195141
0.161782
0.115015
0.101142
0.119848
0.126779
0.214681
0.164027
0.11244
0.116488
0.171072
0.219236
0.185755
0.153327
0.111865
0.117544
0.16544
0.202813
0.188283
0.155419
0.113125
0.119145
0.165613
0.203289
0.190912
0.157925
0.115392
0.122334
0.170564
0.207622
0.186169
0.155383
0.115566
0.125193
0.174466
0.212287
0.135842
0.128445
0.109035
0.124771
0.179389
0.233161
0.236954
0.187494
0.128787
0.12255
0.166779
0.200782
0.219479
0.179689
0.128571
0.123973
0.169008
0.203719
0.22013
0.182508
0.130743
0.12601
0.171534
0.206809
0.225824
0.186393
0.134134
0.12647
0.168679
0.202007
0.229278
0.189247
0.137282
0.120848
0.141226
0.148605
0.251483
0.193025
0.134231
0.138222
0.199928
0.255004
0.216478
0.179231
0.132538
0.138924
0.194088
0.238442
0.218464
0.181818
0.134779
0.142641
0.196482
0.239962
0.213684
0.179471
0.134623
0.145055
0.201395
0.246388
0.155568
0.148005
0.127088
0.142768
0.204757
0.266621
0.274606
0.213326
0.147912
0.140139
0.189421
0.229251
0.254245
0.206898
0.148392
0.143437
0.193833
0.232207
0.254185
0.209895
0.151678
0.143709
0.190476
0.227205
0.260527
0.21498
0.155442
0.136114
0.158176
0.165892
0.28297
0.218438
0.152517
0.158172
0.229975
0.289875
0.242651
0.201852
0.150281
0.159457
0.221302
0.273032
0.237499
0.201421
0.15265
0.162528
0.227227
0.274942
0.170612
0.164136
0.142523
0.16089
0.228728
0.295912
0.308928
0.241294
0.166284
0.158181
0.211445
0.254633
0.287634
0.234043
0.168555
0.160468
0.211108
0.249112
0.289789
0.237441
0.170872
0.150376
0.173274
0.180659
0.310043
0.239012
0.167619
0.175794
0.254095
0.322537
0.265497
0.22161
0.166244
0.176914
0.243968
0.300491
0.259259
0.220308
0.168411
0.180971
0.250789
0.305171
0.186191
0.179231
0.156321
0.17659
0.24938
0.321888
0.340198
0.267015
0.184501
0.171369
0.224822
0.267162
0.318963
0.261157
0.18669
0.163783
0.185118
0.190431
0.336037
0.260831
0.184805
0.193206
0.279006
0.36215
0.273813
0.232149
0.177643
0.194188
0.273627
0.334048
0.19622
0.190459
0.167729
0.190893
0.269133
0.3478
0.374315
0.292051
0.201533
0.187137
0.244016
0.287272
0.348325
0.28299
0.201211
0.17427
0.196194
0.201484
0.355823
0.276072
0.196321
0.210519
0.305025
0.38698
0.293539
0.250203
0.193706
0.212507
0.297256
0.366942
0.20543
0.200199
0.178291
0.200368
0.275942
0.351014
0.406724
0.315935
0.216657
0.180831
0.201152
0.205142
0.362332
0.283637
0.205154
0.224411
0.327846
0.422284
0.204818
0.201522
0.182818
0.206093
0.285802
0.3654
0.432719
0.338289
0.229161
0.189499
0.208485
0.211168
0.382701
0.30152
0.217861
0.235392
0.347705
0.449437
0.212862
0.209978
0.190653
0.217816
0.300877
0.384216
0.46507
0.364482
0.248263
0.20549
0.223311
0.222518
0.393813
0.31048
0.225795
0.251516
0.372143
0.475892
0.221294
0.220971
0.204079
0.231576
0.314158
0.395994
0.493905
0.381001
0.257397
0.192898
0.199288
0.193095
0.261898
0.242469
0.209058
0.225382
0.307643
0.393275
0.500863
0.381275
0.252707
0.179773
0.183354
0.17705
0.211497
0.209361
0.193367
0.181234
0.20357
0.209571
0.197542
0.193911
0.178877
0.17691
0.199923
0.202808
0.231909
0.214509
0.178985
0.191127
0.27581
0.357968
0.487371
0.357369
0.220314
0.148993
0.159784
0.155702
0.167767
0.163382
0.142066
0.127026
0.151408
0.159364
0.153137
0.144365
0.118841
0.109079
0.135323
0.145419
0.140878
0.130362
0.102892
0.096406
0.123934
0.135876
0.132351
0.120308
0.0919554
0.0872963
0.115858
0.12865
0.125895
0.112538
0.0836894
0.0803909
0.109407
0.123279
0.120784
0.106451
0.0773682
0.0745939
0.103659
0.118395
0.116111
0.101026
0.0720454
0.0697026
0.0985415
0.113915
0.112031
0.0961997
0.0675464
0.0655643
0.0939939
0.109575
0.10784
0.0919257
0.063746
0.0620769
0.0899785
0.105972
0.104186
0.0881514
0.0605475
0.0591468
0.0864307
0.10246
0.100814
0.0848192
0.0578675
0.056698
0.0832994
0.0992201
0.0978976
0.0818752
0.0556337
0.0546657
0.0805313
0.0960521
0.0948407
0.0792743
0.0537902
0.0529947
0.0780838
0.0934899
0.0923929
0.0769685
0.0522773
0.0516286
0.0759118
0.0907913
0.0897895
0.0749252
0.0510474
0.0505226
0.0739875
0.0886457
0.0877423
0.0731122
0.0500548
0.0496349
0.0722806
0.0863516
0.085535
0.0715077
0.0492638
0.0489299
0.0707704
0.0845766
0.0838483
0.0700851
0.0486358
0.048372
0.0694305
0.0826461
0.0819965
0.0688261
0.0481421
0.0479341
0.068246
0.0812032
0.0806317
0.0677107
0.0477532
0.0475892
0.0671957
0.0795958
0.0790939
0.0667249
0.0474485
0.0473183
0.0662693
0.0784456
0.0780114
0.0658536
0.0472058
0.0471
0.0654492
0.0771191
0.0767445
0.0650841
0.0470098
0.0469221
0.0647259
0.0762191
0.0759
0.0644032
0.046847
0.0467729
0.0640847
0.0751266
0.0748573
0.0638025
0.0467111
0.0466477
0.0635212
0.0744331
0.0742098
0.0632734
0.0465946
0.0465394
0.0630239
0.0735339
0.0733515
0.0628089
0.0464949
0.0464467
0.0625899
0.0730101
0.0727197
0.0624027
0.0464078
0.0463646
0.0622087
0.0724112
0.0721547
0.062047
0.0463315
0.0462941
0.0618778
0.0718793
0.071653
0.0617388
0.0462659
0.0462327
0.0615891
0.0714028
0.0712035
0.0614706
0.04621
0.0461831
0.0613424
0.0709817
0.0708073
0.0612426
0.0461653
0.0461472
0.0611323
0.0706034
0.0704494
0.0610446
0.0461311
0.0461257
0.0609566
0.0702695
0.0701363
0.0608832
0.0461141
0.0461153
0.0608074
0.0699696
0.0698522
0.0607475
0.0461119
0.0461189
0.0606857
0.069706
0.0697444
0.0606382
0.0461198
0.0461339
0.0605916
0.0693342
0.0693797
0.0605507
0.046143
0.0461619
0.0605312
0.0692767
0.0693327
0.0604982
0.0461758
0.0462018
0.0604921
0.0689642
0.0690313
0.0604684
0.046223
0.0462533
0.0604653
0.0689514
0.0688886
0.060445
0.0462776
0.0463121
0.0604484
0.0688214
0.0687637
0.0604349
0.0463412
0.0463788
0.0604425
0.0687227
0.0687972
0.0604305
0.0464086
0.046449
0.0604455
0.0685049
0.0685914
0.0604423
0.0464832
0.046525
0.0604598
0.068579
0.0685334
0.0604592
0.0465593
0.046603
0.0604837
0.0685326
0.0685
0.0604918
0.0466413
0.0466869
0.0605191
0.0685027
0.0684734
0.0605291
0.0467253
0.046773
0.0605632
0.0684867
0.0684696
0.0605816
0.0468157
0.0468655
0.0606183
0.0684855
0.0684707
0.0606382
0.0469087
0.0469609
0.0606812
0.0684964
0.0684928
0.0607092
0.0470087
0.0470634
0.0607545
0.0685205
0.068518
0.0607834
0.0471117
0.047169
0.0608345
0.0685547
0.0685627
0.060871
0.047222
0.0472818
0.0609239
0.0686004
0.0686086
0.0609606
0.0473353
0.0473975
0.0610187
0.0686544
0.0686722
0.0610625
0.0474555
0.0475201
0.0611219
0.0687186
0.0687362
0.0611657
0.0475785
0.0476453
0.0612297
0.0687896
0.0688159
0.0612799
0.0477078
0.0477769
0.0613454
0.0688698
0.0690334
0.0613956
0.04784
0.0479112
0.0614647
0.0688185
0.0689896
0.0615202
0.0479777
0.0480506
0.0615907
0.0690498
0.069221
0.0616463
0.0481176
0.048192
0.0617195
0.0690104
0.0691876
0.0617793
0.0482615
0.0483372
0.0618536
0.0692531
0.0692925
0.0619136
0.048407
0.0484838
0.0619905
0.069362
0.0694061
0.0620539
0.0485557
0.0486334
0.0621311
0.0694756
0.0695197
0.0621944
0.0487052
0.0487836
0.0622739
0.0695928
0.0696411
0.0623403
0.0488571
0.048936
0.0624199
0.0697137
0.0699004
0.0624857
0.0490089
0.0490881
0.0625667
0.0696979
0.0698889
0.0626351
0.0491623
0.0492414
0.0627163
0.0699638
0.0701538
0.0627837
0.0493146
0.0493935
0.0628657
0.069952
0.0701457
0.0629349
0.0494668
0.049544
0.0630159
0.0702217
0.0702739
0.0630836
0.0496145
0.0496897
0.0631655
0.0703521
0.0704072
0.0632348
0.0497592
0.0498325
0.0633155
0.0704841
0.0705378
0.0633831
0.0498993
0.0499708
0.0634642
0.0706165
0.0706728
0.063533
0.0500368
0.0501065
0.0636128
0.0707498
0.0709453
0.0636797
0.0501701
0.0502384
0.0637595
0.0707417
0.0709401
0.0638274
0.0503013
0.0503679
0.0639059
0.0710169
0.0712133
0.0639717
0.0504286
0.0504939
0.0640499
0.0710081
0.0712069
0.0641165
0.050554
0.0506177
0.0641934
0.071283
0.0714796
0.064258
0.0506757
0.0507381
0.0643344
0.0714137
0.07147
0.0643992
0.0507954
0.0508565
0.064474
0.0715454
0.0715994
0.0645367
0.0509118
0.0509714
0.0646112
0.0716753
0.0717309
0.0646742
0.0510262
0.0510845
0.0647472
0.0716626
0.0720024
0.0648083
0.0511374
0.0511944
0.0648806
0.0717902
0.0719883
0.064942
0.0512468
0.0513026
0.065013
0.072061
0.0721132
0.0650723
0.0513531
0.0514076
0.0651426
0.072186
0.0722393
0.065202
0.0514576
0.0515109
0.0652709
0.0723103
0.0725056
0.0653282
0.0515591
0.0516113
0.0653962
0.0722882
0.0724847
0.0654536
0.0516589
0.0517098
0.0655202
0.0725542
0.0726038
0.0655755
0.0517556
0.0518053
0.0656413
0.0726732
0.0727236
0.0656967
0.0518506
0.0518991
0.0657609
0.0727912
0.0728395
0.0658143
0.0519427
0.0519899
0.0658777
0.0729068
0.0729557
0.065931
0.0520329
0.0520792
0.0659931
0.0730214
0.0733612
0.0661766
0.0521206
0.0521654
0.0661048
0.0731327
0.0731802
0.0661559
0.0522061
0.05225
0.0660839
0.0729528
0.0734364
0.0662657
0.0522895
0.0523321
0.066324
0.0732064
0.0733993
0.0663735
0.0523709
0.0524127
0.0664312
0.0734609
0.0736523
0.0664793
0.0524504
0.0524911
0.0665354
0.0734195
0.0736116
0.0665833
0.0525282
0.0525681
0.0666387
0.073671
0.0738617
0.066685
0.052604
0.0526429
0.0667389
0.0736258
0.073817
0.066785
0.0526781
0.0527161
0.0668383
0.0738743
0.0740641
0.0668828
0.0527503
0.0527873
0.0669346
0.0738253
0.0740156
0.0669789
0.0528209
0.052857
0.0670301
0.0740708
0.0742597
0.067073
0.0528896
0.0529247
0.0671227
0.0740181
0.0742074
0.0671653
0.0529567
0.052991
0.0672144
0.0742606
0.0744485
0.0672555
0.053022
0.0530554
0.0673031
0.074204
0.0743923
0.067344
0.0530857
0.0531184
0.0673911
0.0744436
0.0746305
0.0674305
0.0531478
0.0531795
0.0674762
0.0743833
0.0745706
0.0675154
0.0532083
0.0532394
0.0675606
0.07462
0.0748059
0.0675986
0.0532673
0.0532975
0.0676424
0.0747045
0.0747419
0.0676799
0.053325
0.0533547
0.0677231
0.0746409
0.0749754
0.0677594
0.0533813
0.05341
0.0678014
0.074723
0.0749084
0.0678376
0.0534361
0.0534643
0.0678792
0.0749543
0.0751383
0.0679143
0.0534897
0.053517
0.0679546
0.0750327
0.0750676
0.0679892
0.0535421
0.053569
0.068029
0.0749625
0.0752957
0.0680626
0.0535932
0.0536192
0.0681013
0.0751881
0.0752215
0.0681346
0.0536431
0.0536688
0.0681728
0.0752643
0.0752963
0.0682049
0.0536919
0.0537168
0.068242
0.0753377
0.0753702
0.0682739
0.0537396
0.0537641
0.0683106
0.0752612
0.0755934
0.0683415
0.0537862
0.05381
0.068377
0.0753319
0.0755137
0.0684078
0.0538316
0.053855
0.0684432
0.0755531
0.075734
0.0684729
0.0538761
0.0538989
0.068507
0.0754704
0.0756515
0.0685365
0.0539196
0.0539421
0.0685703
0.0756895
0.0757182
0.0685988
0.0539622
0.0539839
0.0686316
0.0757551
0.0757841
0.06866
0.0540037
0.0540251
0.0686926
0.0758206
0.0759999
0.0687199
0.0540445
0.0540652
0.0687514
0.0757324
0.0760635
0.0687787
0.0540842
0.0541048
0.0688098
0.0759465
0.0759732
0.0688359
0.0541232
0.0541431
0.0688661
0.0760076
0.0760344
0.0688923
0.0541613
0.0541808
0.0689219
0.0760682
0.0760938
0.068947
0.0541984
0.0542174
0.0689761
0.076127
0.0761529
0.0690011
0.0542348
0.0542535
0.0690297
0.0760338
0.0763627
0.0690539
0.0542703
0.0542885
0.0690819
0.076242
0.0762669
0.0691059
0.0543052
0.0543232
0.0691333
0.0761465
0.0764749
0.0691564
0.0543392
0.0543567
0.0691832
0.0762009
0.0763771
0.0692063
0.0543726
0.0543898
0.0692329
0.0764074
0.0765826
0.0692552
0.0544052
0.054422
0.0692808
0.0763071
0.0764826
0.069303
0.0544372
0.0544536
0.0693285
0.0765118
0.0766863
0.0693499
0.0544685
0.0544845
0.0693743
0.0764093
0.0765842
0.0693957
0.0544992
0.0545149
0.0694202
0.0766124
0.0767863
0.0694408
0.0545292
0.0545446
0.0694643
0.0765079
0.0766821
0.0694849
0.0545587
0.0545738
0.0695083
0.0767093
0.0768826
0.0695282
0.0545876
0.0546023
0.0695507
0.0766028
0.0767764
0.0695706
0.0546158
0.0546302
0.069593
0.0768027
0.0769754
0.069612
0.0546434
0.0546575
0.0696337
0.0766945
0.0768673
0.0696527
0.0546705
0.0546843
0.0696742
0.0768927
0.0770647
0.0696924
0.0546968
0.0547104
0.0697134
0.0767826
0.0769546
0.0697315
0.0547228
0.0547361
0.0697523
0.0769793
0.0771505
0.0697696
0.054748
0.054761
0.0697897
0.0768671
0.0770384
0.0698069
0.0547727
0.0547855
0.0698268
0.0770624
0.0770787
0.0698434
0.0547968
0.0548093
0.0698628
0.0771022
0.0771191
0.0698794
0.0548205
0.0548328
0.0698986
0.0771421
0.0773122
0.0699145
0.0548437
0.0548558
0.0699332
0.0770264
0.0773511
0.0699491
0.0548667
0.0548787
0.0699676
0.0770647
0.0773884
0.0699828
0.054889
0.0549007
0.0700009
0.0772557
0.0772712
0.070016
0.0549112
0.0549228
0.0700339
0.0771388
0.0774622
0.0700483
0.0549327
0.0549441
0.0700659
0.0771746
0.0773437
0.0700805
0.054954
0.0549653
0.070098
0.0773647
0.0773784
0.0701118
0.0549748
0.0549857
0.0701289
0.0773992
0.0774133
0.0701429
0.0549953
0.0550062
0.0701598
0.0774336
0.0774467
0.0701729
0.0550154
0.055026
0.0701896
0.0774669
0.0774803
0.0702029
0.0550352
0.0550458
0.0702193
0.0775001
0.0775126
0.0702319
0.0550546
0.0550649
0.0702481
0.0775323
0.0775453
0.0702608
0.0550738
0.0550841
0.0702768
0.0775645
0.0775765
0.0702888
0.0550926
0.0551027
0.0703046
0.0775957
0.0776081
0.0703169
0.0551113
0.0551214
0.0703325
0.0776269
0.0776385
0.0703441
0.0551296
0.0551395
0.0703596
0.0776572
0.0776693
0.0703715
0.0551479
0.0551578
0.0703867
0.0776877
0.0776989
0.0703979
0.0551658
0.0551754
0.070413
0.0777172
0.0777288
0.0704245
0.0551837
0.0551933
0.0704394
0.0777468
0.0777576
0.0704502
0.0552011
0.0552105
0.070465
0.0777755
0.0777867
0.0704761
0.0552185
0.0552279
0.0704906
0.0778043
0.0778147
0.0705011
0.0552355
0.0552447
0.0705155
0.0778321
0.0778429
0.0705262
0.0552524
0.0552615
0.0705403
0.07786
0.0778699
0.0705503
0.0552688
0.0552777
0.0705643
0.0778869
0.0778972
0.0705746
0.0552851
0.055294
0.0705883
0.0779139
0.0779232
0.0705978
0.055301
0.0553095
0.0706113
0.0779397
0.0779498
0.0706213
0.0553166
0.0553251
0.0706347
0.0779659
0.0781307
0.0706438
0.0553318
0.0553401
0.0706567
0.0778351
0.0780006
0.0706663
0.055347
0.0553552
0.0706794
0.0780164
0.0781808
0.070688
0.0553617
0.0553697
0.0707006
0.0778846
0.0780499
0.0707099
0.0553764
0.0553845
0.0707228
0.0780654
0.0782296
0.0707311