/*--------------------------------*- C++ -*----------------------------------*\
| =========                 |                                                 |
| \\      /  F ield         | OpenFOAM: The Open Source CFD Toolbox           |
|  \\    /   O peration     | Version:  v2006                                 |
|   \\  /    A nd           | Website:  www.openfoam.com                      |
|    \\/     M anipulation  |                                                 |
\*---------------------------------------------------------------------------*/
FoamFile
{
    version     2.0;
    format      ascii;
    class       surfaceScalarField;
    location    "0.018";
    object      phi;
}
// * * * * * * * * * * * * * * * * * * * * * * * * * * * * * * * * * * * * * //

dimensions      [1 0 -1 0 0 0 0];
oriented        oriented;


internalField   nonuniform List<scalar> 
48460
(
-1.64095e-05
-0.00112145
0.0011087
2.91387e-05
-0.00105201
0.00103559
2.55254e-06
6.11984e-05
-1.9584e-05
0.00119271
2.03462e-05
0.00129878
-4.64211e-05
0.00130739
-7.35449e-06
0.00132915
-2.106e-05
0.0013045
-1.04918e-06
0.00129782
-3.12589e-06
0.0012838
9.17829e-07
0.00127861
-1.53882e-07
0.00127449
9.76699e-08
0.00127346
-3.27086e-08
0.00127291
-3.61349e-08
0.00127288
-3.87457e-08
0.00127298
-4.34614e-08
0.00127311
-6.2778e-08
0.00127317
-1.12162e-07
0.00127303
-1.8808e-07
0.00127249
-2.79108e-07
0.00127154
-3.71539e-07
0.00127026
-4.55436e-07
0.00126878
-5.26655e-07
0.0012672
-5.85449e-07
0.00126558
-6.34142e-07
0.00126396
-6.75417e-07
0.00126233
-7.11494e-07
0.00126069
-7.43901e-07
0.00125903
-7.73538e-07
0.00125735
-8.00882e-07
0.00125563
-8.26168e-07
0.00125387
-8.49523e-07
0.00125208
-8.71079e-07
0.00125025
-8.90953e-07
0.00124839
-9.09375e-07
0.0012465
-9.26728e-07
0.00124458
-9.43031e-07
0.00124263
-9.58349e-07
0.00124065
-9.72728e-07
0.00123865
-9.86211e-07
0.00123662
-9.98832e-07
0.00123456
-1.0106e-06
0.00123249
-1.02154e-06
0.00123039
-1.03164e-06
0.00122828
-1.0409e-06
0.00122614
-1.04931e-06
0.00122399
-1.05688e-06
0.00122183
-1.0636e-06
0.00121965
-1.0695e-06
0.00121746
-1.0745e-06
0.00121526
-1.07851e-06
0.00121305
-1.0815e-06
0.00121083
-1.0835e-06
0.00120861
-1.08449e-06
0.00120638
-1.08449e-06
0.00120416
-1.08346e-06
0.00120193
-1.08142e-06
0.00119971
-1.07838e-06
0.00119749
-1.07436e-06
0.00119528
-1.06938e-06
0.00119307
-1.06341e-06
0.00119088
-1.05646e-06
0.0011887
-1.04855e-06
0.00118653
-1.03966e-06
0.00118437
-1.02982e-06
0.00118223
-1.01902e-06
0.00118012
-1.00728e-06
0.00117802
-9.94596e-07
0.00117594
-9.80963e-07
0.00117389
-9.66361e-07
0.00117187
-9.50752e-07
0.00116987
-9.34081e-07
0.0011679
-9.16268e-07
0.00116596
-8.97209e-07
0.00116406
-8.76795e-07
0.00116218
-8.54937e-07
0.00116034
-8.31572e-07
0.00115854
-8.06699e-07
0.00115678
-7.80382e-07
0.00115507
-7.52688e-07
0.00115339
-7.2356e-07
0.00115176
-6.92552e-07
0.00115016
-6.58494e-07
0.00114859
-6.19082e-07
0.00114701
-5.70497e-07
0.00114543
-5.08013e-07
0.00114381
-4.30006e-07
0.00114218
-3.38728e-07
0.00114061
-1.32407e-07
0.0011389
-5.79161e-08
0.00113737
-1.27984e-07
0.00113512
-2.16069e-06
0.00113081
-3.63785e-06
0.00112275
-1.69597e-05
0.00110644
-2.57334e-05
0.00108443
-7.24466e-05
0.00104964
-0.000119067
0.00102608
-0.000278392
0.00102796
-0.000622105
0.00119622
-0.000185472
0.000297986
3.09076e-05
0.000521358
-1.52685e-05
0.000657117
-8.2107e-06
0.000623961
-3.89105e-05
0.000525032
-5.19745e-06
0.00047958
-3.18387e-06
0.000174701
-2.36261e-06
0.000144784
0.000117487
5.66129e-06
0.000111826
9.36049e-06
0.000141085
0.000169222
1.48392e-05
-6.17831e-06
0.000168108
7.29311e-06
-2.56636e-06
0.000137473
0.00010926
1.60342e-06
0.000107656
7.95742e-07
0.000138281
0.000167016
1.88751e-06
-6.85414e-07
0.000168065
-3.64338e-07
-1.40596e-06
0.000139001
0.00010625
2.73253e-07
0.000105977
1.78759e-06
0.000137486
0.000167964
1.88832e-06
-1.63344e-06
0.000167801
1.79591e-06
-1.16967e-06
0.000137022
0.000104807
1.07366e-06
0.000103733
1.53646e-06
0.000136559
0.000167625
1.71209e-06
-1.3957e-06
0.000167407
1.61272e-06
-2.02288e-06
0.000137185
0.000101709
9.20662e-07
0.000100788
1.33249e-06
0.000136773
0.00016719
1.54919e-06
-1.27296e-06
0.00016583
2.63187e-06
-8.5049e-07
0.00013635
9.99369e-05
7.81757e-07
9.91544e-05
1.20044e-06
0.00013593
0.000166705
3.23649e-07
-1.15048e-06
0.000165322
2.5325e-06
-7.29612e-07
0.000135508
9.8424e-05
6.78229e-07
9.77448e-05
1.09046e-06
0.000135095
0.000166172
2.3901e-07
-1.05231e-06
0.000164774
2.44885e-06
-6.40404e-07
0.000134682
9.71035e-05
6.00312e-07
9.65021e-05
1.00207e-06
0.000134279
0.000165606
1.68679e-07
-9.73002e-07
0.0001642
2.37724e-06
-5.7226e-07
0.000133876
9.59287e-05
5.40028e-07
9.53875e-05
9.30198e-07
0.000133485
0.000165019
1.09367e-07
-9.08482e-07
0.00016361
2.31572e-06
-5.19146e-07
0.000133094
9.48671e-05
4.92666e-07
9.43731e-05
8.71338e-07
0.000132714
0.00016442
5.94003e-08
-8.55286e-07
0.000163011
2.26247e-06
-4.76999e-07
0.000132334
9.38948e-05
4.54633e-07
9.34387e-05
8.22188e-07
0.000131964
0.000163815
1.65554e-08
-8.09433e-07
0.000162407
2.21432e-06
-4.42104e-07
0.000131595
9.29952e-05
4.25213e-07
9.25685e-05
7.83432e-07
0.000131235
0.000163207
-1.82072e-08
-7.70025e-07
0.000161802
2.17322e-06
-4.13127e-07
0.000130877
9.21539e-05
3.99945e-07
9.17524e-05
7.50271e-07
0.000130524
0.000162595
-4.54358e-08
-7.44849e-07
0.000161193
2.14401e-06
-3.93376e-07
0.000130171
9.13575e-05
3.78644e-07
9.09773e-05
7.20772e-07
0.000129827
0.000161981
-6.90864e-08
-7.18511e-07
0.000160583
2.11425e-06
-3.74205e-07
0.00012948
9.06015e-05
3.61029e-07
9.02389e-05
6.96318e-07
0.000129143
0.000161366
-8.93814e-08
-6.96242e-07
0.000159972
2.08833e-06
-3.58096e-07
0.000128803
8.98793e-05
3.46081e-07
8.95317e-05
6.75567e-07
0.000128472
0.000160751
-1.0571e-07
-6.77613e-07
0.000159359
2.06642e-06
-3.44543e-07
0.000128137
8.91856e-05
3.3338e-07
8.88507e-05
6.57998e-07
0.00012781
0.000160134
-1.186e-07
-6.61945e-07
0.000158745
2.04776e-06
-3.3304e-07
0.000127479
8.85161e-05
3.22535e-07
8.81921e-05
6.4312e-07
0.000127157
0.000159515
-1.28542e-07
-6.48682e-07
0.000158129
2.03169e-06
-3.23199e-07
0.000126829
8.78674e-05
3.13275e-07
8.75526e-05
6.30614e-07
0.00012651
0.000158893
-1.35749e-07
-6.37636e-07
0.000157511
2.01818e-06
-3.14816e-07
0.000126185
8.72363e-05
3.05308e-07
8.69295e-05
6.2006e-07
0.000125869
0.000158269
-1.40701e-07
-6.28381e-07
0.000156888
2.00674e-06
-3.07608e-07
0.000125546
8.66204e-05
2.98432e-07
8.63205e-05
6.11205e-07
0.000125231
0.000157641
-1.43617e-07
-6.20648e-07
0.000156262
1.99707e-06
-3.01375e-07
0.00012491
8.60176e-05
2.92523e-07
8.57236e-05
6.03911e-07
0.000124597
0.000157009
-1.4456e-07
-6.14534e-07
0.000155631
1.98944e-06
-2.96118e-07
0.000124277
8.5426e-05
2.87465e-07
8.5137e-05
5.98023e-07
0.000123964
0.000156371
-1.43727e-07
-6.09839e-07
0.000154995
1.98357e-06
-2.91702e-07
0.000123644
8.48438e-05
2.83214e-07
8.4559e-05
5.93494e-07
0.000123332
0.000155727
-1.41151e-07
-6.06277e-07
0.000154352
1.97904e-06
-2.87971e-07
0.000123012
8.42695e-05
2.79686e-07
8.39882e-05
5.90217e-07
0.0001227
0.000155077
-1.36884e-07
-6.03924e-07
0.000153703
1.97608e-06
-2.84931e-07
0.000122379
8.37016e-05
2.76758e-07
8.34232e-05
5.8797e-07
0.000122066
0.00015442
-1.3118e-07
-6.02421e-07
0.000153046
1.97421e-06
-2.82389e-07
0.000121744
8.31391e-05
2.74361e-07
8.2863e-05
5.86683e-07
0.000121429
0.000153754
-1.24053e-07
-6.01999e-07
0.00015238
1.97383e-06
-2.80429e-07
0.000121106
8.25808e-05
2.72491e-07
8.23065e-05
5.86375e-07
0.00012079
0.000153079
-1.15511e-07
-6.02747e-07
0.000151704
1.97508e-06
-2.79088e-07
0.000120464
8.20255e-05
2.71213e-07
8.17525e-05
5.87163e-07
0.000120146
0.000152394
-1.05393e-07
-6.04139e-07
0.000151019
1.97705e-06
-2.78115e-07
0.000119817
8.14725e-05
2.70427e-07
8.12001e-05
5.8887e-07
0.000119497
0.000151699
-9.38722e-08
-6.06596e-07
0.000150323
1.98049e-06
-2.77706e-07
0.000119166
8.09205e-05
2.70126e-07
8.06485e-05
5.9151e-07
0.000118842
0.000150992
-8.09245e-08
-6.10256e-07
0.000149614
1.98567e-06
-2.77907e-07
0.000118507
8.03688e-05
2.70413e-07
8.00965e-05
5.95286e-07
0.00011818
0.000150273
-6.62401e-08
-6.14751e-07
0.000148893
1.99193e-06
-2.78546e-07
0.000117842
7.98162e-05
2.71212e-07
7.95432e-05
6.00073e-07
0.000117511
0.000149541
-4.9949e-08
-6.2018e-07
0.000148159
1.99948e-06
-2.79663e-07
0.000117168
7.92618e-05
2.72452e-07
7.89876e-05
6.05731e-07
0.000116833
0.000148794
-3.22313e-08
-6.26334e-07
0.00014741
2.00804e-06
-2.81139e-07
0.000116485
7.87048e-05
2.74205e-07
7.84291e-05
6.12473e-07
0.000116145
0.000148033
-1.26616e-08
-6.33851e-07
0.000146646
2.01853e-06
-2.8328e-07
0.000115793
7.81443e-05
2.7643e-07
7.78664e-05
6.20142e-07
0.000115447
0.000147255
8.29835e-09
-6.42069e-07
0.000145865
2.02982e-06
-2.85781e-07
0.000115089
7.75792e-05
2.79116e-07
7.72988e-05
6.28738e-07
0.000114737
0.000146461
3.07212e-08
-6.5159e-07
0.000145068
2.0432e-06
-2.88911e-07
0.000114373
7.70087e-05
2.82263e-07
7.67253e-05
6.38288e-07
0.000114016
0.000145649
5.47933e-08
-6.61992e-07
0.000144251
2.05789e-06
-2.9245e-07
0.000113645
7.64318e-05
2.85953e-07
7.61449e-05
6.48997e-07
0.00011328
0.000144818
8.08872e-08
-6.73168e-07
0.000143416
2.07367e-06
-2.96348e-07
0.000112902
7.58476e-05
2.90077e-07
7.55567e-05
6.60679e-07
0.00011253
0.000143966
1.08748e-07
-6.85618e-07
0.000142559
2.0914e-06
-3.00826e-07
0.000112144
7.52552e-05
2.94708e-07
7.49599e-05
6.73476e-07
0.000111765
0.000143092
1.38529e-07
-6.99255e-07
0.00014168
2.1109e-06
-3.05845e-07
0.000111371
7.46535e-05
2.99929e-07
7.43531e-05
6.87554e-07
0.000110982
0.000142196
1.70493e-07
-7.14098e-07
0.000140777
2.13212e-06
-3.11422e-07
0.000110579
7.40413e-05
3.05716e-07
7.37352e-05
7.02862e-07
0.000110181
0.000141274
2.0456e-07
-7.30184e-07
0.000139849
2.15514e-06
-3.17577e-07
0.000109768
7.34174e-05
3.12091e-07
7.31051e-05
7.19434e-07
0.000109361
0.000140327
2.40818e-07
-7.47539e-07
0.000138894
2.18001e-06
-3.2431e-07
0.000108937
7.27806e-05
3.19051e-07
7.24615e-05
7.37302e-07
0.000108519
0.000139352
2.79333e-07
-7.66184e-07
0.000137911
2.20677e-06
-3.31624e-07
0.000108084
7.21298e-05
3.26597e-07
7.18032e-05
7.56475e-07
0.000107654
0.000138347
3.20151e-07
-7.86138e-07
0.000136898
2.23544e-06
-3.39525e-07
0.000107207
7.14637e-05
3.34762e-07
7.1129e-05
7.77035e-07
0.000106765
0.000137312
3.63427e-07
-8.07676e-07
0.000135853
2.26647e-06
-3.48142e-07
0.000106306
7.07809e-05
3.43515e-07
7.04375e-05
7.98885e-07
0.000105851
0.000136243
4.08969e-07
-8.30081e-07
0.000134775
2.29868e-06
-3.57131e-07
0.000105378
7.00805e-05
3.52878e-07
6.97278e-05
8.22142e-07
0.000104909
0.00013514
4.57133e-07
-8.54092e-07
0.000133661
2.33332e-06
-3.66833e-07
0.000104422
6.93612e-05
3.62863e-07
6.89986e-05
8.4684e-07
0.000103938
0.000134001
5.07917e-07
-8.80002e-07
0.00013251
2.37086e-06
-3.77374e-07
0.000103436
6.86215e-05
3.73622e-07
6.82482e-05
8.73269e-07
0.000102937
0.000132823
5.61742e-07
-9.0714e-07
0.00013132
2.41013e-06
-3.88437e-07
0.000102419
6.78602e-05
3.85171e-07
6.74754e-05
9.01511e-07
0.000101903
0.000131604
6.1889e-07
-9.36315e-07
0.000130088
2.45248e-06
-4.00407e-07
0.000101368
6.70755e-05
3.97503e-07
6.66786e-05
9.31548e-07
0.000100835
0.000130342
6.79281e-07
-9.67548e-07
0.000128812
2.49796e-06
-4.13273e-07
0.000100281
6.6266e-05
4.10811e-07
6.58558e-05
9.63802e-07
9.9729e-05
0.000129033
7.43615e-07
-1.00092e-06
0.000127489
2.54661e-06
-4.27078e-07
9.91561e-05
6.54295e-05
4.25067e-07
6.50053e-05
9.98225e-07
9.8584e-05
0.000127677
8.11832e-07
-1.0365e-06
0.000126116
2.59857e-06
-4.4185e-07
9.79905e-05
6.45644e-05
4.40306e-07
6.41251e-05
1.0349e-06
9.73972e-05
0.000126268
8.84108e-07
-1.07437e-06
0.00012469
2.65396e-06
-4.5762e-07
9.67818e-05
6.36685e-05
4.56566e-07
6.32131e-05
1.07394e-06
9.61658e-05
0.000124805
9.60648e-07
-1.1147e-06
0.000123209
2.71304e-06
-4.7445e-07
9.55271e-05
6.27399e-05
4.73944e-07
6.22673e-05
1.11556e-06
9.48871e-05
0.000123284
1.04184e-06
-1.15775e-06
0.000121668
2.77624e-06
-4.92456e-07
9.42236e-05
6.17763e-05
4.92585e-07
6.12852e-05
1.1601e-06
9.35579e-05
0.000121702
1.12827e-06
-1.20392e-06
0.000120064
2.84419e-06
-5.11816e-07
9.28677e-05
6.0775e-05
5.12674e-07
6.0264e-05
1.20797e-06
9.21744e-05
0.000120054
1.22066e-06
-1.25367e-06
0.000118392
2.91759e-06
-5.3273e-07
9.14556e-05
5.9733e-05
5.34446e-07
5.92004e-05
1.25971e-06
9.07326e-05
0.000118335
1.31988e-06
-1.30758e-06
0.000116648
2.99734e-06
-5.55463e-07
8.99828e-05
5.86469e-05
5.5822e-07
5.80907e-05
1.31602e-06
8.92275e-05
0.00011654
1.42709e-06
-1.36669e-06
0.000114824
3.08505e-06
-5.8049e-07
8.84438e-05
5.75123e-05
5.84351e-07
5.69302e-05
1.37766e-06
8.76532e-05
0.000114662
1.54344e-06
-1.43162e-06
0.000112915
3.18158e-06
-6.08077e-07
8.68324e-05
5.63244e-05
6.13836e-07
5.57129e-05
1.44678e-06
8.60023e-05
0.000112693
1.6722e-06
-1.50722e-06
0.000110911
3.29253e-06
-6.41482e-07
8.51396e-05
5.50739e-05
6.55858e-07
5.44206e-05
1.53336e-06
8.42651e-05
0.000110626
1.82241e-06
-1.60527e-06
0.000108807
3.42793e-06
-6.92256e-07
8.33553e-05
5.3731e-05
7.09842e-07
5.30238e-05
1.63825e-06
8.24302e-05
0.000108453
1.99588e-06
-1.714e-06
0.000106592
3.57963e-06
-7.46694e-07
8.14663e-05
5.22799e-05
7.64783e-07
5.1518e-05
1.75058e-06
8.04839e-05
0.000106162
2.18448e-06
-1.83043e-06
0.000104251
3.74529e-06
-8.02655e-07
7.94597e-05
5.07183e-05
8.21956e-07
4.98994e-05
1.8715e-06
7.84138e-05
0.000103737
2.38997e-06
-1.95659e-06
0.00010177
3.92767e-06
-8.61526e-07
7.73225e-05
4.90409e-05
8.82772e-07
4.81613e-05
2.00353e-06
7.62055e-05
0.000101162
2.61603e-06
-2.09546e-06
9.91314e-05
4.13098e-06
-9.24929e-07
7.50389e-05
4.72396e-05
9.49176e-07
4.62937e-05
2.15012e-06
7.38419e-05
9.84183e-05
2.86793e-06
-2.25085e-06
9.63131e-05
4.3608e-06
-9.94969e-07
7.25901e-05
4.53021e-05
1.02351e-06
4.4282e-05
2.31571e-06
7.1302e-05
9.54811e-05
3.15259e-06
-2.4266e-06
9.329e-05
4.62264e-06
-1.07368e-06
6.99532e-05
4.32117e-05
1.10673e-06
4.21085e-05
2.50225e-06
6.85619e-05
9.23247e-05
3.47251e-06
-2.63024e-06
9.00321e-05
4.92792e-06
-1.16453e-06
6.71005e-05
4.09476e-05
1.20538e-06
3.97458e-05
2.7236e-06
6.55866e-05
8.89113e-05
3.84952e-06
-2.87389e-06
8.64957e-05
5.29464e-06
-1.27329e-06
6.39905e-05
3.84762e-05
1.32453e-06
3.71553e-05
2.99065e-06
6.23288e-05
8.51913e-05
4.3004e-06
-3.17171e-06
8.26241e-05
5.74424e-06
-1.40632e-06
6.05679e-05
3.57528e-05
1.47295e-06
3.42836e-05
3.32283e-06
5.87226e-05
8.10969e-05
4.85539e-06
-3.54902e-06
7.83366e-05
6.31472e-06
-1.57537e-06
5.67536e-05
3.2712e-05
1.6659e-06
3.10499e-05
3.75271e-06
5.46714e-05
7.65306e-05
5.56415e-06
-4.04764e-06
7.35156e-05
7.06822e-06
-1.79998e-06
5.24284e-05
2.92538e-05
1.92855e-06
2.73291e-05
4.33396e-06
5.00277e-05
7.13476e-05
6.50756e-06
-4.73767e-06
6.79835e-05
8.10733e-06
-2.11267e-06
4.74074e-05
2.52203e-05
2.30507e-06
2.2919e-05
5.16e-06
4.45572e-05
6.53264e-05
7.8228e-06
-5.74686e-06
6.14636e-05
9.61525e-06
-2.57317e-06
4.13882e-05
2.03497e-05
2.88478e-06
1.74687e-05
6.41525e-06
3.78625e-05
5.8111e-05
9.77352e-06
-7.34554e-06
5.34851e-05
1.1977e-05
-3.32657e-06
3.38482e-05
1.41458e-05
3.79423e-06
1.03554e-05
8.46043e-06
2.91866e-05
4.90545e-05
1.28965e-05
-1.07276e-05
4.35569e-05
1.62307e-05
-5.26502e-06
2.37287e-05
5.09368e-06
6.95841e-06
-1.86345e-06
1.29282e-05
1.7762e-05
3.85583e-05
1.79313e-05
-1.15904e-05
3.20041e-05
1.81486e-05
-5.14236e-06
1.13162e-05
-7.00348e-06
2.0445e-06
-9.04488e-06
9.41217e-06
3.95199e-06
2.47913e-05
1.66294e-05
-8.27231e-06
1.66426e-05
1.64244e-05
-1.22558e-06
-3.09156e-06
-1.02676e-05
1.37776e-06
-1.16428e-05
5.66855e-06
-7.37934e-06
9.05078e-06
1.32635e-05
-3.75741e-06
2.53558e-06
1.02765e-05
-1.13366e-06
-9.99975e-06
-1.27737e-05
3.75394e-07
-1.31464e-05
1.86017e-06
-1.14811e-05
-1.83156e-06
6.23123e-06
-5.49997e-07
-4.60214e-06
3.32467e-06
1.50269e-07
-1.21779e-05
-1.29932e-05
-9.73092e-07
-1.20171e-05
-1.02267e-06
-1.21247e-05
-6.41431e-06
7.93865e-07
1.22813e-06
-8.14006e-06
5.01854e-07
1.29554e-06
-1.21884e-05
-1.07185e-05
-2.18929e-06
-8.52614e-06
-2.4011e-06
-1.19729e-05
-1.01367e-05
-4.00097e-07
2.5935e-06
-1.24423e-05
-2.84039e-07
2.30974e-06
-1.16859e-05
-6.21378e-06
-2.23395e-06
-3.9777e-06
-3.20789e-06
-1.07094e-05
-1.37151e-05
-1.93198e-06
1.23665e-07
-1.55742e-05
1.73884e-06
6.90595e-07
-1.12735e-05
-3.28477e-06
-2.14017e-07
-3.06842e-06
-2.17206e-07
-1.12675e-05
-1.59284e-05
1.40436e-07
-2.69116e-06
-1.76035e-05
4.36911e-06
-1.14614e-06
-1.28101e-05
-4.2126e-06
1.26307e-06
-5.47414e-06
2.44859e-06
-1.39938e-05
-1.87138e-05
3.56116e-06
-4.63566e-06
-2.11696e-05
7.09374e-06
-2.14964e-06
-1.64778e-05
-7.62221e-06
1.26922e-06
-8.88983e-06
2.38743e-06
-1.75941e-05
-2.21756e-05
3.39574e-06
-3.25404e-06
-2.37527e-05
4.83387e-06
-1.58796e-06
-1.92578e-05
-1.04759e-05
2.97309e-07
-1.07714e-05
1.80912e-07
-1.91392e-05
-2.35789e-05
9.85568e-09
-5.96009e-07
-2.3569e-05
5.89109e-07
-4.58455e-07
-1.92742e-05
-1.12278e-05
-5.88275e-07
-1.06376e-05
-1.69342e-06
-1.81668e-05
-2.24394e-05
-2.82035e-06
1.69515e-06
-2.12585e-05
-2.87307e-06
6.66474e-07
-1.71357e-05
-9.9691e-06
-1.29608e-06
-8.67109e-06
-2.98272e-06
-1.54467e-05
-1.95982e-05
-4.64026e-06
2.50987e-06
-1.81272e-05
-3.9782e-06
1.15719e-06
-1.40918e-05
-7.5121e-06
-1.27509e-06
-6.23521e-06
-2.72828e-06
-1.26364e-05
-1.67639e-05
-4.08902e-06
1.84203e-06
-1.57953e-05
-2.80784e-06
9.01485e-07
-1.16936e-05
-5.33184e-06
-7.62843e-07
-4.56719e-06
-1.57981e-06
-1.08744e-05
-1.51409e-05
-2.23159e-06
1.11343e-06
-1.45668e-05
-1.68502e-06
5.58029e-07
-1.03169e-05
-4.00747e-06
-4.44086e-07
-3.56175e-06
-8.79778e-07
-9.87925e-06
-1.42932e-05
-1.151e-06
6.71313e-07
-1.39266e-05
-1.0355e-06
3.4993e-07
-9.55583e-06
-3.21018e-06
-2.67651e-07
-2.9409e-06
-4.91541e-07
-9.32994e-06
-1.38416e-05
-5.74058e-07
3.741e-07
-1.36186e-05
-5.94912e-07
2.14528e-07
-9.16848e-06
-2.72485e-06
-1.62675e-07
-2.5608e-06
-2.58784e-07
-9.07068e-06
-1.36421e-05
-2.33234e-07
1.68149e-07
-1.35276e-05
-2.808e-07
1.23886e-07
-9.02491e-06
-2.43569e-06
-7.97453e-08
-2.35485e-06
-7.0035e-08
-9.03326e-06
-1.36447e-05
4.86396e-08
-4.11295e-08
-1.36351e-05
3.3019e-08
2.39348e-08
-9.09708e-06
-2.32989e-06
2.9605e-08
-2.35854e-06
1.44312e-07
-9.21062e-06
-1.38599e-05
3.70539e-07
-2.5818e-07
-1.39606e-05
3.60173e-07
-8.24653e-08
-9.38524e-06
-2.44011e-06
1.22962e-07
-2.56222e-06
3.44154e-07
-9.6054e-06
-1.42907e-05
6.75497e-07
-4.35148e-07
-1.44744e-05
6.20016e-07
-1.66789e-07
-9.87281e-06
-2.72822e-06
1.96945e-07
-2.92444e-06
4.94087e-07
-1.01691e-05
-1.48775e-05
8.98201e-07
-5.57018e-07
-1.51077e-05
7.88184e-07
-2.29417e-07
-1.04959e-05
-3.15321e-06
2.45207e-07
-3.39785e-06
5.83336e-07
-1.08333e-05
-1.5551e-05
1.02754e-06
-6.1248e-07
-1.57918e-05
8.54085e-07
-2.62445e-07
-1.11827e-05
-3.6598e-06
2.6306e-07
-3.9224e-06
6.07038e-07
-1.15261e-05
-1.62391e-05
1.05509e-06
-6.04575e-07
-1.64586e-05
8.24755e-07
-2.6478e-07
-1.18653e-05
-4.18676e-06
2.5253e-07
-4.43892e-06
5.73681e-07
-1.21859e-05
-1.68812e-05
9.96941e-07
-5.46198e-07
-1.70545e-05
7.20073e-07
-2.42042e-07
-1.24896e-05
-4.68062e-06
2.19732e-07
-4.90002e-06
4.95723e-07
-1.27651e-05
-1.7429e-05
8.70976e-07
-4.4804e-07
-1.75385e-05
5.5822e-07
-1.98562e-07
-1.3014e-05
-5.09823e-06
1.70136e-07
-5.26794e-06
3.85036e-07
-1.32282e-05
-1.7849e-05
6.96382e-07
-3.2581e-07
-1.7882e-05
3.59853e-07
-1.43962e-07
-1.34091e-05
-5.41132e-06
1.16086e-07
-5.52667e-06
2.60273e-07
-1.35522e-05
-1.81181e-05
4.97625e-07
-1.97638e-07
-1.80694e-05
1.5048e-07
-9.04134e-08
-1.36581e-05
-5.61621e-06
6.87831e-08
-5.68407e-06
1.37925e-07
-1.37259e-05
-1.82264e-05
2.96526e-07
-7.94179e-08
-1.80962e-05
-4.92253e-08
-4.86905e-08
-1.37552e-05
-5.73184e-06
3.39142e-08
-5.76485e-06
3.03067e-08
-1.37501e-05
-1.81744e-05
1.10184e-07
1.96842e-08
-1.79736e-05
-2.18815e-07
-1.83122e-08
-1.37106e-05
-5.78221e-06
1.03918e-08
-5.79157e-06
-5.56316e-08
-1.3643e-05
-1.79877e-05
-3.96515e-08
9.48851e-08
-1.7735e-05
-3.45432e-07
1.04113e-09
-1.35475e-05
-5.7894e-06
-7.78096e-09
-5.78044e-06
-1.19678e-07
-1.34339e-05
-1.7706e-05
-1.46454e-07
1.53657e-07
-1.74209e-05
-4.36624e-07
2.05895e-08
-1.32992e-05
-5.75867e-06
-2.75058e-08
-5.73004e-06
-1.70876e-07
-1.31543e-05
-1.73653e-05
-2.24368e-07
2.00673e-07
-1.7063e-05
-5.01337e-07
4.15506e-08
-1.29941e-05
-5.68755e-06
-4.87618e-08
-5.63805e-06
-2.12142e-07
-1.28298e-05
-1.69914e-05
-2.82332e-07
2.34965e-07
-1.6681e-05
-5.44256e-07
6.19209e-08
-1.26562e-05
-5.57566e-06
-6.87141e-08
-5.50659e-06
-2.40301e-07
-1.24842e-05
-1.66005e-05
-3.19998e-07
2.53113e-07
-1.62921e-05
-5.60741e-07
7.9423e-08
-1.23101e-05
-5.42695e-06
-8.37861e-08
-5.34296e-06
-2.48567e-07
-1.2145e-05
-1.62122e-05
-3.2795e-07
2.43495e-07
-1.59153e-05
-5.39868e-07
8.69558e-08
-1.19882e-05
-5.25582e-06
-8.2213e-08
-5.17338e-06
-2.24299e-07
-1.18458e-05
-1.58433e-05
-2.95809e-07
2.98409e-07
-1.56671e-05
-4.74211e-07
6.86205e-08
-1.16157e-05
-5.10456e-06
-2.35775e-08
-5.08078e-06
-4.17782e-08
-1.15972e-05
-1.53969e-05
-3.11634e-07
1.52545e-07
-1.53343e-05
-2.14894e-07
-4.146e-08
-1.1403e-05
-5.12202e-06
1.18141e-07
-5.23995e-06
4.54232e-08
-1.13301e-05
-1.51705e-05
-1.18157e-07
-4.17684e-08
-1.49148e-05
-2.13847e-07
-1.66352e-07
-1.12054e-05
-5.40615e-06
2.02162e-07
-5.60824e-06
2.74267e-07
-1.12774e-05
-1.47702e-05
1.29792e-07
-4.27334e-07
-1.48743e-05
5.31435e-07
-2.41068e-07
-1.14637e-05
-5.84928e-06
3.37163e-07
-6.18645e-06
6.28718e-07
-1.17552e-05
-1.53415e-05
1.09586e-06
-3.86891e-07
5.69766e-07
-1.61787e-07
2.91884e-06
4.32302e-05
3.23113e-07
4.56804e-05
1.00018e-06
4.83976e-05
-1.27185e-06
4.40857e-05
-1.26698e-06
3.96192e-05
-2.58453e-06
2.98294e-05
-3.90903e-06
2.47027e-05
-5.84553e-06
2.04212e-05
-8.22867e-06
1.81729e-05
-1.06365e-05
1.66164e-05
-1.31632e-05
1.60963e-05
-1.51911e-05
1.57622e-05
-1.71488e-05
1.59481e-05
-1.83538e-05
1.51038e-05
-1.96389e-05
1.40575e-05
-2.03004e-05
1.13754e-05
-2.11354e-05
8.84531e-06
-2.12201e-05
4.61239e-06
-2.13928e-05
6.24958e-07
-2.095e-05
-5.04706e-06
-2.10416e-05
-1.02648e-05
-2.06669e-05
-1.73808e-05
-2.06589e-05
-2.38968e-05
-2.00771e-05
-3.24597e-05
-1.98482e-05
-4.01251e-05
-1.90296e-05
-5.02027e-05
-1.8604e-05
-5.88218e-05
-1.75824e-05
-7.01893e-05
-1.70001e-05
-7.93675e-05
-1.584e-05
-9.15747e-05
-1.51624e-05
-0.00010087
-1.39543e-05
-0.000113313
-1.32513e-05
-0.000122357
-1.20853e-05
-0.000134495
-1.14172e-05
-0.000143013
-1.03397e-05
-0.000154313
-9.66463e-06
-0.000162081
-8.41167e-06
-0.000172193
-7.53345e-06
-0.000178432
-5.25663e-06
-0.000186349
-3.54648e-06
-0.000189777
1.85138e-06
-0.000194126
7.6448e-06
-0.000195444
2.86081e-05
-0.000201563
7.2093e-05
-0.00020942
3.6366e-05
-0.000131023
1.55935e-05
-0.000130967
1.49887e-05
-0.000117697
4.24824e-06
-0.000105227
2.3609e-06
-3.49587e-05
8.80368e-07
-2.50874e-05
-1.23091e-05
-1.40352e-06
-1.09064e-05
-3.52537e-06
-2.29669e-05
-3.22446e-05
-6.24115e-06
3.05806e-06
-2.99205e-05
-5.38376e-06
1.23966e-06
-2.11498e-05
-9.66761e-06
-9.19297e-07
-8.7493e-06
-2.11296e-06
-1.99575e-05
-2.84367e-05
-3.59839e-06
6.63505e-07
-2.80916e-05
-1.01019e-06
3.0123e-07
-1.95966e-05
-8.44907e-06
-1.73704e-07
-8.27647e-06
-4.58063e-07
-1.93137e-05
-2.7668e-05
-8.83175e-07
-3.24351e-07
-2.78889e-05
5.43704e-07
-1.23658e-07
-1.95158e-05
-8.40126e-06
7.76949e-08
-8.48017e-06
1.02279e-07
-1.95417e-05
-2.78438e-05
5.57832e-08
-6.5004e-07
-2.828e-05
1.08494e-06
-2.6643e-07
-1.99266e-05
-8.7478e-06
7.21024e-08
-8.82115e-06
1.13922e-07
-1.99697e-05
-2.8246e-05
7.86564e-08
-5.88379e-07
-2.86276e-05
9.68831e-07
-2.78683e-07
-2.02806e-05
-9.10105e-06
1.06327e-07
-9.20858e-06
2.2405e-07
-2.03994e-05
-2.85863e-05
1.81688e-07
-6.75403e-07
-2.90614e-05
1.14957e-06
-3.14392e-07
-2.07615e-05
-9.52414e-06
8.15127e-08
-9.60676e-06
1.54222e-07
-2.08352e-05
-2.89657e-05
5.76301e-08
-5.95005e-07
-2.93307e-05
9.59137e-07
-2.92733e-07
-2.11384e-05
-9.90053e-06
1.12347e-07
-1.00138e-05
2.16298e-07
-2.12431e-05
-2.93063e-05
1.91068e-07
-6.74348e-07
-2.97585e-05
1.12586e-06
-3.26619e-07
-2.15916e-05
-1.03413e-05
8.22015e-08
-1.04243e-05
1.34886e-07
-2.1645e-05
-2.96294e-05
5.09296e-09
-5.82505e-07
-2.99642e-05
9.1671e-07
-2.99854e-07
-2.19283e-05
-1.07249e-05
1.12672e-07
-1.08382e-05
1.93228e-07
-2.20094e-05
-2.99049e-05
1.33296e-07
-6.57561e-07
-3.03241e-05
1.07622e-06
-3.32814e-07
-2.23347e-05
-1.11716e-05
7.62825e-08
-1.12483e-05
9.87346e-08
-2.23576e-05
-3.01518e-05
-7.41009e-08
-5.54618e-07
-3.04459e-05
8.4819e-07
-3.00803e-07
-2.26119e-05
-1.15496e-05
1.05211e-07
-1.16552e-05
1.5312e-07
-2.26603e-05
-3.03429e-05
4.96151e-08
-6.20676e-07
-3.07175e-05
9.9476e-07
-3.30247e-07
-2.29511e-05
-1.19859e-05
6.06271e-08
-1.20469e-05
4.14261e-08
-2.29323e-05
-3.04915e-05
-1.84963e-07
-5.0411e-07
-3.07323e-05
7.44444e-07
-2.91293e-07
-2.31455e-05
-1.23385e-05
8.72963e-08
-1.24261e-05
9.11167e-08
-2.31497e-05
-3.05737e-05
-6.80108e-08
-5.58005e-07
-3.08875e-05
8.71444e-07
-3.15166e-07
-2.3393e-05
-1.27416e-05
3.24786e-08
-1.27744e-05
-4.21764e-08
-2.33187e-05
-3.0596e-05
-3.3411e-07
-4.25939e-07
-3.07698e-05
5.9927e-07
-2.68982e-07
-2.3476e-05
-1.30437e-05
5.78588e-08
-1.31019e-05
4.46899e-09
-2.3423e-05
-3.05419e-05
-2.23895e-07
-4.67936e-07
-3.07765e-05
7.02131e-07
-2.8726e-07
-2.3604e-05
-1.33894e-05
-8.0541e-09
-1.33817e-05
-1.51989e-07
-2.34604e-05
-3.04051e-05
-5.23831e-07
-3.19932e-07
-3.04948e-05
4.09189e-07
-2.33687e-07
-2.35471e-05
-1.36157e-05
1.91107e-08
-1.36351e-05
-1.07525e-07
-2.34208e-05
-3.01838e-05
-4.18884e-07
-3.4613e-07
-3.03212e-05
4.83045e-07
-2.49032e-07
-2.35183e-05
-1.38844e-05
-6.55202e-08
-1.38192e-05
-2.91784e-07
-2.32924e-05
-2.98543e-05
-7.59174e-07
-1.82847e-07
-2.98413e-05
1.6941e-07
-1.81127e-07
-2.32945e-05
-1.40007e-05
-3.40572e-08
-1.3967e-05
-2.4561e-07
-2.30833e-05
-2.94331e-05
-6.54209e-07
-1.94188e-07
-2.94527e-05
2.13298e-07
-1.94227e-07
-2.30837e-05
-1.41615e-05
-1.31676e-07
-1.40301e-05
-4.52448e-07
-2.27633e-05
-2.88757e-05
-1.02984e-06
-3.10255e-08
-2.8741e-05
-1.04205e-07
-1.25672e-07
-2.2669e-05
-1.41561e-05
-8.11192e-08
-1.40753e-05
-3.79287e-07
-2.23712e-05
-2.82253e-05
-8.95401e-07
-5.62545e-08
-2.80728e-05
-9.67356e-08
-1.51868e-07
-2.2276e-05
-1.42275e-05
-1.642e-07
-1.40636e-05
-6.06425e-07
-2.18341e-05
-2.74233e-05
-1.25642e-06
2.70845e-08
-2.71062e-05
-3.44686e-07
-1.24378e-07
-2.16831e-05
-1.41883e-05
-8.51879e-08
-1.41035e-05
-5.33623e-07
-2.12351e-05
-2.65099e-05
-1.13036e-06
4.85621e-08
-2.61194e-05
-4.3961e-07
-9.4229e-08
-2.10928e-05
-1.41982e-05
-2.49611e-07
-1.3949e-05
-8.64681e-07
-2.04781e-05
-2.53728e-05
-1.61174e-06
3.27253e-07
-2.49155e-05
-7.85067e-07
1.41682e-08
-2.01655e-05
-1.39352e-05
-2.24814e-07
-1.37107e-05
-7.37989e-07
-1.96527e-05
-2.42681e-05
-1.38596e-06
3.76389e-07
-2.3873e-05
-7.71965e-07
8.64616e-08
-1.93632e-05
-1.36245e-05
-2.39389e-07
-1.33853e-05
-7.91513e-07
-1.88115e-05
-2.31486e-05
-1.51646e-06
7.3352e-08
-2.28287e-05
-3.93911e-07
-5.7374e-08
-1.86812e-05
-1.34427e-05
4.28063e-07
-1.38719e-05
4.28811e-07
-1.86822e-05
-2.23173e-05
-8.3283e-08
1.75792e-05
-1.09777e-05
-2.89232e-05
7.78961e-06
-8.88744e-06
-6.08028e-06
1.11593e-06
-7.34962e-06
3.51312e-06
-1.10672e-05
-1.38757e-05
6.35214e-06
-1.11962e-06
-1.44043e-05
1.64354e-06
-6.22797e-07
-1.15591e-05
-7.97325e-06
-9.33289e-09
-7.96462e-06
-3.7746e-07
-1.11929e-05
-1.38648e-05
-9.17781e-07
1.03783e-06
-2.52755e-05
1.03716e-05
2.9129e-07
-1.04472e-05
-7.67403e-06
-4.68026e-07
-7.20633e-06
8.28661e-06
-1.92024e-05
-1.91082e-05
2.11848e-06
-7.49075e-08
-1.59694e-05
-3.0643e-06
-5.7186e-06
-1.35592e-05
-1.29252e-05
-1.73481e-06
-1.11912e-05
-4.06413e-06
-1.12306e-05
-1.22957e-05
-7.73869e-06
8.36834e-06
-7.19316e-06
-1.34719e-05
3.76277e-06
-6.62597e-06
-7.42941e-06
-6.34904e-06
-1.08135e-06
-1.37867e-05
8.10819e-07
5.57394e-06
-2.65548e-05
1.21328e-05
4.59921e-06
-1.11586e-05
7.74818e-06
5.19487e-06
6.66594e-06
-9.9789e-06
1.6644e-05
-1.35381e-05
8.7536e-06
6.18356e-06
-1.51229e-05
2.15449e-05
1.20068e-05
-2.73687e-05
1.52561e-05
1.50418e-05
3.18991e-05
-2.28248e-05
5.47228e-05
-3.08052e-05
2.30215e-05
1.93932e-05
-3.81923e-05
4.08341e-05
2.80011e-05
-4.94426e-05
3.16157e-05
3.22394e-05
8.63373e-05
-4.71779e-05
0.000133514
-6.00053e-05
4.50662e-05
3.70131e-05
-6.90178e-05
8.5478e-05
8.53039e-05
-0.000133769
6.45827e-05
6.5961e-05
0.000198095
-6.8901e-05
0.000266995
-6.62596e-05
6.33191e-05
4.85189e-05
-2.9475e-05
8.38059e-05
4.67246e-05
-8.20119e-05
8.58124e-05
6.13123e-05
0.000352806
-0.000115473
0.000468277
-0.000125822
7.16611e-05
5.6023e-05
-0.000135121
0.000165994
0.000120883
-0.000230854
0.000145153
9.25015e-05
0.000613429
-0.000145554
0.000758981
-0.000134021
8.09683e-05
6.18582e-05
-7.49964e-05
0.000153256
4.46217e-05
-0.000136019
0.000164108
7.01159e-05
0.000923088
-0.000200507
0.00112359
-0.000225789
9.53981e-05
0.000115971
-0.000297139
0.000185393
6.76885e-05
-0.000137111
0.000196381
8.44102e-05
0.00131997
-0.000190767
0.00151074
-0.00020033
9.39738e-05
8.57025e-05
-0.000218344
0.000179539
0.000129619
-0.000223455
0.000158716
0.000114796
0.00166946
-5.38095e-05
0.00172327
-6.79713e-05
0.000128958
0.000132895
-7.12467e-05
-5.65869e-06
0.000164152
-2.55981e-05
-4.70872e-05
0.000170387
0.00167618
0.000148266
0.00152792
0.000130664
0.000187991
0.000204859
8.99584e-05
-0.000258614
0.000131218
0.000332257
-0.000217379
0.000146756
0.00131055
0.00020503
0.00110552
0.000205762
0.000146025
0.000134849
0.000202132
-0.000167206
0.000245146
5.69101e-05
-0.000192956
0.000171777
0.000912572
0.000197009
0.000715571
0.000229513
0.000139274
0.000136813
0.000337847
-0.000175153
0.000128461
0.000183506
-0.000169003
0.000133126
0.000546576
0.000137932
0.000408652
0.000124965
0.000146095
0.000218573
3.48537e-05
-0.000161213
0.000120818
0.000258971
-0.000127917
0.000112802
0.000280743
9.1763e-05
0.000188987
0.000106585
9.79819e-05
0.000100431
0.000126975
-6.04395e-05
0.000158525
2.34673e-06
-6.11927e-05
9.87379e-05
0.0001278
5.20111e-05
7.57942e-05
8.37e-05
6.70526e-05
8.30177e-05
0.000159211
-5.47587e-05
5.93999e-05
7.83787e-05
-3.57339e-05
4.80309e-05
4.00648e-05
2.17851e-05
1.82832e-05
2.94001e-05
4.04187e-05
9.02784e-05
-1.47624e-06
-5.23814e-05
3.20665e-05
0.000110597
-2.22384e-05
1.02783e-05
-3.95244e-06
1.71649e-06
-5.66853e-06
2.54899e-05
-1.34921e-05
1.56709e-05
4.18867e-05