/*--------------------------------*- C++ -*----------------------------------*\
| =========                 |                                                 |
| \\      /  F ield         | OpenFOAM: The Open Source CFD Toolbox           |
|  \\    /   O peration     | Version:  v2006                                 |
|   \\  /    A nd           | Website:  www.openfoam.com                      |
|    \\/     M anipulation  |                                                 |
\*---------------------------------------------------------------------------*/
FoamFile
{
    version     2.0;
    format      ascii;
    class       volScalarField;
    location    "0.075";
    object      yPlus;
}
// * * * * * * * * * * * * * * * * * * * * * * * * * * * * * * * * * * * * * //

dimensions      [0 0 0 0 0 0 0];


internalField   uniform 0;

boundaryField
{
    bottomEmptyFaces
    {
        type            empty;
    }
    topEmptyFaces
    {
        type            empty;
    }
    inlet
    {
        type            calculated;
        value           uniform 0;
    }
    outlet
    {
        type            calculated;
        value           uniform 0;
    }
    walls
    {
        type            calculated;
        value           nonuniform List<scalar> 
1055
(
30.39
29.6542
28.9762
28.3501
27.7827
27.2702
26.8144
26.406
26.0438
25.7209
25.4358
25.1817
24.9594
24.7647
24.599
24.4559
24.3354
24.232
24.1475
24.0765
24.0199
23.9728
23.9376
23.9091
23.888
23.87
23.8574
23.8468
23.8394
23.8338
23.8324
23.8312
23.8327
23.8354
23.8391
23.8438
23.8479
23.8527
23.8559
23.8597
23.8616
23.8641
23.8639
23.8649
23.8625
23.862
23.8577
23.856
23.8507
23.848
23.8418
23.838
23.8311
23.8262
23.8185
23.8127
23.8045
23.7982
23.7898
23.7832
23.775
23.7686
23.7602
23.7536
23.7454
23.7388
23.7304
23.724
23.7157
23.7093
23.7012
23.6949
23.6869
23.6809
23.6732
23.6676
23.6603
23.6552
23.6485
23.644
23.6376
23.6338
23.628
23.6249
23.6196
23.6173
23.6127
23.6111
23.6073
23.6064
23.6036
23.6033
23.6016
23.6018
23.6011
23.6018
23.6022
23.6034
23.6048
23.6065
23.6086
23.611
23.6137
23.6169
23.62
23.6241
23.6277
23.6325
23.6366
23.642
23.6467
23.6525
23.6576
23.6638
23.6694
23.6761
23.6819
23.689
23.6952
23.7026
23.7091
23.7168
23.7235
23.7314
23.7384
23.7465
23.7537
23.7621
23.7695
23.778
23.7856
23.7943
23.802
23.8109
23.8187
23.8276
23.8355
23.8445
23.8525
23.8615
23.8697
23.8787
23.8868
23.8958
23.9039
23.913
23.9211
23.9302
23.9383
23.9473
23.9554
23.9643
23.9725
23.9814
23.9895
23.9984
24.0065
24.0154
24.0235
24.0324
24.0405
24.0494
24.0574
24.0664
24.0744
24.0834
24.0915
24.1005
24.1085
24.1175
24.1255
24.1346
24.1426
24.1516
24.1595
24.1684
24.1761
24.185
24.1925
24.2013
24.2084
24.2253
24.2243
24.2249
24.2394
24.2486
24.2541
24.2803
24.2893
24.3169
24.2764
24.2164
23.9997
24.1587
24.5682
8.47141
7.2553
6.64939
11.4102
10.5774
9.67964
7.99031
18.262
13.3596
11.5844
11.4902
12.7382
9.36692
7.84379
12.4943
11.385
13.6572
13.6333
10.7317
9.22439
9.75729
9.65741
8.5545
7.3893
10.1422
9.91222
8.85847
7.50023
9.12989
7.611
8.60088
7.37551
9.60249
10.0794
8.55442
7.40869
8.37421
7.30501
8.33313
7.1905
6.35674
10.4489
10.9393
9.73455
10.6117
9.48071
10.4037
9.22862
9.99066
9.24521
10.1208
10.1275
10.5489
9.32721
10.2174
11.5635
8.41747
8.7308
8.99733
9.76065
10.3289
10.778
11.8821
8.58689
8.99746
9.59135
10.385
8.35452
9.02755
10.0207
7.32539
7.54452
8.80212
9.06813
10.1799
7.41968
7.67723
8.01664
8.50372
9.1612
9.53052
8.14433
8.6677
8.42362
9.14214
8.66774
9.39405
8.33964
8.92869
10.769
9.39978
9.77761
7.7715
8.09787
10.5606
7.6695
8.00562
10.4286
9.10366
9.40731
8.29687
9.01375
7.96747
8.56457
7.57699
7.97373
9.87993
10.2923
11.3938
8.27075
8.67215
8.84876
9.73331
11.0415
7.9779
8.26777
8.67071
9.3051
9.13651
9.95005
9.64306
10.099
8.96743
9.73621
8.65943
9.54782
8.50344
9.13259
9.46434
9.83343
10.8724
8.04235
8.39188
8.66168
9.40172
9.1302
9.97902
8.83021
9.61448
8.69017
9.11206
7.87641
7.68622
7.33201
7.04392
9.56711
7.42695
7.82589
8.34351
8.52662
9.44601
7.01791
7.28661
8.38456
8.5949
9.72877
7.10427
7.36731
7.59511
8.00291
8.15586
8.26358
7.02425
7.24146
7.97553
7.9742
7.82064
7.80083
9.16509
6.87279
7.0528
9.2071
7.87151
7.91848
6.82446
7.06344
9.08099
7.36038
7.03834
8.99732
7.76974
7.71687
8.68345
6.69741
6.78397
7.83613
7.75095
6.66106
6.65523
6.67665
6.76441
9.23766
7.97113
8.05214
9.30125
6.90728
7.07003
6.87961
7.16712
9.00451
8.80574
7.40056
6.96397
8.30632
6.94174
6.45509
8.36743
7.16559
6.61022
8.44704
7.09848
6.47531
8.33176
7.04174
6.50578
8.06767
6.38896
6.17657
8.28579
6.77807
6.39733
7.80692
7.42415
8.38284
7.73912
7.51682
6.46867
6.37297
8.75175
8.66965
7.2736
6.86746
7.39486
6.93782
7.08879
6.79532
8.97526
7.22358
6.92698
8.57577
6.60376
6.60398
8.7311
8.9554
10.0724
7.3881
7.65829
9.89973
7.21643
7.55048
8.58593
8.82813
7.77805
8.29222
7.85996
8.32163
8.71721
9.03786
8.0495
8.58415
13.2265
11.3568
8.65283
11.2589
8.33613
11.6868
9.73314
7.0592
10.6633
10.3508
7.15162
12.2553
9.99385
26.1629
24.6514
8.23649
8.7901
6.05256
25.258
21.1982
21.2197
20.3839
10.3756
20.1317
8.86676
25.4427
7.73347
20.6777
8.92821
6.06242
20.1173
21.4352
20.9079
10.7239
9.57681
8.44726
7.43819
8.27757
5.91395
28.0553
26.4965
21.8345
21.3797
22.1133
21.5538
25.0694
21.9928
20.9232
27.0911
23.3306
22.395
10.0131
9.01189
8.46975
7.98296
7.32985
8.53381
6.10462
10.5105
9.67709
9.10974
8.61537
8.21677
7.66394
6.94757
7.82409
5.67526
9.69158
8.95145
8.50412
8.12598
7.81744
7.5226
7.27643
7.05687
6.93245
6.78318
6.41535
7.77657
5.34529
9.8259
9.28804
8.97828
8.80646
8.60529
13.9748
8.38222
8.20763
8.06958
7.91833
7.82291
10.9687
12.0099
7.67943
12.0637
12.508
10.402
11.2426
13.4653
11.6605
12.1853
9.68397
10.2522
10.6762
11.7121
7.58685
7.54741
7.42864
7.30624
7.21126
7.12747
7.05614
7.00072
14.7196
10.4355
11.0834
12.6198
13.1814
11.5921
12.7014
6.95349
6.91432
6.8807
6.85662
6.83196
6.81507
6.80611
6.79764
13.5549
14.1614
12.3834
13.4757
6.79192
6.78093
6.77686
6.77421
6.76751
6.76129
6.75987
6.75838
13.8128
14.2733
13.2509
14.3908
12.6134
13.5865
16.083
11.5366
12.2694
6.75232
15.787
6.74602
6.74416
11.3246
11.9975
6.73944
6.73704
12.3225
13.209
6.72759
6.7242
6.71829
15.2098
11.8259
12.9218
13.0583
13.5838
11.8434
12.8159
10.9409
11.5672
11.434
12.3428
11.2937
12.3175
12.1833
12.6625
11.0783
12.1956
14.1159
10.1196
10.6835
10.9254
11.8058
14.4418
11.1276
12.0395
10.4871
11.0647
12.3923
12.9235
10.8031
11.6737
10.1462
10.6838
19.2157
14.3756
14.9454
6.71368
6.70307
6.69786
6.69367
20.6745
6.68362
6.67449
6.66848
20.0293
6.66355
14.5025
15.4548
17.3307
17.432
19.8285
16.8824
17.2557
14.5695
15.3281
16.7144
16.9897
6.65285
6.6433
6.63684
6.63163
6.62082
6.61114
6.60467
6.59933
6.58857
6.57878
6.57246
6.56708
6.55651
6.54673
6.54058
15.434
6.53523
15.7264
16.2547
16.7837
14.4231
15.4049
18.2122
13.1213
13.9303
6.52495
6.51538
6.50944
6.50386
6.49391
6.48419
6.47921
6.47173
17.4695
13.9965
14.9639
12.9065
13.6431
13.3547
14.2765
17.096
14.6324
15.1988
12.266
13.0421
14.8189
15.453
18.3949
15.7141
16.2066
13.3016
14.0621
19.2574
19.044
13.9395
14.6126
16.299
16.4993
16.145
16.6183
6.46656
14.1198
6.4551
14.8869
6.45037
6.44313
6.43815
6.42669
6.42165
6.41486
21.3869
6.41001
6.39942
15.8605
16.5991
6.39455
6.3882
6.38308
6.37311
6.36852
22.2167
6.36498
21.9201
18.1196
17.9019
18.726
18.9131
19.8308
19.9421
23.5388
6.35608
18.8364
6.35071
18.6898
6.34204
6.34074
6.33277
22.7421
6.32743
6.32245
18.7962
18.4514
6.31504
23.0247
17.9218
18.4296
16.8792
17.4096
18.0734
18.3441
15.5605
16.1825
6.31332
6.30751
6.31048
6.37334
6.41646
6.51456
6.77796
7.13018
29.3885
26.0222
30.1982
23.7391
22.0946
29.7238
26.9395
26.8554
23.3171
22.3387
9.91868
10.7885
33.5027
32.2382
30.9775
32.8737
25.4404
23.3892
31.156
26.9628
25.5223
22.8374
12.5335
30.5115
9.98323
10.9189
10.8448
11.2649
29.0148
35.8158
27.567
25.3189
10.2505
11.2118
10.0417
11.0063
35.9436
12.8087
11.1215
11.5902
9.26228
9.7342
36.3913
9.7837
10.5597
9.13919
9.59896
36.7085
36.6929
36.8087
36.5165
35.7908
13.1634
34.8794
10.7569
11.7148
10.4518
11.4931
10.2339
11.0391
9.53712
10.0524
10.4145
11.3872
11.3392
11.781
10.2147
11.1359
33.9352
32.9823
32.056
31.1892
9.58987
10.5427
11.9957
8.70347
9.01548
9.33571
10.1147
9.78489
10.723
25.0508
7.58081
36.471
33.1929
31.0012
29.531
28.4213
27.3887
26.6569
25.9466
25.5499
25.0744
24.7908
24.4221
24.2085
23.9079
23.7399
23.4854
23.3473
23.1238
23.0058
22.8044
22.7008
22.5154
22.4219
22.2482
22.162
21.9971
21.9162
21.7582
21.6813
21.5286
21.4547
21.3063
21.2346
21.0896
21.0196
20.8774
20.8086
20.6687
20.6008
20.4626
20.3953
20.2584
20.1915
20.0554
19.9886
19.8529
19.7858
19.6501
19.5826
19.4465
19.3781
19.2412
19.1719
19.0339
18.9634
18.8238
18.7518
18.6105
18.5369
18.3934
18.3181
18.1723
18.0951
17.9467
17.8676
17.7165
17.6355
17.4817
17.3989
17.2424
17.1581
16.9989
16.9133
16.7517
16.6652
16.5017
16.415
16.2502
16.1639
15.9987
15.9141
15.7497
15.6681
15.506
15.4291
15.2713
15.2012
15.0498
14.9891
14.8466
14.7989
14.6689
14.6359
14.5253
14.507
14.419
14.4164
14.3584
14.3687
14.3441
14.3666
14.3591
14.4107
14.4189
14.4977
14.5217
14.6234
14.6591
14.7763
14.8204
14.9481
14.9985
15.1337
15.1881
15.3275
15.3834
15.523
15.5785
15.7153
15.7688
15.8998
15.9497
16.0726
16.118
16.2309
16.2711
16.3725
16.4067
16.4951
16.5229
16.5983
16.6197
16.6824
16.6973
16.749
16.7588
16.7986
16.8026
16.8335
16.834
16.8562
16.8543
16.8694
16.8652
16.8751
16.869
16.875
16.8667
16.8707
16.8579
16.8619
16.8458
16.8487
16.8299
16.8319
16.8141
16.8153
16.7942
16.7939
16.7716
16.7747
16.7525
16.7523
16.7302
16.7293
16.702
16.709
16.6758
16.686
16.6397
16.7142
16.7428
16.9443
17.2274
18.2729
20.9102
18.9381
39.9397
)
;
    }
    rightWall
    {
        type            calculated;
        value           uniform 0;
    }
    symmetryLine
    {
        type            symmetryPlane;
    }
}


// ************************************************************************* //
