/*--------------------------------*- C++ -*----------------------------------*\
| =========                 |                                                 |
| \\      /  F ield         | OpenFOAM: The Open Source CFD Toolbox           |
|  \\    /   O peration     | Version:  v2006                                 |
|   \\  /    A nd           | Website:  www.openfoam.com                      |
|    \\/     M anipulation  |                                                 |
\*---------------------------------------------------------------------------*/
FoamFile
{
    version     2.0;
    format      ascii;
    class       volScalarField;
    location    "0.051";
    object      turbulenceProperties:L;
}
// * * * * * * * * * * * * * * * * * * * * * * * * * * * * * * * * * * * * * //

dimensions      [0 1 0 0 0 0 0];


internalField   nonuniform List<scalar> 
16277
(
1998.66
1998.66
1999.05
1999.18
1999.55
1999.46
1999.46
1999.26
1998.79
1998.11
1997.36
1996.68
1996.09
1995.58
1995.13
1994.72
1994.32
1993.93
1993.54
1993.17
1992.81
1992.45
1992.11
1991.77
1991.44
1991.12
1990.8
1990.49
1990.19
1989.89
1989.59
1989.31
1989.03
1988.75
1988.49
1988.23
1987.98
1987.74
1987.51
1987.29
1987.08
1986.88
1986.69
1986.52
1986.36
1986.21
1986.07
1985.95
1985.85
1985.76
1985.69
1985.63
1985.59
1985.57
1985.57
1985.58
1985.62
1985.67
1985.75
1985.84
1985.95
1986.06
1986.18
1986.25
1986.18
1985.75
1984.4
1980.76
1971.2
1947.5
1896.7
1794.45
1607.79
1316.43
954.79
611.969
356.502
195.414
103.497
54.2315
28.4219
15.2667
9.11422
7.01264
5.1311
4.27701
3.52446
1.93492
1.11794
0.885929
0.988283
0.37416
0.121352
0.0320747
0.0037253
0.000676234
4.70417e-05
4.51108e-05
0.000325012
0.00146001
0.000819231
0.000221171
4.31574e-05
4.18663e-05
0.000207442
0.000698856
0.000573417
0.000187013
4.15216e-05
4.10402e-05
0.000185002
0.000550563
0.000489886
0.000173553
4.07295e-05
4.03716e-05
0.000173034
0.000482191
0.000449741
0.000166466
4.01594e-05
4.00757e-05
0.000168994
0.00044878
0.0004286
0.000163765
3.99808e-05
3.99174e-05
0.000166281
0.000428799
0.00041356
0.000161754
3.98363e-05
3.97864e-05
0.000164001
0.000414579
0.000401806
0.000159924
3.97153e-05
3.96745e-05
0.000161965
0.000403229
0.000391935
0.000158198
3.96112e-05
3.95762e-05
0.000160129
0.000393602
0.000383336
0.000156562
3.95184e-05
3.94872e-05
0.000158432
0.00038515
0.000375644
0.00015499
3.94332e-05
3.94049e-05
0.000156802
0.000377548
0.00036864
0.000153467
3.93535e-05
3.93271e-05
0.000155237
0.000370606
0.000362204
0.000152004
3.92774e-05
3.92524e-05
0.000153744
0.000364216
0.000356242
0.000150607
3.92038e-05
3.91797e-05
0.000152326
0.000358304
0.000350689
0.000149279
3.91319e-05
3.91083e-05
0.000150979
0.000352808
0.000345518
0.000148014
3.90608e-05
3.90376e-05
0.000149698
0.000347689
0.000340693
0.000146811
3.89902e-05
3.89671e-05
0.000148481
0.000342911
0.000336184
0.000145666
3.89197e-05
3.88965e-05
0.000147327
0.000338444
0.000331963
0.000144581
3.88488e-05
3.88254e-05
0.000146233
0.000334257
0.000327999
0.000143554
3.87773e-05
3.87537e-05
0.000145197
0.000330319
0.00032426
0.000142578
3.8705e-05
3.8681e-05
0.000144214
0.000326599
0.00032072
0.000141651
3.86315e-05
3.86071e-05
0.000143278
0.000323071
0.000317355
0.000140767
3.85568e-05
3.85317e-05
0.000142386
0.000319715
0.000314147
0.000139922
3.84803e-05
3.84545e-05
0.000141533
0.00031651
0.000311076
0.000139112
3.84018e-05
3.83752e-05
0.000140714
0.000313439
0.000308127
0.000138332
3.8321e-05
3.82934e-05
0.000139925
0.000310487
0.000305287
0.000137579
3.82375e-05
3.82088e-05
0.000139164
0.000307641
0.000302544
0.00013685
3.8151e-05
3.8121e-05
0.000138426
0.000304891
0.00029989
0.000136143
3.8061e-05
3.80296e-05
0.000137711
0.000302228
0.000297315
0.000135456
3.79672e-05
3.79342e-05
0.000137017
0.000299645
0.000294817
0.000134788
3.78691e-05
3.78344e-05
0.000136342
0.000297139
0.000292392
0.000134138
3.77664e-05
3.77298e-05
0.000135687
0.000294708
0.000290041
0.000133508
3.76585e-05
3.76199e-05
0.000135056
0.000292353
0.000287764
0.000132899
3.75452e-05
3.75045e-05
0.000134462
0.000290077
0.000285568
0.000132318
3.74261e-05
3.73832e-05
0.000133892
0.000287887
0.000283457
0.000131761
3.73008e-05
3.72558e-05
0.000133352
0.000285785
0.000281437
0.000131234
3.71693e-05
3.71221e-05
0.000132849
0.000283783
0.000279521
0.000130745
3.70314e-05
3.69821e-05
0.00013239
0.000281894
0.000277726
0.000130302
3.68873e-05
3.68361e-05
0.000131987
0.00028014
0.000276078
0.000129918
3.67373e-05
3.66847e-05
0.000131653
0.000278586
0.000274618
0.000129608
3.65821e-05
3.65287e-05
0.000131407
0.000277267
0.000273381
0.00012939
3.64232e-05
3.63699e-05
0.000131267
0.000276187
0.000272398
0.000129285
3.62623e-05
3.62104e-05
0.000131257
0.000275407
0.000271733
0.000129318
3.61021e-05
3.60532e-05
0.000131405
0.000274997
0.000271461
0.000129519
3.59461e-05
3.59025e-05
0.000131744
0.000275034
0.00027166
0.000129925
3.57986e-05
3.57635e-05
0.000132281
0.000275598
0.000272419
0.000130559
3.56663e-05
3.56413e-05
0.000132968
0.000276746
0.000273774
0.00013134
3.55568e-05
3.55426e-05
0.000133828
0.000278614
0.000275849
0.000132314
3.54742e-05
3.54723e-05
0.000134873
0.000281201
0.000278627
0.000133478
3.54268e-05
3.54349e-05
0.000136074
0.000284445
0.000282052
0.000134804
3.54212e-05
3.54331e-05
0.000137376
0.000288223
0.000285978
0.000136178
3.54273e-05
3.54678e-05
0.000138699
0.000292479
0.000290364
0.000137506
3.54742e-05
3.55355e-05
0.000139926
0.000297094
0.000295041
0.000138745
3.5554e-05
3.56318e-05
0.000140947
0.000301678
0.00029959
0.00013977
3.56588e-05
3.57466e-05
0.000141752
0.000305924
0.000303738
0.000140493
3.57794e-05
3.58728e-05
0.000142399
0.000309676
0.000307376
0.000140976
3.59093e-05
3.60057e-05
0.000142804
0.000312844
0.000310434
0.000141283
3.60441e-05
3.61409e-05
0.000143007
0.000315385
0.000312856
0.000141326
3.61793e-05
3.62737e-05
0.000142984
0.000317299
0.000314591
0.000141163
3.63108e-05
3.64008e-05
0.000142759
0.00031857
0.000315615
0.000140821
3.64356e-05
3.65196e-05
0.000142352
0.000319406
0.000316051
0.000140337
3.65513e-05
3.66282e-05
0.000141813
0.000319583
0.000315836
0.000139668
3.66564e-05
3.67255e-05
0.000141167
0.000319114
0.000314768
0.000138811
3.675e-05
3.68108e-05
0.00014031
0.000317944
0.000313259
0.000137884
3.68312e-05
3.68834e-05
0.000139385
0.000316344
0.000311442
0.000136934
3.68997e-05
3.69435e-05
0.000138438
0.000314421
0.000309373
0.000135999
3.6956e-05
3.69919e-05
0.000137497
0.000312237
0.000307123
0.000135103
3.70007e-05
3.70296e-05
0.000136591
0.000309876
0.000304768
0.000134265
3.70351e-05
3.70578e-05
0.000135739
0.000307416
0.000302366
0.000133494
3.70605e-05
3.70779e-05
0.000134946
0.000304911
0.000299964
0.000132789
3.70783e-05
3.70906e-05
0.000134217
0.000302419
0.000297591
0.000132147
3.70895e-05
3.7098e-05
0.000133547
0.000299994
0.000295297
0.000131561
3.70957e-05
3.71011e-05
0.000132932
0.000297657
0.000293101
0.000131028
3.70978e-05
3.71013e-05
0.000132372
0.000295441
0.000291002
0.000130523
3.70965e-05
3.70989e-05
0.000131854
0.000293333
0.000288998
0.000130037
3.70918e-05
3.70936e-05
0.000131375
0.000291322
0.000287088
0.000129592
3.7085e-05
3.70865e-05
0.000130935
0.000289405
0.000285262
0.000129177
3.70765e-05
3.70777e-05
0.000130519
0.000287569
0.000283506
0.000128781
3.70668e-05
3.70676e-05
0.000130119
0.000285803
0.000281793
0.000128397
3.70559e-05
3.70565e-05
0.000129727
0.000284085
0.000280119
0.000128025
3.70442e-05
3.70446e-05
0.000129354
0.000282436
0.000278516
0.00012766
3.70317e-05
3.70319e-05
0.000128985
0.000280848
0.000276973
0.000127303
3.70184e-05
3.70186e-05
0.000128621
0.000279301
0.000275453
0.000126939
3.69968e-05
3.70128e-05
0.000128271
0.000277817
0.000273821
0.000126582
3.69756e-05
3.69993e-05
0.000127811
0.000276478
0.000272607
0.000125904
3.69312e-05
3.71164e-05
0.000128092
0.000276618
0.000274123
0.000127993
3.72226e-05
3.77419e-05
0.000128382
0.000277326
0.000290681
0.000134777
3.84468e-05
4.11147e-05
0.000127555
0.000283164
0.000420821
0.000235593
4.70797e-05
4.18586e-05
9.89346e-05
0.00022031
0.000497202
0.00104743
0.00181633
0.00244924
0.00284778
0.00358549
0.00402904
0.00441524
0.00461618
0.00469692
0.00464207
0.00443591
0.00416155
0.00372748
0.00331048
0.00266386
0.00237924
0.00181486
0.00142317
0.00102157
0.000619155
0.000299907
0.000116073
5.01994e-05
1.28641e-05
1.18209e-05
4.62376e-05
0.000105414
9.99245e-05
4.38473e-05
1.10152e-05
1.0404e-05
4.19992e-05
9.4639e-05
9.47492e-05
4.16879e-05
1.02048e-05
1.00864e-05
4.13989e-05
9.31599e-05
9.30611e-05
4.09918e-05
9.96351e-06
9.95337e-06
4.09197e-05
9.28388e-05
9.30221e-05
4.09461e-05
9.96291e-06
9.9613e-06
4.09527e-05
9.31143e-05
9.32054e-05
4.09802e-05
9.97308e-06
9.979e-06
4.1011e-05
9.33655e-05
9.34389e-05
4.10342e-05
9.98508e-06
9.99723e-06
4.10716e-05
9.3606e-05
9.37052e-05
4.10912e-05
9.9922e-06
1.00049e-05
4.11409e-05
9.38716e-05
9.39722e-05
4.11621e-05
1.00111e-05
1.00243e-05
4.1206e-05
9.41507e-05
9.4241e-05
4.12258e-05
1.00251e-05
1.00269e-05
4.1285e-05
9.44394e-05
9.45313e-05
4.13027e-05
1.00451e-05
1.00468e-05
4.1357e-05
9.47311e-05
9.48216e-05
4.13762e-05
1.00541e-05
1.00559e-05
4.1437e-05
9.50134e-05
9.50996e-05
4.14538e-05
1.00743e-05
1.0076e-05
4.15036e-05
9.52921e-05
9.53857e-05
4.15185e-05
1.00834e-05
1.0085e-05
4.15847e-05
9.56128e-05
9.57142e-05
4.16147e-05
1.01046e-05
1.01068e-05
4.16726e-05
9.59099e-05
9.60022e-05
4.16882e-05
1.01146e-05
1.01163e-05
4.17478e-05
9.62218e-05
9.63269e-05
4.1774e-05
1.01354e-05
1.01384e-05
4.18406e-05
9.65611e-05
9.66675e-05
4.18693e-05
1.0147e-05
1.01494e-05
4.19363e-05
9.68895e-05
9.69896e-05
4.19623e-05
1.01634e-05
1.01777e-05
4.20173e-05
9.7213e-05
9.73161e-05
4.20501e-05
1.01801e-05
1.01831e-05
4.21171e-05
9.75414e-05
9.7645e-05
4.21459e-05
1.01971e-05
1.02117e-05
4.2204e-05
9.78737e-05
9.79805e-05
4.22361e-05
1.02142e-05
1.02175e-05
4.23077e-05
9.82107e-05
9.83136e-05
4.23355e-05
1.02315e-05
1.02464e-05
4.23966e-05
9.85267e-05
9.86229e-05
4.24244e-05
1.02487e-05
1.02518e-05
4.24907e-05
9.88296e-05
9.89204e-05
4.25103e-05
1.02654e-05
1.028e-05
4.25708e-05
9.9126e-05
9.92207e-05
4.25932e-05
1.02822e-05
1.02855e-05
4.26675e-05
9.94333e-05
9.95254e-05
4.2688e-05
1.02994e-05
1.03142e-05
4.27513e-05
9.97289e-05
9.98139e-05
4.27683e-05
1.03165e-05
1.03198e-05
4.28359e-05
0.000100011
0.000100084
4.28503e-05
1.03334e-05
1.03481e-05
4.29067e-05
0.000100269
0.000100342
4.29138e-05
1.03498e-05
1.03528e-05
4.29771e-05
0.000100526
0.000100601
4.29836e-05
1.03662e-05
1.03807e-05
4.30374e-05
0.000100774
0.000100837
4.30387e-05
1.03822e-05
1.03846e-05
4.30851e-05
0.000100994
0.000101022
4.30692e-05
1.04024e-05
1.04037e-05
4.30899e-05
0.000101146
0.000101171
4.30702e-05
1.04101e-05
1.04105e-05
4.30817e-05
0.000101275
0.000101283
4.30451e-05
1.04277e-05
1.04271e-05
4.30271e-05
0.000101351
0.000101322
4.2969e-05
1.0432e-05
1.04301e-05
4.29293e-05
0.000101328
0.000101259
4.28326e-05
1.04398e-05
1.04491e-05
4.27533e-05
0.000101244
0.00010118
4.26246e-05
1.04462e-05
1.04436e-05
4.25213e-05
0.00010118
0.000101125
4.23921e-05
1.04541e-05
1.0465e-05
4.22684e-05
0.000101096
0.000100911
4.20733e-05
1.04643e-05
1.04637e-05
4.18846e-05
0.000100831
0.000100589
4.16121e-05
1.04795e-05
1.04809e-05
4.13897e-05
0.000100559
0.000100471
4.11404e-05
1.04913e-05
1.05012e-05
4.09571e-05
0.000100651
0.00010054
4.06859e-05
1.05254e-05
1.05549e-05
4.04457e-05
0.000100585
0.00010029
4.00745e-05
1.0574e-05
1.06052e-05
3.97802e-05
0.0001004
0.000100461
3.94781e-05
1.06434e-05
1.06931e-05
3.92369e-05
0.000100922
0.000101295
3.90096e-05
1.07534e-05
1.08255e-05
3.88384e-05
0.000101932
0.000102567
3.86015e-05
1.09063e-05
1.09971e-05
3.86151e-05
0.000103739
0.000105443
3.92717e-05
1.11779e-05
1.13528e-05
3.97979e-05
0.000106827
0.0001077
3.99578e-05
1.13324e-05
1.14729e-05
3.94785e-05
0.000108951
0.00011078
4.16977e-05
1.17331e-05
1.18823e-05
4.09231e-05
0.000111719
0.00011297
4.2083e-05
1.21582e-05
1.24054e-05
4.27132e-05
0.000114697
0.000115016
4.36263e-05
1.27609e-05
1.32268e-05
4.54911e-05
0.000116865
0.000116675
4.63873e-05
1.36156e-05
1.39181e-05
4.73723e-05
0.000117277
0.000116666
4.81014e-05
1.45768e-05
1.57402e-05
5.37358e-05
0.000118681
0.000117248
5.58892e-05
1.08462e-05
6.21241e-06
1.63134e-05
4.17715e-05
9.98459e-05
3.58627e-05
8.35406e-06
9.21989e-06
3.2062e-05
9.23957e-05
9.66689e-05
3.36359e-05
9.44008e-06
9.62825e-06
3.22323e-05
9.31023e-05
9.86602e-05
3.46451e-05
1.00282e-05
1.04951e-05
3.42187e-05
9.72657e-05
0.000104124
3.8199e-05
1.10799e-05
1.17032e-05
3.7768e-05
0.000101885
0.000107947
4.25635e-05
1.24523e-05
1.33586e-05
4.3024e-05
0.00010744
0.000114074
4.91692e-05
1.48736e-05
1.05524e-05
5.35659e-05
0.000114721
4.10976e-05
1.56628e-05
6.49498e-06
9.00107e-06
3.75082e-05
0.000104012
0.000100916
3.49339e-05
1.06364e-05
1.18235e-05
4.41929e-05
0.000118627
0.000119433
4.42406e-05
1.26816e-05
1.37278e-05
4.98485e-05
0.000128296
0.000129716
5.21442e-05
1.48654e-05
1.64352e-05
5.87996e-05
0.000136133
0.000131016
6.08892e-05
1.16145e-05
6.99307e-06
1.73031e-05
4.67871e-05
0.000114348
4.23537e-05
9.64258e-06
1.10848e-05
3.94297e-05
0.000110736
0.00012084
4.60488e-05
1.19919e-05
1.30357e-05
4.5298e-05
0.000118011
0.000126249
5.33206e-05
1.48461e-05
1.07977e-05
5.99833e-05
0.000125339
4.58721e-05
1.72801e-05
6.68665e-06
9.59381e-06
4.10757e-05
0.000116314
0.000117023
4.20123e-05
1.17266e-05
1.38935e-05
5.45918e-05
0.000140403
0.000143135
6.0808e-05
1.59202e-05
1.15443e-05
6.67831e-05
0.000140949
5.2187e-05
1.87471e-05
6.88564e-06
9.89622e-06
4.8945e-05
0.000128136
0.000125185
4.62745e-05
1.21583e-05
1.45939e-05
6.08956e-05
0.000146298
0.000145818
6.81689e-05
1.08857e-05
6.74323e-06
1.96194e-05
5.70094e-05
0.000146115
5.49103e-05
1.04253e-05
1.36746e-05
5.54674e-05
0.000151929
0.000193266
8.11316e-05
1.68834e-05
1.27977e-05
8.33388e-05
0.000183091
7.6857e-05
2.59306e-05
8.23291e-06
1.35058e-05
7.83304e-05
0.000190677
0.000186134
7.97355e-05
1.12095e-05
7.7233e-06
2.60219e-05
8.26234e-05
0.000236742
9.05989e-05
1.40463e-05
1.24404e-05
9.88881e-05
0.000249193
0.000119987
4.20343e-05
9.66767e-06
1.10669e-05
0.000100658
0.000272843
0.000186733
7.29884e-05
1.01019e-05
1.36144e-05
0.000107822
0.000319898
0.000266168
9.03157e-05
1.12645e-05
1.11417e-05
8.69512e-05
0.000256868
0.000280048
9.68433e-05
1.30471e-05
1.7071e-05
0.000171696
0.000472457
0.000104834
3.9216e-05
1.41117e-05
1.31158e-05
9.56279e-05
0.000203422
7.48877e-05
3.15529e-05
1.21624e-05
1.35176e-05
6.91952e-05
0.000148265
0.000132966
5.60343e-05
1.47367e-05
8.14987e-06
1.9265e-05
4.8872e-05
9.97028e-05
6.50474e-05
9.93852e-06
1.05205e-05
2.50355e-05
5.49669e-05
0.000115631
5.85083e-05
1.28433e-05
1.47598e-05
5.1082e-05
0.00010917
4.58353e-05
1.97052e-05
8.93234e-06
1.1727e-05
5.30874e-05
0.000100549
9.65315e-05
4.72498e-05
1.39866e-05
8.55474e-06
1.83488e-05
4.17605e-05
9.33133e-05
4.95126e-05
1.12598e-05
1.36148e-05
4.53655e-05
9.02285e-05
4.01001e-05
1.80675e-05
8.4963e-06
1.10878e-05
4.7233e-05
8.86317e-05
8.4779e-05
4.34672e-05
1.34577e-05
8.4287e-06
1.73535e-05
3.82027e-05
8.41303e-05
4.52116e-05
1.09705e-05
1.34739e-05
4.14981e-05
8.06077e-05
3.6466e-05
1.70404e-05
8.53195e-06
1.11259e-05
4.43113e-05
8.07877e-05
7.67727e-05
4.04347e-05
1.35561e-05
8.50421e-06
1.66163e-05
3.52868e-05
7.74533e-05
4.26996e-05
1.10516e-05
1.36964e-05
3.93878e-05
7.42019e-05
3.54503e-05
1.70238e-05
8.84425e-06
1.1638e-05
4.44518e-05
7.7836e-05
7.13856e-05
3.76495e-05
1.50542e-05
1.10986e-05
3.14806e-05
6.24747e-05
2.88765e-05
1.34716e-05
7.09041e-06
9.15213e-06
3.40912e-05
6.12627e-05
5.98682e-05
3.20068e-05
1.15971e-05
7.29699e-06
1.32418e-05
2.82419e-05
5.88294e-05
3.31353e-05
9.26167e-06
1.1742e-05
3.12508e-05
5.72264e-05
2.80013e-05
1.38852e-05
7.4202e-06
9.30915e-06
3.31303e-05
5.65801e-05
5.51748e-05
3.12424e-05
1.17229e-05
7.3854e-06
1.30785e-05
2.69871e-05
5.45047e-05
3.17806e-05
9.29788e-06
1.1743e-05
3.01363e-05
5.30658e-05
2.66464e-05
1.29975e-05
7.31513e-06
9.17011e-06
3.06848e-05
5.26467e-05
5.19931e-05
3.00985e-05
1.17595e-05
7.46137e-06
1.31032e-05
2.60593e-05
5.12677e-05
3.08899e-05
9.26389e-06
1.17553e-05
2.89681e-05
4.96523e-05
2.49911e-05
1.27654e-05
7.28507e-06
8.85979e-06
2.91745e-05
4.77875e-05
4.69908e-05
2.77386e-05
1.12184e-05
6.88253e-06
1.1695e-05
2.30855e-05
4.2318e-05
3.35047e-05
7.95598e-06
9.4166e-06
1.52092e-05
2.6671e-05
5.41767e-05
3.25504e-05
1.11958e-05
1.35668e-05
3.03585e-05
5.18139e-05
2.71252e-05
1.43772e-05
8.40283e-06
1.0255e-05
3.23117e-05
5.1699e-05
5.02275e-05
3.01202e-05
1.30421e-05
8.30131e-06
1.42444e-05
2.65957e-05
5.14004e-05
3.19767e-05
1.01871e-05
1.2838e-05
3.00808e-05
4.98741e-05
2.59383e-05
1.39451e-05
8.0982e-06
9.81546e-06
3.04533e-05
4.80322e-05
4.65145e-05
2.79926e-05
1.25323e-05
7.9038e-06
1.36e-05
2.46736e-05
4.57891e-05
2.89867e-05
9.43368e-06
1.18168e-05
2.70542e-05
4.43075e-05
2.24364e-05
1.23166e-05
7.15861e-06
8.0699e-06
3.11154e-05
3.87544e-05
2.47053e-05
1.50699e-05
9.4655e-06
1.0935e-05
2.85477e-05
4.62371e-05
4.38248e-05
2.64404e-05
1.32592e-05
8.14933e-06
1.3924e-05
2.39311e-05
4.32971e-05
2.81056e-05
9.67378e-06
1.21824e-05
2.63691e-05
4.12328e-05
2.21188e-05
1.29071e-05
7.5452e-06
8.34332e-06
2.98692e-05
3.7401e-05
2.42646e-05
1.51409e-05
9.80408e-06
1.13116e-05
2.85044e-05
4.46627e-05
4.19529e-05
2.60816e-05
1.35782e-05
8.31933e-06
1.40046e-05
2.34324e-05
4.21783e-05
2.76581e-05
9.88309e-06
1.23265e-05
2.5354e-05
4.00308e-05
2.15289e-05
1.28267e-05
7.52003e-06
8.32155e-06
2.85549e-05
3.55369e-05
2.3274e-05
1.48575e-05
9.75644e-06
1.10644e-05
2.70784e-05
4.228e-05
3.96711e-05
2.48431e-05
1.32784e-05
8.1527e-06
1.37557e-05
2.21826e-05
3.91495e-05
2.59785e-05
9.76949e-06
1.21149e-05
2.37653e-05
3.72406e-05
1.99847e-05
1.21423e-05
7.30151e-06
8.08522e-06
2.5583e-05
3.28841e-05
2.19087e-05
1.40666e-05
9.55323e-06
1.08766e-05
2.60556e-05
3.9357e-05
3.66927e-05
2.3525e-05
1.29678e-05
7.61626e-06
1.27038e-05
2.01523e-05
3.24529e-05
2.66571e-05
8.25417e-06
9.6196e-06
1.45872e-05
2.18147e-05
3.87254e-05
2.49748e-05
1.08629e-05
1.32202e-05
2.29221e-05
3.62046e-05
2.00374e-05
1.27217e-05
7.88771e-06
8.49625e-06
2.53458e-05
3.21866e-05
2.19588e-05
1.46788e-05
9.87502e-06
1.10048e-05
2.56843e-05
3.86911e-05
3.59746e-05
2.31771e-05
1.32636e-05
7.80017e-06
1.26169e-05
1.99102e-05
3.18563e-05
2.57322e-05
8.30701e-06
9.79529e-06
1.44944e-05
2.16381e-05
3.79825e-05
2.49309e-05
1.10571e-05
1.32582e-05
2.27898e-05
3.54514e-05
1.99264e-05
1.30142e-05
7.93836e-06
8.52491e-06
2.61498e-05
3.13657e-05
2.15077e-05
1.49128e-05
9.85941e-06
1.08884e-05
2.44145e-05
3.73028e-05
3.45805e-05
2.21175e-05
1.2929e-05
7.65786e-06
1.24361e-05
1.91468e-05
3.01666e-05
2.50394e-05
8.11451e-06
9.24574e-06
1.42123e-05
2.07653e-05
3.29727e-05
2.48182e-05
9.55816e-06
1.09076e-05
1.53442e-05
2.25333e-05
3.79659e-05
2.49002e-05
1.18205e-05
1.3751e-05
2.24131e-05
3.50869e-05
1.97595e-05
1.29438e-05
8.04329e-06
8.56504e-06
2.53379e-05
3.07946e-05
2.12993e-05
1.49452e-05
1.00354e-05
1.10698e-05
2.41127e-05
3.63642e-05
3.3858e-05
2.18993e-05
1.30877e-05
7.68216e-06
1.24953e-05
1.89545e-05
2.94809e-05
2.43859e-05
8.16973e-06
9.34838e-06
1.42139e-05
2.05581e-05
3.22026e-05
2.43193e-05
9.6258e-06
1.07299e-05
1.54182e-05
2.22634e-05
3.70868e-05
2.4466e-05
1.16171e-05
1.37247e-05
2.22079e-05
3.43485e-05
1.94996e-05
1.30482e-05
8.13453e-06
8.49378e-06
2.54614e-05
2.97542e-05
2.11524e-05
1.52121e-05
9.75423e-06
9.91025e-06
2.5389e-05
3.26082e-05
2.24934e-05
1.58452e-05
1.10626e-05
1.18691e-05
2.40666e-05
3.71934e-05
3.42907e-05
2.1928e-05
1.38826e-05
8.16466e-06
1.31194e-05
1.95965e-05
2.99105e-05
2.53489e-05
8.49422e-06
9.69357e-06
1.49181e-05
2.11133e-05
3.23994e-05
2.51653e-05
9.95628e-06
1.11428e-05
1.58101e-05
2.25343e-05
3.70644e-05
2.4357e-05
1.20538e-05
1.40842e-05
2.22291e-05
3.42827e-05
1.97793e-05
1.34343e-05
8.38985e-06
8.81098e-06
2.55069e-05
2.99901e-05
2.14102e-05
1.54048e-05
1.00375e-05
1.01687e-05
2.55823e-05
3.25377e-05
2.26436e-05
1.60128e-05
1.11526e-05
1.18366e-05
2.39408e-05
3.69469e-05
3.3953e-05
2.18921e-05
1.37103e-05
8.10997e-06
1.31354e-05
1.94405e-05
2.8919e-05
2.55097e-05
8.4558e-06
9.59365e-06
1.50356e-05
2.0695e-05
3.13574e-05
2.48613e-05
9.86994e-06
1.092e-05
1.55602e-05
2.18472e-05
3.54639e-05
2.32422e-05
1.17779e-05
1.38004e-05
2.14576e-05
3.27707e-05
1.91714e-05
1.31037e-05
8.24798e-06
8.59419e-06
2.51255e-05
2.85653e-05
2.05308e-05
1.48783e-05
9.61136e-06
9.71859e-06
2.41939e-05
3.08172e-05
2.17475e-05
1.54286e-05
1.06768e-05
1.05075e-05
2.47665e-05
3.2137e-05
2.26837e-05
1.64446e-05
1.15994e-05
1.23833e-05
2.40713e-05
3.60825e-05
3.31442e-05
2.18762e-05
1.42303e-05
8.30334e-06
1.31873e-05
1.92593e-05
2.88698e-05
2.46218e-05
8.54386e-06
9.65224e-06
1.46954e-05
2.06172e-05
3.05951e-05
2.39368e-05
9.80874e-06
1.06572e-05
1.53911e-05
2.18228e-05
3.1854e-05
2.46988e-05
1.05606e-05
1.16327e-05
1.63443e-05
2.25852e-05
3.5679e-05
2.37906e-05
1.22827e-05
1.42277e-05
2.19184e-05
3.28891e-05
1.94693e-05
1.35024e-05
8.50176e-06
8.74811e-06
2.51966e-05
2.85378e-05
2.07587e-05
1.51676e-05
9.86903e-06
1.00267e-05
2.4302e-05
3.07862e-05
2.19611e-05
1.57303e-05
1.09538e-05
1.08682e-05
2.48753e-05
3.19598e-05
2.28272e-05
1.66333e-05
1.18901e-05
1.25368e-05
2.40623e-05
3.57469e-05
3.29062e-05
2.20589e-05
1.43986e-05
8.53487e-06
1.35343e-05
1.96151e-05
2.85945e-05
2.51702e-05
8.75779e-06
9.84118e-06
1.51535e-05
2.08211e-05
3.03453e-05
2.42075e-05
9.83747e-06
1.06719e-05
1.53771e-05
2.16233e-05
3.11787e-05
2.41989e-05
1.05777e-05
1.16688e-05
1.63164e-05
2.24184e-05
3.46881e-05
2.34402e-05
1.23867e-05
1.42399e-05
2.15525e-05
3.22363e-05
1.92022e-05
1.33671e-05
8.46148e-06
8.83865e-06
2.4062e-05
2.80337e-05
2.05138e-05
1.49084e-05
9.94866e-06
1.00215e-05
2.4034e-05
3.01252e-05
2.16783e-05
1.5486e-05
1.07705e-05
1.03788e-05
2.41144e-05
3.09692e-05
2.2299e-05
1.59715e-05
1.12217e-05
1.10818e-05
2.48709e-05
3.17052e-05
2.28228e-05
1.68862e-05
1.2041e-05
1.25376e-05
2.38687e-05
3.51029e-05
3.24232e-05
2.18933e-05
1.43126e-05
8.45505e-06
1.33749e-05
1.95065e-05
2.79081e-05
2.47719e-05
8.72528e-06
9.84482e-06
1.50127e-05
2.05704e-05
2.94037e-05
2.36202e-05
9.99529e-06
1.08106e-05
1.53658e-05
2.13588e-05
3.02069e-05
2.36161e-05
1.05152e-05
1.13469e-05
1.60002e-05
2.20303e-05
3.12569e-05
2.46442e-05
1.113e-05
1.20897e-05
1.68704e-05
2.27405e-05
3.49178e-05
2.3906e-05
1.27587e-05
1.47256e-05
2.21684e-05
3.24259e-05
1.98427e-05
1.39157e-05
8.87525e-06
9.20164e-06
2.52719e-05
2.82465e-05
2.08331e-05
1.5384e-05
1.02382e-05
1.01585e-05
2.41729e-05
3.00824e-05
2.18182e-05
1.57291e-05
1.10448e-05
1.08463e-05
2.42114e-05
3.0876e-05
2.24589e-05
1.63186e-05
1.16128e-05
1.13042e-05
2.51104e-05
3.16791e-05
2.30912e-05
1.72077e-05
1.23252e-05
1.29585e-05
2.41055e-05
3.50056e-05
3.24583e-05
2.21584e-05
1.47094e-05
8.82633e-06
1.38496e-05
1.99422e-05
2.81175e-05
2.48151e-05
9.15041e-06
1.01522e-05
1.53709e-05
2.09923e-05
2.95784e-05
2.40301e-05
1.00918e-05
1.09061e-05
1.55997e-05
2.1685e-05
3.01655e-05
2.36674e-05
1.07057e-05
1.15243e-05
1.61936e-05
2.22239e-05
3.10921e-05
2.47145e-05
1.14692e-05
1.24113e-05
1.71443e-05
2.28173e-05
3.43498e-05
2.40362e-05
1.30876e-05
1.49739e-05
2.22402e-05
3.21232e-05
1.99906e-05
1.40499e-05
8.99659e-06
9.29989e-06
2.50388e-05
2.81997e-05
2.10147e-05
1.55183e-05
1.03254e-05
1.0343e-05
2.41866e-05
2.97834e-05
2.19675e-05
1.59131e-05
1.12086e-05
1.09541e-05
2.40524e-05
3.05701e-05
2.25509e-05
1.64307e-05
1.17043e-05
1.15025e-05
2.49958e-05
3.12924e-05
2.30029e-05
1.71994e-05
1.23984e-05
1.29737e-05
2.39083e-05
3.43341e-05
3.1969e-05
2.20181e-05
1.47504e-05
8.81877e-06
1.38232e-05
1.98427e-05
2.75638e-05
2.46766e-05
9.18817e-06
1.01874e-05
1.52789e-05
2.07522e-05
2.87955e-05
2.35104e-05
1.02267e-05
1.11005e-05
1.5643e-05
2.1469e-05
2.94207e-05
2.33529e-05
1.08297e-05
1.15363e-05
1.61525e-05
2.19793e-05
3.01662e-05
2.42374e-05
1.1272e-05
1.19744e-05
1.66946e-05
2.25745e-05
3.11473e-05
2.50689e-05
1.17254e-05
1.27024e-05
1.75205e-05
2.318e-05
3.45587e-05
2.43311e-05
1.35109e-05
1.5428e-05
2.2541e-05
3.23603e-05
2.03213e-05
1.44312e-05
9.32946e-06
9.69586e-06
2.51732e-05
2.83975e-05
2.14601e-05
1.59721e-05
1.07949e-05
1.08833e-05
2.45021e-05
3.00181e-05
2.24044e-05
1.6416e-05
1.16978e-05
1.14864e-05
2.47228e-05
3.08743e-05
2.30355e-05
1.69256e-05
1.22093e-05
1.19677e-05
2.54053e-05
3.18035e-05
2.3699e-05
1.78515e-05
1.2985e-05
1.36906e-05
2.46721e-05
3.49083e-05
3.24819e-05
2.27585e-05
1.55097e-05
9.37966e-06
1.45444e-05
2.04509e-05
2.83593e-05
2.53051e-05
9.74177e-06
1.08112e-05
1.5992e-05
2.15785e-05
2.95745e-05
2.44095e-05
1.07532e-05
1.15318e-05
1.62404e-05
2.22523e-05
3.00668e-05
2.41473e-05
1.14183e-05
1.21194e-05
1.67678e-05
2.27145e-05
3.08202e-05
2.49126e-05
1.19061e-05
1.28706e-05
1.76311e-05
2.32193e-05
3.39219e-05
2.41758e-05
1.37099e-05
1.56641e-05
2.2516e-05
3.18197e-05
2.03193e-05
1.45471e-05
9.49657e-06
9.84703e-06
2.49013e-05
2.80108e-05
2.14889e-05
1.61136e-05
1.09986e-05
1.11189e-05
2.44526e-05
2.9585e-05
2.2458e-05
1.65801e-05
1.19121e-05
1.16513e-05
2.46299e-05
3.03903e-05
2.30164e-05
1.71197e-05
1.24021e-05
1.22801e-05
2.51963e-05
3.13211e-05
2.36981e-05
1.8027e-05
1.32504e-05
1.39704e-05
2.46371e-05
3.4371e-05
3.20594e-05
2.28132e-05
1.57917e-05
9.61523e-06
1.47695e-05
2.06057e-05
2.82547e-05
2.54004e-05
9.91263e-06
1.09242e-05
1.61124e-05
2.16516e-05
2.93645e-05
2.43538e-05
1.10372e-05
1.18426e-05
1.64472e-05
2.23581e-05
2.9882e-05
2.4227e-05
1.16666e-05
1.24524e-05
1.70544e-05
2.28546e-05
3.06694e-05
2.49265e-05
1.22733e-05
1.33085e-05
1.80178e-05
2.3432e-05
3.37461e-05
2.44479e-05
1.42131e-05
1.61018e-05
2.28778e-05
3.1747e-05
2.08339e-05
1.51503e-05
9.94446e-06
1.03542e-05
2.54181e-05
2.84092e-05
2.19739e-05
1.66245e-05
1.13421e-05
1.1475e-05
2.52396e-05
2.99559e-05
2.29022e-05
1.71248e-05
1.22948e-05
1.20912e-05
2.51813e-05
3.0847e-05
2.34016e-05
1.77918e-05
1.31022e-05
1.39157e-05
2.40634e-05
3.35912e-05
3.14058e-05
2.24565e-05
1.57389e-05
9.64313e-06
1.47124e-05
2.03983e-05
2.75754e-05
2.47852e-05
1.00457e-05
1.10797e-05
1.62603e-05
2.15268e-05
2.88885e-05
2.46072e-05
1.12307e-05
1.20288e-05
1.66916e-05
2.23039e-05
2.97155e-05
2.42728e-05
1.20592e-05
1.31229e-05
1.7585e-05
2.28753e-05
3.25316e-05
2.3702e-05
1.39484e-05
1.58423e-05
2.22806e-05
3.0657e-05
2.02924e-05
1.47942e-05
9.78822e-06
1.01549e-05
2.45836e-05
2.73551e-05
2.13837e-05
1.63302e-05
1.11968e-05
1.14112e-05
2.42324e-05
2.89186e-05
2.24073e-05
1.68892e-05
1.23048e-05
1.22096e-05
2.45127e-05
2.98937e-05
2.30012e-05
1.76673e-05
1.30935e-05
1.38766e-05
2.36876e-05
3.24691e-05
3.05626e-05
2.21919e-05
1.57786e-05
9.68111e-06
1.46699e-05
2.03204e-05
2.70938e-05
2.45282e-05
1.00928e-05
1.11977e-05
1.63221e-05
2.13991e-05
2.84178e-05
2.44142e-05
1.14387e-05
1.22346e-05
1.6852e-05
2.22214e-05
2.93443e-05
2.40966e-05
1.2239e-05
1.32944e-05
1.77312e-05
2.28364e-05
3.22073e-05
2.36718e-05
1.418e-05
1.60304e-05
2.24084e-05
3.04339e-05
2.05099e-05
1.51671e-05
9.97686e-06
1.04774e-05
2.49455e-05
2.74504e-05
2.16571e-05
1.67008e-05
1.15562e-05
1.17679e-05
2.47438e-05
2.90351e-05
2.26949e-05
1.7331e-05
1.26268e-05
1.26988e-05
2.46817e-05
3.00726e-05
2.33813e-05
1.81944e-05
1.36527e-05
1.44637e-05
2.41644e-05
3.27946e-05
3.0955e-05
2.27857e-05
1.63102e-05
1.01858e-05
1.53461e-05
2.09209e-05
2.77235e-05
2.51095e-05
1.06791e-05
1.17188e-05
1.69793e-05
2.20254e-05
2.93401e-05
2.48267e-05
1.21152e-05
1.32696e-05
1.79503e-05
2.3059e-05
3.21522e-05
2.38697e-05
1.43544e-05
1.6227e-05
2.26615e-05
3.05418e-05
2.06107e-05
1.52067e-05
1.01918e-05
1.07571e-05
2.48039e-05
2.74853e-05
2.19378e-05
1.70244e-05
1.18755e-05
1.21548e-05
2.49389e-05
2.91873e-05
2.30336e-05
1.77567e-05
1.30153e-05
1.31865e-05
2.50597e-05
3.04408e-05
2.39108e-05
1.87659e-05
1.41751e-05
1.52047e-05
2.48604e-05
3.33973e-05
3.14683e-05
2.3483e-05
1.7137e-05
1.08044e-05
1.60298e-05
2.15918e-05
2.8498e-05
2.57441e-05
1.12411e-05
1.2352e-05
1.77028e-05
2.28323e-05
3.02707e-05
2.55626e-05
1.28173e-05
1.39108e-05
1.87213e-05
2.39134e-05
3.32706e-05
2.482e-05
1.49506e-05
1.70198e-05
2.35877e-05
3.16683e-05
2.18452e-05
1.62869e-05
1.1058e-05
1.16384e-05
2.57792e-05
2.87399e-05
2.30514e-05
1.80507e-05
1.26777e-05
1.32031e-05
2.58586e-05
3.0722e-05
2.43631e-05
1.9217e-05
1.43438e-05
1.55848e-05
2.5353e-05
3.38217e-05
3.20792e-05
2.40307e-05
1.75669e-05
1.12369e-05
1.65178e-05
2.22241e-05
2.93556e-05
2.60731e-05
1.18795e-05
1.32404e-05
1.85797e-05
2.35468e-05
3.27984e-05
2.50023e-05
1.47057e-05
1.67536e-05
2.37495e-05
3.14347e-05
2.17528e-05
1.60471e-05
1.0696e-05
1.13344e-05
2.60711e-05
2.86034e-05
2.2837e-05
1.76758e-05
1.24683e-05
1.30289e-05
2.52259e-05
3.02009e-05
2.39828e-05
1.88459e-05
1.41978e-05
1.54109e-05
2.4775e-05
3.30551e-05
3.15696e-05
2.36174e-05
1.73532e-05
1.11985e-05
1.64646e-05
2.21002e-05
2.89361e-05
2.56581e-05
1.19867e-05
1.33267e-05
1.86833e-05
2.34571e-05
3.24155e-05
2.50609e-05
1.49368e-05
1.70184e-05
2.39114e-05
3.11753e-05
2.20057e-05
1.64071e-05
1.11119e-05
1.18643e-05
2.57607e-05
2.87501e-05
2.31417e-05
1.84295e-05
1.30784e-05
1.44372e-05
2.44224e-05
3.20072e-05
3.08086e-05
2.32591e-05
1.65351e-05
1.08058e-05
1.58938e-05
2.148e-05
2.8218e-05
2.4974e-05
1.17745e-05
1.31045e-05
1.82012e-05
2.28624e-05
3.15541e-05
2.43925e-05
1.46977e-05
1.68299e-05
2.33607e-05
3.04372e-05
2.16265e-05
1.61798e-05
1.10218e-05
1.18566e-05
2.51883e-05
2.82159e-05
2.29156e-05
1.83499e-05
1.31335e-05
1.45914e-05
2.43928e-05
3.15438e-05
3.04027e-05
2.32588e-05
1.66379e-05
1.08459e-05
1.59678e-05
2.14929e-05
2.81192e-05
2.58319e-05
1.16424e-05
1.30033e-05
1.80685e-05
2.26853e-05
3.13551e-05
2.39098e-05
1.47766e-05
1.69778e-05
2.30394e-05
3.02861e-05
2.16377e-05
1.63542e-05
1.12867e-05
1.22579e-05
2.49841e-05
2.82625e-05
2.31238e-05
1.87458e-05
1.35811e-05
1.52436e-05
2.48329e-05
3.18911e-05
3.08079e-05
2.38159e-05
1.73364e-05
1.14824e-05
1.66851e-05
2.21698e-05
2.89172e-05
2.56156e-05
1.24707e-05
1.3862e-05
1.91733e-05
2.36977e-05
3.28717e-05
2.56425e-05
1.57506e-05
1.79887e-05
2.48056e-05
3.18899e-05
2.29982e-05
1.76808e-05
1.24161e-05
1.44393e-05
2.55956e-05
3.15024e-05
3.06944e-05
2.45959e-05
1.68556e-05
1.15068e-05
1.68526e-05
2.2296e-05
2.94385e-05
2.58096e-05
1.26772e-05