/*--------------------------------*- C++ -*----------------------------------*\
| =========                 |                                                 |
| \\      /  F ield         | OpenFOAM: The Open Source CFD Toolbox           |
|  \\    /   O peration     | Version:  v2006                                 |
|   \\  /    A nd           | Website:  www.openfoam.com                      |
|    \\/     M anipulation  |                                                 |
\*---------------------------------------------------------------------------*/
FoamFile
{
    version     2.0;
    format      ascii;
    class       volScalarField;
    location    "0.155";
    object      yPlus;
}
// * * * * * * * * * * * * * * * * * * * * * * * * * * * * * * * * * * * * * //

dimensions      [0 0 0 0 0 0 0];


internalField   uniform 0;

boundaryField
{
    bottomEmptyFaces
    {
        type            empty;
    }
    topEmptyFaces
    {
        type            empty;
    }
    inlet
    {
        type            calculated;
        value           uniform 0;
    }
    outlet
    {
        type            calculated;
        value           uniform 0;
    }
    walls
    {
        type            calculated;
        value           nonuniform List<scalar> 
1343
(
7.77072
7.76815
7.76546
7.76288
7.76019
7.75771
7.75516
7.75263
7.7502
7.74764
7.74535
7.74278
7.74053
7.73809
7.73585
7.73349
7.73122
7.72897
7.72666
7.72452
7.72216
7.72012
7.7178
7.71577
7.71347
7.71147
7.70922
7.70727
7.70506
7.70313
7.70099
7.6991
7.69695
7.69511
7.69301
7.6912
7.68911
7.68731
7.68527
7.68349
7.68148
7.67974
7.67775
7.67604
7.6741
7.67239
7.67049
7.6688
7.66694
7.66522
7.66346
7.66168
7.66001
7.6582
7.65661
7.65479
7.65318
7.65147
7.64983
7.64822
7.64654
7.64496
7.64329
7.64174
7.63998
7.63851
7.63683
7.63535
7.63368
7.63218
7.63057
7.62907
7.62752
7.62598
7.62451
7.62294
7.6215
7.61998
7.61847
7.61705
7.61553
7.61414
7.61267
7.61122
7.60977
7.6083
7.60689
7.60546
7.604
7.60264
7.60123
7.59992
7.5984
7.59714
7.59568
7.59443
7.59294
7.59169
7.59023
7.58897
7.58757
7.58631
7.58494
7.58366
7.58234
7.58103
7.57977
7.57841
7.57722
7.57582
7.57469
7.57329
7.57212
7.57079
7.56961
7.56834
7.56712
7.56588
7.56468
7.56343
7.56215
7.56097
7.55973
7.55858
7.55727
7.55617
7.55489
7.5538
7.55251
7.55142
7.55014
7.54907
7.5478
7.54674
7.54548
7.54443
7.54318
7.54213
7.5409
7.53986
7.53863
7.5376
7.53638
7.53536
7.53414
7.53312
7.53192
7.53091
7.52972
7.52871
7.52753
7.52653
7.52535
7.52436
7.52318
7.5222
7.52103
7.52006
7.5189
7.51792
7.51678
7.51583
7.51469
7.51373
7.51257
7.5116
7.51049
7.50957
7.50845
7.50751
7.50639
7.50546
7.50435
7.50342
7.50233
7.5014
7.50031
7.4994
7.49832
7.4974
7.49633
7.49542
7.49435
7.49344
7.49238
7.49147
7.49041
7.48952
7.48846
7.48757
7.48653
7.48564
7.4846
7.48372
7.48268
7.48181
7.48078
7.47991
7.47889
7.47803
7.47702
7.47616
7.47516
7.47432
7.47332
7.47249
7.4715
7.47067
7.4697
7.46888
7.46792
7.4671
7.46615
7.46535
7.46441
7.46362
7.46269
7.46192
7.46101
7.46024
7.45934
7.45859
7.45771
7.45697
7.4561
7.45538
7.45453
7.45382
7.45297
7.45227
7.45144
7.45075
7.44993
7.44924
7.44844
7.44776
7.44697
7.4463
7.44554
7.44488
7.44414
7.44349
7.44278
7.44215
7.44148
7.44087
7.44026
7.43965
7.4391
7.43851
7.43803
7.43746
7.43704
7.43651
7.43615
7.43569
7.43539
7.43502
7.43481
7.43456
7.43442
7.43434
7.43436
7.43442
7.43461
7.43487
7.43534
7.43587
7.43665
7.43763
7.43886
7.44039
7.44224
7.4447
7.44768
7.45177
7.45687
7.46416
7.4747
7.49074
7.52476
7.49206
7.65423
11.0065
16.1826
19.7765
22.6252
24.7925
26.5378
27.8231
28.9354
30.2331
31.8881
33.8395
35.8192
37.9179
39.9467
41.6357
42.7578
42.348
40.8969
35.5674
27.7197
27.5459
27.4457
26.2799
26.7987
26.2894
25.8838
26.0584
26.3998
26.2836
24.8519
24.7093
25.5916
25.2318
24.8621
25.3199
27.2055
27.1197
26.7706
26.3138
26.019
25.7532
25.4325
25.1142
26.4797
26.124
26.94
25.8087
26.302
25.749
25.5973
27.2491
26.8788
26.3992
24.9508
24.8436
24.9868
25.5714
26.7377
26.5741
25.9629
25.6844
25.7226
26.8788
27.037
26.6415
26.7764
26.5047
26.0243
26.2337
25.6867
25.6277
25.4764
26.6103
26.0374
26.5014
26.1231
26.3019
26.6466
26.8045
25.8491
25.9453
26.651
26.2378
26.48
25.7363
25.5705
25.8627
25.8436
25.6154
25.6968
25.4798
25.4969
25.0015
24.3998
25.3759
25.122
24.8483
24.1506
24.3346
24.5999
24.2032
25.8396
25.1045
25.0937
25.1326
25.4178
25.8193
25.4325
25.7232
25.5259
25.5588
24.9257
25.1841
24.9849
25.1198
24.9517
24.1357
24.4609
25.4316
25.6204
25.5597
25.2993
25.6598
25.4398
25.3994
26.3745
25.6718
25.9424
26.1518
26.2955
25.9009
25.1519
25.266
25.9727
26.042
25.741
25.4579
25.6175
25.485
24.4198
24.9451
25.4936
25.9018
25.7271
25.3335
24.9299
24.5156
24.1978
24.3021
24.8208
25.343
24.8415
25.8086
25.6765
24.4709
24.2793
25.0527
24.5941
25.0414
24.1849
24.5431
24.3244
24.1275
25.2384
25.0474
25.5119
25.2266
24.7424
24.422
25.3699
24.4727
24.8572
24.7029
24.4813
25.2691
24.9953
24.5838
24.214
24.9553
24.0616
24.4094
25.5342
24.5832
24.4161
24.4422
24.8983
25.7992
25.7049
25.3305
24.8502
25.7123
25.5015
26.5172
26.4151
26.1674
25.1098
25.5491
25.3074
24.8737
25.6505
24.6216
25.0621
24.5979
24.456
26.0473
25.7213
25.8999
25.4525
25.1358
25.0034
25.2794
24.3337
24.7658
33.3223
32.7869
32.5031
33.3705
33.1346
33.2119
33.314
32.9618
32.4624
31.8872
31.3657
31.0854
32.5761
32.9318
19.8314
19.8689
19.8041
19.2702
18.7533
18.9599
19.7855
19.4658
19.6338
18.1246
17.8056
17.9689
39.834
40.1833
40.2097
40.0027
15.6759
17.5109
39.1838
16.9674
15.9096
16.312
39.3631
18.5231
18.1563
18.2183
40.5108
41.8265
41.1064
40.3929
40.0263
40.1104
40.5504
40.3955
40.9015
40.4748
39.7379
40.81
40.8412
15.1721
14.7611
14.9866
14.9906
15.1102
14.8199
14.8514
14.0005
13.1685
42.7602
13.6474
13.6963
13.8544
13.2867
13.4881
43.0227
42.7127
14.4772
14.5545
14.5856
14.0833
14.2423
15.4441
15.5276
15.5506
15.2529
15.2969
43.675
43.4306
43.2576
43.7796
43.7232
43.8245
45.6306
47.4179
46.8006
47.5285
47.734
47.2912
47.0476
47.0456
43.7933
44.5976
44.1223
42.2529
42.6093
42.3922
35.0213
34.9012
34.7915
34.2737
34.461
66.6199
37.6976
37.6541
69.6296
37.6716
69.9193
37.1801
36.7272
36.4586
36.434
37.0459
36.7053
37.6816
37.4508
37.1073
37.0146
36.3235
35.7256
36.0113
36.497
36.5447
36.2059
35.9885
36.3
36.3678
35.9909
36.2036
35.7725
35.1015
34.6857
23.5196
23.8953
23.0577
20.9495
21.9977
22.4448
18.8919
18.3061
34.4458
20.1198
21.0225
21.8907
18.5007
19.2923
22.0383
21.3507
20.7376
22.6335
22.5681
26.6893
31.6789
42.1881
45.3388
35.6006
38.502
23.9792
23.7552
50.4599
58.8648
33.8394
33.8799
33.5
33.6751
33.3695
34.4722
34.0802
33.2829
33.4989
35.3927
35.3391
35.0264
34.4107
33.9954
33.8031
34.0416
34.8859
35.074
32.9893
32.58
32.4744
32.8053
38.7442
39.45
39.0457
38.6721
38.57
38.53
38.0079
66.4795
57.579
47.4125
45.3383
51.8228
49.8205
44.0997
49.6887
42.0964
41.1988
43.9597
40.1712
42.6151
37.9405
33.5768
35.8107
31.5294
27.2137
29.4466
25.3186
21.179
23.2259
20.7901
22.4485
23.5177
23.0769
23.1057
22.1302
19.3718
19.6994
19.5866
20.0027
21.0342
18.9486
17.7435
17.4439
16.9704
17.168
16.7361
16.2291
15.6331
15.2354
15.2952
15.3588
14.8372
14.2288
14.2313
14.0381
49.6018
50.5404
51.7681
51.1815
50.9189
52.595
51.3267
51.3737
52.5974
52.0539
49.9088
51.8297
50.8349
52.1396
52.1954
52.6213
52.4165
52.8474
53.4138
53.0207
52.1354
51.3788
49.6145
46.9201
43.9516
40.7638
37.3185
33.6066
29.5166
25.1083
20.328
48.5295
47.6507
47.3044
48.9702
48.6759
48.6284
14.2277
13.807
13.1724
15.8558
12.8425
10.5813
9.34441
9.23392
8.98071
8.68668
8.42684
8.21308
8.04431
7.92571
7.85413
7.81206
7.79883
7.79998
7.81526
7.83088
7.85148
7.86887
7.88701
7.9033
7.9203
7.93438
7.94819
12.8124
12.9488
12.7194
7.96055
13.13
7.97199
12.9853
7.98198
7.9911
7.99929
8.00638
8.01233
8.01729
12.58
11.9806
11.6334
11.6727
11.5504
11.8257
11.7048
11.4167
10.9917
10.4877
11.2111
10.647
8.02128
8.02425
11.6728
8.02615
11.8764
8.02673
8.02639
8.02513
8.023
8.02005
8.01638
8.01226
8.00746
8.00242
7.99684
7.99114
7.98508
7.97904
7.97277
7.9666
7.96025
7.95411
7.94784
7.94183
7.93571
7.92993
7.924
7.91842
7.91273
7.90739
7.90196
7.8969
7.89172
7.88689
7.88195
7.87736
7.87267
7.86833
7.86384
7.85976
7.85547
7.85152
7.84742
7.84368
7.83975
7.83615
7.83237
7.82895
7.82533
7.822
7.81849
7.81531
7.81188
7.80878
7.80548
7.80247
7.79932
7.79635
7.79332
7.79038
7.7875
7.78455
7.78177
7.77893
7.77617
7.77347
13.6413
22.4447
15.1779
14.4658
13.9521
17.8109
16.3232
19.9935
24.0787
25.1549
27.9822
26.9289
25.9412
25.4151
29.03
28.5009
29.7163
28.248
27.7329
27.8533
27.7565
27.44
27.6013
27.3327
27.0444
27.102
13.1154
13.0466
13.0922
13.3973
13.0884
11.8287
11.5227
11.0788
11.3873
10.9762
11.8247
11.8096
12.0352
11.8718
11.9427
11.8753
12.0985
13.11
12.222
13.9586
16.496
15.2224
17.716
17.9703
18.4317
17.9192
17.8477
17.392
17.188
17.2501
16.8831
17.5881
17.474
16.8845
15.9737
15.0767
14.099
12.9011
11.7199
11.0097
10.4388
9.95084
9.39423
8.76651
8.1103
7.4586
6.64753
5.6984
4.68515
3.72473
2.90598
2.18839
2.2777
2.14103
2.22923
2.26588
1.87408
2.03319
1.94966
1.96992
1.85355
2.03626
1.69159
1.88328
1.71294
1.72563
1.66611
1.86524
1.59807
1.85525
1.6904
1.65134
1.59639
1.72146
1.41962
1.60656
1.41446
1.44466
1.40223
1.59648
1.31958
1.5876
1.42903
1.37112
1.32085
1.37322
1.11256
1.28746
1.0017
1.34597
1.0566
1.30802
1.21268
1.20622
1.16441
1.32134
1.05482
1.31673
1.18786
1.05743
1.02686
1.11189
0.94448
1.00417
1.08378
1.1639
1.03906
0.890577
0.965662
0.897658
0.825547
0.951864
0.847287
0.94381
0.78863
0.931925
0.997241
0.875884
0.813812
0.674784
0.728965
0.417673
0.34656
0.329386
0.493719
0.784723
0.973828
1.08718
1.16638
1.24654
1.29823
1.34036
1.37457
1.41471
1.46256
1.51828
1.56311
1.58935
1.581
1.51164
1.41223
1.21672
0.762449
0.961989
28.811
28.3701
29.5477
29.3807
28.9775
28.6285
29.2181
28.0347
28.5683
28.0829
27.8913
29.2362
29.1333
28.897
27.5681
28.1284
27.9077
27.5492
28.3265
27.1935
27.6913
27.27
27.0707
28.7769
28.3135
28.1959
27.7933
27.4435
27.3241
30.8947
30.3966
30.0069
29.7064
30.4455
30.6594
30.438
29.9526
29.6307
29.2514
28.9289
31.004
30.9124
29.5992
29.3258
30.4212
29.9668
30.7569
29.6996
30.109
29.2908
29.8302
30.4987
30.1721
32.2327
31.9393
32.0754
31.1176
31.5262
31.4722
30.9178
31.2997
31.4944
31.2867
30.252
30.7267
30.1985
30.0085
30.0816
29.1244
29.5623
29.6363
29.2572
27.042
26.6896
28.5689
28.4501
28.1212
27.6677
27.3064
26.981
26.6558
26.5444
28.2204
28.1011
27.8442
26.7125
27.1877
27.7942
27.4329
27.8876
27.8033
27.5858
27.1941
27.6198
26.4782
26.9667
26.4163
26.3507
26.7319
26.3419
26.1133
26.0453
72.3207
1.00928
43.2111
42.5639
41.4265
40.2243
38.6931
37.4486
36.2055
35.2028
34.415
33.7604
33.2
32.7199
32.3041
31.9396
31.616
31.3249
31.0595
30.8147
30.5864
30.3713
30.167
29.9714
29.7831
29.6008
29.4235
29.2504
29.0808
28.9142
28.75
28.5878
28.4273
28.268
28.1096
27.9519
27.7944
27.6371
27.4795
27.3214
27.1626
27.0029
26.842
26.6796
26.5156
26.3497
26.1817
26.0113
25.8384
25.6627
25.484
25.302
25.1165
24.9272
24.734
24.5364
24.3343
24.1273
23.9152
23.6976
23.4743
23.2449
23.0091
22.7666
22.5169
22.2597
21.9946
21.7214
21.4395
21.1487
20.8487
20.539
20.2194
19.8897
19.5498
19.1995
18.8389
18.4682
18.088
17.6986
17.3015
16.8978
16.49
16.0801
15.6715
15.2677
14.8734
14.4888
14.1182
13.7611
13.4146
13.0796
12.7204
12.5105
12.4542
12.3187
12.0634
11.6608
11.1279
10.4792
9.7434
8.98767
8.28769
7.67986
7.33858
7.23584
7.23902
7.32244
7.41571
7.5259
7.62845
7.71719
7.79115
7.8452
7.87358
7.88308
7.88081
7.85767
7.80877
7.7446
7.66056
7.55806
7.44188
7.30481
7.15544
6.99071
6.80911
6.61398
6.40556
6.17915
5.94098
5.67957
5.41324
5.11309
4.77195
4.36141
3.90378
3.30074
2.56978
1.89474
1.20884
41.6955
3.95612
4.48734
4.87195
4.6546
4.27249
8.93504
13.2494
11.1343
8.95987
16.0403
25.2872
27.4098
28.6001
29.7625
26.8584
26.8081
26.4721
26.1816
25.5632
24.8557
24.0153
23.0603
21.8482
20.5712
18.7331
16.8606
14.0105
11.2881
8.29818
1.00928
1.25192
1.56892
2.0277
3.46381
1.20884
5.8115
6.58192
)
;
    }
    symmetryLine
    {
        type            symmetryPlane;
    }
}


// ************************************************************************* //
