/*--------------------------------*- C++ -*----------------------------------*\
| =========                 |                                                 |
| \\      /  F ield         | OpenFOAM: The Open Source CFD Toolbox           |
|  \\    /   O peration     | Version:  v2006                                 |
|   \\  /    A nd           | Website:  www.openfoam.com                      |
|    \\/     M anipulation  |                                                 |
\*---------------------------------------------------------------------------*/
FoamFile
{
    version     2.0;
    format      ascii;
    class       volScalarField;
    location    "0.104";
    object      alphat;
}
// * * * * * * * * * * * * * * * * * * * * * * * * * * * * * * * * * * * * * //

dimensions      [1 -1 -1 0 0 0 0];


internalField   nonuniform List<scalar> 
16277
(
24.2179
16.0221
91.9185
12.1533
18.5304
13.6628
6.18878
2.59709
1.40969
0.952907
0.74963
0.646471
0.584814
0.54007
0.502388
0.468456
0.437563
0.409771
0.385116
0.363428
0.344375
0.327559
0.312598
0.299169
0.287015
0.275939
0.265792
0.256456
0.24784
0.239868
0.232476
0.22561
0.219224
0.213278
0.207737
0.202572
0.197757
0.193268
0.189086
0.185193
0.181572
0.17821
0.175094
0.172213
0.169558
0.167121
0.164894
0.162872
0.161051
0.159426
0.157996
0.156759
0.155716
0.154867
0.154212
0.153757
0.153506
0.153466
0.153646
0.154047
0.154685
0.155572
0.156722
0.158156
0.159895
0.161964
0.164394
0.167223
0.170497
0.174278
0.178646
0.183707
0.189597
0.196477
0.204502
0.213783
0.224324
0.236047
0.249057
0.264493
0.286352
0.325969
0.412471
0.621708
1.15792
2.43425
4.29755
4.59567
2.72347
1.7991
0.885909
0.403967
0.219659
0.103639
0.0245576
0.00441851
0.0001464
0.000127054
0.00207673
0.00956441
0.00527017
0.00134567
0.00011128
9.96369e-05
0.00122688
0.00443178
0.00353618
0.00105454
9.20689e-05
8.61342e-05
0.00102197
0.00335343
0.00290156
0.000920532
8.108e-05
7.76728e-05
0.000904695
0.00282631
0.00257242
0.000843073
7.43144e-05
7.24986e-05
0.000848152
0.00254624
0.00238182
0.000803042
7.02802e-05
6.90876e-05
0.00081025
0.00236723
0.00224242
0.000773926
6.74509e-05
6.66266e-05
0.00078108
0.00223589
0.00213273
0.000750271
6.53479e-05
6.47501e-05
0.00075722
0.0021307
0.00204133
0.000730108
6.37117e-05
6.32624e-05
0.000737034
0.00204219
0.00196266
0.000712411
6.23846e-05
6.20305e-05
0.000719366
0.00196542
0.00189328
0.000696438
6.12594e-05
6.09711e-05
0.000703312
0.0018973
0.00183097
0.000681711
6.02781e-05
6.00358e-05
0.0006885
0.0018359
0.0017744
0.000668008
5.93998e-05
5.919e-05
0.000674728
0.00178
0.00172256
0.000655201
5.8597e-05
5.84111e-05
0.000661861
0.00172874
0.00167471
0.000643181
5.7852e-05
5.76842e-05
0.000649776
0.00168141
0.00163039
0.000631843
5.71522e-05
5.69985e-05
0.000638373
0.00163754
0.00158921
0.000621111
5.64885e-05
5.6346e-05
0.000627577
0.00159675
0.00155086
0.000610929
5.58545e-05
5.57208e-05
0.000617344
0.00155876
0.0015151
0.000601272
5.5245e-05
5.5119e-05
0.00060764
0.00152328
0.00148163
0.0005921
5.46567e-05
5.45374e-05
0.000598416
0.00149002
0.00145017
0.000583359
5.40866e-05
5.39731e-05
0.00058962
0.00145872
0.00142048
0.000575001
5.3532e-05
5.34234e-05
0.000581202
0.00142913
0.00139234
0.000566979
5.29901e-05
5.28855e-05
0.000573115
0.00140106
0.00136558
0.000559246
5.24584e-05
5.23571e-05
0.000565311
0.00137432
0.00134001
0.000551759
5.19345e-05
5.18356e-05
0.000557746
0.00134875
0.00131551
0.000544475
5.14159e-05
5.13188e-05
0.000550381
0.00132422
0.00129195
0.000537362
5.09007e-05
5.08046e-05
0.000543182
0.0013006
0.00126922
0.000530389
5.03866e-05
5.02909e-05
0.000536121
0.0012778
0.00124722
0.00052353
4.98718e-05
4.97759e-05
0.000529171
0.00125571
0.00122588
0.000516763
4.93544e-05
4.92577e-05
0.000522314
0.00123428
0.00120514
0.000510072
4.88327e-05
4.87349e-05
0.000515534
0.00121344
0.00118495
0.000503447
4.83052e-05
4.82059e-05
0.000508822
0.00119316
0.00116529
0.00049688
4.77706e-05
4.76698e-05
0.000502189
0.0011734
0.00114612
0.000490377
4.72278e-05
4.71254e-05
0.000495675
0.00115417
0.00112746
0.000483958
4.66763e-05
4.65724e-05
0.000489229
0.00113545
0.0011093
0.000477601
4.61154e-05
4.601e-05
0.000482866
0.00111724
0.00109163
0.000471327
4.55446e-05
4.54379e-05
0.000476608
0.00109955
0.0010745
0.000465163
4.49639e-05
4.48563e-05
0.000470488
0.00108244
0.00105795
0.000459148
4.43738e-05
4.42659e-05
0.000464548
0.00106597
0.00104208
0.000453327
4.37753e-05
4.36682e-05
0.000458848
0.00105037
0.00102705
0.000447772
4.31706e-05
4.30656e-05
0.000453467
0.0010358
0.00101299
0.000442569
4.25627e-05
4.2462e-05
0.000448492
0.00102226
0.00100004
0.00043781
4.1956e-05
4.1862e-05
0.000444028
0.00100999
0.000988431
0.000433608
4.13559e-05
4.12717e-05
0.000440203
0.000999273
0.000978478
0.000430106
4.07689e-05
4.06995e-05
0.000437166
0.000990419
0.000970513
0.000427483
4.02033e-05
4.01566e-05
0.000434985
0.000983771
0.000964923
0.000425862
3.96766e-05
3.96458e-05
0.000433491
0.000979577
0.000961825
0.000424852
3.92097e-05
3.91835e-05
0.000432716
0.000978327
0.000961698
0.000424685
3.88014e-05
3.8779e-05
0.000432784
0.000980041
0.000964499
0.000425427
3.84855e-05
3.84468e-05
0.000433665
0.000984532
0.00097012
0.000427055
3.82586e-05
3.82079e-05
0.000435242
0.000991418
0.000978028
0.000429158
3.80407e-05
3.80636e-05
0.000437209
0.00100051
0.000988102
0.000431378
3.78989e-05
3.79846e-05
0.000439145
0.00101146
0.000999857
0.000433632
3.78383e-05
3.8e-05
0.000440765
0.00102299
0.00101182
0.000435577
3.78787e-05
3.8093e-05
0.000442093
0.00103403
0.00102307
0.000436977
3.79965e-05
3.82518e-05
0.000443358
0.00104408
0.00103333
0.000438088
3.81808e-05
3.84724e-05
0.000444358
0.00105291
0.00104241
0.000439104
3.84258e-05
3.87463e-05
0.00044526
0.00106044
0.00105013
0.000439651
3.87203e-05
3.90581e-05
0.000445921
0.00106681
0.00105628
0.000439994
3.90511e-05
3.93973e-05
0.000446357
0.00107174
0.00106057
0.000440157
3.94066e-05
3.9752e-05
0.000446564
0.00107589
0.00106353
0.000440198
3.97746e-05
4.01108e-05
0.00044663
0.00107839
0.00106482
0.000439899
4.01439e-05
4.0464e-05
0.00044656
0.00107915
0.0010636
0.000439142
4.05047e-05
4.08021e-05
0.000445836
0.00107774
0.00106105
0.000438158
4.08452e-05
4.11133e-05
0.000444867
0.0010749
0.00105744
0.000437064
4.11554e-05
4.13906e-05
0.00044376
0.00107085
0.00105282
0.000435932
4.14293e-05
4.16297e-05
0.000442547
0.00106566
0.00104729
0.000434797
4.1663e-05
4.18287e-05
0.000441289
0.00105949
0.00104104
0.000433696
4.18557e-05
4.19892e-05
0.000440028
0.00105257
0.00103421
0.000432638
4.20094e-05
4.21142e-05
0.00043877
0.00104501
0.0010269
0.000431603
4.21277e-05
4.2202e-05
0.000437507
0.00103702
0.00101915
0.000430561
4.22123e-05
4.22621e-05
0.000436223
0.00102881
0.00101124
0.000429496
4.22695e-05
4.22993e-05
0.000434919
0.00102052
0.00100327
0.000428401
4.23037e-05
4.23217e-05
0.0004336
0.0010123
0.000995247
0.000427208
4.23165e-05
4.23273e-05
0.000432261
0.00100413
0.000987201
0.000425888
4.2304e-05
4.23123e-05
0.000430866
0.000995909
0.000979078
0.00042449
4.22783e-05
4.22858e-05
0.00042939
0.000987638
0.000971011
0.000423074
4.22454e-05
4.22508e-05
0.000427943
0.000979446
0.000962984
0.000421656
4.22019e-05
4.22067e-05
0.000426449
0.000971248
0.000954833
0.00042014
4.21505e-05
4.21521e-05
0.000424825
0.000963017
0.000946653
0.000418547
4.2091e-05
4.20885e-05
0.000423172
0.000954779
0.000938562
0.000416904
4.20201e-05
4.20196e-05
0.000421467
0.000946637
0.000930487
0.000415166
4.19493e-05
4.19443e-05
0.000419693
0.000938481
0.00092247
0.00041339
4.18531e-05
4.18866e-05
0.000417971
0.00093058
0.000914102
0.000411655
4.17573e-05
4.1804e-05
0.000415834
0.000923216
0.000907047
0.000408727
4.15967e-05
4.18539e-05
0.00041607
0.000920728
0.000909416
0.000415468
4.1741e-05
4.24212e-05
0.000416148
0.000919499
0.000962967
0.000437555
4.27319e-05
4.55187e-05
0.000410325
0.000936147
0.00142967
0.000596323
5.13476e-05
5.54177e-05
0.000309268
0.000710007
0.00175149
0.0040136
0.00750334
0.0106975
0.0128832
0.016934
0.0195203
0.021841
0.0231475
0.0237724
0.0235967
0.0225469
0.0210523
0.018655
0.0163047
0.0127413
0.0111327
0.00810074
0.00606078
0.0041175
0.00234051
0.0010741
0.000391621
0.000162682
3.14225e-05
2.04869e-05
0.000151114
0.000355172
0.000335253
0.000143623
1.96849e-05
1.89175e-05
0.000137977
0.00031753
0.000319041
0.000136086
1.87342e-05
1.85973e-05
0.00013546
0.000313996
0.000314108
0.000134019
1.84211e-05
1.84067e-05
0.000134014
0.000313722
0.000314591
0.000134103
1.84349e-05
1.84374e-05
0.000134288
0.000315283
0.000315732
0.000134499
1.84653e-05
1.84828e-05
0.000134728
0.000316643
0.000317111
0.000134902
1.84966e-05
1.8525e-05
0.000135152
0.000318159
0.000318719
0.000135412
1.85179e-05
1.85471e-05
0.000135695
0.000319778
0.000320346
0.000135919
1.85635e-05
1.85991e-05
0.00013621
0.000321433
0.000321945
0.000136368
1.85987e-05
1.86079e-05
0.0001368
0.000323013
0.000323537
0.000136876
1.86479e-05
1.86548e-05
0.000137285
0.000324684
0.000325232
0.000137467
1.86731e-05
1.86786e-05
0.000137851
0.000326513
0.000327107
0.000138053
1.87253e-05
1.87336e-05
0.000138461
0.000328338
0.000328901
0.000138644
1.87521e-05
1.87584e-05
0.000139047
0.000330119
0.000330681
0.000139194
1.88023e-05
1.88084e-05
0.000139603
0.00033191
0.000332497
0.000139821
1.88289e-05
1.88357e-05
0.000140249
0.000333848
0.000334482
0.000140456
1.88843e-05
1.88931e-05
0.000140895
0.000335843
0.000336477
0.000141143
1.8915e-05
1.8923e-05
0.000141598
0.000337846
0.000338486
0.000141844
1.8957e-05
1.89926e-05
0.000142208
0.000339875
0.000340526
0.000142465
1.89987e-05
1.90095e-05
0.000142977
0.000341934
0.000342583
0.00014323
1.90434e-05
1.90806e-05
0.000143619
0.000343997
0.000344662
0.00014387
1.90872e-05
1.91005e-05
0.000144421
0.000346124
0.000346799
0.000144696
1.91346e-05
1.91722e-05
0.00014511
0.000348263
0.000348965
0.00014535
1.91788e-05
1.91922e-05
0.000145942
0.000350467
0.000351148
0.000146215
1.92262e-05
1.9264e-05
0.000146635
0.000352584
0.000353249
0.000146861
1.92704e-05
1.92848e-05
0.000147451
0.000354711
0.000355353
0.000147705
1.93161e-05
1.93547e-05
0.0001481
0.000356738
0.000357361
0.000148309
1.93582e-05
1.93711e-05
0.000148882
0.000358784
0.000359414
0.000149114
1.94034e-05
1.9441e-05
0.000149516
0.000360797
0.00036141
0.000149702
1.94441e-05
1.94545e-05
0.000150236
0.000362763
0.000363295
0.00015041
1.94856e-05
1.9519e-05
0.000150745
0.0003645
0.000364916
0.000150807
1.95158e-05
1.95194e-05
0.000151183
0.000366013
0.000366348
0.000151144
1.95551e-05
1.95534e-05
0.000151414
0.000367289
0.00036762
0.000151315
1.95596e-05
1.95555e-05
0.000151502
0.000368455
0.000368659
0.000151336
1.95868e-05
1.95757e-05
0.000151317
0.000369142
0.000369127
0.000150991
1.95738e-05
1.95537e-05
0.000150813
0.000369265
0.000369086
0.000150293
1.95563e-05
1.95586e-05
0.000149791
0.000369059
0.00036853
0.000149083
1.95251e-05
1.94959e-05
0.000148509
0.000368401
0.000367725
0.000147733
1.94931e-05
1.94866e-05
0.00014689
0.000367621
0.00036665
0.000145847
1.94555e-05
1.94258e-05
0.000145029
0.000366426
0.000364887
0.000143652
1.9428e-05
1.93969e-05
0.00014245
0.000364437
0.000362622
0.000140915
1.93792e-05
1.93515e-05
0.000139598
0.000362065
0.00035989
0.000137879
1.93552e-05
1.93771e-05
0.000136447
0.000359644
0.000358039
0.000134858
1.93852e-05
1.94354e-05
0.000133679
0.00035842
0.000356838
0.000132161
1.94889e-05
1.95814e-05
0.000130942
0.000357296
0.000356925
0.000129641
1.96928e-05
1.98565e-05
0.000129016
0.000359005
0.000360726
0.000127617
2.00364e-05
2.02231e-05
0.000126819
0.000364675
0.000370129
0.000128212
2.04307e-05
2.06368e-05
0.000128919
0.000375112
0.000377879
0.00012819
2.06904e-05
2.08364e-05
0.000125853
0.00038347
0.000389799
0.000132637
2.11322e-05
2.13352e-05
0.000128694
0.000395028
0.000400009
0.000131847
2.16844e-05
2.19383e-05
0.000133492
0.000409438
0.000411945
0.000136191
2.23007e-05
2.28144e-05
0.000143218
0.000424526
0.000426947
0.000146933
2.33215e-05
2.37658e-05
0.000153131
0.000438236
0.00044176
0.000158656
2.46552e-05
2.6501e-05
0.000184343
0.000461706
0.000459527
0.000195487
1.99382e-05
1.5392e-05
4.81951e-05
0.000128911
0.000360529
0.000111254
1.80045e-05
1.89134e-05
0.000100177
0.00033124
0.00034895
0.00010413
1.93659e-05
1.96958e-05
9.84115e-05
0.000333468
0.00035941
0.000106358
2.03016e-05
2.09015e-05
0.000104918
0.000354568
0.0003893
0.000119029
2.15566e-05
2.22718e-05
0.000118029
0.00038161
0.000416993
0.000137504
2.31886e-05
2.4405e-05
0.000141152
0.000419228
0.000468945
0.000169953
2.69282e-05
2.05468e-05
0.000187846
0.000480509
0.000129091
4.44989e-05
1.64413e-05
1.96985e-05
0.0001219
0.000405461
0.000396778
0.000113268
2.14384e-05
2.26452e-05
0.000147695
0.000489065
0.000498562
0.000149807
2.36803e-05
2.49997e-05
0.000174062
0.000554026
0.000569343
0.000185814
2.67207e-05
2.99237e-05
0.00022144
0.000621597
0.000603878
0.000238153
2.31449e-05
1.74677e-05
5.37508e-05
0.000159482
0.000491337
0.000145104
2.09277e-05
2.26487e-05
0.000135137
0.000482131
0.000553842
0.000166577
2.41291e-05
2.58862e-05
0.000167154
0.000546167
0.000618822
0.000212787
2.97733e-05
2.39513e-05
0.000249761
0.000623933
0.000169336
5.54117e-05
1.78231e-05
2.19699e-05
0.000153739
0.000558037
0.000575075
0.000161214
2.48338e-05
2.86887e-05
0.000227157
0.000739784
0.000774429
0.000267817
3.35832e-05
2.76478e-05
0.000313725
0.000782194
0.000218128
6.53482e-05
1.88111e-05
2.39807e-05
0.000205516
0.000695078
0.000691201
0.000198932
2.80408e-05
3.52748e-05
0.000298075
0.00087607
0.000891474
0.000351471
2.94385e-05
1.98058e-05
7.47424e-05
0.000273594
0.000902888
0.000266248
2.7984e-05
3.53082e-05
0.000280401
0.000970608
0.00134356
0.00047298
4.8306e-05
4.01918e-05
0.000503693
0.0012898
0.000456092
0.000119657
2.62254e-05
4.67054e-05
0.000488057
0.0014065
0.00140619
0.000521186
4.35554e-05
2.95541e-05
0.000133009
0.000549871
0.00194877
0.000646959
6.49873e-05
6.41154e-05
0.000747482
0.00211774
0.000964467
0.000266404
4.07536e-05
6.4921e-05
0.00086756
0.002528
0.00167
0.000553871
4.32309e-05
8.02894e-05
0.000976817
0.00196973
0.00168937
0.000817163
6.60132e-05
6.67783e-05
0.000778172
0.00185142
0.00237199
0.000857629
7.64755e-05
0.000105525
0.00159892
0.00394804
0.000879049
0.000273254
5.99238e-05
6.13471e-05
0.000766006
0.0017554
0.000542698
0.000193899
4.27593e-05
4.6482e-05
0.000472792
0.00113708
0.000972166
0.000349768
4.62193e-05
2.57973e-05
9.05846e-05
0.000278998
0.000657014
0.000375701
3.10193e-05
2.90142e-05
0.000118624
0.000299773
0.000723984
0.000316258
3.31487e-05
3.54101e-05
0.00025641
0.000655022
0.00021281
7.98095e-05
2.33882e-05
2.7833e-05
0.000251799
0.000566787
0.000519974
0.00021025
3.1161e-05
2.1753e-05
6.8144e-05
0.000173094
0.000479751
0.000213369
2.5248e-05
2.91988e-05
0.000186208
0.000441432
0.000153822
6.42927e-05
2.12168e-05
2.38605e-05
0.000190726
0.000424757
0.000384488
0.000168236
2.80726e-05
2.08219e-05
5.9338e-05
0.000137095
0.000374731
0.000171422
2.25789e-05
2.70577e-05
0.000151289
0.000340873
0.000123796
5.58756e-05
2.05018e-05
2.19525e-05
0.000159588
0.000338114
0.000304708
0.000139844
2.61741e-05
2.00454e-05
5.23498e-05
0.000113658
0.000307237
0.000146756
2.09509e-05
2.56747e-05
0.000130495
0.000281034
0.000110652
5.21437e-05
2.016e-05
2.10959e-05
0.000149715
0.000300613
0.000256447
0.000121378
2.65756e-05
2.20153e-05
9.57373e-05
0.000207864
8.20567e-05
3.82685e-05
1.81235e-05
1.78602e-05
0.00010135
0.000205836
0.000194311
9.47707e-05
2.29214e-05
1.82868e-05
3.77344e-05
8.03003e-05
0.0001894
9.64157e-05
1.72298e-05
2.20875e-05
8.83538e-05
0.000175528
7.34515e-05
3.73019e-05
1.79828e-05
1.70106e-05
9.01032e-05
0.000169529
0.000160839
8.57348e-05
2.19296e-05
1.78506e-05
3.54066e-05
7.07537e-05
0.000159702
8.64595e-05
1.66417e-05
2.16166e-05
8.15362e-05
0.000150777
6.74592e-05
3.458e-05
1.76464e-05
1.62044e-05
7.95878e-05
0.000146146
0.000140005
7.75131e-05
2.10286e-05
1.75919e-05
3.35107e-05
6.29082e-05
0.000138941
7.80994e-05
1.61919e-05
2.10954e-05
7.45332e-05
0.000131603
6.09028e-05
3.29028e-05
1.73211e-05
1.57719e-05
7.29617e-05
0.000126216
0.000122182
7.04707e-05
2.06482e-05
1.69603e-05
2.97159e-05
5.48735e-05
0.00010823
8.35579e-05
1.51783e-05
1.9396e-05
3.84016e-05
6.27301e-05
0.000143624
8.057e-05
1.71984e-05
2.16362e-05
7.47786e-05
0.000132537
6.40423e-05
3.70578e-05
1.77787e-05
1.63248e-05
7.91645e-05
0.000132331
0.000124975
7.33548e-05
2.14934e-05
1.78586e-05
3.66595e-05
6.21257e-05
0.000130297
7.83352e-05
1.62257e-05
2.11965e-05
7.28938e-05
0.000123071
6.08681e-05
3.68258e-05
1.76862e-05
1.60958e-05
7.41576e-05
0.000118508
0.000112395
6.73174e-05
2.14738e-05
1.78615e-05
3.64043e-05
5.7302e-05
0.000109314
6.91089e-05
1.57495e-05
2.05843e-05
6.41611e-05
0.000103317
5.08638e-05
3.25295e-05
1.68907e-05
1.47783e-05
7.06305e-05
9.05936e-05
5.52683e-05
3.85209e-05
1.91475e-05
1.68633e-05
6.65976e-05
0.000109031
9.96694e-05
6.07656e-05
2.14312e-05
1.75249e-05
3.68328e-05
5.34179e-05
9.94059e-05
6.49516e-05
1.56484e-05
2.06454e-05
6.00341e-05
9.02619e-05
4.86201e-05
3.47532e-05
1.72296e-05
1.47484e-05
6.48939e-05
8.2495e-05
5.20729e-05
3.82076e-05
1.93118e-05
1.67351e-05
6.41613e-05
9.99321e-05
9.04674e-05
5.8302e-05
2.11847e-05
1.74347e-05
3.71569e-05
5.06955e-05
9.34795e-05
6.2448e-05
1.56176e-05
2.05521e-05
5.67613e-05
8.54349e-05
4.67153e-05
3.46616e-05
1.70504e-05
1.46423e-05
6.07509e-05
7.59524e-05
4.90734e-05
3.76266e-05
1.92857e-05
1.65465e-05
6.00152e-05
9.2489e-05
8.31605e-05
5.49521e-05
2.1119e-05
1.73928e-05
3.70468e-05
4.72465e-05
8.47168e-05
5.78192e-05
1.55094e-05
2.07269e-05
5.28322e-05
7.6543e-05
4.30269e-05
3.41184e-05
1.71606e-05
1.44358e-05
5.45926e-05
6.77504e-05
4.49561e-05
3.56296e-05
1.9158e-05
1.62141e-05
5.55381e-05
8.2352e-05
7.38086e-05
5.08839e-05
2.07894e-05
1.69554e-05
3.49271e-05
4.25216e-05
6.61467e-05
5.52811e-05
1.42449e-05
1.89655e-05
3.73423e-05
4.48093e-05
8.13989e-05
5.36772e-05
1.6041e-05
2.10105e-05
4.95412e-05
7.29955e-05
4.25325e-05
3.5742e-05
1.71435e-05
1.44358e-05
5.36404e-05
6.54923e-05
4.48648e-05
3.76064e-05
1.9078e-05
1.59199e-05
5.45321e-05
8.02801e-05
7.19216e-05
5.00915e-05
2.07701e-05
1.69194e-05
3.5794e-05
4.21451e-05
6.47692e-05
5.43601e-05
1.41068e-05
1.91358e-05
3.75729e-05
4.4411e-05
7.89494e-05
5.3098e-05
1.61511e-05
2.105e-05
4.95529e-05
7.09584e-05
4.23751e-05
3.69051e-05
1.73844e-05
1.45782e-05
5.45992e-05
6.36638e-05
4.43723e-05
3.908e-05
1.91996e-05
1.61229e-05
5.24136e-05
7.76807e-05
6.92857e-05
4.82729e-05
2.08686e-05
1.71325e-05
3.62295e-05
4.11207e-05
6.14541e-05
5.31351e-05
1.41853e-05
1.89231e-05
3.91285e-05
4.3947e-05
6.68454e-05
5.05691e-05
1.51732e-05
1.9649e-05
3.98805e-05
4.64153e-05
7.89961e-05
5.32681e-05
1.64799e-05
2.09407e-05
4.9242e-05
7.04341e-05
4.26134e-05
3.76529e-05
1.70816e-05
1.4237e-05
5.41323e-05
6.30878e-05
4.45566e-05
4.02279e-05
1.92745e-05
1.61852e-05
5.22625e-05
7.6281e-05
6.83665e-05
4.86761e-05
2.10474e-05
1.72021e-05
3.72867e-05
4.13504e-05
6.06526e-05
5.2561e-05
1.44138e-05
1.92206e-05
3.99179e-05
4.41771e-05
6.58112e-05
5.02349e-05
1.55303e-05
1.9601e-05
4.09576e-05
4.64098e-05
7.764e-05
5.29896e-05
1.62312e-05
2.1013e-05
4.92e-05
6.93858e-05
4.27581e-05
3.89733e-05
1.73996e-05
1.44279e-05
5.43945e-05
6.14544e-05
4.57821e-05
4.25573e-05
1.92864e-05
1.54713e-05
5.29194e-05
6.76063e-05
4.78819e-05
4.34103e-05
1.98019e-05
1.65355e-05
5.28292e-05
7.91616e-05
7.06395e-05
4.98279e-05
2.13757e-05
1.73031e-05
3.9936e-05
4.37161e-05
6.28161e-05
5.57002e-05
1.43356e-05
1.92763e-05
4.27545e-05
4.65055e-05
6.76946e-05
5.31008e-05
1.55043e-05
1.98188e-05
4.35664e-05
4.83387e-05
7.92591e-05
5.39376e-05
1.65237e-05
2.12881e-05
5.07534e-05
7.09515e-05
4.46244e-05
4.14502e-05
1.76091e-05
1.47191e-05
5.62367e-05
6.34746e-05
4.76693e-05
4.44944e-05
1.9595e-05
1.5851e-05
5.49404e-05
6.8963e-05
4.95505e-05
4.53047e-05
1.98997e-05
1.64723e-05
5.38402e-05
8.01423e-05
7.13433e-05
5.08581e-05
2.1162e-05
1.75428e-05
4.12779e-05
4.47018e-05
6.20429e-05
5.65442e-05
1.47658e-05
1.95362e-05
4.41278e-05
4.68324e-05
6.7021e-05
5.34337e-05
1.57428e-05
2.00131e-05
4.49397e-05
4.8473e-05
7.72823e-05
5.27217e-05
1.65988e-05
2.14401e-05
5.0193e-05
6.91291e-05
4.44431e-05
4.18325e-05
1.77963e-05
1.48629e-05
5.65003e-05
6.17303e-05
4.69523e-05
4.44466e-05
1.94213e-05
1.53749e-05
5.25869e-05
6.63879e-05
4.94317e-05
4.52095e-05
1.96442e-05
1.56659e-05
5.42037e-05
6.91473e-05
5.08736e-05
4.79278e-05
1.99632e-05
1.66367e-05
5.50633e-05
7.9361e-05
7.10284e-05
5.22201e-05
2.12711e-05
1.73775e-05
4.28487e-05
4.54391e-05
6.3722e-05
5.75409e-05
1.45576e-05
1.96609e-05
4.5174e-05
4.83711e-05
6.69787e-05
5.34796e-05
1.58548e-05
1.98968e-05
4.59565e-05
5.03247e-05
6.94073e-05
5.4662e-05
1.57444e-05
1.99916e-05
4.8498e-05
5.14636e-05
7.9581e-05
5.54997e-05
1.66158e-05
2.13711e-05
5.28757e-05
7.1196e-05
4.67296e-05
4.46718e-05
1.78068e-05
1.48174e-05
5.87378e-05
6.36302e-05
4.91399e-05
4.68583e-05
1.97348e-05
1.58085e-05
5.45703e-05
6.84858e-05
5.1726e-05
4.77473e-05
2.00424e-05
1.6037e-05
5.63259e-05
7.09698e-05
5.31073e-05
5.0582e-05
2.02925e-05
1.68931e-05
5.71768e-05
8.09013e-05
7.25853e-05
5.43427e-05
2.15679e-05
1.77755e-05
4.56841e-05
4.8195e-05
6.48818e-05
5.99726e-05
1.49122e-05
1.98182e-05
4.77416e-05
5.03535e-05
6.8548e-05
5.51944e-05
1.57397e-05
2.00351e-05
4.79231e-05
5.1994e-05
7.03811e-05
5.59917e-05
1.59538e-05
2.03853e-05
5.06952e-05
5.31673e-05
7.93645e-05
5.64783e-05
1.68617e-05
2.16189e-05
5.41764e-05
7.20112e-05
4.80169e-05
4.57704e-05
1.78186e-05
1.49089e-05
5.89233e-05
6.44645e-05
5.07934e-05
4.83676e-05
2.00849e-05
1.59608e-05
5.60142e-05
6.90423e-05
5.28933e-05
4.9042e-05
2.00421e-05
1.57548e-05
5.61804e-05
7.05385e-05
5.4027e-05
5.0016e-05
2.00106e-05
1.60466e-05
5.81852e-05
7.23913e-05
5.50683e-05
5.30945e-05
2.02819e-05
1.68692e-05
5.91438e-05
8.17463e-05
7.391e-05
5.64695e-05
2.16144e-05
1.78753e-05
4.74203e-05
5.01947e-05
6.54406e-05
6.1163e-05
1.50378e-05
2.00585e-05
4.93486e-05
5.19833e-05
6.85907e-05
5.57954e-05
1.60188e-05
2.03004e-05
4.98295e-05
5.34902e-05
7.05107e-05
5.65345e-05
1.59929e-05
2.02206e-05
5.1661e-05
5.48383e-05
7.29844e-05
5.94186e-05
1.61777e-05
2.04119e-05
5.43158e-05
5.59457e-05
8.28432e-05
6.00992e-05
1.69437e-05
2.18278e-05
5.77603e-05
7.51875e-05
5.19861e-05
4.98826e-05
1.814e-05
1.50797e-05
6.3858e-05
6.75186e-05
5.38982e-05
5.18876e-05
2.00277e-05
1.58025e-05
5.88796e-05
7.18333e-05
5.58981e-05
5.19187e-05
2.02283e-05
1.61196e-05
5.91524e-05
7.37177e-05
5.73664e-05
5.38468e-05
2.02887e-05
1.6169e-05
6.22612e-05
7.58482e-05
5.8372e-05
5.65061e-05
2.04931e-05
1.71518e-05
6.2113e-05
8.49418e-05
7.72906e-05
5.95598e-05
2.18641e-05
1.8137e-05
5.11126e-05
5.37978e-05
6.86054e-05
6.42418e-05
1.54183e-05
2.02975e-05
5.28435e-05
5.55187e-05
7.18496e-05
5.94541e-05
1.61646e-05
2.05483e-05
5.27419e-05
5.70504e-05
7.33354e-05
5.89165e-05
1.62964e-05
2.05864e-05
5.47114e-05
5.81089e-05
7.56633e-05
6.21899e-05
1.65096e-05
2.0722e-05
5.78063e-05
5.89574e-05
8.47906e-05
6.31128e-05
1.71631e-05
2.21235e-05
6.08959e-05
7.78063e-05
5.50166e-05
5.28553e-05
1.83234e-05
1.53803e-05
6.6366e-05
7.01599e-05
5.69392e-05
5.4642e-05
2.03737e-05
1.6171e-05
6.12259e-05
7.38583e-05
5.8921e-05
5.47024e-05
2.0586e-05
1.6352e-05
6.10788e-05
7.5807e-05
6.03573e-05
5.65057e-05
2.05477e-05
1.64738e-05
6.44309e-05
7.77847e-05
6.09415e-05
5.92762e-05
2.06908e-05
1.71848e-05
6.43207e-05
8.64201e-05
7.9152e-05
6.2072e-05
2.22087e-05
1.8342e-05
5.37329e-05
5.62909e-05
7.00005e-05
6.66448e-05
1.55555e-05
2.05165e-05
5.52674e-05
5.76916e-05
7.24542e-05
6.06305e-05
1.62308e-05
2.07121e-05
5.5228e-05
5.90551e-05
7.40735e-05
6.05728e-05
1.64489e-05
2.06733e-05
5.70659e-05
6.02146e-05
7.62324e-05
6.35004e-05
1.64642e-05
2.0565e-05
5.87932e-05
6.17475e-05
7.8954e-05
6.61759e-05
1.64219e-05
2.07504e-05
6.16502e-05
6.26104e-05
8.88084e-05
6.67351e-05
1.72821e-05
2.24293e-05
6.46571e-05
8.17876e-05
5.86978e-05
5.67576e-05
1.85591e-05
1.54297e-05
7.04232e-05
7.38926e-05
6.13095e-05
5.91902e-05
2.06293e-05
1.64809e-05
6.54947e-05
7.77513e-05
6.31557e-05
5.94182e-05
2.08384e-05
1.65056e-05
6.61299e-05
7.9989e-05
6.46673e-05
6.09441e-05
2.06513e-05
1.65105e-05
6.89163e-05
8.2784e-05
6.60461e-05
6.40652e-05
2.09056e-05
1.7497e-05
6.94323e-05
9.18539e-05
8.42278e-05
6.71428e-05
2.26768e-05
1.87499e-05
5.89185e-05
6.1042e-05
7.57222e-05
7.26408e-05
1.56901e-05
2.08256e-05
6.07813e-05
6.33993e-05
7.81569e-05
6.68812e-05
1.66096e-05
2.09291e-05
6.01614e-05
6.43816e-05
7.92527e-05
6.57913e-05
1.67288e-05
2.0882e-05
6.19064e-05
6.54397e-05
8.13784e-05
6.88476e-05
1.66939e-05
2.11421e-05
6.50956e-05
6.61267e-05
9.04357e-05
6.93017e-05
1.75977e-05
2.30181e-05
6.7579e-05
8.35096e-05
6.16878e-05
6.02404e-05
1.89467e-05
1.56079e-05
7.32383e-05
7.58368e-05
6.43865e-05
6.26803e-05
2.0944e-05
1.67714e-05
6.8542e-05
7.95823e-05
6.63441e-05
6.29388e-05
2.11219e-05
1.67096e-05
6.886e-05
8.147e-05
6.7401e-05
6.4345e-05
2.0956e-05
1.6829e-05
7.08287e-05
8.41824e-05
6.88379e-05
6.77245e-05
2.14112e-05
1.78203e-05
7.20861e-05
9.33563e-05
8.59585e-05
7.03273e-05
2.3189e-05
1.91261e-05
6.2904e-05
6.4323e-05
7.84151e-05
7.65344e-05
1.58939e-05
2.10265e-05
6.44278e-05
6.67651e-05
8.07542e-05
7.00265e-05
1.67849e-05
2.12896e-05
6.42065e-05
6.78716e-05
8.19452e-05
6.95139e-05
1.68599e-05
2.1379e-05
6.61658e-05
6.90517e-05
8.4229e-05
7.21266e-05
1.70291e-05
2.18541e-05
6.99075e-05
6.9978e-05
9.35074e-05
7.32598e-05
1.8304e-05
2.38731e-05
7.19703e-05
8.67519e-05
6.64266e-05
6.60038e-05
1.96253e-05
1.63725e-05
7.84581e-05
8.04369e-05
6.91736e-05
6.79271e-05
2.14087e-05
1.70507e-05
7.4349e-05
8.42466e-05
7.10936e-05
6.81731e-05
2.16649e-05
1.70329e-05
7.40692e-05
8.66302e-05
7.20031e-05
7.09107e-05
2.20223e-05
1.85054e-05
7.41928e-05
9.49112e-05
8.77095e-05
7.29417e-05
2.4332e-05
1.98333e-05
6.67349e-05
6.75567e-05
7.99663e-05
7.87141e-05
1.6613e-05
2.18174e-05
6.84305e-05
6.97385e-05
8.25689e-05
7.38257e-05
1.73557e-05
2.201e-05
6.83402e-05
7.09096e-05
8.45468e-05
7.26776e-05
1.73666e-05
2.2553e-05
7.19181e-05
7.18503e-05
9.30072e-05
7.43144e-05
1.87102e-05
2.46047e-05
7.3553e-05
8.65139e-05
6.80355e-05
6.81002e-05
2.01169e-05
1.6466e-05
7.95562e-05
8.02347e-05
7.04215e-05
7.01156e-05
2.18572e-05
1.72697e-05
7.40923e-05
8.41094e-05
7.28883e-05
7.10285e-05
2.24183e-05
1.78077e-05
7.54468e-05
8.6762e-05
7.40376e-05
7.42394e-05
2.28134e-05
1.88676e-05
7.59234e-05
9.44494e-05
8.80966e-05
7.52984e-05
2.5088e-05
2.02421e-05
6.99965e-05
7.04975e-05
8.13182e-05
8.14017e-05
1.68609e-05
2.2505e-05
7.21561e-05
7.24719e-05
8.40659e-05
7.6203e-05
1.78009e-05
2.26469e-05
7.22581e-05
7.3673e-05
8.64174e-05
7.5238e-05
1.78529e-05
2.3338e-05
7.60959e-05
7.48441e-05
9.52891e-05
7.74112e-05
1.94652e-05
2.56752e-05
7.71318e-05
8.90843e-05
7.22961e-05
7.33973e-05
2.07858e-05
1.7146e-05
8.41502e-05
8.39133e-05
7.50295e-05
7.57854e-05
2.29925e-05
1.82293e-05
7.97316e-05
8.80905e-05
7.72496e-05
7.63357e-05
2.34191e-05
1.86222e-05
7.91805e-05
9.11004e-05
7.90752e-05
8.03398e-05
2.41829e-05
2.0119e-05
8.15686e-05
9.98202e-05
9.35099e-05
8.1526e-05
2.66316e-05
2.16289e-05
7.70498e-05
7.6658e-05
8.74271e-05
8.8156e-05
1.77757e-05
2.35568e-05
7.9258e-05
7.87667e-05
9.12804e-05
8.25966e-05
1.87451e-05
2.46111e-05
8.16949e-05
8.02582e-05
9.93606e-05
8.16804e-05
2.04603e-05
2.69896e-05
8.11108e-05
9.35505e-05
7.70915e-05
7.8593e-05
2.20439e-05
1.8082e-05
8.87788e-05
8.81379e-05
8.02909e-05
8.16448e-05
2.4325e-05
1.93229e-05
8.46304e-05
9.26799e-05
8.25295e-05
8.26961e-05
2.48778e-05
1.97585e-05
8.447e-05
9.63938e-05
8.48816e-05
8.73478e-05
2.57246e-05
2.14174e-05
8.78267e-05
0.000106006
9.93969e-05
8.80739e-05
2.8341e-05
2.31579e-05
8.49458e-05
8.32474e-05
9.41698e-05
9.57114e-05
1.87385e-05
2.51246e-05
8.73658e-05
8.61947e-05
9.92696e-05
8.99727e-05
2.0102e-05
2.63951e-05
9.04288e-05
8.8139e-05
0.00010845
8.99603e-05
2.15844e-05
2.8814e-05
9.01931e-05
0.000102432
8.6482e-05
8.87356e-05
2.4255e-05
1.99357e-05
9.78003e-05
9.7242e-05
8.93906e-05
9.18777e-05
2.64958e-05
2.12347e-05
9.37613e-05
0.000103197
9.22529e-05
9.55861e-05
2.78796e-05
2.32528e-05
9.44542e-05
0.000112994
0.000106724
9.49398e-05
3.07324e-05
2.51078e-05
9.29386e-05
9.07107e-05
0.000101933
0.000102554
2.03538e-05
2.76998e-05
9.75916e-05
9.34684e-05
0.000112408
9.57481e-05
2.31001e-05
3.08357e-05
9.56385e-05
0.000106954
9.0926e-05
9.22117e-05
2.5068e-05
2.00082e-05
0.000103245
0.000101279
9.35347e-05
9.51717e-05
2.72417e-05
2.18474e-05
9.62397e-05
0.000105748
9.56264e-05
9.89969e-05
2.90058e-05
2.4168e-05
9.68234e-05
0.000114754
0.000109199
9.8128e-05
3.21451e-05
2.62723e-05
9.72357e-05
9.47638e-05
0.000104542
0.000105198
2.16257e-05
2.92995e-05
0.000102684
9.73134e-05
0.000114652
9.95354e-05
2.45533e-05
3.27432e-05
9.97143e-05
0.00010955
9.59613e-05
9.88966e-05
2.69283e-05
2.17934e-05
0.000106688
0.000105312
9.78359e-05
0.00010343
2.93487e-05
2.39496e-05
9.94289e-05
0.000114948
0.000110052
0.000100255
3.26557e-05
2.73059e-05
9.91796e-05
9.6556e-05
0.000105664
0.000106202
2.23734e-05
3.0444e-05
0.00010529
9.92801e-05
0.00011507
0.000100861
2.52751e-05
3.40783e-05
0.000101694
0.000110421
9.85554e-05
0.000102215
2.79371e-05
2.27328e-05
0.000108624
0.000106878
0.000100981
0.000107522
3.08e-05
2.54257e-05
0.000102669
0.000116823
0.000112047
0.000103112
3.41674e-05
2.79886e-05
0.00010303
9.96241e-05
0.000108138
0.000111314
2.19202e-05
3.04165e-05
0.000108205
0.000101908
0.000117393
0.000102637
2.57437e-05
3.51738e-05
0.000103779
0.000112846
0.00010193
0.00010735
2.94412e-05
2.39572e-05
0.000111479
0.000110278
0.000105169
0.000113998
3.2475e-05
2.70657e-05
0.000107869
0.000121609
0.000117073
0.000109169
3.62925e-05
2.99286e-05
0.000111776
0.00010658
0.000114921
0.000116716
2.43316e-05
3.31408e-05
0.000118829
0.00010974
0.000127014
0.000113264
2.72901e-05
3.62039e-05
0.000112718
0.000122219
0.000110536
0.000119994
3.1427e-05
2.71742e-05
0.000119435
0.000124982
0.000120969
0.000119038
3.77091e-05
3.20228e-05
0.000118626
0.000112309
0.000121654
0.000122353
2.61892e-05
3.53844e-05
0.000125256
0.000116377
0.000132612
0.000117925
2.95632e-05
3.94039e-05
0.00011967
0.000127863
0.000117683
0.000127766
3.32504e-05
2.82971e-05
0.000127343
0.000132336
0.000128433
0.000124424
3.85668e-05
3.3375e-05