/*--------------------------------*- C++ -*----------------------------------*\
| =========                 |                                                 |
| \\      /  F ield         | OpenFOAM: The Open Source CFD Toolbox           |
|  \\    /   O peration     | Version:  v2006                                 |
|   \\  /    A nd           | Website:  www.openfoam.com                      |
|    \\/     M anipulation  |                                                 |
\*---------------------------------------------------------------------------*/
FoamFile
{
    version     2.0;
    format      ascii;
    class       volScalarField;
    location    "0.104";
    object      isentropic(p);
}
// * * * * * * * * * * * * * * * * * * * * * * * * * * * * * * * * * * * * * //

dimensions      [1 -1 -2 0 0 0 0];


internalField   nonuniform List<scalar> 
16277
(
150008
150014
150017
150003
150012
150010
150011
150012
150013
150013
150013
150012
150012
150011
150011
150011
150010
150010
150010
150010
150010
150010
150010
150009
150009
150009
150009
150009
150009
150009
150009
150009
150008
150008
150008
150008
150008
150008
150008
150008
150007
150007
150007
150007
150007
150007
150007
150007
150006
150006
150006
150006
150006
150006
150006
150006
150005
150005
150005
150005
150005
150005
150005
150005
150005
150004
150004
150004
150004
150004
150004
150004
150004
150004
150004
150003
150003
150003
150003
150002
150002
150001
150001
150000
150001
150003
150004
150005
150004
150006
150005
150007
150008
150011
150017
150015
149976
149936
150011
150022
150021
150002
149897
149860
149993
150018
150013
149981
149826
149796
149971
150008
150002
149959
149768
149744
149949
149997
149991
149938
149721
149703
149929
149986
149979
149919
149684
149669
149911
149975
149968
149901
149653
149640
149893
149964
149958
149884
149627
149616
149877
149953
149947
149868
149605
149595
149862
149943
149937
149854
149585
149577
149849
149934
149928
149841
149568
149561
149836
149925
149919
149828
149553
149547
149824
149916
149911
149817
149540
149534
149813
149908
149903
149807
149528
149523
149803
149901
149896
149797
149517
149513
149794
149893
149889
149787
149508
149504
149785
149887
149882
149779
149499
149496
149776
149880
149876
149771
149492
149489
149769
149874
149870
149763
149485
149483
149761
149868
149864
149756
149479
149477
149755
149863
149859
149750
149474
149473
149748
149857
149853
149744
149470
149469
149743
149852
149849
149738
149466
149465
149737
149847
149844
149733
149463
149463
149732
149843
149839
149728
149461
149461
149727
149839
149835
149724
149459
149459
149723
149835
149831
149720
149458
149458
149719
149831
149828
149716
149457
149458
149715
149827
149824
149712
149457
149458
149712
149824
149821
149709
149458
149459
149709
149820
149817
149706
149459
149460
149706
149817
149814
149704
149460
149462
149704
149814
149811
149702
149462
149464
149702
149811
149809
149700
149465
149467
149700
149809
149806
149698
149468
149470
149699
149806
149804
149697
149471
149474
149698
149804
149802
149696
149475
149478
149697
149802
149800
149695
149480
149483
149696
149801
149799
149695
149485
149488
149696
149799
149797
149695
149490
149493
149696
149798
149796
149696
149496
149499
149697
149797
149795
149696
149502
149506
149698
149796
149795
149698
149508
149512
149700
149796
149795
149699
149515
149519
149702
149796
149795
149702
149522
149526
149704
149796
149796
149704
149530
149534
149707
149797
149797
149708
149537
149542
149711
149799
149799
149711
149545
149549
149715
149801
149801
149716
149552
149557
149719
149804
149804
149721
149560
149564
149724
149807
149807
149726
149567
149571
149729
149810
149811
149731
149573
149578
149735
149814
149815
149737
149579
149584
149741
149819
149820
149742
149585
149588
149746
149823
149824
149748
149589
149591
149751
149828
149828
149753
149591
149593
149756
149832
149832
149757
149592
149594
149760
149835
149836
149760
149592
149593
149763
149839
149839
149763
149591
149591
149765
149842
149842
149765
149589
149588
149767
149844
149844
149767
149585
149584
149768
149846
149846
149767
149581
149580
149769
149848
149847
149767
149575
149574
149768
149849
149848
149767
149570
149568
149767
149850
149849
149765
149564
149562
149766
149850
149849
149764
149558
149556
149764
149850
149849
149762
149552
149550
149762
149850
149848
149760
149546
149544
149760
149849
149848
149757
149540
149539
149757
149849
149847
149755
149535
149533
149755
149848
149846
149752
149530
149528
149752
149846
149844
149749
149525
149524
149749
149845
149843
149747
149520
149519
149747
149843
149841
149744
149516
149515
149744
149841
149839
149741
149512
149511
149741
149839
149837
149738
149508
149507
149738
149837
149835
149735
149504
149504
149735
149835
149833
149732
149501
149501
149732
149833
149830
149730
149499
149498
149729
149830
149828
149727
149496
149495
149727
149828
149826
149724
149492
149492
149724
149826
149824
149722
149490
149489
149721
149824
149822
149719
149487
149487
149719
149822
149819
149716
149484
149484
149716
149820
149818
149714
149481
149481
149714
149819
149817
149712
149479
149479
149712
149817
149817
149712
149478
149479
149714
149819
149821
149716
149483
149495
149727
149832
149868
149776
149551
149516
149698
149792
149864
149922
149955
149966
149972
149984
149989
149994
149997
149999
149999
149998
149997
149993
149989
149979
149974
149967
149960
149946
149913
149842
149703
149543
149279
149257
149525
149689
149668
149508
149244
149236
149497
149655
149656
149492
149225
149228
149492
149652
149652
149491
149225
149225
149490
149653
149654
149492
149226
149227
149493
149655
149655
149493
149228
149229
149495
149657
149658
149495
149229
149230
149496
149659
149660
149498
149232
149232
149499
149661
149662
149500
149234
149234
149501
149663
149664
149502
149235
149236
149504
149665
149666
149505
149237
149238
149506
149667
149669
149507
149239
149240
149508
149670
149671
149510
149241
149242
149511
149672
149673
149512
149243
149244
149513
149674
149675
149514
149244
149246
149515
149676
149678
149517
149247
149248
149518
149679
149680
149519
149249
149250
149520
149681
149682
149521
149251
149252
149523
149683
149684
149524
149252
149253
149525
149686
149687
149526
149254
149256
149528
149688
149689
149529
149257
149258
149530
149691
149692
149531
149259
149260
149533
149693
149694
149534
149260
149262
149535
149695
149697
149536
149262
149263
149538
149698
149699
149539
149264
149266
149540
149700
149702
149542
149267
149267
149543
149703
149704
149544
149268
149269
149545
149706
149707
149547
149270
149271
149548
149709
149710
149549
149272
149273
149551
149711
149713
149552
149274
149274
149553
149714
149716
149555
149275
149275
149556
149717
149719
149557
149276
149277
149559
149720
149722
149560
149277
149278
149562
149724
149725
149563
149278
149278
149564
149727
149729
149566
149279
149279
149568
149731
149733
149569
149279
149279
149571
149735
149737
149572
149279
149279
149574
149740
149742
149576
149280
149279
149578
149744
149747
149580
149279
149279
149582
149749
149753
149585
149279
149279
149587
149756
149758
149590
149280
149280
149593
149762
149765
149596
149280
149282
149599
149768
149772
149603
149283
149284
149607
149776
149780
149612
149285
149287
149616
149785
149788
149622
149291
149294
149627
149793
149799
149633
149297
149302
149640
149803
149807
149647
149308
149316
149655
149812
149820
149667
149327
149337
149678
149827
149835
149691
149351
149367
149699
149842
149849
149713
149383
149399
149723
149856
149862
149733
149417
149435
149744
149869
149875
149756
149458
149478
149767
149881
149886
149777
149496
149516
149785
149890
149895
149794
149536
149564
149814
149905
149910
149830
149580
149333
149634
149800
149873
149731
149396
149412
149752
149891
149894
149763
149431
149455
149772
149898
149912
149787
149478
149503
149798
149923
149927
149818
149540
149571
149828
149924
149935
149844
149600
149623
149853
149939
149949
149872
149657
149689
149893
149954
149878
149763
149469
149580
149838
149941
149957
149854
149599
149637
149874
149954
149977
149890
149659
149687
149901
149976
149984
149914
149711
149743
149934
149996
149992
149943
149763
149585
149841
149934
149986
149902
149673
149699
149921
149998
150000
149937
149736
149755
149944
150012
150016
149963
149792
149825
149984
150024
149974
149872
149709
149757
149948
150024
150046
149974
149796
149842
149989
150029
150054
150008
149864
149889
150020
150054
150014
149928
149794
149858
150009
150058
150067
150022
149884
149919
150041
150077
150079
150057
149953
149888
149980
150055
150094
150059
149952
149973
150070
150099
150115
150095
150017
150036
150102
150112
150110
150081
149995
150073
150131
150140
150136
150134
150090
150063
150146
150150
150180
150179
150149
150180
150193
150179
150211
150215
150199
150276
150252
150218
150181
150222
150234
150278
150228
150187
150215
150261
150311
150293
150272
150233
150187
150213
150180
150035
150104
150103
150007
149953
149843
149888
149965
149976
149922
149867
149741
149799
149905
149931
149911
149860
149723
149706
149762
149858
149879
149847
149670
149628
149788
149851
149894
149849
149692
149656
149816
149878
149826
149754
149586
149660
149827
149873
149851
149803
149644
149559
149735
149812
149874
149817
149634
149596
149784
149866
149801
149722
149535
149630
149816
149873
149876
149779
149579
149518
149709
149796
149869
149816
149636
149585
149777
149867
149787
149706
149519
149632
149812
149862
149848
149785
149608
149507
149700
149793
149862
149807
149624
149594
149780
149852
149795
149703
149508
149630
149814
149869
149863
149785
149593
149562
149746
149811
149755
149642
149523
149580
149794
149864
149885
149752
149515
149435
149692
149781
149843
149794
149598
149566
149758
149811
149763
149658
149498
149573
149794
149867
149875
149750
149516
149440
149690
149776
149862
149790
149575
149532
149755
149869
149778
149691
149436
149599
149794
149843
149805
149764
149576
149489
149650
149758
149850
149793
149585
149562
149761
149828
149768
149650
149497
149595
149800
149850
149817
149758
149560
149513
149637
149754
149852
149804
149579
149506
149719
149804
149878
149824
149624
149591
149787
149861
149792
149704
149508
149621
149819
149879
149867
149787
149586
149506
149709
149807
149880
149823
149625
149596
149793
149865
149795
149704
149504
149611
149820
149888
149890
149775
149549
149497
149705
149805
149868
149830
149641
149613
149795
149834
149775
149665
149543
149598
149823
149873
149819
149735
149519
149624
149836
149894
149880
149805
149601
149514
149720
149813
149888
149836
149632
149595
149799
149860
149796
149680
149528
149604
149830
149882
149824
149739
149521
149647
149852
149905
149892
149820
149621
149522
149727
149820
149886
149847
149655
149641
149816
149832
149794
149690
149546
149602
149836
149888
149831
149743
149520
149653
149862
149915
149898
149823
149617
149522
149734
149825
149916
149842
149615
149553
149795
149933
149817
149734
149443
149604
149826
149897
149832
149743
149511
149648
149859
149906
149877
149821
149619
149526
149699
149814
149898
149846
149605
149525
149754
149842
149912
149856
149634
149596
149813
149890
149812
149732
149489
149610
149837
149903
149849
149761
149536
149647
149864
149920
149896
149819
149608
149490
149740
149818
149905
149839
149614
149522
149755
149846
149915
149860
149636
149595
149815
149887
149816
149695
149507
149616
149861
149907
149852
149764
149527
149631
149864
149923
149908
149819
149590
149445
149744
149816
149907
149823
149607
149498
149746
149836
149910
149850
149604
149516
149757
149849
149925
149872
149645
149606
149829
149908
149824
149725
149496
149601
149846
149909
149849
149758
149515
149609
149855
149920
149907
149808
149570
149424
149737
149812
149904
149814
149585
149469
149733
149828
149912
149855
149597
149513
149765
149857
149923
149864
149621
149573
149816
149897
149821
149687
149491
149564
149843
149900
149836
149738
149478
149591
149854
149915
149850
149755
149499
149609
149859
149920
149894
149807
149566
149450
149730
149814
149909
149836
149584
149471
149739
149839
149911
149850
149583
149495
149755
149849
149919
149859
149608
149560
149809
149894
149812
149683
149462
149553
149836
149897
149827
149724
149454
149574
149849
149912
149850
149752
149487
149602
149858
149919
149892
149806
149549
149464
149658
149806
149889
149851
149526
149431
149718
149823
149898
149837
149546
149448
149731
149831
149905
149843
149575
149519
149787
149875
149789
149632
149433
149517
149843
149884
149819
149710
149426
149539
149831
149897
149825
149720
149441
149547
149833
149898
149831
149732
149454
149571
149840
149903
149876
149785
149530
149369
149698
149780
149884
149787
149523
149389
149694
149803
149884
149812
149501
149413
149707
149815
149891
149823
149527
149432
149717
149822
149895
149831
149554
149494
149774
149866
149777
149620
149403
149475
149815
149865
149793
149678
149372
149489
149805
149876
149801
149691
149388
149506
149811
149880
149806
149696
149401
149536
149821
149887
149860
149767
149481
149385
149602
149768
149856
149814
149450
149348
149663
149782
149865
149796
149469
149351
149668
149784
149863
149792
149475
149370
149679
149791
149868
149800
149505
149452
149734
149836
149733
149650
149271
149447
149738
149848
149762
149643
149305
149442
149780
149853
149771
149651
149327
149442
149776
149852
149770
149653
149330
149448
149776
149851
149777
149664
149351
149473
149783
149855
149823
149722
149411
149319
149535
149723
149815
149784
149367
149261
149604
149736
149827
149750
149390
149275
149617
149743
149834
149758
149414
149294
149627
149751
149835
149758
149420
149312
149640
149759
149841
149768
149451
149377
149700
149807
149706
149538
149266
149363
149744
149805
149722
149591
149246
149371
149733
149814
149727
149598
149251
149374
149733
149815
149728
149602
149261
149395
149741
149819
149742
149620
149284
149415
149747
149822
149790
149684
149351
149237
149487
149682
149781
149740
149304
149191
149561
149700
149792
149710
149319
149182
149562
149699
149793
149712
149332
149197
149568
149701
149791
149709
149338
149228
149584
149711
149799
149719
149372
149304
149652
149766
149653
149464
149171
149278
149698
149762
149673
149531
149147
149281
149684
149770
149676
149536
149147
149299
149690
149774
149678
149541
149160
149302
149686
149772
149687
149553
149181
149331
149693
149775
149735
149620
149251
149140
149405
149622
149727
149693
149197
149079
149484
149637
149738
149647
149218
149083
149492
149640
149741
149650
149228
149091
149497
149643
149740
149648
149232
149107
149502
149646
149744
149654
149252
149127
149516
149657
149750
149664
149289
149219
149588
149717
149582
149435
149029
149200
149606
149714
149614
149461
149042
149195
149623
149718
149615
149464
149049
149199
149622
149717
149619
149470
149067
149209
149622
149717
149628
149485
149086
149242
149635
149725
149688
149558
149160
149004
149362
149560
149676
149597
149124
148973
149412
149574
149686
149591
149137
148978
149422
149582
149685
149589
149138
149000
149431
149585
149686
149590
149151
149016
149443
149592
149687
149593
149176
149093
149505
149649
149507
149352
148898
149074
149523
149646
149538
149368
148907
149076
149548
149654
149544
149377
148920
149095
149556
149657
149549
149385
148937
149102
149556
149657
149560
149403
148960
149139
149568
149665
149628
149483
149045
148857
149273
149480
149610
149518
149013
148837
149318
149498
149612
149503
148999
148838
149320
149497
149612
149502
149009
148858
149330
149502
149617
149510
149030
148872
149345
149512
149624
149522
149066
148976
149438
149591
149431
149223
148766
148951
149469
149576
149462
149275
148771
148961
149477
149588
149472
149291
148792
148989
149485
149589
149464
149285
148786
148973
149464
149576
149531
149375
148870
148689
149118
149379
149518
149427
148835
148659
149204
149402
149533
149415
148852
148667
149212
149408
149541
149423
148880
148697
149232
149422
149548
149437
148929
148820
149330
149509
149321
149136
148557
148801
149343
149493
149368
149165
148591
148802
149375
149500
149346
149143
148571
148785
149357
149484
149363
149163
148600
148821
149369
149495
149440
149263
148691
148512
148971
149273
149425
149324
148667
148457
149068
149290
149442
149312
148700
148493
149096
149312
149459
149327
148722
148512
149112
149324
149463
149341
148768
148639
149233
149422
149223
148952
148403
148566
149234
149376
149221
148985
148337
148601
149249
149390
149249
149023
148383
148620
149261
149403
149265
149042
148411
148662
149273
149409
149360
149150
148522
148268
148871
149156
149335
149197
148512
148286
148954
149196
149354
149213
148537
148311
148981
149213
149366
149236
148597
148474
149126
149324
149068
148741
148126
148365
149096
149250
149095
148834
148128
148407
149123
149284
149131
148876
148170
148442
149146
149300
149149
148903
148206
148486
149159
149311
149266
149036
148353
148041
148738
149019
149235
149057
148353
148077
148814
149078
149255
149099
148369
148116
148852
149103
149255
149129
148480
148203
148926
149166
148907
148607
147875
148195
148964
149141
148986
148711
147934
148225
149009
149181
149023
148753
147973
148282
149036
149202
149155
148901
148130
147787
148556
148879
149109
148923
148129
147841
148658
148956
149151
148983
148199
148042
148856
149119
148814
148480
147662
147969
148823
149018
148781
148454
147579
147905
148793
149004
148832
148523
147646
147999
148850
149043
148994
148699
147829
147460
148328
148701
148961
148762
147842
147512
148447
148784
149006
148818
147925
147728
148660
148961
148622
148243
147308
147734
148696
148902
148748
148406
147441
147778
148705
148905
148779
148440
147450
147014
148039
148445
148763
148523
147504
147150
148197
148570
148829
148608
147620
147399
148438
148780
148426
147984
146969
147391
148485
148730
148526
148135
147046
147520
148565
148784
148743
148388
147299
146811
147906
148347
148632
148438
147384
146785
147908
148333
148597
148330
147226
146985
148123
148505
148174
147741
146554
147079
148238
148538
148307
147879
146670
147202
148342
148598
148550
148158
146969
146449
147632
148131
148475
148213
147000
146615
147847
148280
148521
148330
147257
146992
148147
148497
147914
147381
146114
146725
147958
148276
148205
147767
146472
145978
147339
147846
148252
147919
146598
146117
147510
147997
148334
148052
146768
146517
147867
148297
147821
147273
145904
146618
147915
148201
148262
147832
146451
145633
147121
147688
147955
147535
146018
145682
147269
147824
147369
146746
145121
145919
147488
147879
147606
147024
145419
146205
147682
148018
147997
147494
145954
145283
146827
147460
147877
147563
146136
145990
147507
147969
147297
146663
145013
145409
147091
147564
147414
146809
145037
144478
146262
146977
147521
147102
145427
145140
146925
147516
147013
146272
144460
145456
147130
147520
147585
147010
145186
144509
146313
147013
147246
146788
145033
144280
146353
147027
146763
145981
143801
143104
145360
146282
146956
146472
144377
144037
146278
147003
146437
145577
143262
144626
146557
146979
147252
146742
144623
142993
145531
146468
145571
144490
141858
143349
145717
146348
146359
145573
142963
142495
145274
146232
145666
144399
141718
143565
145872
146338
146577
145882
143238
141291
144453
145608
144708
143398
140207
142280
145033
145698
145795
144961
141897
141460
144830
145847
145944
144778
141498
138426
142565
144048
144997
143779
140394
139980
143666
144946
144907
143535
139449
139386
143808
145148
144750
142931
137718
136449
141847
143960
142796
140698
135347
139392
143223
144451
144428
142963
138588
137355
142331
144095
143709
141892
136589
136186
141692
143492
143346
141249
135322
134895
141008
143244
143229
140857
134621
134342
140673
143207
143145
140452
134058
133804
140219
143057
142958
139988
133584
133399
139764
142852
142741
139547
133238
133102
139340
142626
142508
139142
132988
132894
138955
142388
142267
138779
132817
132757
138615
142145
142024
138461
132710
132676
138316
141901
141780
138183
132652
132638
138059
141658
141539
137946
132632
132633
137841
141420
141304
137744
132641
132654
137656
141189
141077
137575
132673
132696
137501
140966
140858
137435
132724
132755
137375
140752
140650
137321
132789
132825
137272
140551
140455
137230
132863
132903
137191
140362
140274
137157
132944
132986
137126
140188
140107
137099
133028
133071
137074
140028
139954
137053
133114
133157
137034
139882
139815
137018
133201
133243
137004
139750
139691
136992
133286
133328
136982
139633
139580
136974
133369
133409
136966
139530
139483
136960
133449
133487
136955
139438
139398
136951
133526
133562
136948
139358
139323
136946
133598
133633
136944
139289
139258
136944
133666
133698
136944
139228
139202
136944
133730
133759
136945
139176
139154
136947
133789
133816
136949
139132
139113
136952
133843
133867
136954
139094
139077
136958
133892
133915
136961
139061
139048
136966
133938
133959
136969
139034
139022
136974
133979
133998
136978
139011
139001
136983
134017
134035
136988
138991
138983
136993
134052
134068
136998
138975
138968
137003
134084
134098
137008
138961
138955
137013
134113
134126
137018
138949
138944
137023
134140
134152
137027
138939
138934
137032
134164
134175
137036
138930
138926
137041
134186
134196
137045
138922
138919
137050
134206
134216
137053
138916
138913
137058
134225
134233
137061
138910
138908
137066
134242
134250
137069
138905
138903
137073
134257
134264
137076
138901
138899
137080
134272
134278
137083
138897
138896
137087
134285
134291
137090
138894
138894
137094
134297
134302
137097
138892
138892
137101
134308
134313
137104
138890
138891
137107
134319
134323
137110
138889
138890
137114
134329
134333
137117
138889
138890
137120
134338
134342
137123
138888
138890
137127
134347
134351
137130
138889
138890
137133
134356
134360
137136
138889
138891
137140
134364
134368
137143
138890
138892
137146
134373
134377
137149
138892
138894
137153
134381
134385
137156
138893
138896
137160
134389
134393
137163
138895
138898
137166
134397
134401
137170
138898
138901
137173
134405
134409
137177
138901
138904
137180
134413
134417
137184
138904
138907
137188
134421
134425
137191
138907
138911
137195
134429
134433
137198
138911
138915
137202
134437
134441
137206
138915
138919
137210
134445
134449
137213
138920
138924
137218
134453
134457
137221
138925
138929
137225
134461
134464
137229
138930
138934
137233
134468
134472
137237
138935
138940
137241
134476
134480
137245
138941
138946
137249
134484
134487
137253
138947
138952
137257
134491
134495
137261
138953
138958
137266
134499
134503
137269
138960
138965
137274
134506
134510
137278
138966
138971
137282
134514
134517
137286
138973
138978
137291
134521
134525
137295
138980
138985
137299
134528
134532
137303
138987
138992
137307
134536
134539
137311
138995
139000
137316
134543
134546
137320
139002
139007
137324
134550
134553
137328
139009
139015
137333
134556
134560
137337
139017
139022
137341
134563
134566
137345
139025
139030
137349
134570
134573
137353
139032
139038
137358
134576
134579
137362
139040
139045
137366
134583
134586
137370
139048
139053
137374
134589
134592
137378
139056
139061
137382
134595
134598
137386
139063
139069
137391
134601
134604
137394
139071
139077
137399
134607
134610
137403
139079
139085
137407
134613
134615
137411
139087
139093
137415
134618
134621
137418
139095
139100
137423
134624
134626
137426
139103
139108
137431
134629
134631
137434
139111
139116
137438
134634
134636
137442
139119
139124
137446
134639
134641
137449
139126
139132
137453
134644
134646
137457
139134
139140
137461
134648
134650
137464
139142
139147
137468
134652
134654
137471
139149
139155
137475
134656
134658
137478
139157
139162
137482
134660
134662
137485
139164
139169
137489
134664
134665
137492
139171
139177
137495
134667
134668
137498
139179
139185
137503
134673
134675
137506
139189
139192
137511
134678
134680
137509
139189
139177
137498
134678
134670
137482
139159
139203
137503
134685
134760
137599
139355
139448
137673
134818
142056
144691
146369
146740
146890
147546
147883
148029
148174
148587
148855
149138
149349
149505
149620
149703
149763
149805
149836
149859
149877
149890
149901
149909
149916
149922
149926
149929
149931
149933
149934
149936
149936
149932
149934
149941
149946
149954
149962
149972
149983
149994
150005
150015
150021
150023
150022
150020
150017
150015
150013
150012
150010
150009
150007
150005
150003
150000
149998
149996
149994
149992
149991
149989
149988
149987
149986
149986
149986
149986
149987
149989
149991
149993
149997
150000
150005
150010
150015
150021
150027
150033
150040
150046
150052
150058
150063
150068
150072
150075
150078
150080
150081
150081
150081
150080
150079
150077
150074
150071
150068
150064
150061
150057
150053
150048
150044
150040
150036
150032
150028
150024
150020
150016
150013
150009
150006
150002
149999
149997
149994
149991
149989
149986
149984
149982
149980
149978
149977
149975
149974
149972
149971
149970
149969
149968
149967
149966
149965
149965
149964
149964
149963
149963
149963
149962
149962
149962
149962
149962
149962
149962
149962
149962
149962
149962
149962
149963
149963
149963
149963
149964
149964
149965
149965
149966
149966
149967
149967
149968
149968
149969
149969
149970
149971
149971
149972
149973
149973
149974
149975
149976
149976
149977
149978
149979
149980
149980
149981
149982
149983
149984
149985
149986
149987
149988
149989
149990
149991
149993
149994
149996
150000
150007
150013
150015
150015
150017
150004
150012
150012
150020
150026
150029
150029
150027
150026
150024
150022
150021
150020
150019
150018
150017
150016
150016
150015
150015
150014
150014
150013
150013
150012
150012
150012
150011
150011
150011
150011
150010
150010
150010
150010
150009
150009
150009
150009
150008
150008
150008
150008
150008
150007
150007
150007
150007
150006
150006
150006
150006
150006
150005
150005
150005
150005
150005
150004
150004
150004
150004
150003
150003
150003
150003
150002
150002
150002
150001
150001
150000
150000
149999
149999
149998
149997
149995
149994
149994
149995
149997
149999
150000
150004
150009
150019
150024
150024
150021
150019
150016
150013
150010
150008
150005
150003
150000
149998
149995
149993
149990
149988
149985
149983
149980
149979
149976
149975
149971
149970
149967
149966
149963
149963
149959
149959
149956
149955
149952
149952
149949
149949
149945
149945
149942
149942
149939
149939
149936
149936
149933
149934
149930
149931
149928
149928
149925
149926
149923
149923
149920
149921
149918
149918
149915
149916
149913
149913
149911
149911
149908
149909
149906
149907
149904
149905
149902
149903
149900
149901
149899
149899
149897
149898
149895
149896
149894
149895
149893
149894
149892
149893
149891
149893
149891
149893
149891
149893
149891
149894
149892
149895
149893
149896
149895
149898
149897
149900
149899
149902
149901
149905
149903
149907
149906
149910
149909
149912
149911
149915
149914
149917
149916
149920
149918
149921
149920
149923
149922
149925
149923
149926
149924
149927
149925
149927
149925
149927
149926
149927
149925
149927
149925
149927
149925
149926
149924
149926
149923
149925
149923
149924
149922
149923
149921
149922
149920
149921
149919
149920
149918
149919
149917
149918
149916
149917
149915
149916
149913
149914
149913
149913
149911
149913
149910
149911
149910
149914
149922
149932
149956
149955
149953
149966
149949
149952
149965
149948
149953
149966
149949
149953
149967
149951
149954
149968
149951
149955
149969
149952
149956
149970
149953
149956
149971
149954
149958
149971
149955
149959
149972
149956
149960
149973
149957
149960
149974
149958
149961
149975
149958
149962
149975
149959
149962
149976
149959
149963
149977
149960
149964
149977
149960
149964
149978
149961
149964
149978
149961
149965
149978
149961
149965
149978
149960
149964
149978
149960
149964
149978
149959
149963
149977
149958
149962
149976
149957
149961
149976
149956
149960
149974
149954
149958
149973
149952
149956
149972
149950
149954
149970
149948
149952
149968
149946
149951
149967
149945
149949
149966
149943
149947
149965
149941
149945
149964
149940
149944
149964
149939
149943
149962
149938
149942
149962
149938
149942
149963
149938
149943
149964
149938
149943
149964
149939
149944
149965
149939
149945
149966
149940
149946
149967
149941
149947
149969
149942
149948
149970
149944
149950
149971
149945
149951
149972
149946
149952
149974
149948
149954
149975
149949
149955
149976
149951
149957
149977
149952
149958
149979
149954
149960
149980
149955
149961
149981
149957
149963
149982
149958
149964
149983
149960
149965
149985
149961
149967
149986
149963
149968
149987
149965
149970
149988
149966
149972
149989
149968
149973
149990
149970
149975
149992
149971
149976
149993
149973
149978
149994
149975
149980
149995
149977
149981
149996
149979
149983
149998
149981
149985
149999
149983
149987
150000
149985
149989
150002
149987
149991
150003
149989
149993
150004
149991
149995
150006
149994
149997
150007
149996
150000
150008
149999
150002
150010
150002
150004
150011
150004
150007
150013
150007
150010
150014
150010
150013
150016
150013
150015
150017
150017
150018
150019
150020
150022
150020
150023
150013
150015
150015
150015
150015
150014
150014
150013
150013
150013
150012
150012
150011
150011
150011
150011
150010
150010
150010
150009
150009
150009
150008
150008
150008
150007
150007
150006
150006
150005
150005
150004
150004
150003
150002
150001
150001
150000
149999
149997
149996
149995
149994
149993
149992
149991
149991
149990
149992
149994
149996
149997
150000
150002
150005
150007
150009
150011
150012
150012
150012
150011
150011
150010
150008
150007
150006
150005
150004
150003
150002
150000
149999
149998
149997
149996
149995
149994
149993
149992
149991
149990
149989
149988
149988
149986
149969
149966
149966
149970
149985
149989
149989
149995
149995
149997
149997
149997
149998
149999
150000
150001
150002
150003
150004
150005
150006
150007
150008
150009
150010
150011
150015
150014
150013
150011
150010
150009
150008
150007
150006
150005
150004
150003
150002
150001
150001
150000
149999
149999
150000
149999
149999
149997
149998
150000
150000
150001
149994
149993
149993
149993
149993
149990
149990
149975
149977
149972
149972
149972
149973
149974
149976
149996