/*--------------------------------*- C++ -*----------------------------------*\
| =========                 |                                                 |
| \\      /  F ield         | OpenFOAM: The Open Source CFD Toolbox           |
|  \\    /   O peration     | Version:  v2006                                 |
|   \\  /    A nd           | Website:  www.openfoam.com                      |
|    \\/     M anipulation  |                                                 |
\*---------------------------------------------------------------------------*/
FoamFile
{
    version     2.0;
    format      ascii;
    class       volScalarField;
    location    "0.104";
    object      turbulenceProperties:I;
}
// * * * * * * * * * * * * * * * * * * * * * * * * * * * * * * * * * * * * * //

dimensions      [0 0 0 0 0 0 0];


internalField   nonuniform List<scalar> 
16277
(
0.149969
0.14997
0.149978
0.149982
0.149988
0.149987
0.149989
0.149994
0.150001
0.150009
0.150015
0.150018
0.150018
0.150017
0.150015
0.150013
0.150011
0.150009
0.150008
0.150007
0.150006
0.150005
0.150005
0.150004
0.150004
0.150003
0.150003
0.150003
0.150002
0.150002
0.150002
0.150002
0.150002
0.150002
0.150002
0.150002
0.150002
0.150002
0.150002
0.150002
0.150001
0.150001
0.150001
0.150001
0.150001
0.150001
0.150001
0.150001
0.150001
0.150001
0.150001
0.150001
0.150001
0.150001
0.150001
0.150001
0.150001
0.150001
0.150001
0.150001
0.150001
0.150001
0.150001
0.150001
0.150001
0.150001
0.150001
0.150001
0.15
0.15
0.15
0.15
0.15
0.15
0.149999
0.149999
0.149998
0.149997
0.149996
0.149995
0.149998
0.150005
0.150018
0.150031
0.150035
0.150024
0.150006
0.149987
0.149966
0.149968
0.149981
0.149977
0.149989
0.150008
0.149873
0.149304
0.14506
0.13908
0.145978
0.148746
0.14598
0.139197
0.133277
0.129405
0.135533
0.143822
0.139875
0.129548
0.125376
0.123121
0.127253
0.138208
0.13454
0.122608
0.120472
0.119191
0.121243
0.133289
0.130277
0.117866
0.11744
0.116713
0.117168
0.12941
0.126996
0.114913
0.115549
0.115164
0.114557
0.126377
0.124399
0.112922
0.11435
0.114173
0.11277
0.123969
0.122298
0.111519
0.113571
0.113516
0.111488
0.121994
0.120553
0.110494
0.113058
0.113089
0.110551
0.120351
0.119086
0.109736
0.112727
0.112809
0.10985
0.118957
0.11782
0.109151
0.112502
0.112616
0.109299
0.117745
0.116713
0.108685
0.112351
0.112489
0.10886
0.116682
0.115735
0.10831
0.112254
0.112407
0.108505
0.115741
0.114868
0.108006
0.112194
0.112358
0.108219
0.114904
0.114094
0.107762
0.112163
0.112336
0.107991
0.114157
0.113401
0.107571
0.112155
0.112337
0.107814
0.11349
0.112785
0.107427
0.112168
0.112356
0.107684
0.112899
0.112243
0.107327
0.112199
0.112394
0.1076
0.112381
0.111771
0.107272
0.112246
0.112448
0.10756
0.111934
0.111369
0.10726
0.11231
0.11252
0.107565
0.111556
0.111032
0.107292
0.11239
0.112608
0.107613
0.111242
0.110757
0.107364
0.112486
0.112712
0.107702
0.11099
0.110542
0.107476
0.112599
0.112833
0.10783
0.110797
0.110383
0.107626
0.112727
0.11297
0.107998
0.11066
0.11028
0.107814
0.112871
0.113124
0.108203
0.110579
0.11023
0.108038
0.113031
0.113293
0.108446
0.110552
0.110233
0.108299
0.113206
0.113479
0.108726
0.110578
0.110288
0.108596
0.113397
0.11368
0.109042
0.110657
0.110396
0.108929
0.113603
0.113898
0.109397
0.110789
0.110555
0.109299
0.113826
0.114133
0.10979
0.110973
0.110766
0.109707
0.114065
0.114384
0.110221
0.111211
0.111031
0.110154
0.114319
0.114651
0.110693
0.111502
0.111349
0.11064
0.11459
0.114935
0.111205
0.111849
0.111721
0.111167
0.114875
0.115233
0.111759
0.112249
0.112147
0.111735
0.115174
0.115546
0.112355
0.112704
0.112626
0.112343
0.115486
0.115871
0.11299
0.113211
0.113156
0.112989
0.115808
0.116203
0.113661
0.113768
0.113732
0.113668
0.116135
0.116539
0.114364
0.114369
0.11435
0.114376
0.116461
0.116872
0.115093
0.115009
0.115002
0.115105
0.11678
0.117194
0.115837
0.115677
0.115676
0.115845
0.117082
0.117492
0.116585
0.116361
0.116358
0.11658
0.117355
0.117755
0.117318
0.117044
0.117029
0.117291
0.117583
0.117963
0.118013
0.117701
0.117661
0.117951
0.117747
0.118097
0.118639
0.118303
0.118221
0.118528
0.117824
0.118132
0.11916
0.118814
0.118673
0.118984
0.117788
0.118038
0.119532
0.119191
0.118972
0.119276
0.117619
0.117758
0.119688
0.119393
0.119067
0.119301
0.117292
0.117289
0.119542
0.119349
0.118903
0.119016
0.116784
0.116626
0.119064
0.119023
0.118442
0.118398
0.116129
0.115785
0.118244
0.118387
0.117674
0.117448
0.115301
0.114826
0.11711
0.117455
0.116628
0.1162
0.114281
0.113752
0.115654
0.116221
0.115268
0.114595
0.113077
0.112521
0.113851
0.114676
0.113624
0.112689
0.111785
0.111302
0.111846
0.11293
0.111839
0.11067
0.110575
0.110161
0.109779
0.111082
0.109992
0.108639
0.109474
0.109134
0.107752
0.109212
0.108158
0.106689
0.108506
0.108247
0.105843
0.107385
0.106396
0.104875
0.107691
0.107513
0.10411
0.105656
0.10475
0.103217
0.107034
0.106929
0.102577
0.104079
0.10325
0.101771
0.106532
0.106492
0.101259
0.102661
0.101905
0.100547
0.106178
0.106194
0.10016
0.101421
0.100744
0.0995475
0.10596
0.10602
0.0992797
0.100363
0.0997675
0.0987655
0.105857
0.105954
0.0986083
0.0994847
0.0989696
0.0981816
0.105849
0.105975
0.0981061
0.0987699
0.0983281
0.0977583
0.105921
0.106063
0.097756
0.0981984
0.0978232
0.0974803
0.106051
0.1062
0.0975403
0.0977508
0.0974349
0.0973279
0.106222
0.10637
0.0974345
0.0974057
0.0971406
0.0972769
0.106417
0.106556
0.097416
0.0971407
0.0969171
0.0973031
0.10662
0.106746
0.0974616
0.0969336
0.0967414
0.097383
0.10682
0.106931
0.0975479
0.0967612
0.0965934
0.0974949
0.10701
0.107097
0.0976561
0.0966097
0.0964535
0.0976206
0.107181
0.107248
0.0977709
0.0964704
0.0963195
0.0977471
0.107335
0.107383
0.0978821
0.0963344
0.0961853
0.097866
0.107469
0.107506
0.0979841
0.0962006
0.0960427
0.097967
0.107582
0.107613
0.0980724
0.0960594
0.0958911
0.0980483
0.107667
0.107695
0.0981429
0.0959065
0.0957242
0.0981075
0.107736
0.107763
0.0981903
0.0957362
0.0955388
0.0981471
0.107797
0.10782
0.0982198
0.0955442
0.095332
0.0981631
0.107838
0.10786
0.0982273
0.0953364
0.0951155
0.0981629
0.107871
0.107886
0.098214
0.0951163
0.0948899
0.0981483
0.107895
0.107896
0.0981819
0.0948783
0.0946385
0.0980996
0.107887
0.1079
0.098137
0.0946305
0.0943839
0.0980445
0.107887
0.107884
0.0980657
0.0943615
0.0941069
0.0979638
0.107868
0.107867
0.0979843
0.0940823
0.0938149
0.0978732
0.107842
0.107834
0.097876
0.0937765
0.0934789
0.0977264
0.107793
0.107705
0.0976953
0.0934205
0.093137
0.0976338
0.107658
0.107429
0.0972606
0.0928917
0.0926583
0.0971433
0.106984
0.106276
0.0956002
0.0919221
0.0928427
0.0958775
0.104157
0.105107
0.0933886
0.0905868
0.0953215
0.100921
0.107143
0.11269
0.11635
0.120711
0.12352
0.125771
0.127337
0.128392
0.128919
0.12895
0.128437
0.127319
0.125555
0.122569
0.120264
0.115109
0.110275
0.10509
0.100393
0.0990984
0.10217
0.116019
0.131365
0.133584
0.117541
0.103017
0.104029
0.119153
0.135239
0.136251
0.120308
0.104699
0.10522
0.120945
0.137139
0.137352
0.121277
0.105512
0.10579
0.121504
0.137714
0.137769
0.121718
0.105917
0.10599
0.12178
0.137797
0.137807
0.12179
0.10609
0.106119
0.121806
0.137788
0.137769
0.121815
0.106206
0.106229
0.1218
0.137743
0.137709
0.121813
0.106329
0.106348
0.121799
0.13768
0.137642
0.12182
0.106444
0.106464
0.121801
0.137603
0.13759
0.121825
0.106557
0.106572
0.121784
0.13753
0.137499
0.121797
0.106661
0.106674
0.121776
0.137455
0.137416
0.12177
0.106774
0.106791
0.121768
0.137376
0.13733
0.121757
0.106894
0.106913
0.121775
0.137298
0.137261
0.121768
0.107018
0.107032
0.12176
0.137217
0.137169
0.121748
0.107135
0.107149
0.12174
0.137126
0.137077
0.121725
0.107257
0.107275
0.121731
0.137041
0.136992
0.121725
0.107387
0.107407
0.121738
0.136958
0.136915
0.121731
0.107522
0.10754
0.121737
0.136872
0.136822
0.12173
0.10766
0.107679
0.121727
0.13678
0.136738
0.121743
0.107799
0.107821
0.121722
0.136686
0.136646
0.121739
0.107946
0.107968
0.121735
0.136601
0.136563
0.121762
0.108092
0.108112
0.121741
0.136513
0.136482
0.121774
0.108237
0.108259
0.121768
0.136434
0.136395
0.121803
0.108386
0.108402
0.121781
0.136346
0.136314
0.121821
0.108535
0.108558
0.121818
0.136268
0.136233
0.12186
0.108685
0.108697
0.12184
0.13619
0.136164
0.121881
0.108823
0.10884
0.121877
0.136112
0.136088
0.121919
0.108951
0.108955
0.121891
0.136037
0.136013
0.121938
0.109067
0.109068
0.121934
0.135972
0.135946
0.12198
0.109169
0.109158
0.121952
0.1359
0.135875
0.121995
0.109247
0.109225
0.121984
0.135842
0.135816
0.122016
0.109292
0.109252
0.121966
0.13577
0.135747
0.121975
0.109287
0.10923
0.121934
0.135704
0.135671
0.121906
0.109243
0.10916
0.121854
0.135632
0.135599
0.121801
0.10913
0.109023
0.12173
0.135556
0.135509
0.121611
0.108929
0.108774
0.121477
0.135457
0.135388
0.121294
0.108615
0.108416
0.121081
0.135316
0.135238
0.120836
0.108204
0.107926
0.120515
0.13513
0.135023
0.120172
0.107661
0.107312
0.119788
0.134897
0.134744
0.119346
0.107008
0.106563
0.118813
0.134581
0.134384
0.118235
0.106197
0.105654
0.117537
0.134144
0.133888
0.11676
0.105194
0.104543
0.115872
0.133592
0.133246
0.114905
0.104038
0.103286
0.113803
0.132858
0.132439
0.112686
0.102704
0.101909
0.111397
0.131976
0.131495
0.110121
0.101296
0.100463
0.108599
0.130921
0.130355
0.107087
0.0997747
0.0989203
0.10535
0.129694
0.129006
0.103653
0.0982106
0.0973574
0.101642
0.128083
0.126816
0.0997788
0.096568
0.0957716
0.0980937
0.125374
0.124064
0.0961385
0.0951234
0.0945678
0.0943403
0.122891
0.121685
0.0932663
0.0945657
0.094285
0.0923595
0.120595
0.119611
0.0909591
0.0945915
0.0945984
0.0902206
0.118518
0.117279
0.0896186
0.0952587
0.0955857
0.0893172
0.116052
0.115146
0.0897431
0.0968806
0.0974713
0.0898049
0.114317
0.113467
0.0910408
0.0992129
0.100362
0.0925279
0.112431
0.112555
0.0958982
0.103341
0.104984
0.0985099
0.113778
0.133608
0.0907235
0.0855515
0.0975405
0.0950158
0.126469
0.125701
0.0917191
0.0967234
0.0976238
0.0906979
0.125282
0.124076
0.0893747
0.0970788
0.0983327
0.089138
0.122767
0.120956
0.0884806
0.0983132
0.100822
0.0893735
0.119003
0.117326
0.0894926
0.101181
0.104498
0.0920323
0.115967
0.114648
0.0931773
0.105716
0.111183
0.0981571
0.114354
0.1151
0.101602
0.113998
0.0883734
0.088761
0.128622
0.121619
0.094596
0.106444
0.107276
0.0938205
0.119447
0.117145
0.0966211
0.112914
0.114288
0.0972907
0.115931
0.114985
0.100693
0.118894
0.121025
0.102477
0.114524
0.116023
0.10825
0.12645
0.128374
0.112674
0.118286
0.127149
0.0940794
0.0971455
0.120361
0.101124
0.12128
0.119679
0.100854
0.122002
0.12823
0.105769
0.119314
0.118998
0.107474
0.129741
0.138124
0.115868
0.120247
0.123982
0.122326
0.141745
0.107375
0.0991772
0.129851
0.123194
0.111603
0.1373
0.141298
0.11433
0.121488
0.12262
0.125004
0.152844
0.157591
0.131491
0.125443
0.132041
0.142289
0.16392
0.125841
0.110424
0.13154
0.128108
0.12948
0.16168
0.166072
0.133314
0.128736
0.134618
0.15233
0.182324
0.189659
0.163246
0.141391
0.136637
0.126059
0.151946
0.195964
0.158006
0.137977
0.141167
0.166859
0.20624
0.229894
0.195585
0.153765
0.161833
0.208446
0.240889
0.209806
0.166468
0.151493
0.170589
0.228556
0.267364
0.28767
0.249762
0.184963
0.17281
0.206811
0.265705
0.345842
0.302828
0.212341
0.245458
0.353986
0.398722
0.438183
0.347653
0.237581
0.414298
0.610632
0.64861
0.91838
0.847664
0.510957
1
1
1
0.825082
0.797039
0.508907
0.275477
0.424559
0.471716
0.342306
0.308877
0.213211
0.211384
0.276974
0.289225
0.239433
0.199192
0.171722
0.177695
0.216364
0.232972
0.192669
0.164822
0.149193
0.149861
0.177884
0.198293
0.187216
0.16232
0.141239
0.13348
0.124689
0.14664
0.166013
0.148524
0.137054
0.129349
0.123803
0.138672
0.155708
0.136776
0.12757
0.122685
0.127828
0.148936
0.116702
0.105396
0.122167
0.120903
0.120209
0.139497
0.133856
0.11401
0.117509
0.120017
0.0975947
0.104903
0.128087
0.109882
0.116535
0.115053
0.105865
0.122408
0.0975176
0.0939896
0.119372
0.113789
0.102993
0.119344
0.113199
0.0996675
0.113223
0.118831
0.0907406
0.0915055
0.111518
0.0975047
0.110821
0.110631
0.0942026
0.10581
0.0864991
0.087063
0.117229
0.108757
0.0931269
0.105341
0.0999647
0.0900004
0.108864
0.115982
0.0841911
0.0826364
0.0998845
0.0890049
0.106245
0.107404
0.0862633
0.0951885
0.0797049
0.0818467
0.114948
0.104523
0.0867955
0.096574
0.0894106
0.0832548
0.105345
0.108784
0.0803335
0.0840063
0.0740976
0.0784971
0.119642
0.105099
0.0781836
0.0853462
0.0812728
0.0770597
0.108722
0.118879
0.0764524
0.0715458
0.0802992
0.075278
0.102546
0.106338
0.074867
0.0776463
0.0691046
0.0742524
0.117454
0.101586
0.0720744
0.0770328
0.0741002
0.0722985
0.105696
0.116553
0.0731625
0.0669007
0.0735085
0.0705477
0.100286
0.10491
0.0711129
0.0713892
0.0656512
0.0726017
0.116372
0.0992129
0.0682952
0.0704875
0.0690199
0.0687753
0.103181
0.115463
0.0707203
0.0636713
0.0689257
0.0667659
0.0988963
0.103483
0.0677759
0.0671256
0.0623486
0.0700086
0.11494
0.0983081
0.0646237
0.065693
0.0646724
0.06619
0.103539
0.116298
0.0693148
0.0608308
0.0635242
0.0645922
0.100275
0.109756
0.0671251
0.0593671
0.0655443
0.0631079
0.0933241
0.0971858
0.0634511
0.0633278
0.060091
0.068603
0.108295
0.0937491
0.0631286
0.0637491
0.0622561
0.0633303
0.0987489
0.109616
0.0686195
0.0594874
0.06311
0.0626774
0.0934417
0.0978817
0.0622008
0.06117
0.0589826
0.0693411
0.109187
0.094041
0.0614171
0.060386
0.0589896
0.0610713
0.0997365
0.111506
0.070216
0.0577438
0.0584263
0.0603656
0.0943631
0.0991261
0.0603113
0.0570285
0.0566447
0.0693804
0.111344
0.0960482
0.056984
0.0567021
0.055001
0.0654593
0.10642
0.0919028
0.0577318
0.0566907
0.0547227
0.0574466
0.0967659
0.107407
0.0680758
0.0548643
0.0551815
0.0572511
0.0920067
0.0972443
0.0567714
0.0526729
0.054014
0.0692713
0.109497
0.0938453
0.053685
0.0528544
0.0520548
0.0637406
0.104631
0.0893955
0.0548452
0.0530528
0.050974
0.0547317
0.0938057
0.104678
0.0666812
0.0521204
0.0524219
0.0549821
0.0902132
0.0954728
0.0549443
0.0505283
0.0525392
0.0684152
0.107806
0.092723
0.0516816
0.0503618
0.0502655
0.062857
0.103966
0.0887396
0.0530197
0.0509813
0.0486646
0.0531024
0.0934762
0.104342
0.0661573
0.0502888
0.0499097
0.0527543
0.0893437
0.0955671
0.0530808
0.047414
0.0504108
0.06862
0.108133
0.0920973
0.0504234
0.0474279
0.0479678
0.0614719
0.10336
0.0876236
0.0503779
0.0480492
0.0461944
0.0512838
0.093023
0.105164
0.0668106
0.0491292
0.0462777
0.0482838
0.0899489
0.101203
0.0607469
0.0469984
0.0469243
0.0492314
0.0858824
0.0917391
0.0499892
0.0450984
0.0485231
0.0669318
0.103491
0.089296
0.0488554
0.0456599
0.0464169
0.0603766
0.100324
0.0845222
0.0484191
0.0460985
0.0443702
0.0495587
0.0903016
0.102163
0.0665761
0.0478463
0.0449208
0.0478631
0.087743
0.0995062
0.0598306
0.0458042
0.0455295
0.0478374
0.0845519
0.0906815
0.0492405
0.0439093
0.0476338
0.0661125
0.103268
0.088489
0.0469164
0.0444963
0.0454647
0.0597033
0.0990086
0.0843398
0.0472805
0.0448661
0.0430667
0.0483637
0.0901464
0.102319
0.0660306
0.0470358
0.0438016
0.0465698
0.0880347
0.100204
0.0618849
0.0460139
0.0432952
0.0446012
0.0852878
0.0955707
0.0581806
0.0445529
0.0443065
0.0465385
0.0822009
0.0876318
0.0479065
0.0426173
0.046303
0.0647785
0.0991914
0.0853299
0.0459036
0.0430486
0.0443057
0.0587519
0.0966756
0.0826616
0.0460033
0.0435961
0.0419937
0.0476444
0.0887912
0.100895
0.0652784
0.0461851
0.042775
0.0457591
0.0873987
0.0995109
0.0611236
0.045277
0.0423127
0.0438189
0.0853045
0.0945363
0.0572288
0.0434867
0.0428304
0.0451778
0.0804665
0.0863046
0.0464224
0.0412521
0.045363
0.0641025
0.0983802
0.0850595
0.0443594
0.0418956
0.0443285
0.0591393
0.0966313
0.0828107
0.042668
0.0416098
0.0431428
0.0572037
0.0924828
0.0800106
0.044792
0.0424523
0.0411861
0.0467966
0.0860847
0.0972591
0.0640854
0.0453383
0.0418301
0.0447372
0.0839929
0.0957771
0.0593657
0.044248
0.0411906
0.0424905
0.0819698
0.0914
0.0563749
0.0426329
0.0418044
0.0440972
0.0784277
0.0841485
0.0457463
0.0404343
0.0446779
0.0632329
0.0958982
0.0832301
0.0438894
0.0412285
0.0438315
0.0586037
0.0946203
0.0818618
0.0423718
0.0409768
0.042629
0.0567371
0.091054
0.0781952
0.04396
0.0415199
0.0401652
0.0456473
0.0841297
0.0962145
0.0631917
0.0445941
0.0408584
0.0431555
0.083995
0.0952875
0.058048
0.0434783
0.0403699
0.0413044
0.0815823
0.0911423
0.056546
0.0422761
0.0408834
0.043442
0.0780703
0.0839641
0.0451241
0.0396055
0.044247
0.0632461
0.0958981
0.0834106
0.0431533
0.0405339
0.043199
0.058181
0.0943061
0.0801889
0.0409861
0.0398969
0.042438
0.0562579
0.0901273
0.0780738
0.040956
0.0394799
0.0414895
0.0553538
0.0873774
0.0754514
0.0424454
0.0400818
0.0390496
0.0446003
0.0810767
0.0924744
0.0618029
0.0436149
0.0401443
0.0433173
0.0811839
0.0933102
0.0580725
0.0431099
0.0395948
0.0413153
0.080738
0.0902881
0.0560848
0.0420919
0.0390962
0.0404404
0.0774514
0.0864982
0.0549677
0.0411463
0.0396238
0.0421652
0.0746797
0.0803841
0.0438183
0.0384265
0.0431176
0.061422
0.0919756
0.0803334
0.0419951
0.0393737
0.0421425
0.0565632
0.0914923
0.0785564
0.0399735
0.0389219
0.0415895
0.0550342
0.0881308
0.0763399
0.0401063
0.0386074
0.0408149
0.0547714
0.0853098
0.0741235
0.0418888
0.0391624
0.0381459
0.0436415
0.0795933
0.0908269
0.0611303
0.0430078
0.0390685
0.0418319
0.0796695
0.0907443
0.0561617
0.041935
0.0385104
0.0394954
0.0780072
0.0878505
0.0549281
0.0413103
0.0382096
0.039871
0.0761058
0.0851141
0.0543768
0.0404528
0.0384926
0.0412363
0.0734302
0.0788668
0.0432984
0.0375849
0.0426449
0.0598772
0.0899729
0.0786984
0.0418449
0.0386196
0.041974
0.0564362
0.0901823
0.0774454
0.039646
0.0382051
0.0409799
0.0545771
0.0867372
0.0752014
0.0391291
0.0376633
0.0403605
0.0533727
0.0846926
0.0737665
0.0390539
0.0374722
0.0398407
0.0531638
0.082488
0.0719421
0.040963
0.0379181
0.037085
0.0428593
0.0776136
0.0889728
0.0603444
0.0423263
0.0379824
0.0407957
0.0781485
0.0890842
0.0551613
0.0412603
0.0375051
0.0385975
0.076584
0.0860471
0.0539671
0.040596
0.0372312
0.0388828
0.0744749
0.083583
0.0532051
0.0399833
0.0369374
0.0387805
0.0729151
0.0813543
0.0525132
0.0391798
0.0372525
0.0401116
0.0704822
0.0758091
0.041808
0.0364008
0.0416265
0.0586751
0.086657
0.0754977
0.040264
0.037444
0.0408014
0.0545248
0.0860433
0.0740553
0.0383515
0.0370583
0.0400525
0.052805
0.0834937
0.0726544
0.0382836
0.0367936
0.0396757
0.0524925
0.0816638
0.0713564
0.0385856
0.0366751
0.0389527
0.051734
0.0796013
0.0694925
0.0397901
0.0369116
0.0361874
0.0417067
0.0748102
0.0855248
0.0584843
0.0414299
0.0369608
0.0398999
0.075565
0.0858687
0.0537191
0.0403037
0.0364495
0.0376534
0.074261
0.0835196
0.0522699
0.0397501
0.0362066
0.0376669
0.0725305
0.0813174
0.0518568
0.039215
0.0360011
0.037811
0.070867
0.078779
0.0513541
0.0384792
0.0362946
0.0391792
0.0683345
0.0736539
0.0410703
0.0355869
0.0408679
0.0575187
0.0841475
0.073906
0.0394712
0.0364289
0.0399094
0.0531112
0.0840404
0.0724493
0.0372161
0.0359619
0.0391563
0.0512993
0.0813901
0.0708187
0.0371133
0.0356958
0.0387786
0.0509314
0.0794167
0.0695161
0.0373938
0.0355224
0.0380897
0.0506186
0.0774772
0.0675245
0.0387441
0.0357386
0.0351467
0.0408101
0.0730961
0.0836706
0.0575193
0.0406737
0.0359115
0.0388453
0.0736983
0.0837002
0.0527281
0.0395518
0.0352687
0.0366544
0.0719819
0.0808322
0.0509188
0.0387996
0.0350086
0.0366189
0.0704663
0.0791102
0.0505655
0.0383433
0.0348802
0.036704
0.0691072
0.0773289
0.0500049
0.0380025
0.0347509
0.0366997
0.0675761
0.0753127
0.0495195
0.0372496
0.0349838
0.0378822
0.0653942
0.0706559
0.0397849
0.0343737
0.0396791
0.0552644
0.0805568
0.0704175
0.0384813
0.0352444
0.0389207
0.0515578
0.0801027
0.0692887
0.0364037
0.0347805
0.0380744
0.0498965
0.0775909
0.0675333
0.03614
0.0345359
0.0376426
0.0492512
0.0754826
0.0661441
0.0364074
0.0344629
0.0370895
0.0486826
0.0736851
0.0644124
0.0374806
0.0345908
0.0340627
0.0394522
0.0698479
0.0797023
0.0550069
0.0395215
0.0349154
0.0380535
0.0699087
0.0793683
0.0510664
0.0386466
0.0342882
0.0359982
0.0688999
0.0771302
0.049295
0.0377471
0.0339461
0.0355768
0.0672606
0.0751067
0.0487595
0.0372951
0.0337225
0.0357525
0.0656953
0.073255
0.0482396
0.0365272
0.0337887
0.0367736
0.0636213
0.0690027
0.038714
0.0332441
0.0388252
0.0540893
0.0784985
0.0684278
0.0376593
0.0341457
0.0380353
0.0503865
0.0777201
0.0673549
0.0355877
0.0336699
0.0371867
0.0487542
0.0752497
0.0655513
0.0351819
0.0333029
0.0365661
0.0478127
0.0732838
0.064133
0.035105
0.0331419
0.0359744
0.0473836
0.0717532
0.0625263
0.0362308
0.0332196
0.0327301
0.0382788
0.067872
0.077254
0.0535758
0.0383776
0.0336819
0.0370265
0.0676574
0.0766872
0.0497283
0.0375984
0.0331046
0.0350458
0.0664538
0.0744757
0.0481933
0.0367604
0.0328163
0.0347859
0.0648921
0.0728452
0.0475804
0.0363537
0.0326218
0.0348042
0.0635883
0.0713105
0.0471233
0.0356271
0.0326704
0.0357522
0.0620955
0.0673275
0.0376502
0.0321546
0.037813
0.0528035
0.0761824
0.0666666
0.0366175
0.0331502
0.0370281
0.049007
0.0751276
0.0649066
0.0345973
0.0326244
0.036151
0.0472172
0.0727211
0.0629923
0.0341697
0.0322607
0.0354847
0.0467361
0.0708845
0.0621706
0.0355967
0.0322475
0.0318822
0.0376847
0.0678237
0.0767574
0.0535371
0.0380926
0.0329727
0.0365952
0.0673268
0.0758791
0.0490489
0.0370181
0.0322353
0.0342689
0.0654698
0.073332
0.047264
0.0360336
0.0318407
0.0339013
0.0633067
0.0712105
0.0467998
0.0353037
0.0317344
0.0352294
0.0618319
0.0671203
0.0371836
0.0312502
0.037413
0.0522796
0.0757729
0.0657691
0.0360444
0.032247
0.0363506
0.0482517
0.0743803
0.0637288
0.0336133
0.0316393
0.0355756
0.0467838
0.0720748
0.0628648
0.0337144
0.0313971
0.0350107
0.046513
0.0707071
0.0614812
0.0348756
0.0312853
0.0309936
0.0370839
0.0671793
0.075642
0.0530815
0.0375486
0.0320984
0.0359866
0.0660508
0.0748757
0.0484053
0.0363761
0.0313606
0.0335155
0.0642116
0.0719608
0.0464359
0.0352747
0.030905
0.0331217
0.0621561
0.070175
0.0459501
0.0345006
0.0307491
0.0343724
0.06101
0.0663869
0.036213
0.0303091
0.0366738
0.0514642
0.0744285
0.0645197
0.0350492
0.0313939
0.0358051
0.0477766
0.0734927
0.0633386
0.0333289
0.0310015
0.0349754
0.0460686
0.0712816
0.0618464
0.0329509
0.030755
0.0344938
0.0458191
0.069824
0.0609017
0.0344288
0.0306818
0.0304035
0.0366107
0.0664412
0.0747646
0.0520039
0.0371258
0.0315629
0.0355655
0.0647219
0.0731399
0.0477498
0.0359212
0.0308175
0.0333259
0.0627363
0.0705369
0.0459566
0.0345593
0.0302899
0.0338758
0.0609089
0.0659813
0.0354113
0.0298724
0.0366968
0.0518553
0.0743644
0.0643678
0.0351892
0.0311466
0.035766
0.0477306
0.0731924
0.0630727
0.0331728
0.0306483
0.0347472
0.0459747
0.0709954
0.0613998
0.0326473
0.030329
0.0341231
0.0454866
0.0692392
0.060173
0.0339206
0.0301452
0.0299136
0.0360954
0.0654753
0.0737668
0.0514957
0.0367597
0.0310873
0.0354113
0.0636182
0.0720745
0.0473792
0.0356271
0.0305041
0.0330864
0.0619907
0.0697602
0.0456998
0.0343226
0.0299481
0.0335849
0.0596987
0.0648523
0.0354673
0.0296198
0.036566
0.0512111
0.0738122
0.0641249
0.0350963
0.0309315
0.0356376
0.0475841
0.0726222
0.0625403
0.0332751
0.0304832
0.0344826
0.0460419
0.0703518
0.0608887
0.0338827
0.0300615
0.0298522
0.036008
0.0660784
0.0742427
0.0518128
0.0368647
0.0309694
0.035498
0.0637724
0.0720598
0.0477811
0.0354967
0.0302175
0.0341169
0.0617494
0.0668275
0.0358351
0.029812
0.0367717
0.0514946
0.0748962
0.0635445
0.0346856
0.0307042
0.0357053
0.0476874
0.0723986
0.0626295
0.033288
0.0302043
0.0345889
0.0463466
0.0707608
0.0613225
0.0339095
0.0297858
0.0296279
0.0361739
0.0666834
0.0749261
0.0519817
0.0369723
0.0307462
0.0353087
0.0644871
0.0727679
0.0477407
0.0354132
0.0297682
0.0337894
0.062227
0.0672997
0.0354864
0.0294276
0.0367342
0.0517786
0.0754964
0.0644076
0.034777
0.030414
0.0351066
0.0473806
0.0724364
0.061355
0.0335768
0.0293639
0.0291583
0.0356807
0.0669254
0.0762087
0.0523888
0.0370527
0.0305229
0.0350937
0.0651867
0.0736008
0.0482533
0.0355758
0.0294942
0.0338204
0.0627187
0.0679731
0.0356781
0.0292428
0.0369576
0.0523616
0.0762047
0.065075
0.0349117
0.0302894
0.0353368
0.0478392
0.0733474
0.0624408
0.0335926
0.0292475
0.0289136
0.0353492
0.0675361
0.0757549
0.0518258
0.0365203
0.0298107
0.0336816
0.0630011
0.0715417
0.0472584
0.0349063
0.0287748
0.0333387
0.0616696
0.0673088
0.0352064
0.0286706
0.0365711
0.0518612
0.0760989
0.0648132
0.034582
0.0298601
0.034954
0.0475819
0.0729939
0.0622427
0.033291
0.0289058
0.0286764
0.0351626
0.0672913
0.0754663
0.0518952
0.0364771
0.0297124
0.0344522
0.0641219
0.072041
0.0471089
0.034612
0.0283956
0.0327199
0.0604233
0.0643645
0.0334283
0.0278843
0.0352179
0.0505115
0.0730241
0.0629231
0.0342529
0.0287879
0.0286445
0.0357575
0.0683862
0.0771536
0.0525423
0.0369299
0.0298382
0.0346544
0.0653937
0.0733016
0.0476743
0.0349988
0.0285209
0.0329082
0.0621226
0.0667213
0.034627
0.0282564
0.0357282
0.0512875
0.0745224
0.0631515
0.0346351
0.0288758
0.0282633
0.0347018
0.0672904
0.0754911
0.0513595
0.0358625
0.0285908
0.034295
0.0638063
0.069323
0.0354043
0.0283354
0.0369392
0.0529156
0.0783402
0.0659469
0.0344445
0.0295639
0.0349354
0.04783
0.0736738
0.0620258
0.0327173
0.0281937
0.027926
0.0343121
0.0664098
0.0738635
0.0509013
0.0353286
0.028353
0.0340924
0.0620984
0.0657923
0.0338522
0.0277059
0.0350721
0.0501254
0.0737033
0.0623268
0.0335001
0.0279589
0.0277771
0.0347106
0.0676544
0.0763392
0.0519471
0.0358127
0.0284677
0.0344948
0.0641957
0.0687021
0.0351337
0.0281407
0.0359369
0.0518339
0.0763808
0.0637451
0.034166
0.028317
0.0277818
0.034562
0.0677418
0.0747285
0.0505408
0.0351639
0.0275339
0.0330223
0.0617713
0.0661094
0.0359692
0.027667
0.0278564
0.0378624
0.0724091
0.0812532
0.0548221
0.0372764
0.0285294
0.0351763
0.0673305
0.0717097
0.0353342
0.0280165
0.0359465
0.0523025
0.079141
0.0644641
0.0334592
0.0275034
0.0268747
0.0343414
0.0664374
0.0707444
0.035978
0.0266671
0.03616
0.0538203
0.0802335
0.066863
0.0341063
0.027421
0.0275999
0.0366686
0.0710133
0.0764599
0.0380892
0.0276844
0.0370666
0.0557553
0.0829469
0.0658604
0.0339748
0.0273504
0.0267203
0.0348446
0.0683686
0.0733501
0.0363149
0.0264599
0.0359051
0.0542452
0.083114
0.0682476
0.0339092
0.0268021
0.0262606
0.033328
0.0717675
0.0767673
0.0394282
0.026905
0.0259405
0.0356097
0.0766931
0.0859844
0.0547303
0.0364386
0.0265245
0.0338164
0.069857
0.0748325
0.0347935
0.0262578
0.0263579
0.0385002
0.0793286
0.081556
0.0360605
0.025445
0.0259811
0.0405479
0.0847633
0.0888586
0.0400738
0.025246
0.0365758
0.0580267
0.0981667
0.0727838
0.033988
0.0258391
0.0253046
0.0339696
0.0750923
0.0799557
0.0378343
0.0253407
0.025286
0.0382893
0.0855432
0.0911024
0.039715
0.0255425
0.0260508
0.0424529
0.0959979
0.100982
0.0447889
0.0266146
0.0271885
0.0470384
0.104947
0.106937
0.0494101
0.027751
0.0282654
0.0514205
0.108055
0.108707
0.0536393
0.0288703
0.0294573
0.0558574
0.109074
0.109233
0.0584162
0.0302562
0.0309641
0.0609147
0.109305
0.109324
0.0633586
0.031968
0.0328145
0.0657473
0.109311
0.109287
0.0680986
0.0339694
0.0349555
0.0704013
0.109248
0.10922
0.0726409
0.0362463
0.0374757
0.0746828
0.1092
0.109205
0.0766531
0.038984
0.0403756
0.0784574
0.109221
0.109257
0.0802244
0.0419937
0.0433924
0.0819128
0.109306
0.109376
0.0835538
0.0450126
0.0464078
0.085103
0.109459
0.109562
0.0865986
0.0480162
0.0494015
0.0880003
0.109671
0.109797
0.0893496
0.0509985
0.0523848
0.0906033
0.109922
0.110058
0.0918026
0.05398
0.0553758
0.0928996
0.110188
0.110325
0.0939405
0.0569774
0.058371
0.0948789
0.110452
0.11058
0.0957597
0.0599605
0.0613019
0.096553
0.110697
0.110812
0.0972978
0.0628082
0.0640691
0.09796
0.110913
0.11101
0.0985802
0.0654822
0.0666528
0.099124
0.111091
0.111167
0.0996307
0.0679638
0.0690322
0.100069
0.111228
0.111281
0.100466
0.070233
0.0711936
0.100821
0.111319
0.111356
0.101145
0.0722836
0.0731354
0.101403
0.111376
0.111392
0.101663
0.0741111
0.0748561
0.101846
0.111397
0.111398
0.102041
0.0757201
0.0763629
0.102166
0.111391
0.111377
0.102303
0.07712
0.0776667
0.102377
0.111359
0.111333
0.102464
0.078324
0.0787846
0.102498
0.111307
0.111271
0.102543
0.0793484
0.0797295
0.102544
0.111237
0.111193
0.102553
0.080208
0.0805212
0.102529
0.111154
0.111103
0.102509
0.08092
0.0811769
0.102466
0.111061
0.111006
0.102423
0.0815055
0.0817186
0.102367
0.110961
0.110902
0.102306
0.0819826
0.082158
0.102237
0.110854
0.110795
0.102163
0.0823673
0.0825114
0.102088
0.110747
0.110688
0.102005
0.0826681
0.0827866
0.101921
0.110639
0.110582
0.101834
0.0829068
0.0829972
0.101745
0.110534
0.110477
0.101655
0.0830951
0.0831568
0.101562
0.110429
0.110374
0.101474
0.0832326
0.0832627
0.10138
0.110328
0.110275
0.101292
0.0833205
0.0833273
0.101198
0.11023
0.110179
0.10111
0.0833724
0.0833637
0.101018
0.110138
0.110088
0.10093
0.0833982
0.0833785
0.100841
0.110048
0.110001
0.100753
0.0834061
0.0833813
0.100668
0.109963
0.109917
0.100581
0.083401
0.083374
0.100501
0.109881
0.109837
0.100415
0.0833886
0.0833652
0.100341
0.109804
0.109762
0.100258
0.0833746
0.0833525
0.100189
0.10973
0.109691
0.100109
0.0833617
0.0833426
0.100047
0.109663
0.109625
0.0999723
0.0833513
0.0833346
0.0999152
0.109598
0.109562
0.0998451
0.0833441
0.0833322
0.0997941
0.109539
0.109506
0.0997302
0.0833435
0.0833354
0.0996848
0.109485
0.109454
0.0996262
0.0833483
0.0833452
0.0995863
0.109435
0.109406
0.0995336
0.0833605
0.0833617
0.0994992
0.10939
0.109363
0.0994513
0.0833793
0.0833856
0.0994223
0.109349
0.109324
0.0993796
0.0834057
0.0834163
0.0993554
0.109312
0.109289
0.0993173
0.0834385
0.0834537
0.0992974
0.109277
0.109258
0.0992638
0.0834789
0.0834966
0.0992474
0.109246
0.109229
0.0992173
0.0835232
0.0835457
0.099204
0.109218
0.109204
0.0991779
0.0835734
0.0835991
0.0991664
0.109192
0.10918
0.099144
0.0836273
0.0836561
0.0991337
0.109169
0.109158
0.0991152
0.0836848
0.0837155
0.0991056
0.109148
0.109137
0.0990903
0.0837443
0.0837769
0.0990815
0.109128
0.109117
0.0990692
0.0838058
0.0838393
0.0990608
0.10911
0.109099
0.0990515
0.0838677
0.0839025
0.099044
0.109094
0.109083
0.0990365
0.0839306
0.0839658
0.0990295
0.109079
0.109068
0.0990221
0.0839932
0.084029
0.0990173
0.109065
0.109055
0.0990103
0.0840558
0.0840915
0.0990071
0.109051
0.109042
0.099
0.0841175
0.0841533
0.0989984
0.109039
0.10903
0.0989915
0.0841786
0.0842138
0.098991
0.109028
0.109018
0.098984
0.084238
0.0842727
0.0989846
0.109017
0.109008
0.0989776
0.084296
0.0843297
0.098979
0.109006
0.108998
0.0989717
0.0843518
0.0843845
0.0989738
0.108996
0.108988
0.0989662
0.0844055
0.0844367
0.0989685
0.108987
0.108978
0.0989605
0.0844564
0.0844862
0.0989631
0.108977
0.108968