/*--------------------------------*- C++ -*----------------------------------*\
| =========                 |                                                 |
| \\      /  F ield         | OpenFOAM: The Open Source CFD Toolbox           |
|  \\    /   O peration     | Version:  v2006                                 |
|   \\  /    A nd           | Website:  www.openfoam.com                      |
|    \\/     M anipulation  |                                                 |
\*---------------------------------------------------------------------------*/
FoamFile
{
    version     2.0;
    format      ascii;
    class       volScalarField;
    location    "0.001";
    object      turbulenceProperties:L;
}
// * * * * * * * * * * * * * * * * * * * * * * * * * * * * * * * * * * * * * //

dimensions      [0 1 0 0 0 0 0];


internalField   nonuniform List<scalar> 
31566
(
0.0325422
0.0354931
0.191353
0.122415
0.0686593
0.0442231
0.0299623
0.0232496
0.0184873
0.0154848
0.0134799
0.0122743
0.0115781
0.0112336
0.0111524
0.0112997
0.0116486
0.012169
0.0128262
0.0135845
0.0143927
0.0151839
0.0159553
0.0167699
0.0176911
0.0186641
0.0195811
0.0206279
0.0218804
0.0233629
0.0249419
0.0264399
0.027871
0.0293849
0.0308431
0.0324161
0.0341226
0.0364019
0.0369791
0.0376926
0.0387144
0.0400398
0.0415331
0.0429734
0.0442525
0.0455097
0.0470417
0.0490416
0.051199
0.053887
0.0601621
0.0692519
0.0468916
0.0306684
0.0247848
0.0216206
0.0194225
0.0177135
0.0162662
0.0150272
0.0139908
0.0129602
0.0117511
0.0106459
0.0096478
0.00873656
0.00789532
0.00711693
0.00639759
0.00573575
0.00513405
0.00462158
0.0042333
0.00392396
0.00365828
0.00342446
0.00321797
0.0030354
0.00287411
0.00273292
0.00260976
0.00250185
0.00241074
0.00233661
0.00227897
0.00223365
0.0022014
0.00217656
0.00215425
0.00213087
0.0021097
0.00209548
0.00209189
0.00210276
0.00213142
0.00219566
0.00226502
0.00231957
0.00226243
0.00225713
0.00198269
0.00106832
0.000682661
0.000924487
0.001517
0.000973115
0.000755644
0.000643443
8.76851e-05
5.44531e-06
4.65297e-06
3.8811e-05
0.000148283
0.000141725
4.36582e-05
4.92232e-06
4.92613e-06
4.63704e-05
0.000148423
0.000155046
4.73017e-05
4.77912e-06
4.46142e-06
4.80692e-05
0.00016019
0.000159444
4.86864e-05
4.46082e-06
4.54771e-06
4.95863e-05
0.000156417
0.000154302
5.0915e-05
4.76239e-06
4.90815e-06
5.29209e-05
0.000155288
0.000156503
5.43989e-05
5.09161e-06
5.21031e-06
5.54628e-05
0.000158292
0.000159716
5.64448e-05
5.3195e-06
5.37722e-06
5.71225e-05
0.000161263
0.00016215
5.76805e-05
5.42395e-06
5.43062e-06
5.80418e-05
0.00016321
0.000163417
5.81967e-05
5.41992e-06
5.37883e-06
5.82155e-05
0.000163826
0.000163275
5.79551e-05
5.3118e-06
5.22192e-06
5.7632e-05
0.000162913
0.000161661
5.6988e-05
5.09886e-06
4.95257e-06
5.62838e-05
0.000160612
0.000158501
5.5221e-05
4.7702e-06
4.57815e-06
5.42996e-05
0.00015689
0.000154726
5.33089e-05
4.38909e-06
4.19153e-06
5.23703e-05
0.000153024
0.000150829
5.14169e-05
4.00983e-06
3.89651e-06
5.05744e-05
0.000149273
0.000147036
4.95753e-05
3.94263e-06
3.98252e-06
4.84997e-05
0.000145286
0.000142948
4.71445e-05
4.00074e-06
3.97742e-06
4.54132e-05
0.000140714
0.00013797
4.34007e-05
3.91296e-06
3.77172e-06
4.05559e-05
0.000134317
0.000128764
3.69877e-05
3.59134e-06
3.40363e-06
3.19477e-05
0.000119635
0.000105659
2.66303e-05
3.31059e-06
3.29845e-06
2.21542e-05
8.78279e-05
7.19395e-05
1.99546e-05
3.32918e-06
3.3838e-06
1.87583e-05
6.09611e-05
5.68879e-05
1.86707e-05
3.4317e-06
3.48438e-06
1.81839e-05
5.4202e-05
5.41251e-05
1.84847e-05
3.52076e-06
3.55897e-06
1.7996e-05
5.28505e-05
5.34431e-05
1.83817e-05
3.58224e-06
3.60544e-06
1.78637e-05
5.23558e-05
5.31089e-05
1.82817e-05
3.61547e-06
3.62388e-06
1.7738e-05
5.20191e-05
5.28377e-05
1.81753e-05
3.6205e-06
3.6148e-06
1.76096e-05
5.17255e-05
5.25947e-05
1.8068e-05
3.59806e-06
3.57883e-06
1.74725e-05
5.14507e-05
5.23779e-05
1.79647e-05
3.54945e-06
3.5177e-06
1.73368e-05
5.12059e-05
5.21885e-05
1.7866e-05
3.4759e-06
3.43234e-06
1.72078e-05
5.09898e-05
5.20352e-05
1.77763e-05
3.3819e-06
3.33668e-06
1.70914e-05
5.0798e-05
5.18962e-05
1.76846e-05
3.28926e-06
3.24802e-06
1.69779e-05
5.06264e-05
5.18031e-05
1.76128e-05
3.20534e-06
3.16945e-06
1.68819e-05
5.05006e-05
5.17441e-05
1.75421e-05
3.1335e-06
3.10472e-06
1.67963e-05
5.03865e-05
5.16952e-05
1.74686e-05
3.07639e-06
3.0561e-06
1.67051e-05
5.02795e-05
5.16461e-05
1.73996e-05
3.03631e-06
3.02502e-06
1.66049e-05
5.01561e-05
5.15959e-05
1.7335e-05
3.01449e-06
3.01245e-06
1.65148e-05
5.00391e-05
5.15497e-05
1.72656e-05
3.01147e-06
3.01877e-06
1.64359e-05
4.99348e-05
5.14778e-05
1.71802e-05
3.02778e-06
3.04468e-06
1.63469e-05
4.98172e-05
5.14101e-05
1.71071e-05
3.06317e-06
3.08917e-06
1.62659e-05
4.97154e-05
5.12887e-05
1.70053e-05
3.11675e-06
3.15074e-06
1.62077e-05
4.96313e-05
5.11069e-05
1.68835e-05
3.18527e-06
3.22582e-06
1.61335e-05
4.9513e-05
5.09214e-05
1.67543e-05
3.26532e-06
3.30867e-06
1.60699e-05
4.94664e-05
5.0776e-05
1.66141e-05
3.35068e-06
3.39523e-06
1.59783e-05
4.94321e-05
5.06961e-05
1.64939e-05
3.43711e-06
3.47952e-06
1.58881e-05
4.94546e-05
5.06447e-05
1.6346e-05
3.51921e-06
3.55767e-06
1.58006e-05
4.94978e-05
5.06272e-05
1.61973e-05
3.59218e-06
3.62563e-06
1.56701e-05
4.95377e-05
5.06038e-05
1.60136e-05
3.65275e-06
3.67926e-06
1.55178e-05
4.95914e-05
5.05532e-05
1.58024e-05
3.69816e-06
3.7146e-06
1.53334e-05
4.96385e-05
5.05004e-05
1.55716e-05
3.72417e-06
3.73141e-06
1.51292e-05
4.96744e-05
5.03914e-05
1.52928e-05
3.73036e-06
3.72723e-06
1.486e-05
4.9617e-05
5.02777e-05
1.49999e-05
3.71689e-06
3.70366e-06
1.4582e-05
4.95559e-05
5.01784e-05
1.46823e-05
3.68386e-06
3.66198e-06
1.42669e-05
4.94975e-05
5.00886e-05
1.43484e-05
3.63568e-06
3.60622e-06
1.39299e-05
4.94465e-05
5.00098e-05
1.39929e-05
3.5739e-06
3.54022e-06
1.35605e-05
4.93853e-05
4.99451e-05
1.36092e-05
3.50096e-06
3.46562e-06
1.31718e-05
4.93677e-05
4.98597e-05
1.3194e-05
3.41713e-06
3.38213e-06
1.27941e-05
4.9413e-05
4.96984e-05
1.27397e-05
3.32079e-06
3.28433e-06
1.24159e-05
4.95508e-05
4.92997e-05
1.22209e-05
3.22014e-06
3.1782e-06
1.20928e-05
4.99552e-05
4.94805e-05
1.18722e-05
3.14756e-06
3.17567e-06
1.18271e-05
5.01754e-05
4.93779e-05
1.16873e-05
3.26802e-06
3.39736e-06
1.18116e-05
5.00664e-05
4.93682e-05
1.17423e-05
3.52712e-06
3.67465e-06
1.19769e-05
5.02239e-05
4.95284e-05
1.19355e-05
3.81404e-06
3.95403e-06
1.20544e-05
5.03659e-05
4.99349e-05
1.19898e-05
4.08976e-06
4.22531e-06
1.20897e-05
5.11726e-05
5.08934e-05
1.20707e-05
4.35781e-06
4.48734e-06
1.21495e-05
5.1932e-05
5.12882e-05
1.21321e-05
4.61167e-06
4.73219e-06
1.21862e-05
5.18353e-05
5.07932e-05
1.21757e-05
4.8464e-06
4.95542e-06
1.22187e-05
5.10044e-05
4.97372e-05
1.22182e-05
5.05987e-06
5.15588e-06
1.22532e-05
4.97701e-05
4.85011e-05
1.22649e-05
5.24962e-06
5.33272e-06
1.23046e-05
4.85922e-05
4.75966e-05
1.23413e-05
5.41608e-06
5.48874e-06
1.23841e-05
4.78019e-05
4.70413e-05
1.24337e-05
5.56225e-06
5.62572e-06
1.24726e-05
4.72975e-05
4.66688e-05
1.25218e-05
5.68719e-06
5.74324e-06
1.25548e-05
4.69195e-05
4.63762e-05
1.26018e-05
5.79958e-06
5.84674e-06
1.2628e-05
4.66233e-05
4.61215e-05
1.26698e-05
5.89648e-06
5.93668e-06
1.26918e-05
4.64045e-05
4.59107e-05
1.27339e-05
5.98163e-06
6.01626e-06
1.27532e-05
4.62317e-05
4.5755e-05
1.28016e-05
6.05717e-06
6.08681e-06
1.28196e-05
4.6081e-05
4.5653e-05
1.28819e-05
6.12453e-06
6.15042e-06
1.29035e-05
4.60241e-05
4.56511e-05
1.29881e-05
6.18522e-06
6.2083e-06
1.30155e-05
4.60287e-05
4.57236e-05
1.31322e-05
6.2408e-06
6.26095e-06
1.31649e-05
4.6033e-05
4.58422e-05
1.33279e-05
6.29179e-06
6.30826e-06
1.33522e-05
4.59846e-05
4.60417e-05
1.35925e-05
6.33665e-06
6.3552e-06
1.36023e-05
4.60663e-05
4.62872e-05
1.3942e-05
6.37969e-06
6.39965e-06
1.39833e-05
4.63612e-05
4.66087e-05
1.43569e-05
6.42065e-06
6.44134e-06
1.44712e-05
4.68337e-05
4.69927e-05
1.48746e-05
6.45876e-06
6.47743e-06
1.50732e-05
4.7463e-05
4.75349e-05
1.55229e-05
6.49146e-06
6.50652e-06
1.583e-05
4.83209e-05
4.8358e-05
1.63141e-05
6.51699e-06
6.52602e-06
1.67286e-05
4.94578e-05
4.93691e-05
1.72131e-05
6.53185e-06
6.53328e-06
1.77166e-05
5.05345e-05
5.03259e-05
1.81841e-05
6.53246e-06
6.52541e-06
1.88087e-05
5.15162e-05
5.13317e-05
1.92627e-05
6.5161e-06
6.50078e-06
2.0055e-05
5.26829e-05
5.25726e-05
2.05061e-05
6.48207e-06
6.45835e-06
2.14391e-05
5.39913e-05
5.37471e-05
2.16429e-05
6.43227e-06
6.39475e-06
2.24548e-05
5.50952e-05
5.47389e-05
2.25001e-05
6.36179e-06
6.32566e-06
2.33758e-05
5.60453e-05
5.57434e-05
2.33391e-05
6.30259e-06
6.26885e-06
2.42798e-05
5.69778e-05
5.67032e-05
2.4155e-05
6.2377e-06
6.19074e-06
2.51136e-05
5.78322e-05
5.74731e-05
2.48929e-05
6.13917e-06
6.07132e-06
2.57991e-05
5.85002e-05
5.81196e-05
2.55091e-05
5.99479e-06
5.90389e-06
2.6372e-05
5.90994e-05
5.87066e-05
2.60117e-05
5.80011e-06
5.68334e-06
2.68549e-05
5.96403e-05
5.92308e-05
2.64129e-05
5.54954e-06
5.40593e-06
2.72621e-05
6.01144e-05
5.96786e-05
2.67599e-05
5.24084e-06
5.06877e-06
2.76324e-05
6.05305e-05
6.00408e-05
2.70645e-05
4.87512e-06
4.72911e-06
2.7932e-05
6.0867e-05
6.03949e-05
2.73929e-05
4.58984e-06
4.48419e-06
2.81284e-05
6.1041e-05
6.06412e-05
2.76727e-05
4.36686e-06
4.28285e-06
2.82819e-05
6.11767e-05
6.08327e-05
2.78843e-05
4.17703e-06
4.11056e-06
2.83895e-05
6.13256e-05
6.10368e-05
2.80461e-05
4.02026e-06
3.97719e-06
2.85287e-05
6.154e-05
6.13048e-05
2.82219e-05
3.9133e-06
3.90228e-06
2.86504e-05
6.17685e-05
6.16128e-05
2.84031e-05
3.88015e-06
3.91947e-06
2.87894e-05
6.20273e-05
6.1935e-05
2.86278e-05
3.95833e-06
4.06996e-06
2.89278e-05
6.22647e-05
6.21883e-05
2.88293e-05
4.19102e-06
4.39185e-06
2.90173e-05
6.24213e-05
6.2315e-05
2.8936e-05
4.61201e-06
4.89233e-06
2.90595e-05
6.24771e-05
6.23993e-05
2.90045e-05
5.13461e-06
5.38036e-06
2.90916e-05
6.25409e-05
6.25318e-05
2.90719e-05
5.59548e-06
5.8057e-06
2.90976e-05
6.25947e-05
6.27718e-05
2.9152e-05
5.99154e-06
6.17101e-06
2.91896e-05
6.27663e-05
6.2947e-05
2.92729e-05
6.3274e-06
6.47539e-06
2.92845e-05
6.28668e-05
6.30323e-05
2.93846e-05
6.60467e-06
6.72488e-06
2.9387e-05
6.29368e-05
6.30279e-05
2.94788e-05
6.83096e-06
6.92768e-06
2.94714e-05
6.29099e-05
6.29599e-05
2.956e-05
7.0127e-06
7.08836e-06
2.95426e-05
6.27654e-05
6.28098e-05
2.96224e-05
7.15421e-06
7.21152e-06
2.95943e-05
6.25551e-05
6.2651e-05
2.9675e-05
7.26024e-06
7.30059e-06
2.96373e-05
6.23531e-05
6.24146e-05
2.96919e-05
7.33472e-06
7.35906e-06
2.96344e-05
6.2129e-05
6.21684e-05
2.96814e-05
7.36593e-06
7.37376e-06
2.9395e-05
6.13236e-05
6.12957e-05
2.94423e-05
7.37459e-06
7.36024e-06
2.88789e-05
6.0633e-05
6.06468e-05
2.87658e-05
7.38436e-06
7.3527e-06
2.82715e-05
6.19481e-05
7.40947e-05
2.93529e-05
7.43961e-06
7.47646e-06
3.73377e-05
0.000147661
0.00064651
0.000136026
7.10006e-06
0.000870355
0.000910539
0.000912775
0.000913571
0.000913589
0.000913476
0.000913559
0.000913431
0.000913538
0.000913342
0.000913519
0.000913181
0.000913411
0.000912961
0.000913175
0.000912823
0.000913024
0.000912719
0.000912689
0.000912656
0.000912541
0.000912702
0.000912479
0.000912631
0.000912309
0.000912616
0.000912313
0.000912622
0.000912078
0.000912547
0.000911879
0.000912468
0.000910693
0.000911299
0.000903192
0.000903087
0.000911418
0.000912875
0.000913213
0.000913018
0.000913063
0.000912967
0.000912955
0.00091296
0.000912971
0.000912933
0.000912812
0.000912909
0.000912969
0.000912994
0.000912852
0.000896956
0.0008783
0.000831116
0.000719606
4.4932e-05
2.31362e-06
3.06965e-06
1.46141e-05
0.000175471
6.95925e-05
1.10693e-05
3.3808e-06
3.52166e-06
9.82183e-06
4.88834e-05
3.895e-05
9.18022e-06
3.65033e-06
3.69983e-06
8.77857e-06
3.00108e-05
2.51528e-05
8.64101e-06
3.74798e-06
3.78962e-06
8.72613e-06
2.32569e-05
2.27427e-05
9.10377e-06
3.83012e-06
3.87338e-06
9.28511e-06
2.25511e-05
2.23053e-05
9.29287e-06
3.89984e-06
3.91385e-06
9.23723e-06
2.20193e-05
2.18448e-05
9.13984e-06
3.91854e-06
3.9184e-06
9.11369e-06
2.18649e-05
2.20866e-05
9.13876e-06
3.91563e-06
3.91205e-06
9.21816e-06
2.23885e-05
2.27816e-05
9.40118e-06
3.91129e-06
3.91177e-06
9.57848e-06
2.31962e-05
2.36445e-05
9.75914e-06
3.91414e-06
3.91799e-06
9.88768e-06
2.40411e-05
2.44079e-05
1.00194e-05
3.92195e-06
3.92567e-06
1.01006e-05
2.47219e-05
2.50112e-05
1.01928e-05
3.92911e-06
3.93265e-06
1.02635e-05
2.52779e-05
2.55362e-05
1.03498e-05
3.93636e-06
3.9408e-06
1.04364e-05
2.58094e-05
2.60884e-05
1.05288e-05
3.9457e-06
3.95129e-06
1.06176e-05
2.63745e-05
2.66745e-05
1.07085e-05
3.95748e-06
3.96397e-06
1.07919e-05
2.69564e-05
2.72445e-05
1.08724e-05
3.9704e-06
3.97702e-06
1.09432e-05
2.75134e-05
2.77932e-05
1.1018e-05
3.98328e-06
3.98943e-06
1.10782e-05
2.80533e-05
2.83153e-05
1.11396e-05
3.9951e-06
4.00077e-06
1.11922e-05
2.85427e-05
2.87589e-05
1.12359e-05
4.00644e-06
4.0126e-06
1.12854e-05
2.89604e-05
2.91627e-05
1.1321e-05
4.01927e-06
4.02744e-06
1.13786e-05
2.93651e-05
2.95697e-05
1.14163e-05
4.03608e-06
4.04679e-06
1.14761e-05
2.9777e-05
3.0003e-05
1.15309e-05
4.05952e-06
4.07506e-06
1.16017e-05
3.02373e-05
3.05031e-05
1.16825e-05
4.09497e-06
4.11966e-06
1.17809e-05
3.07933e-05
3.1224e-05
1.19081e-05
4.15027e-06
4.1792e-06
1.20107e-05
3.16019e-05
3.19028e-05
1.21094e-05
4.2385e-06
4.301e-06
1.21255e-05
3.21347e-05
3.23295e-05
1.22177e-05
4.39274e-06
4.4858e-06
1.23728e-05
3.26022e-05
3.27197e-05
1.25442e-05
4.60108e-06
4.72879e-06
1.27835e-05
3.33252e-05
3.38413e-05
1.31883e-05
4.92814e-06
5.24611e-06
2.82165e-05
4.19115e-05
1.40011e-05
6.37383e-06
3.42721e-06
1.86043e-06
7.0974e-06
1.61648e-05
1.7313e-05
7.8632e-06
2.69514e-06
3.17085e-06
8.21732e-06
1.79365e-05
1.88202e-05
8.56806e-06
3.45653e-06
3.67583e-06
8.87651e-06
1.95593e-05
2.05877e-05
9.26538e-06
3.91947e-06
4.16897e-06
9.76678e-06
2.1778e-05
2.29099e-05
1.03166e-05
4.54106e-06
4.96605e-06
1.8067e-05
3.05732e-05
1.09942e-05
5.76665e-06
3.33564e-06
1.87915e-06
6.44494e-06
1.33073e-05
1.42524e-05
7.13736e-06
2.84249e-06
3.56636e-06
7.77769e-06
1.59317e-05
1.69537e-05
8.32382e-06
4.13013e-06
4.70323e-06
9.06268e-06
1.89431e-05
2.39475e-05
1.33704e-05
5.21275e-06
3.64741e-06
5.6728e-06
9.95331e-06
1.16444e-05
6.25151e-06
2.22461e-06
3.54885e-06
7.2223e-06
1.37359e-05
1.54309e-05
1.00301e-05
4.53433e-06
3.5064e-06
5.22921e-06
8.19852e-06
1.01415e-05
6.13877e-06
2.36257e-06
3.76184e-06
6.79522e-06
1.15644e-05
7.34913e-06
4.92242e-06
3.46287e-06
2.88842e-06
7.07792e-06
1.12497e-05
7.131e-06
5.04828e-06
3.3135e-06
2.22257e-06
3.67182e-06
5.32561e-06
5.92741e-06
4.21994e-06
2.0221e-06
3.2848e-06
5.54508e-06
8.63067e-06
8.80538e-06
4.9276e-06
2.99177e-06
9.61218e-07
2.6908e-06
6.9072e-06
8.04752e-06
4.4234e-06
1.61663e-06
2.77852e-06
1.00454e-05
1.26713e-05
1.02128e-05
5.6657e-06
1.60588e-06
2.90531e-06
5.28143e-06
8.68051e-06
1.33622e-05
1.12492e-05
3.88244e-06
2.27048e-06
6.55884e-06
1.10906e-05
9.14977e-06
5.78033e-06
3.44552e-06
4.35856e-06
1.13753e-05
1.42423e-05
1.16011e-05
6.94454e-06
2.60085e-06
3.83581e-06
6.13469e-06
9.49335e-06
1.49056e-05
1.15256e-05
4.70679e-06
2.81186e-06
7.1796e-06
1.195e-05
9.74308e-06
6.35843e-06
4.02747e-06
4.89859e-06
1.1596e-05
1.53567e-05
1.21302e-05
7.34833e-06
2.97926e-06
4.19507e-06
6.48019e-06
9.84317e-06
1.56634e-05
1.15513e-05
5.03867e-06
3.03065e-06
7.40832e-06
1.22546e-05
9.85005e-06
6.52836e-06
4.273e-06
5.13835e-06
1.14932e-05
1.57659e-05
1.22707e-05
7.41689e-06
3.08191e-06
4.22826e-06
6.4484e-06
9.74298e-06
1.56408e-05
1.12574e-05
5.04847e-06
3.03703e-06
7.26246e-06
1.20787e-05
9.47563e-06
6.17527e-06
4.14118e-06
4.84609e-06
1.02689e-05
1.58668e-05
1.15337e-05
6.5494e-06
2.793e-06
3.51282e-06
5.60987e-06
8.81861e-06
1.49154e-05
1.35372e-05
3.65515e-06
4.93661e-06
7.46291e-06
1.13437e-05
1.81113e-05
1.18674e-05
5.58939e-06
3.32755e-06
7.65142e-06
1.27904e-05
1.00216e-05
6.62759e-06
4.40503e-06
5.08535e-06
1.10738e-05
1.64625e-05
1.20469e-05
7.0878e-06
3.0144e-06
4.02049e-06
5.98436e-06
9.21897e-06
1.58745e-05
9.7434e-06
4.66146e-06
2.66838e-06
6.19062e-06
1.10592e-05
8.1921e-06
5.25369e-06
3.24819e-06
3.29118e-06
1.20337e-05
1.42036e-05
1.03024e-05
6.55151e-06
4.47556e-06
4.94631e-06
9.7029e-06
1.72952e-05
1.10276e-05
6.17048e-06
2.71744e-06
3.25005e-06
5.21966e-06
8.2473e-06
1.42515e-05
1.20173e-05
3.26276e-06
4.39325e-06
6.57202e-06
1.01853e-05
1.68134e-05
1.01457e-05
4.81843e-06
2.7242e-06
6.4411e-06
1.11185e-05
8.39523e-06
5.28892e-06
3.57347e-06
4.05648e-06
8.31741e-06
1.46085e-05
9.61821e-06
5.28211e-06
2.22951e-06
2.68972e-06
4.31811e-06
6.9676e-06
1.29851e-05
9.15855e-06
2.64893e-06
3.19712e-06
5.18642e-06
8.27205e-06
1.44679e-05
1.06139e-05
3.09278e-06
3.97428e-06
5.83509e-06
9.32028e-06
1.64228e-05
8.79945e-06
4.18346e-06
2.24554e-06
5.34259e-06
9.9672e-06
7.11665e-06
4.3546e-06
2.66109e-06
2.67345e-06
9.52972e-06
1.29339e-05
8.39229e-06
5.21447e-06
3.51929e-06
3.67461e-06
7.85363e-06
1.49018e-05
8.96448e-06
4.73635e-06
1.91745e-06
2.28791e-06
3.74232e-06
6.28804e-06
1.21212e-05
7.96058e-06
2.26083e-06
2.68645e-06
4.32768e-06
7.26681e-06
1.36592e-05
8.69006e-06
2.53842e-06
3.19427e-06
4.81038e-06
8.0919e-06
1.51839e-05
7.75062e-06
3.28701e-06
1.70291e-06
4.33354e-06
8.47225e-06
5.7374e-06
3.2957e-06
2.01886e-06
1.96673e-06
7.27794e-06
1.17603e-05
6.72501e-06
3.79542e-06
2.31221e-06
2.2104e-06
8.27478e-06
1.36347e-05
7.66296e-06
4.26089e-06
2.78056e-06
2.825e-06
7.49462e-06
1.53735e-05
7.88269e-06
3.78714e-06
1.4235e-06
1.65238e-06
2.73926e-06
5.03402e-06
1.12089e-05
6.57428e-06
1.63267e-06
1.90018e-06
3.26943e-06
6.16609e-06
1.38834e-05
8.20889e-06
1.85172e-06
2.26644e-06
3.72676e-06
7.38162e-06
1.71046e-05
8.91138e-06
2.2911e-06
1.10002e-06
3.15457e-06
7.63869e-06
4.4459e-06
2.21982e-06
1.28865e-06
1.30854e-06
6.81128e-06
1.07876e-05
5.24628e-06
2.44292e-06
1.44471e-06
1.41685e-06
8.09995e-06
1.35477e-05
6.00421e-06
2.44204e-06
1.49473e-06
1.47787e-06
9.50223e-06
1.7377e-05
7.70976e-06
2.88687e-06
1.72028e-06
1.80809e-06
1.49807e-05
2.41746e-05
8.75105e-06
2.50648e-06
7.97576e-07
9.19945e-07
1.65125e-06
4.42624e-06
1.47045e-05
7.33403e-06
9.6643e-07
1.03163e-06
1.79286e-06
5.44527e-06
1.86607e-05
8.615e-06
1.01949e-06
1.01843e-06
1.83301e-06
6.11806e-06
2.30508e-05
1.01815e-05
1.01855e-06
1.03531e-06
1.89878e-06
6.95224e-06
3.11062e-05
1.1313e-05
1.04254e-06
1.15108e-06
1.98818e-06
8.64895e-06
4.86967e-05
1.35212e-05
1.27778e-06
5.53365e-07
1.89354e-06
9.8068e-06
3.68693e-06
1.05172e-06
6.54116e-07
6.50429e-07
4.13326e-06
2.87099e-05
4.18553e-06
1.08806e-06
6.90429e-07
6.66405e-07
3.8648e-06
2.68522e-05
5.95348e-06
1.18343e-06
6.78305e-07
6.49475e-07
3.44816e-06
2.03742e-05
8.65061e-06
1.35995e-06
6.6241e-07
6.25189e-07
3.23112e-06
1.77918e-05
1.21313e-05
1.75012e-06
6.57966e-07
7.68047e-07
3.54068e-06
2.31436e-05
6.97583e-06
1.1968e-06
3.66467e-07
3.94552e-07
9.09481e-07
6.35107e-06
7.09601e-06
1.44747e-06
3.86327e-07
3.84088e-07
1.19579e-06
8.68608e-06
6.74549e-06
1.52452e-06
3.83512e-07
3.49897e-07
1.56081e-06
1.07048e-05
6.25397e-06
1.61164e-06
3.59225e-07
3.22848e-07
2.12991e-06
1.25839e-05
6.04835e-06
1.82275e-06
3.4805e-07
3.45059e-07
2.94221e-06
1.41336e-05
1.24906e-05
3.36915e-06
4.85172e-07
1.78191e-07
1.11888e-06
3.9074e-06
9.64608e-06
1.8016e-06
1.53813e-07
1.8312e-07
1.3006e-06
3.83371e-06
9.32604e-06
2.52938e-06
1.69382e-07
1.92002e-07
1.53076e-06
3.8238e-06
9.26395e-06
3.02587e-06
2.8272e-07
2.41817e-07
1.73275e-06
3.928e-06
9.16278e-06
3.46532e-06
4.36011e-07
4.26217e-07
1.98192e-06
4.31933e-06
1.00758e-05
3.78476e-06
6.65498e-07
9.22157e-07
3.93546e-06
8.94892e-06
3.6048e-06
1.37429e-06
2.23411e-07
3.85031e-07
3.02693e-06
8.17441e-06
3.42046e-06
1.50799e-06
3.62392e-07
5.65531e-07
3.42115e-06
7.15333e-06
3.70154e-06
1.71506e-06
5.48638e-07
7.2712e-07
3.95539e-06
7.32789e-06
3.9855e-06
1.91946e-06
7.30363e-07
8.73268e-07
4.20031e-06
7.59996e-06
4.4644e-06
2.35809e-06
9.58984e-07
1.18544e-06
4.20627e-06
9.02992e-06
8.08848e-06
4.98164e-06
1.6211e-06
6.04628e-07
1.69444e-06
3.66097e-06
7.10778e-06
4.05916e-06
7.48661e-07
7.90809e-07
1.87301e-06
3.74889e-06
6.82986e-06
4.45292e-06
9.5538e-07
9.9984e-07
2.12355e-06
4.04477e-06
7.15845e-06
4.97384e-06
1.14399e-06
1.21609e-06
2.38677e-06
4.29621e-06
7.54e-06
5.05413e-06
1.30637e-06
1.50654e-06
2.88908e-06
4.78435e-06
8.8309e-06
4.61588e-06
1.69822e-06
2.30551e-06
5.77757e-06
8.08839e-06
4.27095e-06
2.19096e-06
9.92009e-07
1.13059e-06
4.97514e-06
6.88372e-06
4.24736e-06
2.32202e-06
1.22396e-06
1.35345e-06
5.10439e-06
7.13477e-06
4.52158e-06
2.65326e-06
1.52512e-06
1.59578e-06
5.21375e-06
7.35999e-06
4.9528e-06
3.1648e-06
1.8577e-06
1.9913e-06
4.63942e-06
8.42094e-06
7.8813e-06
6.0105e-06
2.66547e-06
1.23958e-06
2.52755e-06
4.52639e-06
6.82978e-06
5.31129e-06
1.37585e-06
1.56849e-06
2.68862e-06
4.51116e-06
6.89578e-06
5.26952e-06
1.64935e-06
1.88115e-06
3.09143e-06
4.77541e-06
7.36856e-06
5.17734e-06
1.88939e-06
2.21342e-06
3.51217e-06
5.2644e-06
8.28731e-06
5.03651e-06
2.39518e-06
3.16659e-06
6.18075e-06
7.86635e-06
4.90185e-06
2.96812e-06
1.55027e-06
1.64788e-06
5.74689e-06
7.07366e-06
4.93512e-06
3.14004e-06
1.92036e-06
1.98717e-06
5.45425e-06
7.19675e-06
5.29314e-06
3.61671e-06
2.38494e-06
2.5719e-06
5.16708e-06
8.06455e-06
7.71925e-06
6.09416e-06
3.35458e-06
1.69482e-06
3.15189e-06
5.00413e-06
7.03955e-06
5.91788e-06
1.79204e-06
2.13206e-06
3.39769e-06
5.09772e-06
7.34313e-06
5.52491e-06
2.19146e-06
2.63105e-06
3.86958e-06
5.55065e-06
8.11078e-06
5.48272e-06
2.83398e-06
3.6493e-06
6.00096e-06
7.79485e-06
5.259e-06
3.46645e-06
1.92425e-06
2.01216e-06
6.3999e-06
7.17667e-06
5.3841e-06
3.71222e-06
2.35075e-06
2.40177e-06
5.83752e-06
7.70846e-06
5.92372e-06
4.16768e-06
2.8949e-06
3.17742e-06
5.97084e-06
8.40571e-06
8.06969e-06
5.99442e-06
4.05601e-06
2.18578e-06
3.8461e-06
5.57585e-06
7.4433e-06
7.08728e-06
2.32131e-06
2.81506e-06
4.12418e-06
5.82242e-06
8.33369e-06
6.21341e-06
3.17814e-06
4.0747e-06
6.09934e-06
8.07892e-06
5.59893e-06
3.86517e-06
2.24614e-06
2.41855e-06
7.00641e-06
7.51171e-06
5.9312e-06
4.24016e-06
2.96452e-06
3.33741e-06
6.29422e-06
8.36731e-06
8.12216e-06
6.22464e-06
4.29271e-06
2.32335e-06
3.98162e-06
5.74667e-06
7.55988e-06
7.05017e-06
2.49114e-06
3.11333e-06
4.41725e-06
6.04646e-06
8.47443e-06
6.38943e-06
3.53019e-06
4.56661e-06
6.42256e-06
8.2637e-06
6.04802e-06
4.29766e-06
2.52753e-06
2.7291e-06
7.63568e-06
7.813e-06
6.43925e-06
4.84909e-06
3.38207e-06
3.84332e-06
6.66683e-06
8.95688e-06
8.79531e-06
6.78531e-06
5.06124e-06
3.00469e-06
4.96927e-06
6.68444e-06
9.12047e-06
7.21978e-06
3.55751e-06
4.77147e-06
7.07717e-06
9.027e-06
6.70697e-06
4.84178e-06
2.91102e-06
3.55046e-06
7.12291e-06
9.23651e-06
9.16167e-06
7.00415e-06
4.79681e-06
2.94494e-06
4.85986e-06
6.74306e-06
9.2848e-06
7.19332e-06
3.5077e-06
4.69524e-06
7.02756e-06
9.24463e-06
6.66075e-06
4.76065e-06
2.93502e-06
3.58646e-06
7.09254e-06
9.23222e-06
9.1811e-06
6.98088e-06
4.89864e-06
3.0721e-06
4.98336e-06
6.82851e-06
9.40602e-06
7.34741e-06
3.66205e-06
4.98585e-06
7.22753e-06
9.40141e-06
7.02751e-06
5.15394e-06
3.25918e-06
4.02856e-06
7.61173e-06
9.67445e-06
9.68976e-06
7.51097e-06
5.43759e-06
3.53917e-06
5.57628e-06
7.44797e-06
1.02507e-05
8.14841e-06
4.58706e-06
6.69666e-06
8.81321e-06
1.04018e-05
1.02282e-05
8.31581e-06
5.1611e-06
3.52317e-06
5.61816e-06
7.83163e-06
1.08478e-05
8.49718e-06
4.90195e-06
7.45816e-06
8.80243e-06
1.10759e-05
1.10913e-05
9.26362e-06
6.71612e-06
6.12593e-06
8.81254e-06
1.116e-05
1.13973e-05
8.87649e-06
5.5371e-06
5.01084e-06
7.84225e-06
1.08445e-05
1.08245e-05
8.76522e-06
4.22193e-06
3.09756e-06
4.97762e-06
7.71856e-06
1.112e-05
8.27447e-06
4.60494e-06
7.31989e-06
8.64134e-06
1.11694e-05
1.13201e-05
9.14521e-06
7.19928e-06
7.04899e-06
9.45588e-06
1.15343e-05
1.18692e-05
9.76146e-06
6.91069e-06
6.7309e-06
1.00447e-05
1.22472e-05
1.26239e-05
1.033e-05
6.52237e-06
6.32846e-06
1.05021e-05
1.30406e-05
1.34099e-05
1.0575e-05
6.11451e-06
5.91458e-06
1.05687e-05
1.38437e-05
1.4217e-05
1.05533e-05
5.71809e-06
5.53759e-06
1.05488e-05
1.44963e-05
1.47928e-05
1.05363e-05
5.37317e-06
5.22628e-06
1.04972e-05
1.51106e-05
1.55575e-05
1.04623e-05
5.0993e-06
4.99318e-06
1.04904e-05
1.60768e-05
1.66349e-05
1.05532e-05
4.90837e-06
4.84566e-06
1.06773e-05
1.72657e-05
1.80377e-05
1.08528e-05
4.80452e-06
4.78368e-06
1.11469e-05
1.88304e-05
1.9596e-05
1.14598e-05
4.78183e-06
4.79024e-06
1.17761e-05
2.03118e-05
2.09484e-05
1.21208e-05
4.81541e-06
4.85629e-06
1.25216e-05
2.15449e-05
2.21403e-05
1.29397e-05
4.90577e-06
4.96186e-06
1.33649e-05
2.2745e-05
2.3378e-05
1.37901e-05
5.02248e-06
5.08646e-06
1.42168e-05
2.40713e-05
2.48215e-05
1.46192e-05
5.15217e-06
5.21999e-06
1.50215e-05
2.56141e-05
2.64336e-05
1.54197e-05
5.28852e-06
5.35851e-06
1.58044e-05
2.72479e-05
2.80163e-05
1.61662e-05
5.42802e-06
5.49743e-06
1.65019e-05
2.87378e-05
2.94138e-05
1.68003e-05
5.56483e-06
5.63134e-06
1.70534e-05
3.00431e-05
3.06458e-05
1.7289e-05
5.69525e-06
5.75781e-06
1.74836e-05
3.12301e-05
3.17769e-05
1.76599e-05
5.81835e-06
5.87776e-06
1.7802e-05
3.23066e-05
3.27994e-05
1.79304e-05
5.93558e-06
5.99301e-06
1.80386e-05
3.3257e-05
3.36769e-05
1.8133e-05
6.04885e-06
6.10437e-06
1.82049e-05
3.40729e-05
3.44358e-05
1.82791e-05
6.15853e-06
6.21249e-06
1.83317e-05
3.47717e-05
3.50835e-05
1.83949e-05
6.26556e-06
6.31853e-06
1.84529e-05
3.53779e-05
3.56586e-05
1.84931e-05
6.37072e-06
6.42266e-06
1.85541e-05
3.59262e-05
3.61829e-05
1.85785e-05
6.47361e-06
6.52387e-06
1.86188e-05
3.64078e-05
3.6619e-05
1.86296e-05
6.57297e-06
6.62098e-06
1.86439e-05
3.68075e-05
3.69818e-05
1.86478e-05
6.66784e-06
6.71358e-06
1.86403e-05
3.71326e-05
3.72683e-05
1.86309e-05
6.75781e-06
6.80145e-06
1.86131e-05
3.73837e-05
3.74853e-05
1.85929e-05
6.84334e-06
6.88449e-06
1.85695e-05
3.75697e-05
3.76377e-05
1.85451e-05
6.92409e-06
6.96277e-06
1.85141e-05
3.76975e-05
3.77359e-05
1.84861e-05
7.00013e-06
7.03665e-06
1.84553e-05
3.77676e-05
3.77834e-05
1.84177e-05
7.07204e-06
7.10665e-06
1.83882e-05
3.77872e-05
3.77787e-05
1.8349e-05
7.14e-06
7.17311e-06
1.83148e-05
3.77674e-05
3.77491e-05
1.82756e-05
7.20488e-06
7.23623e-06
1.82384e-05
3.77205e-05
3.76907e-05
1.82047e-05
7.26663e-06
7.29626e-06
1.81587e-05
3.76531e-05
3.76046e-05
1.81262e-05
7.32501e-06
7.35291e-06
1.80916e-05
3.75578e-05
3.75074e-05
1.80554e-05
7.3801e-06
7.40686e-06
1.80201e-05
3.74384e-05
3.73906e-05
1.79984e-05
7.43256e-06
7.45805e-06
1.79629e-05
3.73176e-05
3.72636e-05
1.795e-05
7.48241e-06
7.50636e-06
1.79315e-05
3.71913e-05
3.71288e-05
1.79212e-05
7.52946e-06
7.55205e-06
1.79058e-05
3.70573e-05
3.69933e-05
1.79073e-05
7.57388e-06
7.59506e-06
1.78931e-05
3.69241e-05
3.68514e-05
1.79017e-05
7.61559e-06
7.63538e-06
1.79054e-05
3.67807e-05
3.67074e-05
1.79061e-05
7.65467e-06
7.67327e-06
1.79312e-05
3.66341e-05
3.65589e-05
1.7934e-05
7.69137e-06
7.70887e-06
1.79607e-05
3.64813e-05
3.63996e-05
1.7975e-05
7.72575e-06
7.74224e-06
1.79957e-05
3.63091e-05
3.62193e-05
1.8025e-05
7.758e-06
7.77346e-06
1.80444e-05
3.61157e-05
3.60172e-05
1.80849e-05
7.78831e-06
7.80274e-06
1.81037e-05
3.59028e-05
3.57953e-05
1.81423e-05
7.81673e-06
7.83023e-06
1.81703e-05
3.56659e-05
3.55494e-05
1.82057e-05
7.84341e-06
7.85597e-06
1.82362e-05
3.5426e-05
3.52944e-05
1.82731e-05
7.86829e-06
7.88007e-06
1.83043e-05
3.51684e-05
3.50308e-05
1.83375e-05
7.89166e-06
7.90268e-06
1.8377e-05
3.48945e-05
3.47563e-05
1.84123e-05
7.91353e-06
7.9239e-06
1.84492e-05
3.46316e-05
3.44971e-05
1.84831e-05
7.93416e-06
7.94394e-06
1.85239e-05
3.4388e-05
3.42668e-05
1.8553e-05
7.95363e-06
7.96283e-06
1.85951e-05
3.41688e-05
3.40611e-05
1.863e-05
7.97196e-06
7.98062e-06
1.86677e-05
3.3977e-05
3.38976e-05
1.87005e-05
7.9892e-06
7.99741e-06
1.87337e-05
3.38196e-05
3.37557e-05
1.87728e-05
8.00546e-06
8.01322e-06
1.8807e-05
3.36993e-05
3.36534e-05
1.88401e-05
8.02076e-06
8.02811e-06
1.88723e-05
3.36228e-05
3.35826e-05
1.88986e-05
8.03516e-06
8.04208e-06
1.89387e-05
3.3552e-05
3.35358e-05
1.89617e-05
8.04864e-06
8.05518e-06
1.89964e-05
3.35054e-05
3.35071e-05
1.9025e-05
8.06135e-06
8.06742e-06
1.90533e-05
3.3478e-05
3.34945e-05
1.90804e-05
8.07325e-06
8.07892e-06
1.91072e-05
3.34582e-05
3.34841e-05
1.91331e-05
8.08439e-06
8.08969e-06
1.9159e-05
3.34514e-05
3.34754e-05
1.91835e-05
8.09481e-06
8.09975e-06
1.92084e-05
3.34464e-05
3.3463e-05
1.92314e-05
8.10453e-06
8.10914e-06
1.92552e-05
3.34354e-05
3.34428e-05
1.92771e-05
8.11353e-06
8.11783e-06
1.93e-05
3.34169e-05
3.34129e-05
1.93213e-05
8.12191e-06
8.12589e-06
1.93428e-05
3.33893e-05
3.33772e-05
1.93648e-05
8.12962e-06
8.13334e-06
1.93837e-05
3.33498e-05
3.33317e-05
1.94093e-05
8.13676e-06
8.14018e-06
1.94222e-05
3.33061e-05
3.32759e-05
1.94511e-05
8.14335e-06
8.14641e-06
1.9466e-05
3.32528e-05
3.32159e-05
1.94909e-05
8.14937e-06
8.1521e-06
1.95123e-05
3.31933e-05
3.31579e-05
1.95272e-05
8.15481e-06
8.15727e-06
1.95589e-05
3.31269e-05
3.30994e-05
1.95711e-05
8.15959e-06
8.16185e-06
1.95995e-05
3.3064e-05
3.30384e-05
1.96181e-05
8.16382e-06
8.16581e-06
1.96424e-05
3.30037e-05
3.29825e-05
1.96613e-05
8.16745e-06
8.16915e-06
1.96865e-05
3.29458e-05
3.29298e-05
1.97057e-05
8.17045e-06
8.17185e-06
1.97315e-05
3.28909e-05
3.28796e-05
1.97512e-05
8.1728e-06
8.17391e-06
1.9777e-05
3.28379e-05
3.28314e-05
1.97975e-05
8.1745e-06
8.17531e-06
1.98226e-05
3.27894e-05
3.27883e-05
1.98449e-05
8.17554e-06
8.17608e-06
1.98677e-05
3.27448e-05
3.27465e-05
1.98941e-05
8.17596e-06
8.17621e-06
1.99105e-05
3.27068e-05
3.27067e-05
1.99417e-05
8.17576e-06
8.17566e-06
1.99579e-05
3.26709e-05
3.26731e-05
1.99885e-05
8.17496e-06
8.17443e-06
2.00059e-05
3.26388e-05
3.26462e-05
2.00343e-05
8.17353e-06
8.17264e-06
2.00557e-05
3.26097e-05
3.26191e-05
2.00825e-05
8.17148e-06
8.17029e-06
2.00993e-05
3.25983e-05
3.25973e-05
2.01289e-05
8.16886e-06
8.16735e-06
2.01484e-05
3.25829e-05
3.25854e-05
2.01729e-05
8.16564e-06
8.16389e-06
2.01958e-05
3.25723e-05
3.25758e-05
2.02222e-05
8.16189e-06
8.15992e-06
2.02411e-05
3.25666e-05
3.25657e-05
2.02735e-05
8.15765e-06
8.15542e-06
2.02875e-05
3.25663e-05
3.25611e-05
2.03198e-05
8.15298e-06
8.15046e-06
2.0335e-05
3.25695e-05
3.25599e-05
2.03651e-05
8.14789e-06
8.14511e-06
2.03848e-05
3.25747e-05
3.25659e-05
2.04074e-05
8.14241e-06
8.13947e-06
2.04347e-05
3.25817e-05
3.2571e-05
2.04576e-05
8.13654e-06
8.13347e-06
2.04809e-05
3.25962e-05
3.25873e-05
2.05041e-05
8.13044e-06
8.12722e-06
2.05281e-05
3.26132e-05
3.26072e-05
2.05507e-05