/*--------------------------------*- C++ -*----------------------------------*\
| =========                 |                                                 |
| \\      /  F ield         | OpenFOAM: The Open Source CFD Toolbox           |
|  \\    /   O peration     | Version:  v2006                                 |
|   \\  /    A nd           | Website:  www.openfoam.com                      |
|    \\/     M anipulation  |                                                 |
\*---------------------------------------------------------------------------*/
FoamFile
{
    version     2.0;
    format      ascii;
    class       volScalarField;
    location    "0.143";
    object      omega;
}
// * * * * * * * * * * * * * * * * * * * * * * * * * * * * * * * * * * * * * //

dimensions      [0 0 -1 0 0 0 0];


internalField   nonuniform List<scalar> 
16277
(
0.00810605
0.00810614
0.00810496
0.00810454
0.00810343
0.00810345
0.00810277
0.00810122
0.00809759
0.00809139
0.00808285
0.00807267
0.00806155
0.0080499
0.00803787
0.00802545
0.00801255
0.00799907
0.00798495
0.00797014
0.00795463
0.00793844
0.00792156
0.00790402
0.00788582
0.00786698
0.0078475
0.0078274
0.00780669
0.00778537
0.00776347
0.00774099
0.00771795
0.00769438
0.00767028
0.00764568
0.0076206
0.00759506
0.00756908
0.00754268
0.0075159
0.00748875
0.00746126
0.00743347
0.00740539
0.00737705
0.00734849
0.00731973
0.00729081
0.00726176
0.0072326
0.00720337
0.00717411
0.00714484
0.0071156
0.00708643
0.00705735
0.00702841
0.00699964
0.00697108
0.00694278
0.00691479
0.0068872
0.00686017
0.00683407
0.0068097
0.00678898
0.00677664
0.00678512
0.00684366
0.00700292
0.00737737
0.0082073
0.00999265
0.0137362
0.0213691
0.0365792
0.06655
0.125312
0.238493
0.453784
0.842296
1.40584
1.82817
2.49751
2.99617
3.63645
6.6249
11.4675
14.4704
12.9707
34.2403
105.41
397.789
3406.78
18601.1
254899
251710
37848.6
8637.97
15117.7
52963
248575
245279
54893.3
17469.9
20706
58055.7
236457
232035
57495.2
21300.6
23279.4
58848.3
226111
223289
58185
23405.7
24488.9
58586.7
218920
216054
57190.4
24344
24967.3
57663
212520
210464
56434.1
24791.7
25247.6
56963.8
207750
206195
55926.8
25050.7
25438.5
56494.9
204001
202776
55590.7
25235.3
25590.4
56183
200922
199916
55356.6
25384.8
25720.5
55973.1
198292
197434
55192.9
25514.5
25837.5
55833.7
195972
195220
55088.4
25631.9
25945.6
55741.9
193877
193200
55020.1
25740
26045
55677.3
191943
191319
54970.9
25839.2
26137
55626.3
190128
189544
54930.3
25929.5
26221.4
55580.8
188404
187849
54892.5
26010.8
26296.6
55536.3
186750
186217
54853.9
26082.8
26362.8
55489.9
185150
184634
54812
26146
26420.7
55439.3
183594
183090
54764.6
26201.2
26470.9
55382.6
182071
181577
54710.4
26249.1
26514.5
55318.9
180576
180089
54649.2
26290.8
26552.2
55248
179102
178620
54580.4
26327
26584.7
55169.3
177644
177166
54503.4
26358.1
26612.2
55082
176197
175720
54417.6
26384.3
26635.1
54985.7
174756
174278
54322.5
26406.1
26653.6
54880
173315
172835
54217.9
26423.6
26667.9
54764.5
171871
171386
54103.2
26437
26678.1
54638.6
170419
169928
53977.9
26446.4
26684.3
54501.7
168955
168457
53841.4
26451.7
26686.2
54353.2
167475
166968
53692.9
26452.8
26683.8
54192.2
165975
165458
53531.6
26449.5
26676.7
54018
164453
163925
53356.8
26441.3
26664.5
53829.5
162907
162367
53167.3
26427.9
26646.7
53625.7
161334
160782
52960.6
26408.5
26622.5
53404.8
159733
159171
52731.7
26382.4
26591
53164.8
158106
157533
52485.3
26348.5
26551.3
52906.2
156453
155871
52218.2
26306.2
26502.4
52626.2
154777
154188
51927.9
26254
26442.8
52322.3
153082
152490
51611.8
26190.3
26370.6
51991.7
151375
150783
51267
26113.1
26283.6
51631.6
149664
149078
50889.9
26016.5
26178
51238.4
147961
147388
50476.7
25897.6
26051.4
50808.5
146282
145732
50024.3
25756.9
25901.6
50338.7
144646
144130
49529
25589.8
25724
49825.5
143077
142609
48987
25391.5
25513.9
49265.3
141604
141200
48395.3
25157.6
25267
48655
140257
139941
47759.7
24884.4
24979.7
47997.6
139085
138866
47101.6
24571.6
24652.2
47313.1
138140
138018
46412.4
24210.8
24278.1
46598.1
137441
137423
45700.9
23807.9
23865
45867.1
137045
137110
44988.2
23373.9
23424.1
45140.5
136901
137093
44299.1
22924.2
22971
44451.7
137044
137381
43654.7
22466.1
22511.9
43823
137433
137949
43083.4
22012.3
22064
43270.2
138106
138773
42619.4
21592.5
21655.9
42831.1
139007
139779
42265.9
21224.9
21304.1
42530
140070
140914
42005.1
20916.4
21012.6
42349.4
141248
142145
41864.4
20669.8
20783.3
42267
142507
143436
41833.9
20485.1
20616.1
42297
143810
144744
41912.9
20361.9
20510.2
42431.5
145117
146035
42089.8
20294.7
20461.7
42657.2
146396
147278
42353.9
20268.4
20463.7
42959.4
147617
148447
42686.1
20294.5
20518.1
43345.9
148756
149521
43074.3
20369.8
20635.3
43810
149795
150484
43533.9
20494.5
20785.7
44304.5
150718
151321
44020.1
20649
20958.5
44811.4
151511
152027
44515.9
20824.5
21148
45315
152173
152603
45006.6
21015.2
21347.4
45801.7
152707
153056
45479
21214.1
21550.2
46260.9
153123
153399
45923.5
21415
21750.7
46685.1
153432
153646
46333.3
21612.4
21944.4
47070.2
153651
153804
46704.4
21802.2
22127.6
47414.6
153790
153896
47036.1
21981.2
22298.2
47719.3
153867
153936
47329.5
22147.4
22455.1
47986.2
153895
153939
47586.4
22299.8
22598.1
48222.5
153879
153908
47811.2
22438.6
22727.6
48432
153818
153842
48006.4
22564
22844
48612
153735
153754
48173.2
22676.6
22948.3
48765.1
153633
153648
48315.8
22777.5
23041.9
48898.5
153516
153526
48440.4
22868.1
23127
49013.1
153386
153395
48548.8
22949.1
23204
49112.9
153246
153251
48641.6
23021.4
23272.1
49199.1
153098
153101
48724.3
23086
23333.6
49277.3
152940
152948
48797.9
23142.4
23385.3
49342.4
152814
152755
48853.1
23189.6
23445.7
49398.7
152690
152600
48942.5
23224.3
23468
49569.9
152636
151971
48748.1
23132.7
23266.7
48759
151435
149530
48550.9
22987.2
21916.1
46329.3
147100
138327
48505.5
22452.7
15523.4
27062.7
124067
139429
60773.6
28133
13625.8
7035.81
4374.11
3429.54
3055.09
2533.25
2312.57
2154.63
2089.04
2072.3
2105.88
2203.55
2337.7
2582.05
2861.09
3452.94
3782.02
4729.71
5754.24
7585.26
11737.8
22962.3
55714.6
128576
405797
435061
139239
61233.7
64980.7
147277
460605
483121
153729
68197.6
68281.2
154993
489417
495203
156289
69554.8
69752.9
157890
498908
499527
158252
69979.9
69916.7
158267
499313
499686
158312
69930.5
69918
158338
499529
499649
158324
69889.6
69880.2
158333
499775
499630
158321
69852.8
69824
158324
500320
500179
158292
69801.8
69776.3
158288
500305
500178
158278
69751.2
69732.1
158279
500597
501059
158190
69678.4
69655.8
158234
500623
501066
158146
69619.6
69609.5
158212
501220
501642
158122
69582.9
69554.1
158165
501230
501693
158057
69499.2
69478.9
158120
501857
502306
158010
69447.8
69438.3
158087
501881
502339
157986
69403.3
69390.9
158055
502498
502950
157932
69343.8
69322.4
157971
502568
503015
157897
69294.6
69280.4
157951
503196
503654
157839
69239.7
69221.6
157884
503544
503443
157845
69181.9
69167.9
157845
503905
504360
157781
69148.4
69140.9
157824
504239
504151
157796
69111.5
69097.3
157797
504611
505109
157717
69063.6
69051.7
157765
504993
504909
157738
69023
69017.1
157755
505381
505858
157720
69013.1
69011.7
157783
505745
505670
157760
68987.9
68980.6
157789
506158
506639
157762
68977.1
68978.7
157838
506530
506452
157842
68973.3
68976.6
157923
506915
507397
157905
68973.4
68983.5
158014
507286
507199
158050
68986.3
68997.4
158170
507654
508137
158181
68997.2
69006.6
158337
508033
507958
158406
69010.1
69049.5
158585
508403
508844
158689
69080.8
69095.2
158892
508423
508870
158996
69096.7
69119.1
159242
508996
509410
159374
69129.1
69168.5
159665
508974
509362
159873
69197.2
69216.5
160222
509473
509880
160405
69213.9
69228.8
160789
509691
509513
161077
69228.1
69245.3
161487
509892
510247
161826
69246.4
69240.5
162254
510075
509888
162620
69228.8
69226.8
163098
510275
510706
163455
69184.7
69153.2
163954
510295
510803
164297
69062.5
68999.4
164791
511052
511672
165062
68852.6
68724
165471
511776
512029
165671
68506.3
68359.9
165958
512952
513766
166099
68114.3
67920.3
166214
514713
515911
166236
67588.5
67145.9
166044
517368
519356
165413
66472.7
65968
164771
521379
523724
163627
65185.9
64077.8
160186
521098
518414
156575
63249.4
62709.8
154494
524798
522150
155434
62243.3
61234.5
146868
514356
511329
148074
61068.2
60510.9
143567
503223
496335
141208
60149.6
60243.5
138404
484666
469845
133680
60069
60450.6
131426
459438
452648
130500
61050.1
61925.3
130738
434749
406534
121491
62560
64004
120734
595907
972074
356596
141738
69466.4
172717
728864
656899
187233
74529.8
71882.1
176985
649436
642677
182481
74345.6
71425.4
170692
623773
601325
172033
72386.9
68840.2
155980
574392
548063
158154
70320.3
68653.9
144801
520198
488524
145776
69855.1
68743.2
134312
445319
636504
129055
69415.1
146098
370250
997765
719647
164218
70866.2
73652.7
175813
606416
548439
145081
66529.7
67139.6
146725
513476
478599
135825
65102.9
65457
132551
447437
412870
124206
65078.6
68182.2
123253
597887
941839
336812
141005
72634.5
156475
683333
594151
167977
75744.1
72471.3
150315
556621
517603
154749
74778.5
73815.3
141530
467861
666050
134532
75531.5
153281
368436
1.00707e+06
706209
171592
77958.2
79540.7
172680
579328
501002
146918
71764.9
72114.9
137168
450481
654023
136789
75413.7
154246
371146
991409
703879
163742
81024.6
83997.1
176794
579703
511982
152096
77672.4
79936.6
146514
718743
1.03504e+06
389119
161757
80941.8
169324
705579
552125
174380
80252.1
68948.3
137730
486474
665181
139363
73964.6
148673
343350
903054
624007
153110
74677.6
78229.2
156686
789034
989743
364289
154194
66564.5
150745
656102
792662
146262
65263
128134
288391
833961
1.01279e+06
163626
64913.5
91551.1
198674
809446
827190
160513
58691
71129.9
191385
993488
1.0288e+06
196843
73013.3
65746.7
175161
915625
800501
104076
39068.6
153620
341378
806638
935791
160997
81531.5
186074
374629
846915
781431
189747
99449.5
105881
215134
673169
1.10187e+06
483283
226486
128071
182887
958883
826901
371382
190955
103385
174365
696146
575484
185989
104609
193196
393907
916643
716938
171520
107417
107468
181178
572220
925727
390433
192331
106856
168253
712386
568459
175748
106269
187552
380093
909886
697403
164208
104537
104351
171987
561841
906174
380461
184309
102754
162380
684694
549157
169973
102205
180917
370467
883528
658342
158056
101119
100183
165471
536516
876449
365151
175085
98289.4
154625
646832
519782
161357
97664.8
168406
345091
828113
601834
144898
94679.8
95661.8
162801
462660
636585
186855
101850
191349
431822
1.03509e+06
746955
171864
104956
102344
174355
597975
992571
385673
184824
103141
163055
715657
577244
174239
103189
185663
394987
963858
709537
163137
103822
102518
168797
576518
965277
378895
182864
102042
160042
696568
567260
170261
102015
182857
379628
971426
703461
162207
102349
100965
167307
566835
952215
397478
181265
101377
160477
694071
563085
170210
101888
185066
400716
963015
719963
164518
103699
103536
174361
591359
1.02895e+06
435898
196182
113076
149728
815000
731843
317586
165480
93050.9
141201
558715
476931
154420
94352.4
168748
348390
824941
614145
147716
95911.6
96583.3
157383
502001
843754
349872
170532
96158.8
148574
622343
513815
155451
95497.7
172095
362596
875190
652098
152055
97172.5
97200.3
162030
533508
904820
373661
175663
99149.2
157688
679853
568086
168849
99853.3
193919
433105
1.00792e+06
808604
148017
113730
171402
325607
740281
578523
150683
96984.4
98982.4
164037
496718
869211
367310
179487
102165
158710
662493
550459
167364
102738
193766
419064
958449
781393
147126
113545
169194
322131
718229
557729
147032
95849.9
98322.8
162330
486021
858375
366161
177912
101902
158198
651768
549827
172243
103154
197111
426731
977093
794410
151276
116260
173813
330542
733678
577664
152834
99172.2
101418
168780
505465
892346
377461
184918
106009
165033
669398
567668
179217
107127
205189
421417
1.02976e+06
822858
151392
120793
181555
342690
761496
593914
162332
102764
105398
180358
528511
979807
428298
200154
119727
152543
808314
761338
338226
179359
103329
162234
598870
519137
179081
106494
203216
416665
949524
786287
158059
121729
179870
335388
743295
591115
161453
103768
107664
181108
519594
971906
423547
205813
123366
154379
812587
763615
342240
183597
105787
166946
598799
530314
186145
108603
206065
432084
966264
803566
157524
124364
183752
339809
763414
615039
167034
107336
111722
187866
548846
1.02414e+06
436498
215688
130836
154630
855512
837013
365542
196827
119520
159450
715856
685121
332157
177865
106202
167355
563284
514426
188573
110632
209917
432357
968158
810720
161291
127937
188853
345200
768154
618591
173354
111151
115366
195480
555569
1.04767e+06
445255
221456
134712
161282
874002
848591
372001
201837
123276
163205
732086
716509
338297
182347
109459
173778
587867
529810
192860
113682
216395
447988
985483
845957
166229
132873
196856
360586
816969
714513
156914
122003
181537
330931
701763
583564
175233
109851
115683
199647
530633
994090
441669
220008
135766
163249
853125
836827
365816
201263
124810
161282
722565
707861
338685
184534
111579
176886
581281
529596
198724
116792
220012
447601
981552
836693
169466
136147
200893
365790
815637
717524
162932
125451
185869
339179
715946
601058
179834
113261
119006
204996
554862
1.0373e+06
472307
228992
142419
175890
900305
879643
386607
211425
131371
166437
756920
750409
355089
195300
118539
187464
616526
561097
211439
124002
234836
482829
1.03312e+06
892355
181245
145693
215185
396357
885546
772687
171315
134635
200872
363547
777730
706011
170310
129238
191156
342750
704874
587751
184115
117893
125057
210591
545919
1.04611e+06
467476
236551
147529
176997
907760
904463
394866
218929
138839
179905
790550
799245
377124
205767
132667
174997
715945
715077
351664
195208
120956
188832
603842
557434
212700
127102
238561
481793
1.03523e+06
907315
184439
149943
221103
403424
898085
781552
179560
139384
206336
371342
788335
707903
174490
134020
197006
353180
711622
602674
191288
122435
129651
216797
560083
1.04716e+06
491115
242723
153580
188711
924848
919037
411922
225872
143825
183244
814800
831846
390495
214042
139706
183544
746762
745796
368224
204479
127562
199363
624206
579897
225548
134261
251867
486307
1.09329e+06
928500
189623
158122
231684
409807
926207
814106
186539
147835
219981
398207
837703
775373
189512
143454
211399
380970
795010
719052
182235
139817
204974
360938
729382
627583
200819
128664
136262
228703
588954
1.10847e+06
523921
256490
163517
200974
975253
963597
438303
240378
153427
195710
837715
854911
407326
225568
148910
194227
782212
803636
390183
218250
144465
189341
733460
744402
370180
209518
131711
203849
628782
582090
228254
138601
256240
505838
1.074e+06
927761
197370
163461
241893
431953
935869
834393
197429
154207
227452
406975
851632
772296
194591
149833
220472
391784
798749
734626
191696
146655
212529
370572
743163
632904
207512
134799
142519
236295
596558
1.10501e+06
526625
263111
169575
208473
968177
975434
445671
247391
159564
203118
871335
891972
420503
234367
155845
201913
808746
831592
404178
227869
151773
197523
745186
756867
382467
219871
139762
212381
639288
598490
239797
146577
267686
527527
1.10883e+06
966772
209398
171759
252253
448358
976853
863166
206090
162062
236826
420346
881023
803345
203740
157386
230452
406261
832946
758508
200371
154378
224054
390096
775745
662283
218904
142776
150874
249929
626270
1.16554e+06
557095
278916
180586
219373
1.01505e+06
1.02316e+06
474335
264675
170519
218505
899133
915910
440147
248279
165790
213421
837373
871569
424461
241801
162804
210482
796913
830296
411004
235834
158507
205024
758722
772193
391703
227257
144936
220000
645888
608300
248270
152300
277582
529604
1.12899e+06
967117
215882
178509
259113
450348
974932
856282
211906
168339
245751
429878
881642
798762
211560
164015
238227
415727
830890
758560
208669
159936
229770
392732
770332
653014
222691
147268
155931
253313
621273
1.14842e+06
548577
284610
184291
223501
992006
1.00126e+06
468438
267343
174783
221148
894404
922696
446674
253913
170971
219694
829575
863247
429726
247424
167248
216416
785800
803497
409317
239655
153570
231862
670416
632577
260742
161297
292873
554311
1.17105e+06
1.00176e+06
229871
188796
272035
469641
1.00449e+06
879875
222885
177753
257620
447589
907208
825940
222751
172913
249556
430563
859679
775361
218745
168206
240309
408582
795982
672841
232677
154892
163902
264971
643222
1.18191e+06
568595
296600
192884
233519
1.02668e+06
1.04414e+06
489509
280161
183893
232944
914130
943003
466620
266342
179760
231824
850396
884261
446063
259032
175492
227487
799901
819579
422594
249990
161048
240452
682872
651074
270070
168915
300452
567151
1.17474e+06
1.00717e+06
239073
195864
281976
484756
1.0248e+06
895424
230304
184605
266533
457917
927771
837210
229477
178882
258447
440609
861484
723508
251731
165344
174850
284736
692588
1.25334e+06
613662
318853
207606
255259
1.07879e+06
1.09121e+06
515946
298887
195549
244685
950660
983786
486543
281197
188171
242814
865545
883790
456483
269611
172670
259135
738057
703629
291108
180961
326437
607906
1.27684e+06
1.08554e+06
257254
210678
301646
513571
1.10236e+06
949824
245281
197696
286187
489367
985092
880205
247876
191846
277013
470993
914408
766067
268068
177221
186724
303084
730978
1.31397e+06
651432
337018
219887
271259
1.12783e+06
1.14048e+06
543121
316375
207067
258921
980459
1.01916e+06
508151
296147
198178
256646
899959
924343
476859
282811
181395
271069
770156
739342
302977
189772
339484
637088
1.3166e+06
1.11126e+06
269792
220714
318274
542571
1.13273e+06
978021
260556
207471
297961
506430
1.01631e+06
894159
258125
199563
286502
481350
928472
779792
276258
183871
193309
311008
750489
1.33252e+06
653126
346805
225959
278420
1.12486e+06
1.14782e+06
548808
323381
211185
268175
976397
994841
506704
300679
191419
285586
813821
779095
314395
199588
359894
683965
1.37707e+06
1.14837e+06
289311
232284
333699
565045
1.16722e+06
1.00372e+06
274674
217366
311140
526497
1.04761e+06
913425
269078
207306
295592
494886
948962
784587
282195
189427
199844
317601
754390
1.33434e+06
658956
356020
231165
288028
1.12843e+06
1.15342e+06
556081
329852
216202
274542
978840
1.00886e+06
515291
307871
195838
291778
826844
788563
324562
204413
363339
671045
1.35895e+06
1.13616e+06
294868
235831
337261
565529
1.16742e+06
985308
281099
219141
311777
519414
1.01102e+06
822806
294765
198118
208120
330078
789482
1.37186e+06
684707
369025
237559
302965
1.1384e+06
1.14354e+06
568435
338785
210022
307840
904539
859013
341217
217727
387202
721854
1.49839e+06
1.23128e+06
306164
249418
361798
614957
1.26059e+06
1.05823e+06
304980
233736
335376
562582
1.08369e+06
882454
318108
211784
221057
355096
848260
1.45886e+06
726652
391587
252092
322974
1.19948e+06
1.20561e+06
595684
357790
220686
320970
943860
894758
353819
228153
401933
745837
1.52256e+06
1.24698e+06
325735
258175
370577
618280
1.26551e+06
1.00192e+06
338586
227729
235568
377027
949600
1.62561e+06
798771
426031
269641
345885
1.29671e+06
1.29969e+06
646480
386042
234849
344215
1.01117e+06
953410
379026
242361
428733
798375
1.61281e+06
1.31107e+06
348982
273445
392379
652584
1.32139e+06
1.04207e+06
352682
239697
247772
390563
988851
1.69056e+06
828423
442119
280337
341058
1.35671e+06
1.37038e+06
682036
406161
244880
368319
1.05435e+06
991113
401699
252453
448450
822166
1.66515e+06
1.33237e+06
366612
283463
403745
665919
1.34147e+06
1.04424e+06
358043
245254
253202
394440
990529
1.65911e+06
828379
445452
282786
365480
1.33259e+06
1.33946e+06
667472
402892
242767
356146
1.02559e+06
965703
380095
248666
434404
799040
1.57386e+06
1.17788e+06
378462
261263
266388
408603
1.08539e+06
1.77188e+06
865391
470012
291208
381218
1.39393e+06
1.39799e+06
693455
416468
249770
365701
1.06695e+06
1.00601e+06
400554
257768
444881
813778
1.6188e+06
1.21787e+06
390218
266433
268836
406910
1.11554e+06
1.79504e+06
878949
471409
277419
411556
1.31517e+06
1.19132e+06
437112
279848
501844
937003
1.9095e+06
1.4728e+06
406901
308227
442937
734099
1.46505e+06
1.10102e+06
382067
259945
267763
415252
1.03043e+06
1.63582e+06
830712
458684
270085
397312
1.21567e+06
1.11091e+06
409087
272379
472609
868562
1.76305e+06
1.27461e+06
408277
276048
279183
432424
1.15033e+06
1.77385e+06
885236
482944
278501
413153
1.28095e+06
1.15573e+06
434988
280971
482140
882625
1.76859e+06
1.28776e+06
413141
280043
283700
437064
1.17419e+06
1.82386e+06
898386
488474
281053
416045
1.30669e+06
1.12011e+06
453151
286400
299551
512146
1.47118e+06
2.1912e+06
1.07225e+06
544623
305340
473440
1.50495e+06
1.33009e+06
487979
303166
524450
970967
1.99302e+06
1.38558e+06
445807
295064
295295
456849
1.18706e+06
1.54278e+06
526417
308289
570039
1.12057e+06
2.26775e+06
1.50944e+06
485335
308872
311722
506676
1.26681e+06
1.63714e+06
565323
326373
592280
1.17897e+06
2.37186e+06
1.58757e+06
498882
318144
319605
516524
1.33922e+06
1.6805e+06
580190
326045
591894
1.17102e+06
2.38973e+06
1.54454e+06
498875
313180
304719
491903
1.26806e+06
1.55338e+06
609047
334040
328354
564195
1.91432e+06
2.75445e+06
1.31693e+06
648612
329422
544165
1.71086e+06
1.38706e+06
545799
324926
333122
617638
1.60918e+06
1.80782e+06
590283
317163
342729
725255
1.95773e+06
2.15332e+06
731420
327287
638073
1.31179e+06
2.79126e+06
1.62862e+06
517052
310320
301624
512369
1.29642e+06
1.40534e+06
563156
303035
296818
560021
1.47234e+06
1.52121e+06
571636
292273
289863
598421
1.53205e+06
1.51591e+06
607182
288179
285220
613059
1.4947e+06
1.46033e+06
612016
283383
280520
607583
1.42429e+06
1.38635e+06
598840
278364
276051
591998
1.34863e+06
1.31222e+06
587085
274879
273908
583836
1.27814e+06
1.2466e+06
582025
273959
274126
581157
1.21763e+06
1.19113e+06
580913
275004
275974
580847
1.16691e+06
1.14505e+06
580700
277593
279011
580345
1.12526e+06
1.10752e+06
579644
280816
282245
578439
1.09154e+06
1.07728e+06
576863
283792
284896
574734
1.06455e+06
1.05329e+06
572259
285968
286580
569213
1.0433e+06
1.03455e+06
565900
287047
286975
562048
1.02684e+06
1.0202e+06
558053
286789
286160
553585
1.01442e+06
1.00951e+06
549094
285429
284047
544166
1.00523e+06
1.00162e+06
539273
282907
281158
533989
998490
995869
528673
280071
278389
523099
993604
991754
517622
277352
275722
511956
990165
988895
506472
274708
273105
500848
987799
986935
495471
272095
270493
489995
986188
985593
484815
269459
267837
479568
985058
984678
474653
266773
265131
469703
984305
984038
465085
264037
262379
460472
983811
983626
456188
261267
259597
451913
983483
983331
447964
258478
256809
444021
983210
983036
440407
255695
254048
436792
982900
982692
433502
252945
251319
430207
982534
982272
427237
250244
248656
424246
982079
981767
421567
247604
246065
418862
981541
981176
416460
245044
243565
414016
980915
980518
411854
242572
241155
409646
980234
979808
407715
240191
238825
405725
979491
979049
403991
237872
236542
402190
978710
978254
400640
235621
234332
399009
977892
977435
397615
233441
232199
396133
977068
976610
394892
231345
230150
393554
976239
975786
392436
229333
228187
391219
975418
974963
390217
227413
226317
389108
974595
974143
388201
225581
224532
387182
973783
973336
386373
223841
222840
385437
972983
972545
384699
222187
221229
383832
972206
971784
383176
220617
219714
382378
971457
971047
381774
219131
218269
381033
970738
970347
380496
217727
216908
379813
970057
969680
379319
216398
215619
378689
969415
969064
378238
215140
214403
377661
968824
968494
377250
213955
213255
376720
968283
967977
376336
212834
212173
375852
967796
967515
375497
211777
211152
375051
967364
967112
374719
210779
210189
374307
966989
966769
374002
209840
209282
373616
966673
966490
373336
208954
208426
372975
966416
966272
372716
208119
207619
372374
966219
966114
372132
207332
206857
371809
966082
966014
371584
206590
206137
371277
966001
965975
371065
205888
205456
370776
965979
965978
370577
205225
204812
370303
966008
966025
370115
204596
204202
369857
966085
966118
369680
204001
203624
369435
966206
966255
369267
203436
203076
369038
966368
966434
368878
202901
202555
368661
966568
966650
368510
202392
202061
368308
966802
966898
368165
201910
201590
367974
967066
967176
367839
201450
201142
367661
967359
967481
367534
201013
200716
367367
967678
967812
367247
200596
200310
367092
968020
968164
366978
200199
199923
366834
968383
968535
366727
199818
199555
366595
968762
968924
366492
199455
199202
366369
969158
969328
366272
199108
198864
366160
969570
969748
366067
198775
198541
365964
969997
970183
365875
198456
198230
365783
970437
970628
365698
198150
197932
365614
970887
971084
365534
197857
197647
365460
971347
971549
365384
197575
197372
365317
971815
972022
365247
197304
197108
365188
972290
972498
365124
197044
196854
365070
972768
972978
365013
196794
196611
364965
973249
973459
364913
196554
196376
364870
973732
973942
364824
196323
196151
364787
974214
974424
364746
196101
195934
364715
974694
974904
364678
195887
195726
364654
975173
975383
364619
195682
195525
364599
975651
975859
364568
195483
195332
364552
976128
976336
364525
195292
195144
364510
976606
976812
364489
195106
194962
364477
977083
977289
364459
194927
194785
364448
977562
977769
364435
194752
194615
364427
978043
978250
364418
194583
194448
364410
978527
978735
364406
194419
194287
364402
979014
979223
364400
194260
194130
364400
979505
979714
364403
194104
193978
364406
979997
980206
364414
193955
193832
364420
980490
980696
364435
193811
193692
364445
980977
981180
364465
193674
193558
364479
981460
981655
364504
193542
193453
364527
981932
982115
364553
193390
193316
364573
982022
982580
364610
193303
193194
364630
983223
983012
364671
193203
193064
364698
983307
983438
364866
193091
192922
364495
983330
983263
364740
192882
192538
363955
982876
985042
365412
193117
193331
366401
988899
998167
371121
195202
196115
372098
993403
981201
361232
191018
188848
356485
963702
105134
57888.4
31214.8
19287.1
17993.6
12110.5
8884.41
7355.13
6959.55
5245.83
3817.45
2988.69
2263.54
1648.93
1168.02
815.101
573.649
411.572
303.355
229.997
179.256
143.363
117.439
98.3564
84.1045
73.3273
65.1976
59.0589
54.6139
51.4834
49.4716
48.3074
47.7822
47.2653
46.3371
45.063
43.5278
41.8424
40.0483
38.211
36.3227
34.3933
32.4039
30.339
28.1698
25.4076
21.3913
16.3491
11.4205
7.47264
4.67155
2.82153
1.66546
0.985926
0.621861
0.446435
0.367758
0.334584
0.320926
0.314977
0.312018
0.309696
0.307542
0.305492
0.303502
0.301536
0.299561
0.297548
0.295468
0.293293
0.290998
0.288556
0.28594
0.283127
0.280093
0.276813
0.27327
0.269443
0.265319
0.260887
0.256139
0.251078
0.245707
0.240038
0.234088
0.22788
0.221442
0.214806
0.208007
0.201083
0.194074
0.187017
0.179952
0.172915
0.16594
0.159058
0.152297
0.145682
0.139234
0.13297
0.126903
0.121045
0.115403
0.109982
0.104784
0.0998102
0.0950584
0.0905279
0.0862113
0.0821059
0.0782045
0.0745007
0.0709872
0.0676568
0.0645016
0.061514
0.0586863
0.0560109
0.0534801
0.0510864
0.0488227
0.0466828
0.044659
0.0427459
0.0409365
0.0392258
0.0376076
0.0360772
0.0346295
0.0332593
0.0319628
0.0307352
0.0295731
0.0284722
0.0274294
0.0264413
0.0255045
0.0246163
0.0237741
0.0229751
0.0222168
0.0214971
0.0208136
0.0201644
0.0195477
0.0189615
0.0184044
0.0178746
0.0173706
0.0168912
0.016435
0.0160008
0.0155873
0.0151936
0.0148185
0.0144612
0.0141208
0.0137963
0.0134869
0.013192
0.0129108
0.0126426
0.0123869
0.0121429
0.0119103
0.0116883
0.0114766
0.0112746
0.011082
0.0108982
0.010723
0.0105559
0.0103966
0.0102447
0.0101
0.00996221
0.00983094
0.00970598
0.0095871
0.00947405
0.00936662
0.0092646
0.0091678
0.00907605
0.00898915
0.00890697
0.00882934
0.00875613
0.00868721
0.00862246
0.00856177
0.00850505
0.00845219
0.00840314
0.00835782
0.00831618
0.00827821
0.00824387
0.00821319
0.00818626
0.00816322
0.0081443
0.00812965
0.00811964
0.00811372
0.00811102
0.00810914
0.00810768
0.00810769
0.00810758
0.00810774
0.00810855
0.00811024
0.00811286
0.00811563
0.00811715
0.00811646
0.00811361
0.0081091
0.00810344
0.00809694
0.00808973
0.00808181
0.00807317
0.00806375
0.00805352
0.00804246
0.00803056
0.00801784
0.0080043
0.00798997
0.00797484
0.00795893
0.00794227
0.00792484
0.00790668
0.00788779
0.00786819
0.0078479
0.00782692
0.00780529
0.00778301
0.00776011
0.0077366
0.00771251
0.00768785
0.00766265
0.00763693
0.00761071
0.00758401
0.00755686
0.00752929
0.00750131
0.00747297
0.00744428
0.00741527
0.00738598
0.00735643
0.00732666
0.00729669
0.00726658
0.00723635
0.00720606
0.00717578
0.00714567
0.00711607
0.00708772
0.00706229
0.00704364
0.00704039
0.00707208
0.00718175
0.00746283
0.00811346
0.00954313
0.0126147
0.0190747
0.0323392
0.0589012
0.110775
0.209763
0.394507
0.733195
1.34745
2.4557
4.43346
7.81022
12.9494
19.3018
25.4056
30.6231
37.1969
54.6436
111.225
353.207
1710.3
5117.07
6290.93
6386.66
7291.29
7250.96
7981.88
7894.45
8501.65
8379.86
8920.41
8775
9266.55
9104.28
9558.25
9383.61
9807.91
9623.87
10024.4
9832.78
10213.9
10016.3
10381.3
10178.7
10529.7
10322.8
10661.4
10451
10779
10565.7
10884.6
10669
10980.1
10762.7
11067.2
10848.5
11147.5
10927.7
11221.8
11001.3
11291.2
11070.4
11356.6
11135.5
11418.4
11197.2
11477.2
11255.9
11533.2
11312.1
11587.1
11366
11638.8
11417.9
11688.8
11467.5
11737.1
11515
11782.9
11560.2
11826.5
11603.3
11868
11644.3
11907.3
11683.1
11944.1
11719.3
11978.1
11752.4
12008.6
11781.7
12034.6
11806
12055
11824
12067.9
11833.9
12071.1
11833
12062.4
11819
12038.8
11788.6
11996.8
11738.4
11932.8
11664.9
11843.3
11563.2
11725.1
11426
11577
11264.9
11404.9
11081.2
11210.9
10879.1
10999.2
10661.2
10775.1
10436.9
10548.1
10217.5
10328.1
10009.4
10120.7
9816.33
9929.57
9641.16
9757.36
9486.01
9605.95
9352.16
9476.43
9239.97
9368.95
9148.92
9282.76
9073.35
9215.51
9015.78
9168.47
8978.42
9142.87
8961.63
9137.47
8963.47
9149.54
8981
9175.85
9011.04
9213.2
9050.59
9259.09
9097.04
9311.67
9148.25
9366.17
9201.14
9421.2
9254.39
9475.53
9306.77
9528.18
9357.37
9578.42
9405.55
9626.04
9451.07
9671.59
9493.94
9713.8
9533.87
9753.41
9570.5
9789.13
9604.28
9822.15
9634.92
9852.32
9662.51
9878.14
9684.75
9911.78
9702.28
9946.05
9707.85
9955.98
9551.65
9875.26
8916.73
8755.91
7015.44
4674.59
5045.12
5504.26
3490.17
5966.66
5553.51
3508.21
6016.18
5557.16
3541.21
6029.34
5568.72
3536.52
6023.41
5562.12
3531.97
6009.27
5551.08
3522.87
5995.54
5538.23
3512.37
5980.86
5523.99
3501.5
5964.67
5508.67
3490.31