/*--------------------------------*- C++ -*----------------------------------*\
| =========                 |                                                 |
| \\      /  F ield         | OpenFOAM: The Open Source CFD Toolbox           |
|  \\    /   O peration     | Version:  v2006                                 |
|   \\  /    A nd           | Website:  www.openfoam.com                      |
|    \\/     M anipulation  |                                                 |
\*---------------------------------------------------------------------------*/
FoamFile
{
    version     2.0;
    format      ascii;
    class       volScalarField;
    location    "0.094";
    object      alphat;
}
// * * * * * * * * * * * * * * * * * * * * * * * * * * * * * * * * * * * * * //

dimensions      [1 -1 -1 0 0 0 0];


internalField   nonuniform List<scalar> 
16277
(
38.6554
26.6633
91.2933
19.1569
28.1405
15.6964
6.40292
2.6217
1.41432
0.954521
0.75054
0.647077
0.585141
0.540168
0.502368
0.468408
0.437522
0.409741
0.385096
0.363416
0.344369
0.327558
0.3126
0.299173
0.287019
0.275943
0.265794
0.256457
0.247839
0.239866
0.232472
0.225606
0.219219
0.213273
0.207733
0.202568
0.197753
0.193266
0.189085
0.185193
0.181573
0.178212
0.175097
0.172217
0.169563
0.167126
0.1649
0.162879
0.161057
0.159433
0.158003
0.156766
0.155722
0.154872
0.154216
0.15376
0.153508
0.153467
0.153646
0.154046
0.154683
0.155568
0.156718
0.158152
0.15989
0.161959
0.164389
0.167218
0.170493
0.174274
0.178642
0.183704
0.189596
0.196476
0.204503
0.213785
0.224327
0.236051
0.249062
0.2645
0.286361
0.325984
0.412502
0.62178
1.15811
2.43485
4.29898
4.59732
2.72416
1.79936
0.886004
0.403985
0.219659
0.103638
0.0245576
0.00441852
0.0001464
0.000127054
0.00207673
0.00956442
0.00527017
0.00134567
0.00011128
9.96367e-05
0.00122688
0.00443177
0.00353617
0.00105454
9.20686e-05
8.61339e-05
0.00102197
0.00335342
0.00290155
0.000920529
8.10797e-05
7.76726e-05
0.000904693
0.0028263
0.00257242
0.000843071
7.43142e-05
7.24984e-05
0.000848151
0.00254623
0.00238181
0.00080304
7.028e-05
6.90874e-05
0.000810249
0.00236722
0.00224242
0.000773925
6.74508e-05
6.66265e-05
0.000781079
0.00223589
0.00213273
0.00075027
6.53479e-05
6.475e-05
0.000757219
0.0021307
0.00204133
0.000730108
6.37117e-05
6.32624e-05
0.000737033
0.00204219
0.00196266
0.00071241
6.23846e-05
6.20305e-05
0.000719365
0.00196542
0.00189327
0.000696437
6.12594e-05
6.0971e-05
0.000703311
0.0018973
0.00183097
0.000681709
6.0278e-05
6.00357e-05
0.000688499
0.0018359
0.00177439
0.000668007
5.93997e-05
5.91898e-05
0.000674726
0.00177999
0.00172255
0.0006552
5.85968e-05
5.84109e-05
0.000661859
0.00172873
0.0016747
0.000643179
5.78517e-05
5.76839e-05
0.000649775
0.00168141
0.00163038
0.000631842
5.71518e-05
5.69981e-05
0.000638372
0.00163754
0.0015892
0.00062111
5.64881e-05
5.63457e-05
0.000627575
0.00159675
0.00155086
0.000610928
5.58542e-05
5.57206e-05
0.000617343
0.00155875
0.0015151
0.000601271
5.52448e-05
5.51188e-05
0.000607639
0.00152327
0.00148162
0.000592099
5.46566e-05
5.45374e-05
0.000598416
0.00149002
0.00145017
0.000583359
5.40868e-05
5.39733e-05
0.00058962
0.00145872
0.00142048
0.000575001
5.35323e-05
5.34237e-05
0.000581202
0.00142913
0.00139234
0.000566979
5.29905e-05
5.2886e-05
0.000573115
0.00140106
0.00136558
0.000559247
5.24589e-05
5.23576e-05
0.000565311
0.00137432
0.00134001
0.000551759
5.1935e-05
5.18361e-05
0.000557747
0.00134875
0.00131551
0.000544476
5.14165e-05
5.13192e-05
0.000550381
0.00132422
0.00129195
0.000537362
5.09011e-05
5.08049e-05
0.000543182
0.0013006
0.00126922
0.000530389
5.03868e-05
5.0291e-05
0.00053612
0.0012778
0.00124722
0.000523529
4.98717e-05
4.97757e-05
0.000529171
0.00125571
0.00122588
0.000516762
4.93541e-05
4.92574e-05
0.000522313
0.00123427
0.00120514
0.000510072
4.88324e-05
4.87346e-05
0.000515533
0.00121344
0.00118495
0.000503447
4.83051e-05
4.82059e-05
0.000508822
0.00119316
0.00116529
0.00049688
4.77707e-05
4.76699e-05
0.000502189
0.0011734
0.00114612
0.000490377
4.72281e-05
4.71257e-05
0.000495675
0.00115417
0.00112746
0.000483959
4.66767e-05
4.65728e-05
0.000489229
0.00113545
0.0011093
0.000477601
4.61158e-05
4.60103e-05
0.000482866
0.00111724
0.00109163
0.000471327
4.55449e-05
4.5438e-05
0.000476608
0.00109955
0.0010745
0.000465163
4.4964e-05
4.48563e-05
0.000470488
0.00108244
0.00105795
0.000459147
4.43737e-05
4.42658e-05
0.000464547
0.00106596
0.00104208
0.000453327
4.37752e-05
4.36681e-05
0.000458848
0.00105037
0.00102705
0.000447772
4.31705e-05
4.30656e-05
0.000453467
0.0010358
0.00101299
0.000442569
4.25627e-05
4.24619e-05
0.000448492
0.00102226
0.00100004
0.00043781
4.1956e-05
4.18619e-05
0.000444028
0.00100999
0.00098843
0.000433608
4.13558e-05
4.12715e-05
0.000440203
0.000999272
0.000978477
0.000430106
4.07687e-05
4.06992e-05
0.000437165
0.000990418
0.000970512
0.000427482
4.02029e-05
4.01562e-05
0.000434984
0.00098377
0.000964921
0.000425861
3.96762e-05
3.96454e-05
0.000433489
0.000979575
0.000961823
0.00042485
3.92093e-05
3.91831e-05
0.000432714
0.000978325
0.000961696
0.000424684
3.8801e-05
3.87787e-05
0.000432782
0.00098004
0.000964498
0.000425426
3.84852e-05
3.84466e-05
0.000433664
0.000984531
0.00097012
0.000427055
3.82586e-05
3.82082e-05
0.000435244
0.000991417
0.000978029
0.000429158
3.80408e-05
3.80636e-05
0.000437209
0.00100051
0.000988105
0.000431377
3.78988e-05
3.79845e-05
0.000439146
0.00101146
0.000999859
0.000433633
3.78383e-05
3.79999e-05
0.000440765
0.00102299
0.00101182
0.000435577
3.78786e-05
3.80928e-05
0.000442093
0.00103403
0.00102308
0.000436978
3.79964e-05
3.82517e-05
0.000443359
0.00104408
0.00103333
0.000438088
3.81806e-05
3.84723e-05
0.000444359
0.00105291
0.00104241
0.000439105
3.84257e-05
3.87463e-05
0.000445261
0.00106045
0.00105014
0.000439652
3.87203e-05
3.90581e-05
0.000445922
0.00106681
0.00105628
0.000439995
3.90511e-05
3.93973e-05
0.000446357
0.00107175
0.00106057
0.000440157
3.94065e-05
3.9752e-05
0.000446564
0.00107589
0.00106352
0.000440197
3.97746e-05
4.01107e-05
0.00044663
0.00107839
0.00106482
0.000439898
4.01439e-05
4.04639e-05
0.000446558
0.00107915
0.0010636
0.00043914
4.05046e-05
4.0802e-05
0.000445833
0.00107773
0.00106104
0.000438156
4.0845e-05
4.11131e-05
0.000444865
0.00107489
0.00105743
0.000437062
4.11553e-05
4.13905e-05
0.000443757
0.00107084
0.00105281
0.000435932
4.14293e-05
4.16307e-05
0.000442551
0.00106564
0.0010473
0.000434824
4.1665e-05
4.18323e-05
0.000441314
0.00105948
0.00104106
0.000433761
4.18608e-05
4.19937e-05
0.000440067
0.00105257
0.00103423
0.000432655
4.20117e-05
4.21144e-05
0.000438793
0.00104503
0.00102692
0.000431586
4.21272e-05
4.22005e-05
0.000437527
0.00103705
0.00101916
0.000430563
4.2212e-05
4.2267e-05
0.000436259
0.00102884
0.00101125
0.000429501
4.22721e-05
4.22996e-05
0.000434917
0.00102052
0.00100328
0.000428384
4.23048e-05
4.23246e-05
0.000433636
0.00101232
0.000995215
0.000427191
4.23189e-05
4.23295e-05
0.000432267
0.00100411
0.000987125
0.000425853
4.23063e-05
4.23167e-05
0.000430835
0.000995807
0.000979082
0.00042446
4.22801e-05
4.22879e-05
0.000429395
0.000987689
0.00097101
0.000423016
4.22451e-05
4.2246e-05
0.000427908
0.000979429
0.000962985
0.000421593
4.21991e-05
4.22036e-05
0.000426402
0.000971239
0.000954855
0.000420164
4.21463e-05
4.21492e-05
0.000424792
0.000962974
0.000946591
0.000418487
4.2088e-05
4.20915e-05
0.000423109
0.000954758
0.000938577
0.000416864
4.20196e-05
4.20249e-05
0.000421475
0.000946767
0.000930579
0.000415179
4.19499e-05
4.19493e-05
0.000419689
0.000938556
0.00092252
0.000413406
4.18549e-05
4.18821e-05
0.000417926
0.000930541
0.000914018
0.000411661
4.17586e-05
4.18025e-05
0.000415749
0.000923023
0.000906828
0.000408634
4.15971e-05
4.1842e-05
0.000415907
0.000920473
0.000909426
0.00041542
4.1739e-05
4.24516e-05
0.000416206
0.000919267
0.000962642
0.000437681
4.27618e-05
4.54609e-05
0.000410198
0.000936544
0.00142981
0.000596286
5.13406e-05
5.54761e-05
0.000309605
0.000709927
0.0017515
0.00401386
0.00750337
0.0106975
0.012883
0.0169338
0.01952
0.0218406
0.0231472
0.023772
0.0235963
0.0225464
0.0210518
0.0186544
0.0163041
0.0127408
0.0111322
0.00810037
0.00606027
0.00411641
0.00234009
0.00107447
0.00039118
0.000164906
3.15377e-05
2.06152e-05
0.00015051
0.000354676
0.000335376
0.000142589
1.97166e-05
1.89079e-05
0.000137965
0.000318119
0.000318967
0.000136199
1.87101e-05
1.85888e-05
0.000135397
0.000314062
0.00031409
0.000134182
1.84264e-05
1.83956e-05
0.000133949
0.000313532
0.000314649
0.000134107
1.84401e-05
1.84355e-05
0.000134256
0.000315295
0.000315811
0.000134523
1.84696e-05
1.84864e-05
0.000134759
0.000316768
0.0003172
0.000134928
1.84947e-05
1.85326e-05
0.000135215
0.000318181
0.000318711
0.000135377
1.8513e-05
1.85559e-05
0.000135731
0.000319771
0.000320336
0.000135911
1.85662e-05
1.85947e-05
0.000136189
0.000321384
0.000321943
0.000136389
1.86019e-05
1.86028e-05
0.000136738
0.000322978
0.000323613
0.000136925
1.86564e-05
1.86535e-05
0.000137249
0.00032462
0.000325243
0.00013747
1.86756e-05
1.86761e-05
0.000137836
0.000326398
0.000326968
0.000137966
1.87192e-05
1.87356e-05
0.000138425
0.000328244
0.000328845
0.000138578
1.87474e-05
1.87602e-05
0.000139064
0.000330137
0.000330732
0.000139205
1.87975e-05
1.88112e-05
0.000139663
0.000332006
0.000332602
0.000139868
1.88311e-05
1.8839e-05
0.000140279
0.000333875
0.000334468
0.000140455
1.88856e-05
1.88939e-05
0.000140883
0.000335787
0.000336414
0.000141089
1.89121e-05
1.89211e-05
0.000141565
0.000337844
0.000338499
0.000141835
1.89542e-05
1.89951e-05
0.000142237
0.0003399
0.000340541
0.000142466
1.89974e-05
1.90113e-05
0.000143005
0.000341946
0.000342585
0.000143242
1.90432e-05
1.90802e-05
0.000143611
0.000343955
0.000344623
0.000143864
1.90889e-05
1.90966e-05
0.000144375
0.000346063
0.000346793
0.00014468
1.91347e-05
1.91719e-05
0.000145099
0.00034826
0.000348956
0.00014535
1.91773e-05
1.91933e-05
0.000145955
0.000350463
0.000351135
0.000146202
1.92239e-05
1.92664e-05
0.000146665
0.000352605
0.000353272
0.000146895
1.92702e-05
1.92823e-05
0.000147455
0.00035474
0.000355418
0.000147735
1.93214e-05
1.93551e-05
0.000148103
0.000356788
0.000357433
0.000148364
1.93643e-05
1.93692e-05
0.000148876
0.000358776
0.000359394
0.000149098
1.94017e-05
1.94393e-05
0.000149503
0.000360759
0.000361343
0.000149685
1.94428e-05
1.94521e-05
0.000150203
0.000362681
0.000363193
0.000150365
1.9481e-05
1.95127e-05
0.000150676
0.000364376
0.000364805
0.00015076
1.95105e-05
1.95136e-05
0.000151155
0.000365917
0.000366313
0.000151106
1.9551e-05
1.95513e-05
0.000151378
0.000367308
0.000367645
0.000151335
1.95589e-05
1.95529e-05
0.000151515
0.000368446
0.000368616
0.000151343
1.95846e-05
1.95733e-05
0.000151312
0.000369035
0.000369003
0.000150972
1.95723e-05
1.95528e-05
0.000150778
0.000369173
0.000369062
0.000150281
1.95567e-05
1.95591e-05
0.000149776
0.000369091
0.000368792
0.000149174
1.95314e-05
1.95027e-05
0.000148704
0.000368815
0.000368123
0.000147889
1.94981e-05
1.94961e-05
0.000147046
0.000367929
0.000366736
0.000145958
1.94617e-05
1.94205e-05
0.000144966
0.000366272
0.000364585
0.00014353
1.9424e-05
1.93929e-05
0.000142295
0.000363936
0.000361993
0.000140617
1.93682e-05
1.93453e-05
0.000139346
0.000361643
0.000359935
0.000137829
1.93511e-05
1.93781e-05
0.000136547
0.000359971
0.00035828
0.000134986
1.93837e-05
1.94306e-05
0.000133743
0.00035858
0.000357227
0.000132304
1.94989e-05
1.95912e-05
0.000131115
0.00035752
0.000357043
0.000129808
1.97069e-05
1.98759e-05
0.00012915
0.000359094
0.000360813
0.000127766
2.00523e-05
2.02296e-05
0.000126833
0.000364667
0.000370198
0.000128349
2.04342e-05
2.06317e-05
0.000128873
0.000374828
0.000377581
0.000128087
2.06842e-05
2.08321e-05
0.000125709
0.00038313
0.00038936
0.000132412
2.11288e-05
2.1333e-05
0.00012856
0.000394779
0.00040022
0.000131792
2.16886e-05
2.19437e-05
0.000133553
0.00041023
0.000413437
0.000136713
2.23124e-05
2.2849e-05
0.000144074
0.000426997
0.000429121
0.000147972
2.33712e-05
2.38436e-05
0.00015433
0.000440181
0.00044244
0.000159678
2.47421e-05
2.65836e-05
0.000185038
0.000462617
0.000459221
0.000195082
1.99341e-05
1.54321e-05
4.80539e-05
0.000129285
0.000360709
0.000111887
1.7997e-05
1.88997e-05
0.000100299
0.000331238
0.000349486
0.000104368
1.93601e-05
1.97102e-05
9.8508e-05
0.00033369
0.000359033
0.000106209
2.02868e-05
2.08655e-05
0.000104547
0.000354093
0.000389431
0.000119002
2.15805e-05
2.23208e-05
0.000118378
0.000381894
0.000419134
0.000137642
2.3169e-05
2.42932e-05
0.000140819
0.000422696
0.000467683
0.000170094
2.67607e-05
2.05366e-05
0.000189513
0.000480055
0.000129224
4.54285e-05
1.66827e-05
1.96399e-05
0.000121262
0.000403619
0.000395145
0.00011292
2.13869e-05
2.27161e-05
0.000147771
0.000487689
0.000497241
0.00014977
2.37178e-05
2.5129e-05
0.000174776
0.000552223
0.000569568
0.000186031
2.67678e-05
2.98666e-05
0.000221481
0.000622349
0.00060546
0.000239799
2.32499e-05
1.7486e-05
5.42284e-05
0.000160145
0.000494547
0.000146197
2.0971e-05
2.26488e-05
0.000135677
0.000484466
0.000555826
0.000166323
2.41208e-05
2.57232e-05
0.000166092
0.000548363
0.000620137
0.00021202
2.96231e-05
2.38284e-05
0.000248597
0.000624883
0.000169905
5.51124e-05
1.78898e-05
2.19605e-05
0.000153429
0.00055979
0.000577074
0.000161787
2.4859e-05
2.88475e-05
0.00022911
0.000743461
0.000777735
0.000267171
3.34378e-05
2.75469e-05
0.000312462
0.000785317
0.000219553
6.5192e-05
1.88761e-05
2.41067e-05
0.000206281
0.000697835
0.000693001
0.000199917
2.80508e-05
3.52763e-05
0.000298273
0.00087561
0.000890311
0.000347735
2.9337e-05
1.98827e-05
7.3688e-05
0.000271977
0.00089965
0.000264298
2.79299e-05
3.52257e-05
0.000279642
0.000967965
0.00134208
0.000472028
4.81801e-05
4.01657e-05
0.000503457
0.0012898
0.000455877
0.000119655
2.62293e-05
4.67728e-05
0.000489082
0.00140642
0.00140722
0.000522903
4.36349e-05
2.94424e-05
0.000133525
0.000552957
0.00194828
0.00064737
6.48851e-05
6.40684e-05
0.000747277
0.00211723
0.000964308
0.000266342
4.07481e-05
6.49191e-05
0.000867518
0.00252793
0.00167
0.000553878
4.32324e-05
8.02921e-05
0.000976856
0.00196945
0.00168918
0.000817186
6.60146e-05
6.6781e-05
0.000778196
0.00185119
0.00237222
0.00085767
7.64731e-05
0.000105532
0.00159892
0.00395063
0.00087905
0.000273252
5.99272e-05
6.13422e-05
0.000766056
0.00175547
0.000542691
0.000193911
4.27519e-05
4.63768e-05
0.00047319
0.00113744
0.000971461
0.000348861
4.65908e-05
2.60658e-05
9.05918e-05
0.000278099
0.000655364
0.000367006
3.08218e-05
2.90481e-05
0.000117087
0.000298731
0.000724461
0.000317479
3.32485e-05
3.56894e-05
0.000259564
0.000656794
0.000213252
8.05799e-05
2.3475e-05
2.78835e-05
0.000252314
0.000567028
0.000520758
0.000211038
3.12728e-05
2.17942e-05
6.84452e-05
0.000174012
0.000481481
0.000214185
2.52958e-05
2.92421e-05
0.000186755
0.000442591
0.000153438
6.42462e-05
2.12078e-05
2.3884e-05
0.000190678
0.000424643
0.000385188
0.000168319
2.80796e-05
2.08207e-05
5.93259e-05
0.000137384
0.000374933
0.000171456
2.25896e-05
2.7122e-05
0.000151705
0.000341854
0.000124111
5.59924e-05
2.0551e-05
2.19926e-05
0.000159882
0.000338256
0.000306814
0.00014122
2.64606e-05
2.02352e-05
5.29691e-05
0.000115317
0.000309223
0.000147702
2.10075e-05
2.56758e-05
0.000130826
0.000281788
0.000110558
5.21133e-05
2.01386e-05
2.11577e-05
0.000149886
0.000300989
0.00025766
0.000122822
2.70874e-05
2.24141e-05
9.71576e-05
0.000209162
8.22059e-05
3.82328e-05
1.8594e-05
1.77022e-05
0.000100799
0.000205021
0.000193928
9.38209e-05
2.25523e-05
1.79978e-05
3.77615e-05
7.90485e-05
0.000189827
9.66123e-05
1.7258e-05
2.21874e-05
8.86735e-05
0.000176717
7.42332e-05
3.71795e-05
1.81174e-05
1.69021e-05
9.01253e-05
0.000169182
0.000161416
8.56146e-05
2.17393e-05
1.7742e-05
3.54693e-05
7.00067e-05
0.000159223
8.62517e-05
1.66978e-05
2.14985e-05
8.12117e-05
0.00014998
6.70783e-05
3.44363e-05
1.73646e-05
1.62393e-05
7.97184e-05
0.0001463
0.000140567
7.80262e-05
2.12515e-05
1.77803e-05
3.35242e-05
6.33806e-05
0.000137855
7.72283e-05
1.60786e-05
2.10358e-05
7.39811e-05
0.000131359
6.1051e-05
3.31285e-05
1.75004e-05
1.56157e-05
7.15435e-05
0.000124591
0.000121364
6.94652e-05
2.05948e-05
1.72835e-05
3.0195e-05
5.48473e-05
0.000108267
8.12595e-05
1.50647e-05
1.92704e-05
3.81799e-05
6.27986e-05
0.00014338
8.2354e-05
1.73288e-05
2.21991e-05
7.74302e-05
0.000133688
6.51297e-05
3.74557e-05
1.82155e-05
1.64653e-05
7.97572e-05
0.000133961
0.000126091
7.30897e-05
2.13038e-05
1.75868e-05
3.65502e-05
6.19562e-05
0.000129977
7.85215e-05
1.61743e-05
2.12971e-05
7.34655e-05
0.00012373
6.10289e-05
3.68995e-05
1.78029e-05
1.61041e-05
7.39631e-05
0.0001183
0.000111741
6.69214e-05
2.13703e-05
1.77727e-05
3.61005e-05
5.69954e-05
0.000109952
6.93694e-05
1.56799e-05
2.0646e-05
6.30349e-05
0.00010251
5.08185e-05
3.32257e-05
1.72163e-05
1.46666e-05
6.94519e-05
9.14811e-05
5.57272e-05
3.81269e-05
1.90773e-05
1.69221e-05
6.79777e-05
0.000109505
0.000100143
6.16491e-05
2.15733e-05
1.75892e-05
3.67531e-05
5.35186e-05
9.97001e-05
6.50428e-05
1.56496e-05
2.06997e-05
5.99872e-05
9.0402e-05
4.8525e-05
3.46376e-05
1.7363e-05
1.46642e-05
6.4544e-05
8.23107e-05
5.21592e-05
3.7911e-05
1.92255e-05
1.67658e-05
6.50755e-05
0.000100283
9.07971e-05
5.9014e-05
2.13303e-05
1.75283e-05
3.71815e-05
5.08622e-05
9.41944e-05
6.27712e-05
1.56e-05
2.06924e-05
5.70856e-05
8.55011e-05
4.66663e-05
3.47394e-05
1.73016e-05
1.46235e-05
6.03999e-05
7.57712e-05
4.90223e-05
3.73028e-05
1.92633e-05
1.6556e-05
6.06634e-05
9.25554e-05
8.31908e-05
5.55038e-05
2.12184e-05
1.74973e-05
3.70682e-05
4.73464e-05
8.44547e-05
5.7695e-05
1.55672e-05
2.05978e-05
5.28438e-05
7.68715e-05
4.31606e-05
3.40239e-05
1.67423e-05
1.44366e-05
5.45074e-05
6.74881e-05
4.48732e-05
3.60424e-05
1.91659e-05
1.62245e-05
5.49781e-05
8.22041e-05
7.37003e-05
5.03996e-05
2.08964e-05
1.70926e-05
3.49772e-05
4.24733e-05
6.62481e-05
5.5317e-05
1.42185e-05
1.89395e-05
3.70357e-05
4.4739e-05
8.1195e-05
5.38718e-05
1.60274e-05
2.10716e-05
4.97355e-05
7.27285e-05
4.2569e-05
3.5846e-05
1.72715e-05
1.45541e-05
5.37409e-05
6.55241e-05
4.48862e-05
3.78017e-05
1.90879e-05
1.59223e-05
5.4259e-05
8.03854e-05
7.17215e-05
4.98967e-05
2.0926e-05
1.71315e-05
3.59465e-05
4.22214e-05
6.48392e-05
5.45479e-05
1.42844e-05
1.91053e-05
3.79614e-05
4.4465e-05
7.88608e-05
5.30285e-05
1.61064e-05
2.10286e-05
4.93135e-05
7.07283e-05
4.22289e-05
3.6775e-05
1.74063e-05
1.45061e-05
5.45015e-05
6.36634e-05
4.43409e-05
3.88451e-05
1.91718e-05
1.61003e-05
5.26235e-05
7.75389e-05
6.92967e-05
4.85029e-05
2.08512e-05
1.69338e-05
3.63363e-05
4.12495e-05
6.1405e-05
5.29693e-05
1.43239e-05
1.88755e-05
3.95104e-05
4.4114e-05
6.69975e-05
5.14358e-05
1.51563e-05
1.96337e-05
3.97915e-05
4.63594e-05
7.90321e-05
5.26923e-05
1.64811e-05
2.10581e-05
4.90716e-05
7.02842e-05
4.26421e-05
3.77453e-05
1.72278e-05
1.43241e-05
5.42623e-05
6.31014e-05
4.454e-05
4.0272e-05
1.92614e-05
1.6155e-05
5.21985e-05
7.61058e-05
6.82978e-05
4.86382e-05
2.10019e-05
1.69645e-05
3.73863e-05
4.15045e-05
6.06613e-05
5.25513e-05
1.45248e-05
1.91747e-05
4.03e-05
4.43045e-05
6.58104e-05
5.10907e-05
1.55167e-05
1.95825e-05
4.07758e-05
4.62697e-05
7.74982e-05
5.21775e-05
1.6203e-05
2.09462e-05
4.89239e-05
6.92491e-05
4.26861e-05
3.90201e-05
1.73689e-05
1.43018e-05
5.46513e-05
6.18679e-05
4.58403e-05
4.22959e-05
1.92812e-05
1.54776e-05
5.26689e-05
6.75812e-05
4.78651e-05
4.32147e-05
1.98121e-05
1.654e-05
5.28629e-05
7.91014e-05
7.05738e-05
4.9818e-05
2.14268e-05
1.73656e-05
4.01251e-05
4.38022e-05
6.28986e-05
5.5899e-05
1.44714e-05
1.92516e-05
4.29056e-05
4.66234e-05
6.78108e-05
5.35268e-05
1.54826e-05
1.98165e-05
4.36372e-05
4.83444e-05
7.93945e-05
5.36223e-05
1.6513e-05
2.12453e-05
5.06211e-05
7.09868e-05
4.46083e-05
4.14005e-05
1.75576e-05
1.46334e-05
5.65562e-05
6.37195e-05
4.77493e-05
4.44527e-05
1.959e-05
1.586e-05
5.45648e-05
6.90145e-05
4.95556e-05
4.51098e-05
1.99039e-05
1.64651e-05
5.40948e-05
8.01019e-05
7.14352e-05
5.09449e-05
2.11208e-05
1.76367e-05
4.10782e-05
4.45031e-05
6.27136e-05
5.6682e-05
1.45968e-05
1.95714e-05
4.38766e-05
4.69858e-05
6.7136e-05
5.34382e-05
1.5775e-05
2.00463e-05
4.47419e-05
4.85209e-05
7.75223e-05
5.29676e-05
1.66132e-05
2.14189e-05
5.02852e-05
6.93349e-05
4.42269e-05
4.16316e-05
1.79161e-05
1.46906e-05
5.65207e-05
6.22198e-05
4.70866e-05
4.42129e-05
1.94305e-05
1.53968e-05
5.26841e-05
6.64793e-05
4.9481e-05
4.51027e-05
1.96602e-05
1.56566e-05
5.39914e-05
6.92644e-05
5.09683e-05
4.79094e-05
1.9961e-05
1.66434e-05
5.51391e-05
7.94368e-05
7.09704e-05
5.23066e-05
2.13255e-05
1.72859e-05
4.31606e-05
4.56576e-05
6.38102e-05
5.77927e-05
1.47367e-05
1.95865e-05
4.53295e-05
4.84142e-05
6.71045e-05
5.36006e-05
1.58014e-05
1.98885e-05
4.59235e-05
5.03794e-05
6.94324e-05
5.46723e-05
1.57522e-05
1.99765e-05
4.85462e-05
5.14602e-05
7.94333e-05
5.54381e-05
1.65913e-05
2.13091e-05
5.2784e-05
7.12549e-05
4.66023e-05
4.4429e-05
1.78699e-05
1.46672e-05
5.90693e-05
6.43044e-05
4.93734e-05
4.67566e-05
1.97514e-05
1.58488e-05
5.44326e-05
6.85369e-05
5.17033e-05
4.76178e-05
2.00697e-05
1.60307e-05
5.61554e-05
7.09565e-05
5.30833e-05
5.05027e-05
2.0284e-05
1.68945e-05
5.72444e-05
8.0973e-05
7.27122e-05
5.43865e-05
2.15513e-05
1.78939e-05
4.54697e-05
4.80373e-05
6.51195e-05
6.0262e-05
1.47375e-05
1.98434e-05
4.76513e-05
5.04249e-05
6.86376e-05
5.51093e-05
1.57804e-05
2.00731e-05
4.78102e-05
5.20191e-05
7.04348e-05
5.57938e-05
1.59556e-05
2.03955e-05
5.06306e-05
5.3192e-05
7.94968e-05
5.65423e-05
1.68673e-05
2.16532e-05
5.42716e-05
7.20626e-05
4.82514e-05
4.60656e-05
1.75725e-05
1.51265e-05
5.9195e-05
6.4835e-05
5.09241e-05
4.85474e-05
2.00078e-05
1.58739e-05
5.60491e-05
6.89279e-05
5.28132e-05
4.89078e-05
2.00243e-05
1.57705e-05
5.61032e-05
7.06014e-05
5.41299e-05
5.01836e-05
2.00152e-05
1.60477e-05
5.84413e-05
7.24044e-05
5.50172e-05
5.30651e-05
2.02625e-05
1.68422e-05
5.89526e-05
8.1563e-05
7.39205e-05
5.63302e-05
2.15739e-05
1.81529e-05
4.70985e-05
4.9951e-05
6.55044e-05
6.14845e-05
1.48112e-05
2.0106e-05
4.93101e-05
5.20097e-05
6.87346e-05
5.59058e-05
1.60814e-05
2.0344e-05
4.9726e-05
5.34979e-05
7.04763e-05
5.61574e-05
1.59852e-05
2.02185e-05
5.1493e-05
5.47773e-05
7.29485e-05
5.93849e-05
1.61791e-05
2.0424e-05
5.43672e-05
5.5946e-05
8.28652e-05
6.0136e-05
1.69573e-05
2.18239e-05
5.77991e-05
7.52346e-05
5.18124e-05
4.97271e-05
1.82177e-05
1.49665e-05
6.40304e-05
6.80127e-05
5.41072e-05
5.17897e-05
2.00188e-05
1.58349e-05
5.88776e-05
7.20814e-05
5.59901e-05
5.19548e-05
2.02609e-05
1.61214e-05
5.91589e-05
7.37484e-05
5.73267e-05
5.37327e-05
2.02833e-05
1.61665e-05
6.21365e-05
7.58778e-05
5.84064e-05
5.65234e-05
2.04983e-05
1.71581e-05
6.22117e-05
8.49738e-05
7.7415e-05
5.96218e-05
2.18457e-05
1.8399e-05
5.08814e-05
5.36017e-05
6.86793e-05
6.4601e-05
1.52168e-05
2.03064e-05
5.2835e-05
5.56314e-05
7.21239e-05
5.9522e-05
1.62235e-05
2.06093e-05
5.27403e-05
5.71521e-05
7.33388e-05
5.87263e-05
1.62998e-05
2.05878e-05
5.45105e-05
5.80375e-05
7.56101e-05
6.20511e-05
1.65108e-05
2.07364e-05
5.7852e-05
5.8959e-05
8.48691e-05
6.32137e-05
1.7181e-05
2.21246e-05
6.09826e-05
7.79207e-05
5.4865e-05
5.27297e-05
1.84725e-05
1.52589e-05
6.66599e-05
7.03457e-05
5.71675e-05
5.46202e-05
2.03469e-05
1.62018e-05
6.12371e-05
7.39889e-05
5.89843e-05
5.47717e-05
2.06244e-05
1.63546e-05
6.10978e-05
7.58227e-05
6.02983e-05
5.63406e-05
2.05392e-05
1.64667e-05
6.42413e-05
7.77392e-05
6.09536e-05
5.92682e-05
2.06936e-05
1.71908e-05
6.43973e-05
8.64136e-05
7.91799e-05
6.21255e-05
2.21987e-05
1.87427e-05
5.35075e-05
5.61037e-05
7.00297e-05
6.72273e-05
1.53266e-05
2.0529e-05
5.53403e-05
5.79294e-05
7.2592e-05
6.07472e-05
1.63092e-05
2.0777e-05
5.5316e-05
5.91062e-05
7.4111e-05
6.04688e-05
1.64454e-05
2.0658e-05
5.67671e-05
6.01532e-05
7.62025e-05
6.32309e-05
1.64541e-05
2.05721e-05
5.88379e-05
6.17516e-05
7.90344e-05
6.63036e-05
1.64324e-05
2.0769e-05
6.1702e-05
6.27237e-05
8.89201e-05
6.68423e-05
1.72985e-05
2.24519e-05
6.4769e-05
8.18969e-05
5.87886e-05
5.68742e-05
1.85325e-05
1.54739e-05
7.04705e-05
7.40014e-05
6.1327e-05
5.91869e-05
2.06437e-05
1.64704e-05
6.55152e-05
7.77946e-05
6.31593e-05
5.93435e-05
2.0828e-05
1.651e-05
6.60271e-05
8.00406e-05
6.47411e-05
6.10224e-05
2.06713e-05
1.65282e-05
6.90764e-05
8.28609e-05
6.60961e-05
6.41333e-05
2.09135e-05
1.75018e-05
6.94437e-05
9.18622e-05
8.42163e-05
6.71205e-05
2.26506e-05
1.88423e-05
5.87599e-05
6.0892e-05
7.56019e-05
7.26357e-05
1.55866e-05
2.0803e-05
6.07493e-05
6.34261e-05
7.82141e-05
6.68741e-05
1.66336e-05
2.09655e-05
6.03064e-05
6.44649e-05
7.92665e-05
6.59943e-05
1.67441e-05
2.0871e-05
6.18205e-05
6.5386e-05
8.13345e-05
6.86435e-05
1.66797e-05
2.11385e-05
6.50182e-05
6.60896e-05
9.04234e-05
6.93013e-05
1.76004e-05
2.30443e-05
6.76221e-05
8.35359e-05
6.18115e-05
6.04083e-05
1.89035e-05
1.56821e-05
7.33455e-05
7.59718e-05
6.44589e-05
6.27684e-05
2.0984e-05
1.67626e-05
6.86552e-05
7.95875e-05
6.62825e-05
6.2811e-05
2.10946e-05
1.66998e-05
6.86229e-05
8.14664e-05
6.74529e-05
6.43912e-05
2.09767e-05
1.68478e-05
7.0988e-05
8.42233e-05
6.88869e-05
6.7813e-05
2.14181e-05
1.78227e-05
7.21029e-05
9.3347e-05
8.59498e-05
7.03098e-05
2.31651e-05
1.91767e-05
6.27733e-05
6.42217e-05
7.83022e-05
7.6467e-05
1.58176e-05
2.10217e-05
6.43968e-05
6.67216e-05
8.07543e-05
6.99983e-05
1.67973e-05
2.13237e-05
6.42999e-05
6.79259e-05
8.19615e-05
6.96709e-05
1.68789e-05
2.1369e-05
6.61379e-05
6.903e-05
8.41979e-05
7.20099e-05
1.70178e-05
2.18492e-05
6.98454e-05
6.99526e-05
9.34522e-05
7.32308e-05
1.83001e-05
2.38593e-05
7.19683e-05
8.67327e-05
6.64172e-05
6.59616e-05
1.96679e-05
1.63412e-05
7.84719e-05
8.03941e-05
6.91727e-05
6.79313e-05
2.14081e-05
1.70612e-05
7.43375e-05
8.42475e-05
7.11277e-05
6.82403e-05
2.16904e-05
1.7048e-05
7.41607e-05
8.66377e-05
7.19902e-05
7.09024e-05
2.20206e-05
1.85023e-05
7.41173e-05
9.48724e-05
8.76728e-05
7.29167e-05
2.42889e-05
2.01635e-05
6.66253e-05
6.7424e-05
7.97779e-05
7.87418e-05
1.65083e-05
2.17446e-05
6.83311e-05
6.97394e-05
8.26406e-05
7.37245e-05
1.73757e-05
2.21027e-05
6.86219e-05
7.10836e-05
8.46315e-05
7.29672e-05
1.74186e-05
2.25318e-05
7.19229e-05
7.18475e-05
9.29629e-05
7.41383e-05
1.86775e-05
2.45996e-05
7.34141e-05
8.65393e-05
6.80949e-05
6.82165e-05
1.991e-05
1.65419e-05
7.96892e-05
8.04165e-05
7.07337e-05
7.03896e-05
2.19778e-05
1.72997e-05
7.44994e-05
8.41626e-05
7.28011e-05
7.09392e-05
2.23795e-05
1.77812e-05
7.52596e-05
8.6714e-05
7.40555e-05
7.42244e-05
2.2842e-05
1.89098e-05
7.60573e-05
9.45062e-05
8.81178e-05
7.5473e-05
2.50862e-05
2.07468e-05
6.99831e-05
7.04601e-05
8.10093e-05
8.13482e-05
1.67628e-05
2.23695e-05
7.18782e-05
7.2316e-05
8.40972e-05
7.59084e-05
1.77936e-05
2.27483e-05
7.25247e-05
7.3868e-05
8.65268e-05
7.55737e-05
1.79275e-05
2.33181e-05
7.61682e-05
7.48806e-05
9.52147e-05
7.7296e-05
1.94283e-05
2.559e-05
7.70117e-05
8.90822e-05
7.21517e-05
7.32314e-05
2.09208e-05
1.70613e-05
8.39622e-05
8.36993e-05
7.48869e-05
7.55999e-05
2.28968e-05
1.82042e-05
7.9531e-05
8.80805e-05
7.74159e-05
7.65592e-05
2.35014e-05
1.86984e-05
7.94843e-05
9.12067e-05
7.9168e-05
8.04985e-05
2.42224e-05
2.01303e-05
8.15209e-05
9.97821e-05
9.34973e-05
8.14361e-05
2.65915e-05
2.17097e-05
7.69042e-05
7.65325e-05
8.72655e-05
8.80266e-05
1.76858e-05
2.35032e-05
7.91506e-05
7.86548e-05
9.12434e-05
8.25124e-05
1.87282e-05
2.46722e-05
8.17714e-05
8.03444e-05
9.93549e-05
8.18033e-05
2.05134e-05
2.69808e-05
8.12253e-05
9.35586e-05
7.70799e-05
7.85616e-05
2.23544e-05
1.80083e-05
8.85496e-05
8.7983e-05
7.99393e-05
8.11975e-05
2.41042e-05
1.92232e-05
8.4347e-05
9.26017e-05
8.26439e-05
8.27587e-05
2.49204e-05
1.98201e-05
8.46951e-05
9.65004e-05
8.50281e-05
8.75474e-05
2.57698e-05
2.1434e-05
8.78952e-05
0.00010598
9.94577e-05
8.80914e-05
2.83407e-05
2.31018e-05
8.49486e-05
8.32654e-05
9.41268e-05
9.56915e-05
1.87594e-05
2.5112e-05
8.7378e-05
8.62602e-05
9.92685e-05
9.0013e-05
2.01031e-05
2.63893e-05
9.0443e-05
8.81084e-05
0.000108451
8.99451e-05
2.15791e-05
2.88094e-05
9.01721e-05
0.000102437
8.64773e-05
8.87378e-05
2.42601e-05
1.99408e-05
9.78055e-05
9.72543e-05
8.94261e-05
9.19035e-05
2.65076e-05
2.1246e-05
9.38076e-05
0.000103247
9.23022e-05
9.56263e-05
2.78944e-05
2.3265e-05
9.45031e-05
0.000113043
0.000106764
9.49757e-05
3.07437e-05
2.51109e-05
9.29452e-05
9.07259e-05
0.000101951
0.000102566
2.03528e-05
2.76985e-05
9.7593e-05
9.34619e-05
0.000112411
9.57396e-05
2.30984e-05
3.08344e-05
9.5632e-05
0.000106959
9.09308e-05
9.22156e-05
2.50703e-05
2.00106e-05
0.000103254
0.000101288
9.35483e-05
9.51812e-05
2.7245e-05
2.18507e-05
9.62547e-05
0.000105764
9.56425e-05
9.90064e-05
2.90095e-05
2.41718e-05
9.68276e-05
0.000114755
0.000109197
9.81296e-05
3.21206e-05
2.63441e-05
9.72015e-05
9.47169e-05
0.000104614
0.000105259
2.15941e-05
2.9265e-05
0.000102627
9.71816e-05
0.000114593
9.94245e-05
2.45429e-05
3.27445e-05
9.96725e-05
0.000109533
9.59951e-05
9.88946e-05
2.69508e-05
2.17809e-05
0.000106806
0.000105353
9.78384e-05
0.00010349
2.9362e-05
2.39568e-05
9.94127e-05
0.000114958
0.000110074
0.000100247
3.26675e-05
2.72676e-05
9.91871e-05
9.6592e-05
0.000105619
0.000106233
2.2375e-05
3.04756e-05
0.000105346
9.93503e-05
0.000115103
0.000100904
2.52962e-05
3.40444e-05
0.000101714
0.000110401
9.84508e-05
0.000102177
2.80718e-05
2.26852e-05
0.000108555
0.000106937
0.000100717
0.000107358
3.07369e-05
2.53773e-05
0.000102442
0.000116692
0.000112004
0.000103041
3.41465e-05
2.8006e-05
0.000103045
9.97267e-05
0.000108149
0.000111474
2.18423e-05
3.05763e-05
0.000108361
0.000101917
0.000117379
0.000102526
2.57854e-05
3.51266e-05
0.000103657
0.000112886
0.00010203
0.000107347
2.92438e-05
2.39458e-05
0.000111572
0.00011009
0.000105514
0.000114259
3.2593e-05
2.71693e-05
0.000108198
0.000121814
0.000117131
0.000109311
3.63543e-05
2.99988e-05
0.00011171
0.000106401
0.000114869
0.000116567
2.42713e-05
3.30845e-05
0.000118631
0.000109461
0.000126865
0.000112958
2.72345e-05
3.61783e-05
0.000112572
0.000122124
0.000110564
0.000119964
3.14252e-05
2.7177e-05
0.000119559
0.000125014
0.000121043
0.000119123
3.77342e-05
3.18381e-05
0.000118656
0.000112456
0.000121448
0.000122425
2.61972e-05
3.55057e-05
0.000125512
0.000116794
0.000132852
0.00011829
2.9665e-05
3.95022e-05
0.000119853
0.000127972
0.000117571
0.000127758
3.32454e-05
2.82563e-05
0.000127074
0.000132166
0.000128311