/*--------------------------------*- C++ -*----------------------------------*\
| =========                 |                                                 |
| \\      /  F ield         | OpenFOAM: The Open Source CFD Toolbox           |
|  \\    /   O peration     | Version:  v2006                                 |
|   \\  /    A nd           | Website:  www.openfoam.com                      |
|    \\/     M anipulation  |                                                 |
\*---------------------------------------------------------------------------*/
FoamFile
{
    version     2.0;
    format      ascii;
    class       volScalarField;
    location    "0.072";
    object      alphat;
}
// * * * * * * * * * * * * * * * * * * * * * * * * * * * * * * * * * * * * * //

dimensions      [1 -1 -1 0 0 0 0];


internalField   nonuniform List<scalar> 
9148
(
127.249
595.041
2524.34
194.676
19.2043
3.82659
1.46675
0.839416
0.608585
0.502558
0.442515
0.398876
0.362573
0.331345
0.304585
0.281825
0.262494
0.245991
0.231764
0.219365
0.20845
0.198764
0.190112
0.182345
0.175346
0.169022
0.1633
0.158118
0.153429
0.149198
0.145392
0.141988
0.138965
0.136304
0.133991
0.132014
0.130364
0.129038
0.128031
0.127343
0.126981
0.126956
0.127282
0.127982
0.129084
0.130627
0.132659
0.135244
0.138467
0.142438
0.147308
0.153264
0.160511
0.169262
0.179645
0.191946
0.207167
0.228996
0.26768
0.351557
0.54651
0.973668
1.64457
4.03978
1.81085
1.10694
0.619444
0.321544
0.137059
0.0263182
0.00484959
0.00016384
0.000142135
0.00235406
0.0103107
0.00665887
0.00174495
0.000127951
0.000114786
0.00148932
0.00527944
0.00448694
0.00135657
0.000107727
0.000100372
0.00123903
0.00399877
0.00359198
0.00116511
9.55467e-05
9.14486e-05
0.0011024
0.00337965
0.00315033
0.00105232
8.79869e-05
8.5692e-05
0.00103037
0.00303842
0.00286872
0.000989085
8.32857e-05
8.17591e-05
0.000977052
0.00280569
0.00267891
0.000943792
7.99211e-05
7.88176e-05
0.000936017
0.00263326
0.00253042
0.000908155
7.73685e-05
7.65203e-05
0.000902245
0.00249524
0.00240773
0.000878539
7.53396e-05
7.4656e-05
0.000873388
0.00237975
0.00230312
0.000852866
7.36588e-05
7.30877e-05
0.000848294
0.00228036
0.00221189
0.00083006
7.2219e-05
7.17259e-05
0.00082592
0.00219287
0.002131
0.000809401
7.0949e-05
7.05111e-05
0.000805597
0.00211438
0.00205814
0.000790378
6.98001e-05
6.9402e-05
0.000786884
0.00204336
0.00199168
0.000772686
6.87396e-05
6.83713e-05
0.000769468
0.00197836
0.00193044
0.000756073
6.77452e-05
6.73996e-05
0.000753093
0.00191829
0.0018735
0.000740331
6.68009e-05
6.6473e-05
0.000737552
0.00186231
0.00182014
0.000725284
6.58945e-05
6.558e-05
0.000722672
0.00180971
0.00176977
0.000710784
6.50154e-05
6.47104e-05
0.000708306
0.00175996
0.0017219
0.0006967
6.41539e-05
6.38547e-05
0.000694328
0.00171257
0.00167609
0.000682917
6.33008e-05
6.30037e-05
0.000680623
0.00166713
0.00163197
0.000669328
6.24471e-05
6.21491e-05
0.000667082
0.00162326
0.00158915
0.000655825
6.15852e-05
6.12836e-05
0.000653598
0.00158061
0.00154731
0.000642304
6.07082e-05
6.04013e-05
0.000640061
0.00153884
0.00150617
0.000628659
5.98111e-05
5.94975e-05
0.000626369
0.00149767
0.00146543
0.000614794
5.88891e-05
5.85678e-05
0.000612414
0.00145679
0.0014248
0.000600617
5.79378e-05
5.76075e-05
0.000598107
0.00141595
0.00138401
0.000586028
5.69522e-05
5.66117e-05
0.00058335
0.00137485
0.00134273
0.000570902
5.59262e-05
5.55732e-05
0.000567972
0.00133314
0.00130053
0.000555038
5.48503e-05
5.44799e-05
0.000551804
0.00129037
0.00125696
0.000538252
5.37108e-05
5.33187e-05
0.000534569
0.00124602
0.00121131
0.000520196
5.24938e-05
5.20729e-05
0.000515886
0.00119933
0.00116269
0.00050043
5.11812e-05
5.07189e-05
0.000495241
0.00114928
0.0011102
0.000478351
4.97549e-05
4.92221e-05
0.000471859
0.00109456
0.00105202
0.000453412
4.82075e-05
4.75392e-05
0.00044378
0.0010328
0.000985347
0.000423953
4.64872e-05
4.56222e-05
0.000409367
0.000959082
0.000905928
0.000387063
4.45265e-05
4.3363e-05
0.000364873
0.000866151
0.000805739
0.000338082
4.21161e-05
4.06743e-05
0.000300559
0.000740428
0.000664181
0.000265076
4.09216e-05
3.42469e-05
0.000186943
0.00055203
0.000358968
7.05159e-05
1.54183e-05
2.5297e-05
6.06227e-05
0.000187548
0.000179568
0.00016693
3.65641e-05
4.10023e-05
0.000269736
0.000354368
0.000476614
0.000348621
3.93177e-05
3.18482e-05
0.000391593
0.00055
0.00054042
0.000242912
1.49318e-05
6.64505e-06
5.81567e-05
0.00019627
0.000100238
3.06003e-05
3.95929e-06
3.10288e-06
2.45667e-05
8.48497e-05
7.95333e-05
2.02968e-05
2.88448e-06
5.92314e-06
2.67411e-05
0.000100844
0.000119075
3.34036e-05
8.95317e-06
1.19095e-05
4.81231e-05
0.000164076
0.000184438
5.55703e-05
1.30502e-05
1.26947e-05
6.5123e-05
0.000203555
0.000200299
6.47259e-05
1.19662e-05
1.11474e-05
6.22468e-05
0.000185939
0.000159041
5.41529e-05
9.74126e-06
8.91067e-06
4.94825e-05
0.000145793
0.00013288
4.43355e-05
8.57261e-06
9.21625e-06
4.17365e-05
0.000133446
0.00013807
4.29555e-05
1.05943e-05
1.23368e-05
4.53614e-05
0.000146804
0.000160052
4.95751e-05
1.38944e-05
1.50482e-05
5.43707e-05
0.000174575
0.000195117
6.03407e-05
1.60945e-05
1.69766e-05
6.59375e-05
0.000212853
0.00023997
7.265e-05
1.77301e-05
1.83254e-05
7.85707e-05
0.000259323
0.000290839
8.62179e-05
1.88104e-05
1.91485e-05
9.21902e-05
0.000309628
0.000343012
0.000100206
1.94094e-05
1.95525e-05
0.000106151
0.000360454
0.000392353
0.000113477
1.95529e-05
1.94791e-05
0.000118949
0.000406618
0.00043128
0.000125245
1.94036e-05
1.91223e-05
0.000127042
0.000439775
0.00045571
0.00013047
1.88047e-05
1.83332e-05
0.000129044
0.000456518
0.000462417
0.000130689
1.78179e-05
1.71314e-05
0.000125588
0.000449101
0.00044194
0.000124714
1.64148e-05
1.54769e-05
0.000115214
0.000409314
0.000388696
0.000112269
1.45356e-05
1.3334e-05
9.99209e-05
0.000336153
0.000308292
9.61026e-05
1.19563e-05
9.05467e-06
8.47149e-05
0.000249438
0.000221492
8.2837e-05
6.82659e-06
3.90005e-06
6.79384e-05
0.000157677
0.0001337
6.55671e-05
2.41307e-06
3.57555e-06
7.8201e-05
9.94537e-05
0.00012742
0.000157314
0.000154059
0.000154135
0.00014465
0.000141876
0.000136714
0.000135109
0.000133267
0.000133509
0.000134342
0.000136814
0.000140581
0.000145716
0.000151584
0.000158677
0.000165745
0.000171382
0.000192483
0.000186089
8.30778e-05
1.18896e-05
1.97061e-05
2.33139e-05
1.90221e-05
1.21656e-05
6.42571e-07
9.68367e-08
7.74175e-07
5.43586e-06
1.15075e-05
7.79271e-07
7.75433e-08
1.71307e-07
9.00892e-07
1.46597e-05
1.66924e-05
8.59378e-07
1.61724e-07
1.66266e-07
8.9776e-07
1.82105e-05
1.36956e-05
7.07506e-07
1.21844e-07
1.02724e-07
7.59871e-07
1.53769e-05
1.80538e-05
9.90178e-07
1.15511e-07
2.54995e-07
4.70412e-06
5.57822e-05
6.56634e-05
8.25711e-06
4.7561e-07
4.93111e-07
7.69516e-06
5.52525e-05
3.84233e-05
5.21193e-06
4.25641e-07
2.58017e-07
2.08478e-06
1.48833e-05
1.43221e-05
1.4679e-06
1.73582e-07
1.37906e-07
2.76916e-06
2.64835e-05
3.42929e-05
3.69985e-06
1.30011e-07
7.88589e-08
5.11416e-06
4.67749e-05
5.45222e-05
6.85724e-06
1.2622e-07
3.67987e-07
1.11357e-05
7.30316e-05
7.77987e-05
1.33864e-05
6.9735e-07
1.20163e-06
1.88302e-05
9.90675e-05
0.000102979
2.0487e-05
1.68762e-06
2.33546e-06
2.62984e-05
0.000125904
0.000128798
2.72378e-05
2.91106e-06
3.66631e-06
3.34687e-05
0.000153618
0.00015568
3.40075e-05
4.31167e-06
5.15377e-06
4.07884e-05
0.000183225
0.000184553
4.08078e-05
5.88532e-06
6.87825e-06
4.88937e-05
0.00021732
0.000219791
4.89444e-05
7.76768e-06
9.04261e-06
5.97018e-05
0.000261031
0.000266713
6.08742e-05
1.02041e-05
1.16515e-05
7.89289e-05
0.000325825
0.000331924
8.10505e-05
1.24441e-05
1.37667e-05
0.000105213
0.000409671
0.000415973
0.000107402
1.45984e-05
1.63757e-05
0.000137672
0.000512794
0.000529751
0.000146423
1.77113e-05
2.03775e-05
0.000190355
0.00064768
0.000678067
0.000205697
2.24839e-05
2.70127e-05
0.000263821
0.000812426
0.000871276
0.000284936
3.27428e-05
2.67555e-05
0.00035914
0.000942004
0.000328717
7.90378e-05
8.88265e-06
1.99721e-05
0.000304873
0.000924849
0.001067
0.000352917
2.67864e-05
3.83554e-05
0.000474405
0.00135289
0.00157046
0.000569328
4.80226e-05
3.31398e-05
0.000518112
0.00142614
0.000965474
0.000306475
1.36459e-05
4.08145e-05
0.000564462
0.00152495
0.00165358
0.000964671
7.7405e-05
4.23835e-05
0.000297583
0.000914536
0.000984152
0.000514058
4.37e-05
9.22621e-05
0.000766533
0.000980785
0.000892348
0.000823875
6.63695e-05
2.8692e-05
0.000224559
0.000534448
0.000515783
0.000331951
4.13391e-05
5.27406e-05
0.000396526
0.000777815
0.000865657
0.000701798
5.42564e-05
4.39387e-05
0.000188794
0.000451485
0.000526802
0.000234128
3.8784e-05
6.60515e-05
0.000488544
0.000931631
0.00067054
0.000340852
6.80206e-05
3.87547e-05
0.00012769
0.000239568
0.000417049
0.000291215
3.93231e-05
3.66389e-05
0.000132738
0.000236978
0.000397466
0.000287117
3.75689e-05
3.62787e-05
0.000134058
0.000234264
0.000392653
0.000251254
3.72905e-05
4.18036e-05
0.000207058
0.000343503
0.000155017
8.10376e-05
2.63684e-05
2.6373e-05
0.00020548
0.000267834
0.000162938
9.51992e-05
2.79491e-05
2.82235e-05
0.000186217
0.000284781
0.000250903
0.000157048
3.14113e-05
2.23812e-05
6.30142e-05
0.000118768
0.000201422
0.000159706
2.1176e-05
2.38753e-05
7.38644e-05
0.000123423
0.000210321
0.000162348
2.20968e-05
2.47101e-05
7.65686e-05
0.000128949
0.000217175
0.000140091
2.2858e-05
2.64747e-05
0.000115771
0.000189491
9.04067e-05
5.04377e-05
1.96302e-05
1.79753e-05
0.000124555
0.00015259
9.45537e-05
6.04572e-05
2.13091e-05
1.86224e-05
0.000126662
0.000153267
9.55469e-05
6.24764e-05
2.16531e-05
1.87757e-05
0.000119558
0.000156068
9.6408e-05
6.17579e-05
2.15941e-05
1.88405e-05
0.000116417
0.000158202
9.86104e-05
6.27957e-05
2.18208e-05
1.959e-05
0.000105049
0.000168142
0.000145793
8.9224e-05
2.3714e-05
1.80689e-05
4.77417e-05
7.4546e-05
0.000116586
9.67557e-05
1.59985e-05
2.00844e-05
5.52708e-05
7.63167e-05
0.000119251
9.9232e-05
1.68079e-05
2.03402e-05
5.68122e-05
7.77304e-05
0.000122158
9.37331e-05
1.69746e-05
2.02373e-05
5.67951e-05
7.93616e-05
0.000123777
9.38099e-05
1.6658e-05
2.01544e-05
5.66799e-05
7.97235e-05
0.000122548
9.31608e-05
1.67469e-05
1.99712e-05
5.73526e-05
7.96044e-05
0.000121957
9.16042e-05
1.64583e-05
2.01078e-05
5.78264e-05
7.99069e-05
0.000120854
9.26001e-05
1.65893e-05
1.9931e-05
5.7965e-05
7.95405e-05
0.000118866
9.09387e-05
1.63604e-05
2.00064e-05
5.83847e-05
7.91877e-05
0.00011717
9.08504e-05
1.64726e-05
1.9898e-05
5.8197e-05
7.821e-05
0.000115278
8.94653e-05
1.62723e-05
1.99437e-05
5.85629e-05
7.74013e-05
0.000113264
8.89904e-05
1.62689e-05
1.98161e-05
5.80551e-05
7.62645e-05
0.000111069
8.7207e-05
1.60748e-05
1.98856e-05
5.81528e-05
7.51886e-05
0.000107802
8.65342e-05
1.61233e-05
1.96992e-05
5.62912e-05
7.30242e-05
0.000100678
8.45856e-05
1.57274e-05
1.91678e-05
5.32231e-05
6.72252e-05
8.78631e-05
5.68448e-05
1.72278e-05
2.1906e-05
7.82256e-05
0.000140071
9.32224e-05
6.83652e-05
2.24251e-05
1.72689e-05
0.000107181
0.000130439
8.99642e-05
6.94551e-05
2.01783e-05
1.6611e-05
0.000106514
0.000128359
8.80789e-05
6.79798e-05
1.99822e-05
1.63138e-05
0.000102675
0.000123925
8.52136e-05
6.66277e-05
2.00176e-05
1.65214e-05
9.71866e-05
0.000119506
8.28363e-05
6.55932e-05
2.01746e-05
1.62653e-05
9.5968e-05
0.00011447
7.86261e-05
6.22492e-05
1.98794e-05
1.58574e-05
9.09449e-05
0.000105837
7.20681e-05
5.86257e-05
1.95328e-05
1.76303e-05
6.15692e-05
9.10469e-05
0.000141169
8.02536e-05
2.24935e-05
2.34892e-05
7.44566e-05
9.65986e-05
0.000133441
0.000111322
1.79834e-05
2.08785e-05
7.55416e-05
9.36323e-05
0.000130757
0.000111699
1.69401e-05
2.03544e-05
7.34014e-05
9.10775e-05
0.000125559
0.00010799
1.64313e-05
2.00898e-05
6.97876e-05
8.71928e-05
0.000116375
0.000101369
1.61367e-05
1.96479e-05
6.51308e-05
7.9597e-05
0.000100114
6.90469e-05
1.78358e-05
2.29319e-05
8.88797e-05
0.000149743
0.000104517
8.20019e-05
2.41453e-05
1.84301e-05
0.000119226
0.000139253
9.95559e-05
8.16287e-05
2.17555e-05
1.75853e-05
0.000116328
0.000134811
9.59871e-05
7.8779e-05
2.12249e-05
1.71568e-05
0.000111122
0.000128453
9.11738e-05
7.45492e-05
2.08933e-05
1.67022e-05
0.000105449
0.00011816
8.24205e-05
6.87031e-05
2.00339e-05
1.81816e-05
7.20548e-05
0.000101135
0.00014901
8.9253e-05
2.35892e-05
2.51006e-05
8.62698e-05
0.000105928
0.000140761
0.000120771
1.9272e-05
2.29229e-05
8.70827e-05
0.000102035
0.000138503
0.00012141
1.83547e-05
2.21836e-05
8.3307e-05
9.92415e-05
0.000129474
0.000116865
1.75028e-05
2.10132e-05
7.72144e-05
9.1144e-05
0.000113032
8.08211e-05
1.89328e-05
2.44624e-05
0.000100628
0.00016414
0.000117601
9.60117e-05
2.63231e-05
2.01483e-05
0.000133657
0.000152748
0.000111625
9.55782e-05
2.4137e-05
1.93111e-05
0.000131124
0.000148098
0.00010829
9.27681e-05
2.37434e-05
1.90488e-05
0.000125037
0.000142675
0.000103895
8.83891e-05
2.34382e-05
1.8396e-05
0.00012013
0.000132506
9.53528e-05
8.21576e-05
2.225e-05
2.00595e-05
8.49548e-05
0.000114317
0.000165143
0.0001019
2.59083e-05
2.79981e-05
0.000102583
0.000120622
0.000155855
0.000137248
2.1302e-05
2.57592e-05
0.000103511
0.000116201
0.000155097
0.000137491
2.05551e-05
2.547e-05
0.000101386
0.000115029
0.000151507
0.000133057
2.04379e-05
2.52403e-05
9.71192e-05
0.000111752
0.00014219
0.000128103
1.9865e-05
2.40725e-05
9.119e-05
0.000103543
0.000125175
9.43484e-05
2.16718e-05
2.78835e-05
0.000110337
0.000173219
0.000129045
0.00011214
3.00746e-05
2.29461e-05
0.000145309
0.000163819
0.000124563
0.000112514
2.7792e-05
2.20812e-05
0.000144275
0.000161193
0.000121991
0.000109522
2.72705e-05
2.16521e-05
0.000139852
0.000157178
0.0001191
0.000106168
2.71918e-05
2.15463e-05
0.000135502
0.000150321
0.000112681
0.000100926
2.61674e-05
2.36701e-05
0.000103574
0.000134958
0.000184446
0.000118436
3.01068e-05
3.24982e-05
0.000125434
0.000139082
0.000179664
0.000158366
2.49588e-05
3.02974e-05
0.000127909
0.000137844
0.000181647
0.000160903
2.42902e-05
3.00044e-05
0.000127068
0.000138516
0.00018135
0.00016035
2.36994e-05
2.96941e-05
0.000124649
0.000137738
0.000179487
0.000155906
2.37856e-05
3.01474e-05
0.000125508
0.000137698
0.000178454
0.000155101
2.43103e-05
3.04202e-05
0.000125477
0.000137905
0.000176986
0.000155281
2.40918e-05
3.02294e-05
0.000123768
0.000136848
0.000174116
0.000152436
2.4035e-05
3.06726e-05
0.000125135
0.000136789
0.000173128
0.000151899
2.46549e-05
3.09681e-05
0.000124976
0.000137077
0.000171082
0.000152892
2.42975e-05
3.04644e-05
0.000120733
0.000135072
0.000163795
0.00014835
2.38538e-05
2.98511e-05
0.000119207
0.000130839
0.000148813
0.000122165
2.73814e-05
3.48458e-05
0.000130044
0.000196143
0.000154671
0.000149138
3.7597e-05
2.82734e-05
0.000176672
0.000198299
0.000157796
0.000159794
3.53284e-05
2.99701e-05
0.000176328
0.000223072
0.000204042
0.000168517
3.85916e-05
3.06859e-05
0.000141826
0.000149079
0.000180113
0.000181238
2.43675e-05
3.28657e-05
0.000142314
0.000148533
0.000186344
0.000163587
2.66854e-05
3.46261e-05
0.000141369
0.000151654
0.000187958
0.000161914
2.74698e-05
3.44059e-05
0.000141791
0.000152302
0.000187804
0.000163614
2.67187e-05
3.50259e-05
0.000149048
0.000155352
0.000192874
0.000169229
2.79901e-05
3.56262e-05
0.000153993
0.000159622
0.000198111
0.000175013
2.70186e-05
3.54144e-05
0.000161204
0.000161876
0.000218047
0.00017275
3.04263e-05
4.0092e-05
0.000169101
0.000201758
0.000155075
0.000154529
3.2881e-05
2.57343e-05
0.00018033
0.000183993
0.000158549
0.000158843
3.59287e-05
2.90796e-05
0.000171581
0.00019527
0.000163565
0.000167338
3.77492e-05
3.11185e-05
0.000175064
0.000221141
0.000205963
0.00017344
4.16449e-05
3.60559e-05
0.000171935
0.000160332
0.000208917
0.000182969
2.99169e-05
4.12776e-05
0.000179108
0.000200862
0.000164049
0.000176028
3.77744e-05
3.05493e-05
0.000185499
0.000210301
0.000200837
0.000189758
4.61286e-05
4.06175e-05
0.0001782
0.000188297
0.000158058
0.000169725
3.92056e-05
3.4282e-05
0.000173904
0.000200605
0.000194387
0.000176936
5.0388e-05
5.61758e-05
0.000195527
0.000188065
0.0001846
0.000192124
6.42514e-05
8.00507e-05
0.000203112
0.000190629
0.000197677
0.000211351
9.29335e-05
0.000100879
0.000235205
0.000206711
0.000211536
0.000243872
9.97131e-05
9.58244e-05
0.000255993
0.000216036
0.00022325
0.000268397
9.0804e-05
8.59336e-05
0.00027671
0.000229382
0.000238029
0.00029205
8.11401e-05
7.66407e-05
0.00029983
0.000247805
0.000258012
0.000311738
7.25646e-05
6.91417e-05
0.000314109
0.000276543
0.000289352
0.000314809
6.60747e-05
6.34814e-05
0.000316796
0.000314746
0.000327776
0.000318431
6.11579e-05
5.91843e-05
0.000321617
0.000353833
0.000367015
0.000325124
5.74531e-05
5.59859e-05
0.000329768
0.000393633
0.000404945
0.000334865
5.47589e-05
5.3729e-05
0.000340757
0.000430622
0.000432694
0.000347509
5.296e-05
5.22943e-05
0.000354645
0.000458003
0.000460851
0.000362549
5.19232e-05
5.15148e-05
0.00037046
0.000485524
0.000488473
0.000379279
5.15122e-05
5.11813e-05
0.000387787
0.000512751
0.000515388
0.000397319
5.16131e-05
5.14267e-05
0.000405731
0.000538926
0.000541858
0.000415493
5.19344e-05
5.19255e-05
0.000423588
0.000564527
0.000566825
0.000432508
5.24111e-05
5.24586e-05
0.000439746
0.000587831
0.000589922
0.000447827
5.29002e-05
5.29428e-05
0.000454235
0.000609219
0.000611006
0.000461171
5.33375e-05
5.33424e-05
0.000466602
0.000629019
0.000630924
0.000472495
5.37221e-05
5.36674e-05
0.000477319
0.000647647
0.000649513
0.000482082
5.40117e-05
5.3923e-05
0.000486172
0.000665525
0.000668316
0.000490084
5.42441e-05
5.41152e-05
0.000493838
0.000682803
0.000686006
0.000496924
5.44151e-05
5.42706e-05
0.000500211
0.000699962
0.000703128
0.000502727
5.45627e-05
5.43916e-05
0.000505808
0.000716926
0.000719037
0.000507753
5.46689e-05
5.44936e-05
0.000510384
0.000733132
0.00073471
0.00051198
5.47644e-05
5.45715e-05
0.000514356
0.000748384
0.000749473
0.000515543
5.48279e-05
5.46377e-05
0.000517442
0.000763013
0.000763987
0.000518405
5.48867e-05
5.46843e-05
0.00052004
0.000776858
0.000777289
0.000520675
5.49168e-05
5.47213e-05
0.000521842
0.000790106
0.000790361
0.000522308
5.4944e-05
5.47406e-05
0.00052324
0.00080248
0.000802141
0.000523425
5.49458e-05
5.47523e-05
0.000523942
0.000814251
0.000813691
0.000523997
5.49474e-05
5.47502e-05
0.00052434
0.000825084
0.0008239
0.000524147
5.49292e-05
5.47431e-05
0.000524145
0.000835267
0.000833879
0.000523879
5.49129e-05
5.47264e-05
0.000523769
0.000844621
0.000842506
0.000523284
5.48815e-05
5.47059e-05
0.000522915
0.000853272
0.000850963
0.000522402
5.48519e-05
5.46804e-05
0.000521973
0.000860644
0.000858175
0.000521251
5.48155e-05
5.46563e-05
0.000520606
0.00086286
0.000864634
0.000519861
5.47814e-05
5.46266e-05
0.000519171
0.000864302
0.000869512
0.00051818
5.47394e-05
5.45962e-05
0.000517272
0.000865105
0.000873821
0.000516142
5.4699e-05
5.45604e-05
0.000515276
0.000865558
0.000874844
0.000514075
5.46527e-05
5.4524e-05
0.000513042
0.000865283
0.000874341
0.000511897
5.46094e-05
5.44851e-05
0.000510841
0.000864358
0.000872994
0.000509474
5.45601e-05
5.4444e-05
0.00050828
0.000863091
0.00087153
0.000506961
5.45119e-05
5.44005e-05
0.0005058
0.000861363
0.000869457
0.000504289
5.44595e-05
5.43558e-05
0.00050305
0.000859461
0.000867423
0.000501618
5.44094e-05
5.43099e-05
0.000500463
0.000857229
0.000864912
0.000498872
5.43569e-05
5.42646e-05
0.000497683
0.000854978
0.000862577
0.000496199
5.43084e-05
5.42203e-05
0.000495142
0.000852507
0.000859873
0.000493518
5.42598e-05
5.41783e-05
0.000492457
0.000850112
0.000857426
0.000490955
5.42161e-05
5.41384e-05
0.000490051
0.000847628
0.000854576
0.00048842
5.41734e-05
5.41018e-05
0.000487522
0.00084527
0.000852259
0.000486024
5.4136e-05
5.40677e-05
0.000485293
0.000842918
0.000849429
0.000483687
5.41e-05
5.4037e-05
0.000482963
0.000840571
0.000847219
0.000481498
5.40691e-05
5.40091e-05
0.000480942
0.000838289
0.000844461
0.000479373
5.40399e-05
5.39848e-05
0.000478818
0.000836002
0.00084234
0.000477395
5.40156e-05
5.39629e-05
0.000477002
0.000833793
0.000839694
0.000475483
5.39927e-05
5.39442e-05
0.000475083
0.000831591
0.00083771
0.000473713
5.39742e-05
5.39276e-05
0.000473468
0.000829469
0.000835221
0.000472006
5.39571e-05
5.39144e-05
0.00047174
0.000827348
0.000833425
0.000470421
5.39438e-05
5.39025e-05
0.000470307
0.000825294
0.000831161
0.000468909
5.39314e-05
5.38936e-05
0.000468753
0.000823265
0.000829571
0.000467535
5.39228e-05
5.38861e-05
0.000467484
0.000821353
0.000827447
0.000466185
5.39147e-05
5.38809e-05
0.000466089
0.000819465
0.000825985
0.000464963
5.39099e-05
5.3877e-05
0.00046497
0.000817692
0.000823985
0.00046376
5.39053e-05
5.3875e-05
0.000463718
0.000815941
0.000822654
0.000462675
5.39036e-05
5.38741e-05
0.000462734
0.000814312
0.000820781
0.000461602
5.3902e-05
5.38749e-05
0.00046161
0.000812692
0.000819567
0.00046064
5.3903e-05
5.38765e-05
0.000460745
0.000811185
0.000817809
0.000459683
5.3904e-05
5.38796e-05
0.000459734
0.00080969
0.000816714
0.000458828
5.39072e-05
5.38833e-05
0.000458975
0.000808309
0.000815072
0.000457975
5.39102e-05
5.38883e-05
0.000458065
0.000806932
0.000814084
0.000457218
5.39153e-05
5.38937e-05
0.000457404
0.000805661
0.000812549
0.000456458
5.392e-05
5.39002e-05
0.000456586
0.000804414
0.000811652
0.00045579
5.39267e-05
5.39072e-05
0.000456011
0.000803276
0.000810213
0.000455113
5.3933e-05
5.39151e-05
0.000455275
0.000802152
0.000809383
0.000454521
5.3941e-05
5.39233e-05
0.000454775
0.000801101
0.00080803
0.000453918
5.39486e-05
5.39324e-05
0.000454112
0.000800065
0.000807295
0.000453396
5.39578e-05
5.39416e-05
0.00045368
0.000799113
0.000806043
0.000452859
5.39664e-05
5.39516e-05
0.000453082
0.000798168
0.000805391
0.000452398
5.39765e-05
5.39617e-05
0.00045271
0.000797289
0.000804209
0.000451921
5.3986e-05
5.39725e-05
0.000452169
0.000796413
0.00080363
0.000451515
5.39969e-05
5.39833e-05
0.00045185
0.000795601
0.000802523
0.000451089
5.40071e-05
5.39948e-05
0.000451357
0.00079477
0.000802003
0.000450729
5.40187e-05
5.40061e-05
0.000451083
0.000794025
0.000800964
0.000450347
5.40294e-05
5.4018e-05
0.000450635
0.000793261
0.000800514
0.00045003
5.40413e-05
5.40296e-05
0.000450402
0.000792587
0.000799543
0.00044969
5.40525e-05
5.40418e-05
0.000449995
0.000791885
0.000799145
0.000449412
5.4065e-05
5.40539e-05
0.000449802
0.000791256
0.000798221
0.000449112
5.40769e-05
5.40667e-05
0.000449435
0.000790611
0.000797898
0.000448873
5.40902e-05
5.40796e-05
0.000449279
0.000790073
0.00079707
0.000448607
5.41029e-05
5.40932e-05
0.000448942
0.000789506
0.00079679
0.000448395
5.41171e-05
5.41072e-05
0.000448811
0.000788973
0.000795939
0.000448153
5.4131e-05
5.41222e-05
0.000448501
0.000788384
0.000795665
0.000447966
5.41466e-05
5.41376e-05
0.000448394
0.000787904
0.000794907
0.000447744
5.41615e-05
5.4154e-05
0.000448098
0.000787412
0.000794695
0.000447564
5.41778e-05
5.41704e-05
0.000447977
0.00078685
0.000793938
0.000447357
5.41916e-05
5.41857e-05
0.000447797
0.000786396
0.00079339
0.000447467
5.42453e-05
5.42664e-05
0.000447803
0.00078614
0.0007932
0.000447095
5.42853e-05
5.43098e-05
0.000447668
0.000785804
0.000793574
0.000447409
5.44622e-05
5.44666e-05
0.000448468
0.000785848
0.000799088
0.000449603
5.48503e-05
5.50569e-05
0.000451217
0.000791513
0.000810252
0.000455046
5.58178e-05
5.60736e-05
0.000457688
0.000804958
0.000829751
0.000466028
5.80725e-05
6.01384e-05
0.000480683
0.000880264
0.000922113
0.000502971
6.29025e-05
0.00148887
0.00238018
0.00344344
0.0037975
0.00469467
0.00902609
0.0116852
0.0128203
0.013884
0.0246591
0.0302634
0.0369327
0.04558
0.0583936
0.0787512
0.110193
0.156374
0.219806
0.302203
0.404118
0.525082
0.663496
0.816886
0.981472
1.15321
1.32477
1.49032
1.63716
1.7591
1.84762
1.90318
1.92948
1.95279
1.99444
2.05287
2.1261
2.21129
2.30833
2.41576
2.53587
2.67022
2.82273
2.99791
3.20245
3.4459
3.74345
2.64354
1.72619
1.28236
1.06667
0.940911
0.845704
0.760862
0.682771
0.611798
0.54782
0.490027
0.437629
0.390154
0.347364
0.309066
0.274999
0.24483
0.218174
0.194645
0.173882
0.155561
0.139398
0.125145
0.112584
0.101522
0.0917907
0.0832397
0.075737
0.0691658
0.0634224
0.0584151
0.0540625
0.0502919
0.0470386
0.0442453
0.0418611
0.0398406
0.0381441
0.0367365
0.0355871
0.0346691
0.0339596
0.0334384
0.0330885
0.0328953
0.0328466
0.0329318
0.0331422
0.0334707
0.0339115
0.0344595
0.0351112
0.0358636
0.0367139
0.0376617
0.0387062
0.0398473
0.0410852
0.0424205
0.0438547
0.0453898
0.0470281
0.0487724
0.0506263
0.0525937
0.0546793
0.056888
0.0592258
0.0616997
0.0643174
0.0670876
0.0700204
0.0731266
0.076419
0.0799111
0.0836178
0.0875562
0.091744
0.0962008
0.100948
0.106009
0.111412
0.117187
0.123368
0.129996
0.137121
0.144801
0.153105
0.162116
0.171935
0.182683
0.194508
0.20759
0.222153
0.23848
0.256934
0.277983
0.302249
0.330579
0.364164
0.404743
0.454919
0.519053
0.605684
0.73401
0.944857
1.316
2.05142
3.95079
11.5965
71.6369
27.0865
8.88274
3.24408
1.5138
0.902945
0.66532
0.565977
0.515606
0.477822
0.441889
0.407261
0.375373
0.347128
0.322635
0.30152
0.283248
0.267317
0.253319
0.240937
0.229915
0.220084
0.211311
0.203452
0.19639
0.190036
0.18432
0.179187
0.174594
0.170499
0.166872
0.163687
0.160919
0.158554
0.156585
0.155007
0.153817
0.153014
0.152583
0.15254
0.15293
0.153785
0.155142
0.157047
0.159554
0.162739
0.166698
0.171556
0.177466
0.184599
0.193064
0.202766
0.213232
0.223727
0.234545
0.250469
0.286224
0.376497
0.59922
1.04583
0.974614
0.448056
0.121332
0.0537106
0.0183076
0.0155885
0.0143154
0.0128107
0.012124
0.0111476
0.0107192
0.0100111
0.00971752
0.00917286
0.0089527
0.00851865
0.00834695
0.00798854
0.00785029
0.00754528
0.00743126
0.00716557
0.00706955
0.00683406
0.00675125
0.00654002
0.00646694
0.00627542
0.00620999
0.00603428
0.00597495
0.00581224
0.00575787
0.00560596
0.00555561
0.0054127
0.00536559
0.00523018
0.00518564
0.00505644
0.00501392
0.00488981
0.00484879
0.0047288
0.00468882
0.00457208
0.00453276
0.00441853
0.00437954
0.00426718
0.00422813
0.00411692
0.0040774
0.00396654
0.00392602
0.00381452
0.00377261
0.00365971
0.00361575
0.00350023
0.00345337
0.00333373
0.0032829
0.00315725
0.00310089
0.00296666
0.00290238
0.00275568
0.00267952
0.00251419
0.00241916
0.00222762
0.00209478
0.00182157
0.00157474
0.00128052
0.00101905
0.000696128
0.000594919
0.000615478
0.00074671
0.000901136
0.000309533
0.000167361
0.000170874
0.000264882
0.000420053
0.000469528
0.000612338
0.000663736
0.000711888
0.000688631
0.000663606
0.000605265
0.000577815
0.000550846
0.000559746
0.000581889
0.000611811
0.000667103
0.000713682
0.000784309
0.000836894
0.000913876
0.000964035
0.00103911
0.00107964
0.00114278
0.00117133
0.00121123
0.00122506
0.00124274
0.00123389
0.00123009
0.00119977
0.00117565
0.00110863
0.0010616
0.000952819
0.000880778
0.00072531
0.000639947
0.000468193
0.000389423
0.000234794
0.000169517
0.000224337
0.000289232
0.000577499
0.000369435
0.000668143
0.00101191
0.00125088
0.000807883
0.00111968
0.00156864
0.00207578
0.00131396
0.000848205
0.000382186
0.000489918
0.001096
0.00148235
0.00203188
0.00136365
0.000625456
0.000754159
0.00153532
0.00216024
0.00284955
0.00364082
0.00289058
0.00179205
0.00127401
0.00154051
0.00199936
0.00217188
0.00161039
0.00180227
0.00249722
0.00335366
0.00361926
0.0024421
0.001839
0.00197062
0.00271283
0.00262046
0.00198243
0.00207375
0.0028415
0.00377408
0.00386134
0.00269993
0.0020523
0.00211529
0.00288986
0.00272303
0.00206773
0.00210149
0.00287719
0.00386185
0.00381508
0.00269916
0.00203497
0.00203635
0.00282349
0.00263816
0.00195423
0.00194136
0.00273687
0.00370389
0.00356819
0.00254186
0.00183604
0.00181182
0.00261837
0.00239517
0.00168844
0.00165793
0.00247008
0.00307646
0.00256099
0.00223774
0.00152795
0.00149757
0.00231166
0.00209058
0.00138114
0.00136242
0.00215263
0.00190463
0.00116584
0.00172201
0.00129108
0.00130355
0.00169493
0.0011231
0.00130086
0.00119194
0.00118644
0.000878431
0.00133231
0.000745276
0.00134517
0.00120158
0.00109246
0.000705579
0.0013846
0.00072846
0.000714745
0.00157724
0.00172586
0.000498065
0.000577147
0.000353746
0.000518973
0.000670724
0.000292058
0.000218042
0.000909187
0.0025367
0.00341122
0.00127483
0.000439089
0.000858234
0.00162641
0.00194535
0.00103582
0.00120978
0.00206126
0.00490834
0.0068286
0.00270386
0.00121275
0.00129044
0.00287211
0.00420405
0.00175923
0.00200099
0.00409115
0.00883029
0.0110341
0.00566924
0.00271271
0.00303647
0.0055022
0.00686603
0.00373584
0.00399251
0.00680241
0.0129916
0.0148043
0.00801738
0.00455178
0.00470748
0.00786667
0.00928674
0.00519857
0.00528715
0.00876672
0.0164757
0.0180636
0.0101633
0.00573886
0.00578636
0.00955939
0.0109609
0.00621267
0.00623071
0.0102835
0.0195608
0.021016
0.0117081
0.00664415
0.00664267
0.0109632
0.0124083
0.00704692
0.00703212
0.0116117
0.0224535
0.0238884
0.0130864
0.00742937
0.00740349
0.0122393
0.0137499
0.00779788
0.00776266
0.0128537
0.0253315
0.0267928
0.0144046
0.00815748
0.0081144
0.0134605
0.0150553
0.0085126
0.00846301
0.0140652
0.0282798
0.0297994
0.0157074
0.00886648
0.00881036
0.0146744
0.0163683
0.00922124
0.00915965
0.0152884
0.0313546
0.0329499
0.0170444
0.00958041
0.00951421
0.0159145
0.01774
0.0099474
0.00987751
0.0165631
0.0345916
0.0362932
0.0184633
0.0103256
0.0102529
0.0172461
0.0192296
0.0107181
0.0106429
0.017968
0.0380911
0.0400086
0.0200419
0.0111277
0.0110506
0.0187323
0.0209048
0.0115583
0.0114801
0.0195474
0.0420782
0.0443302
0.0218288
0.0120145
0.0119363
0.020424
0.0228266
0.0125019
0.0124249
0.0213748
0.0468037
0.0495464
0.0239134
0.0130272
0.0129528
0.0224151
0.025108
0.0135985
0.0135286
0.0235646
0.0526185
0.056094
0.0264346
0.0142258
0.0141625
0.0248471
0.0279231
0.0149212
0.0148666
0.0262872
0.0600579
0.0646032
0.0296038
0.0157006
0.0156593
0.0279169
0.0315359
0.0165884
0.0165661
0.0298047
0.0699155
0.0762727
0.0337961
0.0176165
0.0176217
0.0320323
0.0364919
0.0188296
0.0188753
0.0347219
0.0840686
0.0938896
0.0397846
0.0202923
0.0203981
0.0380589
0.0439371
0.0221148
0.0223424
0.0423412
0.106687
0.124115
0.0493497
0.024467
0.0248948
0.0480501
0.0567936
0.0276672
0.0284322
0.0561638
0.149428
0.190126
0.0677242
0.0323086
0.0338406
0.068848
0.0855567
0.0396172
0.0433855
0.0924945
0.266519
0.585877
0.41067
0.317453
0.260298
0.221349
0.19288
0.171048
0.153741
0.139607
0.127668
0.117485
0.108701
0.101049
0.0943173
0.0883386
0.0829801
0.0781356
0.0737207
0.0696652
0.0659146
0.0624096
0.0577381
0.0529839
0.048571
0.0445063
0.0407527
0.0372964
0.0341267
0.0312243
0.0285797
0.0261987
0.0241185