/*--------------------------------*- C++ -*----------------------------------*\
| =========                 |                                                 |
| \\      /  F ield         | OpenFOAM: The Open Source CFD Toolbox           |
|  \\    /   O peration     | Version:  v2006                                 |
|   \\  /    A nd           | Website:  www.openfoam.com                      |
|    \\/     M anipulation  |                                                 |
\*---------------------------------------------------------------------------*/
FoamFile
{
    version     2.0;
    format      ascii;
    class       volScalarField;
    location    "0.072";
    object      omega;
}
// * * * * * * * * * * * * * * * * * * * * * * * * * * * * * * * * * * * * * //

dimensions      [0 0 -1 0 0 0 0];


internalField   nonuniform List<scalar> 
9148
(
0.0104033
0.0104031
0.0104029
0.0104029
0.0104028
0.0104025
0.0103996
0.0103915
0.0103772
0.0103582
0.0103366
0.0103135
0.0102891
0.0102633
0.0102358
0.0102064
0.0101751
0.0101419
0.0101067
0.0100696
0.0100308
0.00999019
0.00994794
0.00990408
0.0098587
0.00981185
0.00976364
0.00971414
0.00966344
0.00961163
0.00955882
0.0095051
0.00945057
0.00939535
0.00933956
0.00928331
0.00922674
0.00916995
0.0091131
0.0090563
0.00899968
0.00894338
0.00888754
0.00883229
0.00877775
0.00872406
0.00867152
0.00862182
0.00858589
0.00862881
0.00886606
0.00967917
0.0121742
0.0194532
0.0399619
0.0958899
0.244467
0.626823
1.52653
3.24868
5.02079
7.66722
10.1699
12.3433
10.0646
26.0518
63.0119
166.243
630.992
5035.45
26811.1
353610
339519
52187.6
12648.3
18944.6
65190.6
328383
318921
70826
23012.6
25926.4
72367.3
307007
299717
74411.4
27992.7
29789.1
74354.5
291988
287041
75058.3
30654.2
31595.6
74718.7
281736
277633
74086.9
31906.7
32582.9
73946.2
273142
270085
73359
32618.6
33057.2
73272.3
266540
264117
72789.7
33041.4
33370.1
72758
261176
259160
72374.1
33333.9
33606.2
72382.3
256638
254884
72078.6
33558.5
33796.5
72109.4
252649
251075
71857.7
33741.5
33957
71903.7
249041
247590
71686.8
33897.2
34096.9
71742.1
245697
244329
71546.2
34033.4
34220.9
71606.1
242533
241221
71420.7
34154.5
34331.9
71481.9
239494
238218
71299.6
34263.1
34431.8
71360.1
236535
235281
71176.3
34361
34522.3
71234.6
233625
232379
71046.1
34449.8
34604.6
71101.1
230735
229488
70905.6
34530.8
34680
70956.5
227841
226582
70752.1
34605.1
34749.4
70798.1
224921
223640
70583.1
34673.7
34813.6
70623.4
221953
220642
70396.3
34737.2
34873.3
70430.2
218918
217568
70189.8
34796.6
34929.8
70216.8
215796
214399
69962.3
34852.9
34984.3
69982.1
212568
211115
69712.9
34907.5
35037.5
69725.3
209212
207694
69440.8
34961.8
35091.3
69445
205708
204113
69145.9
35017.7
35148.2
69139.7
202029
200347
68826.1
35077.3
35210.5
68808.1
198152
196369
68479.3
35142.9
35281.2
68450.1
194044
192144
68108.7
35218.4
35365.5
68068.1
189667
187630
67712.6
35308.9
35469.5
67662.4
184977
182779
67298.6
35422.3
35605.5
67242.5
179916
177520
66877.3
35572.6
35791.9
66820.8
174406
171760
66465.9
35781
36048
66419.6
168346
165355
66097.2
36081.7
36429.2
66076.2
161600
158092
65848.9
36545.2
37039.5
65879.9
153893
149645
65823.4
37303.5
38065.7
66019.9
144784
139415
66206.2
38646.5
39928.1
66836.2
133390
126373
67652.6
41286.6
43884.2
69410.6
119327
107565
72422.7
47694
55911.9
79079.8
94354.2
100829
75262.3
59243.5
60330.4
59988.3
108563
111734
46452.4
53051.7
42050.1
38093.3
112508
107581
29855.7
31962.2
22182.3
20980.9
94774.8
88974.3
17315.6
13312.2
11570.7
22804.6
87400.5
86884.9
27447.2
13257.7
14728.2
32799.2
86761.6
88528.7
33897
14759.2
13789.8
33998.8
90346.4
92141.4
29214.4
11389.2
10518.6
27136.2
92923.1
93178.5
23931
9734.76
9618.26
23314.9
92624.2
91812.9
23450
10006.6
11094
25502.2
90790.8
90285.7
27237.6
11898.2
12992.5
29610.8
90083.3
90476.1
31293.6
13579.4
13809.3
32178.6
91319.4
92391.9
32600.2
13929.2
13754.3
32651
93662.7
95013.4
32392.5
13489.7
13006.3
31822.3
96393.7
97723.5
31149.4
12634.5
12030.1
30210.2
98984.3
100117
29286.3
11641.7
11018.8
28125.8
101125
101955
27070.2
10663.7
10076.6
25792.1
102641
103131
24697.7
9782.32
9260.43
23387.2
103402
103499
22341
9041.6
8632.32
21161.1
103478
103155
20401.2
8483.82
8199.61
19581.6
102677
101939
18971.3
8071.68
7861.97
18168
101043
99889.6
17602.4
7779.34
7662.34
16855.7
98648.3
97045.8
16309.2
7643.45
7625.63
15651.9
95642.3
93157.5
15106.4
7677.04
7779.28
14521.7
90977.7
86745.4
13944.7
7942.93
8199.71
13308.5
84487.8
81249.7
12674.5
8460.39
8531.72
11677.8
79050.6
40845.1
7554.74
8538.65
10231.3
11729.2
13150
13950.8
14881.9
15467.5
15996.2
16377.8
16665.7
16896.9
17054.6
17161.6
17190.2
17133.6
16884
16589.8
15890.4
15244.3
14474.8
14993.1
20553.1
43381
29118
19079.7
17926.7
21966.8
121425
397973
80117.1
28023
24854.5
98746.2
775475
564995
85721
22049.2
22161.4
80871.8
495839
492519
80336.9
23013.5
26501.5
86827.6
498501
505283
81477.7
25920.3
26396.6
79126.5
511627
518865
74622.7
31248.2
39488.2
78180.4
525630
526039
84565.3
48170.2
58704.6
96444.6
525929
525224
101172
72074.2
78759.6
106372
525012
524933
116301
75053.6
75370.1
135895
525306
525192
147457
73386.4
72086.3
152632
525743
526094
152585
67623.6
67509.7
154087
527511
528966
151153
63450.9
63845.4
152204
530926
533204
147472
60696.5
61467.7
149859
535199
537903
144625
59094
60228.1
147234
540170
543236
141880
58376.1
59844.7
145333
545891
549557
140254
58174.2
59608.3
144074
552798
557491
138967
57774.9
58757.3
142272
561767
567349
132683
55852.2
56550.6
133085
570323
562420
123714
53312.7
53873.8
123108
545389
526202
115730
50704
50799.8
112628
495324
464340
103817
47757.8
47881.8
100642
428756
396176
93600.6
45754.1
46434
94815.6
351957
525168
93931.8
47647.9
94500.1
221382
798141
551752
109143
51778.1
49145.9
102119
446298
391079
92125.3
44700.7
43571
88201.9
350690
502242
104019
50185.8
70157.2
152162
739026
533975
116508
55945.7
40701.9
89577.2
486316
573693
193592
97193.4
76874.9
159353
846433
614242
105380
46896.4
64853.6
94914.1
651768
1.26939e+06
405690
174626
97330.6
186212
1.21978e+06
957822
195676
90422.7
54024.5
123107
938216
1.20101e+06
699858
335882
273033
503493
1.38178e+06
794039
263358
160045
194010
328844
758336
1.2227e+06
637876
371607
239935
310203
1.08574e+06
960646
515934
319166
209475
264219
878116
786470
433983
272787
180048
248000
680522
595748
265604
182374
279719
492362
970120
836816
214869
185616
238746
380690
748838
620145
206039
156072
157176
222789
531308
917547
447805
245146
163086
184446
799770
751145
357357
216997
144754
167567
664431
634379
321697
194294
129156
177553
542394
483895
200611
133283
224667
427334
884665
775957
169549
146106
203146
347141
748499
683315
153577
136116
191012
324663
674194
628115
152817
128678
182890
314945
632233
586026
151733
123786
174046
297043
581625
503911
164334
114198
119260
188434
461231
862645
410561
213233
138877
158772
761619
752639
343458
199290
132356
147125
685526
695188
329307
192983
127099
153487
653019
671005
327608
187311
125229
151686
646142
666680
328219
186550
125412
151551
637557
667661
326446
186711
125488
153804
639680
658247
327351
186563
126107
151924
630917
662894
329703
187972
127118
155321
645528
671030
332986
189266
128363
155346
643434
677893
338236
192446
130341
158899
660257
691882
344737
196050
132827
160923
669083
707298
353718
200379
135500
165243
688485
724513
362494
205549
139366
168091
706895
755133
379995
213446
147300
170918
771700
856400
431862
234631
175672
311665
921604
496214
167270
120359
177552
294060
572653
602426
143396
128306
189214
320360
644984
636907
154652
131412
197734
344560
681650
677368
163204
136394
206575
362954
721511
697561
173979
141979
215095
377434
742466
742505
176067
147960
229198
409513
808544
825132
185839
159450
255278
465138
914487
989009
338487
192112
131652
183241
539509
623633
322184
195206
140083
157403
645858
697511
351518
208675
144109
169389
687620
738983
379535
219275
151416
178136
732586
794504
410922
233271
163260
190124
807943
901245
467606
260995
197878
342020
989361
550197
187153
137796
203417
333145
643791
676465
166483
148611
221101
374454
737337
731594
184297
155148
234527
406112
791214
781064
195012
163962
250727
439308
849859
874968
204519
178219
283458
505584
986424
1.06407e+06
372119
214849
149571
203860
594372
695806
359856
220446
159203
179329
714656
784507
399890
237724
165546
194728
771783
847965
440833
253876
180185
207768
859617
963521
502979
285104
216945
373141
1.04574e+06
593423
206867
152037
223935
363275
696607
730631
184343
164643
246383
413775
809951
794828
204107
173639
262181
451666
868782
847597
220568
184054
280842
486126
929923
932060
229608
199906
314031
550860
1.04951e+06
1.12859e+06
408248
240909
166938
226893
637378
747029
393418
245545
177940
201468
770514
852952
440897
265042
184898
219698
832131
914212
478572
279252
195275
235757
886603
978143
514688
298054
211917
247595
971047
1.09917e+06
582260
332435
254285
434434
1.19453e+06
690082
240911
179503
263527
425111
814694
830990
219486
192031
285265
479362
921988
895640
242192
202157
302775
517208
988400
952374
256599
213487
321928
552386
1.04873e+06
1.02838e+06
269906
229170
354875
616463
1.16515e+06
1.23752e+06
461840
272874
190102
256115
713189
836881
442671
278816
199572
232533
843165
937304
491145
295946
207201
252134
891128
981993
522721
310019
216512
263348
932529
1.02546e+06
548797
324527
225985
278828
970938
1.0619e+06
563699
335780
234372
287207
996394
1.09552e+06
580336
346638
242183
292704
1.02537e+06
1.13199e+06
603475
359938
251110
305219
1.06613e+06
1.17113e+06
619257
371061
258761
314202
1.09319e+06
1.20711e+06
637428
382021
267567
316727
1.13589e+06
1.27153e+06
676410
400654
284382
333935
1.22526e+06
1.39531e+06
744203
434600
334152
554100
1.46557e+06
847255
314811
230497
335281
524248
987132
963863
279487
238013
347688
554901
1.05533e+06
913887
330110
226030
245111
389809
913646
1.60523e+06
821698
455611
306662
348535
1.38151e+06
1.48752e+06
750082
456452
297747
371487
1.29449e+06
1.40292e+06
742748
444357
298704
374563
1.25647e+06
1.39219e+06
742610
445090
301685
374367
1.25799e+06
1.37999e+06
738330
446049
302639
380533
1.23323e+06
1.35405e+06
725839
445265
302005
367656
1.20984e+06
1.32e+06
715845
445808
281215
420120
1.10302e+06
1.09451e+06
477101
300541
548040
946808
1.90373e+06
1.58416e+06
423128
356444
525291
858648
1.69408e+06
1.39497e+06
425464
337290
488015
791545
1.47974e+06
1.19015e+06
446018
297452
312479
496653
1.1473e+06
1.88773e+06
992345
567640
333208
475820
1.43487e+06
1.32586e+06
507505
335014
594666
1.06927e+06
2.0933e+06
1.47218e+06
467794
339377
353211
580311
1.31679e+06
1.71922e+06
546997
365399
717104
1.39472e+06
2.66765e+06
1.74964e+06
572760
383123
377034
625884
1.49944e+06
1.73406e+06
717566
413034
418796
753912
1.90333e+06
1.98568e+06
798708
427297
424231
812284
1.95107e+06
1.90788e+06
821443
428644
420789
803482
1.82399e+06
1.73261e+06
799178
421353
406802
765419
1.64404e+06
1.56032e+06
761356
406786
392368
732639
1.48103e+06
1.41143e+06
730740
393118
381941
708692
1.3495e+06
1.29486e+06
708241
383588
375235
690001
1.24664e+06
1.20363e+06
689719
377636
371276
673219
1.16577e+06
1.1319e+06
672325
373929
368636
655637
1.10264e+06
1.07644e+06
653968
371480
366829
637056
1.05443e+06
1.03461e+06
634686
369500
364977
617185
1.01878e+06
1.00419e+06
614329
367513
362970
596682
993556
982828
593505
365121
360226
575607
976662
968101
572323
362071
356927
554808
966684
960399
551617
358366
352774
534376
960785
956805
531499
353916
348046
515563
957962
955114
513361
348870
342734
498788
956761
954582
497231
343379
337250
484375
956544
954599
483586
337695
331474
472055
957019
955159
471785
331825
325676
461764
957816
956050
462050
325922
319742
452992
958918
957260
453532
319961
313916
445546
960338
958795
446479
314083
308055
439028
962067
960638
440117
308240
302368
433431
964055
962730
434835
302538
296713
428399
966246
965015
429888
296933
291294
424000
968593
967441
425757
291525
285965
419940
971030
969947
421741
286270
280918
416356
973516
972487
418397
281251
276001
412987
975987
975009
415048
276421
271393
410012
978431
977494
412296
271850
266936
407184
980803
979904
409476
267490
262798
404695
983113
982247
407204
263390
258815
402297
985331
984496
404825
259508
255140
400152
987467
986668
402949
255870
251619
398169
989508
988738
400990
252455
248385
396438
991464
990719
399519
249254
245276
394837
993308
992583
397926
246254
242453
393462
995045
994335
396803
243484
239731
392204
996652
995954
395543
240861
237333
391163
998147
997463
394727
238485
235023
390193
999532
998854
393727
236279
232965
389404
1.0008e+06
1.00013e+06
393149
234244
230998
388671
1.00196e+06
1.0013e+06
392383
232376
229264
388119
1.00301e+06
1.00236e+06
392032
230657
227598
387609
1.00397e+06
1.00333e+06
391478
229085
226143
387266
1.00486e+06
1.00422e+06
391324
227638
224735
386946
1.00567e+06
1.00505e+06
390949
226319
223520
386780
1.00644e+06
1.00583e+06
390958
225104
222332
386616
1.00716e+06
1.00656e+06
390731
224001
221321
386594
1.00784e+06
1.00726e+06
390872
222984
220266
386552
1.00849e+06
1.00792e+06
390756
222045
219443
386637
1.00912e+06
1.00856e+06
390995
221208
218541
386686
1.00973e+06
1.00917e+06
390964
220426
217873
386855
1.01032e+06
1.00977e+06
391278
219735
217112
386975
1.01088e+06
1.01035e+06
391312
219087
216572
387204
1.01144e+06
1.01092e+06
391679
218516
215926
387373
1.01198e+06
1.01147e+06
391754
217977
215492
387641
1.01252e+06
1.01201e+06
392152
217506
214941
387839
1.01304e+06
1.01254e+06
392256
217058
214596
388137
1.01355e+06
1.01306e+06
392680
216669
214123
388359
1.01405e+06
1.01357e+06
392804
216296
213851
388676
1.01455e+06
1.01407e+06
393242
215976
213445
388909
1.01504e+06
1.01456e+06
393377
215667
213235
389237
1.01553e+06
1.01505e+06
393822
215405
212885
389477
1.016e+06
1.01553e+06
393962
215148
212726
389810
1.01647e+06
1.01601e+06
394411
214935
212423
390053
1.01693e+06
1.01647e+06
394552
214725
212310
390388
1.01738e+06
1.01693e+06
395001
214553
212047
390629
1.01783e+06
1.01737e+06
395141
214380
211970
390963
1.01827e+06
1.01782e+06
395586
214244
211741
391200
1.0187e+06
1.01825e+06
395721
214104
211698
391530
1.01913e+06
1.01869e+06
396160
213997
211496
391761
1.01955e+06
1.01911e+06
396289
213884
211479
392086
1.01997e+06
1.01953e+06
396722
213802
211302
392311
1.02038e+06
1.01994e+06
396845
213713
211309
392629
1.02079e+06
1.02035e+06
397271
213653
211153
392846
1.02119e+06
1.02075e+06
397385
213582
211178
393157
1.02158e+06
1.02115e+06
397803
213540
211038
393366
1.02197e+06
1.02154e+06
397909
213486
211081
393669
1.02236e+06
1.02193e+06
398318
213460
210957
393869
1.02274e+06
1.02231e+06
398415
213420
211013
394164
1.02312e+06
1.02269e+06
398816
213406
210901
394356
1.02349e+06
1.02306e+06
398905
213378
210969
394642
1.02387e+06
1.02344e+06
399295
213374
210866
394823
1.02423e+06
1.02381e+06
399373
213354
210942
395099
1.02461e+06
1.02418e+06
399752
213357
210845
395268
1.02498e+06
1.02455e+06
399818
213343
210927
395533
1.02536e+06
1.02494e+06
400186
213350
210834
395691
1.02574e+06
1.02532e+06
400242
213339
210918
395947
1.02613e+06
1.02572e+06
400602
213348
210827
396098
1.02653e+06
1.02612e+06
400653
213342
210919
396353
1.02693e+06
1.02653e+06
401015
213361
210839
396508
1.02734e+06
1.02694e+06
401072
213365
210943
396771
1.02775e+06
1.02734e+06
401446
213397
210878
396939
1.02813e+06
1.02773e+06
401599
213442
210969
397196
1.0285e+06
1.02807e+06
401794
213429
210998
397215
1.02833e+06
1.02729e+06
401859
213412
210987
397659
1.02797e+06
1.0269e+06
402081
213440
210776
397308
1.02544e+06
1.02303e+06
401441
213102
208908
394153
1.01797e+06
1.01157e+06
397657
210979
205255
388162
1.00177e+06
991723
389961
206633
198910
378497
963176
922571
358962
184929
174343
341501
886424
78874.5
39380.7
26760.2
25287
18733.4
14147
12057.2
11599.3
9517.43
7510.34
6219.87
5095.92
4044.11
3078.6
2236.74
1580.17
1108.72
788.774
574.859
431.035
332.64
263.908
214.826
179.141
152.707
133.107
118.449
107.915
100.496
95.7217
92.9493
91.6928
90.6155
88.7476
86.2544
83.325
80.1612
76.8423
73.4785
70.0545
66.5885
63.052
59.4309
55.7
51.8302
47.7752
42.5905
34.9538
25.4399
16.5093
9.78415
5.38512
2.76879
1.3592
0.678606
0.375929
0.252302
0.205585
0.188753
0.182491
0.179768
0.178017
0.176298
0.174628
0.172952
0.171248
0.16949
0.167655
0.165723
0.163675
0.161492
0.159156
0.156652
0.153968
0.151091
0.148015
0.144736
0.141253
0.137571
0.133699
0.129652
0.125448
0.121111
0.116667
0.112144
0.107573
0.102986
0.0984122
0.0938812
0.0894198
0.0850522
0.0807995
0.0766794
0.0727062
0.0688908
0.0652412
0.0617622
0.0584564
0.0553237
0.0523626
0.0495698
0.0469406
0.0444697
0.0421508
0.0399771
0.0379417
0.0360373
0.0342569
0.032593
0.031039
0.0295877
0.028233
0.0269683
0.025788
0.0246862
0.0236578
0.0226977
0.0218015
0.0209646
0.0201831
0.0194531
0.0187713
0.0181342
0.017539
0.0169827
0.0164628
0.015977
0.0155228
0.0150983
0.0147016
0.0143309
0.0139844
0.0136609
0.0133587
0.0130767
0.0128137
0.0125685
0.0123403
0.012128
0.0119309
0.0117481
0.0115791
0.0114232
0.0112797
0.0111482
0.0110282
0.0109192
0.0108209
0.0107329
0.0106547
0.0105863
0.010528
0.0104817
0.0104463
0.0104216
0.0104077
0.0104038
0.0104048
0.010408
0.0104152
0.0104268
0.0104413
0.0104543
0.0104605
0.0104596
0.0104538
0.0104449
0.0104339
0.0104209
0.0104059
0.0103886
0.010369
0.0103469
0.0103223
0.0102953
0.0102659
0.0102342
0.0102002
0.0101641
0.0101258
0.0100855
0.0100432
0.00999895
0.00995289
0.00990508
0.0098556
0.00980454
0.00975199
0.00969804
0.00964281
0.00958637
0.00952886
0.00947039
0.0094111
0.00935113
0.00929064
0.00922988
0.00916963
0.00911263
0.00906993
0.00907851
0.00926788
0.0100156
0.0123496
0.0192572
0.038963
0.0934964
0.239287
0.619183
1.57228
3.86369
9.09659
20.0164
39.078
64.8136
93.7393
138.146
299.821
1096.96
2448.03
6939.61
7992.69
8569.34
9381.46
9765.64
10402.6
10667.4
11186.6
11375.3
11804
11950.1
12305
12420.1
12719.6
12811.7
13069.9
13144.9
13371.8
13433.5
13636.2
13687.6
13871
13914.4
14082.7
14119.7
14276.1
14308.4
14455.5
14484
14623.9
14649.8
14784.3
14808.3
14939
14961.8
15090
15112.4
15239.7
15262.4
15390
15413.8
15543.5
15569.2
15702.3
15730.8
15869
15901.3
16046.7
16084
16239.3
16283.6
16451.9
16504.8
16690.4
16755.3
16964.8
17046.3
17289.2
17394.7
17685.7
17827.6
18191.3
18392.1
18873.6
19176.7
19863.8
20363.7
21444.1
22377
24317.3
26421.3
30953.4
34592.7
40348.1
44298.7
43094.5
40534.3
35183.1
24032.6
12681.3
8396.9
6828.45
6228.02
5838.97
5198.02
5033.19
4878.69
4970.35
5103.88
5401.65
5605.01
5889.8
6028.53
6078.99
6080.53
5934.52
5804.53
5604.69
5445.41
5248.46
5110.9
4948.79
4855.62
4747.11
4699.53
4662.14
4655.94
4665.08
4721.14
4760.37
4862.36
4939.17
5096.66
5224.81
5455.41
5657.66
5997.92
6314.97
6855.55
7393.09
8247.88
9259.25
9827.48
9944.79
7499.33
8047.93
6945.73
6107.6
5403.74
6301.32
5571.31
4765.74
4258.27
5252.91
6631.94
9438.1
8804.73
5870.73
4739.65
4338.62
5330.12
8060.03
7464.2
5043.25
4307.31
3827.86
3384.41
3712.33
4590.36
5280.69
4869.37
4205.83
4160.47
4708.26
4425.28
3860.76
3399.89
3181.43
3856.43
4326.76
4116.87
3607.47
3615.61
4054.57
3895.77
3414.83
3019
2891.95
3432.78
3858.57
3744.88
3269.95
3297.66
3728.48
3656.17
3169.18
2800.13
2729.56
3207.94
3656.8
3633.25
3105.5
3159.38
3653.77
3651.53
3079.74
2712.51
2733.7
3157.87
3715.22
3733.12
3102.94
3223.76
3838.95
3869.17
3167.04
2781.72
2878.51
3305.81
3999.65
4032.98
3241.05
3371.48
4147.54
4171.22
3329.36
3092.36
3741.11
3443.32
4206.18
4201.24
3522.07
3663.73
4166.22
4195.56
4151.67
5726.19
12067.2
4645.15
4219.82
4474.62
7009.27
8210.49
4560.71
5035.19
9004.56
15034.5
16547.6
10885.9
5498.95
6681.98
13404.5
19867.4
9380.86
13015.3
21010.5
17800.1
16195.2
23072.8
23683.9
25030.2
23622.5
23413.7
29294.6
30998.2
21599.4
13116.8
10564.2
18451.5
30605.6
28648.5
18037.1
14523.2
24431.7
22813.6
14687.3
8891.64
7658.68
11986.5
19284.9
17958.4
12157.3
10280.7
15664.7
14896.2
10493.2
6831.98
6196.32
9178.05
13605.9
13228.2
9443.47
8444.9
12395.1
12218.9
8743.73
5730.14
5346.84
7922.23
11616.3
11542.4
8244.94
7526.77
11069.2
11052.9
7863.37
5035.8
4772.25
7209.05
10653.4
10667.2
7553.97
6949.5
10319.2
10349.2
7293.52
4541.29
4335.12
6724.17
10039.6
10080.7
7067.26
6523.9
9798.07
9847.01
6865.85
4148.2
3976.6
6342.72
9583.74
9638.25
6683.22
6176.55
9389.13
9447.63
6514.99
3817.54
3668.92
6021.99
9209.5
9271.67
6357.04
5875.22
9041.59
9106.36
6208.39
3529.49
3397.91
5733.73
8881.85
8948.41
6065.79
5596.18
8727.41
8795.03
5925.51
3272.78
3152.58
5460.57
8575.94
8643.99
5784.4
5323.67
8425.73
8493.88
5642.27
3035.48
2919.86
5185.64
8275.37
8343.21
5499.16
5046.59
8123.27
8190.27
5353.94
2804.44
2688.52
4905.36
7967.78
8033.41
5205.43
4760.85
7807.28
7870.98
5052.48
2571.38
2452.38
4612
7640.08
7701.24
4893.97
4457.76
7464.33
7522.26
4728.75
2330.91
2206.49
4297.08
7278.01
7331.88
4555.69
4128.98
7078.75
7127.61
4373.81
2079.07
1949.45
3952.29
6863.75
6906.26
4182.66
3764.55
6629.06
6663.86
3978.22
1816.37
1678.39
3563.69
6370.66
6396.09
3758.1
3347.56
6084.02
6097.89
3519.6
1534.57
1384.26
3113.55
5763.75
5763.61
3259.23
2857.84
5398.96
5375.48
2972.49
1226.77
1061.42
2578.09
4980.75
4927.93
2656.29
2268.64
4494.71
4405.71
2303.03
886.934
700.851
1925.25
3925.47
3776.77
1902.11
1540.78
3262.09
3002.07
1431.62
502.279
229.557
326.927
421.991
513.325
601.899
688.525
773.706
857.594
940.669
1024.26
1108.04
1191.99
1276.07
1360.36
1445.04
1530.36
1616.64
1704.24
1793.6
1885.13
1979.84
2076.82
2177.38
2283.01
2395.28
2515.89
2646.86
2790.61
2950.27
3129.59
3334.15
3569.72
3848.25
4179.03
4577.8
5081.48
5684.2
6581.43
7609.89
9556.89
11171.8
13271.4
13609.2
13008.6
11585
7891.22
4241.01
3093.79
2694.28
2548.21
2502.03
2493
2545.17
2628.41
2746.16
2900.48
3104.03
3003.64
3285.41
3722.97
4181.35
4876.89
6937.47
6596.76
4845.63
4293.37
4270.95
4865.57
6429.91
6381.48
5046.81
4579.02
3838.12
3336.05
3614.6
4168.57
4614.07
5210.08
6562.59
6759.54
5542.35
5064.36
5196
5802.6
7037.01
7391.34
6322.54
5794.01
4678.49
4057.9
3644.76
3249.78
3020.29
2797.21
2799.01
2638.1
2511.33
2488.19
2627.1
2768.79
2983.3
3345.1
3102.49
2932.4
2595.01
2494.69
2382.31
2413.61
2371.58
2371.68
2465.16
2402.75
2549.16
2878.7
3997.37
2854.21
2517.63
3023.96
2866.53
3689.34
3698.41
3797.22
4019.24
4340.65
4806.86
5540.01
6088.35
6733.72
7774.68
8305.72
7485.45
6860.81
7541
8169.49
8812.86
9415.2
9498.69
8928
7243.07
6220.83
8585.36
9771.57
10530.6
11232.7
11087.7
9774.99
9646.95
13202.9
9990.9
10152.8
12194.4
9639.33
8059.24
8017.37
9306.87
9912.89
10097.5
13178.2
16048
18652.8
13743.6
12046.3
14669
21138
22184.2
24362.6
16183
14768.2
13149.1
12122.2
8621.73
7738.8
5656.71
5315.15
5113.17
5005.31
6890.63
7300.23
7043.18
7538.19
7297.03
7920.13
10912.7
11318.5
16564.8
19637.6
18357.4
22656.3
21482.6
25248
24033.7
26129.5
37701.4
29887
42034.8
44440.4
43076.3
42229.5
36501.2
35491.1
31371.4
31201.5
17854.6
15619.4
16864.6
28387.6
28134.9
26271.9
15093.7
10576.1
10411.8
14921.6
16396.7
26783.6
25350.4
26003.9
16243.2
14843.7
10222.3
10132.8
9966.9
9878.9
7186.78
6848.3
4999.11
5317.59
4075.22
4970.57
3790.36
5344.89
7280.2
6130.34
4254.42
2993.39
4355.09
7034.01
9265.86
7743.2
10328.6
10156.5
9446.47
9198.29
8269.03
8440.17
8785.42
8343.88
7564.98
8277.39
8325.49
7811.69
6437.54
7238.22
6024.49
7333.54
7370.13
6992.59
7218.52
9620.06
9702
14617.2
16042.2
14772.9
16190.9
14811.9
16224.4
14863
16241.4
25817.9
24987.2
24894.2
25728.5
24824.1
25640.5
24613.1
25383.5
24020.3
24845.7
15787.7
14438.1
15484.6
24105.1
23406.6
22739.5
14249.7
9482.82
9526.41
14038.7
15167.9
23320.6
22040.2
22469.3
14785.4
13744.1
9455.5
9432.12
7804.08
8066.34
8507.79
9522.93
9334.36
11867
12597.5
12950.1
14110.3
21208.5
21171.4
19448.6
16091.4
24768
31559.9
23714.1
15462.9
14921.7
11864.4
11518.6
11574.8
14028.7
14260.5
21172.1
22333
19812.3
31419.9
27705.9
17093
12852
10971.7
9466.75
8656.7
8180.62
8478.23
8099.89
6748.49
6274.37
7750.08
9185.17
9000.64
9682.33
11983.1
10928.5
12450.1
16240.5
25059.1
21606.1
15947.7
15780.1
20801.3
17082.8
13364.9
10689.1
10047.1
11505.2
12261.6
13887.2
19627.6
27294.9
29868.5
33877.1
32481.6
25050.7
17054.6
13961.9
13032.7
11268.6
13815.5
17416.3
24319.6
39466.4
57150.7
46612.6
29972.2
18464.1
12416.6
8541.76
8724.05
7972.48
8030.27
8412.78
9117.89
6248.93
5949.41
5244.79
8425.5
12027.4
19694.8
29736.8
54014.7
44695.3
147799
95062.9
38521.5
28269.2
61552.2
86576.3
184937
98608.7
169661
95357.9
148978
99232.9
106419
153946
96160.4
131088
90222.9
94948.2
133869
85831.3
120146
77783.2
107059
74787.1
79624.2
115608
76430.9
108042
70705.1
104814
67146.9
100557
64019.6
91894.9
63187.7
68621.1
105333
66165.3
98866
63062.1
99517.7
61929.7
99222.1
61323.1
99398.5
60669.2
99239.1
60471.8
99917.8
60412.8
100743
60628.9
101817
60889.2
103243
61589.8
105203
62230.9
107470
63582.9
110888
65325
117554
68584.4
120838
84198.7
41383.1
26443.2
38578.7
26296
37251.8
25619.5
36842.7
26027.3
36460.9
25800.8
36512.1
26403.8
36526.5
26476.4
36816.4
27247.9
37198.6
27645.3
37833.3
28699.3
38677.8
29523.8
39736
31106.8
41119.1
32682.9
43884.5
36052.3
47263.6
41021.7
30770
20146.5
24445
18638.6
28032.9
26825.7
22376.4
17396
24349.6
20706.4
16553
23312.3
22784.6
19541.8
15678.5
21717.7
18594.8
15156.5
21041.6
21047.9
17998
14582.6
20731.8
17558.5
14464.6
20280.4
21058.9
28277.7
51713.3
98526.4
57791.9
103646
60547
108132
62707.1
112677
65164.6
117894
68326.9
128271
72900.4
132260
92575.9
41615.3
25629
38792
25446.5
36122.4
23792.3
35445.6
23894.1
33724.7
22623.1
33178.4
22561.8
30620.7
21012.9
14468.7
18391.9
14781.6
19146.1
15107.9
20097.7
16135.7
28248.8
53621.3
106129
59574.6
110551
63855.4
117955
68309.4
129399
74206.4
135668
95893.2
56783.3
114865
65433
123489
70274.7
131564
75159.5
143730
80843.5
149588
105704
44598.2
25528.5
40791.1
24898.7
37068.9
22466.7
35303.8
21867.5
31216
19182.4
27478
43089.2
24581.6
38301.5
23553.2
35536.2
22054.7
33489.1
21667.5
30841
21584.8
16714.1
11081.2
13772.4
11731.4
16307.5
17191.8
14337.1
11978
17208.8
18712.4
15290.4
12920.4
17211
13564.1
19042.4
15206.4
28831
59252.4
121854
66964.5
128563
73358.8
141939
80360.1
148477
105620
45687.2
27585.4
61503.5
127243
71617.3
137937
77567.9
147870
82775.9
161240
89175.4
166967
115250
63973.6
134578
74635.3
145036
81245
155000
87873.5
171194
95553.7
177016
126096
52612.2
30440.2
71703.3
151316
83371.6
162241
89557.4
172453
94632.7
186434
101195
190293
130188
70571.5
152154
82158.6
161745
88207.5
170132
92777.9
179229
97290.5
186653
101240
194136
105070
202249
108872
208776
112520
216906
116971
232384
123687
231778
159608
62299.1
33271.4
85076.7
184895
94907.6
177054
103902
124010
224497
122733
227056
120427
232761
120415
237268
120790
238044
120031
236114
118728
218504
130697
149336
268643
141671
256717
126074
226077
128598
141654
242457
148235
149577
246412
128311
169725
172441
266819
161036
160822
199511
200330
212627
208046
215528
210312
215681
208874
212287
203036
205971
196782
199800
191501
194793
187623
191248
185058
189038
183342
187896
182649
187782
182916
188513
183841
189837
185243
191513
186809
193152
188315
194467
189428
195444
190154
195908
190278
195732
189847
194965
188795
193589
187247
191712
185119
189322
182498
186529
179575
183457
176506
180229
173261
176853
169988
173448
166648
170001
163365
166610
160083
163245
156904
159979
153776
156785
150766
153704
147836
150725
145042
147872
142344
145134
139780
142536
137276
140014
134966
137642
132732
135387
130628
133255
128622
131233
126735
129325
124939
127518
123252
125815
121650
124204
120145
122688
118717
121254
117377
119905
116082
118620
114869
117414
113712
116274
112639
115210
111616
114202
110666
113261
109757
112366
108915
111535
108113
110747
107370
110011
106653
109305
105989
108650
105354
108029
104771
107454
104206
106897
103682
106382
103179
105890
102718
105437
102271
104996
101857
104591
101458
104203
101096
103848
100742
103498
100413
103177
100094
102867
99808.2
102589
99527.3
102312
99268.5
102059
99013.3
101811
98785.6
101591
98561.2
101370
98357.4
101172
98153.8
100973
97972.8
100799
97791.6
100620
97628
100462
97462.1
100300
97316.5
100161
97168.9
100014
97034.9
99883.1
96893.3
99743.8
96771
99630.9
96651.5
99515.1
96549.6
99423.4
96435.8
99298.5
96349.5
99243.4
96206.4
99121.6
96153.1
99070.9
95984.1
98797.1
94903
97550.4
93036.2
96577.6
89409.3
84298
40919.8
44479.9
26803.9
48780.2
44860.4
29935.4
49160.2
45045.3
30962.5
49861.8
45470.9
31423.9
50184.8
45711.1
32798.1
50089.4
45765.9
32171.6
50360.1
45925.3
33065.6
50319.5
45983.6
32516.6
50573.6
46140
33249.4
50541.7
46200.8
32749.7
50780.7
46358.1
33451.2
50774.7
46437.3
32967
51026.2
46601.7
33679.2
51020.4
46680.5
33192.6
51275.8
46850.1
33913.1
51278.7
46940.8
33428.8
51549.3
47123.3
34164.2
51562.4
47222.1
33679
51842.5
47413.1
34428.2
51865.2
47524
33943.2
52161.8
47729.6
34712.4
52196.4
47850.7
34225.2
52505.3
48067
35011.9
52551.9
48203.5
34523.9
52882.8
48439.3
35333.5
52946.1
48588.6
34842.3
53290.8
48834.5
35672.9
53364.6
48999.8
35180.2
53735.1
49271.1
36036.9
53833.5
49456
35540.6
54223.9
49739.5
36421.5
54332.4
49938.9
35922.3
54748.9
50250.1
36832.3
54886.8
50475.3
36328.6
55331.4
50804.6
37269.6
55483.6
51047.1
36759.7
55958.2
51407.1
37731.1
56143.9
51679.3
37217.5
56651.2
52060.4
38220.8
56853.9
52351.2
37701.6
57394.2
52767.1
38741.2
57637.2
53096.8
38215.5
58223.6
53543.4
39290.8
58490.3
53892.2
38757.2
59107.1
54368.5
39871.4
59410.5
54757.6
39330.3
60082.7
55277.3
40484.6
60425.7
55697.1
39934.4
61137.6
56247.7
41130.2
61514.6
56703
40570.7
62279.9
57297.4
41809.4
62701.3
57789.9
41239.9
63515.9
58421.1
42523.5
63975.3
58950.4
41943.1
64845.1
59626.8
43272.5
65351.1
60196
42680.9
66275.5
60912.1
44057.5
66822.9
61519.7
43454.4
67806.5
62282.9
44879.3
68403.9
62931.7
44264.2
69444.1
63733.1
45738.2
70080
64416.5
45111.5
71177.6
65265.1
46637
71869.8
65983.6
45997.2
73028.6
66881
47576.7
73747.7
67628.5
46926.6
74938.2
68536.6
48562.3
75674.8
69299.3
47903.2
76888.9
70206.5
49603
77603.6
70941.8
48936.1
78792.4
71815
50712
79454.3
72503.9
50039.8
80591.3
73311.6
51906.2
81151
73911.4
51231.5
82197.2
74642.9
53212.6
82661.6
75187.4
52538
83663.6
75889.2
54659.1
84068.5
76411.9
53981.7
85056.9
77118
56261.2
85441.8
77666.9