/*--------------------------------*- C++ -*----------------------------------*\
| =========                 |                                                 |
| \\      /  F ield         | OpenFOAM: The Open Source CFD Toolbox           |
|  \\    /   O peration     | Version:  v2006                                 |
|   \\  /    A nd           | Website:  www.openfoam.com                      |
|    \\/     M anipulation  |                                                 |
\*---------------------------------------------------------------------------*/
FoamFile
{
    version     2.0;
    format      ascii;
    class       surfaceScalarField;
    location    "0.042";
    object      phi;
}
// * * * * * * * * * * * * * * * * * * * * * * * * * * * * * * * * * * * * * //

dimensions      [1 0 -1 0 0 0 0];
oriented        oriented;


internalField   nonuniform List<scalar> 
48460
(
-1.8006e-05
-0.00122879
0.00121482
3.19776e-05
-0.00115272
0.00113471
2.799e-06
6.70661e-05
-2.14547e-05
0.00130689
2.23036e-05
0.00142308
-5.08554e-05
0.00143249
-8.04502e-06
0.00145629
-2.30592e-05
0.00142924
-1.13118e-06
0.00142187
-3.40373e-06
0.00140646
1.02924e-06
0.00140071
-1.41745e-07
0.00139611
1.37304e-07
0.00139491
-2.18312e-09
0.00139422
-7.90499e-09
0.00139406
-3.31271e-08
0.00139394
-8.54333e-08
0.00139353
-1.55658e-07
0.00139279
-2.30326e-07
0.00139178
-3.0055e-07
0.0013906
-3.621e-07
0.00138933
-4.14123e-07
0.00138802
-4.57722e-07
0.0013867
-4.94668e-07
0.0013854
-5.26652e-07
0.0013841
-5.54997e-07
0.0013828
-5.80613e-07
0.00138149
-6.04072e-07
0.00138016
-6.25702e-07
0.0013788
-6.45682e-07
0.00137742
-6.64129e-07
0.00137602
-6.8113e-07
0.00137458
-6.96779e-07
0.00137312
-7.11181e-07
0.00137164
-7.24448e-07
0.00137013
-7.36694e-07
0.0013686
-7.48025e-07
0.00136704
-7.58535e-07
0.00136547
-7.68301e-07
0.00136388
-7.77382e-07
0.00136227
-7.8582e-07
0.00136064
-7.93645e-07
0.00135899
-8.00873e-07
0.00135733
-8.07514e-07
0.00135565
-8.13572e-07
0.00135396
-8.19042e-07
0.00135226
-8.23925e-07
0.00135055
-8.28209e-07
0.00134882
-8.31887e-07
0.00134709
-8.34965e-07
0.00134535
-8.37411e-07
0.0013436
-8.39209e-07
0.00134185
-8.40359e-07
0.0013401
-8.4085e-07
0.00133834
-8.40675e-07
0.00133658
-8.3983e-07
0.00133482
-8.38291e-07
0.00133306
-8.36091e-07
0.00133131
-8.33426e-07
0.00132956
-8.30119e-07
0.00132781
-8.26095e-07
0.00132607
-8.21388e-07
0.00132435
-8.16009e-07
0.00132263
-8.09966e-07
0.00132092
-8.03256e-07
0.00131922
-7.95866e-07
0.00131753
-7.87775e-07
0.00131586
-7.78944e-07
0.00131421
-7.69322e-07
0.00131257
-7.5885e-07
0.00131095
-7.47464e-07
0.00130935
-7.351e-07
0.00130777
-7.2171e-07
0.00130621
-7.07284e-07
0.00130468
-6.9186e-07
0.00130317
-6.75532e-07
0.0013017
-6.58443e-07
0.00130025
-6.40728e-07
0.00129883
-6.22312e-07
0.00129744
-6.02727e-07
0.00129606
-5.80948e-07
0.00129469
-5.55171e-07
0.0012933
-5.22461e-07
0.00129188
-4.78943e-07
0.00129042
-4.2068e-07
0.00128893
-3.47791e-07
0.00128744
-2.6744e-07
0.00128608
-1.93763e-07
0.001285
-1.43158e-07
0.00128437
6.7906e-09
0.00128384
1.10574e-08
0.0012834
-1.17491e-07
0.00128168
-2.43125e-06
0.00127716
-4.10317e-06
0.00126814
-1.91504e-05
0.00124972
-2.90604e-05
0.00122485
-8.18218e-05
0.00118554
-0.000134477
0.00115891
-0.000314421
0.001161
-0.00070257
0.00135095
-0.000209449
0.00033649
3.48941e-05
0.000588724
-1.72521e-05
0.000741972
-9.2855e-06
0.000704488
-4.39431e-05
0.000592794
-5.86807e-06
0.000541526
-3.59208e-06
0.000197294
-2.66897e-06
0.000163533
0.000132768
6.38116e-06
0.000126387
1.05786e-05
0.000159335
0.000191088
1.67844e-05
-6.9837e-06
0.000189813
8.25902e-06
-2.88195e-06
0.000155234
0.000123505
1.79135e-06
0.000121713
9.006e-07
0.000156124
0.000188541
2.17248e-06
-7.69962e-07
0.000189702
-3.90548e-07
-1.56847e-06
0.000156923
0.000120145
2.86151e-07
0.000119859
2.00413e-06
0.000155205
0.000189573
2.1332e-06
-1.81476e-06
0.000189387
2.00083e-06
-1.29467e-06
0.000154685
0.000118564
1.18308e-06
0.000117381
1.69468e-06
0.000154173
0.000189193
1.88796e-06
-1.52842e-06
0.00018896
1.76151e-06
-2.25376e-06
0.000154899
0.000115127
1.00472e-06
0.000114123
1.44873e-06
0.000154455
0.000188733
1.67614e-06
-1.37576e-06
0.00018722
2.88869e-06
-9.23693e-07
0.000154003
0.000113199
8.44275e-07
0.000112355
1.28832e-06
0.000153558
0.000188235
2.73102e-07
-1.2295e-06
0.000186702
2.76304e-06
-7.8499e-07
0.000153114
0.00011157
7.26099e-07
0.000110844
1.15848e-06
0.000152682
0.000187693
1.66844e-07
-1.11483e-06
0.000186146
2.66179e-06
-6.83615e-07
0.00015225
0.00011016
6.37747e-07
0.000109522
1.0558e-06
0.000151832
0.000187121
8.12217e-08
-1.02379e-06
0.000185567
2.578e-06
-6.06907e-07
0.000151416
0.000108915
5.69636e-07
0.000108346
9.72733e-07
0.000151012
0.00018653
9.33698e-09
-9.50132e-07
0.000184974
2.50623e-06
-5.47315e-07
0.00015061
0.000107798
5.17263e-07
0.000107281
9.07006e-07
0.00015022
0.000185929
-4.74175e-08
-8.8927e-07
0.000184374
2.44376e-06
-5.00063e-07
0.000149831
0.000106781
4.75245e-07
0.000106306
8.52295e-07
0.000149454
0.000185322
-9.58662e-08
-8.3864e-07
0.000183771
2.38972e-06
-4.61997e-07
0.000149077
0.000105844
4.40835e-07
0.000105403
8.05794e-07
0.000148712
0.000184715
-1.38277e-07
-7.9591e-07
0.000183169
2.34242e-06
-4.30802e-07
0.000148347
0.000104972
4.12537e-07
0.00010456
7.66528e-07
0.000147993
0.00018411
-1.74265e-07
-7.58112e-07
0.000182569
2.2988e-06
-4.0422e-07
0.000147639
0.000104156
3.89559e-07
0.000103766
7.34025e-07
0.000147295
0.000183508
-2.05125e-07
-7.23634e-07
0.000181972
2.26e-06
-3.80283e-07
0.000146951
0.000103386
3.69675e-07
0.000103016
7.04801e-07
0.000146616
0.00018291
-2.33295e-07
-6.99855e-07
0.000181381
2.22922e-06
-3.63682e-07
0.00014628
0.000102653
3.51955e-07
0.000102301
6.79953e-07
0.000145952
0.000182314
-2.52828e-07
-6.80312e-07
0.000180788
2.2061e-06
-3.49684e-07
0.000145622
0.000101951
3.3699e-07
0.000101614
6.57538e-07
0.000145301
0.000181719
-2.73491e-07
-6.60075e-07
0.000180198
2.18079e-06
-3.35941e-07
0.000144977
0.000101278
3.24215e-07
0.000100954
6.38614e-07
0.000144663
0.000181127
-2.89885e-07
-6.43108e-07
0.000179611
2.15916e-06
-3.24357e-07
0.000144344
0.000100629
3.13103e-07
0.000100316
6.22138e-07
0.000144035
0.000180536
-3.03596e-07
-6.28352e-07
0.000179025
2.14002e-06
-3.14261e-07
0.000143721
0.000100002
3.03355e-07
9.96988e-05
6.07714e-07
0.000143416
0.000179947
-3.14985e-07
-6.15488e-07
0.00017844
2.12307e-06
-3.05414e-07
0.000143106
9.93934e-05
2.9477e-07
9.90987e-05
5.95058e-07
0.000142806
0.000179359
-3.2434e-07
-6.04057e-07
0.000177856
2.10768e-06
-2.97528e-07
0.0001425
9.88012e-05
2.87236e-07
9.85139e-05
5.84102e-07
0.000142203
0.000178771
-3.31566e-07
-5.9438e-07
0.000177271
2.09452e-06
-2.907e-07
0.000141899
9.82233e-05
2.80597e-07
9.79427e-05
5.74602e-07
0.000141605
0.000178183
-3.37002e-07
-5.86111e-07
0.000176686
2.08311e-06
-2.84726e-07
0.000141304
9.7658e-05
2.74762e-07
9.73832e-05
5.66416e-07
0.000141012
0.000177593
-3.4084e-07
-5.78883e-07
0.000176099
2.07287e-06
-2.79412e-07
0.000140713
9.71038e-05
2.69624e-07
9.68342e-05
5.59392e-07
0.000140423
0.000177002
-3.43184e-07
-5.72749e-07
0.000175511
2.06403e-06
-2.74752e-07
0.000140125
9.65595e-05
2.65027e-07
9.62945e-05
5.53272e-07
0.000139837
0.000176408
-3.4436e-07
-5.67335e-07
0.000174919
2.05607e-06
-2.70522e-07
0.00013954
9.6024e-05
2.60932e-07
9.57631e-05
5.48043e-07
0.000139253
0.000175812
-3.44276e-07
-5.62994e-07
0.000174325
2.04963e-06
-2.66881e-07
0.000138957
9.54962e-05
2.57316e-07
9.52389e-05
5.4367e-07
0.00013867
0.000175212
-3.43027e-07
-5.59587e-07
0.000173727
2.04444e-06
-2.63751e-07
0.000138375
9.49751e-05
2.54201e-07
9.4721e-05
5.40182e-07
0.000138089
0.000174608
-3.40592e-07
-5.56664e-07
0.000173125
2.03974e-06
-2.60925e-07
0.000137793
9.446e-05
2.51551e-07
9.42085e-05
5.37555e-07
0.000137507
0.000173999
-3.36894e-07
-5.54803e-07
0.000172518
2.03653e-06
-2.58668e-07
0.000137211
9.39498e-05
2.49282e-07
9.37006e-05
5.35604e-07
0.000136924
0.000173385
-3.32273e-07
-5.53729e-07
0.000171905
2.0344e-06
-2.56836e-07
0.000136628
9.34437e-05
2.47474e-07
9.31963e-05
5.34493e-07
0.000136341
0.000172766
-3.26485e-07
-5.53283e-07
0.000171286
2.03301e-06
-2.55362e-07
0.000136043
9.29409e-05
2.46126e-07
9.26948e-05
5.34244e-07
0.000135755
0.00017214
-3.19418e-07
-5.53666e-07
0.000170661
2.03275e-06
-2.54334e-07
0.000135455
9.24405e-05
2.45108e-07
9.21954e-05
5.34591e-07
0.000135166
0.000171507
-3.1146e-07
-5.54432e-07
0.000170028
2.03299e-06
-2.53522e-07
0.000134865
9.19419e-05
2.4439e-07
9.16975e-05
5.35533e-07
0.000134574
0.000170866
-3.02532e-07
-5.56257e-07
0.000169388
2.03483e-06
-2.53235e-07
0.000134271
9.14442e-05
2.44017e-07
9.12002e-05
5.37122e-07
0.000133978
0.000170217
-2.92661e-07
-5.58291e-07
0.000168739
2.03683e-06
-2.5307e-07
0.000133672
9.09472e-05
2.4407e-07
9.07031e-05
5.39598e-07
0.000133377
0.00016956
-2.81324e-07
-5.61673e-07
0.000168081
2.04086e-06
-2.53568e-07
0.000133069
9.04495e-05
2.44485e-07
9.02051e-05
5.42762e-07
0.00013277
0.000168892
-2.68979e-07
-5.65402e-07
0.000167413
2.04528e-06
-2.54249e-07
0.000132459
8.99508e-05
2.45293e-07
8.97055e-05
5.46722e-07
0.000132158
0.000168215
-2.55329e-07
-5.69785e-07
0.000166734
2.0506e-06
-2.5526e-07
0.000131843
8.94503e-05
2.46406e-07
8.92039e-05
5.51322e-07
0.000131539
0.000167526
-2.40568e-07
-5.75024e-07
0.000166044
2.05724e-06
-2.56675e-07
0.00013122
8.89472e-05
2.47819e-07
8.86994e-05
5.56547e-07
0.000130911
0.000166825
-2.24772e-07
-5.809e-07
0.000165341
2.06478e-06
-2.58392e-07
0.000130589
8.8441e-05
2.49636e-07
8.81914e-05
5.6262e-07
0.000130276
0.000166111
-2.07578e-07
-5.8762e-07
0.000164625
2.07352e-06
-2.60514e-07
0.000129949
8.79309e-05
2.51845e-07
8.7679e-05
5.6951e-07
0.000129631
0.000165384
-1.89041e-07
-5.95107e-07
0.000163896
2.08334e-06
-2.63006e-07
0.000129299
8.7416e-05
2.54424e-07
8.71616e-05
5.77175e-07
0.000128976
0.000164642
-1.69209e-07
-6.03356e-07
0.000163151
2.09424e-06
-2.6586e-07
0.000128639
8.68957e-05
2.57367e-07
8.66384e-05
5.85611e-07
0.000128311
0.000163885
-1.48064e-07
-6.12346e-07
0.000162391
2.10621e-06
-2.69061e-07
0.000127967
8.63693e-05
2.6065e-07
8.61087e-05
5.94779e-07
0.000127633
0.000163111
-1.25646e-07
-6.22018e-07
0.000161614
2.11913e-06
-2.72576e-07
0.000127284
8.58361e-05
2.64297e-07
8.55718e-05
6.04749e-07
0.000126943
0.000162321
-1.0183e-07
-6.32709e-07
0.00016082
2.13358e-06
-2.76563e-07
0.000126587
8.52953e-05
2.68316e-07
8.50269e-05
6.15501e-07
0.00012624
0.000161512
-7.66893e-08
-6.43656e-07
0.000160008
2.14827e-06
-2.80663e-07
0.000125877
8.47463e-05
2.72656e-07
8.44736e-05
6.26986e-07
0.000125523
0.000160685
-5.01271e-08
-6.55384e-07
0.000159176
2.16413e-06
-2.8511e-07
0.000125152
8.41885e-05
2.77285e-07
8.39112e-05
6.3916e-07
0.000124791
0.000159838
-2.22833e-08
-6.68199e-07
0.000158324
2.18154e-06
-2.90049e-07
0.000124412
8.36212e-05
2.82385e-07
8.33388e-05
6.52325e-07
0.000124043
0.000158969
7.14158e-09
-6.81495e-07
0.000157452
2.19918e-06
-2.95239e-07
0.000123656
8.30436e-05
2.87708e-07
8.27559e-05
6.65924e-07
0.000123278
0.00015808
3.72293e-08
-6.95758e-07
0.000156558
2.21864e-06
-3.00861e-07
0.000122883
8.2455e-05
2.93346e-07
8.21617e-05
6.8027e-07
0.000122496
0.000157169
6.89141e-08
-7.10861e-07
0.00015564
2.2395e-06
-3.06825e-07
0.000122092
8.18549e-05
2.99423e-07
8.15554e-05
6.95656e-07
0.000121696
0.000156233
1.02567e-07
-7.26849e-07
0.000154699
2.26168e-06
-3.13162e-07
0.000121282
8.12423e-05
3.05883e-07
8.09364e-05
7.11953e-07
0.000120876
0.000155273
1.37917e-07
-7.43743e-07
0.000153731
2.28519e-06
-3.19885e-07
0.000120452
8.06165e-05
3.12742e-07
8.03038e-05
7.29176e-07
0.000120036
0.000154285
1.7497e-07
-7.61534e-07
0.000152737
2.30999e-06
-3.26997e-07
0.000119601
7.99768e-05
3.19993e-07
7.96568e-05
7.47304e-07
0.000119174
0.000153271
2.13705e-07
-7.80211e-07
0.000151715
2.33607e-06
-3.34492e-07
0.000118728
7.93223e-05
3.27632e-07
7.89947e-05
7.66331e-07
0.00011829
0.000152227
2.54125e-07
-7.99781e-07
0.000150663
2.36344e-06
-3.42373e-07
0.000117832
7.86523e-05
3.35665e-07
7.83167e-05
7.86272e-07
0.000117382
0.000151153
2.96268e-07
-8.20266e-07
0.000149581
2.39213e-06
-3.50648e-07
0.000116912
7.7966e-05
3.44102e-07
7.76219e-05
8.07153e-07
0.000116449
0.000150048
3.40194e-07
-8.41697e-07
0.000148468
2.42219e-06
-3.59329e-07
0.000115967
7.72626e-05
3.52955e-07
7.69096e-05
8.29006e-07
0.000115491
0.000148911
3.85966e-07
-8.64121e-07
0.000147321
2.4537e-06
-3.68434e-07
0.000114995
7.65412e-05
3.62267e-07
7.6179e-05
8.51937e-07
0.000114505
0.00014774
4.33771e-07
-8.87887e-07
0.00014614
2.4872e-06
-3.7813e-07
0.000113996
7.58008e-05
3.72045e-07
7.54288e-05
8.75927e-07
0.000113492
0.000146533
4.83506e-07
-9.12462e-07
0.000144923
2.52177e-06
-3.88168e-07
0.000112967
7.50406e-05
3.82284e-07
7.46583e-05
9.00994e-07
0.000112449
0.000145289
5.35313e-07
-9.3793e-07
0.000143669
2.55762e-06
-3.98579e-07
0.000111909
7.42598e-05
3.92855e-07
7.38669e-05
9.26877e-07
0.000111375
0.000144007
5.88829e-07
-9.64342e-07
0.000142377
2.59489e-06
-4.09378e-07
0.00011082
7.34576e-05
4.03813e-07
7.30537e-05
9.53711e-07
0.000110271
0.000142686
6.44285e-07
-9.91665e-07
0.000141044
2.6335e-06
-4.20543e-07
0.000109699
7.26332e-05
4.15134e-07
7.22181e-05
9.81453e-07
0.000109133
0.000141324
7.01614e-07
-1.01989e-06
0.000139671
2.67343e-06
-4.32073e-07
0.000108545
7.1786e-05
4.26827e-07
7.13592e-05
1.01011e-06
0.000107962
0.00013992
7.60825e-07
-1.04905e-06
0.000138255
2.71466e-06
-4.43979e-07
0.000107357
7.09152e-05
4.38903e-07
7.04763e-05
1.03971e-06
0.000106756
0.000138472
8.21947e-07
-1.07914e-06
0.000136794
2.75723e-06
-4.56273e-07
0.000106133
7.00201e-05
4.51373e-07
6.95687e-05
1.07026e-06
0.000105514
0.000136979
8.85009e-07
-1.11017e-06
0.000135289
2.80111e-06
-4.68954e-07
0.000104873
6.90997e-05
4.64189e-07
6.86356e-05
1.10165e-06
0.000104236
0.00013544
9.49843e-07
-1.14173e-06
0.000133736
2.84565e-06
-4.81829e-07
0.000103576
6.81537e-05
4.77359e-07
6.76764e-05
1.13394e-06
0.000102919
0.000133854
1.01664e-06
-1.17445e-06
0.000132136
2.89189e-06
-4.95186e-07
0.00010224
6.71812e-05
4.90863e-07
6.66903e-05
1.16706e-06
0.000101564
0.000132218
1.0852e-06
-1.2084e-06
0.000130487
2.93991e-06
-5.09077e-07
0.000100865
6.61813e-05
5.04764e-07
6.56765e-05
1.2011e-06
0.000100168
0.000130532
1.15553e-06
-1.24279e-06
0.000128787
2.98824e-06
-5.2313e-07
9.94485e-05
6.51534e-05
5.18956e-07
6.46344e-05
1.23582e-06
9.87317e-05
0.000128795
1.2274e-06
-1.27758e-06
0.000127036
3.03696e-06
-5.37349e-07
9.79915e-05
6.40971e-05
5.33182e-07
6.35639e-05
1.27071e-06
9.72539e-05
0.000127007
1.3e-06
-1.31256e-06
0.000125233
3.08581e-06
-5.51612e-07
9.6493e-05
6.30123e-05
5.47405e-07
6.24649e-05
1.30569e-06
9.57347e-05
0.000125166
1.37328e-06
-1.34752e-06
0.000123379
3.13444e-06
-5.65811e-07
9.4953e-05
6.18991e-05
5.61514e-07
6.13376e-05
1.34053e-06
9.4174e-05
0.000123273
1.44685e-06
-1.38222e-06
0.000121472
3.18248e-06
-5.79851e-07
9.33716e-05
6.07578e-05
5.75381e-07
6.01824e-05
1.37494e-06
9.25721e-05
0.000121327
1.52022e-06
-1.41609e-06
0.000119514
3.22898e-06
-5.93453e-07
9.17495e-05
5.95889e-05
5.89021e-07
5.89999e-05
1.40897e-06
9.09295e-05
0.00011933
1.59358e-06
-1.45e-06
0.000117504
3.27536e-06
-6.07054e-07
9.00866e-05
5.83929e-05
6.02148e-07
5.77907e-05
1.44192e-06
8.92468e-05
0.000117281
1.66553e-06
-1.48279e-06
0.000115444
3.31964e-06
-6.20108e-07
8.83841e-05
5.71706e-05
6.1504e-07
5.65556e-05
1.47435e-06
8.75248e-05
0.000115181
1.73701e-06
-1.51449e-06
0.000113334
3.36178e-06
-6.32672e-07
8.6643e-05
5.59229e-05
6.27289e-07
5.52957e-05
1.50536e-06
8.5765e-05
0.000113033
1.80657e-06
-1.545e-06
0.000111176
3.40178e-06
-6.44694e-07
8.48647e-05
5.4651e-05
6.39223e-07
5.40118e-05
1.53564e-06
8.39683e-05
0.000110836
1.87518e-06
-1.5761e-06
0.000108971
3.44168e-06
-6.57125e-07
8.30493e-05
5.33546e-05
6.56364e-07
5.26983e-05
1.57139e-06
8.21343e-05
0.000108594
1.9483e-06
-1.61939e-06
0.000106723
3.49008e-06
-6.82341e-07
8.11972e-05
5.20159e-05
6.84616e-07
5.13313e-05
1.61854e-06
8.02633e-05
0.000106311
2.03044e-06
-1.66458e-06
0.000104436
3.53947e-06
-7.08319e-07
7.93071e-05
5.0623e-05
7.07765e-07
4.99153e-05
1.66044e-06
7.83544e-05
0.00010399
2.10693e-06
-1.7037e-06
0.000102112
3.5817e-06
-7.29251e-07
7.738e-05
4.9186e-05
7.25784e-07
4.84602e-05
1.69515e-06
7.64106e-05
0.000101633
2.17454e-06
-1.73462e-06
9.97543e-05
3.61287e-06
-7.44814e-07
7.54208e-05
4.77154e-05
7.39124e-07
4.69763e-05
1.7226e-06
7.44373e-05
9.92438e-05
2.2332e-06
-1.75728e-06
9.73683e-05
3.63274e-06
-7.55445e-07
7.34355e-05
4.62209e-05
7.46878e-07
4.5474e-05
1.7402e-06
7.24422e-05
9.68303e-05
2.27819e-06
-1.77083e-06
9.49614e-05
3.63975e-06
-7.61014e-07
7.14324e-05
4.4713e-05
7.49333e-07
4.39637e-05
1.74782e-06
7.04339e-05
9.44005e-05
2.30878e-06
-1.77401e-06
9.25431e-05
3.63138e-06
-7.61186e-07
6.94211e-05
4.32025e-05
7.46737e-07
4.24557e-05
1.74553e-06
6.84223e-05
9.19638e-05
2.32486e-06
-1.7661e-06
9.01235e-05
3.60635e-06
-7.55867e-07
6.74121e-05
4.16999e-05
7.38256e-07
4.09616e-05
1.73123e-06
6.64191e-05
8.95319e-05
2.32282e-06
-1.74612e-06
8.7715e-05
3.56306e-06
-7.44714e-07
6.54177e-05
4.02169e-05
7.23917e-07
3.9493e-05
1.70464e-06
6.4437e-05
8.71178e-05
2.30184e-06
-1.71364e-06
8.53309e-05
3.50059e-06
-7.27666e-07
6.3451e-05
3.87654e-05
7.03651e-07
3.80617e-05
1.66536e-06
6.24893e-05
8.47353e-05
2.26093e-06
-1.66843e-06
8.29853e-05
3.41846e-06
-7.04736e-07
6.15256e-05
3.7357e-05
6.7755e-07
3.66794e-05
1.61333e-06
6.05898e-05
8.2399e-05
2.19967e-06
-1.6106e-06
8.0693e-05
3.31663e-06
-6.76094e-07
5.96553e-05
3.60033e-05
6.45866e-07
3.53575e-05
1.54884e-06
5.87524e-05
8.01238e-05
2.11807e-06
-1.54057e-06
7.84688e-05
3.19555e-06
-6.42054e-07
5.78539e-05
3.47154e-05
6.08981e-07
3.41065e-05
1.47245e-06
5.69904e-05
7.79246e-05
2.01663e-06
-1.45905e-06
7.63276e-05
3.05613e-06
-6.03062e-07
5.61344e-05
3.35034e-05
5.67395e-07
3.2936e-05
1.38498e-06
5.53168e-05
7.58163e-05
1.89623e-06
-1.36666e-06
7.42838e-05
2.89915e-06
-5.59476e-07
5.45097e-05
3.23765e-05
5.22077e-07
3.18545e-05
1.28843e-06
5.37433e-05
7.38124e-05
1.75991e-06
-1.2672e-06
7.23489e-05
2.73066e-06
-5.13124e-07
5.29892e-05
3.13414e-05
4.73686e-07
3.08677e-05
1.1838e-06
5.22791e-05
7.19244e-05
1.60833e-06
-1.15985e-06
7.05358e-05
2.5485e-06
-4.6392e-07
5.15832e-05
3.04038e-05
4.24018e-07
2.99798e-05
1.07498e-06
5.09323e-05
7.01632e-05
1.44755e-06
-1.04974e-06
6.88556e-05
2.35732e-06
-4.14061e-07
5.02966e-05
2.95657e-05
3.73659e-07
2.9192e-05
9.63057e-07
4.97072e-05
6.85364e-05
1.2823e-06
-9.3752e-07
6.73083e-05
2.16558e-06
-3.64043e-07
4.91337e-05
2.8828e-05
3.24176e-07
2.85038e-05
8.51309e-07
4.86066e-05
6.70488e-05
1.11091e-06
-8.26306e-07
6.59004e-05
1.97468e-06
-3.15154e-07
4.80954e-05
2.81887e-05
2.76142e-07
2.79126e-05
7.41362e-07
4.76302e-05
6.57022e-05
9.39522e-07
-7.18782e-07
6.46324e-05
1.78867e-06
-2.68587e-07
4.718e-05
2.7644e-05
2.31134e-07
2.74128e-05
6.36589e-07
4.67746e-05
6.44955e-05
7.73465e-07
-6.17583e-07
6.35015e-05
1.61164e-06
-2.25574e-07
4.63826e-05
2.71873e-05
1.89604e-07
2.69977e-05
5.38081e-07
4.60341e-05
6.34251e-05
6.1444e-07
-5.23055e-07
6.25038e-05
1.44433e-06
-1.86119e-07
4.56972e-05
2.68116e-05
1.52369e-07
2.66592e-05
4.47882e-07
4.54017e-05
6.24853e-05
4.66382e-07
-4.36892e-07
6.16324e-05
1.2898e-06
-1.50874e-07
4.51157e-05
2.65083e-05
1.19487e-07
2.63888e-05
3.66524e-07
4.48686e-05
6.16685e-05
3.30415e-07
-3.60209e-07
6.08769e-05
1.15185e-06
-1.20215e-07
4.46286e-05
2.62686e-05
9.15323e-08
2.61771e-05
2.95434e-07
4.44247e-05
6.09636e-05
2.08743e-07
-2.93084e-07
6.02291e-05
1.02753e-06
-9.38806e-08
4.42255e-05
2.60832e-05
6.83359e-08
2.60149e-05
2.34818e-07
4.40591e-05
6.03599e-05
1.04086e-07
-2.3736e-07
5.96758e-05
9.21391e-07
-7.28724e-08
4.38946e-05
2.5942e-05
5.07708e-08
2.58912e-05
1.86332e-07
4.3759e-05
5.98444e-05
1.77802e-08
-1.93382e-07
5.92049e-05
8.32885e-07
-5.75746e-08
4.36232e-05
2.58337e-05
3.72932e-08
2.57964e-05
1.46793e-07
4.35137e-05
5.94082e-05
-5.64736e-08
-1.60313e-07
5.88035e-05
7.64966e-07
-4.69627e-08
4.34004e-05
2.57494e-05
2.88485e-08
2.57206e-05
1.19016e-07
4.33102e-05
5.90334e-05
-1.10837e-07
-1.38896e-07
5.84547e-05
7.17577e-07
-4.12064e-08
4.32125e-05
2.56794e-05
2.58961e-08
2.56535e-05
1.04163e-07
4.31342e-05
5.87023e-05
-1.43456e-07
-1.30845e-07
5.81408e-05
6.92373e-07
-4.11686e-08
4.30446e-05
2.56123e-05
2.9423e-08
2.55829e-05
1.03802e-07
4.29702e-05
5.83971e-05
-1.52476e-07
-1.37033e-07
5.78422e-05
6.91831e-07
-4.7181e-08
4.28803e-05
2.55357e-05
3.4516e-08
2.55012e-05
1.14217e-07
4.28006e-05
5.80893e-05
-1.32874e-07
-5.18768e-07
5.79021e-05
7.06039e-07
-6.88734e-08
4.23507e-05
2.54323e-05
5.07623e-08
2.53815e-05
-2.04038e-07
4.26055e-05
5.73645e-05
3.33574e-07
-5.68853e-07
5.75526e-05
3.80753e-07
-8.81381e-08
4.21248e-05
2.52934e-05
8.64229e-08
2.5207e-05
2.23618e-07
4.19876e-05
5.73668e-05
4.09437e-07
-6.52117e-07
5.6741e-05
1.27788e-06
-1.3435e-07
4.14699e-05
2.50726e-05
1.35481e-07
2.49371e-05
-7.26027e-08
4.16779e-05
5.66113e-05
5.705e-08
8.58598e-07
5.74059e-05
-1.65326e-06
2.19051e-07
4.23175e-05
2.51562e-05
-8.49244e-07
2.60054e-05
-1.94775e-06
4.3416e-05
5.94599e-05
-4.00171e-06
1.20552e-06
-1.96149e-06
5.42806e-07
-1.21617e-05
-0.00018264
-1.02879e-07
-0.000212195
-3.82234e-06
-0.000249424
7.98932e-06
-0.000258201
3.28805e-06
-0.000271088
6.80134e-06
-0.000276637
4.53153e-06
-0.0002815
5.47191e-06
-0.00028493
5.352e-06
-0.000288028
5.95697e-06
-0.000291483
6.35273e-06
-0.000294459
6.7489e-06
-0.000297608
7.1474e-06
-0.00030017
7.39841e-06
-0.000302706
7.73718e-06
-0.000304956
7.90545e-06
-0.000307033
8.18104e-06
-0.00030902
8.26992e-06
-0.000310782
8.48021e-06
-0.000312588
8.49516e-06
-0.000314141
8.63975e-06
-0.000315818
8.58647e-06
-0.000317236
8.66672e-06
-0.000318829
8.54929e-06
-0.000320166
8.56871e-06
-0.000321711
8.39251e-06
-0.000323007
8.35493e-06
-0.000324532
8.12595e-06
-0.000325819
8.03322e-06
-0.000327342
7.75741e-06
-0.00032865
7.61192e-06
-0.000330185
7.29392e-06
-0.000331539
7.09716e-06
-0.000333101
6.74074e-06
-0.000334527
6.49246e-06
-0.000336063
6.10037e-06
-0.000337516
5.86652e-06
-0.000338896
5.91972e-06
-0.000339778
6.04884e-06
-0.00033989
7.93269e-06
-0.000338565
9.42139e-06
-0.000335594
1.65231e-05
-0.000330006
2.44671e-05
-0.000325629
5.58785e-05
-0.000324424
0.000121218
-0.000330949
6.16968e-05
-0.000206387
2.78047e-05
-0.000206984
2.61715e-05
-0.000185992
8.32134e-06
-0.000167162
4.94127e-06
-5.74342e-05
2.13118e-06
-4.45658e-05
-2.89e-05
-2.94621e-06
-2.59538e-05
-6.71797e-06
-4.0794e-05
-5.28023e-05
-1.13499e-05
5.69371e-06
-4.87936e-05
-9.70239e-06
2.47384e-06
-3.75742e-05
-2.34799e-05
-1.81631e-06
-2.16636e-05
-4.01991e-06
-3.53706e-05
-4.61136e-05
-6.69995e-06
1.58104e-06
-4.52034e-05
-2.49121e-06
6.95996e-07
-3.44855e-05
-2.09676e-05
-5.95776e-07
-2.03718e-05
-1.3822e-06
-3.36991e-05
-4.41751e-05
-2.41057e-06
8.12936e-08
-4.41539e-05
-1.02508e-07
6.84769e-08
-3.36863e-05
-2.03034e-05
-1.77277e-07
-2.01261e-05
-4.98401e-07
-3.33652e-05
-4.37234e-05
-9.28897e-07
-3.96567e-07
-4.40097e-05
6.82869e-07
-1.68183e-07
-3.35936e-05
-2.02943e-05
-1.98172e-07
-2.00961e-05
-4.97112e-07
-3.32946e-05
-4.3596e-05
-9.10739e-07
-3.16481e-07
-4.38307e-05
5.51092e-07
-1.88535e-07
-3.34226e-05
-2.02847e-05
-1.18274e-07
-2.01664e-05
-2.74217e-07
-3.32667e-05
-4.34398e-05
-6.65115e-07
-4.54043e-07
-4.38132e-05
8.27446e-07
-2.50919e-07
-3.34698e-05
-2.04173e-05
-1.73961e-07
-2.02433e-05
-3.88514e-07
-3.32552e-05
-4.33556e-05
-8.4604e-07
-3.49403e-07
-4.36e-05
5.93733e-07
-2.06183e-07
-3.33985e-05
-2.04495e-05
-1.04031e-07
-2.03455e-05
-2.47825e-07
-3.32547e-05
-4.32854e-05
-5.62389e-07
-4.72212e-07
-4.36631e-05
8.49877e-07
-2.63017e-07
-3.34639e-05
-2.06085e-05
-1.64202e-07
-2.04443e-05
-3.72583e-07
-3.32555e-05
-4.32108e-05
-8.24908e-07
-3.59874e-07
-4.34541e-05
6.03164e-07
-2.1443e-07
-3.34009e-05
-2.06588e-05
-9.75404e-08
-2.05612e-05
-2.3854e-07
-3.32599e-05
-4.31412e-05
-5.51442e-07
-4.77398e-07
-4.35142e-05
8.50395e-07
-2.69184e-07
-3.34682e-05
-2.08304e-05
-1.60377e-07
-2.067e-05
-3.68773e-07
-3.32598e-05
-4.30607e-05
-8.22251e-07
-3.60984e-07
-4.32975e-05
5.97746e-07
-2.18451e-07
-3.34023e-05
-2.08885e-05
-9.4898e-08
-2.07936e-05
-2.37379e-07
-3.32598e-05
-4.29814e-05
-5.53474e-07
-4.75299e-07
-4.3345e-05
8.38952e-07
-2.72077e-07
-3.3463e-05
-2.10657e-05
-1.59591e-07
-2.09061e-05
-3.7145e-07
-3.32512e-05
-4.28866e-05
-8.29808e-07
-3.56649e-07
-4.31131e-05
5.83099e-07
-2.20067e-07
-3.33877e-05
-2.11261e-05
-9.41952e-08
-2.10319e-05
-2.40551e-07
-3.32414e-05
-4.2791e-05
-5.62687e-07
-4.6913e-07
-4.31422e-05
8.20326e-07
-2.73274e-07
-3.34372e-05
-2.13052e-05
-1.60081e-07
-2.11451e-05
-3.77175e-07
-3.32202e-05
-4.26766e-05
-8.42707e-07
-3.49972e-07
-4.28905e-05
5.6385e-07
-2.20818e-07
-3.33493e-05
-2.1366e-05
-9.36743e-08
-2.12723e-05
-2.44509e-07
-3.31985e-05
-4.25611e-05
-5.73928e-07
-4.62821e-07
-4.28984e-05
8.00095e-07
-2.74684e-07
-3.33866e-05
-2.1547e-05
-1.59728e-07
-2.13872e-05
-3.81554e-07
-3.31648e-05
-4.24254e-05
-8.54492e-07
-3.45827e-07
-4.26266e-05
5.46957e-07
-2.23018e-07
-3.32876e-05
-2.16102e-05
-9.05231e-08
-2.15197e-05
-2.43388e-07
-3.31347e-05
-4.22914e-05
-5.78556e-07
-4.62624e-07
-4.2616e-05
7.87227e-07
-2.79272e-07
-3.33181e-05
-2.1799e-05
-1.5482e-07
-2.16441e-05
-3.76981e-07
-3.30959e-05
-4.21387e-05
-8.54268e-07
-3.53799e-07
-4.23309e-05
5.46017e-07
-2.3145e-07
-3.32182e-05
-2.18756e-05
-7.75804e-08
-2.1798e-05
-2.23897e-07
-3.30719e-05
-4.19964e-05
-5.58368e-07
-4.86728e-07
-4.23157e-05
8.06013e-07
-2.97139e-07
-3.32615e-05
-2.20952e-05
-1.31474e-07
-2.19637e-05
-3.3925e-07
-3.30538e-05
-4.18452e-05
-8.09737e-07
-4.10934e-07
-4.20423e-05
6.07995e-07
-2.686e-07
-3.31961e-05
-2.22323e-05
-1.87284e-08
-2.22136e-05
-1.29861e-07
-3.3085e-05
-4.17288e-05
-4.43453e-07
-6.12577e-07
-4.2009e-05
8.92786e-07
-3.76822e-07
-3.33208e-05
-2.25905e-05
-2.28224e-08
-2.25676e-05
-2.21062e-07
-3.31226e-05
-4.16481e-05
-5.82015e-07
-6.76759e-07
-4.17946e-05
8.23366e-07
-4.19432e-07
-3.33799e-05
-2.2987e-05
1.217e-07
-2.31087e-05
-2.83696e-08
-3.32297e-05
-4.15931e-05
-2.29792e-07
-8.52362e-07
-4.17655e-05
1.02477e-06
-4.47505e-07
-3.36345e-05
-2.35562e-05
3.9369e-08
-2.35955e-05
-2.07237e-07
-3.33879e-05
-4.15272e-05
-4.45537e-07
-6.19462e-07
-4.17174e-05
8.09655e-07
-3.85153e-07
-3.36222e-05
-2.39807e-05
1.25776e-07
-2.41064e-05
9.36172e-08
-3.359e-05
-4.16776e-05
5.38715e-08
-8.51641e-07
-4.21538e-05
1.32789e-06
-4.25195e-07
-3.40165e-05
-2.45316e-05
4.01381e-07
-2.49328e-05
5.62663e-07
-3.41778e-05
-4.23154e-05
7.24383e-07
-2.01059e-06
-4.33697e-05
3.06604e-06
-9.78503e-07
-3.52117e-05
-2.59099e-05
1.75442e-06
-2.76842e-05
3.61106e-06
-3.70326e-05
-4.51731e-05
5.39132e-06
3.36005e-05
-2.25826e-05
-5.62138e-05
1.47761e-05
-1.81791e-05
-1.29006e-05
1.56002e-06
-1.65643e-05
1.00655e-05
-2.33906e-05
-2.92547e-05
1.53668e-05
-5.42399e-06
-3.23772e-05
8.00969e-06
-1.86639e-06
-2.60972e-05
-1.88032e-05
1.61301e-06
-2.01779e-05
2.50003e-06
-2.73595e-05
-3.36026e-05
3.87484e-06
-1.7939e-06
-6.69817e-05
3.5159e-05
-1.05435e-06
-2.80513e-05
-2.12686e-05
9.91479e-07
-2.22579e-05
3.03907e-05
-5.74527e-05
-5.71427e-05
2.05527e-05
-1.53713e-05
-5.75485e-05
1.57771e-05
-2.39366e-05
-4.88873e-05
-4.61945e-05
7.53034e-06
-5.37249e-05
1.18389e-05
-5.31958e-05
-5.7413e-05
1.17033e-05
-7.44332e-06
-5.6625e-05
6.65529e-06
-6.15795e-06
-5.44812e-05
-5.98828e-05
9.69005e-07
-6.08519e-05
-2.2447e-06
-5.12675e-05
-5.68217e-05
-2.04809e-06
1.51517e-05
-3.4635e-05
-3.73385e-05
4.42191e-06
-4.05378e-05
-5.64301e-05
-4.51727e-07
-5.59784e-05
-2.12194e-06
-3.88676e-05
-4.19296e-05
5.17263e-06
1.60082e-06
-4.09664e-05
-2.56407e-06
1.73276e-07
-3.74401e-05
-5.58052e-05
-3.46309e-06
-5.23421e-05
-6.97981e-06
-3.39234e-05
-3.753e-05
-1.04162e-05
1.4454e-05
-3.27568e-05
-1.92272e-05
9.2849e-06
-2.87542e-05
-4.30572e-05
-1.82267e-05
-2.48305e-05
-2.57272e-05
-2.12537e-05
-2.45971e-05
-3.38869e-05
4.27605e-05
-3.19839e-06
-6.41591e-05
3.06474e-05
-9.14055e-06
5.81701e-06
-4.24803e-05
4.82974e-05
-4.90562e-05
-2.56469e-06
-4.21667e-06
-4.80379e-05
5.08238e-05
-1.40556e-05
-4.09849e-05
5.23562e-05
-4.09703e-06
0.000100654
-7.1532e-05
0.000172186
-7.6686e-05
1.05691e-06
-1.08571e-05
-7.98845e-05
0.000111957
2.9525e-05
-0.000152339
9.61711e-05
1.68428e-05
0.000268357
-0.000105552
0.000373908
-0.000106284
1.75755e-05
9.64644e-06
-8.64059e-05
0.000113074
-1.23039e-05
-9.11239e-05
0.0001205
1.01502e-05
0.000494408
-0.000151192
0.000645599
-0.000172345
3.13041e-05
3.95571e-05
-0.000224207
0.000161367
2.31012e-05
-0.000144911
0.000159688
3.29831e-05
0.000805288
-0.00016464
0.000969928
-0.000174178
4.25202e-05
2.44667e-05
-0.000175543
0.000189454
8.33029e-05
-0.00024829
0.000160906
7.10677e-05
0.00113083
-9.05829e-05
0.00122142
-0.000106925
8.74094e-05
9.42271e-05
-0.000117849
5.85912e-05
0.000121338
-8.57021e-05
2.36106e-05
0.00012239
0.00124503
5.08115e-05
0.00119422
1.64956e-05
0.000156706
0.00017374
-3.59062e-05
-0.000137469
0.000132528
0.000178681
-0.000121596
0.000140832
0.00107262
0.000129623
0.000942998
0.000126921
0.000143534
0.000125694
0.000133755
-9.73295e-05
0.000226716
-3.69289e-06
-0.000127831
0.000174036
0.000815167
0.000140609
0.000674558
0.000157754
0.000156891
0.000154369
0.000230101
-0.000129123
0.000139752
0.00014374
-0.000126246
0.000154014
0.000548312
0.000104237
0.000444075
8.23566e-05
0.000175895
0.00023736
-1.52519e-05
-0.000126958
0.000159604
0.000204714
-0.000104131
0.000153068
0.000339944
7.92806e-05
0.000260664
9.01804e-05
0.000142168
0.000133926
0.000115858
-3.91279e-05
0.000215821
-4.27668e-05
-5.25382e-05
0.000155579
0.000208126
5.03563e-05
0.00015777
7.60997e-05
0.000129835
0.000147162
0.000144758
-5.51214e-05
0.000114699
8.75841e-05
-3.75572e-05
0.00011227
0.000120211
2.03143e-05
9.98954e-05
1.32689e-05
0.000119314
0.000183672
-5.57055e-05
-6.1755e-05
0.000116968
0.000128458
-2.82055e-05
8.57664e-05
7.16892e-05
5.01586e-05
2.15381e-05
4.40891e-05
9.18185e-05
9.15858e-05
6.9482e-05
-2.05101e-05
0.000166512
-5.44697e-05
1.709e-05
5.43486e-05
3.8542e-05
1.1475e-05
2.79803e-05
2.52428e-05
3.93881e-05
5.76274e-05
0.000134548
-2.5512e-05
3.80464e-05
4.14025e-05
-5.55959e-06
2.73375e-05
1.76254e-05
-1.59734e-05
3.50582e-05
-4.54583e-05