/*--------------------------------*- C++ -*----------------------------------*\
| =========                 |                                                 |
| \\      /  F ield         | OpenFOAM: The Open Source CFD Toolbox           |
|  \\    /   O peration     | Version:  v2006                                 |
|   \\  /    A nd           | Website:  www.openfoam.com                      |
|    \\/     M anipulation  |                                                 |
\*---------------------------------------------------------------------------*/
FoamFile
{
    version     2.0;
    format      ascii;
    class       volScalarField;
    location    "0.042";
    object      yPlus;
}
// * * * * * * * * * * * * * * * * * * * * * * * * * * * * * * * * * * * * * //

dimensions      [0 0 0 0 0 0 0];


internalField   uniform 0;

boundaryField
{
    bottomEmptyFaces
    {
        type            empty;
    }
    topEmptyFaces
    {
        type            empty;
    }
    inlet
    {
        type            calculated;
        value           uniform 0;
    }
    outlet
    {
        type            calculated;
        value           uniform 0;
    }
    walls
    {
        type            calculated;
        value           nonuniform List<scalar> 
988
(
13.359
13.3679
13.3757
13.3844
13.3921
13.4006
13.4081
13.4163
13.4237
13.4317
13.4388
13.4466
13.4535
13.4611
13.4678
13.4751
13.4817
13.4888
13.4951
13.502
13.5082
13.5149
13.5209
13.5275
13.5333
13.5396
13.5453
13.5515
13.557
13.563
13.5684
13.5741
13.5794
13.5851
13.5902
13.5957
13.6006
13.6059
13.6108
13.6159
13.6206
13.6257
13.6302
13.635
13.6395
13.6442
13.6485
13.653
13.6572
13.6616
13.6656
13.6699
13.6738
13.6779
13.6816
13.6856
13.6893
13.6931
13.6967
13.7004
13.7038
13.7074
13.7107
13.7142
13.7174
13.7208
13.724
13.7272
13.7302
13.7334
13.7363
13.7393
13.7422
13.7451
13.7478
13.7506
13.7533
13.7561
13.7586
13.7613
13.7637
13.7663
13.7686
13.7711
13.7734
13.7758
13.778
13.7804
13.7825
13.7847
13.7868
13.789
13.7909
13.7931
13.7949
13.797
13.7989
13.8008
13.8026
13.8045
13.8062
13.8081
13.8097
13.8116
13.8132
13.8149
13.8164
13.8182
13.8197
13.8213
13.8228
13.8243
13.8258
13.8273
13.8286
13.8302
13.8315
13.833
13.8342
13.8357
13.8369
13.8384
13.8395
13.8409
13.842
13.8434
13.8445
13.8458
13.8469
13.8481
13.8492
13.8504
13.8515
13.8527
13.8537
13.8548
13.8558
13.857
13.8579
13.859
13.8599
13.861
13.8619
13.8629
13.8639
13.8649
13.8657
13.8667
13.8675
13.8685
13.8693
13.8702
13.871
13.872
13.8728
13.8736
13.8744
13.8753
13.876
13.8769
13.8776
13.8785
13.8792
13.88
13.8808
13.8816
13.8823
13.8831
13.8838
13.8846
13.8852
13.886
13.8867
13.8875
13.8881
13.8889
13.8895
13.8903
13.8909
13.8917
13.8924
13.8932
13.8938
13.8946
13.8953
13.8961
13.8967
13.8975
13.8983
13.8991
13.9
13.9009
13.9015
13.9025
13.9032
13.9043
13.905
13.9061
13.9068
13.908
13.9088
13.91
13.9107
13.912
13.9127
13.9139
13.9147
13.9159
13.9166
13.9178
13.9185
13.9195
13.9202
13.9212
13.9219
13.9228
13.9237
13.9246
13.9261
13.9171
13.9391
13.9104
13.9247
13.9051
14.2042
14.6671
11.0477
7.67587
8.09966
9.7695
8.53237
8.68496
6.96278
7.18007
8.58313
9.23012
8.25926
9.06016
8.31594
8.9081
8.88523
9.56013
9.60194
9.91423
8.5322
9.24959
10.6575
9.29524
9.58962
7.69447
7.96419
10.2417
8.11226
8.70706
8.94558
9.10921
8.10444
8.79433
7.52746
7.77488
7.81659
8.49632
59.884
38.7486
47.93
9.76264
7.27114
6.14956
30.7514
9.37779
16.7586
422.554
188.926
125.694
156.834
356.319
238.251
278.514
478.93
514.189
509.46
420.553
475.456
107.507
72.408
84.3763
376.75
281.76
315.86
240.239
202.832
147.776
164.797
124.896
105.158
84.266
69.5723
55.5853
43.6008
45.8685
20.2436
19.0135
18.6999
18.464
6.45464
6.54808
18.5966
17.4131
22.7419
17.0529
15.0352
7.73483
7.73298
23.4226
23.5044
8.41912
6.34193
6.25299
6.81191
7.22487
23.5498
23.2719
8.45772
7.30442
7.28372
6.40878
6.30327
7.40865
7.32344
22.7215
22.1251
21.4288
20.7082
19.9925
19.303
18.649
18.0355
7.5983
7.45259
6.31179
5.71415
7.31965
6.784
6.52506
5.81876
5.49303
6.23964
5.67918
17.463
16.9321
16.441
15.9876
7.37538
6.20193
5.26533
15.572
15.1911
6.77149
5.46456
4.89995
7.10165
5.87805
5.14875
7.96923
6.54578
5.29779
6.59183
6.08479
14.8448
14.5305
8.21625
7.79345
5.97632
5.75287
7.13906
6.83945
7.66486
6.56943
6.31568
5.77232
5.90301
8.13149
8.24421
8.02224
8.06524
7.13623
7.42678
9.13099
6.68612
6.7079
7.25191
7.7126
7.67819
8.32441
7.38248
7.9436
9.33628
6.87356
6.90476
8.91069
6.43198
6.78816
42.1294
34.8
28.1025
14.2479
16.3541
13.9934
8.47002
7.09887
13.7664
6.16426
13.5637
5.59116
13.3853
13.2282
13.0917
12.9725
7.42438
4.16974
8.73542
7.74289
7.39309
12.8696
7.1311
7.04382
12.7805
12.7045
6.89391
12.6399
6.86181
6.73805
6.71481
12.5852
6.59195
6.57274
12.5392
12.5006
12.4682
6.46125
6.43517
6.34336
6.3481
6.27355
6.25892
6.18046
6.19756
6.12774
6.1156
12.4408
6.04532
6.06298
12.4178
12.398
12.3814
12.3666
12.3539
12.3419
12.3315
12.3209
12.3114
5.99952
12.3012
5.98898
12.2921
5.92533
5.94326
5.88508
5.87565
12.2817
12.2725
5.8172
12.2613
5.83519
12.2527
5.78125
5.7727
5.71862
5.73673
5.68664
5.67916
5.62938
5.64793
5.60177
5.59549
5.55483
5.56636
5.52896
5.52465
5.48951
5.50299
5.48044
5.48121
5.49267
5.56096
5.68587
5.94118
6.44713
7.04512
12.2409
12.2327
12.2211
12.2131
12.2017
12.194
12.1827
12.1755
12.1648
12.1585
12.1483
12.1429
12.1338
12.1297
12.1215
12.1187
12.112
12.1108
12.1055
12.1058
12.1024
12.1037
12.1021
12.1044
12.105
12.1083
12.1109
12.115
12.119
12.1239
12.1284
12.1346
12.1398
12.147
12.1527
12.1608
12.1671
12.1763
12.183
12.1931
12.2004
12.2116
12.2195
12.2313
12.2402
12.2527
12.2626
12.2756
12.2865
12.3002
12.3119
12.3261
12.3386
12.3534
12.3666
12.3817
12.3956
12.4112
12.4256
12.4416
12.4563
12.4727
12.4876
12.5042
12.5194
12.5362
12.5514
12.5683
12.5837
12.6007
12.6161
12.633
12.6485
12.6654
12.6807
12.6975
12.7128
12.7294
12.7445
12.761
12.776
12.7923
12.807
12.823
12.8375
12.8534
12.8676
12.8831
12.8972
12.9124
12.9261
12.941
12.9546
12.9691
12.9823
12.9966
13.0095
13.0234
13.0359
13.0495
13.0618
13.0751
13.0871
13.0999
13.1116
13.1242
13.1355
13.1477
13.1588
13.1707
13.1814
13.193
13.2035
13.2147
13.2249
13.2358
13.2457
13.2563
13.266
13.2763
13.2857
13.2957
13.3048
13.3145
13.3234
13.3327
13.3415
13.3506
13.3048
10.2181
10.981
11.4233
11.6644
9.5859
10.1543
10.8427
11.1875
12.4752
9.19295
9.61743
9.86891
10.7411
13.013
11.301
11.5773
10.2653
11.1642
10.0234
10.5888
9.4828
9.94969
14.0827
14.5579
12.5976
12.6032
10.6235
11.0789
14.0488
10.4807
10.7779
12.0569
12.2226
10.421
10.8352
12.3277
12.3884
15.688
15.5774
15.3958
12.8078
12.6194
12.699
12.449
16.0744
17.1499
16.0771
13.387
13.0752
14.0226
13.3804
15.7616
12.9865
12.7102
13.0063
12.5243
14.8534
11.0268
11.439
13.0453
13.0894
13.5105
11.6583
11.986
10.6809
11.4425
11.9722
12.2338
9.94496
10.3139
10.4967
11.1428
9.68339
10.028
9.73432
10.6201
9.51809
10.3081
11.7691
9.38078
10.1685
10.2288
10.6082
9.17385
9.86164
8.50565
8.86811
8.85583
9.61515
11.3275
9.92576
10.291
8.32487
8.63078
9.21966
9.95111
8.90682
9.77504
8.66617
9.44309
8.01536
8.23625
9.10649
10.0349
12.1714
10.6015
10.9753
8.83865
9.18837
19.2316
14.8385
14.0957
16.9495
15.1635
14.1189
7.64563
15.2681
32.9652
30.6991
29.1288
28.0241
27.1969
26.5245
25.9053
25.1955
24.6221
24.1835
23.8611
23.5276
23.2879
23.025
22.839
22.6254
22.4743
22.2958
22.1683
22.0148
21.9041
21.7686
21.6703
21.5484
21.4593
21.3478
21.2659
21.1626
21.0866
20.9899
20.9185
20.8272
20.7596
20.6728
20.6085
20.5257
20.4642
20.3848
20.3257
20.2493
20.1923
20.1186
20.0634
19.9922
19.9386
19.8695
19.8175
19.7503
19.6996
19.6342
19.5847
19.5209
19.4725
19.4102
19.3627
19.3018
19.2552
19.1955
19.1497
19.0911
19.046
18.9882
18.9437
18.8868
18.8428
18.7866
18.7431
18.6875
18.6443
18.5892
18.5463
18.4916
18.4489
18.3946
18.352
18.2979
18.2554
18.2014
18.1589
18.1049
18.0624
18.0084
17.9658
17.9116
17.8687
17.8143
17.7712
17.7165
17.6731
17.6179
17.5741
17.5184
17.4742
17.418
17.3732
17.3163
17.2709
17.2134
17.1674
17.1091
17.0624
17.0032
16.9558
16.8957
16.8474
16.7863
16.7372
16.6751
16.625
16.5617
16.5107
16.4461
16.394
16.328
16.2748
16.2073
16.1529
16.0839
16.0282
15.9576
15.9005
15.8282
15.7697
15.6956
15.6356
15.5595
15.498
15.4199
15.3567
15.2765
15.2116
15.1293
15.0625
14.978
14.9093
14.8224
14.7519
14.6625
14.5899
14.498
14.4234
14.3288
14.252
14.1546
14.0756
13.9753
13.894
13.7908
13.7071
13.6007
13.5146
13.4051
13.3166
13.2039
13.1129
12.997
12.9036
12.7845
12.6887
12.5664
12.4681
12.3428
12.2419
12.1137
12.0098
11.8799
11.7714
11.6424
11.5248
11.4073
11.3204
11.2165
11.1348
11.032
10.9494
10.8451
10.7606
10.6541
10.5678
10.4596
10.3717
10.2621
10.1733
10.0628
9.9736
9.86281
9.7738
9.66337
9.57529
9.46593
9.37951
9.27198
9.18797
9.08303
9.00217
8.90059
8.82357
8.72608
8.65362
8.56077
8.49338
8.40578
8.34383
8.26186
8.20556
8.12934
8.07877
8.00844
7.96357
7.89905
7.85967
7.80063
7.7663
7.71246
7.68276
7.63378
7.60823
7.56363
7.54171
7.5011
7.48225
7.44507
7.42836
7.39414
7.37894
7.34732
7.33321
7.30343
7.28984
7.26092
7.24719
7.21692
7.20424
7.16837
7.1562
7.12635
7.10211
7.08658
7.02662
7.04398
7.18322
35.777
7.39258
)
;
    }
    rightWall
    {
        type            calculated;
        value           uniform 0;
    }
    symmetryLine
    {
        type            symmetryPlane;
    }
}


// ************************************************************************* //
