/*--------------------------------*- C++ -*----------------------------------*\
| =========                 |                                                 |
| \\      /  F ield         | OpenFOAM: The Open Source CFD Toolbox           |
|  \\    /   O peration     | Version:  v2006                                 |
|   \\  /    A nd           | Website:  www.openfoam.com                      |
|    \\/     M anipulation  |                                                 |
\*---------------------------------------------------------------------------*/
FoamFile
{
    version     2.0;
    format      ascii;
    class       volScalarField;
    location    "0.083";
    object      nut;
}
// * * * * * * * * * * * * * * * * * * * * * * * * * * * * * * * * * * * * * //

dimensions      [0 2 -1 0 0 0 0];


internalField   nonuniform List<scalar> 
16277
(
18.948
12.4145
52.9827
9.0967
13.6219
8.46072
3.63095
1.50962
0.818319
0.552932
0.43482
0.374886
0.339079
0.313108
0.291243
0.271558
0.253636
0.237513
0.223211
0.21063
0.199579
0.189824
0.181147
0.173357
0.166308
0.159883
0.153997
0.148581
0.143582
0.138956
0.134666
0.130682
0.126975
0.123524
0.120307
0.117309
0.114513
0.111907
0.109479
0.107218
0.105116
0.103163
0.101353
0.0996797
0.0981372
0.0967209
0.0954264
0.0942505
0.0931907
0.0922448
0.0914116
0.0906904
0.0900811
0.0895841
0.0891993
0.0889302
0.0887791
0.0887508
0.0888495
0.0890766
0.0894401
0.0899477
0.0906081
0.0914323
0.0924329
0.0936244
0.0950248
0.0966556
0.0985439
0.100725
0.103245
0.106167
0.109567
0.113539
0.118173
0.123532
0.12962
0.13639
0.143903
0.152818
0.165444
0.18833
0.238303
0.35919
0.669018
1.40666
2.48389
2.65633
1.57396
1.0397
0.511879
0.233379
0.12689
0.0598642
0.0141836
0.00255184
8.45542e-05
7.33874e-05
0.00119942
0.00552392
0.00304384
0.000777231
6.42808e-05
5.75592e-05
0.00070865
0.0025597
0.00204249
0.00060913
5.31902e-05
4.9764e-05
0.000590342
0.001937
0.00167604
0.000531764
4.68455e-05
4.48783e-05
0.000522631
0.00163261
0.00148599
0.000487044
4.29387e-05
4.18902e-05
0.000489988
0.00147089
0.00137593
0.000463935
4.06089e-05
3.99202e-05
0.000468106
0.00136752
0.00129544
0.000447126
3.89748e-05
3.84986e-05
0.000451262
0.00129167
0.00123209
0.000433466
3.77598e-05
3.74143e-05
0.000437483
0.00123092
0.0011793
0.000421822
3.68144e-05
3.65546e-05
0.000425824
0.0011798
0.00113386
0.000411598
3.60472e-05
3.58423e-05
0.000415615
0.00113545
0.00109377
0.000402368
3.53965e-05
3.52295e-05
0.000406337
0.00109609
0.00105777
0.000393855
3.48288e-05
3.46883e-05
0.000397774
0.00106061
0.00102507
0.000385932
3.43204e-05
3.41987e-05
0.00038981
0.0010283
0.000995104
0.000378525
3.38556e-05
3.37476e-05
0.000382367
0.000998662
0.000967438
0.00037157
3.3424e-05
3.33265e-05
0.000375375
0.000971297
0.00094181
0.00036501
3.30185e-05
3.29291e-05
0.000368776
0.000945927
0.000917992
0.000358798
3.26338e-05
3.25508e-05
0.000362526
0.000922335
0.000895813
0.000352903
3.22662e-05
3.21883e-05
0.000356601
0.000900355
0.000875121
0.00034731
3.19127e-05
3.18391e-05
0.000350981
0.000879826
0.000855752
0.000341998
3.15713e-05
3.15017e-05
0.000345638
0.000860582
0.000837545
0.000336933
3.12405e-05
3.11741e-05
0.000340541
0.000842463
0.000820358
0.000332089
3.09184e-05
3.08549e-05
0.000335662
0.000825336
0.000804068
0.000327439
3.06037e-05
3.05424e-05
0.000330973
0.000809082
0.000788569
0.000322955
3.02948e-05
3.02353e-05
0.000326448
0.000793597
0.000773763
0.000318612
2.99903e-05
2.99322e-05
0.000322059
0.000778787
0.00075957
0.000314386
2.96888e-05
2.96318e-05
0.000317786
0.000764574
0.000745918
0.000310258
2.93893e-05
2.93328e-05
0.000313608
0.000750888
0.000732744
0.00030621
2.90903e-05
2.9034e-05
0.000309509
0.00073767
0.000719993
0.000302228
2.87909e-05
2.87344e-05
0.000305474
0.000724867
0.000707619
0.000298299
2.84899e-05
2.8433e-05
0.000301492
0.000712439
0.000695592
0.000294413
2.81864e-05
2.81288e-05
0.000297554
0.000700356
0.000683885
0.000290565
2.78796e-05
2.78211e-05
0.000293655
0.000688593
0.000672479
0.00028675
2.75686e-05
2.75093e-05
0.000289802
0.000677135
0.000661362
0.000282972
2.72529e-05
2.71927e-05
0.000286017
0.000665976
0.000650536
0.000279243
2.69322e-05
2.68711e-05
0.000282271
0.000655114
0.000639995
0.000275548
2.66061e-05
2.6544e-05
0.000278573
0.000644547
0.000629744
0.000271902
2.62742e-05
2.62114e-05
0.000274937
0.000634285
0.000619801
0.000268321
2.59366e-05
2.58733e-05
0.000271379
0.000624353
0.000610198
0.000264824
2.55936e-05
2.55301e-05
0.000267926
0.00061479
0.000600985
0.000261441
2.52458e-05
2.51828e-05
0.000264612
0.000605737
0.000592257
0.000258211
2.48945e-05
2.48328e-05
0.000261483
0.000597274
0.000584095
0.000255185
2.45415e-05
2.44822e-05
0.000258589
0.00058941
0.000576568
0.000252416
2.41892e-05
2.41339e-05
0.00025599
0.000582282
0.000569823
0.00024997
2.38409e-05
2.37913e-05
0.000253761
0.000576049
0.000564036
0.000247929
2.35003e-05
2.34593e-05
0.000251988
0.000570897
0.000559399
0.000246396
2.31722e-05
2.31444e-05
0.000250711
0.00056702
0.000556136
0.000245444
2.28669e-05
2.28484e-05
0.000249832
0.000564564
0.000554316
0.000244846
2.25963e-05
2.25806e-05
0.000249371
0.000563812
0.000554215
0.000244737
2.23599e-05
2.23464e-05
0.000249399
0.000564775
0.000555809
0.000245156
2.2177e-05
2.21544e-05
0.0002499
0.000567346
0.000559037
0.000246088
2.20458e-05
2.20164e-05
0.000250805
0.000571306
0.00056359
0.000247298
2.19201e-05
2.19333e-05
0.000251939
0.000576547
0.000569401
0.00024858
2.18386e-05
2.18882e-05
0.00025306
0.000582869
0.000576192
0.000249887
2.18043e-05
2.18979e-05
0.000254003
0.000589534
0.000583111
0.000251019
2.18286e-05
2.19527e-05
0.000254781
0.000595926
0.00058963
0.000251841
2.18978e-05
2.20457e-05
0.000255527
0.000601755
0.000595579
0.000252498
2.20055e-05
2.21745e-05
0.000256122
0.000606889
0.000600856
0.000253103
2.21485e-05
2.23343e-05
0.000256662
0.000611277
0.000605357
0.000253438
2.23202e-05
2.2516e-05
0.000257064
0.000614995
0.000608949
0.000253657
2.25129e-05
2.27136e-05
0.000257336
0.000617889
0.000611468
0.000253772
2.27199e-05
2.29201e-05
0.000257477
0.00062033
0.00061322
0.000253816
2.29341e-05
2.31289e-05
0.000257535
0.000621817
0.000614011
0.000253663
2.31489e-05
2.33345e-05
0.000257513
0.000622296
0.000613349
0.000253244
2.33588e-05
2.35311e-05
0.000257112
0.000621522
0.000611913
0.000252693
2.35567e-05
2.37121e-05
0.000256569
0.000619919
0.000609866
0.000252076
2.37372e-05
2.38736e-05
0.000255945
0.000617613
0.000607231
0.000251439
2.38966e-05
2.40132e-05
0.000255261
0.000614644
0.000604077
0.000250803
2.40332e-05
2.41298e-05
0.000254553
0.000611115
0.0006005
0.000250186
2.4146e-05
2.4224e-05
0.000253842
0.000607148
0.000596575
0.000249589
2.42361e-05
2.42971e-05
0.000253128
0.000602804
0.00059237
0.000248999
2.43051e-05
2.43481e-05
0.000252406
0.000598208
0.000587908
0.000248403
2.43544e-05
2.43833e-05
0.00025167
0.000593489
0.000583346
0.000247789
2.43879e-05
2.44049e-05
0.000250914
0.000588702
0.000578744
0.000247156
2.44079e-05
2.44178e-05
0.000250149
0.000583957
0.000574107
0.000246454
2.44149e-05
2.44207e-05
0.000249361
0.000579221
0.000569448
0.000245675
2.44079e-05
2.44131e-05
0.000248546
0.000574474
0.0005648
0.000244886
2.43944e-05
2.4398e-05
0.000247732
0.00056974
0.000560163
0.00024409
2.43752e-05
2.43791e-05
0.000246912
0.000565022
0.000555532
0.00024328
2.43512e-05
2.43538e-05
0.00024605
0.00056031
0.000550867
0.000242415
2.4321e-05
2.43214e-05
0.000245135
0.000555594
0.000546195
0.000241488
2.42839e-05
2.42824e-05
0.000244155
0.000550868
0.000541529
0.000240523
2.42419e-05
2.42395e-05
0.000243142
0.000546163
0.000536871
0.000239505
2.41972e-05
2.41936e-05
0.0002421
0.000541476
0.000532262
0.000238482
2.4142e-05
2.41587e-05
0.000241107
0.00053692
0.000527379
0.000237464
2.40849e-05
2.41111e-05
0.000239857
0.000532613
0.000523263
0.000235743
2.3993e-05
2.414e-05
0.000239965
0.000531158
0.000524664
0.000239577
2.40717e-05
2.44729e-05
0.00024008
0.000530487
0.000555641
0.000252475
2.46605e-05
2.62708e-05
0.000236758
0.000540142
0.000824821
0.000344142
2.9629e-05
3.19779e-05
0.000178463
0.000409668
0.00101062
0.00231582
0.00432911
0.00617188
0.00743285
0.00976996
0.0112621
0.012601
0.0133548
0.0137153
0.013614
0.0130083
0.012146
0.010763
0.00940697
0.00735113
0.00642309
0.00467381
0.00349685
0.00237516
0.00135025
0.000619883
0.000225875
9.40028e-05
1.81476e-05
1.18236e-05
8.71312e-05
0.000204602
0.000193379
8.27167e-05
1.13712e-05
1.09266e-05
7.97389e-05
0.00018356
0.000183981
7.86153e-05
1.08115e-05
1.07392e-05
7.8139e-05
0.000181162
0.000181179
7.73642e-05
1.06305e-05
1.06239e-05
7.73433e-05
0.000181121
0.000181532
7.73762e-05
1.06386e-05
1.06389e-05
7.74819e-05
0.00018194
0.000182223
7.76176e-05
1.06559e-05
1.06645e-05
7.77428e-05
0.00018277
0.000183019
7.78727e-05
1.06742e-05
1.06906e-05
7.80033e-05
0.000183575
0.000183873
7.81231e-05
1.06838e-05
1.07014e-05
7.82892e-05
0.000184455
0.000184777
7.8399e-05
1.07109e-05
1.07305e-05
7.85838e-05
0.000185407
0.000185746
7.86765e-05
1.07318e-05
1.07368e-05
7.89318e-05
0.000186401
0.000186715
7.89928e-05
1.07607e-05
1.07655e-05
7.92273e-05
0.000187385
0.000187697
7.93222e-05
1.07756e-05
1.07796e-05
7.9555e-05
0.000188389
0.000188708
7.96312e-05
1.08042e-05
1.08083e-05
7.98645e-05
0.000189417
0.000189749
7.9989e-05
1.08197e-05
1.08232e-05
8.02277e-05
0.000190474
0.000190808
8.03236e-05
1.08495e-05
1.08543e-05
8.0562e-05
0.000191536
0.000191878
8.06802e-05
1.08652e-05
1.08696e-05
8.09368e-05
0.000192647
0.000193004
8.10462e-05
1.08966e-05
1.09015e-05
8.13036e-05
0.000193785
0.000194151
8.14348e-05
1.09128e-05
1.09186e-05
8.17072e-05
0.000194943
0.000195303
8.18533e-05
1.09381e-05
1.09582e-05
8.2052e-05
0.000196086
0.000196456
8.22039e-05
1.09629e-05
1.09688e-05
8.24905e-05
0.000197273
0.000197659
8.26386e-05
1.09873e-05
1.10102e-05
8.28832e-05
0.000198499
0.000198893
8.30249e-05
1.10135e-05
1.10211e-05
8.33456e-05
0.000199749
0.000200146
8.35006e-05
1.10415e-05
1.1064e-05
8.37396e-05
0.000200977
0.000201362
8.38861e-05
1.1068e-05
1.10741e-05
8.42019e-05
0.000202195
0.000202578
8.43522e-05
1.10935e-05
1.11157e-05
8.45975e-05
0.000203405
0.00020379
8.47356e-05
1.11185e-05
1.11262e-05
8.50699e-05
0.000204628
0.000205002
8.5206e-05
1.1145e-05
1.11668e-05
8.54528e-05
0.000205826
0.000206202
8.55948e-05
1.11708e-05
1.11774e-05
8.59116e-05
0.000207026
0.00020739
8.60335e-05
1.11953e-05
1.12178e-05
8.62775e-05
0.000208193
0.000208537
8.63826e-05
1.12192e-05
1.12252e-05
8.66905e-05
0.000209315
0.000209616
8.67817e-05
1.12425e-05
1.1262e-05
8.69582e-05
0.000210308
0.000210538
8.70001e-05
1.12605e-05
1.12627e-05
8.72341e-05
0.000211175
0.000211394
8.72107e-05
1.1284e-05
1.12835e-05
8.73657e-05
0.000211952
0.000212142
8.73368e-05
1.12877e-05
1.12851e-05
8.74307e-05
0.000212597
0.000212691
8.73115e-05
1.13025e-05
1.12951e-05
8.72944e-05
0.000212978
0.000212993
8.71166e-05
1.12938e-05
1.1283e-05
8.70141e-05
0.000213117
0.000213065
8.67522e-05
1.12859e-05
1.12878e-05
8.64792e-05
0.000213092
0.000212874
8.6135e-05
1.12729e-05
1.12568e-05
8.58181e-05
0.000212815
0.000212353
8.53271e-05
1.12536e-05
1.12498e-05
8.48184e-05
0.000212201
0.000211481
8.41658e-05
1.12277e-05
1.1207e-05
8.36156e-05
0.00021127
0.000210332
8.27885e-05
1.12067e-05
1.11887e-05
8.21233e-05
0.000210107
0.000209062
8.12299e-05
1.11785e-05
1.11663e-05
8.04986e-05
0.000208859
0.000207789
7.95927e-05
1.11713e-05
1.11869e-05
7.87975e-05
0.000207688
0.000206615
7.78556e-05
1.11884e-05
1.12142e-05
7.71188e-05
0.000206667
0.000205903
7.62211e-05
1.12484e-05
1.12994e-05
7.55798e-05
0.000206216
0.000206139
7.48961e-05
1.13655e-05
1.1464e-05
7.45636e-05
0.0002074
0.000208323
7.37662e-05
1.15675e-05
1.16746e-05
7.32411e-05
0.000210543
0.000213754
7.41476e-05
1.17932e-05
1.19106e-05
7.44512e-05
0.000216439
0.00021797
7.39671e-05
1.19392e-05
1.20225e-05
7.25764e-05
0.000221038
0.000224634
7.64307e-05
1.21919e-05
1.23099e-05
7.41748e-05
0.000227679
0.000230728
7.5999e-05
1.25138e-05
1.26608e-05
7.69867e-05
0.000236319
0.000237899
7.86314e-05
1.28743e-05
1.3177e-05
8.2747e-05
0.000245353
0.000246749
8.4937e-05
1.34738e-05
1.37314e-05
8.85991e-05
0.000253427
0.000255506
9.17678e-05
1.42376e-05
1.52789e-05
0.000106405
0.000266534
0.000264579
0.000112213
1.14556e-05
8.88529e-06
2.76202e-05
7.39729e-05
0.000207025
6.41039e-05
1.03777e-05
1.08911e-05
5.76078e-05
0.00019013
0.000200314
5.98577e-05
1.11608e-05
1.13525e-05
5.64656e-05
0.000191307
0.000205766
6.07404e-05
1.16744e-05
1.20186e-05
5.98886e-05
0.000202947
0.00022306
6.81181e-05
1.24152e-05
1.28387e-05
6.76381e-05
0.000218875
0.00024052
7.89659e-05
1.33432e-05
1.40597e-05
8.14726e-05
0.000242948
0.000271729
9.899e-05
1.55379e-05
1.18556e-05
0.0001096
0.000277693
7.4196e-05
2.61618e-05
9.61736e-06
1.13386e-05
7.0203e-05
0.000233155
0.000228039
6.51395e-05
1.23207e-05
1.30977e-05
8.53001e-05
0.000281406
0.000286823
8.61637e-05
1.36375e-05
1.44165e-05
0.000100159
0.000318116
0.000326406
0.000106617
1.53887e-05
1.71854e-05
0.000126612
0.000356132
0.000346743
0.00013712
1.33683e-05
1.00189e-05
3.10296e-05
9.17845e-05
0.000282221
8.34281e-05
1.2052e-05
1.304e-05
7.76645e-05
0.000276939
0.000318546
9.59075e-05
1.39159e-05
1.48928e-05
9.60886e-05
0.000314266
0.00035623
0.000122498
1.71433e-05
1.36523e-05
0.000141691
0.00035815
9.63511e-05
3.14963e-05
1.02905e-05
1.2605e-05
8.77419e-05
0.000320041
0.000330331
9.23479e-05
1.4241e-05
1.65965e-05
0.000131712
0.000426703
0.000446796
0.000153938
1.93065e-05
1.58442e-05
0.000179177
0.000451048
0.00012483
3.73372e-05
1.08777e-05
1.38363e-05
0.000118239
0.000400783
0.000399024
0.000114726
1.61592e-05
2.03193e-05
0.000171975
0.000505617
0.000513352
0.000200033
1.6791e-05
1.1479e-05
4.25443e-05
0.000155542
0.000518865
0.00015289
1.60876e-05
2.03178e-05
0.000161279
0.000558566
0.000773132
0.000272231
2.78094e-05
2.31179e-05
0.000289688
0.00074175
0.000261568
6.87535e-05
1.50745e-05
2.68599e-05
0.000280857
0.000805803
0.000807244
0.000299989
2.50499e-05
1.68188e-05
7.653e-05
0.000318002
0.00111926
0.000371936
3.73113e-05
3.6795e-05
0.00042911
0.00121592
0.000553338
0.000152838
2.33805e-05
3.72109e-05
0.00049735
0.00144972
0.000957672
0.000317511
2.47807e-05
4.59967e-05
0.00055983
0.00112914
0.000968724
0.000468333
3.7818e-05
3.83125e-05
0.00044646
0.00106256
0.00136291
0.000492826
4.39647e-05
6.07709e-05
0.0009205
0.0022721
0.00050654
0.000157519
3.45672e-05
3.53922e-05
0.000441682
0.0010122
0.000313068
0.000111914
2.46842e-05
2.67694e-05
0.000273121
0.000656448
0.000560909
0.000201768
2.6874e-05
1.52585e-05
5.25129e-05
0.000160511
0.000377495
0.000214963
1.76413e-05
1.67346e-05
6.75122e-05
0.000172091
0.000418209
0.000181925
1.91468e-05
2.04742e-05
0.000149032
0.000379279
0.000123459
4.63496e-05
1.35215e-05
1.60845e-05
0.000145514
0.000327679
0.000300305
0.000121622
1.80436e-05
1.25731e-05
3.94114e-05
0.000100029
0.000277084
0.00012331
1.45877e-05
1.68414e-05
0.000107346
0.000254566
8.8287e-05
3.69819e-05
1.22027e-05
1.37344e-05
0.000109725
0.000244557
0.000221396
9.65583e-05
1.61157e-05
1.19878e-05
3.40759e-05
7.88658e-05
0.000216166
9.88061e-05
1.30329e-05
1.56085e-05
8.72292e-05
0.000196986
7.15326e-05
3.21934e-05
1.18478e-05
1.26814e-05
9.20854e-05
0.000194867
0.000176218
8.10281e-05
1.51713e-05
1.16442e-05
3.04167e-05
6.62261e-05
0.000178268
8.53011e-05
1.21668e-05
1.48601e-05
7.57798e-05
0.000162949
6.40697e-05
3.0181e-05
1.16687e-05
1.21828e-05
8.66352e-05
0.000173771
0.000147783
6.99242e-05
1.53396e-05
1.28018e-05
5.54666e-05
0.000120328
4.67818e-05
2.19601e-05
1.07717e-05
1.02238e-05
5.79777e-05
0.000118394
0.000112516
5.41591e-05
1.29787e-05
1.03077e-05
2.19564e-05
4.62596e-05
0.000109756
5.61022e-05
9.98088e-06
1.28562e-05
5.08069e-05
0.000101016
4.18605e-05
2.11823e-05
1.05366e-05
9.74601e-06
5.14632e-05
9.66114e-05
9.26846e-05
4.91985e-05
1.24611e-05
1.0165e-05
2.06426e-05
4.09388e-05
9.24187e-05
5.00333e-05
9.67205e-06
1.2502e-05
4.68527e-05
8.67049e-05
3.84675e-05
1.97247e-05
9.93701e-06
9.2655e-06
4.55736e-05
8.39371e-05
7.99995e-05
4.44455e-05
1.22084e-05
1.03321e-05
1.92773e-05
3.61755e-05
7.91205e-05
4.46945e-05
9.3149e-06
1.20914e-05
4.21314e-05
7.53875e-05
3.5437e-05
1.93273e-05
1.0183e-05
9.12214e-06
4.21344e-05
7.23476e-05
7.02447e-05
3.96041e-05
1.18695e-05
1.00197e-05
1.74451e-05
3.14782e-05
6.26928e-05
4.78283e-05
8.68777e-06
1.09898e-05
2.16506e-05
3.63462e-05
8.30843e-05
4.72328e-05
9.87632e-06
1.2554e-05
4.39663e-05
7.64765e-05
3.69703e-05
2.13498e-05
1.03207e-05
9.43359e-06
4.56308e-05
7.63388e-05
7.22887e-05
4.23423e-05
1.24117e-05
1.03097e-05
2.12604e-05
3.59664e-05
7.54308e-05
4.53843e-05
9.3797e-06
1.22545e-05
4.22178e-05
7.12549e-05
3.51126e-05
2.12675e-05
1.02203e-05
9.29008e-06
4.27195e-05
6.82487e-05
6.45476e-05
3.86473e-05
1.2343e-05
1.02749e-05
2.09021e-05
3.29152e-05
6.30329e-05
3.97864e-05
9.07204e-06
1.19326e-05
3.62967e-05
5.90663e-05
2.93285e-05
1.89671e-05
1.00491e-05
8.49833e-06
4.12487e-05
5.28321e-05
3.21093e-05
2.18405e-05
1.0914e-05
9.70469e-06
3.90568e-05
6.32336e-05
5.78206e-05
3.5762e-05
1.24124e-05
1.01474e-05
2.12498e-05
3.08561e-05
5.73192e-05
3.74037e-05
9.03326e-06
1.19284e-05
3.44877e-05
5.19715e-05
2.78543e-05
1.99025e-05
1.01181e-05
8.48439e-06
3.75654e-05
4.75051e-05
3.01903e-05
2.18907e-05
1.10881e-05
9.68136e-06
3.76638e-05
5.81542e-05
5.25635e-05
3.43218e-05
1.23046e-05
1.01073e-05
2.15026e-05
2.93788e-05
5.41876e-05
3.60996e-05
8.99781e-06
1.19156e-05
3.27848e-05
4.90796e-05
2.67222e-05
1.99353e-05
1.00661e-05
8.445e-06
3.4949e-05
4.36588e-05
2.8293e-05
2.15097e-05
1.10918e-05
9.55092e-06
3.49672e-05
5.34803e-05
4.81442e-05
3.21918e-05
1.22173e-05
1.00622e-05
2.14244e-05
2.73471e-05
4.86675e-05
3.32147e-05
8.96779e-06
1.18901e-05
3.03883e-05
4.42605e-05
2.49124e-05
1.97027e-05
9.5564e-06
8.34998e-06
3.11217e-05
3.89529e-05
2.59257e-05
2.08305e-05
1.10817e-05
9.34768e-06
3.19569e-05
4.73684e-05
4.23654e-05
2.8909e-05
1.19689e-05
9.89032e-06
2.00208e-05
2.43717e-05
3.82351e-05
3.19442e-05
8.20276e-06
1.09486e-05
2.14663e-05
2.59324e-05
4.71753e-05
3.12016e-05
9.28471e-06
1.21662e-05
2.89196e-05
4.22601e-05
2.46481e-05
2.07325e-05
9.86289e-06
8.3625e-06
3.09384e-05
3.77728e-05
2.58719e-05
2.18049e-05
1.10269e-05
9.18017e-06
3.12935e-05
4.62116e-05
4.14166e-05
2.8717e-05
1.20017e-05
9.71066e-06
2.07378e-05
2.43159e-05
3.73948e-05
3.1165e-05
8.20482e-06
1.10709e-05
2.19443e-05
2.5717e-05
4.56058e-05
3.07798e-05
9.33746e-06
1.21619e-05
2.84712e-05
4.09377e-05
2.43541e-05
2.11851e-05
1.01215e-05
8.38458e-06
3.15345e-05
3.67414e-05
2.5626e-05
2.2442e-05
1.10525e-05
9.30401e-06
3.04003e-05
4.49142e-05
4.01538e-05
2.81472e-05
1.20687e-05
9.65731e-06
2.10527e-05
2.39114e-05
3.52948e-05
3.00831e-05
8.32774e-06
1.09118e-05
2.27435e-05
2.53679e-05
3.86096e-05
3.00047e-05
8.74827e-06
1.13552e-05
2.3105e-05
2.67611e-05
4.56182e-05
3.03643e-05
9.52262e-06
1.2118e-05
2.83411e-05
4.06805e-05
2.46617e-05
2.18482e-05
9.85522e-06
8.23661e-06
3.12424e-05
3.65065e-05
2.57969e-05
2.32838e-05
1.1166e-05
9.35583e-06
3.02748e-05
4.4138e-05
3.95879e-05
2.81684e-05
1.21654e-05
9.67208e-06
2.16052e-05
2.40086e-05
3.49747e-05
2.99274e-05
8.46095e-06
1.10989e-05
2.32497e-05
2.5568e-05
3.80476e-05
2.99612e-05
8.96712e-06
1.1346e-05
2.3718e-05
2.67397e-05
4.49527e-05
3.00395e-05
9.39376e-06
1.21566e-05
2.82107e-05
3.99843e-05
2.47061e-05
2.25374e-05
1.01884e-05
8.32393e-06
3.2022e-05
3.5852e-05
2.65989e-05
2.45993e-05
1.11448e-05
8.96968e-06
3.04944e-05
3.92144e-05
2.77398e-05
2.50124e-05
1.14876e-05
9.57606e-06
3.06442e-05
4.58507e-05
4.09607e-05
2.88417e-05
1.23914e-05
9.93842e-06
2.31681e-05
2.53259e-05
3.63174e-05
3.2064e-05
8.36724e-06
1.1156e-05
2.48118e-05
2.69463e-05
3.9212e-05
3.10588e-05
8.96127e-06
1.14814e-05
2.53554e-05
2.79837e-05
4.59707e-05
3.10025e-05
9.57157e-06
1.23206e-05
2.92774e-05
4.10464e-05
2.58127e-05
2.39108e-05
1.02608e-05
8.5021e-06
3.29865e-05
3.68667e-05
2.76547e-05
2.57968e-05
1.13259e-05
9.18563e-06
3.15801e-05
3.99875e-05
2.87223e-05
2.61099e-05
1.15387e-05
9.54591e-06
3.13393e-05
4.63313e-05
4.13802e-05
2.9551e-05
1.22463e-05
1.03637e-05
2.37662e-05
2.58253e-05
3.6373e-05
3.32284e-05
8.48947e-06
1.12872e-05
2.55141e-05
2.72807e-05
3.88946e-05
3.08403e-05
9.14235e-06
1.16128e-05
2.58586e-05
2.80885e-05
4.46662e-05
3.05811e-05
9.61719e-06
1.24049e-05
2.90885e-05
4.00825e-05
2.56517e-05
2.41053e-05
1.05314e-05
8.55832e-06
3.30656e-05
3.60769e-05
2.73361e-05
2.57081e-05
1.12044e-05
8.92316e-06
3.04786e-05
3.85614e-05
2.86824e-05
2.61592e-05
1.14152e-05
9.07838e-06
3.12964e-05
4.00868e-05
2.94706e-05
2.7714e-05
1.15756e-05
9.64864e-06
3.19103e-05
4.60538e-05
4.12188e-05
3.03376e-05
1.23651e-05
9.88484e-06
2.49629e-05
2.64724e-05
3.69783e-05
3.31921e-05
8.58217e-06
1.13733e-05
2.62921e-05
2.80323e-05
3.88292e-05
3.12472e-05
9.14906e-06
1.15377e-05
2.65939e-05
2.91678e-05
4.02498e-05
3.15772e-05
9.14237e-06
1.16082e-05
2.82159e-05
2.98785e-05
4.61018e-05
3.22413e-05
9.64313e-06
1.23835e-05
3.06545e-05
4.12833e-05
2.70472e-05
2.56879e-05
1.0514e-05
8.54935e-06
3.47394e-05
3.72389e-05
2.86686e-05
2.72121e-05
1.14058e-05
9.19428e-06
3.14753e-05
3.98266e-05
3.00351e-05
2.76723e-05
1.16653e-05
9.30971e-06
3.26482e-05
4.11712e-05
3.07916e-05
2.92941e-05
1.17776e-05
9.80784e-06
3.31362e-05
4.69191e-05
4.21508e-05
3.15365e-05
1.25099e-05
1.05294e-05
2.63226e-05
2.78979e-05
3.77499e-05
3.5398e-05
8.58728e-06
1.14608e-05
2.77447e-05
2.92526e-05
3.9846e-05
3.18722e-05
9.16314e-06
1.16654e-05
2.77946e-05
3.02224e-05
4.08673e-05
3.25034e-05
9.2646e-06
1.18358e-05
2.93795e-05
3.085e-05
4.61265e-05
3.27387e-05
9.78763e-06
1.25813e-05
3.14965e-05
4.18682e-05
2.79986e-05
2.66923e-05
1.00652e-05
8.84861e-06
3.40916e-05
3.77048e-05
2.96304e-05
2.82451e-05
1.1659e-05
9.21003e-06
3.28122e-05
3.99472e-05
3.05574e-05
2.83214e-05
1.16249e-05
9.15694e-06
3.22829e-05
4.08896e-05
3.14129e-05
2.91915e-05
1.16482e-05
9.34025e-06
3.40907e-05
4.20631e-05
3.20081e-05
3.08974e-05
1.17912e-05
9.80408e-06
3.42743e-05
4.74508e-05
4.29613e-05
3.27775e-05
1.25464e-05
1.07286e-05
2.73512e-05
2.909e-05
3.80527e-05
3.60553e-05
8.64854e-06
1.15917e-05
2.87327e-05
3.02027e-05
4.00073e-05
3.24008e-05
9.34167e-06
1.18495e-05
2.89596e-05
3.11811e-05
4.10512e-05
3.28518e-05
9.30484e-06
1.17552e-05
2.99584e-05
3.1884e-05
4.24501e-05
3.44737e-05
9.4047e-06
1.18835e-05
3.15953e-05
3.25494e-05
4.82023e-05
3.4987e-05
9.86855e-06
1.26934e-05
3.36345e-05
4.37527e-05
3.0159e-05
2.89732e-05
1.07031e-05
8.73435e-06
3.74636e-05
3.94643e-05
3.14728e-05
3.01482e-05
1.16078e-05
9.21374e-06
3.41408e-05
4.19721e-05
3.26326e-05
3.03021e-05
1.18179e-05
9.39945e-06
3.45619e-05
4.29624e-05
3.33846e-05
3.1297e-05
1.18154e-05
9.41199e-06
3.61085e-05
4.41599e-05
3.40076e-05
3.2892e-05
1.19422e-05
9.99892e-06
3.62177e-05
4.94344e-05
4.50269e-05
3.47203e-05
1.27196e-05
1.08699e-05
2.95822e-05
3.12475e-05
3.98779e-05
3.799e-05
8.90852e-06
1.17331e-05
3.08323e-05
3.2363e-05
4.20203e-05
3.45191e-05
9.43432e-06
1.20323e-05
3.081e-05
3.33502e-05
4.28164e-05
3.44547e-05
9.51452e-06
1.1998e-05
3.18006e-05
3.38526e-05
4.40831e-05
3.61004e-05
9.61785e-06
1.20916e-05
3.36794e-05
3.43731e-05
4.94391e-05
3.68292e-05
1.00189e-05
1.28928e-05
3.5543e-05
4.53847e-05
3.201e-05
3.07794e-05
1.08865e-05
8.93269e-06
3.90108e-05
4.08629e-05
3.32881e-05
3.1851e-05
1.18149e-05
9.44368e-06
3.55563e-05
4.31348e-05
3.44489e-05
3.20424e-05
1.20631e-05
9.56373e-06
3.58277e-05
4.42809e-05
3.52027e-05
3.29206e-05
1.19962e-05
9.61084e-06
3.74446e-05
4.53678e-05
3.55733e-05
3.45626e-05
1.20864e-05
1.00435e-05
3.75788e-05
5.04375e-05
4.61843e-05
3.62735e-05
1.29571e-05
1.11194e-05
3.12187e-05
3.27767e-05
4.07056e-05
3.95455e-05
9.00263e-06
1.18609e-05
3.23423e-05
3.37565e-05
4.23737e-05
3.53235e-05
9.49401e-06
1.21773e-05
3.24138e-05
3.45789e-05
4.33396e-05
3.55748e-05
9.64042e-06
1.2077e-05
3.32384e-05
3.51766e-05
4.45303e-05
3.68835e-05
9.61256e-06
1.20272e-05
3.43204e-05
3.60825e-05
4.61599e-05
3.86852e-05
9.60529e-06
1.21459e-05
3.60867e-05
3.66457e-05
5.19395e-05
3.90611e-05
1.01136e-05
1.31338e-05
3.78526e-05
4.78466e-05
3.43582e-05
3.32417e-05
1.08024e-05
9.0416e-06
4.1149e-05
4.32843e-05
3.58941e-05
3.46639e-05
1.21136e-05
9.64813e-06
3.83938e-05
4.54896e-05
3.69298e-05
3.46984e-05
1.21835e-05
9.65356e-06
3.85542e-05
4.67946e-05
3.78711e-05
3.57066e-05
1.21009e-05
9.67648e-06
4.04245e-05
4.84667e-05
3.86901e-05
3.75729e-05
1.22537e-05
1.02535e-05
4.06576e-05
5.37676e-05
4.9311e-05
3.93201e-05
1.32688e-05
1.11378e-05
3.45202e-05
3.5737e-05
4.42211e-05
4.26588e-05
9.16432e-06
1.21447e-05
3.55667e-05
3.71273e-05
4.58283e-05
3.90508e-05
9.73793e-06
1.23171e-05
3.54259e-05
3.7825e-05
4.65001e-05
3.88137e-05
9.83664e-06
1.22503e-05
3.63022e-05
3.83673e-05
4.77197e-05
4.02636e-05
9.78494e-06
1.24057e-05
3.81238e-05
3.87771e-05
5.30564e-05
4.06385e-05
1.03282e-05
1.35294e-05
3.96737e-05
4.90143e-05
3.6236e-05
3.54058e-05
1.10368e-05
9.18454e-06
4.29739e-05
4.45971e-05
3.78621e-05
3.68833e-05
1.2356e-05
9.85395e-06
4.04072e-05
4.67174e-05
3.89035e-05
3.68518e-05
1.23857e-05
9.79968e-06
4.01932e-05
4.78043e-05
3.96028e-05
3.78013e-05
1.23224e-05
9.89771e-06
4.16833e-05
4.94386e-05
4.04659e-05
3.98764e-05
1.25954e-05
1.04794e-05
4.23676e-05
5.48247e-05
5.04968e-05
4.13316e-05
1.36216e-05
1.13572e-05
3.69921e-05
3.78156e-05
4.59961e-05
4.50298e-05
9.32636e-06
1.23332e-05
3.78543e-05
3.92203e-05
4.74906e-05
4.10714e-05
9.87329e-06
1.25688e-05
3.7905e-05
3.99914e-05
4.82393e-05
4.10863e-05
9.94914e-06
1.25889e-05
3.89665e-05
4.06413e-05
4.95704e-05
4.23914e-05
1.00202e-05
1.28727e-05
4.11185e-05
4.11932e-05
5.5047e-05
4.31107e-05
1.07818e-05
1.40554e-05
4.24026e-05
5.10916e-05
3.91573e-05
3.89234e-05
1.16343e-05
9.64286e-06
4.62421e-05
4.73358e-05
4.07406e-05
4.00161e-05
1.26033e-05
1.00507e-05
4.37316e-05
4.96376e-05
4.19475e-05
4.02676e-05
1.28003e-05
1.00638e-05
4.37671e-05
5.10895e-05
4.24917e-05
4.18776e-05
1.30116e-05
1.09281e-05
4.37323e-05
5.59592e-05
5.17326e-05
4.30404e-05
1.43396e-05
1.20297e-05
3.94662e-05
3.9897e-05
4.69888e-05
4.65398e-05
9.80536e-06
1.2747e-05
4.02302e-05
4.10483e-05
4.87307e-05
4.32408e-05
1.02132e-05
1.309e-05
4.06129e-05
4.20066e-05
5.00082e-05
4.31965e-05
1.03278e-05
1.33565e-05
4.26074e-05
4.25106e-05
5.49287e-05
4.38491e-05
1.10544e-05
1.45537e-05
4.34254e-05
5.11958e-05
4.02939e-05
4.02604e-05
1.1697e-05
9.74391e-06
4.6956e-05
4.72713e-05
4.20993e-05
4.17428e-05
1.30766e-05
1.02819e-05
4.44489e-05
4.98785e-05
4.30868e-05
4.19905e-05
1.32416e-05
1.05007e-05
4.44373e-05
5.1304e-05
4.38078e-05
4.38541e-05
1.35133e-05
1.1196e-05
4.49684e-05
5.59458e-05
5.21635e-05
4.47262e-05
1.48674e-05
1.24327e-05
4.16793e-05
4.18432e-05
4.79321e-05
4.83303e-05
1.00147e-05
1.31529e-05
4.24824e-05
4.27156e-05
4.97639e-05
4.46777e-05
1.04854e-05
1.35264e-05
4.30651e-05
4.38141e-05
5.13567e-05
4.48952e-05
1.06817e-05
1.39124e-05
4.53524e-05
4.45398e-05
5.65338e-05
4.59676e-05
1.15757e-05
1.52252e-05
4.58188e-05
5.29511e-05
4.3032e-05
4.36965e-05
1.25577e-05
1.02173e-05
4.99816e-05
4.97971e-05
4.45024e-05
4.49076e-05
1.35909e-05
1.08003e-05
4.70736e-05
5.23324e-05
4.60243e-05
4.55523e-05
1.3972e-05
1.11257e-05
4.73146e-05
5.42344e-05
4.71269e-05
4.79602e-05
1.44407e-05
1.19962e-05
4.85346e-05
5.93682e-05
5.56645e-05
4.85178e-05
1.58448e-05
1.30346e-05
4.59489e-05
4.56816e-05
5.19981e-05
5.24757e-05
1.0589e-05
1.398e-05
4.71348e-05
4.68491e-05
5.43554e-05
4.91535e-05
1.11506e-05
1.47263e-05
4.87816e-05
4.7908e-05
5.92676e-05
4.87712e-05
1.22543e-05
1.61094e-05
4.84929e-05
5.58056e-05
4.61147e-05
4.71532e-05
1.35053e-05
1.08472e-05
5.29393e-05
5.2594e-05
4.76859e-05
4.84568e-05
1.43772e-05
1.14537e-05
5.0281e-05
5.52372e-05
4.93476e-05
4.94244e-05
1.48882e-05
1.18558e-05
5.05698e-05
5.76795e-05
5.09168e-05
5.24388e-05
1.54669e-05
1.286e-05
5.26533e-05
6.34106e-05
5.95431e-05
5.28076e-05
1.69994e-05
1.38418e-05
5.0917e-05
4.99427e-05
5.63348e-05
5.72845e-05
1.12371e-05
1.50982e-05
5.24221e-05
5.17915e-05
5.95612e-05
5.40222e-05
1.2086e-05
1.58669e-05
5.43372e-05
5.29133e-05
6.51114e-05
5.40277e-05
1.29664e-05
1.73383e-05
5.42098e-05
6.15296e-05
5.19786e-05
5.33833e-05
1.46043e-05
1.19879e-05
5.87343e-05
5.84015e-05
5.37244e-05
5.52463e-05
1.59469e-05
1.27781e-05
5.63464e-05
6.20157e-05
5.5493e-05
5.75266e-05
1.67938e-05
1.40028e-05
5.68204e-05
6.79593e-05
6.42261e-05
5.71699e-05
1.85227e-05
1.51463e-05
5.60393e-05
5.46722e-05
6.13911e-05
6.17742e-05
1.22728e-05
1.672e-05
5.88614e-05
5.6346e-05
6.77649e-05
5.77237e-05
1.39418e-05
1.86297e-05
5.77299e-05
6.45315e-05
5.49603e-05
5.57643e-05
1.51684e-05
1.21123e-05
6.24269e-05
6.1212e-05
5.66046e-05
5.76393e-05
1.6517e-05
1.32341e-05
5.82224e-05
6.39566e-05
5.78715e-05
5.99452e-05
1.75807e-05
1.46409e-05
5.85764e-05
6.94222e-05
6.60854e-05
5.94323e-05
1.94663e-05
1.60249e-05
5.90052e-05
5.74267e-05
6.34638e-05
6.38166e-05
1.31271e-05
1.77518e-05
6.2256e-05
5.88943e-05
6.94446e-05
6.0241e-05
1.48859e-05
1.98895e-05
6.04911e-05
6.64456e-05
5.83726e-05
6.01611e-05
1.64155e-05
1.32558e-05
6.49311e-05
6.40321e-05
5.95273e-05
6.30039e-05
1.7879e-05
1.46104e-05
6.0549e-05
6.99764e-05
6.70752e-05
6.11502e-05
1.996e-05
1.66635e-05
6.05624e-05
5.89465e-05
6.43263e-05
6.47348e-05
1.36473e-05
1.86342e-05
6.43161e-05
6.06386e-05
7.02344e-05
6.15859e-05
1.546e-05
2.08296e-05
6.21739e-05
6.74112e-05
6.02501e-05
6.26179e-05
1.72406e-05
1.39229e-05
6.64286e-05
6.54601e-05
6.15847e-05
6.57204e-05
1.88189e-05
1.55353e-05
6.26061e-05
7.13511e-05
6.85662e-05
6.31073e-05
2.0934e-05
1.7217e-05
6.32824e-05
6.12031e-05
6.63701e-05
6.85188e-05
1.34137e-05
1.88538e-05
6.67718e-05
6.27082e-05
7.2186e-05
6.30401e-05
1.58959e-05
2.16569e-05
6.38128e-05
6.94464e-05
6.2859e-05
6.61184e-05
1.80167e-05
1.47294e-05
6.85725e-05
6.75381e-05
6.5075e-05
7.04006e-05
2.01254e-05
1.67753e-05
6.67717e-05
7.51237e-05
7.23137e-05
6.75983e-05
2.24829e-05
1.862e-05
6.92384e-05
6.58615e-05
7.11516e-05
7.21793e-05
1.50465e-05
2.04892e-05
7.34785e-05
6.77004e-05
7.85291e-05
6.98853e-05
1.68775e-05
2.24858e-05
6.98453e-05
7.57273e-05
6.88128e-05
7.47966e-05
1.96335e-05
1.69279e-05
7.43408e-05
7.77042e-05
7.52642e-05
7.411e-05
2.35144e-05
1.98026e-05
7.38385e-05
7.00234e-05
7.53227e-05
7.60624e-05
1.62616e-05