/*--------------------------------*- C++ -*----------------------------------*\
| =========                 |                                                 |
| \\      /  F ield         | OpenFOAM: The Open Source CFD Toolbox           |
|  \\    /   O peration     | Version:  v2006                                 |
|   \\  /    A nd           | Website:  www.openfoam.com                      |
|    \\/     M anipulation  |                                                 |
\*---------------------------------------------------------------------------*/
FoamFile
{
    version     2.0;
    format      ascii;
    class       surfaceScalarField;
    location    "0.083";
    object      phi;
}
// * * * * * * * * * * * * * * * * * * * * * * * * * * * * * * * * * * * * * //

dimensions      [1 0 -1 0 0 0 0];
oriented        oriented;


internalField   nonuniform List<scalar> 
32242
(
-2.61498e-05
-0.0013544
0.00133513
4.55269e-05
-0.00127013
0.00124391
8.34915e-06
7.76859e-05
-3.49746e-06
0.00146285
3.80244e-05
0.00159993
-3.29095e-05
0.00165139
-3.67013e-06
0.00169139
-1.63756e-05
0.00168406
-2.33065e-06
0.00168002
-2.43129e-06
0.00166947
-4.48149e-07
0.00166258
-1.01599e-06
0.00165676
-1.15353e-06
0.0016531
-1.27935e-06
0.00164974
-1.47973e-06
0.00164692
-1.51023e-06
0.00164385
-1.61871e-06
0.00164092
-1.7232e-06
0.00163778
-1.82369e-06
0.0016345
-1.92021e-06
0.00163109
-2.01294e-06
0.00162755
-2.10223e-06
0.00162388
-2.18846e-06
0.00162008
-2.27199e-06
0.00161616
-2.35311e-06
0.00161211
-2.43202e-06
0.00160794
-2.50883e-06
0.00160365
-2.58358e-06
0.00159924
-2.65624e-06
0.00159472
-2.72675e-06
0.00159008
-2.79503e-06
0.00158533
-2.86096e-06
0.00158047
-2.92443e-06
0.00157551
-2.98529e-06
0.00157045
-3.04342e-06
0.0015653
-3.09868e-06
0.00156006
-3.15092e-06
0.00155473
-3.19999e-06
0.00154932
-3.24579e-06
0.00154383
-3.28819e-06
0.00153828
-3.32705e-06
0.00153266
-3.36228e-06
0.00152698
-3.39376e-06
0.00152124
-3.42138e-06
0.00151546
-3.44504e-06
0.00150964
-3.46467e-06
0.00150378
-3.48016e-06
0.0014979
-3.49143e-06
0.00149199
-3.4984e-06
0.00148606
-3.501e-06
0.00148013
-3.49916e-06
0.00147419
-3.49286e-06
0.00146826
-3.48213e-06
0.00146234
-3.46681e-06
0.00145643
-3.4454e-06
0.00145055
-3.42012e-06
0.00144471
-3.39063e-06
0.0014389
-3.35629e-06
0.00143314
-3.31721e-06
0.00142744
-3.27335e-06
0.0014218
-3.22475e-06
0.00141622
-3.17143e-06
0.00141072
-3.11341e-06
0.00140531
-3.05071e-06
0.00139998
-2.98336e-06
0.00139476
-2.91134e-06
0.00138963
-2.83462e-06
0.00138462
-2.75306e-06
0.00137973
-2.66645e-06
0.00137495
-2.5745e-06
0.00137031
-2.47685e-06
0.0013658
-2.37317e-06
0.00136144
-2.26324e-06
0.00135722
-2.14696e-06
0.00135316
-2.02406e-06
0.00134926
-1.8933e-06
0.00134552
-1.75122e-06
0.00134191
-9.21938e-07
0.00133772
-1.39988e-06
0.00133426
-1.16973e-06
0.00132816
-2.89534e-06
0.00131955
-4.61645e-06
0.00130742
-1.96294e-05
0.00128696
-3.00953e-05
0.00126105
-8.36234e-05
0.00122473
-0.000143177
0.00120262
-0.000328503
0.00121428
-0.000736197
0.00140183
-0.000202563
0.000361196
2.04325e-05
0.000599542
4.44665e-06
0.000786408
-3.85986e-05
0.000696038
-1.24937e-05
0.000609995
-7.50924e-06
0.000220539
-4.58125e-06
0.000183625
0.000148435
8.52638e-06
0.000139909
1.73474e-05
0.000174804
0.000210944
2.69429e-05
-1.36292e-05
0.000203716
2.08567e-05
-6.80516e-06
0.00016798
0.000133104
2.50442e-06
0.000130599
4.12778e-06
0.000166357
0.000202481
5.36308e-06
-4.65159e-06
0.000200396
6.73661e-06
-2.87144e-06
0.000164576
0.000127728
1.54675e-06
0.000126181
2.02864e-06
0.000164095
0.000200281
2.14359e-06
-4.45901e-06
0.000198717
6.02261e-06
-2.60016e-06
0.000162236
0.000123581
1.26908e-06
0.000122312
1.1465e-06
0.000162358
0.000198482
1.38152e-06
-3.62736e-06
0.000197499
4.61057e-06
-1.77602e-06
0.000160507
0.000120535
4.71932e-07
0.000120064
3.54576e-07
0.000160624
0.00019786
-6.27717e-09
-2.83714e-06
0.00019616
4.53631e-06
-1.60634e-06
0.000159394
0.000118457
3.42443e-07
0.000118115
2.39669e-07
0.000159496
0.000196461
-6.07421e-08
-2.71692e-06
0.000195374
3.80384e-06
-1.48144e-06
0.000158261
0.000116633
2.51163e-07
0.000116382
1.47977e-07
0.000158364
0.00019564
-1.18493e-07
-2.62296e-06
0.000194523
3.74035e-06
-1.38807e-06
0.000157129
0.000114994
1.8338e-07
0.000114811
8.26959e-08
0.00015723
0.000194759
-1.53486e-07
-2.5496e-06
0.000193618
3.69069e-06
-1.31737e-06
0.000155998
0.000113493
1.32256e-07
0.000113361
2.73334e-08
0.000156103
0.000193833
-1.87673e-07
-2.48673e-06
0.000192676
3.6434e-06
-1.26182e-06
0.000154878
0.000112099
9.25738e-08
0.000112007
-1.27413e-08
0.000154983
0.000192873
-2.09174e-07
-2.43704e-06
0.000191704
3.60575e-06
-1.22106e-06
0.000153767
0.000110786
6.11125e-08
0.000110724
-4.22133e-08
0.00015387
0.000191884
-2.22173e-07
-2.3975e-06
0.000190702
3.57959e-06
-1.18739e-06
0.00015266
0.000109537
3.8822e-08
0.000109498
-6.16285e-08
0.000152761
0.000190868
-2.27508e-07
-2.36734e-06
0.000189674
3.56129e-06
-1.1601e-06
0.000151553
0.000108338
2.28654e-08
0.000108315
-7.47147e-08
0.000151651
0.000189826
-2.26402e-07
-2.34309e-06
0.00018862
3.54829e-06
-1.13779e-06
0.000150446
0.000107177
1.16405e-08
0.000107166
-8.11758e-08
0.000150539
0.000188757
-2.18068e-07
-2.32498e-06
0.00018754
3.54187e-06
-1.11992e-06
0.000149334
0.000106046
4.39417e-09
0.000106042
-8.17536e-08
0.00014942
0.000187662
-2.02914e-07
-2.31216e-06
0.000186432
3.54137e-06
-1.10573e-06
0.000148213
0.000104936
4.74841e-10
0.000104935
-7.72238e-08
0.000148291
0.000186537
-1.81619e-07
-2.30384e-06
0.000185294
3.54616e-06
-1.09458e-06
0.000147082
0.000103841
-1.14635e-09
0.000103842
-6.89031e-08
0.00014715
0.000185381
-1.55912e-07
-2.29901e-06
0.000184125
3.55499e-06
-1.08595e-06
0.000145937
0.000102756
-4.2769e-10
0.000102756
-5.70061e-08
0.000145993
0.000184194
-1.25731e-07
-2.29728e-06
0.000182924
3.56773e-06
-1.07926e-06
0.000144775
0.000101677
2.10256e-09
0.000101675
-4.17634e-08
0.000144819
0.000182973
-9.10918e-08
-2.29852e-06
0.000181687
3.58439e-06
-1.07437e-06
0.000143595
0.0001006
6.36182e-09
0.000100594
-2.32744e-08
0.000143624
0.000181716
-5.19526e-08
-2.30264e-06
0.000180413
3.60513e-06
-1.07117e-06
0.000142393
9.95229e-05
1.19742e-08
9.95109e-05
-2.38326e-09
0.000142407
0.00018042
-9.66318e-09
-2.30855e-06
0.000179101
3.62804e-06
-1.0692e-06
0.000141168
9.84417e-05
1.98712e-08
9.84218e-05
2.26097e-08
0.000141165
0.000179084
3.93285e-08
-2.31634e-06
0.000177748
3.65301e-06
-1.06832e-06
0.000139917
9.73535e-05
2.92278e-08
9.73243e-05
5.04316e-08
0.000139896
0.000177706
9.25063e-08
-2.32666e-06
0.000176351
3.68157e-06
-1.06876e-06
0.000138638
9.62555e-05
4.00038e-08
9.62156e-05
8.10783e-08
0.000138597
0.000176282
1.49815e-07
-2.33942e-06
0.000174908
3.71368e-06
-1.07048e-06
0.000137328
9.51451e-05
5.22362e-08
9.50929e-05
1.14624e-07
0.000137266
0.000174811
2.11467e-07
-2.35452e-06
0.000173416
3.74919e-06
-1.07343e-06
0.000135985
9.40194e-05
6.58917e-08
9.39535e-05
1.51019e-07
0.0001359
0.00017329
2.77458e-07
-2.37184e-06
0.000171874
3.78795e-06
-1.07753e-06
0.000134606
9.2876e-05
8.09057e-08
9.27951e-05
1.9016e-07
0.000134496
0.000171716
3.47685e-07
-2.3912e-06
0.000170278
3.82971e-06
-1.08267e-06
0.000133188
9.17124e-05
9.71866e-08
9.16153e-05
2.31885e-07
0.000133053
0.000170088
4.21934e-07
-2.41239e-06
0.000168626
3.87417e-06
-1.08874e-06
0.00013173
9.05265e-05
1.14616e-07
9.0412e-05
2.75974e-07
0.000131568
0.000168402
4.99896e-07
-2.43513e-06
0.000166916
3.92094e-06
-1.09561e-06
0.000130229
8.93164e-05
1.33064e-07
8.91834e-05
3.22181e-07
0.00013004
0.000166657
5.81113e-07
-2.45896e-06
0.000165147
3.96937e-06
-1.10303e-06
0.000128684
8.80804e-05
1.52285e-07
8.79282e-05
3.7002e-07
0.000128466
0.000164852
6.64905e-07
-2.4834e-06
0.000163317
4.01873e-06
-1.11079e-06
0.000127094
8.68174e-05
1.71993e-07
8.66455e-05
4.18893e-07
0.000126847
0.000162986
7.50343e-07
-2.50764e-06
0.000161425
4.06781e-06
-1.11846e-06
0.000125458
8.5527e-05
1.91707e-07
8.53353e-05
4.67838e-07
0.000125182
0.000161057
8.35993e-07
-2.53061e-06
0.000159473
4.11498e-06
-1.1255e-06
0.000123776
8.42098e-05
2.10792e-07
8.39989e-05
5.15602e-07
0.000123472
0.000159068
9.19903e-07
-2.55109e-06
0.000157461
4.15825e-06
-1.13141e-06
0.000122052
8.28674e-05
2.28762e-07
8.26386e-05
5.60906e-07
0.00012172
0.000157022
9.99933e-07
-2.56774e-06
0.000155394
4.19544e-06
-1.1356e-06
0.000120287
8.15029e-05
2.44868e-07
8.12579e-05
6.02174e-07
0.00011993
0.000154923
1.07357e-06
-2.57889e-06
0.000153278
4.22387e-06
-1.13727e-06
0.000118488
8.01206e-05
2.58193e-07
7.98623e-05
6.37431e-07
0.000118109
0.000152777
1.13766e-06
-2.58244e-06
0.000151119
4.24018e-06
-1.13548e-06
0.000116662
7.87267e-05
2.67595e-07
7.8459e-05
6.64183e-07
0.000116265
0.000150595
1.1882e-06
-2.57578e-06
0.000148931
4.24016e-06
-1.12905e-06
0.000114818
7.73299e-05
2.71655e-07
7.70583e-05
6.79317e-07
0.000114411
0.00014839
1.22019e-06
-2.55571e-06
0.000146727
4.2187e-06
-1.11655e-06
0.000112972
7.59417e-05
2.68686e-07
7.56731e-05
6.79079e-07
0.000112561
0.000146178
1.22763e-06
-2.51851e-06
0.000144527
4.16976e-06
-1.09631e-06
0.000111139
7.45768e-05
2.56731e-07
7.43201e-05
6.592e-07
0.000110737
0.000143983
1.20357e-06
-2.46006e-06
0.000142357
4.08652e-06
-1.06643e-06
0.000109343
7.32536e-05
2.33584e-07
7.30201e-05
6.14838e-07
0.000108962
0.000141831
1.14004e-06
-2.3755e-06
0.000140246
3.96107e-06
-1.0248e-06
0.000107612
7.19953e-05
1.96688e-07
7.17986e-05
5.40267e-07
0.000107268
0.000139758
1.02774e-06
-2.25946e-06
0.000138233
3.78454e-06
-9.69075e-07
0.000105978
7.08294e-05
1.43205e-07
7.06861e-05
4.2921e-07
0.000105692
0.000137806
8.56271e-07
-2.10661e-06
0.000136364
3.5482e-06
-8.97054e-07
0.000104482
6.97889e-05
7.09404e-08
6.97179e-05
2.76623e-07
0.000104276
0.000136024
6.17286e-07
-1.91253e-06
0.00013469
3.24561e-06
-8.05064e-07
0.000103169
6.89127e-05
-2.4459e-08
6.89372e-05
7.56316e-08
0.000103069
0.000134466
2.99558e-07
-1.66782e-06
0.000133268
2.86591e-06
-6.86891e-07
0.000102088
6.82502e-05
-1.47813e-07
6.8398e-05
-1.81752e-07
0.000102122
0.00013319
-1.03473e-07
-1.37934e-06
0.000132166
2.40339e-06
-5.53313e-07
0.000101296
6.78447e-05
-2.84731e-07
6.81295e-05
-4.79175e-07
0.000101491
0.000132263
-5.76436e-07
-1.05639e-06
0.000131438
1.88201e-06
-4.06259e-07
0.00010084
6.77234e-05
-4.35825e-07
6.8159e-05
-8.11062e-07
0.000101216
0.000131738
-1.11091e-06
-7.17101e-07
0.000131124
1.33117e-06
-2.53825e-07
0.000100753
6.79053e-05
-5.90869e-07
6.84962e-05
-1.15846e-06
0.000101321
0.000131642
-1.67648e-06
-3.74347e-07
0.000131248
7.68387e-07
-1.0172e-07
0.000101049
6.83947e-05
-7.34519e-07
6.91294e-05
-1.48528e-06
0.0001018
0.000131979
-2.21615e-06
-4.14858e-08
0.000131798
2.23164e-07
5.01225e-08
0.000101708
6.91796e-05
-8.95939e-07
7.00759e-05
-1.84856e-06
0.000102661
0.000132765
-2.81541e-06
3.00176e-07
0.000132807
-3.4208e-07
2.00142e-07
0.000102762
7.02762e-05
-1.05454e-06
7.1331e-05
-2.20154e-06
0.000103909
0.000134009
-3.40333e-06
5.40194e-07
0.000134236
-7.6668e-07
2.89517e-07
0.00010416
7.16207e-05
-1.14235e-06
7.27633e-05
-2.42795e-06
0.000105446
0.000135614
-3.80497e-06
6.92915e-07
0.000135972
-1.05139e-06
3.41669e-07
0.000105797
7.31053e-05
-1.18837e-06
7.42939e-05
-2.56592e-06
0.000107175
0.000137472
-4.06493e-06
7.67066e-07
0.000137918
-1.21324e-06
3.57415e-07
0.000107585
7.46516e-05
-1.20763e-06
7.58595e-05
-2.6435e-06
0.000109022
0.000139503
-4.22812e-06
7.86574e-07
0.000140003
-1.28612e-06
3.4951e-07
0.000109459
7.62092e-05
-1.20398e-06
7.74134e-05
-2.66833e-06
0.000110923
0.00014164
-4.30452e-06
7.55941e-07
0.000142159
-1.27542e-06
3.20343e-07
0.000111359
7.77338e-05
-1.17865e-06
7.89126e-05
-2.64329e-06
0.000112824
0.000143814
-4.29764e-06
6.80699e-07
0.000144322
-1.18932e-06
2.72158e-07
0.000113232
7.91848e-05
-1.1352e-06
8.032e-05
-2.57513e-06
0.000114672
0.000145965
-4.21728e-06
5.68774e-07
0.000146435
-1.03957e-06
2.09259e-07
0.000115032
8.05293e-05
-1.07769e-06
8.16071e-05
-2.47208e-06
0.000116426
0.000148039
-4.07609e-06
4.2869e-07
0.00014845
-8.39195e-07
1.356e-07
0.00011672
8.17427e-05
-1.00964e-06
8.27524e-05
-2.34192e-06
0.000118052
0.000149994
-3.88605e-06
2.68393e-07
0.000150327
-6.00939e-07
5.5276e-08
0.000118265
8.28077e-05
-9.36676e-07
8.37445e-05
-2.19262e-06
0.000119521
0.000151794
-3.65991e-06
9.63071e-08
0.000152035
-3.37448e-07
-2.69174e-08
0.000119644
8.37175e-05
-8.64226e-07
8.45817e-05
-2.03424e-06
0.000120814
0.000153412
-3.41123e-06
-7.95992e-08
0.000153552
-6.06394e-08
-1.08107e-07
0.000120843
8.44735e-05
-7.89464e-07
8.52629e-05
-1.87255e-06
0.000121925
0.000154833
-3.15359e-06
-2.49853e-07
0.000154873
2.0962e-07
-1.86316e-07
0.000121862
8.50764e-05
-7.17364e-07
8.57936e-05
-1.71389e-06
0.000122858
0.000156056
-2.89698e-06
-4.11429e-07
0.000155997
4.7035e-07
-2.58928e-07
0.000122705
8.55345e-05
-6.51177e-07
8.61855e-05
-1.56515e-06
0.000123619
0.000157084
-2.65281e-06
-5.58909e-07
0.00015693
7.12631e-07
-3.23399e-07
0.000123383
8.58619e-05
-5.92652e-07
8.64545e-05
-1.4305e-06
0.000124221
0.000157928
-2.42842e-06
-6.86821e-07
0.000157689
9.26272e-07
-3.77498e-07
0.000123912
8.60769e-05
-5.44175e-07
8.66211e-05
-1.31548e-06
0.000124683
0.000158607
-2.23361e-06
-7.93976e-07
0.000158292
1.10863e-06
-4.21142e-07
0.00012431
8.62e-05
-5.05609e-07
8.67057e-05
-1.22057e-06
0.000125025
0.000159142
-2.07e-06
-8.80967e-07
0.000158763
1.25989e-06
-4.5501e-07
0.000124599
8.62507e-05
-4.75958e-07
8.67267e-05
-1.14442e-06
0.000125268
0.000159554
-1.93611e-06
-9.49417e-07
0.000159122
1.38186e-06
-4.80162e-07
0.000124798
8.62464e-05
-4.53952e-07
8.67001e-05
-1.08483e-06
0.000125429
0.000159866
-1.82889e-06
-1.002e-06
0.000159389
1.4783e-06
-4.98289e-07
0.000124925
8.62015e-05
-4.38124e-07
8.66389e-05
-1.03881e-06
0.000125526
0.000160094
-1.74383e-06
-1.04042e-06
0.000159583
1.55297e-06
-5.12081e-07
0.000124995
8.61277e-05
-4.28919e-07
8.65523e-05
-1.00076e-06
0.000125572
0.000160255
-1.67482e-06
-1.05921e-06
0.00015972
1.60337e-06
-5.28784e-07
0.000125021
8.60345e-05
-4.2665e-07
8.64496e-05
-9.73987e-07
0.000125585
0.000160365
-1.62911e-06
-1.07494e-06
0.00015981
1.64069e-06
-5.34487e-07
0.000125014
8.59284e-05
-4.21827e-07
8.63369e-05
-9.56424e-07
0.000125565
0.000160436
-1.5955e-06
-1.09029e-06
0.000159863
1.66958e-06
-5.35515e-07
0.000124983
8.58139e-05
-4.1124e-07
8.62191e-05
-9.46319e-07
0.000125521
0.000160476
-1.56652e-06
-1.10881e-06
0.000159888
1.70068e-06
-5.33307e-07
0.000124932
8.56954e-05
-4.14756e-07
8.61009e-05
-9.17691e-07
0.000125466
0.00016049
-1.52916e-06
-1.13178e-06
0.000159892
1.73536e-06
-5.41693e-07
0.00012487
8.55771e-05
-3.9246e-07
8.598e-05
-9.06932e-07
0.000125394
0.000160483
-1.49887e-06
-1.16736e-06
0.000159878
1.76124e-06
-5.5018e-07
0.000124798
8.5459e-05
-3.81843e-07
8.58622e-05
-8.86412e-07
0.000125318
0.000160465
-1.47592e-06
-1.17044e-06
0.000159853
1.77001e-06
-5.5217e-07
0.000124718
8.53403e-05
-3.90549e-07
8.57426e-05
-8.88557e-07
0.000125239
0.000160437
-1.47071e-06
-1.14165e-06
0.000159818
1.76964e-06
-5.4614e-07
0.000124635
8.5221e-05
-4.0034e-07
8.56268e-05
-9.08508e-07
0.000125156
0.0001604
-1.4872e-06
-1.10316e-06
0.000159783
1.73114e-06
-5.31065e-07
0.000124548
8.51071e-05
-4.18908e-07
8.55152e-05
-9.40654e-07
0.000125069
0.000160358
-1.52117e-06
-1.08331e-06
0.000159739
1.7072e-06
-5.03254e-07
0.00012446
8.49961e-05
-4.32552e-07
8.54126e-05
-9.65863e-07
0.000124985
0.000160315
-1.52483e-06
-1.06362e-06
0.000159703
1.6837e-06
-4.90662e-07
0.000124383
8.48988e-05
-4.43206e-07
8.53135e-05
-9.8771e-07
0.000124907
0.000160277
-1.55821e-06
-1.04363e-06
0.000159683
1.64948e-06
-4.73235e-07
0.000124312
8.48072e-05
-4.5782e-07
8.52314e-05
-1.02519e-06
0.000124859
0.000160828
-2.15397e-06
-4.57502e-07
0.000159728
1.55637e-06
-4.37013e-07
0.000124788
8.47627e-05
-9.59605e-07
8.56943e-05
-1.60715e-06
0.00012542
0.000161482
-3.35454e-06
1.58508e-07
0.000161538
-2.06973e-07
9.90033e-08
0.000125513
8.57884e-05
-1.67777e-06
8.74372e-05
-4.61981e-06
0.000128403
0.000164076
-7.12522e-06
6.12161e-06
0.000168405
-1.04374e-05
2.95942e-06
0.000131563
9.04133e-05
-8.66292e-06
9.9077e-05
-1.96564e-05
0.000142579
0.000181989
-3.32492e-05
4.32949e-05
0.000211509
-7.28181e-05
1.94497e-05
0.000166412
0.000118526
3.93496e-05
9.49991e-05
0.000165988
3.99767e-05
-0.000288206
-5.72868e-05
-0.000326085
-6.18134e-05
-0.000510458
-2.49782e-05
-0.00055048
-1.594e-05
-0.000577075
-3.11898e-06
-0.00057975
-2.56343e-06
-0.000584686
-2.035e-07
-0.000585157
-8.03789e-07
-0.000585846
9.64658e-07
-0.000585301
1.54903e-06
-0.000583074
5.07449e-06
-0.00057701
9.7808e-06
-0.000568948
2.14748e-05
-0.000554886
3.83967e-05
-0.000540861
8.5246e-05
-0.000536058
0.000189243
-0.000544782
8.52775e-05
-0.000335923
4.86926e-05
-0.000332968
2.72068e-05
-0.000323175
2.72106e-05
-0.000275545
7.94242e-06
-0.000237159
4.52595e-06
-8.3554e-05
1.86079e-06
-5.64789e-05
-3.05246e-05
-2.27912e-06
-2.82655e-05
-5.96516e-06
-5.27853e-05
-7.83947e-05
-1.10488e-05
4.05031e-06
-7.5355e-05
-7.09374e-06
1.41937e-06
-5.01342e-05
-2.68242e-05
-9.58892e-07
-2.58534e-05
-1.70341e-06
-4.9389e-05
-7.35558e-05
-3.53892e-06
6.67367e-07
-7.29298e-05
-1.34307e-06
1.42945e-07
-4.88608e-05
-2.56892e-05
-4.38284e-07
-2.52579e-05
-5.62487e-07
-4.87445e-05
-7.23203e-05
-1.17754e-06
5.33802e-07
-7.27619e-05
-9.42858e-08
7.1204e-08
-4.82844e-05
-2.51889e-05
-4.29906e-10
-2.51806e-05
-1.9169e-08
-4.82598e-05
-7.27655e-05
-1.43366e-08
-3.1828e-08
-7.27822e-05
4.96539e-08
-1.63653e-08
-4.82696e-05
-2.51909e-05
2.00592e-08
-2.52092e-05
4.25334e-08
-4.82898e-05
-7.28019e-05
6.55482e-08
-5.29974e-08
-7.28348e-05
8.95272e-08
-2.37579e-08
-4.83195e-05
-2.52345e-05
2.07042e-08
-2.52589e-05
4.67334e-08
-4.83483e-05
-7.28628e-05
7.61863e-08
-5.71922e-08
-7.29003e-05
9.30035e-08
-2.60351e-08
-4.83821e-05
-2.52875e-05
2.69334e-08
-2.53149e-05
5.93239e-08
-4.84144e-05
-7.29331e-05
9.34246e-08
-6.90621e-08
-7.29739e-05
1.14927e-07
-3.06456e-08
-4.8451e-05
-2.53452e-05
2.81084e-08
-2.53728e-05
6.39806e-08
-4.84848e-05
-7.30082e-05
1.03976e-07
-6.83389e-08
-7.30495e-05
1.12726e-07
-3.00731e-08
-4.85228e-05
-2.54038e-05
2.91031e-08
-2.54354e-05
6.52626e-08
-4.85611e-05
-7.30877e-05
1.0397e-07
-7.35117e-08
-7.3133e-05
1.1347e-07
-3.40682e-08
-4.86022e-05
-2.54696e-05
3.31817e-08
-2.55009e-05
7.12583e-08
-4.86407e-05
-7.31727e-05
1.04521e-07
-7.60472e-08
-7.32174e-05
1.15236e-07
-3.54576e-08
-4.86816e-05
-2.5535e-05
3.48323e-08
-2.55674e-05
7.50571e-08
-4.87206e-05
-7.32575e-05
1.12088e-07
-8.17058e-08
-7.33054e-05
1.26044e-07
-3.78399e-08
-4.87636e-05
-2.5603e-05
3.45636e-08
-2.56362e-05
7.51731e-08
-4.88031e-05
-7.33459e-05
1.15598e-07
-7.80367e-08
-7.33908e-05
1.25537e-07
-3.54338e-08
-4.88443e-05
-2.56709e-05
3.19467e-08
-2.5706e-05
7.19966e-08
-4.88858e-05
-7.34332e-05
1.18422e-07
-7.74588e-08
-7.34811e-05
1.31258e-07
-3.45507e-08
-4.89299e-05
-2.57439e-05
3.20849e-08
-2.57783e-05
7.27822e-08
-4.8971e-05
-7.35236e-05
1.20755e-07
-7.73647e-08
-7.3571e-05
1.28763e-07
-3.4539e-08
-4.90142e-05
-2.58147e-05
3.4148e-08
-2.58511e-05
7.59865e-08
-4.9057e-05
-7.3615e-05
1.23507e-07
-8.15059e-08
-7.36649e-05
1.36796e-07
-3.62835e-08
-4.91023e-05
-2.58894e-05
3.32053e-08
-2.59261e-05
7.52635e-08
-4.9146e-05
-7.37102e-05
1.24905e-07
-8.01855e-08
-7.3759e-05
1.32931e-07
-3.60697e-08
-4.91911e-05
-2.59647e-05
3.50761e-08
-2.60024e-05
7.83125e-08
-4.92354e-05
-7.38041e-05
1.27836e-07
-8.59179e-08
-7.38571e-05
1.38864e-07
-3.91122e-08
-4.92832e-05
-2.60427e-05
3.97019e-08
-2.608e-05
8.51542e-08
-4.93275e-05
-7.39039e-05
1.28904e-07
-8.96743e-08
-7.39544e-05
1.38006e-07
-4.16729e-08
-4.9373e-05
-2.61179e-05
3.98723e-08
-2.61564e-05
8.60347e-08
-4.9419e-05
-7.4003e-05
1.30502e-07
-9.07574e-08
-7.40555e-05
1.42238e-07
-4.20344e-08
-4.94664e-05
-2.61963e-05
3.75031e-08
-2.62351e-05
8.31319e-08
-4.9513e-05
-7.41046e-05
1.32274e-07
-8.54369e-08
-7.41578e-05
1.41264e-07
-3.81012e-08
-4.95614e-05
-2.62755e-05
4.09172e-08
-2.63149e-05
8.87423e-08
-4.96085e-05
-7.42076e-05
1.36292e-07
-9.60281e-08
-7.42647e-05
1.47026e-07
-4.4746e-08
-4.96588e-05
-2.63562e-05
4.24911e-08
-2.63948e-05
9.18344e-08
-4.97062e-05
-7.4316e-05
1.3816e-07
-9.45037e-08
-7.43721e-05
1.44331e-07
-4.38274e-08
-4.97554e-05
-2.64348e-05
4.24043e-08
-2.64746e-05
9.15887e-08
-4.98048e-05
-7.44264e-05
1.37351e-07
-9.44065e-08
-7.44852e-05
1.50318e-07
-4.30809e-08
-4.98555e-05
-2.65159e-05
3.77751e-08
-2.65548e-05
8.64897e-08
-4.99045e-05
-7.45398e-05
1.42814e-07
-8.71674e-08
-7.45992e-05
1.52492e-07
-3.71574e-08
-4.99557e-05
-2.65953e-05
3.66257e-08
-2.66344e-05
8.68129e-08
-5.00054e-05
-7.4655e-05
1.51591e-07
-9.36373e-08
-7.47189e-05
1.62776e-07
-3.96051e-08
-5.00595e-05
-2.6676e-05
3.76809e-08
-2.67146e-05
8.93519e-08
-5.01112e-05
-7.47788e-05
1.52581e-07
-9.12454e-08
-7.48427e-05
1.60698e-07
-3.76575e-08
-5.01649e-05
-2.67543e-05
3.63697e-08
-2.6794e-05
8.94297e-08
-5.02199e-05
-7.49066e-05
1.56884e-07
-9.97256e-08
-7.49771e-05
1.68215e-07
-4.18832e-08
-5.02774e-05
-2.68347e-05
4.11209e-08
-2.68727e-05
9.83721e-08
-5.03337e-05
-7.50451e-05
1.60306e-07
-1.01243e-07
-7.51186e-05
1.68111e-07
-4.19056e-08
-5.03926e-05
-2.69118e-05
4.10582e-08
-2.69499e-05
1.01109e-07
-5.04517e-05
-7.51906e-05
1.67717e-07
-1.04527e-07
-7.52698e-05
1.78852e-07
-4.16091e-08
-5.05141e-05
-2.69893e-05
3.87041e-08
-2.70258e-05
1.00761e-07
-5.05763e-05
-7.53482e-05
1.72499e-07
-1.05677e-07
-7.54316e-05
1.81902e-07
-4.04412e-08
-5.06401e-05
-2.70621e-05
3.96798e-08
-2.70968e-05
1.0624e-07
-5.07049e-05
-7.5516e-05
1.82215e-07
-1.0749e-07
-7.56071e-05
1.97283e-07
-3.76031e-08
-5.07732e-05
-2.71322e-05
3.262e-08
-2.71649e-05
1.01913e-07
-5.08416e-05
-7.56968e-05
1.95076e-07
-1.03564e-07
-7.57952e-05
2.05461e-07
-3.13895e-08
-5.0915e-05
-2.71991e-05
2.94506e-08
-2.72314e-05
1.03588e-07
-5.09903e-05
-7.58951e-05
2.07649e-07
-1.11995e-07
-7.60041e-05
2.208e-07
-3.26296e-08
-5.10698e-05
-2.72642e-05
3.35635e-08
-2.72938e-05
1.14962e-07
-5.11505e-05
-7.61145e-05
2.1638e-07
-1.22067e-07
-7.62333e-05
2.31794e-07
-3.5095e-08
-5.12365e-05
-2.73246e-05
3.29648e-08
-2.73538e-05
1.23365e-07
-5.13258e-05
-7.63557e-05
2.38729e-07
-1.3145e-07
-7.64891e-05
2.60276e-07
-3.43312e-08
-5.14218e-05
-2.73851e-05
3.01788e-08
-2.74144e-05
1.2959e-07
-5.15205e-05
-7.66248e-05
2.65269e-07
-1.33555e-07
-7.67695e-05
2.873e-07
-2.81316e-08
-5.16259e-05
-2.74457e-05
2.57301e-08
-2.74788e-05
1.35573e-07
-5.17379e-05
-7.69208e-05
2.9848e-07
-1.51654e-07
-7.70866e-05
3.2005e-07
-3.29829e-08
-5.18599e-05
-2.75167e-05
3.89142e-08
-2.75544e-05
1.66176e-07
-5.19862e-05
-7.72563e-05
3.35193e-07
-1.82376e-07
-7.744e-05
3.63971e-07
-4.48523e-08
-5.21235e-05
-2.75982e-05
4.7957e-08
-2.76471e-05
1.95399e-07
-5.227e-05
-7.76316e-05
3.92431e-07
-2.16451e-07
-7.78397e-05
4.29644e-07
-5.66198e-08
-5.24304e-05
-2.77062e-05
6.23326e-08
-2.77734e-05
2.31819e-07
-5.26021e-05
-7.80572e-05
4.55737e-07
-2.59258e-07
-7.82898e-05
5.0435e-07
-7.44058e-08
-5.27888e-05
-2.78544e-05
9.00778e-08
-2.79488e-05
2.90926e-07
-5.29909e-05
-7.85355e-05
5.44804e-07
-3.3281e-07
-7.87984e-05
5.9973e-07
-1.12543e-07
-5.32109e-05
-2.80624e-05
1.29942e-07
-2.81958e-05
3.67372e-07
-5.34491e-05
-7.90726e-05
6.49451e-07
-4.13193e-07
-7.93721e-05
7.18972e-07
-1.54155e-07
-5.37142e-05
-2.83595e-05
1.8396e-07
-2.85528e-05
4.68637e-07
-5.40023e-05
-7.96877e-05
7.99035e-07
-5.47794e-07
-8.00248e-05
8.77276e-07
-2.31492e-07
-5.43167e-05
-2.87797e-05
2.79336e-07
-2.90422e-05
6.27995e-07
-5.46569e-05
-8.03824e-05
9.65194e-07
-7.16737e-07
-8.07687e-05
1.07377e-06
-3.3076e-07
-5.50332e-05
-2.93514e-05
3.69993e-07
-2.97168e-05
7.89089e-07
-5.54514e-05
-8.11831e-05
1.19457e-06
-8.77047e-07
-8.16346e-05
1.35376e-06
-4.15339e-07
-5.5922e-05
-3.01519e-05
4.98319e-07
-3.06578e-05
1.0156e-06
-5.64428e-05
-8.21263e-05
1.5164e-06
-1.17566e-06
-8.26961e-05
1.74301e-06
-5.84843e-07
-5.70377e-05
-3.1247e-05
8.36077e-07
-3.20778e-05
1.57962e-06
-5.77773e-05
-8.27969e-05
1.67825e-06
-1.52826e-06
-8.33079e-05
2.04225e-06
-9.40038e-07
-5.83627e-05
-3.30151e-05
7.36624e-07
-3.37489e-05
1.39338e-06
-5.90161e-05
-8.3845e-05
1.93436e-06
-1.2312e-06
-8.53352e-05
2.72293e-06
-2.8737e-07
-5.99593e-05
-3.40359e-05
1.28133e-06
-3.53188e-05
1.66887e-06
-6.03479e-05
-8.61343e-05
2.46874e-06
-1.97337e-06
-8.69215e-05
2.76159e-06
-5.87472e-07
-6.17339e-05
-3.59069e-05
9.2472e-07
-3.68309e-05
1.69727e-06
-6.25057e-05
-8.81897e-05
2.96542e-06
-2.35183e-06
-8.88873e-05
3.04748e-06
-1.02988e-06
-6.38263e-05
-3.78583e-05
1.10427e-06
-3.89562e-05
1.94591e-06
-6.46624e-05
-9.06759e-05
3.73574e-06
-2.66858e-06
-9.18628e-05
3.86041e-06
-1.40097e-06
-6.59167e-05
-4.03427e-05
1.35479e-06
-4.16894e-05
2.60162e-06
-6.71568e-05
-9.29646e-05
3.70315e-06
-2.55109e-06
-9.47683e-05
4.36393e-06
-1.12405e-06
-6.85849e-05
-4.28193e-05
1.03314e-06
-4.3879e-05
2.81465e-06
-7.03817e-05
-9.65916e-05
4.66147e-06
-4.21104e-06
-9.95814e-05
7.30835e-06
-2.36772e-06
-7.22605e-05
-4.63147e-05
2.30513e-06
-4.87674e-05
6.09558e-06
-7.60934e-05
-0.000103683
1.06518e-05
6.8239e-05
-5.04821e-05
-0.000121194
2.74506e-05
-3.54648e-05
-2.16522e-05
5.75893e-06
-2.60872e-05
1.40369e-05
-4.60041e-05
-6.5959e-05
3.02642e-05
-8.88601e-06
-7.29971e-05
1.60119e-05
-3.12517e-06
-5.1436e-05
-2.9048e-05
1.01222e-06
-3.01394e-05
2.28866e-06
-5.2789e-05
-7.43058e-05
3.55721e-06
-1.47267e-07
-7.44421e-05
2.96175e-07
-3.30533e-07
-5.25894e-05
-3.04497e-05
1.46483e-06
-3.19217e-05
3.2457e-06
-5.43778e-05
-7.61435e-05
4.93781e-06
-2.38496e-06
-7.73805e-05
3.60801e-06
-1.1535e-06
-5.56185e-05
-3.3082e-05
2.19954e-06
-3.52833e-05
4.26556e-06
-5.77039e-05
-7.97864e-05
6.61881e-06
-2.64196e-06
-8.19027e-05
4.71035e-06
-1.49015e-06
-5.89101e-05
-3.68199e-05
2.25912e-06
-3.92026e-05
4.76854e-06
-6.14863e-05
-8.44513e-05
7.42763e-06
-4.16989e-06
-8.71455e-05
7.07087e-06
-1.86349e-06
-6.38766e-05
-4.12419e-05
2.62507e-06
-4.39778e-05
6.28833e-06
-6.75995e-05
-9.2225e-05
1.14259e-05
-9.12983e-06
-9.90384e-05
1.66107e-05
-4.03015e-06
-7.27347e-05
-4.8156e-05
-2.62849e-05
-2.25623e-05
-6.38644e-05
-3.55593e-05
-4.94554e-05
-0.000113049
-1.58366e-05
-6.56466e-05
3.31138e-05
-8.3606e-06
-4.6628e-05
-2.90486e-05
4.68227e-06
-3.3431e-05
1.27983e-05
-5.41242e-05
-7.41503e-05
2.14256e-05
-7.2707e-06
-8.07079e-05
1.36929e-05
-3.60138e-06
-5.79163e-05
-3.71403e-05
2.51105e-06
-3.96177e-05
6.42264e-06
-6.17967e-05
-8.45145e-05
1.0232e-05
-5.40555e-06
-8.80548e-05
9.01635e-06
-2.38913e-06
-6.48368e-05
-4.20582e-05
2.6813e-06
-4.47257e-05
5.75427e-06
-6.79182e-05
-9.17759e-05
9.40505e-06
-7.0982e-06
-9.69044e-05
1.21697e-05
-3.02685e-06
-7.19535e-05
-4.76916e-05
3.18097e-06
-5.08128e-05
6.99117e-06
-7.5696e-05
-0.000101471
1.16056e-05
6.57182e-05
-5.03209e-05
-0.00011673
2.67886e-05
-3.68298e-05
-2.40071e-05
4.98088e-06
-3.07652e-05
1.84216e-05
-4.79194e-05
-6.62905e-05
3.34356e-05
-1.14755e-05
-7.56087e-05
2.08992e-05
-4.45768e-06
-5.50384e-05
-3.51268e-05
2.75444e-06
-3.79462e-05
5.98393e-06
-5.83058e-05
-7.89581e-05
9.39791e-06
-3.81955e-06
-8.0919e-05
5.79915e-06
-1.76528e-06
-6.03889e-05
-3.97489e-05
3.1331e-06
-4.29664e-05
6.51084e-06
-6.38222e-05
-8.6621e-05
1.2226e-05
-9.05741e-06
-9.26408e-05
1.56352e-05
-4.11736e-06
-6.87955e-05
-4.72218e-05
-2.46478e-05
-2.31081e-05
-5.93355e-05
-3.43484e-05
-4.68041e-05
-0.00010494
-1.72198e-05
-6.23208e-05
3.38732e-05
-8.82482e-06
-4.63023e-05
-2.98969e-05
6.21648e-06
-3.59638e-05
1.42715e-05
-5.38663e-05
-7.22327e-05
2.44162e-05
-9.52427e-06
-8.06341e-05
1.80511e-05
-4.01284e-06
-5.95188e-05
-4.01948e-05
4.50047e-06
-4.47373e-05
9.4997e-06
-6.45243e-05
-8.72986e-05
1.62582e-05
-7.42769e-06
-9.16177e-05
1.21769e-05
-3.2341e-06
-6.87569e-05
-4.80963e-05
-2.5352e-05
-2.30619e-05
-5.97814e-05
-3.43834e-05
-4.60539e-05
-0.000105225
-1.66708e-05
-6.05798e-05
3.22853e-05
-9.32408e-06
-4.51485e-05
-3.02638e-05
5.21934e-06
-3.54433e-05
1.23049e-05
-5.18227e-05
-6.9669e-05
2.14445e-05
-9.00631e-06
-7.60012e-05
1.52391e-05
-3.96548e-06
-5.70009e-05
-3.95637e-05
4.37945e-06
-4.40475e-05
1.00663e-05
-6.26698e-05
-8.2742e-05
1.74339e-05
5.38661e-05
-4.24658e-05
-9.39652e-05
2.27492e-05
-3.18505e-05
-2.18713e-05
9.51382e-06
-2.92461e-05
1.67898e-05
-4.30396e-05
-5.66833e-05
3.21264e-05
-1.50188e-05
-6.82115e-05
2.66808e-05
-6.68303e-06
-5.08352e-05
-3.57078e-05
5.39372e-06
-4.12097e-05
1.24424e-05
-5.79951e-05
-7.68471e-05
2.09641e-05
-7.68391e-06
-8.14548e-05
1.23302e-05
-3.99155e-06
-6.16733e-05
-4.51972e-05
-2.25914e-05
-2.25861e-05
-5.25541e-05
-3.16879e-05
-4.18841e-05
-9.21095e-05
-1.88362e-05
-5.59963e-05
3.29582e-05
-7.59802e-06
-4.29283e-05
-3.01666e-05
6.80544e-06
-3.69819e-05
1.40402e-05
-5.01115e-05
-6.54285e-05
2.34784e-05
4.24716e-05
-3.41544e-05
-7.36553e-05
1.78738e-05
-2.57334e-05
-1.89969e-05
5.22095e-06
-2.60382e-05
1.79094e-05
-3.58204e-05
-4.73743e-05
3.01602e-05
-1.36656e-05
-5.55363e-05
2.19589e-05
-6.62675e-06
-4.30854e-05
-3.2604e-05
-1.63806e-05
-1.62269e-05
-3.78628e-05
-2.15683e-05
-2.78366e-05
-6.55262e-05
-1.08062e-05
-3.52687e-05
1.8243e-05
-5.07624e-06
-2.72978e-05
-2.12978e-05
-1.27074e-05
-8.59356e-06
-2.84978e-05
-1.15097e-05
-1.52058e-05
-4.85616e-05
7.81774e-07
-1.65284e-05
5.37795e-07
5.61257e-07
-1.12922e-05
-8.03416e-06
-1.36046e-05
5.57413e-06
-3.24053e-05
7.51286e-06
9.60475e-06
-5.85361e-05
2.5387e-05
2.64188e-05
-4.2199e-05
1.17335e-05
2.1168e-05
1.73088e-05
-1.08394e-05
2.81489e-05
-2.39416e-05
3.42714e-05
4.2887e-05
-4.04074e-05
2.75713e-05
6.34886e-05
-4.81697e-05
1.15372e-05
5.03073e-05
3.96873e-05
-1.34843e-05
5.31715e-05
-3.28891e-05
6.97116e-05
8.96995e-05
-5.91013e-05
-4.88842e-05
5.56668e-05
8.29072e-05
-2.13164e-05
4.21405e-05
3.18537e-05
-1.91347e-05
5.0999e-05
-4.36944e-05
6.67125e-05
8.72892e-05
-7.53054e-05
-4.0373e-05
5.92833e-05
6.84108e-05
-1.83815e-05
4.47339e-05
3.26162e-05
-2.41394e-05
5.66436e-05
-5.58922e-05
7.63269e-05
9.96015e-05
-9.62551e-05
-3.74988e-05
7.5039e-05
6.22528e-05
-1.65613e-05
5.59094e-05
3.97419e-05
1.72093e-05
2.63906e-05
3.06428e-05
3.68167e-05
4.90336e-05
5.8557e-05
4.75231e-05
8.6102e-05
-8.52971e-05
2.08592e-05
6.47087e-05
4.62888e-05
1.41357e-05
3.231e-05
3.30755e-05
4.56966e-05
6.01618e-05
5.91054e-05
5.98731e-05
0.000107299
-0.000106971
2.47813e-05
8.0801e-05
5.70778e-05
1.40957e-05
4.29724e-05