/*--------------------------------*- C++ -*----------------------------------*\
| =========                 |                                                 |
| \\      /  F ield         | OpenFOAM: The Open Source CFD Toolbox           |
|  \\    /   O peration     | Version:  v2006                                 |
|   \\  /    A nd           | Website:  www.openfoam.com                      |
|    \\/     M anipulation  |                                                 |
\*---------------------------------------------------------------------------*/
FoamFile
{
    version     2.0;
    format      ascii;
    class       volScalarField;
    location    "0.022";
    object      p;
}
// * * * * * * * * * * * * * * * * * * * * * * * * * * * * * * * * * * * * * //

dimensions      [1 -1 -2 0 0 0 0];


internalField   nonuniform List<scalar> 
41981
(
147305
147304
147305
147301
147304
147303
147303
147303
147303
147304
147305
147306
147308
147311
147314
147318
147322
147326
147330
147335
147339
147343
147348
147352
147357
147362
147366
147371
147376
147381
147386
147392
147397
147403
147408
147414
147420
147426
147432
147438
147444
147451
147457
147464
147470
147477
147484
147491
147498
147505
147512
147520
147527
147534
147542
147550
147557
147565
147573
147581
147589
147597
147605
147613
147621
147630
147638
147646
147655
147663
147671
147680
147688
147697
147706
147714
147723
147731
147740
147749
147757
147766
147774
147783
147792
147800
147809
147817
147826
147834
147843
147851
147860
147868
147876
147884
147893
147901
147909
147917
147925
147933
147940
147948
147956
147963
147971
147978
147986
147993
148000
148007
148014
148021
148028
148034
148041
148047
148054
148060
148066
148072
148078
148083
148089
148095
148100
148105
148110
148115
148120
148125
148129
148134
148138
148143
148147
148151
148156
148160
148163
148165
148166
148166
148165
148164
148163
148162
148161
148161
148162
148162
148162
148166
148169
148179
148188
148203
148229
148246
148257
148239
148238
148233
148229
148231
148232
148225
148225
148225
148219
148218
148218
148213
148213
148214
148208
148207
148207
148204
148205
148205
148200
148200
148199
148197
148197
148197
148194
148193
148193
148191
148191
148192
148189
148188
148188
148187
148187
148187
148185
148185
148185
148183
148184
148184
148182
148182
148182
148181
148181
148181
148180
148179
148179
148179
148179
148179
148178
148178
148178
148177
148178
148178
148177
148177
148177
148176
148177
148177
148176
148176
148176
148176
148176
148176
148176
148176
148176
148176
148176
148176
148176
148176
148176
148176
148177
148177
148177
148177
148177
148177
148178
148178
148178
148178
148178
148179
148179
148179
148179
148179
148179
148180
148180
148181
148181
148181
148181
148182
148182
148182
148183
148183
148183
148184
148184
148185
148185
148185
148185
148187
148187
148187
148188
148188
148188
148190
148190
148190
148191
148191
148191
148193
148193
148193
148194
148194
148194
148196
148196
148197
148197
148197
148197
148200
148200
148200
148201
148201
148201
148204
148204
148204
148205
148205
148205
148208
148208
148208
148210
148210
148210
148212
148213
148213
148214
148214
148214
148217
148217
148218
148219
148219
148219
148222
148222
148223
148224
148224
148224
148227
148228
148228
148229
148229
148229
148233
148233
148233
148235
148235
148235
148238
148239
148239
148241
148241
148241
148244
148245
148245
148247
148247
148247
148250
148251
148251
148253
148253
148253
148257
148257
148257
148259
148259
148259
148263
148264
148264
148266
148266
148266
148270
148271
148271
148273
148273
148273
148277
148278
148278
148280
148280
148280
148285
148285
148285
148288
148288
148288
148292
148292
148293
148295
148295
148295
148300
148300
148301
148303
148303
148303
148308
148308
148309
148311
148311
148311
148316
148317
148317
148320
148320
148320
148325
148325
148325
148328
148329
148329
148334
148334
148334
148337
148337
148338
148343
148343
148343
148347
148347
148347
148352
148352
148353
148356
148356
148356
148362
148362
148362
148366
148366
148366
148372
148372
148372
148376
148376
148376
148382
148382
148382
148386
148386
148386
148392
148392
148393
148397
148397
148397
148403
148403
148403
148407
148407
148407
148414
148414
148414
148418
148418
148419
148425
148425
148425
148430
148430
148430
148436
148437
148437
148441
148441
148442
148448
148449
148449
148453
148453
148453
148460
148461
148461
148466
148466
148466
148473
148473
148473
148478
148478
148478
148485
148486
148486
148491
148491
148491
148498
148499
148499
148504
148504
148504
148512
148512
148512
148517
148517
148518
148525
148525
148526
148531
148531
148531
148539
148539
148540
148545
148545
148545
148553
148553
148554
148559
148559
148559
148568
148568
148568
148574
148574
148574
148582
148582
148583
148589
148589
148589
148597
148597
148598
148604
148604
148604
148612
148613
148613
148619
148619
148619
148628
148628
148629
148635
148635
148635
148644
148644
148644
148651
148651
148651
148660
148660
148660
148667
148667
148667
148676
148676
148677
148683
148684
148684
148693
148693
148693
148700
148700
148700
148709
148710
148710
148717
148717
148717
148726
148727
148727
148734
148734
148734
148743
148744
148744
148751
148751
148751
148761
148761
148761
148768
148768
148768
148778
148778
148779
148786
148786
148786
148795
148796
148796
148803
148803
148803
148813
148813
148813
148821
148821
148821
148830
148831
148831
148838
148838
148838
148848
148848
148848
148856
148856
148856
148865
148865
148866
148873
148873
148873
148883
148883
148883
148890
148890
148890
148900
148900
148900
148907
148907
148907
148917
148917
148917
148924
148924
148924
148933
148933
148934
148941
148941
148941
148950
148950
148950
148957
148957
148957
148966
148966
148966
148973
148973
148973
148981
148981
148981
148988
148988
148988
148996
148996
148996
149002
149002
149002
149010
149010
149011
149016
149016
149016
149024
149024
149024
149030
149030
149030
149037
149037
149037
149042
149042
149042
149049
149049
149049
149054
149054
149054
149060
149061
149061
149065
149065
149065
149071
149071
149071
149075
149075
149075
149080
149081
149081
149084
149084
149084
149089
149089
149089
149092
149092
149092
149097
149097
149097
149099
149099
149099
149103
149103
149103
149105
149105
149105
149109
149109
149109
149110
149110
149110
149113
149113
149113
149114
149114
149114
149117
149117
149117
149117
149117
149117
149119
149119
149119
149119
149119
149119
149121
149121
149121
149120
149121
149121
149121
149121
149121
149121
149121
149121
149121
149121
149121
149120
149120
149121
149120
149120
149121
149119
149119
149119
149119
149119
149119
149117
149117
149117
149117
149117
149117
149115
149115
149115
149114
149114
149114
149112
149112
149112
149111
149111
149111
149108
149108
149108
149107
149107
149107
149104
149104
149105
149103
149103
149103
149100
149100
149101
149099
149099
149099
149096
149096
149096
149095
149095
149095
149092
149092
149092
149090
149090
149090
149087
149087
149088
149086
149086
149086
149083
149083
149083
149081
149081
149082
149078
149079
149079
149077
149077
149077
149074
149074
149074
149073
149073
149073
149070
149070
149070
149069
149069
149069
149066
149066
149066
149065
149065
149065
149062
149062
149062
149061
149061
149061
149058
149058
149058
149057
149057
149057
149054
149055
149055
149053
149054
149054
149051
149051
149051
149050
149050
149050
149048
149048
149048
149047
149047
149047
149045
149045
149045
149044
149044
149044
149042
149042
149042
149041
149041
149041
149039
149039
149039
149039
149039
149039
149037
149037
149037
149036
149036
149036
149034
149034
149035
149034
149034
149034
149032
149032
149032
149032
149032
149032
149030
149030
149030
149030
149030
149030
149028
149028
149028
149028
149028
149028
149026
149026
149026
149026
149026
149026
149024
149025
149025
149024
149024
149024
149023
149023
149023
149023
149023
149023
149021
149021
149021
149021
149021
149021
149020
149020
149020
149020
149020
149020
149018
149018
149018
149018
149018
149018
149017
149017
149017
149017
149017
149017
149016
149016
149016
149015
149016
149016
149014
149014
149014
149014
149014
149014
149013
149013
149013
149013
149013
149013
149012
149012
149012
149012
149012
149012
149010
149011
149011
149010
149011
149011
149009
149009
149009
149009
149009
149009
149008
149008
149008
149008
149008
149008
149007
149007
149007
149007
149007
149007
149005
149006
149006
149005
149005
149006
149004
149004
149004
149004
149004
149004
149003
149003
149003
149003
149003
149003
149002
149002
149002
149004
149004
149004
149005
149005
149005
149004
149004
149003
149003
149003
149003
149002
149002
149001
149001
149001
149001
149001
149001
149000
149001
149000
149000
149000
149000
149000
149000
149000
149000
149000
149000
149000
149000
149000
149000
149000
149000
149000
149000
149000
149000
149000
149000
149000
149000
149000
149000
149000
149000
149001
149001
149002
149003
149000
148999
149000
149001
149002
149001
149002
149002
149002
149002
149002
149003
149000
149000
149000
148999
148999
148999
148999
148999
148999
149000
149000
149000
149000
149000
149000
148999
148999
148999
149000
149000
149000
149000
149000
149000
149000
149000
149000
149000
149000
149000
149000
149000
149000
149001
149001
149001
149001
149001
149001
149001
149001
149001
149001
149001
149001
149002
149002
149002
149002
149002
149002
149002
149002
149002
149002
149002
149002
149002
149002
149002
149003
149003
149003
149003
149003
149003
149003
149003
149003
149003
149003
149003
149003
149003
149003
149003
149003
149003
149004
149004
149004
149004
149004
149004
149004
149004
149004
149004
149004
149004
149004
149004
149004
149004
149004
149004
149005
149005
149005
149005
149005
149005
149005
149005
149005
149005
149005
149005
149005
149005
149005
149005
149005
149005
149005
149005
149005
149005
149005
149005
149006
149006
149006
149006
149006
149006
149006
149006
149006
149006
149006
149006
149006
149006
149006
149006
149006
149006
149006
149006
149006
149006
149006
149006
149007
149007
149007
149007
149007
149007
149007
149007
149007
149007
149007
149007
149007
149007
149007
149007
149007
149007
149007
149007
149007
149007
149007
149007
149007
149007
149007
149007
149007
149007
149007
149007
149007
149008
149008
149008
149008
149008
149008
149008
149008
149008
149008
149008
149008
149008
149008
149008
149008
149008
149008
149008
149008
149008
149008
149008
149008
149008
149008
149008
149008
149008
149008
149008
149008
149008
149008
149008
149008
149008
149008
149008
149008
149008
149008
149008
149008
149008
149008
149008
149008
149008
149008
149008
149008
149008
149008
149008
149008
149008
149008
149007
149007
149007
149007
149007
149007
149007
149007
149007
149007
149007
149007
149007
149007
149007
149007
149007
149007
149007
149007
149007
149007
149007
149007
149007
149007
149006
149006
149006
149006
149006
149006
149006
149006
149006
149006
149006
149006
149005
149005
149005
149005
149005
149005
149005
149005
149005
149005
149005
149005
149004
149004
149004
149004
149004
149004
149004
149004
149004
149003
149003
149003
149003
149003
149003
149003
149002
149002
149002
149002
149002
149002
149002
149002
149001
149001
149001
149001
149001
149001
149000
149000
149000
148999
148999
148999
148999
148999
148999
148998
148998
148998
148997
148997
148997
148997
148997
148997
148996
148996
148996
148995
148995
148995
148994
148994
148994
148993
148993
148993
148992
148992
148992
148991
148991
148991
148990
148990
148990
148989
148989
148989
148987
148987
148987
148986
148986
148986
148984
148984
148985
148983
148983
148983
148981
148981
148981
148979
148979
148979
148977
148977
148977
148975
148975
148975
148972
148972
148973
148970
148970
148970
148967
148967
148967
148964
148964
148964
148961
148961
148961
148958
148958
148957
148954
148954
148954
148951
148950
148950
148945
148945
148946
148940
148939
148939
148933
148933
148935
148933
148932
148932
148929
148929
148931
148929
148927
148927
148923
148924
148926
148927
148925
148924
148928
148928
148930
148931
148930
148929
148929
148930
148932
148938
148936
148935
148942
148942
148943
148947
148946
148945
148947
148948
148950
148955
148954
148953
148959
148959
148961
148969
148968
148968
148986
148984
148982
148998
149011
149007
148904
148901
148910
148945
148942
148944
148958
148959
148961
148968
148967
148968
148977
148977
148978
148983
148982
148982
148990
148990
148991
148994
148992
148992
149004
149004
149005
149012
149012
149012
149018
149018
149019
149024
149022
149021
149032
149031
149032
149044
149045
149044
149069
149083
149069
149024
148926
149020
149013
149040
149030
149038
149040
149038
149050
149050
149051
149061
149061
149060
149071
149070
149070
149076
149075
149074
149082
149083
149084
149093
149091
149092
149110
149109
149109
149128
149139
149137
149095
149003
149076
149108
149088
149101
149112
149114
149115
149122
149122
149122
149131
149133
149134
149145
149145
149145
149152
149152
149153
149166
149165
149165
149184
149196
149189
149169
149069
149176
149160
149175
149174
149183
149184
149182
149194
149195
149196
149210
149210
149210
149218
149218
149220
149238
149238
149239
149264
149261
149257
149182
149277
149156
149260
149240
149243
149264
149262
149263
149269
149272
149276
149300
149298
149298
149324
149338
149327
149318
149198
149325
149290
149318
149315
149332
149335
149334
149350
149350
149350
149364
149363
149362
149380
149383
149385
149411
149421
149415
149433
149315
149404
149421
149409
149413
149426
149430
149434
149466
149464
149465
149488
149502
149491
149504
149373
149522
149482
149501
149504
149531
149532
149533
149560
149559
149561
149586
149593
149581
149639
149513
149612
149631
149623
149628
149652
149656
149657
149686
149676
149682
149625
149783
149669
149738
149753
149753
149770
149776
149780
149822
149837
149823
149904
149779
149875
149896
149895
149887
149938
149963
149939
150016
149891
150042
150014
150039
150030
150094
150093
150122
150099
150193
150121
150185
150203
150215
150291
150276
150246
150287
150309
150313
150409
150384
150346
150315
150364
150393
150392
150341
150283
150191
150250
150292
149966
150014
149932
149567
149566
149531
148969
149081
149114
148758
148744
148715
148211
148350
148450
148270
148248
148213
147947
148054
148130
148088
148079
148062
147802
147902
147975
147992
147976
147950
147913
147935
147963
147935
147905
147860
147869
147888
147914
147965
147959
147947
147861
147899
147930
147857
147977
147777
147971
147944
147977
147939
147943
147939
147670
148032
147835
148003
147893
148006
147914
147950
147930
147983
147978
147974
147927
147941
147956
147897
148007
147844
148022
148007
148021
148000
147996
147992
148004
147847
147982
148017
148036
148012
147999
148008
148016
148021
147865
148065
148046
148077
148048
148029
148022
148026
147907
148047
147958
148081
148075
148085
148066
148057
148057
147977
148111
147926
148100
148085
148097
148073
148072
148065
148054
147989
148050
148115
148130
148122
148109
148105
148104
148069
148098
148097
147897
148195
148003
148152
148103
148153
148120
148117
148105
148015
148220
147946
148178
148129
148160
148127
148121
148106
148191
147977
148130
148156
148187
148158
148131
148137
148145
148154
147947
148213
148166
148214
148170
148156
148151
148149
148195
148009
148149
148189
148221
148198
148183
148169
148167
148073
148252
148009
148218
148186
148205
148174
148173
148164
148209
148040
148166
148202
148229
148205
148191
148191
148192
148192
148031
148239
148212
148247
148213
148193
148191
148202
148086
148206
148123
148230
148224
148237
148207
148200
148198
148118
148267
148067
148258
148235
148245
148212
148215
148212
148211
148101
148189
148234
148258
148242
148202
148210
148213
148212
148057
148257
148231
148266
148235
148219
148220
148229
148133
148237
148158
148256
148253
148261
148217
148223
148224
148216
148052
148260
148237
148274
148238
148219
148218
148229
148109
148247
148148
148256
148246
148261
148244
148229
148224
148136
148317
148082
148274
148238
148262
148220
148227
148228
148088
148262
148140
148257
148235
148266
148227
148220
148211
148120
148316
148053
148270
148222
148258
148228
148225
148213
148340
148039
148238
148216
148368
148193
148203
148168
148204
148237
148247
148236
148212
148213
148212
148202
148075
148233
148240
148268
148236
148212
148209
148222
148082
148251
148136
148255
148241
148262
148243
148228
148216
148118
148311
148058
148265
148205
148249
148192
148208
148217
147988
148286
148103
148259
148103
148295
148140
148184
148154
148218
148224
148225
148196
148191
148191
148120
148232
148088
148257
148235
148241
148198
148208
148217
148054
148220
148110
148223
148185
148233
148196
148186
148166
148059
148303
147988
148319
148050
148221
148167
148048
148156
148187
148200
148185
148163
148161
148160
148202
148030
148156
148198
148237
148216
148199
148183
148163
148054
148294
147985
148299
148026
148206
148136
148025
148128
148163
148174
148157
148128
148126
148134
148019
148147
148058
148167
148138
148174
148142
148134
148110
148012
148276
147924
148282
148006
148193
148124
148026
148133
148152
148162
148140
148108
148097
148088
148202
147915
148094
148080
148211
148059
148067
148043
148070
148109
148122
148113
148092
148075
148072
147971
148194
147895
148144
148036
148116
148048
148030
148042
148105
148110
148101
148080
148088
148106
147997
148082
148014
148100
148075
148109
148064
148060
148033
147932
148193
147849
148196
147880
148101
148023
147897
148027
148040
148056
148038
148017
148007
148001
148110
147830
148004
147995
148165
147970
147980
147955
147992
148039
148058
148050
148011
148011
148017
148015
147748
148110
147930
148155
147979
147944
147994
147927
147997
148001
147994
147959
147952
147938
148054
147762
147945
147924
148099
147903
147923
147891
147933
147964
147974
147965
147949
147933
147922
147824
148070
147738
148062
147838
148001
147919
147845
147928
147972
147970
147956
147902
147922
147931
147681
148038
147776
147874
148086
147771
147854
147832
147856
147894
147902
147894
147834
147829
147839
147881
147891
147881
147841
147848
147853
147852
147629
147931
147840
147945
147851
147816
147815
147806
147869
147877
147865
147842
147836
147831
147950
147637
147852
147874
147743
147974
147776
147764
147783
147816
147824
147822
147763
147760
147764
147803
147815
147809
147745
147758
147766
147760
147534
147835
147740
147874
147756
147725
147725
147709
147772
147776
147769
147724
147737
147749
147512
147822
147613
147740
147857
147678
147700
147688
147700
147748
147761
147761
147675
147676
147682
147724
147734
147734
147702
147685
147677
147563
147786
147476
147752
147620
147721
147625
147610
147624
147672
147681
147664
147637
147617
147609
147748
147381
147649
147684
147473
147829
147635
147507
147604
147620
147649
147620
147576
147566
147577
147632
147643
147640
147632
147611
147590
147480
147759
147395
147766
147402
147667
147559
147390
147577
147584
147598
147570
147515
147493
147503
147553
147564
147549
147521
147502
147493
147632
147252
147528
147566
147365
147696
147445
147441
147451
147502
147513
147518
147429
147433
147439
147483
147491
147484
147429
147426
147431
147484
147496
147488
147451
147453
147455
147439
147259
147517
147410
147605
147438
147387
147428
147357
147423
147419
147424
147360
147362
147357
147416
147417
147409
147358
147373
147386
147127
147455
147235
147354
147480
147267
147295
147301
147302
147347
147358
147349
147273
147278
147285
147342
147351
147351
147326
147310
147294
147182
147457
147076
147452
147147
147378
147271
147137
147301
147329
147341
147304
147242
147221
147232
147277
147280
147271
147205
147195
147192
147265
147270
147254
147216
147205
147200
147297
146991
147204
147231
147115
147316
147152
147131
147147
147181
147191
147184
147118
147116
147120
147162
147173
147168
147089
147092
147100
147149
147158
147151
147135
147121
147107
147002
147193
146917
147191
147045
147161
147067
147031
147081
147130
147132
147114
147053
147050
147060
147078
147085
147081
147022
147047
147057
146758
147155
146880
147002
147260
146847
146897
147029
146950
147015
146988
147012
146911
146933
146925
146980
146992
146989
146901
146904
146911
146957
146968
146963
146890
146888
146897
146946
146961
146953
146900
146900
146909
146879
146666
146965
146850
147030
146877
146842
146880
146816
146908
146911
146901
146830
146829
146832
146877
146881
146870
146803
146797
146800
146847
146856
146841
146802
146788
146784
146890
146557
146787
146819
146682
146934
146751
146671
146733
146758
146777
146764
146694
146685
146698
146742
146758
146752
146658
146661
146673
146725
146737
146732
146699
146691
146676
146576
146720
146518
146819
146535
146744
146632
146505
146667
146655
146699
146653
146604
146580
146600
146660
146660
146646
146568
146560
146562
146612
146618
146606
146537
146530
146530
146589
146598
146583
146542
146532
146534
146597
146332
146511
146548
146436
146639
146489
146417
146468
146497
146516
146504
146423
146416
146430
146475
146489
146482
146401
146398
146406
146448
146463
146449
146388
146388
146419
146423
146058
146613
146576
146303
146421
146382
146149
146406
146396
146409
146383
146322
146287
146315
146377
146379
146366
146289
146282
146287
146336
146341
146328
146251
146240
146236
146315
146322
146303
146263
146243
146249
146351
145972
146245
146290
146048
146461
146238
146083
146181
146202
146268
146219
146126
146107
146140
146179
146189
146184
146100
146097
146105
146152
146163
146154
146082
146079
146084
146135
146144
146145
146115
146097
146065
145920
146262
145730
145950
146194
146079
145954
146143
145908
146086
146069
146069
145964
145982
145956
146014
146025
146012
145934
145927
145927
145994
145998
145984
145908
145900
145899
145963
145967
145957
145895
145917
145927
145658
145972
145755
145879
146098
145744
145735
145886
145800
145871
145840
145875
145739
145768
145761
145828
145842
145838
145748
145744
145749
145787
145795
145785
145706
145703
145711
145762
145775
145767
145694
145688
145692
145735
145748
145738
145681
145675
145687
145627
145497
145687
145668
145768
145666
145620
145583
145601
145648
145651
145643
145555
145542
145543
145602
145611
145600
145524
145519
145525
145572
145580
145567
145489
145479
145477
145548
145557
145541
145496
145488
145492
145509
145303
145443
145503
145389
145600
145422
145344
145401
145434
145456
145448
145338
145332
145352
145394
145407
145395
145316
145310
145317
145360
145371
145359
145290
145283
145288
145336
145352
145342
145279
145278
145286
145217
145095
145284
145237
145360
145244
145198
145162
145168
145221
145231
145225
145142
145137
145145
145182
145193
145182
145101
145094
145099
145151
145158
145145
145061
145051
145047
145124
145130
145117
145056
145074
145080
144873
145075
144924
145034
145193
144934
144895
144995
144945
145005
145004
145005
144887
144901
144900
144955
144966
144961
144856
144857
144865
144917
144933
144928
144821
144820
144829
144875
144891
144887
144778
144779
144789
144835
144853
144846
144766
144764
144778
144703
144554
144766
144748
144844
144745
144691
144646
144660
144741
144744
144729
144636
144623
144626
144678
144689
144678
144593
144587
144594
144632
144644
144634
144555
144550
144558
144605
144616
144600
144542
144537
144538
144509
144356
144466
144536
144497
144606
144451
144398
144440
144466
144480
144469
144375
144363
144379
144424
144444
144437
144312
144312
144326
144368
144384
144376
144267
144266
144278
144321
144337
144325
144241
144240
144263
144197
144029
144286
144325
144254
144255
144171
144110
144166
144207
144213
144200
144110
144098
144105
144159
144169
144155
144060
144050
144053
144105
144117
144105
144021
144015
144020
144086
144094
144074
144009
144006
144009
143974
143797
143922
143983
143929
144050
143900
143844
143888
143926
143944
143940
143832
143821
143833
143867
143882
143871
143759
143756
143766
143807
143820
143809
143715
143711
143718
143760
143780
143772
143673
143672
143690
143598
143436
143673
143693
143648
143650
143585
143530
143592
143621
143634
143618
143527
143509
143519
143585
143595
143576
143483
143473
143478
143524
143542
143526
143468
143462
143465
143460
143261
143387
143446
143365
143549
143336
143272
143332
143378
143401
143400
143269
143259
143277
143316
143335
143325
143191
143191
143205
143248
143263
143252
143144
143141
143150
143199
143219
143208
143136
143131
143128
143007
142941
143047
143032
143129
143052
142966
142936
142943
142946
142988
142977
142887
142859
142872
142957
142969
142950
142862
142852
142859
142921
142934
142914
142846
142841
142844
142784
142658
142745
142831
142767
142907
142723
142671
142712
142752
142768
142767
142635
142629
142644
142689
142706
142696
142581
142574
142581
142616
142628
142613
142508
142506
142515
142571
142594
142588
142501
142493
142492
142363
142315
142384
142452
142469
142437
142327
142305
142315
142360
142372
142350
142220
142194
142199
142197
142240
142229
142128
142097
142103
142183
142205
142188
142129
142126
142128
142041
141973
142020
142109
142120
142141
141990
141977
142000
142041
142051
142039
141933
141926
141934
141988
142009
142006
141850
141856
141870
141922
141940
141932
141869
141857
141842
141666
141800
141615
141767
141846
141804
141661
141696
141635
141704
141712
141707
141582
141588
141579
141658
141654
141634
141501
141491
141479
141546
141554
141536
141446
141454
141458
141316
141240
141281
141304
141423
141271
141129
141127
141205
141262
141276
141263
141143
141139
141165
141236
141264
141260
141107
141108
141125
141172
141188
141166
141113
141109
141104
140990
140888
141039
141091
141079
141058
140952
140926
140953
140962
140990
140973
140861
140844
140857
140928
140939
140911
140820
140824
140829
140644
140663
140640
140757
140773
140778
140611
140617
140617
140637
140645
140641
140486
140493
140494
140519
140529
140531
140363
140372
140378
140388
140401
140403
140223
140246
140265
140069
140022
140000
140237
140247
140223
140130
140115
140118
140186
140203
140184
140074
140066
140073
140125
140141
140121
140037
140040
140043
139900
139877
139878
139966
139980
139964
139849
139842
139849
139892
139911
139899
139766
139757
139763
139791
139810
139796
139696
139694
139690
139502
139521
139503
139651
139641
139623
139476
139477
139471
139501
139502
139491
139339
139338
139336
139345
139348
139336
139203
139205
139197
138923
138951
138947
139018
139024
138940
138878
138883
138912
139015
139042
139028
138876
138880
138905
138981
139012
139000
138904
138899
138892
138727
138659
138729
138842
138861
138823
138702
138685
138697
138753
138767
138737
138591
138567
138567
138635
138652
138626
138527
138530
138541
138325
138351
138316
138433
138456
138461
138263
138276
138278
138293
138310
138308
138157
138158
138159
137936
137829
137966
138043
138046
137995
137833
137807
137819
137651
137703
137721
137516
137449
137392
137620
137652
137642
137594
137591
137583
137476
137415
137465
137563
137596
137578
137447
137432
137451
137505
137540
137525
137416
137401
137396
137150
137208
137136
137270
137299
137285
137138
137151
137151
137186
137182
137167
136994
136990
136979
137012
137024
137010
136882
136903
136904
136683
136594
136662
136721
136762
136765
136533
136522
136550
136518
136554
136527
136336
136311
136324
135929
135953
135788
135979
136026
136056
135945
135944
135907
136059
136081
136073
136007
136020
136014
135884
135777
135855
135932
135965
135945
135809
135786
135809
135857
135897
135880
135723
135727
135731
135473
135492
135495
135617
135611
135588
135413
135406
135389
135474
135472
135443
135288
135306
135306
135013
134927
135003
135071
135119
135127
134872
134862
134884
134816
134848
134802
134599
134560
134578
134121
134152
133992
134081
134105
134199
134072
134073
134017
134270
134280
134266
134206
134217
134201
134095
133966
134058
134118
134158
134135
133948
133934
133968
134009
134052
134022
133894
133883
133887
133583
133637
133605
133711
133715
133698
133518
133516
133523
133524
133529
133505
133326
133336
133333
132988
132962
132986
133050
133105
133099
132924
132889
132880
132438
132499
132449
132206
132259
132304
131967
131839
131688
132052
132105
132128
132108
132093
132054
132013
131941
132023
132135
132197
132152
132096
132061
132068
131736
131880
131694
131944
131931
131919
131704
131701
131674
131769
131755
131729
131550
131559
131554
131223
131194
131213
131271
131312
131316
131089
131092
131080
130673
130649
130687
130643
130693
130654
130348
130317
130325
129726
129868
129968
129674
129518
129320
129368
129469
129539
129858
129885
129854
129853
129861
129851
129695
129660
129704
129774
129808
129767
129633
129625
129651
129259
129333
129278
129402
129404
129414
129255
129272
129234
128927
128781
128965
128867
128975
128861
128622
128577
128624
128098
128095
128074
127997
127967
128103
127375
127554
127586
126800
126502
126356
126913
127020
127057
127186
127170
127159
127042
127082
127056
127273
127292
127311
127152
127183
127159
126915
126767
126910
126982
127022
126945
126779
126762
126810
126233
126369
126254
126354
126339
126407
126034
126094
126039
125537
125415
125502
125199
125358
125268
124739
124550
124507
123193
123489
123810
124185
124129
124040
124346
124369
124393
124290
124279
124279
124518
124536
124484
124393
124409
124416
124148
124127
124118
123721
123628
123702
123813
123842
123767
123548
123521
123576
122846
122949
122858
122614
122542
122684
121674
121891
121982
120946
120596
120113
120266
120647
120705
121499
121506
121540
121645
121653
121642
121480
121422
121434
121605
121640
121584
121427
121419
121457
120982
120990
120959
120386
120335
120382
120366
120229
120264
119720
119721
119491
117853
118135
118556
117832
117541
117216
118412
118458
118516
118973
118983
119001
118987
118980
118981
118862
118863
118850
118419
118453
118459
118447
118435
118533
117837
117993
118013
116890
116664
116626
114455
115049
115574
115506
115050
115016
116638
116740
116468
117047
117074
117103
117014
117025
117017
116858
116756
116810
116176
116341
116260
115321
114912
114789
113312
113710
114158
115166
115129
115098
116147
116050
116023
116398
116371
116395
116277
116292
116365
116092
115876
115659
114752
115230