/*--------------------------------*- C++ -*----------------------------------*\
| =========                 |                                                 |
| \\      /  F ield         | OpenFOAM: The Open Source CFD Toolbox           |
|  \\    /   O peration     | Version:  v2006                                 |
|   \\  /    A nd           | Website:  www.openfoam.com                      |
|    \\/     M anipulation  |                                                 |
\*---------------------------------------------------------------------------*/
FoamFile
{
    version     2.0;
    format      ascii;
    class       volScalarField;
    location    "0.022";
    object      turbulenceProperties:L;
}
// * * * * * * * * * * * * * * * * * * * * * * * * * * * * * * * * * * * * * //

dimensions      [0 1 0 0 0 0 0];


internalField   nonuniform List<scalar> 
41981
(
1999.95
1999.95
1999.99
1999.99
1999.99
1999.99
1999.99
1999.98
1999.96
1999.94
1999.88
1999.78
1999.63
1999.43
1999.21
1998.97
1998.73
1998.51
1998.31
1998.13
1997.97
1997.83
1997.69
1997.57
1997.46
1997.35
1997.25
1997.15
1997.05
1996.96
1996.87
1996.78
1996.7
1996.61
1996.53
1996.45
1996.37
1996.29
1996.21
1996.14
1996.06
1995.98
1995.91
1995.83
1995.76
1995.68
1995.61
1995.54
1995.46
1995.39
1995.32
1995.25
1995.18
1995.11
1995.04
1994.97
1994.91
1994.84
1994.78
1994.72
1994.66
1994.6
1994.54
1994.48
1994.43
1994.37
1994.32
1994.27
1994.22
1994.17
1994.13
1994.09
1994.04
1994.01
1993.97
1993.93
1993.9
1993.87
1993.84
1993.81
1993.79
1993.77
1993.75
1993.73
1993.72
1993.71
1993.7
1993.69
1993.69
1993.68
1993.68
1993.69
1993.69
1993.7
1993.71
1993.72
1993.73
1993.74
1993.74
1993.74
1993.73
1993.7
1993.64
1993.53
1993.35
1993.07
1992.62
1991.93
1990.87
1989.26
1986.83
1983.2
1977.79
1969.79
1958.03
1940.9
1916.21
1881.1
1832.06
1765.12
1676.4
1563.12
1424.98
1265.35
1091.72
914.6
745.114
592.382
461.841
355.066
270.678
205.625
156.287
119.188
91.369
70.5348
55.1818
45.142
46.2601
39.6112
34.747
35.2187
44.3766
68.4212
112.104
204.407
64.0274
22.0669
8.33945
3.38963
1.5412
0.752143
0.36399
0.285598
0.34301
0.137769
0.0489974
0.0136312
0.00151507
0.000271828
1.97312e-05
1.83997e-05
0.000128186
0.000578724
0.000304753
8.20499e-05
1.70269e-05
1.60668e-05
7.6385e-05
0.00026242
0.000210218
6.86554e-05
1.56296e-05
1.52785e-05
6.85667e-05
0.000206609
0.000182611
6.36744e-05
1.49495e-05
1.47838e-05
6.51045e-05
0.000182533
0.000171576
6.19105e-05
1.46123e-05
1.43823e-05
6.27176e-05
0.000172297
0.000163733
6.10251e-05
1.42404e-05
1.41558e-05
6.18799e-05
0.000166138
0.000158829
6.04817e-05
1.40425e-05
1.3982e-05
6.11e-05
0.00016145
0.000154862
5.98298e-05
1.39147e-05
1.3881e-05
6.02871e-05
0.000157493
0.000151325
5.90956e-05
1.38311e-05
1.38065e-05
5.94919e-05
0.000153886
0.000148014
5.83339e-05
1.37641e-05
1.37436e-05
5.86865e-05
0.000150497
0.000144866
5.75414e-05
1.37049e-05
1.36864e-05
5.78954e-05
0.000147294
0.000141901
5.6802e-05
1.36504e-05
1.36333e-05
5.71578e-05
0.000144307
0.000139146
5.61091e-05
1.35992e-05
1.35831e-05
5.64667e-05
0.000141543
0.000136603
5.54626e-05
1.35507e-05
1.35354e-05
5.58223e-05
0.000138992
0.00013425
5.48615e-05
1.35044e-05
1.34898e-05
5.52234e-05
0.00013663
0.000132068
5.4303e-05
1.346e-05
1.3446e-05
5.46668e-05
0.000134439
0.000130044
5.37846e-05
1.34174e-05
1.34038e-05
5.41485e-05
0.000132407
0.000128166
5.32996e-05
1.33762e-05
1.33631e-05
5.36643e-05
0.000130521
0.00012642
5.28471e-05
1.33365e-05
1.33238e-05
5.32128e-05
0.000128764
0.000124788
5.24246e-05
1.32979e-05
1.32856e-05
5.27916e-05
0.000127119
0.000123259
5.20307e-05
1.32605e-05
1.32486e-05
5.23983e-05
0.000125578
0.000121823
5.16616e-05
1.32242e-05
1.32126e-05
5.20295e-05
0.000124129
0.00012047
5.13144e-05
1.31887e-05
1.31774e-05
5.16824e-05
0.000122761
0.00011919
5.09843e-05
1.31541e-05
1.31429e-05
5.1354e-05
0.000121466
0.000117977
5.06719e-05
1.31201e-05
1.31091e-05
5.10435e-05
0.000120239
0.000116826
5.03762e-05
1.30866e-05
1.30758e-05
5.07492e-05
0.000119074
0.000115733
5.00953e-05
1.30536e-05
1.30429e-05
5.04693e-05
0.000117966
0.000114693
4.98278e-05
1.3021e-05
1.30104e-05
5.02027e-05
0.000116912
0.000113702
4.95727e-05
1.29887e-05
1.29782e-05
4.99483e-05
0.000115907
0.000112757
4.93291e-05
1.29566e-05
1.29462e-05
4.97053e-05
0.000114948
0.000111854
4.90959e-05
1.29247e-05
1.29144e-05
4.94726e-05
0.000114031
0.000110989
4.88721e-05
1.2893e-05
1.28827e-05
4.92493e-05
0.000113152
0.000110158
4.8657e-05
1.28613e-05
1.2851e-05
4.90344e-05
0.000112307
0.000109359
4.84497e-05
1.28297e-05
1.28193e-05
4.88272e-05
0.000111494
0.000108588
4.82494e-05
1.2798e-05
1.27876e-05
4.8627e-05
0.000110709
0.000107843
4.80556e-05
1.27662e-05
1.27558e-05
4.84331e-05
0.00010995
0.000107123
4.78675e-05
1.27343e-05
1.27239e-05
4.8245e-05
0.000109216
0.000106425
4.76848e-05
1.27023e-05
1.26918e-05
4.8062e-05
0.000108504
0.000105748
4.75069e-05
1.26701e-05
1.26595e-05
4.78839e-05
0.000107813
0.00010509
4.73333e-05
1.26377e-05
1.2627e-05
4.77101e-05
0.000107142
0.000104451
4.71639e-05
1.26049e-05
1.25942e-05
4.75404e-05
0.00010649
0.00010383
4.69983e-05
1.25719e-05
1.2561e-05
4.73744e-05
0.000105855
0.000103226
4.68363e-05
1.25386e-05
1.25275e-05
4.7212e-05
0.000105238
0.000102637
4.66775e-05
1.25048e-05
1.24936e-05
4.70529e-05
0.000104636
0.000102064
4.65219e-05
1.24706e-05
1.24593e-05
4.68968e-05
0.00010405
0.000101505
4.6369e-05
1.2436e-05
1.24245e-05
4.67434e-05
0.000103479
0.00010096
4.62188e-05
1.24008e-05
1.23891e-05
4.65927e-05
0.000102921
0.000100428
4.60708e-05
1.23651e-05
1.23531e-05
4.64438e-05
0.000102377
9.99085e-05
4.59242e-05
1.23288e-05
1.23163e-05
4.62952e-05
0.000101846
9.94009e-05
4.57772e-05
1.22916e-05
1.22786e-05
4.61466e-05
0.000101327
9.89044e-05
4.56313e-05
1.22536e-05
1.224e-05
4.59992e-05
0.000100819
9.84183e-05
4.54867e-05
1.22148e-05
1.22005e-05
4.58534e-05
0.000100322
9.79417e-05
4.53438e-05
1.21751e-05
1.21603e-05
4.57094e-05
9.98338e-05
9.7474e-05
4.52026e-05
1.21346e-05
1.21191e-05
4.55672e-05
9.93548e-05
9.70147e-05
4.5063e-05
1.20932e-05
1.20771e-05
4.54267e-05
9.88843e-05
9.65635e-05
4.49249e-05
1.20508e-05
1.20341e-05
4.52878e-05
9.84219e-05
9.61198e-05
4.47883e-05
1.20074e-05
1.19901e-05
4.51503e-05
9.79672e-05
9.56834e-05
4.46532e-05
1.1963e-05
1.19451e-05
4.50141e-05
9.75198e-05
9.52537e-05
4.45189e-05
1.19175e-05
1.18989e-05
4.48788e-05
9.70792e-05
9.48302e-05
4.43852e-05
1.18708e-05
1.18516e-05
4.47442e-05
9.6645e-05
9.44131e-05
4.42523e-05
1.18228e-05
1.18029e-05
4.46104e-05
9.62172e-05
9.40021e-05
4.41198e-05
1.17735e-05
1.1753e-05
4.44771e-05
9.57953e-05
9.35963e-05
4.39875e-05
1.17229e-05
1.17017e-05
4.43441e-05
9.53788e-05
9.31954e-05
4.38553e-05
1.16708e-05
1.16489e-05
4.42113e-05
9.49671e-05
9.27988e-05
4.3723e-05
1.16172e-05
1.15946e-05
4.40785e-05
9.456e-05
9.24065e-05
4.35907e-05
1.1562e-05
1.15387e-05
4.39458e-05
9.41573e-05
9.20184e-05
4.34581e-05
1.15052e-05
1.14812e-05
4.3813e-05
9.3759e-05
9.16345e-05
4.33255e-05
1.14467e-05
1.1422e-05
4.36804e-05
9.33651e-05
9.12551e-05
4.31928e-05
1.13864e-05
1.1361e-05
4.35479e-05
9.2976e-05
9.08802e-05
4.30602e-05
1.13242e-05
1.12981e-05
4.34155e-05
9.25918e-05
9.05103e-05
4.29276e-05
1.12603e-05
1.12335e-05
4.32835e-05
9.22129e-05
9.01457e-05
4.27951e-05
1.11944e-05
1.11669e-05
4.31518e-05
9.18397e-05
8.97869e-05
4.2663e-05
1.11266e-05
1.10985e-05
4.30224e-05
9.14729e-05
8.94348e-05
4.25317e-05
1.10568e-05
1.10281e-05
4.28936e-05
9.11134e-05
8.90897e-05
4.24006e-05
1.0985e-05
1.09557e-05
4.27653e-05
9.07613e-05
8.87519e-05
4.22699e-05
1.09113e-05
1.08814e-05
4.2638e-05
9.04172e-05
8.84222e-05
4.21401e-05
1.08355e-05
1.08052e-05
4.25119e-05
9.0082e-05
8.81014e-05
4.20115e-05
1.07578e-05
1.0727e-05
4.23875e-05
8.97568e-05
8.77907e-05
4.18845e-05
1.06781e-05
1.0647e-05
4.22652e-05
8.94424e-05
8.74909e-05
4.17595e-05
1.05967e-05
1.05653e-05
4.21453e-05
8.91402e-05
8.72035e-05
4.1637e-05
1.05135e-05
1.0482e-05
4.20285e-05
8.88515e-05
8.69297e-05
4.15175e-05
1.04288e-05
1.03972e-05
4.19151e-05
8.8578e-05
8.66714e-05
4.14016e-05
1.03427e-05
1.03113e-05
4.18059e-05
8.83213e-05
8.64304e-05
4.129e-05
1.02555e-05
1.02244e-05
4.17014e-05
8.8084e-05
8.62096e-05
4.11834e-05
1.01676e-05
1.01369e-05
4.16027e-05
8.78689e-05
8.60119e-05
4.1083e-05
1.00793e-05
1.00493e-05
4.15107e-05
8.76793e-05
8.58402e-05
4.09899e-05
9.99108e-06
9.96202e-06
4.14268e-05
8.7518e-05
8.56973e-05
4.09056e-05
9.90358e-06
9.87534e-06
4.13519e-05
8.73877e-05
8.55853e-05
4.08315e-05
9.81746e-06
9.7901e-06
4.12866e-05
8.72904e-05
8.55053e-05
4.07663e-05
9.73324e-06
9.70674e-06
4.1229e-05
8.72275e-05
8.54586e-05
4.07088e-05
9.65111e-06
9.62579e-06
4.11798e-05
8.71999e-05
8.54464e-05
4.06613e-05
9.57193e-06
9.54808e-06
4.11408e-05
8.72088e-05
8.54697e-05
4.06248e-05
9.4965e-06
9.4744e-06
4.11126e-05
8.72549e-05
8.55287e-05
4.05993e-05
9.42557e-06
9.40547e-06
4.10949e-05
8.73381e-05
8.56229e-05
4.05845e-05
9.35982e-06
9.34194e-06
4.10869e-05
8.74574e-05
8.5751e-05
4.05793e-05
9.29985e-06
9.28436e-06
4.10874e-05
8.76108e-05
8.59103e-05
4.05826e-05
9.24616e-06
9.2332e-06
4.1095e-05
8.77955e-05
8.60984e-05
4.05931e-05
9.19917e-06
9.18889e-06
4.11096e-05
8.80185e-05
8.6318e-05
4.06149e-05
9.15917e-06
9.15288e-06
4.11161e-05
8.82623e-05
8.65517e-05
4.06232e-05
9.12752e-06
9.12451e-06
4.11102e-05
8.85146e-05
8.67909e-05
4.06207e-05
9.10276e-06
9.10278e-06
4.10942e-05
8.87702e-05
8.70323e-05
4.06107e-05
9.08522e-06
9.0884e-06
4.10694e-05
8.90243e-05
8.72721e-05
4.05941e-05
9.07337e-06
9.07994e-06
4.10367e-05
8.92708e-05
8.7505e-05
4.05716e-05
9.06765e-06
9.07747e-06
4.09972e-05
8.95065e-05
8.77286e-05
4.05432e-05
9.06807e-06
9.08101e-06
4.09525e-05
8.97381e-05
8.79386e-05
4.04967e-05
9.07518e-06
9.09001e-06
4.08879e-05
8.99477e-05
8.81199e-05
4.04332e-05
9.08687e-06
9.10337e-06
4.08134e-05
9.01282e-05
8.82748e-05
4.03623e-05
9.10255e-06
9.12047e-06
4.07375e-05
9.02808e-05
8.84042e-05
4.0289e-05
9.12157e-06
9.14101e-06
4.06564e-05
9.04042e-05
8.85056e-05
4.02104e-05
9.14372e-06
9.16499e-06
4.05712e-05
9.04997e-05
8.85823e-05
4.01297e-05
9.16927e-06
9.19184e-06
4.04825e-05
9.05682e-05
8.8633e-05
4.00446e-05
9.1972e-06
9.22012e-06
4.03905e-05
9.06072e-05
8.86523e-05
3.9955e-05
9.22603e-06
9.24877e-06
4.02941e-05
9.06119e-05
8.86385e-05
3.98628e-05
9.25515e-06
9.27774e-06
4.01967e-05
9.05839e-05
8.85981e-05
3.97721e-05
9.28456e-06
9.30699e-06
4.01024e-05
9.05326e-05
8.8539e-05
3.96856e-05
9.31414e-06
9.33622e-06
4.00122e-05
9.04626e-05
8.84629e-05
3.96036e-05
9.34353e-06
9.36508e-06
3.99264e-05
9.03745e-05
8.83702e-05
3.9519e-05
9.37182e-06
9.39231e-06
3.9841e-05
9.02739e-05
8.82618e-05
3.9433e-05
9.39853e-06
9.41808e-06
3.97579e-05
9.01628e-05
8.81397e-05
3.93522e-05
9.42382e-06
9.44247e-06
3.96798e-05
9.00385e-05
8.80074e-05
3.92767e-05
9.44774e-06
9.4655e-06
3.96069e-05
8.99042e-05
8.78677e-05
3.92073e-05
9.4703e-06
9.48719e-06
3.95398e-05
8.97627e-05
8.77233e-05
3.91445e-05
9.49151e-06
9.50755e-06
3.94791e-05
8.96167e-05
8.7577e-05
3.90878e-05
9.5114e-06
9.52661e-06
3.94258e-05
8.94693e-05
8.74319e-05
3.9037e-05
9.53016e-06
9.54464e-06
3.93781e-05
8.93227e-05
8.7289e-05
3.89924e-05
9.54792e-06
9.56163e-06
3.93362e-05
8.91786e-05
8.715e-05
3.89548e-05
9.56462e-06
9.57752e-06
3.93011e-05
8.90388e-05
8.70172e-05
3.89245e-05
9.58023e-06
9.59237e-06
3.92729e-05
8.89059e-05
8.68926e-05
3.89014e-05
9.59482e-06
9.60627e-06
3.92516e-05
8.87818e-05
8.67777e-05
3.88852e-05
9.60847e-06
9.6193e-06
3.92368e-05
8.86677e-05
8.66734e-05
3.88756e-05
9.62129e-06
9.63156e-06
3.92284e-05
8.85644e-05
8.65795e-05
3.88703e-05
9.63335e-06
9.64312e-06
3.92252e-05
8.84715e-05
8.64962e-05
3.88709e-05
9.64474e-06
9.65408e-06
3.92281e-05
8.83893e-05
8.64235e-05
3.8877e-05
9.65554e-06
9.66452e-06
3.92357e-05
8.83175e-05
8.63609e-05
3.88875e-05
9.66583e-06
9.67448e-06
3.92473e-05
8.82555e-05
8.63075e-05
3.89018e-05
9.67567e-06
9.68404e-06
3.92623e-05
8.82027e-05
8.62622e-05
3.89184e-05
9.6851e-06
9.69319e-06
3.92798e-05
8.81572e-05
8.62233e-05
3.89368e-05
9.69413e-06
9.70195e-06
3.92989e-05
8.81176e-05
8.61895e-05
3.89566e-05
9.70276e-06
9.71034e-06
3.93191e-05
8.80826e-05
8.61595e-05
3.89772e-05
9.71102e-06
9.71835e-06
3.93398e-05
8.8051e-05
8.61322e-05
3.89979e-05
9.71892e-06
9.726e-06
3.93603e-05
8.80213e-05
8.61061e-05
3.90182e-05
9.72645e-06
9.7333e-06
3.93802e-05
8.79924e-05
8.60799e-05
3.90374e-05
9.73361e-06
9.74021e-06
3.93987e-05
8.79628e-05
8.60525e-05
3.90551e-05
9.7404e-06
9.74674e-06
3.94155e-05
8.79315e-05
8.60228e-05
3.90708e-05
9.74679e-06
9.75286e-06
3.94302e-05
8.78976e-05
8.59901e-05
3.90844e-05
9.75277e-06
9.75858e-06
3.94426e-05
8.78603e-05
8.59539e-05
3.90957e-05
9.75834e-06
9.76395e-06
3.94526e-05
8.78192e-05
8.59138e-05
3.91045e-05
9.76355e-06
9.76896e-06
3.94601e-05
8.77742e-05
8.58697e-05
3.91109e-05
9.76841e-06
9.77365e-06
3.94652e-05
8.77252e-05
8.58216e-05
3.9115e-05
9.77296e-06
9.77805e-06
3.9468e-05
8.76723e-05
8.57699e-05
3.9117e-05
9.77725e-06
9.78225e-06
3.94688e-05
8.76162e-05
8.57156e-05
3.91175e-05
9.78138e-06
9.78638e-06
3.94683e-05
8.75582e-05
8.56606e-05
3.91175e-05
9.78551e-06
9.79073e-06
3.94681e-05
8.7502e-05
8.5612e-05
3.9122e-05
9.79005e-06
9.79671e-06
3.9477e-05
8.74676e-05
8.5441e-05
3.90591e-05
9.78977e-06
9.93354e-06
3.9857e-05
8.74902e-05
8.5667e-05
3.869e-05
9.89673e-06
9.95918e-06
3.9945e-05
8.88686e-05
8.70012e-05
3.96506e-05
1.01212e-05
1.07654e-05
4.21877e-05
9.39077e-05
0.000100332
4.45598e-05
1.144e-05
1.20571e-05
4.56581e-05
0.000101159
0.000105542
4.76577e-05
1.23692e-05
1.27536e-05
4.80793e-05
0.000107032
0.000282963
0.000557756
0.000883628
0.00116434
0.00160322
0.00199873
0.00239623
0.00275693
0.00310368
0.00342098
0.00371975
0.00399086
0.00423914
0.00445899
0.00465245
0.00481593
0.00495026
0.00505335
0.00512535
0.00516532
0.00517311
0.00514897
0.00509295
0.00500634
0.00488891
0.00474326
0.0045689
0.00436994
0.00414518
0.00390067
0.00363401
0.00335338
0.00305519
0.00275305
0.00243867
0.00213438
0.00182157
0.00157255
0.00130124
0.00098994
0.000748916
0.000645581
0.000419782
0.000246501
0.000117532
4.214e-05
1.73261e-05
3.23742e-06
3.14999e-06
1.72486e-05
4.22522e-05
3.95031e-05
1.64094e-05
3.02617e-06
2.90264e-06
1.63201e-05
3.96133e-05
3.93226e-05
1.61414e-05
2.91978e-06
2.90482e-06
1.61146e-05
3.91121e-05
3.86047e-05
1.59915e-05
2.856e-06
2.75638e-06
1.57876e-05
3.84884e-05
3.86497e-05
1.58287e-05
2.75991e-06
2.75116e-06
1.55999e-05
3.82702e-05
3.8445e-05
1.56786e-05
2.76366e-06
2.76073e-06
1.56754e-05
3.84491e-05
3.84941e-05
1.56901e-05
2.76373e-06
2.76578e-06
1.56935e-05
3.85104e-05
3.85594e-05
1.57101e-05
2.76864e-06
2.77084e-06
1.57134e-05
3.85771e-05
3.86271e-05
1.57303e-05
2.77382e-06
2.77618e-06
1.57346e-05
3.86458e-05
3.86976e-05
1.57523e-05
2.77924e-06
2.78162e-06
1.57565e-05
3.8717e-05
3.87694e-05
1.57742e-05
2.78477e-06
2.78725e-06
1.57791e-05
3.87895e-05
3.88433e-05
1.57976e-05
2.79046e-06
2.79295e-06
1.58022e-05
3.88638e-05
3.8918e-05
1.58205e-05
2.79622e-06
2.79881e-06
1.58258e-05
3.89391e-05
3.89947e-05
1.58448e-05
2.80213e-06
2.80472e-06
1.58498e-05
3.90162e-05
3.90722e-05
1.58687e-05
2.8081e-06
2.81077e-06
1.58742e-05
3.90942e-05
3.91515e-05
1.58938e-05
2.81419e-06
2.81687e-06
1.58991e-05
3.91739e-05
3.92317e-05
1.59186e-05
2.82036e-06
2.82311e-06
1.59245e-05
3.92546e-05
3.93138e-05
1.59446e-05
2.82664e-06
2.8294e-06
1.59502e-05
3.9337e-05
3.93967e-05
1.59703e-05
2.83299e-06
2.83583e-06
1.59765e-05
3.94204e-05
3.94814e-05
1.59972e-05
2.83945e-06
2.84229e-06
1.60031e-05
3.95055e-05
3.9567e-05
1.60238e-05
2.84598e-06
2.8489e-06
1.60303e-05
3.95915e-05
3.96543e-05
1.60515e-05
2.85263e-06
2.85555e-06
1.60578e-05
3.96791e-05
3.97424e-05
1.6079e-05
2.85934e-06
2.86233e-06
1.60859e-05
3.97677e-05
3.98323e-05
1.61077e-05
2.86616e-06
2.86915e-06
1.61143e-05
3.98578e-05
3.99229e-05
1.61362e-05
2.87304e-06
2.87611e-06
1.61433e-05
3.99488e-05
4.00152e-05
1.61658e-05
2.88004e-06
2.88312e-06
1.61726e-05
4.00414e-05
4.01082e-05
1.61951e-05
2.88711e-06
2.89026e-06
1.62025e-05
4.01348e-05
4.0203e-05
1.62257e-05
2.89429e-06
2.89745e-06
1.62328e-05
4.02297e-05
4.02985e-05
1.6256e-05
2.90156e-06
2.9048e-06
1.62636e-05
4.03256e-05
4.03957e-05
1.62875e-05
2.90895e-06
2.91221e-06
1.62948e-05
4.0423e-05
4.04936e-05
1.63188e-05
2.91644e-06
2.91979e-06
1.63267e-05
4.05213e-05
4.05933e-05
1.63513e-05
2.92407e-06
2.92743e-06
1.63591e-05
4.06212e-05
4.06938e-05
1.63838e-05
2.9318e-06
2.93525e-06
1.6392e-05
4.07219e-05
4.07958e-05
1.64174e-05
2.93967e-06
2.94314e-06
1.64254e-05
4.08241e-05
4.08986e-05
1.64509e-05
2.94764e-06
2.9512e-06
1.64594e-05
4.0927e-05
4.10028e-05
1.64856e-05
2.95577e-06
2.95936e-06
1.64939e-05
4.10314e-05
4.11077e-05
1.65203e-05
2.96402e-06
2.9677e-06
1.65291e-05
4.11365e-05
4.12142e-05
1.65562e-05
2.97243e-06
2.97614e-06
1.65648e-05
4.12427e-05
4.13209e-05
1.65921e-05
2.98096e-06
2.98476e-06
1.66011e-05
4.13495e-05
4.14291e-05
1.66291e-05
2.98965e-06
2.99349e-06
1.66378e-05
4.14567e-05
4.1537e-05
1.66661e-05
2.99849e-06
3.00242e-06
1.66752e-05
4.15646e-05
4.16463e-05
1.67043e-05
3.0075e-06
3.01148e-06
1.67131e-05
4.16728e-05
4.17551e-05
1.67426e-05
3.01668e-06
3.02076e-06
1.67517e-05
4.17814e-05
4.1865e-05
1.6782e-05
3.02605e-06
3.03018e-06
1.67908e-05
4.18899e-05
4.1974e-05
1.68214e-05
3.03558e-06
3.03981e-06
1.68305e-05
4.19983e-05
4.20834e-05
1.68619e-05
3.04532e-06
3.0496e-06
1.68707e-05
4.21059e-05
4.21914e-05
1.69024e-05
3.05523e-06
3.05962e-06
1.69113e-05
4.22129e-05
4.22991e-05
1.69438e-05
3.06536e-06
3.0698e-06
1.69522e-05
4.23182e-05
4.24044e-05
1.69851e-05
3.07567e-06
3.08023e-06
1.69935e-05
4.24218e-05
4.25083e-05
1.70273e-05
3.08622e-06
3.09085e-06
1.7035e-05
4.25226e-05
4.26086e-05
1.70692e-05
3.09698e-06
3.10172e-06
1.70768e-05
4.26203e-05
4.27058e-05
1.71118e-05
3.10799e-06
3.11281e-06
1.71186e-05
4.27134e-05
4.27977e-05
1.71542e-05
3.11925e-06
3.1242e-06
1.71609e-05
4.28016e-05
4.28844e-05
1.71977e-05
3.1308e-06
3.13582e-06
1.72034e-05
4.28829e-05
4.29628e-05
1.7241e-05
3.14259e-06
3.1477e-06
1.72462e-05
4.29559e-05
4.30319e-05
1.72853e-05
3.15461e-06
3.15971e-06
1.72898e-05
4.30173e-05
4.30865e-05
1.73288e-05
3.16667e-06
3.17171e-06
1.73326e-05
4.30633e-05
4.31229e-05
1.73717e-05
3.17859e-06
3.18334e-06
1.73736e-05
4.30888e-05
4.31317e-05
1.741e-05
3.18987e-06
3.1941e-06
1.74086e-05
4.3085e-05
4.3105e-05
1.74392e-05
3.19986e-06
3.20316e-06
1.74313e-05
4.30409e-05
4.30283e-05
1.74484e-05
3.20748e-06
3.20955e-06
1.74294e-05
4.29427e-05
4.28982e-05
1.74226e-05
3.21121e-06
3.21149e-06
1.73835e-05
4.27726e-05
4.27016e-05
1.73394e-05
3.21104e-06
3.20846e-06
1.7271e-05
4.25222e-05
4.24181e-05
1.7188e-05
3.20421e-06
3.19652e-06
1.70633e-05
4.21876e-05
4.20406e-05
1.69415e-05
3.18977e-06
3.18116e-06
1.67714e-05
4.17632e-05
4.15877e-05
1.66035e-05
3.17674e-06
3.17423e-06
1.63923e-05
4.12931e-05
4.11186e-05
1.62022e-05
3.17424e-06
3.17777e-06
1.59659e-05
4.08546e-05
4.07073e-05
1.57623e-05
3.18843e-06
3.20401e-06
1.55203e-05
4.04976e-05
4.04906e-05
1.53275e-05
3.23088e-06
3.26791e-06
1.51266e-05
4.04532e-05
4.06619e-05
1.5001e-05
3.32206e-06
3.38396e-06
1.49452e-05
4.09184e-05
4.15471e-05
1.51965e-05
3.50052e-06
3.61544e-06
1.54016e-05
4.21166e-05
4.25059e-05
1.51804e-05
3.65752e-06
3.66642e-06
1.50786e-05
4.24434e-05
4.35409e-05
1.49048e-05
3.72568e-06
3.86482e-06
1.56308e-05
4.44145e-05
4.49657e-05
1.53834e-05
4.00462e-06
4.16339e-06
1.60769e-05
4.60563e-05
4.73211e-05
1.62213e-05
4.31422e-06
4.53717e-06
1.71359e-05
4.84552e-05
4.96202e-05
1.7525e-05
4.77361e-06
4.95122e-06
1.8418e-05
4.98514e-05
5.09727e-05
1.87222e-05
5.03213e-06
5.26817e-06
1.91259e-05
5.11726e-05
5.27042e-05
2.1964e-05
5.62323e-06
5.98877e-06
2.2605e-05
5.27309e-05
5.20895e-05
2.43434e-05
3.77492e-06
1.50337e-06
6.0261e-06
1.61985e-05
3.73575e-05
1.21457e-05
2.2208e-06
2.35224e-06
1.06692e-05
3.26512e-05
3.25513e-05
1.03242e-05
2.45808e-06
2.64772e-06
1.08561e-05
3.46238e-05
3.38905e-05
1.08481e-05
2.84568e-06
3.00462e-06
1.16333e-05
3.61573e-05
3.5871e-05
1.14113e-05
3.25068e-06
3.49334e-06
1.31496e-05
3.95746e-05
3.84554e-05
1.26698e-05
3.73931e-06
4.09263e-06
1.45054e-05
4.14868e-05
4.13378e-05
1.47219e-05
4.3672e-06
4.74051e-06
1.67577e-05
4.41874e-05
4.49244e-05
1.83244e-05
5.37826e-06
3.53734e-06
2.20729e-05
4.72734e-05
1.47531e-05
5.35913e-06
1.74387e-06
2.70947e-06
1.26582e-05
3.84411e-05
3.62568e-05
1.14838e-05
3.23076e-06
3.70984e-06
1.42619e-05
4.39013e-05
4.3759e-05
1.46145e-05
4.00947e-06
4.3461e-06
1.58936e-05
4.82322e-05
4.89068e-05
1.70613e-05
4.7766e-06
5.11564e-06
1.90869e-05
5.18375e-05
5.29536e-05
1.95717e-05
5.54107e-06
6.07047e-06
2.30782e-05
5.51955e-05
5.32957e-05
2.38607e-05
3.91064e-06
1.91403e-06
5.72911e-06
1.59971e-05
4.11451e-05
1.34937e-05
2.88819e-06
3.20854e-06
1.18895e-05
3.75235e-05
3.98924e-05
1.23088e-05
3.59212e-06
4.01769e-06
1.50131e-05
4.33783e-05
4.32571e-05
1.51565e-05
4.37083e-06
4.90887e-06
1.77764e-05
4.71338e-05
4.83182e-05
2.00164e-05
5.61291e-06
3.73725e-06
2.37259e-05
5.03756e-05
1.56103e-05
5.62879e-06
1.93321e-06
3.09157e-06
1.3321e-05
4.29382e-05
4.24123e-05
1.34975e-05
3.81758e-06
4.44931e-06
1.7025e-05
5.19301e-05
5.34336e-05
1.9049e-05
5.067e-06
5.73982e-06
2.1509e-05
5.79388e-05
5.91331e-05
2.45196e-05
6.44782e-06
4.24965e-06
2.6212e-05
5.73415e-05
1.7832e-05
6.31151e-06
2.20134e-06
3.36701e-06
1.55233e-05
4.68083e-05
4.63073e-05
1.50805e-05
4.07857e-06
4.69441e-06
1.87135e-05
5.19869e-05
5.19829e-05
1.99818e-05
5.47199e-06
3.73978e-06
2.46206e-05
5.40342e-05
1.68454e-05
5.67964e-06
1.94452e-06
3.15235e-06
1.45066e-05
4.73906e-05
4.78815e-05
1.52308e-05
4.00657e-06
4.78672e-06
2.03911e-05
5.95414e-05
6.08541e-05
2.17796e-05
5.59334e-06
6.54793e-06
2.75443e-05
6.66692e-05
6.28382e-05
2.88183e-05
4.46303e-06
2.29447e-06
6.9471e-06
2.03092e-05
5.39696e-05
1.7748e-05
3.57046e-06
4.56945e-06
1.76604e-05
5.31456e-05
6.25445e-05
2.53928e-05
5.73094e-06
4.01112e-06
2.70933e-05
6.17523e-05
2.09439e-05
6.60749e-06
2.15312e-06
3.68234e-06
1.89502e-05
5.90287e-05
6.27302e-05
2.22346e-05
4.97477e-06
6.28855e-06
3.01886e-05
7.54059e-05
7.10888e-05
3.17698e-05
4.4381e-06
2.3914e-06
7.91676e-06
2.52312e-05
6.58151e-05
2.40926e-05
4.1126e-06
5.53089e-06
2.54833e-05
6.71968e-05
7.03257e-05
3.08254e-05
3.97888e-06
2.14981e-06
7.69142e-06
2.56492e-05
6.96282e-05
2.4245e-05
4.12663e-06
5.88743e-06
2.91836e-05
7.69545e-05
8.29176e-05
3.66226e-05
4.48746e-06
2.49085e-06
9.86376e-06
3.27514e-05
8.37088e-05
3.21062e-05
4.85015e-06
3.85806e-06
3.39848e-05
8.26015e-05
3.48613e-05
1.02106e-05
2.2714e-06
4.83226e-06
3.48576e-05
9.39087e-05
9.65271e-05
3.75347e-05
4.02273e-06
2.35267e-06
1.3721e-05
4.57837e-05
0.000112431
4.26448e-05
5.66887e-06
5.14424e-06
4.63709e-05
0.000120891
7.87182e-05
2.75467e-05
3.19974e-06
4.15017e-06
3.93999e-05
0.000104857
0.000113516
4.35907e-05
4.69035e-06
6.24486e-06
5.03549e-05
0.000130349
0.00010929
4.01756e-05
4.60006e-06
3.81401e-06
3.26082e-05
8.98933e-05
9.12688e-05
3.27016e-05
3.9313e-06
4.84187e-06
3.66662e-05
0.000103653
0.000174515
7.49205e-05
7.11234e-06
5.59542e-06
1.46201e-05
3.9209e-05
8.01185e-05
3.98528e-05
5.156e-06
4.68856e-06
1.15926e-05
2.71422e-05
5.62188e-05
3.25452e-05
4.86197e-06
4.59276e-06
1.03365e-05
2.35699e-05
4.79476e-05
2.77409e-05
4.91316e-06
4.76642e-06
1.10897e-05
2.34412e-05
4.55781e-05
2.84315e-05
5.15216e-06
5.2061e-06
1.10197e-05
2.37118e-05
4.72917e-05
2.61079e-05
6.16861e-06
7.04271e-06
2.11142e-05
4.25536e-05
1.75441e-05
7.84844e-06
3.93278e-06
4.7651e-06
2.0054e-05
3.75e-05
3.49206e-05
1.8293e-05
5.73812e-06
3.21424e-06
6.23487e-06
1.4238e-05
3.00338e-05
2.15716e-05
3.80146e-06
4.27347e-06
8.07282e-06
1.70102e-05
3.66015e-05
1.98361e-05
5.161e-06
6.34651e-06
1.76083e-05
3.35065e-05
1.52155e-05
7.25992e-06
3.83171e-06
4.82532e-06
1.86359e-05
3.25138e-05
3.06664e-05
1.69968e-05
5.96871e-06
3.4695e-06
6.52931e-06
1.40574e-05
3.01733e-05
1.68465e-05
4.45153e-06
5.84481e-06
1.56753e-05
2.87868e-05
1.35619e-05
6.51545e-06
3.5382e-06
4.43844e-06
1.67379e-05
2.89591e-05
2.75756e-05
1.52886e-05
5.68823e-06
3.48073e-06
6.341e-06
1.30686e-05
2.74766e-05
1.58705e-05
4.41905e-06
5.69167e-06
1.47307e-05
2.65564e-05
1.27868e-05
6.25638e-06
3.45788e-06
4.41188e-06
1.56562e-05
2.6974e-05
2.60602e-05
1.46487e-05
5.72452e-06
3.52344e-06
6.26944e-06
1.27431e-05
2.67774e-05
1.59693e-05
4.65794e-06
6.45594e-06
1.40993e-05
2.54005e-05
2.30952e-05
1.19371e-05
4.66307e-06
2.7465e-06
4.91367e-06
1.0536e-05
2.14824e-05
1.21965e-05
3.47593e-06
4.82027e-06
1.21579e-05
2.15997e-05
1.04927e-05
5.22301e-06
2.98462e-06
3.6088e-06
1.25353e-05
2.16316e-05
2.14628e-05
1.21502e-05
4.84192e-06
2.9699e-06
5.24416e-06
1.05045e-05
2.10202e-05
1.2521e-05
3.69982e-06
4.93089e-06
1.19861e-05
2.07398e-05
1.02442e-05
5.11018e-06
2.91712e-06
3.66324e-06
1.22077e-05
2.08309e-05
2.07221e-05
1.18679e-05
4.98076e-06
3.04762e-06
5.30684e-06
1.02251e-05
2.00002e-05
1.21841e-05
3.77292e-06
5.06844e-06
1.16053e-05
1.99306e-05
9.96452e-06
5.3035e-06
3.08679e-06
3.77109e-06
1.21471e-05
2.0022e-05
1.98434e-05
1.16117e-05
5.06861e-06
3.07256e-06
5.35008e-06
9.9015e-06
1.93284e-05
1.18952e-05
3.83716e-06
5.16064e-06
1.11583e-05
1.92009e-05
9.90787e-06
5.43566e-06
3.14732e-06
3.90529e-06
1.20288e-05
1.93533e-05
1.93475e-05
1.12276e-05
5.16639e-06
3.14453e-06
5.52946e-06
9.8257e-06
1.89675e-05
1.18839e-05
3.9184e-06
5.15518e-06
1.09853e-05
1.85946e-05
9.62889e-06
5.44505e-06
3.16443e-06
3.86724e-06
1.1703e-05
1.88035e-05
1.84048e-05
1.10264e-05
5.13467e-06
3.1666e-06
5.51346e-06
9.60007e-06
1.85901e-05
1.16778e-05
3.94399e-06
5.26441e-06
1.07708e-05
1.79362e-05
9.49268e-06
5.5371e-06
3.23002e-06
3.95502e-06
1.16397e-05
1.84288e-05
1.75666e-05
1.07007e-05
5.27114e-06
3.23247e-06
5.5914e-06
9.44631e-06
1.81233e-05
1.14748e-05
3.93264e-06
5.17696e-06
1.05746e-05
1.73014e-05
9.12142e-06
5.37211e-06
3.09814e-06
3.82935e-06
1.10139e-05
1.77791e-05
1.69584e-05
1.0388e-05
5.18743e-06
3.18172e-06
5.44076e-06
8.99217e-06
1.71429e-05
1.08483e-05
3.81485e-06
5.08056e-06
9.90325e-06
1.62964e-05
8.72208e-06
5.34493e-06
3.0577e-06
3.73935e-06
1.06471e-05
1.6805e-05
1.60161e-05
9.92102e-06
5.02425e-06
3.10322e-06
5.3266e-06
8.63182e-06
1.62659e-05
1.03682e-05
3.71209e-06
4.89309e-06
9.51145e-06
1.55569e-05
8.17911e-06
5.14595e-06
2.94208e-06
3.64082e-06
9.98649e-06
1.55523e-05
1.47798e-05
9.06057e-06
4.84935e-06
2.74368e-06
4.72292e-06
7.76878e-06
1.3148e-05
1.11521e-05
2.97236e-06
3.59755e-06
5.409e-06
8.51767e-06
1.6459e-05
1.03978e-05
4.2603e-06
5.42414e-06
9.47151e-06
1.54837e-05
8.53596e-06
5.53193e-06
3.21268e-06
3.94501e-06
1.03878e-05
1.58274e-05
1.5061e-05
9.48184e-06
5.10887e-06
3.0391e-06
5.25958e-06
8.21491e-06
1.52673e-05
9.75654e-06
3.71598e-06
4.98031e-06
9.09388e-06
1.46708e-05
7.96251e-06
5.169e-06
2.97979e-06
3.58543e-06
9.55082e-06
1.48273e-05
1.41822e-05
8.8631e-06
4.76373e-06
2.7496e-06
4.68653e-06
7.429e-06
1.27265e-05
1.04376e-05
3.00606e-06
3.7724e-06
5.5146e-06
8.38909e-06
1.60158e-05
1.02051e-05
4.38871e-06
5.61273e-06
9.41081e-06
1.50509e-05
8.43206e-06
5.61838e-06
3.4075e-06
3.94558e-06
1.02082e-05
1.55271e-05
1.49257e-05
9.46089e-06
5.11722e-06
3.05711e-06
5.28059e-06
8.07238e-06
1.48392e-05
9.76569e-06
3.68337e-06
4.81418e-06
8.85299e-06
1.40496e-05
7.4802e-06
4.79637e-06
2.77429e-06
3.05122e-06
1.06592e-05
1.24922e-05
8.20149e-06
5.45893e-06
3.68419e-06
4.28203e-06
9.94126e-06
1.53711e-05
1.43919e-05
9.08139e-06
5.43148e-06
3.1031e-06
5.29949e-06
7.96568e-06
1.42792e-05
9.50701e-06
3.7305e-06
4.8985e-06
8.73265e-06
1.3605e-05
7.34004e-06
4.80026e-06
2.7829e-06
3.03274e-06
1.04294e-05
1.20743e-05
8.06365e-06
5.4685e-06
3.71742e-06
4.31944e-06
9.75205e-06
1.50988e-05
1.42067e-05
9.05038e-06
5.48838e-06
3.20673e-06
5.40921e-06
7.96875e-06
1.42563e-05
9.51265e-06
3.762e-06
4.95495e-06
8.75176e-06
1.35731e-05
7.30206e-06
4.83008e-06
2.87483e-06
3.10222e-06
1.01557e-05
1.22588e-05
8.14497e-06
5.51819e-06
3.76742e-06
4.19278e-06
9.82446e-06
1.48728e-05
1.38975e-05
8.94584e-06
5.28455e-06
2.95343e-06
4.95448e-06
7.58388e-06
1.21951e-05
1.06931e-05
3.23604e-06
3.96867e-06
5.75714e-06
8.2551e-06
1.51376e-05
9.83328e-06
4.40302e-06
5.53958e-06
9.02185e-06
1.40451e-05
7.78972e-06
5.25157e-06
3.1608e-06
3.37737e-06
1.07543e-05
1.26566e-05
8.61361e-06
5.94842e-06
4.07588e-06
4.71255e-06
1.01863e-05
1.54337e-05
1.44506e-05
9.3766e-06
5.91838e-06
3.35715e-06
5.66517e-06
8.26553e-06
1.42916e-05
9.69379e-06
3.86978e-06
5.03487e-06
8.86718e-06
1.36681e-05
7.44031e-06
4.9256e-06
2.92838e-06
3.15279e-06
1.02961e-05
1.21277e-05
8.21503e-06
5.58385e-06
3.8086e-06
4.33533e-06
9.57546e-06
1.46472e-05
1.37156e-05
8.83022e-06
5.42082e-06
3.05107e-06
5.07586e-06
7.62796e-06
1.20661e-05
1.06319e-05
3.27029e-06
3.94731e-06
5.76117e-06
8.23747e-06
1.45687e-05
9.62704e-06
4.43405e-06
5.4762e-06
8.79836e-06
1.35654e-05
7.63068e-06
5.00517e-06
3.00096e-06
3.18835e-06
1.05007e-05
1.21896e-05
8.25618e-06
5.69251e-06
3.86571e-06
4.35482e-06
9.53758e-06
1.4483e-05
1.35467e-05
8.83387e-06
5.45388e-06
3.07863e-06
5.13141e-06
7.59964e-06
1.1845e-05
1.06235e-05
3.32927e-06
3.96522e-06
5.8693e-06
8.18858e-06
1.43137e-05
9.46131e-06
4.38241e-06
5.417e-06
8.6762e-06
1.33643e-05
7.51993e-06
5.14905e-06
3.05407e-06
3.2805e-06
1.02341e-05
1.1958e-05
8.19734e-06
5.70134e-06
3.91476e-06
4.39438e-06
9.613e-06
1.42171e-05
1.32592e-05
8.85911e-06
5.5247e-06
3.13033e-06
5.14312e-06
7.53538e-06
1.14168e-05
1.06536e-05
3.26086e-06
3.80261e-06
5.8512e-06
8.03218e-06
1.28924e-05
1.00486e-05
3.84863e-06
4.51574e-06
6.26903e-06
8.84695e-06
1.49431e-05
9.83943e-06
4.88427e-06
5.95898e-06
9.02461e-06
1.38795e-05
7.9221e-06
5.4248e-06
3.2832e-06
3.55092e-06
1.09472e-05
1.22025e-05
8.51981e-06
6.14887e-06
4.22756e-06
4.67001e-06
9.8475e-06
1.46046e-05
1.35782e-05
9.04797e-06
5.81023e-06
3.2573e-06
5.35878e-06
7.90184e-06
1.18299e-05
1.09488e-05
3.35778e-06
3.94745e-06
6.10471e-06
8.40837e-06
1.31921e-05
1.01999e-05
4.01099e-06
4.67687e-06
6.54056e-06
9.13756e-06
1.51796e-05
1.00029e-05
4.91547e-06
5.91394e-06
9.18025e-06
1.40848e-05
8.10555e-06
5.5451e-06
3.37491e-06
3.5838e-06
1.0905e-05
1.25033e-05
8.74265e-06
6.18584e-06
4.19654e-06
4.6935e-06
9.98983e-06
1.46958e-05
1.38049e-05
9.1229e-06
5.71405e-06
3.21144e-06
5.36618e-06