/*--------------------------------*- C++ -*----------------------------------*\
| =========                 |                                                 |
| \\      /  F ield         | OpenFOAM: The Open Source CFD Toolbox           |
|  \\    /   O peration     | Version:  v2006                                 |
|   \\  /    A nd           | Website:  www.openfoam.com                      |
|    \\/     M anipulation  |                                                 |
\*---------------------------------------------------------------------------*/
FoamFile
{
    version     2.0;
    format      ascii;
    class       volScalarField;
    location    "0.075";
    object      nut;
}
// * * * * * * * * * * * * * * * * * * * * * * * * * * * * * * * * * * * * * //

dimensions      [0 2 -1 0 0 0 0];


internalField   nonuniform List<scalar> 
38932
(
0.0606738
0.0606751
0.0606914
0.0606897
0.0606856
0.0606787
0.0606683
0.0606549
0.0606379
0.0606181
0.0605951
0.0605692
0.0605404
0.0605087
0.060474
0.0604363
0.0603957
0.0603522
0.0603058
0.0602565
0.0602043
0.0601492
0.0600914
0.0600307
0.0599673
0.0599011
0.0598322
0.0597606
0.0596863
0.0596094
0.0595299
0.0594479
0.0593633
0.0592762
0.0591866
0.0590947
0.0590003
0.0589037
0.0588047
0.0587035
0.0586001
0.0584945
0.0583869
0.0582772
0.0581654
0.0580518
0.0579362
0.0578188
0.0576996
0.0575787
0.0574561
0.0573319
0.0572062
0.057079
0.0569503
0.0568204
0.0566891
0.0565566
0.056423
0.0562883
0.0561527
0.0560161
0.0558786
0.0557404
0.0556015
0.055462
0.055322
0.0551815
0.0550406
0.0548995
0.0547581
0.0546167
0.0544752
0.0543338
0.0541925
0.0540514
0.0539107
0.0537704
0.0536307
0.0534915
0.053353
0.0532153
0.0530785
0.0529426
0.0528079
0.0526742
0.0525419
0.0524108
0.0522812
0.0521532
0.0520267
0.051902
0.051779
0.051658
0.0515389
0.0514219
0.0513071
0.0511945
0.0510842
0.0509763
0.0508709
0.0507681
0.0506679
0.0505704
0.0504756
0.0503837
0.0502947
0.0502086
0.0501256
0.0500456
0.0499687
0.049895
0.0498245
0.0497572
0.0496932
0.0496325
0.0495751
0.0495212
0.0494708
0.049424
0.0493805
0.0493395
0.0492971
0.0492369
0.049159
0.0489666
0.0483711
0.0458499
0.0372652
0.0132529
0.00491984
0.000178905
0.000189018
0.00205055
0.00547087
0.00380141
0.00138073
0.000186433
0.000181472
0.0010846
0.00297261
0.00255694
0.000915746
0.000176222
0.000169523
0.00081493
0.00226797
0.00209278
0.000758013
0.000164073
0.000158628
0.000710669
0.00198123
0.00190766
0.00068628
0.000154233
0.00015078
0.000668306
0.00185271
0.00181007
0.000654618
0.00014791
0.000145451
0.000643658
0.00177448
0.00174324
0.000634387
0.000143344
0.000141518
0.000626192
0.00171467
0.00168771
0.000618651
0.000139916
0.000138494
0.000611516
0.00166189
0.00163692
0.000604644
0.000137213
0.000136046
0.000597961
0.00161269
0.00158916
0.00059144
0.000134969
0.000133963
0.000585071
0.00156631
0.00154414
0.000578858
0.000133016
0.000132116
0.000572807
0.00152266
0.00150187
0.000566925
0.000131255
0.000130425
0.00056122
0.00148177
0.00146235
0.000555694
0.000129621
0.00012884
0.000550349
0.00144359
0.00142548
0.000545185
0.000128076
0.000127328
0.000540197
0.00140799
0.00139109
0.000535382
0.000126593
0.000125869
0.000530734
0.00137475
0.00135896
0.000526247
0.000125153
0.000124444
0.000521915
0.00134368
0.00132889
0.000517731
0.00012374
0.00012304
0.00051369
0.00131456
0.00130067
0.000509783
0.000122343
0.000121647
0.000506006
0.00128719
0.00127412
0.000502353
0.000120951
0.000120254
0.000498818
0.00126142
0.00124909
0.000495397
0.000119555
0.000118853
0.000492083
0.00123709
0.00122543
0.000488874
0.000118146
0.000117434
0.000485765
0.00121408
0.00120303
0.000482752
0.000116716
0.000115991
0.000479832
0.00119227
0.00118179
0.000477001
0.000115257
0.000114514
0.000474257
0.00117158
0.00116162
0.000471598
0.00011376
0.000112995
0.000469021
0.00115191
0.00114245
0.000466524
0.000112218
0.000111427
0.000464106
0.00113321
0.0011242
0.000461765
0.000110622
0.000109801
0.000459501
0.00111542
0.00110685
0.000457314
0.000108964
0.000108109
0.000455203
0.0010985
0.00109036
0.000453167
0.000107235
0.000106341
0.000451209
0.00108243
0.0010747
0.000449328
0.000105425
0.000104488
0.000447526
0.00106719
0.00105988
0.000445804
0.000103526
0.000102539
0.000444166
0.00105277
0.00104588
0.000442613
0.000101525
0.000100483
0.00044115
0.00103921
0.00103276
0.00043978
9.94115e-05
9.8309e-05
0.00043851
0.00102653
0.00102054
0.000437344
9.71737e-05
9.60042e-05
0.000436293
0.0010148
0.00100932
0.000435362
9.47989e-05
9.35562e-05
0.000434566
0.00100412
0.000999219
0.000433917
9.22746e-05
9.09528e-05
0.000433427
0.000994639
0.000990416
0.000433114
8.9589e-05
8.81826e-05
0.000433005
0.00098659
0.000983184
0.000433114
8.67319e-05
8.5237e-05
0.000433486
0.000980271
0.000977864
0.000434133
8.36967e-05
8.21124e-05
0.00043512
0.000976088
0.000974943
0.000436466
8.04838e-05
7.88142e-05
0.000438256
0.000974615
0.000975087
0.000440525
7.71056e-05
7.53635e-05
0.000443363
0.000976581
0.000979207
0.000446849
7.35934e-05
7.18061e-05
0.000451099
0.000983146
0.000988427
0.000456157
7.00104e-05
6.82214e-05
0.000462171
0.000995438
0.00100429
0.000469233
6.64537e-05
6.47291e-05
0.000477402
0.00101503
0.00102729
0.000486465
6.30469e-05
6.14279e-05
0.000496615
0.0010419
0.00105837
0.000507558
5.98671e-05
5.83555e-05
0.000519089
0.00107691
0.00109717
0.000531026
5.68904e-05
5.5342e-05
0.000541509
0.00111867
0.00114129
0.000549345
5.43895e-05
5.40807e-05
0.000551152
0.00116362
0.00118745
0.000550975
5.34413e-05
5.23087e-05
0.000546708
0.00120584
0.00121244
0.000535615
5.05722e-05
4.82628e-05
0.000515592
0.00120196
0.001174
0.000487648
4.54562e-05
4.227e-05
0.00045134
0.00112599
0.00105597
0.000407174
3.89907e-05
3.59446e-05
0.000357822
0.000964301
0.000843198
0.000301597
3.32845e-05
3.17625e-05
0.000239495
0.000697207
0.000589751
0.000202902
3.12966e-05
3.12994e-05
0.000186202
0.000531602
0.000505511
0.000177642
3.16537e-05
3.20523e-05
0.000173456
0.000494676
0.000492084
0.000173353
3.25236e-05
3.2963e-05
0.000175783
0.000497371
0.000508151
0.00017971
3.3342e-05
3.36567e-05
0.000184035
0.000519961
0.000532287
0.000188869
3.3887e-05
3.40045e-05
0.000193381
0.00054476
0.000555769
0.000197354
3.40388e-05
3.40243e-05
0.000200283
0.000565309
0.000575561
0.000203739
3.39182e-05
3.37023e-05
0.000206101
0.000582849
0.000588732
0.00020822
3.34199e-05
3.30522e-05
0.000209772
0.000592918
0.000595081
0.000210762
3.26053e-05
3.20996e-05
0.000211241
0.000595488
0.00059387
0.000211057
3.15047e-05
3.08572e-05
0.000210394
0.000590482
0.000585151
0.000209102
3.01442e-05
2.93589e-05
0.000207218
0.000577963
0.000568947
0.00020481
2.85164e-05
2.76177e-05
0.000201861
0.000558139
0.000545445
0.000198337
2.66424e-05
2.56183e-05
0.000194339
0.000530902
0.000514263
0.000189735
2.4496e-05
2.33527e-05
0.000184624
0.000495206
0.000473176
0.000178649
2.2068e-05
2.061e-05
0.000171723
0.000447151
0.000414277
0.000162868
1.88556e-05
1.68994e-05
0.000151028
0.000370532
0.000309784
0.000133607
1.43179e-05
1.11752e-05
0.000106955
0.00022544
0.000114834
5.82203e-05
8.26317e-06
5.30647e-06
2.55203e-05
2.89255e-05
3.63135e-05
4.88476e-05
6.01765e-05
7.22155e-05
8.008e-05
8.78145e-05
9.31543e-05
9.82237e-05
0.000102192
0.000105672
0.000108588
0.000111103
0.000112225
0.000113533
0.000113638
0.000125827
0.000120851
0.000115776
0.000106759
6.77981e-05
3.78851e-05
4.70427e-05
5.59811e-05
3.77819e-05
1.80844e-05
1.97044e-05
2.06352e-05
1.90215e-05
1.67856e-05
1.4717e-05
8.62632e-06
6.68179e-06
5.33826e-06
4.31349e-06
3.25734e-06
7.13348e-06
1.31785e-05
2.11616e-05
3.63071e-05
9.03431e-05
6.33829e-05
3.85131e-05
1.6238e-05
4.11706e-06
5.20234e-06
3.03457e-05
7.21295e-05
0.000112469
0.000152115
0.000199605
0.000144988
9.19763e-05
3.81959e-05
6.02184e-06
6.43974e-06
4.34379e-05
0.0001054
0.000168581
0.000231908
0.000251398
0.000183544
0.000113381
4.65702e-05
6.7246e-06
6.75108e-06
4.74753e-05
0.000115924
0.000188166
0.000258167
0.000257739
0.000187395
0.000115207
4.70842e-05
6.62884e-06
6.42782e-06
4.62983e-05
0.000113087
0.00018402
0.000253606
0.000247234
0.000179821
0.000110657
4.55421e-05
6.17963e-06
5.96509e-06
4.50753e-05
0.000108956
0.000176591
0.000242554
0.000240875
0.000174906
0.000108128
4.50871e-05
5.78169e-06
5.6254e-06
4.51167e-05
0.000107486
0.000173821
0.000239738
0.00023892
0.00017266
0.000106703
4.49836e-05
5.4348e-06
5.20562e-06
4.41533e-05
0.000104834
0.000170487
0.000237238
0.000231504
0.000164886
0.000100577
4.1976e-05
4.86261e-06
4.52737e-06
3.78018e-05
9.27441e-05
0.000155306
0.000222005
0.000208503
0.000141738
8.16888e-05
3.20733e-05
4.04143e-06
3.25361e-06
2.41327e-05
6.66221e-05
0.000123649
0.000190923
0.000166989
9.98863e-05
4.52061e-05
1.2727e-05
2.03895e-06
1.36239e-06
6.13791e-06
2.83498e-05
7.02701e-05
0.000133763
9.23988e-05
3.97141e-05
1.79005e-05
5.41493e-06
1.3746e-06
1.5291e-06
3.53121e-06
1.10311e-05
2.74974e-05
5.30509e-05
3.83489e-05
1.58239e-05
5.95041e-06
3.06304e-06
2.67422e-06
2.81564e-06
2.8747e-06
6.51956e-06
1.82132e-05
4.31448e-05
4.67409e-05
1.74497e-05
5.6174e-06
2.94205e-06
3.69322e-06
3.85404e-06
3.25021e-06
5.8753e-06
1.72952e-05
4.63963e-05
4.21965e-05
1.62883e-05
5.91572e-06
3.32199e-06
3.83188e-06
3.94297e-06
3.51658e-06
6.09586e-06
1.65812e-05
4.37572e-05
4.56456e-05
1.87658e-05
7.55547e-06
4.36627e-06
3.1396e-06
3.29194e-06
3.94519e-06
8.46435e-06
2.07414e-05
4.79422e-05
5.24788e-05
2.22899e-05
8.48244e-06
4.06141e-06
3.65474e-06
3.28033e-06
4.58105e-06
8.84936e-06
2.18728e-05
5.09254e-05
5.31181e-05
2.47173e-05
1.03368e-05
4.82363e-06
3.18623e-06
3.50904e-06
4.50398e-06
1.31423e-05
3.00399e-05
6.01004e-05
6.75304e-05
3.4059e-05
1.36387e-05
4.04226e-06
3.18759e-06
3.60282e-06
4.07296e-06
1.32405e-05
3.18908e-05
6.48462e-05
6.36601e-05
2.97057e-05
1.2302e-05
4.82224e-06
4.03855e-06
3.73664e-06
5.77075e-06
1.30753e-05
2.99443e-05
6.32584e-05
6.64244e-05
3.30649e-05
1.3955e-05
5.18978e-06
3.71597e-06
4.04535e-06
5.8521e-06
1.3968e-05
3.10752e-05
6.47745e-05
6.81643e-05
3.43289e-05
1.48279e-05
5.61238e-06
3.89253e-06
4.61087e-06
5.84838e-06
1.55154e-05
3.35014e-05
6.83678e-05
7.1155e-05
3.58579e-05
1.54314e-05
6.20352e-06
4.01289e-06
4.39172e-06
6.51081e-06
1.70276e-05
3.65008e-05
7.1446e-05
7.71051e-05
3.9289e-05
1.76019e-05
5.58285e-06
4.30843e-06
4.74198e-06
6.58104e-06
1.84109e-05
3.872e-05
7.77817e-05
8.58763e-05
4.66376e-05
2.0671e-05
6.05285e-06
3.72124e-06
4.57979e-06
6.13961e-06
2.03792e-05
4.34653e-05
8.45465e-05
8.79838e-05
4.85471e-05
2.22338e-05
7.52055e-06
3.66298e-06
4.32599e-06
6.62957e-06
2.30981e-05
4.83539e-05
8.85486e-05
9.17447e-05
5.11535e-05
2.36354e-05
7.10713e-06
3.87846e-06
4.64024e-06
6.88398e-06
2.33417e-05
4.79484e-05
8.91847e-05
9.03043e-05
4.93278e-05
2.35462e-05
8.52517e-06
4.25642e-06
4.69853e-06
7.79264e-06
2.55748e-05
5.00346e-05
9.07236e-05
9.54285e-05
5.22831e-05
2.47367e-05
8.16739e-06
4.58546e-06
4.55374e-06
9.22135e-06
2.69127e-05
5.27576e-05
9.47753e-05
0.000101028
5.56919e-05
2.62811e-05
7.94277e-06
4.95882e-06
5.10316e-06
9.62819e-06
2.76733e-05
5.41462e-05
9.97324e-05
0.000104869
5.89702e-05
2.77668e-05
8.53059e-06
4.95909e-06
6.0111e-06
8.94976e-06
2.9263e-05
5.62444e-05
0.000104612
0.000109057
6.16627e-05
2.92855e-05
9.31958e-06
5.04474e-06
5.80849e-06
9.39067e-06
3.15634e-05
6.31658e-05
0.000111374
0.000115673
6.46215e-05
3.11364e-05
8.34192e-06
5.1883e-06
5.6045e-06
1.07808e-05
3.24732e-05
6.33868e-05
0.000113032
0.000118065
6.76375e-05
3.28648e-05
9.30021e-06
5.04964e-06
5.88188e-06
9.75668e-06
3.47155e-05
6.42348e-05
0.000116365
0.00012013
6.97506e-05
3.48908e-05
1.15693e-05
5.15632e-06
5.71253e-06
9.84657e-06
3.71164e-05
6.94948e-05
0.000121874
0.000125177
7.15351e-05
3.56834e-05
1.11163e-05
5.81237e-06
5.51912e-06
1.24296e-05
3.9183e-05
7.41438e-05
0.000126477
0.000131596
7.46804e-05
3.67461e-05
1.07031e-05
6.22648e-06
6.41444e-06
1.28554e-05
3.99078e-05
7.39123e-05
0.000130776
0.000138083
8.01238e-05
3.89502e-05
1.1653e-05
6.11761e-06
7.46496e-06
1.16445e-05
4.14899e-05
7.65002e-05
0.000138154
0.000140601
8.15846e-05
4.0587e-05
1.2234e-05
6.31758e-06
7.37911e-06
1.24317e-05
4.34474e-05
8.37308e-05
0.000144337
0.000146541
8.2703e-05
4.23364e-05
1.11973e-05
6.45496e-06
6.99346e-06
1.52983e-05
4.6418e-05
8.55355e-05
0.000146996
0.000158124
9.0651e-05
4.48896e-05
1.16616e-05
6.21047e-06
7.07571e-06
1.26458e-05
5.06929e-05
8.79013e-05
0.000157902
0.00016779
9.87692e-05
4.82473e-05
1.40547e-05
6.10116e-06
6.83738e-06
1.20347e-05
5.12104e-05
9.28259e-05
0.000164487
0.000167576
9.92667e-05
4.93989e-05
1.47583e-05
6.42266e-06
6.9575e-06
1.28518e-05
5.17336e-05
9.51603e-05
0.000165647
0.000168848
0.000100315
5.10276e-05
1.67676e-05
6.82602e-06
6.88187e-06
1.31541e-05
5.19127e-05
9.84358e-05
0.000169569
0.00016785
9.35336e-05
4.79873e-05
1.39447e-05
8.32154e-06
8.29862e-06
1.62892e-05
4.92294e-05
8.62653e-05
0.000151717
0.000149961
8.82661e-05
5.07875e-05
1.62764e-05
8.32388e-06
8.13102e-06
1.92669e-05
5.42077e-05
9.29725e-05
0.000155093
0.000171063
9.34389e-05
5.33597e-05
1.75351e-05
1.04105e-05
9.39867e-06
1.59807e-05
5.06795e-05
0.000115982
0.000207258
0.000288551
0.000159175
7.14196e-05
2.47186e-05
1.26999e-05
1.61701e-05
4.23398e-05
0.00012619
0.000285238
0.000515454
0.000639857
0.000391078
0.000196137
6.79005e-05
2.03514e-05
2.47443e-05
0.000101573
0.000270794
0.000497314
0.00077248
0.000895357
0.000600977
0.000343963
0.000136441
2.88597e-05
3.23773e-05
0.000170777
0.000411755
0.000695444
0.00100863
0.00111405
0.000783512
0.000473782
0.000199185
3.52029e-05
3.80483e-05
0.000226615
0.000530018
0.000862674
0.00120821
0.0012829
0.000932158
0.000582115
0.000253562
4.07691e-05
4.3182e-05
0.00028126
0.000635155
0.001006
0.00137501
0.00146182
0.001072
0.000680107
0.000303058
4.52953e-05
4.77648e-05
0.000319561
0.000722064
0.00113797
0.00155288
0.00164682
0.00120659
0.000766095
0.00034097
5.08308e-05
5.59553e-05
0.000360367
0.000810147
0.00126963
0.00172119
0.00179596
0.00134014
0.000864994
0.000393084
6.11448e-05
6.53835e-05
0.000428634
0.000927747
0.00142744
0.00190665
0.00201867
0.00151627
0.000990815
0.00046077
6.92698e-05
7.32156e-05
0.000497992
0.0010539
0.0016037
0.00212646
0.00223569
0.0016859
0.00111275
0.000535048
7.57678e-05
7.62592e-05
0.000554028
0.00114581
0.00173838
0.00233727
0.00225332
0.00170311
0.00112474
0.000542131
7.47904e-05
7.3196e-05
0.000526262
0.00108845
0.00163281
0.00212373
0.00222953
0.00167569
0.001106
0.000529821
7.45146e-05
7.53953e-05
0.000553633
0.00115424
0.00175225
0.00233091
0.00243189
0.00183025
0.00120819
0.00058534
7.73669e-05
7.7673e-05
0.00060164
0.00125418
0.00190177
0.0025269
0.00261352
0.00196555
0.00129416
0.000619471
7.98901e-05
7.78866e-05
0.000620383
0.00130824
0.00200014
0.00268004
0.00266563
0.00197084
0.00128682
0.000612016
7.67797e-05
7.14896e-05
0.000576951
0.00121289
0.00184219
0.00242355
0.00216627
0.00167265
0.00111283
0.000529619
6.59674e-05
6.04879e-05
0.00048875
0.00103367
0.00157873
0.00212677
0.0019995
0.00149561
0.000973137
0.00045475
5.68077e-05
5.29574e-05
0.000426456
0.000915251
0.00139948
0.00184463
0.0018739
0.00138296
0.000894369
0.000415379
5.24185e-05
5.14488e-05
0.000411848
0.000896117
0.00139484
0.001894
0.00188916
0.00139556
0.000897128
0.000412594
5.17378e-05
5.14273e-05
0.000413383
0.000896854
0.00139525
0.00189068
0.00189806
0.00139903
0.000897864
0.000414827
5.21318e-05
5.11526e-05
0.000414922
0.000902007
0.00140904
0.00191709
0.00193565
0.00140616
0.000899865
0.000414871
5.12174e-05
4.93278e-05
0.000402873
0.000871124
0.00135461
0.00183228
0.00171672
0.00128965
0.000831927
0.000383791
4.75427e-05
4.79834e-05
0.000385053
0.000841597
0.0013156
0.00179505
0.00187115
0.00137101
0.000875132
0.000400942
4.98992e-05
5.12131e-05
0.000421797
0.00091353
0.00142843
0.001946
0.00201883
0.00147945
0.000946508
0.000436602
5.14195e-05
5.0537e-05
0.000436221
0.000951993
0.00149841
0.00207207
0.00196877
0.00145177
0.000927098
0.00042286
4.85424e-05
4.60957e-05
0.00040607
0.000895133
0.00139145
0.00185422
0.00194871
0.00142614
0.000906417
0.000405779
4.54032e-05
4.7578e-05
0.000419609
0.000942684
0.00148992
0.00204396
0.00213194
0.00155537
0.000985056
0.000438422
4.94107e-05
5.06463e-05
0.000454158
0.00101772
0.00161171
0.00221408
0.0022813
0.00163802
0.00103153
0.000461482
5.11672e-05
5.05012e-05
0.000457012
0.00101252
0.0015946
0.00217313
0.00205906
0.00154173
0.000991013
0.000449565
4.99706e-05
5.03226e-05
0.000454919
0.00101166
0.00158836
0.00217015
0.00228403
0.00166704
0.00105543
0.000471983
5.18201e-05
5.44078e-05
0.000491485
0.00110364
0.00174487
0.0023932
0.00249628
0.00181763
0.00114862
0.00051741
5.61545e-05
5.67751e-05
0.000523535
0.0011695
0.00185478
0.00258413
0.00246913
0.00181
0.0011507
0.000519846
5.59862e-05
5.49884e-05
0.000516513
0.00113548
0.00176316
0.00235245
0.0024863
0.00182221
0.0011622
0.000524175
5.53855e-05
5.69348e-05
0.000544907
0.00121799
0.00191896
0.00262483
0.00276132
0.00201128
0.001271
0.000568691
5.96699e-05
6.14805e-05
0.000584531
0.00130025
0.00206281
0.00287526
0.00276004
0.00202716
0.00129389
0.000585023
6.14888e-05
6.06469e-05
0.000583439
0.00128019
0.00198767
0.00264584
0.00280601
0.00205948
0.00131241
0.000593158
6.14626e-05
6.40816e-05
0.000617536
0.00137116
0.00216386
0.0029717
0.00311166
0.00222701
0.00140617
0.000636638
6.63255e-05
6.57833e-05
0.000637701
0.00140079
0.00219693
0.00299653
0.00288864
0.00216705
0.00139689
0.000637897
6.6032e-05
6.74812e-05
0.000655239
0.00144466
0.00226033
0.00307578
0.00326875
0.00238423
0.00151142
0.000683112
7.00417e-05
7.22175e-05
0.000704157
0.00155503
0.0024658
0.00344382
0.00333074
0.00244558
0.00156541
0.000714672
7.32165e-05
7.40565e-05
0.000726755
0.00157541
0.0024296
0.00322868
0.00345284
0.00254405
0.00163504
0.000748284
7.52342e-05
7.65115e-05
0.000774909
0.00171746
0.0027013
0.00369258
0.00391499
0.0028139
0.00177902
0.000808006
8.16905e-05
8.62182e-05
0.000839514
0.0018098
0.00281223
0.00381648
0.00373385
0.00282003
0.00184175
0.000863594
9.06467e-05
9.5352e-05
0.000900237
0.00191153
0.00295781
0.00400463
0.00427683
0.00308907
0.001982
0.000933891
9.95351e-05
0.000101289
0.00095423
0.00200935
0.00309506
0.00418429
0.00411116
0.00310822
0.00203515
0.000966535
9.93698e-05
9.66441e-05
0.000969071
0.00209123
0.00325703
0.00441628
0.00473262
0.00339253
0.00213882
0.000958158
8.94855e-05
9.11487e-05
0.00095966
0.00216291
0.00341222
0.00464951
0.00461238
0.00345615
0.00222015
0.00100563
9.99399e-05
0.000108923
0.00105627
0.00230377
0.00360744
0.00498862
0.00496749
0.00367949
0.00237772
0.00110582
0.000117053
0.000126631
0.00116599
0.00246574
0.00377524
0.00498112
0.00541887
0.00396346
0.00257314
0.00122528
0.00013556
0.000144332
0.0012833
0.00266454
0.00406005
0.00542917
0.00546823
0.004183
0.00277482
0.00134861
0.00015391
0.000163025
0.00141788
0.002905
0.00440912
0.00596388
0.00600687
0.0045329
0.00301693
0.0014822
0.000172602
0.000183113
0.0015542
0.00314675
0.00469084
0.00606713
0.00658931
0.00491344
0.00325701
0.00160807
0.000188932
0.000181118
0.00160403
0.00326843
0.00494582
0.00658279
0.00656178
0.00491327
0.0032086
0.00154429
0.000177803
0.000191867
0.00154216
0.00317916
0.00489471
0.00657212
0.00677343
0.00502629
0.00326248
0.0016034
0.000216595
0.000225984
0.00167914
0.00340872
0.00519338
0.00692528
0.00739254
0.00551503
0.00358754
0.00172683
0.000217549
0.000198317
0.00169461
0.00364168
0.00565798
0.0077162
0.00756971
0.00563574
0.00365896
0.00174116
0.00021007
0.000256019
0.00187603
0.0037333
0.0056121
0.00744221
0.00732667
0.00557101
0.0038002
0.00200418
0.000295513
0.000312055
0.00204201
0.00373123
0.00544738
0.00716104
0.00690177
0.00517427
0.00345547
0.00178075
0.000313871
0.00030111
0.00143275
0.00300518
0.00469552
0.00644088
0.00544264
0.00396431
0.00249592
0.00112845
0.000266903
0.000229061
0.000909206
0.00211192
0.00346321
0.00485069
0.00426982
0.00303473
0.00187146
0.000834636
0.000207373
0.00019299
0.000728087
0.00168505
0.00278694
0.00398659
0.003585
0.00252799
0.00153074
0.000653609
0.000176424
0.000162948
0.000584028
0.0014196
0.00239268
0.00345574
0.00313394
0.00217771
0.00128551
0.000513118
0.000144748
0.000121742
0.000464094
0.00122724
0.00212482
0.00311397
0.00286413
0.00198912
0.00116057
0.000432306
0.000108839
0.000109908
0.000474891
0.00118372
0.00201055
0.00293347
0.00274516
0.00194195
0.0011801
0.000497786
0.000109181
0.000107333
0.000523492
0.0012143
0.00199692
0.00285981
0.00277131
0.00194255
0.00120406
0.000531092
0.000105089
0.000100167
0.00051641
0.00114808
0.00180808
0.00244128
0.00252225
0.00182891
0.0011617
0.000524061
9.53181e-05
9.43464e-05
0.000553978
0.001172
0.00180699
0.00245344
0.00261044
0.00189747
0.0012256
0.000588969
9.71313e-05
0.000100167
0.00060736
0.00123858
0.0018924
0.00260561
0.00238128
0.00181675
0.00122187
0.000617999
0.000102454
0.000102664
0.000613856
0.00123257
0.00185459
0.00248722
0.00248219
0.0018326
0.00122293
0.000610573
0.000101727
9.9146e-05
0.00058795
0.00118252
0.00175459
0.00228359
0.00238068
0.00178326
0.00118033
0.000567508
9.5159e-05
9.1029e-05
0.000560279
0.00116529
0.00175898
0.00237998
0.00219393
0.00168812
0.00113086
0.000543249
8.72357e-05
8.36199e-05
0.000544843
0.00114218
0.00171935
0.00228169
0.00227326
0.00173199
0.00116527
0.000571438
8.2728e-05
8.53431e-05
0.000603593
0.0012202
0.00182552
0.00242534
0.00246214
0.00184042
0.00123867
0.000620801
8.74605e-05
8.83839e-05
0.000621487
0.00122856
0.00179415
0.0023097
0.002421
0.00184419
0.00124763
0.000629149
8.88515e-05
8.9409e-05
0.000634176
0.00125236
0.00184681
0.00245211
0.00230183
0.00179669
0.00123382
0.000627245
8.92522e-05
8.95071e-05
0.000634368
0.0012533
0.00184353
0.00240929
0.00244001
0.00183946
0.00124744
0.000627501
8.91005e-05
8.83843e-05
0.000621681
0.00122794
0.00178997
0.0022952
0.00239849
0.00183252
0.00123971
0.000621162
8.76009e-05
8.66928e-05
0.00061264
0.0012354
0.00183204
0.0024318
0.00228784
0.00178114
0.00121402
0.000605081
8.5271e-05
8.4316e-05
0.000605779
0.00122886
0.00182451
0.00239136
0.00242695
0.00182422
0.00122615
0.000604164
8.32572e-05
8.18669e-05
0.000592387
0.00120576
0.00177863
0.00228671
0.00239239
0.00182631
0.00122899
0.00060728
8.15643e-05
8.14018e-05
0.000604069
0.00122742
0.00182773
0.00243353
0.0022966
0.00178483
0.00121009
0.000598336
8.06815e-05
7.99305e-05
0.000596664
0.0012291
0.00183429
0.00240755
0.00245351
0.00183681
0.00122173
0.000590435
7.85894e-05
7.61328e-05
0.000561259
0.00117627
0.00176508
0.00232834
0.00217426
0.00168361
0.00112553
0.000534328
7.31759e-05
7.1355e-05
0.000534133
0.00113091
0.00171087
0.00226094
0.00229658
0.00170761
0.00112769
0.000535918
7.02927e-05
6.97151e-05
0.000536172
0.00111386
0.00166689
0.0021644
0.00226829
0.00171526
0.00113587
0.000543385
6.95971e-05
6.92102e-05
0.000540243
0.00113512
0.0017178
0.00230998
0.00217816
0.00167793
0.00112016
0.000536882
6.85386e-05
6.83272e-05
0.000537001
0.00113722
0.00172379
0.00228183
0.00232535
0.00172782
0.00113898
0.000542419
6.79538e-05
6.76642e-05
0.000530254
0.00112121
0.00168654
0.0021905
0.00229426
0.00173157
0.0011404
0.000538197
6.71176e-05
6.70883e-05
0.000535242
0.00113753
0.00173089
0.00233433
0.00219648
0.00168806
0.00112053
0.00052982
6.64717e-05
6.63193e-05
0.000535437
0.00113762
0.00173126
0.00229816
0.00233718
0.00173137
0.00113474
0.000530652
6.60461e-05
6.52515e-05
0.000523104
0.00111531
0.00168461
0.00219623
0.00229602
0.0017258
0.00113013
0.000528471
6.51016e-05
6.47458e-05
0.00052319
0.00112552
0.00172473
0.00233464
0.00219072
0.00167615
0.00110278
0.000511389
6.36847e-05
6.29656e-05
0.00051702
0.00111799
0.0017147
0.00228829
0.00232333
0.00171013
0.00111303
0.000516787
6.25869e-05
6.19245e-05
0.000505066
0.00109124
0.00166352
0.00217941
0.00227561
0.00170178
0.00110587
0.000509017
6.12088e-05
6.09817e-05
0.000508132
0.00110068
0.00169829
0.00230862
0.00216611
0.00165205
0.00108313
0.000498878
6.02608e-05
5.93525e-05
0.000499092
0.0010943
0.00168972
0.00226271
0.00229636
0.00168558
0.00109013
0.00050072
5.88142e-05
5.84668e-05
0.000489552
0.00107339
0.00164421
0.00215886
0.00226189
0.00168815
0.00109131
0.000497403
5.82566e-05
5.85564e-05
0.000496491
0.0010936
0.00169392
0.00230732
0.00218772
0.00166527
0.00108858
0.000497512
5.84197e-05
5.98311e-05
0.00050963
0.00111904
0.00172946
0.00231343
0.00238094
0.00175534
0.0011372
0.000519686
6.06643e-05
6.28694e-05
0.000532629
0.00115837
0.00176275
0.00230319
0.00247162
0.00186872
0.00122075
0.000559411
6.31603e-05
6.97352e-05
0.000591566
0.00127567
0.00194913
0.00262278
0.00259684
0.00200297
0.00133247
0.000621661
7.00268e-05
8.1649e-05
0.000681449
0.00144925
0.00215928
0.0027738
0.00303687
0.00238076
0.00160882
0.000756652
8.69968e-05
0.000100645
0.000853434
0.00182433
0.0027417
0.0035727
0.00388156
0.00292719
0.00194563
0.000911619
0.000106806
0.000111954
0.000923791
0.00195441
0.00293027
0.00385563
0.00365308
0.00285053
0.00191946
0.000912102
0.000113066
0.000115435
0.000923361
0.00195167
0.00291996
0.0038059
0.00385168
0.0029707
0.0019993
0.00095095
0.000119853
0.000124551
0.000993385
0.00208903
0.0031395
0.00410414
0.00420203
0.00317533
0.00211903
0.00101344
0.000129212
0.000132265
0.00100975
0.00209293
0.00309834
0.00397035
0.00415003
0.00317932
0.00212548
0.00101739
0.000126841
0.000125704
0.00101517
0.00211851
0.00317749
0.00421478
0.00395969
0.00308222
0.00207412
0.000995903
0.000123938
0.000123388
0.00100686
0.00210602
0.00315899
0.00413192
0.00419178
0.00315681
0.0021037
0.00100974
0.000123478
0.000122774
0.000992611
0.00206123
0.00306089
0.00393597
0.00410782
0.00313483
0.0020879
0.000997705
0.00012204
0.000121549
0.000997788
0.00208346
0.00313264
0.00416785
0.00391127
0.00303444
0.00203651
0.00097216
0.000120509
0.000120238
0.000982597
0.00206508
0.00310964
0.00408465
0.00414455
0.00310832
0.00206163
0.000983888
0.000120185
0.000119012
0.000965287
0.00201882
0.00301155
0.00388748
0.00405893
0.00308396
0.00204412
0.00096994
0.000118402
0.000117781
0.000961135
0.00203104
0.00307636
0.00411253
0.00385011
0.00297379
0.00198315
0.00094033
0.000116564
0.000115614
0.00093816
0.00199965
0.00303804
0.00401619
0.00405392
0.00302242
0.00198632
0.000932063
0.000114101
0.00011316
0.000918267
0.00194062
0.00291836
0.00378695
0.00392733
0.00297597
0.00196608
0.000927454
0.000113816
0.000115622
0.00094214
0.00199458
0.00300093
0.00393345
0.00416898
0.003148
0.00206452
0.000967873
0.000118154
0.000119337
0.000970602
0.00207272
0.00315136
0.00422357
0.00395055
0.00304306
0.00202104
0.000954964
0.000118994
0.000118274
0.000955283
0.00203861
0.00310473
0.0041151
0.00413745
0.00307604
0.00201383
0.00094308
0.000116733
0.000115141
0.000917873
0.00195844
0.00296076
0.00384868
0.00398639
0.00300877
0.00197542
0.0009228
0.000114707
0.000115911
0.000933082
0.00199695
0.00302404
0.00397876
0.00421431
0.0031667
0.00206317
0.000956646
0.000117578
0.000118232
0.000959677
0.00206414
0.0031601
0.00425537
0.00396194
0.00303908
0.00200578
0.0009373
0.000117464
0.000116379
0.000935975
0.00201879
0.00309809
0.00412751
0.00414114
0.00306233
0.00199066
0.000920353
0.000115154
0.000114078
0.000899711
0.00193177
0.00293655
0.00383442
0.00397129
0.00298122
0.00194477
0.000900745
0.000113899
0.000114848
0.000910773
0.00196355
0.00299036
0.00395471
0.00419126
0.00313149
0.00202468
0.000931406
0.000116589
0.00011693
0.000932064
0.00202442
0.00312208
0.00422541
0.00391503
0.00299265
0.00196464
0.000911521
0.000115939
0.000115001
0.000907935
0.0019717
0.00304524
0.00407735
0.00408406
0.0030072
0.00194191
0.000890675
0.000113796
0.00011199
0.000859616
0.00187364
0.00286859
0.00376479
0.00389792
0.00291045
0.00188129
0.00086226
0.000111478
0.000112121
0.000869642
0.00189611
0.00290828
0.00386784
0.00410109
0.00304054
0.00194852
0.000887853
0.000113271
0.000113706
0.000887951
0.00194347
0.00301943
0.00411607
0.00379092
0.00288426
0.0018825
0.000867638
0.00011255
0.00011272
0.000867946
0.0018914
0.00292706
0.00392534
0.00389206
0.00292658
0.00190831
0.000878135
0.000114046
0.00011537
0.000893157
0.00195491
0.00305061
0.0041217
0.00413362
0.0030295
0.00194446
0.000887715
0.000115063
0.000113487
0.000855205
0.00187569
0.00288172
0.00379253
0.00392543
0.0029191
0.00187711
0.000853826
0.000112776
0.000113266
0.000858049
0.0018838
0.00290779
0.00388074
0.00410961
0.00302987
0.00193095
0.000873294
0.000113989
0.000113812
0.000870858
0.00192074
0.00300428
0.00411443
0.00376574
0.00285474
0.00185329
0.000848692
0.000112932
0.000112849
0.000844811
0.00185662
0.00289226
0.00389915
0.00385152
0.00288073
0.00186486
0.000850053
0.000113444
0.000114447
0.000864903
0.00191203
0.00300541
0.00408253
0.00408698
0.00297723
0.001898
0.00086157
0.000114534
0.00011346
0.000827106
0.00182554
0.00282254
0.00373136
0.00386382
0.00285505
0.00182185
0.000820971
0.000112617
0.000113023
0.000830086
0.00183047
0.00284235
0.00381311
0.00403956
0.002963
0.00187617
0.000843724
0.000113889
0.000113163
0.000838363
0.00185987
0.002932
0.00403879
0.00367459
0.00277301
0.00178585
0.000806669
0.000111505
0.000110361
0.000800496
0.00178212
0.00280309
0.00380607
0.00374332
0.00278203
0.00178285
0.000801894
0.000110475
0.000111216
0.000815258
0.00182305
0.00289492
0.00396756
0.00396135
0.00286184
0.00180472
0.000799952
0.000110618
0.000108297
0.000760893
0.00171943
0.00269373
0.00358648
0.00371375
0.00271686
0.00171237
0.000756412
0.000106852
0.000108023
0.000768109
0.00171934
0.00270011
0.00364771
0.00385063
0.00280942
0.00177508
0.000793813
0.000110672
0.00011258
0.000808317
0.00179917
0.00281365
0.00379494
0.00403335
0.00294094
0.00184788
0.000825807
0.00011429
0.000114387
0.000820784
0.0018372
0.00291039
0.00402424
0.00363807
0.002732
0.00174508
0.000776696
0.00011252
0.000111257
0.000770754
0.00173529
0.00275635
0.00377216
0.00369469
0.0027281
0.00173283
0.000772426
0.000111077
0.000111126
0.000781898
0.00176699
0.00283743
0.00391707
0.00390135
0.00279851
0.00174743
0.000762687
0.000109992
0.000107716
0.000734598
0.00166172
0.00262202
0.00351269
0.00364173
0.00264631
0.00165367
0.000728942
0.000106905
0.000107131
0.000731973
0.00165542
0.00261962
0.00356179
0.00376796
0.00272638
0.00170533
0.000754406
0.00010889
0.000111199
0.000767757
0.0017258
0.00272347
0.00369608
0.00392978
0.00284368
0.00176711
0.000777342
0.000112323
0.0001119