/*--------------------------------*- C++ -*----------------------------------*\
| =========                 |                                                 |
| \\      /  F ield         | OpenFOAM: The Open Source CFD Toolbox           |
|  \\    /   O peration     | Version:  v2006                                 |
|   \\  /    A nd           | Website:  www.openfoam.com                      |
|    \\/     M anipulation  |                                                 |
\*---------------------------------------------------------------------------*/
FoamFile
{
    version     2.0;
    format      ascii;
    class       volScalarField;
    location    "0.149";
    object      Ma;
}
// * * * * * * * * * * * * * * * * * * * * * * * * * * * * * * * * * * * * * //

dimensions      [0 0 0 0 0 0 0];


internalField   nonuniform List<scalar> 
16277
(
0.139391
0.139392
0.139391
0.139389
0.139389
0.139384
0.13937
0.139325
0.139223
0.139061
0.138856
0.138629
0.138396
0.138162
0.137926
0.137685
0.137437
0.137179
0.136911
0.136631
0.13634
0.136038
0.135725
0.135401
0.135066
0.13472
0.134364
0.133998
0.133622
0.133236
0.13284
0.132435
0.132021
0.131598
0.131167
0.130728
0.130281
0.129827
0.129367
0.1289
0.128427
0.127949
0.127466
0.126978
0.126487
0.125992
0.125494
0.124994
0.124492
0.123989
0.123485
0.122981
0.122477
0.121975
0.121474
0.120975
0.12048
0.119988
0.119499
0.119016
0.118538
0.118066
0.1176
0.117142
0.116691
0.116248
0.115815
0.115391
0.114977
0.114573
0.114181
0.1138
0.113431
0.113075
0.112732
0.112403
0.112087
0.111782
0.111487
0.111196
0.110909
0.110633
0.11039
0.11022
0.110144
0.110143
0.110172
0.110207
0.110235
0.110233
0.110211
0.110141
0.109963
0.109665
0.10918
0.108623
0.106572
0.105257
0.108647
0.109317
0.109386
0.108499
0.103773
0.102305
0.108323
0.10945
0.109443
0.108053
0.100955
0.0997109
0.107767
0.109402
0.109289
0.107397
0.0985497
0.0975003
0.107061
0.10917
0.108998
0.106678
0.0965076
0.0956376
0.106347
0.108846
0.108639
0.105946
0.0947951
0.0940428
0.105608
0.108453
0.108216
0.105199
0.0933007
0.0926301
0.104858
0.108009
0.107754
0.104448
0.0919647
0.0913631
0.104117
0.107539
0.107264
0.103704
0.0907493
0.0901906
0.103372
0.107034
0.106742
0.102953
0.0896135
0.0890909
0.102624
0.106503
0.106205
0.10221
0.0885514
0.0880589
0.101886
0.10596
0.105653
0.101472
0.0875447
0.0870738
0.10115
0.105402
0.105085
0.100736
0.0865791
0.0861251
0.100415
0.104828
0.104503
0.0999984
0.0856454
0.0852045
0.0996774
0.10424
0.103906
0.0992585
0.0847363
0.0843051
0.098936
0.103636
0.103294
0.0985135
0.0838454
0.0834211
0.0981882
0.103016
0.102665
0.0977612
0.0829673
0.0825478
0.0974319
0.102379
0.102018
0.0969998
0.0820981
0.0816814
0.0966658
0.101725
0.101354
0.0962279
0.081234
0.0808187
0.0958881
0.101051
0.10067
0.0954436
0.0803723
0.079957
0.095097
0.100358
0.099965
0.0946451
0.0795102
0.0790937
0.094291
0.0996429
0.099239
0.0938312
0.0786454
0.0782264
0.0934689
0.0989061
0.0984901
0.0930002
0.0777753
0.0773528
0.0926291
0.0981459
0.0977173
0.0921507
0.0768979
0.0764707
0.0917698
0.0973611
0.0969191
0.0912809
0.0760109
0.075578
0.0908894
0.0965502
0.0960942
0.0903892
0.0751122
0.0746726
0.0899862
0.0957119
0.0952413
0.0894739
0.0741998
0.0737524
0.0890585
0.0948448
0.0943589
0.0885334
0.0732716
0.0728156
0.0881048
0.0939475
0.0934458
0.0875662
0.0723259
0.0718605
0.0871237
0.0930189
0.0925007
0.0865709
0.0713611
0.0708855
0.0861139
0.0920578
0.0915227
0.0855465
0.0703759
0.0698897
0.0850744
0.0910633
0.0905111
0.084492
0.0693693
0.0688721
0.0840047
0.0900349
0.0894654
0.0834072
0.0683408
0.0678326
0.0829044
0.0889725
0.0883858
0.0822921
0.0672907
0.0667721
0.0817744
0.0878763
0.0872732
0.0811479
0.0662203
0.0656922
0.0806161
0.086748
0.0861293
0.0799766
0.0651314
0.0645954
0.079432
0.0855897
0.0849571
0.0787814
0.0640275
0.0634855
0.0782262
0.0844049
0.0837608
0.0775668
0.062913
0.0623681
0.0770038
0.0831986
0.082546
0.0763391
0.0617944
0.0612506
0.0757723
0.0819775
0.0813206
0.0751069
0.0606802
0.0601427
0.0745414
0.0807505
0.0800947
0.073881
0.0595815
0.059057
0.0733236
0.0795291
0.0788815
0.0726757
0.0585123
0.058009
0.0721345
0.0783281
0.077697
0.0715082
0.05749
0.0570181
0.0709935
0.0771655
0.0765616
0.0704
0.0565357
0.0561074
0.0699241
0.0760635
0.0754996
0.0693769
0.0556748
0.055304
0.0689542
0.0750485
0.0745387
0.0684682
0.0549359
0.0546416
0.0681128
0.0741499
0.0737106
0.0677058
0.0543529
0.0541651
0.0674349
0.073398
0.073047
0.0671248
0.0539675
0.0538993
0.0669592
0.0728345
0.0725839
0.0667602
0.0538025
0.0538654
0.066714
0.0724857
0.0723471
0.0666369
0.0538774
0.0540752
0.0667172
0.0723712
0.0723524
0.0667679
0.0541988
0.0545176
0.0669665
0.0724922
0.0725854
0.067133
0.0547489
0.0552015
0.0674664
0.0728584
0.0730788
0.0677653
0.0555628
0.0561432
0.0682367
0.0734904
0.0738319
0.0686552
0.0566073
0.0572522
0.069214
0.0743338
0.0747589
0.0697103
0.0577703
0.0584529
0.0703321
0.0753304
0.0758152
0.0708801
0.0589971
0.059693
0.0715392
0.0764331
0.076958
0.0721169
0.0602422
0.0609333
0.0727936
0.0776038
0.07815
0.0733818
0.0614703
0.0621401
0.0740572
0.0788052
0.079355
0.0746378
0.0626477
0.0632817
0.0752952
0.0800027
0.08054
0.0758523
0.0637466
0.0643334
0.0764779
0.0811655
0.0816767
0.0769983
0.0647456
0.0652768
0.0775811
0.082268
0.0827419
0.0780546
0.0656291
0.0660996
0.0785858
0.0832896
0.0837174
0.0790031
0.0663904
0.0667974
0.0794775
0.0842145
0.0845888
0.0798322
0.0670309
0.0673711
0.0802478
0.0850313
0.0853514
0.0805422
0.0675478
0.0678235
0.080899
0.0857382
0.0860045
0.0811343
0.0679466
0.0681628
0.0814346
0.0863363
0.0865505
0.0816141
0.0682375
0.0684011
0.0818622
0.0868303
0.0869964
0.0819911
0.0684341
0.0685536
0.082193
0.0872298
0.0873533
0.0822782
0.0685526
0.0686367
0.0824406
0.0875463
0.0876329
0.0824888
0.068609
0.0686657
0.0826184
0.0877918
0.0878475
0.0826362
0.0686177
0.0686539
0.0827392
0.0879783
0.0880087
0.0827328
0.0685911
0.068612
0.0828143
0.0881165
0.0881265
0.082789
0.0685388
0.0685492
0.082854
0.088216
0.0882097
0.0828141
0.0684693
0.0684717
0.0828657
0.0882841
0.0882648
0.0828145
0.0683872
0.0683852
0.0828567
0.0883279
0.0882981
0.0827963
0.0682965
0.0682955
0.0828346
0.0883549
0.0883182
0.0827684
0.0682055
0.068201
0.0827991
0.0883656
0.0883216
0.0827276
0.0681096
0.0681048
0.082755
0.0883661
0.088319
0.082683
0.0680171
0.0680124
0.0827089
0.0883613
0.0883084
0.0826325
0.0679226
0.0679156
0.082653
0.0883434
0.0882891
0.0825753
0.0678262
0.0678208
0.082595
0.0883219
0.0882661
0.082517
0.067733
0.0677339
0.0825413
0.0883026
0.0882432
0.0824602
0.0676443
0.0676475
0.0824858
0.0882805
0.088221
0.082406
0.0675605
0.0675672
0.0824334
0.0882585
0.0882062
0.0823626
0.0674902
0.0674902
0.0823862
0.0882548
0.0882132
0.0823244
0.0674086
0.0675115
0.0824
0.0882982
0.0882816
0.0824035
0.0674868
0.0677108
0.0826153
0.0884745
0.0886367
0.0828512
0.0681309
0.0689735
0.0834259
0.0891718
0.0907152
0.0857222
0.0722809
0.0715797
0.082996
0.0882024
0.0916104
0.0941364
0.0955842
0.0960815
0.0963893
0.0969933
0.0972356
0.0975017
0.0976213
0.0977233
0.0977456
0.0977135
0.0976393
0.0974442
0.097242
0.096735
0.0964459
0.0961265
0.0957312
0.095037
0.0932902
0.0895807
0.0817545
0.0718064
0.0513385
0.0497174
0.0707846
0.0809637
0.0801025
0.0698045
0.0484056
0.0475502
0.0691367
0.0795351
0.0792755
0.0688705
0.0469331
0.0468602
0.0687684
0.079191
0.0790948
0.068675
0.0465498
0.0465277
0.0685934
0.0790916
0.0790942
0.0685952
0.0465319
0.0465584
0.0686182
0.0791162
0.0791502
0.0686606
0.0466058
0.0466634
0.0687156
0.0791965
0.0792261
0.0687556
0.0467079
0.0467435
0.0687886
0.0792528
0.0792904
0.0688348
0.0467944
0.0468565
0.068892
0.0793384
0.079377
0.0689426
0.0469118
0.0469693
0.0689958
0.0794207
0.0794686
0.0690561
0.0470343
0.0470938
0.0691125
0.0795152
0.0795561
0.069164
0.0471495
0.0472146
0.0692248
0.0796067
0.0796537
0.0692837
0.0472796
0.0473396
0.0693387
0.0796995
0.0797428
0.0693933
0.0474004
0.0474659
0.0694533
0.0797922
0.0798401
0.0695139
0.0475337
0.0475991
0.0695749
0.0798903
0.0799397
0.0696367
0.0476667
0.0477354
0.0697007
0.0799922
0.0800409
0.0697618
0.047803
0.0478748
0.0698289
0.0800973
0.0801462
0.0698902
0.0479432
0.0480093
0.0699499
0.0801955
0.0802462
0.0700127
0.0480799
0.0481504
0.0700773
0.0803005
0.0803497
0.0701391
0.0482193
0.0482913
0.0702057
0.0804052
0.0804624
0.070276
0.0483679
0.0484414
0.070345
0.0805203
0.0805731
0.0704095
0.0485115
0.0485866
0.0704794
0.0806328
0.0806883
0.0705468
0.0486604
0.0487332
0.0706137
0.0807458
0.0808014
0.0706803
0.0488053
0.0488797
0.0707501
0.0808615
0.0809213
0.0708217
0.0489559
0.0490324
0.070896
0.0809863
0.0810483
0.0709685
0.049106
0.049181
0.071043
0.0811143
0.0811783
0.0711168
0.0492544
0.0493311
0.0711948
0.0812495
0.0813159
0.0712696
0.0494041
0.0494742
0.071343
0.0813837
0.0814535
0.0714201
0.0495465
0.0496208
0.0715009
0.0815295
0.0816016
0.0715789
0.0496897
0.0497622
0.071664
0.0816827
0.0817685
0.0717554
0.0498379
0.0499078
0.0718441
0.0818549
0.0819369
0.0719285
0.0499699
0.0500369
0.0720215
0.0820301
0.0821265
0.0721188
0.0501045
0.0501691
0.072217
0.0822269
0.0823285
0.0723174
0.0502305
0.0502916
0.0724238
0.0824388
0.0825507
0.0725325
0.0503494
0.0504064
0.0726469
0.0826713
0.0827944
0.0727642
0.0504608
0.0505135
0.0728858
0.0829248
0.0830579
0.0730115
0.0505637
0.0506196
0.0731508
0.0832059
0.0833629
0.0733031
0.0506838
0.0507499
0.0734647
0.0835314
0.083703
0.0736312
0.0508133
0.0508791
0.0738063
0.0838852
0.0840762
0.0739937
0.0509562
0.0510447
0.0741956
0.0842815
0.0844951
0.0744117
0.0511453
0.0512644
0.0746482
0.0847251
0.0849688
0.0749057
0.0514059
0.0515725
0.0751883
0.0852325
0.0855148
0.075497
0.051771
0.0520102
0.0758359
0.0858176
0.0861358
0.0761984
0.052288
0.0526078
0.0765851
0.0864673
0.086812
0.0769986
0.0529779
0.0534236
0.0774557
0.0871848
0.0875852
0.0779608
0.0539512
0.054568
0.0785188
0.0880144
0.0884736
0.0791335
0.0552818
0.0561384
0.0798365
0.088994
0.0895973
0.0806682
0.0572049
0.0585305
0.0816197
0.090265
0.090934
0.0826013
0.0598582
0.0611233
0.0835479
0.0915389
0.0920238
0.0843283
0.0623444
0.0634099
0.0847678
0.092344
0.0925914
0.0853966
0.0644457
0.0654049
0.0857624
0.0927948
0.0929541
0.0861875
0.0664942
0.0676508
0.0866077
0.0931208
0.0931454
0.0868938
0.0686848
0.0695814
0.0871492
0.0931275
0.0931106
0.0874262
0.0705631
0.071653
0.0877177
0.0931192
0.0930737
0.0879482
0.0727584
0.0733339
0.0881062
0.0928519
0.0922161
0.0877117
0.0732127
0.0583377
0.0808203
0.089196
0.0916728
0.0839693
0.0621354
0.0621191
0.0843713
0.091799
0.0916691
0.0845413
0.0630391
0.0642861
0.0846181
0.0914789
0.0915567
0.0851041
0.0658146
0.067479
0.08545
0.0915348
0.0915666
0.0859448
0.0690507
0.0705297
0.0861947
0.0914412
0.0914404
0.0866179
0.0720075
0.0733749
0.0869165
0.0913671
0.0912595
0.0872135
0.0746207
0.0751082
0.0870454
0.0907629
0.088299
0.0817029
0.0647482
0.0686736
0.0848662
0.090293
0.0903833
0.0851584
0.0696129
0.0711471
0.0857411
0.0903999
0.0903727
0.0860519
0.0723617
0.0735296
0.0862806
0.0902805
0.0901906
0.0865846
0.074739
0.0753322
0.0865813
0.0898874
0.0892402
0.0861788
0.0756116
0.0666462
0.0817241
0.0871006
0.088596
0.0842162
0.0699965
0.0709322
0.0843769
0.0884455
0.0880816
0.0844402
0.0721391
0.0733109
0.0844109
0.0877261
0.0873691
0.0845146
0.0745238
0.0747736
0.0841217
0.086481
0.0846154
0.0801799
0.0670795
0.0711177
0.0821514
0.0858223
0.0855688
0.0824635
0.0721144
0.0731289
0.0823816
0.0851265
0.0845799
0.0822995
0.0737996
0.0736998
0.0815868
0.0835072
0.081909
0.0783381
0.0671879
0.0703824
0.0796501
0.0825031
0.0816278
0.0792942
0.0707631
0.0715979
0.0788521
0.0807009
0.0793148
0.0779358
0.0713328
0.0660615
0.0750617
0.0777713
0.0777522
0.0756247
0.0688929
0.0688938
0.0747845
0.0763689
0.0747558
0.0736339
0.0687983
0.0677029
0.0717487
0.0724482
0.070131
0.0686838
0.0631028
0.0635614
0.0675786
0.0684355
0.0650383
0.0646733
0.0616447
0.0568667
0.0607994
0.0618161
0.0586616
0.0582248
0.0558524
0.0517578
0.0526282
0.0525383
0.045205
0.0449192
0.0437167
0.0348616
0.0347576
0.0351866
0.0239819
0.0220398
0.0206178
0.00593342
0.00913182
0.0150022
0.0295578
0.0279367
0.0283298
0.053605
0.051936
0.0512195
0.0693094
0.070767
0.0721964
0.0833184
0.0831499
0.0822526
0.0866918
0.0866227
0.085433
0.0890237
0.0917148
0.0917566
0.0932254
0.0924389
0.0889836
0.0908933
0.0952388
0.0958901
0.0968726
0.0952001
0.090618
0.0872929
0.0944568
0.0967253
0.0984299
0.0969701
0.0894391
0.0867801
0.09489
0.0975076
0.0994254
0.0976773
0.0904419
0.0894223
0.0970221
0.0994517
0.0981743
0.095072
0.0864919
0.08967
0.0977136
0.0998865
0.0995356
0.0966708
0.0881197
0.0851786
0.0945305
0.0979952
0.0997971
0.0975004
0.0888567
0.0872613
0.0964385
0.0994942
0.0977058
0.0938842
0.083803
0.0876966
0.0968689
0.0994556
0.0992758
0.0961193
0.0866383
0.0832389
0.093462
0.0973699
0.099153
0.0965332
0.0875442
0.0866257
0.0959268
0.0991493
0.0972465
0.0932187
0.0829948
0.0867326
0.0961771
0.0989687
0.098886
0.0955682
0.085916
0.0828354
0.0930928
0.097038
0.09892
0.0961173
0.0867294
0.0856056
0.0953124
0.0986738
0.0966731
0.0926792
0.0822423
0.0864358
0.0957032
0.098495
0.0985605
0.0952915
0.0854667
0.0839248
0.0938958
0.0979814
0.0957874
0.0910312
0.0791676
0.0838621
0.0948291
0.0977662
0.097897
0.0941997
0.0827927
0.0790455
0.0909754
0.0956454
0.0978541
0.0945625
0.0838003
0.0824401
0.0934979
0.0976081
0.0954249
0.0907526
0.0783981
0.0834708
0.0946081
0.0975752
0.0977159
0.0940094
0.0825309
0.0789169
0.0908765
0.0955165
0.0977666
0.0943859
0.0834382
0.0820911
0.0937249
0.0975776
0.0954031
0.0907026
0.0787861
0.0837723
0.0945631
0.0978931
0.0979179
0.0938419
0.0826734
0.0788147
0.0908452
0.0957101
0.0978905
0.0946695
0.0835281
0.0825737
0.0936534
0.0978817
0.095893
0.0910507
0.0789377
0.0839922
0.0951943
0.0982859
0.0983853
0.094122
0.0830954
0.0786119
0.0911374
0.0960434
0.0983405
0.0951362
0.083267
0.0811247
0.0929266
0.0971671
0.0996747
0.0967493
0.0864022
0.0858489
0.0961345
0.0997058
0.0976565
0.0933984
0.0826802
0.0867713
0.0968339
0.0998936
0.0997431
0.0960196
0.0855186
0.0824027
0.0934713
0.097876
0.100373
0.0973771
0.0872764
0.0865617
0.096948
0.10053
0.0985738
0.0943413
0.0835026
0.087694
0.0978514
0.100836
0.100713
0.096947
0.0862466
0.0826257
0.0939621
0.0986934
0.101081
0.0979687
0.0875672
0.087103
0.0974587
0.101481
0.0995442
0.0950137
0.0833602
0.087543
0.098932
0.101845
0.100455
0.0964669
0.0851542
0.0889169
0.0995905
0.102582
0.102445
0.0987506
0.0878781
0.0851598
0.0962688
0.100612
0.103036
0.100149
0.0898314
0.0890422
0.09946
0.103245
0.101328
0.0968728
0.0854025
0.0896246
0.100849
0.103685
0.102276
0.0983013
0.0870768
0.0911625
0.10147
0.104456
0.104583
0.101046
0.0907849
0.0880596
0.0986529
0.102828
0.105123
0.102273
0.0922948
0.0914987
0.101537
0.105298
0.103425
0.0990568
0.0877908
0.0916634
0.102851
0.10568
0.104205
0.100189
0.0889304
0.0930714
0.103336
0.106233
0.106556
0.103049
0.0927702
0.0899724
0.100774
0.104931
0.107219
0.104386
0.094206
0.0931159
0.103929
0.107329
0.105194
0.100847
0.0899035
0.09366
0.104547
0.107634
0.10618
0.102297
0.0907303
0.095035
0.105503
0.108438
0.108663
0.104917
0.0946565
0.0914292
0.102566
0.106869
0.109318
0.106517
0.09549
0.0934424
0.104475
0.108312
0.110656
0.107926
0.0977738
0.0965946
0.107067
0.110468
0.108209
0.103912
0.0932465
0.0965567
0.10732
0.110405
0.109352
0.105396
0.0942771
0.0993344
0.109188
0.111903
0.112062
0.108685
0.0984451
0.095365
0.105793
0.110142
0.112592
0.10966
0.0992331
0.0968405
0.107761
0.111487
0.113663
0.111009
0.100998
0.0999154
0.10986
0.113505
0.111349
0.106975
0.0958312
0.0997102
0.110751
0.113518
0.112771
0.109029
0.0981401
0.102549
0.112681
0.115265
0.115388
0.112218
0.101624
0.0985253
0.10904
0.113316
0.115617
0.112759
0.10194
0.0993416
0.110716
0.114398
0.116755
0.114004
0.103286
0.100648
0.111519
0.115293
0.117195
0.11447
0.10438
0.104001
0.114034
0.117493
0.115857
0.111678
0.101179
0.104946
0.115525
0.118314
0.117306
0.113577
0.10278
0.106832
0.116962
0.11957
0.119483
0.116225
0.105586
0.102481
0.11305
0.117365
0.119643
0.116751
0.105695
0.102571
0.11439
0.118167
0.120414
0.117589
0.106393
0.104699
0.115845
0.119546
0.121988
0.119442
0.109366
0.108684
0.118649
0.122179
0.12045
0.116245
0.105416
0.108881
0.120032
0.122722
0.121445
0.117596
0.106434
0.110338
0.121149
0.123766
0.122583
0.119025
0.108303
0.111738
0.121869
0.124517
0.12426
0.120842
0.110342
0.107298
0.118
0.122344
0.124895
0.122105
0.111343
0.109177
0.120325
0.123988
0.126416
0.123869
0.113181
0.111207
0.121893
0.125421
0.127572
0.125082
0.115183
0.114411
0.124214
0.127622
0.12582
0.121697
0.111093
0.114287
0.125231
0.12796
0.126562
0.12269
0.111677
0.115004
0.125976
0.12873
0.127748
0.124026
0.113174
0.117395
0.127428
0.129995
0.130216
0.126605
0.116856
0.113267
0.124423
0.128518
0.130771
0.128162
0.116654
0.114454
0.125823
0.129643
0.131828
0.129386
0.118211
0.116091
0.12717
0.130704
0.13278
0.130242
0.12003
0.119155
0.129068
0.132698
0.130682
0.126405
0.115087
0.118415
0.130009
0.132838
0.13189
0.1278
0.116609
0.120905
0.131866
0.134488
0.133459
0.129785
0.118997
0.122701
0.13328
0.135795
0.134741
0.13128
0.120731
0.124494
0.134349
0.136812
0.13677
0.133661
0.123443
0.120611
0.130659
0.134836
0.137082
0.134305
0.12348
0.120618
0.132202
0.135826
0.138103
0.135333
0.123943
0.121597
0.132976
0.136859
0.139206
0.136591
0.125821
0.124057
0.134694
0.138299
0.140553
0.138109
0.128191
0.127569
0.137254
0.140742
0.13908
0.134947
0.124048
0.127359
0.138714
0.141337
0.140203
0.136291
0.125097
0.128736
0.139907
0.142506
0.141263
0.137576
0.126537
0.130176
0.140888
0.143427
0.142227
0.138628
0.128039
0.131532
0.141614
0.144217
0.144348
0.140751
0.130969
0.127577
0.138562
0.142729
0.14512
0.142408
0.130969
0.128824
0.140039
0.144076
0.146437
0.14391
0.13265
0.130553
0.141637
0.145302
0.147451
0.144917
0.134108
0.131999
0.142771
0.146361
0.148455
0.145933
0.135961
0.134901
0.145322
0.148453
0.146452
0.142218
0.131922
0.13476
0.145892
0.1487
0.147529
0.143855
0.131848
0.136123
0.147528
0.150197
0.149151
0.145348
0.134172
0.137953
0.149009
0.151601
0.150469
0.146819
0.135876
0.139388
0.150134
0.152707
0.151666
0.148101
0.137491
0.141248
0.151344
0.15382
0.153936
0.150269
0.140584
0.136691
0.148096
0.152263
0.154607
0.15176
0.140033
0.137725
0.149048
0.153305
0.155443
0.152791
0.141144
0.138825
0.150272
0.15418
0.156601
0.153918
0.142801
0.140947
0.151851
0.155588
0.157946
0.155365
0.144593
0.14279
0.153468
0.157051
0.159343
0.156874
0.146917
0.146153
0.155971
0.159473
0.157748
0.153559
0.142603
0.146058
0.157389
0.160093
0.158972
0.154953
0.143844
0.147706
0.15888
0.161489
0.160322
0.156574
0.145503
0.14897
0.159977
0.1626
0.161337
0.157593
0.146748
0.150332
0.160985
0.163595
0.162688
0.159139
0.148575
0.152356
0.162438
0.164904
0.165106
0.16148
0.151801
0.148075
0.159362
0.163502
0.165823
0.163055
0.151188
0.14909
0.160504
0.164733
0.167129
0.164562
0.152848
0.150548
0.162185
0.165959
0.168314
0.165734
0.154364
0.152332
0.163505
0.167175
0.169412
0.166824
0.155835
0.153961
0.164785
0.168417
0.170707
0.168224
0.158067
0.157347
0.167288
0.170901
0.169243
0.164982
0.153809
0.157196
0.168887
0.171642
0.170638
0.16657
0.155122
0.159068
0.170642
0.173239
0.172085
0.168282
0.156753
0.160629
0.171905
0.174509
0.173427
0.169753
0.158697
0.162217
0.173175
0.175771
0.174808
0.17117
0.160349
0.164324
0.174579
0.17707
0.177254
0.173482
0.163654
0.159628
0.171451
0.175655
0.178165
0.175286
0.163147
0.161071
0.172566
0.177004
0.179422
0.176762
0.164888
0.162605
0.174367
0.178272
0.180817
0.178154
0.16647
0.164428
0.17589
0.179708
0.182143
0.179496
0.168102
0.166097
0.177273
0.18107
0.183558
0.180971
0.170042
0.168235
0.179048
0.182675
0.185
0.182477
0.172412
0.171547
0.181874
0.185285
0.183602
0.179336
0.168614
0.172091
0.183345
0.186103
0.185135
0.181323
0.169773
0.173886
0.185271
0.187878
0.18682
0.183046
0.1718
0.175574
0.186702
0.189312
0.18825
0.184507
0.173625
0.17731
0.188071
0.190663
0.189724
0.186132
0.175437
0.179398
0.189565
0.192054
0.192274
0.18868
0.178522
0.175269
0.186442
0.190684
0.1932
0.190445
0.178785
0.176367
0.187926
0.192073
0.194648
0.192003
0.18029
0.178253
0.18983
0.193647
0.196135
0.19353
0.18205
0.180194
0.191428
0.195198
0.19782
0.195296
0.184251
0.182543
0.193493
0.197069
0.199457
0.197033
0.186802
0.185479
0.196222
0.199628
0.197898
0.193525
0.182593
0.186291
0.197684
0.200565
0.199481
0.195538
0.183719
0.187874
0.199532
0.202272
0.201195
0.197244
0.185736
0.189845
0.201188
0.203865
0.202916
0.199142
0.188004
0.19186
0.202872
0.205485
0.204694
0.201007
0.19004
0.194412
0.204732
0.207253
0.207745
0.204136
0.193724
0.190678
0.201962
0.206286
0.209045
0.206248
0.194609
0.192471
0.203997
0.208085
0.210699
0.208011
0.196244
0.193863
0.205543
0.209523
0.212008
0.20928
0.19772
0.195626
0.207054
0.210958
0.213653
0.21102
0.199829
0.197893
0.209109
0.212834
0.215341
0.212785
0.2022
0.201496
0.212246
0.215879
0.214359
0.209976
0.19858
0.202368
0.214176
0.217082
0.216192
0.212055
0.200266
0.204772
0.216485
0.219189
0.218459
0.214543
0.20292
0.207894
0.219006
0.221478
0.220743
0.217184
0.206117
0.209644
0.220496
0.223017
0.223102
0.219192
0.208378
0.204694
0.216893
0.221461
0.224145
0.221258
0.208569
0.206328
0.218654
0.223082
0.225909
0.223135
0.210748
0.20845
0.220821
0.22491
0.227775
0.224998
0.213124
0.211015
0.222931
0.226931
0.229701
0.22701
0.215916
0.21499
0.226786
0.23037
0.228756
0.224089
0.212505
0.216807
0.228848
0.231885
0.23129
0.22729
0.214596
0.220294
0.232327
0.23487
0.233857
0.229981
0.217946
0.221536
0.233534
0.236328
0.235182
0.231175
0.219086
0.223589
0.235074
0.237851
0.23816
0.233862
0.222484
0.218821
0.231748
0.236662
0.239711
0.236703
0.223512
0.221207
0.233973
0.238658
0.241667
0.238759
0.226002
0.22388
0.236596
0.240858
0.244197
0.241347
0.229021
0.226964
0.239433
0.24357
0.24663
0.243913
0.232215
0.231921
0.243749
0.247774
0.246708
0.242086
0.22952
0.234226
0.247146
0.249976
0.248574
0.244082
0.231039
0.235328
0.248281
0.251276
0.250068
0.245754
0.232809
0.237475
0.250144
0.253089
0.25213
0.247878
0.235161
0.240104
0.252138
0.255043
0.255651
0.251446
0.239181
0.236017
0.249057
0.254041
0.257252
0.254051
0.240915
0.23866
0.251868
0.256497
0.260096
0.257211
0.244353
0.242286
0.255413
0.259672
0.263146
0.260433
0.248212
0.248651
0.260762
0.264752
0.263355
0.258603
0.245735
0.249583
0.263032
0.266135
0.264612
0.259849
0.246373
0.251046
0.264484
0.267679
0.266556
0.261969
0.248478
0.253759
0.266868
0.269918
0.269186
0.264785
0.251632
0.25709
0.269451
0.272456
0.273335
0.2691
0.256219
0.253544
0.266534
0.271777
0.275227
0.271949
0.258799
0.25646
0.270083
0.27464
0.278736
0.275852
0.262708
0.261043
0.274455
0.278725
0.282601
0.280273
0.268828
0.268596
0.2804
0.283846
0.28176
0.276986
0.264162
0.26758
0.281118
0.284467
0.283171
0.278421
0.264419
0.269922
0.283573
0.286756
0.286001
0.281421
0.267498
0.273364
0.286387
0.289455
0.290458
0.286015
0.272422
0.269539
0.283444
0.288935
0.29252
0.28904
0.275344
0.272823
0.287065
0.291947
0.296167
0.293079
0.279748
0.279656
0.293755
0.298304
0.297626
0.292247
0.277917
0.285278
0.299051
0.30199
0.300738
0.296174
0.281962
0.285964
0.300388
0.303801
0.30227
0.29728
0.282429
0.288118
0.302137
0.305548
0.306268
0.301339
0.28687
0.28352
0.298708
0.3046
0.30859
0.30482
0.289788
0.287184
0.302699
0.307957
0.312321
0.309024
0.294555
0.294076
0.309281
0.31418
0.312902
0.306971
0.29119
0.298482
0.313733
0.317444
0.317772
0.312653
0.297166
0.306636
0.320394
0.323022
0.323925
0.319676
0.305091
0.299559
0.31533
0.321175
0.324446
0.320412
0.304534
0.300816
0.317435
0.323043
0.327233
0.323549
0.308178
0.307194
0.323239
0.328655
0.327102
0.320647
0.303809
0.311077
0.327628
0.331762
0.331229
0.325366
0.308404
0.3172
0.332892
0.336409
0.339066
0.333756
0.317165
0.314899
0.33214
0.338449
0.344347
0.341148
0.32634
0.324162
0.339248
0.344074
0.347726
0.344288
0.328759
0.325591
0.342408
0.347556
0.34494
0.338296
0.32105
0.327961
0.344974
0.349381
0.348375
0.342486
0.324537
0.332982
0.34943
0.353292
0.355363
0.34968
0.332434
0.329431
0.347308
0.354153
0.359484
0.355321
0.338266
0.336661
0.354225
0.360139
0.366677
0.363858
0.34905
0.352251
0.36728
0.371096
0.369764
0.364517
0.348838
0.352406
0.368824
0.372973
0.372459
0.366785
0.348579
0.343932
0.362594
0.369864
0.375119
0.370533
0.352332
0.349071
0.368355
0.374481
0.380234
0.376265
0.358915
0.359097
0.37749
0.383255
0.382724
0.375699
0.356791
0.3673
0.3845
0.388572
0.3932
0.387922
0.369276
0.369316
0.387637
0.393752
0.399758
0.395794
0.378013
0.372816
0.393222
0.399291
0.395751
0.38774
0.366593
0.375276
0.395472
0.400838
0.399584
0.3925
0.371457
0.382507
0.401303
0.405801
0.409063
0.402679
0.382926
0.381064
0.40126
0.408887
0.415668
0.411481
0.393734
0.397275
0.416295
0.421465
0.422713
0.416832
0.398268
0.407089
0.425173
0.428965
0.428223
0.422091
0.401332
0.394482
0.416556
0.424853
0.429927
0.424551
0.404271
0.402676
0.42452
0.431595
0.430756
0.422153
0.399647
0.413625
0.433725
0.43863
0.444334
0.437673
0.415926
0.418361
0.439866
0.447036
0.456326
0.453593
0.436042
0.432618
0.453006
0.45798
0.4568
0.448897
0.425359
0.416049
0.442762
0.452786
0.458702
0.452618
0.428478
0.427141
0.453356
0.461423
0.461585
0.451925
0.425276
0.446183
0.467516
0.472228
0.482377
0.478129
0.455581
0.45915
0.481968
0.487829
0.483745
0.474442
0.447586
0.455412
0.480923
0.487725
0.486815
0.478599
0.449479
0.4468
0.47706
0.488004
0.488028
0.475711
0.443169
0.4712
0.495599
0.499864
0.511297
0.506508
0.482006
0.481606
0.508126
0.515438
0.509419
0.498131
0.465734
0.476595
0.505745
0.513287
0.513724
0.505159
0.472506
0.47232
0.507655
0.517982
0.528596
0.519256
0.482794
0.482631
0.517575
0.528191
0.53606
0.526651
0.493912
0.481578
0.52105
0.532491
0.532187
0.51941
0.4757
0.478571
0.525141
0.536971
0.542176
0.528832
0.480081
0.468899
0.523704
0.540586
0.52907
0.508103
0.451397
0.48335
0.523203
0.536071
0.53327
0.52188
0.480682
0.469989
0.516676
0.530606
0.524369
0.507948
0.451887
0.434231
0.495819
0.514402
0.502337
0.481312
0.414228
0.391174
0.465899
0.490153
0.47895
0.451846
0.371186
0.355165
0.440149
0.46964
0.461828
0.430042
0.341518
0.329409
0.420849
0.454875
0.448475
0.412288
0.318485
0.308625
0.404262
0.442501
0.436881
0.396717
0.29963
0.291421
0.389609
0.431557
0.426496
0.382907
0.283938
0.277106
0.376574
0.421658
0.417027
0.370603
0.270898
0.265271
0.364986
0.412591
0.408335
0.359697
0.260155
0.255511
0.354718
0.404239
0.400295
0.350028
0.251295
0.247483
0.345623
0.39649
0.392818
0.341481
0.244042
0.240946
0.337593
0.389269
0.385837
0.333939
0.238163
0.23567
0.33051
0.382515
0.379303
0.32729
0.233437
0.23145
0.324275
0.376198
0.373198
0.321448
0.229686
0.228126
0.318801
0.370295
0.367488
0.316322
0.226747
0.225537
0.314004
0.364777
0.362159
0.311836
0.224476
0.223551
0.309809
0.359637
0.357205
0.307905
0.222746
0.222051
0.306122
0.354867
0.352619
0.304447
0.221452
0.220943
0.302879
0.350463
0.348391
0.301406
0.220511
0.220149
0.300026
0.34641
0.344512
0.298731
0.219849
0.219604
0.297519
0.342703
0.340972
0.296381
0.219408
0.219254
0.295314
0.339326
0.337755
0.294311
0.219132
0.219043
0.29337
0.336266
0.334846
0.292481
0.218985
0.218945
0.291644
0.333499
0.332216
0.29085
0.218932
0.21893
0.290106
0.331002
0.329848
0.289401
0.218945
0.218961
0.28874
0.328755
0.327716
0.288113
0.21899
0.219018
0.287529
0.326736
0.325805
0.286974
0.219054
0.219084
0.286456
0.324926
0.32409
0.285965
0.219121
0.219152
0.285508
0.323305
0.322557
0.285075
0.219187
0.219213
0.284671
0.321853
0.321183
0.284288
0.219243
0.219268
0.283936
0.320557
0.319961
0.283603
0.219297
0.219314
0.283293
0.3194
0.318864
0.282997
0.219332
0.219344
0.282723
0.318363
0.317884
0.282464
0.219359
0.219364
0.282221
0.317434
0.317001
0.28199
0.219371
0.219373
0.281777
0.316598
0.31621
0.281574
0.219379
0.219377
0.281382
0.315845
0.315493
0.281198
0.219378
0.219376
0.281027
0.315164
0.314848
0.280863
0.219376
0.219369
0.280708
0.314548
0.314259
0.280559
0.219364
0.219356
0.28042
0.313989
0.313728
0.280288
0.219351
0.219339
0.280163
0.313481
0.313242
0.280042
0.219329
0.219317
0.27993
0.313019
0.312803
0.279824
0.219307
0.219293
0.279721
0.312599
0.3124
0.279622
0.219278
0.219263
0.279531
0.312215
0.312037
0.279445
0.21925
0.219234
0.279362
0.311866
0.311704
0.279282
0.219219
0.219203
0.279208
0.311548
0.311406
0.27914
0.219191
0.219178
0.279076
0.311265
0.311137
0.279015
0.219166
0.219152
0.278957
0.311006
0.310893
0.278905
0.219142
0.219132
0.278856
0.310775
0.310674
0.278811
0.219125
0.219117
0.27877
0.310566
0.310477
0.278732
0.219113
0.219109
0.278699
0.310379
0.310301
0.278668
0.219109
0.219107
0.27864
0.310212
0.310144
0.278616
0.219112
0.219115
0.278594
0.310063
0.310005
0.278577
0.219123
0.219131
0.27856
0.309932
0.309883
0.278551
0.219145
0.219158
0.278541
0.309819
0.309779
0.278538
0.219177
0.219195
0.278534
0.309721
0.30969
0.278537
0.219219
0.219243
0.278539
0.30964
0.309617
0.278548
0.219272
0.2193
0.278556
0.309573
0.309559
0.278571
0.219334
0.219367
0.278584
0.309522
0.309515
0.278604
0.219405
0.219443
0.278622
0.309483
0.309485
0.278647
0.219485
0.219528
0.278671
0.309459
0.309468
0.2787
0.219574
0.21962
0.278728
0.309446
0.309462
0.278762
0.21967
0.21972
0.278794
0.309446
0.309468
0.278832
0.219773
0.219826
0.278869
0.309456
0.309484
0.278911
0.219883
0.21994
0.278951
0.309479
0.30951
0.278996
0.219998
0.220057
0.27904
0.309509
0.309546
0.279089
0.220119
0.220181
0.279136
0.30955
0.309591
0.279188
0.220245
0.220309
0.279239
0.309599
0.309645
0.279293
0.220374
0.22044
0.279346
0.309656
0.309706
0.279404
0.220508
0.220576
0.27946
0.309721
0.309776
0.279521
0.220647
0.220718
0.279581
0.309795
0.309853
0.279644
0.220789
0.220862
0.279705
0.309875
0.309938
0.279771
0.220935
0.22101
0.279836
0.309963
0.310029
0.279904
0.221085
0.221161
0.279972
0.310058
0.310128
0.280042
0.221238
0.221315
0.280112
0.310159
0.310232
0.280184
0.221392
0.22147
0.280255
0.310265
0.310341
0.28033
0.221549
0.221628
0.280403
0.310378
0.310456
0.280479
0.221708
0.221787
0.280554
0.310495
0.310576
0.280631
0.221867
0.221946
0.280706
0.310616
0.310698
0.280785
0.222026
0.222106
0.280861
0.31074
0.310825
0.280941
0.222186
0.222267
0.281019
0.310869
0.310955
0.281099
0.222346
0.222427
0.281177