/*--------------------------------*- C++ -*----------------------------------*\
| =========                 |                                                 |
| \\      /  F ield         | OpenFOAM: The Open Source CFD Toolbox           |
|  \\    /   O peration     | Version:  v2006                                 |
|   \\  /    A nd           | Website:  www.openfoam.com                      |
|    \\/     M anipulation  |                                                 |
\*---------------------------------------------------------------------------*/
FoamFile
{
    version     2.0;
    format      ascii;
    class       volScalarField;
    location    "0.149";
    object      nut;
}
// * * * * * * * * * * * * * * * * * * * * * * * * * * * * * * * * * * * * * //

dimensions      [0 2 -1 0 0 0 0];


internalField   nonuniform List<scalar> 
16277
(
21.9194
14.9968
53.0112
10.8063
15.9197
9.02185
3.70897
1.5208
0.820064
0.553269
0.435015
0.375055
0.339165
0.313108
0.291201
0.271511
0.253596
0.23748
0.223183
0.210607
0.199558
0.189807
0.181132
0.173345
0.166298
0.159875
0.15399
0.148576
0.143578
0.138953
0.134664
0.130679
0.126973
0.123522
0.120306
0.117308
0.114513
0.111907
0.10948
0.107219
0.105117
0.103165
0.101355
0.0996817
0.0981394
0.0967232
0.095429
0.0942534
0.0931938
0.0922482
0.0914152
0.0906941
0.090085
0.0895881
0.0892032
0.0889343
0.0887838
0.0887552
0.0888534
0.0890803
0.0894437
0.089951
0.0906113
0.0914354
0.0924359
0.0936273
0.0950277
0.0966585
0.0985468
0.100728
0.103249
0.10617
0.10957
0.113542
0.118177
0.123536
0.129624
0.136394
0.143907
0.152823
0.16545
0.188337
0.238307
0.359181
0.668981
1.40665
2.48425
2.65697
1.57429
1.03997
0.511949
0.233395
0.126894
0.0598644
0.0141836
0.00255185
8.45544e-05
7.33876e-05
0.00119942
0.00552394
0.00304386
0.000777233
6.42809e-05
5.75593e-05
0.000708652
0.00255971
0.0020425
0.000609132
5.31903e-05
4.9764e-05
0.000590343
0.001937
0.00167605
0.000531765
4.68455e-05
4.48783e-05
0.000522631
0.00163262
0.00148599
0.000487044
4.29387e-05
4.18902e-05
0.000489988
0.00147089
0.00137593
0.000463935
4.0609e-05
3.99202e-05
0.000468105
0.00136752
0.00129543
0.000447125
3.89748e-05
3.84986e-05
0.000451262
0.00129167
0.00123209
0.000433465
3.77598e-05
3.74143e-05
0.000437483
0.00123092
0.0011793
0.000421821
3.68143e-05
3.65546e-05
0.000425823
0.0011798
0.00113385
0.000411597
3.60471e-05
3.58422e-05
0.000415614
0.00113545
0.00109377
0.000402367
3.53964e-05
3.52294e-05
0.000406336
0.00109609
0.00105777
0.000393854
3.48287e-05
3.46882e-05
0.000397773
0.00106061
0.00102507
0.000385931
3.43203e-05
3.41986e-05
0.000389809
0.00102829
0.000995102
0.000378524
3.38555e-05
3.37475e-05
0.000382367
0.00099866
0.000967437
0.00037157
3.34239e-05
3.33264e-05
0.000375375
0.000971297
0.000941811
0.00036501
3.30184e-05
3.2929e-05
0.000368776
0.000945928
0.000917993
0.000358798
3.26338e-05
3.25508e-05
0.000362527
0.000922336
0.000895815
0.000352903
3.22662e-05
3.21883e-05
0.000356602
0.000900358
0.000875123
0.000347311
3.19127e-05
3.18392e-05
0.000350982
0.000879829
0.000855755
0.000341999
3.15714e-05
3.15017e-05
0.000345639
0.000860584
0.000837548
0.000336934
3.12406e-05
3.11742e-05
0.000340542
0.000842465
0.000820361
0.00033209
3.09186e-05
3.0855e-05
0.000335663
0.000825338
0.00080407
0.000327439
3.06039e-05
3.05426e-05
0.000330974
0.000809084
0.000788571
0.000322955
3.0295e-05
3.02355e-05
0.000326448
0.000793599
0.000773765
0.000318612
2.99905e-05
2.99324e-05
0.00032206
0.000778788
0.000759571
0.000314387
2.96891e-05
2.9632e-05
0.000317786
0.000764575
0.000745919
0.000310259
2.93894e-05
2.93329e-05
0.000313609
0.00075089
0.000732745
0.000306211
2.90905e-05
2.90341e-05
0.000309509
0.000737671
0.000719994
0.000302229
2.8791e-05
2.87346e-05
0.000305475
0.000724869
0.00070762
0.0002983
2.849e-05
2.84331e-05
0.000301493
0.000712441
0.000695594
0.000294414
2.81866e-05
2.8129e-05
0.000297555
0.000700358
0.000683887
0.000290566
2.78797e-05
2.78213e-05
0.000293656
0.000688595
0.000672482
0.000286751
2.75688e-05
2.75094e-05
0.000289803
0.000677138
0.000661365
0.000282973
2.7253e-05
2.71927e-05
0.000286018
0.000665979
0.000650538
0.000279244
2.69323e-05
2.68711e-05
0.000282272
0.000655117
0.000639997
0.000275549
2.66061e-05
2.6544e-05
0.000278574
0.000644549
0.000629746
0.000271903
2.62742e-05
2.62114e-05
0.000274937
0.000634287
0.000619802
0.000268321
2.59366e-05
2.58732e-05
0.00027138
0.000624354
0.0006102
0.000264825
2.55935e-05
2.55301e-05
0.000267927
0.000614792
0.000600986
0.000261441
2.52458e-05
2.51828e-05
0.000264613
0.000605738
0.000592258
0.000258211
2.48945e-05
2.48328e-05
0.000261483
0.000597275
0.000584095
0.000255186
2.45415e-05
2.44822e-05
0.000258589
0.000589411
0.000576568
0.000252416
2.41892e-05
2.41339e-05
0.00025599
0.000582282
0.000569824
0.00024997
2.38409e-05
2.37912e-05
0.000253761
0.00057605
0.000564036
0.000247929
2.35002e-05
2.34592e-05
0.000251988
0.000570897
0.000559399
0.000246397
2.31721e-05
2.31443e-05
0.000250712
0.00056702
0.000556136
0.000245444
2.28667e-05
2.28482e-05
0.000249832
0.000564564
0.000554315
0.000244845
2.25962e-05
2.25805e-05
0.000249371
0.000563811
0.000554214
0.000244737
2.23597e-05
2.23464e-05
0.000249399
0.000564773
0.000555808
0.000245155
2.21769e-05
2.21544e-05
0.000249899
0.000567345
0.000559036
0.000246088
2.20458e-05
2.20165e-05
0.000250805
0.000571305
0.000563589
0.000247298
2.19202e-05
2.19335e-05
0.000251938
0.000576547
0.0005694
0.00024858
2.18388e-05
2.18885e-05
0.00025306
0.000582868
0.000576191
0.000249887
2.18046e-05
2.18982e-05
0.000254003
0.000589534
0.00058311
0.000251019
2.18289e-05
2.19531e-05
0.000254782
0.000595926
0.00058963
0.000251841
2.18982e-05
2.20461e-05
0.000255527
0.000601755
0.000595579
0.000252498
2.20059e-05
2.21749e-05
0.000256122
0.000606889
0.000600856
0.000253103
2.21489e-05
2.23347e-05
0.000256662
0.000611278
0.000605358
0.000253439
2.23206e-05
2.25163e-05
0.000257065
0.000614997
0.000608951
0.000253658
2.25132e-05
2.27138e-05
0.000257337
0.000617891
0.00061147
0.000253773
2.27201e-05
2.29203e-05
0.000257478
0.000620332
0.000613222
0.000253817
2.29342e-05
2.3129e-05
0.000257536
0.000621819
0.000614013
0.000253663
2.3149e-05
2.33345e-05
0.000257514
0.000622298
0.00061335
0.000253244
2.33588e-05
2.35312e-05
0.000257113
0.000621523
0.000611914
0.000252693
2.35567e-05
2.37121e-05
0.00025657
0.00061992
0.000609865
0.000252076
2.37371e-05
2.38735e-05
0.000255945
0.000617612
0.00060723
0.000251439
2.38966e-05
2.4013e-05
0.00025526
0.000614642
0.000604075
0.000250803
2.4033e-05
2.41295e-05
0.000254553
0.000611113
0.000600499
0.000250187
2.41459e-05
2.42238e-05
0.000253844
0.000607146
0.000596576
0.000249591
2.42361e-05
2.42972e-05
0.00025313
0.000602804
0.00059237
0.000249001
2.43052e-05
2.43476e-05
0.000252409
0.000598204
0.000587906
0.000248408
2.4354e-05
2.43826e-05
0.000251673
0.00059348
0.00058334
0.000247794
2.43873e-05
2.44045e-05
0.000250918
0.000588692
0.000578739
0.00024716
2.44072e-05
2.44178e-05
0.000250155
0.000583952
0.000574108
0.000246458
2.4415e-05
2.44215e-05
0.000249371
0.000579223
0.000569458
0.000245685
2.44085e-05
2.4413e-05
0.000248563
0.000574488
0.000564816
0.000244898
2.43935e-05
2.43977e-05
0.000247746
0.00056976
0.00056019
0.00024409
2.43734e-05
2.43761e-05
0.000246893
0.000565054
0.000555583
0.000243252
2.43464e-05
2.4348e-05
0.000246008
0.000560357
0.000550913
0.000242387
2.43162e-05
2.43182e-05
0.000245122
0.000555654
0.00054624
0.000241492
2.42825e-05
2.42826e-05
0.000244149
0.000550931
0.000541564
0.000240529
2.42445e-05
2.42423e-05
0.000243165
0.000546227
0.000536939
0.000239549
2.42022e-05
2.41997e-05
0.000242167
0.000541566
0.000532299
0.000238522
2.41467e-05
2.41648e-05
0.000241151
0.000536945
0.000527336
0.000237463
2.40879e-05
2.41171e-05
0.000239859
0.000532526
0.00052317
0.000235761
2.3999e-05
2.41444e-05
0.00023999
0.000531069
0.000524613
0.000239693
2.40854e-05
2.44774e-05
0.000240116
0.000530561
0.00055563
0.000252488
2.46588e-05
2.627e-05
0.000236783
0.000540168
0.000824843
0.000343977
2.96304e-05
3.19778e-05
0.000178482
0.000409689
0.00101066
0.00231581
0.0043291
0.00617187
0.00743285
0.00976999
0.0112622
0.0126011
0.0133549
0.0137155
0.0136142
0.0130085
0.0121463
0.0107632
0.00940718
0.0073513
0.00642323
0.00467392
0.00349691
0.00237524
0.00135006
0.000620232
0.00022626
9.42148e-05
1.81914e-05
1.18613e-05
8.73096e-05
0.000204653
0.000193019
8.28724e-05
1.13913e-05
1.09333e-05
7.98183e-05
0.000183734
0.000184054
7.85828e-05
1.08111e-05
1.07351e-05
7.81201e-05
0.000181129
0.000181228
7.73636e-05
1.06284e-05
1.06227e-05
7.73462e-05
0.000181034
0.000181532
7.73786e-05
1.06385e-05
1.06399e-05
7.74804e-05
0.000181917
0.000182199
7.76142e-05
1.06565e-05
1.0662e-05
7.77396e-05
0.000182758
0.000183032
7.78739e-05
1.0672e-05
1.06922e-05
7.80064e-05
0.000183604
0.000183907
7.8126e-05
1.06862e-05
1.07037e-05
7.82906e-05
0.000184477
0.000184798
7.84075e-05
1.07121e-05
1.07306e-05
7.85855e-05
0.000185404
0.000185732
7.86816e-05
1.07313e-05
1.07365e-05
7.89341e-05
0.0001864
0.000186707
7.89903e-05
1.0761e-05
1.07651e-05
7.92211e-05
0.000187386
0.00018771
7.93223e-05
1.07748e-05
1.07798e-05
7.95596e-05
0.000188393
0.000188705
7.96347e-05
1.0805e-05
1.08081e-05
7.98596e-05
0.000189395
0.000189732
7.99825e-05
1.08194e-05
1.08233e-05
8.02233e-05
0.000190465
0.000190809
8.03227e-05
1.08492e-05
1.08542e-05
8.05714e-05
0.000191562
0.000191912
8.07015e-05
1.08664e-05
1.08701e-05
8.09469e-05
0.000192685
0.000193043
8.10561e-05
1.0897e-05
1.09029e-05
8.13099e-05
0.000193795
0.000194144
8.14322e-05
1.09142e-05
1.09186e-05
8.16897e-05
0.000194915
0.000195275
8.18436e-05
1.09383e-05
1.09584e-05
8.20492e-05
0.000196076
0.000196462
8.21989e-05
1.0962e-05
1.0969e-05
8.25043e-05
0.000197306
0.000197694
8.26532e-05
1.0989e-05
1.10105e-05
8.28777e-05
0.000198514
0.000198898
8.30244e-05
1.10144e-05
1.10216e-05
8.33375e-05
0.00019972
0.0002001
8.34783e-05
1.10406e-05
1.10625e-05
8.37213e-05
0.000200931
0.00020132
8.38734e-05
1.10664e-05
1.10732e-05
8.42023e-05
0.000202186
0.00020259
8.43557e-05
1.10929e-05
1.11162e-05
8.46097e-05
0.000203433
0.000203819
8.47501e-05
1.11197e-05
1.11268e-05
8.50784e-05
0.00020467
0.000205049
8.52239e-05
1.11459e-05
1.11691e-05
8.54703e-05
0.000205872
0.000206213
8.55868e-05
1.1171e-05
1.11776e-05
8.59169e-05
0.000207026
0.000207379
8.60374e-05
1.11958e-05
1.12175e-05
8.62728e-05
0.000208158
0.000208499
8.63744e-05
1.12178e-05
1.12237e-05
8.66794e-05
0.000209273
0.000209606
8.6777e-05
1.12422e-05
1.12623e-05
8.69661e-05
0.000210336
0.000210565
8.70178e-05
1.12608e-05
1.12631e-05
8.72478e-05
0.00021117
0.000211361
8.72114e-05
1.12831e-05
1.1282e-05
8.73575e-05
0.000211893
0.000212102
8.73172e-05
1.12858e-05
1.12833e-05
8.74113e-05
0.000212565
0.000212653
8.72929e-05
1.13012e-05
1.12951e-05
8.72721e-05
0.000212916
0.000212901
8.70774e-05
1.12931e-05
1.1281e-05
8.69723e-05
0.000212995
0.000212935
8.6711e-05
1.12825e-05
1.12836e-05
8.64377e-05
0.000212965
0.000212771
8.6077e-05
1.12679e-05
1.12539e-05
8.57778e-05
0.000212773
0.000212348
8.53075e-05
1.12537e-05
1.12504e-05
8.47821e-05
0.000212154
0.000211442
8.41363e-05
1.12283e-05
1.12073e-05
8.35957e-05
0.000211192
0.000210394
8.28137e-05
1.12087e-05
1.11927e-05
8.21829e-05
0.000210247
0.000209345
8.13368e-05
1.11849e-05
1.11734e-05
8.06221e-05
0.000209135
0.000208032
7.96852e-05
1.11777e-05
1.11919e-05
7.88673e-05
0.000207961
0.000207029
7.79564e-05
1.11979e-05
1.12239e-05
7.71905e-05
0.000206965
0.000205878
7.62726e-05
1.12526e-05
1.13006e-05
7.56164e-05
0.00020608
0.000206006
7.49087e-05
1.13649e-05
1.14612e-05
7.45524e-05
0.000207342
0.000208371
7.38135e-05
1.15711e-05
1.16737e-05
7.31986e-05
0.000210364
0.000213604
7.40368e-05
1.17921e-05
1.19087e-05
7.44021e-05
0.000216358
0.000217976
7.39746e-05
1.19405e-05
1.20254e-05
7.26159e-05
0.000221182
0.000224837
7.65023e-05
1.21983e-05
1.23157e-05
7.42174e-05
0.000227845
0.000230776
7.60432e-05
1.25145e-05
1.26605e-05
7.69779e-05
0.000236231
0.000237799
7.86216e-05
1.28712e-05
1.31757e-05
8.28979e-05
0.000245564
0.000247211
8.50971e-05
1.34756e-05
1.373e-05
8.87341e-05
0.000253949
0.000255656
9.18414e-05
1.42338e-05
1.52949e-05
0.000106372
0.000266769
0.000264814
0.000112446
1.14842e-05
8.90161e-06
2.76896e-05
7.42154e-05
0.000207747
6.45186e-05
1.03979e-05
1.09036e-05
5.7743e-05
0.000190753
0.000200949
5.99657e-05
1.11754e-05
1.13673e-05
5.67085e-05
0.000192194
0.00020721
6.10988e-05
1.16907e-05
1.20319e-05
6.02836e-05
0.000204459
0.000225095
6.87884e-05
1.24452e-05
1.28882e-05
6.84075e-05
0.000220594
0.00024131
7.96949e-05
1.34306e-05
1.41391e-05
8.17281e-05
0.000242748
0.00027051
9.84468e-05
1.55701e-05
1.18898e-05
0.000109048
0.000278392
7.52156e-05
2.58621e-05
9.43489e-06
1.13336e-05
7.01717e-05
0.000233475
0.000228242
6.51599e-05
1.23409e-05
1.30989e-05
8.51173e-05
0.000281248
0.000286554
8.59237e-05
1.36285e-05
1.43985e-05
9.99872e-05
0.000318657
0.000327629
0.000106955
1.53923e-05
1.72625e-05
0.000127957
0.000358406
0.000348687
0.000137959
1.33963e-05
1.00703e-05
3.12037e-05
9.22936e-05
0.000282649
8.35472e-05
1.20405e-05
1.30256e-05
7.76712e-05
0.000277209
0.000318659
9.57156e-05
1.38822e-05
1.48634e-05
9.59515e-05
0.0003143
0.000357077
0.00012245
1.7123e-05
1.37374e-05
0.000142779
0.000358928
9.70753e-05
3.16979e-05
1.03161e-05
1.26569e-05
8.82849e-05
0.000321473
0.000331437
9.2786e-05
1.42718e-05
1.65812e-05
0.0001316
0.000427082
0.000446694
0.000153944
1.9315e-05
1.58541e-05
0.000179381
0.000450124
0.000125259
3.7458e-05
1.08798e-05
1.38745e-05
0.000118535
0.000401425
0.000398891
0.000114764
1.61365e-05
2.02751e-05
0.00017115
0.000503097
0.000510841
0.000199901
1.68095e-05
1.14655e-05
4.24652e-05
0.000155536
0.000518125
0.000152706
1.61154e-05
2.03097e-05
0.000161172
0.000557509
0.000772344
0.000271825
2.77722e-05
2.31012e-05
0.00028961
0.000741979
0.000262144
6.88088e-05
1.50808e-05
2.69097e-05
0.000281594
0.000809774
0.000810855
0.000300977
2.51252e-05
1.69406e-05
7.70095e-05
0.000318695
0.00111931
0.000371956
3.72763e-05
3.6803e-05
0.000428995
0.00121563
0.000553375
0.000152849
2.33844e-05
3.72131e-05
0.000497397
0.00144981
0.000957663
0.000317511
2.478e-05
4.59975e-05
0.00055983
0.00112933
0.000968726
0.000468337
3.78188e-05
3.83131e-05
0.000446464
0.00106255
0.00136306
0.000492823
4.39664e-05
6.07718e-05
0.000920435
0.00227243
0.000506501
0.000157502
3.45624e-05
3.53875e-05
0.000441673
0.00101219
0.00031302
0.000111898
2.46863e-05
2.67461e-05
0.00027293
0.000656269
0.000560943
0.000201791
2.69444e-05
1.51394e-05
5.23993e-05
0.000160311
0.000377054
0.000214202
1.77409e-05
1.67135e-05
6.77208e-05
0.00017219
0.000416822
0.000181598
1.90887e-05
2.04111e-05
0.000147878
0.000377548
0.000122948
4.61106e-05
1.35109e-05
1.60795e-05
0.000145423
0.000327345
0.000300631
0.000121727
1.8069e-05
1.25938e-05
3.95966e-05
0.000100692
0.000278222
0.000123953
1.46116e-05
1.68337e-05
0.000107662
0.000255414
8.81568e-05
3.68967e-05
1.22254e-05
1.37512e-05
0.000109464
0.000244474
0.000221316
9.64469e-05
1.61246e-05
1.19883e-05
3.41455e-05
7.91579e-05
0.000215922
9.91103e-05
1.30374e-05
1.56251e-05
8.7472e-05
0.00019688
7.12448e-05
3.22039e-05
1.18327e-05
1.26522e-05
9.17916e-05
0.000195267
0.000176156
8.0649e-05
1.51057e-05
1.16174e-05
3.03892e-05
6.65225e-05
0.00017819
8.53518e-05
1.2133e-05
1.47945e-05
7.56359e-05
0.000162693
6.424e-05
3.01828e-05
1.16713e-05
1.21784e-05
8.64625e-05
0.000173924
0.00014675
6.9493e-05
1.52893e-05
1.2771e-05
5.49711e-05
0.000118853
4.66661e-05
2.1866e-05
1.06959e-05
1.02059e-05
5.7844e-05
0.000117678
0.000111215
5.36614e-05
1.29667e-05
1.03591e-05
2.17707e-05
4.58725e-05
0.000109794
5.60128e-05
9.97535e-06
1.28975e-05
5.15417e-05
0.000102338
4.27222e-05
2.14963e-05
1.05639e-05
9.77332e-06
5.16798e-05
9.73875e-05
9.25603e-05
4.89626e-05
1.2489e-05
1.01689e-05
2.04085e-05
4.04031e-05
9.16449e-05
4.98672e-05
9.62226e-06
1.24552e-05
4.71653e-05
8.67286e-05
3.90805e-05
1.99972e-05
1.00886e-05
9.39759e-06
4.62532e-05
8.48553e-05
8.12806e-05
4.51043e-05
1.22801e-05
1.02821e-05
1.92932e-05
3.63522e-05
7.95098e-05
4.46671e-05
9.2694e-06
1.21166e-05
4.22307e-05
7.51383e-05
3.49551e-05
1.89133e-05
1.01059e-05
9.03551e-06
4.17879e-05
7.18064e-05
6.98463e-05
3.98711e-05
1.19325e-05
1.00359e-05
1.73285e-05
3.15342e-05
6.25517e-05
4.76608e-05
8.73101e-06
1.1127e-05
2.20474e-05
3.64001e-05
8.29252e-05
4.70114e-05
9.90705e-06
1.25048e-05
4.38034e-05
7.7029e-05
3.71994e-05
2.14934e-05
1.02674e-05
9.43373e-06
4.58052e-05
7.68424e-05
7.25082e-05
4.23967e-05
1.24187e-05
1.02977e-05
2.11693e-05
3.58148e-05
7.49783e-05
4.50888e-05
9.35445e-06
1.22177e-05
4.20805e-05
7.1112e-05
3.51478e-05
2.12948e-05
1.02038e-05
9.32373e-06
4.28735e-05
6.85106e-05
6.48281e-05
3.87825e-05
1.23599e-05
1.02477e-05
2.07359e-05
3.2783e-05
6.32107e-05
3.98214e-05
9.01351e-06
1.1919e-05
3.63648e-05
5.88591e-05
2.93557e-05
1.90448e-05
1.00044e-05
8.49976e-06
4.04613e-05
5.28336e-05
3.20788e-05
2.20734e-05
1.09863e-05
9.70319e-06
3.87745e-05
6.30234e-05
5.77733e-05
3.54228e-05
1.23737e-05
1.01267e-05
2.12528e-05
3.09294e-05
5.75457e-05
3.75485e-05
9.04568e-06
1.19848e-05
3.46198e-05
5.21182e-05
2.79262e-05
1.99435e-05
1.0074e-05
8.45454e-06
3.72245e-05
4.74377e-05
3.0002e-05
2.19097e-05
1.10885e-05
9.63606e-06
3.72231e-05
5.76636e-05
5.23495e-05
3.38926e-05
1.22413e-05
1.00769e-05
2.14702e-05
2.93551e-05
5.43061e-05
3.62058e-05
9.01152e-06
1.19738e-05
3.29365e-05
4.92866e-05
2.68514e-05
2.00008e-05
1.00313e-05
8.42808e-06
3.49219e-05
4.36903e-05
2.82391e-05
2.15627e-05
1.11076e-05
9.5311e-06
3.47462e-05
5.32928e-05
4.80121e-05
3.19312e-05
1.2206e-05
1.00681e-05
2.13846e-05
2.73147e-05
4.88117e-05
3.33275e-05
8.97016e-06
1.18801e-05
3.05005e-05
4.43446e-05
2.4968e-05
1.97128e-05
9.68534e-06
8.3785e-06
3.14356e-05
3.90475e-05
2.60202e-05
2.08225e-05
1.10917e-05
9.38145e-06
3.20738e-05
4.75406e-05
4.25256e-05
2.91804e-05
1.2052e-05
9.84273e-06
2.0087e-05
2.44101e-05
3.80982e-05
3.17919e-05
8.17517e-06
1.09302e-05
2.14224e-05
2.58016e-05
4.69931e-05
3.10714e-05
9.24945e-06
1.21081e-05
2.87462e-05
4.21617e-05
2.46571e-05
2.07183e-05
9.90302e-06
8.3824e-06
3.10767e-05
3.79283e-05
2.59925e-05
2.18136e-05
1.104e-05
9.20403e-06
3.14974e-05
4.64453e-05
4.15602e-05
2.89018e-05
1.20269e-05
9.77595e-06
2.06756e-05
2.43683e-05
3.73956e-05
3.14089e-05
8.1674e-06
1.10785e-05
2.19051e-05
2.57018e-05
4.55387e-05
3.07048e-05
9.35899e-06
1.2241e-05
2.85621e-05
4.09933e-05
2.44171e-05
2.12597e-05
1.01326e-05
8.38402e-06
3.15376e-05
3.6771e-05
2.56082e-05
2.24832e-05
1.10677e-05
9.29835e-06
3.02714e-05
4.48202e-05
4.01149e-05
2.80101e-05
1.2052e-05
9.79083e-06
2.11268e-05
2.39014e-05
3.55818e-05
3.06493e-05
8.28345e-06
1.09464e-05
2.27516e-05
2.55196e-05
3.87504e-05
2.98208e-05
8.78756e-06
1.13725e-05
2.31071e-05
2.68407e-05
4.56816e-05
3.04862e-05
9.53147e-06
1.21278e-05
2.83981e-05
4.07334e-05
2.46511e-05
2.17912e-05
9.90306e-06
8.23662e-06
3.13427e-05
3.64327e-05
2.574e-05
2.32896e-05
1.11518e-05
9.35323e-06
3.01352e-05
4.40349e-05
3.95479e-05
2.81155e-05
1.21568e-05
9.80934e-06
2.17188e-05
2.40207e-05
3.51255e-05
3.04265e-05
8.40998e-06
1.11089e-05
2.31867e-05
2.56399e-05
3.81295e-05
2.95882e-05
8.98866e-06
1.13421e-05
2.37435e-05
2.68248e-05
4.4906e-05
3.02404e-05
9.38622e-06
1.21703e-05
2.83237e-05
4.00733e-05
2.46936e-05
2.25408e-05
1.01203e-05
8.29373e-06
3.16635e-05
3.57865e-05
2.65152e-05
2.45171e-05
1.11508e-05
8.94624e-06
3.04387e-05
3.91041e-05
2.77076e-05
2.50169e-05
1.14703e-05
9.56977e-06
3.06177e-05
4.58098e-05
4.09213e-05
2.884e-05
1.238e-05
9.99798e-06
2.32199e-05
2.53557e-05
3.64027e-05
3.23424e-05
8.34087e-06
1.11496e-05
2.48141e-05
2.6996e-05
3.92625e-05
3.09286e-05
8.97048e-06
1.14855e-05
2.52959e-05
2.80123e-05
4.59361e-05
3.10507e-05
9.57055e-06
1.23343e-05
2.9318e-05
4.10658e-05
2.58334e-05
2.39834e-05
1.02124e-05
8.4799e-06
3.27375e-05
3.68498e-05
2.76097e-05
2.57207e-05
1.1337e-05
9.1745e-06
3.15566e-05
3.9918e-05
2.87055e-05
2.61218e-05
1.15294e-05
9.53751e-06
3.12699e-05
4.63035e-05
4.12981e-05
2.9485e-05
1.22638e-05
1.02751e-05
2.37728e-05
2.57909e-05
3.62354e-05
3.2874e-05
8.47064e-06
1.13261e-05
2.54804e-05
2.72199e-05
3.89014e-05
3.09136e-05
9.12163e-06
1.16034e-05
2.59119e-05
2.81344e-05
4.47971e-05
3.06194e-05
9.61558e-06
1.24334e-05
2.907e-05
4.00351e-05
2.56089e-05
2.40598e-05
1.04462e-05
8.53319e-06
3.27455e-05
3.60016e-05
2.72808e-05
2.56707e-05
1.12517e-05
8.90626e-06
3.05062e-05
3.85245e-05
2.86751e-05
2.61514e-05
1.13882e-05
9.07009e-06
3.13049e-05
4.01186e-05
2.95218e-05
2.77432e-05
1.15715e-05
9.64288e-06
3.19523e-05
4.60289e-05
4.11549e-05
3.03064e-05
1.23335e-05
9.9723e-06
2.49976e-05
2.64412e-05
3.70019e-05
3.3464e-05
8.51354e-06
1.13744e-05
2.63129e-05
2.80999e-05
3.88931e-05
3.1197e-05
9.17717e-06
1.15435e-05
2.66018e-05
2.91979e-05
4.02439e-05
3.15866e-05
9.14212e-06
1.15989e-05
2.81766e-05
2.98527e-05
4.60289e-05
3.21638e-05
9.6282e-06
1.23943e-05
3.06191e-05
4.12652e-05
2.70653e-05
2.58043e-05
1.04316e-05
8.5284e-06
3.43045e-05
3.7181e-05
2.86026e-05
2.71229e-05
1.14514e-05
9.17805e-06
3.14642e-05
3.97506e-05
2.9998e-05
2.76406e-05
1.16418e-05
9.29962e-06
3.26514e-05
4.1184e-05
3.08339e-05
2.92981e-05
1.1777e-05
9.80647e-06
3.31713e-05
4.69522e-05
4.20943e-05
3.15464e-05
1.25323e-05
1.04394e-05
2.64096e-05
2.78867e-05
3.77631e-05
3.49586e-05
8.5669e-06
1.15131e-05
2.76369e-05
2.92374e-05
3.98044e-05
3.18677e-05
9.14326e-06
1.16451e-05
2.77727e-05
3.01779e-05
4.08693e-05
3.2463e-05
9.25718e-06
1.18376e-05
2.93768e-05
3.08795e-05
4.61597e-05
3.28139e-05
9.79139e-06
1.25617e-05
3.15174e-05
4.18259e-05
2.79836e-05
2.6768e-05
1.01878e-05
8.76519e-06
3.4341e-05
3.76493e-05
2.96124e-05
2.82441e-05
1.16452e-05
9.2436e-06
3.27891e-05
4.00986e-05
3.0698e-05
2.83812e-05
1.16378e-05
9.16251e-06
3.23966e-05
4.10053e-05
3.14466e-05
2.91775e-05
1.16416e-05
9.32947e-06
3.40312e-05
4.20372e-05
3.19673e-05
3.08443e-05
1.17828e-05
9.79398e-06
3.42173e-05
4.73954e-05
4.28921e-05
3.27452e-05
1.25694e-05
1.06191e-05
2.74174e-05
2.90838e-05
3.80448e-05
3.57468e-05
8.62564e-06
1.16766e-05
2.86425e-05
3.01994e-05
3.99193e-05
3.23496e-05
9.31875e-06
1.18194e-05
2.89435e-05
3.10883e-05
4.09921e-05
3.27877e-05
9.29002e-06
1.1755e-05
2.9919e-05
3.18758e-05
4.24759e-05
3.4498e-05
9.40933e-06
1.1888e-05
3.16533e-05
3.25942e-05
4.8221e-05
3.50212e-05
9.86732e-06
1.27136e-05
3.36393e-05
4.37409e-05
3.01768e-05
2.89361e-05
1.06334e-05
8.71397e-06
3.72676e-05
3.94552e-05
3.14473e-05
3.01405e-05
1.16569e-05
9.20973e-06
3.41438e-05
4.19141e-05
3.25866e-05
3.02595e-05
1.17975e-05
9.38785e-06
3.4533e-05
4.29269e-05
3.33817e-05
3.12908e-05
1.18106e-05
9.412e-06
3.61366e-05
4.41862e-05
3.40401e-05
3.29173e-05
1.19438e-05
9.99672e-06
3.62279e-05
4.94794e-05
4.49876e-05
3.4722e-05
1.27478e-05
1.07666e-05
2.96487e-05
3.12502e-05
3.9939e-05
3.75677e-05
8.87553e-06
1.18246e-05
3.07207e-05
3.23319e-05
4.19661e-05
3.44903e-05
9.42376e-06
1.19994e-05
3.07625e-05
3.32924e-05
4.27482e-05
3.44015e-05
9.49588e-06
1.19934e-05
3.17688e-05
3.38337e-05
4.41008e-05
3.61122e-05
9.61927e-06
1.20946e-05
3.3728e-05
3.4419e-05
4.95113e-05
3.68968e-05
1.00192e-05
1.29157e-05
3.55765e-05
4.53805e-05
3.20226e-05
3.07407e-05
1.08049e-05
8.90208e-06
3.88361e-05
4.09924e-05
3.32903e-05
3.18207e-05
1.18774e-05
9.44097e-06
3.55468e-05
4.31218e-05
3.44035e-05
3.19711e-05
1.20374e-05
9.5474e-06
3.57782e-05
4.42374e-05
3.51915e-05
3.2905e-05
1.19885e-05
9.60932e-06
3.74566e-05
4.53784e-05
3.56006e-05
3.45925e-05
1.20881e-05
1.00415e-05
3.7619e-05
5.04842e-05
4.62178e-05
3.63011e-05
1.29865e-05
1.09963e-05
3.12544e-05
3.27803e-05
4.08102e-05
3.91754e-05
8.95733e-06
1.19835e-05
3.22318e-05
3.37412e-05
4.23429e-05
3.52499e-05
9.48535e-06
1.21324e-05
3.2351e-05
3.45145e-05
4.3288e-05
3.55602e-05
9.61524e-06
1.20698e-05
3.32044e-05
3.51462e-05
4.45482e-05
3.6853e-05
9.61138e-06
1.20316e-05
3.43756e-05
3.61334e-05
4.62233e-05
3.88199e-05
9.61165e-06
1.21478e-05
3.61228e-05
3.668e-05
5.19873e-05
3.9056e-05
1.01139e-05
1.31321e-05
3.7849e-05
4.78738e-05
3.43571e-05
3.3283e-05
1.08487e-05
9.05616e-06
4.12089e-05
4.32673e-05
3.58789e-05
3.46459e-05
1.20786e-05
9.64395e-06
3.83505e-05
4.55249e-05
3.69649e-05
3.47376e-05
1.21903e-05
9.66018e-06
3.8623e-05
4.68438e-05
3.79023e-05
3.57214e-05
1.21016e-05
9.67568e-06
4.04444e-05
4.84924e-05
3.86879e-05
3.75588e-05
1.22481e-05
1.0247e-05
4.06371e-05
5.37782e-05
4.93116e-05
3.93093e-05
1.32796e-05
1.10629e-05
3.44319e-05
3.56927e-05
4.42782e-05
4.25544e-05
9.1354e-06
1.22049e-05
3.55824e-05
3.71488e-05
4.58159e-05
3.90802e-05
9.74298e-06
1.2302e-05
3.53708e-05
3.77928e-05
4.64631e-05
3.87802e-05
9.82695e-06
1.22455e-05
3.62942e-05
3.83388e-05
4.77034e-05
4.02393e-05
9.78268e-06
1.24051e-05
3.81255e-05
3.87776e-05
5.30716e-05
4.06778e-05
1.03284e-05
1.35241e-05
3.9702e-05
4.90345e-05
3.62693e-05
3.54727e-05
1.10876e-05
9.20249e-06
4.30404e-05
4.45783e-05
3.78469e-05
3.6862e-05
1.23148e-05
9.85048e-06
4.0344e-05
4.6733e-05
3.89227e-05
3.69052e-05
1.23909e-05
9.80425e-06
4.02558e-05
4.78416e-05
3.96267e-05
3.78004e-05
1.23235e-05
9.8983e-06
4.1705e-05
4.9474e-05
4.04767e-05
3.98742e-05
1.2591e-05
1.04741e-05
4.23655e-05
5.48565e-05
5.05152e-05
4.1329e-05
1.36261e-05
1.12999e-05
3.69217e-05
3.77732e-05
4.6016e-05
4.49631e-05
9.2995e-06
1.23791e-05
3.78635e-05
3.92252e-05
4.74875e-05
4.10991e-05
9.8798e-06
1.25585e-05
3.7852e-05
3.99723e-05
4.82234e-05
4.10612e-05
9.94122e-06
1.25865e-05
3.89719e-05
4.06293e-05
4.956e-05
4.23822e-05
1.00193e-05
1.28715e-05
4.11144e-05
4.11892e-05
5.50572e-05
4.31313e-05
1.07806e-05
1.40645e-05
4.24199e-05
5.10988e-05
3.91513e-05
3.88881e-05
1.16067e-05
9.63006e-06
4.62347e-05
4.73644e-05
4.07557e-05
4.00326e-05
1.26246e-05
1.00522e-05
4.37808e-05
4.96527e-05
4.19383e-05
4.02343e-05
1.27937e-05
1.00559e-05
4.37536e-05
5.10872e-05
4.24747e-05
4.18621e-05
1.30025e-05
1.09186e-05
4.3733e-05
5.59941e-05
5.17542e-05
4.30557e-05
1.43539e-05
1.19291e-05
3.93004e-05
3.9846e-05
4.70986e-05
4.65052e-05
9.74577e-06
1.28565e-05
4.0321e-05
4.11327e-05
4.87564e-05
4.34401e-05
1.02363e-05
1.3061e-05
4.0465e-05
4.19728e-05
4.99636e-05
4.31123e-05
1.03058e-05
1.33352e-05
4.2589e-05
4.24481e-05
5.48899e-05
4.38009e-05
1.1037e-05
1.45363e-05
4.33784e-05
5.1165e-05
4.02841e-05
4.03959e-05
1.1769e-05
9.79399e-06
4.7109e-05
4.75241e-05
4.18842e-05
4.16624e-05
1.29913e-05
1.02632e-05
4.41844e-05
4.98646e-05
4.31444e-05
4.21214e-05
1.32651e-05
1.05242e-05
4.45774e-05
5.1348e-05
4.38415e-05
4.38904e-05
1.35258e-05
1.12004e-05
4.50085e-05
5.60128e-05
5.22088e-05
4.47563e-05
1.48884e-05
1.23213e-05
4.14259e-05
4.17775e-05
4.80555e-05
4.82889e-05
9.93025e-06
1.32949e-05
4.26352e-05
4.28465e-05
4.98e-05
4.49942e-05
1.05199e-05
1.34889e-05
4.29029e-05
4.37717e-05
5.12895e-05
4.47651e-05
1.06515e-05
1.38777e-05
4.52988e-05
4.44396e-05
5.64548e-05
4.58764e-05
1.15425e-05
1.52139e-05
4.57395e-05
5.2896e-05
4.29586e-05
4.35395e-05
1.24675e-05
1.01605e-05
5.00043e-05
4.98061e-05
4.45576e-05
4.50207e-05
1.36531e-05
1.08223e-05
4.7313e-05
5.23692e-05
4.60288e-05
4.5466e-05
1.39707e-05
1.11203e-05
4.72312e-05
5.4238e-05
4.71027e-05
4.79474e-05
1.44244e-05
1.19785e-05
4.8523e-05
5.93555e-05
5.56505e-05
4.84817e-05
1.58411e-05
1.29573e-05
4.58127e-05
4.56147e-05
5.19987e-05
5.24607e-05
1.05413e-05
1.40255e-05
4.71962e-05
4.68818e-05
5.43848e-05
4.92013e-05
1.11627e-05
1.47274e-05
4.87903e-05
4.79137e-05
5.93334e-05
4.88211e-05
1.22479e-05
1.61227e-05
4.85304e-05
5.58452e-05
4.60395e-05
4.69237e-05
1.33867e-05
1.07658e-05
5.30241e-05
5.2641e-05
4.77908e-05
4.86347e-05
1.44563e-05
1.14838e-05
5.03913e-05
5.52774e-05
4.9341e-05
4.93984e-05
1.48867e-05
1.18464e-05
5.05278e-05
5.76443e-05
5.08405e-05
5.23688e-05
1.54304e-05
1.28254e-05
5.25663e-05
6.33479e-05
5.94758e-05
5.27161e-05
1.69608e-05
1.38424e-05
5.08939e-05
4.98919e-05
5.63555e-05
5.72516e-05
1.12422e-05
1.50605e-05
5.23731e-05
5.16823e-05
5.95211e-05
5.39569e-05
1.20691e-05
1.58564e-05
5.43135e-05
5.28969e-05
6.5088e-05
5.40091e-05
1.29662e-05
1.73398e-05
5.42292e-05
6.15508e-05
5.20387e-05
5.34153e-05
1.46155e-05
1.1999e-05
5.87938e-05
5.84483e-05
5.37649e-05
5.52841e-05
1.59573e-05
1.27847e-05
5.63822e-05
6.20445e-05
5.5509e-05
5.75354e-05
1.67955e-05
1.40031e-05
5.68224e-05
6.79714e-05
6.42328e-05
5.71671e-05
1.85219e-05
1.5147e-05
5.60359e-05
5.46666e-05
6.13912e-05
6.17741e-05
1.22698e-05
1.67188e-05
5.88559e-05
5.63358e-05
6.77595e-05
5.77169e-05
1.39392e-05
1.86286e-05
5.77258e-05
6.45304e-05
5.49646e-05
5.57652e-05
1.51693e-05
1.21135e-05
6.24307e-05
6.12174e-05
5.66099e-05
5.7643e-05
1.65186e-05
1.3235e-05
5.8226e-05
6.39578e-05
5.78713e-05
5.99451e-05
1.75793e-05
1.4639e-05
5.85759e-05
6.94174e-05
6.60866e-05
5.94347e-05
1.94733e-05
1.59985e-05
5.89383e-05
5.742e-05
6.33376e-05
6.37751e-05
1.30957e-05
1.77838e-05
6.22778e-05
5.89619e-05
6.94699e-05
6.02941e-05
1.48918e-05
1.99003e-05
6.05038e-05
6.64538e-05
5.83639e-05
6.01497e-05
1.64089e-05
1.32494e-05
6.49008e-05
6.40034e-05
5.95352e-05
6.29884e-05
1.78925e-05
1.46057e-05
6.05593e-05
6.99753e-05
6.70673e-05
6.11433e-05
1.99566e-05
1.66711e-05
6.05858e-05
5.8938e-05
6.43891e-05
6.47483e-05
1.36603e-05
1.86152e-05
6.42894e-05
6.05857e-05
7.01988e-05
6.15421e-05
1.54453e-05
2.08286e-05
6.21568e-05
6.73962e-05
6.02379e-05
6.25079e-05
1.71973e-05
1.38807e-05
6.64184e-05
6.5336e-05
6.16888e-05
6.57728e-05
1.88615e-05
1.55518e-05
6.27261e-05
7.14055e-05
6.85991e-05
6.31438e-05
2.09608e-05
1.72103e-05
6.32897e-05
6.12053e-05
6.63989e-05
6.8484e-05
1.34225e-05
1.88784e-05
6.67398e-05
6.27202e-05
7.2205e-05
6.31462e-05
1.58829e-05
2.16926e-05
6.38335e-05
6.94544e-05
6.28267e-05
6.62442e-05
1.80528e-05
1.47947e-05
6.86035e-05
6.78003e-05
6.48974e-05
7.03558e-05
2.00844e-05
1.67527e-05
6.65863e-05
7.50118e-05
7.22557e-05
6.75061e-05
2.24534e-05
1.85796e-05
6.91345e-05
6.58487e-05
7.09972e-05
7.21265e-05
1.50081e-05
2.05234e-05
7.34893e-05
6.77869e-05
7.85881e-05
7.00267e-05
1.68875e-05
2.25125e-05
6.99135e-05
7.57686e-05
6.88468e-05
7.48359e-05
1.9655e-05
1.6948e-05
7.43884e-05
7.7724e-05
7.52753e-05
7.41125e-05
2.35438e-05
1.98405e-05
7.39993e-05
7.00019e-05
7.56285e-05
7.61556e-05
1.63397e-05
2.21227e-05
7.81772e-05