/*--------------------------------*- C++ -*----------------------------------*\
| =========                 |                                                 |
| \\      /  F ield         | OpenFOAM: The Open Source CFD Toolbox           |
|  \\    /   O peration     | Version:  v2006                                 |
|   \\  /    A nd           | Website:  www.openfoam.com                      |
|    \\/     M anipulation  |                                                 |
\*---------------------------------------------------------------------------*/
FoamFile
{
    version     2.0;
    format      ascii;
    class       volVectorField;
    location    "0.149";
    object      U;
}
// * * * * * * * * * * * * * * * * * * * * * * * * * * * * * * * * * * * * * //

dimensions      [0 1 -1 0 0 0 0];


internalField   nonuniform List<vector> 
16277
(
(48.3131 0.00147829 -3.36902e-19)
(48.3135 -0.00424676 0)
(48.3131 0.00465688 0)
(48.3127 -0.00412588 0)
(48.3125 0.000428983 -5.44425e-21)
(48.3107 -0.00151106 -7.94074e-19)
(48.3059 -0.00146116 9.11488e-19)
(48.2904 -0.00373668 0)
(48.2551 -0.00806231 0)
(48.1993 -0.0140656 0)
(48.1283 -0.0207744 -3.42948e-21)
(48.0502 -0.0271659 -6.99025e-21)
(47.9697 -0.0328974 1.77e-21)
(47.8888 -0.0379577 0)
(47.8072 -0.0425204 0)
(47.7241 -0.0467475 0)
(47.6384 -0.0507535 0)
(47.5495 -0.0546002 0)
(47.4568 -0.0583068 0)
(47.3602 -0.0618756 0)
(47.2597 -0.0653047 0)
(47.1553 -0.0685974 0)
(47.0471 -0.0717628 0)
(46.9351 -0.0748141 0)
(46.8195 -0.0777652 0)
(46.7002 -0.0806277 0)
(46.5773 -0.0834103 0)
(46.4508 -0.0861182 0)
(46.3208 -0.0887539 0)
(46.1874 -0.0913176 0)
(46.0507 -0.0938075 0)
(45.9108 -0.0962209 0)
(45.7678 -0.0985544 0)
(45.6217 -0.100804 0)
(45.4727 -0.102965 0)
(45.321 -0.105032 0)
(45.1667 -0.107002 0)
(45.0099 -0.108869 0)
(44.8507 -0.110627 0)
(44.6893 -0.112273 0)
(44.526 -0.113803 0)
(44.3607 -0.115211 0)
(44.1937 -0.116495 0)
(44.0252 -0.11765 0)
(43.8553 -0.118672 0)
(43.6843 -0.119558 0)
(43.5122 -0.120304 0)
(43.3393 -0.120908 0)
(43.1658 -0.121367 0)
(42.9919 -0.121677 0)
(42.8177 -0.121836 0)
(42.6435 -0.121842 0)
(42.4694 -0.121693 0)
(42.2957 -0.12139 0)
(42.1226 -0.120931 0)
(41.9502 -0.120282 0)
(41.7788 -0.119462 0)
(41.6086 -0.118504 0)
(41.4398 -0.117388 0)
(41.2727 -0.116105 0)
(41.1074 -0.114656 0)
(40.9441 -0.113042 0)
(40.783 -0.111264 0)
(40.6245 -0.109322 0)
(40.4686 -0.107217 0)
(40.3156 -0.104951 0)
(40.1656 -0.102523 0)
(40.019 -0.0999331 0)
(39.8758 -0.0971782 0)
(39.7362 -0.0942527 0)
(39.6004 -0.0911474 0)
(39.4686 -0.0878509 0)
(39.341 -0.0843505 0)
(39.2178 -0.0806368 0)
(39.0993 -0.0767055 0)
(38.9854 -0.0725546 0)
(38.8761 -0.0681671 0)
(38.7708 -0.0634719 0)
(38.6685 -0.058277 -3.00517e-20)
(38.5679 -0.0522664 2.99867e-20)
(38.4687 -0.0449799 0)
(38.3731 -0.0362052 8.95574e-20)
(38.2891 -0.0265749 -5.91687e-20)
(38.2301 -0.0181951 0)
(38.204 -0.0128849 -1.71864e-18)
(38.2034 -0.0105364 1.11683e-18)
(38.2137 -0.00963933 0)
(38.2258 -0.00943444 0)
(38.2356 -0.00935586 0)
(38.2346 -0.00738469 1.73896e-17)
(38.2272 -0.00459574 -1.02939e-17)
(38.2028 -0.0102843 -1.26063e-17)
(38.1411 -0.0202373 -3.78919e-18)
(38.038 -0.0398375 2.12409e-18)
(37.8702 -0.0576764 0)
(37.6772 -0.0669744 0)
(36.9673 -0.102505 -2.76481e-19)
(36.5115 -0.0930306 2.32513e-18)
(37.6857 -0.113575 1.73405e-18)
(37.9173 -0.0967226 -5.82577e-18)
(37.9414 -0.119278 0)
(37.6343 -0.133697 1.79685e-18)
(35.9973 -0.0920248 1.93185e-18)
(35.4886 -0.0845117 7.19791e-19)
(37.5735 -0.133344 4.01182e-19)
(37.9636 -0.12408 1.33781e-18)
(37.9612 -0.12124 1.33877e-18)
(37.4801 -0.122898 0)
(35.0209 -0.0739636 -1.25584e-18)
(34.5896 -0.0643158 1.16917e-19)
(37.381 -0.112507 0)
(37.9471 -0.118004 0)
(37.908 -0.113524 1.65985e-19)
(37.253 -0.103541 0)
(34.187 -0.057196 2.47652e-24)
(33.8232 -0.0518372 1.35728e-19)
(37.1365 -0.0967149 0)
(37.867 -0.111144 -1.6683e-19)
(37.8075 -0.107653 1.05553e-20)
(37.004 -0.0912553 3.94211e-19)
(33.4789 -0.0475948 -5.07023e-19)
(33.1773 -0.0430718 4.92668e-19)
(36.8893 -0.0858045 3.96144e-19)
(37.7547 -0.107182 -6.88805e-19)
(37.6833 -0.103009 -6.81647e-19)
(36.7504 -0.0811032 -7.95339e-19)
(32.885 -0.040039 0)
(32.6241 -0.0364112 4.9509e-19)
(36.6334 -0.0770825 -4.10823e-19)
(37.6188 -0.102235 -1.0679e-20)
(37.5367 -0.0979777 6.94655e-19)
(36.4914 -0.0731243 -4.11062e-19)
(32.3667 -0.0343526 -4.95373e-19)
(32.1341 -0.0316047 0)
(36.3736 -0.0703019 0)
(37.4651 -0.0973888 0)
(37.3768 -0.0938575 6.84343e-19)
(36.2315 -0.0671195 0)
(31.9033 -0.0301985 0)
(31.6946 -0.0279267 0)
(36.1168 -0.0651657 0)
(37.3022 -0.094 0)
(37.2071 -0.0907364 0)
(35.9733 -0.062568 0)
(31.4817 -0.0270661 0)
(31.2879 -0.0251975 0)
(35.8584 -0.0610067 0)
(37.1275 -0.0907357 0)
(37.0263 -0.0878902 0)
(35.7132 -0.0589319 0)
(31.0877 -0.0247435 0)
(30.9065 -0.0229787 0)
(35.5993 -0.0577713 0)
(36.9437 -0.0884064 0)
(36.8401 -0.0857664 0)
(35.4557 -0.0562179 0)
(30.7193 -0.023053 0)
(30.5485 -0.0211467 0)
(35.3435 -0.0551484 0)
(36.7556 -0.0866256 0)
(36.6489 -0.0843033 0)
(35.2 -0.0540721 0)
(30.3701 -0.0216454 0)
(30.2068 -0.0197294 0)
(35.0885 -0.0532099 0)
(36.5621 -0.0853503 0)
(36.4524 -0.0833457 0)
(34.9446 -0.0524828 0)
(30.0352 -0.0205118 0)
(29.8778 -0.0186422 0)
(34.8335 -0.0516969 0)
(36.3633 -0.0844361 0)
(36.2507 -0.0827251 0)
(34.6891 -0.0512531 0)
(29.7114 -0.0196269 0)
(29.5585 -0.0177684 0)
(34.5779 -0.0505469 0)
(36.1595 -0.0839324 0)
(36.044 -0.0824951 0)
(34.4327 -0.0503627 0)
(29.3961 -0.0189297 0)
(29.2466 -0.0170643 0)
(34.3209 -0.0497109 0)
(35.9504 -0.083806 0)
(35.8318 -0.0826163 0)
(34.1745 -0.0497615 0)
(29.0871 -0.0183841 0)
(28.94 -0.0164956 0)
(34.0618 -0.0491387 0)
(35.7357 -0.0840111 0)
(35.6138 -0.0830438 0)
(33.9137 -0.0494017 0)
(28.7826 -0.017961 0)
(28.6372 -0.016119 0)
(33.7996 -0.0487864 0)
(35.515 -0.0844536 0)
(35.3898 -0.0837112 0)
(33.6498 -0.0492309 0)
(28.4812 -0.0176809 0)
(28.3367 -0.0158144 0)
(33.5341 -0.0485883 0)
(35.2882 -0.0851513 0)
(35.1596 -0.0846159 0)
(33.3823 -0.0492171 0)
(28.1816 -0.0174749 0)
(28.0376 -0.0156408 0)
(33.2646 -0.0485547 0)
(35.0548 -0.0860858 0)
(34.9226 -0.0857478 6.86162e-19)
(33.1104 -0.0493476 0)
(27.8828 -0.0173681 0)
(27.7388 -0.0155637 0)
(32.9904 -0.0486557 0)
(34.8146 -0.0872656 0)
(34.6785 -0.0871124 0)
(32.8337 -0.0496127 0)
(27.5838 -0.0173451 0)
(27.4395 -0.0155481 0)
(32.711 -0.0488326 0)
(34.567 -0.0886736 0)
(34.427 -0.0886234 0)
(32.5516 -0.0499581 0)
(27.284 -0.0173832 0)
(27.1388 -0.0156014 0)
(32.4261 -0.0492159 0)
(34.3117 -0.0901183 0)
(34.1675 -0.09024 0)
(32.2636 -0.0504464 0)
(26.9823 -0.017459 0)
(26.8359 -0.015682 0)
(32.1351 -0.0497385 0)
(34.0483 -0.0917532 0)
(33.8997 -0.0920589 6.86596e-19)
(31.9692 -0.0510682 0)
(26.6781 -0.01757 0)
(26.5301 -0.0158029 0)
(31.8373 -0.0503778 0)
(33.7764 -0.0936047 0)
(33.6232 -0.0940837 0)
(31.6677 -0.0518085 0)
(26.3706 -0.0177257 0)
(26.2206 -0.0159675 0)
(31.5321 -0.0511351 0)
(33.4954 -0.0956664 0)
(33.3374 -0.096307 0)
(31.3587 -0.0526638 0)
(26.059 -0.0179256 0)
(25.9067 -0.0161735 0)
(31.2191 -0.0520081 0)
(33.205 -0.097931 0)
(33.0418 -0.098721 0)
(31.0415 -0.0536295 0)
(25.7427 -0.0181665 0)
(25.5877 -0.016417 0)
(30.8976 -0.0529926 0)
(32.9045 -0.10039 0)
(32.7361 -0.101315 6.87024e-19)
(30.7155 -0.0546992 0)
(25.4209 -0.0184444 0)
(25.2629 -0.0166929 0)
(30.5671 -0.0540823 0)
(32.5936 -0.103031 0)
(32.4197 -0.104075 0)
(30.3803 -0.0558644 0)
(25.0931 -0.0187541 0)
(24.9318 -0.0169962 0)
(30.227 -0.0552675 0)
(32.2719 -0.105837 0)
(32.0922 -0.10698 0)
(30.0353 -0.0571141 0)
(24.7586 -0.0190909 0)
(24.5938 -0.0173285 0)
(29.877 -0.0565266 0)
(31.9388 -0.108776 0)
(31.7533 -0.110001 0)
(29.6803 -0.0584254 0)
(24.417 -0.0194515 0)
(24.2485 -0.0176825 0)
(29.5168 -0.057836 0)
(31.5942 -0.111819 0)
(31.4028 -0.113101 6.87465e-19)
(29.3148 -0.0597767 0)
(24.0681 -0.0198291 0)
(23.8957 -0.0180487 0)
(29.146 -0.05917 0)
(31.2379 -0.114915 0)
(31.0404 -0.116219 0)
(28.9388 -0.0611333 0)
(23.7115 -0.0202092 0)
(23.5354 -0.0184093 0)
(28.7646 -0.0604866 0)
(30.8697 -0.117994 0)
(30.6663 -0.119275 0)
(28.5523 -0.0624478 0)
(23.3474 -0.0205708 0)
(23.1677 -0.0187412 0)
(28.3729 -0.0617314 0)
(30.4898 -0.120962 0)
(30.2807 -0.122173 0)
(28.1557 -0.0636664 0)
(22.9763 -0.0208999 0)
(22.7933 -0.0190352 0)
(27.9714 -0.0628527 0)
(30.0987 -0.123718 0)
(29.8842 -0.124807 0)
(27.7497 -0.064735 0)
(22.5988 -0.0211789 0)
(22.413 -0.0192661 0)
(27.561 -0.0637873 0)
(29.6973 -0.126144 0)
(29.478 -0.127045 0)
(27.3354 -0.0655827 0)
(22.2161 -0.0213808 0)
(22.0282 -0.019405 0)
(27.143 -0.0644545 0)
(29.2867 -0.128091 0)
(29.0633 -0.128722 0)
(26.9143 -0.0661192 0)
(21.8297 -0.0214736 0)
(21.6408 -0.0194166 0)
(26.7193 -0.0647521 0)
(28.8685 -0.129368 0)
(28.6422 -0.129628 0)
(26.4887 -0.0662315 0)
(21.4418 -0.0214178 0)
(21.2534 -0.0192578 0)
(26.2923 -0.0645529 0)
(28.4453 -0.129741 0)
(28.2175 -0.129508 0)
(26.0615 -0.0657808 0)
(21.0555 -0.0211671 0)
(20.8692 -0.0188786 0)
(25.8656 -0.0637051 0)
(28.02 -0.128926 0)
(27.7926 -0.128061 0)
(25.6366 -0.0646079 0)
(20.6746 -0.0206654 0)
(20.4928 -0.0182188 0)
(25.4434 -0.0620373 0)
(27.5966 -0.126597 0)
(27.372 -0.124948 0)
(25.2187 -0.0625358 0)
(20.3038 -0.0198476 0)
(20.1294 -0.0172107 0)
(25.0312 -0.0593578 0)
(27.1803 -0.122386 0)
(26.9614 -0.11978 0)
(24.8139 -0.0593543 0)
(19.9493 -0.0186383 0)
(19.7858 -0.0157803 0)
(24.6356 -0.0554356 0)
(26.7773 -0.115868 0)
(26.5678 -0.112116 0)
(24.4297 -0.0548233 0)
(19.6185 -0.0169476 0)
(19.47 -0.0138424 0)
(24.2648 -0.050017 0)
(26.3953 -0.106568 0)
(26.1997 -0.101519 0)
(24.075 -0.0487021 0)
(19.32 -0.0146711 0)
(19.1914 -0.0113292 0)
(23.9285 -0.0428968 0)
(26.0434 -0.0940945 0)
(25.8666 -0.0876283 0)
(23.76 -0.0407912 0)
(19.0637 -0.0117827 0)
(18.9618 -0.00823249 0)
(23.6368 -0.0336666 0)
(25.7319 -0.0779663 0)
(25.5795 -0.0698395 0)
(23.4956 -0.0305338 0)
(18.8616 -0.00809464 0)
(18.7966 -0.00430135 0)
(23.4018 -0.0225084 0)
(25.4713 -0.0578687 0)
(25.3495 -0.04802 0)
(23.2942 -0.0186809 0)
(18.728 -0.00395957 0)
(18.7044 0.000151404 0)
(23.2369 -0.0102821 0)
(25.2759 -0.0337912 0)
(25.189 -0.0230953 0)
(23.1678 -0.00561014 0)
(18.6709 0.000628408 0)
(18.6928 0.00493864 0)
(23.1519 0.00354588 0)
(25.155 -0.00731859 0)
(25.1069 0.00336305 0)
(23.1251 0.00825458 0)
(18.6969 0.00516489 0)
(18.7656 0.00979368 0)
(23.153 0.0180154 0)
(25.1153 0.020046 0)
(25.1088 0.0304501 0)
(23.1706 0.0223275 0)
(18.8085 0.00944748 0)
(18.9191 0.0139329 6.21992e-20)
(23.2395 0.0313703 0)
(25.1573 0.0453833 0)
(25.1895 0.0569085 0)
(23.2972 0.0364678 0)
(18.9993 0.0138759 -6.21992e-20)
(19.1564 0.0187242 6.21945e-20)
(23.4128 0.0461595 0)
(25.2842 0.0734111 0)
(25.3605 0.084059 0)
(23.5165 0.0504999 0)
(19.2817 0.019002 -6.21944e-20)
(19.4831 0.0236972 6.21882e-20)
(23.68 0.0601213 0)
(25.5032 0.100654 0)
(25.6216 0.104505 0)
(23.8251 0.0598244 0)
(19.644 0.0216335 -6.21883e-20)
(19.8677 0.0257895 6.2181e-20)
(24.0189 0.0681705 0)
(25.7956 0.118461 0)
(25.9429 0.118494 0)
(24.1909 0.065786 0)
(20.0474 0.0230251 -6.21813e-20)
(20.2842 0.0264583 6.21732e-20)
(24.4066 0.0724363 0)
(26.1411 0.129493 0)
(26.3091 0.126644 0)
(24.5966 0.0685266 0)
(20.4729 0.0232037 -6.21738e-20)
(20.7143 0.0262766 6.21652e-20)
(24.8252 0.0741591 0)
(26.5234 0.135682 0)
(26.7052 0.130525 0)
(25.0254 0.0690981 0)
(20.9047 0.022653 -6.21661e-20)
(21.1445 0.0253957 6.21571e-20)
(25.2601 0.0737169 0)
(26.9292 0.137642 0)
(27.1185 0.130428 0)
(25.464 0.0676361 0)
(21.3306 0.0214852 -6.21583e-20)
(21.563 0.0238687 6.21493e-20)
(25.6982 0.0712511 0)
(27.3457 0.13563 0)
(27.5362 0.12676 0)
(25.8994 0.0643681 0)
(21.7389 0.0197389 -6.21508e-20)
(21.9589 0.0218297 6.21418e-20)
(26.1274 0.0670756 0)
(27.7607 0.130191 0)
(27.9469 0.120094 0)
(26.3205 0.0596366 0)
(22.12 0.0175721 -6.21437e-20)
(22.3235 0.0194231 6.21349e-20)
(26.5374 0.0615688 0)
(28.1638 0.12196 0)
(28.3409 0.111025 0)
(26.7178 0.0537942 0)
(22.4663 0.0150942 -6.21371e-20)
(22.6506 0.0167514 6.21286e-20)
(26.9198 0.0550801 0)
(28.5459 0.111526 0)
(28.7101 0.100156 0)
(27.0839 0.0471657 0)
(22.7726 0.0124146 -6.21311e-20)
(22.9358 0.0140225 6.21231e-20)
(27.2681 0.0480064 0)
(28.9 0.0995084 0)
(29.0482 0.0880623 0)
(27.4126 0.0401919 0)
(23.0366 0.00988814 -6.21257e-20)
(23.1777 0.0114627 5.59078e-19)
(27.5771 0.0407812 4.1297e-19)
(29.2205 0.0866062 -1.3763e-18)
(29.3502 0.0753886 0)
(27.7 0.0332793 0)
(23.2586 0.00776249 -6.21208e-20)
(23.3765 0.0089683 6.21145e-20)
(27.8441 0.0334716 0)
(29.5036 0.0734387 -6.8809e-19)
(29.6144 0.0627365 0)
(27.9461 0.0266401 0)
(23.4377 0.0055226 -6.21167e-20)
(23.5333 0.00652289 6.21113e-20)
(28.0698 0.0265047 0)
(29.7486 0.0604809 0)
(29.8407 0.0505348 0)
(28.1512 0.0203095 0)
(23.5759 0.00344728 -6.21134e-20)
(23.6508 0.00439669 6.21089e-20)
(28.2554 0.0201072 0)
(29.9558 0.0482755 0)
(30.0299 0.0392872 0)
(28.3175 0.0145776 0)
(23.6766 0.00164421 -6.21107e-20)
(23.7333 0.00261354 6.21071e-20)
(28.4035 0.0144388 0)
(30.1269 0.0371865 0)
(30.1844 0.0294742 0)
(28.4481 0.00969248 0)
(23.7447 0.000189135 -6.21087e-20)
(23.7861 0.00121767 6.21058e-20)
(28.5181 0.00968338 0)
(30.2653 0.0276423 0)
(30.308 0.0212019 0)
(28.5475 0.00567434 0)
(23.7857 -0.000925903 -6.21073e-20)
(23.8148 0.000186096 6.2105e-20)
(28.6038 0.00584458 0)
(30.3749 0.0197064 0)
(30.4049 0.0142972 0)
(28.6204 0.00237803 0)
(23.8051 -0.00176691 -6.21062e-20)
(23.8248 -0.000534042 6.21044e-20)
(28.6654 0.00286343 0)
(30.46 0.0132609 0)
(30.4792 0.00873325 0)
(28.6714 -0.000223416 0)
(23.808 -0.00238234 -6.21054e-20)
(23.8205 -0.00106147 6.2104e-20)
(28.7072 0.000377143 0)
(30.5246 0.00794697 0)
(30.5351 0.00435397 0)
(28.7049 -0.00218126 0)
(23.7987 -0.00282894 -6.2105e-20)
(23.8059 -0.00143002 6.21039e-20)
(28.7332 -0.0015314 0)
(30.5725 0.00374235 0)
(30.5759 0.000815843 0)
(28.7243 -0.00372245 0)
(23.7805 -0.00310344 -6.21048e-20)
(23.784 -0.00162501 6.21039e-20)
(28.7469 -0.0028216 0)
(30.6069 0.000539553 0)
(30.6047 -0.0018339 0)
(28.7329 -0.00483136 0)
(23.7562 -0.00325939 -6.21047e-20)
(23.757 -0.0015535 6.21039e-20)
(28.7508 -0.00330806 0)
(30.6305 -0.00150942 0)
(30.6237 -0.00376205 0)
(28.733 -0.00571916 0)
(23.7276 -0.0033981 -6.21045e-20)
(23.7268 -0.00148835 6.21036e-20)
(28.7476 -0.00366718 0)
(30.6456 -0.00304166 0)
(30.6353 -0.00515043 0)
(28.7266 -0.00628334 0)
(23.696 -0.00344711 -6.21042e-20)
(23.6957 -0.00169195 6.21039e-20)
(28.7399 -0.00466436 0)
(30.655 -0.00473276 0)
(30.6422 -0.00540014 0)
(28.7169 -0.00575406 0)
(23.6644 -0.00306861 -6.21046e-20)
(23.6628 -0.00196871 6.21044e-20)
(28.7275 -0.00583768 0)
(30.6586 -0.00735546 0)
(30.6433 -0.00518135 0)
(28.7027 -0.00500673 0)
(23.6311 -0.00261619 -6.2105e-20)
(23.6294 -0.00191657 6.2105e-20)
(28.7122 -0.00569978 0)
(30.6587 -0.00680327 0)
(30.6422 -0.00629893 0)
(28.6872 -0.00558701 0)
(23.5991 -0.00275736 -6.21058e-20)
(23.5976 -0.00096635 6.21062e-20)
(28.6962 -0.00346237 0)
(30.6569 -0.0051847 0)
(30.6384 -0.00699505 0)
(28.6696 -0.00602532 0)
(23.5664 -0.00285306 -6.21071e-20)
(23.564 -0.000685863 6.21069e-20)
(28.6768 -0.00279369 0)
(30.6506 -0.00460671 -6.88027e-19)
(30.6317 -0.00826108 0)
(28.6498 -0.00633648 0)
(23.533 -0.00291629 -6.21083e-20)
(23.531 -0.000771344 6.21071e-20)
(28.6565 -0.00299404 0)
(30.6431 -0.00391635 0)
(30.6238 -0.00807055 0)
(28.6295 -0.00599651 0)
(23.5006 -0.00266728 -6.21081e-20)
(23.5008 -0.00070078 6.21073e-20)
(28.6379 -0.00314522 0)
(30.6364 -0.00466088 0)
(30.6158 -0.00748814 0)
(28.6097 -0.0054555 0)
(23.4697 -0.00244589 -6.21081e-20)
(23.4708 -0.000642323 6.21077e-20)
(28.6186 -0.00317054 0)
(30.6287 -0.00563514 0)
(30.608 -0.00709468 0)
(28.5909 -0.00546716 0)
(23.4407 -0.00250073 -6.20784e-20)
(23.4429 -0.000862053 6.20157e-20)
(28.6005 -0.00352028 0)
(30.6211 -0.00511796 -6.86727e-19)
(30.6029 -0.00478076 -6.83714e-19)
(28.5758 -0.00402713 3.07393e-19)
(23.4162 -0.00205122 -5.54021e-19)
(23.4161 -9.60797e-05 0)
(28.5839 -0.000591386 1.18504e-25)
(30.6197 -0.000169013 0)
(30.6054 -0.0043335 -6.67812e-19)
(28.5626 -0.00350645 9.95195e-20)
(23.3879 -0.00133034 0)
(23.4233 0.00230584 -9.67742e-19)
(28.5887 0.00353391 -4.21289e-26)
(30.6349 0.0062081 -6.6593e-19)
(30.6292 0.0113603 0)
(28.59 0.00640255 0)
(23.4148 0.00210008 9.04796e-19)
(23.4924 0.0123444 -2.45015e-19)
(28.6634 0.0228732 -4.01908e-18)
(30.696 0.0317908 -9.77776e-25)
(30.7521 0.0650495 5.1148e-18)
(28.7451 0.049733 0)
(23.6382 0.0267215 -1.55983e-18)
(23.9302 0.067557 -2.01072e-18)
(28.9441 0.0967595 1.59562e-17)
(30.9374 0.100155 6.08538e-23)
(31.4733 0.0667573 -3.71569e-17)
(29.7411 0.12978 1.04359e-18)
(25.0773 0.124575 0)
(24.8339 0.0619672 0)
(28.7949 0.122716 -8.81894e-19)
(30.6009 0.185782 7.3913e-19)
(31.7827 0.286035 -7.49149e-18)
(32.6599 0.136623 -3.98039e-22)
(33.1621 0.0288018 1.31344e-17)
(33.3345 0.00806936 -1.91336e-19)
(33.4413 0.0187363 -2.83228e-18)
(33.6509 0.0239084 2.83651e-18)
(33.735 0.0191777 0)
(33.8273 0.0212401 0)
(33.8688 0.0198935 6.1056e-19)
(33.9043 0.0216887 7.87788e-19)
(33.9121 0.0203296 -1.75607e-19)
(33.901 0.0216677 8.90342e-19)
(33.8753 0.0197007 -1.44762e-18)
(33.8078 0.019756 7.45412e-19)
(33.7377 0.0126135 0)
(33.5619 0.0113808 -1.27937e-17)
(33.4618 0.00536286 -1.48607e-17)
(33.3512 0.00606517 0)
(33.2142 0.0174474 -5.28996e-19)
(32.9737 0.00765945 0)
(32.3681 -0.0285522 0)
(31.0814 -0.0678276 2.67808e-18)
(28.363 -0.0676548 -6.93448e-18)
(24.915 -0.0669703 0)
(17.8143 -0.068132 -3.65554e-19)
(17.2533 -0.0545658 3.45201e-19)
(24.5602 -0.0964834 -8.53638e-18)
(28.0874 -0.0879141 2.00705e-17)
(27.7897 -0.0852196 8.11584e-19)
(24.2199 -0.0689298 2.68929e-18)
(16.7979 -0.0480832 -2.84201e-18)
(16.4988 -0.0283813 0)
(23.9886 -0.0413176 -1.43998e-18)
(27.5958 -0.0606997 -3.70417e-18)
(27.5062 -0.0384223 0)
(23.896 -0.0253435 9.46309e-19)
(16.2842 -0.0151915 0)
(16.2586 -0.00885162 0)
(23.8605 -0.0135906 2.22528e-19)
(27.4768 -0.020693 -1.20509e-18)
(27.4433 -0.013038 -1.01333e-25)
(23.8281 -0.0120509 -2.22593e-19)
(16.1516 -0.00609323 0)
(16.1438 0.000839968 0)
(23.7999 -0.00245087 0)
(27.4424 -0.00344251 -1.68573e-19)
(27.4433 0.00434153 0)
(23.8006 0.00252541 0)
(16.1452 0.000950902 0)
(16.1545 0.000996237 0)
(23.8086 0.00316088 0)
(27.4509 0.00572678 0)
(27.4626 0.0065369 0)
(23.8232 0.0034504 0)
(16.171 0.00109522 0)
(16.191 0.00109124 0)
(23.8424 0.00374874 0)
(27.4787 0.00683734 0)
(27.489 0.0117066 0)
(23.8563 0.00615189 0)
(16.2065 0.00190372 0)
(16.2188 0.00218567 0)
(23.8677 0.00692555 0)
(27.4983 0.0126097 -1.68225e-19)
(27.5113 0.0126592 1.68553e-19)
(23.8837 0.00680038 0)
(16.2364 0.00217638 0)
(16.2579 0.00175671 0)
(23.9035 0.00534812 0)
(27.5279 0.00963254 0)
(27.5415 0.00939923 0)
(23.9212 0.00512763 0)
(16.2772 0.00167147 0)
(16.297 0.00172544 0)
(23.9396 0.00508058 0)
(27.5567 0.00891997 0)
(27.5733 0.0103704 0)
(23.9606 0.00577822 0)
(16.3196 0.00199465 0)
(16.3403 0.00186475 0)
(23.9802 0.00565175 0)
(27.5895 0.0103271 0)
(27.6036 0.0115922 0)
(23.9981 0.00625832 0)
(16.3597 0.00213509 0)
(16.3824 0.00205189 0)
(24.0192 0.00618607 0)
(27.6211 0.01155 0)
(27.6374 0.0134823 0)
(24.0396 0.0070475 0)
(16.4049 0.00232664 0)
(16.4257 0.00236089 0)
(24.0587 0.00706635 0)
(27.6533 0.0130509 0)
(27.6683 0.0127852 0)
(24.0776 0.00682537 0)
(16.4468 0.00227051 0)
(16.4694 0.00223131 0)
(24.0984 0.00659057 0)
(27.6855 0.0118293 0)
(27.7023 0.0124092 0)
(24.1194 0.00701039 0)
(16.4929 0.00243986 0)
(16.5156 0.00208995 0)
(24.1406 0.00615551 0)
(27.7197 0.0109334 0)
(27.7368 0.0111827 0)
(24.1621 0.00621072 0)
(16.5391 0.00215355 0)
(16.563 0.00214636 0)
(24.1844 0.00626502 0)
(27.755 0.0110808 0)
(27.7718 0.0126305 0)
(24.2055 0.00683002 0)
(16.5865 0.00236161 0)
(16.6115 0.00221887 0)
(24.2288 0.00655394 0)
(27.7913 0.0122416 0)
(27.8083 0.013804 0)
(24.2501 0.00721508 0)
(16.6352 0.00240684 0)
(16.6581 0.0024844 0)
(24.2707 0.00736849 0)
(27.8254 0.0137007 0)
(27.843 0.0144232 0)
(24.2925 0.00763851 0)
(16.6826 0.00254808 0)
(16.707 0.00233688 0)
(24.3149 0.00695699 0)
(27.8619 0.0128445 0)
(27.879 0.0129304 0)
(24.3364 0.0071884 0)
(16.7308 0.00249038 -1.44085e-19)
(16.7558 0.00233194 1.43939e-19)
(24.3595 0.00688715 0)
(27.8984 0.0120725 0)
(27.9183 0.0128884 0)
(24.384 0.00721934 0)
(16.7824 0.00248154 0)
(16.808 0.00235418 0)
(24.4079 0.00701857 0)
(27.9383 0.0125401 0)
(27.9566 0.0138123 0)
(24.4303 0.00734283 0)
(16.8323 0.00250678 0)
(16.8584 0.0024896 0)
(24.4546 0.00754196 0)
(27.9772 0.0141753 0)
(27.9965 0.0156596 0)
(24.4779 0.00824047 0)
(16.884 0.00269283 0)
(16.9093 0.00264876 0)
(24.5011 0.0080831 0)
(28.0164 0.0149662 0)
(28.0358 0.0152557 0)
(24.5243 0.00829191 0)
(16.9343 0.00278231 0)
(16.96 0.00258069 0)
(24.5485 0.00771465 0)
(28.0568 0.0139058 0)
(28.0776 0.0140252 0)
(24.5734 0.00775026 0)
(16.9864 0.00258866 0)
(17.013 0.00226264 0)
(24.5992 0.00698516 0)
(28.1001 0.0128519 0)
(28.1216 0.0132899 0)
(24.6244 0.00708625 0)
(17.0386 0.0023002 0)
(17.0647 0.0022687 0)
(24.6503 0.00701447 0)
(28.1445 0.0131158 0)
(28.1666 0.0146134 0)
(24.6759 0.00746915 0)
(17.0903 0.00232741 0)
(17.1169 0.0022052 0)
(24.7029 0.00720434 0)
(28.1912 0.0143422 0)
(28.2142 0.0161007 0)
(24.7288 0.00792444 0)
(17.1423 0.00239794 0)
(17.1666 0.00233228 0)
(24.7543 0.00796673 0)
(28.2377 0.0160791 0)
(28.262 0.0171298 0)
(24.781 0.00843611 0)
(17.1916 0.00242418 0)
(17.2173 0.00229648 0)
(24.809 0.00793595 0)
(28.2884 0.0158587 0)
(28.3136 0.0162717 0)
(24.8361 0.00821011 0)
(17.2411 0.00235908 0)
(17.2662 0.00197131 0)
(24.8656 0.00754542 0)
(28.3417 0.015318 0)
(28.3715 0.0164611 0)
(24.8973 0.00794322 0)
(17.2925 0.00199953 0)
(17.3167 0.0018827 0)
(24.9281 0.00780223 0)
(28.4015 0.0164496 0)
(28.4299 0.0172392 0)
(24.9574 0.00796742 0)
(17.3383 0.00192176 0)
(17.3615 0.0014297 0)
(24.9896 0.00711631 0)
(28.4621 0.0163638 0)
(28.4955 0.0170935 0)
(25.0234 0.00694634 0)
(17.3851 0.00112392 0)
(17.4075 0.000925088 0)
(25.0575 0.00664522 0)
(28.5303 0.0167984 0)
(28.5656 0.0183034 0)
(25.0923 0.00724827 0)
(17.4287 0.000934872 0)
(17.4499 0.0010068 0)
(25.1293 0.00805018 0)
(28.604 0.019087 0)
(28.6429 0.0206699 0)
(25.167 0.00861089 0)
(17.4699 0.00104144 0)
(17.4898 0.000735826 0)
(25.2068 0.00816249 0)
(28.6848 0.0205243 0)
(28.7274 0.0220419 0)
(25.2475 0.00829929 0)
(17.5088 0.000509249 0)
(17.5272 2.24356e-05 0)
(25.2898 0.00792144 0)
(28.7726 0.0222089 0)
(28.8187 0.022753 0)
(25.3334 0.00780038 0)
(17.5446 -0.000295247 0)
(17.5639 -0.0005989 0)
(25.3817 0.00689974 0)
(28.8702 0.0210394 0)
(28.9249 0.0231292 0)
(25.4346 0.00799098 0)
(17.5862 -0.000544999 0)
(17.609 -0.000504039 0)
(25.4908 0.00926349 0)
(28.9836 0.0254481 0)
(29.0432 0.0311101 0)
(25.5488 0.0120844 0)
(17.6312 1.88785e-05 0)
(17.6543 0.000430827 0)
(25.6097 0.0131943 0)
(29.1065 0.0332454 0)
(29.1726 0.0366773 0)
(25.6748 0.0143758 0)
(17.6813 0.000498321 0)
(17.7121 0.000330559 0)
(25.7448 0.015144 0)
(29.2435 0.0381828 0)
(29.3174 0.0414597 0)
(25.8196 0.017182 0)
(17.7471 0.000864087 0)
(17.7881 0.00127739 0)
(25.9013 0.0183792 0)
(29.3973 0.0428377 0)
(29.4819 0.0457327 0)
(25.9905 0.0204473 0)
(17.8368 0.00184394 0)
(17.8944 0.00234749 0)
(26.0885 0.0222743 0)
(29.5733 0.0487919 0)
(29.6709 0.0516677 0)
(26.1956 0.0238954 0)
(17.9633 0.00328884 0)
(18.0464 0.00424596 0)
(26.313 0.026749 0)
(29.7754 0.057365 0)
(29.8853 0.0671954 0)
(26.4387 0.0323209 0)
(18.143 0.00624875 0)
(18.254 0.00854845 0)
(26.5727 0.0386767 0)
(30.0002 0.0769077 1.679e-19)
(30.1197 0.0861771 -1.68224e-19)
(26.7163 0.0445463 0)
(18.3825 0.0110774 0)
(18.5374 0.0138061 0)
(26.875 0.0505686 0)
(30.249 0.0951644 0)
(30.388 0.107105 0)
(27.0503 0.058429 0)
(18.7206 0.0173645 0)
(18.9346 0.0229475 0)
(27.244 0.0694709 0)
(30.5372 0.121404 0)
(30.6971 0.139412 0)
(27.4573 0.0833375 0)
(19.1817 0.0301198 0)
(19.4783 0.0377445 0)
(27.7011 0.0941039 0)
(30.8777 0.157367 0)
(31.086 0.180484 1.68117e-19)
(27.9894 0.103534 0)
(19.8489 0.0479031 0)
(20.3089 0.0769423 0)
(28.3189 0.135704 0)
(31.3165 0.233037 -1.68634e-19)
(31.5472 0.346302 -2.70907e-18)
(28.6583 0.254204 1.89622e-23)
(20.769 0.176093 2.29287e-18)
(21.2065 0.245254 -9.11899e-18)
(28.9849 0.34906 -5.29412e-23)
(31.7552 0.464157 2.53677e-18)
(31.9201 0.628334 -2.52223e-18)
(29.2527 0.514999 -7.02461e-18)
(21.6278 0.381694 9.03262e-18)
(21.9939 0.545199 1.42538e-19)
(29.4013 0.6997 -6.99978e-18)
(32.0273 0.79948 5.3334e-18)
(32.1086 0.963896 -5.46416e-18)
(29.6157 0.84944 0)
(22.3505 0.657676 0)
(22.6794 0.798679 1.80015e-17)
(29.7379 1.00764 -1.3747e-17)
(32.1743 1.11749 -5.09311e-18)
(32.2243 1.26185 0)
(29.8809 1.14404 -1.36032e-17)
(23.0538 0.917853 1.78715e-17)
(23.4503 1.04456 1.77424e-17)
(30.0209 1.28964 -4.21965e-19)
(32.2757 1.41688 0)
(32.2765 1.58657 0)
(30.1121 1.47336 4.22593e-19)
(23.8019 1.205 -5.53846e-19)
(24.1077 1.31756 -1.63645e-17)
(30.1944 1.60688 0)
(32.2633 1.7214 0)
(32.2517 1.82683 -1.02947e-17)
(30.2862 1.70245 1.35214e-17)
(24.4448 1.40432 -1.82944e-17)
(24.8175 1.52205 0)
(30.3814 1.82342 1.65877e-18)
(32.249 1.93522 0)
(32.2267 2.06355 -9.74692e-18)
(30.4538 1.95265 -1.64304e-18)
(25.195 1.6338 -4.44266e-18)
(25.3892 1.71519 2.04841e-17)
(30.4974 2.11328 -3.46917e-17)
(32.1401 2.21432 2.41407e-17)
(31.9244 2.12654 2.98831e-17)
(30.3632 2.03487 -5.5489e-17)
(25.3538 1.58992 -2.03515e-17)
(20.2207 1.07375 -3.16661e-17)
(27.9911 1.55058 -3.12489e-18)
(30.8995 1.6957 -1.59499e-17)
(31.727 2.23065 -3.52743e-18)
(29.0599 2.10898 4.69852e-18)
(21.5019 1.58669 -3.10569e-18)
(21.4878 1.71606 1.39639e-18)
(29.1807 2.31954 -2.11685e-18)
(31.7466 2.49598 -1.60993e-18)
(31.6896 2.6306 5.25868e-17)
(29.2325 2.42555 -2.94172e-22)
(21.8051 1.81468 -4.46772e-17)
(22.2272 1.97755 3.33677e-19)
(29.2491 2.56986 6.49215e-17)
(31.6135 2.758 -1.82786e-23)
(31.6337 2.8649 2.46365e-17)
(29.4107 2.66086 -3.18327e-17)
(22.7478 2.08691 4.18361e-17)
(23.3132 2.2133 -3.18605e-19)
(29.5225 2.75927 1.20859e-19)
(31.6173 2.97511 2.33404e-17)
(31.6159 3.10618 -2.38849e-17)
(29.6801 2.91247 3.02673e-17)
(23.8441 2.37967 -3.09664e-19)
(24.3471 2.49496 6.17491e-19)
(29.7589 2.99183 2.82988e-17)
(31.5642 3.19159 -2.36275e-17)
(31.5531 3.29278 -1.80496e-17)
(29.8905 3.1332 -2.72446e-17)
(24.844 2.65551 4.04773e-17)
(25.3134 2.74496 -2.37091e-18)
(29.9874 3.1972 0)
(31.5151 3.36179 -2.62586e-18)
(31.462 3.49428 0)
(30.0774 3.33152 2.41337e-17)
(25.7378 2.86121 -6.88681e-17)
(25.9021 2.86655 5.0857e-17)
(30.0145 3.3654 0)
(31.2951 3.48439 -1.26539e-16)
(30.4934 2.95209 1.06653e-17)
(28.2035 2.98007 -3.14049e-18)
(22.3058 2.61584 -3.76851e-18)
(23.6643 2.85366 0)
(29.2444 3.45376 -2.30783e-18)
(31.1144 3.642 -6.95101e-18)
(31.1223 3.84347 0)
(29.3248 3.63336 -3.20592e-17)
(23.968 3.02294 4.23589e-17)
(24.4898 3.13912 6.33345e-19)
(29.5181 3.71961 -9.62326e-19)
(31.1162 3.94436 0)
(31.0878 4.08263 3.63467e-22)
(29.6014 3.91333 2.80063e-17)
(24.888 3.34863 -3.89183e-17)
(25.276 3.46771 3.4589e-17)
(29.6687 4.00066 3.49201e-18)
(31.0459 4.16645 0)
(30.9979 4.28372 1.98572e-17)
(29.758 4.12167 -1.66705e-18)
(25.6802 3.59989 -2.24965e-18)
(25.8683 3.74153 4.10981e-18)
(29.7304 4.31312 0)
(30.8691 4.43769 -3.21864e-17)
(30.6462 4.41017 -3.70476e-18)
(29.599 4.25322 2.28213e-18)
(25.9737 3.68839 4.60405e-17)
(22.8491 3.52624 0)
(28.0756 4.03075 -3.08076e-18)
(29.947 4.04872 7.91818e-18)
(30.3914 4.60415 3.78727e-17)
(28.8835 4.42714 -7.45139e-17)
(24.0007 3.76562 9.70036e-17)
(24.2959 3.94774 -4.36926e-17)
(28.9126 4.61038 -3.1917e-17)
(30.3089 4.79839 1.54732e-18)
(30.1595 4.96274 -2.39046e-17)
(28.9021 4.80415 -3.15755e-17)
(24.6745 4.18501 8.40934e-17)
(25.0569 4.35698 0)
(28.8735 4.90883 3.73032e-18)
(30.0137 5.09233 0)
(29.8559 5.27227 0)
(28.883 5.0605 9.54822e-18)
(25.4538 4.542 0)
(25.5165 4.68985 0)
(28.7039 5.27552 -1.97972e-17)
(29.5244 5.36695 0)
(28.8814 5.28069 -2.50641e-17)
(27.385 4.81346 2.59088e-17)
(22.9515 3.93705 0)
(24.2191 4.71478 1.0094e-16)
(28.0055 5.31873 2.94713e-19)
(29.267 5.51445 -1.78701e-18)
(29.1169 5.81154 -2.44524e-17)
(28.0463 5.66911 3.24122e-17)
(24.5069 5.06261 -8.72338e-17)
(24.8331 5.22781 8.10223e-17)
(27.9989 5.76015 -6.00057e-17)
(28.9351 5.93393 -2.18108e-17)
(28.6981 6.14472 -3.4676e-17)
(27.9202 5.99222 8.8575e-17)
(25.0225 5.4552 -1.52735e-16)
(24.9658 5.55575 2.11415e-16)
(27.635 6.1268 9.80251e-17)
(28.3044 6.20604 1.49526e-21)
(27.7287 6.23139 -7.07224e-19)
(26.5669 5.68916 -8.26342e-19)
(22.8327 4.80845 -1.00413e-18)
(23.716 5.84434 1.02227e-16)
(26.8774 6.4578 6.0077e-19)
(27.8653 6.57155 0)
(27.5013 6.77976 9.77036e-17)
(26.7079 6.61494 -6.65296e-17)
(23.7926 6.07967 -2.4557e-18)
(24.0084 6.40328 2.48589e-18)
(26.4853 6.86691 0)
(27.1079 7.02631 -5.61234e-17)
(26.5754 7.16222 -3.37798e-17)
(26.0785 7.14926 0)
(23.8517 6.63469 3.31344e-18)
(22.1865 5.85428 -1.40098e-16)
(25.1495 6.71888 1.10273e-16)
(25.9749 7.31662 0)
(25.8858 7.617 -5.7869e-17)
(25.1313 7.56891 7.7308e-17)
(22.8294 7.10349 2.02091e-19)
(22.7536 7.34565 8.85028e-17)
(24.7948 7.66456 0)
(25.338 7.76747 0)
(24.6722 8.0195 0)
(24.251 8.05585 -5.4034e-17)
(22.5593 7.82237 1.55668e-16)
(22.0925 8.00078 0)
(23.5144 8.19113 0)
(23.8114 8.0738 -8.03647e-18)
(22.8305 8.43651 1.09658e-17)
(22.3469 8.29522 0)
(20.3964 7.97503 -1.32091e-16)
(20.3074 8.61716 -1.20742e-17)
(21.7515 8.77479 -1.32767e-16)
(22.1214 8.64812 9.35079e-22)
(20.869 8.60374 -4.656e-18)
(20.6263 8.8592 5.91519e-18)
(19.5023 8.80324 1.87943e-17)
(17.5625 9.00289 -4.51643e-18)
(19.058 9.07809 -1.47026e-17)
(19.5117 8.92606 1.79666e-17)
(18.3282 8.86946 -8.52751e-17)
(17.9797 9.22855 1.2261e-16)
(16.9493 9.4132 -1.24241e-17)
(15.3067 9.40611 2.46773e-16)
(15.9953 8.82544 -1.52637e-16)
(16.3285 8.12351 0)
(13.3855 8.19037 -7.22849e-17)
(12.953 8.6815 -1.20303e-17)
(12.121 9.13144 0)
(9.31176 7.72963 0)
(9.92691 6.85902 1.78638e-17)
(10.7067 5.88047 -9.0303e-18)
(7.33307 3.94354 -1.32506e-16)
(5.87159 4.90679 3.63403e-16)
(4.9645 5.15711 -2.44758e-16)
(1.89462 0.80883 1.99195e-16)
(3.16298 -0.218953 -2.70667e-16)
(5.08123 -1.14565 1.83607e-16)
(3.76879 -9.54441 0)
(1.55734 -9.57256 -4.39437e-17)
(-0.182879 -9.83276 1.27286e-16)
(3.37754 -18.2985 -9.60491e-19)
(5.06783 -17.3011 4.64758e-17)
(6.51274 -16.5439 -3.20333e-17)
(11.7631 -20.9816 -9.0885e-19)