/*--------------------------------*- C++ -*----------------------------------*\
| =========                 |                                                 |
| \\      /  F ield         | OpenFOAM: The Open Source CFD Toolbox           |
|  \\    /   O peration     | Version:  v2006                                 |
|   \\  /    A nd           | Website:  www.openfoam.com                      |
|    \\/     M anipulation  |                                                 |
\*---------------------------------------------------------------------------*/
FoamFile
{
    version     2.0;
    format      ascii;
    class       volScalarField;
    location    "0.092";
    object      Co;
}
// * * * * * * * * * * * * * * * * * * * * * * * * * * * * * * * * * * * * * //

dimensions      [0 0 0 0 0 0 0];


internalField   nonuniform List<scalar> 
16277
(
0.00667708
0.00636464
0.00690773
0.00717227
0.00721048
0.0070593
0.00705555
0.00693654
0.00688482
0.00687085
0.00683286
0.00681845
0.0068045
0.00679458
0.0067836
0.0067725
0.00676083
0.0067485
0.00673579
0.00672251
0.00670866
0.00669424
0.00667926
0.00666374
0.00664769
0.00663111
0.00661401
0.00659639
0.00657827
0.00655966
0.00654057
0.00652101
0.006501
0.00648055
0.00645968
0.00643841
0.00641675
0.00639473
0.00637236
0.00634967
0.00632668
0.00630341
0.00627988
0.00625612
0.00623215
0.00620799
0.00618367
0.00615923
0.00613467
0.00611004
0.00608535
0.00606064
0.00603593
0.00601126
0.00598665
0.00596212
0.00593772
0.00591347
0.00588939
0.00586553
0.00584191
0.00581856
0.00579551
0.00577279
0.00575043
0.00572846
0.00570691
0.0056858
0.00566516
0.00564501
0.00562538
0.0056063
0.00558779
0.00556987
0.00555258
0.00553594
0.0055199
0.00550441
0.00548792
0.00547302
0.00545976
0.00545031
0.00544817
0.00548117
0.00554507
0.0057188
0.00603283
0.00675089
0.00842312
0.0120105
0.0180103
0.0141693
0.0127296
0.0121942
0.0119258
0.0116613
0.0111367
0.0100991
0.0110809
0.0117206
0.0109193
0.0108028
0.010163
0.00839085
0.00903381
0.00924033
0.0091897
0.00918728
0.00861886
0.00784113
0.00854888
0.00872188
0.00899108
0.0088336
0.00804726
0.00782792
0.00863285
0.00881863
0.00902249
0.00880062
0.00789321
0.00779389
0.00867265
0.00886592
0.00903539
0.0087726
0.00779683
0.00769607
0.0086435
0.00886664
0.00899345
0.00871472
0.00767771
0.0075818
0.00858216
0.0088351
0.00895364
0.00864936
0.00756549
0.00747525
0.00851733
0.00879543
0.00891062
0.0085842
0.00746331
0.00737764
0.00845333
0.00875366
0.00886597
0.00852016
0.007369
0.00728692
0.0083912
0.00871086
0.00882033
0.00845728
0.00728085
0.0072014
0.00833088
0.00866749
0.00877382
0.00839513
0.00719737
0.00712009
0.00827069
0.00862238
0.00872645
0.00833344
0.00711749
0.00704198
0.00821046
0.00857577
0.00867813
0.00827198
0.0070404
0.00696633
0.00815005
0.00852764
0.00862887
0.00821058
0.00696547
0.00689256
0.00808926
0.00847798
0.00857859
0.008149
0.00689215
0.00682015
0.0080279
0.00842674
0.00852716
0.00808703
0.00681999
0.00674879
0.00796589
0.00837393
0.00847448
0.00802447
0.00674865
0.00667795
0.00790295
0.00831948
0.00842048
0.00796119
0.0066778
0.0066075
0.00783904
0.00826333
0.00836506
0.00789703
0.00660721
0.00653722
0.00777404
0.00820538
0.00830811
0.00783184
0.00653664
0.00646687
0.00770779
0.00814559
0.00824951
0.00776547
0.00646591
0.00639626
0.0076414
0.00808654
0.00818912
0.00769779
0.00639478
0.00632518
0.0075738
0.00802627
0.00812691
0.00762869
0.00632309
0.00625346
0.00750473
0.00796415
0.00806276
0.00755804
0.00625066
0.00618092
0.00743405
0.00790007
0.00799655
0.00748569
0.00617732
0.00610738
0.00736162
0.0078339
0.00792817
0.0074115
0.00610288
0.00603268
0.0072873
0.00776554
0.00785749
0.00733533
0.0060272
0.00595667
0.00721097
0.00769486
0.0077844
0.00725705
0.00595012
0.00587919
0.00713248
0.00762176
0.00770879
0.00717654
0.0058715
0.00580012
0.00705174
0.00754612
0.00763055
0.00709368
0.00579123
0.00571937
0.00696864
0.00746786
0.00754958
0.0070084
0.00570922
0.00563686
0.00688311
0.00738688
0.00746583
0.00692063
0.00562543
0.00555257
0.00679509
0.00730312
0.00737923
0.00683033
0.00553985
0.00546654
0.00670459
0.00721656
0.00728978
0.00673756
0.00545258
0.00537888
0.00661169
0.00712721
0.00719757
0.00664243
0.00536375
0.0052898
0.00651654
0.00703519
0.00710272
0.00654513
0.00527362
0.00519956
0.00641937
0.00694067
0.00700545
0.00644595
0.00518252
0.00510859
0.00632051
0.00684388
0.00690608
0.0063453
0.00509094
0.00501743
0.00622046
0.00674521
0.00680507
0.00624376
0.00499953
0.00492684
0.00611986
0.00664518
0.00670302
0.00614209
0.00490914
0.00483779
0.00601958
0.00654447
0.00660077
0.00604127
0.00482088
0.00475148
0.0059207
0.006444
0.00649936
0.00594255
0.00473609
0.00466941
0.00582458
0.00634491
0.00640011
0.00584746
0.00465642
0.00459337
0.0057329
0.00624864
0.0063047
0.00575791
0.00458387
0.00452551
0.00564772
0.00615703
0.00621513
0.00567602
0.00452071
0.00446993
0.00557252
0.00607208
0.0061335
0.005604
0.00446975
0.00443465
0.00552356
0.00600886
0.00606262
0.00554528
0.00443451
0.00441698
0.00549653
0.00598016
0.00600602
0.00550296
0.00441687
0.00441869
0.00548961
0.00597116
0.00596684
0.00547971
0.00441862
0.00444041
0.00550348
0.00598231
0.00594398
0.00547429
0.00444038
0.0044814
0.005537
0.00601215
0.0059471
0.00549734
0.00448463
0.00454277
0.00559226
0.00606393
0.0059961
0.00556013
0.00455576
0.00462422
0.0056683
0.00613599
0.00607148
0.00564064
0.00464306
0.00471726
0.00575626
0.0062187
0.00615684
0.00573214
0.00473952
0.00481675
0.00585245
0.00630895
0.0062482
0.00582988
0.00484007
0.00491859
0.00595358
0.00640437
0.00634343
0.00593105
0.00494141
0.00501972
0.00605655
0.00650219
0.00643966
0.00603257
0.00504068
0.00511737
0.00615832
0.00659953
0.00653425
0.00613167
0.00513522
0.00520911
0.00625636
0.00669391
0.00662497
0.00622601
0.00522289
0.00529306
0.00634855
0.00678332
0.00670998
0.00631373
0.00530206
0.00536781
0.00643322
0.00686609
0.00678786
0.0063934
0.00537158
0.0054326
0.00650914
0.00694098
0.00685758
0.0064654
0.00543276
0.00548732
0.00657556
0.00700724
0.00692207
0.0065349
0.00548747
0.00553191
0.00663203
0.00706447
0.00699152
0.00659964
0.00553206
0.00556675
0.00667899
0.00711291
0.00705436
0.00665439
0.00556689
0.00559255
0.00671697
0.007153
0.00710774
0.00669938
0.00559266
0.0056103
0.00674669
0.00718532
0.00715187
0.00673515
0.00561037
0.0056213
0.00676927
0.00721096
0.0071875
0.00676268
0.00562135
0.00562696
0.00678587
0.007231
0.00721567
0.00678314
0.00562697
0.00562848
0.00679758
0.00724638
0.00723755
0.00679779
0.00562849
0.00562696
0.00680534
0.00725795
0.00725421
0.00680773
0.00562697
0.00562327
0.0068099
0.00726627
0.00726627
0.0068137
0.00562318
0.00561767
0.00681146
0.00727145
0.00727446
0.00681647
0.00561766
0.00561113
0.00681123
0.0072746
0.00728013
0.00681739
0.00561149
0.00560441
0.00681091
0.00727863
0.00728607
0.00681794
0.00560478
0.00559761
0.0068097
0.00728018
0.00728778
0.00681586
0.00559742
0.00558876
0.00680449
0.00727905
0.00728687
0.00681062
0.00558851
0.00558102
0.0068012
0.00727887
0.00728849
0.00680881
0.0055818
0.00557426
0.00679927
0.00727986
0.00728841
0.00680537
0.00557433
0.00556635
0.00679332
0.00727689
0.00728587
0.00679933
0.00556593
0.00555839
0.00678817
0.00727444
0.00728328
0.00679412
0.00555839
0.00555146
0.00678453
0.00727437
0.00728322
0.00679073
0.00555159
0.00554449
0.0067802
0.00727282
0.00728168
0.00678622
0.0055418
0.00552979
0.00676267
0.00725675
0.00723135
0.00673034
0.00548815
0.00547426
0.0066987
0.00720008
0.0070593
0.00652995
0.00531436
0.0054166
0.00662601
0.00711489
0.00681007
0.00626132
0.00506662
0.00559877
0.00684711
0.00731226
0.0073123
0.00661226
0.00526209
0.00651204
0.00811142
0.00881305
0.00956924
0.00848185
0.00655748
0.00821969
0.0119355
0.014956
0.0140277
0.0182235
0.0155694
0.0146118
0.0139356
0.0137484
0.0136332
0.013661
0.0136683
0.0136918
0.013704
0.0137598
0.0138636
0.01403
0.0143967
0.0152831
0.0195568
0.027909
0.0299362
0.0272943
0.0258349
0.0235926
0.0210749
0.0180107
0.012417
0.0110216
0.0165046
0.0198786
0.0177709
0.0154526
0.0105619
0.00876956
0.0129269
0.0150931
0.014116
0.0123425
0.00847781
0.00785146
0.0115735
0.0133656
0.0131227
0.0114468
0.00774883
0.00761882
0.011236
0.0129526
0.0129687
0.0112352
0.0076132
0.00761093
0.0112298
0.0129494
0.0129584
0.0112387
0.00762662
0.00763452
0.0112467
0.0129635
0.0129709
0.0112529
0.00764152
0.00764256
0.0112383
0.0129633
0.0129988
0.0112954
0.00766858
0.00766908
0.0112794
0.0129914
0.0129991
0.0112871
0.0076778
0.00768009
0.0112743
0.0129799
0.0130413
0.0113179
0.00769776
0.00771564
0.0113275
0.0130216
0.0130294
0.0113123
0.00770902
0.00772796
0.0113239
0.0130105
0.0130722
0.0113556
0.00773796
0.00775538
0.0113633
0.0130521
0.0130616
0.0113533
0.00775179
0.00776861
0.0113601
0.013042
0.0131047
0.0113965
0.00778137
0.00779822
0.0114029
0.0130845
0.0130941
0.0113934
0.00779518
0.00781226
0.0114003
0.0130747
0.0131373
0.0114352
0.00782464
0.00784451
0.011447
0.0131187
0.0131273
0.011432
0.0078387
0.00785805
0.0114422
0.0131085
0.0131722
0.0114799
0.00787181
0.00789042
0.0114891
0.0131533
0.0131621
0.0114854
0.00789261
0.00789688
0.0114735
0.0131438
0.0132081
0.0115235
0.00791895
0.00793741
0.0115319
0.0131893
0.0131984
0.0115289
0.00794003
0.00794482
0.0115179
0.0131807
0.0132454
0.0115676
0.00796675
0.00798493
0.0115752
0.0132268
0.0132368
0.0115744
0.00798878
0.00799454
0.0115661
0.0132203
0.0132843
0.0116099
0.00801327
0.00803321
0.0116204
0.0132661
0.0132782
0.0116253
0.00803949
0.0080423
0.0116121
0.0132615
0.0133261
0.0116567
0.00806116
0.00808183
0.0116694
0.0133092
0.0133223
0.0116739
0.00808736
0.00808964
0.011661
0.0133066
0.0133725
0.0117072
0.00810868
0.00813082
0.0117241
0.0133579
0.0133714
0.0117245
0.00813325
0.00813542
0.0117123
0.0133569
0.0134261
0.0117651
0.00815702
0.00817502
0.0117768
0.013412
0.0134281
0.0117825
0.00817926
0.0081803
0.0117711
0.0134155
0.0134872
0.0118256
0.00820119
0.00821782
0.0118381
0.0134752
0.0134941
0.0118351
0.00821383
0.00822896
0.0118478
0.0134843
0.0135585
0.011892
0.00824011
0.00825864
0.0119125
0.0135511
0.0135724
0.0119053
0.00824898
0.0082684
0.0119291
0.0135678
0.0136466
0.0119719
0.00827516
0.0082954
0.0119989
0.0136447
0.0136719
0.0120067
0.00829274
0.00829512
0.0120101
0.0136719
0.0137595
0.01208
0.008317
0.00833293
0.0121042
0.0137629
0.0137989
0.0121281
0.00833994
0.00834575
0.0121378
0.0138082
0.0139055
0.0122188
0.00837476
0.00840156
0.0122584
0.0139191
0.0139648
0.0122747
0.00840683
0.00845019
0.0123354
0.0139868
0.0140962
0.0124147
0.00848289
0.00852744
0.0124663
0.0141216
0.0141874
0.0125346
0.0085758
0.008635
0.0125932
0.0142369
0.0143367
0.0126858
0.00870109
0.00878413
0.0127811
0.0144017
0.0144781
0.0128581
0.00886495
0.00897777
0.0129713
0.0145656
0.0146767
0.0131199
0.00912163
0.00925936
0.0132281
0.0147819
0.0149227
0.013424
0.00946226
0.00970499
0.0136406
0.0150658
0.0152138
0.0138165
0.00994589
0.010114
0.0139233
0.0152709
0.0154224
0.0139798
0.010267
0.0105947
0.0142529
0.0155065
0.0155975
0.0143036
0.0106655
0.010901
0.0144035
0.0156481
0.0157778
0.0145747
0.011125
0.0113669
0.0146705
0.0158798
0.0161323
0.0150432
0.0117624
0.0119746
0.015156
0.016235
0.0166013
0.0155842
0.0125047
0.0126817
0.0156789
0.0166753
0.0167757
0.0162548
0.0135621
0.013175
0.0150399
0.0146461
0.0436281
0.0321341
0.0187864
0.0122595
0.0207169
0.029031
0.0191807
0.0169496
0.0119155
0.0110719
0.0150712
0.0163752
0.0157539
0.0146952
0.0110849
0.0111894
0.0149438
0.0162748
0.0160126
0.0147913
0.0113337
0.0117993
0.0152412
0.0164972
0.016229
0.0151064
0.0120052
0.0127918
0.0159981
0.016988
0.0168777
0.0159041
0.0129698
0.0137903
0.0165322
0.0172012
0.0150247
0.0154855
0.0137265
0.0190735
0.0314402
0.0422974
0.0299502
0.0218237
0.0136506
0.0135903
0.0180262
0.0200347
0.0179494
0.0166935
0.0131956
0.0132208
0.0163935
0.01748
0.0172629
0.0162592
0.0134367
0.013608
0.0163175
0.0171831
0.0171149
0.0165071
0.0141427
0.0137761
0.0150371
0.0144238
0.0421167
0.031491
0.0194237
0.0154762
0.0226004
0.029578
0.0199836
0.0180557
0.0139992
0.0136911
0.0166086
0.0174591
0.0168227
0.0162853
0.0138347
0.0142183
0.0165518
0.0171049
0.0147307
0.0154471
0.014174
0.0193509
0.030963
0.0410297
0.0305024
0.0225302
0.0146487
0.0150994
0.0189127
0.020598
0.0184387
0.0173985
0.0145142
0.0148778
0.017079
0.017554
0.0142477
0.0151087
0.0142405
0.0198016
0.0309627
0.0408437
0.0300939
0.0227338
0.0152401
0.0149008
0.0181606
0.0196807
0.0172392
0.0167023
0.0145612
0.0144667
0.0153239
0.0144548
0.0390899
0.0298475
0.0193463
0.0154285
0.0228029
0.0300735
0.0200436
0.0184418
0.0153004
0.0149953
0.0169966
0.0174686
0.013545
0.0146739
0.0144731
0.0193885
0.0289123
0.0366294
0.0275299
0.0221571
0.0164313
0.0147225
0.0156967
0.0149996
0.034165
0.0271718
0.0184723
0.0161247
0.0212053
0.025707
0.0131701
0.0139851
0.0132876
0.0156145
0.0218015
0.0260589
0.0138656
0.0128701
0.0109772
0.0110511
0.0161032
0.0195684
0.00483295
0.00459434
0.00428122
0.00562401
0.00910952
0.0111708
0.0138955
0.0120667
0.00869705
0.0142804
0.0170926
0.0186033
0.022418
0.021317
0.0188502
0.0206934
0.0219302
0.0215811
0.0370834
0.0322018
0.0244816
0.0252154
0.0331019
0.038318
0.0373972
0.0329522
0.0256054
0.026929
0.0364747
0.0428525
0.0266877
0.026825
0.0236901
0.0238039
0.0353442
0.0461514
0.0490184
0.0386326
0.0261825
0.0240118
0.0315647
0.0367012
0.0453142
0.0371176
0.0262742
0.0221389
0.0254333
0.0257742
0.0429639
0.0338058
0.0240892
0.0260291
0.0385075
0.0489261
0.0251052
0.0247865
0.0213923
0.0233159
0.0331348
0.042061
0.0487596
0.0381192
0.0254096
0.0208907
0.0242212
0.0245593
0.0415608
0.0324821
0.0227913
0.0250431
0.0377472
0.0485308
0.0245219
0.024122
0.0206408
0.0226973
0.0321801
0.0411957
0.0483947
0.0377117
0.0251522
0.0205947
0.0238957
0.0242696
0.0409167
0.0320275
0.0224007
0.0247575
0.0375025
0.0480719
0.0243574
0.023843
0.0204254
0.0222529
0.0316598
0.0406428
0.0480534
0.0372886
0.0246347
0.0200546
0.0233523
0.0238718
0.0395677
0.0308686
0.0217435
0.0243113
0.0368775
0.0475008
0.0211458
0.0214204
0.0191432
0.0200257
0.0251263
0.0279545
0.0411335
0.0305132
0.0196841
0.0234396
0.0366867
0.0479216
0.0228537
0.0227042
0.0192652
0.022202
0.0314543
0.0399695
0.0473318
0.0367508
0.0239152
0.0192361
0.0225105
0.0235519
0.0408549
0.0305142
0.0200199
0.0236832
0.0368863
0.0476972
0.0236218
0.0233897
0.0196471
0.0222832
0.0317721
0.0405419
0.0477665
0.0366891
0.0238189
0.0194839
0.0232998
0.0239723
0.0404237
0.0317199
0.0224156
0.0240943
0.0369679
0.0478062
0.0236151
0.0227195
0.0192716
0.02068
0.0310699
0.0409575
0.0479939
0.0372562
0.0241423
0.0196168
0.0231857
0.0241498
0.0416805
0.0311809
0.0205595
0.0243716
0.0375012
0.0483396
0.0242908
0.02326
0.0198204
0.0204664
0.0320453
0.0432566
0.047944
0.0370132
0.0237983
0.0215988
0.0294927
0.0350297
0.0444338
0.0359775
0.0244628
0.0207911
0.024639
0.0253661
0.0417836
0.032599
0.0226676
0.024875
0.0376511
0.0482499
0.0250215
0.0241849
0.020355
0.022367
0.0322933
0.041442
0.0485551
0.037895
0.0248992
0.0206048
0.0242578
0.0248617
0.0422553
0.0327911
0.0227038
0.0249874
0.0379459
0.0488087
0.0253211
0.0247495
0.0207776
0.0229823
0.0331635
0.042536
0.0492911
0.0385014
0.0254681
0.0209476
0.0243719
0.0255235
0.0450704
0.0335251
0.0217874
0.0249226
0.0382282
0.0493904
0.0370971
0.0313927
0.022934
0.0250068
0.0366133
0.045195
0.0263605
0.025478
0.02136
0.0236867
0.0342654
0.0438382
0.0499592
0.0391403
0.0258693
0.021869
0.0258673
0.0263929
0.0461844
0.0349026
0.0229325
0.0254776
0.0386944
0.0500346
0.0376795
0.0318269
0.0234722
0.0258336
0.0374918
0.0462067
0.0273723
0.0265081
0.0223011
0.0244375
0.0349802
0.044901
0.0509973
0.0398641
0.0266276
0.0226964
0.0267863
0.0271764
0.0472163
0.0356455
0.0235787
0.0260517
0.039344
0.0507001
0.0386569
0.0326775
0.0240347
0.0263967
0.0382215
0.0468947
0.0277071
0.0269067
0.0228463
0.0249671
0.0359541
0.0462201
0.0520077
0.041173
0.0274058
0.0227391
0.0267206
0.0276177
0.0475972
0.0375283
0.0268989
0.0272009
0.0405623
0.0517475
0.0396751
0.033584
0.0246764
0.0271236
0.0391744
0.0478321
0.0289078
0.0279921
0.0236879
0.025108
0.0373341
0.0493422
0.0526043
0.0411052
0.0273744
0.0254944
0.0344554
0.0407186
0.0487872
0.0400269
0.0279337
0.0239131
0.0283877
0.0292909
0.0494795
0.0388055
0.0272055
0.0279501
0.0413957
0.0527862
0.0412185
0.0348722
0.0258744
0.0284758
0.0405487
0.0494194
0.03009
0.0292074
0.0245468
0.0281423
0.039709
0.0505376
0.05395
0.0425177
0.0289225
0.026552
0.035694
0.0421283
0.0501771
0.0412154
0.0288757
0.0250788
0.0294985
0.0303693
0.0515395
0.0394885
0.0264629
0.0287287
0.0429955
0.0547434
0.0430157
0.036287
0.0268451
0.0292518
0.0417357
0.0509365
0.0311427
0.030228
0.0254329
0.0297801
0.0417354
0.0524533
0.0549775
0.0438896
0.0301377
0.0278726
0.0380538
0.0451594
0.0507972
0.0416615
0.0294195
0.027469
0.0371475
0.0435788
0.0509143
0.0421627
0.0297144
0.0261932
0.0311394
0.0321835
0.0536761
0.041892
0.0294521
0.0305119
0.0448181
0.0565526
0.0450602
0.0381333
0.0283
0.030522
0.043513
0.0525079
0.0322535
0.0314042
0.0265949
0.0310785
0.0432974
0.0545434
0.0568906
0.0453397
0.0312329
0.0287454
0.0392755
0.0469192
0.0526357
0.0429569
0.0302435
0.02871
0.0385805
0.0454969
0.0530413
0.0439893
0.0313468
0.0273259
0.0323022
0.0335
0.0567785
0.0435872
0.0295455
0.0313904
0.0463521
0.0588372
0.0485526
0.040567
0.0296323
0.0312926
0.0442825
0.0538501
0.0471118
0.0399709
0.0297667
0.0317757
0.0447539
0.0537705
0.0342365
0.0330527
0.0278645
0.0317257
0.0448787
0.0572818
0.0592368
0.047173
0.0324521
0.0306109
0.0416821
0.0495603
0.0551142
0.045447
0.0321832
0.0306002
0.0408979
0.0479297
0.0552615
0.0461412
0.0329063
0.0289769
0.0341481
0.0352324
0.05898
0.0454873
0.0312092
0.0330102
0.0482906
0.0609203
0.0505941
0.0422509
0.0308561
0.0327385
0.0460932
0.0558823
0.0491816
0.0415844
0.0309951
0.0337794
0.0470149
0.0563136
0.0359021
0.0346671
0.0296287
0.0313276
0.0466781
0.0610176
0.0625095
0.0489194
0.0329376
0.0318018
0.043696
0.0520633
0.0575293
0.0475239
0.0335198
0.0320988
0.0430018
0.0503754
0.0577334
0.0481289
0.0345304
0.0302565
0.0354823
0.0366581
0.0622517
0.0473473
0.0318838
0.0337905
0.0499699
0.0636973
0.0533716
0.0447014
0.0328877
0.0347335
0.0485974
0.058567
0.053786
0.0453567
0.033254
0.035009
0.0486155
0.0585938
0.0523638
0.0444961
0.0330926
0.0358091
0.0497748
0.0591591
0.0385595
0.0373525
0.0314356
0.0365251
0.0506715
0.0635853
0.0647526
0.0518418
0.0363547
0.0340525
0.0462274
0.0549044
0.059485
0.0493575
0.0354047
0.0340529
0.0461064
0.0550112
0.0599074
0.0498331
0.0361047
0.0341344
0.0457295
0.0535497
0.0608624
0.0510353
0.0368559
0.0323726
0.0379799
0.0392917
0.0662618
0.0511338
0.0347662
0.0364223
0.0533133
0.0670962
0.0566951
0.0476412
0.0350882
0.0367785
0.0511684
0.0617545
0.0568377
0.0481213
0.0353086
0.037055
0.0513439
0.0614761
0.0552414
0.047054
0.0352261
0.0378061
0.0521088
0.0624148
0.040657
0.0392224
0.0333303
0.0357782
0.0525799
0.0681544
0.0691515
0.0544034
0.0371463
0.0360814
0.0489273
0.0584367
0.063157
0.0524081
0.0378231
0.0366231
0.0495778
0.0588334
0.0633987
0.052892
0.0383455
0.0362488
0.0481571
0.0567947
0.0642501
0.0538331
0.0392046
0.0343279
0.0403586
0.0413468
0.0692798
0.0553937
0.0399427
0.0398641
0.0567855
0.070392
0.0600782
0.0503891
0.0371523
0.0389848
0.0543018
0.0651879
0.0608584
0.0512984
0.0379302
0.0394982
0.0541841
0.0646984
0.0612826
0.0513262
0.0378362
0.0400156
0.0547539
0.0655211
0.0598056
0.05077
0.0379644
0.0405176
0.0556771
0.0664001
0.0431979
0.0417889
0.035915
0.0380149
0.0558088
0.0731861
0.0737163
0.0578334
0.0395714
0.0385671
0.0523796
0.0622482
0.0671596
0.0561324
0.0403421
0.0391283
0.0526949
0.0624069
0.0667301
0.0560098
0.040919
0.039278
0.0529952
0.0627774
0.0677456
0.0565582
0.0414026
0.0392915
0.0519624
0.0613423
0.0689827
0.0578339
0.0424079
0.0370695
0.0431703
0.0447879
0.0753994
0.0584714
0.0404226
0.0421878
0.0607744
0.0761117
0.0648391
0.0549891
0.0407754
0.0423699
0.0583917
0.0699046
0.0649746
0.0551395
0.0409374
0.0426245
0.0580883
0.0692675
0.0656462
0.0554336
0.041144
0.0431258
0.0587874
0.0700305
0.0640883
0.0541724
0.0407561
0.0437828
0.0596884
0.0710159
0.0464497
0.0451407
0.0387547
0.041125
0.0602239
0.0780212
0.0790603
0.0622402
0.042747
0.0418348
0.056386
0.0669597
0.0723532
0.0598342
0.0434983
0.0421584
0.0567805
0.0672805
0.0714761
0.0602603
0.0441201
0.0423685
0.0570227
0.0679923
0.0728539
0.0611326
0.0446394
0.0423862
0.0561881
0.0657459
0.0738941
0.0624835
0.0455798
0.0401392
0.0465088
0.0478986
0.0812611
0.0626298
0.0434448
0.0450496
0.0646848
0.0820459
0.0696004
0.0588478
0.043688
0.0454955
0.062692
0.075096
0.0699683
0.0588504
0.0438852
0.0458852
0.0621899
0.074329
0.0706501
0.0594962
0.0442009
0.046412
0.0630152
0.0750246
0.0688309
0.0585229
0.0441986
0.0473107
0.0645017
0.0763865
0.0497154
0.0482991
0.0418191
0.0441832
0.0647225
0.0844329
0.0854004
0.0669679
0.0460368
0.045407
0.0609667
0.0721256
0.0776225
0.0650114
0.0472529
0.0455772
0.0613372
0.0725068
0.0772291
0.0648754
0.0475478
0.045905
0.0617932
0.0733012
0.0778083
0.0655168
0.0482525
0.0463053
0.0620316
0.0734181
0.0787216
0.0662532
0.0488973
0.0461494
0.0606278
0.0712107
0.0800429
0.0674466
0.0498551
0.0436707
0.0505867
0.0520397
0.0872626
0.068767
0.0492628
0.0503338
0.0711853
0.0882145
0.0753228
0.0637529
0.0477983
0.0496871
0.0681127
0.0814661
0.0758287
0.0643054
0.0481334
0.05029
0.0682098
0.0808221
0.0763858
0.0646249
0.0485431
0.050826
0.0685567
0.0819532
0.0741655
0.063256
0.048105
0.0514318
0.0697779
0.0828002
0.0544593
0.0527834
0.0455911
0.0498741
0.0711293
0.0912039
0.0919865
0.0736109
0.0513895
0.0494468
0.0660856
0.078156
0.0839926
0.0700184
0.0514112
0.0497456
0.0665193
0.0785921
0.0836874
0.0705487
0.0519774
0.0502394
0.0669935
0.0790104
0.0846894
0.0713326
0.0526446
0.0500272
0.0656247
0.0767908
0.0862298
0.0730441
0.0537312
0.04705
0.054408
0.0558642
0.0941321
0.0744434
0.0537293
0.0546183
0.0768029
0.0950491
0.0810767
0.0686005
0.0516054
0.0536611
0.0732822
0.0877064
0.0815749
0.069141
0.0519438
0.0543552
0.0733531
0.0873175
0.0821753
0.0695056
0.0521953
0.0548835
0.0740874
0.0882789
0.0798892
0.0682197
0.0520792
0.0558668
0.0755421
0.0892529
0.0587079
0.0570621
0.0494
0.054478
0.076916
0.0984525
0.0994135
0.0792263
0.0560594
0.053996
0.0717118
0.0846187
0.0907732
0.0761748
0.0560716
0.0541737
0.0719199
0.0848155
0.0907252
0.0762857
0.0566537
0.0543888
0.0722701
0.0851704
0.091712
0.0773171
0.0572307
0.0539277
0.0705859
0.0825645
0.0932575
0.0790207
0.0582036
0.0511894
0.0588428
0.0604093
0.101627
0.0796627
0.0566835
0.0584029
0.0825078
0.103146
0.0874915
0.0741082
0.0559794
0.0584671
0.0793866
0.0951323
0.0881455
0.0748721
0.0565583
0.0592518
0.0796219
0.0948188
0.0862921
0.0738314
0.0564011
0.0598722
0.0812913
0.0963906
0.062259
0.0607569
0.0530593
0.0575332
0.0822497
0.105669
0.106751
0.0853812
0.0598129
0.0575855
0.0763727
0.0902432
0.0981441
0.0816659
0.0599277
0.0579569
0.0766925
0.0902177
0.0981246
0.0824281
0.0609676
0.0577304
0.0754064
0.0880251
0.09964
0.0842855
0.062228
0.0544736
0.0626005
0.0639328
0.108576
0.085955
0.0623441
0.0633946
0.0891114
0.110268
0.0936112
0.0793805
0.0600673
0.0628698
0.0854731
0.101873
0.0940481
0.0801469
0.0605638
0.0629152
0.0850668
0.101466
0.0918936
0.0785526
0.060121
0.0643761
0.0870735
0.103262
0.0660255
0.0645111
0.0564493
0.0613255
0.0877477
0.113074
0.114735
0.0912133
0.064157
0.0614631
0.0815595
0.0962937
0.104985
0.0881255
0.0645547
0.0622573
0.082199
0.0964968
0.105126
0.0881961
0.0652466
0.0618532
0.0806678
0.0940847
0.107049
0.0905489
0.066749
0.0587373
0.0670262
0.068498
0.117465
0.0918849
0.0649803
0.0674639
0.0958792
0.119675
0.100143
0.0849686
0.0641934
0.0672486
0.0913931
0.10966
0.100334
0.0853314
0.0644911
0.0675235
0.0914577
0.108916
0.0978897
0.0838116
0.0642068
0.068872
0.0931717
0.110493
0.0706055
0.0690268
0.0604365
0.0667754
0.093913
0.119874
0.123196
0.0980686
0.0691927
0.0661942
0.0870917
0.102524
0.113597
0.0946158
0.0695249
0.0660104
0.0856027
0.0993741
0.114665
0.0967767
0.0710727
0.0630542
0.0715181
0.0726643
0.125067
0.0979155
0.0691452
0.072346
0.102683
0.128069
0.106279
0.0901453
0.0684081
0.0717239
0.0972316
0.116764
0.10625
0.0904903
0.0686358
0.0724132
0.0980099
0.11666
0.103448
0.0887677
0.0683978
0.0739138
0.0998265
0.11862
0.0760441
0.0741752
0.064518
0.0729387
0.100808
0.127477
0.130783
0.105294
0.0750331
0.0710448
0.0931262
0.109261
0.121613
0.101576
0.0745658
0.0710874
0.0915235
0.105986
0.122775
0.103588
0.0771433
0.0674813
0.0765051
0.077509
0.131135
0.103467
0.0744217
0.0773379
0.109061
0.135628
0.111912
0.095177
0.0726155
0.077191
0.104693
0.125551
0.108281
0.093131
0.0720309
0.0781063
0.105922
0.125794
0.0797278
0.0778719
0.0679435
0.0765752
0.105702
0.133701
0.140186
0.1122
0.0798016
0.0738526
0.0951038
0.1105
0.130436
0.109295
0.0801424
0.0698008
0.0789901
0.0799618
0.138986
0.109514
0.079011
0.0824863
0.115994
0.14393
0.119019
0.101851
0.0779422
0.0811823
0.110661
0.132726
0.114875
0.0989756
0.0765931
0.0818229
0.111315
0.132581
0.0827025
0.0813588
0.0717436
0.0793835
0.110324
0.140192
0.147675
0.117739
0.08322
0.0769509
0.0993356
0.115538
0.137477
0.115099
0.0837696
0.0725003
0.0820143
0.0831269
0.144119
0.113603
0.0817607
0.0856231
0.121639
0.152267
0.120642
0.103703
0.0803542
0.087093
0.118817
0.142219
0.0851636
0.0848136
0.0756191
0.0835478
0.116058
0.147516
0.156801
0.125231
0.088058
0.0811167
0.104505
0.121135
0.144856
0.121061
0.088044
0.076074
0.0856613
0.0865579
0.150817
0.118381
0.0848091
0.08926
0.127179
0.160409
0.125201
0.107545
0.0830836
0.0900406
0.124221
0.148641
0.0885647
0.0879901
0.0781463
0.0881567
0.122283
0.155337
0.167176
0.133688
0.0941741
0.0874813
0.112016
0.128728
0.153989
0.128385
0.0932829
0.0801314
0.0900868
0.0908037
0.157637
0.124578
0.0904864
0.0944053
0.134023
0.16827
0.130432
0.112308
0.0871083
0.0944197
0.130005
0.156655
0.0926134
0.0920571
0.0819375
0.0914775
0.126581
0.160522
0.173269
0.138443
0.0973003
0.0894206
0.114317
0.13233
0.163282
0.136191
0.0993479
0.0857184
0.0950376
0.0951521
0.161104
0.128953
0.0947409
0.100869
0.144206
0.180082
0.0949453
0.094378
0.0845225
0.0952962
0.131218
0.166019
0.180072
0.143573
0.100584
0.0918856
0.117705
0.136032
0.16707
0.138983
0.1008
0.0865501
0.0970956
0.0978181
0.164158
0.13082
0.0962048
0.104905
0.15023
0.187675
0.0965083
0.0970741
0.088009
0.100772
0.135822
0.169565
0.194308
0.154187
0.108034
0.088772
0.0984286
0.0983529
0.175752
0.139027
0.100835
0.107429
0.153883
0.194234
0.14371
0.124456
0.0974007
0.107706
0.149192
0.179352
0.103195
0.102539
0.0916833
0.102017
0.137573
0.171847
0.200407
0.1602
0.112291
0.0935158
0.102652
0.102283
0.17736
0.14249
0.106195
0.114424
0.163552
0.205556
0.103226
0.103111
0.0933554
0.103647
0.140338
0.175653
0.207675
0.164767
0.114585
0.0938011
0.103465
0.10351
0.177445
0.141674
0.104776
0.116121
0.167408
0.210431
0.10595
0.106076
0.0961203
0.107716
0.144754
0.181117
0.218102
0.173925
0.121264
0.0939554
0.0975347
0.0927012
0.123367
0.115142
0.0980822
0.104719
0.144727
0.185294
0.225082
0.175199
0.118949
0.0957232
0.104703
0.103648
0.182412
0.145478
0.108092
0.123767
0.179884
0.22791
0.0927851
0.0979311
0.0959042
0.105732
0.122872
0.130183
0.191665
0.15044
0.109576
0.123579
0.183363
0.236846
0.0934001
0.0977858
0.0939059
0.101091
0.11871
0.127806
0.191901
0.148532
0.10683
0.128925
0.190936
0.243413
0.0922193
0.0986291
0.0974785
0.10635
0.123641
0.130044
0.190404
0.148426
0.107452
0.127641
0.190756
0.24669
0.0911757
0.0966225
0.094099
0.0994651
0.110844
0.114161
0.130639
0.120074
0.101302
0.117367
0.157742
0.196451
0.248976
0.190453
0.125796
0.0908371
0.0939181
0.0890514
0.1039
0.102335
0.0926481
0.0917059
0.100325
0.102564
0.107759
0.105622
0.0937509
0.0926748
0.112019
0.119935
0.17618
0.135993
0.0988435
0.12432
0.190159
0.249992
0.0842438
0.0897657
0.0875436
0.0868159
0.0961984
0.0967618
0.0918812
0.0881693
0.077673
0.0764696
0.0875712
0.0900515
0.0868247
0.083378
0.070761
0.0662473
0.0796202
0.0837151
0.080683
0.0760753
0.0619205
0.0590431
0.0737721
0.0788355
0.0768952
0.0716048
0.0563908
0.0542077
0.0698271
0.0755745
0.0741992
0.0681788
0.0522629
0.05061
0.0667858
0.073168
0.0721265
0.0654868
0.0491102
0.0477407
0.0642657
0.0712308
0.0703609
0.0632324
0.046581
0.0453451
0.062014
0.0695491
0.0686195
0.0609731
0.0442988
0.0433487
0.0599971
0.0678794
0.0670868
0.0590771
0.0424853
0.0417028
0.0582149
0.0664107
0.0656757
0.0573982
0.0409908
0.0403469
0.0566319
0.0650514
0.0643649
0.055905
0.0397615
0.0392358
0.0552265
0.0637859
0.0631447
0.0545858
0.0387611
0.0383372
0.053991
0.0626083
0.0620077
0.0534288
0.0379559
0.0376178
0.0529071
0.0615103
0.0609487
0.052412
0.0373146
0.0370478
0.0519529
0.0604881
0.0599614
0.0515164
0.0368091
0.0366016
0.0511153
0.0595345
0.0590423
0.0507354
0.0364173
0.0362591
0.0503879
0.0586494
0.0581912
0.0500564
0.0361189
0.0360005
0.0497533
0.0578314
0.0574059
0.0494621
0.0358957
0.035809
0.0491968
0.0570778
0.0566832
0.0489405
0.0357321
0.0356702
0.048708
0.0563847
0.0560194
0.048482
0.0356152
0.0355728
0.0482784
0.0557498
0.0554133
0.0480792
0.0355348
0.0355075
0.047901
0.0551715
0.0548618
0.0477247
0.0354826
0.035467
0.0475683
0.0546465
0.0543631
0.0474163
0.035458
0.0354513
0.047278
0.0541727
0.0539124
0.0471437
0.0354518
0.0354506
0.047021
0.0537451
0.0535078
0.0469017
0.035455
0.035456
0.0467925
0.0533617
0.0531434
0.046686
0.0354624
0.035465
0.0465893
0.0530162
0.0528175
0.0464949
0.0354719
0.0354743
0.0464093
0.0527075
0.0525243
0.046325
0.0354814
0.0354839
0.0462495
0.0524297
0.0522629
0.046175
0.0354903
0.0354915
0.0461084
0.0521829
0.0520278
0.0460419
0.0354977
0.0354991
0.0459837
0.0519602
0.0518198
0.0459257
0.0355046
0.0355043
0.0458747
0.0517643
0.0516334
0.0458227
0.0355086
0.0355082
0.0457778
0.0515865
0.0514671
0.0457323
0.0355116
0.0355098
0.0456928
0.0514293
0.051317
0.045652
0.0355124
0.0355106
0.0456174
0.0512862
0.0511833
0.0455817
0.0355125
0.0355096
0.045551
0.0511599
0.0510622
0.0455182
0.0355111
0.0355084
0.0454907
0.0510439
0.0509537
0.0454616
0.0355092
0.0355053
0.0454368
0.050941
0.0508543
0.0454098
0.0355057
0.0355021
0.0453876
0.0508453
0.050765
0.0453636
0.035502
0.0354977
0.0453439
0.0507605
0.0506825
0.0453212
0.0354969
0.0354928
0.0453033
0.0506807
0.0506083
0.0452835
0.035492