/*--------------------------------*- C++ -*----------------------------------*\
| =========                 |                                                 |
| \\      /  F ield         | OpenFOAM: The Open Source CFD Toolbox           |
|  \\    /   O peration     | Version:  v2006                                 |
|   \\  /    A nd           | Website:  www.openfoam.com                      |
|    \\/     M anipulation  |                                                 |
\*---------------------------------------------------------------------------*/
FoamFile
{
    version     2.0;
    format      ascii;
    class       surfaceScalarField;
    location    "0.092";
    object      phi;
}
// * * * * * * * * * * * * * * * * * * * * * * * * * * * * * * * * * * * * * //

dimensions      [1 0 -1 0 0 0 0];
oriented        oriented;


internalField   nonuniform List<scalar> 
32242
(
-2.61896e-05
-0.00135439
0.00133511
4.55328e-05
-0.00127012
0.00124389
8.33522e-06
7.77425e-05
-3.48914e-06
0.00146285
3.8036e-05
0.00159995
-3.29208e-05
0.00165139
-3.68383e-06
0.00169138
-1.63833e-05
0.00168405
-2.33361e-06
0.00168002
-2.43251e-06
0.00166947
-4.4876e-07
0.00166257
-1.01635e-06
0.00165676
-1.15378e-06
0.00165309
-1.27953e-06
0.00164974
-1.47987e-06
0.00164692
-1.51034e-06
0.00164385
-1.6188e-06
0.00164092
-1.72328e-06
0.00163777
-1.82375e-06
0.0016345
-1.92025e-06
0.00163109
-2.01297e-06
0.00162755
-2.10223e-06
0.00162388
-2.18845e-06
0.00162008
-2.27197e-06
0.00161616
-2.35308e-06
0.00161211
-2.43199e-06
0.00160794
-2.5088e-06
0.00160365
-2.58356e-06
0.00159924
-2.65623e-06
0.00159472
-2.72675e-06
0.00159008
-2.79503e-06
0.00158533
-2.86097e-06
0.00158047
-2.92444e-06
0.00157551
-2.9853e-06
0.00157045
-3.04343e-06
0.0015653
-3.09867e-06
0.00156005
-3.1509e-06
0.00155473
-3.19996e-06
0.00154932
-3.24575e-06
0.00154383
-3.28813e-06
0.00153827
-3.32698e-06
0.00153265
-3.3622e-06
0.00152698
-3.39368e-06
0.00152124
-3.42129e-06
0.00151546
-3.44496e-06
0.00150964
-3.46459e-06
0.00150378
-3.48008e-06
0.0014979
-3.49136e-06
0.00149199
-3.49833e-06
0.00148606
-3.50092e-06
0.00148013
-3.49909e-06
0.00147419
-3.49278e-06
0.00146826
-3.48205e-06
0.00146234
-3.46671e-06
0.00145644
-3.44523e-06
0.00145056
-3.42005e-06
0.00144471
-3.39055e-06
0.00143891
-3.35621e-06
0.00143315
-3.31713e-06
0.00142744
-3.27328e-06
0.0014218
-3.22468e-06
0.00141622
-3.17137e-06
0.00141073
-3.11335e-06
0.00140531
-3.05066e-06
0.00139999
-2.98331e-06
0.00139476
-2.91131e-06
0.00138964
-2.83459e-06
0.00138462
-2.75303e-06
0.00137973
-2.66643e-06
0.00137496
-2.57448e-06
0.00137031
-2.47683e-06
0.0013658
-2.37314e-06
0.00136144
-2.26321e-06
0.00135722
-2.14692e-06
0.00135316
-2.02401e-06
0.00134927
-1.89325e-06
0.00134552
-1.75116e-06
0.00134191
-9.21862e-07
0.00133773
-1.3998e-06
0.00133426
-1.16964e-06
0.00132816
-2.89526e-06
0.00131955
-4.61637e-06
0.00130742
-1.96293e-05
0.00128696
-3.00952e-05
0.00126105
-8.36234e-05
0.00122473
-0.000143177
0.00120263
-0.000328503
0.00121428
-0.000736198
0.00140183
-0.000202563
0.000361197
2.04325e-05
0.000599542
4.44667e-06
0.000786409
-3.85986e-05
0.000696039
-1.24938e-05
0.000609996
-7.50925e-06
0.000220539
-4.58125e-06
0.000183625
0.000148435
8.5264e-06
0.000139909
1.73474e-05
0.000174804
0.000210944
2.69429e-05
-1.36292e-05
0.000203716
2.08567e-05
-6.80518e-06
0.00016798
0.000133104
2.50443e-06
0.000130599
4.12779e-06
0.000166357
0.000202481
5.36309e-06
-4.65157e-06
0.000200396
6.73663e-06
-2.8715e-06
0.000164577
0.000127728
1.54676e-06
0.000126181
2.02867e-06
0.000164095
0.000200281
2.14362e-06
-4.45898e-06
0.000198717
6.02266e-06
-2.60026e-06
0.000162236
0.000123581
1.2691e-06
0.000122312
1.14653e-06
0.000162358
0.000198482
1.38157e-06
-3.62736e-06
0.000197499
4.61063e-06
-1.77609e-06
0.000160507
0.000120536
4.71948e-07
0.000120064
3.54606e-07
0.000160624
0.00019786
-6.23277e-09
-2.83716e-06
0.00019616
4.53635e-06
-1.60637e-06
0.000159394
0.000118457
3.42462e-07
0.000118115
2.39707e-07
0.000159496
0.000196461
-6.06849e-08
-2.71695e-06
0.000195374
3.80389e-06
-1.48146e-06
0.000158261
0.000116633
2.51194e-07
0.000116382
1.48039e-07
0.000158364
0.00019564
-1.18389e-07
-2.62296e-06
0.000194523
3.74034e-06
-1.38807e-06
0.000157129
0.000114994
1.83383e-07
0.00011481
8.27055e-08
0.00015723
0.000194759
-1.53457e-07
-2.54963e-06
0.000193618
3.69073e-06
-1.31737e-06
0.000155997
0.000113493
1.32259e-07
0.000113361
2.73486e-08
0.000156102
0.000193833
-1.87643e-07
-2.48674e-06
0.000192676
3.64341e-06
-1.26183e-06
0.000154877
0.000112099
9.25813e-08
0.000112006
-1.27312e-08
0.000154983
0.000192872
-2.09165e-07
-2.43706e-06
0.000191704
3.60575e-06
-1.22106e-06
0.000153767
0.000110785
6.11136e-08
0.000110724
-4.22147e-08
0.00015387
0.000191884
-2.22167e-07
-2.3975e-06
0.000190702
3.57959e-06
-1.18739e-06
0.00015266
0.000109537
3.8817e-08
0.000109498
-6.16316e-08
0.000152761
0.000190868
-2.27507e-07
-2.3673e-06
0.000189674
3.56126e-06
-1.1601e-06
0.000151553
0.000108338
2.28632e-08
0.000108315
-7.47142e-08
0.000151651
0.000189825
-2.264e-07
-2.34307e-06
0.00018862
3.54829e-06
-1.1378e-06
0.000150446
0.000107177
1.16325e-08
0.000107166
-8.11869e-08
0.000150539
0.000188757
-2.18082e-07
-2.32496e-06
0.00018754
3.54186e-06
-1.11993e-06
0.000149333
0.000106046
4.3929e-09
0.000106041
-8.17527e-08
0.00014942
0.000187661
-2.02912e-07
-2.31215e-06
0.000186432
3.54138e-06
-1.10574e-06
0.000148213
0.000104936
4.80894e-10
0.000104935
-7.72072e-08
0.000148291
0.000186537
-1.81593e-07
-2.30384e-06
0.000185294
3.54618e-06
-1.09461e-06
0.000147082
0.000103841
-1.13861e-09
0.000103842
-6.88825e-08
0.000147149
0.000185381
-1.55882e-07
-2.29902e-06
0.000184125
3.55502e-06
-1.08598e-06
0.000145936
0.000102756
-4.18065e-10
0.000102756
-5.69866e-08
0.000145993
0.000184194
-1.25702e-07
-2.29729e-06
0.000182923
3.56776e-06
-1.07929e-06
0.000144775
0.000101677
2.11114e-09
0.000101675
-4.17431e-08
0.000144819
0.000182973
-9.10605e-08
-2.29852e-06
0.000181687
3.58441e-06
-1.0744e-06
0.000143595
0.0001006
6.36644e-09
0.000100594
-2.32639e-08
0.000143624
0.000181716
-5.19364e-08
-2.30263e-06
0.000180413
3.60514e-06
-1.07119e-06
0.000142393
9.95229e-05
1.19759e-08
9.95109e-05
-2.3819e-09
0.000142407
0.00018042
-9.6611e-09
-2.30853e-06
0.000179101
3.62804e-06
-1.06923e-06
0.000141168
9.84417e-05
1.98718e-08
9.84218e-05
2.26088e-08
0.000141165
0.000179084
3.93246e-08
-2.31633e-06
0.000177748
3.65301e-06
-1.06834e-06
0.000139917
9.73535e-05
2.923e-08
9.73243e-05
5.04364e-08
0.000139896
0.000177706
9.25115e-08
-2.32665e-06
0.000176351
3.68158e-06
-1.06878e-06
0.000138638
9.62556e-05
4.00085e-08
9.62156e-05
8.10904e-08
0.000138597
0.000176282
1.49833e-07
-2.33942e-06
0.000174908
3.71371e-06
-1.0705e-06
0.000137328
9.51452e-05
5.22425e-08
9.5093e-05
1.14641e-07
0.000137266
0.000174811
2.11496e-07
-2.35453e-06
0.000173416
3.74922e-06
-1.07345e-06
0.000135985
9.40196e-05
6.58962e-08
9.39537e-05
1.51034e-07
0.0001359
0.00017329
2.77486e-07
-2.37184e-06
0.000171874
3.78796e-06
-1.07755e-06
0.000134606
9.28762e-05
8.09043e-08
9.27954e-05
1.90164e-07
0.000134497
0.000171716
3.47694e-07
-2.39118e-06
0.000170278
3.82971e-06
-1.08268e-06
0.000133188
9.17127e-05
9.71777e-08
9.16156e-05
2.31873e-07
0.000133054
0.000170088
4.21916e-07
-2.41236e-06
0.000168626
3.87414e-06
-1.08875e-06
0.00013173
9.05269e-05
1.14602e-07
9.04123e-05
2.7595e-07
0.000131569
0.000168402
4.99855e-07
-2.4351e-06
0.000166917
3.9209e-06
-1.09561e-06
0.000130229
8.93167e-05
1.3305e-07
8.91837e-05
3.22154e-07
0.00013004
0.000166658
5.81065e-07
-2.45893e-06
0.000165147
3.96933e-06
-1.10304e-06
0.000128684
8.80806e-05
1.52276e-07
8.79283e-05
3.70003e-07
0.000128466
0.000164852
6.64871e-07
-2.48339e-06
0.000163317
4.01873e-06
-1.1108e-06
0.000127094
8.68175e-05
1.71996e-07
8.66455e-05
4.18901e-07
0.000126847
0.000162986
7.50351e-07
-2.50767e-06
0.000161425
4.06785e-06
-1.11849e-06
0.000125458
8.5527e-05
1.91723e-07
8.53353e-05
4.67877e-07
0.000125182
0.000161057
8.36054e-07
-2.53066e-06
0.000159473
4.11507e-06
-1.12554e-06
0.000123776
8.42097e-05
2.10816e-07
8.39989e-05
5.1566e-07
0.000123472
0.000159068
9.2e-07
-2.55115e-06
0.000157461
4.15836e-06
-1.13145e-06
0.000122052
8.28674e-05
2.28785e-07
8.26386e-05
5.60965e-07
0.00012172
0.000157022
1.00003e-06
-2.56779e-06
0.000155394
4.19553e-06
-1.13563e-06
0.000120287
8.1503e-05
2.44885e-07
8.12581e-05
6.0222e-07
0.00011993
0.000154923
1.07365e-06
-2.57891e-06
0.000153278
4.22392e-06
-1.1373e-06
0.000118488
8.01208e-05
2.58197e-07
7.98625e-05
6.37448e-07
0.000118109
0.000152778
1.13769e-06
-2.58243e-06
0.00015112
4.24017e-06
-1.13551e-06
0.000116662
7.87269e-05
2.67583e-07
7.84593e-05
6.64163e-07
0.000116265
0.000150596
1.18816e-06
-2.57574e-06
0.000148931
4.24011e-06
-1.12907e-06
0.000114819
7.73301e-05
2.71638e-07
7.70584e-05
6.79282e-07
0.000114411
0.00014839
1.22013e-06
-2.55567e-06
0.000146727
4.21865e-06
-1.11658e-06
0.000112972
7.59418e-05
2.68673e-07
7.56731e-05
6.79051e-07
0.000112561
0.000146179
1.22758e-06
-2.51847e-06
0.000144527
4.16973e-06
-1.09634e-06
0.000111139
7.45768e-05
2.56715e-07
7.43202e-05
6.59167e-07
0.000110737
0.000143983
1.20351e-06
-2.46e-06
0.000142357
4.08647e-06
-1.06647e-06
0.000109344
7.32538e-05
2.33556e-07
7.30203e-05
6.14782e-07
0.000108962
0.000141832
1.13995e-06
-2.37541e-06
0.000140246
3.96099e-06
-1.02484e-06
0.000107612
7.19955e-05
1.96652e-07
7.17989e-05
5.40198e-07
0.000107268
0.000139759
1.02762e-06
-2.25934e-06
0.000138234
3.78446e-06
-9.69152e-07
0.000105978
7.08297e-05
1.43171e-07
7.06866e-05
4.29147e-07
0.000105692
0.000137807
8.56159e-07
-2.10651e-06
0.000136365
3.54813e-06
-8.97125e-07
0.000104483
6.97895e-05
7.09166e-08
6.97185e-05
2.76575e-07
0.000104277
0.000136024
6.17205e-07
-1.91245e-06
0.000134691
3.24554e-06
-8.05095e-07
0.00010317
6.89134e-05
-2.44987e-08
6.89379e-05
7.55483e-08
0.00010307
0.000134467
2.99421e-07
-1.66773e-06
0.000133269
2.8658e-06
-6.86897e-07
0.000102089
6.82509e-05
-1.47837e-07
6.83987e-05
-1.81811e-07
0.000102123
0.000133191
-1.03577e-07
-1.37932e-06
0.000132167
2.40335e-06
-5.53318e-07
0.000101297
6.78454e-05
-2.84721e-07
6.81301e-05
-4.79216e-07
0.000101491
0.000132264
-5.76485e-07
-1.05642e-06
0.000131439
1.88202e-06
-4.06258e-07
0.000100841
6.7724e-05
-4.3559e-07
6.81596e-05
-8.11198e-07
0.000101217
0.000131738
-1.11089e-06
-7.17098e-07
0.000131125
1.33118e-06
-2.53843e-07
0.000100754
6.79059e-05
-5.90764e-07
6.84968e-05
-1.15854e-06
0.000101322
0.000131643
-1.67649e-06
-3.74234e-07
0.000131249
7.68262e-07
-1.01659e-07
0.000101049
6.83952e-05
-7.34519e-07
6.91298e-05
-1.4854e-06
0.0001018
0.00013198
-2.21632e-06
-4.14153e-08
0.000131798
2.23065e-07
5.02079e-08
0.000101709
6.91801e-05
-8.96057e-07
7.00761e-05
-1.84896e-06
0.000102662
0.000132765
-2.81598e-06
3.00248e-07
0.000132807
-3.42312e-07
2.0013e-07
0.000102762
7.02763e-05
-1.05463e-06
7.13309e-05
-2.2018e-06
0.000103909
0.000134009
-3.40379e-06
5.40702e-07
0.000134236
-7.67499e-07
2.89755e-07
0.00010416
7.16206e-05
-1.14258e-06
7.27632e-05
-2.42851e-06
0.000105446
0.000135613
-3.80586e-06
6.93548e-07
0.000135972
-1.05241e-06
3.41962e-07
0.000105797
7.31051e-05
-1.18863e-06
7.42937e-05
-2.56655e-06
0.000107175
0.000137472
-4.06594e-06
7.67742e-07
0.000137918
-1.21435e-06
3.57724e-07
0.000107585
7.46513e-05
-1.20795e-06
7.58592e-05
-2.64424e-06
0.000109021
0.000139503
-4.22931e-06
7.8729e-07
0.000140003
-1.28728e-06
3.49838e-07
0.000109459
7.62089e-05
-1.20428e-06
7.74131e-05
-2.66902e-06
0.000110923
0.000141639
-4.30563e-06
7.56535e-07
0.000142159
-1.27638e-06
3.20616e-07
0.000111359
7.77336e-05
-1.17889e-06
7.89125e-05
-2.64384e-06
0.000112824
0.000143814
-4.29852e-06
6.8111e-07
0.000144322
-1.18999e-06
2.7235e-07
0.000113233
7.91848e-05
-1.13536e-06
8.03201e-05
-2.57549e-06
0.000114673
0.000145965
-4.21785e-06
5.69051e-07
0.000146436
-1.04002e-06
2.0939e-07
0.000115032
8.05295e-05
-1.07782e-06
8.16073e-05
-2.47236e-06
0.000116427
0.00014804
-4.07654e-06
4.28945e-07
0.00014845
-8.39609e-07
1.35719e-07
0.00011672
8.17429e-05
-1.00977e-06
8.27525e-05
-2.34218e-06
0.000118052
0.000149995
-3.88649e-06
2.68627e-07
0.000150327
-6.01321e-07
5.53815e-08
0.000118265
8.28076e-05
-9.36796e-07
8.37441e-05
-2.19281e-06
0.000119521
0.000151794
-3.66027e-06
9.64571e-08
0.000152035
-3.37697e-07
-2.68488e-08
0.000119644
8.3717e-05
-8.64295e-07
8.45811e-05
-2.03434e-06
0.000120813
0.000153411
-3.41142e-06
-7.95338e-08
0.000153551
-6.07393e-08
-1.08079e-07
0.000120842
8.44729e-05
-7.89512e-07
8.52624e-05
-1.87261e-06
0.000121925
0.000154833
-3.1537e-06
-2.49762e-07
0.000154873
2.09485e-07
-1.86266e-07
0.000121862
8.50763e-05
-7.17491e-07
8.57939e-05
-1.71409e-06
0.000122858
0.000156056
-2.89731e-06
-4.11118e-07
0.000155998
4.69877e-07
-2.58778e-07
0.000122706
8.55352e-05
-6.51427e-07
8.61866e-05
-1.56563e-06
0.00012362
0.000157086
-2.65359e-06
-5.58509e-07
0.000156932
7.11936e-07
-3.23229e-07
0.000123385
8.58632e-05
-5.92919e-07
8.64557e-05
-1.43113e-06
0.000124222
0.00015793
-2.42944e-06
-6.86751e-07
0.00015769
9.26007e-07
-3.77423e-07
0.000123913
8.60779e-05
-5.44371e-07
8.66218e-05
-1.31599e-06
0.000124684
0.000158607
-2.23436e-06
-7.93617e-07
0.000158292
1.10801e-06
-4.20819e-07
0.000124311
8.62003e-05
-5.0594e-07
8.67057e-05
-1.22124e-06
0.000125025
0.000159142
-2.07093e-06
-8.79574e-07
0.000158763
1.25837e-06
-4.54243e-07
0.000124599
8.62505e-05
-4.76713e-07
8.67266e-05
-1.1459e-06
0.000125267
0.000159554
-1.93768e-06
-9.4799e-07
0.000159122
1.38045e-06
-4.79523e-07
0.000124798
8.62468e-05
-4.54785e-07
8.67017e-05
-1.08674e-06
0.00012543
0.000159867
-1.83059e-06
-1.00135e-06
0.00015939
1.47696e-06
-4.97731e-07
0.000124926
8.62044e-05
-4.38599e-07
8.66436e-05
-1.03957e-06
0.000125528
0.000160094
-1.74271e-06
-1.03803e-06
0.000159583
1.54621e-06
-5.08996e-07
0.000124997
8.61326e-05
-4.20202e-07
8.65599e-05
-9.93715e-07
0.000125576
0.000160251
-1.66091e-06
-1.05951e-06
0.000159719
1.59017e-06
-5.12335e-07
0.000125022
8.60396e-05
-4.08772e-07
8.64627e-05
-9.59247e-07
0.000125585
0.000160353
-1.59195e-06
-1.07874e-06
0.000159804
1.6293e-06
-5.17328e-07
0.000125018
8.59396e-05
-4.14587e-07
8.63467e-05
-9.64013e-07
0.000125562
0.000160435
-1.59477e-06
-1.12537e-06
0.000159867
1.69726e-06
-5.38405e-07
0.000124992
8.58283e-05
-4.21791e-07
8.62364e-05
-9.66922e-07
0.000125528
0.000160467
-1.56033e-06
-1.13379e-06
0.000159889
1.7071e-06
-5.37229e-07
0.000124939
8.5708e-05
-3.9289e-07
8.61109e-05
-9.15273e-07
0.00012547
0.000160489
-1.51825e-06
-1.08933e-06
0.000159896
1.68459e-06
-5.09317e-07
0.00012487
8.55782e-05
-3.98418e-07
8.59952e-05
-9.17982e-07
0.000125407
0.000160485
-1.50512e-06
-1.12827e-06
0.000159889
1.72587e-06
-5.28184e-07
0.000124807
8.54674e-05
-4.23819e-07
8.58681e-05
-9.62148e-07
0.000125325
0.000160458
-1.53455e-06
-1.14921e-06
0.000159854
1.75962e-06
-5.34737e-07
0.000124733
8.53567e-05
-4.00061e-07
8.5758e-05
-9.14625e-07
0.000125249
0.000160442
-1.49932e-06
-1.11396e-06
0.000159822
1.72658e-06
-5.16665e-07
0.000124637
8.52273e-05
-3.97868e-07
8.5646e-05
-9.05594e-07
0.000125162
0.000160393
-1.4729e-06
-1.10172e-06
0.000159776
1.7118e-06
-5.08085e-07
0.000124549
8.51183e-05
-4.09991e-07
8.55294e-05
-9.32791e-07
0.000125073
0.000160358
-1.51758e-06
-1.13128e-06
0.000159734
1.75109e-06
-5.22855e-07
0.000124467
8.50107e-05
-4.13412e-07
8.54143e-05
-9.3737e-07
0.000124984
0.000160319
-1.52207e-06
-1.12829e-06
0.000159701
1.75503e-06
-5.21503e-07
0.000124394
8.49124e-05
-4.14299e-07
8.5317e-05
-9.36042e-07
0.000124909
0.000160283
-1.52071e-06
-1.0966e-06
0.000159675
1.69666e-06
-5.06182e-07
0.000124309
8.48016e-05
-4.04185e-07
8.52436e-05
-9.31156e-07
0.000124871
0.000160821
-2.06288e-06
-5.0173e-07
0.000159719
1.60265e-06
-4.4729e-07
0.000124788
8.4763e-05
-9.37352e-07
8.56962e-05
-1.57685e-06
0.000125423
0.000161457
-3.32515e-06
1.50723e-07
0.000161536
-2.27412e-07
6.53122e-08
0.000125518
8.57732e-05
-1.68405e-06
8.74395e-05
-4.58563e-06
0.000128405
0.000164074
-7.11888e-06
6.10344e-06
0.000168399
-1.04292e-05
2.95851e-06
0.000131561
9.0412e-05
-8.66017e-06
9.90815e-05
-1.967e-05
0.000142578
0.00018199
-3.32597e-05
4.32977e-05
0.000211505
-7.28179e-05
1.94542e-05
0.000166404
0.000118517
3.93532e-05
9.5007e-05
0.000166
3.99768e-05
-0.000288206
-5.72914e-05
-0.000326086
-6.18092e-05
-0.000510458
-2.49802e-05
-0.000550479
-1.59409e-05
-0.000577063
-3.11928e-06
-0.000579739
-2.5634e-06
-0.000584677
-2.03296e-07
-0.000585151
-8.03249e-07
-0.000585842
9.65317e-07
-0.000585299
1.54952e-06
-0.000583072
5.07472e-06
-0.000577009
9.78056e-06
-0.000568947
2.14742e-05
-0.000554885
3.83963e-05
-0.000540861
8.52413e-05
-0.000536062
0.000189247
-0.00054479
8.52784e-05
-0.000335923
4.86815e-05
-0.000332978
2.72043e-05
-0.00032319
2.72223e-05
-0.000275557
8.09001e-06
-0.00023716
4.22832e-06
-8.35422e-05
1.62446e-06
-5.64663e-05
-3.04964e-05
-2.01161e-06
-2.82074e-05
-5.61411e-06
-5.27592e-05
-7.84788e-05
-1.12395e-05
4.20996e-06
-7.53273e-05
-7.06038e-06
1.52646e-06
-5.01414e-05
-2.68437e-05
-9.18021e-07
-2.58564e-05
-1.63749e-06
-4.93896e-05
-7.35647e-05
-3.54125e-06
6.04787e-07
-7.29412e-05
-1.37721e-06
7.76302e-08
-4.88616e-05
-2.56807e-05
-4.73882e-07
-2.52568e-05
-6.32165e-07
-4.87403e-05
-7.23092e-05
-1.13119e-06
5.2124e-07
-7.27587e-05
-8.53053e-08
6.65705e-08
-4.82793e-05
-2.51842e-05
-2.87137e-09
-2.51795e-05
-2.41024e-08
-4.82577e-05
-7.27642e-05
-2.32328e-08
-2.1033e-08
-7.27807e-05
3.93283e-08
-1.04653e-08
-4.82684e-05
-2.51905e-05
1.60076e-08
-2.52094e-05
3.46363e-08
-4.82887e-05
-7.28028e-05
6.13002e-08
-5.25363e-08
-7.28371e-05
8.9241e-08
-2.40943e-08
-4.83188e-05
-2.52353e-05
2.74064e-08
-2.52581e-05
5.90409e-08
-4.83482e-05
-7.28658e-05
7.81174e-08
-5.48182e-08
-7.29001e-05
1.02393e-07
-2.32232e-08
-4.83815e-05
-2.52867e-05
2.43421e-08
-2.53149e-05
5.54817e-08
-4.84143e-05
-7.29319e-05
9.69321e-08
-7.70156e-08
-7.29755e-05
1.07943e-07
-3.64189e-08
-4.84517e-05
-2.53453e-05
3.08638e-08
-2.53745e-05
6.62528e-08
-4.84864e-05
-7.30129e-05
9.9355e-08
-6.31796e-08
-7.30533e-05
1.11837e-07
-2.74017e-08
-4.85249e-05
-2.54067e-05
3.10825e-08
-2.54368e-05
6.82554e-08
-4.85617e-05
-7.30925e-05
1.04295e-07
-7.31139e-08
-7.31372e-05
1.20696e-07
-3.27784e-08
-4.86027e-05
-2.54711e-05
3.49216e-08
-2.55016e-05
7.49642e-08
-4.86405e-05
-7.31782e-05
1.06807e-07
-6.71043e-08
-7.32189e-05
1.19912e-07
-2.85463e-08
-4.86814e-05
-2.55362e-05
3.67811e-08
-2.55674e-05
7.89122e-08
-4.87206e-05
-7.32595e-05
1.08177e-07
-7.6587e-08
-7.33086e-05
1.28481e-07
-3.52252e-08
-4.87627e-05
-2.56042e-05
2.85099e-08
-2.56385e-05
6.66924e-08
-4.88038e-05
-7.3349e-05
1.17043e-07
-8.32423e-08
-7.33966e-05
1.21107e-07
-3.90177e-08
-4.88453e-05
-2.56727e-05
2.99171e-08
-2.57083e-05
6.91163e-08
-4.88866e-05
-7.34353e-05
1.20324e-07
-8.84463e-08
-7.34871e-05
1.28334e-07
-4.17826e-08
-4.8931e-05
-2.57449e-05
2.97806e-08
-2.57812e-05
6.95659e-08
-4.89734e-05
-7.35269e-05
1.21668e-07
-8.72496e-08
-7.35764e-05
1.24467e-07
-4.12442e-08
-4.90166e-05
-2.58165e-05
3.10865e-08
-2.58536e-05
7.12449e-08
-4.90593e-05
-7.36176e-05
1.24842e-07
-8.10404e-08
-7.36685e-05
1.3803e-07
-3.63375e-08
-4.91052e-05
-2.58931e-05
4.15486e-08
-2.59276e-05
8.81711e-08
-4.91481e-05
-7.37141e-05
1.20912e-07
-7.62182e-08
-7.37613e-05
1.35681e-07
-3.35981e-08
-4.91927e-05
-2.59665e-05
3.29061e-08
-2.60044e-05
7.52789e-08
-4.92376e-05
-7.38052e-05
1.29344e-07
-9.71389e-08
-7.38599e-05
1.3601e-07
-4.66173e-08
-4.92844e-05
-2.60435e-05
4.20413e-08
-2.608e-05
8.91078e-08
-4.93288e-05
-7.39076e-05
1.25499e-07
-7.53515e-08
-7.39567e-05
1.41075e-07
-3.21789e-08
-4.93755e-05
-2.61204e-05
3.35182e-08
-2.61588e-05
7.66116e-08
-4.94209e-05
-7.40032e-05
1.34589e-07
-1.01451e-07
-7.40588e-05
1.38834e-07
-4.86419e-08
-4.9469e-05
-2.61982e-05
4.11973e-08
-2.6236e-05
8.81385e-08
-4.95141e-05
-7.41085e-05
1.32009e-07
-7.69239e-08
-7.41592e-05
1.44956e-07
-3.2133e-08
-4.9563e-05
-2.62774e-05
3.57505e-08
-2.63166e-05
8.10339e-08
-4.96097e-05
-7.42093e-05
1.3815e-07
-1.01629e-07
-7.42673e-05
1.43725e-07
-4.81515e-08
-4.96597e-05
-2.6357e-05
3.5802e-08
-2.63966e-05
8.17997e-08
-4.9707e-05
-7.43192e-05
1.41571e-07
-8.03814e-08
-7.4373e-05
1.49265e-07
-3.34958e-08
-4.97569e-05
-2.64378e-05
4.49751e-08
-2.64756e-05
9.71289e-08
-4.98059e-05
-7.44284e-05
1.37008e-07
-8.43635e-08
-7.44871e-05
1.58429e-07
-3.59435e-08
-4.98572e-05
-2.65186e-05
3.20058e-08
-2.65584e-05
7.82337e-08
-4.99069e-05
-7.45404e-05
1.47166e-07
-1.02795e-07
-7.46019e-05
1.45217e-07
-4.77485e-08
-4.99581e-05
-2.6597e-05
4.23304e-08
-2.6636e-05
9.3852e-08
-5.00084e-05
-7.46603e-05
1.44784e-07
-8.27505e-08
-7.47216e-05
1.63109e-07
-3.24546e-08
-5.00631e-05
-2.6679e-05
3.41458e-08
-2.67177e-05
8.38903e-08
-5.01149e-05
-7.47814e-05
1.52656e-07
-1.04691e-07
-7.48481e-05
1.5408e-07
-4.70563e-08
-5.01688e-05
-2.6756e-05
3.93647e-08
-2.67945e-05
9.37435e-08
-5.0223e-05
-7.49123e-05
1.56223e-07
-8.64506e-08
-7.49793e-05
1.71954e-07
-3.18395e-08
-5.02804e-05
-2.68366e-05
4.53907e-08
-2.68725e-05
1.04043e-07
-5.03354e-05
-7.5049e-05
1.55392e-07
-9.95373e-08
-7.51223e-05
1.67556e-07
-4.05941e-08
-5.0394e-05
-2.69111e-05
3.10571e-08
-2.69505e-05
8.72829e-08
-5.04536e-05
-7.5193e-05
1.71769e-07
-1.06059e-07
-7.52748e-05
1.78807e-07
-4.23063e-08
-5.05156e-05
-2.69885e-05
3.26787e-08
-2.70255e-05
9.27702e-08
-5.0577e-05
-7.53499e-05
1.77503e-07
-1.07994e-07
-7.54357e-05
1.82965e-07
-4.14724e-08
-5.06413e-05
-2.70613e-05
3.00057e-08
-2.70984e-05
9.41643e-08
-5.07073e-05
-7.55172e-05
1.88563e-07
-1.1231e-07
-7.56116e-05
1.95992e-07
-4.10161e-08
-5.07768e-05
-2.71341e-05
2.6804e-08
-2.71692e-05
9.54578e-08
-5.08462e-05
-7.56995e-05
1.97433e-07
-1.15318e-07
-7.58022e-05
2.01818e-07
-4.11821e-08
-5.09197e-05
-2.72015e-05
2.19036e-08
-2.7236e-05
9.6304e-08
-5.09955e-05
-7.58998e-05
2.1351e-07
-1.09061e-07
-7.60071e-05
2.22725e-07
-2.95651e-08
-5.10756e-05
-2.72685e-05
3.66181e-08
-2.72968e-05
1.18291e-07
-5.11556e-05
-7.61189e-05
2.16217e-07
-1.08915e-07
-7.62331e-05
2.36895e-07
-2.20174e-08
-5.12415e-05
-2.73289e-05
3.57999e-08
-2.7356e-05
1.2483e-07
-5.13298e-05
-7.63573e-05
2.36203e-07
-1.17505e-07
-7.64868e-05
2.61994e-07
-2.03555e-08
-5.14258e-05
-2.73893e-05
3.8033e-08
-2.74154e-05
1.36529e-07
-5.15238e-05
-7.66303e-05
2.57181e-07
-1.2436e-07
-7.67714e-05
2.88953e-07
-1.65766e-08
-5.16303e-05
-2.74478e-05
2.29854e-08
-2.74785e-05
1.34332e-07
-5.17425e-05
-7.69207e-05
2.97096e-07
-1.67832e-07
-7.70911e-05
3.15115e-07
-4.74785e-08
-5.1863e-05
-2.7512e-05
2.43497e-08
-2.75528e-05
1.52457e-07
-5.19897e-05
-7.72568e-05
3.40184e-07
-1.79223e-07
-7.74441e-05
3.66371e-07
-4.21266e-08
-5.21274e-05
-2.75951e-05
4.24543e-08
-2.76461e-05
1.87206e-07
-5.22735e-05
-7.76344e-05
3.94419e-07
-2.34534e-07
-7.78424e-05
4.1951e-07
-7.02665e-08
-5.24339e-05
-2.7703e-05
6.89986e-08
-2.77691e-05
2.42563e-07
-5.26064e-05
-7.80579e-05
4.51711e-07
-2.4361e-07
-7.82852e-05
5.16863e-07
-6.12455e-08
-5.27914e-05
-2.78574e-05
1.12003e-07
-2.79475e-05
3.23414e-07
-5.29955e-05
-7.85309e-05
5.26659e-07
-3.51586e-07
-7.87912e-05
5.87221e-07
-1.25597e-07
-5.32163e-05
-2.80599e-05
1.11614e-07
-2.82012e-05
3.46001e-07
-5.34577e-05
-7.90552e-05
6.63633e-07
-4.59572e-07
-7.93737e-05
7.13981e-07
-1.86554e-07
-5.37201e-05
-2.83582e-05
1.66423e-07
-2.85584e-05
4.37371e-07
-5.40056e-05
-7.96835e-05
8.18478e-07
-5.57519e-07
-8.00161e-05
8.62068e-07
-2.35044e-07
-5.4327e-05
-2.87824e-05
3.0013e-07
-2.90408e-05
6.56807e-07
-5.46597e-05
-8.0396e-05
9.45718e-07
-6.34083e-07
-8.07499e-05
1.08417e-06
-2.65992e-07
-5.50448e-05
-2.93519e-05
3.30963e-07
-2.9719e-05
7.34108e-07
-5.54641e-05
-8.11473e-05
1.21308e-06
-9.76475e-07
-8.16448e-05
1.33457e-06
-4.84181e-07
-5.59211e-05
-3.01418e-05
4.59286e-07
-3.06584e-05
9.53548e-07
-5.6442e-05
-8.21157e-05
1.55321e-06
-1.16847e-06
-8.26616e-05
1.73495e-06
-5.71915e-07
-5.70409e-05
-3.12411e-05
8.80809e-07
-3.20725e-05
1.61592e-06
-5.77741e-05
-8.27941e-05
1.6652e-06
-1.516e-06
-8.33064e-05
2.04308e-06
-9.30903e-07
-5.83637e-05
-3.30174e-05
7.31938e-07
-3.3756e-05
1.38685e-06
-5.90211e-05
-8.38463e-05
1.93469e-06
-1.23171e-06
-8.53368e-05
2.72333e-06
-2.87941e-07
-5.99653e-05
-3.40454e-05
1.28242e-06
-3.5329e-05
1.67013e-06
-6.03535e-05
-8.61352e-05
2.46919e-06
-1.97223e-06
-8.6923e-05
2.76009e-06
-5.86643e-07
-6.17392e-05
-3.59157e-05
9.1926e-07
-3.68365e-05
1.68989e-06
-6.25114e-05
-8.81926e-05
2.95888e-06
-2.34435e-06
-8.88907e-05
3.0373e-06
-1.0254e-06
-6.38338e-05
-3.78636e-05
1.09933e-06
-3.89649e-05
1.93632e-06
-6.46754e-05
-9.06835e-05
3.72128e-06
-2.65014e-06
-9.18764e-05
3.85457e-06
-1.38732e-06
-6.59397e-05
-4.03589e-05
1.34394e-06
-4.17136e-05
2.58518e-06
-6.71802e-05
-9.29708e-05
3.71237e-06
-2.55084e-06
-9.47638e-05
4.36807e-06
-1.12144e-06
-6.86046e-05
-4.28407e-05
1.07556e-06
-4.38902e-05
2.87852e-06
-7.0398e-05
-9.65841e-05
4.6568e-06
-4.38415e-06
-9.95753e-05
7.24579e-06
-2.48382e-06
-7.228e-05
-4.63051e-05
2.56513e-06
-4.87956e-05
6.449e-06
-7.61658e-05
-0.000103734
1.04578e-05
6.78514e-05
-5.05366e-05
-0.000121116
2.71203e-05
-3.54586e-05
-2.15835e-05
2.27361e-06
-2.61326e-05
1.60691e-05
-4.58138e-05
-6.60626e-05
3.02718e-05
-8.55914e-06
-7.30787e-05
1.58238e-05
-3.00705e-06
-5.14745e-05
-2.91e-05
1.06391e-06
-3.01512e-05
2.36208e-06
-5.27819e-05
-7.43333e-05
3.60589e-06
-3.14178e-08
-7.44573e-05
3.20294e-07
-2.60993e-07
-5.26064e-05
-3.04855e-05
1.37012e-06
-3.19486e-05
3.11042e-06
-5.43865e-05
-7.61499e-05
5.08771e-06
-2.04576e-06
-7.73957e-05
3.74667e-06
-8.96049e-07
-5.56332e-05
-3.31241e-05
1.95527e-06
-3.53254e-05
3.944e-06
-5.7732e-05
-7.97815e-05
6.82541e-06
-2.68851e-06
-8.18752e-05
4.8441e-06
-1.50049e-06
-5.89283e-05
-3.684e-05
2.5961e-06
-3.92164e-05
5.22196e-06
-6.14958e-05
-8.44586e-05
7.4258e-06
-4.75087e-06
-8.71869e-05
6.98999e-06
-2.25824e-06
-6.39016e-05
-4.12414e-05
3.07433e-06
-4.39645e-05
6.88853e-06
-6.76035e-05
-9.22743e-05
1.12587e-05
-1.01622e-05
-9.92538e-05
1.61333e-05
-4.66646e-06
-7.2918e-05
-4.81909e-05
-2.5513e-05
-2.24465e-05
-6.29533e-05
-3.55431e-05
-4.95131e-05
-0.000112802
-1.91432e-05
-6.56484e-05
3.32583e-05
-3.34857e-06
-4.63319e-05
-2.90912e-05
4.71871e-06
-3.3482e-05
1.24721e-05
-5.41832e-05
-7.42426e-05
2.08224e-05
-7.8929e-06
-8.07506e-05
1.35824e-05
-3.94369e-06
-5.78988e-05
-3.7096e-05
2.55285e-06
-3.96484e-05
6.47999e-06
-6.17935e-05
-8.4584e-05
1.0274e-05
-5.06072e-06
-8.80372e-05
9.2102e-06
-2.15068e-06
-6.48501e-05
-4.21478e-05
2.71006e-06
-4.47504e-05
5.78664e-06
-6.7927e-05
-9.18414e-05
9.38061e-06
-6.89323e-06
-9.69602e-05
1.22845e-05
-2.90464e-06
-7.19478e-05
-4.77719e-05
3.13565e-06
-5.08686e-05
6.96427e-06
-7.57267e-05
-0.0001015
1.14167e-05
6.57185e-05
-5.03923e-05
-0.000116689
2.68669e-05
-3.6868e-05
-2.41106e-05
8.76259e-06
-3.0659e-05
1.67115e-05
-4.80617e-05
-6.62411e-05
3.37373e-05
-1.13266e-05
-7.56927e-05
2.10601e-05
-4.25053e-06
-5.50765e-05
-3.51893e-05
2.63468e-06
-3.8031e-05
5.81771e-06
-5.8351e-05
-7.89892e-05
9.52938e-06
-4.02276e-06
-8.10231e-05
5.76291e-06
-1.91399e-06
-6.04187e-05
-3.97902e-05
3.20895e-06
-4.29949e-05
6.65657e-06
-6.38411e-05
-8.66197e-05
1.2263e-05
-9.64384e-06
-9.2773e-05
1.53459e-05
-4.45487e-06
-6.89141e-05
-4.72768e-05
-2.40739e-05
-2.29912e-05
-5.87511e-05
-3.43433e-05
-4.68171e-05
-0.000104781
-2.03085e-05
-6.23123e-05
3.38988e-05
-3.66054e-06
-4.60165e-05
-2.99669e-05
6.52723e-06
-3.60195e-05
1.43622e-05
-5.39201e-05
-7.2383e-05
2.39195e-05
-1.06129e-05
-8.09382e-05
1.78099e-05
-4.65313e-06
-5.94803e-05
-4.01089e-05
4.27981e-06
-4.48135e-05
9.20267e-06
-6.45465e-05
-8.73077e-05
1.64118e-05
-7.81391e-06
-9.16948e-05
1.19276e-05
-3.34798e-06
-6.88256e-05
-4.81131e-05
-2.49813e-05
-2.2985e-05
-5.95629e-05
-3.44267e-05
-4.60646e-05
-0.000105207
-1.95838e-05
-6.06567e-05
3.22654e-05
-4.28667e-06
-4.49003e-05
-3.03771e-05
5.17731e-06
-3.54693e-05
1.19421e-05
-5.18691e-05
-6.97834e-05
2.14072e-05
-8.73896e-06
-7.59585e-05
1.55156e-05
-3.7755e-06
-5.69665e-05
-3.95778e-05
4.66602e-06
-4.40985e-05
1.06125e-05
-6.27937e-05
-8.28532e-05
1.71763e-05
5.32797e-05
-4.24571e-05
-9.37082e-05
2.21835e-05
-3.18883e-05
-2.17854e-05
4.23168e-06
-2.93264e-05
2.03588e-05
-4.26926e-05
-5.66728e-05
3.21624e-05
-1.46748e-05
-6.8244e-05
2.64154e-05
-6.61744e-06
-5.09015e-05
-3.57605e-05
5.37878e-06
-4.11927e-05
1.24338e-05
-5.79748e-05
-7.68227e-05
2.10538e-05
-7.6747e-06
-8.14415e-05
1.23031e-05
-3.98783e-06
-6.16609e-05
-4.51904e-05
-2.26085e-05
-2.25958e-05
-5.25915e-05
-3.16918e-05
-4.1877e-05
-9.21285e-05
-1.88569e-05
-5.60043e-05
3.29333e-05
-7.58661e-06
-4.29364e-05
-3.01833e-05
6.83775e-06
-3.70108e-05
1.39899e-05
-5.01464e-05
-6.54364e-05
2.34554e-05
4.23157e-05
-3.41781e-05
-7.36137e-05
1.81296e-05
-2.56799e-05
-1.90872e-05
9.19316e-06
-2.58806e-05
1.60655e-05
-3.59509e-05
-4.73416e-05
3.0326e-05
-1.38642e-05
-5.55413e-05
2.196e-05
-6.55248e-06
-4.30705e-05
-3.25942e-05
-1.63337e-05
-1.62256e-05
-3.78388e-05
-2.15686e-05
-2.78408e-05
-6.55491e-05
-1.08128e-05
-3.52742e-05
1.82396e-05
-5.07657e-06
-2.73034e-05
-2.13031e-05
-1.27101e-05
-8.59388e-06
-2.85042e-05
-1.15102e-05
-1.52053e-05
-4.85713e-05
7.87676e-07
-1.65218e-05
5.29649e-07
5.64291e-07
-1.12861e-05
-8.02919e-06
-1.36054e-05
5.5768e-06
-3.24073e-05
7.51642e-06
9.60894e-06
-5.85371e-05
2.53883e-05
2.64228e-05
-4.22016e-05
1.17341e-05
2.1171e-05
1.73112e-05
-1.08392e-05
2.81505e-05
-2.39415e-05
3.42734e-05
4.28899e-05
-4.04085e-05
2.75694e-05
6.34886e-05
-4.81678e-05
1.15362e-05
5.03069e-05
3.96868e-05
-1.34834e-05
5.317e-05
-3.28864e-05
6.97098e-05
8.96964e-05
-5.90932e-05
-4.88764e-05
5.56705e-05
8.29011e-05
-2.13124e-05
4.2144e-05
3.18566e-05
-1.91358e-05
5.0996e-05
-4.37031e-05
6.67149e-05
8.72964e-05
-7.53318e-05
-4.04011e-05
5.92758e-05
6.84317e-05
-1.84041e-05
4.47194e-05
3.25974e-05
-2.41146e-05
5.66521e-05
-5.57948e-05
7.63812e-05
9.96497e-05
-9.61699e-05
-3.738e-05
7.51561e-05
6.21578e-05
-1.69045e-05
5.5404e-05
4.02106e-05
8.27263e-06
2.62335e-05
3.49988e-05
3.68553e-05
4.89306e-05
5.83516e-05
4.88706e-05
8.62223e-05
-8.51877e-05
1.89577e-05
6.4716e-05
4.63364e-05
1.39503e-05
3.23167e-05
3.31845e-05
4.56929e-05
6.01489e-05
5.89964e-05
5.98629e-05
0.000107301
-0.000106994
2.47223e-05
8.07857e-05
5.70579e-05
1.41305e-05