/*--------------------------------*- C++ -*----------------------------------*\
| =========                 |                                                 |
| \\      /  F ield         | OpenFOAM: The Open Source CFD Toolbox           |
|  \\    /   O peration     | Version:  v2006                                 |
|   \\  /    A nd           | Website:  www.openfoam.com                      |
|    \\/     M anipulation  |                                                 |
\*---------------------------------------------------------------------------*/
FoamFile
{
    version     2.0;
    format      ascii;
    class       volScalarField;
    location    "0.011";
    object      turbulenceProperties:L;
}
// * * * * * * * * * * * * * * * * * * * * * * * * * * * * * * * * * * * * * //

dimensions      [0 1 0 0 0 0 0];


internalField   nonuniform List<scalar> 
12716
(
1999.99
1999.99
2000
2000
1999.99
1999.96
1999.76
1999.28
1998.59
1997.86
1997.14
1996.49
1995.91
1995.4
1994.97
1994.58
1994.22
1993.88
1993.54
1993.2
1992.87
1992.55
1992.24
1991.94
1991.64
1991.35
1991.07
1990.81
1990.56
1990.31
1990.08
1989.87
1989.67
1989.5
1989.34
1989.21
1989.1
1989.02
1988.95
1988.9
1988.85
1988.75
1988.48
1987.75
1985.77
1980.57
1966.74
1931.62
1849.54
1672.46
1349.74
914.445
512.655
248.342
111.654
48.9643
21.5791
9.94063
5.1381
3.23907
2.53639
2.23922
2.13102
1.99404
1.01037
0.397357
0.144295
0.0361796
0.00383889
0.000671083
4.59267e-05
4.36717e-05
0.000303254
0.00137861
0.00084925
0.00022355
4.17741e-05
4.04798e-05
0.000195335
0.000657896
0.000576359
0.000184628
4.00696e-05
3.96706e-05
0.000176391
0.000520891
0.000490447
0.000172626
3.95091e-05
3.9409e-05
0.000169019
0.000462829
0.000449855
0.00016777
3.93529e-05
3.92874e-05
0.000164317
0.00043025
0.000424085
0.000163917
3.92407e-05
3.91874e-05
0.000161099
0.000410185
0.000406229
0.000161006
3.91501e-05
3.91056e-05
0.000158625
0.000395542
0.000392818
0.000158653
3.90752e-05
3.9037e-05
0.000156606
0.000384
0.000382074
0.00015658
3.90108e-05
3.89767e-05
0.000154824
0.0003745
0.000373092
0.000154768
3.89531e-05
3.89213e-05
0.000153186
0.000366402
0.00036528
0.000153095
3.8899e-05
3.88682e-05
0.000151602
0.000359246
0.00035829
0.000151489
3.88463e-05
3.88157e-05
0.000150042
0.000352725
0.000351867
0.000149915
3.87936e-05
3.87627e-05
0.000148492
0.000346625
0.00034583
0.000148358
3.87403e-05
3.87091e-05
0.000146956
0.000340828
0.000340084
0.000146823
3.86863e-05
3.86549e-05
0.000145449
0.000335258
0.000334578
0.000145327
3.86318e-05
3.86004e-05
0.000143991
0.000329926
0.000329308
0.000143877
3.85771e-05
3.85455e-05
0.00014259
0.000324827
0.000324242
0.000142486
3.85218e-05
3.849e-05
0.000141258
0.000319922
0.000319394
0.000141184
3.8466e-05
3.84338e-05
0.000140021
0.000315297
0.000314852
0.000139975
3.84093e-05
3.83765e-05
0.000138871
0.000310965
0.000310582
0.000138841
3.83511e-05
3.83171e-05
0.000137779
0.000306867
0.000306527
0.00013776
3.82905e-05
3.82547e-05
0.000136721
0.000302948
0.000302634
0.000136712
3.82263e-05
3.81882e-05
0.000135682
0.000299163
0.00029886
0.000135681
3.81576e-05
3.81166e-05
0.000134648
0.000295468
0.000295161
0.000134655
3.80835e-05
3.8039e-05
0.000133607
0.000291816
0.000291491
0.00013362
3.80028e-05
3.79543e-05
0.000132549
0.000288163
0.000287807
0.000132564
3.79146e-05
3.78613e-05
0.000131462
0.000284471
0.000284076
0.000131476
3.78174e-05
3.77585e-05
0.000130337
0.000280709
0.000280258
0.000130341
3.77095e-05
3.76438e-05
0.000129155
0.000276806
0.000276278
0.000129143
3.75886e-05
3.75147e-05
0.0001279
0.000272712
0.000272099
0.000127867
3.74521e-05
3.7368e-05
0.00012656
0.000268398
0.000267685
0.000126494
3.72961e-05
3.71995e-05
0.000125111
0.000263813
0.000262977
0.000124999
3.71159e-05
3.70032e-05
0.000123519
0.000258878
0.000257889
0.000123346
3.69044e-05
3.67707e-05
0.000121738
0.000253482
0.000252285
0.000121466
3.66514e-05
3.64893e-05
0.000119679
0.000247472
0.000245957
0.000119247
3.63414e-05
3.61388e-05
0.000117217
0.000240602
0.000238556
0.000116514
3.59492e-05
3.56852e-05
0.000114148
0.000232331
0.000229478
0.000112999
3.54306e-05
3.50639e-05
0.00011001
0.000221922
0.000217656
0.000108266
3.46963e-05
3.4137e-05
0.000104203
0.000208324
0.000200976
0.000101233
3.35381e-05
3.25384e-05
9.51481e-05
0.000188983
0.000175338
8.94143e-05
3.11973e-05
2.92109e-05
7.98656e-05
0.000158454
0.000128011
5.68775e-05
2.10588e-05
2.06065e-05
4.15371e-05
9.37863e-05
8.51405e-05
6.31387e-05
2.53475e-05
2.73366e-05
9.63186e-05
0.000104827
0.000153313
0.000129284
2.79387e-05
2.61588e-05
0.000154024
0.000191639
0.000224573
0.000164023
2.02834e-05
9.93382e-06
8.76109e-05
0.000196302
0.000106638
4.1587e-05
4.5331e-06
5.07282e-06
2.81126e-05
7.77171e-05
8.61659e-05
3.13086e-05
5.76825e-06
9.85163e-06
2.86452e-05
8.12948e-05
0.000122406
3.89695e-05
1.30855e-05
1.48672e-05
4.24775e-05
0.000139208
0.000194533
5.55461e-05
1.57737e-05
1.5757e-05
5.7372e-05
0.000203547
0.000234418
6.72896e-05
1.58685e-05
1.48975e-05
6.47332e-05
0.000224827
0.000229007
6.55564e-05
1.45334e-05
1.3891e-05
6.03974e-05
0.000211029
0.000208116
5.90865e-05
1.38024e-05
1.36389e-05
5.70404e-05
0.00020107
0.000207403
5.75447e-05
1.39318e-05
1.40547e-05
5.78867e-05
0.000211476
0.000225419
6.16261e-05
1.42278e-05
1.42902e-05
6.4794e-05
0.00023909
0.00025032
6.89622e-05
1.42469e-05
1.40559e-05
7.32953e-05
0.000264409
0.000272486
7.57972e-05
1.37126e-05
1.3206e-05
7.94388e-05
0.000284228
0.000289036
8.11498e-05
1.25413e-05
1.17499e-05
8.45342e-05
0.000297466
0.000297775
8.51085e-05
1.08478e-05
9.80157e-06
8.65469e-05
0.000301062
0.000298808
8.62106e-05
8.65563e-06
7.87961e-06
8.94445e-05
0.000306102
0.000300107
8.80793e-05
6.53788e-06
5.80598e-06
8.95622e-05
0.000303444
0.000305037
9.10824e-05
4.91887e-06
4.53166e-06
8.8006e-05
0.000296919
0.00030065
8.99408e-05
5.04313e-06
6.27491e-06
8.62153e-05
0.000291256
0.000291189
8.62929e-05
7.60997e-06
8.94413e-06
8.24967e-05
0.000280454
0.000278113
8.17092e-05
1.01952e-05
1.1391e-05
7.80995e-05
0.000266171
0.00026246
7.72104e-05
1.24643e-05
1.34861e-05
7.41195e-05
0.000250234
0.000245669
7.30236e-05
1.43927e-05
1.52337e-05
6.92071e-05
0.000232067
0.000222413
6.41201e-05
1.59644e-05
1.66305e-05
5.76971e-05
0.000206232
0.00019877
5.46866e-05
1.72052e-05
1.7715e-05
5.11698e-05
0.000186162
0.000180184
4.94774e-05
1.81473e-05
1.85091e-05
4.70474e-05
0.000169805
0.000164957
4.60208e-05
1.8803e-05
1.90508e-05
4.41852e-05
0.000156338
0.00015243
4.36087e-05
1.92494e-05
1.94168e-05
4.21949e-05
0.000145377
0.000142503
4.1956e-05
1.95485e-05
1.96582e-05
4.08926e-05
0.000136809
0.000134787
4.09084e-05
1.97444e-05
1.98164e-05
4.01322e-05
0.000130246
0.000128888
4.0258e-05
1.98734e-05
1.99216e-05
3.97261e-05
0.000125276
0.000124384
3.9873e-05
1.99591e-05
1.99904e-05
3.95065e-05
0.000121505
0.000120893
3.96309e-05
2.00138e-05
2.00334e-05
3.93511e-05
0.000118517
0.000118063
3.94492e-05
2.00474e-05
2.00598e-05
3.92292e-05
0.000115851
0.000115513
3.9303e-05
2.00687e-05
2.00764e-05
3.91102e-05
0.000113525
0.000113306
3.91383e-05
2.00818e-05
2.00861e-05
3.89517e-05
0.000111486
0.000111441
3.89685e-05
2.00877e-05
2.0083e-05
3.87935e-05
0.000109798
0.000109938
3.87664e-05
2.00913e-05
2.00596e-05
3.86172e-05
0.000109011
0.000110288
3.88473e-05
2.01706e-05
2.02865e-05
3.88397e-05
0.000111253
0.000114
3.94768e-05
2.07544e-05
2.10044e-05
4.00786e-05
0.000116973
0.000116383
3.9907e-05
2.13576e-05
2.1643e-05
4.12283e-05
0.000123805
0.000127018
4.18486e-05
2.23439e-05
0.000425459
0.00074121
0.000981915
0.00111136
0.00113488
0.00120014
0.00121929
0.00124671
0.00125663
0.00126787
0.0012728
0.00127225
0.00126511
0.00123541
0.00122201
0.00117318
0.00114445
0.00105504
0.00101428
0.000924436
0.000689338
0.000472344
0.000405259
0.000178663
3.01102e-05
1.24022e-05
6.96622e-06
3.05153e-06
1.09836e-05
2.49858e-05
7.81777e-06
3.65916e-06
1.22956e-06
1.91328e-06
6.33099e-06
1.62516e-05
1.37596e-05
5.72497e-06
2.02274e-06
2.03963e-06
6.08432e-06
1.47444e-05
1.34381e-05
5.70712e-06
1.95529e-06
1.93357e-06
5.7943e-06
1.37325e-05
1.28702e-05
5.49113e-06
1.87448e-06
1.85617e-06
5.63888e-06
1.32329e-05
1.26535e-05
5.42768e-06
1.80412e-06
1.81287e-06
5.59067e-06
1.30757e-05
1.25173e-05
5.37016e-06
1.8017e-06
1.81255e-06
5.58779e-06
1.29533e-05
1.24772e-05
5.38577e-06
1.8023e-06
1.81205e-06
5.59396e-06
1.28875e-05
1.24176e-05
5.39582e-06
1.80248e-06
1.81263e-06
5.60719e-06
1.2823e-05
1.23556e-05
5.40952e-06
1.80295e-06
1.81291e-06
5.62083e-06
1.27501e-05
1.22825e-05
5.42385e-06
1.80353e-06
1.81396e-06
5.63843e-06
1.2671e-05
1.2217e-05
5.44227e-06
1.8046e-06
1.8148e-06
5.65778e-06
1.26103e-05
1.21724e-05
5.46296e-06
1.80569e-06
1.81649e-06
5.68329e-06
1.25702e-05
1.21475e-05
5.49001e-06
1.80749e-06
1.81804e-06
5.7126e-06
1.25438e-05
1.21299e-05
5.52e-06
1.80927e-06
1.82055e-06
5.74797e-06
1.25255e-05
1.21217e-05
5.55604e-06
1.81198e-06
1.82291e-06
5.78658e-06
1.25217e-05
1.21269e-05
5.59424e-06
1.81445e-06
1.82621e-06
5.83072e-06
1.25404e-05
1.2157e-05
5.63861e-06
1.81799e-06
1.82928e-06
5.87839e-06
1.25855e-05
1.22065e-05
5.68553e-06
1.821e-06
1.83322e-06
5.93102e-06
1.26309e-05
1.22505e-05
5.73797e-06
1.82521e-06
1.83678e-06
5.98517e-06
1.26537e-05
1.22686e-05
5.78945e-06
1.82847e-06
1.84102e-06
6.04095e-06
1.26643e-05
1.22809e-05
5.84314e-06
1.83291e-06
1.84458e-06
6.09608e-06
1.26727e-05
1.22875e-05
5.89381e-06
1.83585e-06
1.84851e-06
6.15092e-06
1.26727e-05
1.22909e-05
5.94449e-06
1.83983e-06
1.85132e-06
6.20158e-06
1.26722e-05
1.22844e-05
5.9858e-06
1.8415e-06
1.85374e-06
6.24531e-06
1.26726e-05
1.22904e-05
6.01974e-06
1.84328e-06
1.85383e-06
6.27112e-06
1.26942e-05
1.23115e-05
6.02831e-06
1.84133e-06
1.85218e-06
6.2706e-06
1.27366e-05
1.23584e-05
6.01096e-06
1.83773e-06
1.84565e-06
6.22458e-06
1.28085e-05
1.24195e-05
5.94514e-06
1.82703e-06
1.83407e-06
6.13574e-06
1.29158e-05
1.25275e-05
5.84754e-06
1.81093e-06
1.81313e-06
6.01242e-06
1.3124e-05
1.28026e-05
5.74457e-06
1.78299e-06
1.78362e-06
5.93013e-06
1.37284e-05
1.38003e-05
5.72146e-06
1.74696e-06
1.74238e-06
6.0045e-06
1.57505e-05
1.69505e-05
5.91153e-06
1.69893e-06
1.69837e-06
6.55216e-06
2.11955e-05
2.39172e-05
6.80118e-06
1.65086e-06
1.65648e-06
8.19031e-06
3.04147e-05
3.28676e-05
9.00243e-06
1.61061e-06
1.65323e-06
1.12612e-05
3.9088e-05
3.95011e-05
1.22077e-05
1.63273e-06
1.73111e-06
1.46842e-05
4.33725e-05
4.1979e-05
1.49811e-05
1.72721e-06
1.87137e-06
1.69901e-05
4.4225e-05
4.24596e-05
1.66627e-05
1.87861e-06
2.01381e-06
1.79662e-05
4.37733e-05
4.18548e-05
1.71891e-05
2.02322e-06
2.1455e-06
1.78696e-05
4.27422e-05
4.08969e-05
1.68469e-05
2.18181e-06
2.3034e-06
1.70254e-05
4.16461e-05
4.01121e-05
1.58747e-05
2.39553e-06
2.61904e-06
1.59364e-05
4.13308e-05
4.05506e-05
1.52036e-05
2.88274e-06
3.29943e-06
1.6082e-05
4.3354e-05
4.34314e-05
1.6e-05
3.82904e-06
4.45704e-06
1.80623e-05
4.93216e-05
5.01719e-05
1.82906e-05
4.98239e-06
5.57091e-06
2.09407e-05
5.80962e-05
5.80825e-05
2.09761e-05
6.04493e-06
6.60951e-06
2.37274e-05
6.63344e-05
6.65099e-05
2.39271e-05
7.00627e-06
7.42109e-06
2.64855e-05
7.51614e-05
7.49333e-05
2.6487e-05
7.77283e-06
8.21739e-06
2.93288e-05
8.35742e-05
8.36979e-05
3.00378e-05
8.67691e-06
9.06898e-06
3.30606e-05
9.27755e-05
9.24414e-05
3.2846e-05
9.42166e-06
9.81599e-06
3.61857e-05
0.000100988
0.000100968
3.60674e-05
1.01542e-05
1.05983e-05
3.95791e-05
0.000109412
0.000109417
3.96862e-05
1.10237e-05
1.15475e-05
4.3445e-05
0.000116902
0.000116067
4.3803e-05
1.19744e-05
1.24084e-05
4.6365e-05
0.000121389
0.000119457
4.72275e-05
1.29784e-05
1.35785e-05
5.01449e-05
0.000124331
0.00012139
5.08592e-05
1.4565e-05
1.63602e-05
5.80275e-05
0.000127458
0.000123423
6.22922e-05
1.1559e-05
6.7237e-06
1.75004e-05
4.62833e-05
0.000113801
4.39172e-05
9.51297e-06
1.10171e-05
4.24208e-05
0.000111847
0.00012616
5.08724e-05
1.218e-05
1.31682e-05
5.11427e-05
0.000129611
0.000156988
5.81948e-05
1.44295e-05
2.65683e-05
6.98225e-05
0.000259662
0.000364222
0.000172492
4.00013e-05
4.59285e-05
0.000170017
0.000390858
0.00046796
0.000229932
5.12142e-05
5.36038e-05
0.000248303
0.000499292
0.000488271
0.000245115
5.09746e-05
4.77003e-05
0.000202111
0.000394758
0.000465019
0.00022555
5.07549e-05
5.40278e-05
0.000243
0.000482345
0.000501361
0.000252389
5.71981e-05
5.8581e-05
0.000261776
0.000518071
0.000511475
0.00026582
6.10326e-05
6.34057e-05
0.000286778
0.000560388
0.000576995
0.000296574
6.52116e-05
6.22287e-05
0.000300589
0.000581721
0.000498345
0.000265907
5.77012e-05
5.5161e-05
0.000263893
0.000493446
0.000494349
0.00025963
5.41678e-05
5.15148e-05
0.000253017
0.000495913
0.000428273
0.000233431
4.80438e-05
4.75772e-05
0.000235024
0.000452764
0.00047932
0.000245958
4.95959e-05
5.12842e-05
0.000252838
0.000504228
0.000452577
0.000242186
5.05772e-05
5.10311e-05
0.000257129
0.000460045
0.000518321
0.000293069
5.30402e-05
5.74742e-05
0.000331877
0.000588035
0.000497616
0.000318839
5.77145e-05
6.16518e-05
0.000343547
0.000500531
0.000523058
0.000359242
6.53712e-05
7.16872e-05
0.000347086
0.00047962
0.000488211
0.000360674
7.30496e-05
8.00769e-05
0.000318088
0.000453269
0.000443382
0.000355464
7.3807e-05
6.63112e-05
0.000167193
0.000301386
0.000314703
0.000108176
5.96142e-05
4.76574e-05
6.21264e-05
0.000117104
9.65061e-05
5.47122e-05
4.61594e-05
4.22835e-05
4.75885e-05
7.08249e-05
5.40315e-05
4.57977e-05
4.15257e-05
4.0226e-05
4.52714e-05
5.37588e-05
5.37682e-05
4.13766e-05
3.96846e-05
3.67623e-05
3.77032e-05
4.75578e-05
4.96964e-05
4.11458e-05
3.88415e-05
3.98481e-05
4.54087e-05
4.64439e-05
4.9257e-05
5.44629e-05
3.91207e-05
3.7625e-05
5.8218e-05
6.39619e-05
7.61073e-05
6.31331e-05
3.9287e-05
4.02859e-05
6.94889e-05
8.54287e-05
9.37094e-05
7.49711e-05
3.93147e-05
3.84625e-05
7.21013e-05
9.89005e-05
0.000108158
7.81656e-05
4.05627e-05
4.49212e-05
9.41838e-05
0.000120293
0.00013528
0.000110414
5.06915e-05
5.53782e-05
0.000128832
0.000139217
0.000152209
0.000139932
5.50319e-05
5.45417e-05
0.000138416
0.000158254
0.000164552
0.00014646
5.66126e-05
5.84526e-05
0.000157485
0.000159941
0.000165865
0.00015767
5.49573e-05
5.18494e-05
0.000153114
0.000169063
0.000173749
0.000156447
5.28395e-05
5.52291e-05
0.000159407
0.000164142
0.000171912
0.00016522
5.26037e-05
4.768e-05
0.000158604
0.000181542
0.000182797
0.000151345
4.31055e-05
4.37284e-05
0.000152623
0.000188258
0.000186455
0.000151653
4.32406e-05
3.60285e-05
0.000144197
0.000191266
0.000183108
0.000119207
2.12696e-05
1.36534e-05
7.99854e-05
0.000187632
0.000180348
9.57613e-05
2.01671e-05
1.75092e-05
9.48723e-05
0.000164232
0.000154409
8.32328e-05
1.37359e-05
8.80951e-06
6.10852e-05
0.000122729
0.000168412
9.05913e-05
1.42276e-05
1.94843e-05
0.000100155
0.000176113
0.000169496
9.36018e-05
1.65767e-05
1.27536e-05
8.06765e-05
0.000156976
0.000110665
5.25146e-05
7.05673e-06
1.40173e-05
9.50987e-05
0.000176237
0.000169975
8.80236e-05
1.76628e-05
1.35284e-05
7.70581e-05
0.000157919
9.72699e-05
4.14197e-05
7.37209e-06
1.45643e-05
9.83579e-05
0.000178235
0.000169244
8.56254e-05
1.82223e-05
1.36785e-05
7.54686e-05
0.000156217
8.90155e-05
3.5551e-05
7.68206e-06
1.4417e-05
9.66067e-05
0.000173434
0.00016828
8.40039e-05
1.85571e-05
1.47362e-05
6.75059e-05
0.000144782
0.000140611
6.53365e-05
1.14343e-05
6.82131e-06
2.85967e-05
7.46437e-05
0.000158855
8.73308e-05
1.31201e-05
1.69145e-05
7.46105e-05
0.000151048
0.000139433
6.39516e-05
1.26075e-05
7.35527e-06
2.6718e-05
6.899e-05
0.000150694
8.32737e-05
1.2862e-05
1.6484e-05
6.93805e-05
0.000143064
0.00013582
6.2368e-05
1.24942e-05
7.6977e-06
2.55397e-05
6.55689e-05
0.000148942
8.28987e-05
1.32932e-05
1.71379e-05
6.98309e-05
0.000143453
0.00013281
6.02388e-05
1.28778e-05
7.87243e-06
2.36521e-05
6.074e-05
0.000141457
7.81443e-05
1.29202e-05
1.67467e-05
6.55665e-05
0.000135514
0.000128264
5.83866e-05
1.27572e-05
8.06339e-06
2.29452e-05
5.82601e-05
0.000138405
7.67519e-05
1.31143e-05
1.71379e-05
6.5271e-05
0.000133176
0.000121393
5.40536e-05
1.30087e-05
8.08481e-06
2.1091e-05
5.29247e-05
0.000126071
6.88442e-05
1.24463e-05
1.55784e-05
6.43876e-05
0.000126914
5.84092e-05
2.47398e-05
1.00139e-05
1.46171e-05
7.73107e-05
0.000134207
0.000128063
6.37698e-05
1.87739e-05
1.42428e-05
5.27849e-05
0.000115322
5.00227e-05
2.12783e-05
9.07588e-06
1.35718e-05
6.882e-05
0.000121492
0.000117516
5.88989e-05
1.7798e-05
1.37047e-05
4.9332e-05
0.00010762
4.56094e-05
1.96723e-05
8.87171e-06
1.27382e-05
6.07103e-05
0.000109937
0.000108294
5.55685e-05
1.5631e-05
1.01452e-05
2.19631e-05
4.83178e-05
0.000112426
6.58937e-05
1.40281e-05
1.807e-05
5.35828e-05
0.000105451
9.59729e-05
4.55371e-05
1.37711e-05
9.0831e-06
1.87912e-05
4.1539e-05
0.000100103
5.54765e-05
1.28189e-05
1.59075e-05
5.18226e-05
9.8598e-05
4.4946e-05
2.13255e-05
1.05297e-05
1.44234e-05
6.088e-05
0.000105016
0.000100574
5.33069e-05
1.88082e-05
1.4557e-05
4.44841e-05
8.90242e-05
3.92527e-05
1.8694e-05
9.58559e-06
1.30404e-05
5.23558e-05
9.31671e-05
9.01089e-05
4.86815e-05
1.61092e-05
1.06455e-05
2.05269e-05
4.1471e-05
9.46233e-05
5.54385e-05
1.41692e-05
1.82643e-05
4.75015e-05
8.73954e-05
7.90228e-05
4.05654e-05
1.40439e-05
9.41152e-06
1.73859e-05
3.59528e-05
8.21425e-05
4.71468e-05
1.27079e-05
1.59312e-05
4.44805e-05
8.02781e-05
3.82148e-05
1.93657e-05
1.06578e-05
1.40378e-05
5.037e-05
8.53773e-05
8.08135e-05
4.56556e-05
1.83407e-05
1.41738e-05
3.83176e-05
7.23366e-05
3.34165e-05
1.65617e-05
9.43329e-06
1.24269e-05
4.37902e-05
7.44077e-05
7.26149e-05
4.11889e-05
1.55246e-05
1.03318e-05
1.80999e-05
3.48112e-05
7.60124e-05
4.59493e-05
1.32599e-05
1.64023e-05
4.26007e-05
7.31597e-05
3.57619e-05
1.87818e-05
1.09323e-05
1.38073e-05
4.63607e-05
7.5e-05
7.16576e-05
4.2205e-05
1.70048e-05
1.143e-05
1.93867e-05
3.62004e-05
7.5834e-05
4.68081e-05
1.44618e-05
1.85777e-05
4.16786e-05
7.05279e-05
6.46099e-05
3.64625e-05
1.4354e-05
9.7576e-06
1.62247e-05
3.18673e-05
6.43994e-05
3.97808e-05
1.2662e-05
1.58509e-05
3.82201e-05
6.31793e-05
3.22106e-05
1.74429e-05
1.06863e-05
1.32927e-05
4.03454e-05
6.30444e-05
6.17851e-05
3.83922e-05
1.63812e-05
1.10305e-05
1.78505e-05
3.21677e-05
6.43588e-05
4.1365e-05
1.37989e-05
1.6994e-05
3.90674e-05
6.23452e-05
3.33858e-05
1.86046e-05
1.15458e-05
1.47129e-05
4.20025e-05
6.52056e-05
6.30189e-05
3.94485e-05
1.91185e-05
1.49404e-05
3.39022e-05
5.74381e-05
2.9549e-05
1.62812e-05
1.01268e-05
1.27646e-05
3.69863e-05
5.67525e-05
5.55137e-05
3.51102e-05
1.5969e-05
1.07793e-05
1.72741e-05
2.97366e-05
5.7349e-05
3.81713e-05
1.33634e-05
1.6591e-05
3.5879e-05
5.55397e-05
3.02935e-05
1.79188e-05
1.12315e-05
1.38028e-05
3.83033e-05
5.62781e-05
5.44781e-05
3.56227e-05
1.69684e-05
1.14231e-05
1.80972e-05
3.0203e-05
5.65207e-05
3.84644e-05
1.40108e-05
1.7247e-05
3.61075e-05
5.47512e-05
3.05528e-05
1.84725e-05
1.1692e-05
1.43157e-05
3.83932e-05
5.55222e-05
5.34127e-05
3.57973e-05
1.75768e-05
1.19632e-05
1.87798e-05
3.04916e-05
5.56565e-05
3.79459e-05
1.47902e-05
1.90481e-05
3.58621e-05
5.42369e-05
4.9443e-05
3.13199e-05
1.48571e-05
1.01103e-05
1.61077e-05
2.65978e-05
4.89186e-05
3.32375e-05
1.27374e-05
1.60019e-05
3.18431e-05
4.71487e-05
2.65979e-05
1.70858e-05
1.08539e-05
1.31955e-05
3.34731e-05
4.78238e-05
4.61192e-05
3.17543e-05
1.6347e-05
1.10527e-05
1.72887e-05
2.65168e-05
4.79376e-05
3.37357e-05
1.35187e-05
1.67017e-05
3.18253e-05
4.58494e-05
2.64955e-05
1.75246e-05
1.1267e-05
1.36251e-05
3.35384e-05
4.72459e-05
4.55104e-05
3.18531e-05
1.68335e-05
1.14568e-05
1.77342e-05
2.66087e-05
4.7608e-05
3.39106e-05
1.39519e-05
1.71439e-05
3.19783e-05
4.55694e-05
2.66838e-05
1.79934e-05
1.16262e-05
1.4137e-05
3.37381e-05
4.71378e-05
4.54114e-05
3.20226e-05
1.73839e-05
1.18834e-05
1.82387e-05
2.68447e-05
4.75362e-05
3.41815e-05
1.43928e-05
1.76172e-05
3.22945e-05
4.55446e-05
2.69556e-05
1.84563e-05
1.20569e-05
1.45145e-05
3.38414e-05
4.69747e-05
4.53288e-05
3.22827e-05
1.78112e-05
1.2318e-05
1.87757e-05
2.70646e-05
4.75347e-05
3.44108e-05
1.49741e-05
1.83099e-05
3.26459e-05
4.57642e-05
2.78002e-05
1.93916e-05
1.27875e-05
1.57864e-05
3.48002e-05
4.83507e-05
4.78557e-05
3.4116e-05
2.01512e-05
1.59223e-05
2.98722e-05
4.36824e-05
2.49511e-05
1.68967e-05
1.09204e-05
1.35353e-05
3.09942e-05
4.37828e-05
4.25472e-05
2.98052e-05
1.68139e-05
1.15864e-05
1.76296e-05
2.50774e-05
4.37815e-05
3.16869e-05
1.40244e-05
1.71683e-05
3.02318e-05
4.2263e-05
2.52986e-05
1.79302e-05
1.17676e-05
1.41777e-05
3.17174e-05
4.33503e-05
4.17608e-05
3.01939e-05
1.73214e-05
1.1934e-05
1.81141e-05
2.52718e-05
4.35027e-05
3.18793e-05
1.44275e-05
1.75883e-05
3.04819e-05
4.20121e-05
2.55557e-05
1.8284e-05
1.2098e-05
1.45616e-05
3.19224e-05
4.34008e-05
4.18201e-05
3.04013e-05
1.77367e-05
1.21939e-05
1.8421e-05
2.55485e-05
4.35824e-05
3.20088e-05
1.47201e-05
1.79713e-05
3.06384e-05
4.2129e-05
2.58893e-05
1.87161e-05
1.24774e-05
1.49774e-05
3.22699e-05
4.36317e-05
4.20752e-05
3.08163e-05
1.81547e-05
1.25902e-05
1.8905e-05
2.59443e-05
4.39375e-05
3.2539e-05
1.52098e-05
1.84802e-05
3.11733e-05
4.25096e-05
2.63416e-05
1.9188e-05
1.28454e-05
1.54021e-05
3.27971e-05
4.41202e-05
4.257e-05
3.13437e-05
1.86393e-05
1.29783e-05
1.93646e-05
2.6479e-05
4.4622e-05
3.30857e-05
1.56829e-05
1.90873e-05
3.17921e-05
4.32685e-05
2.73233e-05
2.00185e-05
1.3517e-05
1.65527e-05
3.37877e-05
4.579e-05
4.49281e-05
3.33359e-05
2.08044e-05
1.63687e-05
2.92749e-05
4.07928e-05
2.46979e-05
1.72753e-05
1.13391e-05
1.3892e-05
2.9647e-05
4.07053e-05
3.98262e-05
2.87379e-05
1.71208e-05
1.20182e-05
1.79542e-05
2.48074e-05
4.04964e-05
3.00957e-05
1.44721e-05
1.75571e-05
2.88176e-05
3.9181e-05
2.47141e-05
1.81283e-05
1.2166e-05
1.46083e-05
3.00552e-05
3.9989e-05
3.89179e-05
2.89177e-05
1.77439e-05
1.23551e-05
1.83941e-05
2.47806e-05
4.03445e-05
3.04154e-05
1.48741e-05
1.79917e-05
2.91808e-05
3.90827e-05
2.50308e-05
1.86607e-05
1.25616e-05
1.50731e-05
3.06005e-05
4.05799e-05
3.94991e-05
2.95685e-05
1.82013e-05
1.27992e-05
1.89366e-05
2.53457e-05
4.13248e-05
3.11947e-05
1.55041e-05
1.86883e-05
2.99269e-05
4.01146e-05
2.58314e-05
1.93557e-05
1.31119e-05
1.58013e-05
3.16431e-05
4.18239e-05
4.07688e-05
3.05935e-05
1.90866e-05
1.36825e-05
2.01012e-05
2.6638e-05
4.37137e-05
3.27955e-05
1.68788e-05
2.11444e-05
3.27342e-05
4.30295e-05
3.95815e-05
2.91392e-05
1.68399e-05
1.18282e-05
1.78193e-05
2.49307e-05
4.01024e-05
2.97763e-05
1.47039e-05
1.80864e-05
2.89459e-05
3.93762e-05
2.51361e-05
1.87841e-05
1.28264e-05
1.53976e-05
3.0628e-05
4.04226e-05
3.92613e-05
2.94381e-05
1.85685e-05
1.30967e-05
1.91806e-05
2.53911e-05
4.09848e-05
3.1189e-05
1.5717e-05
1.89053e-05
3.00272e-05
3.99446e-05
2.60474e-05
1.96435e-05
1.34184e-05
1.61556e-05
3.17577e-05
4.1584e-05
4.03678e-05
3.05921e-05
1.93157e-05
1.37771e-05
2.01123e-05
2.65614e-05
4.23925e-05
3.21079e-05
1.67406e-05
2.08555e-05
3.19655e-05
4.11963e-05
3.85649e-05
2.88112e-05
1.67741e-05
1.19962e-05
1.79135e-05
2.49715e-05
3.93283e-05
2.95234e-05
1.49083e-05
1.81476e-05
2.85773e-05
3.85122e-05
2.50613e-05
1.88929e-05
1.28937e-05
1.56123e-05
3.02244e-05
3.96347e-05
3.88035e-05
2.94068e-05
1.88545e-05
1.35631e-05
1.96976e-05
2.57627e-05
4.13345e-05
3.14043e-05
1.67235e-05
2.09772e-05
3.15446e-05
4.04694e-05
3.7531e-05
2.8424e-05
1.69031e-05
1.20907e-05
1.79432e-05
2.45736e-05
3.86405e-05
2.91703e-05
1.50122e-05
1.82911e-05
2.84443e-05
3.79979e-05
2.50433e-05
1.90443e-05
1.30906e-05
1.58206e-05
3.03281e-05
3.94146e-05
3.82658e-05
2.91728e-05
1.89231e-05
1.34326e-05
1.9602e-05
2.55652e-05
4.03075e-05
3.07646e-05
1.63569e-05
2.05089e-05
3.07676e-05
3.90869e-05
3.68495e-05
2.79782e-05
1.66263e-05
1.20157e-05
1.7761e-05
2.43937e-05
3.7962e-05
2.8801e-05
1.49518e-05
1.81868e-05
2.79823e-05
3.72537e-05
2.47992e-05
1.89147e-05
1.30293e-05
1.57768e-05
2.9793e-05
3.86245e-05
3.78324e-05
2.90243e-05
1.90518e-05
1.38783e-05
2.00031e-05
2.57595e-05
4.08072e-05
3.13536e-05
1.71634e-05
2.14715e-05
3.16175e-05
4.00188e-05
3.73127e-05
2.86975e-05
1.74967e-05
1.26693e-05
1.86722e-05
2.5084e-05
3.89547e-05
2.97392e-05
1.58514e-05
1.92361e-05
2.91325e-05
3.83799e-05
2.61992e-05
2.02424e-05
1.4077e-05
1.74296e-05
3.14879e-05
4.08099e-05
4.00809e-05
3.1717e-05
2.16134e-05
1.73385e-05
2.87879e-05
3.71966e-05
2.49078e-05
1.84386e-05
1.24772e-05
1.55304e-05
2.92296e-05
3.84959e-05
3.81139e-05
2.87512e-05
1.90457e-05
1.41e-05
2.00936e-05
2.61559e-05
4.03599e-05
3.12522e-05
1.75582e-05
2.1907e-05
3.16687e-05
3.97284e-05
3.71757e-05
2.89263e-05
1.78782e-05
1.30396e-05
1.91294e-05
2.56114e-05
3.87883e-05
2.98501e-05
1.62632e-05
2.03965e-05
3.01122e-05
3.79031e-05
3.62843e-05
2.78235e-05
1.67489e-05
1.24502e-05
1.81188e-05
2.46698e-05
3.75042e-05
2.85411e-05
1.57264e-05
1.91199e-05
2.80918e-05
3.70293e-05
2.57623e-05
2.01391e-05
1.41197e-05
1.76268e-05
3.08862e-05
3.96629e-05
3.9179e-05
3.14425e-05
2.20846e-05
1.83178e-05
2.91191e-05
3.70245e-05
2.59065e-05
1.96994e-05
1.35542e-05
1.7197e-05
3.08572e-05
4.00908e-05
3.95379e-05
3.12421e-05
2.16514e-05
1.80136e-05
2.87578e-05
3.72926e-05
2.58884e-05
1.9519e-05
1.34391e-05
1.71703e-05
3.05299e-05
3.97584e-05
3.93503e-05
3.11073e-05
2.16852e-05
1.81983e-05
2.88587e-05
3.75373e-05
2.62587e-05
1.96631e-05
1.36215e-05
1.72596e-05
3.06836e-05
3.97557e-05
3.92377e-05
3.10802e-05
2.16001e-05
1.8023e-05
2.86226e-05
3.71559e-05
2.59336e-05
1.95528e-05
1.35817e-05
1.73266e-05
3.04305e-05
3.95818e-05
3.89302e-05
3.03482e-05
2.18557e-05
1.9202e-05
2.90897e-05
3.67123e-05
3.63064e-05
2.7498e-05
1.64151e-05
1.26122e-05
1.84063e-05
2.54489e-05
3.80471e-05
2.90443e-05
1.63637e-05
2.08552e-05
2.94877e-05
3.74943e-05
3.59474e-05
2.74119e-05
1.76747e-05
1.33801e-05
1.91555e-05
2.5317e-05
3.86101e-05
2.96776e-05
1.72525e-05
2.21007e-05
2.98362e-05
3.841e-05
3.64972e-05
2.85158e-05
1.97565e-05
1.68169e-05
2.78018e-05
3.60561e-05
2.51543e-05
1.87313e-05
1.31045e-05
1.74099e-05
2.95898e-05
3.91737e-05
3.91888e-05
2.97189e-05
2.24252e-05
1.99512e-05
2.89558e-05
3.68513e-05
3.60083e-05
2.728e-05
1.69488e-05
1.30282e-05
1.88707e-05
2.53602e-05
3.8969e-05
2.95975e-05
1.68395e-05
2.15752e-05
2.942e-05
3.82785e-05
3.73581e-05
2.88935e-05
1.97332e-05
1.81574e-05
2.69264e-05
3.60402e-05
3.64434e-05
2.61864e-05
1.63658e-05
1.30443e-05
1.87161e-05
2.54757e-05
3.96992e-05
2.98418e-05
1.75296e-05
2.29436e-05
3.00227e-05
3.96425e-05
3.91013e-05
2.9739e-05
2.16814e-05
2.03389e-05
2.8527e-05
3.80793e-05
3.82666e-05
2.79911e-05
1.90285e-05
1.7631e-05
2.5837e-05
3.57919e-05
3.59562e-05
2.48286e-05
1.59423e-05
1.28637e-05
1.81126e-05
2.45948e-05
3.86195e-05
2.89034e-05
1.71637e-05
2.19575e-05
2.8976e-05
3.85569e-05
3.72489e-05
2.82219e-05
2.0431e-05
1.98289e-05
2.79126e-05
3.72828e-05
3.72526e-05
2.74318e-05
1.92588e-05
1.88782e-05
2.65191e-05
3.74512e-05
3.69177e-05
2.5912e-05
1.88074e-05
1.86642e-05
2.57136e-05
3.74202e-05
3.66947e-05
2.56981e-05
1.8582e-05
1.86518e-05
2.59625e-05
3.69004e-05
3.66438e-05
2.6644e-05
1.86466e-05
1.8616e-05
2.73714e-05
3.69224e-05
3.70605e-05
2.82914e-05
1.8574e-05
1.85267e-05
2.9215e-05
3.74165e-05
3.78396e-05
3.01271e-05
1.84819e-05
1.84346e-05
3.08054e-05
3.82544e-05
3.88162e-05
3.15323e-05
1.8391e-05
1.83466e-05
3.20986e-05
3.92904e-05
3.9978e-05
3.25822e-05
1.83058e-05
1.82664e-05
3.3275e-05
4.05113e-05
4.14155e-05
3.34673e-05
1.82295e-05
1.81956e-05
3.4217e-05
4.20393e-05
4.32265e-05
3.42568e-05
1.81633e-05
1.8135e-05
3.50238e-05
4.39177e-05
4.52547e-05
3.50638e-05
1.81073e-05
1.80847e-05
3.58593e-05
4.60297e-05
4.74162e-05
3.58838e-05
1.80612e-05
1.80446e-05
3.67205e-05
4.83317e-05
4.9763e-05
3.67393e-05
1.80245e-05
1.80143e-05
3.75876e-05
5.079e-05
5.22101e-05
3.75994e-05
1.79973e-05
1.79923e-05
3.8498e-05
5.32646e-05
5.45457e-05
3.85077e-05
1.79785e-05
1.79768e-05
3.94253e-05
5.55466e-05
5.66831e-05
3.94189e-05
1.79665e-05
1.7967e-05
4.03689e-05
5.76465e-05
5.86243e-05
4.03494e-05
1.79599e-05
1.79617e-05
4.12811e-05
5.95305e-05
6.03904e-05
4.12343e-05
1.79571e-05
1.79597e-05
4.21711e-05
6.12771e-05
6.20062e-05
4.21057e-05
1.79567e-05
1.79599e-05
4.30037e-05
6.28544e-05
6.34857e-05
4.29051e-05
1.79581e-05
1.79617e-05
4.37971e-05
6.43371e-05
6.48423e-05
4.36709e-05
1.79603e-05
1.79646e-05
4.45186e-05
6.56847e-05
6.60918e-05
4.43493e-05
1.79635e-05
1.79682e-05
4.51846e-05
6.69385e-05
6.72482e-05
4.49929e-05
1.79672e-05
1.79721e-05
4.5775e-05
6.80853e-05
6.83166e-05
4.5551e-05
1.79712e-05
1.79762e-05
4.63225e-05
6.91596e-05
6.93093e-05
4.60797e-05
1.79752e-05
1.79803e-05
4.67987e-05
7.01417e-05
7.02303e-05
4.65261e-05
1.79793e-05
1.79843e-05
4.72396e-05
7.10705e-05
7.10911e-05
4.69525e-05
1.79834e-05
1.79883e-05
4.76169e-05
7.19223e-05
7.18958e-05
4.73018e-05
1.79873e-05
1.79922e-05
4.7968e-05
7.27387e-05
7.26549e-05
4.76435e-05
1.79912e-05
1.7996e-05
4.82652e-05
7.34905e-05
7.33706e-05
4.79154e-05
1.7995e-05
1.79997e-05
4.85455e-05
7.42211e-05
7.40524e-05
4.81908e-05
1.79988e-05
1.80033e-05
4.87802e-05
7.48963e-05
7.46939e-05
4.84021e-05
1.80023e-05
1.80068e-05
4.90071e-05
7.55653e-05
7.53283e-05
4.86258e-05
1.80059e-05
1.80102e-05
4.92052e-05
7.61784e-05
7.59213e-05
4.87942e-05
1.80093e-05
1.80136e-05
4.93892e-05
7.67919e-05
7.64968e-05
4.89772e-05
1.80126e-05
1.80169e-05
4.9549e-05
7.73623e-05
7.70566e-05
4.91118e-05
1.80159e-05
1.80201e-05
4.9702e-05
7.79347e-05
7.75958e-05
4.92662e-05
1.80192e-05
1.80233e-05
4.9834e-05
7.8464e-05
7.8118e-05
4.93753e-05
1.80223e-05
1.80264e-05
4.99629e-05
7.8995e-05
7.86157e-05
4.9507e-05
1.80254e-05
1.80294e-05
5.00728e-05
7.94822e-05
7.90978e-05
4.95961e-05
1.80284e-05
1.80323e-05
5.01831e-05
7.99723e-05
7.95525e-05
4.97104e-05
1.80313e-05
1.80352e-05
5.02752e-05
8.04104e-05
7.99822e-05
4.97818e-05
1.80342e-05
1.8038e-05
5.03673e-05
8.08418e-05
8.03769e-05
4.98779e-05
1.8037e-05
1.80407e-05
5.04403e-05
8.12186e-05
8.0749e-05
4.99306e-05
1.80397e-05
1.80433e-05
5.05141e-05
8.1596e-05
8.10913e-05
5.00093e-05
1.80422e-05
1.80457e-05
5.05696e-05
8.19178e-05
8.14137e-05
5.00455e-05
1.80446e-05
1.8048e-05
5.06276e-05
8.22616e-05
8.17162e-05
5.01099e-05
1.80469e-05
1.80501e-05
5.06688e-05
8.25344e-05
8.19944e-05
5.01328e-05
1.8049e-05
1.80521e-05
5.07136e-05
8.2839e-05
8.22554e-05
5.01843e-05
1.8051e-05
1.80539e-05
5.07414e-05
8.30659e-05
8.24885e-05
5.01942e-05
1.80528e-05
1.80556e-05
5.07736e-05
8.33262e-05
8.27073e-05
5.02343e-05
1.80545e-05
1.80572e-05
5.07902e-05
8.35117e-05
8.29024e-05
5.02341e-05
1.8056e-05
1.80586e-05