/*--------------------------------*- C++ -*----------------------------------*\
| =========                 |                                                 |
| \\      /  F ield         | OpenFOAM: The Open Source CFD Toolbox           |
|  \\    /   O peration     | Version:  v2006                                 |
|   \\  /    A nd           | Website:  www.openfoam.com                      |
|    \\/     M anipulation  |                                                 |
\*---------------------------------------------------------------------------*/
FoamFile
{
    version     2.0;
    format      ascii;
    class       volVectorField;
    location    "0.011";
    object      U;
}
// * * * * * * * * * * * * * * * * * * * * * * * * * * * * * * * * * * * * * //

dimensions      [0 1 -1 0 0 0 0];


internalField   nonuniform List<vector> 
12716
(
(61.5919 -3.6468e-06 -3.49285e-21)
(61.5919 3.14035e-06 0)
(61.5919 -2.35257e-06 -1.85642e-22)
(61.5919 1.072e-06 9.34976e-22)
(61.5917 -2.94384e-05 -1.71879e-20)
(61.5889 -0.000351348 1.12442e-19)
(61.5721 -0.00247847 0)
(61.5293 -0.00734052 0)
(61.4608 -0.0143636 -1.04859e-19)
(61.3783 -0.021865 5.46862e-20)
(61.286 -0.02945 -1.14834e-19)
(61.1859 -0.0366359 3.66986e-21)
(61.0782 -0.0433203 1.49804e-20)
(60.9644 -0.0492735 -7.57623e-21)
(60.8459 -0.0545359 -7.64637e-21)
(60.7232 -0.0592408 0)
(60.5961 -0.0635905 0)
(60.4639 -0.0677474 0)
(60.3259 -0.0717976 0)
(60.1817 -0.075735 0)
(60.0311 -0.0795369 0)
(59.8742 -0.0832076 0)
(59.7112 -0.0867483 0)
(59.5422 -0.0901606 0)
(59.3675 -0.0934424 0)
(59.1872 -0.0965879 0)
(59.0015 -0.0995798 0)
(58.8106 -0.102362 0)
(58.6148 -0.105012 0)
(58.4145 -0.107642 0)
(58.2102 -0.11006 0)
(58.0022 -0.112165 0)
(57.7907 -0.114042 0)
(57.5763 -0.115668 0)
(57.3593 -0.117019 0)
(57.1402 -0.118083 0)
(56.9195 -0.118875 0)
(56.6977 -0.11939 0)
(56.4752 -0.119608 0)
(56.2527 -0.119517 0)
(56.0305 -0.119108 0)
(55.8093 -0.118372 0)
(55.5896 -0.117304 0)
(55.3721 -0.115899 0)
(55.1571 -0.114153 0)
(54.9454 -0.112062 0)
(54.7374 -0.109619 0)
(54.5339 -0.106819 0)
(54.3353 -0.103655 0)
(54.1423 -0.100124 0)
(53.9554 -0.0962345 0)
(53.7752 -0.0919929 0)
(53.6016 -0.0873779 0)
(53.4338 -0.0822582 0)
(53.2705 -0.0762714 0)
(53.1106 -0.0687838 -1.28428e-19)
(52.9557 -0.0589412 1.3213e-19)
(52.8143 -0.0465843 1.59762e-20)
(52.704 -0.0332287 0)
(52.642 -0.0218463 0)
(52.6251 -0.0146847 2.07572e-19)
(52.6312 -0.0110443 1.37704e-18)
(52.6409 -0.00720166 -1.01358e-17)
(52.6419 -0.00356812 0)
(52.6349 -0.00373443 0)
(52.6083 -0.00693323 0)
(52.541 -0.0159553 0)
(52.4099 -0.0402335 0)
(52.1741 -0.0651545 3.59987e-19)
(51.9121 -0.0790214 0)
(50.999 -0.13968 0)
(50.4297 -0.124458 5.21739e-18)
(51.9204 -0.15244 -3.49073e-18)
(52.2283 -0.121992 -3.62874e-19)
(52.2765 -0.1476 -5.73664e-18)
(51.8859 -0.17078 -4.41503e-19)
(49.8075 -0.119205 -1.08492e-18)
(49.1753 -0.108919 -9.49109e-19)
(51.83 -0.168335 3.9543e-19)
(52.3256 -0.148526 6.57837e-19)
(52.3495 -0.152676 -6.40956e-19)
(51.7458 -0.159525 8.84718e-19)
(48.5933 -0.0970097 -1.19904e-19)
(48.0246 -0.0844043 1.67565e-19)
(51.6187 -0.148014 -9.26208e-20)
(52.3352 -0.152939 6.92136e-19)
(52.2941 -0.151162 -1.53705e-19)
(51.4752 -0.137704 9.26486e-20)
(47.4998 -0.0748711 -6.12545e-24)
(47.012 -0.0670992 -5.5472e-20)
(51.3144 -0.129049 -8.02238e-20)
(52.2335 -0.149107 7.64908e-20)
(52.1584 -0.146425 0)
(51.1437 -0.121217 -1.72197e-20)
(46.5665 -0.0610791 0)
(46.1453 -0.0562201 0)
(50.9643 -0.115 5.75545e-21)
(52.0688 -0.143629 0)
(51.9737 -0.141248 0)
(50.7808 -0.108798 0)
(45.7563 -0.0520014 0)
(45.3823 -0.0486687 0)
(50.5941 -0.104092 0)
(51.8639 -0.138365 0)
(51.7527 -0.136308 0)
(50.405 -0.099239 0)
(45.0345 -0.0453625 0)
(44.6964 -0.0429375 0)
(50.214 -0.0956066 0)
(51.628 -0.133634 0)
(51.5045 -0.132086 0)
(50.0217 -0.0918245 0)
(44.3796 -0.0402822 0)
(44.0688 -0.0386215 0)
(49.8277 -0.0891377 0)
(51.368 -0.129865 0)
(51.2346 -0.128946 0)
(49.6332 -0.0863035 0)
(43.7744 -0.0365161 0)
(43.4833 -0.0354544 0)
(49.4364 -0.0844408 0)
(51.0883 -0.127248 0)
(50.9464 -0.127022 0)
(49.2395 -0.0824308 0)
(43.2047 -0.0338228 0)
(42.9267 -0.0332795 0)
(49.0397 -0.081309 0)
(50.7912 -0.125922 0)
(50.6415 -0.12637 0)
(48.8396 -0.080005 0)
(42.658 -0.0320433 0)
(42.3877 -0.0319075 0)
(48.6361 -0.079499 0)
(50.4779 -0.12586 0)
(50.3204 -0.126799 0)
(48.4319 -0.0787024 0)
(42.1242 -0.0309331 0)
(41.8575 -0.0310751 0)
(48.2238 -0.0786071 0)
(50.1486 -0.126676 0)
(49.9834 -0.127966 0)
(48.0148 -0.0781355 0)
(41.5964 -0.0302426 0)
(41.3316 -0.0305267 0)
(47.8022 -0.0782563 0)
(49.804 -0.128056 0)
(49.6321 -0.129658 0)
(47.5888 -0.078123 0)
(41.072 -0.0298584 0)
(40.8079 -0.0300859 0)
(47.3712 -0.0783337 0)
(49.4451 -0.130211 0)
(49.264 -0.132015 0)
(47.1506 -0.0785362 0)
(40.5467 -0.0296576 0)
(40.2788 -0.0299195 0)
(46.9236 -0.0789016 0)
(49.0651 -0.132784 0)
(48.8738 -0.135012 0)
(46.6949 -0.0790672 0)
(40.0151 -0.0293421 0)
(39.7454 -0.0298555 0)
(46.4603 -0.0797086 0)
(48.6652 -0.135947 0)
(48.4638 -0.138479 0)
(46.2235 -0.0799355 0)
(39.479 -0.029119 0)
(39.2069 -0.0298259 0)
(45.9807 -0.0808021 0)
(48.2446 -0.139605 0)
(48.0331 -0.142274 0)
(45.7354 -0.0810608 0)
(38.9379 -0.02906 0)
(38.6632 -0.0297992 0)
(45.4839 -0.081971 0)
(47.8029 -0.143485 0)
(47.5803 -0.146383 0)
(45.2297 -0.0823295 0)
(38.3911 -0.0290357 0)
(38.1128 -0.0299026 0)
(44.9688 -0.0834629 0)
(47.3384 -0.147894 0)
(47.104 -0.151252 0)
(44.7045 -0.0841085 0)
(37.836 -0.0292388 0)
(37.5519 -0.0302971 0)
(44.4327 -0.0855895 0)
(46.8492 -0.153238 0)
(46.6016 -0.157199 0)
(44.1567 -0.0866065 0)
(37.2679 -0.0297678 0)
(36.9755 -0.0310223 0)
(43.8723 -0.0884719 0)
(46.3326 -0.159744 0)
(46.0704 -0.164347 0)
(43.5828 -0.0898674 0)
(36.6819 -0.0306211 0)
(36.3788 -0.032054 0)
(43.2842 -0.0920995 0)
(45.7859 -0.167447 0)
(45.5078 -0.172672 0)
(42.9796 -0.0938527 0)
(36.0735 -0.0317654 0)
(35.7574 -0.0333591 0)
(42.6649 -0.0964326 0)
(45.2063 -0.17632 0)
(44.9106 -0.18221 0)
(42.3433 -0.0985532 0)
(35.4381 -0.0331741 0)
(35.1068 -0.0349189 0)
(42.0106 -0.101475 0)
(44.5903 -0.186422 0)
(44.275 -0.193003 0)
(41.6698 -0.103961 0)
(34.7713 -0.0348258 0)
(34.4227 -0.036716 0)
(41.3169 -0.107215 0)
(43.934 -0.197792 0)
(43.5971 -0.205101 0)
(40.9549 -0.110071 0)
(34.069 -0.0367126 0)
(33.701 -0.0387499 0)
(40.5797 -0.11367 0)
(43.2332 -0.210509 0)
(42.8725 -0.218654 0)
(40.194 -0.116962 0)
(33.3269 -0.0388578 0)
(32.9371 -0.0410692 0)
(39.7938 -0.120981 0)
(42.4831 -0.224812 0)
(42.0959 -0.233955 0)
(39.3817 -0.124803 0)
(32.5398 -0.0413171 0)
(32.1251 -0.0437284 0)
(38.9535 -0.129323 0)
(41.6781 -0.241008 0)
(41.2611 -0.25131 0)
(38.5115 -0.133767 0)
(31.7015 -0.0441452 0)
(31.2584 -0.0467821 0)
(38.0517 -0.138855 0)
(40.8116 -0.259374 0)
(40.3612 -0.270951 0)
(37.576 -0.143989 0)
(30.8047 -0.0473899 0)
(30.3293 -0.0502719 0)
(37.0805 -0.149702 0)
(39.8762 -0.280126 0)
(39.3884 -0.293174 0)
(36.5668 -0.155637 0)
(29.8413 -0.0511033 0)
(29.329 -0.0542918 0)
(36.0309 -0.162151 0)
(38.8634 -0.30377 0)
(38.3334 -0.318742 0)
(35.4739 -0.16915 0)
(28.8015 -0.0554348 0)
(28.2462 -0.0590224 0)
(34.8914 -0.176733 0)
(37.7627 -0.331238 0)
(37.1837 -0.34875 0)
(34.2839 -0.18514 0)
(27.6723 -0.0605904 0)
(27.066 -0.0646713 0)
(33.6467 -0.19408 0)
(36.5598 -0.363705 0)
(35.9238 -0.384375 0)
(32.9798 -0.20416 0)
(26.4369 -0.0667396 0)
(25.7693 -0.0715968 0)
(32.2773 -0.215176 0)
(35.2373 -0.403275 0)
(34.5328 -0.428514 0)
(31.5382 -0.227739 0)
(25.0721 -0.0744807 0)
(24.3277 -0.0804245 0)
(30.7553 -0.241636 0)
(33.7699 -0.452686 0)
(32.9807 -0.484323 0)
(29.9258 -0.257711 0)
(23.5441 -0.0844513 0)
(22.7006 -0.0920576 0)
(29.0402 -0.276014 0)
(32.1218 -0.516428 0)
(31.2244 -0.557951 0)
(28.0934 -0.297548 0)
(21.8032 -0.0978576 0)
(20.8258 -0.108153 0)
(27.0711 -0.322997 0)
(30.2399 -0.602859 0)
(29.1975 -0.660656 0)
(25.9635 -0.353616 0)
(19.7702 -0.117047 0)
(18.6005 -0.13181 0)
(24.7485 -0.391195 0)
(28.0402 -0.727223 0)
(26.7916 -0.813323 0)
(23.4066 -0.437872 0)
(17.3111 -0.14632 0)
(15.8464 -0.169547 0)
(21.901 -0.498004 0)
(25.3823 -0.919597 0)
(23.8214 -1.05901 0)
(20.1925 -0.575572 0)
(14.1844 -0.194657 0)
(12.2216 -0.2382 0)
(18.207 -0.684274 0)
(22.018 -1.24614 0)
(19.967 -1.50965 0)
(15.8891 -0.831986 0)
(9.91865 -0.283386 0)
(7.11315 -0.425541 0)
(13.0651 -1.07128 0)
(17.5324 -1.88096 0)
(14.6466 -2.41342 0)
(9.202 -1.50968 0)
(2.22365 -0.643595 0)
(-3.2135 -0.147661 0)
(5.35739 -1.27601 0)
(11.6336 -2.3424 0)
(7.63539 -2.03081 0)
(0.181686 -0.659306 0)
(-4.62325 0.0533667 0)
(-5.90553 -0.110797 0)
(-3.32514 -0.327814 0)
(3.32605 -1.42745 0)
(-0.452102 -0.571425 0)
(-4.8973 -0.233802 0)
(-6.74222 0.0123821 0)
(-7.06509 0.220467 0)
(-5.77144 -0.177901 0)
(-2.46438 0.202178 0)
(-2.29315 0.78645 0)
(-5.02405 0.26699 0)
(-5.94368 0.324736 0)
(-4.25747 0.401505 0)
(-4.67215 0.544308 0)
(-3.3885 0.982426 0)
(-3.1336 0.818584 0)
(-2.75988 0.456575 0)
(-0.882146 0.246163 0)
(-1.03613 -0.0990671 0)
(-2.95756 0.129937 0)
(-3.97401 -0.303637 0)
(-3.93496 -0.202204 0)
(-2.93251 0.0576129 0)
(-0.595653 -0.0934249 0)
(-1.53425 -0.165206 0)
(-3.63981 -0.311343 0)
(-4.52877 -0.797894 0)
(-5.50754 -0.35511 0)
(-4.77086 -0.28287 0)
(-2.67126 -0.0494261 0)
(-3.50417 -0.109547 0)
(-5.54561 -0.355486 0)
(-6.22601 -0.650637 0)
(-6.99167 -0.094053 0)
(-6.45329 -0.120348 0)
(-4.48313 -0.0220136 0)
(-4.58368 -0.0926484 0)
(-6.51603 -0.0993079 0)
(-7.01337 -0.331746 0)
(-7.26793 0.100114 0)
(-6.85531 0.0836911 0)
(-5.01661 -0.0151088 0)
(-4.61022 -0.0553332 0)
(-6.47678 0.0957456 0)
(-6.88729 -0.0582457 0)
(-6.71795 0.218533 0)
(-6.34076 0.148526 0)
(-4.55538 0.0200816 0)
(-4.03045 -0.00297486 0)
(-5.89683 0.0801857 0)
(-6.29848 0.0517765 0)
(-6.1878 0.13262 0)
(-5.79651 0.0608863 0)
(-3.9843 0.0185726 0)
(-3.77241 0.000405617 0)
(-5.58356 -0.00721257 0)
(-5.98484 0.00944437 0)
(-5.99883 0.0168952 0)
(-5.6159 -0.0265636 0)
(-3.88921 0.000641841 0)
(-3.94414 -0.0090286 0)
(-5.59627 -0.0435827 0)
(-5.95993 -0.0289051 0)
(-5.97456 -0.0224261 0)
(-5.64314 -0.0371061 0)
(-4.07492 -0.0119604 0)
(-4.17902 -0.0152226 0)
(-5.65682 -0.0293095 0)
(-5.95561 -0.0188802 0)
(-5.90665 0.00308155 0)
(-5.64004 -0.014068 0)
(-4.25822 -0.0145908 0)
(-4.29542 -0.014045 0)
(-5.57418 0.00349293 0)
(-5.81112 0.024777 0)
(-5.66222 0.0597543 0)
(-5.44645 0.0252589 0)
(-4.28073 -0.010202 0)
(-4.19893 -0.00524644 0)
(-5.25263 0.0460903 0)
(-5.44891 0.0920422 0)
(-5.17992 0.128132 0)
(-4.99538 0.0655392 0)
(-4.05003 -0.000683819 0)
(-3.83868 0.00601254 0)
(-4.67676 0.087294 0)
(-4.84683 0.162094 0)
(-4.4636 0.190457 0)
(-4.30031 0.101576 0)
(-3.57033 0.0102195 0)
(-3.23165 0.0146598 0)
(-3.85847 0.121473 0)
(-4.01098 0.21881 0)
(-3.54939 0.230986 0)
(-3.40649 0.121737 0)
(-2.88074 0.0130967 0)
(-2.51184 0.0209888 0)
(-2.90786 0.155808 0)
(-3.021 0.279482 0)
(-2.4294 0.259976 0)
(-2.30266 0.138699 0)
(-2.01342 0.0198095 0)
(-1.64914 0.0230795 0)
(-1.8187 0.172102 0)
(-1.9075 0.308575 0)
(-1.19743 0.313068 0)
(-1.09572 0.165806 0)
(-1.04917 0.0285533 0)
(-0.636554 0.0215561 0)
(-0.55557 0.169204 0)
(-0.636956 0.303448 0)
(0.0603777 0.343376 0)
(0.131569 0.18116 0)
(-0.0631579 0.0346574 0)
(0.456194 0.0264607 0)
(0.768837 0.170544 0)
(0.704458 0.309109 0)
(1.3424 0.34109 0)
(1.39766 0.181241 0)
(0.974909 0.033187 0)
(1.51349 0.0267425 0)
(2.05857 0.164542 -3.70094e-19)
(2.01001 0.306512 3.10378e-19)
(2.63107 0.325187 0)
(2.672 0.172608 0)
(2.01013 0.031409 0)
(2.51061 0.023356 0)
(3.29893 0.155299 0)
(3.26804 0.293841 0)
(3.86676 0.300465 0)
(3.88854 0.159722 0)
(2.97961 0.027285 0)
(3.42988 0.0188933 0)
(4.46886 0.142586 0)
(4.46046 0.272562 0)
(5.01848 0.269085 0)
(5.01607 0.143132 0)
(3.85053 0.0206753 0)
(4.24219 0.0128868 0)
(5.54569 0.128029 0)
(5.56291 0.245348 0)
(6.07424 0.236209 0)
(6.04587 0.125371 0)
(4.60296 0.0134008 0)
(4.93038 0.00716551 0)
(6.5217 0.111546 0)
(6.56622 0.214743 0)
(7.02431 0.202011 0)
(6.96537 0.105793 0)
(5.22702 0.00641048 0)
(5.49139 0.00280241 0)
(7.37809 0.0941566 0)
(7.45826 0.181527 0)
(7.86052 0.166565 0)
(7.76043 0.0859878 0)
(5.72695 0.00135802 0)
(5.93245 -0.00105472 0)
(8.10967 0.0755742 0)
(8.23597 0.147497 0)
(8.58108 0.13374 0)
(8.42998 0.0677355 0)
(6.11465 -0.00183639 0)
(6.27161 -0.00278797 0)
(8.71729 0.0589438 0)
(8.89936 0.117366 0)
(9.18936 0.103481 0)
(8.97847 0.0519832 0)
(6.41009 -0.00223575 0)
(6.52872 -0.00261251 0)
(9.21032 0.044536 0)
(9.45496 0.0897467 0)
(9.693 0.0782115 0)
(9.41768 0.0388773 0)
(6.63189 -0.00197717 0)
(6.71956 -0.00248657 0)
(9.59789 0.0329481 0)
(9.90799 0.0671551 0)
(10.0985 0.0575477 0)
(9.75798 0.0284816 0)
(6.79609 -0.00201897 0)
(6.86078 -0.00246166 0)
(9.8946 0.023994 0)
(10.2686 0.0489216 0)
(10.4177 0.0411663 0)
(10.0159 0.0205899 0)
(6.91734 -0.00204865 0)
(6.96483 -0.00241097 0)
(10.1175 0.0172592 0)
(10.5496 0.0347795 0)
(10.6644 0.0287847 0)
(10.2084 0.0147032 0)
(7.00625 -0.0020553 0)
(7.04067 -0.00235942 0)
(10.2829 0.0122118 0)
(10.765 0.0242359 0)
(10.852 0.0196502 0)
(10.3506 0.0102945 0)
(7.07061 -0.00203619 0)
(7.09522 -0.0022887 0)
(10.4048 0.00843561 0)
(10.9278 0.0165177 0)
(10.993 0.0130214 0)
(10.4552 0.00696341 0)
(7.11653 -0.00195655 0)
(7.13369 -0.0020319 0)
(10.4945 0.00539161 0)
(11.049 0.0107723 0)
(11.0971 0.00801837 0)
(10.5311 0.00438289 0)
(7.14835 -0.00176764 0)
(7.15974 -0.00180693 0)
(10.5585 0.00314984 0)
(11.1373 0.00621946 0)
(11.1718 0.00393331 0)
(10.5837 0.00249199 0)
(7.16925 -0.00154988 0)
(7.17657 -0.00153177 0)
(10.6008 0.00154529 3.74796e-19)
(11.1993 0.00245737 -3.1242e-19)
(11.2229 0.000644165 0)
(10.6163 0.00112965 0)
(7.18246 -0.00122498 0)
(7.18696 -0.00126091 5.59196e-20)
(10.6251 0.000484754 4.65143e-19)
(11.2402 -0.000190983 -3.88286e-19)
(11.2549 -0.00101608 7.73924e-20)
(10.6335 0.000490901 -9.28958e-20)
(7.19028 -0.000749634 -5.59206e-20)
(7.19363 0.00049887 4.33645e-19)
(10.6369 0.00199228 0)
(11.2655 -0.00083935 -6.08523e-19)
(11.2695 -0.00208233 -1.4349e-24)
(10.6402 0.00324422 -1.82439e-19)
(7.21573 0.0012806 -2.19968e-19)
(7.23688 0.00125814 -6.1523e-19)
(10.6454 0.00700174 5.16895e-19)
(11.2684 -0.00292421 0)
(11.2629 -0.00726125 0)
(10.656 0.00505873 -7.27448e-19)
(7.28993 0.000477428 6.65726e-19)
(7.31013 -0.000395557 -2.02662e-19)
(10.6622 0.00527106 6.83062e-19)
(11.2582 -0.00538346 -1.14799e-18)
(11.2502 -0.000358667 1.89871e-18)
(10.6628 0.00984121 0)
(7.32834 0.00572152 -4.80318e-19)
(7.41984 0.00923217 8.96768e-19)
(10.6796 0.00315957 0)
(11.2376 -0.00403237 8.02204e-20)
(11.2352 -0.00786607 5.96551e-19)
(10.6878 0.00169025 -8.19102e-19)
(7.43521 -0.00471704 0)
(11.0308 -0.00428126 0)
(10.7865 0.00737368 -1.23271e-19)
(10.6492 0.00930533 0)
(10.546 0.0444388 -1.73263e-18)
(10.5885 0.015696 1.64148e-18)
(10.7206 0.0796101 0)
(10.7613 0.029815 0)
(10.9329 0.110925 5.24383e-20)
(10.9692 0.0505276 -5.25419e-20)
(11.0688 0.138058 0)
(11.0653 0.0687133 0)
(10.9884 0.154193 0)
(10.9309 0.0803666 0)
(10.6611 0.155006 0)
(10.5641 0.0797722 8.735e-19)
(10.1468 0.12596 -2.6652e-18)
(10.031 0.0673078 1.86397e-18)
(9.7235 0.075696 -7.61956e-18)
(9.62688 0.0367594 8.07631e-18)
(9.63965 0.0357477 3.17265e-17)
(9.65382 0.025407 -7.37844e-17)
(9.71351 0.00267416 0)
(9.70325 -0.0298377 0)
(9.67191 -0.0547862 1.18458e-17)
(9.30143 -0.0227854 0)
(8.52515 -0.00416395 0)
(6.00992 -0.00448047 0)
(5.73996 -0.135694 0)
(8.13995 -0.113012 -7.25912e-17)
(9.00188 -0.118497 6.53082e-17)
(8.44362 -0.598075 3.01747e-17)
(6.5434 -0.32926 3.76946e-17)
(2.76262 -0.120745 -1.4683e-17)
(3.35069 -0.0070237 0)
(6.93803 -0.0470233 1.28405e-17)
(8.91336 -0.146533 -2.1327e-17)
(8.83394 -0.0666198 -1.26329e-17)
(6.77249 -0.036443 9.84424e-19)
(3.03885 -0.014218 -2.40064e-18)
(3.08052 -0.00761535 -5.47712e-19)
(6.77885 -0.00791011 9.07452e-19)
(8.87379 -0.0162312 -3.73439e-18)
(8.80954 -0.0195679 7.62754e-19)
(6.6707 -0.012002 1.03714e-18)
(2.94139 -0.00334274 -5.57677e-19)
(2.97394 -0.00210738 1.37205e-19)
(6.68125 -0.000900918 3.55164e-18)
(8.80303 -0.000273023 -6.10539e-18)
(8.75833 -0.0105661 7.67728e-19)
(6.59005 -0.00695056 -1.40388e-25)
(2.88729 -0.000459587 -1.24986e-18)
(2.92203 -0.00289782 1.39172e-19)
(6.61666 0.003282 -1.85755e-18)
(8.77072 0.00535142 -1.53735e-18)
(8.73737 -0.00635343 0)
(6.58379 -0.00496253 0)
(2.84237 -0.00213274 -1.40317e-19)
(2.87186 -5.28603e-05 0)
(6.61495 6.41406e-05 0)
(8.76739 0.0045829 -1.55368e-18)
(8.74584 -0.00428886 1.54701e-18)
(6.5586 -0.00200482 0)
(2.84006 0.00179309 0)
(2.87047 -0.000713283 0)
(6.59783 0.00224986 0)
(8.78076 0.00608415 -1.54699e-18)
(8.75978 -0.00225416 1.54695e-18)
(6.56529 -0.000833486 0)
(2.84159 0.000773715 0)
(2.86938 -0.000754689 0)
(6.60285 0.00221846 0)
(8.79545 0.00635311 -1.54693e-18)
(8.77551 -0.00153445 1.54687e-18)
(6.57151 -0.000549328 0)
(2.84149 0.000874784 0)
(2.87005 -0.000691507 0)
(6.61042 0.00249096 0)
(8.81305 0.00710032 -1.54684e-18)
(8.79405 -0.00135853 1.54676e-18)
(6.57968 -0.000521273 0)
(2.84234 0.000867592 0)
(2.87025 -0.000715647 -1.12134e-18)
(6.6185 0.00244821 -9.34383e-19)
(8.83207 0.00718951 1.54671e-18)
(8.81375 -0.000752385 1.54661e-18)
(6.58824 -0.000333412 0)
(2.84274 0.000950803 0)
(2.87151 -0.000619355 0)
(6.62843 0.00270651 0)
(8.85377 0.00804927 -1.54654e-18)
(8.8367 -0.000485441 1.54641e-18)
(6.59892 -0.00034462 0)
(2.84436 0.000972809 0)
(2.87238 -0.000632149 0)
(6.63904 0.00256932 0)
(8.87751 0.0081954 -1.54632e-18)
(8.86141 0.00022774 1.54616e-18)
(6.61003 -0.000200201 0)
(2.84523 0.00108199 0)
(2.87426 -0.000504117 0)
(6.65176 0.00284095 0)
(8.90453 0.0092054 -1.54606e-18)
(8.88968 0.000527726 1.54587e-18)
(6.62369 -0.000211229 0)
(2.84768 0.00111684 0)
(2.87591 -0.000534286 0)
(6.66539 0.00267386 0)
(8.93344 0.00930203 -1.54575e-18)
(8.91937 0.00126597 1.54553e-18)
(6.63782 -4.83434e-05 0)
(2.84925 0.00122512 0)
(2.87871 -0.000388777 0)
(6.6813 0.00297658 0)
(8.9656 0.0103951 -1.54539e-18)
(8.95286 0.00159086 1.54515e-18)
(6.65468 -7.77737e-05 0)
(2.8528 0.00128019 0)
(2.88132 -0.000421163 0)
(6.698 0.00270458 0)
(8.99982 0.0104378 -1.54499e-18)
(8.98792 0.00238724 1.54472e-18)
(6.67169 4.57414e-05 0)
(2.85502 0.00141505 0)
(2.88494 -0.000236897 0)
(6.71693 0.0030155 0)
(9.03771 0.0116755 -1.54455e-18)
(9.0273 0.00275387 1.54425e-18)
(6.69161 -1.62913e-05 0)
(2.85948 0.00149791 0)
(2.88824 -0.000286968 0)
(6.73656 0.00263564 0)
(9.07788 0.0116257 -1.54407e-18)
(9.06813 0.00355621 1.54376e-18)
(6.71128 7.21114e-05 0)
(2.86195 0.00163646 0)
(2.89223 -9.19384e-05 0)
(6.75822 0.00298515 0)
(9.12152 0.0129069 -1.54358e-18)
(9.11295 0.00385771 1.54324e-18)
(6.73375 -2.0444e-05 0)
(2.86681 0.00172374 0)
(2.89565 -0.000171015 0)
(6.78004 0.00248356 0)
(9.16688 0.0126781 -1.54305e-18)
(9.15871 0.00465152 1.54269e-18)
(6.75511 -2.47429e-05 0)
(2.86884 0.00188049 0)
(2.89932 4.99165e-05 0)
(6.8033 0.00279053 0)
(9.2158 0.0140472 -1.54251e-18)
(9.20903 0.0049869 1.54213e-18)
(6.77891 -0.00025579 0)
(2.87331 0.00202635 0)
(2.90206 -7.46464e-06 0)
(6.82621 0.00205431 0)
(9.2669 0.0137471 -1.54195e-18)
(9.26031 0.00584282 1.54155e-18)
(6.80089 -0.000459542 0)
(2.87402 0.00226561 0)
(2.90444 0.000339131 0)
(6.84996 0.00209834 0)
(9.32127 0.0150999 -1.54137e-18)
(9.31542 0.00614617 1.54094e-18)
(6.82461 -0.000975484 0)
(2.87685 0.00252431 0)
(2.90518 0.000381283 0)
(6.87216 0.000917058 0)
(9.37665 0.0146373 -1.54075e-18)
(9.36992 0.00695172 1.54029e-18)
(6.84475 -0.0016244 0)
(2.87456 0.00293874 0)
(2.90434 0.000901192 0)
(6.89326 0.000353191 0)
(9.43361 0.0157789 -1.5401e-18)
(9.42606 0.00703895 1.53962e-18)
(6.86414 -0.00278247 0)
(2.87285 0.00339883 0)
(2.89976 0.00104673 0)
(6.90966 -0.00165252 0)
(9.48866 0.0148676 -1.53942e-18)
(9.47749 0.00760629 1.53893e-18)
(6.87609 -0.00420126 0)
(2.86331 0.00409573 0)
(2.89114 0.00168717 0)
(6.92074 -0.00320865 0)
(9.54046 0.0153969 -1.53874e-18)
(9.52437 0.00698215 1.53826e-18)
(6.88185 -0.00647111 0)
(2.85128 0.00487394 0)
(2.87457 0.00200409 0)
(6.9201 -0.00653086 0)
(9.58295 0.0129882 -1.53807e-18)
(9.55792 0.00636301 1.53766e-18)
(6.87138 -0.00907619 0)
(2.82566 0.0058747 0)
(2.84867 0.00282526 0)
(6.90509 -0.00915528 0)
(9.61458 0.0113734 -1.53749e-18)
(9.58082 0.00346215 1.53717e-18)
(6.84479 -0.0123119 0)
(2.79162 0.00660152 0)
(2.80781 0.0026909 0)
(6.86761 -0.0133304 0)
(9.6337 0.00573261 -1.53702e-18)
(9.5925 0.000598694 1.53681e-18)
(6.79145 -0.0149942 0)
(2.73638 0.00711746 0)
(2.75221 0.00286761 0)
(6.80878 -0.0157576 0)
(9.65445 0.00254882 -1.5367e-18)
(9.62044 -0.00240426 1.53655e-18)
(6.71987 -0.0178382 0)
(2.66926 0.00723017 0)
(2.67739 0.00229235 0)
(6.73022 -0.0205182 0)
(9.70187 -0.000884082 -1.53643e-18)
(9.6925 0.00174545 1.53605e-18)
(6.63321 -0.0207026 0)
(2.57759 0.00819949 0)
(2.58785 0.00309743 0)
(6.65657 -0.0235776 0)
(9.81736 0.0077857 -1.53569e-18)
(9.85266 0.010808 1.5349e-18)
(6.57503 -0.022344 0)
(2.47697 0.00795752 0)
(2.48194 0.000275812 0)
(6.62601 -0.0240212 0)
(10.01 0.0149674 -1.53423e-18)
(10.0685 0.0225024 1.53341e-18)
(6.58066 -0.0153016 0)
(2.35522 0.00454057 0)
(2.38375 -0.00180419 0)
(6.68404 -0.0124414 0)
(10.2412 0.0276389 -1.53298e-18)
(10.3124 0.0313305 1.53263e-18)
(6.69052 -0.00452964 0)
(2.27719 0.0022292 0)
(2.3273 -0.00242947 0)
(6.8217 -0.00420092 0)
(10.5027 0.0388502 -1.53264e-18)
(10.6368 0.055276 1.53246e-18)
(6.86795 0.00405435 0)
(2.24888 0.00420062 0)
(2.33746 0.000998654 0)
(7.05209 0.00781977 0)
(10.9285 0.0775843 -1.53273e-18)
(11.1877 0.0966058 1.5324e-18)
(7.2052 0.0154607 0)
(2.31572 0.00402171 0)
(2.41045 -0.00215989 0)
(7.48978 0.0196931 0)
(11.6057 0.121548 -1.53264e-18)
(11.995 0.148907 1.53215e-18)
(7.77466 0.0323227 0)
(2.4279 -0.000249405 0)
(2.55243 -0.00501171 0)
(8.21302 0.0432359 0)
(12.5644 0.183077 -1.53239e-18)
(13.0866 0.207439 1.53187e-18)
(8.65435 0.058299 0)
(2.64726 -0.00365155 0)
(2.82437 -0.00761546 0)
(9.25748 0.0785016 0)
(13.7793 0.248435 -1.53213e-18)
(14.404 0.284939 1.53151e-18)
(9.86933 0.111584 0)
(3.04747 0.00253007 0)
(3.46191 0.0116081 0)
(10.6737 0.156087 0)
(15.2032 0.34965 0)
(15.9088 0.416484 7.68718e-19)
(11.4732 0.220552 -9.25578e-19)
(4.03069 0.038978 -1.11219e-18)
(4.77618 0.0760836 0)
(12.4093 0.302559 0)
(16.7179 0.517892 -3.07494e-18)
(17.4159 0.585707 0)
(13.2883 0.367576 0)
(5.68829 0.111344 0)
(6.77582 0.147829 0)
(14.3743 0.443352 0)
(18.1973 0.675228 0)
(18.8384 0.725491 -4.76207e-18)
(15.2472 0.50473 3.66516e-18)
(7.8246 0.202942 0)
(8.84226 0.254331 0)
(16.207 0.579812 0)
(19.509 0.804191 1.89624e-19)
(20.0326 0.837608 -6.00854e-18)
(16.9267 0.630496 7.25055e-18)
(9.75226 0.309004 0)
(10.669 0.352403 1.72516e-17)
(17.745 0.682766 -7.21162e-18)
(20.5898 0.891636 -5.96235e-18)
(21.0437 0.921533 5.93525e-18)
(18.4021 0.729395 0)
(11.4862 0.404046 -8.58881e-18)
(12.2809 0.464644 0)
(19.0573 0.796663 0)
(21.5081 0.982485 1.17343e-17)
(21.8837 1.00486 -1.80857e-19)
(19.6011 0.826949 1.40023e-17)
(13.0442 0.505822 -1.69598e-17)
(13.8257 0.577821 -1.67564e-17)
(20.1742 0.903674 0)
(22.2761 1.07639 1.8023e-19)
(22.5859 1.13335 0)
(20.6477 0.978531 -1.36027e-17)
(14.4901 0.650945 1.64638e-17)
(15.1163 0.709509 -1.2714e-19)
(21.1096 1.04265 1.34337e-17)
(22.884 1.1945 -1.12682e-17)
(23.132 1.22483 1.10786e-17)
(21.467 1.08444 1.34514e-17)
(15.7165 0.764397 -1.59815e-17)
(16.3619 0.813029 -1.59257e-17)
(21.8857 1.12875 -1.0269e-19)
(23.3936 1.2734 0)
(23.6065 1.3217 2.16865e-17)
(22.2055 1.19842 -2.59778e-17)
(16.9572 0.896051 1.57587e-17)
(17.5377 0.964504 -1.55314e-17)
(22.5296 1.26213 -2.00338e-19)
(23.7977 1.38254 -1.06783e-17)
(23.949 1.42903 0)
(22.783 1.32156 1.28991e-17)
(18.0756 1.03785 -1.53226e-17)
(18.5763 1.12001 0)
(23.0199 1.39902 -1.96595e-19)
(24.07 1.4932 -1.03657e-17)
(24.1648 1.50969 1.0331e-17)
(23.2222 1.41596 -1.31083e-17)
(19.0525 1.15976 -1.50619e-17)
(19.5227 1.25535 -1.53676e-17)
(23.3768 1.49458 2.55489e-17)
(24.2323 1.56887 -2.1094e-17)
(24.2525 1.60483 6.4377e-19)
(23.4831 1.54577 -1.08963e-17)
(19.9238 1.32794 1.64972e-17)
(20.3133 1.39296 1.56838e-17)
(23.5623 1.58636 -1.51979e-18)
(24.2568 1.63985 0)
(24.2282 1.67519 -9.66946e-18)
(23.6053 1.62981 2.99694e-18)
(20.6912 1.45937 -1.85431e-18)
(20.9461 1.52885 0)
(23.6115 1.72002 -2.55845e-18)
(24.1477 1.7508 0)
(23.9859 1.69604 0)
(23.5116 1.67626 2.06688e-18)
(21.095 1.48085 2.38165e-18)
(19.105 1.37559 -6.01394e-18)
(22.732 1.57515 -2.73784e-18)
(23.7109 1.61102 -2.01725e-17)
(23.9012 1.8419 0)
(23.228 1.82921 0)
(20.0832 1.58461 2.44779e-18)
(20.4316 1.6652 -1.72086e-17)
(23.2416 1.87743 1.51189e-17)
(23.7571 1.87983 -1.02347e-17)
(23.536 1.91207 9.73759e-18)
(23.171 1.9425 -2.82477e-17)
(20.8131 1.77464 3.2958e-17)
(21.0836 1.85903 -6.20746e-17)
(22.9999 1.96262 5.17152e-17)
(23.2543 1.90537 -4.44744e-17)
(22.9642 1.87079 -1.17291e-18)
(22.7866 1.98586 5.45503e-19)
(21.341 1.96754 -3.09402e-17)
(21.7523 2.06023 -3.84354e-17)
(22.5223 1.91998 1.39828e-17)
(22.5894 1.77842 1.70737e-17)
(22.1626 1.84941 -4.69346e-18)
(22.2598 2.05455 0)
(21.5309 2.24609 -1.87336e-18)
(21.0209 2.32651 6.66186e-18)
(21.7392 1.98626 -3.18842e-18)
(21.5831 1.7753 1.48892e-18)
(20.9338 1.667 -5.56695e-18)
(21.159 1.90804 1.47995e-17)
(20.5739 2.37543 -1.84266e-17)
(20.05 2.43403 2.33978e-17)
(20.5186 1.8433 1.09165e-17)
(20.2084 1.55608 0)
(19.5256 1.4044 -7.89565e-18)
(19.8135 1.76628 -1.44889e-17)
(19.4128 2.45437 -2.61068e-17)
(18.6513 2.39228 0)
(19.2201 1.67257 8.93956e-18)
(19.0171 1.52239 -1.62603e-21)
(18.364 1.36884 7.20519e-18)
(18.4884 1.5828 -9.41865e-18)
(17.8546 2.40364 -1.37424e-17)
(16.9856 2.45816 1.27791e-17)
(17.5581 1.44268 2.56843e-18)
(17.492 1.21836 1.12984e-17)
(16.4573 1.03176 1.54134e-18)
(16.466 1.26767 -1.36243e-17)
(15.9737 2.5472 1.24275e-17)
(14.8375 2.51062 3.6922e-17)
(15.1742 0.927016 1.32548e-17)
(15.2234 0.594766 -2.80792e-17)
(13.7574 0.325678 1.67565e-18)
(13.6848 0.699006 0)
(13.5718 2.45805 -1.23752e-17)
(12.3262 2.33099 1.0169e-20)
(12.0853 0.288812 2.01891e-17)
(12.1959 -0.239646 -3.78901e-17)
(10.3101 -0.760515 2.04248e-17)
(10.3947 -0.00826639 6.57292e-18)
(11.0644 2.222 -4.84996e-17)
(9.83458 2.02571 6.60581e-17)
(8.82305 -0.504393 -1.76746e-17)
(8.69326 -1.41099 0)
(7.52958 -1.68997 -2.62329e-17)
(7.4828 -0.988277 1.17266e-17)
(8.53888 1.70175 -7.73916e-17)
(7.13896 1.18691 0)
(5.91363 -1.65789 -1.25784e-17)
(6.04999 -2.55796 7.22021e-17)
(4.45724 -3.23881 0)
(4.24125 -2.00924 2.69326e-17)
(5.62667 0.716831 -1.82099e-17)
(4.19864 0.217654 3.93842e-17)
(2.66596 -2.79411 3.4594e-17)
(2.91117 -4.26152 3.43417e-17)
(1.40044 -4.90477 -1.47851e-17)
(0.957073 -3.74792 2.33541e-17)
(2.55254 -0.78081 -9.32975e-17)
(0.460157 -1.66173 1.22385e-17)
(-1.13413 -4.24376 -5.93704e-21)
(-0.454187 -5.51511 -2.19256e-17)
(-2.27765 -6.68904 -6.35587e-21)
(-3.1912 -5.24753 1.03939e-17)
(-1.72649 -2.79899 1.2144e-17)
(-4.15164 -4.13333 0)
(-5.46024 -6.53986 -1.02471e-17)
(-4.41705 -8.30645 -3.95946e-17)
(-6.67595 -9.70521 6.76502e-17)
(-7.70719 -7.916 -1.25774e-17)
(-6.70431 -5.66974 1.25684e-17)
(-9.36125 -7.71863 0)
(-9.91302 -9.94068 -1.45455e-17)
(-8.45759 -11.7503 8.97122e-18)
(-10.2364 -14.4629 5.80177e-18)
(-12.2274 -12.7634 0)
(-12.4589 -10.5336 1.28154e-17)
(-15.9342 -14.3287 -1.21283e-17)
(-14.5804 -16.6792 2.24553e-17)
(-11.8728 -18.7057 1.65839e-17)
(-14.5073 -21.9137 -2.78761e-17)
(-17.1568 -20.632 0)
(-19.8509 -18.958 3.68648e-17)
(-23.4925 -24.6793 -7.4521e-17)
(-18.8473 -26.0377 -1.51611e-17)
(-15.4177 -27.0443 1.72732e-17)
(-14.6611 -34.9716 4.41916e-17)
(-19.0055 -34.0867 -8.68323e-17)
(-27.0657 -32.9208 3.37986e-17)
(-29.4225 -43.0237 0)
(-18.6373 -42.9949 2.83645e-17)
(-15.1203 -42.2965 0)
(-11.6189 -51.1983 -1.5152e-19)
(-15.7638 -52.8103 -5.82241e-17)
(-30.7335 -55.4341 0)
(-27.8404 -69.4804 4.19648e-17)
(-8.04029 -63.7007 0)
(-5.10971 -61.1252 0)
(1.78193 -68.5132 6.4792e-18)
(0.862858 -72.5744 -8.20658e-18)
(-23.2448 -84.6974 -5.77818e-17)
(-12.6475 -94.8747 3.33958e-17)
(10.8128 -81.1233 -2.3293e-17)
(11.0718 -75.1459 -2.54883e-17)
(23.3021 -79.936 -1.72312e-17)
(20.7521 -84.4456 -1.91514e-17)
(1.26056 -96.9221 -2.92807e-17)
(14.068 -86.321 3.29948e-17)
(30.4605 -76.185 6.79905e-17)
(30.5326 -78.391 -2.31192e-17)
(37.9908 -71.2135 1.19117e-16)
(34.8291 -62.7323 -1.06722e-16)
(17.795 -64.1631 5.39016e-17)
(13.7271 -40.7657 0)
(32.7924 -49.0643 0)
(38.7888 -62.8223 -9.43854e-17)
(34.3058 -51.5813 3.36935e-17)
(25.2661 -36.887 0)
(5.6988 -22.0904 1.89304e-17)
(0.165459 -9.50305 -3.68874e-17)
(18.4131 -26.3057 0)
(30.5344 -43.1728 2.88037e-17)
(27.1617 -35.9246 -2.80302e-17)
(13.1456 -19.1468 1.29358e-17)
(-3.74329 -2.88547 -3.58047e-17)
(-9.66008 1.13226 0)
(4.36706 -11.7161 3.07296e-21)
(19.0196 -26.7371 1.70491e-17)
(14.4364 -21.1639 -2.75598e-17)
(0.544444 -3.39185 4.06319e-17)
(-11.8047 2.84968 -3.39788e-17)
(-15.6431 2.28334 0)
(-6.11317 -0.946265 1.11359e-17)
(11.008 -16.8306 -3.28989e-17)
(3.23385 -9.25287 0)
(-10.7518 2.18847 -1.23492e-17)
(-18.9428 3.23273 -9.87968e-17)
(-21.3027 4.35966 1.17634e-16)
(-13.9775 3.1804 -2.84389e-17)
(-7.26117 -2.85429 0)
(-6.60186 -3.09127 0)
(-14.8911 3.55491 0)
(-23.2577 5.3864 -2.46405e-20)
(-25.2096 6.13967 -5.78713e-17)
(-16.9661 2.77045 0)
(-7.07163 -2.96711 -3.01555e-17)
(-10.4717 1.42579 0)
(-18.3642 4.40191 0)
(-26.5432 7.39573 -5.90208e-17)
(-27.6785 8.16295 5.90901e-17)
(-20.0163 4.39228 -2.39956e-17)
(-13.952 1.16416 3.097e-17)
(-14.1178 1.32684 -1.12251e-20)
(-20.877 4.50183 4.2087e-17)
(-28.4975 8.91909 -2.61909e-17)
(-29.08 9.34556 4.49148e-17)
(-21.1575 4.00514 2.32338e-21)
(-13.3984 1.73662 -7.16341e-17)
(-10.8515 1.1087 9.97001e-17)
(-20.36 4.03562 -2.38875e-17)
(-29.4748 9.88541 0)
(-29.9411 10.1933 0)
(-19.8687 3.26855 1.6941e-17)
(-6.30239 0.488407 -2.45568e-17)
(-7.04343 2.30002 0)
(-20.1746 4.08873 -2.61192e-17)
(-30.3801 10.6587 0)
(-30.7298 10.9739 -1.62955e-17)
(-21.3855 4.15285 6.75606e-17)
(-10.7415 2.78834 -1.19043e-17)
(-8.60101 2.21312 -7.86228e-17)
(-20.7791 5.02391 3.25515e-17)
(-30.7696 11.3188 0)
(-30.5708 11.3087 0)
(-21.0801 3.98321 2.53751e-17)
(-3.06722 2.38276 1.27056e-20)
(-5.87213 5.6135 -1.36656e-17)
(-20.2986 6.12173 2.15288e-17)
(-29.7479 11.5893 -2.91805e-17)
(-29.3259 11.1721 6.24062e-17)
(-21.1115 5.73415 -4.35956e-17)
(-9.39498 5.2415 -1.09679e-17)