/*--------------------------------*- C++ -*----------------------------------*\
| =========                 |                                                 |
| \\      /  F ield         | OpenFOAM: The Open Source CFD Toolbox           |
|  \\    /   O peration     | Version:  v2006                                 |
|   \\  /    A nd           | Website:  www.openfoam.com                      |
|    \\/     M anipulation  |                                                 |
\*---------------------------------------------------------------------------*/
FoamFile
{
    version     2.0;
    format      ascii;
    class       volScalarField;
    location    "0.018";
    object      Co;
}
// * * * * * * * * * * * * * * * * * * * * * * * * * * * * * * * * * * * * * //

dimensions      [0 0 0 0 0 0 0];


internalField   nonuniform List<scalar> 
10108
(
0.00749638
0.00717761
0.00778364
0.00804646
0.00814612
0.00795168
0.00795881
0.00787676
0.00779282
0.00775928
0.00769844
0.00767526
0.00765156
0.00763508
0.00761631
0.00759691
0.00757604
0.00755408
0.00753104
0.00750692
0.00748177
0.00745562
0.0074285
0.00740045
0.0073715
0.0073417
0.00731108
0.00727971
0.00724764
0.00721497
0.00718172
0.00714793
0.0071137
0.0070791
0.00704419
0.00700905
0.00697376
0.0069384
0.00690304
0.00686777
0.00683266
0.00679782
0.00676332
0.00672924
0.00669566
0.00666268
0.00663036
0.00659878
0.00656803
0.00653819
0.00650933
0.00648139
0.00645314
0.00642783
0.00640519
0.00638726
0.00637638
0.00640331
0.00646249
0.00666142
0.00702834
0.00789769
0.00984586
0.0142318
0.0214466
0.0168022
0.0144605
0.0143224
0.0140011
0.0134278
0.0133068
0.0128469
0.0115583
0.0125257
0.01311
0.0121618
0.0122227
0.0117102
0.00968581
0.0103728
0.0105611
0.0105733
0.0106273
0.0100336
0.00913269
0.00996703
0.0101993
0.0103854
0.0102184
0.00937507
0.00914493
0.0100735
0.0102917
0.0104041
0.0101707
0.00920634
0.0091186
0.0101402
0.010389
0.0104156
0.0101628
0.00908389
0.00900589
0.0100813
0.0103629
0.0103748
0.0100862
0.00893815
0.00886782
0.0100026
0.0103144
0.0103207
0.0100025
0.00880063
0.00873535
0.00991856
0.0102577
0.0102622
0.00991789
0.00867251
0.00861107
0.00983417
0.0101977
0.0102002
0.00983278
0.00855115
0.00849214
0.00974859
0.0101344
0.0101347
0.00974632
0.00843459
0.00837738
0.0096617
0.0100675
0.0100661
0.00965852
0.0083215
0.00826567
0.00957361
0.00999775
0.00999453
0.00956941
0.00821089
0.00815585
0.00948402
0.00992505
0.00992003
0.00947858
0.00810166
0.00804693
0.00939252
0.00984929
0.00984235
0.00938563
0.00799285
0.00793803
0.0092987
0.00977025
0.00976126
0.00929012
0.00788366
0.00782832
0.00920211
0.00968767
0.00967643
0.00919159
0.00777329
0.00771707
0.00910227
0.00960118
0.0095875
0.00908953
0.007661
0.00760357
0.00899865
0.00951038
0.009494
0.0089834
0.00754614
0.00748719
0.00889073
0.00941483
0.00939553
0.00887271
0.00742813
0.00736739
0.00877802
0.00931412
0.00929166
0.00875696
0.00730642
0.00724361
0.00866003
0.00920781
0.00918191
0.00863563
0.00718043
0.00711525
0.00853619
0.0090954
0.00906579
0.00850811
0.00704955
0.00698167
0.0084059
0.00897635
0.0089427
0.00837377
0.00691307
0.00684209
0.00826844
0.00885005
0.00881198
0.00823184
0.00677017
0.00669564
0.008123
0.0087158
0.00867287
0.00808142
0.0066199
0.00654127
0.00796862
0.00857274
0.00852444
0.00792147
0.00646113
0.00637779
0.00780417
0.00841988
0.0083656
0.00775079
0.00629261
0.00620389
0.00762837
0.00825607
0.00819514
0.00756803
0.00611299
0.00601819
0.00743988
0.0080801
0.00801187
0.00737181
0.00592082
0.00581911
0.00723725
0.00789075
0.00781447
0.00716054
0.00571435
0.00560469
0.00701868
0.00768658
0.00760121
0.00693212
0.00549132
0.00537239
0.00678178
0.00746554
0.00737029
0.00668416
0.00524902
0.00511903
0.00652399
0.00722591
0.0071192
0.00641326
0.00498341
0.00483979
0.0062412
0.00696462
0.0068446
0.00611475
0.00468885
0.0045279
0.00592797
0.00667798
0.00654237
0.00578216
0.00435706
0.00417301
0.00557644
0.00636127
0.00620704
0.00540584
0.00397499
0.0037583
0.00517454
0.00600815
0.00583141
0.00497065
0.00352076
0.00325472
0.00470287
0.00561078
0.00540759
0.00445196
0.00295545
0.00260793
0.00413226
0.0051654
0.00493478
0.00380279
0.00219823
0.00170581
0.00347997
0.00474527
0.00453556
0.00310934
0.0010059
0.000705379
0.00212387
0.00389849
0.0029557
0.00106999
0.000975541
0.00118219
0.000840112
0.00187242
0.000909886
0.00106614
0.00134011
0.00136696
0.00106796
0.000489224
0.000497082
0.00110185
0.00136572
0.00129415
0.00117503
0.000676152
0.000664889
0.00105314
0.00111679
0.00100076
0.00101119
0.000746789
0.00100681
0.00107747
0.000985821
0.00102626
0.00110648
0.00101658
0.00134835
0.00135486
0.00118049
0.001241
0.00134051
0.00126863
0.00155625
0.00156024
0.00139316
0.00140985
0.00146434
0.00136719
0.00153937
0.00159014
0.00149408
0.0014927
0.00155393
0.0014863
0.00142814
0.00151533
0.00147954
0.00147812
0.00153609
0.00148263
0.00134537
0.00143129
0.0014184
0.00141023
0.00145189
0.00140238
0.00129863
0.00136277
0.00134615
0.00130587
0.00133848
0.00130043
0.00122072
0.00125422
0.00122427
0.00113896
0.00118608
0.0011792
0.00108093
0.00107078
0.00101237
0.000866116
0.000951407
0.000995068
0.000837125
0.000771596
0.000669965
0.000449485
0.00058638
0.000689731
0.000710527
0.000522474
0.000285793
0.000409075
0.000751068
0.0010188
0.0013026
0.0010395
0.000699206
0.00100306
0.00136602
0.00163141
0.00190832
0.00165007
0.00129333
0.00158581
0.00196055
0.00221359
0.00246956
0.0022258
0.00186144
0.00213143
0.00251087
0.00274274
0.00296106
0.0027419
0.00237858
0.00261329
0.00299073
0.00319695
0.00338276
0.00318857
0.00282613
0.0030238
0.00340273
0.00358318
0.00373444
0.00356374
0.00319914
0.00335753
0.00374204
0.00389594
0.00401552
0.00386716
0.00349452
0.00361427
0.00401125
0.00414389
0.00423244
0.00410372
0.00371474
0.00380084
0.00421742
0.00433631
0.00439649
0.00428045
0.00386399
0.00391187
0.00435824
0.00446674
0.00448395
0.00437127
0.00391903
0.00393934
0.00442003
0.00452092
0.004465
0.00433294
0.00382428
0.00390386
0.00441228
0.00450879
0.00439836
0.0042201
0.0036459
0.00398538
0.00452965
0.00457479
0.00442739
0.00426148
0.00364498
0.00430524
0.00491107
0.00492142
0.00522466
0.00492287
0.00408597
0.0044838
0.00528791
0.00545109
0.00560419
0.00550308
0.00523664
0.00508733
0.00489702
0.00434944
0.00412965
0.00342966
0.00319333
0.00247797
0.00223519
0.00141277
0.00100047
0.000270313
0.00116791
0.00176563
0.00169078
0.0016601
0.00173985
0.00208931
0.00304257
0.00441009
0.00343849
0.00317036
0.00345104
0.00357538
0.00210536
0.00260662
0.00633791
0.0092654
0.00569927
0.00403903
0.00159876
0.00107295
0.00262352
0.00313553
0.00286972
0.00252368
0.000941169
0.000732333
0.0023408
0.00294649
0.00283761
0.00215394
0.00056249
0.00043424
0.00201616
0.00280233
0.00265216
0.00183824
0.000313652
0.000224519
0.0017085
0.00262365
0.00248826
0.0015521
0.000131654
7.58494e-05
0.00145503
0.00245757
0.0023002
0.00129392
8.85436e-05
0.000153951
0.00117892
0.00225002
0.00209632
0.00103308
0.000214906
0.000277291
0.000926031
0.00204036
0.00188746
0.000787556
0.000340528
0.000396687
0.000667122
0.0017999
0.00164563
0.000535578
0.000453478
0.000509959
0.000424493
0.0015601
0.00141119
0.000298843
0.000573007
0.000625366
0.000168858
0.00128832
0.0011411
0.000171378
0.000683054
0.000737223
0.000299702
0.00102456
0.000880756
0.000446084
0.000803884
0.000853432
0.000558452
0.00072086
0.00057455
0.0006979
0.00091451
0.000966617
0.000824848
0.000429934
0.000334285
0.000985183
0.00103633
0.00108236
0.00109104
0.000349118
0.000530762
0.00124186
0.00114383
0.00119193
0.00136308
0.000692964
0.000903695
0.00153568
0.00126384
0.00130304
0.0016268
0.00101086
0.00121231
0.00178783
0.00136463
0.00140688
0.00189341
0.00135243
0.00158002
0.00207592
0.00148202
0.00150685
0.00212883
0.00163506
0.00184636
0.00228996
0.00156477
0.00159612
0.00236152
0.00194019
0.00217181
0.0025409
0.00167112
0.00168023
0.00254734
0.00216413
0.00236533
0.00269209
0.00172822
0.00174742
0.00273446
0.00242296
0.00265643
0.00290576
0.00181597
0.00181465
0.002886
0.00261661
0.00280085
0.00302089
0.00186106
0.00189175
0.00304824
0.00284273
0.00302864
0.00318566
0.00197636
0.00199712
0.00314275
0.00294298
0.00304818
0.00320714
0.00205702
0.00209568
0.00318765
0.00299312
0.00304766
0.00319062
0.00212019
0.00215345
0.00313686
0.00293895
0.00299228
0.00312722
0.0021591
0.00217851
0.00309122
0.00294211
0.00303611
0.00314384
0.00224095
0.00224296
0.00304851
0.00293314
0.00304638
0.00314586
0.0023517
0.002354
0.00309245
0.00302191
0.0030415
0.00313235
0.00245794
0.00242216
0.00283247
0.00258968
0.00791301
0.00595701
0.00337095
0.00238466
0.00421787
0.00569747
0.00357873
0.00338247
0.00244012
0.002382
0.00302391
0.00300745
0.00269655
0.00283974
0.00239681
0.00232106
0.00258909
0.00241811
0.00227512
0.00237013
0.00226213
0.00204886
0.00202979
0.00198338
0.00485617
0.00399091
0.00271799
0.00127684
0.00155627
0.0017548
0.00188914
0.00139615
0.000890537
0.00125927
0.00217342
0.00282935
0.00417961
0.00328616
0.00218805
0.00308436
0.00420119
0.00563986
0.0150392
0.0124546
0.00878935
0.0105462
0.0139465
0.0157362
0.0184776
0.0174345
0.0145801
0.0188804
0.0228482
0.0255455
0.0531723
0.0459714
0.0337987
0.0334725
0.0283341
0.0253464
0.0403703
0.0415626
0.0435778
0.0478799
0.0498808
0.0530365
0.0489689
0.0486748
0.0440457
0.047225
0.0703993
0.0855897
0.0711683
0.0564673
0.0375073
0.0320275
0.0430993
0.0479795
0.0684871
0.0503406
0.0307406
0.0295922
0.0497131
0.0686459
0.0362992
0.0319682
0.0237909
0.0243712
0.039932
0.0553453
0.061095
0.0438192
0.0256518
0.0207915
0.0274908
0.0310922
0.0487342
0.0352603
0.0219979
0.024075
0.0407454
0.0567024
0.0282237
0.0252045
0.0194794
0.0210306
0.0330914
0.0453634
0.0532184
0.0386809
0.0232436
0.0188867
0.0240195
0.0266595
0.043095
0.0317133
0.0205183
0.0229669
0.0376798
0.0516306
0.0255677
0.0232667
0.0185848
0.020362
0.0310799
0.0419207
0.0500802
0.0365803
0.0225953
0.0183689
0.0228449
0.0249742
0.0410219
0.0304902
0.0201233
0.0225724
0.0363702
0.0493281
0.0244781
0.0225691
0.0183615
0.0202367
0.0304781
0.0408491
0.0487915
0.0362755
0.0225956
0.018487
0.0226164
0.0244276
0.0409297
0.0306
0.0203763
0.0227334
0.0362923
0.0487285
0.0244588
0.0227594
0.0186902
0.0207583
0.0311212
0.0415587
0.0492923
0.0368255
0.0231908
0.0190101
0.0233135
0.0249911
0.0427611
0.0329577
0.0229554
0.0237546
0.0367796
0.0488901
0.0362535
0.0297831
0.0213432
0.0237071
0.0358786
0.045815
0.026525
0.0247128
0.020434
0.022543
0.0332257
0.0439127
0.0507487
0.0383705
0.0246378
0.0203532
0.0245436
0.0261368
0.0452961
0.0351509
0.0246941
0.0252816
0.0386314
0.0511439
0.0381221
0.031468
0.0227863
0.025561
0.0380093
0.0478959
0.0279834
0.0262989
0.0219892
0.0245
0.0362458
0.0480122
0.052475
0.0396801
0.0259559
0.0240338
0.0331163
0.0403646
0.049818
0.0395732
0.0269399
0.0233013
0.027724
0.0294202
0.0501552
0.0379931
0.0258592
0.027688
0.0419318
0.0548832
0.0420692
0.0347554
0.0255572
0.0286752
0.041715
0.0521733
0.030858
0.0290746
0.0245299
0.0276923
0.0403544
0.0529123
0.0574893
0.0443737
0.0295719
0.0274781
0.0372234
0.0448557
0.0543656
0.0437424
0.0301497
0.0261032
0.0307231
0.0323987
0.0557281
0.042493
0.0292144
0.0311604
0.0466304
0.0603529
0.0467863
0.0389343
0.0289079
0.0317268
0.0455953
0.056835
0.0337303
0.0320878
0.0273715
0.0307492
0.0446809
0.0587
0.0626745
0.0482952
0.0326096
0.0307872
0.0421027
0.0511082
0.0584302
0.047017
0.0329859
0.0311845
0.041967
0.0503026
0.0592033
0.0478245
0.0336253
0.0294895
0.03495
0.0370204
0.0627808
0.0491999
0.0351428
0.035909
0.0518716
0.0662813
0.0546358
0.0453361
0.033306
0.0351272
0.0498541
0.0616674
0.053498
0.044627
0.0332585
0.0363186
0.051314
0.0630246
0.0391248
0.0372218
0.0317774
0.0372767
0.0524767
0.0672267
0.0706687
0.0549869
0.038079
0.0355833
0.0483552
0.0583765
0.065318
0.0530382
0.0377936
0.0361939
0.0492263
0.0595305
0.0659753
0.0535945
0.0384003
0.0365898
0.0490176
0.0588222
0.0672698
0.0551899
0.0396573
0.0343601
0.040333
0.0424385
0.0721775
0.0568487
0.0410613
0.0419652
0.0589912
0.0749047
0.0628563
0.0524456
0.0388422
0.0406761
0.0569278
0.0697616
0.0636081
0.0527751
0.038999
0.0411046
0.0572018
0.0703294
0.0624237
0.0521392
0.039137
0.0426153
0.0592369
0.0722892
0.0455284
0.0432796
0.037179
0.0423717
0.0605027
0.0785644
0.081037
0.0634415
0.0437403
0.041481
0.056096
0.0676862
0.0744946
0.061003
0.0437582
0.0422975
0.0571139
0.0688261
0.0749859
0.0616235
0.0447158
0.0429655
0.0579468
0.0699485
0.076219
0.0626283
0.0457091
0.0432966
0.0573846
0.0685468
0.0780782
0.0642344
0.0467482
0.0408182
0.0476047
0.0502139
0.085174
0.0663207
0.0471583
0.0484006
0.0689056
0.0874418
0.0736609
0.0614079
0.0456894
0.0476388
0.0657709
0.0803802
0.0747434
0.0621605
0.0462014
0.0483387
0.0661221
0.0803928
0.075477
0.0626138
0.0465338
0.049493
0.0677619
0.0823523
0.0739066
0.0618976
0.0467435
0.0506219
0.0695881
0.0845007
0.053778
0.0512875
0.0442799
0.0498543
0.0712164
0.0924964
0.094476
0.0742389
0.0510944
0.0492649
0.0660341
0.079627
0.0872816
0.0711459
0.0515845
0.0501121
0.0672972
0.0808912
0.0869849
0.0716935
0.0524704
0.0504341
0.0678433
0.0818554
0.0886495
0.0729955
0.0533623
0.0508122
0.0671519
0.0800888
0.0906939
0.0748068
0.0545534
0.0479898
0.0556762
0.058454
0.099378
0.0774673
0.0552295
0.0566357
0.0799866
0.101338
0.0857736
0.0715904
0.0535903
0.0559956
0.0767782
0.0934962
0.0867743
0.0724586
0.0540253
0.0566355
0.0770911
0.0930721
0.087697
0.073087
0.054664
0.0577795
0.0784114
0.0950747
0.0855322
0.0718794
0.0545027
0.0588992
0.0807465
0.0974486
0.0618374
0.0592302
0.0514111
0.0575585
0.0824245
0.107414
0.109855
0.0864031
0.0596974
0.057496
0.0767906
0.0922493
0.100629
0.0826295
0.0600229
0.0579332
0.0775925
0.0931943
0.100636
0.0829845
0.0609471
0.0585773
0.0784631
0.0944833
0.10257
0.0845728
0.0621981
0.0588764
0.0775058
0.0922999
0.104805
0.0866161
0.0635455
0.0557963
0.0643354
0.0672357
0.115442
0.0886283
0.0621962
0.0641034
0.0924918
0.118212
0.0989632
0.0822464
0.061467
0.0643903
0.0888039
0.107993
0.100098
0.0835851
0.0625471
0.0659995
0.0897024
0.107705
0.101135
0.0842739
0.0632874
0.0671513
0.0910525
0.110311
0.098254
0.0827771
0.0631411
0.068235
0.0930312
0.1126
0.0713866
0.0683222
0.0594615
0.0675688
0.0952461
0.123076
0.1262
0.0990623
0.0693912
0.0663838
0.0883166
0.106106
0.116289
0.095647
0.0697565
0.0671471
0.0893313
0.106897
0.116707
0.0958679
0.0704059
0.0671682
0.0882642
0.104825
0.119151
0.0984427
0.0720788
0.0630524
0.0724151
0.0754788
0.130416
0.101135
0.0718417
0.0750326
0.10665
0.134662
0.111942
0.0940605
0.0709722
0.0743448
0.101626
0.123415
0.112075
0.0941497
0.071086
0.0753915
0.102382
0.123942
0.109427
0.0925753
0.0708173
0.0766869
0.104967
0.127416
0.0798947
0.0768343
0.0672106
0.0764894
0.107328
0.137971
0.143148
0.113396
0.0795511
0.0742877
0.0983888
0.117276
0.132429
0.108961
0.079192
0.074244
0.0969073
0.114313
0.133786
0.110599
0.080708
0.0706194
0.0808378
0.0841393
0.145297
0.112726
0.0802837
0.0829708
0.118292
0.150521
0.123417
0.103353
0.0782426
0.082794
0.113761
0.139119
0.119423
0.101595
0.0782469
0.0843325
0.116302
0.140619
0.0867588
0.0836963
0.0735574
0.0838216
0.117188
0.150885
0.15843
0.124461
0.0873638
0.0812674
0.105601
0.124689
0.148116
0.121298
0.0872715
0.0759388
0.085418
0.0878123
0.155707
0.119634
0.0844688
0.09016
0.130492
0.165978
0.12874
0.109174
0.0841897
0.0917056
0.127371
0.15558
0.0910065
0.0886843
0.0788945
0.0888467
0.124896
0.161285
0.173129
0.135419
0.0940647
0.0871883
0.113264
0.133794
0.16213
0.13231
0.0951139
0.0827536
0.0924928
0.0946495
0.169194
0.131878
0.0940483
0.0985026
0.142672
0.182783
0.137106
0.116868
0.090568
0.0990215
0.138301
0.169872
0.0981072
0.0957812
0.0853328
0.0976778
0.136302
0.175385
0.190239
0.148817
0.103454
0.0947935
0.121977
0.142998
0.176739
0.144428
0.103401
0.0876244
0.0974901
0.0994305
0.171284
0.134863
0.0987076
0.10903
0.156963
0.199461
0.100207
0.0993808
0.0907765
0.100529
0.13811
0.175712
0.2061
0.160367
0.109943
0.090047
0.09851
0.0992593
0.180102
0.141206
0.103027
0.115217
0.167173
0.213953
0.103648
0.103321
0.0948642
0.105492
0.144856
0.184151
0.221393
0.172323
0.117307
0.0961525
0.103973
0.103911
0.191158
0.151122
0.111285
0.122064
0.178033
0.229638
0.106264
0.105397
0.0972324
0.109556
0.147516
0.186408
0.237395
0.185967
0.127587
0.0972083
0.0972891
0.0915776
0.126842
0.118059
0.101893
0.108201
0.146906
0.189292
0.248472
0.191655
0.129798
0.0976744
0.0957658
0.0887828
0.110609
0.107271
0.0976469
0.101969
0.116109
0.125862
0.19371
0.15412
0.113473
0.124908
0.189019
0.250172
0.0857939
0.09002
0.0901083
0.0914598
0.0992363
0.100804
0.0945778
0.0912126
0.0829838
0.0803851
0.0903502
0.0931706
0.0842234
0.0815119
0.0716792
0.0664792
0.0779894
0.0811329
0.0761441
0.0727887
0.0607902
0.0569777
0.0705429
0.0752632
0.0711588
0.066693
0.0533678
0.050792
0.0651249
0.0705987
0.0670083
0.0619623
0.0480821
0.0462844
0.0609381
0.0669955
0.0639685
0.0582579
0.0441711
0.0429242
0.0577124
0.0643171
0.061559
0.0553515
0.0411944
0.0402327
0.0549406
0.0619811
0.0593914
0.0527886
0.0387614
0.0380118
0.0525588
0.0598992
0.0574206
0.0505777
0.0367484
0.0361858
0.0504364
0.0579535
0.0556201
0.048634
0.0351131
0.0347086
0.0486596
0.0562437
0.0540137
0.047003
0.0337914
0.0335234
0.0470985
0.0546684
0.0525594
0.0455812
0.0327417
0.032583
0.0458104
0.0532994
0.0512737
0.0443983
0.0319072
0.0318399
0.0446576
0.0520307
0.0501
0.0433827
0.0313068
0.0312795
0.0436996
0.0509253
0.0491884
0.0426335
0.0308967
0.0308724
0.042846
0.0499051
0.0484825
0.0420329
0.030606
0.0305842
0.0421661
0.0490461
0.047834
0.0414809
0.0304039
0.0303842
0.0415561
0.0482719
0.0473053
0.041057
0.0302709
0.030253
0.0410851
0.0476329
0.0468162
0.0406617
0.030188
0.0301719
0.0406591
0.0470597
0.0464324
0.040376
0.0301446
0.0301297
0.0403475
0.0466009
0.0460806
0.0401073
0.0301312
0.0301172
0.0400629
0.0461922
0.0458173
0.0399312
0.0301397
0.0301265
0.0398716
0.045876
0.0455724
0.0397593
0.030166
0.0301536
0.039692
0.0455932
0.0454029
0.0396673
0.0302053
0.0301936
0.0395899
0.0453852
0.0452384
0.0395682
0.0302562
0.0302451
0.0394877
0.0451971
0.0451384
0.0395381
0.0303148
0.0303042
0.0394498
0.0450678
0.0450326
0.0394913
0.0303811
0.0303711
0.0394431
0.0450381
0.0450069
0.039546
0.0304822
0.0304119
0.039334
0.0448089
0.0449264
0.0394991
0.0305286
0.0305194
0.0394071
0.0448119
0.044915
0.0395473
0.0306084
0.0305997
0.0394493
0.0447823
0.0448835
0.0395666
0.0306933
0.0306851
0.0394709
0.0447515
0.0449009
0.0396353
0.0307787
0.0307709
0.0395366
0.0447526
0.044891
0.0396733
0.030868
0.0308606
0.0395777
0.0447481
0.0449263
0.0397562
0.0309562
0.0309492
0.0396587
0.0447704
0.0449308
0.0398052
0.0310469
0.0310403
0.0397136
0.0447842
0.0449783
0.0398984
0.0311355
0.0311292
0.039803
0.0448205
0.0449935
0.0399534
0.0312257
0.0312199
0.0398648
0.0448455
0.0450483
0.0400514
0.0313134
0.0313077
0.0399605
0.0448937
0.0450685
0.0401078
0.0314001
0.0313949
0.0400241
0.0449245
0.0451279
0.040207
0.0314843
0.0314794
0.0401211
0.0449791
0.045151
0.0402623
0.0315672
0.0315626
0.040184
0.0450144
0.0452106
0.0403578
0.0316462
0.0316419
0.0402789
0.0450724
0.0452356
0.0404098
0.0317232
0.0317192
0.0403377
0.0451082
0.0452953
0.0405011
0.0317962
0.0317924
0.0404292
0.0451673
0.0453204
0.0405492
0.0318667
0.0318633
0.0404838
0.0452029
0.0453792
0.040636
0.0319331
0.0319299
0.0405712
0.0452622
0.0454028
0.0406788
0.0319968
0.0319939
0.0406203
0.0452966
0.0454599
0.0407599
0.0320564
0.0320536
0.0407021
0.0453546
0.0454819
0.0407971
0.0321131
0.0321106
0.0407454
0.0453866
0.0455374
0.0408728
0.0321658
0.0321634
0.040822
0.0454433
0.0455586
0.0409049
0.0322156
0.0322135
0.0408598
0.045474
0.0456129
0.0409758
0.0322618
0.0322598
0.0409313
0.0455291
0.0456324
0.0410034
0.0323056
0.0323038
0.040964
0.0455569
0.0456846
0.0410703
0.0323461
0.0323444
0.0410314
0.0456089
0.0457018
0.0410948
0.0323846
0.0323831
0.0410606
0.0456333
0.0457509
0.0411582
0.0324204
0.032419
0.041124
0.0456832
0.0457658
0.0411788
0.0324548
0.0324534
0.041148
0.0457043
0.0458123
0.0412378
0.0324868
0.0324856
0.0412071
0.0457515
0.0458243
0.0412539
0.0325174
0.0325163
0.0412267
0.0457696
0.0458681
0.0413086
0.0325454
0.0325443
0.0412818
0.0458142
0.0458776
0.041321
0.0325719
0.032571
0.0412974
0.0458295
0.0459188
0.041372
0.0325962
0.0325953
0.0413487
0.0458711
0.0459263
0.0413811
0.0326194
0.0326186
0.0413605
0.0458836
0.0459657
0.0414293
0.0326408
0.03264
0.0414086
0.0459229
0.0459715
0.0414358
0.0326615
0.0326609
0.0414175
0.0459332
0.0460091
0.0414815
0.0326807
0.0326801
0.0414631
0.0459706
0.0460133
0.0414857
0.0326994
0.0326988
0.0414694
0.0459789
0.0460493
0.0415292
0.0327166
0.0327161
0.0415127
0.0460145
0.046052
0.0415313
0.0327334
0.032733
0.0415167
0.046021
0.0460865
0.0415727
0.0327489
0.0327486
0.0415578
0.046055
0.0460877
0.0415728
0.0327641
0.0327639
0.0415598
0.0460598
0.0461207
0.0416123
0.0327781
0.0327779
0.041599
0.0460922
0.0461205
0.0416106
0.0327919
0.0327917
0.0415991
0.0460955
0.0461522
0.0416484
0.0328045
0.0328043
0.0416365
0.0461265
0.0461507
0.0416451
0.0328169
0.0328168
0.0416348
0.0461283
0.0461809
0.0416812
0.0328281
0.0328281
0.0416706
0.0461579
0.0461781
0.0416762
0.0328392
0.0328392
0.0416672
0.0461583
0.046207
0.0417108
0.0328492
0.0328492
0.0417014
0.0461865
0.046203
0.0417043
0.0328591
0.0328591
0.0416964
0.0461854
0.0462309
0.0417375
0.0328681
0.0328681
0.0417291
0.0462123
0.046226
0.0417299
0.0328772
0.0328772
0.0417228
0.0462099
0.0462533
0.0417624
0.0328856
0.0328857
0.0417545
0.0462359
0.0462482
0.0417543
0.0328944
0.0328945
0.0417474
0.0462328
0.0462755
0.0417866
0.0329029
0.032903
0.0417786
0.0462583
0.0462707
0.0417786
0.032912
0.0329122
0.0417715
0.0462551
0.0462986
0.0418114
0.0329212
0.0329213
0.0418029
0.0462808
0.0462946
0.0418041
0.0329312
0.0329315
0.0417963
0.046278
0.0463235
0.0418378
0.0329414
0.0329417
0.0418286
0.0463044
0.0463206
0.0418315
0.0329526
0.0329529
0.0418229
0.0463027
0.0463502
0.0418659
0.0329638
0.0329641
0.0418562
0.0463302
0.0463475
0.04186
0.0329755
0.0329759
0.0418513
0.0463294
0.0463765
0.041894
0.0329866
0.0329869
0.0418849
0.0463575
0.0463728
0.041887
0.0329974
0.0329978
0.0418793
0.0463564
0.0464007
0.0419198
0.0330072
0.0330075
0.0419118
0.0463837
0.046396
0.0419116
0.0330168
0.0330171
0.0419049
0.0463815
0.0464238
0.0419438
0.0330256
0.0330258
0.0419364
0.0464065
0.0464358
0.0419575
0.0330351
0.0330354
0.0419291
0.0463882
0.046432
0.0419644
0.0330698
0.0330529
0.0419247
0.0463878
0.0465037
0.0419821
0.033058
0.0329751
0.0418441
0.0462848
0.0464827
0.0420068
0.0330432
0.0327783
0.0415347
0.045971
0.0467832
0.0423356
0.033353
0.0329007
0.0417401
0.0461775
0.0492572
0.0449602
0.0357266
0.0355371
0.0455152
0.0510239
0.0618489
0.0552406
0.0428675
0.0437246
0.058608
0.0688548
0.0712657
0.0626413
0.0483279
0.0790924
0.0863943
0.0952353
0.11773
0.0733581
0.0583882
0.0521166
0.0621901
0.0432174
0.0295636
0.0237914
0.0210985
0.0200267
0.0194278
0.0192633
0.0191735
0.0191852
0.0191977
0.0192177
0.0192332
0.0192428
0.0192535
0.0192783
0.0192896
0.0194061
0.0194584
0.0196365
0.019823
0.0198009
0.0202868
0.0200389
0.0193838
0.0178688
0.0177065
0.0155577
0.0160514
0.0151398
0.0157116
0.0156027
0.0158979
0.0159243
0.0160097
0.0160121
0.0160261
0.0160199
0.016014
0.0160163
0.0160177
0.0160059
0.0160089
0.0159951
0.0159965
0.0159815
0.0159818
0.0159654
0.0159603
0.0159502
0.0159391
0.0159269
0.0159132
0.0158981
0.0158812
0.0158623
0.0158412
0.0158215
0.0157872
0.0157655
0.0157244
0.0156953
0.0156461
0.0156079
0.0155489
0.015496
0.0154369
0.0153597
0.0152908
0.0152029
0.0151074
0.0150151
0.0148995
0.0147866
0.0146653
0.0145249
0.0143909
0.0142348
0.0140857
0.0139161
0.0137542
0.0135734
0.0134014
0.0132125
0.0130303
0.0128426
0.0126534
0.0124635
0.0122734
0.0120838
0.0118954
0.0117085
0.0115236
0.0113413
0.0111617
0.010988
0.0108096
0.0106454
0.0104745
0.0103178
0.0101549
0.0100061
0.00985151
0.00971077
0.00956698
0.00942729
0.00929867
0.00916492
0.00904425
0.00891853
0.00880558
0.00868774
0.00858228
0.00847198
0.00837169
0.00827287
0.00817754
0.00808569
0.00799735
0.00791193
0.00782978
0.00775117
0.00767546
0.00760276
0.00753301
0.00746612
0.00740201
0.0073406
0.0072818
0.00722552
0.00717167
0.00712016
0.00707091
0.00702383
0.00697886
0.00693603
0.00689481
0.00685553
0.00681844
0.00678294
0.00674921
0.00671728
0.00668706
0.00665855
0.00663176
0.00660666
0.00658324
0.00656151
0.00654147
0.00652311
0.00650648
0.00649126
0.00647385
0.00646003
0.00641632
0.00639722
0.00626922
0.00631416
0.00608085
0.00644653
0.00624806
0.00711298
0.00681896
0.00676095
0.0067599
0.00676117
0.0067437
0.00670756
0.00666883
0.00663563
0.00661115
0.00659298
0.00657765
0.00656342
0.00654941
0.00653419
0.00651775
0.00650041
0.00648201
0.00646256
0.00644209
0.00642066
0.00639832
0.00637508
0.006351
0.00632615
0.00630053
0.00627409
0.00624694
0.00621901
0.00619049
0.00616166
0.00613238
0.00610268
0.00607264
0.00604232
0.00601178
0.0059811
0.00595033
0.00591955
0.00588883
0.00585824
0.00582798
0.00579798
0.00576816
0.00573872
0.00570972
0.00568123
0.00565344
0.00562613
0.0055995
0.00557498
0.00555093
0.00552866
0.00551177
0.0055012
0.00550952
0.0055501
0.00563357
0.00575504
0.00584484
0.00573136
0.00565294
0.0119634
0.0102839
0.010211
0.0103624
0.0103553
0.0104663
0.0104451
0.0104927
0.0104492
0.0104813
0.0104282
0.0104539
0.0103972
0.0104203
0.0103611
0.0103814
0.01032
0.0103376
0.0102739
0.0102892
0.0102236
0.0102366
0.0101692
0.0101798
0.0101105
0.0101188
0.0100476
0.0100534
0.00998017
0.0099834
0.00990812
0.00990859
0.00983109
0.00982861
0.00974875
0.00974314
0.00966078
0.00965182
0.00956678
0.00955424
0.00946632
0.0094499
0.00935887
0.00933828
0.00924388
0.00921876
0.00912067
0.0090906
0.00898847
0.00895298
0.00884637
0.00880489
0.00869332
0.00864527
0.00852825
0.00847304
0.00835007
0.00828701
0.00815746
0.00808562
0.00794868
0.00786738
0.00772207
0.00762988
0.00747491
0.00737024
0.007204
0.00708487
0.00690527
0.00676918
0.00657358
0.00641757
0.00620327
0.00602542
0.0057943
0.00560294
0.00538904
0.00521214
0.00489455
0.0044998
0.00395134
0.0033214
0.0025773
0.00187637
0.00125115
0.000739544
0.000373743
0.000529393
0.000653612
0.000974204
0.000973493
0.00123184
0.00112567
0.00127612
0.00124388
0.00121346
0.00124999
0.00114159
0.0011774
0.00108534
0.00106843
0.000988778
0.000930778
0.000827823
0.000721924
0.00056056
0.000502604
0.000632701
0.000933073
0.00120816
0.00152309
0.0017947
0.00209453
0.00234702
0.00261756
0.00283735
0.00307591
0.0032657
0.00346949
0.00362703
0.00379332
0.00392088
0.00405548
0.00415126
0.00426601
0.00433243
0.00441424
0.00444689
0.00449104
0.00446795
0.00448304
0.00440882
0.00447684
0.00445213
0.00479876
0.00524167
0.00515691
0.00496993
0.00459505
0.0046711
0.00442648
0.00431521
0.00502336
0.0044854
0.00429118
0.00471998
0.00200784
0.00482147
0.00464362
0.00481954
0.00470211
0.00461171
0.00471983
0.00426596
0.00412561
0.00419704
0.00400932
0.00397128
0.00410216
0.00168213
0.00179918
0.00217805
0.00512414
0.00450498
0.00437378
0.00482319
0.00516501
0.00453102
0.00433362
0.0047292
0.00219361
0.00216029
0.00511168
0.00447145
0.00424445
0.00455594
0.00499213
0.00434743
0.00410186
0.00431852
0.00209883
0.00201656
0.00483342
0.00417756
0.00391646
0.00402575
0.00462032
0.00395914
0.00367885
0.00367341
0.00191192
0.00178739
0.00435141
0.00368444
0.00338163
0.00325578
0.0040155
0.00334359
0.00301359
0.00277088
0.00163941
0.00150646
0.00359876
0.00293371
0.00258298
0.00245491
0.00309946
0.00245385
0.00209142
0.00211393
0.00134648
0.00115803
0.00253677
0.0019169
0.00155716
0.00172404
0.00192732
0.00134546
0.00101806
0.00130674
0.000948045
0.000730304
0.00131571
0.000785008
0.000597107
0.000876084
0.000731443
0.000628753
0.00069757
0.000528436
0.000519962
0.000345878
0.000467142
0.000754818
0.000785071
0.000517223
0.000444492
0.000827513
0.000815238
0.000464653
0.000251267
0.000424722
0.000411035
0.000888315
0.000807256
0.000306316
0.000282039
0.000914841
0.000852815
0.000229462
0.00073854
0.00115724
0.000104102
0.000838409
0.000915807
0.000703279
0.000640359
0.000684212
0.000825247
0.00165321
0.00162169
0.00205799
0.00146309
0.000421098
0.000769947
0.00277422
0.00234181
0.00101577
0.00172765
0.00396446
0.00242708
0.00273345
0.0032282
0.002097
0.00283313
0.00512186
0.00407056
0.00323901
0.0040171
0.00619013
0.0029843
0.00320924
0.00499846
0.00440487
0.0051107
0.00707332
0.00571979
0.00533973
0.0058764
0.00766589
0.00338051
0.00351268
0.00624668
0.0059099
0.00630545
0.00801992
0.00668699
0.00620459
0.0065644
0.00827277
0.00363257
0.00375909
0.00712996
0.00645943
0.00685594
0.00854033
0.00756222
0.00674481
0.0071563
0.00882608
0.00389138
0.00402308
0.00796304
0.00702649
0.00744412
0.0091122
0.0083284
0.00729274
0.00771342
0.00938881
0.00415039
0.00427086
0.00866105
0.00754072
0.00796325
0.0096511
0.0089647
0.00777045
0.00819442
0.00989721
0.00438401
0.00448905
0.00924269
0.00798299
0.00840821
0.0101268
0.00949786
0.00817974
0.00860603
0.0103403
0.00458708
0.00467776
0.00973259
0.00836257
0.00879031
0.0105387
0.00997585
0.00855945
0.00896071
0.0107234
0.00476203
0.00484014
0.010203
0.00874432
0.00911866
0.010895
0.0104124
0.00891503
0.00926509
0.0110543
0.00491281
0.00498022
0.0106059
0.00907286
0.00940082
0.011202
0.0107846
0.00921882
0.0095268
0.0113391
0.00504251
0.00510039
0.0109495
0.00935392
0.00964389
0.0114665
0.0111019
0.00947912
0.00975281
0.0115848
0.00515407
0.00520378
0.0112428
0.00959528
0.00985416
0.0116946
0.0113732
0.00970313
0.00994845
0.0117965
0.00524979
0.00529229
0.0114938
0.00980331
0.0100361
0.011891
0.0116055
0.00989638
0.0101177
0.0119784
0.00533151
0.00536762
0.0117089
0.00998284
0.0101934
0.0120591
0.0118045
0.0100631
0.0102636
0.0121335
0.00540079
0.00543113
0.0118929
0.0101376
0.0103285
0.0122018
0.0119744
0.0102065
0.0103885
0.0122643
0.00545875
0.0054838
0.0120491
0.0102701
0.0104437
0.0123214
0.0121175
0.0103287
0.0104945
0.0123732
0.00550638
0.00552657
0.01218
0.0103825
0.0105408
0.0124198
0.0122368
0.0104316
0.0105827
0.0124613
0.00554439
0.0055598
0.0122879
0.0104762
0.0106203
0.0124978
0.0123337
0.0105162
0.0106531
0.0125291
0.00557249
0.00558228
0.0123752
0.0105516
0.0106805
0.0125533
0.01241
0.0105816
0.0107022
0.0125704
0.00558845
0.00558483
0.0124383
0.0106063