/*--------------------------------*- C++ -*----------------------------------*\
| =========                 |                                                 |
| \\      /  F ield         | OpenFOAM: The Open Source CFD Toolbox           |
|  \\    /   O peration     | Version:  v2006                                 |
|   \\  /    A nd           | Website:  www.openfoam.com                      |
|    \\/     M anipulation  |                                                 |
\*---------------------------------------------------------------------------*/
FoamFile
{
    version     2.0;
    format      ascii;
    class       volScalarField;
    location    "0.018";
    object      rho;
}
// * * * * * * * * * * * * * * * * * * * * * * * * * * * * * * * * * * * * * //

dimensions      [1 -3 0 0 0 0 0];


internalField   nonuniform List<scalar> 
10108
(
1.71403
1.71405
1.71398
1.71404
1.714
1.71403
1.71408
1.71416
1.71425
1.71436
1.71447
1.71459
1.71471
1.71483
1.71497
1.71511
1.71526
1.71541
1.71557
1.71574
1.71592
1.7161
1.71628
1.71648
1.71667
1.71687
1.71708
1.71729
1.7175
1.71771
1.71793
1.71815
1.71837
1.7186
1.71882
1.71905
1.71927
1.71949
1.71971
1.71993
1.72015
1.72036
1.72057
1.72078
1.72098
1.72117
1.72137
1.72155
1.72173
1.7219
1.72207
1.72223
1.72238
1.72252
1.72265
1.72278
1.7229
1.723
1.7231
1.72317
1.72323
1.72327
1.72328
1.72332
1.72327
1.7233
1.72334
1.7234
1.72358
1.72385
1.72399
1.72387
1.72357
1.72388
1.7239
1.72381
1.72373
1.72335
1.72314
1.72357
1.72369
1.72356
1.72341
1.72296
1.72282
1.72328
1.72344
1.72334
1.72317
1.72271
1.72263
1.72309
1.72327
1.7232
1.72302
1.72257
1.72252
1.72296
1.72315
1.72311
1.72291
1.72249
1.72247
1.72288
1.72308
1.72305
1.72285
1.72246
1.72245
1.72284
1.72303
1.72302
1.72283
1.72246
1.72248
1.72283
1.72302
1.72302
1.72283
1.7225
1.72252
1.72284
1.72303
1.72305
1.72287
1.72256
1.72261
1.72289
1.72308
1.72311
1.72293
1.72265
1.72271
1.72297
1.72314
1.72318
1.72301
1.72276
1.72282
1.72306
1.72323
1.72328
1.72311
1.72288
1.72294
1.72316
1.72333
1.72338
1.72322
1.72301
1.72307
1.72328
1.72343
1.7235
1.72334
1.72314
1.72321
1.7234
1.72355
1.72362
1.72347
1.72328
1.72336
1.72354
1.72369
1.72376
1.72362
1.72345
1.72353
1.7237
1.72383
1.72392
1.72379
1.72363
1.72373
1.72387
1.724
1.7241
1.72398
1.72384
1.72395
1.72407
1.72419
1.7243
1.72419
1.72408
1.7242
1.7243
1.72441
1.72453
1.72443
1.72433
1.72447
1.72455
1.72464
1.72478
1.72469
1.72462
1.72476
1.72482
1.72491
1.72506
1.72498
1.72492
1.72508
1.72512
1.7252
1.72536
1.72529
1.72525
1.72542
1.72544
1.72551
1.72568
1.72563
1.7256
1.72578
1.72579
1.72584
1.72603
1.72598
1.72598
1.72616
1.72616
1.7262
1.7264
1.72637
1.72638
1.72657
1.72655
1.72659
1.7268
1.72678
1.7268
1.727
1.72697
1.727
1.72722
1.7272
1.72723
1.72745
1.72741
1.72743
1.72766
1.72765
1.72769
1.72792
1.72788
1.72789
1.72813
1.72812
1.72817
1.72841
1.72836
1.72836
1.72862
1.72862
1.72867
1.72893
1.72887
1.72887
1.72913
1.72914
1.72919
1.72947
1.7294
1.72939
1.72967
1.72968
1.72974
1.73004
1.72996
1.72994
1.73024
1.73026
1.73032
1.73063
1.73054
1.73052
1.73084
1.73086
1.73094
1.73124
1.73116
1.73113
1.73147
1.73151
1.73158
1.73189
1.73181
1.73178
1.73213
1.73218
1.73226
1.73255
1.7325
1.73248
1.73282
1.73286
1.73294
1.73325
1.73323
1.73321
1.7335
1.73351
1.73356
1.73402
1.73396
1.73389
1.73408
1.734
1.73341
1.73279
1.73318
1.73389
1.73342
1.73289
1.73278
1.7328
1.73286
1.73303
1.73303
1.73291
1.73284
1.73292
1.73304
1.73315
1.73326
1.73316
1.73305
1.73331
1.73337
1.73348
1.73339
1.73335
1.73333
1.73353
1.73353
1.73354
1.73335
1.73334
1.73334
1.73357
1.73357
1.73358
1.73329
1.73329
1.73329
1.73356
1.73356
1.73357
1.73327
1.73327
1.73327
1.73357
1.73357
1.73358
1.73335
1.73336
1.73336
1.73367
1.73367
1.73367
1.73354
1.73354
1.73354
1.73378
1.73378
1.73378
1.73374
1.73374
1.73374
1.7339
1.7339
1.7339
1.73396
1.73397
1.73397
1.73409
1.73409
1.73409
1.7342
1.73421
1.73422
1.73434
1.73435
1.73434
1.73446
1.73448
1.73448
1.73463
1.73463
1.73461
1.73472
1.73474
1.73475
1.73488
1.73487
1.73484
1.73491
1.73495
1.73495
1.73504
1.73503
1.73499
1.73499
1.73503
1.73505
1.73504
1.73502
1.73497
1.73489
1.73494
1.73496
1.73484
1.73482
1.73477
1.7346
1.73466
1.73468
1.73449
1.73446
1.7344
1.73417
1.73424
1.73426
1.73402
1.73399
1.73393
1.73367
1.73373
1.73376
1.73348
1.73346
1.7334
1.73312
1.73318
1.7332
1.73291
1.73289
1.73284
1.73256
1.73261
1.73262
1.73233
1.73233
1.73229
1.73202
1.73206
1.73205
1.73178
1.7318
1.73177
1.73153
1.73156
1.73153
1.73129
1.73133
1.7313
1.73109
1.73111
1.73107
1.73086
1.73092
1.73091
1.73073
1.73074
1.73068
1.73052
1.73058
1.73058
1.73043
1.73043
1.73038
1.73027
1.73031
1.73031
1.73019
1.7302
1.73017
1.73012
1.73014
1.73013
1.73005
1.73006
1.73005
1.73003
1.73003
1.73003
1.72999
1.72995
1.72994
1.7299
1.7299
1.72994
1.72996
1.73003
1.73007
1.73011
1.73015
1.73013
1.73012
1.72997
1.72997
1.72997
1.72998
1.72998
1.72998
1.72999
1.72997
1.72995
1.72996
1.72997
1.72998
1.72997
1.72999
1.72994
1.72996
1.72997
1.73011
1.72979
1.73081
1.7305
1.72993
1.73015
1.73021
1.73018
1.73056
1.73053
1.7303
1.73028
1.73032
1.73033
1.73034
1.73033
1.7303
1.7303
1.73034
1.73035
1.73041
1.73046
1.73044
1.73041
1.73051
1.73052
1.73047
1.73047
1.73058
1.73059
1.73068
1.73061
1.73048
1.73052
1.73062
1.73074
1.73077
1.73064
1.73056
1.73061
1.73068
1.73078
1.73082
1.73073
1.73067
1.73073
1.73079
1.73086
1.73092
1.73085
1.7308
1.73086
1.73091
1.73098
1.73104
1.73097
1.73093
1.731
1.73104
1.73111
1.73118
1.73112
1.73107
1.73115
1.73119
1.73125
1.73133
1.73126
1.73122
1.73129
1.73133
1.7314
1.73149
1.73141
1.73136
1.73143
1.73148
1.73156
1.73164
1.73155
1.7315
1.73157
1.73162
1.73171
1.73179
1.73169
1.73164
1.73171
1.73176
1.73186
1.73193
1.73183
1.73178
1.73185
1.7319
1.732
1.73208
1.73197
1.73192
1.73198
1.73203
1.73214
1.73222
1.7321
1.73205
1.73212
1.73216
1.73228
1.73236
1.73223
1.73219
1.73225
1.73229
1.73242
1.73249
1.73235
1.73231
1.73238
1.73243
1.73257
1.73264
1.73251
1.73247
1.73255
1.73259
1.73271
1.7328
1.73268
1.73265
1.73273
1.73276
1.73289
1.73296
1.73283
1.73281
1.73286
1.73289
1.73303
1.73311
1.73296
1.73293
1.73299
1.73305
1.73322
1.73332
1.73315
1.73306
1.73314
1.73326
1.73344
1.73357
1.73338
1.73326
1.73338
1.73351
1.73369
1.73381
1.73364
1.73351
1.73364
1.73377
1.73393
1.73406
1.73391
1.73379
1.73396
1.73406
1.7342
1.73432
1.7342
1.7341
1.73424
1.73433
1.73447
1.73461
1.73444
1.73435
1.73447
1.73456
1.73478
1.73496
1.73473
1.73462
1.73429
1.73471
1.73508
1.73503
1.73497
1.73483
1.73502
1.7351
1.73525
1.73546
1.73529
1.73515
1.73529
1.73549
1.73569
1.73602
1.73577
1.73547
1.73567
1.73609
1.73638
1.73667
1.73652
1.73606
1.73613
1.73663
1.73693
1.7371
1.73692
1.73653
1.73685
1.73729
1.73744
1.73767
1.73762
1.73737
1.73658
1.73727
1.73758
1.73703
1.73949
1.73847
1.73831
1.73743
1.73731
1.73592
1.73642
1.73686
1.73365
1.73374
1.73451
1.72779
1.72867
1.72882
1.71889
1.72257
1.72386
1.70023
1.69856
1.69074
1.63401
1.6577
1.66298
1.65149
1.64344
1.625
1.62879
1.6415
1.64851
1.65974
1.65578
1.64948
1.656
1.65972
1.66305
1.6628
1.66014
1.65811
1.66678
1.66895
1.67082
1.67247
1.67088
1.66958
1.67009
1.67091
1.67251
1.67796
1.67692
1.67586
1.67714
1.67784
1.67867
1.67873
1.67765
1.67737
1.68131
1.68196
1.68257
1.683
1.68256
1.68219
1.68201
1.68219
1.68301
1.68597
1.6856
1.68513
1.68559
1.68586
1.68621
1.68602
1.68546
1.68533
1.68791
1.68828
1.68855
1.68862
1.68833
1.68809
1.68785
1.68794
1.68846
1.69054
1.69031
1.68997
1.69006
1.69029
1.69059
1.69033
1.68992
1.68986
1.69158
1.69191
1.69212
1.69208
1.69178
1.69155
1.69126
1.69134
1.69175
1.69331
1.69311
1.69276
1.69273
1.69296
1.69329
1.69277
1.69244
1.69232
1.69373
1.69412
1.69429
1.69421
1.69382
1.69356
1.69326
1.69335
1.69369
1.69509
1.69494
1.69448
1.69429
1.69442
1.6948
1.69537
1.69244
1.69462
1.69439
1.69648
1.6955
1.69518
1.69469
1.69409
1.69549
1.69619
1.69626
1.69605
1.69575
1.69532
1.69469
1.69495
1.69526
1.69662
1.69643
1.6958
1.69581
1.69601
1.69634
1.69668
1.69348
1.69591
1.6955
1.69759
1.69671
1.69633
1.69581
1.69521
1.69668
1.69738
1.69742
1.69704
1.69665
1.69617
1.69543
1.6957
1.69606
1.69739
1.69718
1.6966
1.69617
1.69645
1.6967
1.6978
1.69759
1.69695
1.6964
1.69686
1.69733
1.6963
1.69594
1.69569
1.69704
1.69758
1.69774
1.69697
1.69669
1.69638
1.69702
1.69766
1.69787
1.6974
1.69693
1.69645
1.69584
1.69607
1.69638
1.69776
1.69763
1.69713
1.69621
1.69659
1.69686
1.69774
1.69752
1.69684
1.69625
1.69677
1.69724
1.69624
1.69596
1.69572
1.69679
1.69734
1.69747
1.69659
1.6963
1.69589
1.69653
1.69719
1.69738
1.69686
1.69641
1.69586
1.69531
1.69554
1.69585
1.69695
1.69683
1.69627
1.69531
1.69572
1.69602
1.69666
1.69646
1.69577
1.69486
1.69536
1.69568
1.69665
1.69645
1.69558
1.69523
1.69571
1.69599
1.69617
1.69222
1.69595
1.69378
1.69727
1.69529
1.69511
1.69405
1.69415
1.69442
1.69537
1.69548
1.69457
1.69427
1.6938
1.69438
1.69517
1.69531
1.69464
1.6941
1.69348
1.69411
1.69078
1.69423
1.69363
1.69534
1.69246
1.6926
1.69232
1.69341
1.69394
1.69392
1.69307
1.69194
1.69246
1.69287
1.69337
1.69318
1.69231
1.6913
1.69192
1.69224
1.69298
1.69275
1.69184
1.69093
1.69164
1.69208
1.69253
1.6878
1.69258
1.68913
1.69452
1.69104
1.69136
1.68965
1.69039
1.6899
1.69122
1.69116
1.69018
1.6895
1.6891
1.68949
1.69049
1.69063
1.68958
1.68934
1.68879
1.68913
1.69004
1.69021
1.68938
1.68882
1.68816
1.68699
1.68737
1.68769
1.6886
1.68838
1.68756
1.68657
1.68717
1.68749
1.68828
1.68807
1.6871
1.68605
1.68665
1.68707
1.68744
1.68719
1.68612
1.6849
1.68564
1.68608
1.68668
1.68642
1.68541
1.6844
1.68509
1.68544
1.68604
1.68581
1.68467
1.68383
1.68458
1.68515
1.68415
1.68196
1.68366
1.68253
1.68529
1.68392
1.68342
1.68221
1.68242
1.68207
1.68351
1.68343
1.68223
1.68148
1.68109
1.68111
1.68252
1.68256
1.68137
1.68079
1.68021
1.68042
1.68166
1.68178
1.68033
1.67994
1.67912
1.67954
1.6807
1.68091
1.67987
1.67929
1.67833
1.67667
1.6779
1.67766
1.67893
1.67775
1.67807
1.67615
1.6775
1.67734
1.67792
1.67743
1.67653
1.67498
1.67605
1.67631
1.6767
1.67622
1.67521
1.6735
1.67471
1.67501
1.67576
1.67538
1.67425
1.67287
1.6739
1.67423
1.67476
1.67448
1.67317
1.67175
1.67276
1.67347
1.67222
1.66974
1.67134
1.67019
1.6735
1.6719
1.67137
1.66989
1.67015
1.66943
1.67132
1.67117
1.66975
1.66874
1.66842
1.6681
1.66994
1.66983
1.6683
1.66737
1.66677
1.66685
1.66849
1.66852
1.66689
1.66633
1.6655
1.66581
1.66732
1.66752
1.66618
1.66562
1.6644
1.66172
1.66483
1.66325
1.66513
1.66306
1.66454
1.66123
1.66322
1.66287
1.66332
1.66267
1.66172
1.65985
1.6612
1.66136
1.66204
1.6615
1.66039
1.65832
1.6598
1.66006
1.66061
1.66011
1.65887
1.65673
1.65817
1.65847
1.65919
1.65866
1.65716
1.65517
1.65684
1.65752
1.65433
1.65519
1.65252
1.65547
1.65436
1.65639
1.65419
1.65456
1.65221
1.65325
1.65405
1.65478
1.65256
1.6526
1.65085
1.6509
1.65216
1.65276
1.65028
1.64993
1.64815
1.64872
1.65026
1.65102
1.64877
1.64841
1.64674
1.64762
1.64931
1.64987
1.64831
1.64764
1.64583
1.64336
1.64457
1.645
1.64622
1.64506
1.64483
1.64198
1.64418
1.64401
1.64392
1.64318
1.64116
1.63858
1.64031
1.64124
1.64243
1.64199
1.63996
1.6383
1.63988
1.64044
1.64112
1.64064
1.63857
1.63644
1.63844
1.63918
1.63578
1.6349
1.63386
1.63358
1.63723
1.63614
1.63445
1.6325
1.63226
1.63178
1.63451
1.63444
1.6323
1.63106
1.63021
1.63016
1.63296
1.63286
1.63048
1.62944
1.62829
1.62798
1.63041
1.63069
1.62849
1.62776
1.62582
1.62129
1.62297
1.62403
1.62494
1.62498
1.62174
1.62065
1.62154
1.62304
1.62354
1.62369
1.62062
1.61886
1.62009
1.6211
1.62128
1.62103
1.61838
1.61573
1.61792
1.61877
1.61428
1.61332
1.61189
1.61103
1.61372
1.61462
1.61175
1.61054
1.60828
1.61023
1.61279
1.61317
1.61092
1.61012
1.60816
1.60765
1.61015
1.61057
1.60775
1.60693
1.6045
1.60047
1.60214
1.60297
1.60275
1.60163
1.59863
1.59563
1.59807
1.59958
1.60075
1.60017
1.59728
1.59625
1.59831
1.59958
1.59383
1.59615
1.59101
1.5938
1.59325
1.59527
1.59106
1.59206
1.58806
1.5845
1.5879
1.58949
1.58651
1.58455
1.581
1.5784
1.58069
1.5819
1.58435
1.58386
1.58095
1.5786
1.58074
1.58181
1.58018
1.57975
1.57696
1.57151
1.57481
1.57622
1.56801
1.56539
1.56186
1.56554
1.56884
1.56981
1.56742
1.56611
1.56385
1.56368
1.56671
1.56725
1.56449
1.5631
1.56003
1.55265
1.555
1.55647
1.55398
1.55202
1.54765
1.54362
1.54714
1.54972
1.55096
1.54995
1.54624
1.54462
1.54781
1.54952
1.54344
1.54213
1.54034
1.53809
1.54055
1.54111
1.53504
1.53199
1.52567
1.51953
1.52396
1.52736
1.52889
1.52791
1.52414
1.52221
1.5257
1.52783
1.52043
1.51913
1.51693
1.50983
1.51387
1.51542
1.50879
1.50488
1.49668
1.4937
1.49841
1.50173
1.50302
1.50192
1.49805
1.49496
1.49893
1.50178
1.49072
1.48802
1.48415
1.47046
1.47867
1.483
1.47916
1.4754
1.4689
1.46686
1.47083
1.47329
1.47063
1.46964
1.46707
1.44431
1.457
1.46232
1.45328
1.44875
1.43904
1.43768
1.44404
1.44638
1.44473
1.44292
1.43946
1.41494
1.43125
1.43702
1.4293
1.42455
1.41318
1.41488
1.42182
1.42455
1.40981
1.40298
1.38899
1.39662
1.4074
1.41295
1.41378
1.40732
1.39421
1.38172
1.40121
1.40984
1.40689
1.40016
1.38249
1.37855
1.3987
1.40616
1.40744
1.40039
1.38041
1.39707
1.41336
1.41942
1.43983
1.4335
1.41873
1.43315
1.44637
1.45348
1.46139
1.45303
1.44042
1.44746
1.45873
1.46735
1.47273
1.46333
1.45285
1.4586
1.46789
1.4771
1.48084
1.47117
1.46279
1.46712
1.47459
1.48377
1.48647
1.47709
1.47054
1.47408
1.47998
1.48873
1.49092
1.48217
1.47709
1.48013
1.48471
1.49277
1.49461
1.48674
1.4828
1.48539
1.48894
1.49616
1.49772
1.49079
1.48771
1.48992
1.49269
1.49903
1.50041
1.49441
1.49198
1.49389
1.49608
1.50157
1.50284
1.49767
1.49573
1.49739
1.49915
1.50389
1.50511
1.50064
1.49906
1.50054
1.50196
1.50607
1.50728
1.50334
1.50208
1.5034
1.50453
1.50814
1.50932
1.50583
1.50481
1.50601
1.50692
1.51013
1.5113
1.50815
1.50731
1.50839
1.50916
1.51206
1.5132
1.51032
1.50959
1.51058
1.51127
1.51396
1.51504
1.51237
1.5117
1.5126
1.51326
1.51579
1.51681
1.51429
1.51363
1.51445
1.51513
1.51753
1.51849
1.51611
1.51543
1.5162
1.51689
1.51919
1.52008
1.51781
1.5171
1.51783
1.51854
1.52075
1.52159
1.51943
1.51868
1.51936
1.52012
1.52222
1.52301
1.52094
1.52016
1.5208
1.5216
1.52361
1.52436
1.52239
1.52156
1.52217
1.523
1.5249
1.52562
1.52374
1.52288
1.52346
1.52433
1.52611
1.52682
1.52502
1.52413
1.5247
1.52558
1.52725
1.52793
1.52622
1.52532
1.52586
1.52675
1.52833
1.52898
1.52737
1.52645
1.52697
1.52787
1.52937
1.52996
1.52844
1.52752
1.52801
1.52891
1.53033
1.5309
1.52946
1.52855
1.52902
1.52991
1.53124
1.53176
1.53041
1.52951
1.52996
1.53083
1.53209
1.53258
1.53131
1.53043
1.53086
1.53171
1.53289
1.53334
1.53215
1.53129
1.53169
1.53252
1.53363
1.53407
1.53294
1.53211
1.5325
1.5333
1.53434
1.53474
1.53369
1.53289
1.53325
1.53402
1.535
1.53538
1.53439
1.53362
1.53397
1.53471
1.53562
1.53597
1.53505
1.53431
1.53463
1.53535
1.53621
1.53654
1.53567
1.53496
1.53527
1.53595
1.53676
1.53707
1.53625
1.53557
1.53586
1.53652
1.53728
1.53757
1.5368
1.53615
1.53643
1.53706
1.53777
1.53804
1.53732
1.53669
1.53695
1.53755
1.53823
1.53849
1.5378
1.53721
1.53745
1.53803
1.53867
1.53892
1.53826
1.53769
1.53792
1.53847
1.53908
1.53932
1.53869
1.53814
1.53836
1.53889
1.53948
1.5397
1.53909
1.53857
1.53877
1.53928
1.53985
1.54006
1.53948
1.53897
1.53916
1.53966
1.5402
1.5404
1.53984
1.53935
1.53953
1.54001
1.54053
1.54072
1.54017
1.5397
1.53987
1.54034
1.54084
1.54102
1.54049
1.54003
1.54019
1.54065
1.54114
1.54131
1.54079
1.54035
1.5405
1.54094
1.54142
1.54158
1.54108
1.54064
1.54078
1.54121
1.54168
1.54184
1.54134
1.54092
1.54105
1.54147
1.54193
1.54208
1.5416
1.54118
1.5413
1.54172
1.54217
1.54231
1.54184
1.54143
1.54154
1.54195
1.54239
1.54252
1.54206
1.54166
1.54176
1.54217
1.54261
1.54272
1.54227
1.54188
1.54198
1.54238
1.5428
1.54292
1.54247
1.54208
1.54218
1.54257
1.54299
1.5431
1.54266
1.54228
1.54237
1.54276
1.54317
1.54327
1.54284
1.54246
1.54254
1.54293
1.54334
1.54343
1.54301
1.54263
1.54271
1.54309
1.5435
1.54358
1.54316
1.5428
1.54287
1.54325
1.54365
1.54373
1.54331
1.54295
1.54302
1.54339
1.54379
1.54387
1.54346
1.5431
1.54316
1.54353
1.54392
1.54399
1.54359
1.54323
1.5433
1.54366
1.54405
1.54412
1.54372
1.54336
1.54342
1.54378
1.54417
1.54423
1.54384
1.54349
1.54354
1.5439
1.54428
1.54434
1.54395
1.5436
1.54365
1.54401
1.54439
1.54444
1.54405
1.54371
1.54376
1.54411
1.54449
1.54454
1.54415
1.54381
1.54386
1.54421
1.54458
1.54463
1.54425
1.54391
1.54395
1.5443
1.54467
1.54471
1.54433
1.544
1.54404
1.54438
1.54475
1.54479
1.54442
1.54409
1.54412
1.54446
1.54483
1.54487
1.54449
1.54417
1.5442
1.54454
1.5449
1.54493
1.54457
1.54424
1.54427
1.54461
1.54497
1.545
1.54463
1.54431
1.54434
1.54468
1.54503
1.54506
1.5447
1.54438
1.54441
1.54474
1.54509
1.54512
1.54476
1.54445
1.54447
1.5448
1.54515
1.54517
1.54482
1.54451
1.54453
1.54485
1.5452
1.54523
1.54487
1.54457
1.54459
1.54491
1.54525
1.54527
1.54492
1.54462
1.54464
1.54496
1.5453
1.54532
1.54497
1.54467
1.54469
1.54501
1.54535
1.54536
1.54502
1.54472
1.54474
1.54505
1.54539
1.5454
1.54506
1.54477
1.54479
1.54509
1.54543
1.54544
1.5451
1.54481
1.54483
1.54513
1.54546
1.54547
1.54514
1.54485
1.54487
1.54516
1.5455
1.5455
1.54517
1.54489
1.5449
1.5452
1.54552
1.54553
1.5452
1.54492
1.54493
1.54522
1.54555
1.54555
1.54523
1.54495
1.54495
1.54525
1.54557
1.54557
1.54525
1.54497
1.54497
1.54526
1.54558
1.54558
1.54526
1.54499
1.54499
1.54528
1.54559
1.54559
1.54527
1.545
1.545
1.54529
1.5456
1.54559
1.54528
1.54501
1.54501
1.54529
1.5456
1.5456
1.54528
1.54501
1.54501
1.54529
1.54561
1.54559
1.54528
1.54501
1.54501
1.54529
1.5456
1.54559
1.54528
1.54501
1.54501
1.54529
1.5456
1.54559
1.54528
1.54501
1.54501
1.54529
1.5456
1.54558
1.54528
1.54501
1.54501
1.54528
1.54559
1.54558
1.54527
1.54502
1.545
1.54528
1.54558
1.54558
1.54527
1.54501
1.54499
1.54528
1.54557
1.5456
1.54527
1.54502
1.54501
1.54529
1.54559
1.54563
1.54531
1.54504
1.54503
1.54532
1.54562
1.54569
1.54535
1.54505
1.5451
1.54542
1.54578
1.54633
1.54577
1.54544
1.5464
1.54673
1.54731
1.54756
1.54709
1.5469
1.54828
1.5524
1.55379
1.55401
1.55813
1.56084
1.56158
1.56186
1.56393
1.56547
1.5668
1.56775
1.56863
1.5694
1.57003
1.5705
1.57084
1.57107
1.57123
1.57134
1.57141
1.57145
1.57148
1.5715
1.57151
1.57151
1.5715
1.57149
1.57148
1.57147
1.57146
1.57146
1.5715
1.57154
1.57159
1.57163
1.57171
1.5718
1.57191
1.57205
1.57222
1.57241
1.57263
1.57285
1.57305
1.57319
1.57327
1.57333
1.57341
1.5735
1.57361
1.57373
1.57385
1.57399
1.57414
1.5743
1.57448
1.57467
1.57489
1.57513
1.57541
1.57573
1.57609
1.5765
1.57697
1.5775
1.57809
1.57877
1.57953
1.58038
1.58133
1.5824
1.58358
1.58489
1.58634
1.58793
1.58966
1.59155
1.59358
1.59577
1.59811
1.60059
1.6032
1.60593
1.60877
1.61171
1.61472
1.6178
1.62092
1.62408
1.62725
1.63041
1.63356
1.63668
1.63976
1.6428
1.64577
1.64868
1.65152
1.65427
1.65695
1.65955
1.66206
1.66448
1.66682
1.66907
1.67123
1.67331
1.6753
1.67721
1.67904
1.68079
1.68247
1.68407
1.6856
1.68706
1.68846
1.68979
1.69105
1.69226
1.69341
1.69451
1.69556
1.69655
1.6975
1.69841
1.69927
1.70009
1.70088
1.70163
1.70234
1.70303
1.70368
1.7043
1.70489
1.70546
1.706
1.70651
1.707
1.70746
1.7079
1.70832
1.70872
1.70909
1.70945
1.70979
1.71011
1.71042
1.71071
1.711
1.71127
1.71153
1.71177
1.71202
1.71225
1.71247
1.71269
1.71289
1.71308
1.71326
1.71343
1.71357
1.7137
1.7138
1.71387
1.71395
1.71404
1.71406
1.71406
1.71409
1.71406
1.71423
1.71441
1.71452
1.71458
1.71465
1.71474
1.71483
1.71493
1.71504
1.71515
1.71527
1.7154
1.71554
1.71569
1.71585
1.71601
1.71618
1.71635
1.71654
1.71672
1.71692
1.71711
1.71732
1.71753
1.71774
1.71795
1.71816
1.71838
1.7186
1.71881
1.71903
1.71925
1.71947
1.71968
1.7199
1.72011
1.72032
1.72052
1.72073
1.72092
1.72111
1.7213
1.72148
1.72165
1.72182
1.72198
1.72213
1.72227
1.7224
1.72253
1.72264
1.72275
1.72285
1.72295
1.72304
1.72312
1.72315
1.7232
1.72332
1.72344
1.72349
1.72351
1.72344
1.72337
1.72333
1.72329
1.72325
1.72323
1.72321
1.7232
1.7232
1.7232
1.72321
1.72322
1.72324
1.72327
1.7233
1.72333
1.72337
1.72342
1.72346
1.72351
1.72357
1.72362
1.72368
1.72374
1.72381
1.72387
1.72394
1.72402
1.7241
1.72418
1.72427
1.72437
1.72447
1.72457
1.72468
1.7248
1.72492
1.72505
1.72519
1.72533
1.72548
1.72563
1.72579
1.72596
1.72613
1.72631
1.7265
1.72668
1.72688
1.72708
1.7273
1.72751
1.72773
1.72795
1.72819
1.72842
1.72867
1.72892
1.72918
1.72943
1.72971
1.72998
1.73027
1.73055
1.73085
1.73115
1.73147
1.73179
1.73213
1.73247
1.73281
1.73318
1.7335
1.73381
1.73399
1.73399
1.73383
1.73367
1.73344
1.73352
1.73377
1.734
1.7337
1.73372
1.73338
1.73362
1.73328
1.73361
1.73324
1.73363
1.73331
1.73371
1.73349
1.7338
1.7337
1.7339
1.73394
1.73407
1.73417
1.73431
1.73442
1.73457
1.73466
1.73478
1.73485
1.73491
1.7349
1.73488
1.73478
1.73466
1.73447
1.73426
1.73403
1.73378
1.73352
1.73325
1.73298
1.7327
1.73243
1.73217
1.73191
1.73167
1.73144
1.73122
1.73103
1.73085
1.73068
1.73053
1.73039
1.73028
1.73016
1.7301
1.73002
1.72997
1.72995
1.73001
1.73004
1.7301
1.73004
1.73012
1.73021
1.73032
1.73025
1.73013
1.72999
1.72995
1.7299
1.72994
1.73002
1.73007
1.73001
1.72996
1.72993
1.73
1.73007
1.7301
1.73013
1.73031
1.73033
1.73034
1.73045
1.7306
1.7305
1.73061
1.73075
1.73093
1.7308
1.73057
1.73085
1.73094
1.73111
1.73131
1.73115
1.73131
1.73153
1.73176
1.73157
1.73117
1.73157
1.73176
1.73201
1.73226
1.73205
1.73226
1.73253
1.7328
1.73256
1.73203
1.73251
1.73278
1.73307
1.73334
1.73308
1.73331
1.73361
1.73386
1.7336
1.73302
1.73355
1.73384
1.73412
1.73433
1.73412
1.73434
1.73456
1.73468
1.73451
1.73406
1.7344
1.73467
1.73482
1.73484
1.7347
1.73479
1.73488
1.73482
1.73471
1.73454
1.73447
1.73472
1.73477
1.73464
1.73453
1.73453
1.73455
1.73439
1.73428
1.73426
1.73403
1.73431
1.73429
1.73414
1.73403
1.73415
1.73406
1.73391
1.73378
1.73389
1.73393
1.73406
1.73391
1.73371
1.73348
1.73406
1.73381
1.73351
1.73321
1.73397
1.73377
1.73406
1.73371
1.7333
1.73302
1.73399
1.73361
1.73321
1.73299
1.73364
1.73388
1.73407
1.73366
1.73335
1.73342
1.73439
1.73382
1.73365
1.73386
1.73404
1.73402
1.73456
1.73413
1.73401
1.73401
1.73441
1.73403
1.73381
1.73386
1.73401
1.73402
1.73408
1.7338
1.73381
1.73387
1.73403
1.73391
1.73395
1.73393
1.73394
1.73376
1.73401
1.73399
1.73392
1.73381
1.73376
1.73375
1.73347
1.73338
1.73341
1.73292
1.73321
1.73316
1.73282
1.7328
1.73259
1.73249
1.73216
1.73219
1.73238
1.73182
1.73196
1.73183
1.73152
1.73158
1.73135
1.73121
1.73091
1.73099
1.73126
1.73071
1.73077
1.73061
1.73033
1.73043
1.73021
1.73005
1.72978
1.72988
1.73018
1.72967
1.72968
1.72951
1.72926
1.72936
1.72917
1.729
1.72875
1.72886
1.72917
1.7287
1.72868
1.7285
1.72828
1.72839
1.72821
1.72804
1.72782
1.72793
1.72824
1.72781
1.72777
1.7276
1.72739
1.7275
1.72735
1.72718
1.72698
1.7271
1.7274
1.72701
1.72695
1.72679
1.7266
1.72671
1.72658
1.72642
1.72624
1.72636
1.72665
1.72631
1.72623
1.72607
1.72591
1.72602
1.72591
1.72575
1.7256
1.72572
1.72599
1.7257
1.72561
1.72546
1.72531
1.72543
1.72534
1.72519
1.72505
1.72517
1.72543
1.72518
1.72509
1.72494
1.72482
1.72493
1.72486
1.72471
1.7246
1.72472
1.72496
1.72475
1.72465
1.72451
1.72441
1.72452
1.72446
1.72432
1.72423
1.72434
1.72456
1.72438
1.72429
1.72416
1.72407
1.72418
1.72413
1.72401
1.72393
1.72403
1.72422
1.72407
1.72398
1.72387
1.7238
1.72389
1.72385
1.72375
1.72368
1.72377
1.72393
1.7238
1.72373
1.72363
1.72358
1.72365
1.72362
1.72353
1.72348
1.72356
1.72369
1.72359
1.72353
1.72344
1.7234
1.72347
1.72345
1.72337
1.72334
1.7234
1.7235
1.72344
1.72338
1.72331
1.7233
1.72335
1.72334
1.72329
1.72328
1.72332
1.72339
1.72336
1.72332
1.72328
1.72328
1.72331
1.72331
1.72329
1.7233
1.72332
1.72333
1.72333
1.72333
1.72332
1.72335
1.72335
1.72338
1.72339
1.72344
1.72341
1.72334
1.72325
1.7233
1.72335
1.72339
1.72344
1.7235
1.72358
1.72368
1.72379
1.72391
1.72404
1.72418
1.72433
1.7245
1.72468
1.72487
1.72508
1.7253
1.72555
1.72581
1.72609
1.7264
1.72672
1.72707
1.72744
1.72784
1.72825
1.72869
1.72914
1.72961
1.7301
1.7306
1.73112
1.73164
1.73216
1.73266
1.73312
1.7335
1.7338
1.73403
1.73422
1.73434
1.73438
1.73436
1.73423
1.73412
1.73405
1.73402
1.73415
1.73427
1.73442
1.73457
1.73456
1.73427
1.73376
1.73316
1.73259
1.73211
1.73169
1.73132
1.73102
1.73077
1.73052
1.73062
1.73043
1.73026
1.7301
1.73005
1.73004
1.73013
1.7302
1.73025
1.73015
1.73011
1.73011
1.7302
1.73025
1.73032
1.73037
1.73053
1.73044
1.73024
1.73008
1.7301
1.73012
1.73015
1.73017
1.73022
1.73005
1.73005
1.72996
1.73003
1.73011
1.73025
1.7303
1.73055
1.73081
1.73069
1.73073
1.73095
1.73083
1.73104
1.73125
1.73142
1.73117
1.73124
1.73095
1.73109
1.73139
1.73174
1.73155
1.73188
1.73168
1.73152
1.73192
1.73198
1.73237
1.73236
1.73288
1.73283
1.73298
1.73257
1.73222
1.73248
1.73211
1.73235
1.73195
1.73159
1.73127
1.73097
1.7307
1.73047
1.73025
1.73014
1.73005
1.73008
1.73019
1.73031
1.73034
1.73022
1.7301
1.73011
1.73023
1.73036
1.73056
1.73081
1.7308
1.73069
1.73055
1.7304
1.73026
1.73012
1.73012
1.73
1.73002
1.73004
1.73004
1.73011
1.73011
1.73018
1.73017
1.73024
1.73025
1.73028
1.73042
1.73038
1.73032
1.73031
1.73037
1.73044
1.73046
1.73052
1.73057
1.7307
1.73083
1.73093
1.73092
1.73103
1.73108
1.73138
1.73171
1.73208
1.732
1.73183
1.73164
1.73148
1.73131
1.73117
1.73117
1.73105
1.73101
1.73098
1.73091
1.73087
1.7308
1.73074
1.73066
1.7306
1.73057
1.73049
1.73064
1.73072
1.73078
1.73085
1.73089
1.73095
1.73098
1.73105
1.73109
1.73113
1.73121
1.73116
1.73108
1.73121
1.73126
1.73132
1.73147
1.7314
1.73135
1.73129
1.73134
1.73143
1.7315
1.73156
1.73165
1.73181
1.732
1.73217
1.73219
1.73238
1.73248
1.73287
1.73275
1.73313
1.73285
1.73326
1.7337
1.73348
1.73341
1.73355
1.73421
1.73416
1.73483
1.73466
1.73478
1.73515
1.73552
1.73499
1.73419
1.73428
1.73509
1.73588
1.73598
1.73512
1.73447
1.73397
1.73353
1.73363
1.73325
1.73317
1.73298
1.73278
1.73258
1.73255
1.73238
1.73227
1.73221
1.73209
1.73203
1.73191
1.73185
1.73173
1.73167
1.73159
1.73149
1.73166
1.73176
1.73183
1.73193
1.732
1.73209
1.73216
1.73227
1.73239
1.73244
1.73257
1.73242
1.73233
1.73249
1.73263
1.73277
1.73293
1.7328
1.73276
1.73259
1.73265
1.73274
1.73293
1.73299
1.73316
1.73332
1.73337
1.73357
1.73374
1.7337
1.73356
1.73337
1.73329
1.73318
1.73312
1.73292
1.73283
1.73299
1.73306
1.73317
1.73324
1.73349
1.73355
1.73364
1.73337
1.73331
1.73349
1.73373
1.73391
1.73394
1.73404
1.73448
1.73496
1.73583
1.73547
1.73502
1.73481
1.73457
1.73439
1.73415
1.73408
1.73436
1.73453
1.7344
1.73428
1.73417
1.73403
1.73391
1.73381
1.73358
1.73371
1.73383
1.73398
1.73406
1.73418
1.73428
1.73449
1.73461
1.73477
1.73496
1.73529
1.73574
1.73588
1.7367
1.73687
1.73661
1.73627
1.7357
1.7352
1.7347
1.7346
1.73513
1.73503
1.73451
1.73444
1.7349
1.73539
1.7356
1.7357
1.73637
1.73622
1.73582
1.73526
1.73507
1.73474
1.73438
1.73432
1.73457
1.73439
1.7343
1.73427
1.7342
1.73402
1.73435
1.73471
1.73468
1.73414
1.73367
1.73327
1.73371
1.73401
1.73421
1.73411
1.73381
1.73358
1.73394
1.73371
1.73331
1.73283
1.73313
1.73342
1.73291
1.73259
1.73226
1.73194
1.73251
1.733
1.73343
1.73312
1.73267
1.73231
1.73274
1.73232
1.73191
1.73144
1.73182
1.73218
1.73161
1.73127
1.73091
1.73032
1.73065
1.73097
1.73128
1.7316
1.73192
1.73226
1.73265
1.73312
1.73372
1.73445
1.73528
1.73617
1.73679
1.73683
1.73775
1.73756
1.73638
1.73694
1.73825
1.73613
1.7377
1.73669
1.73703
1.73648
1.73606
1.7357
1.73548
1.73522
1.73507
1.73491
1.73481
1.73468
1.73451
1.73441
1.73465
1.73479
1.73496
1.73509
1.73537
1.73559
1.73542
1.73519
1.73502
1.73567
1.7359
1.73618
1.73633
1.7367
1.7369
1.73685
1.73653
1.7363
1.73594
1.73667
1.73705
1.73728
1.73741
1.73774
1.73842
1.73793
1.73724
1.73763
1.73747
1.73729
1.73704
1.7376
1.73789
1.73786
1.73785
1.73817
1.73873
1.73866
1.73724
1.73734
1.73768
1.73761
1.73691
1.7356
1.73622
1.7367
1.73715
1.7337
1.73252
1.73222
1.73431
1.73338
1.73549
1.73321
1.73374
1.73636
1.73734
1.73826
1.7347
1.72943
1.72914
1.73188
1.72985
1.72917
1.72262
1.72726
1.72411
1.70984
1.71175
1.69951
1.68618
1.66967
1.68692
1.71405
1.71585
1.70399
1.68585
1.67231
1.66267
1.67355
1.67014
1.66924
1.67586
1.67619
1.67609
1.68013
1.68086
1.68094
1.68364
1.68424
1.68452
1.68655
1.68723
1.68726
1.68878
1.68928
1.68943
1.69072
1.69123
1.69116
1.69223
1.69261
1.69248
1.69354
1.6939
1.69355
1.69449
1.69478
1.69442
1.69536
1.69558
1.69514
1.69606
1.69563
1.69653
1.69669
1.69612
1.69701
1.69711
1.6965
1.69744
1.69692
1.69787
1.69778
1.69697
1.69802
1.69753
1.69819
1.6981
1.69729
1.69819
1.69768
1.69841
1.69823
1.69735
1.69823
1.69761
1.69815
1.69798
1.69712
1.69789
1.69723
1.69789
1.69761
1.69661
1.69754
1.69657
1.69738
1.69646
1.69707
1.69688
1.69581
1.6965
1.69532
1.69624
1.69526
1.69585
1.69542
1.69407
1.69507
1.69382
1.69467
1.69329
1.69421
1.69304
1.6936
1.69311
1.69176
1.69262
1.69124
1.69224
1.69054
1.6917
1.69032
1.69104
1.69038
1.68869
1.68988
1.68835
1.68921
1.68752
1.68856
1.68675
1.68782
1.68626
1.68695
1.68632
1.68449
1.68546
1.6836
1.6847
1.68277
1.68391
1.68188
1.68305
1.68126
1.68198
1.681
1.6788
1.68019
1.67817
1.67931
1.677
1.67829
1.67595
1.6772
1.67514
1.67599
1.67498
1.67251
1.6739
1.67154
1.67282
1.67025
1.67166
1.66885
1.67049
1.66804
1.66913
1.66787
1.66507
1.66658
1.66395
1.6654
1.66239
1.66404
1.66108
1.66262
1.65991
1.66089
1.65944
1.65646
1.65806
1.65529
1.65671
1.65365
1.65503
1.65177
1.6533
1.65049
1.65154
1.64997
1.64672
1.64805
1.64505
1.64626
1.6429
1.64451
1.64183
1.64243
1.64069
1.63733
1.63863
1.63547
1.63689
1.63366
1.63463
1.63167
1.63218
1.62997
1.62621
1.62745
1.62426
1.62537
1.62236
1.6225
1.6201
1.61608
1.61729
1.61369
1.61488
1.61164
1.6119
1.60914
1.60477
1.60552
1.60191
1.6031
1.60057
1.59699
1.59674
1.59257
1.59296
1.58905
1.58508
1.58577
1.5824
1.58177
1.57755
1.57174
1.57298
1.56892
1.56952
1.5656
1.55862
1.55919
1.55322
1.5549
1.5513
1.54503
1.54516
1.53826
1.53148
1.53387
1.52972
1.5218
1.52251
1.51359
1.50624
1.50918
1.50395
1.49374
1.49576
1.48599
1.47732
1.4813
1.47023
1.46171
1.45228
1.45911
1.44846
1.44064
1.43375
1.42353
1.43455
1.42651
1.42279
1.42211
1.42145
1.42491
1.43218
1.44944
1.46097
1.47056
1.47589
1.48283
1.48649
1.4918
1.49421
1.49845
1.50024
1.50389
1.50527
1.50849
1.50946
1.51223
1.51289
1.51537
1.51576
1.51796
1.51815
1.52019
1.52022
1.5221
1.52201
1.52377
1.5236
1.52524
1.52498
1.52653
1.5262
1.52767
1.5273
1.52867
1.52829
1.52958
1.5292
1.5304
1.53001
1.53117
1.53078
1.53186
1.53149
1.5325
1.53218
1.53311
1.53279
1.53369
1.53339
1.53423
1.53395
1.53477
1.5345
1.53527
1.53501
1.53578