/*--------------------------------*- C++ -*----------------------------------*\
| =========                 |                                                 |
| \\      /  F ield         | OpenFOAM: The Open Source CFD Toolbox           |
|  \\    /   O peration     | Version:  v2006                                 |
|   \\  /    A nd           | Website:  www.openfoam.com                      |
|    \\/     M anipulation  |                                                 |
\*---------------------------------------------------------------------------*/
FoamFile
{
    version     2.0;
    format      ascii;
    class       volScalarField;
    location    "0.018";
    object      T;
}
// * * * * * * * * * * * * * * * * * * * * * * * * * * * * * * * * * * * * * //

dimensions      [0 0 0 1 0 0 0];


internalField   nonuniform List<scalar> 
10108
(
298.072
298.072
298.072
298.072
298.072
298.072
298.075
298.079
298.086
298.094
298.103
298.112
298.121
298.13
298.14
298.15
298.16
298.171
298.183
298.194
298.207
298.22
298.233
298.246
298.26
298.274
298.289
298.303
298.318
298.333
298.349
298.364
298.38
298.396
298.412
298.427
298.443
298.459
298.474
298.49
298.505
298.52
298.535
298.549
298.564
298.577
298.591
298.604
298.617
298.629
298.641
298.652
298.663
298.673
298.683
298.692
298.701
298.71
298.717
298.722
298.724
298.725
298.725
298.726
298.726
298.726
298.727
298.73
298.735
298.744
298.755
298.799
298.806
298.751
298.736
298.735
298.752
298.819
298.828
298.753
298.733
298.731
298.755
298.833
298.836
298.757
298.731
298.731
298.76
298.839
298.839
298.761
298.731
298.731
298.762
298.839
298.838
298.763
298.731
298.731
298.763
298.836
298.833
298.763
298.73
298.73
298.763
298.831
298.829
298.763
298.73
298.73
298.763
298.825
298.821
298.762
298.729
298.729
298.762
298.819
298.816
298.761
298.729
298.729
298.76
298.813
298.809
298.76
298.729
298.729
298.759
298.806
298.803
298.758
298.729
298.729
298.757
298.8
298.798
298.757
298.729
298.73
298.757
298.797
298.796
298.758
298.731
298.733
298.759
298.796
298.797
298.762
298.736
298.738
298.763
298.798
298.8
298.767
298.742
298.745
298.769
298.801
298.804
298.774
298.75
298.753
298.777
298.806
298.809
298.782
298.759
298.763
298.785
298.811
298.814
298.79
298.769
298.773
298.793
298.816
298.819
298.799
298.779
298.784
298.802
298.821
298.825
298.808
298.791
298.795
298.812
298.827
298.831
298.818
298.802
298.807
298.821
298.833
298.838
298.828
298.814
298.819
298.832
298.84
298.846
298.839
298.827
298.833
298.843
298.849
298.856
298.852
298.842
298.848
298.856
298.859
298.867
298.866
298.858
298.864
298.871
298.872
298.88
298.882
298.875
298.883
298.888
298.885
298.895
298.899
298.895
298.903
298.906
298.902
298.913
298.919
298.916
298.925
298.927
298.922
298.934
298.941
298.939
298.951
298.951
298.944
298.958
298.966
298.966
298.978
298.978
298.97
298.984
298.994
298.994
299.009
299.007
298.998
299.012
299.024
299.026
299.042
299.039
299.029
299.044
299.057
299.06
299.078
299.074
299.062
299.079
299.094
299.098
299.117
299.112
299.099
299.119
299.134
299.14
299.159
299.153
299.139
299.163
299.179
299.185
299.205
299.198
299.183
299.213
299.228
299.234
299.257
299.248
299.232
299.27
299.28
299.285
299.315
299.307
299.293
299.331
299.335
299.339
299.379
299.379
299.369
299.379
299.391
299.398
299.421
299.443
299.547
299.66
299.589
299.468
299.551
299.642
299.658
299.659
299.65
299.624
299.627
299.642
299.655
299.668
299.648
299.628
299.641
299.666
299.685
299.704
299.694
299.67
299.716
299.726
299.728
299.733
299.733
299.731
299.746
299.747
299.747
299.736
299.736
299.737
299.748
299.748
299.748
299.733
299.733
299.733
299.741
299.742
299.742
299.727
299.727
299.727
299.738
299.739
299.739
299.729
299.729
299.729
299.741
299.742
299.743
299.74
299.739
299.739
299.751
299.752
299.752
299.756
299.755
299.755
299.76
299.76
299.761
299.77
299.769
299.768
299.774
299.774
299.774
299.786
299.785
299.783
299.794
299.795
299.797
299.81
299.809
299.807
299.823
299.825
299.827
299.843
299.84
299.839
299.857
299.858
299.861
299.879
299.877
299.876
299.895
299.896
299.898
299.915
299.913
299.914
299.932
299.931
299.932
299.95
299.949
299.95
299.968
299.965
299.966
299.979
299.979
299.983
299.995
299.991
299.99
300
300.001
300.006
300.014
300.009
300.007
300.014
300.016
300.022
300.027
300.021
300.02
300.026
300.026
300.032
300.036
300.03
300.031
300.036
300.034
300.039
300.042
300.037
300.04
300.044
300.039
300.044
300.045
300.041
300.048
300.05
300.042
300.045
300.044
300.042
300.051
300.051
300.041
300.042
300.04
300.04
300.049
300.046
300.035
300.035
300.032
300.032
300.04
300.034
300.025
300.025
300.021
300.021
300.026
300.012
300.009
300.01
300.005
300.004
300.005
299.991
299.99
299.992
299.997
300.005
300.009
300.012
300.012
300.002
299.998
299.982
299.977
299.966
299.96
299.963
299.965
299.995
299.999
299.999
299.999
299.999
299.999
299.999
300
300
300
300
300
300.001
299.998
300.004
300
300.003
299.995
300.066
299.87
299.936
300.033
299.996
299.996
300.001
299.934
299.951
299.99
299.995
300
299.998
299.996
300.01
300.016
300.015
300.022
300.02
300.01
300.014
300.018
300.023
300.02
300.018
300.027
300.04
300.02
300.019
300.019
300.03
300.052
300.062
300.043
300.023
300.034
300.055
300.07
300.075
300.064
300.046
300.056
300.072
300.081
300.086
300.077
300.064
300.071
300.084
300.092
300.097
300.089
300.078
300.084
300.095
300.103
300.108
300.101
300.09
300.096
300.107
300.114
300.12
300.112
300.102
300.106
300.118
300.126
300.133
300.124
300.112
300.118
300.131
300.14
300.147
300.138
300.124
300.13
300.145
300.154
300.161
300.153
300.137
300.144
300.16
300.169
300.177
300.169
300.152
300.159
300.176
300.185
300.194
300.185
300.167
300.175
300.194
300.202
300.212
300.204
300.184
300.192
300.213
300.22
300.23
300.223
300.202
300.21
300.232
300.239
300.248
300.241
300.219
300.227
300.251
300.258
300.268
300.26
300.236
300.245
300.268
300.275
300.281
300.274
300.252
300.257
300.278
300.283
300.289
300.284
300.262
300.27
300.292
300.295
300.306
300.301
300.278
300.285
300.309
300.315
300.326
300.316
300.287
300.291
300.322
300.337
300.344
300.323
300.291
300.293
300.324
300.346
300.346
300.324
300.293
300.296
300.325
300.346
300.346
300.324
300.296
300.297
300.322
300.343
300.338
300.319
300.296
300.297
300.319
300.336
300.336
300.319
300.296
300.297
300.325
300.341
300.342
300.331
300.295
300.291
300.33
300.347
300.41
300.379
300.279
300.327
300.336
300.365
300.364
300.347
300.32
300.32
300.35
300.377
300.389
300.353
300.316
300.299
300.346
300.399
300.402
300.332
300.278
300.262
300.299
300.378
300.422
300.317
300.272
300.249
300.296
300.37
300.348
300.258
300.209
300.156
300.199
300.263
300.372
300.226
300.146
300.166
300.079
299.887
299.91
300.007
299.98
299.844
299.847
299.866
299.793
299.735
299.628
299.382
299.351
299.494
298.691
298.314
298.226
297.559
297.382
297.182
296.911
296.753
296.856
296.829
297.025
297.552
298.273
297.733
297.678
297.995
298.234
298.737
298.933
298.62
298.422
298.729
298.969
299.127
299.191
298.948
298.695
298.939
299.087
299.25
299.374
299.286
299.075
299.04
299.206
299.34
299.375
299.273
299.183
299.249
299.401
299.446
299.399
299.324
299.213
299.309
299.365
299.433
299.503
299.466
299.346
299.327
299.407
299.464
299.49
299.438
299.391
299.429
299.513
299.544
299.511
299.463
299.392
299.444
299.488
299.534
299.58
299.553
299.471
299.449
299.511
299.554
299.578
299.534
299.486
299.521
299.589
299.615
299.591
299.546
299.487
299.514
299.566
299.613
299.649
299.621
299.552
299.524
299.579
299.628
299.648
299.598
299.538
299.596
299.65
299.686
299.659
299.599
299.548
299.56
299.632
299.686
299.713
299.68
299.618
299.57
299.614
299.688
299.688
299.685
299.605
299.561
299.684
299.852
299.778
299.516
299.584
299.595
299.664
299.791
299.724
299.602
299.561
299.575
299.637
299.732
299.752
299.695
299.643
299.57
299.622
299.728
299.712
299.679
299.595
299.56
299.722
299.847
299.78
299.524
299.572
299.596
299.671
299.798
299.711
299.581
299.54
299.55
299.626
299.725
299.743
299.684
299.624
299.547
299.605
299.703
299.725
299.653
299.598
299.495
299.557
299.669
299.688
299.597
299.508
299.589
299.648
299.704
299.65
299.551
299.491
299.537
299.592
299.663
299.608
299.5
299.443
299.456
299.546
299.637
299.65
299.592
299.536
299.431
299.489
299.586
299.6
299.526
299.477
299.371
299.429
299.543
299.575
299.475
299.384
299.46
299.517
299.581
299.516
299.415
299.36
299.403
299.454
299.532
299.474
299.361
299.307
299.319
299.408
299.511
299.516
299.451
299.39
299.299
299.35
299.454
299.469
299.388
299.336
299.242
299.296
299.412
299.445
299.353
299.298
299.19
299.253
299.411
299.398
299.309
299.223
299.171
299.446
299.385
299.437
299.107
299.201
299.19
299.317
299.371
299.345
299.188
299.141
299.195
299.256
299.363
299.292
299.146
299.089
299.095
299.214
299.318
299.251
299.365
299.099
299.123
299.048
299.319
299.276
299.256
299.116
299.04
299.086
299.238
299.252
299.151
299.08
298.986
299.043
299.194
299.219
299.105
299.048
298.932
298.996
299.155
299.198
299.097
298.989
298.903
299.24
299.13
299.256
298.776
298.965
298.908
299.093
299.094
299.11
298.923
298.886
298.929
299.024
299.126
299.086
298.914
298.863
298.919
298.975
299.1
299.022
298.856
298.794
298.807
298.921
299.053
299.05
298.956
298.898
298.785
298.844
298.982
299.015
298.899
298.842
298.708
298.776
298.953
298.969
298.843
298.76
298.649
298.716
298.903
298.915
298.781
298.707
298.588
298.658
298.836
298.855
298.722
298.656
298.524
298.592
298.791
298.808
298.668
298.543
298.578
298.753
298.781
298.765
298.496
298.529
298.519
298.677
298.717
298.699
298.495
298.453
298.498
298.6
298.71
298.671
298.448
298.402
298.45
298.546
298.681
298.611
298.395
298.339
298.407
298.471
298.626
298.534
298.327
298.258
298.272
298.387
298.573
298.576
298.441
298.395
298.249
298.357
298.452
298.538
298.336
298.315
298.179
298.259
298.455
298.482
298.313
298.243
298.118
298.203
298.403
298.443
298.257
298.193
298.038
298.127
298.338
298.374
298.189
298.12
297.961
298.038
298.277
298.312
298.134
297.992
298.022
298.225
298.291
298.265
297.931
297.97
297.953
298.14
298.188
298.186
297.929
297.884
297.93
298.067
298.183
298.149
297.866
297.828
297.867
297.991
298.131
298.063
297.805
297.756
297.826
297.906
298.075
297.985
297.72
297.644
297.668
297.775
298.022
298.075
297.778
297.824
297.588
297.786
297.773
297.935
297.668
297.675
297.52
297.61
297.815
297.857
297.654
297.592
297.422
297.523
297.763
297.795
297.567
297.505
297.315
297.423
297.671
297.7
297.467
297.407
297.169
297.285
297.558
297.61
297.316
297.187
297.373
297.38
297.643
297.368
297.325
297.12
297.206
297.213
297.543
297.36
297.138
297.034
297.094
297.132
297.389
297.277
297.008
296.909
296.974
297.033
297.282
297.156
296.878
296.751
296.858
296.934
297.204
297.038
296.72
296.589
296.599
296.754
297.085
297.058
296.838
296.728
296.496
296.635
296.829
296.897
296.565
296.556
296.306
296.435
296.751
296.793
296.518
296.399
296.167
296.276
296.627
296.666
296.378
296.273
296.003
296.132
296.508
296.527
296.152
295.994
296.087
296.229
296.478
296.278
295.86
295.884
295.881
296.115
296.22
296.163
295.776
295.726
295.771
295.934
296.143
296.038
295.595
295.534
295.592
295.741
295.991
295.836
295.417
295.304
295.248
295.393
295.789
295.741
295.457
295.334
295.086
295.148
295.574
295.563
295.343
295.133
294.918
294.974
295.455
295.397
295.119
294.97
294.659
294.771
295.224
295.195
294.759
294.595
294.647
294.789
295.064
294.894
294.493
294.364
294.459
294.605
294.959
294.756
294.296
294.185
294.249
294.404
294.765
294.533
294.088
293.958
293.861
294.027
294.49
294.411
294.048
293.903
293.561
293.703
294.13
294.175
293.815
293.643
293.396
293.526
294.01
293.987
293.523
293.291
293.517
293.474
294.043
293.472
293.314
293.095
293.097
293.027
293.549
293.198
292.767
292.612
292.569
292.807
293.316
293.321
292.942
292.771
292.356
292.516
293.046
293.01
292.605
292.398
292.009
292.151
292.657
292.444
291.907
291.743
291.826
292.038
292.429
292.195
291.659
291.516
291.549
291.799
292.217
291.94
291.397
291.235
290.954
291.244
291.846
291.772
291.253
291.012
290.447
290.591
291.126
291.196
290.76
290.515
290.237
290.393
290.998
290.995
290.393
290.045
290.136
290.406
290.804
290.115
289.666
289.534
289.196
289.363
289.985
290.039
289.583
289.253
288.99
289.151
289.781
289.767
289.105
288.671
288.768
289.028
289.493
288.636
288.103
287.994
287.676
287.879
288.662
288.694
288.124
287.75
287.414
287.611
288.274
288.153
287.396
286.867
286.986
287.217
287.696
287.07
286.235
286.11
285.994
286.345
287.257
287.018
286.309
285.962
285.296
285.39
285.702
285.599
284.786
284.69
284.473
284.83
285.822
285.562
284.758
284.506
283.772
283.875
284.173
284.286
283.268
283.23
282.987
283.331
284.497
283.636
282.726
282.557
282.804
283.057
284.151
283.69
282.393
282.118
282.006
282.325
283.712
284.306
282.592
282.055
282.195
282.838
284.62
285.661
283.463
282.657
283.754
284.738
287.321
288.835
286.124
284.928
286.394
287.852
290.665
291.474
288.883
287.359
288.1
289.815
292.29
292.662
290.442
288.719
289.312
291.176
293.239
293.461
291.624
289.808
290.288
292.191
293.843
293.975
292.497
290.69
291.106
292.946
294.238
294.33
293.165
291.447
291.816
293.527
294.525
294.591
293.688
292.109
292.433
293.968
294.739
294.785
294.085
292.672
292.948
294.296
294.896
294.926
294.381
293.143
293.375
294.538
295.01
295.029
294.598
293.526
293.716
294.716
295.091
295.102
294.757
293.832
293.985
294.847
295.149
295.154
294.876
294.074
294.19
294.946
295.188
295.185
294.963
294.26
294.346
295.016
295.209
295.202
295.024
294.397
294.456
295.06
295.219
295.207
295.056
294.491
294.531
295.082
295.22
295.204
295.068
294.544
294.575
295.086
295.212
295.194
295.064
294.57
294.592
295.074
295.197
295.178
295.046
294.576
294.592
295.049
295.176
295.153
295.018
294.569
294.579
295.014
295.148
295.121
294.98
294.551
294.558
294.972
295.114
295.083
294.934
294.525
294.529
294.924
295.073
295.04
294.884
294.493
294.495
294.872
295.029
294.993
294.829
294.461
294.456
294.816
294.98
294.941
294.771
294.426
294.415
294.758
294.927
294.886
294.713
294.388
294.373
294.699
294.871
294.828
294.653
294.346
294.331
294.639
294.814
294.769
294.593
294.302
294.288
294.579
294.754
294.709
294.533
294.259
294.246
294.52
294.694
294.648
294.475
294.216
294.204
294.462
294.633
294.587
294.418
294.174
294.163
294.404
294.572
294.527
294.361
294.133
294.121
294.349
294.512
294.468
294.307
294.093
294.082
294.295
294.453
294.41
294.254
294.054
294.042
294.242
294.395
294.353
294.203
294.014
294.004
294.192
294.339
294.298
294.153
293.977
293.967
294.143
294.284
294.245
294.105
293.939
293.931
294.096
294.231
294.193
294.059
293.904
293.895
294.05
294.18
294.143
294.015
293.869
293.861
294.007
294.131
294.094
293.972
293.835
293.826
293.965
294.083
294.048
293.932
293.801
293.793
293.924
294.038
294.004
293.892
293.769
293.76
293.885
293.994
293.962
293.855
293.736
293.729
293.848
293.952
293.921
293.818
293.705
293.697
293.812
293.912
293.882
293.783
293.674
293.667
293.777
293.873
293.845
293.749
293.644
293.637
293.744
293.836
293.809
293.716
293.614
293.609
293.711
293.801
293.775
293.685
293.587
293.58
293.681
293.767
293.743
293.655
293.559
293.554
293.651
293.735
293.711
293.625
293.532
293.527
293.622
293.704
293.681
293.597
293.506
293.502
293.594
293.674
293.653
293.57
293.481
293.477
293.567
293.646
293.625
293.544
293.457
293.453
293.542
293.619
293.598
293.519
293.434
293.43
293.517
293.593
293.573
293.495
293.41
293.408
293.493
293.568
293.549
293.471
293.389
293.386
293.47
293.544
293.525
293.449
293.367
293.367
293.448
293.52
293.502
293.427
293.347
293.346
293.427
293.498
293.481
293.407
293.327
293.328
293.407
293.477
293.46
293.387
293.308
293.309
293.388
293.457
293.44
293.368
293.29
293.292
293.369
293.437
293.421
293.35
293.272
293.274
293.351
293.419
293.403
293.332
293.255
293.259
293.334
293.401
293.385
293.315
293.239
293.242
293.317
293.383
293.368
293.298
293.223
293.228
293.301
293.367
293.352
293.283
293.208
293.212
293.286
293.35
293.336
293.267
293.193
293.198
293.271
293.335
293.321
293.253
293.18
293.184
293.256
293.32
293.306
293.238
293.166
293.171
293.242
293.305
293.292
293.225
293.153
293.157
293.228
293.291
293.278
293.211
293.139
293.146
293.215
293.277
293.264
293.198
293.127
293.133
293.203
293.264
293.251
293.186
293.115
293.122
293.19
293.251
293.238
293.173
293.104
293.109
293.178
293.238
293.225
293.161
293.092
293.099
293.166
293.226
293.213
293.15
293.081
293.087
293.155
293.214
293.201
293.139
293.07
293.078
293.144
293.202
293.19
293.128
293.06
293.067
293.133
293.19
293.178
293.117
293.049
293.058
293.122
293.179
293.167
293.106
293.04
293.047
293.112
293.168
293.156
293.096
293.03
293.038
293.102
293.157
293.145
293.086
293.02
293.028
293.091
293.146
293.134
293.076
293.01
293.019
293.081
293.136
293.124
293.066
293.001
293.009
293.071
293.125
293.113
293.056
292.992
293.001
293.062
293.115
293.103
293.046
292.983
292.99
293.052
293.104
293.093
293.036
292.973
292.982
293.042
293.094
293.083
293.026
292.964
292.972
293.032
293.084
293.073
293.017
292.954
292.963
293.023
293.074
293.063
293.007
292.946
292.953
293.013
293.064
293.053
292.997
292.936
292.945
293.004
293.055
293.043
292.988
292.928
292.936
292.995
293.045
293.034
292.979
292.919
292.928
292.986
293.036
293.025
292.971
292.911
292.919
292.977
293.027
293.016
292.962
292.902
292.912
292.969
293.018
293.007
292.953
292.894
292.903
292.96
293.01
292.998
292.946
292.887
292.895
292.953
292.999
292.99
292.938
292.878
292.885
292.943
292.992
292.982
292.928
292.87
292.875
292.935
292.982
292.975
292.921
292.862
292.865
292.924
292.975
292.969
292.913
292.854
292.849
292.911
292.967
292.954
292.894
292.826
292.773
292.879
292.936
292.888
292.837
292.733
292.745
292.837
292.867
292.607
291.839
291.468
291.328
290.711
290.316
290.043
289.914
289.615
289.417
289.139
288.906
288.714
288.555
288.43
288.338
288.274
288.23
288.201
288.181
288.166
288.157
288.149
288.144
288.14
288.137
288.135
288.133
288.132
288.131
288.13
288.13
288.13
288.129
288.127
288.125
288.123
288.121
288.12
288.118
288.116
288.115
288.114
288.113
288.113
288.112
288.112
288.111
288.111
288.112
288.115
288.12
288.127
288.137
288.148
288.161
288.176
288.193
288.212
288.233
288.256
288.282
288.312
288.344
288.38
288.421
288.466
288.517
288.573
288.636
288.706
288.783
288.869
288.963
289.067
289.18
289.304
289.438
289.583
289.739
289.905
290.081
290.266
290.461
290.663
290.872
291.087
291.307
291.53
291.755
291.982
292.208
292.433
292.656
292.876
293.092
293.304
293.511
293.713
293.909
294.099
294.283
294.46
294.632
294.797
294.956
295.109
295.256
295.398
295.534
295.665
295.791
295.913
296.029
296.142
296.25
296.354
296.454
296.551
296.643
296.733
296.819
296.901
296.98
297.055
297.128
297.196
297.262
297.324
297.383
297.439
297.492
297.542
297.589
297.633
297.674
297.714
297.751
297.785
297.818
297.85
297.879
297.907
297.934
297.959
297.982
298.005
298.025
298.044
298.061
298.077
298.09
298.101
298.11
298.117
298.121
298.123
298.123
298.121
298.117
298.111
298.104
298.096
298.087
298.08
298.075
298.073
298.072
298.072
298.072
298.072
298.074
298.077
298.083
298.09
298.097
298.105
298.114
298.123
298.132
298.142
298.151
298.161
298.172
298.183
298.194
298.206
298.218
298.231
298.244
298.257
298.27
298.284
298.298
298.313
298.327
298.342
298.356
298.371
298.387
298.402
298.417
298.432
298.448
298.463
298.478
298.493
298.508
298.522
298.536
298.551
298.564
298.578
298.591
298.604
298.616
298.628
298.64
298.651
298.662
298.672
298.682
298.691
298.699
298.706
298.71
298.713
298.716
298.717
298.718
298.715
298.715
298.717
298.714
298.712
298.71
298.708
298.706
298.705
298.703
298.702
298.701
298.7
298.699
298.699
298.698
298.698
298.698
298.698
298.698
298.699
298.7
298.701
298.703
298.705
298.708
298.711
298.715
298.719
298.724
298.729
298.734
298.74
298.745
298.752
298.758
298.764
298.771
298.778
298.784
298.792
298.799
298.807
298.814
298.823
298.831
298.841
298.85
298.86
298.87
298.881
298.892
298.904
298.916
298.93
298.942
298.957
298.971
298.988
299.003
299.021
299.037
299.056
299.074
299.096
299.115
299.138
299.159
299.184
299.207
299.233
299.258
299.285
299.314
299.339
299.37
299.395
299.416
299.437
299.473
299.511
299.56
299.58
299.589
299.612
299.678
299.717
299.742
299.734
299.747
299.733
299.741
299.726
299.738
299.729
299.741
299.738
299.75
299.754
299.76
299.767
299.773
299.782
299.792
299.805
299.82
299.836
299.854
299.874
299.895
299.915
299.935
299.954
299.974
299.991
300.005
300.017
300.026
300.034
300.04
300.045
300.049
300.052
300.054
300.055
300.055
300.054
300.052
300.049
300.046
300.041
300.038
300.03
300.026
300.015
300.01
300.017
300.021
300.028
300.023
300.034
300.04
300.048
300.04
300.048
300.056
300.05
300.037
300.027
300.022
300.022
300.027
300.038
300.023
300.014
300.01
300.005
300.01
300.019
300.035
300.057
300.069
300.063
300.052
300.058
300.069
300.075
300.062
300.066
300.08
300.087
300.105
300.086
300.069
300.072
300.089
300.094
300.074
300.073
300.093
300.122
300.129
300.097
300.073
300.07
300.091
300.094
300.068
300.062
300.085
300.131
300.124
300.085
300.057
300.047
300.071
300.068
300.039
300.023
300.045
300.103
300.059
300.032
300.009
299.987
300.003
299.978
299.964
299.941
299.949
299.989
299.921
299.921
299.918
299.895
299.896
299.868
299.871
299.85
299.847
299.861
299.816
299.824
299.83
299.814
299.811
299.795
299.8
299.789
299.787
299.79
299.774
299.777
299.779
299.771
299.771
299.766
299.766
299.759
299.761
299.766
299.753
299.754
299.754
299.75
299.747
299.737
299.739
299.738
299.732
299.722
299.711
299.727
299.727
299.733
299.729
299.715
299.725
299.737
299.735
299.703
299.654
299.692
299.734
299.737
299.695
299.637
299.713
299.699
299.634
299.608
299.569
299.596
299.635
299.61
299.592
299.562
299.591
299.573
299.554
299.512
299.445
299.517
299.548
299.509
299.483
299.454
299.477
299.445
299.423
299.392
299.344
299.402
299.422
299.396
299.375
299.356
299.377
299.349
299.328
299.302
299.259
299.309
299.327
299.299
299.28
299.259
299.274
299.246
299.23
299.214
299.168
299.208
299.222
299.195
299.181
299.16
299.173
299.148
299.134
299.123
299.08
299.115
299.127
299.103
299.091
299.072
299.084
299.063
299.051
299.04
299.003
299.033
299.045
299.025
299.013
298.997
299.009
298.991
298.979
298.968
298.936
298.964
298.975
298.959
298.947
298.933
298.945
298.929
298.918
298.907
298.879
298.905
298.916
298.903
298.891
298.879
298.891
298.878
298.866
298.854
298.831
298.855
298.867
298.855
298.843
298.832
298.845
298.834
298.822
298.809
298.789
298.812
298.824
298.815
298.802
298.793
298.806
298.797
298.784
298.77
298.753
298.775
298.789
298.781
298.768
298.759
298.773
298.765
298.752
298.738
298.724
298.744
298.758
298.751
298.738
298.731
298.744
298.738
298.725
298.711
298.699
298.718
298.731
298.726
298.713
298.707
298.72
298.715
298.702
298.689
298.681
298.697
298.709
298.705
298.693
298.689
298.7
298.697
298.686
298.675
298.67
298.682
298.693
298.69
298.68
298.678
298.688
298.686
298.677
298.667
298.666
298.675
298.684
298.683
298.675
298.674
298.682
298.682
298.675
298.666
298.668
298.675
298.682
298.683
298.676
298.676
298.683
298.684
298.678
298.671
298.676
298.68
298.685
298.687
298.682
298.684
298.688
298.69
298.686
298.681
298.688
298.689
298.692
298.694
298.692
298.695
298.697
298.7
298.698
298.695
298.703
298.701
298.703
298.705
298.705
298.708
298.709
298.712
298.712
298.711
298.711
298.703
298.695
298.687
298.68
298.674
298.668
298.665
298.662
298.661
298.661
298.663
298.667
298.672
298.679
298.688
298.698
298.71
298.724
298.739
298.756
298.774
298.793
298.814
298.837
298.861
298.888
298.916
298.947
298.98
299.016
299.054
299.094
299.136
299.179
299.221
299.263
299.304
299.348
299.397
299.451
299.506
299.557
299.6
299.649
299.687
299.716
299.74
299.755
299.773
299.786
299.806
299.852
299.93
300.02
300.099
300.148
300.165
300.165
300.154
300.13
300.103
300.079
300.043
300.019
299.998
299.99
299.986
299.984
299.977
299.98
299.986
299.97
299.967
299.966
299.958
299.96
299.967
299.976
299.999
300.021
299.999
299.978
299.968
299.962
299.962
299.969
299.981
299.996
299.992
299.993
299.997
299.996
299.997
300.013
300.029
300.045
300.04
300.024
300.051
300.072
300.106
300.144
300.114
300.082
300.083
300.061
300.062
300.081
300.099
300.105
300.127
300.145
300.173
300.18
300.17
300.176
300.172
300.139
300.16
300.165
300.165
300.148
300.134
300.115
300.105
300.093
300.078
300.06
300.042
300.023
300.003
299.999
299.998
299.998
299.998
299.998
299.998
299.999
299.998
299.998
299.998
299.998
299.999
300.004
300.024
300.015
300.006
300.001
299.999
299.998
299.998
299.998
299.999
299.998
299.999
300.002
300.001
299.999
299.998
300.001
300
299.999
299.998
299.999
300.002
299.999
300
300.003
300.005
300.001
300.005
300.002
300.006
300.015
300.026
300.027
300.039
300.043
300.059
300.076
300.09
300.093
300.082
300.075
300.065
300.059
300.048
300.051
300.04
300.038
300.028
300.024
300.016
300.013
300.008
300.008
300.004
300.009
300.008
300.011
300.011
300.015
300.018
300.027
300.032
300.044
300.049
300.042
300.051
300.054
300.063
300.059
300.073
300.064
300.063
300.07
300.075
300.066
300.076
300.086
300.089
300.076
300.085
300.08
300.086
300.097
300.103
300.099
300.108
300.102
300.117
300.122
300.14
300.152
300.159
300.15
300.136
300.105
300.055
299.949
299.997
299.884
299.859
299.812
299.823
299.846
299.931
300.051
300.101
299.995
299.885
299.957
300.07
300.133
300.154
300.153
300.148
300.133
300.139
300.128
300.124
300.113
300.119
300.114
300.121
300.111
300.111
300.102
300.101
300.094
300.093
300.086
300.099
300.097
300.106
300.109
300.116
300.119
300.127
300.13
300.139
300.143
300.122
300.131
300.131
300.156
300.153
300.167
300.141
300.131
300.135
300.152
300.142
300.17
300.18
300.183
300.152
300.161
300.147
300.151
300.146
300.153
300.165
300.169
300.159
300.176
300.173
300.17
300.163
300.197
300.192
300.205
300.211
300.214
300.222
300.183
300.187
300.195
300.239
300.229
300.24
300.196
300.181
300.172
300.157
300.159
300.15
300.064
300.163
300.19
300.188
300.185
300.176
300.177
300.189
300.188
300.198
300.213
300.216
300.207
300.213
300.209
300.211
300.248
300.246
300.247
300.244
300.252
300.252
300.258
300.222
300.221
300.205
300.217
300.211
300.181
300.117
300.042
299.938
299.87
299.831
299.811
299.798
299.793
299.776
299.786
299.764
299.758
299.735
299.732
299.727
299.77
299.797
299.807
299.773
299.72
299.653
299.675
299.692
299.706
299.668
299.642
299.588
299.621
299.57
299.532
299.493
299.556
299.615
299.586
299.517
299.449
299.386
299.433
299.475
299.518
299.462
299.418
299.365
299.407
299.356
299.316
299.275
299.323
299.375
299.328
299.276
299.229
299.186
299.23
299.271
299.31
299.267
299.229
299.188
299.226
299.185
299.149
299.112
299.149
299.189
299.146
299.109
299.073
299.033
299.066
299.101
299.138
299.179
299.224
299.274
299.331
299.395
299.466
299.547
299.626
299.71
299.784
299.83
299.842
299.791
299.696
299.567
299.749
299.91
299.925
299.996
300.051
300.111
300.186
300.215
300.227
300.244
300.239
300.242
300.234
300.236
300.266
300.258
300.264
300.266
300.267
300.273
300.254
300.247
300.285
300.294
300.295
300.276
300.228
300.21
300.165
300.131
300.101
300.15
300.18
300.239
300.264
300.209
300.168
300.109
300.058
299.977
299.904
299.972
300.025
300.067
300.119
300.185
300.216
300.143
300.076
300.008
300.086
299.96
299.884
299.805
299.738
299.768
299.834
299.867
299.773
299.639
299.689
299.502
299.506
299.593
299.273
299.424
299.519
299.449
299.461
299.364
299.629
299.789
299.92
300.005
299.237
299.13
299.103
299.3
299.1
298.656
298.571
298.361
298.413
297.738
298.261
297.528
296.869
296.954
297.555
297.328
298.211
297.332
297.533
297.314
297.753
297.836
298.202
298.589
298.479
298.665
299.011
298.832
298.975
299.213
299.045
299.176
299.334
299.183
299.261
299.404
299.264
299.351
299.459
299.331
299.388
299.496
299.365
299.422
299.53
299.384
299.427
299.547
299.401
299.448
299.57
299.42
299.46
299.571
299.418
299.555
299.391
299.436
299.557
299.395
299.427
299.55
299.382
299.525
299.343
299.384
299.529
299.332
299.46
299.296
299.331
299.472
299.287
299.41
299.23
299.268
299.415
299.216
299.336
299.175
299.207
299.344
299.158
299.282
299.106
299.142
299.29
299.066
299.223
299.003
299.159
298.97
299
299.143
298.953
299.122
298.895
299.053
298.851
298.891
299.066
298.822
299.008
298.768
298.974
298.708
298.885
298.688
298.737
298.918
298.675
298.863
298.612
298.845
298.542
298.746
298.49
298.543
298.743
298.447
298.664
298.391
298.629
298.307
298.557
298.246
298.467
298.199
298.247
298.467
298.191
298.429
298.104
298.359
298.035
298.311
297.956
298.189
297.904
297.975
298.22
297.862
298.131
297.771
298.073
297.683
297.992
297.62
297.895
297.561
297.63
297.913
297.554
297.846
297.457
297.778
297.361
297.717
297.255
297.561
297.178
297.253
297.549
297.128
297.441
296.996
297.369
296.883
297.254
296.761
297.078
296.671
296.746
297.055
296.641
296.966
296.483
296.817
296.327
296.671
296.198
296.499
296.076
296.136
296.413
295.965
296.255
295.775
296.1
295.645
295.92
295.522
295.571
295.8
295.384
295.638
295.172
295.453
295.007
295.241
294.793
294.81
294.988
294.625
294.856
294.381
294.593
294.157
294.165
294.321
293.95
294.138
293.745
293.939
293.424
293.403
293.518
293.17
293.275
292.906
292.921
292.925
292.575
292.622
292.186
292.142
292.263
291.941
292.006
291.505
291.401
291.431
291.129
291.173
290.638
290.455
290.453
290.11
290.131
289.739
289.574
289.564
289.075
288.876
288.904
288.447
288.181
288.084
287.567
287.309
287.339
286.815
286.423
286.207
285.801
285.405
285.425
284.74
284.355
283.909
283.91
283.278
282.829
282.489
282.198
281.978
282.158
281.916
281.972
282.093
282.506
283.057
284.107
285.101
286.079
286.535
287.218
287.503
288.056
288.235
288.691
288.824
289.224
289.329
289.693
289.772
290.099
290.158
290.46
290.5
290.778
290.805
291.068
291.083
291.331
291.336
291.57
291.568
291.788
291.78
291.989
291.977
292.174
292.157
292.344
292.322
292.498
292.472
292.637
292.607
292.763
292.73
292.875
292.84
292.975
292.941
293.06
293.028
293.14
293.106
293.208
293.174
293.266
293.231
293.316
293.279
293.36
293.32