/*--------------------------------*- C++ -*----------------------------------*\
| =========                 |                                                 |
| \\      /  F ield         | OpenFOAM: The Open Source CFD Toolbox           |
|  \\    /   O peration     | Version:  v2006                                 |
|   \\  /    A nd           | Website:  www.openfoam.com                      |
|    \\/     M anipulation  |                                                 |
\*---------------------------------------------------------------------------*/
FoamFile
{
    version     2.0;
    format      ascii;
    class       volScalarField;
    location    "0.009";
    object      T;
}
// * * * * * * * * * * * * * * * * * * * * * * * * * * * * * * * * * * * * * //

dimensions      [0 0 0 1 0 0 0];


internalField   nonuniform List<scalar> 
31566
(
304.867
305.018
304.807
304.592
304.191
303.717
303.11
302.469
301.822
301.249
300.763
300.375
300.083
299.871
299.727
299.638
299.593
299.582
299.595
299.623
299.66
299.7
299.739
299.776
299.808
299.832
299.839
299.748
299.755
299.781
299.792
299.773
299.724
299.686
299.675
299.688
299.672
299.647
299.617
299.594
299.58
299.573
299.571
299.575
299.582
299.592
299.604
299.616
299.628
299.639
299.649
299.658
299.666
299.674
299.681
299.688
299.694
299.7
299.706
299.712
299.717
299.722
299.727
299.732
299.737
299.741
299.745
299.75
299.754
299.758
299.762
299.765
299.769
299.773
299.776
299.779
299.782
299.785
299.787
299.79
299.792
299.795
299.797
299.8
299.802
299.804
299.806
299.808
299.809
299.811
299.812
299.812
299.813
299.814
299.814
299.815
299.815
299.815
299.815
299.815
299.814
299.816
299.818
299.818
299.818
299.819
299.822
299.824
299.827
299.836
299.833
299.821
299.818
299.808
299.812
299.828
299.824
299.804
299.799
299.791
299.798
299.821
299.819
299.793
299.785
299.78
299.79
299.818
299.818
299.789
299.776
299.773
299.787
299.817
299.817
299.786
299.771
299.769
299.785
299.814
299.81
299.783
299.766
299.764
299.78
299.803
299.796
299.776
299.761
299.757
299.771
299.79
299.785
299.767
299.754
299.75
299.763
299.782
299.782
299.761
299.747
299.745
299.76
299.784
299.788
299.76
299.744
299.744
299.762
299.791
299.793
299.765
299.744
299.746
299.767
299.792
299.788
299.768
299.747
299.748
299.767
299.782
299.776
299.766
299.749
299.749
299.764
299.771
299.769
299.761
299.749
299.749
299.759
299.768
299.771
299.759
299.749
299.75
299.759
299.777
299.786
299.762
299.752
299.754
299.766
299.797
299.809
299.771
299.756
299.759
299.777
299.824
299.84
299.785
299.762
299.766
299.795
299.857
299.875
299.807
299.771
299.778
299.819
299.893
299.91
299.833
299.785
299.794
299.848
299.926
299.941
299.862
299.805
299.817
299.878
299.955
299.968
299.893
299.829
299.843
299.907
299.978
299.988
299.921
299.856
299.87
299.934
299.996
300.002
299.945
299.882
299.894
299.955
300.007
300.009
299.965
299.906
299.919
299.973
300.011
300.009
299.98
299.929
299.938
299.983
300.003
299.997
299.986
299.947
299.955
299.988
299.989
299.978
299.987
299.961
299.964
299.983
299.964
299.953
299.981
299.969
299.972
299.976
299.939
299.918
299.963
299.967
299.971
299.96
299.909
299.891
299.949
299.968
299.95
299.922
299.86
299.864
299.925
299.957
299.949
299.912
299.849
299.798
299.863
299.908
299.908
299.862
299.8
299.813
299.873
299.919
299.879
299.829
299.765
299.744
299.807
299.858
299.868
299.82
299.758
299.718
299.786
299.838
299.808
299.755
299.685
299.71
299.781
299.831
299.815
299.762
299.685
299.611
299.694
299.755
299.76
299.701
299.616
299.651
299.736
299.793
299.739
299.673
299.581
299.5
299.596
299.669
299.684
299.615
299.523
299.574
299.668
299.737
299.723
299.65
299.554
299.48
299.576
299.651
299.6
299.525
299.431
299.405
299.498
299.575
299.564
299.49
299.399
299.391
299.481
299.555
299.542
299.47
299.383
299.376
299.462
299.533
299.52
299.451
299.368
299.356
299.436
299.504
299.481
299.416
299.339
299.32
299.394
299.46
299.444
299.381
299.309
299.31
299.379
299.437
299.422
299.369
299.302
299.276
299.342
299.398
299.37
299.317
299.251
299.228
299.292
299.344
299.318
299.268
299.203
299.195
299.26
299.309
299.307
299.259
299.193
299.181
299.247
299.296
299.28
299.231
299.163
299.155
299.224
299.274
299.267
299.221
299.154
299.133
299.202
299.249
299.216
299.166
299.097
299.067
299.135
299.185
299.157
299.108
299.043
299.019
299.083
299.132
299.112
299.064
299.003
298.995
299.052
299.099
299.079
299.035
298.982
298.964
299.012
299.054
299.035
298.995
298.951
298.955
298.994
299.032
299.032
298.998
298.965
298.962
298.99
299.02
298.978
298.952
298.928
298.892
298.913
298.941
298.961
298.942
298.928
298.981
298.99
299.001
298.959
298.946
298.936
298.879
298.886
298.9
298.914
298.906
298.905
298.937
298.934
298.936
298.878
298.875
298.877
298.842
298.837
298.84
298.892
298.898
298.909
298.944
298.929
298.92
298.862
298.869
298.884
298.849
298.831
298.821
298.841
298.856
298.88
298.914
298.886
298.868
298.865
298.887
298.921
298.891
298.854
298.831
298.828
298.854
298.897
298.942
298.892
298.857
298.855
298.893
298.949
298.915
298.854
298.815
298.786
298.832
298.9
298.891
298.816
298.765
298.741
298.797
298.877
298.896
298.809
298.748
298.796
298.862
298.954
298.98
298.882
298.809
298.772
298.847
298.949
298.932
298.827
298.749
298.774
298.859
298.971
298.971
298.857
298.769
298.727
298.814
298.93
298.973
298.849
298.755
298.818
298.919
299.047
299.03
298.9
298.801
298.748
298.848
298.982
299.008
298.866
298.761
298.83
298.941
299.087
299.111
298.961
298.846
298.791
298.904
299.056
299.058
298.901
298.784
298.867
298.992
299.156
299.199
299.032
298.903
298.841
298.966
299.132
299.085
298.919
298.794
298.825
298.955
299.126
299.209
299.038
298.905
298.938
299.072
299.244
299.242
299.07
298.936
298.949
299.082
299.256
299.292
299.115
298.98
298.97
299.104
299.281
299.272
299.094
298.962
299.012
299.147
299.328
299.368
299.188
299.05
299.049
299.183
299.359
299.403
299.226
299.089
299.154
299.292
299.466
299.443
299.274
299.142
299.116
299.245
299.415
299.45
299.277
299.145
299.192
299.325
299.502
299.488
299.309
299.177
299.176
299.307
299.488
299.566
299.38
299.244
299.295
299.432
299.617
299.588
299.408
299.273
299.28
299.414
299.591
299.659
299.485
299.349
299.399
299.533
299.702
299.681
299.516
299.385
299.387
299.515
299.68
299.766
299.595
299.464
299.511
299.641
299.816
299.765
299.587
299.46
299.454
299.581
299.764
299.87
299.681
299.547
299.615
299.752
299.945
299.909
299.72
299.585
299.558
299.691
299.878
299.949
299.759
299.62
299.728
299.869
300.054
300.08
299.9
299.761
299.702
299.835
300.009
299.985
299.818
299.689
299.772
299.904
300.073
300.171
300.007
299.877
299.917
300.044
300.206
300.161
300.003
299.88
299.876
299.994
300.152
300.237
300.074
299.951
299.997
300.119
300.282
300.237
300.078
299.961
300.001
300.123
300.287
300.424
300.262
300.136
300.178
300.302
300.462
300.369
300.214
300.094
300.055
300.171
300.322
300.407
300.254
300.131
300.283
300.407
300.553
300.636
300.489
300.361
300.328
300.448
300.586
300.527
300.39
300.272
300.314
300.432
300.566
300.716
300.584
300.463
300.543
300.667
300.799
300.758
300.634
300.515
300.464
300.583
300.706
300.742
300.623
300.5
300.622
300.747
300.859
300.915
300.81
300.687
300.663
300.777
300.874
300.877
300.782
300.675
300.77
300.877
300.972
301.022
300.93
300.825
300.803
300.901
300.984
300.977
300.9
300.808
300.876
300.97
301.05
301.089
301.01
300.915
300.888
300.978
301.048
300.939
300.962
300.882
300.897
300.855
300.357
300.799
300.76
300.752
300.747
300.733
300.687
300.554
300.215
300.024
299.999
299.997
299.995
299.994
299.991
299.994
299.989
299.995
299.987
299.995
299.986
299.995
299.985
299.994
299.984
299.994
299.983
299.993
299.981
299.993
299.98
299.992
299.979
299.992
299.973
299.995
299.834
300.116
299.998
300.001
300
300.001
300
300
300
300
300
300
300
300
300.001
299.994
300.319
300.101
299.739
299.993
299.988
299.99
300.02
300.006
299.918
299.947
300.036
300.03
300.055
300.08
299.968
299.956
300.12
300.074
300.083
300.132
299.916
299.534
300.108
300.089
300.088
300.055
299.142
298.615
299.947
300.076
300.034
299.832
298.093
297.611
299.298
299.797
299.577
298.988
297.568
297.634
298.801
299.452
299.371
298.74
297.801
297.991
298.671
299.229
299.13
298.633
298.18
298.332
298.558
298.941
298.802
298.511
298.465
298.557
298.406
298.56
298.41
298.326
298.636
298.674
298.178
298.153
297.99
298.076
298.701
298.706
297.906
297.724
297.562
297.804
298.701
298.676
297.619
297.297
297.112
297.496
298.623
298.496
297.258
296.82
296.607
297.111
298.41
298.233
296.855
296.318
296.096
296.697
298.124
297.909
296.42
295.81
295.57
296.253
297.778
297.52
295.944
295.282
295.016
295.761
297.36
297.049
295.414
294.727
294.423
295.208
296.853
296.473
294.809
294.124
293.761
294.573
296.239
295.782
294.107
293.446
293
293.825
295.498
294.933
293.259
292.652
292.081
292.902
294.57
293.837
292.178
291.668
290.906
291.704
293.348
292.35
290.731
290.371
289.284
290.052
291.659
290.213
288.614
288.489
286.632
287.624
289.235
287.206
285.557
285.872
283.652
284.364
285.96
283.717
282.107
282.474
281.103
281.092
282.592
280.447
279.011
279.388
278.75
278.272
279.582
276.413
275.364
276.495
276.325
276.935
279.062
272.932
272.39
273.559
272.056
273.055
272.677
272.484
272.952
272.337
272.173
272.618
272.325
271.507
271.61
272.211
271.227
270.623
270.609
268.388
268.358
269.438
268.638
267.468
267.48
264.063
263.973
265.964
265.751
265.756
266.253
260.977
260.82
262.525
259.84
260.995
259.774
259.175
260.409
259.648
259.095
258.619
257.172
256.16
257.447
257.375
256.87
253.095
251.966
252.36
253.101
255.168
249.554
247.66
247.282
245.235
246.695
246.508
241.663
242.027
240.648
239.409
241.641
241.308
236.268
236.476
236.157
235.372
236.23
236.227
240.093
242.381
238.158
250.174
250.196
254.979
288.826
285.59
286.489
314.931
311.704
303.355
318.238
316.533
317.272
317.381
317.127
316.896
316.964
316.919
317.082
316.828
316.748
316.756
316.661
316.488
316.452
316.395
316.466
316.628
316.579
316.319
316.26
316.131
316.235
316.482
316.447
316.246
316.127
315.979
316.073
316.406
316.318
316.048
315.918
315.906
316.067
316.267
316.273
315.901
315.799
315.734
315.872
316.127
316.113
315.911
315.739
315.633
315.745
316.127
315.979
315.717
315.574
315.587
315.757
315.968
315.98
315.594
315.484
315.424
315.567
315.836
315.824
315.613
315.441
315.336
315.452
315.849
315.675
315.407
315.263
315.282
315.454
315.664
315.695
315.297
315.177
315.103
315.252
315.524
315.524
315.302
315.122
315.009
315.126
315.539
315.373
315.089
314.935
314.956
315.143
315.376
315.383
314.944
314.83
314.757
314.919
315.205
315.209
315.007
314.786
314.666
314.832
315.188
315.047
314.816
314.642
314.579
314.707
315.093
314.91
314.618
314.455
314.468
314.659
314.899
314.909
314.474
314.357
314.264
314.433
314.745
314.724
314.472
314.276
314.164
314.283
314.752
314.576
314.252
314.075
314.103
314.337
314.579
314.509
314.123
313.956
313.936
314.132
314.393
314.446
313.999
313.863
313.731
313.911
314.227
314.217
313.985
313.739
313.621
313.79
314.191
314.102
313.818
313.605
313.497
313.631
314.141
313.901
313.544
313.361
313.387
313.623
313.918
313.972
313.417
313.275
313.169
313.377
313.756
313.741
313.456
313.185
313.039
313.215
313.679
313.551
313.286
313.028
312.923
313.111
313.572
313.396
313.093
312.884
312.787
312.902
313.415
313.234
312.84
312.656
312.679
312.969
313.271
313.287
312.743
312.538
312.504
312.724
313.049
313.093
312.524
312.397
312.266
312.464
312.885
312.943
312.615
312.3
312.148
312.364
312.937
312.671
312.392
312.124
311.987
312.183
312.678
312.522
312.177
311.942
311.893
312.038
312.58
312.391
311.955
311.735
311.762
312.081
312.427
312.321
311.785
311.589
311.569
311.874
312.167
312.17
311.644
311.447
311.409
311.682
312.065
312.133
311.479
311.322
311.154
311.377
311.844
311.872
311.499
311.173
311.019
311.226
311.848
311.657
311.323
310.998
310.874
311.091
311.685
311.513
311.11
310.834
310.716
310.862
311.554
311.297
310.792
310.562
310.595
310.951
311.364
311.321
310.652
310.439
310.428
310.782
311.161
311.162
310.503
310.274
310.229
310.567
310.917
310.897
310.294
310.089
310.044
310.346
310.782
310.854
310.135
309.976
309.808
310.064
310.62
310.677
310.226
309.841
309.652
309.886
310.641
310.422
310.01
309.634
309.481
309.708
310.422
310.203
309.803
309.435
309.331
309.552
310.225
310.006
309.642
309.278
309.131
309.352
310.032
309.838
309.379
309.075
308.993
309.158
309.914
309.652
309.073
308.82
308.851
309.262
309.723
309.728
308.938
308.693
308.67
309.067
309.505
309.491
308.744
308.506
308.456
308.844
309.245
309.262
308.573
308.339
308.277
308.673
309.079
309.075
308.369
308.141
308.081
308.419
308.923
308.993
308.181
308.006
307.825
308.1
308.72
308.771
308.283
307.848
307.676
307.928
308.773
308.515
308.063
307.643
307.495
307.732
308.517
308.313
307.869
307.444
307.328
307.58
308.331
308.122
307.681
307.262
307.117
307.363
308.124
307.923
307.394
307.049
306.988
307.173
308.014
307.752
307.086
306.8
306.847
307.307
307.849
307.776
306.917
306.652
306.625
307.08
307.562
307.563
306.732
306.473
306.416
306.875
307.339
307.33
306.538
306.279
306.213
306.666
307.133
307.141
306.323
306.059
305.99
306.367
306.931
307.03
306.126
305.925
305.735
306.041
306.76
306.885
306.274
305.787
305.574
305.845
306.785
306.559
306.033
305.551
305.39
305.676
306.581
306.301
305.804
305.33
305.181
305.451
306.301
306.111
305.597
305.116
304.988
305.276
306.154
305.953
305.34
304.919
304.835
305.056
306.049
305.696
304.959
304.637
304.661
305.161
305.759
305.732
304.736
304.46
304.435
304.936
305.508
305.531
304.576
304.307
304.248
304.751
305.271
305.314
304.386
304.095
304.011
304.477
305
305.031
304.15
303.865
303.783
304.18
304.796
304.879
303.919
303.715
303.514
303.837
304.609
304.783
304.119
303.577
303.358
303.651
304.632
304.42
303.841
303.348
303.117
303.446
304.454
304.063
303.515
303.045
302.886
303.187
304.097
303.9
303.235
302.811
302.77
302.987
303.989
303.708
302.901
302.568
302.627
303.181
303.836
303.699
302.704
302.399
302.375
302.892
303.5
303.464
302.462
302.135
302.067
302.575
303.141
303.184
302.275
301.948
301.868
302.358
303.043
303.158
302.068
301.807
301.576
301.935
302.736
302.826
302.159
301.602
301.337
301.66
302.654
302.373
301.8
301.295
301.091
301.409
302.324
302.27
301.544
301.031
300.987
301.245
302.402
301.975
301.119
300.751
300.804
301.374
302.06
301.967
300.866
300.505
300.461
300.968
301.576
301.599
300.582
300.231
300.163
300.664
301.392
301.542
300.418
300.156
299.906
300.277
301.172
301.281
300.532
299.966
299.631
299.997
301.095
300.708
300.058
299.577
299.307
299.689
300.689
300.497
299.712
299.244
299.28
299.584
300.677
300.219
299.358
299.002
299.045
299.599
300.297
300.202
299.099
298.719
298.611
299.021
299.744
299.82
298.699
298.429
298.222
298.566
299.419
299.729
298.962
298.314
298.063
298.476
299.625
299.296
298.515
297.97
297.698
298.053
299.395
298.655
297.802
297.388
297.385
297.999
298.583
298.672
297.682
297.221
297.085
297.667
298.469
298.674
297.487
297.049
296.513
296.961
297.748
297.707
297.031
296.475
296.074
296.504
297.419
297.193
296.418
295.975
296.073
296.485
297.489
296.73
295.905
295.497
295.354
295.908
296.646
296.593
295.314
294.917
294.583
294.982
295.739
295.787
295.096
294.604
294.664
295.15
296.105
295.033
294.29
293.932
293.749
294.239
294.974
294.661
293.673
293.336
292.851
293.166
293.814
293.925
293.304
292.846
292.798
293.326
294.17
292.523
292.035
291.871
291.686
291.869
292.349
291.804
291.779
291.634
290.672
290.769
291.348
291.07
290.608
290.368
290.095
290.367
290.994
289.238
288.816
288.915
288.759
288.694
289.069
289.569
289.066
288.948
287.355
287.041
287.56
286.923
286.466
286.856
286.334
286.041
286.364
286.94
286.447
286.291
285.658
285.058
285.811
285.654
284.974
285.41
285.297
284.81
285.239
285.13
285.283
285.572
286.396
286.135
285.658
287.434
287.418
287.509
289.113
288.778
288.728
290.86
291.061
291.315
291.911
291.346
291.419
292.973
293.063
293.384
293.97
293.598
293.477
294.248
294.412
294.747
295.165
294.794
294.597
295.115
295.345
295.691
296.003
295.617
295.36
295.738
296.021
296.383
296.622
296.222
295.916
296.199
296.527
296.907
297.093
296.68
296.334
296.549
296.914
297.312
297.46
297.034
296.653
296.819
297.216
297.631
297.748
297.311
296.898
297.026
297.452
297.883
297.977
297.527
297.087
297.185
297.637
298.084
298.158
297.696
297.232
297.305
297.781
298.242
298.301
297.828
297.341
297.395
297.893
298.367
298.413
297.928
297.42
297.458
297.977
298.465
298.5
298.003
297.476
297.5
298.039
298.539
298.566
298.058
297.511
297.524
298.082
298.595
298.614
298.094
297.53
297.533
298.109
298.634
298.647
298.116
297.533
297.529
298.121
298.659
298.667
298.123
297.523
297.514
298.124
298.672
298.675
298.12
297.503
297.488
298.114
298.675
298.673
298.106
297.472
297.453
298.096
298.669
298.662
298.084
297.432
297.41
298.069
298.654
298.644
298.052
297.385
297.358
298.034
298.632
298.618
298.014
297.33
297.3
297.993
298.602
298.586
297.969
297.268
297.236
297.944
298.567
298.547
297.918
297.201
297.165
297.89
298.526
298.503
297.861
297.127
297.088
297.831
298.479
298.454
297.799
297.048
297.007
297.767
298.428
298.401
297.732
296.965
296.921
297.697
298.372
298.343
297.661
296.876
296.83
297.624
298.312
298.281
297.585
296.783
296.735
297.546
298.248
298.215
297.505
296.686
296.636
297.464
298.181
298.146
297.422
296.585
296.533
297.378
298.11
298.073
297.335
296.48
296.426
297.289
298.036
297.997
297.244
296.371
296.316
297.197
297.959
297.919
297.15
296.259
296.202
297.102
297.878
297.837
297.053
296.144
296.085
297.003
297.796
297.753
296.953
296.026
295.966
296.902
297.71
297.667
296.851
295.905
295.843
296.798
297.622
297.578
296.745
295.781
295.718
296.692
297.532
297.486
296.638
295.655
295.591
296.583
297.44
297.393
296.527
295.526
295.461
296.471
297.346
297.298
296.415
295.395
295.329
296.358
297.249
297.201
296.301
295.262
295.195
296.242
297.151
297.102
296.184
295.127
295.059
296.125
297.051
297.001
296.066
294.99
294.922
296.006
296.95
296.899
295.945
294.852
294.783
295.885
296.847
296.795
295.824
294.713
294.643
295.763
296.743
296.69
295.701
294.572
294.502
295.639
296.636
296.583
295.577
294.431
294.36
295.514
296.529
296.476
295.451
294.289
294.218
295.388
296.421
296.367
295.325
294.147
294.076
295.261
296.312
296.258
295.198
294.005
293.934
295.134
296.203
296.147
295.071
293.863
293.793
295.007
296.092
296.036
294.943
293.722
293.652
294.879
295.981
295.925
294.816
293.583
293.513
294.752
295.869
295.813
294.689
293.445
293.376
294.625
295.757
295.701
294.562
293.309
293.242
294.5
295.645
295.588
294.437
293.176
293.111
294.374
295.531
295.475
294.312
293.047
292.984
294.251
295.418
295.361
294.189
292.922
292.862
294.128
295.304
295.247
294.067
292.803
292.747
294.006
295.189
295.131
293.945
292.692
292.64
293.885
295.073
295.015
293.825
292.59
292.543
293.765
294.957
294.899
293.706
292.498
292.456
293.648
294.84
294.781
293.59
292.417
292.38
293.534
294.722
294.664
293.478
292.347
292.317
293.423
294.604
294.546
293.369
292.289
292.265
293.317
294.486
294.427
293.266
292.245
292.227
293.216
294.368
294.309
293.167
292.213
292.203
293.12
294.25
294.191
293.075
292.196
292.192
293.031
294.133
294.074
292.99
292.191
292.194
292.95
294.017
293.959
292.913
292.2
292.209
292.878
293.902
293.845
292.846
292.221
292.237
292.817
293.79
293.735
292.789
292.255
292.276
292.766
293.681
293.628
292.744
292.3
292.326
292.726
293.577
293.526
292.711
292.354
292.385
292.7
293.478
293.43
292.692
292.417
292.452
292.687
293.385
293.342
292.685
292.487
292.525
292.687
293.301
293.262
292.692
292.563
292.603
292.7
293.226
293.192
292.711
292.644
292.685
292.726
293.162
293.134
292.743
292.727
292.77
292.764
293.11
293.088
292.787
292.812
292.856
292.812
293.071
293.056
292.84
292.899
292.942
292.869
293.046
293.039
292.9
292.985
293.028
292.933
293.036
293.035
292.967
293.071
293.114
293.002
293.038
293.045
293.038
293.157
293.199
293.075
293.055
293.068
293.113
293.241
293.283
293.151
293.084
293.102
293.19
293.324
293.366
293.229
293.123
293.145
293.268
293.407
293.447
293.307
293.17
293.196
293.346
293.487
293.527
293.385
293.224
293.253
293.424
293.567
293.606
293.463
293.284
293.316
293.502
293.645
293.683
293.541
293.349
293.382
293.579
293.721
293.759
293.617
293.417
293.451
293.655
293.797
293.834
293.692
293.487
293.522
293.73
293.871
293.908
293.767
293.558
293.594
293.804
293.945
293.982
293.84
293.63
293.666
293.877
294.019
294.056
293.913
293.702
293.738
293.949
294.092
294.128
293.985
293.773
293.808
294.019
294.164
294.199
294.054
293.842
293.875
294.088
294.234
294.269
294.122
293.908
293.94
294.155
294.304
294.338
294.188
293.972
294.003
294.221
294.372
294.406
294.253
294.034
294.065
294.285
294.44
294.474
294.317
294.095
294.125
294.349
294.508
294.541
294.381
294.154
294.184
294.412
294.575
294.608
294.443
294.212
294.241
294.475
294.641
294.674
294.505
294.269
294.297
294.536
294.707
294.74
294.567
294.325
294.353
294.597
294.772
294.805
294.628
294.38
294.408
294.658
294.838
294.87
294.689
294.435
294.462
294.719
294.902
294.935
294.749
294.489
294.516
294.779
294.967
295
294.809
294.543
294.569
294.839
295.032
295.064
294.869
294.596
294.622
294.899
295.096
295.129
294.928
294.648
294.674
294.958
295.161
295.193
294.988
294.7
294.726
295.017
295.225
295.257
295.047
294.752
294.778
295.076
295.289
295.321
295.106
294.804
294.829
295.135
295.353
295.385
295.165
294.855
294.88
295.194
295.417
295.449
295.224
294.906
294.931
295.253
295.481
295.512
295.282
294.956
294.981
295.311
295.544
295.576
295.34
295.007
295.032
295.369
295.607
295.639
295.398
295.057
295.082
295.427
295.67
295.701
295.455
295.107
295.131
295.484
295.733
295.764
295.512
295.156
295.181
295.541
295.795
295.826
295.569
295.205
295.23
295.598
295.856
295.887
295.626
295.254
295.279
295.654
295.917
295.948
295.682
295.303
295.327
295.71
295.978
296.008
295.738
295.352
295.376
295.765
296.038
296.067
295.793
295.4
295.424
295.82
296.097
296.126
295.847
295.447
295.471
295.874
296.155
296.184
295.901
295.495
295.519
295.928
296.213
296.241
295.955
295.543
295.566
295.981
296.269
296.297
296.008
295.59
295.613
296.034
296.325
296.353
296.06
295.637
295.66
296.086
296.38
296.407
296.112
295.683
295.706
296.137
296.434
296.46
296.163
295.729
295.752
296.188
296.487
296.513
296.213
295.774
295.797
296.238
296.539
296.565
296.262
295.819
295.841
296.287
296.591
296.616
296.311
295.862
295.883
296.335
296.641
296.667
296.359
295.904
295.925
296.383
296.692
296.717
296.406
295.946
295.966
296.429
296.742
296.767
296.452
295.986
296.006
296.476
296.792
296.817
296.499
296.026
296.046
296.522
296.843
296.868
296.544
296.065
296.084
296.568
296.893
296.919
296.59
296.103
296.122
296.614
296.944
296.97
296.636
296.14
296.159
296.66
296.996
297.022
296.683
296.177
296.196
296.706
297.049
297.075
296.73
296.214
296.232
296.754
297.102
297.13
296.777
296.25
296.268
296.802
297.157
297.185
296.826
296.286
296.304
296.851
297.213
297.242
296.875
296.322
296.34
296.901
297.271
297.3
296.926
296.358
296.376
296.952
297.33
297.36
296.978
296.394
296.413
297.004
297.391
297.422
297.031
296.431
296.45
297.058
297.454
297.486
297.086
296.469
296.488
297.114
297.518
297.552
297.142
296.507
296.527
297.171
297.585
297.619
297.199
296.547
296.568
297.229
297.654
297.689
297.259
296.589
296.611
297.289
297.725
297.762
297.32
296.633
296.656
297.351
297.798
297.836
297.382
296.679
296.703
297.414
297.874
297.914
297.446
296.727
296.753
297.478
297.953
297.994
297.511
296.778
296.806
297.544
298.034
298.076
297.577
296.833
296.862
297.61
298.118
298.161
297.644
296.891
296.922
297.678
298.204
298.247
297.712
296.953
296.986
297.746
298.291
298.336
297.781
297.019
297.054
297.816
298.38
298.425
297.852
297.089
297.127
297.887
298.47
298.516
297.923
297.165
297.204
297.96
298.562
298.608
297.997
297.245
297.287
298.034
298.654
298.701
298.071
297.33
297.375
298.11
298.748
298.795
298.148
297.421
297.469
298.187
298.842
298.889
298.227
297.518
297.568
298.267
298.937
298.984
298.307
297.619
297.672
298.349
299.032
299.08
298.391
297.727
297.782
298.434
299.127
299.176
298.477
297.839
297.898
298.522
299.224
299.272
298.567
297.958
298.019
298.613
299.32
299.369
298.66
298.082
298.146
298.708
299.418
299.467
298.757
298.211
298.279
298.808
299.516
299.566
298.859
298.347
298.417
298.912
299.616
299.667
298.966
298.488
298.561
299.021
299.718
299.769
299.078
298.636
298.712
299.136
299.82
299.873
299.196
298.79
298.869
299.258
299.925
299.979
299.32
298.949
299.032
299.385
300.033
300.088
299.451
299.116
299.201
299.519
300.143
300.2
299.588
299.288
299.377
299.66
300.257
300.316
299.733
299.467
299.558
299.809
300.375
300.435
299.886
299.652
299.747
299.965
300.495
300.558
300.047
299.844
299.942
300.13
300.62
300.685
300.216
300.042
300.143
300.303
300.75
300.816
300.392
300.246
300.349
300.483
300.884
300.953
300.576
300.454
300.559
300.67
301.022
301.094
300.765
300.665
300.772
300.862
301.165
301.238
300.959
300.879
300.986
301.057
301.311
301.385
301.156
301.093
301.198
301.253
301.458
301.532
301.351
301.302
301.404
301.447
301.605
301.677
301.542
301.504
301.601
301.633
301.747
301.817
301.723
301.695
301.784
301.807
301.883
301.947
301.887
301.869
301.946
301.961
302.006
302.063
302.028
302.016
302.078
302.088
302.111
302.153
302.138
302.129
302.155
302.163
302.172
302.218
302.21
302.197
302.213
302.221
302.218
302.192
302.199
302.203
302.15
302.128
302.122
302.052
302.052
302.071
301.883
301.874
301.892
301.736
301.707
301.719
301.379
301.374
301.432
301.201
301.145
301.163
300.341
300.281
300.352
300.374
300.378
300.307
300.332
300.223
300.191
300.145
300.121
300.095
300.074
300.066
300.047
300.026
300.018
300.023
300.015
300.002
300.026
300.047
299.99
299.974
299.965
299.972
299.963
299.918
299.85
299.874
300.189
301.66
306.361
312.29
319.404
326.62
332.31
334.7
335.6
336.214
336.743
337.258
337.794
338.348
338.903
339.445
339.974
340.494
341.013
341.541
342.085
342.652
343.25
343.881
344.548
345.255
346.005
346.805
347.666
348.595
349.559
350.546
351.464
352.291
352.925
353.364
353.571
353.167
352.715
352.446
352.105
351.728
351.335
350.925
350.501
350.064
349.615
349.155
348.685
348.204
347.715
347.218
346.713
346.201
345.683
345.159
344.629
344.093
343.552
343.006
342.454
341.898
341.337
340.77
340.199
339.624
339.043
338.459
337.87
337.276
336.678
336.074
335.466
334.853
334.235
333.613
332.988
332.359
331.729
331.097
330.465
329.833
329.202
328.572
327.943
327.316
326.692
326.072
325.456
324.846
324.242
323.645
323.056
322.473
321.9
321.335
320.78
320.236
319.702
319.18
318.668
318.164
317.667
317.174
316.686
316.202
315.724
315.253
314.791
314.338
313.892
313.452
313.015
312.58
312.148
311.717
311.288
310.859
310.43
310.002
309.575
309.152
308.733
308.316
307.901
307.487
307.075
306.672
306.284
305.917
305.57
305.245
304.935
304.64
304.358
304.092
303.845
303.62
303.417
303.233
303.066
302.909
302.765
302.621
302.487
302.361
302.242
302.122
301.994
301.851
301.69
301.518
301.341
301.165
300.987
300.798
300.592
300.371
300.151
299.946
299.762
299.577
299.486
299.391
299.346
299.301
299.267
299.225
299.198
299.19
299.219
299.28
299.384
299.528
299.72
299.962
300.257
300.608
301.018
301.49
302.025
302.625
303.289
304.02
304.817
305.68
306.609
307.603
308.662
309.783
310.963
312.197
313.479
314.799
316.147
317.509
318.874
320.225
321.551
322.838
324.071
325.237
326.322
327.31
328.186
328.936
329.547
330.012
330.32
330.463
330.482
330.348
330.074
329.672
329.155
328.547
327.868
327.111
326.292
325.433
324.541
323.624
322.691
321.749
320.803
319.86
318.923
317.996
317.082
316.185
315.305
314.448
313.614
312.808
312.031
311.287
310.577
309.901
309.26
308.652
308.077
307.532
307.016
306.529
306.068
305.635
305.227
304.846
304.492
304.164
303.864
303.59
303.345
303.127
302.937
302.775
302.64
302.533
302.454
302.401
302.379
302.382
302.403
302.452
302.522
302.617
302.733
302.873
303.041
303.235
303.442
303.662
303.894
304.136
304.4
304.715
304.593
304.311
303.851
303.245
302.559
301.862
301.19
300.571
300.021
299.555
299.176
298.886
298.682
298.557
298.501
298.504
298.552
298.635
298.74
298.856
298.975
299.089
299.192
299.28
299.36
299.455
299.56
299.659
299.73
299.752
299.73
299.67
299.592
299.533
299.501
299.517
299.54
299.555
299.561
299.567
299.579
299.591
299.604
299.616
299.627
299.637
299.646
299.655
299.662
299.668
299.674
299.679
299.684
299.69
299.695
299.7
299.706
299.711
299.716
299.721
299.726
299.73
299.734
299.738
299.742
299.747
299.751
299.756
299.761
299.766
299.77
299.774
299.778
299.781
299.784
299.786
299.789
299.792
299.795
299.798
299.801
299.804
299.807
299.81
299.812
299.812
299.812
299.811
299.81
299.808
299.806
299.805
299.803
299.8
299.798
299.796
299.794
299.792
299.791
299.784
299.783
299.782
299.775
299.77
299.765
299.761
299.758
299.755
299.752
299.749
299.746
299.743
299.74
299.737
299.734
299.732
299.73
299.729
299.729
299.729
299.73
299.731
299.733
299.735
299.737
299.74
299.742
299.745
299.747
299.75
299.752
299.753
299.755
299.757
299.759
299.761
299.765
299.77
299.776
299.784
299.793
299.803
299.814
299.825
299.837
299.848
299.86
299.871
299.883
299.894
299.905
299.914
299.924
299.932
299.94
299.942
299.951
299.955
299.95
299.958
299.954
299.931
299.932
299.943
299.916
299.897
299.903
299.883
299.856
299.869
299.858
299.809
299.808
299.833
299.792
299.732
299.741
299.785
299.781
299.714
299.667
299.643
299.631
299.622
299.608
299.598
299.583
299.567
299.543
299.523
299.507
299.49
299.47
299.452
299.425
299.394
299.367
299.354
299.35
299.338
299.326
299.317
299.303
299.283
299.258
299.229
299.201
299.178
299.158
299.143
299.119
299.095
299.076
299.073
299.067
299.053
299.008
298.977
298.983
299.012
298.976
298.925
298.928
298.941
298.889
298.852
298.888
298.912
298.862
298.818
298.831
298.854
298.846
298.816
298.81
298.823
298.82
298.786
298.751
298.722
298.696
298.7
298.736
298.742
298.703
298.682
298.695
298.688
298.649
298.668
298.718
298.707
298.657
298.664
298.724
298.735
298.688
298.68
298.746
298.781
298.724
298.683
298.704
298.774
298.807
298.807