/*--------------------------------*- C++ -*----------------------------------*\
| =========                 |                                                 |
| \\      /  F ield         | OpenFOAM: The Open Source CFD Toolbox           |
|  \\    /   O peration     | Version:  v2006                                 |
|   \\  /    A nd           | Website:  www.openfoam.com                      |
|    \\/     M anipulation  |                                                 |
\*---------------------------------------------------------------------------*/
FoamFile
{
    version     2.0;
    format      ascii;
    class       volScalarField;
    location    "0.024";
    object      k;
}
// * * * * * * * * * * * * * * * * * * * * * * * * * * * * * * * * * * * * * //

dimensions      [0 2 -2 0 0 0 0];


internalField   nonuniform List<scalar> 
9148
(
129.855
129.859
129.878
129.906
129.871
129.814
129.641
129.276
128.717
128.062
127.373
126.673
125.957
125.215
124.436
123.618
122.758
121.859
120.921
119.946
118.937
117.894
116.82
115.717
114.586
113.432
112.255
111.059
109.847
108.62
107.383
106.137
104.886
103.632
102.379
101.129
99.8844
98.6491
97.4255
96.2164
95.0243
93.8519
92.7016
91.5761
90.4776
89.4086
88.3712
87.3675
86.3995
85.4692
84.5785
83.7291
82.9224
82.1591
81.4378
80.7554
80.1073
79.4969
78.9457
78.509
78.2362
78.1268
78.1075
78.1178
78.1373
78.12
78.0505
77.8882
77.5813
76.8057
75.3512
67.8736
59.801
71.2119
75.5896
73.1344
65.9526
53.7283
48.8826
61.1703
70.4489
67.469
56.9431
45.1625
42.274
53.4878
64.9325
62.0805
50.2668
39.8545
38.0664
48.0168
60.1141
57.7629
45.6332
36.3784
35.2037
44.3069
56.2638
54.2504
42.4524
33.9686
33.1271
41.6047
53.1184
51.4008
40.1409
32.1664
31.5175
39.5478
50.5003
49.0087
38.3518
30.737
30.2067
37.8994
48.2725
46.9558
36.9041
29.5488
29.0951
36.531
46.34
45.1598
35.6826
28.5211
28.1198
35.3641
44.6357
43.5642
34.62
27.6049
27.24
34.3399
43.1083
42.1301
33.6727
26.7675
26.4284
33.4196
41.7186
40.8242
32.8098
25.9865
25.6658
32.5771
40.448
39.6225
32.0119
25.2465
24.9388
31.7947
39.2748
38.5062
31.2638
24.5359
24.2372
31.0581
38.1819
37.4608
30.5538
23.8457
23.5529
30.3564
37.1559
36.4745
29.8721
23.1691
22.8795
29.6806
36.1856
35.5373
29.2111
22.5003
22.212
29.0235
35.2618
34.6413
28.5647
21.8349
21.5461
28.3794
34.377
33.7797
27.9276
21.1685
20.8774
27.7431
33.5244
32.9458
27.295
20.497
20.2017
27.1095
32.6972
32.1331
26.6617
19.816
19.5145
26.4735
31.8889
31.3348
26.0226
19.1214
18.8119
25.83
31.0931
30.5452
25.3728
18.4093
18.0906
25.1746
30.3044
29.7596
24.7084
17.6769
17.3478
24.5038
29.5187
28.9745
24.0263
16.9215
16.5809
23.8143
28.7327
28.187
23.3237
16.1405
15.7867
23.1032
27.943
27.3929
22.5968
15.3299
14.961
22.3655
27.1447
26.5862
21.8392
14.4849
14.0982
21.5949
26.3315
25.7605
21.0445
13.6002
13.1932
20.7838
25.4969
24.9084
20.2032
12.6702
12.2394
19.9225
24.6331
24.0211
19.3043
11.6879
11.2276
18.9985
23.7316
23.0898
18.3338
10.6444
10.1438
17.9938
22.7818
22.1037
17.283
9.52804
8.96591
16.8561
21.7669
21.0472
16.1112
8.30913
7.66197
15.5434
20.6312
19.8885
14.7432
6.94363
6.17605
13.9365
19.3036
18.5568
13.0411
5.35033
4.43077
11.7331
17.6283
16.8104
10.6232
3.55948
2.22274
7.83097
15.1851
11.7796
3.79948
0.827712
1.46124
3.07996
7.23599
8.19469
6.26646
2.28352
2.64573
7.20091
13.7348
15.6511
7.65394
2.74251
2.23172
6.83001
14.2877
9.94462
3.07991
0.915239
0.356944
0.61185
1.71416
0.661742
0.392694
0.20313
0.148577
0.374637
0.628335
0.631249
0.365759
0.127305
0.273319
0.483055
0.808383
0.89338
0.623869
0.437535
0.60706
0.775009
1.01913
1.05902
0.834264
0.684964
0.712812
0.864908
1.08281
1.05477
0.840114
0.665152
0.590128
0.810022
1.01628
0.961641
0.76739
0.493776
0.442753
0.749087
0.943912
0.938192
0.727496
0.420436
0.4457
0.722805
0.981745
1.03201
0.757479
0.518578
0.613843
0.814374
1.1072
1.19129
0.888099
0.730509
0.85878
0.968932
1.27693
1.37612
1.05729
0.991832
1.12216
1.13239
1.46217
1.57177
1.21037
1.24819
1.36405
1.27136
1.64668
1.75031
1.34031
1.46883
1.55703
1.38084
1.80621
1.89338
1.43024
1.63133
1.68619
1.45109
1.9331
1.99518
1.4691
1.71762
1.72992
1.4712
2.02061
2.04987
1.46831
1.73074
1.70071
1.43641
2.05644
2.06102
1.41552
1.65366
1.58036
1.35755
2.03779
2.01162
1.31682
1.49077
1.37679
1.22833
1.93816
1.88054
1.16846
1.25161
1.10242
1.04812
1.74324
1.65423
0.980613
0.952152
0.776741
0.847114
1.44691
1.34833
0.785416
0.622968
0.450825
0.668656
1.12024
1.02999
0.625738
0.330713
0.182139
0.49124
0.760411
0.651623
0.437708
0.10951
0.0839156
0.337807
0.48475
0.74246
1.06583
1.34192
1.59722
1.80143
1.98328
2.1196
2.23917
2.32389
2.39697
2.44437
2.47698
2.48668
2.46703
2.39401
2.29245
2.10201
1.89471
1.72727
1.67833
0.975405
0.294602
0.327653
0.254703
0.195439
0.153237
0.0448099
0.0221338
0.0355949
0.0874943
0.162133
0.0436791
0.0343773
0.0550026
0.0438066
0.183655
0.209874
0.0393227
0.0454751
0.0464068
0.040511
0.236332
0.204054
0.0343486
0.0342666
0.0292705
0.0341364
0.220157
0.268521
0.0437833
0.0335759
0.0748641
0.196323
0.986879
1.4747
0.364423
0.141582
0.147362
0.367847
1.67105
1.36232
0.284598
0.12702
0.0764983
0.118811
0.615412
0.63961
0.0877138
0.0512923
0.0406744
0.180303
1.12665
1.46781
0.283477
0.0382918
0.0234445
0.426456
1.95274
2.23448
0.591058
0.0371434
0.108591
0.957499
2.8103
2.98918
1.16672
0.207219
0.359782
1.61415
3.57879
3.74321
1.7693
0.50846
0.706676
2.20746
4.3529
4.51293
2.3241
0.885832
1.12188
2.75505
5.1745
5.34462
2.84804
1.32634
1.59552
3.29236
6.09799
6.29843
3.37441
1.8341
2.16106
3.90797
7.21498
7.47979
4.01992
2.4586
2.88786
4.74119
8.61548
8.95889
4.94781
3.29252
3.79839
5.98653
10.4092
10.7389
6.16898
4.08108
4.45241
7.44869
12.5015
12.8291
7.56838
4.57933
4.95434
9.12463
14.8904
15.4134
9.4462
5.0429
5.43455
11.3224
17.7217
18.5974
11.8587
5.53379
6.13641
14.1422
21.2943
23.17
15.4643
6.60197
8.06075
19.326
25.7155
17.8284
10.0054
4.06993
6.30705
19.0584
27.4491
30.0434
20.6408
6.84637
8.58567
25.0325
34.6492
39.198
28.7578
9.63274
9.52034
30.8805
41.0089
38.7985
26.7083
5.77237
12.5005
37.7357
48.9014
58.675
49.524
21.5718
13.9388
33.0001
50.9477
60.5075
47.1896
21.3409
38.3581
68.0377
72.5165
80.8809
70.2113
37.5302
37.2564
51.8924
70.5029
89.04
85.0658
63.0258
71.1927
93.742
90.8158
102.723
105.709
76.5776
76.8417
79.4701
90.1774
85.2983
70.0158
70.5248
69.7046
76.3314
88.348
77.0567
66.517
65.2943
54.4982
48.322
52.7176
59.0068
53.3353
50.2642
40.4358
40.4448
44.6034
48.9957
44.6576
40.0479
34.1865
34.2135
37.5716
41.5578
36.575
32.8665
30.9757
32.3369
36.8181
25.4488
23.4611
27.905
26.3524
25.8541
29.1746
22.7968
21.1909
24.5211
23.1497
22.4634
26.0268
23.1122
20.5129
21.7547
22.2598
16.5201
17.0308
19.1763
17.227
20.369
20.7597
15.5594
15.6674
17.7777
15.9318
18.8924
19.545
14.372
14.6035
16.3394
14.4916
17.4459
17.6191
13.5632
14.7155
11.8648
12.5429
19.3331
17.259
12.3571
12.8948
11.2083
12.3068
18.9647
16.6421
11.3376
12.2285
10.6896
11.7546
18.2372
16.026
10.6283
11.7505
10.2962
11.3533
17.8617
15.7197
10.2881
11.4139
10.0014
10.8844
17.4105
15.1485
10.0576
11.1793
10.1204
9.81691
16.2463
18.6607
11.4344
9.2806
9.53516
9.00251
16.1338
18.8891
11.1859
8.86965
9.17274
8.5473
15.9793
18.6596
11.0018
8.70025
9.01888
8.4229
15.9281
18.607
10.8709
8.65083
9.01949
8.29039
15.8874
18.8136
10.8564
8.66211
8.94694
8.22695
16.0511
19.0422
10.9204
8.66217
8.91928
8.21318
16.2045
19.3062
11.0451
8.69468
8.88754
8.20304
16.3963
19.6153
11.1541
8.72472
8.81897
8.24172
16.7308
20.1147
11.3534
8.75204
8.78205
8.23938
17.0368
20.5088
11.4996
8.79188
8.77681
8.30269
17.4227
21.0884
11.7964
8.86643
8.78863
8.36334
17.7995
21.6297
11.9995
8.93
8.79328
8.41625
18.2488
22.3195
12.3262
9.02648
8.78023
8.51875
18.7761
22.9877
12.5599
9.11324
8.69207
8.52882
19.5859
24.7456
13.4647
9.28215
9.06874
10.3333
23.9124
20.1211
7.61476
9.86588
9.66978
11.6876
22.9936
19.3294
8.94846
9.77545
9.95123
13.0166
22.7858
19.5792
9.65931
9.86512
10.1976
13.7341
23.7391
20.3797
9.82093
9.90582
10.3219
14.1731
25.0118
21.2508
9.91493
9.95194
10.4531
14.5196
25.8948
22.0027
9.9151
9.92606
10.5618
14.9795
27.3078
23.228
9.95571
9.91467
10.835
16.0616
29.4155
28.6943
12.3103
10.3199
10.9199
8.63658
24.2199
28.185
14.0148
11.0619
10.9617
10.2169
23.4358
27.6333
15.567
11.4608
11.0572
11.1207
23.4474
28.4282
16.3848
11.7293
11.1647
11.3048
24.1217
29.879
16.8472
11.9519
11.1618
11.3213
25.4501
32.1634
17.9127
12.2158
11.6183
13.9401
31.7362
27.0626
9.78826
12.1317
12.5078
16.0854
31.8335
26.6435
11.6792
12.1738
12.9518
17.9979
32.0448
27.1728
12.6129
12.3078
13.2533
18.8404
33.1942
28.0963
12.7589
12.4059
13.4745
19.3064
34.74
29.6457
12.7038
12.4155
13.7687
20.4772
37.4331
36.6018
15.7209
12.8042
13.147
10.7106
31.1765
37.0528
18.3234
13.7968
13.2242
12.8284
30.8086
37.5511
20.5885
14.3345
13.5455
13.9737
31.4683
38.8904
21.6953
14.8952
13.7919
14.3467
32.713
41.0254
22.9919
15.3795
14.4823
17.9153
39.941
34.2189
12.3289
14.7671
15.5966
20.6849
41.0546
34.5595
14.5945
14.8986
16.3016
23.4733
42.4886
35.6231
15.8674
15.2448
16.8408
24.8737
44.2957
37.0503
16.3543
15.579
17.3281
25.5358
46.3047
38.6129
16.387
15.733
17.8083
26.9414
48.7948
47.354
20.6794
16.3812
16.3972
13.7576
40.1566
48.3739
24.0562
17.6339
16.5168
16.4562
40.289
49.8349
27.2194
18.358
17.0982
18.0043
41.6509
52.1669
28.9721
19.1761
17.6618
18.7246
43.4999
54.6204
29.8689
19.9047
18.0053
18.9594
45.5019
57.7224
31.7472
20.5969
19.054
24.5177
56.441
48.004
15.9062
18.615
20.3899
28.5936
58.0562
48.1652
19.1213
18.8574
21.3277
32.3902
59.591
49.6868
20.9789
19.5634
22.2085
34.0791
62.321
51.6835
21.5964
20.1866
23.1018
35.3606
65.4123
54.3304
22.029
20.7484
24.1212
37.5478
68.9398
67.1552
28.8787
22.2243
21.1669
18.3125
56.2986
67.9894
33.6233
23.461
21.6993
22.2918
56.492
69.9804
38.1049
24.7277
22.8145
24.5941
58.1094
72.5077
40.3518
26.0758
23.8567
25.6609
59.8281
75.4581
41.6802
27.2155
24.7106
26.4943
62.5263
78.9536
43.206
28.2174
25.5207
27.1823
65.2247
82.089
44.5339
29.2222
26.2179
27.803
67.2112
85.2625
45.8284
30.2007
26.835
28.57
70.0752
89.2905
47.6977
31.2195
27.5488
29.3501
73.2624
92.8595
49.1172
32.2678
28.2379
29.8694
75.7318
97.1871
50.5709
33.4804
28.8533
30.7102
79.9523
103.447
55.1586
35.3077
30.8397
42.2415
101.171
84.139
25.4155
28.0844
32.2943
48.8784
101.275
82.5225
30.8232
29.4939
34.3888
55.6695
103.154
84.4843
36.5035
31.6104
31.4034
41.2728
99.1685
124.91
73.5554
42.8326
34.8831
39.8855
97.8177
128.034
67.8719
43.0204
35.2194
38.6083
101.841
129.818
66.8939
42.894
35.766
38.6935
104.008
132.619
67.2952
43.3845
36.437
39.4527
105.918
136.854
71.1548
44.7561
37.6951
41.5817
109.541
139.502
72.5195
46.057
38.9342
41.8861
109.459
142.395
75.8504
47.2752
40.2911
47.6974
115.264
136.471
53.1213
39.8922
56.1744
98.3244
175.487
136.145
50.9729
43.8863
56.1688
92.2396
180.947
140.045
49.8563
44.4248
54.3869
88.5924
178.856
140.113
53.6604
45.0247
44.4038
59.3542
165.201
214.561
118.953
63.0333
48.813
61.2287
164.224
192.161
64.8454
47.6728
69.9189
135.517
254.507
181.774
63.0212
51.7045
51.8874
81.131
220.971
248.035
72.3834
50.9245
85.7021
180.771
338.185
239.419
75.9824
58.2782
55.7757
85.2527
272.61
324.252
108.334
59.4091
59.1975
111.925
368.597
409.547
123.441
61.7724
61.687
126.501
405.248
390.129
139.046
63.5347
62.9729
139.341
355.88
319.739
144.405
63.873
63.3272
144.197
285.536
254.974
147.077
64.7102
64.4787
148.747
227.984
204.986
151.682
67.0049
67.5754
155.189
185.556
169.198
156.731
72.5461
74.0757
157.984
155.313
143.414
158.239
80.9057
82.6761
159.057
133.27
124.49
159.062
89.7163
91.5856
159.999
117.099
110.67
159.961
98.8239
100.809
161.036
105.393
100.744
161.012
108.039
109.778
162.237
97.099
93.7945
162.163
116.468
118.054
163.382
91.4264
89.0655
163.181
124.171
125.524
164.338
87.7426
85.896
163.984
131.068
132.255
164.763
85.6371
84.3021
164.189
137.207
138.133
164.537
84.4359
83.6071
163.745
142.446
143.082
163.895
83.9048
83.3217
162.87
146.629
146.978
162.943
83.7245
83.285
161.744
149.755
149.916
161.787
83.7557
83.3658
160.477
152.063
152.057
160.512
83.9346
83.5626
159.196
153.623
153.544
159.236
84.18
83.8264
157.909
154.666
154.643
157.979
84.4886
84.1575
156.729
155.228
155.264
156.82
84.864
84.5564
155.608
155.506
155.417
155.718
85.3059
85.0218
154.588
155.5
155.191
154.696
85.8024
85.539
153.57
155.166
154.679
153.681
86.3416
86.097
152.591
154.506
153.968
152.687
86.9125
86.683
151.569
153.643
153.055
151.66
87.5019
87.2858
150.562
152.592
151.977
150.63
88.1
87.8939
149.499
151.418
150.775
149.559
88.6939
88.4971
148.45
150.128
149.475
148.488
89.2801
89.0905
147.356
148.772
148.104
147.387
89.8492
89.6664
146.286
147.349
146.682
146.3
90.4028
90.2257
145.19
145.901
145.23
145.2
90.9349
90.7634
144.13
144.429
143.758
144.132
91.4475
91.2824
143.072
142.967
142.291
143.074
91.9375
91.7777
142.054
141.491
140.842
142.052
92.4072
92.2516
141.038
139.989
139.352
141.031
92.8504
92.6984
140.048
138.471
137.861
140.032
93.2683
93.1182
139.05
136.983
136.384
139.037
93.6557
93.5075
138.107
135.524
134.941
138.089
94.0167
93.8705
137.168
134.095
133.502
137.145
94.3516
94.2061
136.257
132.666
132.086
136.232
94.6592
94.5148
135.36
131.289
130.709
135.335
94.9403
94.7964
134.506
129.941
129.381
134.486
95.1966
95.0539
133.684
128.658
128.104
133.667
95.4309
95.2893
132.912
127.414
126.884
132.905
95.6466
95.5071
132.182
126.246
125.723
132.179
95.8465
95.7089
131.508
125.121
124.623
131.515
96.034
95.8989
130.876
124.073
123.581
130.885
96.2104
96.0776
130.298
123.077
122.585
130.316
96.3784
96.2481
129.758
122.153
121.646
129.777
96.5381
96.4099
129.268
121.278
120.767
129.295
96.6921
96.5665
128.811
120.463
119.937
128.839
96.8402
96.7165
128.4
119.691
119.162
128.435
96.984
96.8625
128.017
118.971
118.429
128.052
97.1227
97.003
127.673
118.289
117.747
127.715
97.2587
97.141
127.353
117.653
117.102
127.393
97.3909
97.2748
127.065
117.048
116.504
127.113
97.5217
97.4072
126.798
116.481
115.942
126.844
97.648
97.5348
126.559
115.939
115.427
126.616
97.7733
97.6615
126.337
115.433
114.939
126.4
97.8954
97.7846
126.139
114.954
114.487
126.212
98.0165
97.907
125.955
114.508
114.056
126.033
98.1347
98.026
125.791
114.085
113.657
125.879
98.2521
98.1444
125.64
113.692
113.276
125.731
98.3666
98.2596
125.506
113.319
112.924
125.606
98.4803
98.3743
125.382
112.972
112.587
125.485
98.5913
98.4857
125.273
112.642
112.276
125.384
98.7015
98.5967
125.173
112.335
111.977
125.285
98.8089
98.7045
125.086
112.044
111.703
125.206
98.9157
98.812
125.007
111.774
111.44
125.127
99.0199
98.9165
124.939
111.518
111.2
125.066
99.1236
99.0209
124.878
111.283
110.964
125.004
99.2249
99.1224
124.826
111.058
110.75
124.959
99.3259
99.224
124.78
110.853
110.538
124.911
99.4245
99.3227
124.742
110.655
110.351
124.879
99.5227
99.4215
124.709
110.475
110.163
124.844
99.6187
99.5175
124.683
110.301
109.999
124.824
99.7145
99.6138
124.661
110.143
109.832
124.8
99.8081
99.7075
124.645
109.989
109.688
124.79
99.9017
99.8016
124.633
109.849
109.539
124.774
99.9933
99.8932
124.625
109.712
109.412
124.772
100.085
99.9851
124.621
109.585
109.279
124.764
100.174
100.075
124.62
109.463
109.169
124.769
100.264
100.165
124.622
109.353
109.051
124.768
100.353
100.254
124.628
109.245
108.952
124.779
100.442
100.344
124.636
109.145
108.844
124.783
100.531
100.433
124.648
109.048
108.759
124.801
100.622
100.525
124.662
108.963
108.666
124.811
100.714
100.618
124.68
108.88
108.591
124.833
100.809
100.713
124.698
108.8
108.5
124.848
100.904
100.809
124.72
108.719
108.431
124.876
101.002
100.908
124.745
108.65
108.357
124.897
101.099
101.005
124.773
108.589
108.305
124.93
101.197
101.103
124.801
108.532
108.236
124.953
101.29
101.195
124.826
108.471
108.177
124.978
101.377
101.278
124.854
108.403
108.119
125.01
101.488
101.39
124.883
108.361
108.087
125.037
101.551
101.446
124.935
108.324
108.02
125.087
101.64
101.527
125.023
108.149
107.803
125.17
101.777
101.664
125.212
107.841
107.386
125.33
102.004
102.063
125.492
107.396
106.52
125.19
102.959
104.174
124.874
104.999
103.692
125.002
105.58
78.311
60.3082
59.2465
61.7442
71.3679
81.7712
90.1872
95.1983
110.615
118.263
120.088
119.993
117.456
114.5
112.156
110.846
110.356
110.347
110.561
110.853
111.152
111.429
111.674
111.886
112.066
112.215
112.338
112.433
112.503
112.551
112.579
112.592
112.606
112.634
112.675
112.727
112.787
112.856
112.93
113.01
113.098
113.193
113.298
113.415
113.544
113.688
113.885
114.209
114.688
115.261
115.843
116.39
116.886
117.33
117.729
118.086
118.405
118.69
118.945
119.172
119.374
119.556
119.721
119.871
120.011
120.142
120.267
120.387
120.505
120.621
120.738
120.857
120.978
121.102
121.232
121.366
121.506
121.653
121.805
121.964
122.129
122.3
122.475
122.655
122.839
123.025
123.213
123.402
123.591
123.778
123.964
124.148
124.329
124.505
124.678
124.846
125.009
125.167
125.32
125.468
125.61
125.747
125.879
126.006
126.127
126.243
126.355
126.462
126.564
126.663
126.757
126.847
126.934
127.017
127.098
127.175
127.25
127.322
127.392
127.46
127.527
127.592
127.655
127.718
127.78
127.841
127.901
127.962
128.022
128.082
128.142
128.202
128.262
128.321
128.38
128.44
128.499
128.558
128.617
128.677
128.738
128.8
128.864
128.93
128.999
129.07
129.144
129.219
129.297
129.379
129.463
129.548
129.629
129.699
129.753
129.796
129.843
129.82
129.792
129.717
129.557
129.229
128.72
128.093
127.415
126.713
125.99
125.239
124.454
123.63
122.766
121.864
120.923
119.947
118.936
117.893
116.818
115.715
114.585
113.431
112.255
111.06
109.848
108.623
107.386
106.142
104.892
103.64
102.388
101.139
99.8962
98.6626
97.4407
96.2332
95.0428
93.872
92.7235
91.5995
90.5026
89.4351
88.3992
87.3968
86.4301
85.5009
84.6114
83.7633
82.9584
82.1976
81.4801
80.8037
80.1672
79.5764
79.0543
78.6384
78.3528
78.1909
78.0758
77.8981
77.1857
76.256
73.6895
72.2782
71.173
69.736
68.7056
67.2968
66.3597
64.9935
64.1508
62.8352
62.0824
60.8217
60.1475
58.9454
58.3374
57.1917
56.6421
55.5498
55.0502
54.0089
53.5492
52.5592
52.1288
51.1887
50.7836
49.887
49.5039
48.6461
48.2826
47.4593
47.1131
46.3204
45.9894
45.2235
44.9056
44.1626
43.8552
43.131
42.8316
42.1219
41.8281
41.1289
40.8393
40.1478
39.8612
39.1754
38.891
38.2088
37.925
37.2439
36.9582
36.2729
35.9832
35.2908
34.9947
34.2911
33.9863
33.2669
32.9519
32.2124
31.8856
31.1222
30.781
29.9888
29.6272
28.7969
28.4043
27.5458
27.0239
26.1396
25.2263
23.1525
21.0221
17.4842
17.3887
18.0988
20.2463
21.4235
7.09178
2.32455
1.53515
1.26103
1.41106
1.47516
1.7232
1.81095
1.88626
1.86375
1.84257
1.77304
1.7526
1.75287
1.82342
1.91048
2.01189
2.14334
2.24675
2.38806
2.48119
2.61622
2.69216
2.81434
2.87317
2.97811
3.02453
3.10788
3.14202
3.19911
3.21761
3.23735
3.23234
3.21987
3.13891
3.08411
2.89609
2.77947
2.43298
2.26435
1.8067
1.62506
1.09903
0.893749
1.25056
1.62737
2.43725
1.67912
2.60855
3.54343
3.78834
2.8552
3.61826
4.60234
5.33325
4.10403
3.16423
2.03717
2.43262
3.62019
4.57261
4.95185
4.08949
2.84282
3.17291
4.35799
5.23179
6.11359
6.87261
5.98539
4.59659
3.75806
4.18426
5.11534
5.03467
4.22601
4.43768
5.36335
6.34764
6.36679
5.23552
4.42438
4.50285
5.42832
5.24706
4.45607
4.47476
5.36536
6.2878
6.14399
5.11547
4.37844
4.37604
5.21265
4.94467
4.25263
4.23463
5.01732
5.92549
5.69287
4.75765
4.09572
4.06867
4.81411
4.56998
3.92091
3.88944
4.61898
5.48294
5.31147
4.39296
3.73727
3.70232
4.44385
4.21719
3.5419
3.50233
4.27095
5.17101
4.96341
4.03495
3.33138
3.2909
4.08635
3.8417
3.11837
3.09415
3.90795
4.93318
5.07378
3.7084
2.95787
2.98545
3.90036
3.73357
2.95907
3.07881
4.31161
6.10437
13.1805
4.23092
3.11238
3.40315
6.17639
6.32342
3.54931
3.4789
6.50978
17.2783
19.1316
6.45763
3.44625
3.12216
6.90894
12.0468
3.47304
3.42007
14.6414
26.1719
31.8225
22.3845
9.64253
16.6872
22.2544
26.4172
20.7078
21.8242
25.6313
37.0524
41.5268
30.2235
21.3596
21.2825
29.8258
35.1581
24.7585
26.3022
34.6143
45.221
48.695
39.1499
30.1467
31.4337
38.5519
41.9884
33.7327
34.288
41.1492
51.1655
53.0055
43.842
35.7033
35.9046
42.8298
45.2105
37.1505
37.2479
44.1931
54.4262
55.6771
46.4147
38.4344
38.5074
45.4395
47.5626
39.6514
39.7119
46.626
56.7905
57.839
48.6729
40.8232
40.8746
47.7685
49.7486
41.9578
42.0016
48.8735
58.8314
59.7794
50.7926
43.0589
43.0954
49.943
51.8045
44.1298
44.1596
50.9791
60.6854
61.5548
52.7869
45.1748
45.2
51.9861
53.745
46.2011
46.2251
52.9716
62.3931
63.2056
54.6869
47.2157
47.2401
53.9417
55.6143
48.2229
48.2502
54.8995
63.9948
64.7585
56.5303
49.2276
49.2594
55.8473
57.4362
50.2334
50.2713
56.7877
65.4925
66.1976
58.3356
51.2437
51.2895
57.726
59.2361
52.2616
52.3163
58.6658
66.8986
67.5919
60.1385
53.2908
53.3568
59.6106
61.0479
54.3365
54.4164
60.5648
68.2824
68.9708
61.9672
55.4037
55.4998
61.5315
62.8988
56.4964
56.6107
62.5125
69.6568
70.3384
63.8437
57.618
57.7524
63.509
64.8034
58.7718
58.9283
64.5237
71.0135
71.6789
65.7814
59.9608
60.1416
65.5601
66.7837
61.1849
61.3887
66.6079
72.3303
72.9742
67.793
62.4435
62.6727
67.6657
68.8085
63.7389
63.9961
68.732
73.6054
74.2201
69.8276
65.072
65.3594
69.8032
70.845
66.4433
66.7641
70.883
74.8158
75.3869
71.8552
67.8518
68.2101
71.9623
72.8498
69.2771
69.6903
73.0252
75.9267
76.429
73.8208
70.7151
71.1898
74.0585
74.7583
72.1611
72.6858
75.0479
76.8877
77.2956
75.6459
73.5876
74.1515
75.971
76.4663
74.971
75.5487
76.8019
77.6402
78.0017
77.8753
77.7091
77.5098
77.2803
77.0227
76.7399
76.4355
76.1118
75.7667
75.4066
75.0368
74.6587
74.2735
73.8825
73.4873
73.0897
72.6907
72.29
71.8845
71.4743
71.0561
70.6285
70.1918
69.7447
69.2836
68.8012
68.2884
67.7353
67.1326
66.4621
65.6985
64.7742
63.6054
62.0346
59.9074
57.1798
53.6622
49.8475
44.3076
38.4306
30.3018
23.3068
20.7084
17.0619
9.47797
6.94155
6.55346
6.47597
6.49199
6.65931
6.8005
6.98655
7.18079
7.29426
7.33477
7.24702
7.95752
7.60787
6.77449
5.60889
4.74527
3.51101
3.80032
4.99974
5.8889
6.35288
5.37763
4.1044
4.36049
5.61704
6.56809
7.64518
8.51826
9.53096
8.59838
7.1266
5.99721
4.62011
4.81822
6.15368
7.1633
7.6966
6.40242
4.98788
5.04846
6.42998
7.55089
9.30001
10.6691
10.8774
9.75314
8.81553
8.83899
8.02952
7.98078
7.84556
8.49047
8.72129
9.36992
9.6835
10.7067
10.1005
9.5328
9.02774
8.7575
8.24692
7.64555
7.48225
8.07908
8.0593
7.37294
7.36934
8.32465
10.4506
9.10774
8.66867
9.21308
9.23049
10.526
10.7971
11.4189
12.2405
12.2236
11.4829
9.6033
7.79343
6.47701
5.0584
4.70931
6.00604
7.25897
7.28935
5.67511
4.29938
3.20716
4.05001
5.63404
9.27326
11.6439
9.38887
7.87433
6.22484
4.64617
3.33286
2.68962
1.76606
0.739633
0.891303
0.617221
0.364378
0.477993
0.863651
1.1912
0.659471
0.821596
1.50944
2.12982
2.9596
2.43423
1.82218
0.897356
1.02441
1.24242
2.64632
3.23283
3.90991
5.19626
6.84474
8.25876
10.6404
11.9927
13.226
14.295
14.8449
14.9292
17.9949
17.1854
15.9845
15.0961
14.0698
13.0423
11.1303
9.87943
7.42305
5.98401
6.11567
4.71754
4.8238
3.65798
3.72206
3.14651
2.79742
2.7299
2.72472
2.61635
2.712
3.02572
3.74553
3.88804
4.73126
4.85799
7.22086
8.67659
8.4977
5.89825
5.76507
6.86046
10.0002
12.6278
13.878
11.3263
9.78628
6.98782
8.02003
8.17554
11.1727
12.8031
15.3774
16.7659
18.3483
20.1212
19.5897
20.1108
15.1145
15.6244
10.6998
12.5608
10.3117
12.9999
17.5055
13.4982
9.58035
7.51281
8.58902
13.3522
18.4713
12.3954
18.1054
24.5541
33.1014
25.1615
18.3681
24.4659
33.0533
42.3784
51.4535
41.3207
31.6586
22.9573
16.476
22.2619
17.7381
25.1695
24.6032
22.5293
22.082
24.14
21.9245
20.2508
18.2522
18.1184
16.1689
16.1847
14.376
14.3891
12.6778
9.48209
9.30835
10.7442
10.9733
12.3894
12.6637
14.2799
14.6354
16.4491
16.813
20.4237
22.549
22.8752
19.3214
18.8704
21.6412
25.0304
26.3572
28.9764
27.9411
25.7742
22.3518
24.854
26.0923
29.1646
31.3515
31.4031
33.3826
27.1282
27.7573
30.6175
34.9061
33.7416
39.2682
38.3145
35.8897
33.4611
31.2474
28.9319
34.8227
38.7331
35.5885
30.7477
38.9176
41.2269
43.7978
40.8616
41.0314
41.3901
46.5633
45.7239
46.9052
42.7299
51.2769
49.5586
55.5677
52.8011
44.9297
40.4059
36.5132
32.9781
30.3411
38.6615
49.5484
61.4404
70.7772
60.7575
46.9756
34.5111
39.403
45.8307
40.6444
44.6137
51.981
62.1883
61.8998
52.3727
53.6694
59.7911
60.2712
56.3341
53.4396
57.7175
64.8334
56.6211
60.1116
66.8348
68.8952
72.7814
66.4772
78.9782
72.4932
73.4454
68.6918
67.887
75.1124
72.7206
76.9367
79.699
83.0711
88.1884
90.0332
86.7468
82.2981
83.8248
86.3192
78.353
73.9498
66.0506
64.3963
70.2255
81.4444
92.3697
102.672
92.9715
90.1687
87.3449
89.3893
99.9332
99.3938
93.5816
92.6575
98.9391
99.3478
95.8057
88.4012
66.1201
80.9487
55.1186
74.9129
50.901
64.3482
54.9557
33.176
51.4788
32.1901
48.2517
39.0124
21.6423
39.014
20.489
38.2645
20.1237
37.4366
27.3807
15.2204
27.0469
14.4603
27.3925
14.0019
26.8846
13.5817
27.5276
13.7189
29.46
17.7738
10.8387
20.3445
11.1551
20.8764
11.0376
21.1751
11.091
20.5391
10.9079
20.5681
10.9431
20.1826
10.8573
20.008
10.8475
19.7629
10.7935
19.5904
10.7937
19.2579
10.7644
19.0688
10.7813
18.61
10.7386
18.0892
10.5989
16.748
11.4975
13.7106
30.3669
52.7262
34.2446
52.8137
37.1099
54.7899
37.7521
54.1233
39.2019
55.561
39.3404
54.7757
40.4511
55.9559
40.5015
55.127
41.3532
56.0149
41.1878
55.0934
41.9184
55.6991
41.5788
54.5079
41.8293
54.599
40.4747
52.5636
39.5535
50.0584
62.551
82.2661
72.6654
82.1704
64.6425
64.4569
73.2428
82.0332
64.9247
73.4059
81.6293
65.7702
65.0492
73.2973
81.6326
64.9147
73.25
81.1299
65.551
64.3955
72.7537
80.9759
63.4174
72.2087
79.5745
63.6738
61.7072
47.7458
23.203
12.0576
21.5139
12.1343
20.5477
12.0914
20.3982
12.1609
19.5408
12.0316
19.4218
12.0124
17.4781
12.4838
14.7978
30.9703
51.7573
32.686
51.678
37.7485
55.1684
37.5205
54.5101
41.0355
57.6185
40.5465
57.626
45.1819
61.2024
78.9948
68.2306
77.5828
66.0807
76.4555
64.0104
73.2178
46.0038
23.2058
13.0674
22.1069
13.3871
21.364
13.4052
20.5011
13.2808
18.9166
14.0142
15.8795
24.4327
14.4746
22.5333
14.5813
21.2811
14.5136
20.6634
14.4643
18.9722
14.9576
16.3831
30.8932
55.3128
32.7877
55.8341
38.2465
59.6267
38.943
59.8444
44.9762
64.6607
48.3051
31.6561
55.6678
35.6887
56.9351
39.7604
60.1631
41.5147
60.2298
45.1303
60.4836
70.1899
89.2352
79.8969
86.3448
71.0434
68.759
77.7179
85.4967
68.7869
65.6833
75.4395
82.7147
71.2874
81.5451
68.6606
77.5137
48.7047
24.4005
15.3752
23.6495
15.857
22.6598
15.9554
21.3229
16.9511
18.2827
32.0628
52.8507
27.0142
17.3863
24.3802
17.4791
23.6789
17.722
22.5826
17.7404
21.8329
18.567
19.3166
27.573
19.0097
26.1262
19.3912
25.3787
19.8364
24.38
20.0393
23.5302
20.906
21.4946
32.2803
52.2328
28.222
21.2664
26.4037
21.6443
26.2107
22.2481
25.743
22.6976
25.6413
23.2405
23.6617
31.0262
24.1713
30.2955
25.064
30.159
26.0252
30.1772
26.8244
30.3494
27.5781
30.6168
28.1256
30.894
28.4677
31.0394
28.679
31.1612
28.8682
31.1077
29.039
30.8554
29.7954
29.9424
38.4041
58.7381
35.4148
31.7861
35.9712
33.4549
39.1495
33.0811
33.2494
34.6202
34.0953
35.8437
34.9702
36.937
35.9064
38.0992
36.9836
39.3853
38.2651
40.9937
39.6972
43.5075
40.0703
40.6895
41.7739
41.8249
44.2391
43.5386
49.2408
45.0342
45.5244
48.7636
46.4437
47.0649
51.9143
49.7213
48.8343
49.9942
52.5537
52.2123
51.9173
52.1864
51.1828
51.0699
50.0016
49.406
47.728
46.921
45.289
44.7358
43.545
43.2118
42.5986
42.629
42.5526
43.163
43.591
44.3849
45.6588
46.5555
48.7143
49.5741
52.2731
53.0714
56.3073
56.9999
60.7494
61.2614
65.4553
65.7646
70.3443
70.4319
75.2763
75.1511
80.1583
79.8146
84.9068
84.3224
89.4003
88.5853
93.598
92.5371
97.4153
96.1551
100.884
99.3946
103.923
102.295
106.664
104.851
109.005
107.083
111.055
108.977
112.727
110.571
114.139
111.858
115.212
112.886
116.066
113.646
116.628
114.192
117.011
114.511
117.216
114.686
117.289
114.68
117.166
114.54
116.921
114.242
116.515
113.843
116.027
113.302
115.396
112.725
114.729
112.049
113.975
111.322
113.189
110.521
112.34
109.736
111.503
108.899
110.624
108.093
109.773
107.252
108.895
106.45
108.055
105.625
107.198
104.846
106.386
104.053
105.566
103.312
104.796
102.562
104.024
101.866
103.302
101.163
102.581
100.514
101.91
99.8603
101.24
99.2584
100.619
98.6529
99.9998
98.0984
99.4293
97.54
98.8587
97.0301
98.3352
96.5156
97.8102
96.0408
97.3275
95.5696
96.8471
95.1279
96.4036
94.6956
95.9638
94.291
95.5578
93.8929
95.1534
93.5217
94.7834
93.1588
94.4159
92.8217
94.0797
92.4887
93.741
92.1768
93.4306
91.8685
93.119
91.5832
92.837
91.302
92.5523
91.0402
92.2928
90.7789
92.0285
90.5366
91.7897
90.295
91.5448
90.0696
91.3224
89.8436
91.0954
89.6369
90.8938
89.4303
90.6835
89.2348
90.4889
89.0326
90.285
88.8478
90.1083
88.6676
89.9278
88.5007
89.7603
88.3201
89.5735
88.1479
89.4096
87.9831
89.2511
87.8432
89.1168
87.6885
88.9498
87.5417
88.8127
87.3665
88.6408
87.2314
88.5039
87.0258
88.2338
86.4615
87.6037
85.6449
86.8983
84.069
80.9058
60.414
60.5189
60.2238
60.3768
59.9697
59.1652
60.7285
59.5296
57.9672
61.0086
59.5896
57.9531
61.0701
59.6394
57.5981
61.2606
59.7775
58.1573
61.26
59.8469
57.8065
61.476
59.9941
58.3364
61.5033
60.0803
58.0425
61.7129
60.2337
58.5686
61.7462
60.3279
58.2877
61.9686
60.4881
58.822
62.0036
60.5799
58.5375
62.2221
60.7369
59.0792
62.2534
60.8288
58.7869
62.4769
60.9897
59.3349
62.5102
61.081
59.0348
62.7339
61.2386
59.5876
62.7616
61.3263
59.2776
62.986
61.4843
59.835
63.0131
61.571
59.5146
63.2393
61.7273
60.0762
63.2627
61.8107
59.7446
63.4896
61.9658
60.3097
63.5104
62.046
59.9657
63.7371
62.1976
60.5331
63.7532
62.2735
60.1763
63.98
62.4235
60.7456
63.9941
62.4963
60.3748
64.2215
62.6423
60.9442
64.2296
62.7076
60.5586
64.4525
62.8468
61.1261
64.4547
62.9066
60.7243
64.6776
63.0426
61.2889
64.6764
63.0957
60.8692
64.8951
63.222
61.4282
64.8836
63.2637
60.9907
65.0957
63.3821
61.5415
65.0792
63.4165
61.0857
65.2875
63.5253
61.6272
65.2607
63.5457
61.1499
65.4584
63.641
61.6782
65.4208
63.6481
61.1791
65.6087
63.7292
61.692
65.5592
63.721
61.1691
65.7362
63.7872
61.6639
65.6742
63.7609
61.116
65.8337
63.8038
61.5886
65.7505
63.754
61.0128
65.892
63.7774
61.4606
65.7945
63.7072
60.8564
65.915
63.7017
61.2762
65.7883
63.5975
60.6398
65.8769
63.5598
61.0287
65.7231
63.426
60.3602
65.7824
63.3544
60.7186
65.5938
63.1811
60.0153
65.6114
63.0669
60.3434
65.3798
62.8511
59.6046
65.3527
62.6925
59.9071
65.0725
62.4299
59.132
64.9959
62.2206
59.4167
64.6555
61.9147
58.603
64.5414
61.6493
58.8789
64.134
61.3103
58.0304
63.9753
61.0112
58.3151
63.5069
60.6276
57.435
63.3083