/*--------------------------------*- C++ -*----------------------------------*\
| =========                 |                                                 |
| \\      /  F ield         | OpenFOAM: The Open Source CFD Toolbox           |
|  \\    /   O peration     | Version:  v2006                                 |
|   \\  /    A nd           | Website:  www.openfoam.com                      |
|    \\/     M anipulation  |                                                 |
\*---------------------------------------------------------------------------*/
FoamFile
{
    version     2.0;
    format      ascii;
    class       volScalarField;
    location    "0.024";
    object      rho;
}
// * * * * * * * * * * * * * * * * * * * * * * * * * * * * * * * * * * * * * //

dimensions      [1 -3 0 0 0 0 0];


internalField   nonuniform List<scalar> 
9148
(
1.71412
1.71425
1.71414
1.71425
1.71418
1.71423
1.7143
1.7144
1.71452
1.71464
1.71477
1.71491
1.71505
1.7152
1.71535
1.71552
1.7157
1.71588
1.71607
1.71627
1.71648
1.7167
1.71692
1.71715
1.71738
1.71762
1.71787
1.71811
1.71836
1.71862
1.71888
1.71914
1.7194
1.71966
1.71992
1.72018
1.72044
1.72069
1.72095
1.7212
1.72145
1.72169
1.72193
1.72217
1.72239
1.72262
1.72283
1.72304
1.72324
1.72344
1.72362
1.7238
1.72396
1.72412
1.72427
1.7244
1.72453
1.72464
1.72474
1.72483
1.72489
1.72495
1.72499
1.72501
1.72498
1.725
1.72503
1.72509
1.72526
1.72552
1.72565
1.72552
1.72525
1.72552
1.72555
1.72547
1.72539
1.72505
1.72487
1.72526
1.72537
1.72527
1.72514
1.72472
1.72461
1.72504
1.72519
1.72512
1.72496
1.72453
1.72448
1.7249
1.72507
1.72503
1.72485
1.72444
1.72441
1.72482
1.725
1.72497
1.72479
1.72439
1.72439
1.72477
1.72496
1.72496
1.72477
1.7244
1.72442
1.72477
1.72496
1.72498
1.72479
1.72445
1.72448
1.72481
1.72499
1.72502
1.72484
1.72452
1.72457
1.72487
1.72505
1.72509
1.72492
1.72463
1.72469
1.72496
1.72514
1.72519
1.72502
1.72476
1.72482
1.72507
1.72524
1.72531
1.72514
1.7249
1.72498
1.72521
1.72537
1.72544
1.72529
1.72506
1.72515
1.72536
1.72551
1.7256
1.72545
1.72525
1.72534
1.72553
1.72568
1.72577
1.72563
1.72545
1.72555
1.72572
1.72586
1.72597
1.72584
1.72568
1.72579
1.72594
1.72608
1.72619
1.72607
1.72593
1.72605
1.72618
1.72631
1.72643
1.72632
1.72619
1.72632
1.72644
1.72655
1.72669
1.72658
1.72646
1.7266
1.7267
1.72681
1.72695
1.72685
1.72675
1.72689
1.72699
1.72709
1.72724
1.72715
1.72706
1.72722
1.72729
1.72738
1.72755
1.72747
1.7274
1.72758
1.72764
1.72772
1.7279
1.72783
1.72778
1.72797
1.72801
1.72808
1.72828
1.72821
1.72817
1.72837
1.7284
1.72846
1.72867
1.72861
1.72858
1.72878
1.7288
1.72885
1.72906
1.72901
1.72899
1.7292
1.72921
1.72925
1.72947
1.72943
1.72942
1.72965
1.72964
1.72968
1.72991
1.72988
1.7299
1.73015
1.73013
1.73015
1.73041
1.73039
1.73042
1.73069
1.73066
1.73067
1.73095
1.73094
1.73097
1.73126
1.73122
1.73123
1.73152
1.73152
1.73156
1.73187
1.73181
1.73181
1.7321
1.73211
1.73217
1.73249
1.73241
1.7324
1.7327
1.73272
1.7328
1.73313
1.73304
1.73301
1.73332
1.73336
1.73344
1.73379
1.7337
1.73366
1.734
1.73404
1.73412
1.73452
1.73442
1.73437
1.73475
1.7348
1.73491
1.73538
1.73526
1.73519
1.73562
1.73571
1.73584
1.73638
1.73624
1.73614
1.73659
1.7367
1.73683
1.73761
1.73751
1.73723
1.7372
1.73592
1.73181
1.72978
1.73126
1.73576
1.7322
1.73036
1.72996
1.72992
1.73055
1.73135
1.73162
1.73071
1.72987
1.72975
1.73078
1.7318
1.73136
1.73055
1.7297
1.72977
1.73054
1.73108
1.73097
1.73033
1.7295
1.72966
1.73059
1.73134
1.73128
1.73055
1.72964
1.73048
1.73116
1.73172
1.73176
1.73129
1.73078
1.7311
1.73169
1.73213
1.73224
1.73182
1.7312
1.73148
1.73218
1.73256
1.7327
1.73235
1.73164
1.7319
1.73254
1.73282
1.73282
1.7326
1.73202
1.73226
1.73262
1.73277
1.73265
1.73257
1.73242
1.73245
1.73248
1.73256
1.73249
1.73238
1.73236
1.73222
1.73231
1.73247
1.73251
1.73232
1.73212
1.73215
1.73243
1.73261
1.73263
1.73253
1.73233
1.73243
1.73253
1.73261
1.73259
1.73251
1.73243
1.73241
1.73248
1.73256
1.73255
1.73246
1.73238
1.73236
1.73246
1.73255
1.73258
1.73247
1.73234
1.73234
1.73251
1.73263
1.73268
1.73256
1.73236
1.7324
1.73261
1.73273
1.73278
1.73266
1.73244
1.73248
1.7327
1.73282
1.73285
1.73273
1.73251
1.73254
1.73277
1.73288
1.73294
1.73283
1.7326
1.73269
1.73292
1.73302
1.7331
1.73301
1.7328
1.73294
1.73313
1.7332
1.73331
1.73326
1.73312
1.73332
1.73339
1.73342
1.73353
1.73353
1.73349
1.73363
1.73362
1.73361
1.73366
1.7337
1.73373
1.73379
1.73374
1.73369
1.73373
1.73378
1.73383
1.73382
1.73378
1.73372
1.73368
1.73378
1.73393
1.734
1.73404
1.73401
1.73399
1.73399
1.73395
1.73385
1.73375
1.73368
1.73366
1.73369
1.73375
1.73384
1.73391
1.73396
1.73395
1.73391
1.73367
1.73349
1.73348
1.73337
1.73339
1.7334
1.73315
1.73359
1.73317
1.73317
1.73277
1.73435
1.73285
1.73435
1.73304
1.73283
1.73298
1.73327
1.7339
1.73331
1.73315
1.73299
1.73285
1.73324
1.73285
1.73298
1.73301
1.73299
1.73288
1.73316
1.73286
1.73349
1.7327
1.73312
1.73333
1.73308
1.73311
1.73308
1.7332
1.73357
1.73342
1.73349
1.73278
1.73308
1.73319
1.73354
1.73388
1.73351
1.7324
1.73292
1.73376
1.73477
1.73483
1.73474
1.73279
1.73301
1.73424
1.73527
1.73489
1.73542
1.73312
1.7343
1.73471
1.73531
1.73494
1.73553
1.73397
1.73478
1.73483
1.7352
1.73485
1.73543
1.73439
1.73487
1.73478
1.735
1.73465
1.73536
1.73433
1.73436
1.73513
1.73466
1.73453
1.73517
1.73423
1.73432
1.73502
1.73459
1.73454
1.73518
1.73427
1.73433
1.73501
1.73463
1.73457
1.73492
1.73434
1.73487
1.73434
1.73472
1.73475
1.73438
1.73486
1.73471
1.73473
1.73471
1.7348
1.73481
1.7348
1.73494
1.73495
1.73492
1.73508
1.7351
1.73509
1.73526
1.73528
1.73525
1.73546
1.73548
1.73547
1.73566
1.7357
1.73567
1.73592
1.73594
1.73583
1.73596
1.73618
1.73618
1.73646
1.73645
1.73621
1.73652
1.7366
1.73663
1.7369
1.73482
1.73908
1.73739
1.73741
1.73694
1.7374
1.73748
1.73748
1.73781
1.73775
1.73765
1.73786
1.73796
1.73803
1.73831
1.73813
1.73805
1.73843
1.73854
1.73823
1.73847
1.73833
1.73833
1.73841
1.73875
1.73915
1.73778
1.73809
1.73793
1.73781
1.73666
1.73916
1.73621
1.73576
1.73491
1.73271
1.73244
1.73321
1.72354
1.72773
1.7275
1.71417
1.71379
1.71071
1.69363
1.70335
1.70487
1.68654
1.6867
1.66748
1.65244
1.67174
1.67978
1.67732
1.67279
1.66602
1.67469
1.68008
1.68363
1.68515
1.68122
1.67655
1.6792
1.68198
1.68454
1.69033
1.68855
1.68587
1.68772
1.68899
1.6906
1.69506
1.69385
1.69194
1.69227
1.69393
1.69449
1.6984
1.69761
1.69616
1.69811
1.69687
1.69919
1.69898
1.7006
1.6964
1.70109
1.70155
1.70132
1.70114
1.70155
1.70041
1.70323
1.70365
1.70354
1.70396
1.70348
1.70326
1.70255
1.70402
1.70413
1.7054
1.7063
1.70338
1.70567
1.70406
1.70625
1.70765
1.70661
1.70722
1.70762
1.70641
1.70712
1.70802
1.70776
1.70846
1.70885
1.70685
1.70785
1.70759
1.70921
1.70793
1.71042
1.70898
1.709
1.70821
1.70917
1.70916
1.70963
1.71022
1.70938
1.7088
1.70972
1.70771
1.7093
1.71074
1.71033
1.71
1.70973
1.70863
1.71027
1.71098
1.71101
1.71052
1.71027
1.70991
1.71072
1.7113
1.71133
1.71103
1.71007
1.71114
1.71052
1.71107
1.71051
1.71045
1.71278
1.70965
1.71198
1.70995
1.71174
1.71242
1.71063
1.71312
1.71338
1.70995
1.71202
1.71205
1.71108
1.71268
1.7128
1.71104
1.7115
1.71191
1.71163
1.71248
1.71193
1.71119
1.71124
1.71209
1.71205
1.71236
1.71165
1.71147
1.71147
1.71191
1.71186
1.7117
1.71106
1.71115
1.71129
1.71205
1.71207
1.71177
1.71093
1.71114
1.71134
1.7117
1.71165
1.7112
1.7105
1.71078
1.711
1.71165
1.71165
1.71122
1.71035
1.71066
1.71086
1.71126
1.71119
1.71064
1.70994
1.71028
1.7105
1.71119
1.71118
1.7107
1.70979
1.71014
1.71035
1.71075
1.71068
1.71
1.70944
1.7096
1.71002
1.71068
1.70996
1.71033
1.71007
1.70834
1.71002
1.71037
1.70865
1.71063
1.70824
1.7097
1.7093
1.70912
1.71001
1.70974
1.70991
1.70958
1.70981
1.70854
1.70878
1.70901
1.70894
1.70874
1.70884
1.70801
1.70798
1.7081
1.70847
1.70863
1.70859
1.70773
1.70766
1.70752
1.70752
1.70798
1.70801
1.70706
1.70688
1.70658
1.70692
1.7074
1.70744
1.70658
1.70639
1.7062
1.70645
1.70673
1.70706
1.70612
1.70493
1.70586
1.70503
1.70558
1.70582
1.7047
1.7042
1.70454
1.70463
1.70608
1.70446
1.70554
1.70554
1.70428
1.70368
1.70407
1.70428
1.70446
1.70427
1.70416
1.7031
1.70309
1.70329
1.70363
1.70355
1.70325
1.70215
1.70239
1.70248
1.70275
1.70268
1.70224
1.70094
1.70132
1.70152
1.70194
1.70182
1.70142
1.70012
1.70073
1.70092
1.70136
1.70024
1.70028
1.69969
1.70034
1.70076
1.69919
1.69909
1.69883
1.6989
1.69965
1.69959
1.69845
1.69819
1.69761
1.6979
1.69882
1.69889
1.69767
1.69724
1.69674
1.69655
1.6975
1.6976
1.69625
1.69612
1.69516
1.69595
1.69665
1.6966
1.6955
1.69519
1.69377
1.69395
1.69473
1.69568
1.69482
1.69486
1.69391
1.69286
1.6931
1.69323
1.69364
1.69371
1.693
1.69112
1.69174
1.69213
1.69244
1.69233
1.69113
1.68961
1.69038
1.69095
1.69111
1.69102
1.68993
1.68794
1.68898
1.68951
1.68987
1.68884
1.68861
1.68772
1.68879
1.68927
1.68731
1.68692
1.68656
1.68644
1.68746
1.68745
1.68604
1.68537
1.68468
1.68486
1.68602
1.68609
1.68452
1.6839
1.6831
1.68344
1.68451
1.68459
1.68294
1.68232
1.68157
1.6817
1.68276
1.68282
1.68092
1.68021
1.67943
1.67965
1.6807
1.68074
1.68063
1.68035
1.67897
1.67685
1.67821
1.67862
1.67846
1.67838
1.67742
1.67516
1.67631
1.67667
1.67628
1.67594
1.67501
1.67274
1.67398
1.67434
1.67459
1.67444
1.67348
1.67136
1.67254
1.67274
1.67249
1.6722
1.67112
1.66855
1.66987
1.67031
1.67002
1.66964
1.6685
1.66742
1.66924
1.66947
1.66685
1.66614
1.66466
1.66548
1.66695
1.6671
1.66508
1.66445
1.66329
1.66326
1.66456
1.66463
1.66229
1.66163
1.66053
1.65914
1.66084
1.6613
1.65889
1.65802
1.65655
1.65811
1.65943
1.65943
1.65706
1.65645
1.65517
1.65438
1.65578
1.6563
1.65551
1.65545
1.65353
1.64901
1.65091
1.65204
1.65146
1.65115
1.64944
1.64679
1.64819
1.64898
1.64885
1.64879
1.64722
1.64434
1.64559
1.64616
1.64506
1.64491
1.64341
1.63911
1.64079
1.6418
1.6407
1.64009
1.6381
1.6354
1.63702
1.63795
1.63811
1.6381
1.6363
1.63313
1.63465
1.63529
1.63407
1.63403
1.63229
1.62737
1.6293
1.63039
1.62852
1.62778
1.62532
1.62212
1.62415
1.62528
1.62543
1.62544
1.62341
1.61974
1.6215
1.62239
1.6205
1.62053
1.61849
1.61237
1.61463
1.61605
1.61354
1.61264
1.60963
1.60615
1.6085
1.61016
1.60957
1.60941
1.60701
1.60546
1.60866
1.60881
1.60327
1.602
1.59915
1.5957
1.59896
1.59966
1.59487
1.59307
1.58965
1.59215
1.59408
1.59431
1.59169
1.59086
1.58875
1.58274
1.58375
1.58485
1.58232
1.58218
1.58021
1.568
1.57251
1.57497
1.57415
1.57355
1.56997
1.56601
1.56889
1.57007
1.56836
1.56853
1.56563
1.55711
1.56038
1.56215
1.55407
1.55198
1.54712
1.5415
1.54562
1.54756
1.54761
1.54731
1.54418
1.53809
1.54148
1.54253
1.53589
1.53566
1.53158
1.51342
1.52098
1.52593
1.52141
1.52034
1.51613
1.51261
1.51646
1.51953
1.50743
1.50586
1.50373
1.48733
1.49261
1.49552
1.48589
1.48167
1.47445
1.47864
1.48101
1.48203
1.47805
1.47584
1.46726
1.44878
1.45856
1.46107
1.45072
1.44459
1.43442
1.42844
1.43217
1.43674
1.42435
1.42224
1.41513
1.38824
1.40331
1.41034
1.39531
1.38881
1.37878
1.3684
1.37654
1.37964
1.36596
1.35614
1.33602
1.33614
1.34528
1.34987
1.32192
1.30915
1.28676
1.29987
1.31021
1.31786
1.31335
1.299
1.26743
1.26229
1.29533
1.30754
1.30624
1.29458
1.25946
1.28636
1.31454
1.31884
1.35959
1.35736
1.33618
1.37155
1.38955
1.39453
1.41339
1.40622
1.38973
1.40264
1.41671
1.425
1.43399
1.42471
1.41218
1.42187
1.43246
1.44195
1.44847
1.43852
1.42938
1.43671
1.44436
1.45393
1.45835
1.44877
1.4424
1.44814
1.4535
1.46238
1.46585
1.45721
1.45291
1.45769
1.46133
1.46912
1.47201
1.46467
1.46182
1.46583
1.46827
1.47481
1.47734
1.4713
1.46936
1.47273
1.47438
1.47977
1.48201
1.47711
1.4758
1.47869
1.47978
1.48412
1.48619
1.48224
1.4814
1.48388
1.48458
1.48809
1.4901
1.48684
1.48627
1.48844
1.4889
1.49183
1.49378
1.49096
1.49057
1.49248
1.49278
1.49533
1.49719
1.49466
1.49443
1.49615
1.49633
1.49861
1.50037
1.49813
1.49797
1.49952
1.49967
1.50175
1.50345
1.50136
1.50119
1.50259
1.5028
1.50477
1.50638
1.5044
1.50416
1.50542
1.50573
1.50761
1.5091
1.50723
1.50689
1.50807
1.50847
1.51026
1.51166
1.50988
1.50943
1.51055
1.51104
1.51273
1.51403
1.51234
1.5118
1.51287
1.51342
1.51499
1.51626
1.51467
1.51405
1.51506
1.51569
1.51712
1.51831
1.51683
1.51616
1.51711
1.51779
1.51909
1.52024
1.51887
1.51816
1.51907
1.51976
1.52096
1.52202
1.52075
1.52003
1.52089
1.52159
1.52269
1.5237
1.52253
1.52181
1.52263
1.52332
1.52431
1.52523
1.52417
1.52347
1.52423
1.5249
1.52579
1.52667
1.52573
1.52505
1.52576
1.5264
1.5272
1.52798
1.52714
1.5265
1.52716
1.52777
1.52848
1.52923
1.52848
1.52788
1.52849
1.52906
1.5297
1.53037
1.52971
1.52914
1.52971
1.53024
1.5308
1.53146
1.53086
1.53033
1.53087
1.53136
1.53186
1.53245
1.53192
1.53143
1.53192
1.53238
1.53283
1.5334
1.53292
1.53246
1.53292
1.53335
1.53375
1.53427
1.53384
1.53341
1.53383
1.53424
1.5346
1.5351
1.53471
1.53431
1.5347
1.53508
1.5354
1.53586
1.53551
1.53513
1.5355
1.53585
1.53614
1.53659
1.53626
1.53592
1.53626
1.53658
1.53685
1.53725
1.53696
1.53663
1.53694
1.53725
1.5375
1.53789
1.53762
1.53731
1.5376
1.53789
1.53812
1.53848
1.53822
1.53794
1.5382
1.53848
1.53869
1.53904
1.5388
1.53852
1.53878
1.53904
1.53924
1.53956
1.53933
1.53907
1.5393
1.53955
1.53974
1.54005
1.53983
1.53958
1.5398
1.54004
1.54022
1.54051
1.54029
1.54005
1.54025
1.54048
1.54066
1.54094
1.54074
1.5405
1.54068
1.54091
1.54109
1.54135
1.54114
1.54091
1.54108
1.54131
1.54147
1.54173
1.54153
1.5413
1.54146
1.54169
1.54185
1.54209
1.54189
1.54166
1.54181
1.54203
1.54219
1.54243
1.54223
1.542
1.54214
1.54236
1.54253
1.54274
1.54255
1.54232
1.54244
1.54267
1.54283
1.54305
1.54285
1.54262
1.54274
1.54296
1.54313
1.54333
1.54313
1.54291
1.54301
1.54323
1.5434
1.5436
1.5434
1.54317
1.54327
1.5435
1.54366
1.54384
1.54365
1.54342
1.54351
1.54374
1.5439
1.54408
1.54389
1.54366
1.54375
1.54397
1.54413
1.5443
1.54411
1.54389
1.54396
1.54418
1.54435
1.54452
1.54433
1.5441
1.54417
1.54439
1.54456
1.54472
1.54452
1.5443
1.54437
1.54459
1.54475
1.54491
1.54472
1.54449
1.54455
1.54477
1.54494
1.54509
1.54489
1.54467
1.54473
1.54494
1.54511
1.54526
1.54506
1.54485
1.5449
1.54511
1.54528
1.54542
1.54522
1.54501
1.54505
1.54527
1.54543
1.54557
1.54538
1.54516
1.54521
1.54542
1.54558
1.54572
1.54552
1.54531
1.54534
1.54556
1.54572
1.54586
1.54566
1.54545
1.54548
1.5457
1.54586
1.54599
1.54579
1.54558
1.54561
1.54582
1.54599
1.54611
1.54591
1.54571
1.54574
1.54595
1.54611
1.54623
1.54603
1.54583
1.54585
1.54606
1.54623
1.54635
1.54615
1.54594
1.54596
1.54617
1.54634
1.54645
1.54625
1.54605
1.54607
1.54628
1.54645
1.54656
1.54635
1.54615
1.54617
1.54638
1.54655
1.54665
1.54645
1.54625
1.54626
1.54647
1.54664
1.54675
1.54654
1.54634
1.54636
1.54656
1.54674
1.54684
1.54663
1.54643
1.54644
1.54665
1.54682
1.54692
1.54672
1.54652
1.54653
1.54673
1.54691
1.547
1.54679
1.5466
1.5466
1.54681
1.54698
1.54707
1.54687
1.54667
1.54668
1.54688
1.54706
1.54715
1.54694
1.54674
1.54675
1.54695
1.54713
1.54721
1.54701
1.54681
1.54682
1.54702
1.5472
1.54728
1.54708
1.54688
1.54688
1.54708
1.54726
1.54734
1.54714
1.54694
1.54694
1.54715
1.54733
1.5474
1.5472
1.547
1.547
1.5472
1.54738
1.54746
1.54725
1.54706
1.54706
1.54726
1.54744
1.54751
1.54731
1.54711
1.54711
1.54731
1.54749
1.54756
1.54736
1.54716
1.54716
1.54736
1.54754
1.54761
1.5474
1.54721
1.5472
1.5474
1.54759
1.54765
1.54745
1.54725
1.54724
1.54744
1.54763
1.5477
1.54749
1.54729
1.54728
1.54748
1.54767
1.54773
1.54752
1.54733
1.54732
1.54752
1.5477
1.54776
1.54755
1.54736
1.54734
1.54754
1.54773
1.54779
1.54758
1.54739
1.54737
1.54757
1.54776
1.54781
1.5476
1.54741
1.54739
1.54759
1.54778
1.54783
1.54762
1.54743
1.54741
1.54761
1.5478
1.54785
1.54764
1.54744
1.54742
1.54762
1.54781
1.54786
1.54765
1.54746
1.54744
1.54764
1.54783
1.54788
1.54767
1.54748
1.54745
1.54765
1.54785
1.54791
1.54769
1.5475
1.54748
1.54768
1.54788
1.54794
1.54771
1.54752
1.5475
1.54771
1.5479
1.548
1.54777
1.54758
1.54757
1.54778
1.54799
1.54811
1.54788
1.54768
1.54769
1.54791
1.54812
1.54829
1.54803
1.5478
1.54786
1.54808
1.54835
1.549
1.54855
1.54829
1.54918
1.54942
1.54988
1.54992
1.54958
1.54945
1.55042
1.55347
1.55449
1.5544
1.55745
1.5605
1.56115
1.56103
1.56329
1.56509
1.56659
1.56764
1.56864
1.56952
1.57025
1.5708
1.57118
1.57143
1.57161
1.57172
1.5718
1.57184
1.57187
1.57189
1.5719
1.57189
1.57188
1.57186
1.57185
1.57184
1.57182
1.57182
1.57192
1.57196
1.57201
1.57208
1.57216
1.57226
1.57239
1.57254
1.57272
1.57293
1.57317
1.5734
1.57362
1.57377
1.57385
1.5739
1.57397
1.57408
1.57421
1.57435
1.57451
1.57467
1.57485
1.57504
1.57526
1.57551
1.57579
1.57611
1.57648
1.5769
1.57738
1.57792
1.57855
1.57925
1.58005
1.58095
1.58196
1.58309
1.58435
1.58575
1.5873
1.589
1.59086
1.59289
1.59509
1.59745
1.59999
1.60268
1.60552
1.6085
1.61161
1.61482
1.61812
1.62149
1.6249
1.62835
1.6318
1.63524
1.63865
1.64201
1.64532
1.64856
1.65171
1.65478
1.65775
1.66062
1.66339
1.66605
1.66861
1.67106
1.6734
1.67564
1.67777
1.67981
1.68174
1.68359
1.68534
1.68701
1.6886
1.6901
1.69153
1.69289
1.69417
1.69539
1.69655
1.69764
1.69868
1.69967
1.7006
1.70149
1.70233
1.70312
1.70387
1.70458
1.70526
1.7059
1.7065
1.70707
1.70761
1.70812
1.7086
1.70906
1.70948
1.70989
1.71027
1.71063
1.71096
1.71128
1.71157
1.71185
1.71211
1.71235
1.71257
1.71277
1.71296
1.71313
1.71328
1.71342
1.71355
1.71366
1.71376
1.71387
1.71401
1.71412
1.71417
1.71419
1.71421
1.71444
1.71459
1.7147
1.7148
1.7149
1.715
1.71511
1.71523
1.71536
1.7155
1.71565
1.71581
1.71599
1.71617
1.71636
1.71656
1.71677
1.71698
1.7172
1.71743
1.71767
1.71791
1.71815
1.7184
1.71865
1.71891
1.71916
1.71942
1.71968
1.71994
1.7202
1.72045
1.72071
1.72096
1.72121
1.72146
1.7217
1.72194
1.72217
1.72239
1.72261
1.72283
1.72303
1.72323
1.72342
1.7236
1.72377
1.72393
1.72408
1.72422
1.72435
1.72447
1.72458
1.72469
1.72479
1.72489
1.72496
1.72501
1.72512
1.72523
1.72526
1.72526
1.72521
1.72518
1.72515
1.72513
1.72512
1.72512
1.72512
1.72513
1.72515
1.72517
1.7252
1.72523
1.72527
1.72532
1.72537
1.72543
1.72549
1.72555
1.72562
1.7257
1.72577
1.72586
1.72595
1.72604
1.72614
1.72625
1.72636
1.72648
1.7266
1.72672
1.72684
1.72697
1.7271
1.72724
1.72738
1.72753
1.72769
1.72785
1.72803
1.72821
1.7284
1.72858
1.72878
1.72897
1.72916
1.72936
1.72956
1.72977
1.73
1.73023
1.73048
1.73074
1.73102
1.73129
1.73158
1.73186
1.73215
1.73244
1.73273
1.73303
1.73334
1.73366
1.734
1.73436
1.73474
1.73515
1.73556
1.73603
1.73646
1.73692
1.73717
1.73713
1.73657
1.73553
1.73472
1.73452
1.73375
1.73182
1.73142
1.73193
1.73182
1.7322
1.73212
1.73247
1.73248
1.73276
1.73286
1.73299
1.73299
1.73294
1.73281
1.73271
1.73265
1.73262
1.73266
1.73272
1.73272
1.73269
1.73266
1.73264
1.73263
1.73265
1.73268
1.73274
1.73279
1.73283
1.73288
1.73291
1.73294
1.73297
1.73302
1.73309
1.73316
1.73325
1.73335
1.73344
1.73354
1.73359
1.73365
1.73367
1.7337
1.73379
1.73393
1.73387
1.73375
1.73371
1.73377
1.73364
1.73363
1.73358
1.73356
1.73362
1.73381
1.73393
1.734
1.73407
1.73401
1.73392
1.73393
1.73403
1.73407
1.73407
1.73402
1.73392
1.73368
1.73333
1.73335
1.73341
1.73345
1.73336
1.73332
1.7332
1.73325
1.73318
1.73313
1.73312
1.73296
1.73306
1.7331
1.73305
1.73301
1.73296
1.733
1.73296
1.73292
1.73284
1.7328
1.73289
1.73294
1.73291
1.73288
1.73285
1.73287
1.73282
1.7328
1.73275
1.73268
1.73277
1.73277
1.73272
1.73271
1.73268
1.73268
1.73266
1.73264
1.7326
1.73259
1.73265
1.73266
1.73267
1.73265
1.73269
1.7327
1.73272
1.7327
1.73261
1.73262
1.73271
1.73272
1.73268
1.73268
1.73272
1.73268
1.73272
1.73279
1.73276
1.73283
1.73292
1.73281
1.7329
1.73295
1.73311
1.73304
1.73303
1.73291
1.73309
1.73325
1.73303
1.73304
1.73285
1.73244
1.7327
1.73274
1.73244
1.73202
1.73329
1.73463
1.73276
1.73249
1.73214
1.73196
1.73303
1.73229
1.73201
1.73309
1.73626
1.73714
1.73569
1.73267
1.73313
1.73582
1.73726
1.73533
1.73608
1.73689
1.7373
1.73719
1.73736
1.7365
1.73666
1.73706
1.73729
1.73706
1.73714
1.73708
1.73702
1.7367
1.73709
1.73716
1.73699
1.7368
1.73667
1.73674
1.73635
1.73621
1.73621
1.73559
1.73597
1.73596
1.73554
1.73549
1.73522
1.73515
1.73475
1.73476
1.73495
1.73433
1.7345
1.73439
1.73404
1.73409
1.73385
1.73371
1.7334
1.73348
1.73375
1.73319
1.73325
1.7331
1.7328
1.7329
1.73268
1.73252
1.73223
1.73233
1.73264
1.73208
1.73211
1.73195
1.73167
1.73177
1.73155
1.73139
1.73111
1.73122
1.73153
1.73101
1.73101
1.73084
1.73058
1.7307
1.73051
1.73033
1.7301
1.73022
1.73053
1.7301
1.73006
1.72988
1.72967
1.72979
1.72964
1.72947
1.72928
1.72939
1.7297
1.7293
1.72925
1.72908
1.72889
1.72901
1.72886
1.7287
1.72851
1.72863
1.72892
1.72855
1.72848
1.72833
1.72815
1.72826
1.72813
1.72798
1.72781
1.72792
1.7282
1.72788
1.72781
1.72766
1.7275
1.72762
1.72751
1.72737
1.72723
1.72734
1.72759
1.72732
1.72724
1.7271
1.72697
1.72707
1.72698
1.72685
1.72672
1.72682
1.72706
1.72681
1.72674
1.72661
1.72648
1.72659
1.7265
1.72638
1.72627
1.72637
1.72658
1.72637
1.72629
1.72617
1.72607
1.72616
1.7261
1.72598
1.72589
1.72598
1.72618
1.726
1.72592
1.72582
1.72574
1.72582
1.72577
1.72567
1.7256
1.72568
1.72584
1.7257
1.72563
1.72554
1.72548
1.72555
1.72551
1.72543
1.72537
1.72544
1.72558
1.72547
1.72541
1.72533
1.72529
1.72535
1.72532
1.72526
1.72523
1.72528
1.72538
1.72531
1.72526
1.72521
1.72519
1.72523
1.72522
1.72518
1.72518
1.72521
1.72526
1.72522
1.72521
1.72518
1.72519
1.7252
1.72521
1.72521
1.72523
1.72522
1.72518
1.72512
1.72522
1.7253
1.72537
1.72546
1.72556
1.72568
1.72581
1.72596
1.72612
1.72629
1.72648
1.72669
1.72692
1.72717
1.72742
1.72769
1.72797
1.72828
1.72862
1.72898
1.72935
1.72974
1.73013
1.73055
1.731
1.73149
1.73202
1.73255
1.73308
1.73361
1.73414
1.7347
1.73529
1.73587
1.73638
1.73679
1.73709
1.73733
1.73751
1.73752
1.73721
1.73634
1.73472
1.73355
1.73314
1.73279
1.73256
1.73254
1.7325
1.73248
1.73251
1.73256
1.7326
1.73268
1.73283
1.73305
1.73291
1.73322
1.73361
1.73388
1.73399
1.73405
1.734
1.73396
1.73385
1.7338
1.7339
1.73393
1.73386
1.73387
1.73379
1.73358
1.73316
1.73329
1.73367
1.7338
1.73386
1.73383
1.73387
1.73392
1.73386
1.73397
1.73403
1.73395
1.73405
1.73416
1.7341
1.73386
1.73354
1.73318
1.73288
1.73279
1.73254
1.73269
1.73254
1.73246
1.73232
1.73239
1.73239
1.7326
1.73287
1.7326
1.73245
1.73229
1.73226
1.73228
1.7324
1.73238
1.7323
1.73236
1.73241
1.73247
1.73245
1.7326
1.73243
1.73231
1.73249
1.73241
1.73287
1.73287
1.73301
1.73329
1.73358
1.73388
1.73419
1.73429
1.73434
1.73418
1.73429
1.7345
1.73446
1.73472
1.73467
1.73434
1.73427
1.73468
1.73477
1.73464
1.7344
1.73478
1.73492
1.73494
1.7349
1.73463
1.7341
1.73365
1.73345
1.73348
1.7333
1.73342
1.73334
1.73326
1.73322
1.73319
1.7331
1.73324
1.73409
1.73475
1.73367
1.73323
1.73298
1.73308
1.7331
1.73405
1.73471
1.73499
1.73502
1.73499
1.73493
1.73472
1.73457
1.73417
1.73393
1.7337
1.73359
1.73405
1.73416
1.73415
1.73432
1.73436
1.73452
1.73478
1.73485
1.73499
1.73504
1.73506
1.73504
1.73505
1.73493
1.73499
1.73477
1.73418
1.73393
1.73447
1.73452
1.73481
1.73495
1.73509
1.73507
1.73509
1.73507
1.73501
1.73494
1.73492
1.735
1.73505
1.73495
1.73483
1.73465
1.73457
1.73472
1.73481
1.73489
1.73482
1.73476
1.73469
1.73461
1.73444
1.73441
1.73436
1.73442
1.73416
1.73413
1.7336
1.73381
1.733
1.73331
1.73269
1.733
1.73362
1.7329
1.73255
1.73248
1.73261
1.73288
1.73371
1.73295
1.73373
1.73514
1.7362
1.73494
1.73367
1.73469
1.73592
1.73668
1.73665
1.73647
1.73574
1.73465
1.73382
1.73482
1.73421
1.73506
1.73481
1.73448
1.73437
1.73468
1.73449
1.73457
1.73457
1.73451
1.73455
1.7345
1.73455
1.73454
1.7346
1.73465
1.73467
1.7346
1.73461
1.73458
1.73462
1.73461
1.73464
1.73466
1.73476
1.73471
1.73476
1.73494
1.73503
1.73487
1.73518
1.73504
1.73492
1.73525
1.7354
1.73527
1.73539
1.73558
1.73582
1.73565
1.73584
1.73563
1.73601
1.73541
1.73582
1.73595
1.73657
1.7364
1.73674
1.73649
1.73632
1.7361
1.73635
1.73607
1.73654
1.73675
1.73696
1.73683
1.7372
1.737
1.73718
1.73688
1.73709
1.73703
1.73743
1.73738
1.73764
1.73743
1.73769
1.73802
1.7379
1.73775
1.73756
1.73731
1.73694
1.73631
1.7358
1.73616
1.7365
1.7362
1.7353
1.73648
1.737
1.73494
1.7369
1.73786
1.73665
1.73768
1.7379
1.73806
1.7376
1.73812
1.73695
1.73652
1.7366
1.73769
1.73785
1.73522
1.73398
1.73489
1.73431
1.7332
1.73413
1.73573
1.7378
1.7328
1.72998
1.7297
1.73172
1.73089
1.73148
1.72874
1.72703
1.72633
1.72443
1.7276
1.71319
1.72051
1.72149
1.72765
1.72742
1.73135
1.73259
1.73423
1.73525
1.73374
1.73362
1.73057
1.72657
1.72471
1.72264
1.71792
1.71273
1.70712
1.69994
1.68888
1.69065
1.69995
1.70363
1.69674
1.69203
1.6902
1.69608
1.69448
1.6987
1.69758
1.70073
1.70091
1.70061
1.7032
1.70312
1.70483
1.70492
1.70519
1.70619
1.70631
1.70732
1.70727
1.70812
1.70843
1.70818
1.70916
1.70925
1.70974
1.70985
1.71022
1.71031
1.7107
1.7107
1.71109
1.71123
1.71091
1.71133
1.71135
1.71157
1.71131
1.71159
1.71153
1.71168
1.71153
1.71174
1.71164
1.71177
1.71152
1.71166
1.71141
1.71152
1.71117
1.71129
1.71098
1.71108
1.71075
1.71079
1.7105
1.71052
1.71022
1.71015
1.71013
1.70973
1.70927
1.70941
1.70983
1.71032
1.71035
1.71084
1.7107
1.71103
1.71105
1.71145
1.71129
1.7116
1.71155
1.71194
1.71176
1.71203
1.71193
1.71229
1.71207
1.71226
1.71211
1.71241
1.71212
1.7123
1.71209
1.71242
1.71205
1.71225
1.71196
1.71216
1.7117
1.71163
1.71213
1.71244
1.71246
1.7128
1.71248
1.71257
1.71268
1.7128
1.71253
1.7126
1.71268
1.71257
1.71243
1.71238
1.71229
1.71213
1.71196
1.71185
1.71196
1.71165
1.71138
1.7111
1.71104
1.71066
1.71037
1.7107
1.71029
1.71
1.70928
1.70871
1.70873
1.70822
1.70826
1.70782
1.70772
1.70718
1.70724
1.70665
1.70651
1.70606
1.70588
1.70522
1.70521
1.70587
1.70641
1.70655
1.70706
1.70717
1.70774
1.70791
1.70831
1.70831
1.70887
1.70899
1.70936
1.70935
1.70983
1.70935
1.70882
1.70832
1.70769
1.70708
1.70643
1.70577
1.70573
1.70487
1.70421
1.70414
1.70343
1.70329
1.70267
1.70244
1.70176
1.70158
1.70092
1.70088
1.70027
1.69951
1.69923
1.69863
1.69832
1.6977
1.69721
1.69661
1.69607
1.69539
1.69514
1.69584
1.69657
1.69687
1.69765
1.69806
1.69872
1.69911
1.69973
1.70007
1.70068
1.70105
1.70141
1.70192
1.70227
1.70287
1.70315
1.70367
1.704
1.70451
1.70482
1.70513
1.70482
1.70487
1.704
1.70333
1.70409
1.7033
1.70242
1.70165
1.70243
1.70152
1.70068
1.69991
1.69881
1.69789
1.69668
1.69579
1.69545
1.69448
1.69357
1.69304
1.69243
1.69175
1.69108
1.69048
1.68971
1.6893
1.68995
1.68935
1.68839
1.68766
1.68682
1.68605
1.68541
1.68465
1.68387
1.68295
1.6822
1.68127
1.68067
1.67947
1.67869
1.67762
1.67661
1.67573
1.67478
1.67383
1.67286
1.67179
1.67061
1.66979
1.67099
1.6702
1.66854
1.66729
1.66615
1.66504
1.66369
1.66227
1.66113
1.65947
1.65854
1.657
1.65601
1.65389
1.65218
1.65081
1.64922
1.64765
1.64611
1.64407
1.64207
1.64043
1.63858
1.63692
1.63523
1.63276
1.6304
1.62845
1.6262
1.62432
1.62203
1.61943
1.61615
1.61408
1.61085
1.60948
1.61267
1.61064
1.60619
1.60285
1.59982
1.59605
1.59408
1.59018
1.58499
1.58168
1.57698
1.57448
1.57057
1.56601
1.56114
1.55604
1.55032
1.54736
1.54232
1.5357
1.52786
1.52562
1.51758
1.50755
1.5021
1.49008
1.48665
1.47568
1.4718
1.45462
1.43849
1.43919
1.41778
1.39953
1.40576
1.3818
1.36192
1.33951
1.35993
1.3393
1.33367
1.33476
1.34256
1.37311
1.40361
1.42269
1.43441
1.44409
1.45207
1.45947
1.46513
1.47059
1.47474
1.47928
1.48251
1.48637
1.48885
1.49215
1.49407
1.49695
1.49843
1.50094
1.50205
1.50431
1.50519
1.50727
1.50798
1.50989
1.51045
1.51223
1.51266
1.51432
1.51465
1.51625
1.51648
1.518
1.51817
1.51964
1.51976
1.52112
1.5212
1.52253
1.5226
1.52383
1.5239
1.52509
1.52517
1.52623
1.52634
1.52737
1.52749
1.52839
1.52854
1.52941
1.52959
1.53034
1.53055
1.53131
1.53152
1.53218
1.5324
1.53307
1.53328
1.53386
1.53408
1.53467
1.53488
1.53539
1.5356
1.53611
1.53631
1.53676
1.53696
1.53741
1.5376
1.538
1.53819
1.53859
1.53876
1.53911
1.53928
1.53964
1.5398
1.54011
1.54027
1.54058
1.54073
1.54099
1.54114
1.54141
1.54155
1.54179
1.54192
1.54216
1.54228
1.54249
1.54261
1.54283
1.54294
1.54313
1.54323
1.54343
1.54352
1.54369
1.54378
1.54396
1.54405
1.5442
1.54428
1.54445
1.54453
1.54467
1.54473
1.54489
1.54495
1.54508
1.54514
1.54528
1.54534
1.54546
1.54551
1.54564
1.54569
1.5458
1.54584
1.54597
1.54601
1.54611
1.54614
1.54626
1.54629
1.54639
1.54642
1.54653
1.54655
1.54665
1.54667
1.54677
1.54679
1.54688
1.54689
1.54699
1.54701
1.54709
1.5471
1.5472
1.54721
1.54729
1.54729
1.54738
1.54738
1.54746
1.54746
1.54755
1.54755
1.54762
1.54761
1.5477
1.54769
1.54776
1.54775
1.54783
1.54783
1.54789
1.54788
1.54796
1.54795
1.54801
1.548
1.54807
1.54806
1.54812
1.5481
1.54817
1.54815
1.54821
1.54818
1.54825
1.54823
1.54828
1.54825
1.54831
1.54829
1.54834
1.5483
1.54836
1.54833
1.54838
1.54834
1.5484
1.54837
1.54842
1.54838
1.54845
1.54842
1.54848
1.54845
1.54855
1.54856
1.54869
1.5487
1.54902
1.54897
1.54962
1.55042
1.55358
1.55285
1.55428
1.55138
1.5517
1.5529
1.55071
1.55107
1.5522
1.55039
1.55082
1.55193
1.55022
1.55067
1.55173
1.55019
1.55066
1.55175
1.55014
1.5506
1.55163
1.55013
1.5506
1.55171
1.55009
1.55055
1.55156
1.55009
1.55056
1.55169
1.55005
1.55052
1.55151
1.55005
1.55052
1.55166
1.55
1.55047
1.55147
1.55
1.55047
1.55162
1.54993
1.55041
1.55142
1.54993
1.5504
1.55156
1.54985
1.55033
1.55135
1.54984
1.55031
1.55149
1.54976
1.55023
1.55127
1.54974
1.55021
1.55141
1.54965
1.55013
1.55119
1.54963
1.55011
1.55132
1.54954
1.55002
1.55109
1.5495
1.54999
1.55122
1.54941
1.54989
1.55099
1.54937
1.54986
1.55111
1.54927
1.54976
1.55087
1.54922
1.54971
1.55099
1.54911
1.54961
1.55075
1.54906
1.54956
1.55086
1.54895
1.54945
1.55061
1.54889
1.54939
1.55072
1.54876
1.54927
1.55046
1.54869
1.54921
1.55057
1.54856
1.54907
1.5503
1.54848
1.54901
1.55041
1.54835
1.54887
1.55013
1.54826
1.54879
1.55023
1.54811
1.54864
1.54995
1.54802
1.54856
1.55004
1.54786
1.5484
1.54975
1.54775
1.54831
1.54983
1.54759
1.54814
1.54954
1.54747
1.54804
1.54961
1.54729
1.54785
1.54931
1.54716
1.54774
1.54936
1.54697
1.54755
1.54906
1.54682
1.54743
1.5491
1.54663
1.54722
1.54879
1.54646
1.54709
1.54881
1.54626
1.54687
1.54849
1.54608
1.54673
1.54851
1.54586
1.54649
1.54816
1.54567
1.54634
1.54818
1.54544
1.54609
1.54781
1.54523
1.54592
1.54781
1.54498
1.54565
1.54741
1.54475
1.54547
1.54741
1.54448
1.54518
1.54696
1.54423
1.54498
1.54695
1.54394
1.54466
1.54646
1.54366
1.54444
1.54645
1.54334
1.54409
1.5459
1.54303
1.54385
1.54586
1.54268
1.54346
1.54527
1.54235
1.54319
1.54518
1.54196
1.54277
1.54454
1.54158
1.54245
1.5444
1.54115
1.54198
1.54367
1.54075
1.54164
1.54351
1.54025
1.54109
1.54269
1.53979
1.5407
1.54248
1.53922
1.54006
1.54156
1.53869
1.5396
1.54125
1.53802
1.53886
1.54022
1.53738
1.53828
1.53981