/*--------------------------------*- C++ -*----------------------------------*\
| =========                 |                                                 |
| \\      /  F ield         | OpenFOAM: The Open Source CFD Toolbox           |
|  \\    /   O peration     | Version:  v2006                                 |
|   \\  /    A nd           | Website:  www.openfoam.com                      |
|    \\/     M anipulation  |                                                 |
\*---------------------------------------------------------------------------*/
FoamFile
{
    version     2.0;
    format      ascii;
    class       volScalarField;
    location    "0.024";
    object      turbulenceProperties:L;
}
// * * * * * * * * * * * * * * * * * * * * * * * * * * * * * * * * * * * * * //

dimensions      [0 1 0 0 0 0 0];


internalField   nonuniform List<scalar> 
9148
(
1997.51
1997.52
1998.09
1999.07
1998.91
1998.88
1998.21
1996.99
1995.42
1994.02
1992.85
1991.89
1991
1990.14
1989.29
1988.47
1987.66
1986.88
1986.12
1985.39
1984.69
1984.01
1983.35
1982.71
1982.1
1981.52
1980.96
1980.44
1979.94
1979.49
1979.07
1978.69
1978.35
1978.05
1977.8
1977.6
1977.45
1977.35
1977.3
1977.31
1977.38
1977.51
1977.7
1977.96
1978.28
1978.67
1979.08
1979.15
1976.34
1955.69
1892.92
1724.28
1363.35
849.06
411.77
171.108
66.9414
26.0533
10.6771
5.0098
3.24168
2.12664
1.6085
1.31972
1.61018
0.617937
0.255681
0.0968114
0.0254705
0.00317735
0.000591082
4.25352e-05
4.15802e-05
0.000295173
0.00125474
0.000823873
0.000227377
4.0747e-05
4.00176e-05
0.000201542
0.00066561
0.000578152
0.000190303
3.99561e-05
3.95967e-05
0.000179368
0.000525298
0.000482656
0.000174015
3.94639e-05
3.92327e-05
0.00016848
0.000461532
0.000438946
0.000164991
3.90749e-05
3.90065e-05
0.000163957
0.000428972
0.000412491
0.000160796
3.89462e-05
3.88965e-05
0.000160463
0.000407726
0.000395775
0.000157803
3.88386e-05
3.87976e-05
0.000157673
0.000392484
0.000382851
0.00015534
3.87462e-05
3.871e-05
0.000155245
0.000380385
0.00037214
0.000153178
3.86633e-05
3.86301e-05
0.000153048
0.000370226
0.000362929
0.000151198
3.85866e-05
3.85553e-05
0.000151054
0.000361413
0.000354806
0.000149363
3.8514e-05
3.84838e-05
0.000149214
0.000353576
0.000347516
0.000147645
3.84436e-05
3.8414e-05
0.000147497
0.000346466
0.00034087
0.000146024
3.83744e-05
3.83449e-05
0.000145886
0.00033996
0.000334743
0.000144491
3.83053e-05
3.82754e-05
0.000144369
0.000333941
0.000329038
0.000143037
3.82354e-05
3.82049e-05
0.000142933
0.000328325
0.000323688
0.000141652
3.8164e-05
3.81326e-05
0.000141568
0.000323046
0.000318635
0.000140326
3.80904e-05
3.80578e-05
0.000140262
0.00031805
0.00031383
0.00013905
3.80139e-05
3.79796e-05
0.000139006
0.000313289
0.000309231
0.000137815
3.79335e-05
3.78973e-05
0.000137789
0.000308722
0.000304797
0.000136611
3.78486e-05
3.781e-05
0.0001366
0.000304308
0.000300488
0.000135426
3.77581e-05
3.77166e-05
0.000135427
0.000300008
0.000296267
0.000134251
3.76608e-05
3.76159e-05
0.00013426
0.000295785
0.000292098
0.000133073
3.75554e-05
3.75063e-05
0.000133091
0.000291605
0.000287951
0.000131885
3.74402e-05
3.73861e-05
0.000131908
0.000287435
0.000283793
0.000130674
3.73133e-05
3.72532e-05
0.000130698
0.000283242
0.000279589
0.000129432
3.71723e-05
3.71051e-05
0.00012945
0.000278986
0.000275288
0.000128145
3.70146e-05
3.69388e-05
0.000128152
0.000274623
0.000270846
0.000126793
3.68364e-05
3.67499e-05
0.000126775
0.000270097
0.000266197
0.000125348
3.66326e-05
3.65326e-05
0.000125299
0.000265346
0.000261272
0.000123786
3.63965e-05
3.62791e-05
0.000123685
0.000260285
0.000255957
0.000122053
3.61188e-05
3.59784e-05
0.000121872
0.000254786
0.000250084
0.000120075
3.57861e-05
3.5614e-05
0.000119767
0.00024866
0.000243478
0.000117741
3.53783e-05
3.51588e-05
0.000117219
0.000241631
0.000235749
0.000114917
3.48632e-05
3.45659e-05
0.00011388
0.0002332
0.00022625
0.000111277
3.41787e-05
3.37486e-05
0.000109385
0.00022241
0.000213991
0.000106207
3.32011e-05
3.25156e-05
0.000102966
0.000207652
0.000197076
9.86618e-05
3.16255e-05
3.03786e-05
9.24558e-05
0.000185776
0.000170745
8.57664e-05
2.8832e-05
2.52572e-05
7.05537e-05
0.000149323
0.000112297
4.5045e-05
1.75725e-05
2.18296e-05
4.24182e-05
8.29572e-05
8.64228e-05
7.57812e-05
2.53457e-05
2.64905e-05
0.000104812
0.000126882
0.000170629
0.000131551
2.67659e-05
2.51608e-05
0.000158094
0.00021403
0.000255746
0.000151348
1.82663e-05
1.21671e-05
8.26079e-05
0.000177613
0.000129309
5.16591e-05
9.35553e-06
8.05866e-06
4.13342e-05
0.00011021
9.84176e-05
3.36963e-05
7.48034e-06
1.07654e-05
3.71143e-05
0.000110359
0.000123362
4.1962e-05
1.33512e-05
1.54172e-05
5.42861e-05
0.000160435
0.000177582
6.06115e-05
1.62317e-05
1.65096e-05
7.05029e-05
0.00019548
0.00019572
7.16201e-05
1.60373e-05
1.52412e-05
7.02706e-05
0.000185535
0.000162424
6.293e-05
1.41029e-05
1.34398e-05
5.8209e-05
0.000149789
0.000136218
5.26019e-05
1.31345e-05
1.34825e-05
4.95273e-05
0.000133179
0.000133873
4.9118e-05
1.44153e-05
1.55069e-05
5.01991e-05
0.000137353
0.000144166
5.23025e-05
1.669e-05
1.78392e-05
5.50168e-05
0.00015226
0.000164037
5.85014e-05
1.88993e-05
1.98298e-05
6.1815e-05
0.000174151
0.000189859
6.59057e-05
2.06445e-05
2.13316e-05
6.96766e-05
0.000200972
0.000219254
7.45157e-05
2.19087e-05
2.23657e-05
7.86276e-05
0.000230382
0.000250024
8.40309e-05
2.27319e-05
2.29921e-05
8.8498e-05
0.000260532
0.000280035
9.41599e-05
2.31377e-05
2.31942e-05
9.87466e-05
0.000288822
0.000305126
0.000104378
2.31983e-05
2.30606e-05
0.00010729
0.000311093
0.000322203
0.000111002
2.28396e-05
2.2483e-05
0.00011227
0.000325345
0.000331828
0.000115527
2.20255e-05
2.14052e-05
0.000115166
0.000328938
0.00032875
0.000117333
2.06619e-05
1.97048e-05
0.000114811
0.000317156
0.0003095
0.000115727
1.85775e-05
1.72221e-05
0.000111359
0.000287167
0.000273484
0.000111563
1.57913e-05
1.40848e-05
0.000107101
0.00024389
0.000226429
0.000108545
1.2385e-05
9.55486e-06
0.000100909
0.000188433
0.000172952
0.000103404
7.61444e-06
1.29007e-05
0.000140565
0.000149175
0.000154324
0.000161485
0.000161737
0.0001664
0.000165698
0.000167301
0.000167258
0.000167915
0.000168107
0.0001684
0.000168495
0.000168578
0.000168632
0.000168507
0.000168415
0.000167658
0.000167514
0.000165718
0.000166492
0.000158366
8.78149e-05
2.27711e-05
3.58016e-05
4.8167e-05
4.48884e-05
3.24203e-05
3.16812e-06
6.79426e-07
4.30024e-06
1.9192e-05
2.95942e-05
3.86359e-06
4.3275e-07
7.54122e-07
4.4428e-06
3.53801e-05
3.7603e-05
4.46799e-06
7.81533e-07
7.94523e-07
4.56297e-06
3.84571e-05
3.10299e-05
3.89483e-06
6.74479e-07
6.15162e-07
4.12434e-06
3.29758e-05
3.57702e-05
4.80729e-06
6.50687e-07
9.58257e-07
1.07956e-05
5.8025e-05
5.61727e-05
1.40415e-05
1.30088e-06
1.32609e-06
1.30829e-05
4.90923e-05
3.63664e-05
1.00779e-05
1.23135e-06
9.56953e-07
6.21518e-06
1.99399e-05
1.85485e-05
5.09681e-06
7.83485e-07
6.98233e-07
6.68395e-06
2.58412e-05
2.94035e-05
7.17405e-06
6.77436e-07
5.3039e-07
8.12473e-06
3.48306e-05
3.79536e-05
9.20738e-06
6.67472e-07
1.1409e-06
1.17561e-05
4.53311e-05
4.68621e-05
1.27994e-05
1.57211e-06
2.06641e-06
1.53897e-05
5.45515e-05
5.54508e-05
1.59579e-05
2.44767e-06
2.87479e-06
1.83735e-05
6.29285e-05
6.32358e-05
1.85829e-05
3.20462e-06
3.58857e-06
2.09556e-05
7.04288e-05
7.02087e-05
2.09311e-05
3.88479e-06
4.23744e-06
2.33457e-05
7.73752e-05
7.66897e-05
2.30642e-05
4.52084e-06
4.87511e-06
2.57071e-05
8.44382e-05
8.38903e-05
2.5397e-05
5.16905e-06
5.55762e-06
2.85626e-05
9.29599e-05
9.31593e-05
2.85817e-05
5.88769e-06
6.26088e-06
3.37012e-05
0.000105671
0.000106005
3.41067e-05
6.45555e-06
6.83763e-06
4.03403e-05
0.000121362
0.000121652
4.08589e-05
7.15092e-06
7.70996e-06
4.77423e-05
0.000139297
0.00014144
4.99101e-05
8.26444e-06
9.15433e-06
5.93122e-05
0.0001614
0.000164821
6.25995e-05
1.00063e-05
1.14072e-05
7.35048e-05
0.000184568
0.000189587
7.58049e-05
1.33246e-05
9.86339e-06
8.5539e-05
0.000194539
8.13804e-05
2.6137e-05
4.62026e-06
8.30236e-06
7.30518e-05
0.000185027
0.000204038
8.13184e-05
1.06955e-05
1.36753e-05
9.93074e-05
0.000240933
0.000262793
0.000111159
1.616e-05
1.1212e-05
9.76784e-05
0.000233365
0.000162236
6.19876e-05
5.92494e-06
1.20802e-05
9.63413e-05
0.000228704
0.000344564
0.000143675
1.74393e-05
1.18748e-05
5.42589e-05
0.000134211
0.000185166
7.83876e-05
9.95033e-06
1.84071e-05
0.000143032
0.000332546
0.000253287
0.000160905
1.71952e-05
8.73743e-06
3.3338e-05
8.79952e-05
0.000177354
9.05895e-05
1.18747e-05
1.6098e-05
9.02668e-05
0.000192235
0.000272541
0.000420291
1.70411e-05
1.33286e-05
2.35744e-05
5.57432e-05
6.39198e-05
3.00744e-05
1.10945e-05
1.92018e-05
6.00347e-05
0.000104664
8.23294e-05
4.51985e-05
1.94583e-05
1.10198e-05
1.98999e-05
3.57773e-05
5.83484e-05
4.29253e-05
1.19202e-05
1.20836e-05
2.24947e-05
3.8168e-05
6.0974e-05
4.61602e-05
1.31537e-05
1.35671e-05
2.46536e-05
4.10189e-05
6.53519e-05
4.461e-05
1.53831e-05
1.70889e-05
3.89653e-05
6.077e-05
3.29356e-05
1.80053e-05
9.92089e-06
1.12097e-05
4.34051e-05
5.30611e-05
3.65357e-05
2.22104e-05
1.20655e-05
1.41635e-05
4.20985e-05
5.96409e-05
5.58256e-05
3.70001e-05
1.60307e-05
9.37802e-06
1.65764e-05
3.07519e-05
4.88389e-05
4.10936e-05
1.0286e-05
1.10785e-05
2.00139e-05
3.3223e-05
5.31952e-05
4.30833e-05
1.19508e-05
1.27346e-05
2.15478e-05
3.60008e-05
5.71881e-05
3.93435e-05
1.40682e-05
1.58553e-05
3.34814e-05
5.25901e-05
2.79665e-05
1.51349e-05
9.0742e-06
9.77655e-06
3.79955e-05
4.47842e-05
3.00973e-05
1.86616e-05
1.06081e-05
1.08968e-05
4.02316e-05
4.71728e-05
3.12178e-05
1.92592e-05
1.1566e-05
1.16378e-05
3.88803e-05
4.86043e-05
3.20138e-05
1.95259e-05
1.21933e-05
1.23411e-05
3.86127e-05
4.98308e-05
3.31775e-05
2.02716e-05
1.30871e-05
1.40958e-05
3.52587e-05
5.34763e-05
4.87419e-05
3.03043e-05
1.59605e-05
9.14346e-06
1.50151e-05
2.60965e-05
4.03106e-05
3.44092e-05
9.61572e-06
1.05642e-05
1.76045e-05
2.72428e-05
4.18131e-05
3.58678e-05
1.06647e-05
1.13723e-05
1.81999e-05
2.80218e-05
4.32914e-05
3.4322e-05
1.11712e-05
1.1749e-05
1.83403e-05
2.8759e-05
4.38477e-05
3.46949e-05
1.12678e-05
1.1887e-05
1.83238e-05
2.88339e-05
4.35693e-05
3.45455e-05
1.14769e-05
1.19365e-05
1.84851e-05
2.87893e-05
4.34619e-05
3.40343e-05
1.14896e-05
1.2186e-05
1.85369e-05
2.88603e-05
4.31691e-05
3.44249e-05
1.17146e-05
1.21935e-05
1.84921e-05
2.86913e-05
4.26581e-05
3.37504e-05
1.15633e-05
1.21967e-05
1.84702e-05
2.85373e-05
4.21549e-05
3.3739e-05
1.1706e-05
1.21908e-05
1.83014e-05
2.81294e-05
4.15027e-05
3.31058e-05
1.15362e-05
1.21122e-05
1.81864e-05
2.7729e-05
4.07534e-05
3.28082e-05
1.15067e-05
1.19995e-05
1.78763e-05
2.72268e-05
3.99605e-05
3.20632e-05
1.13229e-05
1.19021e-05
1.76715e-05
2.66884e-05
3.88493e-05
3.17178e-05
1.11906e-05
1.16051e-05
1.69386e-05
2.58238e-05
3.65467e-05
3.0964e-05
1.04787e-05
1.06027e-05
1.54962e-05
2.36311e-05
3.11821e-05
1.88537e-05
9.68865e-06
1.65058e-05
3.01533e-05
4.76743e-05
3.20007e-05
2.12992e-05
1.52875e-05
1.33242e-05
3.82386e-05
4.45306e-05
3.0441e-05
2.05508e-05
1.35156e-05
1.26824e-05
3.66674e-05
4.36728e-05
2.94905e-05
1.96303e-05
1.30454e-05
1.21622e-05
3.50594e-05
4.21379e-05
2.83915e-05
1.89316e-05
1.26496e-05
1.2059e-05
3.30417e-05
4.05644e-05
2.74341e-05
1.84215e-05
1.25081e-05
1.1529e-05
3.2642e-05
3.88932e-05
2.58966e-05
1.72046e-05
1.18065e-05
1.06585e-05
3.08775e-05
3.60032e-05
2.34585e-05
1.56474e-05
1.0835e-05
9.88477e-06
1.88365e-05
3.03952e-05
4.57757e-05
2.9184e-05
1.66452e-05
1.55323e-05
2.12292e-05
3.11069e-05
4.31349e-05
3.71752e-05
1.36784e-05
1.37608e-05
2.04857e-05
2.96062e-05
4.21338e-05
3.59175e-05
1.28542e-05
1.31702e-05
1.94652e-05
2.85146e-05
4.02853e-05
3.44576e-05
1.22362e-05
1.25578e-05
1.82312e-05
2.70517e-05
3.73587e-05
3.22972e-05
1.13975e-05
1.14857e-05
1.65164e-05
2.44367e-05
3.15191e-05
1.98485e-05
1.0392e-05
1.72533e-05
3.05053e-05
4.61726e-05
3.17581e-05
2.19649e-05
1.60045e-05
1.39332e-05
3.7495e-05
4.28689e-05
2.97251e-05
2.06717e-05
1.40186e-05
1.30057e-05
3.51872e-05
4.12816e-05
2.83367e-05
1.95019e-05
1.32898e-05
1.23835e-05
3.34294e-05
3.92075e-05
2.67172e-05
1.82578e-05
1.2654e-05
1.13565e-05
3.18281e-05
3.60881e-05
2.39366e-05
1.63711e-05
1.13097e-05
1.03677e-05
1.95422e-05
3.04257e-05
4.42682e-05
2.93647e-05
1.71365e-05
1.59842e-05
2.17411e-05
3.07526e-05
4.17195e-05
3.64035e-05
1.41834e-05
1.4262e-05
2.07136e-05
2.90714e-05
4.05821e-05
3.50278e-05
1.32668e-05
1.34232e-05
1.92897e-05
2.77436e-05
3.76281e-05
3.32732e-05
1.21422e-05
1.21296e-05
1.73995e-05
2.51093e-05
3.20855e-05
2.06308e-05
1.1029e-05
1.79889e-05
3.09682e-05
4.61655e-05
3.2214e-05
2.2836e-05
1.67969e-05
1.469e-05
3.78579e-05
4.27983e-05
2.99228e-05
2.13545e-05
1.46942e-05
1.37074e-05
3.56203e-05
4.10427e-05
2.85754e-05
2.01473e-05
1.39849e-05
1.31085e-05
3.347e-05
3.91447e-05
2.70547e-05
1.89635e-05
1.33571e-05
1.21676e-05
3.21764e-05
3.62275e-05
2.45284e-05
1.71901e-05
1.21505e-05
1.1128e-05
2.02932e-05
3.06729e-05
4.4285e-05
2.98321e-05
1.81461e-05
1.69921e-05
2.27463e-05
3.12272e-05
4.16833e-05
3.6779e-05
1.50378e-05
1.51055e-05
2.16068e-05
2.95155e-05
4.08237e-05
3.52753e-05
1.4157e-05
1.44211e-05
2.05386e-05
2.86289e-05
3.92825e-05
3.35139e-05
1.358e-05
1.37915e-05
1.93966e-05
2.73278e-05
3.65597e-05
3.21048e-05
1.26805e-05
1.26162e-05
1.7689e-05
2.49265e-05
3.13358e-05
2.08205e-05
1.1481e-05
1.83303e-05
3.02316e-05
4.3867e-05
3.12767e-05
2.29649e-05
1.70744e-05
1.52461e-05
3.63669e-05
4.12805e-05
2.95525e-05
2.16717e-05
1.52836e-05
1.43662e-05
3.45222e-05
3.99411e-05
2.84126e-05
2.06031e-05
1.45792e-05
1.37789e-05
3.30602e-05
3.84191e-05
2.72542e-05
1.96505e-05
1.40774e-05
1.30834e-05
3.17436e-05
3.62845e-05
2.52636e-05
1.81445e-05
1.30079e-05
1.20875e-05
2.12405e-05
3.15378e-05
4.41813e-05
3.05005e-05
1.92054e-05
1.79859e-05
2.39117e-05
3.1713e-05
4.26106e-05
3.70651e-05
1.62723e-05
1.6292e-05
2.29429e-05
3.06733e-05
4.20822e-05
3.59051e-05
1.56152e-05
1.58288e-05
2.21833e-05
3.0068e-05
4.11816e-05
3.51135e-05
1.51409e-05
1.54632e-05
2.14742e-05
2.93446e-05
4.01552e-05
3.36984e-05
1.48662e-05
1.52745e-05
2.12858e-05
2.88786e-05
3.93481e-05
3.31376e-05
1.47957e-05
1.50969e-05
2.0991e-05
2.84679e-05
3.85958e-05
3.28846e-05
1.45949e-05
1.48902e-05
2.04774e-05
2.78713e-05
3.76592e-05
3.19681e-05
1.43328e-05
1.47285e-05
2.03582e-05
2.74878e-05
3.70281e-05
3.14748e-05
1.42924e-05
1.45721e-05
2.00697e-05
2.71435e-05
3.62522e-05
3.15007e-05
1.39849e-05
1.41524e-05
1.91886e-05
2.63615e-05
3.44802e-05
3.0289e-05
1.33209e-05
1.3307e-05
1.82095e-05
2.49532e-05
3.03772e-05
2.1317e-05
1.25255e-05
1.97659e-05
2.92616e-05
4.19838e-05
3.09736e-05
2.42892e-05
1.86024e-05
1.72002e-05
3.63156e-05
4.16467e-05
3.07878e-05
2.4543e-05
1.75654e-05
1.83577e-05
3.3402e-05
4.54025e-05
4.17371e-05
3.00891e-05
1.98956e-05
1.27111e-05
1.90551e-05
2.62265e-05
3.51682e-05
3.30972e-05
1.30715e-05
1.38851e-05
2.0049e-05
2.62422e-05
3.64003e-05
3.05315e-05
1.42304e-05
1.48252e-05
2.01067e-05
2.69111e-05
3.65635e-05
3.0269e-05
1.48147e-05
1.51029e-05
2.02095e-05
2.7009e-05
3.65215e-05
3.06433e-05
1.49369e-05
1.54756e-05
2.08591e-05
2.73789e-05
3.70333e-05
3.09367e-05
1.5492e-05
1.59223e-05
2.14162e-05
2.78233e-05
3.77135e-05
3.21318e-05
1.57854e-05
1.65015e-05
2.2207e-05
2.81529e-05
4.11911e-05
3.00205e-05
1.77675e-05
1.94814e-05
2.79119e-05
3.83581e-05
2.49923e-05
1.88447e-05
1.2725e-05
1.34587e-05
3.0889e-05
3.39431e-05
2.60285e-05
2.03725e-05
1.44979e-05
1.5485e-05
2.98371e-05
3.61248e-05
2.74715e-05
2.20763e-05
1.64488e-05
1.8133e-05
2.99594e-05
4.12095e-05
3.88473e-05
2.8435e-05
2.04343e-05
1.41692e-05
2.00868e-05
2.5668e-05
3.83725e-05
3.00424e-05
1.63075e-05
1.90906e-05
2.895e-05
3.76905e-05
2.56649e-05
1.9869e-05
1.39137e-05
1.67201e-05
3.09772e-05
3.86822e-05
3.72365e-05
2.8336e-05
2.06069e-05
1.67204e-05
2.83954e-05
3.56627e-05
2.35678e-05
1.75953e-05
1.2581e-05
1.61412e-05
2.77846e-05
3.63838e-05
3.61613e-05
2.69268e-05
2.0097e-05
1.89538e-05
2.6475e-05
3.40629e-05
3.35302e-05
2.56123e-05
1.84112e-05
1.86041e-05
2.53905e-05
3.35726e-05
3.37933e-05
2.52759e-05
1.88351e-05
1.88996e-05
2.62053e-05
3.39446e-05
3.44289e-05
2.68213e-05
1.88823e-05
1.88425e-05
2.74516e-05
3.46282e-05
3.5713e-05
2.86415e-05
1.87654e-05
1.86833e-05
2.90792e-05
3.61007e-05
3.73554e-05
3.03872e-05
1.86122e-05
1.85195e-05
3.07649e-05
3.80062e-05
3.92831e-05
3.20863e-05
1.84296e-05
1.83416e-05
3.22677e-05
4.05286e-05
4.18697e-05
3.32563e-05
1.82525e-05
1.81658e-05
3.32973e-05
4.34807e-05
4.47089e-05
3.42015e-05
1.808e-05
1.79972e-05
3.42472e-05
4.62428e-05
4.73915e-05
3.52212e-05
1.79185e-05
1.78436e-05
3.53069e-05
4.88513e-05
4.99645e-05
3.6366e-05
1.77762e-05
1.77126e-05
3.64993e-05
5.13513e-05
5.2404e-05
3.76773e-05
1.76595e-05
1.76087e-05
3.78442e-05
5.36047e-05
5.4644e-05
3.91101e-05
1.75712e-05
1.75321e-05
3.92958e-05
5.57121e-05
5.6777e-05
4.06616e-05
1.7511e-05
1.74788e-05
4.0851e-05
5.7722e-05
5.88194e-05
4.22407e-05
1.74778e-05
1.74545e-05
4.2411e-05
5.96701e-05
6.08206e-05
4.38256e-05
1.74613e-05
1.74477e-05
4.39566e-05
6.15638e-05
6.27414e-05
4.53363e-05
1.74577e-05
1.74489e-05
4.53883e-05
6.33643e-05
6.45757e-05
4.6725e-05
1.74609e-05
1.74547e-05
4.66987e-05
6.50606e-05
6.62787e-05
4.79445e-05
1.7468e-05
1.74627e-05
4.78279e-05
6.66638e-05
6.79138e-05
4.90015e-05
1.74777e-05
1.74729e-05
4.8828e-05
6.81907e-05
6.94608e-05
4.98939e-05
1.74885e-05
1.7484e-05
4.96549e-05
6.96619e-05
7.10035e-05
5.0659e-05
1.75003e-05
1.74962e-05
5.0398e-05
7.10891e-05
7.24669e-05
5.1316e-05
1.75131e-05
1.75095e-05
5.10105e-05
7.2485e-05
7.38827e-05
5.18943e-05
1.7527e-05
1.75238e-05
5.15776e-05
7.38583e-05
7.52182e-05
5.23912e-05
1.75415e-05
1.75387e-05
5.20316e-05
7.51698e-05
7.65256e-05
5.28323e-05
1.75566e-05
1.75541e-05
5.24621e-05
7.64262e-05
7.77701e-05
5.32073e-05
1.75718e-05
1.75696e-05
5.27933e-05
7.76263e-05
7.89842e-05
5.35406e-05
1.75871e-05
1.7585e-05
5.31187e-05
7.87809e-05
8.012e-05
5.38179e-05
1.7602e-05
1.76e-05
5.33539e-05
7.98783e-05
8.12247e-05
5.40636e-05
1.76165e-05
1.76146e-05
5.35954e-05
8.0927e-05
8.22471e-05
5.42606e-05
1.76305e-05
1.76286e-05
5.37539e-05
8.19159e-05
8.32364e-05
5.44345e-05
1.76438e-05
1.7642e-05
5.39272e-05
8.2852e-05
8.41405e-05
5.45669e-05
1.76565e-05
1.76547e-05
5.40245e-05
8.37276e-05
8.50114e-05
5.46852e-05
1.76685e-05
1.76667e-05
5.4143e-05
8.45501e-05
8.57976e-05
5.47757e-05
1.76798e-05
1.76781e-05
5.41949e-05
8.5317e-05
8.65531e-05
5.4846e-05
1.76905e-05
1.76889e-05
5.42656e-05
8.60236e-05
8.72323e-05
5.48882e-05
1.77006e-05
1.7699e-05
5.42699e-05
8.66644e-05
8.78692e-05
5.4912e-05
1.77101e-05
1.77085e-05
5.42953e-05
8.72432e-05
8.84149e-05
5.49083e-05
1.77189e-05
1.77173e-05
5.42546e-05
8.77599e-05
8.89384e-05
5.48882e-05
1.7727e-05
1.77254e-05
5.42423e-05
8.82415e-05
8.936e-05
5.48462e-05
1.77346e-05
1.77329e-05
5.41693e-05
8.86494e-05
8.97556e-05
5.4794e-05
1.77415e-05
1.77399e-05
5.41261e-05
8.89987e-05
9.00664e-05
5.47219e-05
1.77479e-05
1.77462e-05
5.40268e-05
8.93041e-05
9.03586e-05
5.46441e-05
1.77537e-05
1.7752e-05
5.39613e-05
8.95583e-05
9.0578e-05
5.455e-05
1.7759e-05
1.77573e-05
5.38441e-05
8.97788e-05
9.07895e-05
5.44552e-05
1.77639e-05
1.77622e-05
5.37646e-05
8.99567e-05
9.09369e-05
5.43478e-05
1.77684e-05
1.77667e-05
5.36377e-05
9.0112e-05
9.10866e-05
5.42439e-05
1.77725e-05
1.77708e-05
5.35521e-05
9.02325e-05
9.11799e-05
5.41307e-05
1.77764e-05
1.77747e-05
5.34219e-05
9.03382e-05
9.12829e-05
5.40239e-05
1.778e-05
1.77784e-05
5.3335e-05
9.04182e-05
9.13297e-05
5.39095e-05
1.77835e-05
1.77818e-05
5.32051e-05
9.04889e-05
9.14149e-05
5.38038e-05
1.77868e-05
1.77851e-05
5.31204e-05
9.05448e-05
9.14256e-05
5.36921e-05
1.77899e-05
1.77883e-05
5.29942e-05
9.05817e-05
9.14867e-05
5.35905e-05
1.77929e-05
1.77913e-05
5.29137e-05
9.06113e-05
9.14702e-05
5.34833e-05
1.77957e-05
1.77942e-05
5.27925e-05
9.06227e-05
9.15082e-05
5.3387e-05
1.77985e-05
1.77969e-05
5.27171e-05
9.06299e-05
9.14715e-05
5.32852e-05
1.78012e-05
1.77996e-05
5.26017e-05
9.06218e-05
9.14934e-05
5.31949e-05
1.78038e-05
1.78022e-05
5.25322e-05
9.06117e-05
9.14434e-05
5.30997e-05
1.78063e-05
1.78048e-05
5.24238e-05
9.05883e-05
9.14565e-05
5.30164e-05
1.78087e-05
1.78072e-05
5.23605e-05
9.05638e-05
9.14004e-05
5.29281e-05
1.78111e-05
1.78096e-05
5.22583e-05
9.05284e-05
9.14083e-05
5.28529e-05
1.78134e-05
1.7812e-05
5.22008e-05
9.0496e-05
9.13445e-05
5.27707e-05
1.78157e-05
1.78142e-05
5.21047e-05
9.04543e-05
9.13458e-05
5.27015e-05
1.78179e-05
1.78165e-05
5.2053e-05
9.04165e-05
9.12756e-05
5.26251e-05
1.78201e-05
1.78186e-05
5.19629e-05
9.03702e-05
9.12726e-05
5.25618e-05
1.78222e-05
1.78208e-05
5.19168e-05
9.03296e-05
9.11986e-05
5.24908e-05
1.78243e-05
1.78228e-05
5.18323e-05
9.02809e-05
9.11927e-05
5.24329e-05
1.78263e-05
1.78249e-05
5.17913e-05
9.02379e-05
9.11154e-05
5.23669e-05
1.78283e-05
1.78269e-05
5.17119e-05
9.01868e-05
9.1107e-05
5.2314e-05
1.78302e-05
1.78288e-05
5.16757e-05
9.01423e-05
9.10282e-05
5.22529e-05
1.78321e-05
1.78307e-05
5.16013e-05
9.00912e-05
9.10198e-05
5.22048e-05
1.7834e-05
1.78326e-05
5.15698e-05
9.00474e-05
9.09409e-05
5.21483e-05
1.78358e-05
1.78344e-05
5.15e-05
8.99973e-05
9.09311e-05
5.21046e-05
1.78376e-05
1.78362e-05
5.14725e-05
8.9954e-05
9.08505e-05
5.20521e-05
1.78393e-05
1.78379e-05
5.14069e-05
8.99051e-05
9.08394e-05
5.20124e-05
1.78411e-05
1.78397e-05
5.13833e-05
8.98628e-05
9.076e-05
5.19636e-05
1.78428e-05
1.78414e-05
5.13215e-05
8.98155e-05
9.07504e-05
5.19277e-05
1.78444e-05
1.7843e-05
5.13014e-05
8.97744e-05
9.06718e-05
5.18825e-05
1.7846e-05
1.78447e-05
5.12431e-05
8.97278e-05
9.06629e-05
5.185e-05
1.78476e-05
1.78463e-05
5.12262e-05
8.96876e-05
9.05854e-05
5.1808e-05
1.78492e-05
1.78478e-05
5.11712e-05
8.96423e-05
9.05777e-05
5.17785e-05
1.78508e-05
1.78494e-05
5.11571e-05
8.96028e-05
9.05008e-05
5.17394e-05
1.78523e-05
1.78509e-05
5.11048e-05
8.95568e-05
9.04938e-05
5.17127e-05
1.78538e-05
1.78524e-05
5.10935e-05
8.95192e-05
9.04195e-05
5.16763e-05
1.78553e-05
1.78539e-05
5.1044e-05
8.94762e-05
9.04154e-05
5.16524e-05
1.78568e-05
1.78554e-05
5.10353e-05
8.94408e-05
9.03421e-05
5.16186e-05
1.78582e-05
1.78569e-05
5.09886e-05
8.93985e-05
9.03386e-05
5.15975e-05
1.78597e-05
1.78583e-05
5.09827e-05
8.93648e-05
9.02687e-05
5.15666e-05
1.78612e-05
1.78598e-05
5.09389e-05
8.93274e-05
9.02709e-05
5.15483e-05
1.78627e-05
1.78613e-05
5.09354e-05
8.92988e-05
9.02042e-05
5.15197e-05
1.78642e-05
1.78628e-05
5.08935e-05
8.92621e-05
9.02048e-05
5.15029e-05
1.78657e-05
1.78644e-05
5.08914e-05
8.92314e-05
9.01368e-05
5.14756e-05
1.78672e-05
1.78659e-05
5.08506e-05
8.91958e-05
9.01409e-05
5.146e-05
1.78687e-05
1.78674e-05
5.0849e-05
8.91694e-05
9.00759e-05
5.14326e-05
1.78702e-05
1.78689e-05
5.08072e-05
8.91331e-05
9.00744e-05
5.14152e-05
1.78717e-05
1.78704e-05
5.07928e-05
8.90883e-05
9.00099e-05
5.13871e-05
1.7873e-05
1.78716e-05
5.07738e-05
8.90655e-05
8.99742e-05
5.13912e-05
1.78857e-05
1.78952e-05
5.07715e-05
8.90563e-05
8.99662e-05
5.13394e-05
1.78975e-05
1.79069e-05
5.0754e-05
8.90298e-05
9.00279e-05
5.13946e-05
1.79495e-05
1.79817e-05
5.08525e-05
8.90982e-05
9.07413e-05
5.18233e-05
1.80935e-05
1.81977e-05
5.13753e-05
8.98662e-05
9.21776e-05
5.26566e-05
1.84065e-05
1.85983e-05
5.24475e-05
9.15672e-05
9.47341e-05
5.39712e-05
1.92335e-05
2.01982e-05
5.68364e-05
0.000101167
0.000106638
5.97729e-05
2.11633e-05
0.00020485
0.000360055
0.000525139
0.000567319
0.00082327
0.00116687
0.00143785
0.00153555
0.0020173
0.00264343
0.00321665
0.00392516
0.00489472
0.00635058
0.00865397
0.0121812
0.0173245
0.0243509
0.0334422
0.0446541
0.0579319
0.0730986
0.0898827
0.107871
0.126623
0.145342
0.163394
0.179397
0.192682
0.202322
0.208373
0.211237
0.213756
0.218271
0.224606
0.232537
0.241758
0.25225
0.263856
0.276818
0.291301
0.307726
0.326573
0.348561
0.374716
0.406665
0.456223
0.555693
0.763275
1.17637
1.98624
3.61224
7.03381
14.3572
28.8449
52.3097
78.3484
96.5407
105.407
109.189
110.964
112.155
113.342
114.514
115.707
116.938
118.228
119.597
121.064
122.65
124.38
126.276
128.366
130.676
133.237
136.081
139.242
142.756
146.66
150.994
155.798
161.114
166.983
173.448
180.553
188.338
196.848
206.122
216.202
227.127
238.936
251.665
265.35
280.022
295.712
312.448
330.255
349.152
369.157
390.284
412.542
435.932
460.455
486.101
512.861
540.712
569.633
599.589
630.547
662.459
695.283
728.957
763.432
798.636
834.513
870.985
907.992
945.452
983.303
1021.46
1059.87
1098.43
1137.1
1175.78
1214.41
1252.91
1291.22
1329.26
1366.95
1404.24
1441.03
1477.27
1512.88
1547.76
1581.83
1615
1647.17
1678.26
1708.19
1736.86
1764.24
1790.27
1814.93
1838.22
1860.11
1880.62
1899.71
1917.34
1933.42
1947.92
1960.74
1971.87
1980.95
1987.71
1991.97
1994.68
1996.92
1996.28
1995.8
1994.43
1991.71
1986.8
1980.64
1974.8
1969.87
1965.64
1961.77
1958.02
1954.32
1950.67
1947.09
1943.6
1940.24
1937
1933.89
1930.89
1928.02
1925.27
1922.66
1920.17
1917.82
1915.62
1913.56
1911.66
1909.91
1908.34
1906.94
1905.72
1904.7
1903.89
1903.28
1902.89
1902.72
1902.79
1903.09
1903.63
1904.38
1905.21
1905.56
1903.1
1889.99
1840.13
1691.76
1362.4
867.687
426.542
177.106
69.0168
26.6081
10.4572
4.24627
1.79852
0.814512
0.41571
0.249886
0.172404
0.116863
0.0537605
0.0146181
0.00650975
0.00225724
0.001941
0.00179641
0.00162428
0.00154875
0.00143897
0.00139346
0.00131508
0.00128489
0.00122553
0.00120332
0.00115678
0.00113974
0.00110183
0.00108831
0.00105638
0.00104535
0.00101775
0.00100855
0.000984192
0.000976339
0.00095452
0.00094765
0.000927854
0.000921744
0.000903549
0.000898034
0.000881135
0.000876094
0.000860254
0.000855586
0.000840609
0.000836229
0.000821948
0.000817782
0.000804054
0.000800038
0.000786738
0.000782814
0.000769827
0.000765943
0.000753165
0.000749274
0.000736615
0.000732669
0.000720041
0.000715986
0.000703284
0.000699054
0.000686157
0.000681675
0.000668442
0.000663648
0.000649952
0.000644738
0.000630379
0.000624606
0.000609325
0.000602789
0.000586228
0.00057862
0.000560249
0.000551077
0.000530056
0.000518503
0.00049349
0.000478086
0.000447115
0.000424457
0.00038428
0.000347505
0.000284248
0.000242579
0.000189521
0.000171745
0.000180006
0.000202082
0.000238738
0.000199354
0.000213981
0.000264291
0.000301444
0.000349513
0.00038083
0.000464621
0.000492676
0.000520175
0.000508912
0.000492154
0.00045659
0.000436429
0.00041454
0.000412328
0.00041804
0.000428401
0.000452645
0.000474095
0.000506192
0.000531311
0.000566216
0.00059015
0.000623478
0.000642311
0.000669093
0.000681248
0.000696113
0.00070082
0.000705453
0.000698718
0.000694736
0.000679257
0.000667107
0.000637997
0.000616671
0.000572104
0.000540343
0.000476729
0.000436797
0.000359291
0.000315945
0.000232836
0.000187019
0.000208723
0.000235444
0.000382171
0.000295447
0.000426699
0.000565837
0.00066135
0.000491987
0.000626567
0.000826104
0.000994736
0.000708405
0.000492554
0.000277779
0.000325464
0.000595364
0.000828342
0.000941232
0.000696719
0.000384477
0.000438348
0.000759455
0.00097404
0.00118433
0.00142129
0.00120878
0.000857095
0.000673456
0.000770856
0.000986774
0.000989401
0.00080091
0.000873524
0.00110094
0.00135954
0.00145545
0.00108902
0.00089197
0.000946051
0.00118563
0.00116308
0.000955548
0.000996919
0.00124562
0.00152471
0.00157395
0.00120994
0.000995776
0.00102608
0.00128262
0.00123877
0.00101608
0.0010343
0.00129878
0.00159691
0.00160503
0.00124945
0.00101712
0.00102046
0.00129833
0.00124358
0.00099633
0.000993007
0.00128277
0.0015858
0.00154921
0.00122038
0.000956825
0.000947976
0.00124957
0.00117269
0.000901993
0.00089024
0.00120184
0.00150363
0.00142528
0.00112009
0.000840277
0.000828528
0.00115015
0.00107301
0.000784483
0.000777579
0.0010964
0.00132307
0.00110522
0.00103391
0.000754566
0.000759715
0.00103523
0.000974118
0.000763338
0.000772868
0.000919253
0.00078381
0.000542767
0.000809882
0.000772536
0.000760215
0.000643159
0.000553863
0.000761908
0.000681752
0.00051537
0.000503873
0.000481815
0.00042205
0.000618433
0.000481174
0.000352612
0.000316511
0.000360192
0.000249036
0.000329766
0.000524432
0.000638654
0.000372754
0.000236146
0.000295392
0.00036351
0.000402219
0.000282893
0.000274582
0.000429264
0.00085035
0.00111666
0.000545616
0.000276112
0.000294266
0.000554075
0.000747147
0.000372614
0.000411423
0.000732841
0.00138343
0.00166484
0.000954351
0.000520731
0.000570749
0.000933518
0.00115159
0.000677626
0.000718291
0.00111678
0.00191247
0.00214543
0.00131764
0.000802224
0.000827403
0.00126572
0.00145422
0.000898191
0.000912362
0.0013887
0.00235149
0.00254925
0.00157091
0.000974913
0.000982144
0.00149357
0.00167401
0.00103926
0.00104161
0.00158651
0.00273433
0.00291185
0.00176812
0.00109567
0.00109492
0.00167156
0.00185418
0.00114667
0.00114389
0.00175097
0.00308579
0.003258
0.00193603
0.00119381
0.00118938
0.00182644
0.00201495
0.0012382
0.00123242
0.00189918
0.00343001
0.00360312
0.0020918
0.00128066
0.00127375
0.00197005
0.00216725
0.00132186
0.00131399
0.00203979
0.0037783
0.00395634
0.00224204
0.00136224
0.00135342
0.00210932
0.00231721
0.00140213
0.00139251
0.00217863
0.00413761
0.00432294
0.00239367
0.00144203
0.00143174
0.00224887
0.00247196
0.00148241
0.00147156
0.0023214
0.00451346
0.00471094
0.00255318
0.00152372
0.00151243
0.00239774
0.00263921
0.00156634
0.00155464
0.00247836
0.00491907
0.00514093
0.00273039
0.00161061
0.00159856
0.00256361
0.00282715
0.00165698
0.00164469
0.00265447
0.00538043
0.00564122
0.00293072
0.001706
0.00169357
0.0027522
0.00304258
0.00175831
0.00174587
0.00285827
0.00592796
0.00624639
0.00316453
0.00181466
0.00180237
0.00297448
0.00329873
0.00187599
0.00186404
0.00310303
0.00660371
0.00700882
0.00344789
0.00194344
0.00193207
0.00324667
0.00361542
0.00201842
0.00200789
0.00340853
0.00747199
0.00800389
0.0038052
0.00210279
0.00209362
0.00359217
0.00402423
0.00219943
0.00219226
0.00380587
0.00862644
0.00937307
0.00428168
0.00231208
0.00230785
0.00405935
0.00459036
0.00244596
0.00244618
0.00436706
0.0102909
0.0114504
0.00496963
0.00260868
0.00261551
0.00475098
0.00545095
0.00281365
0.00283425
0.00524702
0.0129654
0.0150342
0.00608212
0.00308109
0.00312449
0.00591266
0.00695534
0.00344886
0.0035313
0.00686494
0.0180462
0.0228994
0.00824448
0.00398774
0.00416077
0.00836316
0.0103579
0.00484373
0.00528373
0.0111727
0.0320273
0.0702547
0.0492808
0.0381342
0.031307
0.0266604
0.0232685
0.0206707
0.0186142
0.0169373
0.0155207
0.0143127
0.0132711
0.0123646
0.0115681