/*--------------------------------*- C++ -*----------------------------------*\
| =========                 |                                                 |
| \\      /  F ield         | OpenFOAM: The Open Source CFD Toolbox           |
|  \\    /   O peration     | Version:  v2006                                 |
|   \\  /    A nd           | Website:  www.openfoam.com                      |
|    \\/     M anipulation  |                                                 |
\*---------------------------------------------------------------------------*/
FoamFile
{
    version     2.0;
    format      ascii;
    class       volVectorField;
    location    "0.024";
    object      U;
}
// * * * * * * * * * * * * * * * * * * * * * * * * * * * * * * * * * * * * * //

dimensions      [0 1 -1 0 0 0 0];


internalField   nonuniform List<vector> 
9148
(
(62.0504 -0.0245691 -1.15217e-18)
(62.0523 0.0216787 1.78183e-19)
(62.0517 -0.0247547 0)
(62.0503 0.00595683 -2.33435e-18)
(62.0417 -0.00793557 3.49847e-18)
(62.0266 -0.00550425 4.13987e-23)
(61.9819 -0.0143357 -6.15793e-19)
(61.8886 -0.027725 -3.44893e-19)
(61.7499 -0.0456852 -1.47144e-18)
(61.5913 -0.0630337 1.53619e-18)
(61.426 -0.0785529 -2.01511e-19)
(61.2587 -0.0918098 2.04612e-19)
(61.0869 -0.103871 0)
(60.9079 -0.115113 3.276e-21)
(60.7191 -0.12586 8.26003e-22)
(60.5196 -0.136132 0)
(60.3091 -0.145932 0)
(60.0879 -0.155255 0)
(59.8563 -0.164122 0)
(59.6147 -0.172562 0)
(59.3633 -0.1806 0)
(59.1024 -0.18825 0)
(58.8325 -0.195515 0)
(58.5539 -0.202389 0)
(58.2672 -0.20886 0)
(57.9728 -0.214912 0)
(57.6712 -0.220528 0)
(57.363 -0.225688 0)
(57.0489 -0.23037 0)
(56.7293 -0.234554 0)
(56.4051 -0.23822 0)
(56.0768 -0.241351 0)
(55.7451 -0.243928 0)
(55.4107 -0.245935 0)
(55.0745 -0.247357 0)
(54.737 -0.248183 0)
(54.3991 -0.248402 0)
(54.0615 -0.248015 0)
(53.725 -0.247034 0)
(53.3904 -0.245416 0)
(53.0584 -0.243127 0)
(52.7299 -0.240143 0)
(52.4056 -0.23645 0)
(52.0863 -0.23212 0)
(51.7729 -0.227184 0)
(51.466 -0.221621 0)
(51.1664 -0.215424 0)
(50.8749 -0.208592 0)
(50.5922 -0.201124 0)
(50.3191 -0.192983 0)
(50.0562 -0.184144 0)
(49.8042 -0.174609 0)
(49.5638 -0.164336 5.5509e-20)
(49.3354 -0.153371 -4.84597e-20)
(49.1189 -0.141527 0)
(48.9133 -0.128536 5.53609e-20)
(48.7171 -0.113534 1.10985e-19)
(48.5303 -0.0958693 0)
(48.3586 -0.0748766 3.16876e-18)
(48.2181 -0.0537057 4.62701e-18)
(48.1302 -0.0365122 -7.10049e-18)
(48.0979 -0.0266779 -3.2936e-18)
(48.0994 -0.0205471 0)
(48.1112 -0.0138024 0)
(48.1204 -0.00680082 0)
(48.1188 -0.0103054 1.17238e-17)
(48.0999 -0.014065 -4.01343e-18)
(48.0473 -0.0228573 0)
(47.9476 -0.0465468 -4.72378e-19)
(47.7559 -0.0709431 1.71412e-18)
(47.5102 -0.0864038 0)
(46.5672 -0.124799 2.804e-19)
(45.972 -0.1033 -2.56448e-19)
(47.5311 -0.131682 0)
(47.8215 -0.114162 1.07948e-17)
(47.8608 -0.141891 -8.75001e-20)
(47.4789 -0.155182 1.75846e-18)
(45.3525 -0.102307 -2.11157e-18)
(44.7256 -0.0931276 8.73195e-19)
(47.388 -0.154474 -7.71726e-19)
(47.8768 -0.149424 7.98444e-20)
(47.8587 -0.152873 0)
(47.2663 -0.146958 0)
(44.1688 -0.0835832 0)
(43.6203 -0.0734402 -9.1244e-19)
(47.1032 -0.136327 6.62106e-19)
(47.808 -0.150885 -1.10334e-18)
(47.7327 -0.150443 4.87464e-19)
(46.931 -0.129441 9.86681e-20)
(43.1238 -0.0670976 -4.79828e-19)
(42.6525 -0.0616792 4.73208e-19)
(46.7373 -0.12182 0)
(47.6446 -0.148196 -6.50351e-19)
(47.5451 -0.146846 -7.43677e-19)
(46.5523 -0.117121 0)
(42.2119 -0.0577592 -6.06932e-20)
(41.8064 -0.0541749 6.07059e-20)
(46.3624 -0.112603 0)
(47.4366 -0.146143 4.15347e-20)
(47.3168 -0.144345 4.16628e-20)
(46.166 -0.108135 0)
(41.4186 -0.0508302 0)
(41.0534 -0.0475945 0)
(45.9645 -0.103849 0)
(47.1923 -0.143105 0)
(47.0542 -0.141645 6.68238e-19)
(45.7599 -0.100715 -8.06416e-19)
(40.6971 -0.0454288 0)
(40.3614 -0.0430793 0)
(45.5535 -0.0979246 0)
(46.9165 -0.141539 0)
(46.7654 -0.140338 0)
(45.3443 -0.0956286 0)
(40.0303 -0.0416304 0)
(39.7145 -0.0397365 0)
(45.1327 -0.0935802 0)
(46.6155 -0.140632 0)
(46.4522 -0.139846 0)
(44.9181 -0.0919806 0)
(39.4004 -0.0388189 0)
(39.0985 -0.0372981 0)
(44.7016 -0.0906155 0)
(46.2917 -0.140677 0)
(46.1175 -0.140297 0)
(44.4816 -0.089574 0)
(38.7967 -0.0367742 0)
(38.5048 -0.0355195 0)
(44.2602 -0.0887187 0)
(45.9472 -0.141581 0)
(45.7628 -0.141552 0)
(44.0348 -0.0881174 0)
(38.2115 -0.0353015 0)
(37.9261 -0.0342467 0)
(43.8078 -0.0876668 0)
(45.5829 -0.143244 0)
(45.3882 -0.143528 0)
(43.5764 -0.0874313 0)
(37.6382 -0.0342741 0)
(37.3563 -0.0333722 0)
(43.343 -0.0873099 0)
(45.1984 -0.145593 0)
(44.993 -0.146173 0)
(43.1044 -0.0873872 0)
(37.0706 -0.0336024 0)
(36.7895 -0.0328231 0)
(42.8633 -0.0875605 0)
(44.7926 -0.14861 0)
(44.5756 -0.149511 0)
(42.6164 -0.087932 0)
(36.5034 -0.0332336 0)
(36.2208 -0.0325567 0)
(42.3665 -0.0883832 0)
(44.3637 -0.152346 0)
(44.1345 -0.153585 0)
(42.1102 -0.0890347 0)
(35.9324 -0.0331333 0)
(35.6466 -0.0325451 0)
(41.8506 -0.0897491 0)
(43.9107 -0.156831 0)
(43.6692 -0.158399 0)
(41.5846 -0.0906568 0)
(35.3546 -0.0332715 0)
(35.0647 -0.0327609 0)
(41.3152 -0.0916154 0)
(43.4336 -0.162045 0)
(43.1799 -0.163921 0)
(41.0391 -0.0927558 0)
(34.7684 -0.0336207 0)
(34.4737 -0.0331823 0)
(40.7596 -0.093946 0)
(42.9323 -0.167961 0)
(42.6659 -0.170147 0)
(40.4729 -0.0953132 0)
(34.1718 -0.0341665 0)
(33.8706 -0.0338045 0)
(40.182 -0.0967468 0)
(42.4054 -0.174613 0)
(42.1248 -0.177163 0)
(39.8831 -0.0983681 0)
(33.5609 -0.034919 0)
(33.2505 -0.0346464 0)
(39.5784 -0.10009 0)
(41.8492 -0.182139 0)
(41.5519 -0.185148 0)
(39.2643 -0.102011 0)
(32.93 -0.0359078 0)
(32.607 -0.0357377 0)
(38.9429 -0.104076 0)
(41.2583 -0.190746 0)
(40.9414 -0.194305 0)
(38.6106 -0.106336 0)
(32.2723 -0.037162 0)
(31.9341 -0.0370997 0)
(38.2699 -0.108788 0)
(40.6275 -0.200614 0)
(40.2893 -0.204773 0)
(37.9175 -0.111401 0)
(31.5832 -0.038693 0)
(31.2283 -0.0387379 0)
(37.5562 -0.114255 0)
(39.9541 -0.211836 0)
(39.5941 -0.216602 0)
(37.1832 -0.117218 0)
(30.8605 -0.0404954 0)
(30.4886 -0.0406483 0)
(36.801 -0.120477 0)
(39.2373 -0.224433 0)
(38.8554 -0.229793 0)
(36.4069 -0.123785 0)
(30.1034 -0.0425609 0)
(29.7137 -0.0428263 0)
(36.003 -0.127448 0)
(38.4763 -0.238392 0)
(38.0707 -0.244331 0)
(35.586 -0.131102 0)
(29.3093 -0.0448885 0)
(28.8988 -0.0452795 0)
(35.1575 -0.135199 0)
(37.6666 -0.253748 0)
(37.2335 -0.260423 0)
(34.7135 -0.139291 0)
(28.4709 -0.0475226 0)
(28.034 -0.0480877 0)
(34.2547 -0.143969 0)
(36.7991 -0.270925 0)
(36.3322 -0.278636 0)
(33.7772 -0.148658 0)
(27.5763 -0.0505755 0)
(27.1063 -0.0513771 0)
(33.2814 -0.154123 0)
(35.8609 -0.29061 0)
(35.3538 -0.299682 0)
(32.7636 -0.159581 0)
(26.612 -0.0541844 0)
(26.1029 -0.0552982 0)
(32.2247 -0.166075 0)
(34.8398 -0.313589 0)
(34.2877 -0.324053 0)
(31.6616 -0.172342 0)
(25.5672 -0.0584429 0)
(25.0158 -0.0598104 0)
(31.0761 -0.179862 0)
(33.7281 -0.339839 0)
(33.129 -0.352739 0)
(30.4652 -0.18741 0)
(24.4364 -0.0634454 0)
(23.8398 -0.0652494 0)
(29.8299 -0.196391 0)
(32.5211 -0.37121 0)
(31.871 -0.387012 0)
(29.1663 -0.205487 0)
(23.2119 -0.0694867 0)
(22.5631 -0.071907 0)
(28.4743 -0.21636 0)
(31.2087 -0.408909 0)
(30.4983 -0.4287 0)
(27.7477 -0.227636 0)
(21.8762 -0.0769832 0)
(21.1601 -0.0803609 0)
(26.984 -0.241294 0)
(29.7683 -0.4556 0)
(28.9788 -0.481529 0)
(26.1737 -0.255962 0)
(20.3933 -0.0867184 0)
(19.5826 -0.0915954 0)
(25.3113 -0.274035 0)
(28.1568 -0.5163 0)
(27.258 -0.552212 0)
(24.3836 -0.294236 0)
(18.7019 -0.100137 0)
(17.7541 -0.107469 0)
(23.3823 -0.319624 0)
(26.3083 -0.599872 0)
(25.2572 -0.652421 0)
(22.2881 -0.349129 0)
(16.71 -0.119626 0)
(15.563 -0.131257 0)
(21.088 -0.386946 0)
(24.1296 -0.721994 0)
(22.864 -0.803759 0)
(19.7532 -0.432992 0)
(14.2789 -0.149862 0)
(12.8311 -0.16962 0)
(18.2572 -0.493897 0)
(21.4809 -0.913386 0)
(19.8986 -1.05317 0)
(16.5528 -0.574185 0)
(11.1731 -0.202594 0)
(9.22061 -0.244817 0)
(14.5771 -0.687675 0)
(18.1273 -1.24981 0)
(16.024 -1.51618 0)
(12.2038 -0.825198 0)
(6.76886 -0.282663 0)
(4.36784 -0.610184 0)
(9.44532 -1.29414 0)
(13.6571 -2.06755 0)
(10.9605 -2.35303 0)
(5.6018 -1.49465 0)
(-2.29006 -0.453109 0)
(-4.85849 0.0647579 0)
(1.61725 -1.00901 0)
(8.00191 -2.20396 0)
(3.64746 -1.83795 0)
(-3.74622 -0.462672 0)
(-6.18794 -0.0472139 0)
(-7.23891 -0.0904685 0)
(-5.49669 -0.274531 0)
(-0.796112 -0.953809 0)
(-3.24292 -0.230953 0)
(-6.71118 -0.221431 0)
(-7.96149 0.0544611 0)
(-7.72113 0.210749 0)
(-6.81677 0.0383542 0)
(-4.14894 0.492338 0)
(-4.10225 0.821778 0)
(-6.07419 0.414189 0)
(-6.40333 0.280094 0)
(-4.16918 0.296123 0)
(-5.10177 0.572647 0)
(-4.66505 0.827889 0)
(-5.29298 0.163143 0)
(-4.50963 0.29098 0)
(-2.5689 0.117787 0)
(-1.93758 0.0394532 0)
(-4.36823 0.276174 0)
(-5.45562 0.0825796 0)
(-5.67148 -0.343978 0)
(-4.41651 -0.046983 0)
(-1.47709 -0.0565676 0)
(-2.32208 -0.0727649 0)
(-5.02121 -0.202797 0)
(-6.23439 -0.281966 0)
(-6.84381 -0.543109 0)
(-5.72635 -0.301549 0)
(-3.11413 -0.106668 0)
(-4.0373 -0.076085 0)
(-6.57929 -0.181742 0)
(-7.54311 -0.31652 0)
(-7.95927 -0.363659 0)
(-7.08198 -0.167954 0)
(-4.60873 -0.0816976 0)
(-5.02926 -0.0320304 0)
(-7.46099 -0.0108427 0)
(-8.26805 -0.0808189 0)
(-8.1633 0.024506 0)
(-7.36438 0.0579981 0)
(-4.95844 -0.00476251 0)
(-4.66652 0.0516005 0)
(-7.09231 0.132114 0)
(-7.93886 0.203798 0)
(-7.67832 0.169132 0)
(-6.73535 0.117257 0)
(-4.13735 0.0598728 0)
(-3.70728 0.05817 0)
(-6.50204 0.0914366 0)
(-7.5466 0.13648 0)
(-7.52277 0.0187895 0)
(-6.39981 0.0127083 0)
(-3.39339 0.0277655 0)
(-3.39926 -0.00626438 0)
(-6.46289 -0.0499164 0)
(-7.61594 -0.0746458 0)
(-7.80106 -0.16442 0)
(-6.65771 -0.10111 0)
(-3.62589 -0.0279932 0)
(-3.98182 -0.0393261 0)
(-6.98032 -0.130109 0)
(-8.0701 -0.216336 0)
(-8.40553 -0.253424 0)
(-7.38264 -0.15018 0)
(-4.43061 -0.048018 0)
(-4.93579 -0.0534047 0)
(-7.8359 -0.157468 0)
(-8.77116 -0.264436 0)
(-9.15446 -0.270695 0)
(-8.30464 -0.160957 0)
(-5.46705 -0.0558112 0)
(-5.99442 -0.0560466 0)
(-8.76593 -0.156181 0)
(-9.52392 -0.260345 0)
(-9.87373 -0.24927 0)
(-9.1997 -0.150041 0)
(-6.50366 -0.0551005 0)
(-6.98187 -0.0525353 0)
(-9.5975 -0.137956 0)
(-10.1875 -0.226107 0)
(-10.4599 -0.204831 0)
(-9.94435 -0.126109 0)
(-7.41774 -0.0495963 0)
(-7.79893 -0.0452759 0)
(-10.234 -0.10967 0)
(-10.6783 -0.174151 0)
(-10.8409 -0.14584 0)
(-10.4593 -0.0939711 0)
(-8.12347 -0.0411114 0)
(-8.38568 -0.0360689 0)
(-10.62 -0.075302 0)
(-10.943 -0.111395 0)
(-10.9803 -0.078577 0)
(-10.7092 -0.056756 0)
(-8.58188 -0.0310119 0)
(-8.71028 -0.0251843 0)
(-10.7279 -0.0359307 0)
(-10.952 -0.0408036 0)
(-10.8594 -0.00188698 0)
(-10.678 -0.0147525 0)
(-8.77645 -0.0194599 0)
(-8.77736 -0.0128557 0)
(-10.5573 0.00877994 0)
(-10.704 0.042491 0)
(-10.4826 0.0883372 0)
(-10.3639 0.033817 0)
(-8.71368 -0.00560862 0)
(-8.57286 0.00314534 0)
(-10.0992 0.0601172 0)
(-10.1982 0.136263 0)
(-9.84152 0.186956 0)
(-9.76087 0.0881644 0)
(-8.35467 0.012256 0)
(-8.05251 0.0219215 0)
(-9.34485 0.114861 0)
(-9.41508 0.236604 0)
(-8.90659 0.293123 5.15515e-19)
(-8.84756 0.145291 -6.18015e-19)
(-7.66857 0.0327566 0)
(-7.18911 0.0427931 0)
(-8.2595 0.170379 -2.05763e-19)
(-8.31689 0.342581 1.71305e-19)
(-7.62763 0.407135 1.34742e-18)
(-7.57655 0.203096 0)
(-6.61907 0.0566197 0)
(-5.92894 0.0658436 -9.75835e-19)
(-6.78098 0.223421 1.21322e-18)
(-6.83669 0.450248 4.56479e-23)
(-5.94778 0.520495 -3.85658e-18)
(-5.89928 0.258245 1.14628e-18)
(-5.17227 0.0814016 -1.82028e-18)
(-4.28242 0.0811016 1.97029e-18)
(-4.90283 0.26994 0)
(-4.96509 0.545366 5.26142e-18)
(-3.92797 0.641634 2.54754e-18)
(-3.87959 0.320382 -7.58166e-19)
(-3.40621 0.0965501 -2.50603e-23)
(-2.29834 0.113282 1.0672e-18)
(-2.67223 0.362003 0)
(-2.75274 0.724531 2.81125e-18)
(-1.53462 0.725134 1.7831e-19)
(-1.47237 0.357973 0)
(-1.23058 0.110568 0)
(-0.303818 0.0875674 0)
(-0.485866 0.277944 1.82236e-18)
(-0.559947 0.637364 -1.70626e-18)
(-0.591096 1.25055 0)
(-0.576737 2.33872 0)
(-0.546993 3.37884 0)
(-0.498528 4.47844 0)
(-0.435061 5.45515 0)
(-0.374872 6.34804 1.8549e-18)
(-0.303866 7.08583 -1.95864e-18)
(-0.235021 7.67843 2.32753e-19)
(-0.161884 8.1087 -1.16588e-19)
(-0.0890566 8.37841 0)
(-0.0120214 8.48174 0)
(0.0733459 8.40766 0)
(0.16842 8.1485 0)
(0.27396 7.69269 0)
(0.387231 7.03366 1.93907e-18)
(0.517752 6.16795 -5.91773e-18)
(0.642605 5.10758 4.14025e-18)
(0.801704 3.87 0)
(0.958377 2.47783 -2.24574e-18)
(1.38004 1.30095 7.06584e-17)
(1.12157 -0.628174 -1.64682e-16)
(0.215804 -0.942001 9.44582e-18)
(0.0951673 -1.45085 0)
(-0.432989 -1.30411 2.64169e-17)
(-0.556394 -0.74912 0)
(-0.671855 -0.378886 0)
(-0.590382 -0.127083 1.78577e-17)
(-0.735295 -0.0271971 7.12639e-17)
(-1.06807 -0.111588 -2.44844e-16)
(-1.09984 -0.346918 2.33833e-21)
(-1.45172 -0.265579 -4.03277e-17)
(-1.54616 -0.0691985 9.10629e-17)
(-0.990036 -0.00957175 -3.25906e-17)
(-1.25753 0.00918401 -1.13395e-17)
(-2.09588 -0.0225882 3.33036e-17)
(-2.01357 -0.145146 -4.74546e-17)
(-2.11971 -0.0338045 -2.81054e-17)
(-2.14635 0.0359537 -1.26797e-22)
(-1.09872 0.00505378 0)
(-1.11766 0.00248699 -1.21629e-18)
(-2.28054 -0.00479014 0)
(-2.3333 -0.0393083 -8.30642e-18)
(-2.27744 0.0926083 1.69633e-18)
(-2.12733 0.0516267 2.56107e-19)
(-0.919227 0.0129638 1.23872e-18)
(-0.850786 0.00092979 0)
(-2.03952 -0.0369605 7.89622e-18)
(-2.18037 -0.0145161 -1.35838e-17)
(-2.04376 0.000432873 0)
(-2.01032 -0.0402107 2.07046e-18)
(-0.922043 -0.0251987 -2.46725e-18)
(-1.38913 -0.0508441 3.08825e-19)
(-2.10914 -0.14527 0)
(-1.49653 -0.214662 0)
(-1.62729 -0.138088 0)
(-2.56591 -0.0212853 0)
(-1.88035 -0.0280606 -3.11308e-19)
(-1.90481 -0.0295643 0)
(-2.67973 0.0352209 0)
(-1.3435 -0.0742756 -3.45448e-18)
(-1.06061 0.188011 3.44013e-18)
(-2.55067 0.0861712 0)
(-1.73956 0.02408 0)
(-1.36636 0.050288 0)
(-2.00617 0.0205223 0)
(0.546766 0.345938 -3.44004e-18)
(2.11057 0.560477 3.4324e-18)
(-1.29129 0.112948 0)
(-1.13278 -0.0159315 0)
(-0.923568 -0.0920689 0)
(0.836254 0.162289 0)
(3.84678 0.579515 -3.42459e-18)
(5.20624 0.494338 3.41953e-18)
(2.22612 0.170058 0)
(-0.803606 -0.0444307 0)
(-0.314859 0.00365461 0)
(3.51213 0.214588 0)
(6.43221 0.49562 -3.41435e-18)
(7.42779 0.462087 3.41021e-18)
(4.6816 0.221333 0)
(0.437075 0.024355 0)
(1.1498 0.0309776 0)
(5.76159 0.213831 0)
(8.35816 0.433191 -3.40628e-18)
(9.11108 0.384778 3.40302e-18)
(6.67832 0.199643 0)
(1.84833 0.0377823 0)
(2.57067 0.0400138 0)
(7.55845 0.194274 0)
(9.8322 0.365135 -3.39979e-18)
(10.4185 0.315825 3.39704e-18)
(8.28912 0.173781 0)
(3.2157 0.0407223 0)
(3.86776 0.0405484 0)
(9.00139 0.170224 0)
(10.9822 0.303887 3.39438e-18)
(11.4489 0.266422 3.39191e-18)
(9.59162 0.154711 0)
(4.46021 0.0413789 0)
(5.08265 0.0419439 0)
(10.2002 0.156502 0)
(11.9156 0.264889 -3.38937e-18)
(12.3062 0.230787 3.38697e-18)
(10.7015 0.1421 0)
(5.65348 0.0430727 0)
(6.25621 0.0447175 0)
(11.2277 0.147284 0)
(12.6913 0.234651 -3.38434e-18)
(13.019 0.212342 3.38183e-18)
(11.6632 0.139185 0)
(6.82891 0.0479212 0)
(7.45272 0.0525399 0)
(12.1378 0.149693 0)
(13.3473 0.225532 -3.37882e-18)
(13.6332 0.208306 3.3796e-18)
(12.5377 0.14294 0)
(8.05971 0.0573216 0)
(8.76167 0.0710998 0)
(12.9958 0.159139 0)
(13.9299 0.232011 0)
(14.2231 0.265879 0)
(13.4291 0.188513 0)
(9.51966 0.109484 0)
(10.3133 0.247328 0)
(13.8801 0.345779 1.65316e-17)
(14.4782 0.422258 -1.36716e-17)
(14.6051 0.637892 0)
(14.1326 0.599053 -3.29641e-17)
(10.8914 0.484164 1.71906e-22)
(11.291 0.745617 0)
(14.1923 0.890045 -2.54766e-19)
(14.5544 0.893091 -8.4083e-19)
(14.396 1.07147 8.27111e-19)
(14.1042 1.09791 2.49532e-19)
(11.5063 0.949106 0)
(11.682 1.14213 0)
(13.9101 1.27983 6.31236e-17)
(14.1233 1.22614 -1.05948e-16)
(13.7613 1.34339 -4.94502e-17)
(13.6009 1.43892 0)
(11.6898 1.32348 0)
(11.5914 1.45144 7.40353e-17)
(13.1806 1.52586 -6.15457e-17)
(13.282 1.40301 0)
(12.7188 1.42664 -4.23177e-17)
(12.6613 1.58101 1.18445e-16)
(11.3301 1.5612 4.44597e-18)
(10.9507 1.62175 -6.55254e-17)
(12.0115 1.55887 0)
(12.0106 1.37552 -5.11955e-17)
(11.1912 1.34046 0)
(11.2573 1.58295 0)
(10.4478 1.7518 1.18459e-16)
(9.77902 1.74713 1.76464e-16)
(10.301 1.50404 0)
(10.228 1.16375 8.25276e-18)
(9.64133 1.47836 -2.94038e-17)
(9.50494 1.6168 0)
(8.26745 1.53859 0)
(8.04289 1.59915 1.81869e-16)
(8.67795 1.55944 2.86178e-19)
(8.7239 1.24612 3.72355e-18)
(7.57024 0.875555 0)
(7.55895 1.30474 1.26832e-16)
(7.12494 1.48558 1.95166e-21)
(5.9029 1.2694 0)
(6.1367 0.908209 0)
(6.14289 0.357306 1.14177e-17)
(4.47721 -0.366221 1.55504e-16)
(4.55369 0.377181 0)
(4.48316 0.997775 1.30386e-16)
(2.53096 0.574817 -1.86373e-16)
(2.25655 -0.171092 0)
(2.20166 -0.992696 -4.27565e-17)
(1.05601 -1.07625 1.18422e-17)
(1.0444 -0.426078 -3.23361e-18)
(1.16388 0.153607 2.36924e-16)
(-1.85136 -1.22769 -1.45567e-18)
(-1.92905 -2.22637 1.46812e-16)
(-1.56928 -3.16491 -1.14501e-16)
(-4.90374 -5.76174 -3.31063e-16)
(-5.5243 -4.39891 3.3488e-16)
(-5.86035 -3.41788 -3.07208e-16)
(-8.71303 -4.5804 2.12933e-16)
(-8.82999 -5.68315 0)
(-8.71103 -7.2685 9.43599e-18)
(-11.7138 -11.6296 -1.7556e-16)
(-13.0538 -10.0037 1.07206e-16)
(-13.7515 -8.33755 1.58232e-17)
(-19.8006 -14.9579 1.62024e-16)
(-17.9178 -16.7632 3.07446e-17)
(-14.9221 -18.536 1.45117e-16)
(-20.4587 -25.8782 2.47354e-16)
(-22.3862 -24.3345 -3.38087e-17)
(-24.0719 -22.3834 1.87273e-16)
(-27.6508 -32.8385 3.28226e-16)
(-24.8831 -34.1656 -2.70705e-16)
(-23.876 -34.5312 2.33862e-16)
(-16.2727 -49.4536 1.32739e-16)
(-19.7911 -51.3491 0)
(-26.9981 -53.8357 2.63152e-16)
(-13.5551 -72.2138 0)
(-1.78687 -67.8512 0)
(-3.09089 -64.8543 2.48908e-17)
(14.2661 -70.5934 -9.63622e-17)
(21.4404 -72.7378 1.32255e-16)
(9.60674 -76.9067 0)
(23.8802 -65.4744 2.43061e-16)
(35.0185 -61.7981 -3.80533e-16)
(28.3972 -62.5617 -1.03669e-17)
(37.4087 -57.5806 1.24567e-17)
(41.1957 -53.7571 -2.34465e-16)
(32.325 -49.7586 2.8711e-16)
(35.8479 -42.4159 5.10085e-16)
(42.7459 -47.7029 -2.43215e-16)
(41.0767 -51.762 1.76701e-16)
(42.4031 -43.5216 -3.41939e-16)
(42.2673 -40.3677 2.37514e-16)
(35.6662 -37.3168 -1.67506e-16)
(33.5061 -31.5803 0)
(40.2856 -34.0072 2.20701e-16)
(41.5669 -36.9095 -1.90876e-16)
(41.4947 -36.6408 0)
(40.1571 -33.0317 0)
(33.9761 -28.3051 0)
(31.6835 -25.1889 -4.54716e-16)
(37.5036 -29.0473 1.86378e-16)
(39.7869 -31.6306 0)
(40.5437 -32.3352 3.58525e-17)
(38.5568 -29.349 -3.50043e-16)
(33.0441 -24.6991 2.11817e-16)
(31.1559 -22.6859 1.27559e-17)
(36.3447 -26.545 1.64839e-16)
(38.84 -28.7125 -1.66238e-17)
(39.4297 -29.9053 -4.56537e-17)
(37.3253 -27.279 0)
(32.1628 -22.7751 -1.16967e-17)
(30.9441 -21.7345 -3.24785e-16)
(35.8404 -25.4674 2.31161e-16)
(38.1961 -27.6333 1.97807e-16)
(36.2624 -25.1602 9.28433e-17)
(33.6295 -23.4835 -1.98682e-16)
(28.9838 -20.3219 2.56618e-16)
(30.1361 -21.0327 -4.57366e-16)
(34.7907 -24.781 3.47807e-16)
(36.8313 -26.8346 1.57568e-16)
(35.3769 -24.823 0)
(33.0631 -23.237 -1.38144e-16)
(28.6235 -19.8996 2.0925e-16)
(29.9441 -20.87 0)
(34.2179 -24.5067 -9.39651e-18)
(36.0783 -26.3436 0)
(35.16 -25.2303 -1.10347e-17)
(33.1731 -23.5826 2.32116e-16)
(29.1399 -20.3903 -3.25023e-16)
(27.5078 -19.5103 0)
(31.373 -22.3578 2.662e-17)
(33.6098 -23.6585 2.32643e-17)
(34.3317 -25.2323 1.9987e-16)
(32.6037 -23.6933 -3.89666e-16)
(28.613 -20.4041 4.29157e-16)
(27.3715 -19.7065 2.68826e-17)
(31.1745 -22.7116 -1.75292e-16)
(33.1706 -23.9762 1.08384e-16)
(34.0609 -25.4083 0)
(32.4104 -24.0157 4.13361e-17)
(28.6205 -20.8233 -3.81408e-16)
(27.5905 -20.2829 -3.99054e-16)
(31.1234 -23.1838 1.18051e-16)
(32.9901 -24.3794 8.98802e-22)
(33.8049 -25.7653 2.0673e-16)
(32.2468 -24.4549 3.27864e-16)
(28.7814 -21.4226 -3.71689e-16)
(28.2859 -21.2352 0)
(31.5443 -24.0014 -2.6576e-16)
(33.1797 -25.3095 1.09092e-17)
(32.0116 -24.2721 -8.18289e-17)
(30.1583 -23.172 2.26391e-16)
(26.9888 -20.59 -2.47081e-16)
(27.8824 -21.5088 0)
(31.304 -24.4685 1.19301e-17)
(32.7621 -25.6718 1.01116e-17)
(31.8349 -24.9978 -1.4679e-16)
(30.1376 -23.905 -1.11768e-17)
(26.8499 -21.096 -4.45395e-16)
(28.095 -22.3142 4.04621e-16)
(31.3535 -25.207 1.07312e-17)
(32.6936 -26.3 0)
(31.8842 -25.561 -1.36932e-16)
(30.3638 -24.5012 -2.0837e-17)
(27.2697 -21.822 4.47246e-16)
(28.2107 -23.0023 -1.26996e-17)
(31.2636 -25.7902 0)
(32.5365 -26.7761 3.39562e-17)
(31.8141 -26.1189 -4.94689e-17)
(30.3959 -25.1082 3.21036e-16)
(27.5422 -22.5666 -3.91662e-16)
(28.3382 -23.6332 0)
(31.2488 -26.3531 3.98245e-17)
(32.5078 -27.3267 -1.14235e-16)
(31.8047 -26.8839 -1.09764e-16)
(30.3973 -25.9187 1.13975e-16)
(27.6903 -23.3812 0)
(28.7006 -24.4333 -2.21528e-17)
(31.4385 -27.053 0)
(32.6198 -28.0221 -1.29796e-16)
(32.2448 -28.0433 0)
(30.9474 -26.9636 0)
(28.3387 -24.4134 -3.02587e-16)
(27.41 -23.9444 -4.73597e-16)
(29.9802 -26.4264 0)
(31.4497 -27.3859 0)
(32.2466 -28.6106 0)
(31.0926 -27.7169 0)
(28.2554 -24.9397 0)
(27.4764 -24.5602 6.86764e-18)
(30.2421 -27.2403 -1.79021e-16)
(31.6191 -28.2105 1.47482e-16)
(32.455 -29.4174 -1.41198e-16)
(31.3307 -28.617 -3.65608e-16)
(28.5235 -25.8894 4.18187e-16)
(28.0111 -25.538 -4.16516e-16)
(30.6575 -28.0683 3.6013e-16)
(31.9209 -29.0119 -1.3905e-16)
(32.6674 -30.1405 4.45375e-16)
(31.5726 -29.2971 -3.37075e-16)
(28.8112 -26.5742 4.13498e-16)
(28.2113 -26.3568 -4.20206e-16)
(30.785 -28.943 1.66764e-16)
(32.0665 -29.8851 -3.07003e-16)
(32.9047 -30.9639 1.36578e-16)
(31.8624 -30.2156 -3.32885e-16)
(29.2362 -27.5853 1.28525e-17)
(28.7376 -27.1511 0)
(31.2422 -29.6204 0)
(32.4063 -30.5529 0)
(33.0182 -31.7004 3.0423e-16)
(31.9506 -30.9702 -2.88051e-16)
(29.3798 -28.3155 0)
(29.0053 -28.1966 1.26832e-17)
(31.3884 -30.6769 -5.13172e-17)
(32.5442 -31.5533 -3.37387e-17)
(33.4211 -32.5333 -1.34329e-16)
(32.478 -31.8006 1.02791e-17)
(29.9781 -29.2379 -1.26671e-17)
(29.4055 -28.8433 -8.03153e-16)
(31.7938 -31.3083 3.38973e-16)
(32.9113 -32.2166 1.34034e-16)
(33.5366 -33.318 3.3417e-17)
(32.5321 -32.6528 -1.02612e-17)
(30.1008 -30.0699 2.49632e-17)
(29.7828 -29.9342 -3.77718e-17)
(32.0427 -32.3354 -1.64346e-16)
(33.1281 -33.1986 2.35731e-16)
(33.9627 -34.1624 0)
(33.0511 -33.4794 0)
(30.6477 -30.953 1.26111e-17)
(30.1512 -30.5828 0)
(32.4544 -33.0169 0)
(33.5146 -33.9056 0)
(34.1536 -34.9628 3.34878e-17)
(33.1966 -34.3271 0)
(30.832 -31.7647 -2.50097e-17)
(30.5226 -31.616 2.54262e-17)
(32.7331 -34.0201 3.30317e-16)
(33.7726 -34.871 -3.22068e-16)
(34.5961 -35.8133 3.20002e-16)
(33.7229 -35.1617 -1.43162e-16)
(31.3668 -32.6282 0)
(30.8874 -32.2618 -1.28244e-17)
(33.1448 -34.7059 -2.07851e-17)
(34.1678 -35.5855 -3.3917e-17)
(34.8042 -36.6345 1.00907e-16)
(33.8817 -36.0332 3.30588e-16)
(31.5548 -33.4552 -4.18581e-16)
(31.2647 -33.3155 2.58752e-17)
(33.4494 -35.7477 -1.0495e-17)
(34.4568 -36.5935 -3.76758e-16)
(35.3117 -37.5138 -1.71171e-16)
(34.4813 -36.9056 1.03743e-17)
(32.1599 -34.3692 -4.11494e-16)
(31.7198 -33.9535 0)
(33.9608 -36.3936 3.36934e-16)
(34.9334 -37.267 -2.58616e-16)
(35.5379 -38.2952 -8.65024e-17)
(34.6573 -37.694 -3.58882e-16)
(32.3177 -35.059 4.26106e-20)
(31.9712 -34.8827 4.23945e-16)
(34.1746 -37.39 -3.23794e-16)
(35.1676 -38.2528 1.06065e-16)
(35.9807 -39.2127 1.4662e-16)
(35.1477 -38.6364 2.01525e-16)
(32.7495 -35.9497 -4.65982e-16)
(32.3763 -35.5164 4.85656e-16)
(34.6846 -38.0467 -5.79134e-16)
(35.6571 -38.9453 1.59157e-16)
(36.2518 -39.6374 2.26614e-17)
(35.2632 -38.9164 -2.1901e-16)
(32.6551 -36.0246 2.42725e-16)
(33.6012 -37.3725 -2.91725e-16)
(36.0797 -40.2189 2.30687e-16)
(36.9519 -40.7455 -1.6194e-16)
(36.6175 -40.6768 7.10938e-17)
(35.6601 -39.8572 0)
(33.4967 -37.3728 -3.72087e-16)
(34.285 -38.3493 3.45145e-16)
(36.5321 -40.8932 -1.49572e-16)
(37.379 -41.5117 1.07252e-16)
(36.9983 -41.3433 2.86283e-16)
(36.0383 -40.4672 -9.7518e-18)
(33.9376 -38.0633 2.39778e-17)
(34.5665 -39.1774 3.80648e-16)
(36.7611 -41.7271 -2.92524e-17)
(37.643 -42.3147 0)
(37.3002 -42.3771 1.63582e-17)
(36.3317 -41.5322 4.0196e-17)
(34.2997 -39.1124 -3.96268e-16)
(35.2188 -40.304 -3.93509e-16)
(37.3849 -42.7888 0)
(38.2068 -43.3193 -1.62643e-17)
(37.9601 -43.2045 -1.66456e-17)
(37.0693 -42.3747 -1.02156e-17)
(34.988 -40.0182 0)
(35.6517 -40.868 0)
(37.8946 -43.4488 -1.51679e-16)
(38.6746 -44.0619 1.65886e-17)
(38.2614 -44.0481 2.71313e-16)
(37.2997 -43.1695 -3.31131e-16)
(35.1852 -40.6339 0)
(35.9805 -41.8831 -2.58471e-17)
(38.2104 -44.5273 0)
(39.0565 -45.053 0)
(38.8089 -45.029 -8.7312e-18)
(37.8954 -44.1641 3.42134e-16)
(35.7638 -41.6668 -3.9994e-16)
(36.5664 -42.6194 8.81527e-16)
(38.9065 -45.3373 -3.54206e-16)
(39.6634 -45.9068 9.08854e-18)
(39.3474 -45.6605 -1.58462e-16)
(38.4253 -44.743 1.88167e-16)
(36.1436 -42.125 4.57807e-16)
(36.4136 -42.8 -2.44505e-16)
(38.9528 -45.7158 2.20593e-16)
(39.9217 -46.374 -9.02048e-17)
(40.7177 -47.4867 -1.499e-16)
(39.9292 -47.0407 2.24741e-16)
(37.4634 -44.1591 -3.12702e-16)
(37.3613 -44.0897 0)
(39.5621 -46.6464 0)
(40.4679 -47.4515 8.56397e-17)
(41.2841 -48.3019 -3.04356e-17)
(40.4631 -47.7545 0)
(38.208 -45.1575 0)
(37.9727 -44.9246 0)
(40.0653 -47.3679 0)
(40.9816 -48.2365 3.16158e-17)
(41.7604 -49.1822 9.49924e-17)
(40.9256 -48.6255 -1.16294e-16)
(38.7349 -46.0488 0)
(38.4844 -45.9177 -1.23965e-17)
(40.5248 -48.3868 2.79279e-16)
(41.4482 -49.2542 -2.27068e-16)
(42.3375 -50.2043 1.30556e-16)
(41.5471 -49.7136 0)
(39.4035 -47.1836 -3.86443e-16)
(39.2254 -46.9268 0)
(41.2769 -49.3158 -3.30437e-16)
(42.1334 -50.1638 2.86481e-16)
(42.9041 -51.0276 1.57831e-16)
(42.1487 -50.4856 2.14062e-17)
(39.908 -47.8566 0)
(39.5565 -47.5289 -4.42513e-16)
(41.7057 -50.0594 -2.28731e-17)
(42.5865 -50.9465 1.1428e-16)
(43.2857 -51.6333 -1.74304e-16)
(42.4513 -51.0203 2.28229e-16)
(40.0126 -48.2238 0)
(41.0068 -49.4829 0)
(43.4238 -52.2725 2.13896e-16)
(44.1228 -52.6681 -3.37442e-16)
(43.919 -52.6462 1.39269e-17)
(43.0857 -51.8519 0)
(40.9135 -49.3639 0)
(41.7232 -50.3173 3.42494e-16)
(43.9418 -52.8692 1.47745e-16)
(44.6775 -53.3764 -1.35363e-16)
(44.412 -53.338 0)
(43.5565 -52.4857 -3.19586e-16)
(41.4658 -50.0421 8.04572e-16)
(42.2013 -51.0905 -1.20097e-17)
(44.3871 -53.6806 4.74623e-16)
(45.1515 -54.1887 -9.72526e-21)
(44.8784 -54.3022 0)
(44.0069 -53.4537 0)
(41.9401 -50.9324 1.24977e-17)
(42.8856 -52.0922 3.62711e-16)
(45.0918 -54.7075 2.01917e-17)
(45.8222 -55.1806 3.29156e-17)
(45.605 -55.1835 -1.61233e-16)
(44.7548 -54.3312 -1.04556e-17)
(42.6204 -51.7982 2.58622e-17)
(43.3433 -52.8604 4.3041e-16)
(45.6663 -55.6116 -1.08204e-17)
(46.4249 -56.0584 -8.83341e-18)
(46.2268 -55.9964 0)
(45.3932 -55.1225 0)
(43.1337 -52.4956 7.06507e-18)
(43.648 -53.1194 2.33408e-16)
(46.1937 -56.0375 2.0471e-16)
(46.9917 -56.6564 0)
(47.8605 -57.7083 -1.68997e-16)
(47.1604 -57.3436 0)
(44.6344 -54.4016 0)
(44.5537 -54.263 0)
(46.8499 -56.9252 -2.86902e-16)
(47.6882 -57.7424 4.61793e-16)
(48.574 -58.5824 -1.50097e-17)
(47.7765 -58.1249 -2.85833e-16)
(45.4433 -55.4334 3.42492e-16)
(45.3036 -55.214 -3.56297e-16)
(47.5055 -57.7778 3.06777e-16)
(48.379 -58.6459 1.40053e-16)
(49.313 -59.5448 1.1057e-16)
(48.5395 -59.0621 0)
(46.2363 -56.3845 2.40052e-17)
(46.0088 -56.1414 -4.22748e-16)
(48.2066 -58.7385 0)
(49.0871 -59.6204 0)
(50.0238 -60.5302 1.02012e-16)
(49.2529 -60.0829 1.66463e-16)
(46.935 -57.3768 -2.32417e-16)
(46.7575 -57.0273 2.69653e-17)
(49.0131 -59.6052 1.76941e-16)
(49.852 -60.4847 -1.01553e-16)
(50.6117 -61.1442 5.25111e-17)
(49.7956 -60.5616 -2.44339e-17)
(47.2718 -57.7286 -2.31654e-16)
(48.3273 -58.9815 -2.99223e-16)
(50.8572 -61.832 1.38791e-17)
(51.5359 -62.1797 3.07738e-17)
(51.3674 -62.2748 -2.69721e-17)
(50.5269 -61.4733 8.42263e-18)
(48.2289 -58.8749 1.05654e-17)
(49.1784 -59.9725 1.11501e-17)
(51.5285 -62.6136 -4.49407e-17)
(52.2602 -63.0117 1.17346e-16)
(52.1136 -63.0571 0)
(51.282 -62.2254 3.77039e-17)
(49.0313 -59.6876 -2.35586e-17)
(49.9798 -60.8515 -3.76995e-16)
(52.3021 -63.4744 0)
(53.0346 -63.8835 0)
(52.8901 -63.9529 -1.42545e-16)
(52.06 -63.0915 -9.75485e-18)
(49.8047 -60.5334 0)
(50.7146 -61.7011 2.45056e-17)
(53.0624 -64.3887 -9.75499e-18)
(53.8059 -64.8068 1.60019e-17)
(53.6378 -64.939 1.31045e-16)
(52.7849 -64.0689 3.03423e-17)
(50.498 -61.4152 -2.52753e-17)
(51.5339 -62.7581 2.60956e-17)
(53.9423 -65.5008 -1.05072e-17)
(54.6954 -65.8572 -1.36629e-16)
(54.6346 -65.8118 1.47648e-16)
(53.8283 -64.9461 -1.78343e-16)
(51.4389 -62.3303 -2.72422e-17)
(51.978 -62.9506 2.33137e-16)
(54.6518 -65.8728 1.96774e-16)
(55.4546 -66.4295 -6.33708e-17)
(56.4816 -67.5024 1.02525e-17)
(55.7876 -67.1859 0)
(53.112 -64.2346 -2.99098e-16)
(53.0152 -64.1464 0)
(55.449 -66.8649 0)
(56.3275 -67.6823 -1.3346e-16)
(57.3571 -68.4882 2.30053e-16)
(56.5822 -68.1192 -1.06566e-16)
(54.1155 -65.4004 0)
(54.0316 -65.2149 0)
(56.3914 -67.8316 -3.34545e-16)
(57.2658 -68.6673 2.3952e-16)
(58.4404 -69.4708 3.00764e-17)
(57.7299 -69.1001 -1.86195e-17)
(55.2663 -66.4418 -2.3165e-17)
(55.1015 -66.0404 2.4019e-17)
(57.5328 -68.6352 2.8708e-17)
(58.375 -69.4932 -3.08681e-17)
(59.3271 -70.3014 9.32331e-17)
(58.5663 -69.8766 -1.43668e-16)
(56.0281 -67.1015 -3.85605e-16)
(55.7871 -66.8002 0)
(58.2478 -69.5655 -9.91767e-18)
(59.1404 -70.4789 1.59483e-16)
(60.2938 -71.4089 -1.33488e-16)
(59.5352 -71.0144 4.64234e-16)
(56.9235 -68.1217 -4.09177e-16)
(56.7117 -67.799 4.27085e-16)
(59.2775 -70.6015 -3.26876e-16)
(60.1724 -71.5088 0)
(61.194 -72.1797 0)
(60.3574 -71.661 0)
(57.5039 -68.6736 0)
(58.9112 -70.0223 3.17187e-16)
(61.8182 -72.9864 -1.91203e-16)
(62.4631 -73.2134 2.02979e-17)
(62.434 -73.2739 7.89423e-17)
(61.5876 -72.4684 -2.86765e-16)
(58.884 -69.7546 -2.0997e-17)
(59.9267 -70.7684 -2.20547e-17)
(62.662 -73.6003 -8.78488e-18)
(63.4466 -74.0071 0)
(63.271 -74.2629 2.51053e-16)
(62.3213 -73.3385 -2.93462e-16)
(59.7207 -70.5297 1.15364e-17)
(61.0465 -72.0227 1.15619e-17)
(63.7293 -74.878 0)
(64.5583 -75.2218 -4.4729e-17)
(64.567 -75.6518 -2.14087e-16)
(63.6305 -74.7891 3.03214e-16)
(61.0357 -71.9914 1.19528e-17)
(62.7748 -73.2648 -4.19906e-16)
(65.5203 -76.0318 0)
(66.2039 -76.3663 0)
(66.2093 -76.2699 1.56614e-17)
(65.3312 -75.3756 -3.11422e-16)
(62.5353 -72.6322 4.16307e-16)
(63.4693 -73.7258 0)
(66.4004 -76.7383 1.40833e-16)
(67.2642 -77.1451 -1.46512e-16)
(67.0784 -77.388 -1.31578e-16)
(66.108 -76.3864 -1.37926e-16)
(63.2722 -73.4115 4.19083e-16)
(64.287 -74.5446 0)
(67.4153 -77.6852 1.16273e-17)
(68.3459 -78.2007 -1.09243e-16)
(69.9339 -79.4878 2.937e-17)
(69.1604 -79.4346 1.99168e-16)
(66.0962 -76.5073 1.79316e-17)
(66.4784 -76.4043 -2.00033e-17)
(69.3228 -78.966 2.51967e-16)
(70.1624 -79.7296 -2.13507e-16)