/*--------------------------------*- C++ -*----------------------------------*\
| =========                 |                                                 |
| \\      /  F ield         | OpenFOAM: The Open Source CFD Toolbox           |
|  \\    /   O peration     | Version:  v2006                                 |
|   \\  /    A nd           | Website:  www.openfoam.com                      |
|    \\/     M anipulation  |                                                 |
\*---------------------------------------------------------------------------*/
FoamFile
{
    version     2.0;
    format      ascii;
    class       volScalarField;
    location    "0.085";
    object      Co;
}
// * * * * * * * * * * * * * * * * * * * * * * * * * * * * * * * * * * * * * //

dimensions      [0 0 0 0 0 0 0];


internalField   nonuniform List<scalar> 
38932
(
0.0073725
0.00701361
0.00761573
0.00793456
0.00799509
0.00783713
0.00786335
0.00775994
0.00771253
0.0077033
0.00766741
0.00765938
0.00765133
0.00764756
0.00764334
0.00763911
0.00763412
0.00762875
0.00762301
0.0076169
0.00761043
0.0076036
0.0075964
0.00758885
0.00758095
0.0075727
0.0075641
0.00755516
0.00754588
0.00753626
0.00752632
0.00751605
0.00750545
0.00749454
0.00748332
0.0074718
0.00745996
0.00744781
0.0074354
0.00742269
0.0074097
0.00739643
0.00738289
0.0073691
0.00735505
0.00734075
0.00732622
0.00731144
0.00729643
0.00728121
0.00726577
0.00725012
0.00723427
0.00721824
0.00720202
0.00718564
0.00716909
0.00715239
0.00713553
0.00711854
0.00710142
0.00708417
0.00706681
0.00704936
0.00703183
0.00701421
0.00699651
0.00697875
0.00696095
0.00694311
0.00692525
0.00690736
0.00688947
0.00687158
0.0068537
0.00683586
0.00681805
0.00680029
0.00678259
0.00676497
0.00674744
0.00672999
0.00671265
0.00669544
0.00667836
0.00666142
0.00664464
0.00662801
0.00661157
0.00659533
0.00657929
0.00656345
0.00654784
0.00653246
0.00651734
0.00650247
0.00648787
0.00647355
0.00645952
0.00644579
0.00643238
0.00641928
0.00640651
0.00639408
0.006382
0.00637027
0.00635891
0.00634792
0.0063373
0.00632707
0.00631723
0.00630778
0.00629874
0.00629011
0.00628188
0.00627407
0.00626668
0.00625972
0.00625319
0.00625018
0.00624546
0.00624129
0.00626696
0.00626748
0.00630187
0.0063888
0.00640016
0.00652637
0.00669397
0.00668248
0.00723759
0.00579164
0.00541957
0.00547086
0.00595544
0.00554893
0.0054911
0.00568149
0.00478378
0.00480573
0.00492029
0.00490548
0.00495346
0.00493163
0.00445453
0.00467856
0.0047666
0.0048527
0.00480274
0.00455385
0.00441854
0.00473821
0.00482029
0.00485742
0.00477571
0.00443003
0.00437331
0.00475398
0.00485363
0.00485325
0.00474766
0.00434522
0.00429908
0.00472268
0.00483999
0.00482566
0.00469995
0.00425977
0.00422104
0.00467511
0.0048092
0.00479223
0.00465075
0.00418492
0.00415098
0.00462688
0.00477507
0.00475777
0.00460342
0.00411882
0.00408814
0.00458033
0.00474035
0.0047228
0.00455754
0.00405865
0.00403015
0.00453498
0.00470512
0.00468729
0.00451259
0.00400244
0.00397539
0.00449031
0.0046693
0.00465112
0.00446807
0.00394884
0.0039227
0.00444584
0.00463272
0.00461408
0.00442357
0.00389687
0.00387127
0.00440119
0.00459517
0.00457598
0.00437869
0.00384583
0.00382049
0.00435601
0.00455647
0.00453663
0.00433313
0.00379519
0.00376988
0.00431
0.00451642
0.00449582
0.0042866
0.00374451
0.00371904
0.00426289
0.00447481
0.00445336
0.00423883
0.00369342
0.0036676
0.00421439
0.00443144
0.00440903
0.00418953
0.00364156
0.00361523
0.00416423
0.00438609
0.00436259
0.00413844
0.0035886
0.0035616
0.00411213
0.0043385
0.00431378
0.00408525
0.0035342
0.00350636
0.00405779
0.00428841
0.00426235
0.00402969
0.00347804
0.0034492
0.00400091
0.00423557
0.00420804
0.00397144
0.0034198
0.00338981
0.00394122
0.00417971
0.00415056
0.00391022
0.00335918
0.00332788
0.0038784
0.00412055
0.00408966
0.00384574
0.00329588
0.00326314
0.00381219
0.00405784
0.00402506
0.00377771
0.00322961
0.00319526
0.00374226
0.00399126
0.00395642
0.00370578
0.00316003
0.00312386
0.00366823
0.00392046
0.00388334
0.00362953
0.00308671
0.00304851
0.00358964
0.003845
0.00380536
0.00354847
0.00300919
0.00296868
0.00350597
0.00376436
0.00372192
0.00346204
0.00292691
0.00288381
0.00341663
0.00367798
0.00363245
0.00336964
0.0028393
0.00279331
0.00332101
0.00358526
0.00353632
0.00327064
0.00274576
0.00269657
0.00321846
0.00348557
0.0034329
0.00316437
0.00264566
0.00259294
0.0031083
0.00337823
0.00332146
0.00305013
0.00253834
0.00248174
0.00298977
0.00326249
0.0032012
0.0029271
0.00242304
0.00236212
0.00286199
0.00313747
0.00307115
0.00279431
0.00229887
0.00223317
0.00272393
0.00300212
0.00293022
0.0026507
0.00216487
0.00209384
0.00257447
0.00285528
0.00277715
0.00249508
0.00201995
0.00194305
0.00241237
0.00269566
0.00261062
0.00232619
0.00186303
0.00177975
0.00223638
0.00252185
0.00242919
0.00214279
0.00169311
0.00160303
0.00204529
0.00233244
0.00223143
0.00194374
0.00150942
0.00141225
0.00183804
0.00212596
0.00201586
0.00172809
0.00131155
0.00120738
0.00161388
0.00190099
0.00178125
0.00149544
0.00109993
0.00098951
0.00137293
0.0016566
0.00152706
0.00124661
0.000876586
0.000761817
0.0011169
0.00139279
0.00125412
0.000984442
0.000646105
0.000530624
0.00085015
0.00111159
0.000966134
0.000715268
0.000416852
0.000306546
0.000581581
0.000819309
0.000672499
0.000450647
0.000201457
0.000103774
0.000327166
0.000530107
0.000390995
0.000208127
7.92621e-05
0.00012994
0.00013904
0.000257549
0.000185375
0.000158252
0.000181125
0.000222542
0.000209973
0.000202533
0.000251748
0.00025393
0.000256736
0.000285819
0.000292246
0.000294704
0.000331152
0.000324532
0.000309854
0.000329723
0.000352977
0.000363667
0.000395278
0.000379994
0.000346748
0.000362418
0.000407412
0.000427882
0.000459958
0.000434831
0.000377112
0.000391779
0.000462174
0.000491781
0.000523535
0.000490958
0.000409199
0.000427863
0.000516835
0.000551123
0.000574957
0.000540274
0.000447335
0.000466905
0.000561936
0.000596047
0.000610488
0.000578853
0.000484936
0.00050086
0.000593251
0.000622961
0.000629228
0.000603139
0.000514216
0.000523808
0.000608493
0.000631603
0.000632009
0.000611911
0.000530959
0.000534565
0.000610213
0.00062629
0.000624776
0.000608026
0.000535174
0.000534887
0.000607937
0.000626633
0.000624967
0.000604694
0.000531721
0.000525833
0.00059953
0.000621638
0.000612528
0.000589597
0.000516548
0.000504344
0.000577702
0.000602557
0.000587891
0.000562402
0.000489708
0.000471932
0.000543653
0.000570494
0.000552198
0.000524396
0.000452944
0.000431446
0.000501605
0.000530179
0.000506235
0.000477009
0.000408319
0.00038425
0.000452004
0.000481997
0.000454683
0.000424722
0.000358867
0.000332603
0.000396765
0.000427308
0.000398591
0.000367744
0.000305148
0.000277152
0.000337318
0.000368383
0.000336984
0.000305494
0.000247063
0.000217718
0.000273638
0.000305288
0.000270301
0.000237782
0.000183229
0.000156055
0.000207277
0.000238954
0.000202845
0.000168216
0.000117422
9.35927e-05
0.000141885
0.000174983
0.000139077
0.000102716
5.60661e-05
2.95533e-05
7.07651e-05
0.00010568
5.41445e-05
3.16279e-05
1.42217e-05
1.56483e-05
2.14222e-05
1.78133e-05
2.30088e-05
5.17866e-05
8.00536e-05
0.000113898
0.000136168
0.000162315
0.0001799
0.000194928
0.000202913
0.000205758
0.000206273
0.000205081
0.000197563
0.000192968
0.000175101
0.000249636
0.000212946
0.000169706
0.000122852
9.74128e-05
6.08908e-05
4.00805e-05
4.66249e-05
4.73539e-05
9.1447e-05
0.000103523
9.45067e-05
0.000101655
0.00010711
7.27075e-05
7.95849e-05
6.24754e-05
3.99571e-05
1.67768e-05
5.03866e-05
9.35311e-05
0.000122541
0.000130192
0.000110505
0.000119385
0.000116706
0.00011278
9.78896e-05
5.95717e-05
7.16775e-05
0.000108435
0.000116575
0.000112756
0.000101118
7.49885e-05
9.38614e-05
0.000103529
0.000102181
7.77753e-05
7.85389e-05
9.7778e-05
9.31823e-05
8.31581e-05
6.4046e-05
7.22055e-05
8.01199e-05
8.69967e-05
9.0971e-05
7.74593e-05
7.78481e-05
9.34896e-05
9.17232e-05
8.65509e-05
7.90131e-05
8.20086e-05
8.89818e-05
9.27232e-05
9.24286e-05
7.55765e-05
7.03331e-05
8.65645e-05
8.75399e-05
8.46805e-05
7.79082e-05
7.25989e-05
7.68992e-05
7.8633e-05
7.7289e-05
6.31451e-05
5.45527e-05
6.60734e-05
6.73755e-05
6.59532e-05
6.65966e-05
7.05224e-05
5.41826e-05
5.27665e-05
5.26105e-05
4.50672e-05
3.55898e-05
3.77908e-05
3.87238e-05
5.5126e-05
8.44996e-05
0.000103702
7.24921e-05
4.2905e-05
2.5518e-05
2.62495e-05
1.63231e-05
2.42792e-05
5.54521e-05
8.47722e-05
0.000114296
0.000127048
9.69048e-05
6.71884e-05
3.63379e-05
9.46745e-06
9.77465e-06
4.3769e-05
7.34759e-05
0.000101823
0.000132387
0.000139754
0.000108065
7.97413e-05
5.12489e-05
1.59973e-05
1.98167e-05
5.75465e-05
8.8389e-05
0.00011171
0.000140283
0.000154542
0.000133009
0.000123215
9.99245e-05
2.86535e-05
0.000118461
0.000149641
0.000123204
0.000230862
0.000223789
0.000212971
0.000156488
0.000154573
0.000376249
0.000371825
0.000860356
0.000942226
0.000327053
0.000280901
0.000292782
0.000411897
0.000990448
0.00113133
0.00375729
0.00403016
0.0020694
0.00186124
0.000594913
0.000643853
0.000396115
0.000382185
0.000515011
0.000438943
0.00118942
0.00129934
0.00339276
0.00314471
0.000957643
0.000875746
0.000425133
0.000288305
0.000357011
0.000344158
0.000782468
0.000840613
0.00187822
0.00174571
0.000583805
0.000496917
0.0003433
0.000758973
0.00177124
0.0018873
0.00637697
0.0070243
0.00724641
0.00686986
0.00202774
0.00160053
0.000544753
0.000687871
0.0015511
0.00185198
0.0060502
0.00639573
0.00419759
0.00380662
0.00121002
0.0012022
0.000702309
0.000579632
0.00133984
0.00157994
0.00525378
0.00563735
0.00374895
0.00354275
0.00122554
0.00121962
0.000704327
0.000517183
0.000536415
0.000432323
0.000521298
0.000498273
0.00456445
0.00444591
0.00142084
0.00105905
0.000641324
0.000968947
0.00175214
0.0018451
0.00543037
0.00567823
0.0075882
0.00703696
0.00223935
0.00213701
0.00109701
0.000909358
0.00114732
0.00102169
0.00258133
0.00276527
0.00745473
0.00691544
0.00220644
0.0020071
0.00102171
0.00088987
0.00171708
0.00186736
0.00558303
0.00602267
0.000614924
0.000711555
0.00062391
0.000755004
0.000838689
0.0011636
0.00199125
0.00203397
0.00601263
0.00648148
0.0100024
0.00956148
0.00301738
0.00253683
0.00111048
0.00103089
0.00164985
0.00177961
0.0047237
0.00486829
0.00209346
0.00228986
0.00106403
0.00112993
0.00122358
0.00152648
0.00260462
0.00264985
0.00753063
0.00794571
0.00971923
0.00900523
0.00297944
0.0028966
0.00159817
0.00130534
0.00116041
0.00091524
0.00136378
0.00125493
0.00821202
0.00777599
0.00264685
0.00232614
0.00126241
0.00137904
0.00249034
0.00263458
0.0073818
0.00790907
0.000771061
0.000934895
0.000882786
0.00109339
0.00123406
0.00163418
0.00263121
0.0027182
0.00769302
0.0081822
0.0119389
0.0113302
0.00380048
0.00348973
0.00180179
0.00155389
0.00188928
0.00175978
0.00403557
0.00415836
0.0135717
0.0128986
0.00425648
0.00378904
0.00185204
0.00145673
0.00135192
0.0010792
0.000951743
0.000733202
0.00994066
0.00953832
0.00337806
0.0029924
0.00160763
0.00146752
0.00130383
0.00120538
0.00102387
0.000615699
0.010329
0.01009
0.00349014
0.00283798
0.00170907
0.00182242
0.00256246
0.00259085
0.00601313
0.00614293
0.00441337
0.00458899
0.0020727
0.00197085
0.00182528
0.00209076
0.00307281
0.00311142
0.00768986
0.00791225
0.00425486
0.00412869
0.00214869
0.00245427
0.00208568
0.00227598
0.00311296
0.00299221
0.0070356
0.00729168
0.00983713
0.00934763
0.00365143
0.00373776
0.00248542
0.00241284
0.0028824
0.00255427
0.00530761
0.00547068
0.0139493
0.0132205
0.00470019
0.00447597
0.0026593
0.00231301
0.00208741
0.00170226
0.00209627
0.00179408
0.0121857
0.0116966
0.00430392
0.00390434
0.00235448
0.00227753
0.00350593
0.00368908
0.00917587
0.0096167
0.00239548
0.00266093
0.00191918
0.00218651
0.00218496
0.00259686
0.00343971
0.00341174
0.00806784
0.00832097
0.0167997
0.0162858
0.00573392
0.00509627
0.00279301
0.00231789
0.00271963
0.00272781
0.00477172
0.0046113
0.0122922
0.0121865
0.00457333
0.00378856
0.00261405
0.00306578
0.00449389
0.00457621
0.0109996
0.0112489
0.00490523
0.00473494
0.00278701
0.00333977
0.00302155
0.00315654
0.00378783
0.00349063
0.00701905
0.00703404
0.017353
0.0166135
0.00603093
0.00562647
0.00344986
0.00303568
0.00294743
0.00268978
0.00395766
0.00358319
0.0149219
0.0144511
0.00549475
0.00490437
0.00303515
0.00323705
0.00483424
0.00500215
0.0121682
0.0127136
0.00504521
0.00537269
0.00316721
0.00333756
0.00300218
0.00307616
0.00349131
0.00349634
0.00690404
0.00674594
0.0205795
0.0203031
0.00720909
0.00590812
0.0034154
0.00374557
0.00539542
0.00572928
0.0136019
0.0136601
0.00536922
0.00546881
0.0035203
0.00401902
0.00373612
0.00401553
0.00492752
0.00493965
0.0102363
0.00989105
0.0336143
0.0320269
0.010913
0.00948081
0.0049203
0.00433432
0.00737086
0.00944261
0.0263072
0.0271126
0.0046364
0.00654835
0.00635237
0.00614418
0.00467432
0.0113378
0.00806121
0.00623526
0.00502653
0.00271228
0.00349126
0.00538583
0.00643437
0.00709737
0.00694356
0.00658885
0.00644139
0.00602175
0.00522431
0.00363287
0.00381808
0.00505916
0.00573022
0.00612254
0.00622875
0.00599917
0.00584336
0.00549202
0.00494618
0.00394461
0.0040194
0.0048509
0.00535767
0.00566877
0.00578977
0.00561675
0.00546057
0.00521728
0.00482563
0.00412783
0.00423581
0.00481952
0.00515775
0.00536033
0.005351
0.00551522
0.00535989
0.00516111
0.00485457
0.00433003
0.00439583
0.00487398
0.00514472
0.00532921
0.00547204
0.00548476
0.00532162
0.00514601
0.00489679
0.00448158
0.00458872
0.00496935
0.00515548
0.00531358
0.00547859
0.00526142
0.00527573
0.00521734
0.00504198
0.0047025
0.00511279
0.00519167
0.00532191
0.00535096
0.00520815
0.00551369
0.00546636
0.00536518
0.00523551
0.00518678
0.00521802
0.00527123
0.0053901
0.00542113
0.00547234
0.00535883
0.00537868
0.00537982
0.00534205
0.0054012
0.00548116
0.00535783
0.00533546
0.00530719
0.00525122
0.00508324
0.00511934
0.00526604
0.00541284
0.00562153
0.00568749
0.00564404
0.00549786
0.00509337
0.00414089
0.00989898
0.00734211
0.00656959
0.00625064
0.00604076
0.00622552
0.00648678
0.00684205
0.00731727
0.00916633
0.00723429
0.00711726
0.0068848
0.00668914
0.00656632
0.00681407
0.0069677
0.00697515
0.00687916
0.00669949
0.00640148
0.00669075
0.00695287
0.0072265
0.00710602
0.00725716
0.00730424
0.00689863
0.00651014
0.00613026
0.0057781
0.00625083
0.00686825
0.00741259
0.00742108
0.00750355
0.00761822
0.00714637
0.00653954
0.00577593
0.00569209
0.00730213
0.00785231
0.00805621
0.00772731
0.00783334
0.00867323
0.00900645
0.0097201
0.012361
0.0118413
0.0107556
0.00987916
0.00917774
0.00820873
0.00834824
0.00944884
0.00994715
0.00994621
0.0080108
0.015513
0.0116732
0.0104852
0.00968814
0.00852434
0.00869629
0.00973062
0.0105999
0.0117717
0.0132557
0.00949273
0.00984041
0.00977278
0.00944913
0.00868999
0.00872295
0.00922283
0.00937445
0.00931497
0.00915544
0.00924366
0.00928714
0.00930055
0.00921666
0.00888779
0.00893055
0.00924357
0.00937689
0.00939828
0.00935174
0.0092638
0.00930103
0.00936095
0.00935229
0.00904264
0.00911966
0.0093875
0.00936074
0.00921781
0.00894323
0.00798519
0.00965687
0.00998517
0.00979941
0.0093115
0.00952833
0.0106077
0.0113488
0.0127625
0.0172852
0.0154116
0.0125228
0.0114441
0.0106009
0.0097047
0.00978038
0.0104127
0.0107832
0.0112439
0.0116769
0.0104266
0.01049
0.0103293
0.0101436
0.00977632
0.00968522
0.0100209
0.01005
0.00988519
0.00971468
0.00880947
0.00925686
0.00981961
0.0102964
0.00991195
0.0101336
0.010934
0.010678
0.0100125
0.00802027
0.0178541
0.0135492
0.0123687
0.0118105
0.0103784
0.0104297
0.0118362
0.0121615
0.0129055
0.0159388
0.0119418
0.0116018
0.0112254
0.0112648
0.0102932
0.0106327
0.0107343
0.0107306
0.0106421
0.0104216
0.00948196
0.00979671
0.0101142
0.0104287
0.0104231
0.0102966
0.0101388
0.00965058
0.00907818
0.00849069
0.00769001
0.00963051
0.0102764
0.0104081
0.0102555
0.0103765
0.0108889
0.0114096
0.01255
0.0165187
0.0146971
0.0119604
0.0112733
0.0108319
0.0102054
0.0100367
0.0102834
0.0103443
0.0106779
0.0108811
0.00935427
0.00963254
0.00982849
0.00997441
0.00992042
0.0097006
0.00949376
0.00905689
0.00865871
0.00829641
0.00762021
0.00814961
0.00875927
0.0093299
0.00961294
0.00943567
0.0095048
0.00932945
0.00869521
0.00694087
0.0144323
0.0111509
0.010192
0.00987303
0.00959286
0.00948282
0.00980799
0.0100321
0.0105617
0.012461
0.00875755
0.00886273
0.00899709
0.00922403
0.00924225
0.00900499
0.00870063
0.00833103
0.00784463
0.00738139
0.00686207
0.00741883
0.0079771
0.00843626
0.00881963
0.00869828
0.00852144
0.00823358
0.00769637
0.00615668
0.012058
0.00953925
0.00891436
0.00871543
0.00862242
0.00844293
0.00854491
0.00870341
0.00906143
0.0099852
0.00689958
0.0073333
0.00764921
0.00790083
0.00814639
0.00777507
0.00742117
0.00707124
0.00666394
0.00618181
0.00534264
0.00664497
0.00714993
0.00739484
0.0076027
0.00743839
0.00737923
0.00749707
0.00794498
0.00966054
0.0075926
0.00736471
0.00710113
0.00706033
0.00711506
0.00669458
0.0064231
0.00621325
0.00603182
0.00581948
0.00509274
0.00534916
0.00565525
0.00593063
0.00637698
0.0059922
0.00566627
0.00544199
0.00511069
0.00421743
0.00633216
0.00567052
0.00539675
0.00540659
0.00560381
0.00519891
0.00497405
0.00499968
0.00527494
0.00556268
0.00435744
0.00427481
0.0042677
0.00436558
0.00470846
0.00422703
0.00381324
0.00365753
0.00363175
0.00376549
0.00332263
0.00306658
0.00312556
0.00321064
0.00369295
0.00305788
0.00268435
0.00268227
0.00268585
0.00339449
0.00457929
0.00304479
0.00227172
0.0021132
0.00241423
0.00172797
0.00172546
0.00263295
0.00388777
0.00477957
0.00589031
0.00490629
0.00369846
0.00218514
0.000984776
0.000892796
0.00327453
0.00485159
0.00613107
0.00672529
0.0110633
0.00816734
0.00632085
0.00446691
0.0017188
0.00283555
0.00556529
0.00739104
0.00892888
0.00995857
0.010311
0.00955603
0.00840145
0.00673478
0.00420705
0.00585963
0.00821371
0.00988431
0.0110549
0.0112392
0.0185953
0.0142113
0.0118101
0.00982143
0.00693931
0.00807866
0.0111684
0.0131519
0.0146956
0.0154508
0.0166766
0.0162105
0.0148738
0.012926
0.00938079
0.0108181
0.0149606
0.0173992
0.020257
0.0262663
0.0211411
0.0207463
0.0191391
0.016611
0.0122804
0.0143471
0.0191039
0.0213
0.0228178
0.0230091
0.0357086
0.0282348
0.0250056
0.0218226
0.0162101
0.0188168
0.0246308
0.0273354
0.0288121
0.0287801
0.030499
0.0321083
0.0309593
0.0285974
0.0221673
0.0263144
0.0336416
0.0363375
0.0398988
0.0484334
0.0375142
0.0392468
0.0394349
0.0390146
0.0318494
0.0398323
0.0444671
0.0445592
0.0427551
0.0360664
0.0601925
0.0526601
0.0522909
0.0527914
0.052236
0.0594755
0.0581197
0.0571087
0.0554976
0.0468503
0.0708023
0.0616306
0.0602679
0.0592986
0.0586303
0.0603121
0.061392
0.0620974
0.0614494
0.0524584
0.0725461
0.0635527
0.0624286
0.0622077
0.0645276
0.0743946
0.0664475
0.0630799
0.0569694
0.0455597
0.0567567
0.0618663
0.0684558
0.0768834
0.0868833
0.0875543
0.0856719
0.0757558
0.0691657
0.0642123
0.0677781
0.0727209
0.0809169
0.0936009
0.0923793
0.0997075
0.0949284
0.0807053
0.0730782
0.0676346
0.0625995
0.0659654
0.0706561
0.0809462
0.0964368
0.0962879
0.0868233
0.0727804
0.0602732
0.0465466
0.0947054
0.0814358
0.0841305
0.0924192
0.09797
0.0995258
0.0960268
0.0903517
0.0850478
0.0813232
0.107735
0.0930975
0.0933084
0.0959749
0.0974805
0.0945813
0.0979063
0.0944508
0.0894482
0.0886568
0.109298
0.0936599
0.0937136
0.0948625
0.0898771
0.0855324
0.0929442
0.0900068
0.0864646
0.0909487
0.104558
0.0906559
0.0895489
0.0898491
0.0823902
0.0829909
0.0877568
0.0856155
0.0811799
0.0886667
0.0992543
0.0841269
0.0820942
0.0812585
0.0779199
0.0688754
0.07506
0.0759199
0.0732868
0.0847247
0.0880637
0.073571
0.0714356
0.0711092
0.0649055
0.0615956
0.0682108
0.0683112
0.065103
0.0767095
0.0657172
0.0684609
0.0684742
0.0666391
0.0593911
0.0572861
0.0662565
0.0716893
0.0798077
0.104161
0.0889411
0.0690669
0.0675501
0.0638484
0.0562074
0.0546956
0.0608892
0.063648
0.0672201
0.0815654
0.0761512
0.0605182
0.0585366
0.057096
0.0518111
0.0485098
0.0556581
0.0582892
0.0590357
0.0571324
0.0883741
0.0671346
0.0597009
0.054541
0.0467426
0.0457201
0.0536876
0.0569069
0.0584253
0.0763964
0.0568085
0.0580382
0.0560427
0.0520273
0.0435931
0.0429794
0.0516195
0.0570908
0.0647091
0.0857193
0.0750517
0.0563717
0.0541144
0.0501001
0.042043
0.0409158
0.0492108
0.0535227
0.0561079
0.055653
0.0839365
0.0625572
0.0544487
0.0486174
0.0404327
0.0397366
0.0466987
0.0510526
0.056389
0.0773431
0.0639075
0.0517976
0.0485403
0.044752
0.0382958
0.0368153
0.0429426
0.0462438
0.0503567
0.0656682
0.0450896
0.0459535
0.0444976
0.041665
0.035653
0.0350266
0.0416211
0.045972
0.0521564
0.0701864
0.0660966
0.0478891
0.0436972
0.0406301
0.034364
0.0338387
0.0401275
0.0435077
0.0455715
0.0449994
0.0680714
0.0504987
0.0444021
0.0399768
0.0332483
0.0329342
0.0391059
0.0421974
0.0467401
0.0645221
0.0433833
0.0438153
0.0417962
0.0385443
0.0323486
0.0322432
0.0385212
0.04268
0.0485935
0.0654362
0.0629984
0.045127
0.0405016
0.0376349
0.0317219
0.0313089
0.037115
0.0402294
0.0421185
0.0415843
0.0627231
0.046551
0.0409873
0.03706
0.0310721
0.0306691
0.036189
0.0392272
0.0437329
0.0608972
0.0398248
0.040457
0.0386463
0.035778
0.0304072
0.030012
0.0356394
0.0393232
0.0446821
0.0602775
0.0593766
0.0423402
0.0379347
0.0350226
0.0298469
0.0293743
0.0343728
0.0369271
0.0384276
0.0377817
0.0572433
0.0426153
0.037746
0.0344907
0.0294462
0.0289874
0.0336657
0.0360985
0.040432
0.056842
0.0337698
0.0357679
0.0354993
0.0335315
0.0288915
0.028972
0.034434
0.038029
0.041836
0.0456136
0.0618811
0.0454166
0.0391786
0.0347835
0.0289531
0.0285977
0.033892
0.0368322
0.0412164
0.0583939
0.0372902
0.0378198
0.0360755
0.0333217
0.0281862
0.0281767
0.0333669
0.0368794
0.0419675
0.0566755
0.0565963
0.0405541
0.0357846
0.0327529
0.0279712
0.0278314
0.0323177
0.0346451
0.0359767
0.0352494
0.0547567
0.0405908
0.035754
0.032513
0.0276301
0.0275705
0.0320285
0.0349218
0.0395271
0.0553704
0.0344494
0.0352353
0.0340287
0.0319037
0.0274246
0.0274695
0.0320434
0.0352271
0.0398559
0.0536471
0.0541635
0.0391035
0.0345791
0.0318165
0.0272995
0.027135
0.0314973
0.0335847
0.0346838
0.0339378
0.0528241
0.0393332
0.0347871
0.0317774
0.0271497
0.0270585
0.0314919
0.0341888
0.0386573
0.0535327
0.0336121
0.0343968
0.0333393
0.0312715
0.0269983
0.0268986
0.0315923
0.0344995
0.0388853
0.052233
0.0529378
0.0382262
0.033859
0.0312538
0.0267427
0.0266974
0.0311216
0.0331602
0.0342362
0.0334194
0.0519835
0.038635
0.0342737
0.0314723
0.0267911
0.0265525
0.0313089
0.0338418
0.0375377
0.051893
0.0333022
0.0340949
0.0330035
0.03106
0.0263872
0.0264414
0.031337
0.0341652
0.0385618
0.0518011
0.051896
0.0374769
0.0335874
0.0311619
0.0260241
0.0259905
0.0308967
0.0328492
0.0339644
0.0331769
0.051391
0.0382849
0.0339995
0.031224
0.0258748
0.0257505
0.0308226
0.0331515
0.0372666
0.0519944
0.0326943
0.0334637
0.0324542
0.0306879
0.0252146
0.0251646
0.030739
0.0333478
0.0375898
0.0505208
0.0520778
0.0371042
0.0326292
0.0300577
0.0244862
0.0237045
0.0285328
0.0307683
0.0319238
0.0314252
0.0480324
0.0356085
0.0315722
0.028627
0.0231494
0.0228681
0.0288266
0.0322211
0.0372345
0.0527785
0.0296976
0.0314481
0.0311341
0.0284735
0.0226919
0.022189
0.0293016
0.0324067
0.0356455
0.0452255
0.0522688
0.0377652
0.032875
0.0288303
0.0225554
0.0217771
0.0293251
0.0314656
0.0322923
0.0268557
0.0427434
0.0352748
0.0323382
0.0288127
0.0216026
0.0218115
0.0292201
0.0330653
0.0382166
0.0512311
0.0338011
0.0337912
0.0302932
0.0270366
0.0193554
0.0196152
0.0241073
0.0261479
0.0285969
0.034377
0.0151732
0.0199708
0.0214578
0.0210537
0.0180874
0.0175508
0.0188304
0.0192374
0.0199236
0.0214729
0.0311189
0.022694
0.0200232
0.0184424
0.0171059
0.0167562
0.0183545
0.0206715
0.0240099
0.0333263
0.0241652
0.0215564
0.019997
0.0179511
0.0163906
0.0161076
0.0171846
0.0188748
0.0209551
0.0271247
0.0158215
0.0167772
0.0170331
0.0164046
0.0159005
0.0157967
0.0163646
0.0175649
0.019679
0.0267121
0.0277764
0.0200815
0.0177695
0.0163043
0.0140833
0.0140656
0.0159564
0.0168352
0.0172443
0.0167232
0.0270724
0.0200379
0.0176902
0.016217
0.0141229
0.0140736
0.0162499
0.017715
0.0200724
0.0278026
0.0169057
0.0173755
0.0169151
0.0160364
0.0140748
0.0140762
0.0162283
0.017754
0.0201406
0.0272749
0.0276859
0.0199851
0.0176552
0.0162007
0.0140609
0.0140835
0.0160587
0.0169886
0.0174261
0.0169281
0.0273632
0.0202034
0.0177967
0.0162877
0.0141729
0.0141409
0.0163385
0.0177788
0.0201141
0.0278488
0.0169952
0.0174995
0.017052
0.0161489
0.0141544
0.0143161
0.0164576
0.0179917
0.0204163
0.0276142
0.0281766
0.0203313
0.0179035
0.0164728
0.0143741
0.0144667
0.0164271
0.0173588
0.0177896
0.0172571
0.0281253
0.0208225
0.0183715
0.0167953
0.0145147
0.0146326
0.0167137
0.0181559
0.0206815
0.028598
0.0181159
0.0185214
0.0179334
0.0168359
0.014764
0.0149249
0.0173034
0.018999
0.0217484
0.029668
0.0306772
0.0225072
0.0197093
0.0177393
0.0151469
0.0152574
0.0177128
0.0194051
0.0205763
0.0237238
0.026391
0.0205425
0.0187129
0.0173992
0.0152392
0.0150513
0.0168261
0.0173633
0.0173198
0.0166519
0.0281301
0.0208915
0.0185669
0.0172213
0.0151716
0.0151953
0.0173235
0.0186633
0.0209228
0.0286903
0.01852
0.0189938
0.0184613
0.0174486
0.0153809
0.0156156
0.0179026
0.0196009
0.0223022
0.0302661
0.031307
0.0228682
0.020164
0.0182959
0.0157407
0.0158362
0.0182428
0.0199449
0.0211166
0.0243348
0.027044
0.0210355
0.0193049
0.0180061
0.0158369
0.0157958
0.0175132
0.017961
0.0179396
0.0171883
0.0289687
0.0216
0.01928
0.0179292
0.015893
0.0160222
0.0180421
0.0193607
0.0215262
0.0294292
0.0191371
0.0196581
0.0191645
0.018172
0.0161105
0.0163339
0.0186684
0.0203625
0.0231203
0.0312949
0.0321179
0.0235572
0.020822
0.0189608
0.0164352
0.016557
0.0190472
0.0206585
0.0218154
0.0252034
0.0277614
0.0216953
0.0199794
0.018699
0.0165764
0.016491
0.0181976
0.0186958
0.0186578
0.0178616
0.0300708
0.02248
0.0201004
0.0187156
0.0166728
0.0167641
0.0188258
0.0200228
0.0221888
0.0303705
0.0199565
0.0205431
0.0200522
0.0190403
0.0169584
0.0171399
0.0195336
0.0213217
0.0241819
0.0327018
0.0331745
0.0244898
0.0217013
0.0198399
0.0173035
0.0173888
0.0198974
0.0214924
0.0225374
0.0263214
0.0289539
0.022678
0.0208954
0.0196019
0.0173977
0.0174342
0.0192737
0.0199253
0.0200626
0.0193522
0.032745
0.0242645
0.0215045
0.0198711
0.0175978
0.0178669
0.0203237
0.0221278
0.0248018
0.0333705
0.0267344
0.0230151
0.022057
0.0205457
0.0179798
0.0179847
0.020094
0.0212232
0.0229145
0.0293982
0.0197975
0.0205983
0.0204692
0.0198144
0.0180012
0.0182647
0.020547
0.0221398
0.0248823
0.0334474
0.033979
0.025277
0.0225604
0.020826
0.0183799
0.0183736
0.0207749
0.0222931
0.0232428
0.0271515
0.0298999
0.0234369
0.021733
0.0206135
0.0184612
0.0185037
0.0203198
0.0209729
0.0211173
0.0203257
0.0342686
0.0254966
0.0226469
0.0209777
0.0186687
0.0188654
0.021361
0.0230651
0.0257829
0.0347856
0.0278128
0.023813
0.0230012
0.0214993
0.0189924
0.0191031
0.021219
0.0224046
0.0240838
0.0305722
0.0207941
0.0216392
0.021544
0.0209093
0.0190379
0.0192131
0.0216085
0.0232993
0.0261693
0.0350406
0.0353792
0.0262469
0.0234741
0.0217312
0.0192936
0.0194548
0.0220486
0.0234809
0.0244285
0.0285787
0.0310679
0.0243797
0.0227668
0.0215703
0.0193898
0.0195038
0.0214437
0.0221331
0.0222437
0.0213907
0.0361773
0.026978
0.0239898
0.0222445
0.0198061
0.0199096
0.0224246
0.0241532
0.0268466
0.0360993
0.0292934
0.0248812
0.0239748
0.0224828
0.0200672
0.0200863
0.0222783
0.0233297
0.02504
0.0318351
0.0222506
0.0231274
0.022971
0.0222049
0.0201122
0.0204641
0.0230702
0.0249385
0.0281107
0.0376487
0.0376913
0.0279599
0.0250856
0.0232461
0.0205295
0.0207943
0.0237307
0.0254298
0.0264157
0.0312077
0.0346087
0.0274796
0.0253902
0.0236499
0.0207932
0.020885
0.0233121
0.0246149
0.0250686
0.0287329
0.0316727
0.0250975
0.023684
0.0229627
0.0209212
0.0208743
0.0227098
0.0232463
0.0232169
0.0222356
0.0379969
0.0284487
0.025391
0.0236642
0.021194
0.0212082
0.023706
0.0253628
0.0281315
0.0378709
0.0307899
0.0260437
0.0252492
0.0238154
0.0213594
0.0212315
0.023371
0.0245399
0.0262676
0.0332966
0.0235359
0.0244942
0.0243723
0.0235996
0.0214344
0.0217348
0.0244852
0.0264888
0.0298347
0.0399342
0.0394779
0.0295353
0.0265389
0.024534
0.0218048
0.0221062
0.0250174
0.0267625
0.0277615
0.0331069
0.0364142
0.0290051
0.0268546
0.0252107
0.0222681
0.0222205
0.0247251
0.0260215
0.0264213
0.0304995
0.03333
0.0265119
0.0250842
0.0242034
0.0221379
0.0222535
0.024349
0.024992
0.0250133
0.0240198
0.0410074
0.0307613
0.0273993
0.025435
0.0226917
0.0227297
0.0254847
0.0271667
0.0300571
0.0405394
0.0340033
0.0285188
0.027644
0.0257411
0.0226998
0.0229649
0.0258693
0.0275705
0.0298824
0.0374319
0.0312765
0.0269779
0.0266968
0.0255022
0.0229294
0.0227942
0.0248418
0.0256311
0.0271682
0.0342272
0.0246562
0.0257153
0.0257149
0.0250478
0.022923
0.0233927
0.0262001
0.0282302
0.0316993
0.0423166
0.0413564
0.0308841
0.0280096
0.0262368
0.0234551
0.0235154
0.0264981
0.0282864
0.0292968
0.0350634
0.0385008
0.0305683
0.0283415
0.0266295
0.0237142
0.0236813
0.0263602
0.0275647
0.0277023
0.0321993
0.035092
0.0280165
0.0264467
0.0255455
0.0234552
0.0237479
0.0259575
0.0266165
0.0266246
0.0255631
0.0436425
0.0327282
0.029158
0.0270526
0.0240959
0.0241635
0.0270294
0.0288971
0.0320395
0.0429394
0.0361366
0.0301846
0.0292245
0.0275284
0.0244218
0.0245202
0.027542
0.0292837
0.0315489
0.0396018
0.0333568
0.0287124
0.0284808
0.0272775
0.0245187
0.0243121
0.0264324
0.0273137
0.0287593
0.0361612
0.0264556
0.0275768
0.0275838
0.0268784
0.024591
0.024974
0.0280977
0.0303452
0.0341227
0.0454179
0.0440994
0.0329484
0.0299582
0.0281953
0.0250771
0.0251708
0.0284351
0.0302967
0.0315375
0.0380556
0.0413384
0.0330481
0.0307077
0.0286779
0.0253559
0.0254036
0.0284857
0.0300712
0.030509
0.0358647
0.0395864
0.0319127
0.0298889
0.028468
0.0255628
0.0254107
0.028121
0.0292593
0.0291344
0.0339256
0.0370053
0.0296227
0.0281382
0.0274747
0.0253992
0.0256845
0.0279965
0.0287009
0.0286922
0.0275603
0.0471728
0.035469
0.0316051
0.0292938
0.0260687
0.0261512
0.0293636
0.0311053
0.0341748
0.0457406
0.0396648
0.0328357
0.0315558
0.0296591
0.0262835
0.0263735
0.0296336
0.0316912
0.0340339
0.0427248
0.0371489
0.0314363
0.0310369
0.0295991
0.0265025
0.0264699
0.0294137
0.0309744
0.0331491
0.0409993
0.0351681
0.0299503
0.0300303
0.0290279
0.0262662
0.0261729
0.0282207
0.028995
0.0304594
0.0379185
0.0285169
0.029719
0.0297306
0.02896
0.0264215
0.0269082
0.0302956
0.0327412
0.0367593
0.048811
0.0467847
0.0351209
0.0322777
0.0304859
0.0271143
0.027289
0.0306604
0.0324685
0.0339165
0.0410991