/*--------------------------------*- C++ -*----------------------------------*\
| =========                 |                                                 |
| \\      /  F ield         | OpenFOAM: The Open Source CFD Toolbox           |
|  \\    /   O peration     | Version:  v2006                                 |
|   \\  /    A nd           | Website:  www.openfoam.com                      |
|    \\/     M anipulation  |                                                 |
\*---------------------------------------------------------------------------*/
FoamFile
{
    version     2.0;
    format      ascii;
    class       volScalarField;
    location    "0.025";
    object      k;
}
// * * * * * * * * * * * * * * * * * * * * * * * * * * * * * * * * * * * * * //

dimensions      [0 2 -2 0 0 0 0];


internalField   nonuniform List<scalar> 
12716
(
143.402
143.402
143.402
143.402
143.402
143.403
143.404
143.405
143.405
143.4
143.361
143.217
142.934
142.541
142.083
141.594
141.095
140.591
140.082
139.563
139.031
138.483
137.919
137.338
136.741
136.13
135.505
134.868
134.219
133.559
132.89
132.213
131.529
130.839
130.145
129.447
128.748
128.049
127.351
126.656
125.965
125.28
124.602
123.933
123.275
122.629
121.996
121.379
120.778
120.194
119.625
119.067
118.517
117.97
117.43
116.92
116.493
116.218
116.115
116.124
116.176
116.235
116.278
116.29
116.243
116.081
115.743
115.165
113.962
112.054
102.181
90.677
106.623
112.527
109.367
98.9988
81.5028
73.7315
91.2281
105.06
101.126
85.1812
67.8699
63.008
79.4394
96.8437
93.5015
75.4592
59.4491
56.3471
71.438
89.7962
87.3211
69.064
54.2003
52.0907
66.0117
84.1632
82.3275
64.5439
50.683
49.1476
62.2013
79.6744
78.246
61.2227
48.1472
46.9638
59.3468
75.9736
74.8296
58.6436
46.2005
45.2489
57.1075
72.8467
71.9053
56.5439
44.6317
43.836
55.2619
70.1436
69.3536
54.7921
43.3142
42.6232
53.6867
67.7666
67.089
53.2827
42.1675
41.5536
52.3068
65.6473
65.0458
51.9501
41.1459
40.5892
51.0728
63.7339
63.1897
50.7523
40.2166
39.7034
49.9528
61.988
61.4894
49.6607
39.3574
38.8782
48.9237
60.379
59.9189
48.6543
38.5527
38.1003
47.9682
58.8863
58.459
47.7174
37.7907
37.3599
47.0736
57.493
57.0937
46.8379
37.0629
36.6494
46.2295
56.1853
55.8101
46.0062
36.3621
35.9624
45.4273
54.9517
54.5976
45.2142
35.6826
35.2938
44.6602
53.7834
53.448
44.4557
35.0195
34.6393
43.923
52.6735
52.3549
43.7256
34.3688
33.9951
43.2114
51.616
51.3123
43.0199
33.7271
33.3582
42.5212
50.6053
50.3147
42.3345
33.0914
32.7253
41.8488
49.6359
49.3568
41.6656
32.4583
32.0935
41.1902
48.7029
48.4338
41.0095
31.8251
31.4597
40.542
47.8017
47.5411
40.3628
31.1889
30.8215
39.9011
46.9281
46.6749
39.7225
30.5471
30.1764
39.2645
46.0783
45.8314
39.0856
29.8974
29.522
38.6294
45.2489
45.007
38.4492
29.2374
28.8559
37.9928
44.4362
44.1983
37.8105
28.5646
28.1755
37.3519
43.6367
43.4016
37.1664
27.8765
27.4783
36.7035
42.8468
42.6133
36.514
27.1705
26.7618
36.0446
42.063
41.8301
35.8502
26.4439
26.0234
35.3726
41.2819
41.0486
35.1725
25.6947
25.2612
34.6848
40.5005
40.2658
34.4783
24.921
24.4737
33.9789
39.7158
39.4787
33.7648
24.1211
23.659
33.2518
38.9248
38.6844
33.0296
23.2937
22.816
32.5017
38.1246
37.88
32.2708
22.4376
21.9441
31.7265
37.3125
37.063
31.4864
21.5526
21.0431
30.9247
36.4862
36.2311
30.6751
20.6389
20.114
30.0953
35.6436
35.3824
29.8362
19.6981
19.1589
29.2382
34.7834
34.5158
28.9699
18.733
18.1819
28.3544
33.9046
33.6312
28.0782
17.7484
17.1891
27.4479
33.0085
32.7306
27.1657
16.7519
16.19
26.5253
32.0985
31.8174
26.2394
15.7544
15.1964
25.5936
31.1784
30.8963
25.3078
14.769
14.223
24.6641
30.2551
29.9742
24.383
13.8121
13.2879
23.7501
29.3363
29.0614
23.4797
12.9028
12.4114
22.8688
28.4356
28.1718
22.6156
12.0622
11.6148
22.0386
27.5666
27.3187
21.8081
11.3111
10.9177
21.275
26.7432
26.5154
21.0711
10.667
10.3345
20.5884
25.9774
25.7724
20.4126
10.1409
9.87268
19.9835
25.2788
25.0982
19.835
9.73664
9.53116
19.4572
24.6525
24.4959
19.3325
9.44764
9.30035
19.0003
24.0979
23.9624
18.8944
9.25777
9.17081
18.5975
23.6105
23.4882
18.4857
9.15988
9.119
18.1816
23.1643
23.0512
18.0736
9.1215
9.10423
17.7845
22.7475
22.6418
17.6904
9.11861
9.11504
17.4286
22.3542
22.2545
17.3467
9.13791
9.1443
17.1086
21.9806
21.8863
17.0359
9.17766
9.18964
16.8183
21.6256
21.5369
16.7537
9.22966
9.24423
16.5544
21.29
21.2074
16.4974
9.28648
9.30223
16.3153
20.9748
20.8993
16.266
9.34452
9.36074
16.1015
20.6833
20.6153
16.0602
9.40223
9.41916
15.9122
20.4158
20.355
15.8775
9.45991
9.47559
15.7471
20.1711
20.1166
15.7183
9.51343
9.52894
15.599
19.9475
19.8984
15.5757
9.56492
9.57937
15.4695
19.7422
19.6988
15.4512
9.61275
9.62639
15.3564
19.5552
19.5165
15.3422
9.65748
9.67015
15.2567
19.3834
19.3485
15.2462
9.6991
9.71089
15.1688
19.2243
19.1925
15.1612
9.73785
9.74867
15.0901
19.0754
19.0457
15.0844
9.77359
9.7834
15.0177
18.9339
18.9054
15.0132
9.80621
9.81476
14.9499
18.7968
18.7689
14.9463
9.83527
9.84278
14.8852
18.6621
18.6343
14.8816
9.86127
9.86761
14.8215
18.5281
18.4998
14.8177
9.8839
9.88903
14.7577
18.3933
18.364
14.7532
9.90308
9.90693
14.6927
18.2563
18.2257
14.6873
9.91862
9.92115
14.6258
18.1161
18.0838
14.6191
9.93047
9.93161
14.5556
17.971
17.9382
14.5482
9.93846
9.93805
14.4849
17.8233
17.7857
14.4711
9.94225
9.93775
14.4128
17.6688
17.6273
14.3935
9.95538
9.95743
14.3532
17.5497
17.56
14.3687
10.0146
10.0406
14.3706
17.5127
17.4283
14.3093
10.0591
10.136
14.4031
17.5032
17.4541
14.3919
10.1892
23.6252
29.4594
34.6523
39.3649
43.4388
47.3314
50.5113
53.1865
55.3193
56.9939
58.1961
58.9403
59.1955
58.9446
58.1528
56.7319
54.6498
51.8306
48.6523
44.6226
38.821
33.2161
29.578
23.1709
17.3626
15.0185
12.1333
12.5343
15.6867
17.6642
13.5044
12.5285
9.90887
10.3153
15.5471
16.5838
16.4994
15.191
10.0147
10.0842
15.6643
16.9386
16.7602
15.4267
9.96365
10.0516
15.6214
16.9389
16.8662
15.4838
9.96059
10.0677
15.7172
17.0737
17.0113
15.5855
9.96698
10.0667
15.793
17.2513
17.1914
15.6662
10.0323
10.141
15.9157
17.4361
17.3717
15.7874
10.1037
10.2137
16.0217
17.6192
17.5496
15.8943
10.1798
10.2868
16.1291
17.8042
17.7362
16.0001
10.2523
10.3648
16.2413
18.0002
17.9292
16.1128
10.3315
10.4446
16.3573
18.2012
18.1297
16.2283
10.4119
10.5281
16.4786
18.4122
18.3389
16.3496
10.4965
10.6142
16.6033
18.6298
18.5551
16.4744
10.5833
10.7036
16.7338
18.857
18.7809
16.6043
10.6733
10.7956
16.868
19.0925
19.0147
16.739
10.7664
10.891
17.0087
19.3387
19.2597
16.8792
10.8623
10.9894
17.1539
19.5943
19.5134
17.0248
10.9619
11.0914
17.3059
19.8614
19.7793
17.1765
11.0645
11.1968
17.4632
20.1389
20.0547
17.3342
11.171
11.306
17.6279
20.4293
20.344
17.4985
11.281
11.419
17.7984
20.7315
20.6442
17.6693
11.3952
11.5362
17.9783
21.0484
20.9601
17.8478
11.5133
11.6579
18.1659
21.3784
21.2878
18.0343
11.6361
11.7843
18.3626
21.7244
21.6326
18.2293
11.7634
11.9156
18.5674
22.0844
21.9901
18.4327
11.8959
12.0519
18.7821
22.462
22.3666
18.6457
12.0333
12.1938
19.0061
22.8553
22.7572
18.8684
12.1765
12.3414
19.2413
23.2681
23.1689
19.1016
12.3253
12.4953
19.4861
23.6976
23.5952
19.3447
12.4809
12.656
19.742
24.1479
24.0443
19.5985
12.6426
12.8234
20.0078
24.6155
24.5079
19.8624
12.8114
12.998
20.2841
25.1037
24.994
20.1357
12.9873
13.1802
20.5676
25.6075
25.4922
20.416
13.1713
13.3706
20.8569
26.1299
26.0114
20.7004
13.3635
13.5702
21.1462
26.6652
26.5388
20.9835
13.5657
13.7803
21.43
27.2152
27.0832
21.2581
13.779
14.0046
21.6987
27.7742
27.6321
21.5156
14.0096
14.2508
21.9477
28.352
28.2058
21.751
14.2674
14.5366
22.1772
28.9588
28.809
21.9692
14.5754
14.8928
22.4029
29.6252
29.4824
22.1855
14.9863
15.3644
22.6556
30.3892
30.2353
22.4488
15.5037
15.8572
23.1011
31.3489
31.1508
22.8494
15.9336
16.3221
23.599
32.2301
32.0358
23.2964
16.2928
16.5765
24.0728
33.2194
32.9674
23.7255
16.5222
16.7444
24.3759
34.1088
33.9234
24.1431
16.7563
16.9844
24.6658
35.1161
34.9683
24.3705
16.9951
17.155
25.0148
36.206
36.0708
24.9135
17.151
17.2736
25.4621
37.3675
37.2522
25.1649
17.2382
17.3385
25.5719
38.4939
38.3911
25.3208
17.324
17.4027
25.7626
39.702
39.6714
25.5907
17.4051
17.583
26.1255
41.174
41.1816
25.9679
17.6927
18.0888
26.5769
42.9103
43.0955
26.625
18.5205
19.6375
28.228
45.247
45.8837
28.8771
20.929
22.3445
32.8459
48.7074
49.4534
36.0846
23.147
18.5616
19.6104
26.953
44.9088
27.14
19.4569
19.9311
27.5709
45.3513
51.5437
31.2046
22.1155
25.4758
32.4064
55.1799
71.0117
39.3506
31.5996
36.3025
52.5181
86.3233
97.9355
71.8642
42.3649
43.5777
74.665
103.383
112.624
86.5828
46.7211
48.4627
90.9723
118.477
121.289
93.3108
49.36
48.2353
88.7025
115.006
125.815
96.3652
52.6158
55.6518
102.662
131.236
138.43
109.58
58.9366
61.9123
115.727
145.382
149.733
120.974
65.8077
70.5878
133.814
162.35
170.195
141.329
73.8135
76.8097
150.179
178.109
176.07
147.973
75.668
77.8146
154.272
182.567
188.189
158.6
79.9304
83.2252
166.728
195.244
192.25
165.328
82.9223
87.7729
173.568
201.039
212.312
186.094
96.1015
103.284
197.941
223.942
231.304
207.275
109.603
114.229
213.237
235.071
246.67
225.56
124.9
138.986
241.506
259.295
269.393
256.105
148.492
161.344
266.938
275.213
276.939
275.913
178.284
194.162
282.091
278.118
272.172
287.013
205.772
217.451
290.119
265.681
275.506
299.072
222.76
218.833
312.698
277.255
300.74
313.541
212.223
205.164
288.935
302.167
299.612
262.489
200.012
191.996
234.042
288.723
247.475
202.62
181.76
167.204
191.614
248.47
239.739
182.739
153.408
137.602
161.799
205.409
212.353
162.708
123.896
110.797
154.235
197.608
187.238
145.37
99.9151
88.1881
131.378
166.159
175.608
135.313
79.3306
71.4685
133.455
166.37
160.522
126.843
65.8668
58.4228
120.168
145.492
155.643
125.589
56.2988
57.8702
123.696
148.304
169.893
135.282
61.8648
63.2659
136.57
169.034
166.656
135.723
61.1638
57.7973
130.714
154.522
164.765
136.752
60.457
61.1054
138.191
159.825
155.534
133.208
58.3769
56.1993
125.912
144.84
150.368
129.524
59.3205
60.5203
130.875
149.589
144.481
125.993
58.7286
56.4946
118.771
140.774
129.846
108.452
53.8687
56.1027
114.105
136.843
130.618
107.219
54.1231
51.922
99.5429
121.698
100.806
62.9194
45.9016
44.5501
62.499
110.04
98.9659
55.6806
40.634
35.8306
48.3929
81.8003
77.7999
46.0203
32.7915
27.9308
33.1948
49.5396
75.842
58.6683
37.5011
36.4757
55.5014
73.6559
63.3023
45.7966
34.8396
32.6794
41.7112
59.3438
37.8709
29.9815
29.638
35.1961
48.762
62.9623
58.8145
43.0897
34.2536
32.9873
38.8635
54.1214
34.8896
29.3794
30.691
34.9044
44.6354
57.1943
52.6423
38.9236
34.1534
33.2624
35.4389
47.2563
31.2503
27.6598
31.4981
33.7558
38.9475
51.2435
48.1757
36.2993
33.8038
33.3875
31.6325
40.532
37.818
29.583
31.7618
30.7773
24.4369
26.029
43.1838
33.2361
31.6466
31.7905
30.4312
38.9932
34.9477
28.1542
31.1985
31.0564
23.7615
24.581
39.486
30.5713
30.877
30.9071
27.7994
35.6196
32.4608
25.9634
30.8487
31.4349
22.733
23.1715
37.1558
29.0201
30.5851
31.3764
27.0047
33.6796
30.3536
25.0977
31.395
32.3999
22.3408
22.3587
34.1895
27.1292
29.8578
30.2189
25.0416
30.9888
28.4041
23.472
30.8048
32.7326
21.2303
21.2773
32.6065
26.0207
29.5895
30.228
24.3698
29.7937
27.0585
23.0422
31.275
33.6227
21.0664
20.8568
30.1218
24.4916
29.1801
30.2404
23.2562
28.4899
21.0974
21.5622
32.4063
29.6471
25.4685
31.6922
28.4711
23.6749
30.3975
31.678
22.6807
25.9173
20.7095
21.4586
34.0511
29.8363
24.2428
29.169
26.5782
22.5596
30.7782
32.4185
22.1099
24.5786
20.2792
21.3428
35.2424
29.4495
22.255
25.9191
24.8141
21.6552
30.6063
33.4624
20.9105
19.9192
26.735
22.5789
29.2603
30.7076
21.2179
23.8352
22.4681
21.192
32.6913
36.1072
20.9958
19.4427
23.4242
20.8721
29.7002
31.0136
20.59
22.6811
18.8885
20.3377
34.0795
28.9529
21.102
24.4806
22.3118
20.1069
30.2779
32.7401
20.282
21.1334
18.8861
20.7598
36.8201
30.2049
20.2883
22.3003
21.6204
20.1634
31.9276
35.381
20.5615
18.5235
23.1461
20.5256
29.7252
31.328
19.8702
21.1473
20.1177
19.6173
33.933
38.2743
21.4175
18.3938
20.289
19.4018
30.6205
32.4837
18.6935
19.4422
17.7881
21.3192
36.2859
29.8669
19.2075
20.2153
19.1449
18.7927
31.746
34.8234
18.4941
18.445
17.559
21.9205
39.5671
31.2353
18.605
18.8584
18.1326
17.9826
33.2895
37.3745
21.7181
17.216
19.2262
18.7724
30.4699
33.1566
18.2268
18.3725
17.5592
22.144
37.806
30.8859
18.7431
18.9923
18.2716
18.3017
33.4197
37.6982
21.9746
17.4819
19.2772
18.9055
30.8686
33.2751
18.8559
18.7253
17.4037
18.6512
37.054
42.4139
23.6307
17.4805
18.1083
18.3868
33.3038
35.9915
17.9286
16.9009
17.036
23.6823
40.7489
32.563
18.0683
17.6738
16.6779
17.7293
35.6233
40.8348
23.4487
16.9036
17.8216
18.1545
32.7324
35.777
17.8597
16.79
17.0049
23.6235
40.9299
32.7321
18.0252
17.6988
17.2522
18.3546
35.4518
39.7853
18.5889
16.3863
17.0319
26.1441
45.0389
35.2175
18.2317
17.4282
16.3687
17.885
38.5071
44.1922
24.9667
16.9528
17.5279
18.1945
34.6731
38.029
17.9551
16.4251
17.0672
25.3648
43.7797
34.96
18.2274
17.4318
16.428
18.1446
38.7533
44.9203
25.888
17.1878
17.6804
18.5077
35.6993
39.4029
18.3354
16.5552
17.3396
26.2752
45.4623
35.9995
18.4915
17.5731
16.5346
18.4262
39.7771
46.2712
26.7004
17.4105
17.6052
18.6
36.8281
40.2995
19.3092
16.8808
16.1764
19.7826
45.0928
51.1331
29.8936
17.7171
16.9794
18.5786
39.2886
43.3846
18.3451
16.0029
17.451
28.0869
50.4656
38.8853
18.2217
16.7992
15.798
18.174
43.0194
49.7995
28.4485
17.2394
16.7575
18.2214
38.7846
43.2204
18.3142
15.8754
17.4861
28.681
50.5759
39.3419
18.3767
16.8502
15.8942
18.3589
43.8097
51.2273
29.0736
17.4666
16.8812
18.4144
39.7441
44.3295
18.5948
16.0153
17.7658
29.5795
52.1454
40.6066
18.7148
17.0752
16.2024
18.8238
45.2436
53.0283
30.1382
17.9517
17.272
18.9249
41.1739
45.9842
19.1278
16.4187
18.3328
30.8522
54.1226
42.1225
19.2852
17.4912
16.6231
19.3687
46.9494
55.197
31.225
18.5217
17.7191
19.4717
42.7324
47.6019
19.7041
16.8529
18.7264
31.637
56.011
43.5639
19.7573
17.9489
17.2631
20.7166
47.6181
53.9478
22.0675
16.6766
19.9623
35.3733
62.6747
47.3627
20.6586
18.257
17.3542
20.636
52.5991
61.3021
34.6212
19.8424
18.4664
20.6112
47.0235
52.5554
20.842
17.5521
20.1594
34.6273
61.8513
47.3878
20.8129
18.6811
17.7295
21.0867
52.8724
62.01
35.1787
20.2951
18.831
21.025
47.8301
53.3967
21.2504
17.9328
20.6863
35.6095
63.1492
48.4896
21.3589
19.1184
18.2149
21.7505
54.326
64.1804
36.4773
20.9858
19.3416
21.7158
49.3111
55.1207
21.9559
18.4322
21.3226
36.8236
65.2656
50.2591
21.9735
19.5998
18.7029
22.3432
56.2249
66.3637
37.6211
21.6719
19.8952
22.3588
51.0452
57.0276
22.628
18.9985
22.1471
38.1843
67.3933
51.7667
22.6684
20.1645
19.2864
23.0673
57.9255
68.6749
38.981
22.5052
20.4184
23.0795
52.7439
58.876
23.3087
19.5194
22.669
39.1587
69.7353
53.5321
23.2307
20.6162
19.8327
24.8348
58.8276
66.8138
26.8596
19.3419
24.9651
45.5312
77.1806
58.8128
24.478
20.659
19.6837
24.44
65.6341
77.7787
42.4658
24.237
20.4334
23.7685
58.5427
65.4471
24.28
19.5132
24.1197
43.5021
76.8713
58.5652
24.0328
20.4872
19.6401
24.419
65.6108
77.9821
43.1151
24.2625
20.6765
24.0955
59.0452
66.1844
24.5914
19.8255
24.4364
43.9281
78.3825
59.8051
24.4481
20.9161
20.0354
24.7383
66.9727
79.9854
44.1437
24.6405
21.1941
24.6974
60.5821
67.9195
25.3036
20.4174
25.1041
45.0855
80.6752
61.6195
25.2513
21.6058
20.768
25.6056
68.9317
82.034
45.1007
25.1083
21.9845
25.4495
62.3414
68.3594
27.3439
21.1191
20.6871
29.8414
77.8349
90.8528
52.3933
28.0399
22.4035
27.1613
68.0101
75.9732
27.2976
21.4868
27.3352
49.6533
90.2492
67.7427
26.9018
22.6157
21.7905
27.4953
75.7638
89.5529
50.1572
27.5178
22.9081
27.2612
67.7796
75.8929
27.7767
22.1312
27.8029
50.1793
90.3527
68.366
27.4944
23.2462
22.4636
28.1508
76.5304
91.4367
51.0874
28.163
23.6184
28.07
70.0193
77.0205
30.4644
22.667
22.2083
32.9286
87.4608
103.126
57.3884
31.0369
23.9739
29.6405
76.3499
85.1883
29.9765
23.0343
29.9686
55.5493
100.444
75.5303
29.3015
24.1325
23.2297
29.5715
84.3492
100.776
54.9082
29.7027
24.3888
29.309
75.5387
82.9387
31.8255
23.3336
22.9884
34.7958
94.3013
109.759
63.0666
32.8727
25.0657
31.3255
81.6632
90.9341
31.5404
24.0309
31.828
58.854
108.127
80.6426
30.8456
25.2812
24.3986
31.7734
90.3438
107.157
59.2735
31.8281
25.633
31.2674
81.0512
89.489
34.3335
24.5921
24.1485
36.981
101.579
119.873
66.0037
35.1266
26.2517
33.0721
88.2055
98.2977
33.4088
25.2291
33.8749
63.6005
115.753
86.6425
32.6482
26.3914
25.389
33.0309
96.7685
115.538
62.1496
33.1506
26.5091
32.3686
85.7435
94.0802
35.1584
25.3692
25.0532
38.9077
107.308
126.53
70.734
36.8341
27.4604
34.8242
93.0203
103.495
35.1379
26.4231
35.3495
66.4269
122.284
90.9954
34.0701
27.5013
26.5688
37.5912
99.8384
113.452
41.186
26.3141
39.338
75.8958
133.681
99.3217
36.8276
28.7989
27.677
36.7451
110.436
131.31
70.1589
37.5333
28.3222
35.463
96.6821
105.692
38.6193
27.2151
26.9493
42.7399
119.762
139.971
78.5165
40.3668
29.3754
37.8949
103.413
114.022
41.7385
28.3941
27.8864
43.8191
128.091
151.219
81.8632
42.6508
29.9232
39.0388
109.928
121.987
39.3944
28.8216
40.0211
76.5755
143.122
105.461
37.8807
29.8266
28.5178
40.9619
115.023
130.268
44.6533
28.1334
42.134
83.786
152.701
110.43
39.5567
30.6467
29.6747
43.3189
121.331
137.502
47.5784
29.4178
44.8839
88.1752
161.043
117.199
41.3485
31.5672
30.3652
44.4998
127.63
143.229
47.912
30.0037
45.9926
90.2679
166.376
119.622
41.7638
31.7161
30.9485
45.7968
131.234
148.239
50.2197
30.729
47.8657
94.5425
173.786
126.343
43.6067
32.7275
31.2782
44.2292
138.339
153.467
56.3756
31.9785
31.099
56.5238
168.855
193.464
103.019
51.2265
32.9088
44.8536
136.297
149.726
49.4342
32.0553
31.6837
53.3237
167.663
193.819
102.897
50.7334
33.9264
46.2791
138.717
149.491
45.4202
31.8478
32.3211
57.4713
167.483
180.758
54.9439
31.2731
52.5805
110.715
210.428
148.37
47.8034
34.3427
32.4718
46.5135
160.92
176.116
61.0353
33.6005
32.9013
62.7617
192.681
219.511
115.427
56.1974
35.6547
49.5692
152.86
169.117
52.4213
34.3503
34.0976
58.7679
186.57
204.924
66.819
34.5256
32.8222
64.2396
218.571
245.699
120.243
56.6732
34.7812
49.201
163.496
178.458
51.876
33.4771
32.3707
53.6674
195.022
211.703
62.5598
32.2178
31.2141
61.1641
224.705
237.939
76.0755
34.1085
32.4317
74.5611
249.802
273.504
142.088
62.3285
36.201
54.6788
181.82
190.336
52.5218
34.3838
34.2626
64.8592
208.831
224.418
65.3603
33.4765
32.8453
66.0945
236.979
245.134
68.2173
32.3719
32.3695
73.4925
250.793
249.912
70.5961
31.3479
32.3277
78.4087
247.316
241.015
79.1177
32.0846
33.1799
84.7932
230.878
219.372
86.2397
33.0678
34.7056
92.941
208.295
197.372
94.9277
34.7031
36.9534
102.402
187.667
178.552
104.236
37.1048
40.0084
111.142
170.683
163.408
112.925
40.4041
43.8428
118.686
157.099
151.452
121.52
44.383
48.587
125.316
146.423
142.091
128.637
49.3808
54.3025
130.967
138.122
134.809
133.977
55.1107
60.404
135.887
131.703
129.233
138.471
61.3024
66.6724
140.122
126.761
125.025
142.407
67.578
73.1471
143.845
122.999
121.929
145.8
74.1456
79.8444
146.963
120.278
119.713
148.543
80.7165
86.286
149.522
118.404
118.14
150.837
87.074
92.3669
151.612
117.163
117.088
152.669
92.9667
97.9883
153.31
116.4
116.446
154.169
98.483
103.152
154.649
115.973
116.094
155.316
103.449
107.767
155.709
115.767
115.946
156.246
107.942
111.874
156.519
115.721
115.942
156.943
111.87
115.411
157.132
115.76
116.057
157.506
115.331
118.476
157.545
115.895
116.232
157.86
118.283
121.121
157.826
116.076
116.434
158.097
120.871
123.374
158.011
116.287
116.653
158.228
123.038
125.287
158.106
116.51
116.887
158.3
124.916
126.901
158.129
116.743
117.132
158.29
126.458
128.24
158.103
116.992
117.375
158.245
127.783
129.357
158.03
117.24
117.617
158.141
128.856
130.284
157.916
117.48
117.853
158.021
129.784
131.053
157.773
117.724
118.088
157.85
130.521
131.674
157.605
117.956
118.321
157.698
131.158
132.193
157.418
118.179
118.562
157.513
131.624
132.586
157.261
118.427
118.785
157.353
132.063
132.918
157.091
118.662
119.012
157.164
132.385
133.192
156.904
118.884
119.232
156.991
132.679
133.422
156.725
119.105
119.454
156.807
132.899
133.602
156.54
119.324
119.68
156.641
133.105
133.763
156.368
119.546
119.887
156.467
133.24
133.868
156.21
119.763
120.089
156.305
133.353
133.933
156.05
119.973
120.301
156.139
133.404
133.949
155.885
120.183
120.518
155.985
133.428
133.922
155.719
120.398
120.727
155.807
133.362
133.82
155.545
120.608
120.927
155.631
133.266
133.695
155.365
120.81
121.121
155.438
133.129
133.542
155.177
121.003
121.309
155.251
132.984
133.367
154.982
121.188
121.482
155.045
132.785
133.155
154.78
121.358
121.64
154.843
132.582
132.933
154.571
121.514
121.783
154.623
132.347
132.696
154.355
121.654
121.91
154.413
132.129
132.468
154.137
121.779
122.023
154.189
131.892
132.232
153.918
121.89
122.125
153.979
131.673
132
153.703
121.993
122.22
153.761
131.428
131.757
153.492
122.089
122.311
153.56
131.202
131.52
153.289
122.181
122.397
153.354
130.955
131.277
153.093
122.267
122.477
153.167
130.728
131.041
152.905
122.347
122.549
152.975
130.485
130.806
152.723
122.418
122.613
152.802
130.27
130.585
152.551
122.48
122.668
152.626
130.042
130.369
152.385
122.533
122.715
152.47
129.848
130.17
152.229
122.579
122.756
152.31
129.643
129.975
152.079
122.62
122.793
152.17
129.465
129.79
151.937
122.658
122.828
152.025
129.27
129.604
151.801
122.692
122.86
151.899
129.104
129.434
151.674
122.725
122.89
151.768
128.927
129.269
151.552
122.755
122.919
151.654
128.779
129.111
151.435
122.784
122.945
151.533
128.608
128.947
151.321
122.809
122.97
151.428
128.459
128.792
151.215
122.834
122.992
151.318
128.297
128.647
151.114
122.854
123.011
151.226
128.175
128.522
151.019
122.873
123.027
151.124
128.04
128.392
150.923
122.888
123.041
151.036
127.919
128.256
150.831
122.903
123.054
150.939
127.767
128.117
150.744
122.915
123.065
150.862
127.653
128.008
150.666
122.925
123.073
150.779
127.544
127.914
150.588
122.932
123.079
150.707
127.462
127.813
150.51
122.938
123.084
150.621
127.335
127.685
150.431
122.943
123.088
150.552
127.221
127.572
150.362
122.947
123.091
150.48
127.11
127.486
150.298
122.95
123.094
150.424
127.05
127.42
150.237
122.953
123.095
150.354
126.966
127.333
150.171
122.954
123.097
150.294
126.882
127.232
150.107
122.957
123.099
150.224
126.766
127.13
150.045
122.96
123.103
150.174
126.686
127.052
149.995
122.965
123.108
150.119
126.61
126.997
149.946
122.97
123.113
150.076
126.576
126.95
149.896
122.976
123.118
150.015
126.501
126.862
149.838
122.982
123.125
149.965
126.405
126.751
149.788
122.99
123.134
149.914
126.294
126.682
149.749
122.999
123.143
149.887
126.277
126.681
149.715
123.007
123.149
149.84
126.262
126.641
149.666
123.013
123.155
149.793
126.187
126.517
149.615
123.021
123.164
149.742
126.039
126.409
149.581
123.031
123.175
149.724
126.004
126.423
149.563
123.043
123.187
149.695
126.032
126.439
149.53
123.055
123.201
149.659
126.004
126.334
149.485
123.074
123.224
149.61
125.844
126.193
149.453
123.101
123.26
149.597
125.769
126.181
149.446
123.14
123.305
149.583
125.795
126.218
149.432
123.189
123.367
149.562
125.805
126.128
149.403
123.254
123.492
149.522
125.645
125.952
149.359
123.387
123.69
149.434
125.468
125.602
149.493
123.618
124.093
149.448
124.984
124.01
149.324
124.585
125.906
148.468
123.401
118.462
147.202
128.095
129.773
145.334
114.539
106.817
143.677
131.908
71.3449
56.2725
57.9109
68.8085
82.4868
89.4801
104.104
120.632
127.04
131.865
134.688
136.131
136.698
136.76
136.564
136.264
135.94
135.632
135.358
135.12
134.918
134.749
134.608
134.493
134.4
134.328
134.275
134.24
134.219
134.21
134.208
134.204
134.197
134.187
134.174
134.159
134.141
134.12
134.096
134.07
134.041
134.01
133.977
133.941
133.902
133.862
133.819
133.774
133.727
133.677
133.617
133.531
133.4
133.231
133.049
132.873
132.721
132.603
132.525
132.49
132.486
132.514
132.568
132.641
132.725
132.813
132.901
132.988
133.072
133.155
133.236
133.318
133.401
133.486
133.573
133.664
133.759
133.858
133.963
134.072
134.187
134.308
134.434
134.565
134.701
134.842
134.987
135.136
135.289
135.444
135.601
135.76
135.92
136.081
136.242
136.402
136.562
136.72
136.877
137.032
137.184
137.334
137.482
137.626
137.768
137.907
138.042
138.174
138.303
138.429
138.552
138.671
138.787
138.9
139.009
139.116
139.219
139.319
139.417
139.512
139.603
139.693
139.779
139.863
139.945
140.024
140.101
140.176
140.248
140.319
140.388
140.455
140.521
140.585
140.648
140.709
140.769
140.828
140.886
140.943
140.999
141.054
141.109
141.163
141.216
141.269
141.321
141.373
141.424
141.475
141.526
141.576
141.626
141.675
141.724
141.773
141.821
141.868
141.915
141.962
142.008
142.053
142.098
142.143
142.186
142.23
142.273
142.315
142.358
142.4
142.442
142.483
142.525
142.567
142.609
142.651
142.694
142.737
142.78
142.824
142.868
142.913
142.959
143.005
143.051
143.097
143.143
143.187
143.229
143.268
143.301
143.329
143.352
143.37
143.386
143.397
143.401
143.401
143.401
143.402
143.402
143.401
143.393
143.367
143.297
143.148
142.893
142.533
142.099
141.625
141.132
140.63
140.119
139.597
139.061
138.51
137.943
137.36
136.761
136.147
135.52
134.881
134.23
133.568
132.898
132.219
131.533
130.842
130.147
129.448
128.748
128.048
127.35
126.654
125.962
125.276
124.598
123.928
123.269
122.622
121.99
121.372
120.771
120.187
119.618
119.062
118.516
117.98
117.461
116.985
116.599
116.348
116.226
116.185
116.18
116.182
116.159
116.036
115.384
114.463
111.729
109.931
108.327
106.339
104.814
102.798
101.398
99.4318
98.1686
96.2767
95.1506
93.3386
92.3386
90.6088
89.7158
88.0694
87.2657
85.6987
84.973
83.481
82.8207
81.4031
80.7876
79.4462
78.8701
77.5963
77.055
75.8417
75.3314
74.1725
73.6901
72.581
72.1244
71.0617
70.629
69.6096
69.1989
68.2195
67.8287
66.8858
66.5129
65.6033
65.2466
64.367
64.0248
63.173
62.8438
62.0172
61.6996
60.8955
60.5881
59.8041
59.5055
58.7391
58.4479
57.6966
57.4115
56.6728
56.3925
55.6639
55.3872
54.6665
54.3921
53.6769
53.4036
52.6918
52.4184
51.7075
51.4328
50.7206
50.4433
49.7277
49.4467
48.7255
48.4397
47.7108
47.4191
46.6807
46.3822
45.6325
45.3265
44.564
44.2506
43.4765
43.1561
42.371
42.0442
41.2503
40.9187
40.1207
39.7869
38.9904
38.6586
37.869
37.5448
36.7725
36.4619
35.7173
35.427
34.7218
34.4598
33.809
33.5788
32.9892
32.7911
32.2628
32.0952
31.625
31.4801
31.0537
30.9226
30.5265
30.4063
30.0346
29.9236
29.5728
29.4706
29.1399
29.0464
28.7347
28.6508
28.3602
28.2855
28.0144
27.9489
27.6968
27.6386
27.4016
27.3498
27.1265
27.0806
26.87
26.8289
26.6286
26.5909
26.3986
26.3633
26.177
26.1431
25.9608
25.9273
25.7474
25.7133
25.534
25.4985
25.3185
25.2812
25.0995
25.0597
24.8754
24.8328
24.6453
24.5997
24.408
24.3601
24.1648
24.1094
23.9095
23.8543
23.6929
23.7013
23.6395
23.5291
23.5205
29.4969
34.8657
34.9428
29.5133
29.6615
35.0143
34.8753
29.6543
29.5331
34.2299
42.1945
40.3891
40.0146
39.7254
43.7878
43.9539
43.9995
48.7384
48.2477
47.7999
50.9704
51.3893
51.6424
51.1346
51.7303
42.7401
35.5554
29.9296
29.8257
34.6418
35.9526
30.2788
30.1763
35.0947
43.3876
44.0595
36.4178
30.6382
30.5246
35.5395
36.8839
30.9825
30.8659
35.9779
44.7179
45.3697
37.3457
31.3213
31.1978
36.4058
37.7983
31.6513
31.5201
36.8221
46.0154
46.6508
38.2391
31.972
31.8332
37.2253
38.6665
32.2836
32.1377
37.6158
47.2669
47.8634
39.0806
32.5874
32.4348
37.9942
39.4822
32.8844
32.7257
38.3608
48.4412
48.9987
39.8715
33.1764
33.0123
38.7167
40.2496
33.4655
33.2972
39.0635
49.5349
50.0495
40.6179
33.7544
33.583
39.4037
40.9792
34.0464
33.8732
39.7409
50.5439
51.0212
41.3372
34.3453
34.1721
40.0802
41.6973
34.6555
34.4837
40.427
51.4874
51.951
42.0654
34.9807
34.8116
40.7871
42.4477
35.3248
35.16
41.1681
52.4239
52.9205
42.8536
35.6945
35.5364
41.5799
43.2945
36.0969
35.9475
42.0346
53.4552
54.0373
43.7832
36.54
36.4015
42.5471
44.3352
37.0303
36.904
43.1363
54.6838
55.4397
44.9714
37.5737
37.4605
43.8188
45.7116
38.177
38.0779
44.5795
56.3131
57.3351
46.5787
38.8551
38.7717
45.4506
47.5753
39.6227
39.5574
46.4473
58.5144
59.8563
48.7069
40.4919
40.4472
47.576
49.974
41.4712
41.4484
48.8351
61.3523
62.979
51.3654
42.5616
42.5595
50.2132
52.8603
43.7596
43.7807
51.6873
64.7056
66.4832
54.4231
45.0479
45.0876
53.2263
56.0223
46.3993
46.4459
54.7976
68.273
70.0308
57.6232
47.7823
47.8268
56.3702
59.1963
49.1721
49.2081
57.9154
71.733
73.3478
60.7178
50.5497
50.5728
59.4144
62.1781
51.9011
51.9086
60.8583
74.8661
76.2895
63.5751
53.2196
53.213
62.2456
64.9111
54.5028
54.4847
63.5788
77.6268
78.8896
66.1921
55.7503
55.7219
64.8631
67.4263
56.9651
56.928
66.1046
80.0975
81.247
68.6213
58.1516
58.1072
67.3115
69.7854
59.313
59.2625
68.4896
82.3594
83.4383
70.9231
60.4536
60.398
69.644
72.0404
61.5769
61.5175
70.7795
84.4918
85.524
73.1414
62.687
62.6251
71.9002
74.2298
63.7877
63.7244
73.0102
86.5388
87.5384
75.3093
64.8824
64.8188
74.1129
76.3835
65.9743
65.9112
75.2065
88.5242
89.498
77.4545
67.067
67.0054
76.2975
78.5235
68.1638
68.105
77.3901
90.4613
91.4175
79.5939
69.2678
69.2132
78.4878
80.6693
70.3825
70.3329
79.5929
92.3737
93.3305
81.7516
71.5106
71.4669
80.7067
82.8419
72.6547
72.6182
81.8311
94.2872
95.2436
83.9419
73.8176
73.7897
82.9679
85.053
75.0024
74.9842
84.1188
96.1996
97.1552
86.1769
76.2116
76.2044
85.2864
87.3158
77.4487
77.4554
86.4729
98.1109
99.068
88.4717
78.7174
78.7418
87.6806
89.6467
80.0196
80.0633
88.9109
100.028
100.989
90.842
81.3578
81.4227
90.1657
92.0595
82.7347
82.8231
91.4428
101.95
102.909
93.3007
84.1545
84.268
92.7451
94.567
85.6204
85.7619
94.0769
103.865
104.813
95.8621
87.1365
87.3083
95.4447
97.196
88.7028
88.9044
96.8397
105.749
106.677
98.5542
90.3172
90.5485
98.2557
99.9283
91.98
92.2434
99.6912
107.6
108.513
101.317
93.6931
93.9914
101.144
102.717
95.4587
95.7951
102.613
109.413
110.297
104.128
97.2791
97.6578
104.094
105.543
99.157
99.5832
105.594
111.16
111.995
106.957
101.094
101.573
107.103
108.36
103.068
103.621
108.6
112.793
113.543
109.74
105.069
105.708
110.068
111.082
107.092
107.811
111.482
114.234
114.849
112.362
109.113
109.885
112.808
113.543
111.073
111.867
113.996
115.37
115.769
114.574
112.901
113.656
114.981
116.045
115.867
115.625
115.327
114.981
114.594
114.171
113.718
113.237
112.734
112.211
111.67
111.114
110.545
109.963
109.368
108.76
108.141
107.515
106.882
106.245
105.604
104.957
104.303
103.645
102.983
102.321
101.658
100.999
100.334
99.6464
98.9432
98.2292
97.5063
96.7748
96.0336
95.2797
94.5089
93.7135
92.8865
92.0121
91.0815
90.0758
88.978
87.7762
86.4652
85.0724
83.6012
81.9677
80.2578
78.5247
76.8447
75.2746
73.8602
72.6229
71.5576
70.6431
69.8451
69.1261