/*--------------------------------*- C++ -*----------------------------------*\
| =========                 |                                                 |
| \\      /  F ield         | OpenFOAM: The Open Source CFD Toolbox           |
|  \\    /   O peration     | Version:  v2006                                 |
|   \\  /    A nd           | Website:  www.openfoam.com                      |
|    \\/     M anipulation  |                                                 |
\*---------------------------------------------------------------------------*/
FoamFile
{
    version     2.0;
    format      ascii;
    class       volScalarField;
    location    "0.025";
    object      omega;
}
// * * * * * * * * * * * * * * * * * * * * * * * * * * * * * * * * * * * * * //

dimensions      [0 0 -1 0 0 0 0];


internalField   nonuniform List<scalar> 
12716
(
0.0109317
0.0109317
0.0109317
0.0109317
0.0109317
0.0109317
0.0109317
0.0109318
0.0109318
0.0109319
0.0109315
0.0109285
0.0109213
0.0109103
0.0108963
0.0108804
0.0108636
0.0108461
0.0108281
0.0108095
0.0107903
0.0107703
0.0107496
0.0107281
0.0107059
0.010683
0.0106594
0.0106353
0.0106105
0.0105853
0.0105597
0.0105337
0.0105075
0.0104813
0.0104555
0.0104307
0.010408
0.0103893
0.0103783
0.0103816
0.0104116
0.0104915
0.0106647
0.011012
0.0116837
0.0129577
0.015343
0.0197612
0.027858
0.0425314
0.0688267
0.115495
0.197834
0.342441
0.590334
0.962436
1.1671
1.66622
1.98769
2.02572
2.21793
4.65191
8.1105
12.8562
24.2639
57.6581
150.507
558.167
5103
28731.7
400561
396528
62066.9
14123.9
22580.3
81087.5
392697
385146
89027.8
28548.2
31913.1
90870.5
373089
362883
91644.2
34462.5
35864.5
91042.3
353763
345133
90236.1
37125.1
37568.4
89190.7
338858
332631
88827.4
38447.5
38504.3
87908.2
328403
323736
87667.7
39061.4
39042.8
86930.6
320658
316978
86816.9
39443.6
39397.3
86231.2
314582
311568
86194.2
39721.3
39660.4
85745.3
309598
307039
85756.6
39939.8
39870.4
85404.5
305349
303097
85444.8
40121.2
40045.7
85152.9
301603
299577
85210.4
40275.2
40194.6
84957.9
298225
296368
85026.6
40407.3
40322.7
84800.5
295118
293388
84876.4
40522
40434.2
84667.5
292216
290585
84747.8
40622.2
40531.6
84549.4
289472
287917
84632.1
40710
40617
84439.4
286849
285355
84523.1
40787.1
40692
84333.1
284320
282874
84416.9
40855.9
40758.4
84227.5
281864
280454
84310.7
40918.1
40817.2
84120
279462
278078
84201.9
40972.6
40868.5
84007.9
277097
275732
84087.9
41020
40913.2
83889.5
274757
273404
83967.1
41061.2
40952.3
83763.8
272429
271081
83839
41097.4
40986.8
83630.3
270102
268754
83702.8
41129.5
41017.7
83488.3
267766
266409
83557.6
41158.2
41045.5
83336.3
265407
264037
83402
41184.1
41070.6
83172.9
263016
261626
83234.5
41207.5
41093.4
82996.6
260582
259165
83053.7
41228.5
41113.9
82806.2
258094
256645
82858.5
41247.3
41132.5
82600.8
255542
254054
82647.9
41264.5
41149.7
82379.5
252913
251380
82421.1
41280.4
41165.9
82141.1
250196
248609
82176.6
41295.5
41181.5
81883.9
247376
245729
81912.5
41309.9
41196.4
81605.1
244441
242725
81625.9
41323.4
41210.2
81301.5
241376
239585
81313.4
41335.6
41222.5
80969.7
238170
236296
80971.6
41345.8
41232.8
80610.6
234809
232845
80598.1
41353.6
41240.3
80215.9
231280
229219
80186.9
41358
41243.8
79780.9
227573
225407
79733.2
41357.5
41241.6
79300.2
223675
221399
79231.1
41350
41231.1
78766.7
219578
217189
78672.9
41332.2
41208.5
78171.7
215278
212774
78048.8
41299.9
41168.5
77503.9
210775
208160
77346.8
41246.5
41097.5
76750.6
206080
203365
76546.5
41161.3
40985.1
75896.2
201217
198422
75626.7
41033.7
40823
74923.4
196228
193381
74579.7
40851.5
40593.7
73812.2
191171
188311
73384
40596.2
40290.5
72543.1
186129
183309
72024
40249.6
39875.1
71098.8
181208
178493
70484.4
39783.1
39326.7
69469.3
176537
174000
68762.2
39180.4
38634.4
67659.4
172255
169970
66871.2
38431.9
37793.5
65693.3
168496
166523
64845.2
37538
36818.1
63614.6
165362
163741
62735.3
36505
35731.7
61486.3
162911
161650
60619.5
35378
34576.7
59391
161133
160220
58584
34203.7
33405.7
57401.3
159953
159410
56713
33025.5
32277.8
55685.3
159339
159081
55167.3
31924.1
31225.5
54246.3
159095
158985
53841.1
30898.8
30252.7
53026.5
159074
159050
52722.6
29970.6
29385.6
52010.9
159192
159232
51794.8
29152.8
28631.8
51189.1
159439
159514
51035.5
28445.9
27986
50536.3
159763
159854
50435.1
27843.8
27438.2
50023.9
160117
160215
49965.4
27334.5
26975.8
49625.7
160477
160578
49602.3
26903.4
26586.7
49324.5
160833
160935
49329.2
26538.1
26264.1
49105.4
161181
161267
49131.3
26235.1
25996.9
48955.5
161493
161577
48993.8
25985.6
25778.2
48850.6
161792
161870
48901.8
25780
25599.9
48787.8
162068
162141
48848.7
25610.4
25451.7
48756.2
162326
162394
48824.8
25469.5
25328.6
48743.9
162565
162627
48822.5
25351.2
25227.3
48751.5
162786
162843
48839.4
25253.5
25144.3
48775.7
162989
163039
48873
25173.8
25076.4
48811.7
163173
163216
48914.2
25109.6
25020.2
48854.4
163335
163372
48960
25057.9
24971.3
48900.9
163480
163511
49008.7
25015.7
24931.1
48950.2
163606
163630
49059.4
24980.5
24897.5
49001.2
163712
163729
49111.1
24949.8
24868.8
49052.8
163796
163807
49162.8
24923.7
24844.4
49104.5
163859
163862
49214.3
24902.6
24820
49150.5
163898
163927
49266.8
24884
24807.2
49226.8
163878
164047
49325.2
24878.1
24713.2
49092.2
163396
162759
49125
24628.7
24266.5
48309.3
160226
159232
47835.9
23957.4
24070.5
48018.2
157408
156149
46625.1
23275.5
23014.4
46044.2
153285
10819.5
6905.02
5245.69
4345.12
3883.62
3523.23
3297.65
3144.5
3056.15
3013.95
3015.22
3059.5
3146.96
3288.96
3485.17
3767.24
4130.88
4662.41
5216.09
6134.59
7897.36
10472.7
12770.1
22284.3
57158.8
106190
328579
524697
119277
66835.1
151992
338481
888397
675508
178546
81404.7
88005.5
194137
602085
599128
182259
82862.1
87939.9
194474
604107
611818
189989
86298.4
89990.6
199011
617293
625434
192997
88061.1
90609.8
200254
630386
631707
195205
88215.9
90801.1
201255
631359
632410
195369
88355.1
90582.5
200634
632054
633102
195257
88280.5
90512.4
200500
632771
633805
195121
88213.7
90433.5
200384
633472
634547
194986
88130.1
90354.4
200240
634222
635309
194842
88061.1
90279
200115
634992
636104
194692
87982.3
90201.3
199961
635795
636922
194534
87911.8
90126.4
199814
636622
637770
194369
87837
90053.4
199653
637475
638642
194202
87770.4
89981.7
199493
638357
639544
194026
87700.4
89914.9
199326
639264
640473
193851
87640.9
89850.5
199159
640203
641433
193668
87579
89791.8
198985
641169
642423
193487
87527.8
89735.6
198811
642169
643446
193297
87474.9
89686.5
198632
643199
644503
193111
87434.5
89642
198455
644269
645600
192920
87394.3
89606
198277
645373
646735
192735
87367.4
89575.2
198102
646518
647910
192546
87341.8
89554.5
197927
647701
649128
192365
87331.6
89541.4
197760
648933
650394
192186
87324.5
89539.7
197597
650211
651711
192018
87333.4
89545.8
197445
651539
653078
191856
87346.1
89564.8
197302
652916
654499
191710
87376.6
89593.6
197176
654354
655982
191576
87412.6
89636.8
197067
655848
657526
191466
87467
89689.7
196981
657405
659131
191375
87526.7
89756.6
196920
659022
660803
191312
87603.3
89830.2
196885
660710
662546
191272
87680.3
89912
196877
662473
664373
191258
87768.9
89998.2
196896
664326
666296
191266
87859.4
90096.4
196941
666280
668345
191295
87965
90199.6
197014
668388
670590
191351
88063.8
90288
197131
670739
673188
191428
88119.8
90278.9
197241
673539
676416
191369
88013.2
90053.3
197061
677263
680680
190708
87661
89521
195879
681928
685099
188139
86403.7
88459.9
194600
679061
682528
183764
85343.4
87372.3
191231
682332
678353
179981
83813.7
85960.2
186645
671439
660873
176130
82841.4
84392.3
179804
654869
650409
172096
81234.2
82799.9
176112
644701
634544
169340
79835.5
80768.1
169425
617852
608248
159704
77767
78978
163730
598111
588338
155657
76819.6
77793.3
158604
578646
565378
151637
75729.8
76473.9
153142
551566
536303
146522
75207
76730.7
147649
524711
516483
147543
76889.9
79380.4
148468
503287
497000
149311
79985.7
83456.7
152922
481048
450535
147134
84443.9
89538.7
142945
632732
937587
366233
168823
96159.2
179351
699421
620564
190148
99754.4
98628.2
179743
596535
594296
185289
100251
94434.7
187199
614066
386477
183029
64779.4
49667.1
91815
287358
255799
95369.3
47829.7
41800.9
76457.5
239005
233113
72775.4
40524.8
42666.9
77219.6
247125
260325
94426.5
53540.8
46093.7
89134.7
256422
248423
83768.7
45236.1
44066.1
82474.1
242056
242498
82340.2
43589.8
44584.4
83559.9
240241
239857
77095.7
40001.7
39939.6
75251.1
238714
255128
76164.6
39891.7
49329.9
89758.7
272829
289345
91123.4
49318.7
53580.7
96904.3
298667
320190
97739.2
53677
66521.3
114031
342544
355828
113861
63932.3
59645.9
108860
357588
358992
105875
56827.6
58318.8
106155
374883
379684
111079
63463.8
55143.5
105748
382494
373003
96274.3
46519.3
42427.5
85503
384020
375052
76129.5
40053.1
34832.1
67186.4
372084
354292
61975.8
35106.7
34449.6
58812.8
357994
335839
60247.9
35080
39933.8
65205.9
368680
406550
98623.8
51270.7
44602.3
120983
445072
546595
300812
117134
134842
343824
557061
595119
380819
149902
240067
423150
588236
577377
406073
213043
210812
401414
540211
527754
408437
268104
219960
380463
487968
457299
360894
221163
227336
361397
447016
439524
364224
264438
213807
334054
403787
376844
314485
209188
209223
310140
372864
361413
311338
234795
187591
281405
338204
310172
269794
193177
136645
225699
284109
263094
203207
121143
115308
190304
260604
256012
191172
129515
100830
167719
252103
245492
156816
98245.7
99594.2
158913
255559
266047
166025
115570
94731.5
148319
267863
258708
139086
90341.3
91567.3
139801
267496
289272
147584
93425.7
109946
161484
312147
313400
142106
89199.1
90525.1
146238
311996
366278
157387
100553
146904
314539
577214
757999
247629
118182
126206
243490
564841
622132
259171
145423
144492
255562
718198
948714
439625
231130
134056
195151
715614
532440
191367
129054
135303
232500
603946
732502
240652
137230
233288
453661
1.01886e+06
749258
192823
130393
129600
206731
560772
678019
220815
131766
223253
439622
951429
707046
182825
123761
124721
201455
541110
668572
222626
129357
223459
436830
947848
695188
184768
122566
120444
187469
532121
617976
229217
127930
127894
231230
739382
1.03252e+06
466645
228546
123944
189505
725570
551642
199470
123608
129039
224017
688602
1.00944e+06
463931
231314
126467
192368
728095
556740
207977
129071
130836
223221
695131
1.00068e+06
461757
229673
122583
186656
703141
542879
197587
121796
126950
219483
685503
1.01485e+06
469387
231963
125898
193116
716325
548298
206409
128297
130906
222703
693611
1.02309e+06
464442
234171
124731
190256
708180
542147
199222
124110
129783
227822
692099
1.04826e+06
476822
239694
128580
195783
736181
592803
198316
125749
216445
414509
881348
641021
178600
119028
120725
191232
504046
651371
218304
128818
233751
462086
983640
686429
190508
126138
125135
198525
531183
679727
223351
130591
240910
484428
1.02592e+06
724207
197626
130801
131164
205697
596455
909034
434341
230221
127096
188594
663265
527195
200768
127664
132974
224871
686480
1.03756e+06
488864
243332
132561
200384
724827
594379
206335
132487
230855
432137
900032
645233
188926
128071
126810
196206
507904
660724
224867
133902
245511
478804
1.01308e+06
720274
200343
133836
133994
208475
599399
916302
439291
234521
130730
193122
664982
532017
206213
132415
138926
232514
699966
1.06782e+06
497043
255562
139363
208575
742644
612325
214198
138379
240223
450597
936326
670541
196402
133474
133306
205442
532685
704229
236492
141798
264850
512140
1.09223e+06
766256
215128
144328
143806
221682
636649
986724
475656
253604
140733
204935
715705
605415
214530
141433
248299
460602
943461
693234
202038
140348
142332
215852
588374
907290
445329
243527
137965
200479
664765
540919
214405
139585
146825
241959
723427
1.1105e+06
521752
269873
148742
220717
776863
650644
228269
148498
261887
490150
1.00526e+06
734572
214444
147851
148370
224279
627817
976114
475092
258335
145986
210301
710721
608407
221180
147256
251986
460310
938308
669848
206503
142802
141753
215641
542432
723248
248197
151472
278392
545965
1.1151e+06
793350
228995
154537
154669
236480
670397
1.04358e+06
505866
274610
153657
222180
756008
644160
232332
154813
270210
495286
1.00157e+06
736079
219535
153504
155165
232398
636071
996053
492319
269363
152637
219115
731926
631281
229944
153962
266902
487623
981205
721060
217595
152740
154836
230446
624208
969817
482698
265603
152067
219785
707357
582076
232684
153347
162265
265881
780159
1.20467e+06
592314
299958
167010
247402
845149
715752
254786
167160
296813
542490
1.11762e+06
813326
241742
168018
168744
252493
698898
1.09434e+06
541350
293861
167062
239303
794721
686712
252073
168979
294771
534339
1.08114e+06
794004
240340
168481
169445
251157
686458
1.07246e+06
533234
292386
167149
237971
781352
679504
251366
169047
292842
529867
1.06801e+06
780254
239447
168152
169460
251353
677836
1.05667e+06
528426
291459
167177
237399
773569
675636
250728
169223
292198
529303
1.05509e+06
777202
240069
168485
169794
250903
676400
1.0463e+06
523990
291033
167075
237003
761349
664454
249823
168784
284941
512143
1.01948e+06
732128
234809
164318
162760
243769
606799
812036
285331
174861
323709
615687
1.25636e+06
886268
267050
180955
181342
276893
760644
1.17759e+06
589712
320599
180894
260271
854254
745684
273366
182286
319405
577975
1.16511e+06
849390
260353
182767
184813
274448
742364
1.15444e+06
579096
320023
182451
259671
840969
736230
272347
184039
318909
576298
1.15101e+06
839975
260504
183438
185680
275404
737109
1.15321e+06
580440
320747
183305
261510
839258
733893
274374
184987
318832
574365
1.1392e+06
834599
260687
184062
186408
275046
734840
1.14094e+06
575962
320830
184059
260782
829987
728305
273714
185824
319054
572383
1.12933e+06
826871
260814
184679
187085
275057
728674
1.13028e+06
573800
320215
183874
261340
821289
718606
272975
185360
311827
557157
1.09649e+06
786313
257197
180421
180252
269521
661022
891425
317764
195556
361794
699195
1.3747e+06
979242
300731
202712
202107
308828
846030
1.30071e+06
644080
355679
202748
290972
939314
824791
306859
204816
356236
650599
1.28168e+06
932234
293797
205673
206793
307084
818018
1.27087e+06
635976
356556
204899
290629
920127
810863
305461
207075
354718
635640
1.25609e+06
915221
291182
204885
205888
302748
807163
1.24665e+06
627222
351968
202566
287242
896941
792677
302720
204815
349109
622014
1.22425e+06
888838
286622
202065
203176
298175
782682
1.18509e+06
599382
338882
195093
277854
838840
705212
288690
194143
208710
337961
942189
1.44285e+06
731437
382727
214240
316231
1.00472e+06
868168
325267
213564
374561
672106
1.3269e+06
958632
305148
213203
215639
320641
845071
1.29671e+06
663983
372212
211637
302013
940608
831377
316279
213454
364895
648491
1.27236e+06
919991
297718
210074
212725
312504
817707
1.24829e+06
640138
360314
207530
297607
899792
760949
311854
209092
220991
359063
1.00635e+06
1.51897e+06
757955
402407
225189
332370
1.05386e+06
918766
344790
225381
394035
711745
1.39964e+06
1.00249e+06
323019
224194
224544
332945
880634
1.33288e+06
677050
381269
215904
310624
937058
786082
322916
215767
230699
374278
1.03824e+06
1.5624e+06
801318
420907
234031
347434
1.08512e+06
943389
356019
232919
406561
724118
1.43165e+06
1.02389e+06
329655
229987
232742
347616
909409
1.3911e+06
709210
398349
226506
327376
993990
836123
343758
228713
240362
391817
1.09745e+06
1.64141e+06
821606
438605
243327
360124
1.1336e+06
987428
371721
243059
424035
762552
1.49272e+06
1.06628e+06
345608
239529
239675
356303
935926
1.39991e+06
711139
403478
226769
326411
976065
819824
338230
226418
241325
392030
1.0732e+06
1.60478e+06
813717
437108
241965
357412
1.10071e+06
959507
366324
241032
410758
729052
1.42242e+06
991434
333284
230637
231231
348422
839637
1.1142e+06
401738
248110
455434
855704
1.67722e+06
1.16179e+06
373657
250131
247674
379125
1.00164e+06
1.47232e+06
753481
423161
236182
342248
1.01511e+06
852813
353482
235851
250998
407183
1.11128e+06
1.64398e+06
838574
449046
250151
370503
1.13353e+06
951426
386536
252396
261511
428608
1.22689e+06
1.78862e+06
901712
479133
261387
393522
1.20857e+06
1.04961e+06
401634
260031
444214
788019
1.5373e+06
1.05736e+06
357809
246158
244327
366520
883163
1.13219e+06
413370
257089
453842
841830
1.65382e+06
1.1091e+06
365835
246579
246883
379146
925357
1.18322e+06
432058
260892
468609
872053
1.71385e+06
1.14487e+06
378320
252467
250858
385878
947913
1.19589e+06
431928
261639
467502
875740
1.7196e+06
1.15117e+06
378213
252941
254010
391852
965170
1.22866e+06
446013
267624
483186
901923
1.76315e+06
1.17887e+06
390021
258295
257416
393914
979641
1.17405e+06
465685
276358
275771
493377
1.4398e+06
2.0036e+06
1.00095e+06
509849
269477
414775
1.29666e+06
1.0682e+06
429632
270728
281124
480460
1.33316e+06
1.89135e+06
961424
510353
269547
412368
1.24135e+06
1.0075e+06
406227
263105
279435
479965
1.19276e+06
1.45496e+06
481141
278462
523464
1.02047e+06
2.01277e+06
1.27273e+06
420454
267121
260286
412784
1.03054e+06
1.2114e+06
487307
282256
285892
524543
1.49123e+06
2.0665e+06
1.03086e+06
536795
273729
428266
1.33523e+06
1.0981e+06
443558
274241
280298
478915
1.26105e+06
1.43603e+06
549157
292943
282302
553641
1.64534e+06
2.18477e+06
1.05995e+06
536812
265280
423464
1.32702e+06
1.06127e+06
432628
260761
260454
444391
1.17392e+06
1.30374e+06
501971
267346
261855
505896
1.4355e+06
1.5941e+06
612113
293735
285083
631339
1.80583e+06
2.34253e+06
1.20447e+06
585258
278515
462095
1.43066e+06
1.14519e+06
451672
272001
281974
517004
1.28899e+06
1.37688e+06
524530
278764
276503
537703
1.45672e+06
1.5115e+06
565317
273081
277001
600391
1.53473e+06
1.54377e+06
592554
268571
278242
625332
1.54247e+06
1.51695e+06
621849
275563
282489
627639
1.48497e+06
1.44967e+06
616813
279889
286110
619938
1.41561e+06
1.38133e+06
606939
283423
289668
611528
1.35004e+06
1.32007e+06
603442
287131
294230
608807
1.29356e+06
1.26862e+06
602847
292108
299381
608866
1.24652e+06
1.22642e+06
603384
297269
304629
609111
1.20821e+06
1.19229e+06
603631
302558
308938
608419
1.17751e+06
1.16504e+06
601947
306380
311610
605610
1.15321e+06
1.14373e+06
597913
308672
312765
601059
1.13414e+06
1.12733e+06
592182
308896
312304
594855
1.11934e+06
1.11505e+06
585410
307919
310777
587572
1.10845e+06
1.10613e+06
577005
306042
308948
578758
1.10085e+06
1.09971e+06
567795
304558
307375
569334
1.09573e+06
1.09535e+06
557877
303049
305937
559312
1.09252e+06
1.09263e+06
548208
301893
304588
549682
1.09066e+06
1.09107e+06
538613
300490
303142
540130
1.0897e+06
1.09034e+06
529733
299174
301578
531400
1.08938e+06
1.0902e+06
521251
297452
299799
523017
1.08942e+06
1.09056e+06
513655
295724
297918
515626
1.08985e+06
1.09115e+06
506553
293795
295966
508636
1.09047e+06
1.09186e+06
500323
291912
293958
502616
1.09122e+06
1.09264e+06
494531
289867
291912
496920
1.09202e+06
1.09348e+06
489529
287909
289862
492129
1.09286e+06
1.09437e+06
484857
285814
287780
487510
1.09376e+06
1.09525e+06
480846
283823
285715
483696
1.09467e+06
1.09613e+06
477075
281739
283666
479966
1.09554e+06
1.09699e+06
473872
279787
281650
476948
1.09643e+06
1.09784e+06
470800
277743
279643
473877
1.09728e+06
1.09869e+06
468218
275834
277711
471468
1.09809e+06
1.09958e+06
465704
273782
275684
468935
1.099e+06
1.10039e+06
463478
271941
273782
466967
1.09986e+06
1.10122e+06
461388
270015
271920
464883
1.10067e+06
1.10203e+06
459585
268248
270119
463278
1.10149e+06
1.10284e+06
457839
266433
268358
461504
1.10229e+06
1.10368e+06
456339
264775
266652
460171
1.10311e+06
1.10444e+06
454832
263066
265023
458667
1.10391e+06
1.10518e+06
453563
261527
263451
457576
1.1047e+06
1.10596e+06
452308
259955
261941
456266
1.10547e+06
1.10677e+06
451237
258537
260481
455348
1.10627e+06
1.10755e+06
450125
257075
259091
454193
1.10706e+06
1.1083e+06
449200
255780
257761
453427
1.10781e+06
1.10902e+06
448243
254439
256498
452414
1.10854e+06
1.10972e+06
447466
253296
255309
451782
1.10923e+06
1.11037e+06
446637
252039
254160
450894
1.10986e+06
1.11096e+06
445983
251032
253114
450392
1.11044e+06
1.11149e+06
445287
249917
252120
449642
1.11095e+06
1.11195e+06
444770
249064
251221
449270
1.11141e+06
1.11236e+06
444195
248085
250354
448630
1.11182e+06
1.11273e+06
443782
247348
249561
448352
1.11219e+06
1.11307e+06
443294
246465
248780
447784
1.11254e+06
1.1134e+06
442947
245803
248050
447560
1.11288e+06
1.11371e+06
442512
244980
247332
447046
1.11319e+06
1.11401e+06
442225
244387
246680
446884
1.11349e+06
1.11427e+06
441853
243648
246051
446433
1.11374e+06
1.1145e+06
441630
243147
245491
446334
1.11397e+06
1.1147e+06
441321
242501
244953
445942
1.11415e+06
1.11486e+06
441154
242085
244471
445895
1.11432e+06
1.115e+06
440890
241507
243993
445543
1.11446e+06
1.11513e+06
440761
241146
243564
445530
1.11459e+06
1.11525e+06
440530
240619
243136
445207
1.11471e+06
1.11536e+06
440429
240307
242750
445218
1.11482e+06
1.11547e+06
440219
239819
242359
444915
1.11492e+06
1.11556e+06
440138
239541
242008
444945
1.11502e+06
1.11565e+06
439949
239091
241659
444664
1.11511e+06
1.11574e+06
439890
238861
241356
444715
1.11519e+06
1.11581e+06
439720
238457
241047
444450
1.11526e+06
1.11587e+06
439676
238259
240769
444513
1.11532e+06
1.11592e+06
439517
237875
240482
444260
1.11537e+06
1.11597e+06
439488
237704
240238
444339
1.11542e+06
1.11601e+06
439346
237361
239994
444102
1.11545e+06
1.11604e+06
439330
237230
239779
444190
1.11549e+06
1.11606e+06
439193
236905
239543
443955
1.1155e+06
1.11608e+06
439179
236777
239336
444046
1.11552e+06
1.11609e+06
439049
236470
239130
443820
1.11553e+06
1.1161e+06
439046
236381
238962
443920
1.11554e+06
1.1161e+06
438921
236104
238772
443695
1.11554e+06
1.1161e+06
438916
236019
238600
443793
1.11554e+06
1.1161e+06
438790
235741
238417
443568
1.11554e+06
1.1161e+06
438787
235671
238268
443669
1.11554e+06
1.1161e+06
438665
235418
238107
443449
1.11555e+06
1.11611e+06
438668
235367
237971
443554
1.11556e+06
1.11612e+06
438549
235122
237815
443334
1.11558e+06
1.11614e+06
438550
235073
237678
443437
1.11559e+06
1.11615e+06
438429
234826
237525
443221
1.11561e+06
1.11617e+06
438442
234790
237414
443341
1.11564e+06
1.1162e+06
438340
234579
237296
443141
1.11567e+06
1.11623e+06
438359
234567
237187
443257
1.1157e+06
1.11625e+06
438248
234338
237044
443048
1.11571e+06
1.11627e+06
438268
234307
236941
443177
1.11574e+06
1.1163e+06
438178
234112
236848
442987
1.11578e+06
1.11634e+06
438204
234129
236764
443105
1.11582e+06
1.11639e+06
438090
233917
236625
442888
1.11587e+06
1.11644e+06
438097
233879
236509
443000
1.11594e+06
1.11653e+06
437991
233670
236405
442793
1.11604e+06
1.11666e+06
438001
233679
236315
442893
1.11619e+06
1.11684e+06
437866
233458
236160
442656
1.11638e+06
1.11709e+06
437939
233443
235948
442782
1.11664e+06
1.11691e+06
437505
233145
235745
442544
1.11583e+06
1.11611e+06
436911
232502
234861
439602
1.11103e+06
1.10453e+06
432978
230067
224244
425536
1.08347e+06
1.04896e+06
417526
219436
193677
380617
978998
906306
357198
179521
156169
318156
845690
68469.7
33834.2
22927.2
15117.7
9903.92
8560.33
6655.97
4256.89
3362.18
2564.77
1964.19
1507.3
1161.13
901.542
707.629
563.031
454.811
373.331
311.49
264.175
227.625
199.242
176.986
159.718
146.27
136.314
129.115
124.412
121.657
120.403
119.657
118.3
116.397
114.045
111.383
108.5
105.501
102.414
99.2639
96.056
92.7897
89.4616
86.067
82.5996
79.0513
75.4114
71.6662
67.7969
63.7778
59.5706
54.7006
47.9089
38.5737
28.4165
19.5015
12.6924
7.8972
4.69888
2.67332
1.466
0.79599
0.45873
0.297906
0.223953
0.190381
0.174771
0.167097
0.162451
0.159193
0.156656
0.154516
0.152598
0.150796
0.149038
0.147277
0.145476
0.143609
0.141657
0.139607
0.137448
0.135174
0.132784
0.130277
0.127658
0.124932
0.122109
0.119198
0.11621
0.113161
0.110061
0.106926
0.10377
0.100606
0.0974468
0.0943051
0.0911922
0.0881184
0.085093
0.082124
0.0792184
0.0763822
0.0736202
0.0709364
0.0683337
0.0658143
0.0633797
0.0610305
0.058767
0.0565889
0.0544952
0.052485
0.0505567
0.0487086
0.0469387
0.045245
0.0436252
0.0420769
0.0405977
0.0391851
0.0378367
0.03655
0.0353224
0.0341516
0.0330352
0.0319707
0.0309559
0.0299886
0.0290664
0.0281875
0.0273496
0.0265508
0.0257893
0.0250632
0.0243708
0.0237104
0.0230805
0.0224795
0.0219059
0.0213585
0.0208358
0.0203367
0.0198599
0.0194043
0.0189689
0.0185526
0.0181545
0.0177737
0.0174093
0.0170606
0.0167267
0.016407
0.0161009
0.0158077
0.0155268
0.0152578
0.0150002
0.0147536
0.0145175
0.0142916
0.0140756
0.0138692
0.0136722
0.0134842
0.013305
0.0131344
0.0129722
0.0128181
0.0126718
0.0125332
0.0124019
0.0122778
0.0121606
0.0120501
0.0119459
0.0118479
0.0117558
0.0116694
0.0115885
0.0115129
0.0114423
0.0113767
0.0113159
0.0112597
0.011208
0.0111608
0.0111181
0.01108
0.0110465
0.0110179
0.0109944
0.0109758
0.0109618
0.0109516
0.0109437
0.0109376
0.0109335
0.010932
0.0109319
0.010932
0.010932
0.0109321
0.0109323
0.0109333
0.0109356
0.0109394
0.0109443
0.0109484
0.01095
0.0109479
0.0109422
0.0109337
0.0109234
0.0109117
0.0108988
0.010885
0.0108701
0.0108543
0.0108374
0.0108196
0.0108008
0.0107812
0.0107608
0.0107399
0.0107186
0.0106975
0.0106773
0.0106591
0.0106454
0.0106399
0.0106499
0.0106883
0.0107792
0.010966
0.0113288
0.0120141
0.0132897
0.0156429
0.0199547
0.0278041
0.0419921
0.0674169
0.112521
0.191624
0.32873
0.563885
0.964537
1.64578
2.804
4.75106
7.86574
12.2628
17.2481
21.3638
24.2662
27.8561
38.8457
73.7413
199.775
923.5
2247.22
7020.12
8361.22
9242.12
10258.1
10797.7
11620
11981.3
12648.6
12900.9
13449
13638.6
14089.1
14236.3
14612.5
14728.3
15048
15140
15416.3
15489.7
15731.6
15790.3
16004.8
16051.5
16243.7
16280.8
16454.5
16483.7
16642.3
16665
16810.9
16828.2
16963.6
16976.4
17102.9
17111.8
17230.7
17236.5
17349
17352.2
17459.5
17460.8
17563.9
17563.7
17663.3
17662.4
17759.5
17758
17853.4
17851.6
17945.9
17944
18038
18036.3
18130.7
18129.5
18225.2
18224.7
18322.3
18323
18422.9
18425.4
18528.4
18532.9
18639.5
18646.2
18756.9
18766
18881.4
18893.3
19013.6
19028.4
19154
19171.7
19302.7
19323.1
19459.1
19481.9
19622.2
19646.6
19789.5
19814
19956.5
19978.9
20117
20134.7
20263
20271.9
20380.8
20377.5
20452.7
20434.9
20465.8
20424
20425.7
20329.3
20297.4
20138.6
20070.4
19845.5
19741.5
19451.7
19316.8
18973.4
18815.6
18434.6
18262.9
17861.8
17686
17284.1
17113.2
16723.6
16560.9
16189.9
16038.5
15691.4
15553.1
15233.1
15108.7
14816.8
14706
14440.9
14343.4
14104.2
14019
13803.9
13730.5
13538.2
13475.3
13303.2
13249.5
13095
13049.7
12911
12873
12748.2
12716.6
12603.9
12577.9
12475.9
12454.7
12362.1
12345.1
12260.5
12247.3
12169.6
12159.5
12087.9
12080.6
12014.2
12009.3
11947.3
11944.5
11886.7
11884.6
11830.7
11830
11779.6
11809.3
11690
11696
11525
11389.2
11282.4
11209.6
7048.9
5299.45
5351.07
7132.1
7188.44
5415.95
5573.12
7316.63
7507.66
5821.47
4240.35
4359.54
4359.13
4353.74
3912.87
3947.72
3997.68
3534
3533.48
3530.83
3310.08
3322.17
3339.23
3438.21
3500.62
4312.6
5597.54
7435.42
7562.58
5880.9
5654.21
7508.4
7612.01
5926.46
4354.95
4396.11
5702.15
7562.38
7667.55
5975.09
5751.79
7619.33
7724.74
6027.1
4434.31
4477.2
5803.99
7678.68
7787.85
6082.77
5859.7
7742.91
7856.27
6142.69
4520.77
4568.13
5919.56
7812.58
7930.72
6207.01
5983.84
7888.45
8012.02
6276.52
4617.68
4670.9
6053.2
7971.34
8101.06
6351.66
6128.09
8062.15
8198.82
6433.11
4727.32
4787.71
6209.13
8161.86
8306.31
6521.46
6296.88
8271.48
8424.62
6617.39
4852.05
4920.82
6391.96
8392.09
8554.87
6721.56
6494.96
8524.84
8698.3
6834.64
4994.17
5072.41
6606.48
8670.97
8856.15
6957.24
6727.02
8831.65
9029.59
7089.91
5155.77
5244.42
6857.09
9008.04
9219.89
7233.25
6997.23
9201.45
9428.44
7387.83
5338.46
5437.84
7147.75
9413.22
9655.94
7553.82
7308.61
9643.73
9902.63
7730.93
5542.18
5650.65
7479.15
9893.25
10168
7918.28
7658.25
10160.9
10451.1
8114.42
5762.22
5874.95
7844.2
10445.6
10749.7
8317.24
8034.32
10745
11060.5
8523.15
5986.39
6092.59
8224.14
11054.7
11377.1
8726.53
8407.45
11368
11690.4
8920.09
6189.08
6270.41
8576.73
11675.2
11988.9
9095.2
8723.24
11964.1
12258.8
9242.31
6330.32
6363.57
8838.01
12221
12486.8
9352.14
8913.18
12432.8
12661.6
9418.06
6363.82
6345.12
8944.21
12589.4
12761.1
9434.1
8931.15
12654.2
12793.3
9407.21
6296.36
6208.28
8884.54
12655.9
12774.5
9340.24
8799.65
12606.3
12712.3
9239.74
6090.12
5956.37
8684.82
12513
12609.5
9116.69
8548.51
12386.7
12476.5
8978.2
5812.84
5664.24
8400.53
12238.4
12324.2
8829.5
8248.46
12077.7
12161.5
8676.77
5514.53
5366.78
8096.85
11912.2
11995.3
8524.55
7948.95
11746.4
11829.9
8376.09
5222.89
5084.42
7806.89
11584.3
11669.2
8232.77
7670.83
11428.6
11515.5
8096.18
4952.06
4825.92
7540.4
11280.4
11369.7
7967.49
7415.82
11140.2
11231.8
7845.2
4705.65
4590.75
7297.51
11007.8
11101.7
7728.89
7184.88
10882.8
10978.8
7617.91
4480.68
4374.67
7077.29
10764.6
10862.4
7511.61
6974.02
10652.3
10751.8
7409.47
4271.5
4171.31
6874.58
10545.1
10646.1
7310.88
6778.41
10442.2
10544.4
7215.07
4074.19
3979.62
6684.82
10342.8
10445.9
7121.28
6593.06
10245.8
10349.6
7028.78
3886.9
3795.51
6502.44
10150.3
10254.6
6936.8
6412.24
10055.4
10159.8
6844.48
3705.07
3615.25
6321.61
9959.81
10063.9
6750.85
6229.66
9862.43
9965.92
6654.76
3525.75
3436.42
6135.24
9762.03
9864.52
6554.57
6036.75
9657.58
9758.81
6448.12
3347.27
3258.46
5931.94
9548.55
9648.53
6336.91
5822.77
9434.28
9532.68
6220.26
3166.61
3070.97
5708.19
9313.75
9410.24
6097.76
5587.89
9185.92
9279.98
5968.55
2971.96
2869.17
5461.06
9049.14
9140.43
5831.59
5326.75
8902.2
8990.1
5685.86
2761.99
2649.87
5183.95
8743.47
8827.38
5530.22
5031.59
8571.24
8650.48
5363.48
2532.12
2408.16
4868.57
8383.71
8457.43
5184.46
4693.79
8178.53
8245.86
4992.14
2277.47
2140.19
4506.46
7953.1
8012.82
4785.53
4305.79
7703.89
7754.31
4561.74
1997.76
1848.37
4088.72
7426.61
7465.96
4319.93
3851.94
7116.37
7142.49
4057.39
1690.38
1523.55
3593.29
6767.4
6777.76
3769.13
3309.83
6371.41
6359.91
3451.07
1347.62
1162.67
2998.31
5917.35
5874.72
3099.15
2656.05
5393.24
5311.03
2710.24
969.238
768.932
2278.84
4779.96
4647.32
2280.32
1870.58
4080.4
3852.62
1793.94
565.65
370.858
1422.61
3259.4
2883.35
1259.83
138.196
223.1
318.533
417.391
516.263
613.553
708.526
800.844
890.351
977.017
1061.11
1143.04
1222.87
1300.63
1376.41
1450.45
1522.97
1594.17
1664.24
1733.38
1801.64
1869.12
1936.74
2004.97
2074.05
2144.19
2215.58
2288.52
2363.07
2440.21
2522.03
2608.3
2698.85
2793.67
2892.95
2997.02
3106.19
3220.8
3340.97
3466.82
3597.6