/*--------------------------------*- C++ -*----------------------------------*\
| =========                 |                                                 |
| \\      /  F ield         | OpenFOAM: The Open Source CFD Toolbox           |
|  \\    /   O peration     | Version:  v2006                                 |
|   \\  /    A nd           | Website:  www.openfoam.com                      |
|    \\/     M anipulation  |                                                 |
\*---------------------------------------------------------------------------*/
FoamFile
{
    version     2.0;
    format      ascii;
    class       volVectorField;
    location    "0.025";
    object      U;
}
// * * * * * * * * * * * * * * * * * * * * * * * * * * * * * * * * * * * * * //

dimensions      [0 1 -1 0 0 0 0];


internalField   nonuniform List<vector> 
12716
(
(65.1839 -6.79927e-05 -1.22436e-20)
(65.1839 -2.1968e-05 0)
(65.1838 -6.59208e-06 -5.9926e-22)
(65.1839 -2.06193e-05 5.89035e-22)
(65.184 -3.6747e-05 -7.00954e-22)
(65.1841 -5.67956e-05 7.81143e-22)
(65.1843 -8.46119e-05 0)
(65.1846 -9.41538e-05 0)
(65.1849 -8.80662e-05 -3.58277e-22)
(65.1845 4.91441e-06 6.24492e-21)
(65.1763 -0.000879917 -5.15985e-20)
(65.143 -0.00521291 2.69963e-21)
(65.0769 -0.0127694 1.28221e-20)
(64.9855 -0.021457 -6.84698e-21)
(64.8796 -0.0298098 -7.0682e-21)
(64.7674 -0.0370103 0)
(64.6532 -0.0429698 0)
(64.5382 -0.0478986 0)
(64.4217 -0.0520844 0)
(64.3028 -0.0557926 0)
(64.1806 -0.0591717 0)
(64.0544 -0.0622982 0)
(63.924 -0.0651985 0)
(63.7895 -0.0678747 0)
(63.651 -0.0703366 0)
(63.5088 -0.0725992 0)
(63.363 -0.0746763 0)
(63.2139 -0.0765801 0)
(63.0617 -0.0783202 0)
(62.9066 -0.0799013 0)
(62.749 -0.0813257 0)
(62.589 -0.0825911 0)
(62.4269 -0.0836938 0)
(62.263 -0.0846276 0)
(62.0976 -0.0853861 0)
(61.931 -0.085962 0)
(61.7636 -0.0863479 0)
(61.5957 -0.0865335 0)
(61.4277 -0.0865068 0)
(61.2599 -0.0862995 0)
(61.0926 -0.0859032 0)
(60.9263 -0.0852592 0)
(60.7613 -0.0843656 0)
(60.5981 -0.0832263 0)
(60.437 -0.0818299 0)
(60.2784 -0.0801645 0)
(60.1228 -0.0782222 0)
(59.9706 -0.0759996 0)
(59.8221 -0.0734994 0)
(59.6774 -0.0707177 0)
(59.5363 -0.0676111 0)
(59.3978 -0.064019 0)
(59.2607 -0.0596439 0)
(59.1236 -0.0540128 0)
(58.9872 -0.0465111 0)
(58.8566 -0.03687 -1.19035e-19)
(58.7453 -0.0260714 1.1887e-19)
(58.6718 -0.0167671 1.3299e-20)
(58.645 -0.0112896 0)
(58.6511 -0.00943195 0)
(58.6694 -0.00902196 6.69219e-20)
(58.6892 -0.00895891 5.69113e-19)
(58.7051 -0.00795672 -7.16721e-18)
(58.709 -0.00631082 0)
(58.6978 -0.00857518 0)
(58.6555 -0.0155151 0)
(58.5648 -0.0292394 0)
(58.4117 -0.0563671 0)
(58.1556 -0.0820656 3.49192e-19)
(57.8709 -0.0927596 0)
(56.8672 -0.151451 0)
(56.2316 -0.136691 5.08611e-18)
(57.8689 -0.170733 -3.39909e-18)
(58.2044 -0.145503 -3.528e-19)
(58.2402 -0.172842 -5.58366e-18)
(57.8062 -0.197817 -4.30113e-19)
(55.522 -0.132657 -1.0577e-18)
(54.7947 -0.120318 -9.25533e-19)
(57.715 -0.194624 3.85308e-19)
(58.2699 -0.176813 6.40662e-19)
(58.2816 -0.1721 -6.24307e-19)
(57.6035 -0.178857 8.62216e-19)
(54.1332 -0.105236 -1.16933e-19)
(53.5012 -0.0911834 1.63422e-19)
(57.4585 -0.162393 -9.02744e-20)
(58.2642 -0.165807 6.74282e-19)
(58.2239 -0.160562 -1.49746e-19)
(57.3043 -0.148875 9.03087e-20)
(52.9293 -0.0805602 -2.7144e-24)
(52.405 -0.0716381 -5.41015e-20)
(57.1357 -0.137294 -7.81948e-20)
(58.1645 -0.155677 7.45223e-20)
(58.092 -0.150588 0)
(56.9599 -0.127146 -1.67848e-20)
(51.9324 -0.0645185 0)
(51.4908 -0.0589158 0)
(56.778 -0.11929 5.61011e-21)
(58.0059 -0.146015 0)
(57.9166 -0.142087 0)
(56.5947 -0.111704 0)
(51.0878 -0.0539639 0)
(50.7033 -0.050319 0)
(56.4106 -0.106122 0)
(57.8134 -0.138043 0)
(57.7109 -0.134945 0)
(56.2261 -0.100494 0)
(50.3489 -0.0466497 0)
(50.0056 -0.0441604 0)
(56.0416 -0.0964332 0)
(57.596 -0.131558 0)
(57.4845 -0.129215 0)
(55.8574 -0.0921735 0)
(49.6862 -0.0412944 0)
(49.3754 -0.0395417 0)
(55.6748 -0.089049 0)
(57.3626 -0.12626 0)
(57.2465 -0.124698 0)
(55.494 -0.086049 0)
(49.0844 -0.0374669 0)
(48.7948 -0.0359974 0)
(55.3103 -0.0834954 0)
(57.1161 -0.122655 0)
(56.9908 -0.121563 0)
(55.1263 -0.081261 0)
(48.5186 -0.0343375 0)
(48.2449 -0.0336302 0)
(54.9414 -0.0796431 0)
(56.8534 -0.119813 0)
(56.725 -0.11915 0)
(54.7595 -0.0775678 0)
(47.9855 -0.0319489 0)
(47.7271 -0.0315905 0)
(54.5763 -0.0764228 0)
(56.5841 -0.117665 0)
(56.4519 -0.117307 0)
(54.3949 -0.074724 0)
(47.4795 -0.0301085 0)
(47.2314 -0.0300017 0)
(54.2113 -0.0739558 0)
(56.3063 -0.116182 0)
(56.17 -0.116193 0)
(54.0294 -0.0726069 0)
(46.9925 -0.0286794 0)
(46.7523 -0.0287811 0)
(53.8451 -0.0721603 0)
(56.0198 -0.11539 0)
(55.8793 -0.1157 0)
(53.6621 -0.071077 0)
(46.5201 -0.0275706 0)
(46.2857 -0.0278407 0)
(53.4763 -0.070893 0)
(55.7244 -0.11517 0)
(55.5796 -0.115741 0)
(53.2916 -0.0700225 0)
(46.0582 -0.0267127 0)
(45.828 -0.0271262 0)
(53.1037 -0.0700659 0)
(55.4197 -0.115459 0)
(55.2702 -0.116274 0)
(52.9167 -0.0693769 0)
(45.6039 -0.0260622 0)
(45.3763 -0.026603 0)
(52.7261 -0.0696277 0)
(55.1051 -0.116231 0)
(54.9506 -0.117303 0)
(52.5361 -0.069111 0)
(45.1541 -0.0255949 0)
(44.928 -0.0262508 0)
(52.3422 -0.0695528 0)
(54.7799 -0.117489 0)
(54.6199 -0.118807 0)
(52.1485 -0.0691909 0)
(44.7065 -0.0252886 0)
(44.4806 -0.0260482 0)
(51.9504 -0.0698071 0)
(54.4431 -0.119208 0)
(54.2771 -0.120767 0)
(51.7524 -0.069587 0)
(44.2586 -0.0251259 0)
(44.0318 -0.0259794 0)
(51.5496 -0.0703625 0)
(54.0937 -0.121369 0)
(53.9213 -0.123124 0)
(51.3465 -0.0702548 0)
(43.8084 -0.0250834 0)
(43.5797 -0.0260271 0)
(51.1383 -0.0711883 0)
(53.7309 -0.123935 0)
(53.5515 -0.125921 0)
(50.9295 -0.0712057 0)
(43.354 -0.0251596 0)
(43.1225 -0.0261984 0)
(50.7153 -0.0723113 0)
(53.3535 -0.126969 0)
(53.1665 -0.129229 0)
(50.5 -0.0724713 0)
(42.8934 -0.025362 0)
(42.658 -0.0264965 0)
(50.2788 -0.0737549 0)
(52.9601 -0.130534 0)
(52.7647 -0.133094 0)
(50.0561 -0.0740693 0)
(42.4244 -0.0256947 0)
(42.1841 -0.0269191 0)
(49.827 -0.0755255 0)
(52.5492 -0.134659 0)
(52.3445 -0.13752 0)
(49.596 -0.075995 0)
(41.9451 -0.0261535 0)
(41.6987 -0.0274616 0)
(49.3582 -0.0776142 0)
(52.119 -0.139337 0)
(51.9042 -0.142497 0)
(49.1179 -0.0782361 0)
(41.4532 -0.0267305 0)
(41.1998 -0.0281191 0)
(48.8703 -0.0800123 0)
(51.6679 -0.14456 0)
(51.4421 -0.148022 0)
(48.6199 -0.0807881 0)
(40.9468 -0.0274214 0)
(40.6854 -0.0288903 0)
(48.3617 -0.0827247 0)
(51.1943 -0.150341 0)
(50.9566 -0.154132 0)
(48.1002 -0.083667 0)
(40.4239 -0.0282296 0)
(40.1535 -0.029782 0)
(47.8304 -0.0857774 0)
(50.6961 -0.156733 0)
(50.4456 -0.160891 0)
(47.5566 -0.0869074 0)
(39.8824 -0.0291631 0)
(39.6018 -0.0308047 0)
(47.2741 -0.0892083 0)
(50.1715 -0.163807 0)
(49.907 -0.168376 0)
(46.9869 -0.0905494 0)
(39.32 -0.0302344 0)
(39.0279 -0.0319705 0)
(46.6903 -0.0930568 0)
(49.6181 -0.171641 0)
(49.3382 -0.176662 0)
(46.3884 -0.0946318 0)
(38.734 -0.031456 0)
(38.429 -0.0332914 0)
(46.0764 -0.097359 0)
(49.0331 -0.180304 0)
(48.7366 -0.185809 0)
(45.7582 -0.0991843 0)
(38.1215 -0.0328367 0)
(37.8021 -0.0347729 0)
(45.4292 -0.102135 0)
(48.4138 -0.189833 0)
(48.099 -0.19583 0)
(45.0933 -0.104212 0)
(37.4796 -0.0343754 0)
(37.1443 -0.0364068 0)
(44.7457 -0.107371 0)
(47.7571 -0.200212 0)
(47.4226 -0.206676 0)
(44.3905 -0.109686 0)
(36.8053 -0.0360582 0)
(36.4528 -0.0381773 0)
(44.0231 -0.113034 0)
(47.0601 -0.211383 0)
(46.7045 -0.218302 0)
(43.6471 -0.115578 0)
(36.096 -0.0378715 0)
(35.7249 -0.0400782 0)
(43.2583 -0.119117 0)
(46.3201 -0.223334 0)
(45.942 -0.230731 0)
(42.8603 -0.121904 0)
(35.3491 -0.039818 0)
(34.9581 -0.0421185 0)
(42.4486 -0.12564 0)
(45.5342 -0.2361 0)
(45.1322 -0.243988 0)
(42.027 -0.128678 0)
(34.5618 -0.0419055 0)
(34.1496 -0.0442911 0)
(41.5911 -0.1326 0)
(44.6995 -0.249679 0)
(44.272 -0.25804 0)
(41.1443 -0.135879 0)
(33.7316 -0.0441182 0)
(33.2969 -0.046578 0)
(40.6827 -0.139962 0)
(43.813 -0.26401 0)
(43.3588 -0.27279 0)
(40.2095 -0.143453 0)
(32.856 -0.046434 0)
(32.3977 -0.0489503 0)
(39.721 -0.147652 0)
(42.8723 -0.278958 0)
(42.3902 -0.288059 0)
(39.2203 -0.151304 0)
(31.9331 -0.0488162 0)
(31.4507 -0.0513607 0)
(38.704 -0.155545 0)
(41.8752 -0.294293 0)
(41.3644 -0.303564 0)
(38.1752 -0.159278 0)
(30.962 -0.0512066 0)
(30.4552 -0.0537391 0)
(37.6307 -0.163457 0)
(40.8205 -0.309669 0)
(40.281 -0.318881 0)
(37.0739 -0.16715 0)
(29.9427 -0.0535207 0)
(29.4124 -0.0559833 0)
(36.5018 -0.171116 0)
(39.7084 -0.324576 0)
(39.1408 -0.333416 0)
(35.9178 -0.174607 0)
(28.8773 -0.0556421 0)
(28.3252 -0.0579514 0)
(35.3195 -0.17813 0)
(38.5408 -0.338284 0)
(37.9471 -0.346273 0)
(34.7108 -0.18114 0)
(27.7703 -0.0573778 0)
(27.2 -0.0594362 0)
(34.0895 -0.183941 0)
(37.3225 -0.349876 0)
(36.7064 -0.356403 0)
(33.4604 -0.186079 0)
(26.6299 -0.0584881 0)
(26.0472 -0.0602296 0)
(32.8214 -0.187924 0)
(36.0618 -0.35841 0)
(35.4286 -0.362885 0)
(32.1779 -0.1889 0)
(25.4682 -0.058845 0)
(24.8804 -0.0601072 0)
(31.5281 -0.189334 0)
(34.7705 -0.362382 0)
(34.1279 -0.363868 0)
(30.879 -0.188663 0)
(24.3015 -0.0581066 0)
(23.7192 -0.0587213 0)
(30.2286 -0.187251 0)
(33.4654 -0.360013 0)
(32.8239 -0.357646 0)
(29.5852 -0.184475 0)
(23.1523 -0.0559544 0)
(22.5888 -0.0557847 0)
(28.9471 -0.180803 0)
(32.1689 -0.349688 0)
(31.5415 -0.342695 0)
(28.324 -0.175517 0)
(22.0483 -0.052129 0)
(21.5192 -0.0510684 0)
(27.7138 -0.169296 0)
(30.9082 -0.330076 0)
(30.31 -0.317988 0)
(27.1274 -0.161248 0)
(21.0218 -0.0464548 0)
(20.5441 -0.0444793 0)
(26.562 -0.152411 0)
(29.7141 -0.3005 0)
(29.1612 -0.283316 0)
(26.0296 -0.141663 0)
(20.1065 -0.0389585 0)
(19.6965 -0.0361693 0)
(25.5257 -0.13046 0)
(28.6186 -0.261338 0)
(28.1266 -0.23974 0)
(25.0634 -0.117456 0)
(19.3339 -0.0299402 0)
(19.0053 -0.0265564 0)
(24.6359 -0.104464 0)
(27.652 -0.214244 0)
(27.2341 -0.189266 0)
(24.2567 -0.0897926 0)
(18.7292 -0.0198573 0)
(18.4908 -0.0163064 0)
(23.9166 -0.0760764 0)
(26.8392 -0.162175 0)
(26.5046 -0.136002 0)
(23.6283 -0.0608845 0)
(18.3063 -0.00960461 0)
(18.1594 -0.00638282 0)
(23.3797 -0.0476859 0)
(26.1954 -0.109557 0)
(25.9466 -0.0841051 0)
(23.1826 -0.0331951 0)
(18.0637 -6.96479e-05 0)
(18.0017 0.00266311 0)
(23.0226 -0.0213554 0)
(25.7228 -0.059864 0)
(25.5561 -0.036855 0)
(22.9111 -0.00841066 0)
(17.9869 0.0091523 0)
(18.0038 0.0112136 0)
(22.8287 0.00255531 0)
(25.4116 -0.0154106 0)
(25.3141 0.00513875 0)
(22.7945 0.0139624 0)
(18.0644 0.0158728 0)
(18.141 0.0168199 0)
(22.7756 0.0197694 0)
(25.2428 0.0207614 0)
(25.2121 0.0375343 0)
(22.8073 0.0299885 0)
(18.2505 0.0195443 0)
(18.3678 0.0190058 0)
(22.8462 0.0344688 0)
(25.2057 0.0485517 0)
(25.2298 0.060622 0)
(22.9286 0.0419494 0)
(18.5105 0.0209088 0)
(18.6553 0.019902 0)
(23.011 0.0443407 0)
(25.2703 0.0679106 0)
(25.334 0.0754354 0)
(23.1282 0.0490721 0)
(18.8182 0.0212347 0)
(18.9772 0.01979 0)
(23.2386 0.0494054 0)
(25.407 0.0789733 0)
(25.4968 0.083181 0)
(23.3763 0.0520953 0)
(19.1477 0.0206697 0)
(19.3104 0.0189813 0)
(23.5023 0.0510249 0)
(25.5908 0.0839381 0)
(25.6965 0.0857845 0)
(23.65 0.0522228 0)
(19.4799 0.0194756 0)
(19.6393 0.0177391 0)
(23.7827 0.0503303 0)
(25.8028 0.0849527 0)
(25.917 0.0852444 0)
(23.9332 0.0506284 0)
(19.8023 0.0180212 0)
(19.9544 0.0163517 0)
(24.0669 0.0483531 0)
(26.0293 0.083535 0)
(26.1461 0.082979 0)
(24.2145 0.0480203 0)
(20.1067 0.0163862 0)
(20.249 0.0149732 0)
(24.3451 0.0459592 -3.64074e-19)
(26.2601 0.0809144 3.0318e-19)
(26.3792 0.0796635 0)
(24.4907 0.0452045 0)
(20.3933 0.0146818 0)
(20.5259 0.0128154 0)
(24.6166 0.0421951 0)
(26.4926 0.0764779 0)
(26.6076 0.0745533 0)
(24.7538 0.0414037 0)
(20.6567 0.0128435 0)
(20.7759 0.0111745 0)
(24.8715 0.0387521 0)
(26.7161 0.0704658 0)
(26.8259 0.0684422 0)
(25 0.0373751 0)
(20.8943 0.0105947 0)
(21.0018 0.00938007 0)
(25.1088 0.0350157 0)
(26.9286 0.0647412 0)
(27.0321 0.0628924 0)
(25.228 0.0341362 0)
(21.1081 0.00917744 0)
(21.2043 0.00810279 0)
(25.3277 0.0314435 0)
(27.1283 0.0592223 0)
(27.225 0.0575818 0)
(25.4378 0.0309437 0)
(21.2994 0.00802656 0)
(21.3856 0.00707843 0)
(25.5291 0.0283256 0)
(27.315 0.0540643 0)
(27.4052 0.0526267 0)
(25.6308 0.0280287 0)
(21.4711 0.00708749 0)
(21.5485 0.00617361 0)
(25.7144 0.0255404 0)
(27.489 0.0493307 0)
(27.5731 0.0481075 0)
(25.8084 0.025416 0)
(21.6256 0.00628166 0)
(21.6951 0.00542029 0)
(25.8846 0.0230956 0)
(27.651 0.0450787 0)
(27.7291 0.0440473 0)
(25.9714 0.023105 0)
(21.7647 0.00560007 0)
(21.8272 0.00477319 0)
(26.041 0.0209305 0)
(27.8014 0.0412384 0)
(27.874 0.0403627 0)
(26.1213 0.0210283 0)
(21.8902 0.0050351 0)
(21.9465 0.00429746 0)
(26.1849 0.0189699 0)
(27.9411 0.037733 0)
(28.0087 0.037022 0)
(26.2594 0.019153 0)
(22.0036 0.00455426 0)
(22.0546 0.00364879 0)
(26.3178 0.0172563 0)
(28.0709 0.034702 0)
(28.134 0.0340417 0)
(26.387 0.0175344 0)
(22.1067 0.0039892 0)
(22.153 0.00312624 0)
(26.4408 0.0157299 0)
(28.1917 0.0318909 0)
(28.2508 0.0313212 0)
(26.5051 0.0160502 0)
(22.2007 0.00354806 0)
(22.2428 0.00271044 0)
(26.5547 0.0143334 0)
(28.3044 0.02936 0)
(28.3598 0.0288625 0)
(26.6145 0.0146944 0)
(22.2866 0.00319253 0)
(22.325 0.00236566 0)
(26.6604 0.0130577 0)
(28.4098 0.0270727 0)
(28.4618 0.0266378 0)
(26.7162 0.013464 0)
(22.3652 0.0028956 0)
(22.4002 0.00205573 0)
(26.7585 0.0119076 0)
(28.5084 0.0249906 0)
(28.5573 0.0246033 0)
(26.8107 0.0123532 0)
(22.437 0.00261496 0)
(22.4687 0.00176565 0)
(26.8497 0.0108559 0)
(28.6007 0.0230617 0)
(28.6466 0.0227037 0)
(26.8983 0.0113178 0)
(22.5024 0.00234987 0)
(22.5311 0.00150124 0)
(26.9343 0.00985718 3.6277e-19)
(28.687 0.0212471 -3.02192e-19)
(28.7304 0.0209933 0)
(26.9797 0.0103773 0)
(22.5619 0.00213277 0)
(22.5884 0.0012568 5.41618e-20)
(27.0133 0.00900495 4.50057e-19)
(28.7683 0.0197317 -3.75462e-19)
(28.8094 0.0200007 7.48288e-20)
(27.0559 0.00980184 -8.98713e-20)
(22.6162 0.00187283 -5.41574e-20)
(22.6407 0.00245521 4.1998e-19)
(27.0906 0.00955277 0)
(28.8464 0.0194214 -5.88358e-19)
(28.8951 0.0212284 1.68117e-24)
(27.1305 0.0105257 -1.76474e-19)
(22.6842 0.00336443 -2.13007e-19)
(22.725 0.00453859 -5.9583e-19)
(27.1826 0.0117756 5.00046e-19)
(28.9472 0.0214498 0)
(29.0121 0.0213795 0)
(27.2472 0.0131378 -7.03501e-19)
(22.807 0.00823521 6.44491e-19)
(22.8619 0.00590717 -1.9623e-19)
(27.3096 0.0124797 6.60679e-19)
(29.067 0.0247187 -1.10974e-18)
(29.1172 0.0286652 1.83464e-18)
(27.3584 0.0168159 0)
(22.8958 0.00871658 -4.64771e-19)
(23.0396 0.0115664 8.67829e-19)
(27.4654 0.0167303 0)
(29.2186 0.0259729 7.74871e-20)
(29.2966 0.022526 5.76178e-19)
(27.561 0.0221642 -7.91499e-19)
(23.1286 -0.00475055 0)
(30.9174 0.0458415 0)
(31.8126 0.0594997 -1.19023e-19)
(32.4016 0.0651105 0)
(32.7796 0.073904 -1.66918e-18)
(33.0828 0.108919 1.5801e-18)
(33.4721 0.126624 0)
(33.7525 0.132951 0)
(34.0473 0.141247 5.03065e-20)
(34.2732 0.140832 -5.03684e-20)
(34.5003 0.142569 0)
(34.6812 0.140198 0)
(34.8619 0.137549 0)
(35.0053 0.133003 0)
(35.1484 0.127411 0)
(35.2549 0.118397 8.377e-19)
(35.351 0.110152 -2.55771e-18)
(35.4091 0.0987524 1.78979e-18)
(35.4399 0.0878333 -7.32264e-18)
(35.4298 0.0692016 7.76257e-18)
(35.345 0.0264833 3.04763e-17)
(35.1504 -0.00792018 -7.04493e-17)
(34.8932 -0.0328204 0)
(34.6536 -0.0457617 0)
(33.8227 -0.0574168 1.13986e-17)
(31.8551 -0.019071 0)
(29.9763 0.0365533 0)
(25.1319 -0.0957571 0)
(24.4474 -0.274584 0)
(29.3692 -0.167111 -6.90055e-17)
(31.2703 -0.223956 6.15028e-17)
(29.4322 -0.714575 2.87487e-17)
(26.123 -0.469271 3.6166e-17)
(18.7182 -0.308553 -1.41843e-17)
(19.8125 -0.0435715 0)
(27.2033 -0.150367 1.23568e-17)
(30.4505 -0.277912 -2.04808e-17)
(30.4472 -0.093719 -1.21524e-17)
(27.1054 -0.0642372 9.48265e-19)
(19.4045 -0.0302558 -2.32244e-18)
(19.4118 -0.0140468 -5.30087e-19)
(27.1743 -0.00709464 8.74747e-19)
(30.552 0.00447288 -3.59408e-18)
(30.4222 -0.0182917 7.34343e-19)
(27.0101 -0.0136583 9.99979e-19)
(19.1605 -0.00642809 -5.39825e-19)
(19.2523 -0.00894318 1.32808e-19)
(27.0793 -0.009366 3.42365e-18)
(30.4715 -0.00735873 -5.87538e-18)
(30.3874 0.0140874 7.39034e-19)
(26.9488 0.00679208 -4.07466e-24)
(19.0828 0.00210665 -1.20983e-18)
(19.1846 -0.004096 1.34709e-19)
(27.0362 0.00589659 -1.79068e-18)
(30.4539 0.0129422 -1.47953e-18)
(30.389 -0.00180952 0)
(26.9914 -0.0029864 0)
(19.0338 -0.00166378 -1.35831e-19)
(19.1496 0.00185532 0)
(27.0965 0.00924667 0)
(30.4764 0.0194637 -1.49511e-18)
(30.4331 0.0207645 1.48892e-18)
(27.0185 0.0146632 0)
(19.1085 0.00841263 0)
(19.2228 -0.000842113 0)
(27.1293 0.00356224 0)
(30.5256 0.00935204 -1.48864e-18)
(30.4896 0.0145031 1.4888e-18)
(27.0946 0.00967459 0)
(19.1966 0.00511957 0)
(19.3087 0.00259416 0)
(27.2058 0.0141168 0)
(30.5841 0.0258541 -1.48855e-18)
(30.5475 0.019705 1.48866e-18)
(27.1681 0.0134041 0)
(19.2792 0.00619386 0)
(19.3945 0.000531693 0)
(27.282 0.00764063 0)
(30.6429 0.0158454 -1.4884e-18)
(30.6101 0.0185562 1.48853e-18)
(27.2497 0.0125689 0)
(19.3701 0.00593856 0)
(19.4852 0.0020864 -1.08528e-18)
(27.3632 0.0119799 -9.006e-19)
(30.7058 0.0225288 1.48827e-18)
(30.6734 0.0194455 1.48839e-18)
(27.3305 0.0131175 0)
(19.4611 0.00616325 0)
(19.5791 0.00122625 0)
(27.4464 0.0094033 0)
(30.7699 0.0186135 -1.48812e-18)
(30.7399 0.0204366 1.48825e-18)
(27.4167 0.0137597 0)
(19.5585 0.00639349 0)
(19.6764 0.00230383 0)
(27.5326 0.0124066 0)
(30.8369 0.0230718 -1.48798e-18)
(30.8075 0.0201096 1.4881e-18)
(27.5034 0.0135507 0)
(19.6566 0.00631662 0)
(19.7768 0.0019537 0)
(27.6208 0.01127 0)
(30.9047 0.0213569 -1.48782e-18)
(30.8775 0.021793 1.48794e-18)
(27.5939 0.0146196 0)
(19.7599 0.00669822 0)
(19.8807 0.00234687 0)
(27.7119 0.0123313 0)
(30.9754 0.0229618 -1.48766e-18)
(30.949 0.0212792 1.48778e-18)
(27.686 0.0142742 0)
(19.8651 0.006573 0)
(19.9875 0.00249163 0)
(27.805 0.0126295 0)
(31.0469 0.0233555 -1.4875e-18)
(31.0224 0.0226036 1.48761e-18)
(27.7808 0.0150946 0)
(19.9742 0.00686945 0)
(20.0978 0.00262654 0)
(27.9007 0.0129444 0)
(31.121 0.0238991 -1.48732e-18)
(31.0974 0.0226155 1.48744e-18)
(27.8777 0.0151128 0)
(20.086 0.00687296 0)
(20.2108 0.00287647 0)
(27.9983 0.0135446 0)
(31.196 0.0247366 -1.48714e-18)
(31.1743 0.0236128 1.48725e-18)
(27.9772 0.0157066 0)
(20.2015 0.00709209 0)
(20.3277 0.00301389 0)
(28.0989 0.0138464 0)
(31.2737 0.0252559 -1.48695e-18)
(31.253 0.0238638 1.48707e-18)
(28.079 0.0158857 0)
(20.32 0.00715416 0)
(20.4476 0.00326305 0)
(28.2014 0.0144411 0)
(31.3525 0.026094 -1.48676e-18)
(31.3338 0.0248255 1.48687e-18)
(28.1835 0.0164518 0)
(20.4425 0.00736571 0)
(20.5716 0.00343597 0)
(28.3071 0.0148286 0)
(31.4341 0.026745 -1.48655e-18)
(31.4166 0.0251953 1.48667e-18)
(28.2905 0.0167032 0)
(20.5683 0.00745564 0)
(20.6987 0.0036893 0)
(28.415 0.0154299 0)
(31.517 0.0276037 -1.48635e-18)
(31.5017 0.0261668 1.48646e-18)
(28.4006 0.0172704 0)
(20.6982 0.00766849 0)
(20.8303 0.00388027 0)
(28.5262 0.0158694 0)
(31.603 0.0283436 -1.48613e-18)
(31.589 0.0266268 1.48625e-18)
(28.5133 0.0175652 0)
(20.8317 0.00777096 0)
(20.9655 0.0041432 0)
(28.64 0.0165038 0)
(31.6906 0.029271 -1.48591e-18)
(31.679 0.0276936 1.48602e-18)
(28.6295 0.0181853 0)
(20.9699 0.00799994 0)
(21.1055 0.0043729 0)
(28.7576 0.0170365 0)
(31.7817 0.0301712 -1.48567e-18)
(31.7717 0.028309 1.48579e-18)
(28.7489 0.0185658 0)
(21.1122 0.00813585 0)
(21.2496 0.00465343 0)
(28.8782 0.0177257 0)
(31.8749 0.0312085 -1.48544e-18)
(31.8676 0.0294558 1.48555e-18)
(28.8722 0.019223 0)
(21.2595 0.00836896 0)
(21.399 0.00489292 0)
(29.0032 0.018319 0)
(31.9722 0.0322347 -1.48519e-18)
(31.9668 0.030196 1.48531e-18)
(28.9994 0.0196517 0)
(21.4113 0.00850546 0)
(21.553 0.00518164 0)
(29.1319 0.0190707 0)
(32.0722 0.0334099 -1.48495e-18)
(32.0699 0.0314837 1.48505e-18)
(29.1311 0.0203761 0)
(21.5688 0.00874839 0)
(21.7127 0.00544151 0)
(29.2656 0.01975 0)
(32.1769 0.0346076 -1.48468e-18)
(32.1771 0.0324678 1.48479e-18)
(29.2675 0.0209297 0)
(21.7314 0.00891795 0)
(21.8777 0.00576564 0)
(29.404 0.0206443 0)
(32.2854 0.0360589 -1.48442e-18)
(32.2891 0.0339788 1.48452e-18)
(29.4095 0.0217598 0)
(21.9003 0.00917348 0)
(22.0493 0.00603722 0)
(29.5486 0.0214459 0)
(32.3996 0.0375191 -1.48414e-18)
(32.4065 0.0352988 1.48425e-18)
(29.5575 0.0224642 0)
(22.0753 0.00935626 0)
(22.2272 0.00638651 0)
(29.6994 0.0225285 0)
(32.5191 0.0393623 -1.48386e-18)
(32.5305 0.0371852 1.48395e-18)
(29.7129 0.0234703 0)
(22.2578 0.00962635 0)
(22.413 0.00670175 0)
(29.8584 0.0235872 0)
(32.646 0.0413204 -1.48355e-18)
(32.6619 0.0391247 1.48365e-18)
(29.8767 0.0244959 0)
(22.4481 0.0098707 0)
(22.6073 0.00713168 0)
(30.0265 0.0250616 0)
(32.7807 0.0438866 -1.48326e-18)
(32.8025 0.0417169 1.48334e-18)
(30.051 0.0258887 0)
(22.6484 0.0102068 0)
(22.8121 0.00754789 0)
(30.2061 0.0266204 0)
(32.9255 0.0467229 -1.48294e-18)
(32.9536 0.044634 1.48302e-18)
(30.2377 0.0274648 0)
(22.8599 0.0105638 0)
(23.0296 0.00816238 0)
(30.3995 0.0288297 0)
(33.0818 0.0505179 -1.48262e-18)
(33.1178 0.0485824 1.48269e-18)
(30.44 0.0296999 0)
(23.0866 0.0111233 0)
(23.2638 0.00889457 0)
(30.6104 0.0314209 0)
(33.2524 0.0549387 -1.48229e-18)
(33.2974 0.0533423 1.48234e-18)
(30.6617 0.0325009 0)
(23.3329 0.0119024 0)
(23.521 0.0102107 0)
(30.843 0.0353708 0)
(33.4397 0.0611938 -1.48195e-18)
(33.4959 0.0603245 1.48197e-18)
(30.9082 0.0367914 0)
(23.6073 0.0133127 0)
(23.8105 0.0120531 0)
(31.1035 0.0403845 0)
(33.6476 0.0692227 -1.48159e-18)
(33.7174 0.0700211 1.48157e-18)
(31.1864 0.0429536 0)
(23.9225 0.0157582 0)
(24.1492 0.0155113 0)
(31.4006 0.0481877 0)
(33.8812 0.0815739 -1.48122e-18)
(33.968 0.0850962 1.48111e-18)
(31.5063 0.0522476 0)
(24.2995 0.0206352 0)
(24.5616 0.022071 0)
(31.7458 0.0590861 0)
(34.1482 0.100543 -1.48078e-18)
(34.2695 0.106378 1.48056e-18)
(31.8953 0.0632824 0)
(24.7893 0.0306977 0)
(25.1602 0.0397069 0)
(32.2019 0.0779183 0)
(34.4994 0.138216 0)
(34.6332 0.200006 7.43053e-19)
(32.3793 0.144862 -8.96338e-19)
(25.489 0.10809 -1.08148e-18)
(25.8201 0.189456 0)
(32.6367 0.249275 0)
(34.8223 0.303382 -2.97156e-18)
(34.9248 0.376094 0)
(32.7621 0.316396 0)
(26.081 0.254076 0)
(26.4573 0.320617 0)
(33.0427 0.409214 0)
(35.1009 0.488367 0)
(35.1748 0.618145 -4.60525e-18)
(33.1372 0.55968 3.54951e-18)
(26.6339 0.46756 0)
(26.8848 0.571509 0)
(33.3074 0.70099 0)
(35.2675 0.765819 1.83372e-19)
(35.266 0.871779 -5.81322e-18)
(33.3177 0.818062 7.02545e-18)
(26.9938 0.679434 0)
(27.2241 0.740732 1.67706e-17)
(33.4588 0.902278 -6.98896e-18)
(35.3271 0.971067 -5.76939e-18)
(35.3365 1.05697 5.74462e-18)
(33.5179 0.987754 0)
(27.3991 0.819471 -8.351e-18)
(27.6064 0.906586 0)
(33.6253 1.08837 0)
(35.3884 1.15447 1.13596e-17)
(35.4059 1.21183 -1.75135e-19)
(33.6843 1.13126 1.35809e-17)
(27.826 0.956177 -1.64972e-17)
(28.1169 1.06371 -1.63012e-17)
(33.8083 1.24993 0)
(35.4627 1.3253 1.74533e-19)
(35.4468 1.4342 0)
(33.8505 1.37142 -1.31971e-17)
(28.2908 1.16886 1.60185e-17)
(28.4553 1.23153 -1.23714e-19)
(33.914 1.45114 1.30347e-17)
(35.4455 1.51923 -1.09156e-17)
(35.4186 1.57852 1.07347e-17)
(33.9171 1.51343 1.30546e-17)
(28.6013 1.2939 -1.55519e-17)
(28.8502 1.33563 -1.54992e-17)
(34.0182 1.55728 -9.96746e-20)
(35.4409 1.63919 0)
(35.4246 1.73283 2.10219e-17)
(34.0459 1.67179 -2.52205e-17)
(29.0592 1.44844 1.53378e-17)
(29.2764 1.52277 -1.5119e-17)
(34.0964 1.75083 -1.94533e-19)
(35.4108 1.81542 -1.03531e-17)
(35.3635 1.89717 0)
(34.0963 1.84305 1.25273e-17)
(29.4709 1.61517 -1.49175e-17)
(29.6544 1.7031 0)
(34.1058 1.92615 -1.90951e-19)
(35.3144 1.97349 -1.00528e-17)
(35.248 2.01158 1.00185e-17)
(34.1118 1.93574 -1.27342e-17)
(29.8557 1.72894 -1.46729e-17)
(30.0804 1.85028 -1.49753e-17)
(34.1016 2.05755 2.48221e-17)
(35.1863 2.10517 -2.04581e-17)
(35.0783 2.17897 6.24356e-19)
(34.052 2.13494 -1.05866e-17)
(30.2506 1.9318 1.60776e-17)
(30.4476 2.01443 1.52824e-17)
(34.0063 2.21414 -1.47693e-18)
(34.9859 2.24444 0)
(34.8577 2.31536 -9.38235e-18)
(33.9332 2.28248 2.91257e-18)
(30.6594 2.10859 -1.80627e-18)
(30.8383 2.20942 0)
(33.8772 2.42635 -2.48718e-18)
(34.7201 2.4348 0)
(34.4956 2.40874 0)
(33.7511 2.35308 1.99859e-18)
(31.0327 2.15218 2.3161e-18)
(28.4267 2.20712 -5.85249e-18)
(32.5428 2.3225 -2.65665e-18)
(33.8699 2.23016 -1.95375e-17)
(34.1513 2.56713 0)
(33.1258 2.52086 0)
(29.3805 2.2753 2.38229e-18)
(29.6206 2.38082 -1.67628e-17)
(33.1108 2.6174 1.46954e-17)
(34.0423 2.67046 -9.93549e-18)
(33.879 2.75223 9.45539e-18)
(33.0697 2.72447 -2.74612e-17)
(29.9362 2.52063 3.21023e-17)
(30.1916 2.64708 -6.04611e-17)
(32.9659 2.8103 5.03041e-17)
(33.7306 2.83449 -4.31766e-17)
(33.5795 2.79809 -1.13803e-18)
(32.949 2.87618 5.30269e-19)
(30.5825 2.83785 -3.0137e-17)
(31.3249 3.01955 -3.7383e-17)
(32.844 2.89277 1.35818e-17)
(33.5284 2.86956 1.65398e-17)
(33.3354 3.11354 -4.54293e-18)
(32.9565 3.21816 0)
(31.257 3.31332 -1.82347e-18)
(30.8523 3.46442 6.48528e-18)
(32.6072 3.27514 -3.09681e-18)
(32.9421 3.18983 1.44129e-18)
(32.5229 3.2519 -5.38597e-18)
(32.2853 3.3375 1.43699e-17)
(30.6161 3.59045 -1.79336e-17)
(30.295 3.70947 2.27767e-17)
(31.9037 3.40511 1.06088e-17)
(32.051 3.33767 0)
(31.5614 3.35222 -7.6126e-18)
(31.4251 3.46555 -1.40517e-17)
(29.881 3.82679 -2.53973e-17)
(29.314 3.88719 0)
(30.9901 3.44766 8.6745e-18)
(31.1798 3.49549 -1.35458e-21)
(30.7879 3.48966 6.95895e-18)
(30.5656 3.51113 -9.13482e-18)
(28.8871 4.10606 -1.33606e-17)
(28.4134 4.27441 1.24231e-17)
(30.0588 3.58553 2.49216e-18)
(30.2316 3.54903 1.09273e-17)
(29.5657 3.61957 1.49072e-18)
(29.3646 3.66852 -1.32225e-17)
(27.8256 4.48885 1.20785e-17)
(27.156 4.69653 3.58725e-17)
(28.5057 3.59942 1.28584e-17)
(28.7364 3.54393 -2.71145e-17)
(27.7036 3.55108 1.61673e-18)
(27.5365 3.62624 0)
(26.4383 4.89809 -1.20077e-17)
(25.7868 5.01676 1.25395e-20)
(26.4613 3.55362 1.95513e-17)
(26.668 3.35054 -3.64695e-17)
(25.4201 3.19954 1.96739e-17)
(25.3053 3.4814 6.36316e-18)
(25.1261 5.22696 -4.69996e-17)
(24.4154 5.35141 6.3935e-17)
(24.2605 3.22709 -1.70358e-17)
(24.2645 2.85429 0)
(23.3867 2.8593 -2.50538e-17)
(23.3363 3.06993 1.12976e-17)
(23.5155 5.35344 -7.47901e-17)
(22.6621 5.32205 0)
(22.281 2.88871 -1.21123e-17)
(22.4031 2.47624 6.88845e-17)
(21.1584 2.51248 0)
(21.1511 2.895 2.59446e-17)
(21.8138 5.37927 -1.75604e-17)
(20.9471 5.35436 3.79015e-17)
(20.1543 2.6262 3.30439e-17)
(20.0751 2.07082 3.2035e-17)
(19.1413 2.05908 -1.38188e-17)
(19.1487 2.45736 2.2352e-17)
(19.9093 5.2655 -8.96545e-17)
(18.8649 5.17907 1.17897e-17)
(17.9873 2.23541 -1.22808e-21)
(18.0257 1.76862 -2.05786e-17)
(16.8504 0.894445 -6.76322e-21)
(16.662 1.60901 9.99851e-18)
(17.7202 4.92674 1.17385e-17)
(16.3134 4.52709 0)
(15.1561 0.830599 -9.8548e-18)
(15.3388 -0.190405 -3.71892e-17)
(13.7513 -1.38233 6.19078e-17)
(13.5723 -0.171709 -1.20447e-17)
(14.6531 3.76264 1.22421e-17)
(12.6657 2.57527 0)
(11.9071 -1.21034 -1.39666e-17)
(12.4541 -2.25837 8.2488e-18)
(11.0682 -3.97432 5.48526e-18)
(10.0282 -2.82095 0)
(10.4227 0.818072 1.26573e-17)
(7.99743 -1.37942 -1.20825e-17)
(8.03967 -5.2107 2.1843e-17)
(9.32239 -6.97246 1.60252e-17)
(6.97975 -10.8585 -2.6848e-17)
(5.61909 -8.95664 0)
(4.45705 -5.25471 3.70804e-17)
(0.665942 -9.8596 -7.51748e-17)
(3.43751 -12.8627 -1.49185e-17)
(5.57946 -14.0877 1.68775e-17)
(5.48272 -19.7218 4.33574e-17)
(2.3581 -18.705 -8.59301e-17)
(-3.11 -16.5741 3.40378e-17)
(-6.14707 -25.5869 0)
(1.42212 -26.3587 2.80197e-17)
(4.56904 -26.5723 0)
(6.36023 -32.9395 -4.65601e-20)
(2.36365 -33.8842 -5.77579e-17)
(-8.46521 -36.5095 0)
(-6.80699 -49.6321 4.2439e-17)
(7.54254 -43.5704 0)
(11.0603 -41.6276 0)
(16.2134 -49.4749 6.26337e-18)
(13.4233 -52.2892 -7.94408e-18)
(-2.98216 -64.3204 -5.80547e-17)
(5.37659 -76.7557 3.35218e-17)
(24.3887 -59.0937 -2.34112e-17)
(23.8012 -56.365 -2.46966e-17)
(35.2808 -61.8063 -1.71872e-17)
(35.238 -67.0305 -1.94964e-17)
(18.3517 -84.6253 -2.90579e-17)
(32.6488 -81.994 3.22251e-17)
(47.4337 -64.5933 6.76933e-17)
(43.9462 -63.3986 -2.31955e-17)
(53.8782 -60.1571 1.14476e-16)
(55.9864 -58.8353 -1.04108e-16)
(41.175 -70.6449 5.14611e-17)
(45.0311 -56.6579 0)
(60.814 -50.6402 0)
(59.0278 -54.7339 -9.08586e-17)
(61.2464 -49.657 3.16812e-17)
(61.246 -43.8182 0)
(43.7484 -43.4592 1.77039e-17)
(41.3156 -32.8468 -3.41914e-17)
(60.3738 -38.7137 0)
(62.9709 -46.0211 2.63709e-17)
(62.973 -40.8215 -2.62085e-17)
(58.7576 -34.617 1.19633e-17)
(39.2406 -26.1006 -3.33214e-17)
(37.6821 -21.6896 0)
(56.5573 -31.4372 1.17443e-20)
(62.0862 -37.1376 1.54786e-17)
(62.8287 -35.2166 -2.45018e-17)
(55.5154 -29.1289 3.70481e-17)
(36.3101 -17.9224 -3.22047e-17)
(35.2104 -15.1603 0)
(54.2106 -26.6194 1.02881e-17)
(62.3076 -31.7956 -3.04217e-17)
(60.8642 -28.7451 0)
(52.2441 -24.5988 -1.13965e-17)
(33.9462 -13.2554 -9.47429e-17)
(32.4045 -11.6668 1.13391e-16)
(50.0197 -23.0357 -2.64493e-17)
(59.2045 -26.4121 0)
(60.0864 -25.8738 0)
(50.574 -22.226 0)
(31.3551 -10.3109 5.01727e-20)
(30.7695 -9.49038 -5.63431e-17)
(49.6451 -20.787 0)
(59.6575 -24.0357 -2.80042e-17)
(58.364 -22.2009 0)
(48.2176 -19.6419 0)
(30.028 -8.84542 -5.76538e-17)
(29.0768 -8.13484 5.79371e-17)
(46.816 -18.8611 -2.28038e-17)
(57.1081 -20.6875 2.8296e-17)
(58.2544 -20.7991 3.2516e-20)
(48.2962 -18.3561 4.00289e-17)
(29.6657 -7.50569 -2.57843e-17)
(31.2858 -7.40717 4.42308e-17)
(49.048 -17.8913 2.93568e-21)
(58.1044 -19.7552 -6.68961e-17)
(59.7622 -20.6128 9.20059e-17)
(51.6558 -18.0499 -2.28051e-17)
(33.8833 -7.62292 0)
(34.5986 -7.77687 0)
(51.9958 -17.6633 1.62871e-17)
(59.9997 -19.5338 -2.33029e-17)
(59.1626 -18.2156 0)
(51.1318 -17.1903 -2.51205e-17)
(33.8335 -7.92229 0)
(33.163 -7.94213 -1.60485e-17)
(49.8717 -16.5944 6.51042e-17)
(58.1086 -17.1428 -1.11698e-17)
(58.8713 -17.7668 -7.34532e-17)
(50.855 -15.9983 3.12939e-17)
(34.3275 -7.87231 0)
(34.3298 -8.0015 0)
(50.4036 -15.3521 2.45314e-17)
(58.4442 -16.9934 4.0337e-21)
(57.0059 -16.0518 -1.29745e-17)
(49.1596 -14.7618 2.08139e-17)
(33.9832 -8.22669 -2.86587e-17)
(33.3894 -8.20421 6.12259e-17)
(47.8482 -14.3381 -4.21334e-17)
(55.5776 -15.3161 -1.03403e-17)
(56.1082 -15.8753 8.02451e-18)
(48.7182 -14.0389 1.47951e-17)
(34.4701 -8.22802 -2.82521e-17)
(34.8737 -8.56306 0)
(48.501 -13.6812 -1.14358e-17)
(55.8571 -15.5674 2.24195e-17)
(54.8098 -14.969 -7.1523e-18)
(47.806 -13.2802 3.11272e-18)
(34.9952 -8.89396 0)
(34.8858 -9.11826 6.07401e-17)
(46.722 -12.8767 -3.63724e-17)
(53.5103 -14.3564 -1.19109e-17)
(52.2973 -13.8572 -2.17252e-17)
(45.7586 -12.6287 2.27334e-17)
(34.3984 -9.1585 -1.6794e-17)
(35.3657 -9.20811 -3.22891e-17)