/*--------------------------------*- C++ -*----------------------------------*\
| =========                 |                                                 |
| \\      /  F ield         | OpenFOAM: The Open Source CFD Toolbox           |
|  \\    /   O peration     | Version:  v2006                                 |
|   \\  /    A nd           | Website:  www.openfoam.com                      |
|    \\/     M anipulation  |                                                 |
\*---------------------------------------------------------------------------*/
FoamFile
{
    version     2.0;
    format      ascii;
    class       volScalarField;
    location    "0.025";
    object      yPlus;
}
// * * * * * * * * * * * * * * * * * * * * * * * * * * * * * * * * * * * * * //

dimensions      [0 0 0 0 0 0 0];


internalField   uniform 0;

boundaryField
{
    bottomEmptyFaces
    {
        type            empty;
    }
    topEmptyFaces
    {
        type            empty;
    }
    inlet
    {
        type            calculated;
        value           uniform 0;
    }
    outlet
    {
        type            calculated;
        value           uniform 0;
    }
    walls
    {
        type            calculated;
        value           nonuniform List<scalar> 
900
(
24.2005
24.2422
24.236
24.2761
24.2694
24.3092
24.3018
24.3419
24.3341
24.3748
24.366
24.4049
24.3974
24.434
24.4275
24.4642
24.4571
24.4947
24.4869
24.5236
24.5157
24.551
24.5432
24.5776
24.5693
24.603
24.5942
24.6267
24.6176
24.6487
24.6395
24.6691
24.6594
24.6875
24.6775
24.7042
24.6939
24.7195
24.709
24.7337
24.7232
24.7472
24.7366
24.7599
24.7492
24.7719
24.761
24.7828
24.7717
24.7927
24.7814
24.8015
24.7899
24.8094
24.7977
24.8165
24.8047
24.8232
24.8113
24.8294
24.8175
24.8353
24.8234
24.8408
24.8288
24.8461
24.834
24.851
24.8388
24.8556
24.8434
24.8599
24.8475
24.8638
24.8513
24.8673
24.8547
24.8705
24.8579
24.8736
24.8608
24.8763
24.8635
24.8787
24.8658
24.8809
24.8679
24.8829
24.8699
24.8847
24.8717
24.8864
24.8734
24.888
24.8749
24.8894
24.8763
24.8908
24.8778
24.8922
24.8792
24.8937
24.8808
24.8953
24.8823
24.8968
24.8839
24.8982
24.8853
24.8998
24.887
24.9015
24.8887
24.9031
24.8903
24.9044
24.8915
24.9057
24.893
24.9072
24.8946
24.909
24.8964
24.9107
24.8981
24.9126
24.9004
24.9152
24.9035
24.9191
24.9076
24.9239
24.9127
24.9301
24.9192
24.956
24.9586
25.0067
25.0944
25.311
25.8385
26.8569
29.0429
31.5717
70.7233
79.1781
83.0986
107.487
122.302
63.1153
54.329
56.7844
58.1761
43.0998
40.3163
50.3087
44.5447
45.4057
64.1401
68.1156
138.446
149.218
126.945
132.852
111.175
89.9423
99.943
86.7081
76.1238
68.2569
70.2207
67.1722
62.8231
57.7724
60.7687
56.7138
16.6749
14.6905
12.3917
12.5402
9.62209
14.9732
15.4607
12.8951
12.2834
9.83434
12.6668
12.5114
9.95515
15.4858
12.9928
14.9058
12.683
12.1489
10.0844
14.1015
15.0429
12.8456
11.7104
10.1043
12.1366
10.0817
15.5002
13.3822
14.1161
11.9296
10.5984
15.8555
13.7659
15.5886
13.3814
11.9995
10.7007
12.6384
11.0967
14.306
12.7897
11.3191
16.0014
13.0988
11.1207
13.5598
12.5016
10.6398
24.044
21.0447
18.124
17.1897
22.2458
18.7012
17.9415
22.8714
19.7422
18.7234
24.8542
21.798
16.1945
13.5659
12.8776
16.4798
13.7146
13.1306
22.9362
23.5156
19.333
18.6685
25.0587
22.0362
19.0904
18.1193
19.8582
18.9466
18.6392
17.5696
19.6702
17.1464
17.7115
14.4775
13.7445
17.252
14.462
13.8268
17.5194
14.6543
14.0457
16.6541
13.9819
13.3389
16.9447
14.2198
13.5414
17.793
15.0479
14.3416
18.249
15.7384
14.7865
15.8517
13.735
14.3293
11.9336
10.9786
14.8438
15.2592
12.7256
11.785
12.3206
11.3359
17.029
14.873
15.702
15.3686
12.6812
11.8326
12.9761
12.2322
29.4064
26.2572
16.2451
14.0959
12.3678
11.3911
15.2486
13.032
12.1486
14.9498
12.6814
11.8843
13.1165
12.0922
15.6673
13.6076
12.5128
15.7097
14.5478
12.1971
11.0196
12.7657
11.4928
29.4351
23.1108
21.635
13.5382
12.0407
10.9033
14.4938
12.7325
11.5216
26.3516
23.6183
21.8761
30.1336
27.0542
30.2888
23.8726
22.389
16.4007
17.8136
16.6664
13.8139
13.0615
14.2513
13.3449
16.0954
13.3174
12.5246
13.5807
12.8112
15.4308
13.0973
12.2377
16.0066
13.3568
12.8006
24.2569
21.0674
19.9932
25.0985
26.5551
54.4511
23.4756
20.3604
19.1752
53.2193
54.4269
51.2905
53.3025
56.4637
51.9812
50.5275
48.2383
25.4761
22.4352
21.1848
28.2787
24.9252
27.3549
21.8185
20.6154
23.8178
18.3645
15.3828
20.4713
19.2825
50.1545
23.478
44.8373
19.7673
40.114
41.3162
39.8842
18.9675
33.2115
15.6285
19.9297
49.4302
42.5834
38.1854
37.1134
62.5143
62.8021
70.11
64.7089
27.3817
24.155
21.4582
20.1239
21.5759
20.324
26.5373
23.2202
21.8447
12.9198
14.3257
9.52536
17.6613
15.4356
16.131
13.5543
12.7254
13.217
9.46508
16.5603
13.7143
10.1384
13.7826
13.556
10.3432
71.9611
68.5343
63.8722
59.6239
56.9198
52.493
31.2755
48.2229
46.9824
43.728
29.1119
48.8151
46.0085
26.3407
23.9
40.3476
22.1871
35.2209
30.8118
23.4405
14.3528
27.8754
27.0721
24.4463
22.6452
32.483
30.809
27.5085
25.1702
23.2509
33.809
25.9458
23.4411
31.6281
28.3275
12.5342
11.3032
10.2396
9.30991
11.1844
7.50164
33.0747
13.9428
31.8384
12.6549
30.7862
11.8067
11.2283
28.8218
10.851
26.9283
24.851
35.5946
10.5747
10.3774
35.1657
10.1144
9.94713
9.76495
9.66241
34.424
33.2662
31.7245
29.3932
35.1047
9.52071
9.42769
34.0563
9.28687
34.1865
9.12745
27.4667
25.213
8.97879
25.4306
23.8632
8.92429
8.80813
8.75264
8.5906
8.55229
8.42738
8.43516
8.33429
8.26272
8.17
8.1331
8.03261
8.00754
7.92174
7.91115
7.83749
7.8329
7.76627
7.7648
7.70196
7.70224
7.64195
7.64311
7.58458
7.58645
7.52956
7.53194
7.47647
7.47936
7.42534
7.42865
7.37596
7.37972
7.32834
7.33241
7.28221
7.28677
7.23778
7.24274
7.19481
7.20021
7.15332
7.15906
7.11306
7.11918
7.07412
7.08057
7.03636
7.04323
6.99991
7.00708
6.96447
6.97205
6.93019
6.93805
6.89681
6.90506
6.86452
6.87304
6.83307
6.84199
6.80265
6.81178
6.77298
6.78252
6.74422
6.75397
6.71634
6.72641
6.68906
6.69951
6.66309
6.67377
6.63731
6.64845
6.61378
6.62472
6.58872
6.60091
6.56545
6.57648
6.54594
6.61605
6.62532
6.69639
6.71148
6.79382
6.74487
6.41496
8.42197
5.34714
34.1745
33.9507
34.1414
33.8678
33.5767
33.3385
32.7681
31.9901
31.2282
30.4214
29.7061
28.9973
28.3838
27.7916
27.2774
26.803
26.3791
26.007
25.6624
25.3694
25.0915
24.8669
24.6418
24.4868
24.3028
24.2123
24.0624
24.0204
23.902
23.8883
23.8015
23.806
23.7473
23.7637
23.7261
23.7496
23.7259
23.7545
23.7405
23.7724
19.5471
19.7848
16.3087
15.6928
23.7621
23.801
23.792
23.8347
23.8261
23.8705
23.8629
23.9077
20.4074
17.2343
16.5231
23.9004
23.946
23.9383
23.9853
23.978
24.0238
24.0168
24.0616
19.345
16.2053
15.6934
24.0544
20.2793
24.0984
21.7432
17.4151
16.4823
16.6307
15.907
18.8119
15.7629
14.9165
24.0921
24.1347
19.8634
16.5726
15.9907
24.1279
19.6958
16.309
15.7074
20.1469
16.8009
16.1876
24.1708
24.1626
24.2078
18.3843
18.6216
15.3377
14.733
17.9786
18.1232
14.9536
14.3848
14.8117
14.1793
15.1674
14.5103
18.9035
19.1881
15.8334
15.2194
15.5433
14.8967
16.0885
15.392
21.2677
21.4389
18.6024
17.5426
20.9529
17.5936
16.8781
23.264
20.2803
17.2177
16.2303
22.0311
21.7048
17.8248
17.2679
18.1005
17.469
22.4848
18.5387
17.8495
19.2315
18.2796
34.18
11.2492
52.9997
48.2575
44.6517
42.5239
40.678
39.4356
38.3724
37.6374
36.8956
36.3929
35.8362
35.4688
35.0297
34.7436
34.3838
34.1484
33.8427
33.6408
33.3717
33.193
32.951
32.7893
32.5673
32.418
32.2112
32.0712
31.8762
31.7431
31.5573
31.4296
31.251
31.1274
30.9545
30.8338
30.6652
30.5466
30.3811
30.2638
30.1006
29.984
29.8223
29.7057
29.5445
29.4274
29.266
29.1477
28.9854
28.8653
28.7013
28.5789
28.4124
28.2872
28.1175
27.9889
27.8152
27.6826
27.5041
27.3668
27.1827
27.0401
26.8493
26.7006
26.5022
26.3466
26.1396
25.9764
25.7598
25.5882
25.3611
25.1803
24.9416
24.7509
24.4995
24.2983
24.0333
23.8208
23.5413
23.3171
23.0225
22.7862
22.4761
22.2279
21.9024
21.6429
21.3031
21.0335
20.6816
20.4046
20.0436
19.7628
19.3976
19.1181
18.7551
18.4839
18.1315
17.877
17.545
17.3162
17.0148
16.8202
16.5581
16.404
16.1874
16.0771
15.9082
15.8397
15.7172
15.6824
15.6097
15.6015
15.5676
15.5705
15.5564
15.5691
15.5665
15.5862
15.5918
15.6202
15.6303
15.6641
15.6761
15.7115
15.7246
15.7601
15.7738
15.8088
15.8241
15.86
15.8767
15.9107
15.9275
15.9598
15.9757
16.0056
16.0206
16.0483
16.0624
16.0883
16.1016
16.1259
16.1383
16.1609
16.1725
16.1933
16.2036
16.2224
16.2316
16.2485
16.2565
16.2714
16.2781
16.291
16.2963
16.3073
16.3112
16.3205
16.3228
16.3304
16.3286
16.3397
16.3216
16.3979
16.4527
16.737
16.8563
17.04
17.2564
17.593
58.947
)
;
    }
    rightWall
    {
        type            calculated;
        value           uniform 0;
    }
    symmetryLine
    {
        type            symmetryPlane;
    }
}


// ************************************************************************* //
