/*--------------------------------*- C++ -*----------------------------------*\
| =========                 |                                                 |
| \\      /  F ield         | OpenFOAM: The Open Source CFD Toolbox           |
|  \\    /   O peration     | Version:  v2006                                 |
|   \\  /    A nd           | Website:  www.openfoam.com                      |
|    \\/     M anipulation  |                                                 |
\*---------------------------------------------------------------------------*/
FoamFile
{
    version     2.0;
    format      ascii;
    class       volScalarField;
    location    "0.02";
    object      nut;
}
// * * * * * * * * * * * * * * * * * * * * * * * * * * * * * * * * * * * * * //

dimensions      [0 2 -1 0 0 0 0];


internalField   nonuniform List<scalar> 
10108
(
32.9155
37.8416
91.7666
41.3889
47.9621
16.2158
3.52997
1.27804
0.686252
0.479085
0.387398
0.337268
0.303691
0.277417
0.255208
0.236021
0.219464
0.205248
0.193048
0.182528
0.173397
0.165393
0.158293
0.15198
0.146357
0.141303
0.136743
0.13262
0.128914
0.125611
0.122672
0.120078
0.1178
0.115805
0.114087
0.11264
0.11146
0.110547
0.109902
0.109528
0.109433
0.109629
0.110129
0.110955
0.112132
0.113697
0.115698
0.118199
0.121286
0.125063
0.129646
0.135133
0.141574
0.149017
0.157652
0.168581
0.185411
0.218038
0.290738
0.462438
0.85826
1.54126
1.91143
3.18431
1.22594
0.633454
0.340395
0.184216
0.0828535
0.0167993
0.00309199
0.000104021
9.00814e-05
0.00151714
0.00666348
0.00424029
0.00110979
8.08717e-05
7.27495e-05
0.000967522
0.00340733
0.00290527
0.000879744
6.84166e-05
6.37458e-05
0.000801175
0.00258789
0.00233585
0.000755064
6.06371e-05
5.8032e-05
0.000714732
0.00219452
0.00204452
0.000682584
5.58051e-05
5.43474e-05
0.000668611
0.00197138
0.00186158
0.000642081
5.28147e-05
5.18478e-05
0.000634427
0.00182084
0.00173929
0.00061305
5.06828e-05
4.99903e-05
0.000608174
0.00170984
0.00164397
0.000590284
4.90758e-05
4.85471e-05
0.000586667
0.00162136
0.00156538
0.000571404
4.78058e-05
4.73831e-05
0.000568205
0.00154734
0.00149829
0.000554954
4.67593e-05
4.64055e-05
0.000552105
0.00148359
0.00143973
0.000540322
4.58624e-05
4.55583e-05
0.000537748
0.00142746
0.00138777
0.000527075
4.5075e-05
4.48063e-05
0.000524699
0.00137707
0.00134091
0.000514873
4.4367e-05
4.4124e-05
0.00051267
0.0013314
0.00129813
0.000503524
4.37178e-05
4.34943e-05
0.00050148
0.00128954
0.00125867
0.000492888
4.31139e-05
4.29054e-05
0.000490991
0.00125086
0.00122203
0.000482862
4.25456e-05
4.2349e-05
0.000481096
0.00121486
0.00118778
0.000473356
4.20055e-05
4.18184e-05
0.000471705
0.00118117
0.00115557
0.000464289
4.14878e-05
4.13082e-05
0.000462735
0.00114947
0.00112518
0.000455589
4.09875e-05
4.08136e-05
0.000454116
0.0011195
0.00109635
0.000447191
4.05002e-05
4.03303e-05
0.000445788
0.00109102
0.00106885
0.000439043
4.00218e-05
3.98548e-05
0.0004377
0.0010638
0.00104249
0.000431095
3.9549e-05
3.93835e-05
0.000429803
0.00103767
0.00101711
0.000423303
3.90785e-05
3.89133e-05
0.000422056
0.00101247
0.00099256
0.000415629
3.86072e-05
3.84416e-05
0.000414418
0.00098806
0.000968709
0.000408034
3.81327e-05
3.79657e-05
0.000406847
0.000964306
0.000945432
0.000400475
3.76524e-05
3.74831e-05
0.000399298
0.000941081
0.000922596
0.000392904
3.71635e-05
3.69911e-05
0.000391721
0.00091825
0.000900068
0.000385273
3.66633e-05
3.64867e-05
0.000384068
0.000895676
0.000877708
0.000377529
3.61487e-05
3.59667e-05
0.000376281
0.000873215
0.000855368
0.000369613
3.5616e-05
3.54274e-05
0.000368282
0.000850712
0.000832883
0.000361451
3.50611e-05
3.48642e-05
0.000360019
0.000827999
0.000810087
0.000352984
3.44791e-05
3.42722e-05
0.000351433
0.000804915
0.000786731
0.000344148
3.38645e-05
3.36458e-05
0.000342449
0.000781263
0.000762716
0.000334856
3.32116e-05
3.29788e-05
0.000332973
0.000756888
0.000737806
0.000325001
3.2514e-05
3.22639e-05
0.000322873
0.000731519
0.000711654
0.000314421
3.17643e-05
3.14916e-05
0.000311944
0.000704763
0.000683759
0.000302864
3.09533e-05
3.06481e-05
0.000299892
0.000676066
0.000653643
0.00028999
3.00656e-05
2.97181e-05
0.000286283
0.000644705
0.000620276
0.00027535
2.90773e-05
2.86763e-05
0.000270282
0.000609334
0.000581738
0.000257734
2.79271e-05
2.74797e-05
0.00025068
0.000567428
0.000536066
0.000235489
2.65277e-05
2.59861e-05
0.000225233
0.000513837
0.000477791
0.000205772
2.47362e-05
2.34228e-05
0.000187619
0.000440399
0.00039527
0.000161024
2.26583e-05
1.46933e-05
0.000102912
0.000319354
0.000202904
4.36087e-05
8.46505e-06
1.49027e-05
5.72994e-05
0.000148796
0.000150896
0.000125028
2.24176e-05
2.63468e-05
0.000196616
0.000239522
0.000315503
0.000238803
2.76032e-05
2.69439e-05
0.000265081
0.000371598
0.000416926
0.000260712
2.19289e-05
1.67657e-05
0.000237107
0.000455892
0.000421815
0.000175853
1.23374e-05
1.11735e-05
0.000153306
0.000439553
0.000396325
0.000126825
1.09798e-05
1.28429e-05
0.000147941
0.000450345
0.00044216
0.000138212
1.37799e-05
1.59408e-05
0.000172922
0.000523195
0.000526733
0.00016879
1.68033e-05
1.82646e-05
0.000208446
0.000614721
0.000615316
0.000204378
1.82467e-05
1.90013e-05
0.000229533
0.000677433
0.000654569
0.000220217
1.79114e-05
1.79012e-05
0.000228149
0.000678141
0.000637334
0.000214192
1.66195e-05
1.65873e-05
0.000218521
0.000646677
0.000614292
0.00020839
1.574e-05
1.60878e-05
0.000215751
0.000629921
0.000612864
0.000210989
1.56764e-05
1.64165e-05
0.000223865
0.000643168
0.000640668
0.000223706
1.62482e-05
1.71216e-05
0.00023926
0.000679594
0.000685011
0.000241318
1.69261e-05
1.7787e-05
0.000257014
0.000724019
0.000734527
0.000260754
1.74393e-05
1.78625e-05
0.000271473
0.00076183
0.000766584
0.000272331
1.85212e-05
1.97322e-05
0.000278486
0.000785566
0.000787137
0.000278451
2.05156e-05
2.18245e-05
0.000284214
0.000804096
0.000803661
0.000283346
2.25955e-05
2.38441e-05
0.000287726
0.000816455
0.000814885
0.00028633
2.46532e-05
2.58258e-05
0.000289471
0.000824032
0.000821603
0.000287616
2.66743e-05
2.77907e-05
0.0002894
0.000826984
0.000823394
0.000287509
2.78564e-05
2.63539e-05
0.000288362
0.000824535
0.000814944
0.000285535
2.47761e-05
2.36422e-05
0.000283955
0.000808611
0.000792296
0.000278889
2.23213e-05
2.15881e-05
0.000276605
0.000783779
0.000769178
0.000271077
2.05889e-05
2.03866e-05
0.000272643
0.000766138
0.000764191
0.000272054
1.96858e-05
1.93769e-05
0.000264032
0.000737007
0.000759251
0.000275364
1.90705e-05
2.64401e-05
0.000270515
0.000752455
0.00173993
0.00248459
0.00232458
0.00186612
0.00158439
0.00136436
0.00118334
0.00107486
0.00101892
0.00099124
0.000963745
0.000937298
0.000899832
0.000847
0.000787064
0.000705478
0.000607915
0.000504599
0.000474926
0.000343403
0.000151874
9.32925e-05
8.50629e-05
5.20054e-05
1.51007e-05
8.83616e-06
8.19095e-06
3.09727e-06
8.42272e-06
1.71512e-05
9.37612e-06
4.83665e-06
1.37218e-06
2.211e-06
7.77094e-06
1.50206e-05
1.71647e-05
7.65819e-06
2.28271e-06
2.28119e-06
8.35007e-06
2.00195e-05
2.48396e-05
8.61065e-06
2.14447e-06
2.13893e-06
9.86602e-06
3.22546e-05
4.04633e-05
1.11257e-05
2.06598e-06
2.13746e-06
1.39578e-05
5.25378e-05
6.03667e-05
1.65456e-05
2.11949e-06
2.32323e-06
2.10115e-05
7.40854e-05
7.48263e-05
2.3748e-05
2.47307e-06
2.76354e-06
2.78427e-05
8.40543e-05
8.21499e-05
2.86307e-05
2.93017e-06
3.19669e-06
3.1459e-05
8.96927e-05
8.74727e-05
3.11916e-05
3.34532e-06
3.62966e-06
3.41141e-05
9.50996e-05
9.29589e-05
3.35451e-05
3.78959e-06
4.1121e-06
3.64986e-05
0.000100433
9.83976e-05
3.57212e-05
4.30384e-06
4.67237e-06
3.86571e-05
0.000106323
0.000104542
3.76361e-05
4.89091e-06
5.28912e-06
4.04786e-05
0.000113435
0.000111891
3.91836e-05
5.5523e-06
6.01939e-06
4.23157e-05
0.000122537
0.000121384
4.11252e-05
6.36358e-06
6.93652e-06
4.50694e-05
0.000134613
0.000133923
4.42816e-05
7.30522e-06
7.72635e-06
4.93541e-05
0.000149897
0.000149417
4.87969e-05
7.97524e-06
8.38178e-06
5.45592e-05
0.00016717
0.000166397
5.38884e-05
8.59552e-06
8.96312e-06
5.99982e-05
0.000185092
0.000183687
5.90592e-05
9.13298e-06
9.46266e-06
6.52258e-05
0.00020278
0.000200444
6.38634e-05
9.60382e-06
9.91386e-06
7.02389e-05
0.000220451
0.000217295
6.85064e-05
1.00376e-05
1.03433e-05
7.51422e-05
0.000238527
0.000234605
7.30411e-05
1.04655e-05
1.07856e-05
8.00934e-05
0.00025739
0.000253083
7.76971e-05
1.09195e-05
1.12789e-05
8.55357e-05
0.000278608
0.000274752
8.31038e-05
1.14488e-05
1.18793e-05
9.24555e-05
0.00030442
0.000302201
9.04849e-05
1.20838e-05
1.25349e-05
0.000103446
0.000339986
0.000337851
0.000101538
1.26446e-05
1.306e-05
0.000116829
0.000382032
0.000377515
0.000113551
1.31501e-05
1.38447e-05
0.000131566
0.000429445
0.000427781
0.000132077
1.40872e-05
1.48003e-05
0.000147724
0.000481407
0.000487024
0.000155165
1.5293e-05
1.6116e-05
0.000173829
0.000544884
0.000548561
0.00017501
1.66488e-05
1.78511e-05
0.000202015
0.00062057
0.000620757
0.000198815
1.8726e-05
2.11728e-05
0.000231267
0.000692545
0.000707854
0.000235317
2.38424e-05
3.12232e-05
0.000283525
0.000796105
0.000800788
0.000337229
2.63778e-05
1.41259e-05
7.46683e-05
0.000270697
0.000745348
0.000250975
2.16061e-05
2.53365e-05
0.000249987
0.000772725
0.000977793
0.0003394
3.22243e-05
3.75707e-05
0.000370017
0.0010528
0.00119941
0.000428713
4.88191e-05
5.83073e-05
0.000481292
0.00134494
0.00134798
0.000537689
4.75915e-05
1.83695e-05
0.000164408
0.000552754
0.00120197
0.000433271
3.63532e-05
4.48403e-05
0.000480677
0.00135842
0.00156547
0.000561973
5.64125e-05
4.45574e-05
0.000545753
0.00147912
0.00100294
0.000346084
2.34413e-05
4.95697e-05
0.000560465
0.00151057
0.00204774
0.000875571
8.47141e-05
5.71543e-05
0.000497584
0.00123782
0.00112842
0.000804841
7.69807e-05
7.27396e-05
0.000718016
0.00094901
0.000862456
0.000528152
4.03502e-05
3.86948e-05
0.000593334
0.00114333
0.00195225
0.00128825
6.60403e-05
5.41061e-05
0.000236902
0.000636389
0.00107289
0.00048496
5.83547e-05
6.34376e-05
0.000380207
0.000892458
0.000291992
0.000116278
3.33197e-05
3.87618e-05
0.000319424
0.000604888
0.000556497
0.000274679
4.41865e-05
2.46878e-05
9.41006e-05
0.000218055
0.000489841
0.000271308
2.99598e-05
3.4458e-05
0.00023169
0.000452234
0.000180854
8.07889e-05
2.03555e-05
2.51302e-05
0.000238057
0.000426859
0.000395696
0.000204116
2.93909e-05
1.83044e-05
7.21925e-05
0.00015814
0.00037636
0.000210463
2.20494e-05
2.58651e-05
0.000179368
0.000347018
0.000138766
6.49274e-05
1.68056e-05
1.98948e-05
0.000187963
0.000336282
0.000310185
0.000160322
2.36636e-05
1.58418e-05
5.86008e-05
0.000123862
0.000302565
0.000167486
1.81435e-05
2.17556e-05
0.00014208
0.000275325
0.00011035
5.33559e-05
1.49394e-05
1.68935e-05
0.00014992
0.000274197
0.000249722
0.000129199
2.01491e-05
1.42552e-05
4.95867e-05
0.000100685
0.000247112
0.000134636
1.59091e-05
1.8966e-05
0.0001169
0.000223434
9.15259e-05
4.62348e-05
1.37915e-05
1.50059e-05
0.000122828
0.000223423
0.000203322
0.00010652
1.79875e-05
1.33207e-05
4.25092e-05
8.39642e-05
0.000196708
0.000111016
1.39333e-05
1.67409e-05
9.41676e-05
0.000177298
7.29017e-05
3.60197e-05
1.24511e-05
1.22734e-05
0.000110666
0.000157075
8.49565e-05
4.73084e-05
1.44909e-05
1.45035e-05
0.000110658
0.000201604
0.000174587
9.33376e-05
1.71241e-05
1.27677e-05
3.9102e-05
7.53417e-05
0.000161774
9.44979e-05
1.28214e-05
1.57472e-05
8.2557e-05
0.000146688
6.49909e-05
3.33139e-05
1.19584e-05
1.13932e-05
9.41292e-05
0.000132182
7.43754e-05
4.2914e-05
1.38702e-05
1.34256e-05
9.68199e-05
0.000170283
0.000148195
8.25666e-05
1.60499e-05
1.21055e-05
3.51307e-05
6.69177e-05
0.000132253
9.14512e-05
1.14973e-05
1.37258e-05
4.46662e-05
7.53466e-05
0.000172473
9.74162e-05
1.31072e-05
1.58475e-05
8.28155e-05
0.000148292
6.62214e-05
3.49893e-05
1.20761e-05
1.13134e-05
9.16459e-05
0.000126655
7.43663e-05
4.42735e-05
1.35995e-05
1.27506e-05
9.00226e-05
0.000152427
0.000135198
7.91044e-05
1.56832e-05
1.20643e-05
3.50432e-05
6.2384e-05
0.000115994
8.89014e-05
1.09725e-05
1.3344e-05
4.36668e-05
6.87593e-05
0.000145625
8.55547e-05
1.24546e-05
1.54364e-05
7.32728e-05
0.000126196
5.99769e-05
3.56692e-05
1.18662e-05
1.07188e-05
8.23859e-05
0.000107975
6.60594e-05
4.29958e-05
1.32011e-05
1.21101e-05
7.8836e-05
0.000126408
0.000111608
6.79596e-05
1.51809e-05
1.17369e-05
3.55902e-05
5.60628e-05
9.50973e-05
7.63347e-05
1.03256e-05
1.28192e-05
4.238e-05
6.0207e-05
0.000107216
8.11962e-05
1.11089e-05
1.33532e-05
4.42608e-05
6.63294e-05
0.000123774
7.50379e-05
1.21025e-05
1.49813e-05
6.43764e-05
0.00010667
5.46685e-05
3.62907e-05
1.14798e-05
1.01288e-05
7.30055e-05
9.02746e-05
5.84329e-05
4.28475e-05
1.27402e-05
1.10502e-05
7.56789e-05
0.000100649
6.38074e-05
4.40804e-05
1.32632e-05
1.1809e-05
7.25509e-05
0.000114771
9.9772e-05
6.30518e-05
1.47783e-05
1.15049e-05
3.73298e-05
5.3627e-05
8.31058e-05
6.92515e-05
1.00719e-05
1.26911e-05
4.33878e-05
5.59543e-05
9.01412e-05
7.2504e-05
1.07097e-05
1.28682e-05
4.53477e-05
6.01005e-05
9.88995e-05
7.37983e-05
1.09184e-05
1.31747e-05
4.54739e-05
6.36174e-05
0.000112254
7.08285e-05
1.16558e-05
1.4796e-05
6.15309e-05
9.65689e-05
5.34377e-05
3.89695e-05
1.15402e-05
9.98972e-06
6.6961e-05
7.87601e-05
5.46982e-05
4.43211e-05
1.26614e-05
1.06085e-05
6.82993e-05
8.33003e-05
5.75354e-05
4.58926e-05
1.29743e-05
1.09504e-05
6.84053e-05
8.97601e-05
6.0492e-05
4.62089e-05
1.33375e-05
1.16511e-05
6.8485e-05
0.000102603
9.02002e-05
6.11452e-05
1.48582e-05
1.1702e-05
4.13372e-05
5.2187e-05
7.63499e-05
6.64458e-05
1.00107e-05
1.27985e-05
4.57715e-05
5.41914e-05
8.18321e-05
6.76618e-05
1.06521e-05
1.3027e-05
4.70827e-05
5.74294e-05
8.62205e-05
6.81126e-05
1.06606e-05
1.30897e-05
4.84831e-05
6.00131e-05
9.03728e-05
7.00761e-05
1.08579e-05
1.3486e-05
5.01691e-05
6.26597e-05
0.000103514
6.99365e-05
1.18074e-05
1.51311e-05
6.27824e-05
9.06951e-05
5.37348e-05
4.45335e-05
1.19044e-05
1.01568e-05
6.83339e-05
7.74163e-05
5.60334e-05
4.81429e-05
1.30929e-05
1.0772e-05
6.82474e-05
8.12261e-05
5.82142e-05
4.88849e-05
1.3364e-05
1.09843e-05
6.75868e-05
8.37535e-05
6.01349e-05
5.04362e-05
1.3574e-05
1.12e-05
6.90939e-05
8.67084e-05
6.19152e-05
5.31645e-05
1.40773e-05
1.22932e-05
6.93702e-05
9.97555e-05
8.87224e-05
6.35642e-05
1.5807e-05
1.2487e-05
4.79058e-05
5.4805e-05
7.80942e-05
6.96459e-05
1.05564e-05
1.36334e-05
5.09844e-05
5.75693e-05
8.28225e-05
6.97987e-05
1.11462e-05
1.39631e-05
5.19745e-05
6.02375e-05
8.55378e-05
6.98447e-05
1.13418e-05
1.42301e-05
5.39417e-05
6.24414e-05
8.89703e-05
7.13563e-05
1.18049e-05
1.48549e-05
5.73458e-05
6.4495e-05
0.000101758
7.19375e-05
1.28456e-05
1.65446e-05
6.6251e-05
9.0446e-05
5.66773e-05
5.09539e-05
1.303e-05
1.09118e-05
7.237e-05
7.96491e-05
5.94758e-05
5.35351e-05
1.41438e-05
1.15129e-05
7.08398e-05
8.32942e-05
6.17273e-05
5.4167e-05
1.45936e-05
1.18274e-05
7.03411e-05
8.48256e-05
6.31636e-05
5.59278e-05
1.48315e-05
1.21313e-05
7.13092e-05
8.73931e-05
6.4499e-05
5.94417e-05
1.54854e-05
1.33581e-05
7.19542e-05
9.98027e-05
8.99232e-05
6.74619e-05
1.73539e-05
1.3855e-05
5.44243e-05
5.85458e-05
8.10683e-05
7.47332e-05
1.14485e-05
1.50025e-05
5.72513e-05
6.1605e-05
8.60272e-05
7.3301e-05
1.21772e-05
1.55394e-05
5.83559e-05
6.47089e-05
8.87052e-05
7.36435e-05
1.25726e-05
1.58534e-05
6.06099e-05
6.6918e-05
9.20412e-05
7.57539e-05
1.29068e-05
1.64271e-05
6.433e-05
6.88745e-05
0.000104321
7.63759e-05
1.40325e-05
1.8235e-05
7.18101e-05
9.42795e-05
6.21618e-05
5.8738e-05
1.46083e-05
1.21864e-05
7.86851e-05
8.54651e-05
6.5935e-05
6.17566e-05
1.60542e-05
1.30325e-05
7.74502e-05
8.9993e-05
6.85309e-05
6.25531e-05
1.64935e-05
1.3141e-05
7.7549e-05
9.18828e-05
7.03325e-05
6.46478e-05
1.67086e-05
1.36305e-05
7.8597e-05
9.50003e-05
7.22096e-05
6.89243e-05
1.75496e-05
1.50463e-05
8.01107e-05
0.000107854
9.84483e-05
7.62282e-05
1.95759e-05
1.57446e-05
6.43346e-05
6.71568e-05
9.09341e-05
8.3762e-05
1.30815e-05
1.72016e-05
6.77091e-05
7.11324e-05
9.71496e-05
8.34108e-05
1.39383e-05
1.78945e-05
6.95665e-05
7.48792e-05
0.000101208
8.40056e-05
1.46075e-05
1.86007e-05
7.33967e-05
7.68567e-05
0.000113266
8.45052e-05
1.58111e-05
2.05796e-05
8.03882e-05
0.000103461
7.12837e-05
6.77136e-05
1.64876e-05
1.36069e-05
8.77684e-05
9.38609e-05
7.46654e-05
7.09537e-05
1.80528e-05
1.46887e-05
8.56927e-05
9.98026e-05
7.79828e-05
7.30282e-05
1.88206e-05
1.52687e-05
8.67537e-05
0.000104439
8.05638e-05
7.80194e-05
1.96378e-05
1.68284e-05
8.92806e-05
0.000118444
0.000108668
8.55035e-05
2.17264e-05
1.75732e-05
7.38226e-05
7.66035e-05
0.000100659
9.30703e-05
1.46635e-05
1.95008e-05
7.83008e-05
8.07818e-05
0.000109567
9.32734e-05
1.59766e-05
2.05955e-05
8.25199e-05
8.5131e-05
0.000123974
9.35862e-05
1.75014e-05
2.26917e-05
8.97364e-05
0.000113908
8.06168e-05
7.72258e-05
1.81594e-05
1.51428e-05
9.709e-05
0.000104317
8.47881e-05
8.13396e-05
2.02823e-05
1.66691e-05
9.51696e-05
0.000111595
8.80859e-05
8.56955e-05
2.1544e-05
1.82494e-05
9.61407e-05
0.000126136
0.000116883
9.30354e-05
2.39231e-05
1.92117e-05
8.22521e-05
8.46449e-05
0.000108577
0.00010089
1.5888e-05
2.16458e-05
8.80069e-05
8.82772e-05
0.000124033
9.68889e-05
1.85495e-05
2.47095e-05
9.42783e-05
0.000115879
8.54148e-05
8.35092e-05
2.00573e-05
1.65711e-05
0.000100804
0.000107891
8.91732e-05
8.9531e-05
2.21937e-05
1.86931e-05
9.75338e-05
0.000123349
0.000115677
9.54908e-05
2.5233e-05
2.08717e-05
8.66264e-05
8.68933e-05
0.000109187
0.000102281
1.73301e-05
2.32403e-05
9.27968e-05
9.14476e-05
0.000124475
9.996e-05
1.93833e-05
2.54883e-05
9.76987e-05
0.000116875
8.85533e-05
8.86396e-05
2.11425e-05
1.77176e-05
0.000103084
0.000110134
9.31841e-05
9.59548e-05
2.41024e-05
2.03661e-05
0.000102589
0.000127084
0.000119497
0.000101405
2.72e-05
2.19749e-05
9.46488e-05
9.27929e-05
0.000115542
0.000109566
1.79998e-05
2.49681e-05
0.000101942
9.79819e-05
0.000134421
0.000108012
2.13754e-05
2.87368e-05
0.000107211
0.000126908
9.86905e-05
0.000103172
2.40175e-05
2.0307e-05
0.000114445
0.000131209
0.000125569
0.000112709
2.79328e-05
2.47357e-05
0.000104846
0.000100195
0.000131533
0.000116299
2.16311e-05
3.01092e-05
0.000113673
0.000126489
0.000102498
0.000106969
2.5664e-05
2.16286e-05
0.000115964
0.000132303
0.000127141
0.000114349
3.01956e-05
2.66938e-05
0.00011005
0.000103869
0.000133442
0.000118438
2.31067e-05
3.17593e-05
0.000115412
0.000128934
0.00010576
0.000112706
2.7081e-05
2.34384e-05
0.000120139
0.000135405
0.000131309
0.000118876
3.33886e-05
2.93256e-05
0.000120235
0.00010995
0.000143508
0.000127159
2.44703e-05
3.50376e-05
0.000134968
0.000138821
0.000131161
0.000131163
3.37812e-05
3.1089e-05
0.000126191
0.000115246
0.000149503
0.000132175
2.67941e-05
3.87576e-05
0.000131752
0.000146067
0.000136542
0.00014273
4.04769e-05
3.61939e-05
0.000134131
0.000132584
0.000118867
0.000128374
3.45311e-05
3.05301e-05
0.000132127
0.000148417
0.000145527
0.000129791
4.56352e-05
4.63939e-05
0.000141066
0.000137831
0.000136907
0.00013593
4.93984e-05
5.2994e-05
0.000139653
0.000133479
0.000132565
0.000135488
5.82155e-05
6.2336e-05
0.000140546
0.0001323
0.000132476
0.000141487
6.50557e-05
6.4797e-05
0.000149773
0.000133106
0.000133811
0.000154519
6.24774e-05
5.9985e-05
0.000162152
0.000135931
0.000138104
0.000169901
5.72444e-05
5.46819e-05
0.000178039
0.000142512
0.000145322
0.000185909
5.21038e-05
4.99057e-05
0.00019403
0.000152291
0.000155519
0.00019339
4.78698e-05
4.61688e-05
0.000199109
0.000164588
0.000168996
0.000201203
4.46365e-05
4.33289e-05
0.000204134
0.000182505
0.000188169
0.000206367
4.21406e-05
4.11254e-05
0.000209123
0.000204134
0.000210441
0.000211522
4.02108e-05
3.94353e-05
0.00021482
0.000226826
0.000233845
0.000217695
3.87539e-05
3.81711e-05
0.000221269
0.000250451
0.000257856
0.000224594
3.7697e-05
3.72618e-05
0.000228557
0.000274612
0.000276912
0.000232237
3.69771e-05
3.6625e-05
0.000236374
0.000294034
0.000295112
0.000240553
3.65372e-05
3.62411e-05
0.000244907
0.000311975
0.000313161
0.000249235
3.631e-05
3.60814e-05
0.000253431
0.000329279
0.000330248
0.000257686
3.62013e-05
3.60597e-05
0.000261749
0.0003457
0.000346398
0.000265719
3.61997e-05
3.6131e-05
0.000269565
0.000360894
0.000361353
0.00027326
3.62651e-05
3.62295e-05
0.000276946
0.000375102
0.000375297
0.000280195
3.63559e-05
3.63409e-05
0.000283566
0.000387924
0.000388033
0.000286464
3.64554e-05
3.645e-05
0.000289628
0.000399958
0.000399903
0.000292066
3.65535e-05
3.65492e-05
0.000294888
0.000410966
0.000410878
0.000297019
3.6644e-05
3.66336e-05
0.00029956
0.000421362
0.000421129
0.000301303
3.67283e-05
3.67109e-05
0.000303484
0.000430919
0.000430633
0.000304965
3.68011e-05
3.67737e-05
0.000306944
0.000440051
0.000439635
0.00030809
3.68587e-05
3.6826e-05
0.000309776
0.000448445
0.000448033
0.000310731
3.6906e-05
3.68659e-05
0.000312275
0.000456594
0.000456002
0.000312961
3.6942e-05
3.69001e-05
0.000314184
0.000464236
0.000463459
0.000314845
3.69423e-05
3.69547e-05
0.000315963
0.000471526
0.00047084
0.00031633
3.69954e-05
3.69485e-05
0.00031744
0.000478723
0.000477962
0.000317703
3.70181e-05
3.69677e-05
0.000318781
0.000485637
0.000484631
0.000318876
3.70361e-05
3.69865e-05
0.000319801
0.00049228
0.000491114
0.000319836
3.70533e-05
3.70023e-05
0.000320748
0.000498634
0.000497202
0.000320653
3.70681e-05
3.70183e-05
0.000321433
0.000504612
0.00050293
0.0003213
3.70823e-05
3.70317e-05
0.000322058
0.00051015
0.000508168
0.00032181
3.7094e-05
3.70452e-05
0.000322446
0.000515463
0.000513328
0.000322189
3.7106e-05
3.70571e-05
0.000322789
0.000520412
0.000517994
0.000322422
3.71146e-05
3.70667e-05
0.000322923
0.00052512
0.000522598
0.000322575
3.71226e-05
3.70766e-05
0.00032306
0.00052795
0.000526588
0.000322598
3.71294e-05
3.7085e-05
0.000322986
0.000530053
0.000530319
0.000322544
3.71348e-05
3.70915e-05
0.000322921
0.000531785
0.00053352
0.000322364
3.71376e-05
3.70966e-05
0.000322647
0.000533269
0.000536517
0.00032211
3.71393e-05
3.70993e-05
0.000322391
0.000534462
0.000538707
0.000321747
3.71382e-05
3.71004e-05
0.000321952
0.000535454
0.000539599
0.000321338
3.71363e-05
3.70996e-05
0.000321549
0.000536127
0.000540097
0.000320835
3.71321e-05
3.70971e-05
0.000320969
0.000536624
0.000540564
0.00032029
3.71266e-05
3.70927e-05
0.00032044
0.000536897
0.000540709
0.000319668
3.71191e-05
3.7087e-05
0.000319756
0.000537067
0.000540905
0.000319027
3.71106e-05
3.70796e-05
0.000319149
0.000537075
0.000540777
0.000318338
3.71006e-05
3.70714e-05
0.00031841
0.000537003
0.000540903
0.000317651
3.70902e-05
3.70621e-05
0.000317775
0.000536877
0.000540583
0.000316939
3.70792e-05
3.70528e-05
0.000317018
0.000536629
0.000540567
0.000316244
3.70681e-05
3.70429e-05
0.000316393
0.000536362
0.000540103
0.000315548
3.7057e-05
3.70333e-05
0.000315648
0.000535987
0.000539967
0.00031488
3.7046e-05
3.70235e-05
0.000315045
0.000535617
0.000539405
0.00031421
3.70353e-05
3.70142e-05
0.000314321
0.000535162
0.000539194
0.000313583
3.70252e-05
3.7005e-05
0.00031375
0.000534729
0.000538576
0.000312948
3.70152e-05
3.69964e-05
0.000313061
0.000534226
0.000538314
0.000312356
3.70058e-05
3.69878e-05
0.000312526
0.000533752
0.000537655
0.000311756
3.69966e-05
3.69798e-05
0.000311875
0.000533219
0.000537367
0.000311198
3.69878e-05
3.69716e-05
0.000311379
0.000532726
0.000536687
0.000310637
3.6979e-05
3.69641e-05
0.000310767
0.00053218
0.000536388
0.000310117
3.69707e-05
3.69564e-05
0.00031031
0.000531677
0.000535688
0.000309596
3.69626e-05
3.69492e-05
0.000309737
0.000531125
0.000535386
0.000309115
3.69548e-05
3.69419e-05
0.000309319
0.00053063
0.000534704
0.000308633
3.69472e-05
3.69352e-05
0.000308788
0.000530097
0.000534416
0.000308194
3.694e-05
3.69284e-05
0.000308411
0.000529621
0.000533749
0.000307752
3.6933e-05
3.69222e-05
0.000307919
0.000529101
0.00053348
0.000307351
3.69265e-05
3.69161e-05
0.000307582
0.000528649
0.000532829
0.000306948
3.69204e-05
3.69107e-05
0.000307128
0.000528156
0.00053255
0.000306581
3.69146e-05
3.69053e-05
0.000306825
0.000527711
0.000531919
0.000306213
3.69092e-05
3.69005e-05
0.000306405
0.000527246
0.000531661
0.000305879
3.6904e-05
3.68957e-05
0.000306133
0.000526832
0.000531064
0.00030554
3.68992e-05
3.68914e-05
0.000305743
0.000526395
0.000530827
0.000305235
3.68946e-05
3.68871e-05
0.000305502
0.000525996
0.000530243
0.000304927
3.68903e-05
3.68834e-05
0.000305142
0.000525583
0.000530038
0.000304652
3.68864e-05
3.68796e-05
0.000304928
0.000525226
0.0005295
0.00030437
3.68825e-05
3.68763e-05
0.000304595
0.000524851
0.000529319
0.00030412
3.68792e-05
3.68729e-05
0.000304406
0.000524504
0.00052878
0.000303863
3.68758e-05
3.687e-05
0.000304097
0.00052413
0.000528612
0.000303637
3.68728e-05
3.68669e-05
0.000303934
0.000523815
0.00052812
0.000303405
3.68696e-05
3.68642e-05
0.000303648
0.000523493
0.000527992
0.0003032
3.68669e-05
3.68613e-05
0.000303503
0.000523197
0.000527497
0.000302986
3.68639e-05
3.68589e-05
0.000303238
0.000522862
0.000527364
0.000302803
3.68615e-05
3.68564e-05
0.000303118
0.000522585
0.000526917
0.000302615
3.68589e-05
3.68542e-05
0.000302875
0.000522319
0.000526854
0.000302452
3.68567e-05
3.6852e-05
0.000302772
0.00052209
0.000526421
0.00030228
3.68545e-05
3.68503e-05
0.000302547
0.000521809
0.000526331
0.000302135
3.68529e-05
3.68487e-05
0.000302463
0.000521571
0.000525921
0.000301983
3.68514e-05
3.68478e-05
0.000302259
0.000521343
0.000525901
0.000301857
3.68509e-05
3.68472e-05
0.000302193
0.000521165
0.000525526
0.000301721
3.68507e-05
3.68473e-05
0.000302002
0.000520945
0.000525494
0.000301609
3.6851e-05
3.68477e-05
0.000301948
0.000520756
0.000525122
0.000301483
3.68518e-05
3.68489e-05
0.000301767
0.000520554
0.000525113
0.000301377
3.68531e-05
3.68503e-05
0.000301718
0.000520378
0.000524735
0.000301253
3.68546e-05
3.68522e-05
0.000301539
0.000520154
0.000524699
0.000301151
3.68561e-05
3.68538e-05
0.000301485
0.000519915
0.000524381
0.000301044
3.68566e-05
3.68543e-05
0.000301388
0.00051986
0.000524158
0.000301197
3.68828e-05
3.6899e-05
0.000301467
0.000519736
0.000524222
0.000300988
3.69022e-05
3.69182e-05
0.000301411
0.000519598
0.000524478
0.000301319
3.69807e-05
3.70542e-05
0.000301994
0.00052014
0.000526891
0.000302326
3.72172e-05
3.72203e-05
0.000303505
0.00052261
0.000530812
0.000304365
3.76139e-05
3.76767e-05
0.000305429
0.000526624
0.000544041
0.000310847
3.89391e-05
4.04922e-05
0.000320212
0.000573302
0.000603946
0.000335388
4.24993e-05
0.000940951
0.00145826
0.00214038
0.00238969
0.00358859
0.0062892
0.00847526
0.00940051
0.0125294
0.020114
0.0255721
0.0322589
0.0413426
0.0540584
0.0725455
0.0985626
0.133945
0.179734
0.23658
0.304481
0.38288
0.470601
0.566023
0.666816
0.770587
0.873081
0.971038
1.05725
1.12842
1.17983
1.21202
1.22722
1.24037
1.26404
1.29729
1.33891
1.3872
1.44191
1.50206
1.56869
1.64243
1.72504
1.81845
1.92545
2.04984
2.19725
2.37651
1.70519
1.13744
0.850007
0.710539
0.63344
0.578217
0.528821
0.48134
0.436284
0.394511
0.356067
0.320635
0.287939
0.257887
0.230488
0.205738
0.183549
0.16379
0.14623
0.130669
0.11689
0.104705
0.0939222
0.0843944
0.0759858
0.0685638
0.0620404
0.0563058
0.0512748
0.0468816
0.0430418
0.0397008
0.0368029
0.0342894
0.032125
0.0302638
0.0286723
0.027319
0.0261757
0.0252194
0.0244276
0.0237838
0.0232708
0.0228771
0.0225892
0.0223999
0.0222983
0.0222781
0.0223333
0.0224588
0.0226506
0.0229051
0.0232195
0.0235913
0.0240178
0.0245005
0.025036
0.0256238
0.0262643
0.0269568
0.0277024
0.0285007
0.0293537
0.0302607
0.0312262
0.0322452
0.0333264
0.0344682
0.035673
0.0369429
0.0382821
0.0396948
0.0411827
0.0427509
0.0443995
0.046138
0.0479678
0.0498951
0.051926
0.0540672
0.0563255
0.0587088
0.0612254
0.063884
0.0666946
0.0696684
0.072817
0.0761528
0.0796896
0.0834427
0.087429
0.0916674
0.0961797
0.100991
0.106131
0.111634
0.117544
0.123911
0.130797
0.138277
0.146444
0.155412
0.16532
0.176342
0.188696
0.202657
0.218584
0.236954
0.258416
0.283897
0.314777
0.353248
0.403001
0.470729
0.569258
0.724724
0.99574
1.51193
2.55811
4.62676
9.03852
17.8694
16.9945
10.6344
5.84519
2.45949
1.17579
0.698941
0.508588
0.425862
0.384646
0.3576
0.334112
0.311395
0.289646
0.269627
0.251796
0.236189
0.222564
0.210609
0.200175
0.191166
0.183251
0.176154
0.169788
0.164099
0.159027
0.154494
0.150439
0.146822
0.143598
0.140756
0.138303
0.136215
0.134472
0.133063
0.131985
0.131239
0.130828
0.130764
0.13106
0.13174
0.132831
0.134367
0.136395
0.138976
0.142187
0.146125
0.150901
0.156609
0.163249
0.170601
0.17817
0.185503
0.193373
0.206339
0.236938
0.313463
0.497567
0.866106
1.13561
0.7471
0.31429
0.080722
0.0352398
0.0119224
0.0101603
0.00932638
0.00834342
0.00789354
0.00725703
0.00697778
0.00651768
0.00632678
0.0059744
0.00583163
0.00555128
0.00544016
0.00520895
0.00511953
0.00492306
0.00484941
0.00467863
0.00461676
0.00446549
0.00441252
0.00427674
0.00423014
0.00410718
0.0040656
0.00395305
0.00391555
0.00381168
0.00377758
0.00368104
0.00364977
0.00355945
0.00353051
0.00344547
0.00341846
0.00333792
0.00331252
0.00323581
0.00321172
0.00313829
0.00311528
0.00304466
0.00302252
0.0029543
0.00293285
0.00286666
0.00284572
0.0027812
0.00276058
0.00269738
0.0026769
0.00261466
0.00259415
0.00253254
0.00251181
0.00245048
0.00242934
0.00236795
0.00234623
0.00228444
0.00226193
0.00219936
0.00217583
0.00211204
0.00208718
0.00202163
0.00199501
0.00192689
0.00189793
0.00182622
0.00179407
0.0017173
0.00168065
0.00159712
0.00155189
0.00146507
0.00139545
0.00130478
0.00120845
0.00106027
0.000925525
0.000765843
0.000616339
0.000471626
0.000427077
0.000424892
0.000484294
0.00058632
0.000685823
0.000670858
0.000637362
0.000649861
0.000822532
0.000918282
0.00114579
0.00127052
0.00146524
0.00149676
0.00159071
0.00159795
0.00163945
0.00159882
0.00161399
0.00157137
0.00159299
0.0015716
0.00162107
0.00162755
0.00169603
0.00172109
0.0017917
0.00182159
0.00188169
0.00190077
0.00195132
0.00196352
0.00200537
0.00201156
0.00204094
0.0020429
0.00206279
0.00206134
0.00207255
0.00206529
0.0020622
0.00203503
0.0020083
0.0019642
0.00192438
0.0018759
0.00184361
0.00181609
0.00176408
0.00174254
0.00225639
0.00203318
0.00239266
0.0025312
0.0024968
0.00246311
0.00271905
0.00247401
0.00282239
0.00300658
0.00305457
0.00271803
0.00213494
0.00173286
0.00157903
0.00196899
0.0023803
0.00228159
0.00194067
0.00156333
0.00154514
0.00178837
0.00213695
0.0027953
0.00364263
0.00364055
0.00321331
0.00282327
0.00300923
0.00342986
0.00372374
0.00310755
0.00314143
0.00369981
0.00410214
0.00427505
0.00385607
0.00320933
0.00319908
0.00380767