/*--------------------------------*- C++ -*----------------------------------*\
| =========                 |                                                 |
| \\      /  F ield         | OpenFOAM: The Open Source CFD Toolbox           |
|  \\    /   O peration     | Version:  v2006                                 |
|   \\  /    A nd           | Website:  www.openfoam.com                      |
|    \\/     M anipulation  |                                                 |
\*---------------------------------------------------------------------------*/
FoamFile
{
    version     2.0;
    format      ascii;
    class       surfaceScalarField;
    location    "0.02";
    object      phi;
}
// * * * * * * * * * * * * * * * * * * * * * * * * * * * * * * * * * * * * * //

dimensions      [1 0 -1 0 0 0 0];
oriented        oriented;


internalField   nonuniform List<scalar> 
19982
(
-2.76221e-05
-0.00189439
0.00187461
4.74203e-05
-0.00178061
0.00175313
4.30654e-06
9.82978e-05
-2.8829e-05
0.0020233
3.33167e-05
0.00219578
-7.03294e-05
0.00222871
-1.48559e-05
0.0022612
-3.2005e-05
0.00222681
-4.50728e-06
0.00220918
-5.42087e-06
0.00218449
-7.91078e-07
0.00216998
-2.06178e-06
0.00215874
-2.11706e-06
0.00215174
-2.58025e-06
0.0021458
-2.81269e-06
0.00214031
-3.03158e-06
0.00213491
-3.23782e-06
0.00212925
-3.43174e-06
0.00212333
-3.6136e-06
0.00211716
-3.7838e-06
0.00211073
-3.94392e-06
0.00210407
-4.09359e-06
0.00209718
-4.23724e-06
0.00209007
-4.37345e-06
0.00208276
-4.50182e-06
0.00207525
-4.62248e-06
0.00206755
-4.73694e-06
0.00205969
-4.83736e-06
0.00205165
-4.92522e-06
0.00204347
-5.00102e-06
0.00203516
-5.06452e-06
0.00202673
-5.11681e-06
0.00201821
-5.15788e-06
0.00200961
-5.18714e-06
0.00200095
-5.2041e-06
0.00199224
-5.20836e-06
0.00198351
-5.19956e-06
0.00197477
-5.17747e-06
0.00196605
-5.14183e-06
0.00195736
-5.09246e-06
0.00194873
-5.02907e-06
0.00194017
-4.95143e-06
0.00193171
-4.86072e-06
0.00192336
-4.75637e-06
0.00191516
-4.638e-06
0.0019071
-4.50524e-06
0.00189923
-4.35764e-06
0.00189155
-4.19479e-06
0.00188408
-4.0164e-06
0.00187685
-3.82226e-06
0.00186988
-3.51884e-06
0.00186309
-2.45545e-06
0.00185592
-3.12703e-06
0.00184964
-2.83082e-06
0.00183996
-5.22608e-06
0.00182676
-7.52501e-06
0.00180826
-2.80204e-05
0.00177656
-4.11858e-05
0.00173602
-0.00011822
0.00168003
-0.000195386
0.00164119
-0.000453001
0.00164334
-0.000967535
0.00187329
-0.000285165
0.000488019
6.27691e-05
0.000822539
-7.42766e-06
0.001041
-2.06777e-06
0.000989378
-5.49386e-05
0.000834491
-5.43364e-06
0.00075569
-3.98718e-06
0.000274879
-3.60575e-06
0.000228736
0.000184183
7.1277e-06
0.000177061
1.48152e-05
0.000221055
0.000267147
2.25558e-05
-8.66355e-06
0.000263474
1.23456e-05
-4.72676e-06
0.000217126
0.000172341
2.28248e-06
0.000170066
2.70784e-06
0.00021671
0.000263552
2.64068e-06
-3.48745e-06
0.000263379
3.67286e-06
-1.96944e-06
0.000215202
0.000168105
2.78213e-06
0.000165332
3.48037e-06
0.000214515
0.000262232
4.64089e-06
-3.33403e-06
0.000260975
4.6055e-06
-1.71091e-06
0.000212904
0.000163631
2.45802e-06
0.000161183
2.3399e-06
0.000213034
0.000260574
2.75506e-06
-2.24985e-06
0.000259213
3.62654e-06
-1.4935e-06
0.000212291
0.0001597
1.40298e-06
0.000158309
2.18283e-06
0.000211525
0.000258713
2.69982e-06
-2.99839e-06
0.000259067
2.66166e-06
-1.32146e-06
0.000209863
0.000157
1.24805e-06
0.000155766
1.17411e-06
0.000209953
0.000257607
2.65293e-06
-2.88173e-06
0.000257893
2.61566e-06
-1.19687e-06
0.000208284
0.000154583
1.14016e-06
0.000153457
1.08341e-06
0.000208358
0.000256382
2.61473e-06
-2.79178e-06
0.000256615
2.58048e-06
-1.10459e-06
0.000206689
0.000152367
1.06235e-06
0.00015132
1.01929e-06
0.00020675
0.000255066
2.58981e-06
-2.72825e-06
0.000255242
2.57403e-06
-1.03507e-06
0.000205075
0.0001503
1.00681e-06
0.000149309
9.81045e-07
0.000205121
0.000253657
2.58926e-06
-2.68843e-06
0.000253795
2.57573e-06
-9.9105e-07
0.000203444
0.000148335
9.63387e-07
0.000147389
9.58053e-07
0.00020347
0.000252173
2.60509e-06
-2.65938e-06
0.000252269
2.58879e-06
-9.56759e-07
0.000201789
0.00014645
9.32764e-07
0.000145535
9.45809e-07
0.000201797
0.000250618
2.62264e-06
-2.64078e-06
0.000250675
2.61127e-06
-9.3155e-07
0.000200111
0.000144623
9.11905e-07
0.00014373
9.46238e-07
0.0002001
0.000248996
2.65281e-06
-2.63419e-06
0.000249012
2.64687e-06
-9.15469e-07
0.000198405
0.000142835
8.98917e-07
0.000141957
9.57542e-07
0.000198371
0.000247305
2.69453e-06
-2.63696e-06
0.000247279
2.6931e-06
-9.06213e-07
0.000196666
0.000141072
8.91901e-07
0.000140201
9.77492e-07
0.000196606
0.000245542
2.74564e-06
-2.64756e-06
0.000245472
2.74865e-06
-9.02403e-07
0.000194887
0.000139321
8.89976e-07
0.000138454
1.00537e-06
0.000194799
0.000243704
2.806e-06
-2.66573e-06
0.000243589
2.81405e-06
-9.03482e-07
0.000193064
0.000137573
8.92914e-07
0.000136703
1.04147e-06
0.000192943
0.000241787
2.87671e-06
-2.69186e-06
0.000241622
2.89044e-06
-9.0937e-07
0.000191189
0.000135817
9.00758e-07
0.00013494
1.0864e-06
0.000191032
0.000239783
2.95917e-06
-2.72657e-06
0.000239565
2.97924e-06
-9.20166e-07
0.000189255
0.000134044
9.13667e-07
0.000133155
1.14092e-06
0.000189057
0.000237686
3.05498e-06
-2.77065e-06
0.00023741
3.0822e-06
-9.36092e-07
0.000187251
0.000132243
9.31867e-07
0.000131336
1.20594e-06
0.000187007
0.000235486
3.16597e-06
-2.82446e-06
0.000235146
3.20033e-06
-9.57158e-07
0.00018517
0.000130404
9.54872e-07
0.000129474
1.28083e-06
0.000184874
0.000233171
3.2913e-06
-2.88746e-06
0.000232762
3.33308e-06
-9.82952e-07
0.000183
0.000128516
9.82833e-07
0.000127558
1.36631e-06
0.000182646
0.000230732
3.43248e-06
-2.96009e-06
0.000230247
3.48154e-06
-1.01356e-06
0.00018073
0.00012657
1.01542e-06
0.00012558
1.46191e-06
0.000180314
0.000228157
3.58887e-06
-3.0416e-06
0.00022759
3.64483e-06
-1.04856e-06
0.000178352
0.000124556
1.05246e-06
0.000123529
1.56748e-06
0.000177867
0.000225434
3.76029e-06
-3.13237e-06
0.00022478
3.8237e-06
-1.08809e-06
0.000175853
0.000122466
1.09432e-06
0.000121397
1.68403e-06
0.000175294
0.000222552
3.94845e-06
-3.23369e-06
0.000221802
4.0204e-06
-1.13273e-06
0.000173224
0.00012029
1.14167e-06
0.000119174
1.8131e-06
0.000172583
0.000219496
4.15581e-06
-3.34711e-06
0.000218642
4.23754e-06
-1.18317e-06
0.00017045
0.000118017
1.19525e-06
0.000116847
1.95643e-06
0.00016972
0.000216251
4.38515e-06
-3.47436e-06
0.000215284
4.4781e-06
-1.2402e-06
0.000167517
0.000115633
1.25591e-06
0.000114404
2.11605e-06
0.000166688
0.000212798
4.63974e-06
-3.61755e-06
0.000211707
4.74568e-06
-1.30475e-06
0.000164406
0.000113126
1.32474e-06
0.000111828
2.2945e-06
0.000163468
0.000209116
4.92356e-06
-3.77934e-06
0.000207888
5.0447e-06
-1.37803e-06
0.000161099
0.000110477
1.40304e-06
0.000109101
2.49485e-06
0.000160039
0.00020518
5.24153e-06
-3.96299e-06
0.000203801
5.38058e-06
-1.46163e-06
0.00015757
0.000107666
1.49244e-06
0.000106201
2.72078e-06
0.000156374
0.000200961
5.59942e-06
-4.17181e-06
0.000199412
5.75898e-06
-1.557e-06
0.000153792
0.000104672
1.59423e-06
0.000103105
2.97544e-06
0.000152444
0.000196424
6.00219e-06
-4.40783e-06
0.000194688
6.18338e-06
-1.66496e-06
0.000149734
0.000101468
1.70908e-06
9.97861e-05
3.26078e-06
0.000148215
0.000191535
6.45283e-06
-4.67412e-06
0.00018959
6.65885e-06
-1.78689e-06
0.000145361
9.80268e-05
1.83953e-06
9.62147e-05
3.58257e-06
0.000143651
0.000186252
6.96045e-06
-4.97795e-06
0.000184072
7.1973e-06
-1.92622e-06
0.000140632
9.43159e-05
1.98924e-06
9.2354e-05
3.94907e-06
0.000138705
0.000180523
7.53771e-06
-5.33086e-06
0.000178076
7.81709e-06
-2.08833e-06
0.000135495
9.02929e-05
2.16519e-06
8.81549e-05
4.3757e-06
0.000133318
0.000174283
8.20789e-06
-5.75199e-06
0.000171526
8.54879e-06
-2.28212e-06
0.000129881
8.59001e-05
2.37982e-06
8.35475e-05
4.88928e-06
0.000127404
0.000167442
9.0126e-06
-6.27024e-06
0.000164315
9.43794e-06
-2.52099e-06
0.000123688
8.10541e-05
2.64935e-06
7.84323e-05
5.52507e-06
0.000120846
0.000159874
1.00057e-05
-6.93237e-06
0.000156289
1.05575e-05
-2.82686e-06
0.000116774
7.56332e-05
3.00281e-06
7.26585e-05
6.34661e-06
0.000113464
0.000151392
1.12839e-05
-7.82443e-06
0.000147218
1.20387e-05
-3.24087e-06
0.000108914
6.94455e-05
3.4947e-06
6.59793e-05
7.47026e-06
0.000104972
0.000141708
1.30214e-05
-9.10261e-06
0.000136734
1.41177e-05
-3.8371e-06
9.97412e-05
6.21705e-05
4.22663e-06
5.79727e-05
9.11502e-06
9.48874e-05
0.000130347
1.55434e-05
-1.10749e-05
0.000124212
1.72519e-05
-4.76258e-06
8.86103e-05
5.32393e-05
5.41374e-06
4.78544e-05
1.17397e-05
8.23195e-05
0.000116477
1.95166e-05
-1.44542e-05
0.00010851
2.24646e-05
-6.36303e-06
7.42641e-05
4.1521e-05
7.6502e-06
3.38997e-05
1.65707e-05
6.53798e-05
9.85377e-05
2.65859e-05
-2.17818e-05
8.77817e-05
3.2578e-05
-1.01365e-05
5.37653e-05
2.37751e-05
1.54405e-05
8.3374e-06
2.83979e-05
4.08121e-05
7.59537e-05
4.02533e-05
-2.83803e-05
6.24459e-05
4.18972e-05
-1.35474e-05
2.59886e-05
-5.19473e-06
5.63285e-06
-1.08108e-05
2.14101e-05
1.02309e-05
4.5542e-05
3.83277e-05
-1.57882e-05
2.81462e-05
3.3205e-05
-3.12754e-06
-2.40908e-06
-1.39211e-05
2.44537e-06
-1.63498e-05
9.21177e-06
-9.15554e-06
1.34832e-05
2.38991e-05
-4.34191e-06
4.20071e-06
1.36495e-05
-1.08801e-06
-1.23878e-05
-1.74198e-05
-8.08397e-07
-1.65919e-05
-2.67095e-07
-1.29064e-05
-5.21693e-07
4.48099e-06
2.42903e-06
-2.48181e-06
-4.41011e-07
1.61863e-06
-1.20719e-05
-1.49526e-05
-2.41969e-06
-1.25113e-05
-3.52885e-06
-1.09371e-05
-4.0294e-06
-1.95063e-06
1.29045e-06
-6.14106e-06
8.48335e-07
1.18467e-06
-1.08092e-05
-1.13084e-05
-7.85126e-07
-1.05062e-05
-8.06169e-07
-1.07677e-05
-7.68611e-06
7.63549e-07
-2.7274e-06
-1.04655e-05
5.52785e-06
-1.05804e-06
-1.24192e-05
-1.15494e-05
4.29849e-07
-1.19637e-05
1.22945e-06
-1.32e-05
-1.18104e-05
2.59707e-06
-4.29117e-06
-1.49158e-05
7.4156e-06
-1.93836e-06
-1.55368e-05
-1.38888e-05
5.37776e-07
-1.4412e-05
1.30975e-06
-1.62912e-05
-1.59346e-05
2.3494e-06
-3.8094e-06
-1.85978e-05
6.49276e-06
-1.77248e-06
-1.83113e-05
-1.61705e-05
-1.90733e-07
-1.59639e-05
-3.4843e-07
-1.81343e-05
-1.84651e-05
-4.57703e-07
-1.25133e-06
-1.93139e-05
2.12693e-06
-6.60582e-07
-1.87028e-05
-1.6606e-05
-1.33071e-06
-1.52568e-05
-2.87218e-06
-1.71392e-05
-1.74611e-05
-4.69918e-06
1.32673e-06
-1.66665e-05
-2.09587e-06
5.30469e-07
-1.63209e-05
-1.47078e-05
-1.70679e-06
-1.29862e-05
-3.6993e-06
-1.43106e-05
-1.42672e-05
-6.07753e-06
1.94592e-06
-1.30373e-05
-3.15438e-06
8.18316e-07
-1.31659e-05
-1.21539e-05
-1.47763e-06
-1.06647e-05
-3.22998e-06
-1.13991e-05
-1.09148e-05
-5.33396e-06
1.63413e-06
-9.8259e-06
-2.70478e-06
6.72316e-07
-1.04225e-05
-9.98029e-06
-1.17696e-06
-8.78982e-06
-2.59827e-06
-8.98485e-06
-8.11111e-06
-4.2933e-06
1.4003e-06
-7.13434e-06
-2.35624e-06
5.59877e-07
-8.12698e-06
-8.21541e-06
-1.10704e-06
-7.09417e-06
-2.47988e-06
-6.73707e-06
-5.48732e-06
-4.10654e-06
1.6553e-06
-4.29734e-06
-2.8245e-06
6.68272e-07
-5.73141e-06
-6.41033e-06
-1.27565e-06
-5.1222e-06
-2.87154e-06
-4.12044e-06
-2.40105e-06
-4.74829e-06
2.42083e-06
-6.33982e-07
-4.16613e-06
1.00851e-06
-2.68991e-06
-4.09849e-06
-1.57825e-06
-2.50375e-06
-3.52924e-06
-7.19181e-07
1.6394e-06
-5.77913e-06
3.49465e-06
3.90976e-06
-5.73981e-06
1.51887e-06
1.27787e-06
-9.67084e-07
-1.84202e-06
8.92704e-07
-4.09698e-06
3.55402e-06
6.55586e-06
-6.71801e-06
4.0279e-06
9.15121e-06
-6.59914e-06
1.84302e-06
5.75924e-06
2.75274e-06
-1.95445e-06
4.72359e-06
-4.46549e-06
8.28983e-06
1.20778e-05
-7.36893e-06
4.35093e-06
1.50055e-05
-7.25555e-06
1.95621e-06
1.07039e-05
6.69601e-06
-2.17673e-06
8.88935e-06
-4.93806e-06
1.3485e-05
1.81623e-05
-8.07147e-06
4.74366e-06
2.1395e-05
-7.95265e-06
2.13264e-06
1.61161e-05
1.10388e-05
-2.35705e-06
1.34126e-05
-5.34673e-06
1.91259e-05
2.47758e-05
-8.70371e-06
5.12541e-06
2.82976e-05
-8.62335e-06
2.31214e-06
2.19594e-05
1.57417e-05
-2.51535e-06
1.82733e-05
-5.72382e-06
2.51873e-05
3.18849e-05
-9.28817e-06
5.48872e-06
3.56898e-05
-9.27202e-06
2.48451e-06
2.82098e-05
2.0773e-05
-2.66289e-06
2.34502e-05
-6.09012e-06
3.16543e-05
3.94659e-05
-9.84563e-06
5.82499e-06
4.35299e-05
-9.86965e-06
2.64549e-06
3.485e-05
2.61091e-05
-2.79207e-06
2.89136e-05
-6.43147e-06
3.85044e-05
4.74954e-05
-1.03791e-05
6.12359e-06
5.18023e-05
-1.04141e-05
2.78492e-06
4.18568e-05
3.17097e-05
-2.88217e-06
3.46017e-05
-6.70918e-06
4.5696e-05
5.59356e-05
-1.08277e-05
6.59781e-06
6.0244e-05
-1.08934e-05
2.91933e-06
4.93851e-05
3.75296e-05
-3.15264e-06
4.06892e-05
-6.93023e-06
5.31717e-05
6.52191e-05
-1.18943e-05
7.62853e-06
7.01952e-05
-1.25958e-05
3.30149e-06
5.7506e-05
4.39964e-05
-3.71581e-06
4.77154e-05
-8.1563e-06
6.1951e-05
7.58618e-05
-1.38171e-05
8.14345e-06
8.11941e-05
-1.34731e-05
3.52023e-06
6.65761e-05
5.12367e-05
-3.09684e-06
5.43327e-05
-7.3681e-06
7.08469e-05
8.64323e-05
-1.26065e-05
1.01149e-05
9.28057e-05
-1.64908e-05
4.71455e-06
7.62449e-05
5.90447e-05
-3.51071e-06
-7.85393e-06
-1.23375e-05
-3.57005e-05
-0.000248836
-2.93877e-05
-0.000265047
-4.79009e-05
-0.000284094
-4.37225e-05
-0.000287483
-5.7544e-05
-0.000290284
-6.13763e-05
-0.000285179
-6.86033e-05
-0.00028124
-7.14625e-05
-0.000277749
-7.32409e-05
-0.000275501
-7.24726e-05
-0.000275262
-7.06654e-05
-0.000274951
-6.74794e-05
-0.000276453
-6.31211e-05
-0.000276874
-5.732e-05
-0.000279305
-4.81858e-05
-0.000277553
-3.96091e-05
-0.000277969
-2.12502e-05
-0.000271761
-2.56358e-06
-0.000274385
4.46979e-05
-0.000278936
0.000132073
-0.000312477
3.74461e-05
-9.06838e-05
-1.83752e-05
-0.00013007
-9.74566e-06
-0.000157291
4.97726e-06
-0.000162674
2.77735e-06
-4.77809e-05
1.32532e-06
-3.6776e-05
-2.24528e-05
-1.47381e-05
-7.71497e-06
-3.60541e-05
-1.54597e-05
-2.15351e-05
-6.22995e-05
-3.65678e-06
-2.81667e-05
1.02892e-05
-7.80173e-08
-1.90379e-05
-7.79239e-06
8.28718e-07
-8.61987e-06
2.10945e-06
-2.03172e-05
-3.09153e-05
4.85919e-06
-1.05081e-06
-3.24525e-05
2.58959e-06
-1.56712e-07
-2.12099e-05
-8.77548e-06
-4.85817e-07
-8.28832e-06
-9.29466e-07
-2.0765e-05
-3.1825e-05
-1.55562e-06
-4.74499e-08
-3.1602e-05
-1.74021e-07
-2.40465e-08
-2.0787e-05
-8.31093e-06
-3.46748e-07
-7.96272e-06
-8.68043e-07
-2.02642e-05
-3.12606e-05
-1.20773e-06
-3.08187e-07
-3.16856e-05
7.35066e-07
-1.41835e-07
-2.04289e-05
-8.10299e-06
-2.48122e-07
-7.85331e-06
-1.60463e-07
-2.05148e-05
-3.11898e-05
-6.54373e-07
-7.48522e-07
-3.14645e-05
1.02546e-06
-2.33256e-07
-2.10282e-05
-8.08491e-06
1.99828e-08
-8.10326e-06
-3.2976e-07
-2.06767e-05
-3.16133e-05
-1.78789e-07
-9.36527e-07
-3.22961e-05
1.62179e-06
-4.24152e-07
-2.11872e-05
-8.52572e-06
1.05151e-07
-8.62914e-06
8.30159e-08
-2.11631e-05
-3.2322e-05
1.11419e-07
-1.1284e-06
-3.31746e-05
1.98374e-06
-4.75744e-07
-2.18136e-05
-9.10311e-06
1.15537e-07
-9.21682e-06
2.14587e-07
-2.19104e-05
-3.33527e-05
3.9555e-07
-1.3168e-06
-3.43763e-05
2.3434e-06
-5.17879e-07
-2.2707e-05
-9.73282e-06
1.47278e-07
-9.87816e-06
3.65688e-07
-2.2923e-05
-3.4691e-05
6.83519e-07
-1.48858e-06
-3.58398e-05
2.64054e-06
-5.70475e-07
-2.38386e-05
-1.04466e-05
1.88382e-07
-1.0633e-05
4.86893e-07
-2.41345e-05
-3.62246e-05
8.74933e-07
-1.66402e-06
-3.74515e-05
2.8942e-06
-6.43843e-07
-2.51521e-05
-1.12748e-05
2.40453e-07
-1.15131e-05
6.0848e-07
-2.55174e-05
-3.7878e-05
1.0382e-06
-1.80692e-06
-3.91398e-05
3.07204e-06
-7.11112e-07
-2.66105e-05
-1.2222e-05
2.90833e-07
-1.25107e-05
6.90337e-07
-2.70073e-05
-3.95575e-05
1.11128e-06
-1.96093e-06
-4.08117e-05
3.21832e-06
-8.10416e-07
-2.81551e-05
-1.3319e-05
3.82829e-07
-1.36996e-05
8.08453e-07
-2.85779e-05
-4.11981e-05
1.19795e-06
-2.11688e-06
-4.24238e-05
3.3453e-06
-9.32044e-07
-2.97601e-05
-1.46295e-05
4.66265e-07
-1.50935e-05
8.85803e-07
-3.0177e-05
-4.27503e-05
1.21476e-06
-2.21867e-06
-4.39212e-05
3.39137e-06
-1.02498e-06
-3.13684e-05
-1.61162e-05
4.89769e-07
-1.66036e-05
8.80497e-07
-3.17572e-05
-4.41856e-05
1.14584e-06
-2.1838e-06
-4.53001e-05
3.29855e-06
-1.02883e-06
-3.29108e-05
-1.76302e-05
4.29859e-07
-1.80581e-05
7.3594e-07
-3.32162e-05
-4.54859e-05
9.21133e-07
-2.06913e-06
-4.65313e-05
3.1134e-06
-9.83823e-07
-3.43016e-05
-1.90404e-05
3.51891e-07
-1.93912e-05
5.73274e-07
-3.45236e-05
-4.66444e-05
6.84839e-07
-1.93863e-06
-4.76303e-05
2.92306e-06
-9.25107e-07
-3.5538e-05
-2.03158e-05
2.74862e-07
-2.05907e-05
4.11187e-07
-3.56755e-05
-4.76702e-05
4.49779e-07
-1.85029e-06
-4.86052e-05
2.78424e-06
-8.89456e-07
-3.66375e-05
-2.14807e-05
2.31995e-07
-2.17138e-05
3.13148e-07
-3.67197e-05
-4.85959e-05
3.03316e-07
-1.7961e-06
-4.94873e-05
2.68731e-06
-8.7346e-07
-3.76432e-05
-2.25887e-05
2.06501e-07
-2.27965e-05
2.41984e-07
-3.7679e-05
-4.94292e-05
1.84265e-07
-1.79291e-06
-5.02922e-05
2.65685e-06
-8.87667e-07
-3.8584e-05
-2.3685e-05
2.15436e-07
-2.39003e-05
2.32284e-07
-3.86e-05
-5.02097e-05
1.51206e-07
-1.82668e-06
-5.10536e-05
2.67226e-06
-9.2512e-07
-3.95003e-05
-2.48247e-05
2.54869e-07
-2.50784e-05
2.7178e-07
-3.95157e-05
-5.09578e-05
1.77877e-07
-1.9573e-06
-5.18072e-05
2.80864e-06
-1.01675e-06
-4.04548e-05
-2.6094e-05
3.24443e-07
-2.64172e-05
3.72076e-07
-4.05006e-05
-5.17454e-05
3.12534e-07
-2.2395e-06
-5.22236e-05
2.7201e-06
-1.19284e-06
-4.15454e-05
-2.76085e-05
4.43374e-07
-2.80502e-05
5.36613e-07
-4.16366e-05
-5.21731e-05
4.88537e-07
-1.94443e-06
-5.33798e-05
3.15348e-06
-1.06462e-06
-4.25145e-05
-2.91132e-05
2.22224e-07
-2.93339e-05
4.57922e-07
-4.27483e-05
-5.30093e-05
8.98328e-08
-1.87363e-06
-5.4206e-05
3.07279e-06
-1.01937e-06
-4.36006e-05
-3.03518e-05
6.4556e-07
-3.09959e-05
5.48693e-07
-4.35019e-05
-5.39589e-05
3.03926e-07
-1.76043e-06
-5.49596e-05
2.76331e-06
-6.20698e-07
-4.46399e-05
-3.16153e-05
9.13104e-07
-3.25273e-05
6.31873e-07
-4.43571e-05
-5.49548e-05
6.29131e-07
-1.74618e-06
-5.61431e-05
2.93636e-06
-7.84235e-07
-4.53176e-05
-3.33103e-05
3.83325e-07
-3.36918e-05
7.5743e-07
-4.56899e-05
-5.59014e-05
5.17744e-07
-2.22357e-06
-5.69084e-05
3.23273e-06
-1.04523e-06
-4.68662e-05
-3.47348e-05
3.15335e-07
-3.5047e-05
5.59629e-07
-4.71082e-05
-5.72671e-05
9.20522e-07
-1.90121e-06
-5.84771e-05
3.11332e-06
-1.33798e-06
-4.76691e-05
-3.63814e-05
8.0197e-07
-3.71805e-05
1.6043e-06
-4.84687e-05
-5.8961e-05
2.0907e-06
-3.3497e-06
-6.07102e-05
5.10328e-06
-1.81428e-06
-5.00015e-05
-3.89948e-05
2.34245e-06
-4.13581e-05
4.50681e-06
-5.21523e-05
-6.27281e-05
6.52486e-06
4.78647e-05
-3.17812e-05
-7.87915e-05
2.12405e-05
-2.56675e-05
-2.00078e-05
3.18037e-06
-2.54278e-05
1.45193e-05
-3.3515e-05
-4.07367e-05
2.20601e-05
-6.98068e-06
-4.54254e-05
1.16662e-05
-3.22454e-06
-3.74233e-05
-2.85181e-05
1.80416e-06
-3.03239e-05
3.21497e-06
-3.88343e-05
-4.75536e-05
5.3495e-06
-1.50732e-06
-4.81977e-05
2.15362e-06
-7.66289e-07
-3.95739e-05
-3.10895e-05
3.29537e-07
-3.14183e-05
5.59895e-07
-3.98031e-05
-4.82819e-05
6.45582e-07
-9.93146e-08
-4.77124e-05
-4.685e-07
-4.68463e-08
-3.98544e-05
-3.14643e-05
-2.27679e-07
-3.12315e-05
-2.73245e-06
-3.73545e-05
-4.38861e-05
-6.5555e-06
3.7254e-05
-2.1151e-05
-6.00132e-05
1.74575e-05
-1.75087e-05
-1.3801e-05
2.85241e-06
-1.60357e-05
5.08863e-06
-2.0746e-05
-2.6013e-05
1.03981e-05
1.00399e-06
-2.53802e-05
-1.63544e-06
5.94887e-07
-2.03042e-05
-1.54731e-05
-2.41819e-06
-1.30532e-05
-5.71339e-06
-1.70086e-05
-2.15659e-05
-9.52724e-06
9.48929e-06
-1.17003e-05
-1.93542e-05
3.28586e-06
-1.07978e-05
-9.77674e-06
-7.48438e-06
-2.22323e-06
-1.56446e-05
-2.75544e-06
-3.28205e-06
-2.40276e-05
5.95408e-06
-1.26929e-06
-8.92136e-06
4.74822e-06
4.0102e-07
1.40677e-06
-6.57071e-06
8.0703e-06
-1.49284e-05
8.63302e-06
8.50525e-06
-2.46761e-05
3.10142e-05
3.25684e-05
-5.50783e-05
1.31395e-05
2.65153e-05
2.12011e-05
1.53596e-06
1.96653e-05
3.36166e-06
2.46862e-05
2.93284e-05
6.60086e-06
6.63244e-05
6.50532e-05
-0.000102054
3.1187e-05
5.98218e-05
5.08481e-05
-1.15647e-05
6.24074e-05
-2.48462e-05
7.30963e-05
8.79363e-05
-4.77366e-05
2.04373e-05
9.82922e-05
-3.08043e-05
1.10255e-05
8.2501e-05
7.34227e-05
-1.25194e-05
8.59292e-05
-3.36564e-05
0.000103626
0.000126094
-6.14737e-05
6.20041e-05
0.000173622
-0.000109554
2.33835e-05
0.000142229
0.000109298
4.83472e-05
6.09402e-05
0.000105651
8.49133e-05
0.00010494
0.00017432
9.31022e-05
0.000173664
-0.000161837
4.00838e-05
0.000137923
0.000101016
3.21407e-05
6.88661e-05
7.45659e-05
9.54873e-05
0.000120244
0.000127971
-5.84824e-05
8.03734e-05
9.83535e-05
-2.52527e-05
6.22386e-05
4.36192e-05
-3.70317e-05
8.06329e-05
-8.81778e-05
0.000113406
0.00014653
-0.000154343
-5.06168e-05
0.000107061
9.01415e-05
-2.08255e-05
8.34371e-05
6.00043e-05
1.71928e-05
3.99198e-05
4.93164e-05
5.58665e-05
7.28406e-05
8.13906e-05
8.50238e-05
0.000135628
-0.000147373
3.48451e-05
0.000105256
7.52382e-05
1.82333e-05
5.68039e-05
4.51978e-05
7.858e-05
0.000100554
8.01762e-05
-4.19543e-05
6.9438e-05
7.46464e-05
-2.05117e-05
5.33238e-05
3.86241e-05
-3.51663e-05
7.34601e-05
-8.28836e-05
0.000101633
0.000130384
-0.000144091
-4.22416e-05
9.79028e-05
7.47501e-05
-1.73474e-05
7.66878e-05
5.61479e-05
1.78659e-05
3.81788e-05
4.2323e-05
5.24043e-05
6.81901e-05
7.19428e-05
8.13117e-05
0.000127114
-0.000140216
3.42771e-05
9.94047e-05
7.24657e-05
1.69532e-05
5.55063e-05
4.08092e-05
7.55491e-05
9.59152e-05
7.19982e-05
-4.09108e-05
6.69008e-05
6.99474e-05
-1.7496e-05
5.20811e-05
3.80362e-05
-3.46289e-05
7.26576e-05
-8.11884e-05
9.86435e-05
0.000124902
-0.000139202
-4.00691e-05
9.52292e-05
6.97317e-05
-1.67146e-05
7.52799e-05
5.59371e-05
1.77276e-05
3.82048e-05
4.0902e-05
5.21011e-05
6.61484e-05
6.99768e-05
7.97765e-05
0.000123434
-0.000137068
3.40769e-05
9.77951e-05
7.22771e-05
1.65713e-05
5.57011e-05
4.0003e-05
7.43571e-05
9.44341e-05
6.89944e-05
-4.01101e-05
6.54858e-05
6.90541e-05
-1.7407e-05
5.16501e-05
3.82906e-05
-3.41561e-05
7.24426e-05
-7.96231e-05
9.71124e-05
0.000122394
-0.000136537
-3.92766e-05
9.38806e-05
6.77808e-05
-1.66486e-05
7.44773e-05
5.57884e-05
1.74319e-05
3.83532e-05
4.04497e-05
5.14556e-05
6.53472e-05
6.89787e-05
7.88357e-05
0.000121073
-0.000134567
3.39972e-05
9.62897e-05
7.23466e-05
1.6883e-05
5.54595e-05
3.95806e-05
7.35866e-05
9.30471e-05
6.75986e-05
-3.98674e-05
6.45205e-05
6.83907e-05
-1.71251e-05
5.08409e-05
3.83318e-05
-3.32826e-05
7.16112e-05
-7.78923e-05
9.54474e-05
0.000119687
-0.000133063
-3.91113e-05
9.22338e-05
6.65574e-05
-1.66215e-05
7.29493e-05
5.4987e-05
1.72553e-05
3.77099e-05
4.02287e-05
4.9998e-05
6.34138e-05
6.9033e-05
7.61232e-05
0.000116765
-0.000129462
3.25706e-05
9.34791e-05
7.0328e-05
1.7199e-05
5.262e-05
4.08021e-05
7.05824e-05
8.82358e-05
6.90798e-05
-3.77511e-05
5.91818e-05
7.06255e-05
-2.2631e-05
4.69119e-05
3.5226e-05
-2.97084e-05
6.38368e-05
-6.53532e-05
8.44525e-05
0.000104937
-0.000111924
-4.53151e-05
7.37954e-05
7.66148e-05
-1.96525e-05
5.84692e-05
4.43696e-05
-3.49028e-05
7.92599e-05
-8.09488e-05
0.000104528
0.000130101
-0.000137277
-4.71644e-05
9.69442e-05
8.03137e-05
-2.02837e-05
7.76268e-05
5.89875e-05
1.89306e-05
4.00111e-05
4.35041e-05
5.31221e-05
6.68637e-05
7.35484e-05
7.76551e-05
0.000121
-0.000131788
3.3465e-05
9.72591e-05
7.35166e-05
1.72675e-05
5.57324e-05
4.14538e-05
7.37136e-05
9.16584e-05
7.05966e-05
-4.00232e-05
6.15246e-05
7.3786e-05
-2.37297e-05
4.90363e-05
3.72115e-05
-3.03803e-05
6.64943e-05
-6.71617e-05
8.7759e-05
0.000108748
-0.000115249
-4.67432e-05
7.66876e-05
7.89619e-05
-2.03099e-05
6.10125e-05
4.6355e-05
-3.66711e-05
8.30101e-05
-8.38564e-05
0.000108216
0.000134458
-0.000141646
-4.98466e-05
9.95727e-05
8.47192e-05
-2.16146e-05
7.99705e-05
6.13979e-05
2.06473e-05
4.0744e-05
4.75302e-05
5.30966e-05
6.62396e-05
8.08532e-05
7.02284e-05
0.000115773
-0.000119765
3.00141e-05
9.33061e-05
7.0759e-05
2.15583e-05
4.91969e-05
5.03971e-05
6.44631e-05
8.00467e-05
8.61174e-05
8.56554e-05
0.000139374
-0.00014499
3.75965e-05
0.000112515
8.67878e-05
2.30402e-05
6.37395e-05
5.29659e-05
8.25805e-05
0.000102896
8.94336e-05
-4.92005e-05
6.8483e-05
8.36087e-05
-2.16183e-05
5.49935e-05
4.21165e-05
-3.19876e-05
7.41002e-05
-7.32236e-05
9.62256e-05
0.000119369
-0.000124114
-5.19699e-05
8.28804e-05
8.84544e-05
-2.28575e-05
6.71092e-05
5.12388e-05
-3.98164e-05
9.10519e-05
-9.00227e-05
0.000117312
0.000144727
-0.000151873
-5.47727e-05
0.000106726
9.27685e-05
-2.39025e-05
8.64389e-05
6.71463e-05
2.33444e-05
4.37997e-05
5.25107e-05
5.72704e-05
7.16124e-05
8.7622e-05
7.5874e-05
0.000123006
-0.00012727
3.35222e-05
9.96196e-05
7.73194e-05
2.40055e-05
5.33111e-05
5.51865e-05
6.84353e-05
8.54428e-05
9.27454e-05
9.07197e-05
0.000147706
-0.000152987
3.9733e-05
0.000119418
9.30408e-05
2.48148e-05
6.82219e-05
5.65195e-05
8.77086e-05
0.000108735
9.54842e-05
-5.306e-05
7.23845e-05
8.94082e-05
-2.3371e-05
5.80161e-05
4.48488e-05
-3.39385e-05
7.87845e-05
-7.72114e-05
0.000101287
0.000124515
-0.000129345
-5.57968e-05
8.62535e-05
9.40565e-05
-2.46358e-05
7.01207e-05
5.41487e-05
-4.08571e-05
9.49818e-05
-9.29764e-05
0.000122254
0.000149927
-0.000156654
-5.7875e-05
0.000110959
9.68517e-05
-2.54203e-05
8.94694e-05
6.98829e-05
2.13287e-05
4.53325e-05
5.64039e-05
5.94027e-05
7.25839e-05
9.28139e-05
7.78275e-05
0.000125143
-0.000129139
3.25676e-05
0.000102027
7.94491e-05
2.66356e-05
5.23183e-05
6.15512e-05
6.78923e-05
8.32554e-05
0.000103003
8.22802e-05
0.000139731
-0.000138693
3.64752e-05
0.000113536
8.88905e-05
2.87607e-05
6.00606e-05
6.52155e-05
7.7181e-05
9.50394e-05
0.000109875
9.70657e-05
0.00016177
-0.000163793
4.25229e-05
0.000131675
0.000102612
2.81279e-05
7.39788e-05
6.5634e-05
9.47466e-05
0.000116397
0.000110847
-5.60249e-05
7.62125e-05
9.93959e-05
-3.07236e-05
6.16168e-05
4.81923e-05
-3.73455e-05
8.33416e-05
-7.82086e-05
0.000106442
0.00013102
-0.000134869
-6.37542e-05
8.70051e-05
0.000108351
-2.89088e-05
7.05335e-05
5.50034e-05
-3.72843e-05
9.22255e-05
-8.4568e-05
0.000117923
0.00014548
-0.000143069
-6.71171e-05
9.85658e-05
0.000114043
-2.94364e-05
8.02128e-05
6.28153e-05
-4.48831e-05
0.000107726
-0.000101386
0.000136683
0.000167274
-0.000170103
-6.76131e-05
0.000121451
0.000113316
-2.94343e-05
9.9077e-05
7.77446e-05
3.24934e-05
5.05166e-05
5.89763e-05
6.43521e-05
7.94943e-05
0.000104224
8.14083e-05
0.000135523
-0.000139986
3.91231e-05
0.000111966
8.66715e-05
3.05717e-05
5.69106e-05
6.75567e-05
7.35358e-05
8.9954e-05
0.000113919
8.66655e-05
0.000149222
-0.000145975
3.88101e-05
0.000121527
9.56328e-05
3.30543e-05
6.2623e-05
7.51218e-05
7.9398e-05
9.70726e-05
0.00012729
9.01415e-05
0.00015808
-0.000151167
3.959e-05
0.000129978
0.000102195
3.377e-05
6.84355e-05
7.63618e-05
8.73647e-05
0.000106812
0.000127634
0.000105542
0.000178692
-0.000177424
4.71038e-05
0.000145766
0.000115578
3.26412e-05
8.23327e-05
7.37469e-05
0.000105381
0.000128893
0.000123353
-6.18142e-05
8.39088e-05
0.000110556
-3.43784e-05
6.86152e-05
5.38858e-05
-4.21213e-05
9.19e-05
-8.38758e-05
0.00011759
0.000143189
-0.000146578
-7.11269e-05
9.52666e-05
0.000120144
-3.2608e-05
7.69431e-05
6.04807e-05
-4.03556e-05
0.000100495
-9.11575e-05
0.000128358
0.000155716
-0.00015187
-7.90053e-05
0.000102043
0.000132899
-3.46232e-05
8.35162e-05
6.61178e-05
-4.16887e-05
0.000107779
-9.51102e-05
0.000136979
0.000167182
-0.000160266
-7.93798e-05
0.000112946
0.000133616
-3.50862e-05
9.26753e-05
7.26962e-05
-5.05827e-05
0.000123282
-0.00011402
0.000156099
0.000190045
-0.000191132
-7.78107e-05
0.000137436
0.000130368
-3.41547e-05
0.000112694
8.89078e-05
3.4259e-05
5.71842e-05
6.96964e-05
7.31913e-05
9.04253e-05
0.000118288
9.25861e-05
0.000152601
-0.000156201
4.30344e-05
0.000125852
9.85703e-05
3.42321e-05
6.48217e-05
7.69108e-05
8.22169e-05
0.000100916
0.00012911
9.60514e-05
0.000166019
-0.000161216
4.29867e-05
0.000135471
0.000107687
3.80825e-05
6.96748e-05
8.50056e-05
8.84403e-05
0.000107753
0.000143308
9.86868e-05
0.000173819
-0.00016478
4.40968e-05
0.000143095
0.000113733
4.016e-05
7.36083e-05
8.93678e-05
9.3821e-05
0.00011374
0.000149465
0.000103596
0.000184293
-0.000174158
4.64164e-05
0.00015102
0.000120012
3.97462e-05
8.02729e-05
8.85946e-05
0.000102162
0.000124143
0.000148748
0.00012267
0.00020753
-0.00020606
5.44618e-05
0.000170362
0.000134746
3.83083e-05
9.62838e-05
8.67318e-05
0.000122103
0.00014759
0.000146659
-7.57483e-05
9.6654e-05
0.00012796
-3.60684e-05
7.91315e-05
6.22617e-05
-4.57803e-05
0.000106526
-9.8334e-05
0.000134558
0.00016281
-0.000165805
-8.27824e-05
0.000107581
0.000138579
-3.72956e-05
8.79566e-05
6.97803e-05
-4.4939e-05
0.000114372
-0.000101519
0.000145208
0.000175419
-0.000169605
-9.10135e-05
0.000114481
0.000152184
-4.04024e-05
9.4024e-05
7.42612e-05
-4.58749e-05
0.000119965
-0.000103339
0.000151785
0.000184154
-0.000173117
-9.44339e-05
0.000120564
0.000158111
-4.17911e-05
9.88891e-05
7.83156e-05
-4.86977e-05
0.000126949
-0.000110117
0.000160428
0.000193657
-0.00018325
-9.33365e-05
0.000130857
0.000156163
-4.07738e-05
0.000107766
8.62285e-05
-5.78985e-05
0.000144104
-0.000130883
0.000180783
0.00021972
-0.000219758
-9.11283e-05
0.000158777
0.000152077
-4.00678e-05
0.000129666
0.00010411
3.57006e-05
6.76196e-05
8.23983e-05
8.41146e-05
0.000104081
0.000136613
0.000107549
0.000175317
-0.000177683
4.5669e-05
0.000143787
0.000114639
3.9182e-05
7.4898e-05
8.85858e-05
9.52313e-05
0.000115099
0.000148331
0.000110196
0.000188806
-0.000183664
4.85061e-05
0.00015635
0.000123771
4.3463e-05
7.99955e-05
9.92196e-05
0.000101086
0.000123572
0.00016425
0.000112247
0.000198268
-0.00018681
4.92206e-05
0.000163759
0.000129467
4.43087e-05
8.49141e-05
0.000102428
0.000105984
0.000129144
0.000171408
0.000117543
0.00020872
-0.000197066
5.19342e-05
0.000171449
0.000136942
4.47442e-05
9.21378e-05
0.000101063
0.000115221
0.000140378
0.000169376
0.000138784
0.000233301
-0.000231709
6.10572e-05
0.000192906
0.000153221
4.3662e-05
0.00010943
9.94809e-05
0.000137234
0.000166798
0.000165963
-8.57637e-05
0.000109012
0.00014437
-4.01997e-05
8.93844e-05
7.06418e-05
-5.11847e-05
0.000120188
-0.000110847
0.000152145
0.000183534
-0.0001867
-9.39017e-05
0.000120286
0.000157815
-4.25951e-05
9.94561e-05
7.82654e-05
-5.18354e-05
0.000129612
-0.000114368
0.000162944
0.000197521
-0.000191926
-0.000102942
0.000128815
0.000171953
-4.59456e-05
0.000105174
8.40495e-05
-5.17044e-05
0.000135409
-0.000116388
0.000170496
0.000206153
-0.000193934
-0.00010646
0.000134828
0.000177968
-4.80162e-05
0.000111472
8.76977e-05
-5.50618e-05
0.000142583
-0.000123008
0.000179747
0.000217624
-0.000205899
-0.0001053
0.000146982
0.000176025
-4.63066e-05
0.000120473
9.64269e-05
-6.52645e-05
0.000161623
-0.000146893
0.000202207
0.000245716
-0.000245661
-0.000101817