/*--------------------------------*- C++ -*----------------------------------*\
| =========                 |                                                 |
| \\      /  F ield         | OpenFOAM: The Open Source CFD Toolbox           |
|  \\    /   O peration     | Version:  v2006                                 |
|   \\  /    A nd           | Website:  www.openfoam.com                      |
|    \\/     M anipulation  |                                                 |
\*---------------------------------------------------------------------------*/
FoamFile
{
    version     2.0;
    format      ascii;
    class       volScalarField;
    location    "0.02";
    object      turbulenceProperties:I;
}
// * * * * * * * * * * * * * * * * * * * * * * * * * * * * * * * * * * * * * //

dimensions      [0 0 0 0 0 0 0];


internalField   nonuniform List<scalar> 
10108
(
0.14998
0.149981
0.149988
0.14999
0.149992
0.149995
0.149993
0.149993
0.149996
0.149999
0.149999
0.149996
0.149992
0.149988
0.149984
0.14998
0.149978
0.149976
0.149975
0.149974
0.149972
0.149972
0.149971
0.14997
0.149969
0.149969
0.149968
0.149967
0.149967
0.149966
0.149965
0.149965
0.149964
0.149964
0.149963
0.149963
0.149962
0.149962
0.149961
0.14996
0.14996
0.149959
0.149959
0.149958
0.149957
0.149957
0.149956
0.149955
0.149954
0.149954
0.149953
0.149952
0.14995
0.149949
0.149948
0.149949
0.149954
0.149969
0.149992
0.150011
0.150011
0.149997
0.149981
0.149972
0.149977
0.149965
0.14996
0.149971
0.149987
0.149831
0.149176
0.144404
0.137289
0.1451
0.14848
0.145915
0.139664
0.131726
0.127317
0.134938
0.143186
0.14021
0.130588
0.123854
0.121227
0.126909
0.137659
0.134834
0.123497
0.118989
0.117497
0.12113
0.132868
0.13047
0.118495
0.115993
0.115155
0.117164
0.128997
0.12694
0.115115
0.11412
0.113646
0.114377
0.125866
0.124119
0.112779
0.112912
0.112649
0.112367
0.12331
0.121803
0.111091
0.112114
0.111976
0.110864
0.121186
0.119863
0.109835
0.111579
0.111528
0.109718
0.119397
0.118233
0.10889
0.111235
0.111235
0.108848
0.117881
0.116832
0.108153
0.111004
0.111041
0.108166
0.116568
0.115623
0.107577
0.110861
0.110927
0.107633
0.11542
0.114573
0.107125
0.110784
0.110872
0.107219
0.114421
0.113658
0.106777
0.110759
0.110865
0.106903
0.11355
0.112859
0.106518
0.110777
0.110899
0.106674
0.112792
0.112168
0.106338
0.110832
0.11097
0.106523
0.11214
0.111577
0.106233
0.110923
0.111076
0.106445
0.111587
0.111082
0.106197
0.111047
0.111216
0.106439
0.111131
0.110681
0.10623
0.111205
0.11139
0.106502
0.110769
0.110374
0.106331
0.111397
0.111599
0.106635
0.110502
0.110159
0.106501
0.111623
0.111844
0.10684
0.110329
0.110037
0.106742
0.111887
0.112128
0.107117
0.11025
0.11001
0.107056
0.112189
0.112453
0.107471
0.110269
0.110081
0.107446
0.112533
0.112821
0.107905
0.110389
0.110253
0.107919
0.112922
0.113237
0.108426
0.110614
0.110533
0.108479
0.11336
0.113707
0.10904
0.110952
0.11093
0.109137
0.113854
0.114237
0.109758
0.111412
0.111453
0.109901
0.114413
0.114837
0.110591
0.112007
0.112117
0.110787
0.115044
0.115517
0.111556
0.112752
0.112937
0.111811
0.115762
0.116292
0.112672
0.113666
0.113936
0.112995
0.116581
0.117179
0.113965
0.114773
0.115139
0.114367
0.11752
0.118199
0.115465
0.116103
0.11658
0.115961
0.118602
0.11938
0.117213
0.117693
0.118301
0.117822
0.11986
0.12076
0.119263
0.119595
0.120361
0.120012
0.121339
0.122393
0.121689
0.121877
0.122841
0.122619
0.123106
0.124363
0.1246
0.124641
0.125864
0.125771
0.125271
0.1268
0.128161
0.128039
0.129616
0.129672
0.128
0.129931
0.132636
0.132312
0.134405
0.134669
0.131586
0.134173
0.138462
0.137864
0.140748
0.141303
0.136545
0.140381
0.146487
0.145421
0.149727
0.150789
0.144071
0.150457
0.158451
0.156346
0.163627
0.165964
0.157573
0.169156
0.178336
0.173771
0.187904
0.194917
0.192627
0.216674
0.200818
0.2022
0.204476
0.211279
1
0.392453
0.411157
0.233155
0.373126
1
0.352231
0.3201
1
0.82783
1
0.970282
0.291259
0.290973
0.873333
1
1
0.789465
0.271147
0.27925
0.842361
1
1
0.653582
0.259017
0.288421
0.696564
1
1
0.535052
0.259523
0.280141
0.564247
1
0.810896
0.469969
0.253357
0.256895
0.476984
0.786832
0.679962
0.431995
0.24206
0.24117
0.43799
0.664348
0.65084
0.434361
0.239986
0.247778
0.457497
0.678766
0.729568
0.489053
0.260566
0.276914
0.531932
0.798428
0.893815
0.585864
0.298202
0.32288
0.651939
1
1
0.728061
0.351067
0.386257
0.826187
1
1
0.933758
0.422933
0.478286
1
1
1
1
0.541922
0.645155
1
1
1
1
0.816684
1
1
1
1
1
1
1
1
1
1
1
1
1
1
1
0.995128
0.984628
0.736581
0.563228
0.784332
0.819879
0.691756
0.643487
0.449828
0.378693
0.545175
0.595758
0.520234
0.46902
0.324698
0.286393
0.411313
0.460357
0.410765
0.363717
0.254898
0.230959
0.32572
0.36985
0.334874
0.29327
0.210238
0.193653
0.266172
0.304863
0.27805
0.242238
0.178752
0.166658
0.221654
0.254589
0.233232
0.20267
0.155275
0.146368
0.186971
0.21477
0.19778
0.171909
0.137551
0.130898
0.159998
0.183265
0.17036
0.148839
0.124214
0.118626
0.138815
0.158186
0.150973
0.132769
0.114915
0.108834
0.121393
0.138171
0.152121
0.15507
0.143732
0.1243
0.107686
0.0924257
0.0849179
0.0804202
0.0786782
0.0783308
0.0784438
0.0793539
0.0794395
0.0799503
0.0789153
0.078318
0.075102
0.0706552
0.0683307
0.0626931
0.0463785
0.0387958
0.0377724
0.0336378
0.0339454
0.0426036
0.104638
0.0916094
0.0474908
0.0402796
0.053425
0.0746115
0.156665
0.143435
0.0733015
0.0493244
0.053625
0.0734326
0.147095
0.146117
0.0766703
0.0587918
0.0674866
0.079866
0.149414
0.148804
0.0854625
0.0775868
0.0884432
0.0921573
0.151228
0.1519
0.102215
0.100473
0.109325
0.111242
0.15424
0.15737
0.123883
0.119507
0.123597
0.131143
0.159014
0.162241
0.139689
0.128632
0.129159
0.140851
0.16245
0.163924
0.144216
0.131784
0.130996
0.142828
0.16286
0.163588
0.14512
0.132707
0.131256
0.142889
0.16206
0.162501
0.144376
0.132207
0.130333
0.141548
0.160696
0.160732
0.142094
0.130874
0.128849
0.138758
0.158634
0.158208
0.138437
0.129399
0.127469
0.134869
0.155931
0.15518
0.134406
0.128427
0.126781
0.131016
0.152905
0.152214
0.131206
0.128443
0.127185
0.128344
0.150219
0.149743
0.129413
0.129408
0.128444
0.127133
0.147965
0.14761
0.12858
0.131003
0.130251
0.126694
0.146002
0.145703
0.128259
0.13296
0.13234
0.126625
0.144233
0.144012
0.128193
0.135218
0.134712
0.126697
0.14268
0.142512
0.128327
0.137786
0.137378
0.126925
0.141268
0.141174
0.128671
0.14076
0.140459
0.12734
0.140005
0.139966
0.129276
0.144163
0.143981
0.128018
0.138849
0.138932
0.130393
0.148197
0.148178
0.12929
0.137924
0.13809
0.132157
0.152757
0.152643
0.130978
0.136728
0.136447
0.134531
0.157683
0.157781
0.133434
0.13473
0.134835
0.138244
0.164167
0.165134
0.138016
0.133661
0.134823
0.144757
0.173353
0.175397
0.145632
0.134296
0.135627
0.153145
0.184581
0.187915
0.155658
0.135822
0.137826
0.163637
0.198335
0.202872
0.166574
0.13834
0.1414
0.176499
0.215239
0.22133
0.180194
0.142779
0.149224
0.194195
0.236915
0.246902
0.201778
0.154729
0.169554
0.224153
0.267902
0.281342
0.246484
0.182593
0.161296
0.188166
0.236179
0.295193
0.245321
0.174864
0.181616
0.256003
0.31186
0.345692
0.291185
0.199724
0.213848
0.31304
0.373849
0.416944
0.352548
0.241445
0.272218
0.400384
0.471894
0.536737
0.474884
0.319677
0.269695
0.404725
0.507467
0.676444
0.597442
0.382655
0.497794
0.759142
0.854067
1
1
0.693419
1
1
1
1
1
1
1
1
1
1
1
0.869215
0.413353
0.625841
0.708192
0.519445
0.479269
0.333548
0.211172
0.297718
0.321226
0.219151
0.198451
0.138354
0.125486
0.164769
0.179853
0.174824
0.170877
0.146341
0.14847
0.147416
0.168492
0.172679
0.166706
0.162228
0.165769
0.167755
0.176923
0.153317
0.13854
0.153806
0.154128
0.156689
0.165644
0.165846
0.154569
0.153412
0.141989
0.127408
0.137587
0.154994
0.145581
0.141095
0.139917
0.141852
0.153265
0.125
0.118492
0.131908
0.130961
0.135006
0.144801
0.142123
0.130891
0.130131
0.125663
0.111195
0.115694
0.13529
0.125595
0.12352
0.122641
0.121097
0.131795
0.107488
0.10496
0.120707
0.117326
0.117083
0.126412
0.122701
0.112576
0.116797
0.116516
0.0988226
0.100464
0.118642
0.109146
0.112102
0.112197
0.105152
0.114513
0.0941616
0.0938077
0.113259
0.108011
0.101878
0.111444
0.107219
0.0986698
0.107681
0.1104
0.0897279
0.0890396
0.104698
0.0954547
0.104871
0.104539
0.0931172
0.100466
0.0845665
0.0865142
0.108841
0.102138
0.0905954
0.0986554
0.0948967
0.0884419
0.102261
0.107554
0.0832942
0.080994
0.0925212
0.085839
0.0993103
0.0999857
0.0836922
0.0888869
0.0775016
0.0802419
0.106651
0.0973728
0.0812121
0.08597
0.0767522
0.0783603
0.102333
0.0942072
0.0811612
0.0884795
0.08366
0.0789
0.0952095
0.101361
0.0762927
0.0736522
0.0810649
0.0767152
0.0929083
0.0945735
0.0747421
0.0778005
0.0704513
0.0739535
0.101373
0.0915793
0.0724542
0.0758918
0.069265
0.071931
0.0979367
0.0886192
0.0728685
0.0784234
0.0740386
0.0710568
0.089987
0.0968526
0.0708005
0.0678073
0.0728881
0.0697115
0.0887916
0.094435
0.0695536
0.0666731
0.0757018
0.0699551
0.0853314
0.087362
0.0687374
0.0713125
0.0656085
0.0690069
0.0948996
0.0863196
0.0672556
0.0694469
0.0644328
0.0672547
0.0916935
0.0821156
0.0653745
0.0692997
0.0663362
0.0652077
0.084764
0.0924328
0.0667577
0.0620476
0.0649963
0.0637898
0.0832747
0.0887625
0.0646237
0.0605687
0.0662479
0.0626189
0.0799275
0.0831239
0.0620037
0.0628353
0.0597986
0.0661438
0.0908177
0.0813672
0.0602712
0.0617035
0.0584764
0.0632073
0.0874148
0.0780075
0.0591284
0.0609228
0.0582273
0.0586279
0.0814661
0.0894735
0.064785
0.0568857
0.057453
0.0565984
0.0794885
0.086431
0.0622454
0.0555673
0.0573942
0.0554877
0.0769075
0.0826965
0.0597959
0.054939
0.057472
0.0558968
0.0745861
0.0783481
0.055455
0.0547779
0.0541633
0.0628708
0.0857276
0.0763868
0.0534243
0.0542552
0.0530041
0.0602711
0.0839279
0.075043
0.0527626
0.0539034
0.0521278
0.0578487
0.0808175
0.0719576
0.0530594
0.0538728
0.051277
0.052692
0.0757146
0.0834723
0.0613899
0.0518512
0.050555
0.0505667
0.0744732
0.0821629
0.0588075
0.0503912
0.0502261
0.0495099
0.0725888
0.07871
0.0569273
0.0496871
0.0502472
0.0490729
0.0703525
0.0765019
0.0549083
0.0490788
0.0505985
0.0500416
0.0686388
0.0731868
0.0503222
0.0483781
0.049604
0.0598443
0.0810593
0.0719683
0.0478737
0.0473629
0.0477626
0.0567888
0.0794915
0.0701301
0.0464142
0.0464865
0.0468301
0.0550308
0.0767669
0.0685091
0.046156
0.0464335
0.0461413
0.0531508
0.0748186
0.0664154
0.0471068
0.0467415
0.0448497
0.0474493
0.0706844
0.0785179
0.0581602
0.0468022
0.0445899
0.045695
0.069529
0.0770093
0.0548929
0.0454829
0.0441692
0.0443562
0.0678399
0.0744561
0.0532811
0.0447825
0.0437145
0.0436647
0.0656904
0.0724617
0.0523311
0.0442555
0.0435578
0.0436427
0.0645041
0.0711292
0.0514317
0.0438772
0.0441458
0.0447512
0.0636583
0.0682442
0.0455465
0.0426036
0.0449304
0.0566555
0.0758971
0.0671759
0.044049
0.0426839
0.0438412
0.0531682
0.07476
0.0658137
0.0423719
0.0420045
0.0430555
0.0517321
0.0728871
0.06467
0.0419508
0.0415533
0.0426013
0.0511951
0.0716852
0.0635125
0.0417127
0.0412173
0.0419247
0.0505386
0.070355
0.062632
0.0426945
0.0418031
0.0404048
0.0436525
0.0671318
0.0745017
0.0554255
0.0431777
0.0407864
0.0426189
0.0657742
0.0734283
0.0521035
0.0423185
0.0403308
0.0409476
0.0643612
0.0715058
0.0505605
0.041662
0.0399165
0.0404506
0.063133
0.0703953
0.0500175
0.0412256
0.039779
0.0404173
0.0625804
0.0695762
0.0500229
0.0408176
0.040417
0.041548
0.0618883
0.0665714
0.0428314
0.0392499
0.0423736
0.0552789
0.0741024
0.0651935
0.0418924
0.0398747
0.0416426
0.051602
0.0729037
0.0638044
0.0400329
0.0392661
0.0408803
0.0501281
0.0712558
0.0628502
0.0394674
0.0387917
0.0404199
0.0497123
0.070264
0.0621173
0.0394313
0.038507
0.0397845
0.0495018
0.0693507
0.061433
0.0404499
0.0390652
0.0379571
0.0417569
0.0661013
0.073842
0.0546469
0.0414617
0.0387131
0.0408921
0.0644088
0.072273
0.0510052
0.0407277
0.0382548
0.0391715
0.0631908
0.0707738
0.0495613
0.04009
0.037897
0.0387381
0.0622868
0.0696819
0.0491411
0.0397069
0.0376783
0.0386794
0.0614259
0.0685662
0.0489363
0.0391584
0.0380366
0.0396553
0.0606091
0.0653367
0.0412266
0.0371643
0.0409604
0.0543151
0.0733466
0.0642914
0.0405479
0.0381607
0.0404368
0.0508038
0.0723342
0.0631724
0.0387198
0.037758
0.0397534
0.0494651
0.0706611
0.0617417
0.0382258
0.0372684
0.0392121
0.0488576
0.0692186
0.0610395
0.0382187
0.0369728
0.03867
0.0487419
0.0683547
0.0605027
0.0392006
0.0373636
0.036499
0.0406106
0.0651157
0.0728154
0.0537914
0.0404815
0.0374426
0.0399432
0.0637154
0.0714742
0.0500116
0.0396935
0.0369594
0.0379004
0.0621088
0.0696986
0.0487811
0.039071
0.036802
0.0379794
0.0616581
0.0688813
0.0487953
0.0386907
0.037061
0.0390392
0.0607965
0.0654334
0.0405277
0.0362594
0.0405802
0.0538533
0.0731263
0.0635294
0.0393907
0.0370655
0.03975
0.0501138
0.0715473
0.0624253
0.0378813
0.0367403
0.0390278
0.0489238
0.0699189
0.0612626
0.0377174
0.0364493
0.0382399
0.0483541
0.0682708
0.0600579
0.0384362
0.0365103
0.035555
0.0395445
0.0642097
0.071772
0.0529494
0.0399092
0.0364174
0.0389229
0.0627572
0.070719
0.0496222
0.0392143
0.0363042
0.0375857
0.0616941
0.0686996
0.0483134
0.0382805
0.0362359
0.0381071
0.0600993
0.064454
0.0395837
0.0354027
0.0398702
0.0527233
0.0719028
0.0626384
0.0385654
0.0359861
0.039089
0.0494349
0.0708135
0.0618245
0.0372345
0.035744
0.0380571
0.0482445
0.0688142
0.0597981
0.0376047
0.0356251
0.0347813
0.03898
0.0640563
0.0713096
0.0522214
0.0392933
0.0352504
0.0380011
0.0617354
0.0697409
0.0490357
0.0382352
0.0351731
0.0375047
0.0609422
0.0656081
0.0390863
0.0345392
0.039648
0.0531969
0.0733414
0.0628176
0.0379949
0.035012
0.0379584
0.0486213
0.0700373
0.0600554
0.036612
0.0342302
0.0335837
0.0380834
0.0648482
0.073155
0.0530376
0.0390868
0.0345278
0.0377462
0.0632021
0.0706413
0.0490374
0.0379213
0.0338537
0.0365214
0.0603205
0.0640485
0.0372229
0.0328964
0.0385875
0.0524183
0.0721455
0.0625462
0.0370135
0.0337686
0.0373516
0.0485806
0.0702961
0.0601507
0.0358555
0.0332635
0.0324554
0.0371084
0.0642887
0.0711997
0.0511093
0.0376725
0.0328598
0.0358065
0.060515
0.0685267
0.0476
0.0364578
0.0326368
0.0354819
0.0593165
0.0636479
0.0368874
0.0320515
0.0371634
0.0512508
0.0706808
0.0590984
0.0358611
0.032399
0.031467
0.0363085
0.0626444
0.0711785
0.0513447
0.0371697
0.0322243
0.0363341
0.0612487
0.0656381
0.0368595
0.0315485
0.0372823
0.0516391
0.0728218
0.0602077
0.0352506
0.0315534
0.030714
0.0359339
0.0641898
0.072829
0.0516425
0.0370306
0.031383
0.0357968
0.0618569
0.0654544
0.0353978
0.0305698
0.0364342
0.0514413
0.072083
0.0603972
0.0348242
0.0304691
0.0298626
0.0353264
0.0648464
0.0724696
0.0504779
0.035792
0.0300201
0.0335564
0.058586
0.0609998
0.0356177
0.029094
0.0286856
0.0370209
0.0662196
0.0744589
0.0516021
0.0357881
0.0294371
0.0337867
0.0601607
0.0623361
0.0331963
0.0281769
0.0284452
0.0387012
0.0685341
0.0707337
0.0359362
0.0276502
0.0368835
0.0546681
0.0791088
0.0647946
0.0349529
0.0291951
0.0283775
0.0340302
0.0686548
0.0731892
0.0391016
0.0284749
0.0281352
0.0382023
0.0786709
0.0838932
0.0421881
0.0286918
0.0290241
0.0428118
0.0912375
0.0989402
0.0470583
0.0304087
0.0316518
0.0498206
0.106231
0.109919
0.0536323
0.0330309
0.0337187
0.0554773
0.1113
0.112151
0.058573
0.0349487
0.0355747
0.0605129
0.112559
0.112691
0.0637541
0.0370168
0.0376424
0.0658194
0.112478
0.112248
0.0693401
0.0394203
0.0401701
0.0714306
0.112033
0.111888
0.07448
0.0422497
0.0431717
0.0768125
0.111828
0.11179
0.079107
0.0458764
0.0469542
0.0812238
0.111807
0.111799
0.0832302
0.0499238
0.0509887
0.0851008
0.111847
0.111865
0.0869426
0.0539793
0.0550785
0.0886585
0.111962
0.111992
0.0903135
0.0580414
0.0591147
0.091869
0.112145
0.112179
0.0933632
0.0620759
0.0631033
0.0947835
0.11242
0.112393
0.0961095
0.0658935
0.0668229
0.0973777
0.112709
0.112615
0.0985484
0.0694518
0.0702952
0.0996283
0.11298
0.112878
0.100613
0.0727177
0.0734137
0.101472
0.113176
0.113123
0.102285
0.0756357
0.0762025
0.102985
0.113349
0.11335
0.10366
0.0782008
0.0786208
0.104181
0.113492
0.113497
0.104728
0.0804197
0.080719
0.105126
0.113577
0.113583
0.105558
0.082288
0.0824743
0.105817
0.113611
0.113608
0.106149
0.0838622
0.0839578
0.106327
0.113597
0.113582
0.106573
0.0851593
0.085167
0.106653
0.113545
0.113509
0.106812
0.0862201
0.0861579
0.106846
0.113462
0.113411
0.106936
0.0870599
0.0869333
0.106898
0.113356
0.113283
0.106932
0.0877183
0.0875421
0.106866
0.113216
0.113134
0.106856
0.0882117
0.0879914
0.106738
0.113062
0.112964
0.106689
0.0885726
0.0883199
0.106559
0.112885
0.112788
0.106486
0.0888139
0.0885133
0.106315
0.112703
0.112597
0.106222
0.0889587
0.0886567
0.106048
0.112512
0.112405
0.105941
0.0890492
0.0887171
0.105739
0.112323
0.112207
0.105619
0.0890671
0.0887169
0.105417
0.112121
0.112008
0.105284
0.0890267
0.0886565
0.10506
0.111927
0.11181
0.104924
0.0889363
0.0885541
0.104706
0.111726
0.111614
0.104561
0.0888023
0.0883902
0.104325
0.111533
0.111419
0.104177
0.0886225
0.0882026
0.10395
0.111335
0.111226
0.103796
0.0884171
0.087984
0.103553
0.111146
0.11104
0.1034
0.0881884
0.0877536
0.103169
0.110956
0.110851
0.10301
0.0879421
0.0875
0.102766
0.11077
0.110672
0.102615
0.0876793
0.0872373
0.102386
0.110591
0.110497
0.102234
0.0873991
0.0869511
0.101991
0.110416
0.110327
0.101846
0.0871061
0.0866634
0.101618
0.110245
0.110162
0.101475
0.0868061
0.086364
0.101235
0.110083
0.110004
0.101099
0.0865037
0.0860681
0.100876
0.109924
0.109852
0.100745
0.0861984
0.0857599
0.100514
0.109773
0.109707
0.10039
0.085891
0.0854568
0.100177
0.109628
0.109568
0.100057
0.0855818
0.0851507
0.0998345
0.10949
0.109435
0.0997231
0.0852792
0.0848559
0.0995191
0.109357
0.109308
0.0994135
0.0849799
0.0845622
0.0992012
0.109232
0.109189
0.0991049
0.084691
0.0842819
0.0989114
0.109113
0.109075
0.0988218
0.084407
0.0840059
0.0986201
0.109001
0.108968
0.098541
0.0841369
0.0837442
0.0983578
0.108895
0.108867
0.0982854
0.0838721
0.0834875
0.0980944
0.108796
0.108772
0.0980337
0.083622
0.0832455
0.09786
0.108702
0.108683
0.0978039
0.0833767
0.0830075
0.0976235
0.108614
0.108599
0.0975778
0.0831456
0.0827841
0.0974144
0.108532
0.108521
0.0973724
0.0829193
0.0825647
0.0972039
0.108455
0.108447
0.0971691
0.0827073
0.0823608
0.0970171
0.108382
0.108378
0.0969855
0.0825
0.0821594
0.0968279
0.108314
0.108313
0.0968033
0.0823062
0.0819734
0.0966619
0.10825
0.108253
0.0966403
0.0821169
0.0817896
0.0964931
0.108191
0.108196
0.0964778
0.0819408
0.0816207
0.0963461
0.108135
0.108143
0.0963334
0.0817685
0.0814539
0.0961955
0.108084
0.108094
0.0961888
0.0816091
0.0813002
0.0960658
0.108035
0.108048
0.0960611
0.0814521
0.081148
0.0959312
0.10799
0.108004
0.0959319
0.0813075
0.0810095
0.0958163
0.107946
0.107963
0.0958185
0.0811652
0.080871
0.0956955
0.107906
0.107924
0.0957026
0.0810342
0.0807455
0.0955935
0.107867
0.107887
0.0956017
0.0809042
0.0806194
0.0954847
0.107831
0.107852
0.0954975
0.0807857
0.0805056
0.095394
0.107797
0.10782
0.0954077
0.0806678
0.0803887
0.0952959
0.107765
0.107789
0.0953138
0.0805596
0.0802857
0.0952152
0.107734
0.10776
0.0952337
0.0804525
0.0801785
0.0951264
0.107706
0.107732
0.0951488
0.0803545
0.0800861
0.0950546
0.107679
0.107706
0.0950773
0.0802575
0.0799885
0.0949743
0.107654
0.107682
0.0950009
0.0801686
0.0799046
0.0949106
0.107629
0.107659
0.0949374
0.0800804
0.0798159
0.0948381
0.107607
0.107637
0.0948686
0.0800009
0.0797418
0.0947819
0.107585
0.107617
0.0948123
0.0799218
0.0796612
0.0947164
0.107566
0.107598
0.0947502
0.0798493
0.0795933
0.0946669
0.107547
0.10758
0.0947006
0.0797765
0.0795199
0.094608
0.10753
0.107563
0.0946451
0.0797122
0.0794606
0.0945647
0.107513
0.107547
0.0946013
0.0796479
0.0793942
0.0945111
0.107498
0.107532
0.0945505
0.079589
0.0793389
0.0944723
0.107482
0.107517
0.0945111
0.0795277
0.0792761
0.0944231
0.107468
0.107503
0.0944648
0.0794739
0.0792273
0.0943884
0.107453
0.107489
0.0944291
0.07942
0.0791713
0.0943421
0.107439
0.107474
0.0943848
0.0793708
0.0791243
0.0943089
0.107424
0.10746
0.0943502
0.0793166
0.0790669
0.0942635
0.107409
0.107445
0.094307
0.0792671
0.0790221
0.0942314
0.107394
0.10743
0.0942735
0.0792168
0.0789695
0.0941869
0.107379
0.107415
0.0942307
0.0791712
0.0789262
0.0941547
0.107363
0.107399
0.0941968
0.0791206
0.0788722
0.0941099
0.107349
0.107384
0.094154
0.0790742
0.0788302
0.0940785
0.107333
0.10737
0.0941214
0.0790265
0.0787802
0.0940356
0.10732
0.107356
0.0940808
0.0789837
0.0787408
0.0940068
0.107307
0.107345
0.0940514
0.0789382
0.0786927
0.0939673
0.107296
0.107334
0.0940134
0.0788987
0.0786542
0.0939304
0.107284
0.107322
0.0939773
0.0788498
0.0786122
0.0939024
0.10726
0.1073
0.0939456
0.0788053
0.078551
0.0938594
0.107254
0.107299
0.0939037
0.0787462
0.0784646
0.0937921
0.107222
0.107275
0.0938353
0.0786215
0.0782911
0.0937044
0.107183
0.107223
0.0937402
0.078414
0.078036
0.0935874
0.107108
0.107012
0.0934511
0.0779109
0.0767438
0.0926574
0.106534
0.105801
0.0915032
0.0752212
0.0737035
0.0904576
0.105024
0.0566595
0.0459505
0.0447443
0.0453781
0.0479998
0.0502991
0.0524695
0.0534817
0.0566795
0.0583987
0.058584
0.0583468
0.05793
0.0573839
0.0569025
0.0565489
0.0563184
0.0561802
0.0561024
0.0560619
0.0560432
0.0560373
0.0560383
0.0560429
0.0560491
0.0560557
0.056062
0.0560673
0.0560715
0.0560744
0.0560762
0.056077
0.0560797
0.0560864
0.0560962
0.0561087
0.0561234
0.05614
0.0561581
0.056178
0.0561997
0.0562236
0.05625
0.0562791
0.0563108
0.0563452
0.0563815
0.0564276
0.056499
0.0566023
0.0567275
0.0568595
0.0569897
0.0571157
0.057238
0.0573576
0.0574758
0.057593
0.0577099
0.0578271
0.0579452
0.0580652
0.0581884
0.0583163
0.0584506
0.0585933
0.0587462
0.0589114
0.0590911
0.0592874
0.0595027
0.0597395
0.0600006
0.0602885
0.060606
0.0609562
0.0613417
0.0617654
0.06223
0.0627376
0.0632907
0.0638909
0.0645397
0.0652385
0.0659874
0.0667873
0.0676373
0.0685375
0.0694862
0.0704831
0.0715257
0.0726132
0.0737428
0.0749127
0.0761207
0.0773644
0.0786413
0.0799491
0.0812854
0.0826476
0.0840333
0.0854402
0.0868658
0.0883076
0.0897643
0.0912324
0.0927109
0.0941966
0.0956885
0.0971835
0.0986807
0.100177
0.101672
0.103163
0.104647
0.106125
0.107592
0.10905
0.110494
0.111924
0.113339
0.114736
0.116114
0.117472
0.118808
0.120122
0.121411
0.122674
0.123912
0.125121
0.126303
0.127455
0.128577
0.12967
0.130731
0.131762
0.132763
0.133733
0.134673
0.135582
0.136463
0.137315
0.13814
0.138937
0.139708
0.140454
0.141175
0.141873
0.142546
0.143197
0.143824
0.144428
0.145008
0.145564
0.146095
0.1466
0.147078
0.147527
0.147945
0.148331
0.148682
0.148995
0.149266
0.149492
0.149667
0.149795
0.149881
0.149936
0.149966
0.149964
0.149959
0.149942
0.149912
0.149875
0.14985
0.149839
0.149835
0.149831
0.149824
0.149815
0.149805
0.149796
0.149789
0.149783
0.149779
0.149776
0.149774
0.149772
0.149771
0.14977
0.149769
0.149769
0.149768
0.149768
0.149768
0.149768
0.149769
0.149769
0.149771
0.149772
0.149774
0.149777
0.149779
0.149782
0.149785
0.149788
0.149792
0.149795
0.149799
0.149803
0.149807
0.149811
0.149816
0.149821
0.149826
0.149832
0.149839
0.149847
0.149858
0.149872
0.149896
0.149933
0.149988
0.150052
0.150093
0.150073
0.149994
0.149887
0.149769
0.149565
0.148843
0.147962
0.145613
0.144214
0.143131
0.141743
0.14077
0.139435
0.138584
0.137307
0.136573
0.135358
0.134732
0.133575
0.133055
0.13197
0.131533
0.130502
0.130138
0.129163
0.128866
0.127944
0.127706
0.126837
0.126645
0.125833
0.125683
0.124924
0.124816
0.12411
0.124044
0.123391
0.123369
0.122768
0.122789
0.122241
0.122307
0.121812
0.121924
0.121481
0.121642
0.121251
0.121462
0.121124
0.121388
0.121105
0.121426
0.121201
0.121583
0.121419
0.121868
0.121769
0.122292
0.122265
0.122871
0.122921
0.123621
0.123759
0.124566
0.124801
0.125731
0.126076
0.127148
0.127621
0.128858
0.129479
0.130917
0.131719
0.133405
0.134437
0.13644
0.137772
0.140196
0.141941
0.144953
0.147303
0.15118
0.154576
0.159521
0.164709
0.171397
0.178545
0.186111
0.190173
0.196461
0.206386
0.235235
0.282846
0.365827
0.516163
0.723063
1
1
1
1
1
1
1
1
1
1
1
1
1
1
1
1
1
1
1
1
1
1
1
1
1
1
0.931245
0.795782
0.696116
0.61157
0.545725
0.488719
0.442299
0.4014
0.366903
0.335572
0.307925
0.282235
0.259653
0.238442
0.220016
0.202967
0.188345
0.17449
0.165597
0.168362
0.157785
0.166767
0.177405
0.191556
0.180946
0.196846
0.207279
0.225889
0.220894
0.181453
0.16203
0.147712
0.138334
0.123699
0.134013
0.149882
0.137801
0.12065
0.109081
0.10193
0.113969
0.130611
0.162388
0.207972
0.227803
0.234626
0.243523
0.266888
0.262711
0.27991
0.288145
0.314134
0.306314
0.271269
0.307734
0.324303
0.338632
0.368258
0.353261
0.371858
0.397017
0.433754
0.406618
0.342905
0.379701
0.426366
0.469125
0.517763
0.470806
0.49202
0.562983
0.629574
0.549508
0.419439
0.462732
0.572497
0.688884
0.782427
0.645618
0.669753
0.86209
1
0.764732
0.51063
0.565167
0.790903
1
1
0.912792
0.940382
1
1
1
0.625458
0.684667
1
1
1
1
1
1
1
1
0.718953
0.690683
1
1
1
1
1
1
1
1
0.585569
0.455077
1
1
1
1
0.904815
1
1
0.862916
0.349363
0.278156
0.678036
1
1
0.605073
0.497387
1
1
0.421463
0.23504
0.211643
0.360238
0.753036
0.56577
0.308682
0.277217
0.450543
0.367829
0.244072
0.201615
0.197079
0.229593
0.305054
0.255396
0.207538
0.205741
0.223215
0.202077
0.192466
0.192967
0.191446
0.194836
0.197
0.188158
0.185894
0.18928
0.188423
0.183487
0.182697
0.190155
0.188511
0.185219
0.18289
0.177685
0.178889
0.179696
0.174851
0.169251
0.173256
0.185201
0.181107
0.173527
0.166597
0.161807
0.167577
0.167852
0.159827
0.155879
0.162598
0.176748
0.172592
0.163014
0.154462
0.151173
0.158372
0.158929
0.150159
0.147365
0.154794
0.168798
0.165414
0.155465
0.146645
0.144232
0.151754
0.152517
0.143734
0.141621
0.149161
0.162435
0.159821
0.149998
0.141298
0.139431
0.146947
0.147844
0.139248
0.137583
0.145057
0.157534
0.155531
0.146001
0.13752
0.136031
0.143442
0.144424
0.136071
0.134737
0.142065
0.153773
0.152226
0.143078
0.134867
0.13367
0.140902
0.141944
0.13388
0.132805
0.139938
0.150875
0.149724
0.141006
0.133086
0.132118
0.139151
0.140237
0.132463
0.13159
0.13852
0.148741
0.147912
0.13962
0.131992
0.131204
0.13803
0.139138
0.131657
0.130948
0.137667
0.147218
0.146646
0.13878
0.131448
0.130811
0.137418
0.138533
0.131354
0.130784
0.137276
0.146184
0.145818
0.138388
0.131368
0.13086
0.137231
0.138338
0.131482
0.131033
0.137277
0.145542
0.145348
0.138378
0.131691
0.1313
0.137411
0.138504
0.131993
0.131657
0.137628
0.145234
0.145193
0.13871
0.132383
0.1321
0.137922
0.13899
0.132857
0.132625
0.138289
0.145216
0.145295
0.13934
0.133412
0.133231
0.138724
0.139755
0.134046
0.133914
0.139223
0.145421
0.145586
0.140233
0.134754
0.134669
0.139784
0.140772
0.135529
0.135488
0.140391
0.145784
0.146016
0.141352
0.136366
0.136371
0.14104
0.141971
0.137266
0.137318
0.14173
0.146279
0.146573
0.142629
0.138231
0.138333
0.142464
0.14332
0.139262
0.139417
0.143241
0.146889
0.147228
0.14404
0.140355
0.14057
0.144051
0.144796
0.141501
0.141807
0.1449
0.147598
0.14799
0.145587
0.142715
0.143104
0.145773
0.146398
0.143983
0.144449
0.146657
0.148395
0.148807
0.147219
0.145291
0.145828
0.147542
0.148042
0.146629
0.147222
0.148411
0.149211
0.149601
0.149409
0.149212
0.149026
0.148861
0.148721
0.148607
0.148519
0.148459
0.148427
0.148425
0.148457
0.148526
0.148639
0.148802
0.149021
0.149306
0.149663
0.150096
0.150607
0.15121
0.151916
0.15274
0.153696
0.154797
0.156061
0.1575
0.159132
0.160975
0.163058
0.165411
0.168063
0.171046
0.174379
0.17808
0.182132
0.186467
0.190928
0.195095
0.198707
0.201163
0.203286
0.20506
0.207157
0.20886
0.209261
0.207752
0.213536
0.229422
0.252711
0.281524
0.309559
0.332059
0.342921
0.340359
0.333824
0.327394
0.32012
0.311161
0.299567
0.285874
0.269052
0.246042
0.236056
0.203134
0.157803
0.129032
0.111568
0.0981023
0.0965014
0.109639
0.126326
0.130148
0.111577
0.0969755
0.0970119
0.111294
0.128684
0.161414
0.205545
0.207652
0.166489
0.134488
0.114962
0.0990442
0.0990486
0.114346
0.132475
0.136767
0.117204
0.100637
0.0994906
0.11533
0.13362
0.168236
0.205591
0.227874
0.231228
0.232633
0.239967
0.249526
0.255554
0.258061
0.237748
0.240299
0.23454
0.235905
0.232871
0.232497
0.230814
0.231018
0.226872
0.231952
0.256534
0.252451
0.225431
0.220246
0.248804
0.244538
0.216013
0.220181
0.22028
0.22287
0.229797
0.229763
0.232352
0.22857
0.22576
0.224152
0.219124
0.198706
0.165613
0.134861
0.116274
0.099732
0.0959988
0.112725
0.131135
0.124731
0.106999
0.0906996
0.086979
0.103592
0.122796
0.155547
0.186123
0.167885
0.154277
0.139753
0.119603
0.0972068
0.0753669
0.0542424
0.043901
0.0445723
0.0398091
0.0376916
0.0422618
0.0468423
0.0550444
0.0493521
0.0603365
0.0665635
0.073362
0.0961892
0.0891375
0.0771586
0.0714502
0.0840974
0.0940423
0.0979259
0.108186
0.115155
0.128377
0.139084
0.145098
0.172249
0.18161
0.203584
0.209406
0.213483
0.219151
0.206732
0.198296
0.1987
0.1901
0.191046
0.181803
0.156965
0.153334
0.139193
0.131819
0.134115
0.126873
0.128843
0.121988
0.120883
0.113024
0.111217
0.105151
0.119096
0.120916
0.125284
0.125194
0.12873
0.127951
0.131281
0.130084
0.135863
0.143229
0.140111
0.131802
0.133228
0.134909
0.147606
0.16422
0.166795
0.151225
0.143617
0.133269
0.136732
0.135239
0.147805
0.155654
0.173593
0.176327
0.183149
0.18619
0.207119
0.215251
0.226332
0.234738
0.23657
0.241831
0.231327
0.234789
0.240615
0.222793
0.215188
0.242373
0.240393
0.216796
0.219434
0.236661
0.232058
0.223458
0.244039
0.235073
0.227851
0.248838
0.259163
0.270912
0.302351
0.285714
0.270897
0.258549
0.24895
0.25627
0.244433
0.234067
0.226006
0.224039
0.215959
0.196397
0.193028
0.173529
0.165185
0.168499
0.160355
0.164325
0.156173
0.159548
0.151589
0.137621
0.139071
0.141948
0.140771
0.145332
0.144151
0.148945
0.147941
0.152812
0.151765
0.169677
0.177982
0.174869
0.156025
0.156875
0.161315
0.18347
0.203618
0.207671
0.188447
0.179934
0.160448
0.166108
0.165527
0.185786
0.194708
0.215364
0.220532
0.237642
0.245994
0.251753
0.235769
0.228864
0.207699
0.19844
0.200585
0.19173
0.170824
0.171422
0.177174
0.176891
0.183413
0.18293
0.205286
0.214503
0.213135
0.18988
0.189799
0.197902
0.223389
0.246236
0.261586
0.271225
0.290168
0.314014
0.342569
0.358794
0.337427
0.315851
0.299255
0.28425
0.271455
0.257318
0.272046
0.288752
0.265
0.251091
0.24835
0.235635
0.23428
0.223001
0.198857
0.208583
0.210878
0.221809
0.225532
0.238135
0.243395
0.269967
0.285374
0.30901
0.33336
0.363109
0.400592
0.388903
0.414487
0.367931
0.314536
0.280074
0.25169
0.228459
0.226402
0.220299
0.2326
0.235194
0.217428
0.218868
0.234824
0.251331
0.255631
0.25575
0.282724
0.279088
0.268946
0.256858
0.245174
0.232695
0.220097