/*--------------------------------*- C++ -*----------------------------------*\
| =========                 |                                                 |
| \\      /  F ield         | OpenFOAM: The Open Source CFD Toolbox           |
|  \\    /   O peration     | Version:  v2006                                 |
|   \\  /    A nd           | Website:  www.openfoam.com                      |
|    \\/     M anipulation  |                                                 |
\*---------------------------------------------------------------------------*/
FoamFile
{
    version     2.0;
    format      ascii;
    class       volScalarField;
    location    "0.014";
    object      Co;
}
// * * * * * * * * * * * * * * * * * * * * * * * * * * * * * * * * * * * * * //

dimensions      [0 0 0 0 0 0 0];


internalField   nonuniform List<scalar> 
31566
(
0.0194979
0.0186616
0.0201916
0.020968
0.0213108
0.0208289
0.0209414
0.0207732
0.0205913
0.0205469
0.0204101
0.0204081
0.0203786
0.0203639
0.0203563
0.0203473
0.0203413
0.0203377
0.0203367
0.0203374
0.0203384
0.0203388
0.0203381
0.0203363
0.0203332
0.0203288
0.0203233
0.0203166
0.0203087
0.0202996
0.0202892
0.0202777
0.0202651
0.0202513
0.0202364
0.0202204
0.0202032
0.0201849
0.0201662
0.0201471
0.0201271
0.0201062
0.0200842
0.0200614
0.0200375
0.0200128
0.0199871
0.0199606
0.0199331
0.0199049
0.0198758
0.0198459
0.0198154
0.0197841
0.0197522
0.0197198
0.0196867
0.0196532
0.0196193
0.0195849
0.0195501
0.019515
0.0194796
0.0194441
0.0194084
0.0193726
0.0193368
0.0193011
0.0192655
0.0192301
0.0191949
0.01916
0.0191255
0.0190913
0.0190575
0.0190242
0.0189915
0.0189592
0.0189275
0.0188963
0.0188657
0.0188356
0.0188059
0.0187766
0.0187476
0.0187188
0.0186903
0.0186624
0.0186358
0.0186119
0.0185915
0.0185776
0.0185728
0.018592
0.0186298
0.0187743
0.0190036
0.0195975
0.0206215
0.023045
0.0285061
0.040626
0.0623658
0.0502529
0.0443155
0.0441666
0.0429642
0.0411201
0.0405074
0.0389285
0.0352518
0.0382115
0.0398805
0.0362457
0.0362486
0.0343481
0.0286905
0.0307431
0.0312879
0.0301406
0.0303302
0.0284956
0.025897
0.028431
0.0290798
0.0290157
0.0285674
0.0259554
0.0253057
0.0281684
0.0288119
0.0288298
0.0282632
0.0252853
0.0249125
0.0280745
0.0288123
0.0288923
0.0280092
0.0247083
0.0244901
0.0279131
0.0286554
0.0288024
0.0278197
0.0242903
0.0241004
0.0277231
0.0285569
0.0286982
0.0276304
0.0239237
0.0237571
0.0275376
0.0284515
0.0285913
0.0274495
0.0236009
0.0234522
0.027361
0.0283448
0.028484
0.0272772
0.0233119
0.023177
0.0271925
0.0282382
0.0283773
0.0271123
0.0230489
0.0229248
0.0270309
0.0281323
0.0282712
0.0269539
0.0228062
0.0226904
0.026875
0.028027
0.0281658
0.0268005
0.0225793
0.0224703
0.0267239
0.0279273
0.0280606
0.0266512
0.0223652
0.0222616
0.0265763
0.0278268
0.0279555
0.0265051
0.0221615
0.0220625
0.0264314
0.0277254
0.0278501
0.0263615
0.0219668
0.0218718
0.0262887
0.0276228
0.027744
0.0262197
0.0217799
0.0216885
0.0261477
0.0275191
0.0276372
0.0260795
0.0216
0.0215118
0.0260081
0.0274138
0.0275294
0.0259405
0.0214262
0.0213407
0.0258695
0.027307
0.0274206
0.0258024
0.0212576
0.0211742
0.0257317
0.0271984
0.0273107
0.0256648
0.021093
0.0210111
0.0255941
0.0270877
0.0271997
0.0255273
0.020931
0.0208498
0.0254563
0.0269745
0.0270875
0.0253891
0.02077
0.0206882
0.0253176
0.026858
0.0269748
0.0252501
0.0206069
0.0205219
0.025178
0.0267385
0.0268613
0.0251091
0.0204352
0.0203439
0.0250339
0.0266198
0.026743
0.0249612
0.0202519
0.0201568
0.0248824
0.0264994
0.0266191
0.0248067
0.0200625
0.019966
0.0247252
0.0263736
0.0264901
0.0246474
0.019871
0.0197741
0.0245639
0.0262432
0.0263568
0.0244844
0.0196789
0.0195819
0.0243992
0.0261087
0.0262194
0.0243182
0.0194867
0.0193896
0.0242315
0.0259702
0.026078
0.024149
0.0192943
0.0191971
0.024061
0.025828
0.0259327
0.023977
0.0191017
0.0190046
0.0238879
0.0256821
0.0257839
0.0238024
0.0189091
0.018812
0.0237121
0.0255325
0.0256316
0.0236253
0.0187161
0.0186186
0.0235335
0.0253793
0.0254756
0.0234454
0.0185224
0.0184244
0.0233517
0.0252219
0.0253156
0.0232625
0.018328
0.0182293
0.023167
0.0250606
0.0251515
0.0230765
0.0181324
0.0180331
0.0229794
0.0248955
0.0249834
0.0228874
0.0179356
0.0178355
0.0227885
0.0247263
0.024811
0.0226948
0.0177371
0.017636
0.0225941
0.0245528
0.0246343
0.0224987
0.0175365
0.0174339
0.0223963
0.0243751
0.0244533
0.0222991
0.0173326
0.0172277
0.0221946
0.0241929
0.0242675
0.0220952
0.0171242
0.0170171
0.0219882
0.0240058
0.0240764
0.0218863
0.0169112
0.0168017
0.0217765
0.0238131
0.0238796
0.0216718
0.0166934
0.0165813
0.021559
0.0236146
0.0236767
0.0214512
0.0164703
0.0163554
0.0213351
0.0234097
0.0234671
0.0212239
0.0162414
0.0161232
0.0211041
0.023198
0.0232504
0.0209892
0.0160058
0.0158841
0.0208655
0.0229789
0.0230261
0.0207467
0.015763
0.0156372
0.0206186
0.022752
0.0227935
0.0204955
0.0155121
0.0153821
0.0203629
0.0225168
0.0225523
0.0202352
0.0152526
0.0151181
0.0200978
0.0222726
0.022302
0.0199652
0.0149841
0.0148449
0.0198227
0.022019
0.0220417
0.019685
0.0147061
0.014562
0.0195371
0.0217555
0.0217713
0.0193942
0.0144184
0.0142694
0.0192408
0.0214816
0.0214902
0.0190924
0.014121
0.0139672
0.0189333
0.0211967
0.0211978
0.0187794
0.013814
0.0136555
0.0186145
0.0209006
0.020894
0.018455
0.0134979
0.013335
0.0182843
0.0205928
0.0205784
0.0181192
0.013173
0.0130058
0.0179428
0.0202733
0.0202508
0.0177721
0.0128398
0.0126686
0.0175899
0.0199418
0.0199111
0.0174136
0.0124986
0.0123234
0.0172257
0.0195983
0.0195593
0.0170439
0.0121496
0.0119704
0.0168503
0.0192426
0.0191951
0.016663
0.0117927
0.0116095
0.0164636
0.0188745
0.0188185
0.0162708
0.011428
0.0112408
0.0160657
0.0184941
0.0184294
0.0158675
0.0110553
0.0108641
0.0156566
0.0181012
0.0180278
0.0154529
0.0106749
0.0104798
0.0152364
0.0176959
0.0176135
0.0150272
0.0102868
0.0100879
0.0148051
0.017278
0.0171867
0.0145907
0.00989143
0.00968912
0.014363
0.0168476
0.0167474
0.0141435
0.00948945
0.00928413
0.0139105
0.0164048
0.0162956
0.0136861
0.00908187
0.00887413
0.0134481
0.0159498
0.0158315
0.0132192
0.00866992
0.00846047
0.0129767
0.0154826
0.0153555
0.0127438
0.00825511
0.00804485
0.0124974
0.0150041
0.0148684
0.0122612
0.00783926
0.00762915
0.0120117
0.0145149
0.0143711
0.0117728
0.00742422
0.00721505
0.0115208
0.0140159
0.0138647
0.0112804
0.00701163
0.00680401
0.0110266
0.0135086
0.013351
0.0107853
0.00660259
0.00639689
0.010531
0.0129953
0.0128325
0.0102904
0.0061972
0.00599229
0.0100365
0.0124787
0.0123118
0.00979682
0.00579334
0.00558924
0.00954368
0.0119605
0.0117902
0.00930572
0.00539176
0.00518937
0.00905467
0.0114424
0.0112696
0.00882002
0.00499405
0.00479413
0.00857221
0.010926
0.0107517
0.00834164
0.0046027
0.00440787
0.00809806
0.0104137
0.0102392
0.00787269
0.00422281
0.00403503
0.00763461
0.00990815
0.00973452
0.00741536
0.00385779
0.00367842
0.0071837
0.00941122
0.00924028
0.00697204
0.00351042
0.00334047
0.00674813
0.0089262
0.00875885
0.00654481
0.00318223
0.00302217
0.00632959
0.00845515
0.00829276
0.00613554
0.00287402
0.00272401
0.00592984
0.00800055
0.00784423
0.00574566
0.00258592
0.00244585
0.00555
0.00756437
0.00741501
0.00537608
0.00231769
0.00218751
0.00519102
0.00714838
0.00700657
0.00502753
0.00206902
0.00194852
0.0048533
0.00675362
0.00662056
0.00470075
0.00183952
0.00172815
0.00453726
0.0063814
0.00625764
0.00439554
0.00162803
0.00152504
0.00424267
0.00603257
0.00591735
0.00411069
0.00143266
0.00133728
0.00396771
0.00570583
0.00559959
0.00384527
0.00125205
0.00116326
0.0037113
0.0054008
0.00530312
0.00359749
0.00108411
0.00100081
0.00347151
0.00511622
0.00502583
0.00336487
0.000926546
0.000847877
0.00324579
0.0048497
0.00476583
0.00314534
0.000777684
0.000702822
0.00303214
0.00459931
0.00452097
0.0029368
0.000635884
0.000564128
0.00282843
0.00436277
0.00428894
0.00273726
0.000499839
0.000430696
0.00263294
0.00413801
0.00406759
0.00254482
0.000368398
0.000301448
0.00244373
0.00392275
0.00385458
0.00235765
0.000240644
0.000175707
0.0022592
0.0037147
0.00364767
0.0021742
0.000116007
5.93052e-05
0.00207854
0.00351202
0.00344498
0.00199362
6.62918e-05
0.000123325
0.0018991
0.00331223
0.00324248
0.00181458
0.000182458
0.000236977
0.00172198
0.00311482
0.00304865
0.00164144
0.000294705
0.000346539
0.00154782
0.0029197
0.00285623
0.00146922
0.000402242
0.000451193
0.00137684
0.00272387
0.00266319
0.00130105
0.000504521
0.00055067
0.00121098
0.00253401
0.00247365
0.00113813
0.000601314
0.000644411
0.001051
0.00234837
0.00228964
0.00098194
0.000692452
0.000732722
0.000898135
0.00216883
0.00211215
0.000833
0.000778221
0.000815488
0.000752707
0.00199607
0.00194246
0.00069212
0.000858334
0.000892527
0.000615856
0.00183187
0.00178141
0.000559829
0.000932235
0.000962922
0.000488365
0.00167724
0.0016299
0.00043783
0.000999496
0.00102678
0.000371294
0.00153554
0.00149084
0.000325542
0.00105979
0.0010833
0.000264525
0.00140367
0.00136423
0.000224513
0.00111281
0.00113284
0.000169532
0.00128491
0.00125082
0.000135117
0.00115907
0.00117578
8.60919e-05
0.00117953
0.0011505
5.70409e-05
0.0011991
0.0012126
4.12924e-05
0.00108773
0.00106357
7.34788e-05
0.00123308
0.00124423
9.12417e-05
0.00100845
0.000989885
0.000122288
0.00126208
0.00127126
0.000136338
0.000941073
0.00092713
0.000163307
0.00128691
0.00129418
0.000175027
0.000884733
0.00087232
0.000199675
0.00130906
0.00131055
0.00020606
0.000837064
0.000830223
0.000231586
0.00134126
0.00134453
0.000240245
0.00080924
0.000837
0.000272486
0.00145738
0.00146844
0.000285736
0.000853622
0.00103536
0.000315166
0.00170032
0.00167265
0.000269331
0.00120181
0.00130218
0.000209206
0.00180233
0.00308255
0.00451299
0.00552927
0.00653079
0.0070278
0.00795104
0.00840841
0.00890009
0.00922203
0.00955119
0.00980788
0.0100458
0.0102517
0.0104251
0.0105907
0.0107174
0.010852
0.0109431
0.0110539
0.0111109
0.0111934
0.0112058
0.0112461
0.01119
0.0111599
0.0109818
0.01082
0.010395
0.00998298
0.00910312
0.00826824
0.0068788
0.00558977
0.00384364
0.00543986
0.00748548
0.00629924
0.0142983
0.0513963
0.0764544
0.111947
0.120512
0.111063
0.109146
0.111411
0.113089
0.11377
0.113439
0.112077
0.109379
0.105278
0.0981142
0.089476
0.0451456
0.0250518
0.00350032
0.0110339
0.00876011
0.00461415
0.0256397
0.0294163
0.00907894
0.00831109
0.00605597
0.0153494
0.0334723
0.0358149
0.0199801
0.00500107
0.00693458
0.0219553
0.0364091
0.037386
0.0240389
0.0100136
0.0123231
0.0258556
0.0384185
0.0398868
0.0278579
0.0143529
0.0159869
0.0294087
0.0409399
0.0423069
0.030936
0.0174021
0.0186242
0.0322634
0.0432075
0.0444591
0.033596
0.0196974
0.0206472
0.0348243
0.0456586
0.0463814
0.0358442
0.0215022
0.0222858
0.0368681
0.0474964
0.0482091
0.0378303
0.0230117
0.0236929
0.0387423
0.0492549
0.0497919
0.0395355
0.0243395
0.0249592
0.0405187
0.0509811
0.0513574
0.0411563
0.0255585
0.0261438
0.0420871
0.052514
0.0528379
0.0426687
0.0267192
0.0272894
0.0435651
0.0539736
0.0542586
0.0441086
0.0278573
0.0284268
0.0449868
0.0553856
0.0556445
0.0455077
0.0289995
0.0295806
0.0462953
0.0565544
0.0574686
0.0470796
0.0301696
0.0307702
0.0475954
0.0577142
0.0586459
0.0484006
0.0313869
0.0320194
0.0492135
0.0595921
0.0598565
0.0497568
0.0326721
0.0333487
0.0507092
0.0610806
0.0615012
0.0513883
0.034052
0.0347869
0.0522001
0.0625489
0.063148
0.0530463
0.0355583
0.0363715
0.0539357
0.0642804
0.0650872
0.0548726
0.037233
0.0381504
0.0558694
0.066084
0.067149
0.0569328
0.0391338
0.0401948
0.058081
0.0683017
0.0695562
0.0593274
0.0413513
0.0426259
0.0606983
0.0709422
0.0724492
0.0621765
0.0440485
0.0458554
0.0641166
0.0742144
0.076424
0.0660682
0.0476714
0.0498604
0.0683054
0.0783201
0.0806886
0.0705594
0.0520339
0.0538208
0.0725179
0.0826536
0.0854137
0.0751483
0.0561696
0.0578093
0.0771563
0.087577
0.0913147
0.0808241
0.0607835
0.0623235
0.0830437
0.0937458
0.0964778
0.0873406
0.0668912
0.0691153
0.0836216
0.0854316
0.250128
0.174434
0.0997608
0.0840551
0.133754
0.18395
0.121275
0.106014
0.0793869
0.0758557
0.0979949
0.108553
0.108342
0.099161
0.0779012
0.077229
0.0990863
0.10913
0.112892
0.10359
0.0813902
0.0832234
0.10618
0.11597
0.118832
0.110907
0.0889385
0.0908939
0.105083
0.104465
0.301354
0.217092
0.129477
0.117909
0.178425
0.237566
0.161111
0.14312
0.111999
0.114674
0.139607
0.150501
0.152116
0.14236
0.118033
0.126755
0.149652
0.156481
0.138646
0.141347
0.128865
0.185545
0.292437
0.392258
0.324169
0.250956
0.175113
0.179123
0.217282
0.236091
0.189916
0.194327
0.180864
0.250764
0.372112
0.476627
0.430935
0.344636
0.249266
0.24866
0.27437
0.274042
0.494415
0.413159
0.301289
0.323644
0.409962
0.459705
0.345579
0.337691
0.292227
0.18054
0.305037
0.361092
0.199519
0.158771
0.0882009
0.0648542
0.0589898
0.0614459
0.0783088
0.07814
0.0652717
0.0485076
0.0717011
0.0851298
0.0573861
0.0461085
0.0310468
0.0250671
0.0339896
0.0358016
0.0518276
0.0395057
0.0225853
0.0196776
0.0358044
0.0481643
0.0259103
0.0239756
0.0159989
0.0152678
0.0301159
0.0413492
0.0440527
0.0312945
0.0153065
0.0124127
0.0202307
0.0222242
0.0379603
0.0267738
0.0124362
0.0142324
0.0308908
0.0443078
0.0214891
0.0195097
0.0115581
0.0119044
0.0266762
0.0384113
0.0470033
0.0323304
0.0147133
0.0119117
0.0203321
0.0224201
0.0410277
0.0284826
0.0128431
0.0166233
0.0359631
0.051524
0.0244139
0.0222873
0.0135074
0.0148515
0.0316698
0.0451581
0.0573662
0.0404662
0.0193358
0.0157114
0.0248832
0.0270537
0.0502255
0.0356182
0.0175892
0.0222142
0.0445316
0.062725
0.0301696
0.0278791
0.0181734
0.0205035
0.0399806
0.0558856
0.0689729
0.0497073
0.0256783
0.0211502
0.0312707
0.033647
0.0633647
0.0453639
0.0238143
0.0286789
0.0533859
0.0731714
0.0527319
0.0421658
0.0260744
0.0311119
0.0539283
0.0709353
0.0396336
0.0369071
0.0262545
0.0286332
0.0507142
0.0686921
0.0819542
0.0602389
0.033477
0.0278971
0.0386952
0.0412414
0.0729745
0.0537617
0.0306903
0.0359199
0.0637498
0.0858815
0.0434866
0.040839
0.029715
0.0332638
0.0585498
0.0796819
0.0882061
0.0657449
0.0374989
0.0346311
0.0531389
0.0657723
0.0834271
0.0649095
0.0397451
0.0340913
0.0457464
0.0487234
0.0855695
0.0632904
0.0372951
0.0415307
0.0698002
0.0930685
0.0700712
0.0569356
0.0377456
0.0424194
0.0681598
0.0876009
0.0512729
0.0480455
0.0361372
0.0399009
0.0657803
0.0872805
0.0975352
0.0732883
0.0434384
0.0364528
0.0484992
0.0514766
0.092292
0.0682859
0.0402824
0.0444823
0.0743116
0.0981816
0.0780274
0.0630013
0.0415771
0.0449417
0.070566
0.089581
0.0759862
0.0623399
0.0422859
0.0463256
0.0718781
0.0899657
0.0561297
0.0526586
0.0403905
0.0438956
0.0717263
0.0953674
0.0989705
0.0750825
0.0459776
0.0424856
0.063086
0.077532
0.0928224
0.0735445
0.0471277
0.0411219
0.053235
0.0564593
0.0973864
0.0732031
0.0449528
0.0468224
0.0755471
0.0989489
0.0819919
0.0661544
0.0441833
0.0476592
0.0729422
0.0910964
0.0792641
0.0653581
0.0452433
0.0481796
0.0728687
0.0912062
0.0576974
0.0541973
0.0420149
0.0451266
0.0732242
0.0971831
0.0990742
0.0760425
0.0475014
0.0445875
0.066127
0.0817236
0.0901567
0.0725739
0.0481815
0.0447657
0.064664
0.0785948
0.0894683
0.072063
0.0478408
0.0414525
0.0534649
0.0570557
0.0966978
0.0734807
0.0455258
0.0463021
0.0745098
0.096786
0.080832
0.0657043
0.044307
0.0465554
0.0704892
0.0873679
0.077006
0.0635563
0.0439706
0.0464856
0.0701934
0.0860829
0.0556143
0.0525108
0.0410919
0.0441027
0.0712884
0.0940114
0.0926904
0.0720202
0.044865
0.0427105
0.0636659
0.0783901
0.0836966
0.0674375
0.0444055
0.042961
0.062925
0.0771615
0.0811428
0.0657923
0.0447513
0.0422654
0.0606938
0.073553
0.0807552
0.0657496
0.0443647
0.0386978
0.0494725
0.0525332
0.0878951
0.0670258
0.0420011
0.0419413
0.0665151
0.0859787
0.0729155
0.0591031
0.0397618
0.0412777
0.0616102
0.075696
0.0716949
0.0586143
0.0402219
0.0412058
0.0598285
0.0735763
0.0699109
0.0571029
0.039166
0.040333
0.0588262
0.0719691
0.0656148
0.0543335
0.0381325
0.0396994
0.0581273
0.0702831
0.0466481
0.0440629
0.0348981
0.0373189
0.0590013
0.0769425
0.0734453
0.0576464
0.0367323
0.035036
0.0516821
0.0631777
0.0642531
0.0527834
0.0356028
0.0345755
0.0504369
0.0613971
0.0617431
0.0510502
0.0350764
0.0334994
0.0485673
0.0591242
0.0591109
0.049174
0.0340547
0.0323817
0.0457258
0.0548459
0.0567051
0.046931
0.0328439
0.0287803
0.0362047
0.0383371
0.0625803
0.0483213
0.030991
0.0297754
0.0459516
0.0585586
0.0509587
0.0418554
0.0283835
0.0284343
0.0417605
0.0503586
0.0485071
0.0400321
0.0275078
0.0271413
0.0391433
0.0469189
0.0456976
0.0376961
0.0261661
0.0260929
0.0369612
0.0442109
0.0414889
0.0347771
0.0248395
0.0247709
0.034698
0.0412106
0.0281989
0.0268163
0.0216849
0.022764
0.0352102
0.0450845
0.0403161
0.0322874
0.0210779
0.0202469
0.0296804
0.0359009
0.0337149
0.0282171
0.0195807
0.0189482
0.0272986
0.0328898
0.0295768
0.0252254
0.0181683
0.0174544
0.0248034
0.0296979
0.026184
0.0226937
0.016616
0.0158224
0.0218121
0.0256494
0.0226263
0.0199014
0.014906
0.0130429
0.0157195
0.0163263
0.0249498
0.0201637
0.0136622
0.0115226
0.0164408
0.0197763
0.0185788
0.0156276
0.0109883
0.00966512
0.0127767
0.014293
0.0151438
0.0129303
0.00940966
0.00798108
0.00974651
0.0103176
0.0116675
0.0102096
0.00771358
0.00612105
0.00682573
0.00665939
0.00803688
0.00724692
0.0057679
0.0038439
0.00334847
0.00235125
0.00315818
0.0033815
0.00337901
0.00329358
0.00340887
0.00273538
0.0031435
0.00179933
0.00154804
0.000827531
0.00144563
0.00241231
0.00692597
0.00412453
0.00130795
0.00117442
0.00290645
0.00442562
0.0112919
0.0075744
0.00346086
0.00334602
0.0061138
0.00839248
0.0157093
0.011147
0.00589216
0.00549872
0.00916208
0.0119626
0.0209604
0.0156177
0.00881408
0.00774934
0.0107267
0.0118729
0.0222723
0.0154344
0.00859854
0.0115149
0.0207642
0.02886
0.0222952
0.0174375
0.0109705
0.0140947
0.0235341
0.0311803
0.026602
0.0210299
0.0135806
0.0170408
0.0277057
0.0361282
0.0299675
0.0241482
0.0161425
0.0203188
0.0323164
0.0417647
0.0250465
0.0231141
0.0177544
0.0194916
0.032277
0.0444939
0.0520687
0.0388495
0.0230872
0.0217702
0.0330531
0.041352
0.0527746
0.040973
0.0258
0.0248907
0.0369714
0.0458883
0.0571995
0.0447965
0.0290709
0.027424
0.0397167
0.0487
0.0636181
0.0501218
0.032537
0.028413
0.0359989
0.0387192
0.0674549
0.0499005
0.0314496
0.0354985
0.0573305
0.0756709
0.061005
0.0493996
0.0336871
0.0391015
0.0601407
0.0759104
0.0637497
0.0526912
0.0372304
0.042235
0.064149
0.0809918
0.0494567
0.046255
0.0370952
0.0410421
0.0639506
0.0860043
0.09625
0.072833
0.0459228
0.0432724
0.0627485
0.077144
0.0943707
0.0749806
0.0490601
0.0468412
0.0655477
0.0792198
0.0997247
0.0793028
0.0530564
0.04628
0.057046
0.0607165
0.105146
0.0785474
0.050945
0.0557272
0.0876859
0.115784
0.093246
0.0760384
0.0529556
0.0596235
0.0897849
0.112698
0.0947481
0.0785477
0.0566615
0.0637071
0.094408
0.118865
0.0719835
0.0677469
0.0556415
0.0613716
0.0932282
0.123509
0.13705
0.104955
0.067224
0.06237
0.0867434
0.104829
0.135242
0.107596
0.0717485
0.0622177
0.0748636
0.0788561
0.138548
0.105045
0.069889
0.0757024
0.117143
0.152549
0.11665
0.0967615
0.0699501
0.0792116
0.118166
0.148767
0.08689
0.0826571
0.0687103
0.0775921
0.115481
0.152559
0.171775
0.131301
0.0856126
0.0786163
0.107485
0.128488
0.163978
0.130797
0.088196
0.076012
0.0905924
0.0950358
0.165313
0.125713
0.0844847
0.0934761
0.144038
0.186698
0.1396
0.116853
0.0864402
0.0983303
0.144184
0.179751
0.101354
0.0969435
0.0823677
0.0915073
0.132469
0.171419
0.205018
0.158065
0.102543
0.0849516
0.0990156
0.102604
0.180682
0.138581
0.0955054
0.107021
0.164887
0.218211
0.1057
0.102318
0.0877936
0.0983549
0.143106
0.186535
0.227785
0.173339
0.112674
0.0926693
0.107032
0.110151
0.198079
0.152993
0.105963
0.117863
0.181535
0.240371
0.114021
0.110765
0.0952907
0.108167
0.156082
0.202951
0.252886
0.193943
0.12714
0.103863
0.11792
0.119146
0.210213
0.163069
0.113942
0.130105
0.19873
0.262188
0.121421
0.119046
0.104912
0.118041
0.165822
0.212316
0.271339
0.208301
0.135948
0.0996138
0.106618
0.104019
0.143293
0.131386
0.108935
0.114158
0.161713
0.209856
0.281582
0.212006
0.134645
0.0936654
0.0967049
0.0925344
0.11501
0.112757
0.101378
0.0949949
0.109831
0.114516
0.115109
0.109948
0.0958004
0.0925716
0.110592
0.116239
0.128745
0.117259
0.0934471
0.0970583
0.144367
0.189265
0.261454
0.190295
0.115225
0.078102
0.0867969
0.0856183
0.0923478
0.0887196
0.0746594
0.0667205
0.0821866
0.0878308
0.083863
0.0779268
0.0621625
0.0569258
0.0728061
0.0792569
0.0763783
0.0698623
0.0534696
0.0500721
0.0662365
0.0732222
0.070916
0.0639841
0.047644
0.0453532
0.0615641
0.0685877
0.0667765
0.0597322
0.0436696
0.042253
0.0580774
0.0651036
0.0638093
0.0567008
0.0410756
0.040107
0.0551505
0.0619036
0.0610813
0.0541737
0.0393148
0.0386655
0.052907
0.0594242
0.0588046
0.0521739
0.0381311
0.0376844
0.0511374
0.0573662
0.0569199
0.050595
0.0373053
0.0369764
0.0497339
0.0556632
0.0552483
0.0492344
0.036686
0.0364255
0.0486953
0.0543545
0.054051
0.0483034
0.0361896
0.0359728
0.0476678
0.0530555
0.0529462
0.0474475
0.0357727
0.035587
0.0468851
0.0520426
0.0518985
0.0466302
0.0354138
0.0352527
0.0463084
0.0512744
0.0511866
0.0461027
0.0351031
0.0349629
0.0456437
0.0504186
0.0502771
0.0454756
0.0348319
0.0347098
0.0453252
0.0501579
0.049464
0.0449215
0.0345961
0.0344895
0.0448004
0.0494794
0.0490222
0.0446037
0.0343905
0.0342987
0.0445093
0.0490688
0.0484502
0.0441611
0.0342129
0.0341332
0.0441766
0.0486202
0.0480327
0.0438511
0.034059
0.0339901
0.0438852
0.0482252
0.0476644
0.0435798
0.0339264
0.0338673
0.0435437
0.0477815
0.0474345
0.0434287
0.0338134
0.0337642
0.0434087
0.0475707
0.0470546
0.0431364
0.033719
0.0336781
0.0432164
0.0473011
0.0469915
0.0430446
0.0336409
0.0336071
0.0429652
0.0468782
0.0467724
0.0428917
0.0335767
0.0335497
0.0427381
0.0464879
0.0467682
0.0428464
0.0335263
0.0335065
0.0426187
0.0463111
0.0466032
0.0427374
0.0334897
0.0334757
0.04252
0.0461597
0.0462764
0.0425619
0.0334643
0.0334571
0.042524
0.0462143
0.0461576
0.042492
0.0334545
0.0334545
0.042464
0.0461983
0.0459674
0.0424397
0.0334568
0.0334616
0.0424192
0.0461091
0.04589
0.0424057
0.0334689
0.033478
0.0424827
0.0461372
0.0457444
0.0423088
0.0334893
0.0335027
0.0424769
0.0460943
0.0459005
0.0423936
0.0335177
0.0335348
0.0423143
0.0457119
0.0459836
0.0424066
0.0335541
0.0335752
0.0424166
0.0458005
0.0458954
0.0424294
0.0335979
0.0336226
0.0424448
0.0459936
0.0458194
0.0424624
0.0336489
0.0336763
0.042567
0.0461072
0.0457548
0.0424197
0.0337051
0.0337356
0.0425293
0.045955
0.045975
0.0425562
0.0337678
0.0338015
0.0425851
0.0459974
0.0460221
0.042616
0.0338367
0.033873
0.0427338
0.0462336
0.0458948
0.0425982
0.0339102
0.0339491
0.0427203
0.0462017
0.0460514
0.0427588
0.0339894
0.0340309
0.042799
0.0462713
0.0461249
0.042841
0.0340738
0.0341176
0.0429701
0.0464421
0.0461143
0.0428442
0.0341625
0.0342086
0.0430627
0.0465277
0.0463871
0.0430249
0.0342553
0.0343034
0.0429895
0.0462498
0.0466696
0.0432131
0.0343527
0.0344031
0.0430941
0.0463491
0.0467728
0.0433208
0.0344545
0.0345065
0.0432897
0.0466399
0.0466954
0.0433467
0.0345592
0.0346126
0.043405
0.0467524
0.0466253
0.0433788
0.0346674
0.034723
0.0436132
0.047059
0.046746
0.0435017
0.0347794
0.0348368
0.043652
0.0470886
0.0469652
0.043716
0.0348948
0.0349537
0.0437816
0.0471244
0.0471908
0.0438483
0.0350137
0.035074
0.044003
0.0474472
0.0473265
0.0439828
0.0351339
0.0351948
0.0439652
0.0472086
0.0474683
0.044124
0.035257
0.0353198
0.0441953
0.0475405
0.0476136
0.0442676
0.0353832
0.0354472
0.0443406
0.0476878
0.047954
0.0445027
0.0355114
0.0355758
0.0444002
0.0476489
0.0480116
0.0445648
0.0356412
0.0357073
0.0446409
0.0478988
0.0482658
0.0448068
0.0357735
0.0358397
0.0447946
0.0481528
0.048042
0.0447843
0.0359064
0.0359741
0.0449532
0.0484113
0.048301
0.0450328
0.0360423
0.0361105
0.0452026
0.0486743
0.0485634
0.0451928
0.0361785
0.0362472
0.0451846
0.0484547
0.0489279
0.0454471
0.036316
0.036385
0.0453484
0.0486244
0.0489047
0.0455222
0.0364546
0.0365244
0.0456055
0.0489914
0.0490784
0.0456893
0.0365944
0.0366645
0.0457732
0.0492636
0.0491556
0.0458574
0.0367347
0.036805
0.0459421
0.0494404
0.0493326
0.0460271
0.0368754
0.0369457
0.0461122
0.0496189
0.049511
0.0461979
0.0370164
0.0370869
0.0462834
0.0497985
0.0496905
0.0463693
0.0371574
0.0372279
0.0464551
0.0499792
0.049871
0.0465411
0.0372983
0.0373688
0.0466275
0.0500614
0.0501522
0.0467138
0.0374391
0.0375095
0.0468002
0.0502432
0.0503343
0.0468867
0.03758
0.03765
0.0470663
0.0506268
0.0503154
0.046965
0.0377198
0.0377894
0.0472391
0.0508097
0.0504969
0.0471371
0.0378589
0.0379283
0.0474116
0.0509925
0.0508797
0.0474023
0.037997
0.0380657
0.047394
0.0507684
0.0512659
0.047669
0.0381342
0.0382021
0.0475642
0.0509488
0.0512426
0.0477446
0.0382701
0.0383379
0.0478295
0.0513326
0.0514223
0.0479139
0.0384054
0.0384725
0.0479981
0.0515117
0.0516008
0.0480818
0.0385392
0.0386054
0.0481652
0.0516897
0.0517784
0.0482483
0.038671
0.0387364
0.0483311
0.0518668
0.0519546
0.0484137
0.0388016
0.0388663
0.0484956
0.0520419
0.0521289
0.048577
0.0389304
0.0389942
0.0486582
0.0522156
0.0523018
0.0487388
0.0390578
0.0391205
0.048916
0.052597
0.0522639
0.0488007
0.0391827
0.0392444
0.0490751
0.0527675
0.052432
0.0489581
0.0393057
0.0393664
0.0492319
0.0529359
0.0525979
0.0491133
0.0394264
0.0394864
0.0492886
0.0529956
0.0528666
0.0493647
0.039546
0.0396046
0.0495387
0.0532657
0.0529227
0.0494165
0.0396629
0.0397208
0.0496888
0.0534268
0.0532927
0.0496628
0.0397777
0.039834
0.0497359
0.0533713
0.0534492
0.0498083
0.0398895
0.0399443
0.0498799
0.0535265
0.0533904
0.0498522
0.039999
0.0400532
0.0501221
0.0538943
0.0535407
0.049992
0.0401068
0.0401597
0.050261
0.0540442
0.053688
0.050129
0.0402122
0.0402641
0.0503972
0.0541913
0.0540467
0.0503628
0.0403147
0.040365
0.0503289
0.053903
0.0542968
0.0504951
0.0404151
0.0404644
0.0505595
0.0541501
0.0544355
0.0506231
0.0405131
0.0405611
0.0506861
0.0542867
0.054571
0.0507483
0.0406085
0.0406552
0.0508097
0.05442
0.0547032
0.0508704
0.0407014
0.0407471
0.0509302
0.0545501
0.0549421
0.0510908
0.0407916
0.0408354
0.0509454
0.0545679
0.0548482
0.0511051
0.0408791
0.0409224
0.051162
0.0549097
0.0551902
0.0513199
0.0409645
0.0410059
0.0511703
0.0548104
0.055198
0.0513271
0.041047
0.0410874
0.0513803
0.055036
0.055203
0.0514331
0.0411271
0.0411664
0.051485
0.0553694
0.0552039
0.0515358
0.0412052
0.0412428
0.0516888
0.0555905
0.0552013
0.0515322
0.0412797
0.0413164
0.051684
0.0555852
0.0554155
0.0517316
0.0413524
0.0413878
0.0517786
0.0555771
0.0557381
0.0518249
0.0414228
0.0414573
0.0518701
0.055565
0.0559476
0.0520182
0.0414909
0.0415234
0.0519576
0.0557711
0.0555956
0.0518972
0.0415556
0.0415873
0.0521472
0.0560873
0.0556855
0.0519805
0.0416186
0.0416493
0.0522292
0.0561761
0.0559942
0.0521638
0.0416787
0.0417076
0.0520989
0.0558135
0.056078
0.0522416
0.0417365
0.0417649
0.0522791
0.0561182
0.0562697
0.0523156
0.0417928
0.0418199
0.0523509
0.0560837
0.0562336
0.0523859
0.0418463
0.0418724
0.0524203
0.056383
0.0561942
0.0524535
0.041898
0.0419226
0.0525909
0.0565677
0.0561516
0.0524131
0.0419467
0.0419703
0.0526541
0.0566358
0.0562174
0.0524744
0.0419931
0.0420156
0.0526091
0.0564741
0.0565053
0.0526382
0.0420379
0.0420597
0.0526665
0.0565354
0.0565647
0.0526938
0.0420811
0.0421014
0.0528257
0.0568202
0.0563953
0.0526406
0.0421209
0.0421405
0.0527716
0.056648
0.0566743
0.0527964
0.04216
0.0421786
0.0529255
0.0569269
0.0567236
0.0528423
0.0421961
0.0422133
0.0527594
0.0565215
0.0569984
0.0529925
0.0422301
0.0422462
0.0528019
0.0565667
0.0568145
0.052928
0.0422621
0.0422777
0.0529477
0.0568354
0.0568554
0.0529665
0.0422927
0.0423072
0.0529848
0.0568748
0.0568933
0.0530026
0.0423215
0.0423352
0.0530195
0.056911
0.0569279
0.0530358
0.0423484
0.0423611
0.0530514
0.0569442
0.0569597
0.0530663
0.0423734
0.0423851
0.0530807
0.0569746
0.0569887
0.0530945
0.0423966
0.0424075
0.0531075
0.0570021
0.057015
0.0531199
0.0424178
0.0424277
0.0531318
0.0570273
0.057039
0.0531434
0.0424377
0.0424471
0.0532606
0.0572787
0.0568323
0.0530579
0.0424558
0.042464
0.05328
0.0572983
0.0568507
0.0530764
0.042472
0.0424795
0.0532975
0.0573156
0.0568665
0.0530929
0.0424866
0.0424937
0.0532067
0.0572154
0.0571072
0.0532131
0.0425005
0.0425067
0.0533255
0.0572274
0.0571182
0.0532243
0.0425122
0.0425173
0.0532297
0.057123
0.0571272
0.0532343
0.0425219
0.0425266
0.0531326
0.0569036
0.0573643
0.0533496
0.0425311
0.0425355
0.0531411
0.0569118
0.0572576
0.0532511
0.0425395
0.0425435
0.0532544
0.0570323
0.0572635
0.0532571
0.042547
0.0425503
0.0532592
0.057037
0.0573822
0.0533678
0.0425534
0.0425558
0.0531564
0.0569261
0.0571541
0.0532633
0.0425575
0.0425594
0.0532634
0.0571538
0.0573828
0.0533704
0.0425614
0.0425628
0.053157
0.0569247
0.0573802
0.053369
0.0425636
0.0425641
0.0531545
0.0569208
0.0573751
0.0533654
0.0425645
0.0425649
0.0532568
0.0571428
0.0571396
0.0532544
0.0425644
0.0425632
0.0531447
0.056908
0.0573602
0.0533538
0.042562
0.0425609
0.0531372
0.0568983
0.0572346
0.0532388
0.0425592
0.0425578
0.0532338
0.0570005
0.0573373
0.0533353
0.0425562
0.042554
0.0531169
0.0568736
0.0573229
0.0533238
0.0425516
0.0425488
0.0531046
0.0568587
0.0573068
0.0533104
0.0425458
0.0425429
0.0531971
0.0570694
0.0570607
0.0531899
0.0425392
0.0425349
0.0530757
0.0568241
0.0572704
0.0532799
0.0425308
0.0425266
0.0530588
0.0568042
0.0572496
0.0532624
0.0425221
0.0425174
0.0530407
0.0567827
0.0572272
0.0532435
0.0425125
0.0425073
0.0530212
0.0567598
0.0572032
0.0532232
0.0425019
0.0424963
0.0530004
0.0567353
0.0571779
0.0532017
0.0424904
0.0424843
0.0529783
0.0567094
0.0571512
0.053179
0.0424779
0.0424712
0.0529551
0.0566823
0.0570085
0.0530486
0.0424642
0.0424573
0.0530361
0.0567667
0.0569791
0.0530233
0.0424502
0.0424428
0.0530101
0.0567366
0.0569481
0.0529967
0.0424352
0.0424274
0.052983
0.0567051
0.0569158
0.0529689
0.0424194
0.0424113
0.0529546
0.0566725
0.0569967
0.0530461
0.042403
0.0423943
0.0528199
0.0565258
0.0567341
0.0529104
0.0423851
0.0423759
0.0528949
0.05683
0.0565856
0.0528794
0.0423668
0.0423573
0.0528634
0.0567938
0.0565486
0.0528469
0.0423478
0.0423383
0.0529363
0.0568699
0.0566235
0.0528143
0.0423284
0.0423178
0.0526919
0.0563786
0.0568112
0.0528854
0.0423073
0.0422968
0.0527627
0.0565644
0.056319
0.0526399
0.0422856
0.0422742
0.0527268
0.0566365
0.05639
0.0527085
0.042263
0.0422516
0.0526899
0.0565946
0.0563476
0.052671
0.0422401
0.0422287
0.0527576
0.0566651
0.0561919
0.052528
0.0422165
0.0422042
0.0526136
0.0565072
0.0562599
0.0525939
0.0421918
0.0421792
0.0525736