/*--------------------------------*- C++ -*----------------------------------*\
| =========                 |                                                 |
| \\      /  F ield         | OpenFOAM: The Open Source CFD Toolbox           |
|  \\    /   O peration     | Version:  v2006                                 |
|   \\  /    A nd           | Website:  www.openfoam.com                      |
|    \\/     M anipulation  |                                                 |
\*---------------------------------------------------------------------------*/
FoamFile
{
    version     2.0;
    format      ascii;
    class       volScalarField;
    location    "0.014";
    object      Ma;
}
// * * * * * * * * * * * * * * * * * * * * * * * * * * * * * * * * * * * * * //

dimensions      [0 0 0 0 0 0 0];


internalField   nonuniform List<scalar> 
31566
(
0.154889
0.154892
0.154889
0.154886
0.15488
0.154869
0.154852
0.15483
0.154802
0.154767
0.154726
0.154676
0.154618
0.154552
0.154485
0.154428
0.154387
0.154366
0.154362
0.154368
0.154376
0.154378
0.154371
0.154354
0.154327
0.154291
0.154246
0.154192
0.154129
0.154057
0.153976
0.153886
0.153789
0.153684
0.153572
0.153452
0.153325
0.15319
0.153047
0.152896
0.152738
0.152572
0.152399
0.152218
0.15203
0.151835
0.151633
0.151425
0.15121
0.150989
0.150762
0.15053
0.150292
0.15005
0.149803
0.149552
0.149297
0.149038
0.148777
0.148512
0.148245
0.147976
0.147705
0.147433
0.14716
0.146887
0.146614
0.146342
0.146071
0.145802
0.145535
0.14527
0.145008
0.144749
0.144493
0.144241
0.143993
0.14375
0.14351
0.143275
0.143045
0.142818
0.142595
0.142375
0.142158
0.141944
0.141733
0.141528
0.141334
0.141161
0.141022
0.14093
0.140887
0.140883
0.140899
0.140921
0.140942
0.140956
0.140958
0.140944
0.140907
0.140827
0.140727
0.140577
0.140312
0.139977
0.139541
0.138885
0.138162
0.135347
0.133462
0.138172
0.13907
0.139168
0.137987
0.131411
0.12939
0.137709
0.139241
0.139263
0.137376
0.127544
0.125853
0.137014
0.13922
0.139124
0.136562
0.124328
0.122946
0.136109
0.138998
0.138843
0.135601
0.121621
0.120393
0.135185
0.138677
0.138495
0.134764
0.119271
0.11825
0.134347
0.138308
0.138106
0.133929
0.117294
0.116413
0.133517
0.137898
0.13768
0.133107
0.115578
0.114803
0.132707
0.13746
0.137232
0.13231
0.114061
0.113368
0.131922
0.137003
0.13677
0.131538
0.112697
0.112067
0.131162
0.136537
0.136299
0.130789
0.111452
0.110869
0.130424
0.136063
0.135823
0.13006
0.110298
0.109754
0.129705
0.135586
0.135344
0.129349
0.109217
0.108703
0.129002
0.135105
0.134861
0.128652
0.108194
0.107706
0.128311
0.13462
0.134374
0.127967
0.10722
0.106753
0.12763
0.134131
0.133882
0.12729
0.106288
0.105839
0.126957
0.133637
0.133385
0.126621
0.105392
0.10496
0.126291
0.133137
0.132882
0.125957
0.104529
0.104112
0.125629
0.132631
0.132372
0.125296
0.103695
0.10329
0.124969
0.132117
0.131853
0.124637
0.102884
0.102489
0.12431
0.131594
0.131326
0.123977
0.102091
0.101702
0.123649
0.131062
0.130789
0.123313
0.10131
0.100923
0.122981
0.130518
0.130238
0.12264
0.100529
0.100138
0.1223
0.12996
0.129672
0.12195
0.0997343
0.0993224
0.121599
0.129385
0.12909
0.121236
0.0988867
0.0984446
0.120874
0.128796
0.128494
0.1205
0.0979876
0.0975309
0.120125
0.128191
0.127879
0.119741
0.0970656
0.096604
0.119357
0.127566
0.127243
0.118963
0.0961364
0.0956734
0.118571
0.12692
0.126588
0.118169
0.0952053
0.0947416
0.117769
0.126256
0.125914
0.11736
0.0942733
0.0938093
0.116953
0.125572
0.125221
0.116536
0.0933407
0.0928763
0.116122
0.12487
0.124511
0.1157
0.0924077
0.091943
0.11528
0.124151
0.123782
0.114851
0.0914742
0.0910087
0.114424
0.123413
0.123035
0.113987
0.0905378
0.0900705
0.113553
0.122656
0.122267
0.113109
0.0895977
0.0891283
0.112667
0.121879
0.12148
0.112216
0.0886536
0.0881816
0.111766
0.121081
0.120673
0.111307
0.0877042
0.0872291
0.11085
0.120264
0.119845
0.110383
0.0867482
0.086269
0.109917
0.119425
0.118995
0.10944
0.0857835
0.0852992
0.108965
0.118563
0.118121
0.108479
0.0848079
0.084315
0.107993
0.117678
0.117224
0.107497
0.0838134
0.0833098
0.107001
0.116768
0.116301
0.106493
0.0827972
0.0822826
0.105984
0.115832
0.115351
0.105463
0.0817587
0.0812323
0.104941
0.114867
0.11437
0.104405
0.0806961
0.0801569
0.103867
0.11387
0.113356
0.103315
0.0796072
0.0790537
0.10276
0.112839
0.112308
0.10219
0.0784889
0.0779195
0.101617
0.111772
0.111221
0.101028
0.0773378
0.0767506
0.100435
0.110666
0.110095
0.0998245
0.0761502
0.0755436
0.0992098
0.109519
0.108927
0.0985777
0.074923
0.0742957
0.0979404
0.108328
0.107714
0.0972849
0.0736535
0.0730042
0.0966237
0.107092
0.106454
0.0959436
0.0723393
0.071667
0.0952574
0.105808
0.105145
0.0945518
0.0709788
0.0702831
0.0938397
0.104474
0.103785
0.0931078
0.0695711
0.0688519
0.0923692
0.103088
0.102373
0.0916104
0.0681164
0.0673742
0.0908449
0.101649
0.100906
0.0900588
0.0666158
0.0658515
0.0892662
0.100154
0.0993838
0.0884529
0.0650711
0.0642857
0.0876332
0.098604
0.0978053
0.0867927
0.0634845
0.062679
0.0859459
0.0969969
0.0961693
0.085078
0.0618579
0.0610333
0.0842041
0.0953319
0.094475
0.083309
0.0601928
0.0593494
0.0824079
0.0936081
0.0927215
0.0814854
0.0584897
0.0576275
0.0805571
0.0918248
0.0909083
0.0796072
0.0567487
0.0558676
0.0786517
0.0899817
0.0890351
0.0776747
0.0549695
0.0540695
0.0766921
0.0880784
0.0871017
0.0756878
0.053152
0.0522333
0.0746784
0.0861149
0.0851082
0.0736472
0.0512968
0.0503597
0.0726113
0.0840916
0.0830552
0.0715537
0.0494048
0.0484504
0.070492
0.0820092
0.0809435
0.069409
0.0474782
0.0465079
0.0683225
0.0798685
0.0787741
0.0672152
0.0455205
0.0445368
0.0661054
0.0776709
0.0765485
0.0649752
0.043537
0.042543
0.063844
0.075418
0.074269
0.0626931
0.0415339
0.0405332
0.0615434
0.0731128
0.0719388
0.060375
0.0395191
0.0385163
0.0592101
0.0707586
0.069562
0.0580275
0.0375015
0.0365012
0.0568504
0.0683588
0.0671425
0.0556568
0.03549
0.0344962
0.0544713
0.0659186
0.0646854
0.0532702
0.0334917
0.0325073
0.0520795
0.0634452
0.062198
0.0508743
0.0315116
0.0305391
0.0496816
0.0609463
0.0596916
0.0484765
0.0295473
0.0285784
0.0472877
0.0584362
0.0571808
0.0460877
0.0275893
0.0266265
0.0449071
0.0559277
0.0546766
0.0437167
0.0256453
0.0246928
0.042551
0.0534311
0.05219
0.04138
0.0237204
0.0227836
0.0402386
0.0509579
0.049732
0.039092
0.0218333
0.0209251
0.0379782
0.0485185
0.0473131
0.0368599
0.020007
0.0191357
0.0357777
0.0461232
0.0449433
0.0346921
0.0182565
0.0174289
0.0336468
0.043783
0.0426341
0.0325991
0.0165946
0.0158145
0.0315944
0.0415077
0.0403946
0.0305882
0.015027
0.0142964
0.0296281
0.0393075
0.0382352
0.0286669
0.0135568
0.0128761
0.0277542
0.037192
0.0361647
0.0268405
0.012184
0.0115524
0.0259776
0.0351694
0.034191
0.0251135
0.0109075
0.0103241
0.0243016
0.0332465
0.0323194
0.0234883
0.00972536
0.00918928
0.0227287
0.0314285
0.0305544
0.0219662
0.00863512
0.00814329
0.0212581
0.0297177
0.0288966
0.020545
0.00763054
0.00717807
0.0198849
0.0281124
0.0273427
0.0192178
0.00670199
0.00628591
0.0186032
0.0266098
0.0258889
0.0179787
0.00584272
0.00545776
0.0174051
0.0252039
0.0245281
0.0168183
0.00504213
0.00468261
0.0162798
0.0238862
0.0232509
0.0157253
0.00428953
0.00395157
0.0152172
0.0226476
0.022048
0.0146901
0.00357714
0.00325674
0.0142074
0.0214785
0.0209096
0.0137031
0.0028971
0.00259127
0.0132414
0.0203691
0.0198245
0.0127552
0.0022436
0.00194974
0.0123102
0.0193087
0.0187834
0.0118379
0.00161112
0.00132734
0.0114054
0.0182871
0.0177766
0.0109435
0.000995738
0.000721182
0.0105202
0.0172944
0.0167953
0.0100662
0.000395455
0.000131035
0.00964966
0.0163232
0.0158331
0.0092038
0.000190764
0.000449542
0.00879157
0.0153676
0.0148836
0.00835146
0.000758453
0.00100801
0.00794746
0.0144251
0.0139458
0.00751195
0.00130595
0.00154698
0.00711697
0.0134937
0.0130197
0.00668819
0.00183271
0.00206302
0.00630507
0.0125764
0.0121106
0.0058874
0.00233416
0.0025538
0.00551879
0.011678
0.0112232
0.00511441
0.00281013
0.0030169
0.00476366
0.0108052
0.0103644
0.00437454
0.00325818
0.00345302
0.00404278
0.00996369
0.00953962
0.00367008
0.00368044
0.00386255
0.00336011
0.00916008
0.00875651
0.00300645
0.00407545
0.0042447
0.00271995
0.00840108
0.00802164
0.00238787
0.00444181
0.0045949
0.00212905
0.00769458
0.00734191
0.00181985
0.00477559
0.00491374
0.00158707
0.00704252
0.00671858
0.0013014
0.00507682
0.00519729
0.0010982
0.00645089
0.00615693
0.00083893
0.00534214
0.00544627
0.000665301
0.00592205
0.00565871
0.000433055
0.00557413
0.00566285
0.000287971
0.00545597
0.00522354
9.13436e-05
0.00577496
0.00584937
5.60244e-05
0.00505161
0.00485001
0.000230753
0.00594608
0.0060085
0.000322018
0.00470619
0.00453228
0.000484104
0.00609244
0.00614476
0.000557696
0.00441332
0.00426402
0.000700972
0.0062178
0.0062601
0.000753788
0.00416598
0.00402866
0.000896369
0.00632729
0.00634873
0.000928938
0.0039439
0.00383228
0.00104883
0.0063959
0.00641151
0.00108495
0.00376617
0.0036515
0.00119845
0.00646011
0.00644144
0.00121656
0.00358002
0.00365474
0.00110938
0.00635885
0.00618185
0.000816066
0.00386126
0.00410074
0.000495048
0.00586963
0.00955891
0.0137193
0.0167347
0.0186429
0.0192802
0.0216003
0.0226283
0.02387
0.024582
0.0253571
0.025873
0.0263922
0.0267684
0.0271202
0.0273867
0.0276204
0.0278008
0.0279443
0.0280557
0.0281186
0.0281561
0.0281165
0.0280436
0.0278387
0.0275777
0.0270756
0.0264752
0.0253969
0.0242185
0.0222299
0.0203867
0.01819
0.0170409
0.0172802
0.0193811
0.0205282
0.0191118
0.0344119
0.13908
0.162247
0.162826
0.163929
0.165415
0.167371
0.168399
0.168642
0.168057
0.166435
0.163932
0.159809
0.155226
0.146638
0.135909
0.0695616
0.0338931
0.00198235
0.0181537
0.0152465
0.00579214
0.0377655
0.0450683
0.00991969
0.0162525
0.00932265
0.0225731
0.054318
0.0620053
0.0313044
0.00232494
0.0124288
0.0398307
0.0688344
0.0751736
0.0476102
0.0202159
0.0269655
0.0545381
0.0809279
0.0859622
0.0604852
0.0323684
0.0368038
0.0655924
0.0904843
0.0944941
0.0700455
0.0405124
0.043681
0.0739943
0.0981423
0.10146
0.0775296
0.0464445
0.0488757
0.0807315
0.104503
0.10734
0.0836734
0.0510484
0.0530222
0.086389
0.109973
0.11246
0.0889155
0.0548412
0.0565375
0.09128
0.114794
0.117022
0.0935136
0.0581396
0.0596681
0.095617
0.119129
0.121159
0.0976328
0.0611397
0.0625704
0.0995526
0.123096
0.124979
0.101413
0.0639727
0.0653569
0.103206
0.126791
0.128567
0.104962
0.0667329
0.0681076
0.106673
0.130292
0.131997
0.108367
0.0694891
0.0708835
0.110041
0.133676
0.135335
0.111703
0.0723002
0.0737366
0.113374
0.137
0.138663
0.115052
0.0752107
0.0767201
0.116745
0.140333
0.142035
0.118474
0.0782757
0.0798823
0.120231
0.143755
0.145528
0.12204
0.0815526
0.0832899
0.123907
0.14734
0.149228
0.125846
0.0851138
0.0870278
0.127867
0.151181
0.153231
0.129988
0.0890551
0.0912038
0.132223
0.155388
0.157671
0.134595
0.0935038
0.0959722
0.137127
0.160104
0.162717
0.139852
0.0986529
0.101587
0.142811
0.165547
0.168645
0.146026
0.10484
0.108513
0.149657
0.172051
0.175868
0.153785
0.112837
0.117594
0.15829
0.180007
0.18425
0.162951
0.12242
0.126542
0.167279
0.188325
0.191992
0.171031
0.129947
0.132717
0.174393
0.195388
0.198533
0.177416
0.135062
0.137755
0.180614
0.201822
0.205531
0.1842
0.141156
0.149804
0.19222
0.212726
0.201033
0.182535
0.149746
0.153509
0.189717
0.206046
0.211369
0.196096
0.158297
0.162743
0.201886
0.216729
0.221781
0.207031
0.166773
0.170239
0.211576
0.226366
0.230966
0.216123
0.174121
0.179323
0.221412
0.236167
0.242074
0.227459
0.185745
0.196087
0.23759
0.251582
0.244489
0.229705
0.197578
0.205033
0.238779
0.250856
0.259326
0.248971
0.214769
0.224462
0.259114
0.268604
0.27786
0.268935
0.234077
0.245122
0.279577
0.287901
0.302548
0.295153
0.260553
0.266192
0.292865
0.303089
0.314258
0.307428
0.280986
0.300521
0.325352
0.329452
0.350651
0.350262
0.3266
0.339317
0.356902
0.361457
0.380067
0.38135
0.365693
0.403301
0.411806
0.402321
0.423704
0.429918
0.426998
0.46675
0.454444
0.438685
0.414435
0.426343
0.445456
0.261233
0.282417
0.308408
0.104145
0.0745238
0.162877
0.0980978
0.0974674
0.0857712
0.0640083
0.073556
0.080581
0.0572613
0.0618513
0.0584618
0.048626
0.0478957
0.0401132
0.0366861
0.0436727
0.0434867
0.0394474
0.0379713
0.0273121
0.0241974
0.0340005
0.0368467
0.0364384
0.0347562
0.0251212
0.0187459
0.0308644
0.0337712
0.0327256
0.0292149
0.0183351
0.0204134
0.0315809
0.0342335
0.0325255
0.028751
0.015528
0.0167179
0.028309
0.0323009
0.0349369
0.0316418
0.019363
0.0150639
0.029491
0.0338717
0.0341593
0.0297956
0.0172027
0.0202875
0.0337675
0.0374807
0.0367703
0.0320745
0.0166801
0.0194574
0.0327016
0.0373209
0.0411107
0.0371987
0.0228953
0.0196253
0.0358308
0.0406492
0.0413135
0.0365387
0.0228498
0.0264652
0.041362
0.0453066
0.0448844
0.0400306
0.0233911
0.0264401
0.0406949
0.0455989
0.0496368
0.0457299
0.0302722
0.0273586
0.04438
0.0491638
0.0498169
0.0449279
0.0304811
0.0345537
0.0501346
0.0538532
0.0532376
0.0486771
0.031544
0.0343046
0.0483674
0.0532823
0.0567296
0.0531112
0.0389355
0.0389009
0.0524435
0.0568318
0.0601173
0.0568352
0.0421951
0.038977
0.055513
0.0596968
0.0601593
0.055609
0.0415198
0.0448617
0.060091
0.0634357
0.0627789
0.0585669
0.0416246
0.0439963
0.0584267
0.0630604
0.0662856
0.0630655
0.0475768
0.0441033
0.0611821
0.0652503
0.0650028
0.0603231
0.0461162
0.0507257
0.0646211
0.0678951
0.0675598
0.0632716
0.0500114
0.0531183
0.0673497
0.0701952
0.0693349
0.06556
0.0494111
0.05104
0.0645115
0.0689709
0.071231
0.0681803
0.0548842
0.0534531
0.0667126
0.0708154
0.0732571
0.0705945
0.0566178
0.0529446
0.0687895
0.0723755
0.0721798
0.0677448
0.053696
0.0567255
0.0716707
0.0745213
0.0732667
0.0695524
0.0527921
0.0544888
0.068245
0.072711
0.0748153
0.0720401
0.0588833
0.0569891
0.0696656
0.0736941
0.0752939
0.0727082
0.0605169
0.0591559
0.071303
0.074913
0.0766894
0.0745877
0.0619587
0.0572928
0.072321
0.0753914
0.0746164
0.0704639
0.0571839
0.0609909
0.0735794
0.076202
0.0757327
0.0721303
0.0599645
0.0627815
0.0753304
0.0773635
0.075922
0.0729236
0.057942
0.0577495
0.0709245
0.0750543
0.0764571
0.0740141
0.0618175
0.0603916
0.0719436
0.0755252
0.076618
0.0745411
0.0636718
0.0614
0.072763
0.0759728
0.076886
0.075126
0.0635183
0.0583379
0.0727392
0.0754463
0.0747721
0.0711018
0.0587419
0.0625864
0.0738008
0.0758763
0.0748263
0.0715394
0.0605673
0.0633947
0.0735568
0.0754198
0.0747118
0.071627
0.0607251
0.062952
0.0738773
0.0754539
0.0741939
0.0718438
0.0581689
0.0579581
0.0699979
0.0734075
0.0740326
0.0721687
0.0614768
0.0590318
0.0697467
0.072856
0.0730966
0.0714139
0.061758
0.0594394
0.0696686
0.0724695
0.0729691
0.0716484
0.0616704
0.0562644
0.0694464
0.0715589
0.0706386
0.0673889
0.0557607
0.0590525
0.0692171
0.0709113
0.0697208
0.0668383
0.0563748
0.059357
0.0683606
0.0697721
0.0688897
0.0663935
0.0568806
0.0593102
0.0674929
0.0686841
0.0679186
0.0656132
0.0565346
0.0580949
0.0666958
0.0677024
0.0662727
0.0645009
0.0525912
0.0517416
0.0625331
0.0654081
0.065329
0.0639568
0.0549266
0.0523044
0.0618145
0.0642913
0.0638771
0.0628253
0.0550006
0.0521297
0.0608339
0.0629254
0.0621445
0.0612853
0.0542307
0.0514802
0.0594372
0.0612784
0.0604855
0.0597863
0.0534176
0.0508517
0.0581914
0.0598062
0.0590106
0.0585486
0.0520323
0.0468678
0.056629
0.057735
0.0568483
0.0546885
0.0456898
0.048039
0.0551345
0.0560161
0.0550936
0.0533005
0.0452528
0.0474526
0.0535399
0.0541036
0.0532874
0.0518901
0.0448055
0.0463541
0.0516259
0.0519944
0.0512052
0.050052
0.0437584
0.0449703
0.0495736
0.0498129
0.0490979
0.0481791
0.0424368
0.0431191
0.0476807
0.0476757
0.0465157
0.0459769
0.0385851
0.037045
0.0443939
0.0457302
0.0443863
0.0440345
0.0388047
0.0362254
0.0425636
0.0435759
0.0419949
0.0418978
0.0375906
0.0349594
0.0405192
0.0412236
0.0394355
0.0394973
0.0358391
0.0335295
0.0382768
0.0387207
0.0368531
0.0370731
0.0341251
0.0320617
0.0358997
0.0360753
0.0340962
0.0346007
0.0321704
0.0284307
0.0331071
0.0330371
0.0322632
0.031845
0.0267123
0.027459
0.0306316
0.0304615
0.0296734
0.0295402
0.0253408
0.0256287
0.0280244
0.0276424
0.0269192
0.0270793
0.0237528
0.0235914
0.0253342
0.0247898
0.0240771
0.0244546
0.0219043
0.0213609
0.0225069
0.0218382
0.0209779
0.0215613
0.0198987
0.0191269
0.019534
0.0185373
0.01771
0.0184475
0.0167834
0.0151681
0.017368
0.0168508
0.0147098
0.0154276
0.0145819
0.0134277
0.0146134
0.0138764
0.0115586
0.0124279
0.0122778
0.0113761
0.0117604
0.0107987
0.0084569
0.00946779
0.00991405
0.00911856
0.0088374
0.00771255
0.0053346
0.00638409
0.00736351
0.00640931
0.00549606
0.00433593
0.00180041
0.00258823
0.0040911
0.00426023
0.00268205
0.00144795
0.00122709
0.000835108
0.0018755
0.00073399
0.00148091
0.00302853
0.00411648
0.00262814
0.000654672
0.00209506
0.00475384
0.00640454
0.00765498
0.00601133
0.00346241
0.00482666
0.00807073
0.00992491
0.0113549
0.00962139
0.00667402
0.00764928
0.0114945
0.0135795
0.0153442
0.013372
0.00990636
0.012526
0.0162323
0.0184101
0.0182515
0.0154188
0.0099091
0.0143354
0.0185461
0.0204342
0.0222594
0.0196732
0.0139507
0.0180234
0.0224321
0.0243864
0.0261835
0.0234187
0.0173553
0.0218933
0.0264518
0.028452
0.0302666
0.0274255
0.0212379
0.0253054
0.0304304
0.0327127
0.0355514
0.0328062
0.0272385
0.0234845
0.0316143
0.0352124
0.0378611
0.0355994
0.029459
0.027922
0.0360274
0.0393847
0.0420995
0.0397957
0.0336574
0.0322092
0.0401885
0.0436092
0.046494
0.0441661
0.0380002
0.036485
0.0444182
0.0478829
0.0508422
0.0481591
0.041441
0.0430184
0.0502611
0.0535867
0.0530311
0.0487688
0.0389423
0.0458213
0.0535718
0.05622
0.0575406
0.0535593
0.0437937
0.0510666
0.0584035
0.0609733
0.062203
0.0583874
0.0493985
0.0547023
0.0626465
0.065611
0.0682376
0.0644649
0.0558848
0.0514185
0.0626274
0.0673915
0.0709276
0.0679387
0.0589164
0.0566554
0.0675829
0.0719849
0.075943
0.0730062
0.0644279
0.0626178
0.0727413
0.076987
0.080911
0.0777058
0.0687886
0.0696787
0.0792787
0.0834234
0.0822855
0.077106
0.0649169
0.0724268
0.0828177
0.0861703
0.0870516
0.0822639
0.0700653
0.0784025
0.0882085
0.091486
0.0925141
0.088002
0.0768879
0.0836012
0.0934848
0.0968526
0.0992221
0.0947794
0.0841897
0.0795494
0.0924583
0.0979152
0.102146
0.0985295
0.0873001
0.0852069
0.098026
0.103063
0.108001
0.10448
0.0936408
0.0953503
0.106574
0.111014
0.109747
0.104219
0.0908483
0.0981241
0.110087
0.11391
0.114302
0.108944
0.095385
0.103591
0.115367
0.119239
0.122084
0.117083
0.104718
0.100876
0.115184
0.121242
0.126391
0.122619
0.110374
0.107429
0.121261
0.126612
0.131359
0.127377
0.115037
0.115586
0.128618
0.133867
0.132653
0.126385
0.111334
0.120974
0.133966
0.138006
0.139226
0.133907
0.119889
0.12909
0.141319
0.144914
0.146988
0.141956
0.128813
0.124107
0.139262
0.145528
0.15069
0.14659
0.133096
0.134946
0.149143
0.154306
0.154225
0.14819
0.132491
0.1416
0.155802
0.159687
0.161887
0.156444
0.141087
0.136001
0.153387
0.160352
0.165859
0.161493
0.146508
0.149602
0.164965
0.170147
0.169513
0.16318
0.14643
0.154653
0.170172
0.174489
0.176829
0.171005
0.154282
0.150067
0.168618
0.175892
0.182347
0.178598
0.164391
0.166953
0.181588
0.186247
0.184615
0.178158
0.160864
0.169568
0.18498
0.189295
0.19292
0.187794
0.171721
0.170536
0.187606
0.193457
0.199127
0.195589
0.180959
0.179008
0.195838
0.200788
0.203021
0.197521
0.180139
0.177428
0.196365
0.202669
0.207588
0.203878
0.188159
0.187553
0.204974
0.209099
0.211057
0.206903
0.189476
0.187089
0.206699
0.211627
0.211497
0.206352
0.184425
0.180386
0.204291
0.210241
0.207565
0.200894
0.17467
0.162075
0.191054
0.200108
0.200278
0.193483
0.170595
0.160446
0.185115
0.193079
0.185779
0.176439
0.149618
0.139384
0.168251
0.178792
0.17303
0.161612
0.131118
0.124097
0.155905
0.168066
0.163577
0.150823
0.117907
0.112326
0.14608
0.159389
0.15551
0.141804
0.107449
0.10323
0.137879
0.151886
0.148524
0.134324
0.0996522
0.0966593
0.131107
0.145399
0.142508
0.128207
0.09419
0.0921637
0.125587
0.139811
0.137332
0.123235
0.0905152
0.0891559
0.121115
0.135027
0.132919
0.119216
0.0880365
0.0870866
0.117502
0.130967
0.129186
0.115964
0.0862786
0.0855647
0.11457
0.127537
0.126029
0.113311
0.0849322
0.0843597
0.112162
0.124636
0.123357
0.111118
0.0838398
0.0833559
0.110159
0.122167
0.121072
0.109279
0.0829145
0.0824967
0.108466
0.120048
0.119101
0.107716
0.0821124
0.0817523
0.107017
0.118217
0.117396
0.106372
0.0814201
0.081104
0.10577
0.116624
0.115905
0.105209
0.080812
0.0805421
0.104686
0.115234
0.114601
0.104197
0.0802843
0.0800482
0.103741
0.11401
0.113456
0.103312
0.079827
0.079623
0.102914
0.112937
0.112447
0.10254
0.0794293
0.0792532
0.102191
0.11199
0.111559
0.101864
0.079085
0.0789341
0.101559
0.111157
0.110777
0.101274
0.078789
0.078659
0.101008
0.110421
0.110088
0.100758
0.0785388
0.0784301
0.100527
0.109777
0.109483
0.100311
0.0783279
0.0782387
0.100111
0.10921
0.108955
0.0999258
0.0781542
0.0780798
0.0997542
0.108716
0.108495
0.0995958
0.0780115
0.0779519
0.0994502
0.108288
0.108096
0.0993166
0.0779021
0.077857
0.0991946
0.107917
0.107754
0.0990839
0.077822
0.0777892
0.0989837
0.107602
0.107464
0.098894
0.0777663
0.0777497
0.0988132
0.107336
0.10722
0.0987418
0.0777394
0.0777353
0.0986801
0.107115
0.107022
0.0986251
0.077736
0.0777427
0.0985813
0.106937
0.106863
0.0985433
0.0777551
0.0777735
0.0985155
0.106798
0.106741
0.0984955
0.0777935
0.0778226
0.0984821
0.106694
0.106658
0.0984774
0.0778531
0.0778873
0.0984792
0.106628
0.106606
0.0984884
0.077929
0.077974
0.0985022
0.106594
0.106588
0.0985238
0.0780232
0.0780766
0.0985517
0.106588
0.106597
0.0985833
0.0781334
0.0781959
0.098622
0.106612
0.106634
0.0986667
0.0782571
0.078325
0.0987162
0.106662
0.106696
0.0987708
0.0783961
0.0784706
0.0988303
0.106736
0.106782
0.0988947
0.0785487
0.0786316
0.0989636
0.106834
0.106891
0.0990381
0.078713
0.0788008
0.099117
0.106953
0.107022
0.0991986
0.0788907
0.0789841
0.0992865
0.107094
0.107172
0.0993764
0.07908
0.0791805
0.0994715
0.107255
0.107342
0.0995712
0.0792792
0.0793855
0.0996738
0.107434
0.10753
0.0997808
0.079491
0.079598
0.0998914
0.107631
0.107735
0.100005
0.0797118
0.0798235
0.100123
0.107844
0.107956
0.100243
0.0799421
0.0800598
0.100367
0.108074
0.108194
0.100495
0.0801801
0.0803017
0.100625
0.108319
0.108448
0.100759
0.0804246
0.0805534
0.100895
0.108579
0.108716
0.101036
0.0806801
0.0808115
0.101178
0.108851
0.108996
0.101322
0.0809441
0.081078
0.101469
0.109139
0.109287
0.101619
0.0812145
0.081354
0.101771
0.109436
0.10959
0.101926
0.0814914
0.0816294
0.102084
0.109748
0.109906
0.102243
0.0817716
0.0819156
0.102405
0.110069
0.110232
0.102569
0.0820606
0.0822071
0.102735
0.110399
0.110568
0.102903
0.0823563
0.082502
0.103073
0.11074
0.110914
0.103246
0.0826527
0.0828037
0.103418
0.111091
0.111269
0.103594
0.0829574
0.0831093
0.103771
0.111449
0.111632
0.103951
0.0832611
0.0834172
0.104132
0.111816
0.112004
0.104313
0.0835734
0.083732
0.104496
0.112192
0.112382
0.104682
0.0838883
0.0840448
0.104868
0.112574
0.112767
0.105056
0.0842059
0.0843628
0.105245
0.112963
0.113159
0.105435
0.0845235
0.0846845
0.105627
0.113357
0.113557
0.105819
0.0848458
0.0850081
0.106013
0.113756
0.113959
0.106206
0.0851697
0.0853325
0.106402
0.114161
0.114366
0.106597
0.0854946
0.0856575
0.106794
0.11457
0.114778
0.106991
0.0858204
0.0859836
0.107189
0.114982
0.115192
0.107387
0.0861467
0.0863099
0.107586
0.115398
0.115609
0.107784
0.0864727
0.0866356
0.107984
0.115817
0.116027
0.108183
0.0867988
0.0869615
0.108383
0.116238
0.116448
0.108583
0.0871245
0.0872886
0.108783
0.116659
0.11687
0.108984
0.0874481
0.0876119
0.109183
0.117081
0.117293
0.109384
0.0877708
0.0879337
0.109583
0.117504
0.117715
0.109782
0.0880932
0.088251
0.109982
0.117926
0.118137
0.11018
0.0884126
0.0885686
0.110379
0.118348
0.118559
0.110577
0.088727
0.0888847
0.110775
0.118769
0.118978
0.110972
0.0890416
0.089198
0.111168
0.119187
0.119395
0.111364
0.0893533
0.0895076
0.111559
0.119603
0.119811
0.111753
0.0896606
0.0898129
0.111946
0.120018
0.120224
0.112139
0.0899646
0.0901155
0.11233
0.120428
0.120633
0.112521
0.0902655
0.0904141
0.112711
0.120836
0.121038
0.1129
0.090562
0.0907105
0.113087
0.121239
0.12144
0.113275
0.0908534
0.0910001
0.11346
0.121639
0.121838
0.113645
0.0911411
0.0912855
0.113828
0.122034
0.122231
0.11401
0.091424
0.0915649
0.114191
0.122425
0.122619
0.11437
0.091704
0.0918433
0.114548
0.12281
0.123001
0.114725
0.0919774
0.0921148
0.1149
0.123189
0.123377
0.115074
0.0922484
0.0923804
0.115246
0.123564
0.123748
0.115417
0.0925115
0.0926403
0.115587
0.123932
0.124115
0.115756
0.0927671
0.0928967
0.115921
0.124294
0.124474
0.116087
0.0930207
0.0931476
0.11625
0.124649
0.124826
0.116412
0.0932688
0.093393
0.116572
0.124998
0.125171
0.11673
0.0935128
0.0936298
0.116887
0.125341
0.125509
0.117043
0.0937489
0.0938653
0.117195
0.125677
0.125841
0.117348
0.0939808
0.094094
0.117497
0.126005
0.126165
0.117646
0.0942065
0.0943169
0.117792
0.126325
0.126482
0.117937
0.0944265
0.0945342
0.118079
0.126638
0.126791
0.11822
0.0946421
0.0947443
0.11836
0.126943
0.127093
0.118498
0.0948482
0.0949508
0.118634
0.127241
0.127387
0.118767
0.0950532
0.0951496
0.1189
0.127532
0.127673
0.119031
0.0952485
0.0953448
0.119158
0.127814
0.127952
0.119285
0.0954396
0.0955336
0.119411
0.128088
0.128223
0.119532
0.0956257
0.095718
0.119654
0.128355
0.128485
0.119773
0.0958043
0.0958931
0.119891
0.128613
0.12874
0.120006
0.0959795
0.0960644
0.12012
0.128864
0.128986
0.120233
0.0961487
0.096231
0.120341
0.129107
0.129224
0.12045
0.0963137
0.0963923
0.120556
0.12934
0.129455
0.120661
0.0964683
0.0965474
0.120764
0.129567
0.129678
0.120865
0.0966204
0.0966971
0.120964
0.129786
0.129891
0.121061
0.0967689
0.096838
0.121157
0.129998
0.130099
0.12125
0.0969085
0.0969777
0.121342
0.1302
0.130297
0.121433
0.0970461
0.0971124
0.12152
0.130394
0.130489
0.121607
0.0971771
0.0972412
0.121692
0.130581
0.130672
0.121774
0.0973034
0.0973663
0.121855
0.13076
0.130847
0.121935
0.0974234
0.0974842
0.122013
0.130932
0.131015
0.122089
0.097539
0.0975953
0.122163
0.131096
0.131176
0.122236
0.0976507
0.0977047
0.122307
0.131252
0.131328
0.122377
0.0977577
0.0978111
0.122444
0.131401
0.131473
0.12251
0.0978582
0.0979077
0.122575
0.131544
0.131611
0.122637
0.097956
0.0980048
0.122698
0.131677
0.131742
0.122758
0.0980496
0.0980916
0.122816
0.131804
0.131865
0.122872
0.0981372
0.0981766
0.122926
0.131925
0.131982
0.122979
0.0982181
0.0982584
0.123031
0.132038
0.132092
0.123081
0.0982972
0.0983352
0.12313
0.132145
0.132195
0.123177
0.0983722
0.0984083
0.123222
0.132244
0.132291
0.123266
0.0984433
0.0984771
0.123309
0.132336
0.13238
0.12335
0.0985098
0.0985414
0.123389
0.132422
0.132463
0.123427
0.0985722
0.0986019
0.123464
0.132501
0.132539
0.123499
0.0986306
0.0986578
0.123533
0.132575
0.13261
0.123566
0.0986845
0.0987126
0.123597
0.132642
0.132673
0.123627
0.0987349
0.0987614
0.123655
0.132704
0.132732
0.123683
0.0987816
0.0988063
0.123709
0.132759
0.132784
0.123734
0.098825
0.0988466
0.123758
0.132808
0.132831
0.12378
0.0988667
0.0988871
0.123799
0.132853
0.132872
0.123819
0.098904
0.0989207
0.123838
0.132891
0.132908
0.123855
0.0989368
0.09895
0.123872
0.132925
0.13294
0.123887
0.098968
0.0989798
0.123901
0.132953
0.132965
0.123915
0.0989944
0.0990073
0.123926
0.132976
0.132985
0.123937
0.0990199
0.0990309
0.123945
0.132994
0.133001
0.123954
0.0990438
0.0990506
0.123961
0.133006
0.133012
0.123968
0.0990602
0.0990688
0.123973
0.133014
0.133017
0.123977
0.0990792
0.0990834
0.12398
0.133018
0.133018
0.123982
0.0990924
0.0990952
0.123984
0.133017
0.133014
0.123984
0.099103
0.0991068
0.123983
0.133011
0.133007
0.123981
0.0991099
0.09911
0.123978
0.133003
0.132996
0.123975
0.099115
0.0991142
0.12397
0.132989
0.13298
0.123966
0.0991163
0.099117
0.123958
0.132971
0.13296
0.123951
0.0991195
0.0991161
0.123943
0.132948
0.132936
0.123934
0.0991176
0.0991132
0.123925
0.132923
0.132908
0.123914
0.0991135
0.0991101
0.123902
0.132893
0.132878
0.12389
0.0991062
0.0990997
0.123877
0.132861
0.132843
0.123863
0.0990978
0.0990901
0.123849
0.132825
0.132804
0.123833
0.0990872
0.0990785
0.123817
0.132784
0.132763
0.1238
0.0990746
0.0990649
0.123783
0.132741
0.132717
0.123764
0.0990599
0.0990492
0.123745
0.132694
0.132669
0.123725
0.0990431
0.0990314
0.123705
0.132644
0.132618
0.123683
0.099024
0.0990115
0.123662
0.132592
0.132562
0.123639
0.0990013
0.0989905
0.123616
0.132537
0.132505
0.123592
0.098979
0.098967
0.123567
0.132478
0.132444
0.123542
0.0989546
0.0989416
0.123515
0.132416
0.132381
0.123489
0.0989285
0.0989146
0.123461
0.13235
0.132317
0.123433
0.0989022
0.0988847
0.123405
0.132282
0.132248
0.123376
0.0988697
0.0988544
0.123348
0.132212
0.132177
0.123316
0.0988382
0.0988219
0.123287
0.13214
0.132103
0.123254
0.0988049
0.0987896
0.123222
0.132065
0.132027
0.12319
0.0987711
0.0987505
0.123157
0.131987
0.131948
0.123123
0.0987343
0.0987144
0.123089
0.131908
0.131867
0.123054
0.0986927
0.0986734
0.12302
0.131825
0.131784
0.122983
0.0986528
0.0986323
0.122947
0.131741
0.131698
0.122909
0.0986112
0.0985914
0.122871
0.131654
0.13161
0.122834
0.098567
0.0985451
0.122796
0.131563
0.13152
0.122756
0.0985222
0.0984989
0.122716
0.131473
0.131426
0.122676
0.0984751
0.0984517
0.122636
0.131379
0.131332
0.122594
0.0984271
0.0984024
0.122553
0.131283
0.131234
0.122509
0.098377
0.0983529
0.122467
0.131185
0.131136
0.122424
0.0983242
0.0982984
0.122381
0.131083
0.131035
0.122336
0.0982711
0.0982435
0.122291
0.130982
0.130931
0.122245
0.0982175
0.0981867
0.122199
0.130878
0.130825
0.122153
0.0981604
0.0981288
0.122106
0.130771
0.130716
0.122059
0.0981016
0.0980711
0.122011
0.130662
0.130607
0.121962
0.0980397
0.0980061
0.121913
0.130551
0.130495
0.121863
0.0979769
0.0979426
0.121813
0.130438
0.13038
0.121762
0.0979128
0.0978775
0.121711
0.130322
0.130263
0.121659
0.0978465
0.0978102
0.121606
0.130203
0.130143
0.121553
0.097778
0.0977406
0.121499
0.130083
0.130021
0.121444
0.0977075
0.0976702
0.121389
0.12996
0.129897
0.121333
0.097631
0.0975956
0.121277
0.129834
0.12977
0.12122
0.0975551
0.0975186
0.121161
0.129705
0.129639
0.121103
0.0974767
0.0974386
0.121043
0.129572
0.129506
0.120982
0.0973951
0.0973553
0.120921
0.129437
0.129368
0.120858
0.0973101
0.0972687
0.120795
0.129297
0.129226
0.12073
0.0972232
0.0971767
0.120664
0.129153
0.12908
0.120597
0.0971292
0.0970798
0.120529
0.129005
0.128929
0.120459
0.0970275
0.0969781
0.120387
0.12885
0.128771
0.120314
0.0969227
0.0968699
0.120238
0.128688
0.128605
0.120161
0.0968106
0.0967536
0.120082
0.128519
0.128431
0.12
0.0966898
0.0966277