/*--------------------------------*- C++ -*----------------------------------*\
| =========                 |                                                 |
| \\      /  F ield         | OpenFOAM: The Open Source CFD Toolbox           |
|  \\    /   O peration     | Version:  v2006                                 |
|   \\  /    A nd           | Website:  www.openfoam.com                      |
|    \\/     M anipulation  |                                                 |
\*---------------------------------------------------------------------------*/
FoamFile
{
    version     2.0;
    format      ascii;
    class       volScalarField;
    location    "0.014";
    object      omega;
}
// * * * * * * * * * * * * * * * * * * * * * * * * * * * * * * * * * * * * * //

dimensions      [0 0 -1 0 0 0 0];


internalField   nonuniform List<scalar> 
24416
(
0.0110532
0.0110534
0.0110538
0.0110536
0.0110531
0.0110523
0.0110509
0.0110486
0.0110449
0.0110395
0.011032
0.0110228
0.0110123
0.011001
0.0109892
0.0109772
0.0109651
0.0109527
0.0109401
0.0109271
0.0109139
0.0109002
0.0108862
0.0108717
0.0108567
0.0108414
0.0108256
0.0108094
0.0107927
0.0107757
0.0107582
0.0107403
0.010722
0.0107034
0.0106843
0.0106649
0.0106451
0.010625
0.0106045
0.0105837
0.0105626
0.0105412
0.0105195
0.0104975
0.0104753
0.0104528
0.0104301
0.0104073
0.0103842
0.0103609
0.0103375
0.010314
0.0102903
0.0102666
0.0102428
0.010219
0.0101951
0.0101713
0.0101475
0.010124
0.0101006
0.0100777
0.0100556
0.0100346
0.0100154
0.00999945
0.0099886
0.00998621
0.00999775
0.0100322
0.010104
0.0102366
0.0104678
0.0108575
0.0115008
0.012547
0.0142291
0.0169077
0.0211372
0.0277619
0.0380571
0.0539327
0.0782304
0.115168
0.17104
0.255427
0.383289
0.578558
0.879194
1.33905
2.00879
2.8646
3.70471
4.21649
4.31118
4.32853
4.87681
6.66236
10.108
16.591
29.7917
34.206
26.6866
62.7572
162.692
398.963
1312.48
11145.9
59881
846281
829033
125220
28719.3
43851.4
156095
810791
787920
167651
52759
59593.7
174734
758250
735485
173439
63899.7
67994.5
176295
712069
698820
176102
70028.4
72713.2
179366
689222
682763
178454
73743.2
75469
177297
672475
664848
176151
75745.1
76744.7
175366
656977
651232
174603
76823.4
77482.5
174072
644959
640440
173546
77477.9
77969.5
173204
635276
631560
172832
77934.3
78345.9
172632
627187
624012
172366
78292.1
78652.9
172258
620198
617407
172068
78587.3
78909.6
172008
613997
611485
171879
78835.3
79128.9
171844
608376
606073
171755
79047.8
79318.4
171735
603194
601051
171671
79231.5
79482.6
171661
598355
596339
171612
79390.2
79624.4
171607
593791
591878
171567
79527.1
79746.6
171564
589455
587629
171528
79645.2
79852.6
171526
585312
583559
171492
79747.6
79943.4
171487
581334
579648
171450
79835.1
80021
171441
577510
575880
171404
79910.8
80092
171401
573810
572224
171363
79980.2
80155.1
171355
570218
568677
171306
80039.9
80210.1
171294
566731
565230
171237
80090.6
80256.2
171221
563338
561872
171156
80133.1
80294.7
171135
560029
558596
171060
80168.3
80326.4
171033
556797
555394
170948
80197.3
80352.4
170916
553635
552259
170820
80221
80373.6
170782
550536
549184
170676
80240.1
80390.7
170633
547494
546162
170516
80255.4
80404
170467
544499
543185
170339
80267.3
80414.3
170285
541544
540243
170147
80276.2
80421.7
170087
538620
537328
169939
80282.3
80426.2
169874
535717
534431
169715
80285.3
80427.3
169643
532827
531542
169474
80284.8
80424.6
169396
529940
528652
169215
80280.1
80417.5
169131
527047
525754
168938
80270.8
80405.3
168846
524140
522838
168641
80255.9
80387.3
168542
521212
519897
168324
80235
80363
168218
518256
516926
167986
80207.7
80331.9
167872
515265
513918
167626
80173.5
80294.1
167504
512236
510865
167244
80132.7
80250
167114
509166
507769
166841
80086
80200.2
166703
506031
504629
166417
80034.1
80145.9
166272
502855
501370
165971
79978.4
80089.1
165825
499679
498032
165517
79923.1
80037.8
165382
496323
495103
165147
79882.7
80013.9
165090
493770
492679
164966
79882
80039.6
164957
491377
490260
164919
79937.1
80141
164944
488921
487758
164933
80056.1
80291
164974
486376
485167
164973
80213.5
80469.4
165022
483745
482491
165022
80399
80673.4
165070
481028
479730
165065
80608.9
80898.5
165105
478223
476880
165091
80838.9
81141.8
165121
475324
473933
165096
81086.6
81401.5
165116
472321
470876
165079
81350.4
81676.5
165088
469204
467702
165040
81629.4
81966.6
165037
465963
464398
164976
81923.7
82272.1
164963
462587
460955
164883
82233.3
82593.2
164860
459066
457361
164762
82559
82931
164729
455388
453604
164612
82901.7
83287
164568
451539
449670
164431
83263.1
83663.2
164377
447505
445544
164220
83645.6
84063
164155
443269
441205
163979
84052.8
84490.3
163904
438811
436634
163709
84489
84945.4
163623
434110
431808
163408
84957.6
85438
163312
429141
426702
163075
85466.1
85973.9
162965
423879
421292
162705
86020
86557.9
162577
418298
415551
162278
86622
87192.1
162134
412375
409453
161804
87280.6
87893.5
161646
406071
402945
161289
88013.1
88681.1
161121
399327
395966
160744
88842.1
89583.1
160571
392079
388452
160183
89799.3
90637.1
160007
384259
380341
159603
90926.1
91887.1
159416
375816
371594
158964
92272.7
93389.8
158764
366750
362146
158285
93911
95162.2
158056
356883
352021
157497
95825.3
97146.3
157117
346738
342161
156222
97879.2
99099.9
155286
337451
333932
153289
99655.4
100349
151049
330498
329852
148266
100259
99846.1
142984
330874
332158
136116
98290.8
96287.8
129389
332915
333771
121812
92980.4
89822.6
115367
334123
334802
108423
85614.5
81455.2
103038
335079
335528
96566.6
76207.9
71502.6
91734.1
335385
335390
85646.7
66090
61654
82198.4
334659
334444
77092.3
56958.3
53314.2
74569.7
333707
333449
70186
49366.1
46452.4
69060.3
332941
332807
65985.4
43184.1
41335.3
66755.9
332629
332850
64250.8
38737.8
37501.9
65364.3
332977
333315
62667.1
35293.4
34362.5
63889.4
333502
333744
60908.8
32479.5
31811
62210.2
333856
333951
59259.5
30142.5
29543.7
59823.3
333858
333805
57323.2
28130.3
27574.8
57282.1
333410
333153
55654.4
26452.3
25952.7
55452.9
332546
332099
54246.7
24995.7
24560.7
54124.2
331380
330840
53115.6
23765.7
23452.6
53161.9
330111
329592
52307.8
22819.1
22594.8
52428.5
328924
328477
51770.2
22078.5
21890.8
51839.2
327908
327519
51335.1
21471.8
21299.1
51338.5
327041
326692
50943.4
20974.2
20822.3
50920.3
326294
325984
50598.2
20568.8
20434.6
50554.2
325647
325370
50282.1
20236.3
20118.4
50226.6
325079
324828
50000.5
19971.5
19877.7
49955.8
324570
324343
49793
19779.8
19721.8
49791.6
324115
323915
49665.8
19676
19657.9
49719.7
323719
323548
49631.6
19640.5
19672.6
49749.2
323385
323245
49677.6
19670.7
19742.8
49857
323115
323007
49778.1
19749.6
19865.7
50021.1
322909
322829
49912.9
19864.6
20033.2
50226.6
322759
322705
50072.3
20017.9
20240.4
50463.3
322661
322632
50287.2
20212.3
20508.5
50906.4
322610
322603
50597.8
20471.6
20861.2
51504.4
322602
322616
51044.1
20858.6
21382.9
52267.5
322638
322680
51647.8
21425.9
22082.2
53195.4
322731
322810
52740.9
22226.7
22938.2
54103.9
322900
323022
53857.4
23186.9
23855.9
54972.2
323164
323346
54897.7
24088.8
24327.1
55900.7
323569
323834
55898.9
24178.8
23975.6
56973.6
324338
324398
56907.3
23469.8
22837.4
58370.1
324427
324915
59625.5
22218.8
20782.7
60633.8
324122
326279
60327.8
17986.4
13823.3
56161.2
322315
313897
45948
9305.06
3955.55
21531.3
301403
2111.22
2141.13
2309.3
2636.26
2585.19
2476.15
2398.16
2331.16
2281.41
2243.98
2220.23
2202.45
2188.84
2167.97
2140.56
2102.36
2061.2
2035.54
2020.35
2011.39
2008.4
2006.7
2007.82
2008.5
2008.53
2006.77
2007.24
2006.95
2005.75
2003.8
2001.45
1999.23
1997.25
1996.87
1995.68
1996.01
1999.86
2012.42
2054.26
2162.35
2238.37
2839.46
4032.87
2548.79
2009.71
2000.79
2005.26
2027.98
2198.06
3033.61
42644.4
903073
1.02561e+06
159968
18866.5
44059.3
248263
1.17664e+06
1.33116e+06
308409
87315.3
104924
313951
1.41781e+06
1.46871e+06
329784
131330
135285
328088
1.49122e+06
1.50452e+06
335734
147970
147138
334116
1.50315e+06
1.50653e+06
342690
154275
153460
342340
1.51059e+06
1.51092e+06
350496
158081
156087
348113
1.5089e+06
1.50931e+06
356540
160362
159025
355468
1.51362e+06
1.51403e+06
363825
162235
160014
360931
1.51219e+06
1.51061e+06
369475
163862
162386
368138
1.51905e+06
1.51747e+06
376499
165445
163076
373030
1.51575e+06
1.51418e+06
381553
166846
165268
379799
1.52274e+06
1.52116e+06
388047
168337
165786
384025
1.51959e+06
1.51803e+06
392392
169422
167715
390006
1.52676e+06
1.52526e+06
398039
170711
167916
393290
1.52392e+06
1.52247e+06
401492
171243
169386
398456
1.53145e+06
1.53011e+06
406301
172237
169139
400836
1.52912e+06
1.52788e+06
408882
172091
169948
405212
1.53727e+06
1.53624e+06
412823
172491
168956
406563
1.5358e+06
1.53498e+06
414386
171459
168764
409907
1.54506e+06
1.5446e+06
417175
170735
166255
409729
1.54509e+06
1.5471e+06
417102
168166
164136
411334
1.55445e+06
1.55728e+06
417553
165476
159358
408003
1.55949e+06
1.56368e+06
412727
160294
154234
405270
1.57476e+06
1.58818e+06
406305
153264
146892
399520
1.59254e+06
1.59145e+06
401383
146150
142308
395289
1.57061e+06
1.53894e+06
392176
141939
136763
382078
1.4973e+06
1.43926e+06
368605
130882
127546
364266
1.36792e+06
1.21869e+06
155776
82989.9
311835
776302
1.89269e+06
3.23529e+06
635173
248329
202567
537024
2.27328e+06
1.95229e+06
474462
195965
145955
489879
1.78341e+06
1.68247e+06
318391
89025.3
58695.6
185071
695979
371665
128820
41590.8
33914.7
95325.7
280674
232621
68103.6
24570.8
31892.5
70669
232671
217377
62735.6
30713.2
28836.9
49596.5
182579
144823
41377.4
28646.2
29102
37005.6
119883
96273.9
37274.9
32388.4
33111.3
38898.6
81667.2
69399.4
42014.1
38128.4
42768.9
47144.3
62315.5
50181.3
53377.3
42379.5
43652.3
54379.9
42826.3
36771.7
57870.7
48476.1
50424.6
62279.8
33238.9
28728.6
62520
50074.1
55089.4
65109.6
26689.1
25102.2
66887.3
56884
55266
71542.3
25025.6
24746.3
74896.9
61516
79470.8
64492.7
25858.4
28620.1
47212.3
68986.5
50724.4
42083.9
33477.1
42590.7
44446.6
46526
47572.1
49478.9
49655.3
63151.6
61672.1
55700.4
67771.6
74888.4
76811.3
98182.5
93149.9
91603.5
108401
116970
118059
156310
152823
141030
164592
153906
154453
171264
130245
162405
155671
136208
231518
307397
181300
162524
186710
257224
421855
1.12342e+06
330856
228362
248060
534946
2.35179e+06
1.74232e+06
609082
252276
371606
809868
3.14319e+06
2.26507e+06
898488
435611
285318
381205
1.74759e+06
3.19566e+06
768480
389285
492458
976959
2.33095e+06
1.80342e+06
397296
315891
428746
807340
3.21738e+06
2.39798e+06
1.04173e+06
540323
344008
412779
1.88752e+06
3.36678e+06
859568
462118
591398
1.14405e+06
2.59082e+06
2.07269e+06
470292
363125
498156
991751
3.78648e+06
3.08602e+06
1.35715e+06
659904
372309
388098
2.70113e+06
2.13406e+06
940642
508027
315156
384895
1.76285e+06
3.09614e+06
812197
429797
552127
1.05173e+06
2.40368e+06
1.92249e+06
381745
327085
445100
850544
3.29991e+06
2.538e+06
1.11453e+06
579693
337886
428219
2.07126e+06
3.67765e+06
959431
474882
643114
1.34508e+06
3.08717e+06
2.77701e+06
403586
348830
499828
968824
2.25169e+06
1.92069e+06
397412
289403
436655
890126
3.49271e+06
2.95584e+06
1.27466e+06
594832
303332
365157
2.63115e+06
2.07222e+06
877483
441288
245759
315672
1.7634e+06
3.05513e+06
728043
367266
484334
1.01464e+06
2.42948e+06
2.02331e+06
335595
260586
401537
828163
3.67737e+06
3.12666e+06
1.2609e+06
573143
279867
410178
2.93007e+06
2.53408e+06
996138
464164
233205
347012
2.35813e+06
1.9159e+06
777917
369369
204112
267363
1.68789e+06
3.11892e+06
650100
326315
463226
1.02385e+06
2.63844e+06
2.45724e+06
362160
229180
368210
796088
1.9912e+06
1.74775e+06
277185
203882
325460
637867
3.32278e+06
2.79809e+06
1.05419e+06
471067
237508
393423
2.6742e+06
2.36005e+06
873065
403068
197603
351654
2.28591e+06
1.82294e+06
697700
314018
173531
288783
1.63121e+06
3.07127e+06
536007
269544
390707
852549
2.67572e+06
2.55283e+06
410563
203983
328042
697652
2.24007e+06
2.18549e+06
392353
199105
267429
555777
1.77682e+06
1.65853e+06
354528
178902
259988
564762
3.2368e+06
2.73609e+06
652190
289377
240166
504986
2.61316e+06
2.30992e+06
511848
238035
224074
458507
2.17461e+06
1.83951e+06
399928
198015
191131
368603
1.56622e+06
3.21766e+06
602956
273690
234530
521184
2.79662e+06
2.56077e+06
562653
268713
211289
451599
2.40624e+06
2.22393e+06
565849
273692
194945
406859
2.23341e+06
2.02288e+06
586736
284849
186448
363837
1.84799e+06
1.5692e+06
412615
202476
380455
868678
3.21234e+06
2.93003e+06
437154
207658
398620
837161
2.6162e+06
2.53684e+06
390256
214423
385938
837868
2.39495e+06
2.42966e+06
361299
215402
381246
838404
2.28298e+06
2.2542e+06
342389
219544
362931
791103
2.07272e+06
1.85423e+06
364503
207649
223752
434656
1.58871e+06
3.18016e+06
1.12517e+06
483801
274436
393701
2.90825e+06
2.63923e+06
1.01179e+06
459125
261977
367620
2.48681e+06
2.37308e+06
948084
438997
257798
362054
2.36511e+06
2.27754e+06
925648
433619
257401
351583
2.20592e+06
2.10291e+06
896927
425965
239707
406882
1.88283e+06
1.65009e+06
497399
261342
569337
1.28964e+06
3.28987e+06
2.91274e+06
390969
328660
530673
1.09679e+06
2.72795e+06
2.61272e+06
403892
308466
513290
1.06977e+06
2.57079e+06
2.47837e+06
410677
307185
499723
1.01991e+06
2.39588e+06
2.27874e+06
391720
301401
484538
977314
2.21074e+06
1.93838e+06
458700
277159
298027
546649
1.71306e+06
3.37181e+06
1.41529e+06
635712
392181
409872
2.99983e+06
2.85738e+06
1.14908e+06
602418
351889
440114
2.64607e+06
2.60903e+06
1.10897e+06
564927
341052
435172
2.47277e+06
2.46448e+06
1.07184e+06
549144
335005
426324
2.31056e+06
2.2783e+06
1.02905e+06
532652
310146
502970
1.98498e+06
1.79761e+06
610276
336607
709060
1.54058e+06
3.58447e+06
3.11232e+06
471175
443262
679588
1.26579e+06
3.02857e+06
2.74092e+06
498527
400908
630511
1.20693e+06
2.70072e+06
2.56882e+06
490057
388006
617046
1.1848e+06
2.61128e+06
2.41889e+06
487817
380659
594163
1.12348e+06
2.37711e+06
2.05923e+06
560997
347565
372107
650822
1.85791e+06
3.62747e+06
1.62089e+06
772744
478241
530498
3.18168e+06
3.09039e+06
1.36319e+06
736028
435833
566222
2.80215e+06
2.80753e+06
1.30131e+06
691814
424072
554275
2.57065e+06
2.60016e+06
1.23877e+06
668622
414000
537925
2.42535e+06
2.41229e+06
1.17572e+06
638686
377086
599920
2.06014e+06
1.89586e+06
707308
406298
827345
1.6832e+06
3.7182e+06
3.2438e+06
592225
509050
779425
1.42768e+06
3.22082e+06
2.81947e+06
604038
471840
734931
1.35693e+06
2.83615e+06
2.60671e+06
603485
457416
702838
1.26944e+06
2.57137e+06
2.19046e+06
656121
414571
441876
749305
2.00665e+06
3.78006e+06
1.75043e+06
874966
535390
635515
3.28527e+06
3.2355e+06
1.45525e+06
811107
493068
628198
2.79799e+06
2.83674e+06
1.36392e+06
760166
474798
620418
2.59493e+06
2.59715e+06
1.30008e+06
725276
430563
677678
2.14992e+06
1.98715e+06
789159
461546
913425
1.7939e+06
3.82386e+06
3.2766e+06
664739
564432
846884
1.50069e+06
3.2478e+06
2.84785e+06
652638
518342
791419
1.40218e+06
2.83004e+06
2.29874e+06
732787
469325
496134
834885
2.10145e+06
3.99678e+06
1.89834e+06
973638
596278
708564
3.41492e+06
3.38073e+06
1.56172e+06
894110
544779
687356
2.90312e+06
2.86413e+06
1.43094e+06
822009
488160
759175
2.37194e+06
2.19198e+06
870950
519285
1.01045e+06
1.9586e+06
4.13305e+06
3.47008e+06
741725
623472
930121
1.61456e+06
3.44419e+06
2.98153e+06
714116
570680
858950
1.48497e+06
2.97363e+06
2.40943e+06
792043
510047
537761
888657
2.17861e+06
4.00293e+06
1.95049e+06
1.02362e+06
625591
777478
3.3567e+06
3.24164e+06
1.5724e+06
920780
540193
809692
2.57215e+06
2.35228e+06
903538
561799
1.08917e+06
2.11574e+06
4.37639e+06
3.56138e+06
825637
657520
974910
1.66159e+06
3.4069e+06
2.63162e+06
836165
564992
586563
932909
2.37224e+06
4.35873e+06
2.07671e+06
1.09898e+06
670404
807960
3.58591e+06
3.4625e+06
1.68795e+06
997931
577221
874968
2.68426e+06
2.4281e+06
973215
598992
1.12811e+06
2.1382e+06
4.41229e+06
3.53751e+06
845809
683104
999185
1.65749e+06
3.41465e+06
2.61806e+06
861960
573984
589948
933615
2.30935e+06
3.88589e+06
1.93501e+06
1.05227e+06
607364
883713
2.93555e+06
2.55656e+06
939441
616302
1.11024e+06
2.07622e+06
4.3406e+06
3.15547e+06
927783
627453
631814
987965
2.6863e+06
4.45009e+06
2.13455e+06
1.14561e+06
645443
960071
3.24382e+06
2.80978e+06
990658
649861
1.20599e+06
2.27534e+06
4.70655e+06
3.359e+06
996379
667892
670663
1.05126e+06
2.85574e+06
4.65777e+06
2.2453e+06
1.21069e+06
672533
989592
3.36315e+06
2.89661e+06
1.04731e+06
674511
1.23102e+06
2.29104e+06
4.66512e+06
3.2442e+06
1.00928e+06
671459
668789
1.02783e+06
2.77824e+06
4.46661e+06
2.17121e+06
1.18089e+06
645193
959972
3.01096e+06
2.43228e+06
1.0187e+06
650896
676485
1.08132e+06
3.26926e+06
5.09197e+06
2.43911e+06
1.25341e+06
661594
1.01769e+06
3.26952e+06
2.57948e+06
1.03767e+06
658066
652044
1.09298e+06
3.07555e+06
3.57124e+06
1.34155e+06
693553
654583
1.25417e+06
3.92431e+06
4.25662e+06
1.56139e+06
713393
660536
1.38327e+06
4.72054e+06
6.16378e+06
3.08418e+06
1.43658e+06
685703
1.14101e+06
3.41443e+06
2.50189e+06
1.13653e+06
673413
664922
1.13984e+06
2.59568e+06
2.61323e+06
1.13498e+06
647466
629197
1.12546e+06
2.59095e+06
2.5558e+06
1.10823e+06
611192
595709
1.0965e+06
2.50499e+06
2.43667e+06
1.08034e+06
581662
570019
1.06835e+06
2.37001e+06
2.30217e+06
1.05734e+06
560395
552622
1.04756e+06
2.23518e+06
2.17057e+06
1.03887e+06
546492
542052
1.03127e+06
2.10975e+06
2.05266e+06
1.02414e+06
538675
536591
1.01766e+06
2.0005e+06
1.95144e+06
1.01091e+06
534889
534040
1.0044e+06
1.90756e+06
1.86548e+06
997228
533134
532736
990068
1.82944e+06
1.80135e+06
982944
532443
532421
976142
1.77848e+06
1.75914e+06
969205
532450
532603
962448
1.74235e+06
1.72745e+06
955307
532585
532877
948381
1.71409e+06
1.702e+06
940710
532761
532717
933098
1.69105e+06
1.6811e+06
924796
532467
532366
916602
1.67206e+06
1.66385e+06
907558
531575
531020
898622
1.65644e+06
1.64973e+06
888996
529883
528981
879606
1.6437e+06
1.63827e+06
869450
527315
525886
859604
1.63342e+06
1.62906e+06
849202
523795
521896
839265
1.62518e+06
1.62169e+06
828730
519287
516896
818753
1.61859e+06
1.61579e+06
808390
513902
511131
798720
1.61323e+06
1.61098e+06
788605
507747
504626
779244
1.60884e+06
1.60698e+06
769610
500990
497635
760830
1.60511e+06
1.60349e+06
751680
493759
490205
743413
1.6018e+06
1.60034e+06
734905
486213
482555
727340
1.59875e+06
1.59739e+06
719416
478459
474728
712423
1.59588e+06
1.59459e+06
705168
470624
466898
698891
1.59311e+06
1.59186e+06
692212
462788
459075
686445
1.59044e+06
1.58923e+06
680378
455016
451385
675226
1.58788e+06
1.58669e+06
669683
447387
443820
664976
1.58541e+06
1.5843e+06
659914
439911
436451
655696
1.58311e+06
1.58208e+06
651085
432644
429262
647157
1.58094e+06
1.58008e+06
642972
425573
422314
639378
1.57901e+06
1.57836e+06
635588
418739
415585
632249
1.57745e+06
1.57694e+06
628750
412142
409131
625704
1.57613e+06
1.5757e+06
622428
405813
402898
619580
1.57505e+06
1.57469e+06
616475
399717
396930
613855
1.57415e+06
1.57387e+06
610892
393849
391152
608366
1.57349e+06
1.57328e+06
605575
388192
385622
603242
1.57301e+06
1.57288e+06
600595
382762
380289
598363
1.57269e+06
1.57263e+06
595917
377578
375225
593916
1.57248e+06
1.57247e+06
591675
372670
370432
589817
1.57236e+06
1.57239e+06
587758
368049
365962
586107
1.57228e+06
1.57231e+06
584207
363735
361766
582659
1.57222e+06
1.57227e+06
580930
359709
357879
579552
1.57218e+06
1.57225e+06
577971
355970
354255
576703
1.57219e+06
1.5723e+06
575261
352491
350899
574139
1.57226e+06
1.57241e+06
572827
349265
347777
571802
1.57241e+06
1.57261e+06
570611
346268
344887
569710
1.57265e+06
1.5729e+06
568628
343489
342196
567804
1.57298e+06
1.5733e+06
566822
340903
339703
566107
1.57341e+06
1.57377e+06
565214
338501
337377
564563
1.57394e+06
1.57434e+06
563750
336261
335215
563189
1.57455e+06
1.57498e+06
562448
334174
333189
561937
1.57525e+06
1.57571e+06
561261
332219
331298
560829
1.57601e+06
1.57649e+06
560213
330392
329522
559825
1.57684e+06
1.57734e+06
559257
328670
327860
558936
1.57771e+06
1.57823e+06
558417
327058
326276
558123
1.57863e+06
1.57917e+06
557651
325522
324792
557416
1.57958e+06
1.58013e+06
556988
324073
323366
556772
1.58057e+06
1.58112e+06
556389
322696
322026
556219
1.58157e+06
1.58212e+06
555878
321394
320752
555726
1.58259e+06
1.58315e+06
555426
320156
319545
555303
1.58361e+06
1.58417e+06
555050
318985
318401
554944
1.58464e+06
1.58519e+06
554725
317869
317323
554644
1.58566e+06
1.58621e+06
554468
316818
316284
554400
1.58667e+06
1.58721e+06
554255
315816
315318
554211
1.58767e+06
1.5882e+06
554105
314875
314384
554073
1.58866e+06
1.58918e+06
553994
313980
313511
553981
1.58963e+06
1.59014e+06
553937
313133
312685
553935
1.59059e+06
1.59109e+06
553919
312328
311905
553938
1.59154e+06
1.59202e+06
553943
311570
311171
553975
1.59246e+06
1.59294e+06
553996
310850
310487
554062
1.59337e+06
1.59384e+06
554095
310179
309825
554178
1.59426e+06
1.59471e+06
554226
309541
309222
554337
1.59512e+06
1.59557e+06
554396
308948
308636
554521
1.59597e+06
1.59641e+06
554592
308384
308103
554744
1.5968e+06
1.59722e+06
554824
307867
307598
554987
1.59761e+06
1.59803e+06
555075
307365
307133
555257
1.59841e+06
1.59882e+06
555351
306890
306706
555546
1.59919e+06
1.5996e+06
555643
306424
306265
555852
1.59996e+06
1.60037e+06
555959
306056
305848
556170
1.60073e+06
1.60114e+06
556283
305675
305478
556513
1.6015e+06
1.60191e+06
556633
305307
305131
556865
1.60226e+06
1.60267e+06
556986
304949
304811
557237
1.60302e+06
1.60343e+06
557365
304630
304476
557615
1.60378e+06
1.60418e+06
557750
304345
304187
558019
1.60452e+06
1.60491e+06
558166
304067
303919
558437
1.60525e+06
1.60564e+06
558583
303804
303674
558876
1.60596e+06
1.60634e+06
559026
303568
303447
559358
1.60666e+06
1.60703e+06
559404
303347
303233
559879
1.60734e+06
1.6077e+06
559993
303131
303059
560312
1.608e+06
1.60835e+06
560341
302936
302906
560686
1.60863e+06
1.60898e+06
560857
302771
302719
561176
1.60927e+06
1.60961e+06
561339
302601
302588
561668
1.60989e+06
1.61023e+06
561833
302461
302421
562148
1.61051e+06
1.61085e+06
562311
302324
302319
562640
1.61111e+06
1.61145e+06
562806
302200
302169
563122
1.61171e+06
1.61204e+06
563286
302091
302090
563618
1.6123e+06
1.61262e+06
563785
301985
301961
564104
1.61288e+06
1.6132e+06
564270
301895
301900
564604
1.61345e+06
1.61376e+06
564773
301811
301792
565095
1.61401e+06
1.61432e+06
565261
301737
301748
565597
1.61455e+06
1.61486e+06
565768
301674
301659
566090
1.61509e+06
1.61539e+06
566257
301614
301631
566594
1.61562e+06
1.61591e+06
566765
301570
301560
567088
1.61614e+06
1.61643e+06
567257
301529
301540
567591
1.61664e+06
1.61692e+06
567764
301509
301517
568090
1.61714e+06
1.61742e+06
568255
301463
301491
568588
1.61763e+06
1.61789e+06
568761
301459
301458
569081
1.6181e+06
1.61836e+06
569253
301446
301466
569582
1.61856e+06
1.61882e+06
569756
301462
301476
570078
1.61901e+06
1.61927e+06
570244
301443
301475
570569
1.61945e+06
1.6197e+06
570746
301477
301486
571059
1.61988e+06
1.62012e+06
571229
301492
301510
571551
1.6203e+06
1.62053e+06
571720
301519
301558
572039
1.62071e+06
1.62094e+06
572199
301521
301592
572525
1.6211e+06
1.62132e+06
572687
301573
301620
573001
1.62148e+06
1.6217e+06
573161
301615
301683
573484
1.62185e+06
1.62206e+06
573645
301678
301719
573951
1.62221e+06
1.62241e+06
574113
301739
301784
574425
1.62256e+06
1.62275e+06
574586
301805
301860
574891
1.62289e+06
1.62308e+06
575045
301852
301953
575358
1.62322e+06
1.62339e+06
575508
301931
302020
575808
1.62353e+06
1.6237e+06
575961
302039
302089
576262
1.62383e+06
1.62398e+06
576415
302118
302177
576706
1.62411e+06
1.62427e+06
576854
302208
302273
577151
1.62439e+06
1.62453e+06
577296
302306
302391
577587
1.62465e+06
1.62479e+06
577727
302373
302492
578018
1.6249e+06
1.62503e+06
578159
302517
302598
578441
1.62514e+06
1.62527e+06
578577
302585
302710
578861
1.62538e+06
1.62549e+06
578994
302710
302816
579265
1.6256e+06
1.62571e+06
579399
302822
302948
579677
1.62582e+06
1.62592e+06
579806
302948
303057
580068
1.62603e+06
1.62612e+06
580196
303063
303194
580465
1.62623e+06
1.62632e+06
580587
303194
303306
580839
1.62642e+06
1.62651e+06
580961
303312
303445
581220
1.62661e+06
1.6267e+06
581337
303446
303561
581579
1.6268e+06
1.62689e+06
581694
303564
303702
581942
1.62698e+06
1.62707e+06
582053
303701
303820
582282
1.62716e+06
1.62725e+06
582391
303822
303963
582639
1.62734e+06
1.62743e+06
582740
303962
304083
582965
1.62752e+06
1.6276e+06
583064
304081
304227
583305
1.6277e+06
1.62778e+06
583396
304223
304343
583612
1.62787e+06
1.62795e+06
583703
304342
304481
583932
1.62805e+06
1.62813e+06
584021
304490
304577
584231
1.62824e+06
1.62831e+06
584321
304619
304707
584543
1.62842e+06
1.6285e+06
584633
304748
304845
584840
1.62861e+06
1.62869e+06
584923
304837
304989
585140
1.6288e+06
1.62888e+06
585221
304964
305103
585422
1.62899e+06
1.62908e+06
585501
305084
305215
585710
1.6292e+06
1.62928e+06
585794
305242
305329
585990
1.6294e+06
1.62949e+06
586067
305310
305443
586274
1.62962e+06
1.62971e+06
586353
305453
305532
586543
1.62984e+06
1.62993e+06
586622
305570
305651
586824
1.63007e+06
1.63017e+06
586904
305690
305763
587092
1.6303e+06
1.63041e+06
587169
305800
305877
587365
1.63056e+06
1.63067e+06
587443
305914
305985
587625
1.63081e+06
1.63093e+06
587699
306020
306094
587890
1.63108e+06
1.6312e+06
587965
306129
306196
588140
1.63136e+06
1.63149e+06
588211
306229
306300
588396
1.63165e+06
1.63178e+06
588467
306332
306395
588636
1.63195e+06
1.63209e+06
588703
306426
306493
588880
1.63226e+06
1.63241e+06
588946
306522
306584
589107
1.63259e+06
1.63274e+06
589169
306608
306670
589339
1.63293e+06
1.63309e+06
589402
306697
306754
589556
1.63329e+06
1.63346e+06
589614
306776
306832
589777
1.63366e+06
1.63384e+06
589836
306857
306906
589984
1.63405e+06
1.63424e+06
590039
306929
306980
590195
1.63446e+06
1.63465e+06
590251
307001
307045
590392
1.63488e+06
1.63508e+06
590444
307065
307111
590596
1.63533e+06
1.63554e+06
590649
307129
307168
590786
1.63578e+06
1.636e+06
590836
307185
307226
590984
1.63627e+06
1.63649e+06
591035
307242
307282
591170
1.63676e+06
1.63699e+06
591218
307268
307350
591368
1.63727e+06
1.63751e+06
591413
307330
307372
591542
1.63779e+06
1.63804e+06
591589
307357
307432
591737
1.63833e+06
1.63859e+06
591781
307411
307445
591907
1.63889e+06
1.63915e+06
591953
307428
307497
592098
1.63946e+06
1.63973e+06
592140
307473
307498
592263
1.64004e+06
1.64032e+06
592306
307480
307540
592448
1.64064e+06
1.64093e+06
592489
307515
307530
592609
1.64125e+06
1.64155e+06
592651
307531
307540
592785
1.64188e+06
1.64218e+06
592827
307537
307539
592943
1.64251e+06
1.64283e+06
592983
307524
307550
593114
1.64317e+06
1.64349e+06
593156
307538
307525
593281
1.64383e+06
1.64416e+06
593207
307524
307481
593582
1.64451e+06
1.64484e+06
593445
307489
307512
593584
1.64518e+06
1.64553e+06
593627
307415
307464
593750
1.64587e+06
1.64621e+06
593793
307394
307385
593901
1.64656e+06
1.64691e+06
593947
307329
307376
594074
1.64725e+06
1.64759e+06
594118
307291
307277
594227
1.64793e+06
1.64827e+06
594278
307215
307257
594412
1.6486e+06
1.64894e+06
594464
307170
307158
594588
1.64925e+06
1.64958e+06
594650
307104
307142
594817
1.64987e+06
1.65017e+06
594882
307077
307073
595045
1.65044e+06
1.65072e+06
595126
307055
307060
595331
1.65096e+06
1.65121e+06
595426
307059
307066
595636
1.65142e+06
1.65162e+06
595734
307073
307094
595966
1.6518e+06
1.65196e+06
596062
307118
307119
596273
1.65212e+06
1.65222e+06
596352
307165
307164
596534
1.65238e+06
1.65414e+06
596576
307176
307098
596048
1.65092e+06
1.65666e+06
597976
307517
307609
598519
1.65417e+06
1.65906e+06
599261
308230
302688
589863
1.61838e+06
1.56202e+06
570465
292002
278310
545601
1.49159e+06
132075
64270.7
38050.8
28888.5
24376.2
19884.3
18840.7
18746.3
17994.9
16809.8
14877.8
13458.2
12011.8
10521.4
9024.74
7649.61
6443.34
5398.81
4476.16
3675.38
3024.46
2531.16
2181.38
1954.44
1830.96
1796.95
1840.44
1949.98
2087.07
2234.93
2390.18
2544.58
2690.52
2823.12
2941.06
3045.86
3140.33
3227.08
3308.18
3381.01
3441.19
3489.24
3526.13
3553.2
3571.79
3583.27
3588.98
3590.2
3588.06
3583.56
3577.63
3571.1
3564.76
3559.42
3555.27
3552.82
3551.51
3545.03
3538.85
3531.95
3524.53
3516.73
3508.65
3500.44
3492.09
3483.63
3475.04
3466.33
3457.47
3448.48
3439.37
3430.14
3420.81
3411.39
3401.89
3392.32
3382.7
3373.04
3363.35
3353.66
3343.97
3334.3
3324.68
3315.11
3305.61
3296.2
3286.91
3277.74
3268.72
3259.86
3251.17
3242.69
3234.42
3226.38
3218.59
3211.06
3203.81
3196.84
3190.17
3183.81
3177.77
3172.06
3166.69
3161.65
3156.96
3152.61
3148.59
3144.92
3141.58
3138.55
3135.84
3133.43
3131.3
3129.43
3127.79
3126.37
3125.12
3124.01
3123
3122.05
3121.1
3120.09
3118.97
3117.65
3116.06
3114.11
3111.7
3108.72
3105.05
3100.55
3095.09
3088.5
3080.62
3071.26
3060.23
3047.32
3032.32
3015
2995.14
2972.5
2946.86
2918
2885.73
2849.87
2810.27
2766.82
2719.48
2668.23
2613.15
2554.33
2491.33
2423.55
2351.84
2277.41
2200.39
2120.96
2039.46
1956.13
1871.1
1784.52
1696.6
1607.75
1518.85
1431
1345.49
1263.6
1186.37
1114.59
1048.61
988.386
933.558
883.413
837.029
793.399
751.424
710.021
668.165
624.941
579.617
531.656
480.84
429.271
381.596
340.347
304.923
273.58
245.106
219.161
195.745
174.754
155.961
139.114
124.015
110.49
98.3864
87.566
77.8996
69.2688
61.5677
54.699
48.5765
43.1218
38.2646
33.9413
30.0948
26.674
23.6328
20.9301
18.5291
16.3968
14.5038
12.8239
11.3335
10.0118
8.84015
7.80188
6.88219
6.06791
5.34727
4.7098
4.14619
3.64812
3.2082
2.81986
2.47724
2.17512
1.90888
1.67436
1.46794
1.28634
1.12668
0.986377
0.863165
0.755026
0.660167
0.577016
0.504169
0.440389
0.384581
0.335786
0.293149
0.255922
0.223441
0.195122
0.170455
0.148985
0.130314
0.11409
0.100007
0.0877909
0.0772044
0.0680378
0.0601073
0.0532518
0.0473304
0.0422198
0.0378117
0.0340131
0.0307416
0.0279259
0.025504
0.023422
0.0216329
0.0200965
0.0187773
0.0176451
0.0166734
0.0158396
0.0151242
0.0145103
0.0139835
0.0135314
0.0131435
0.0128109
0.0125257
0.0122815
0.0120726
0.0118942
0.0117423
0.0116135
0.0115046
0.0114132
0.011337
0.011274
0.0112224
0.0111808
0.0111475
0.0111214
0.0111011
0.0110856
0.0110739
0.0110654
0.0110591
0.0110551
0.0110531
0.0110528
0.0110526
0.0110522
0.0110513
0.0110499
0.0110478
0.0110448
0.0110406
0.0110351
0.0110285
0.0110208
0.0110123
0.0110032
0.0109937
0.010984
0.0109741
0.010964
0.0109537
0.0109432
0.0109324
0.0109212
0.0109097