/*--------------------------------*- C++ -*----------------------------------*\
| =========                 |                                                 |
| \\      /  F ield         | OpenFOAM: The Open Source CFD Toolbox           |
|  \\    /   O peration     | Version:  v2006                                 |
|   \\  /    A nd           | Website:  www.openfoam.com                      |
|    \\/     M anipulation  |                                                 |
\*---------------------------------------------------------------------------*/
FoamFile
{
    version     2.0;
    format      ascii;
    class       surfaceScalarField;
    location    "0.014";
    object      phi;
}
// * * * * * * * * * * * * * * * * * * * * * * * * * * * * * * * * * * * * * //

dimensions      [1 0 -1 0 0 0 0];
oriented        oriented;


internalField   nonuniform List<scalar> 
62768
(
-1.195e-05
-0.00081413
0.000804971
2.12272e-05
-0.000763741
0.000751906
1.86081e-06
4.44455e-05
-1.41934e-05
0.000865836
1.48032e-05
0.000942743
-3.36454e-05
0.000948879
-5.27885e-06
0.000964502
-1.52076e-05
0.000946413
-6.77141e-07
0.000941323
-2.16828e-06
0.000930871
7.77246e-07
0.000926773
1.12323e-08
0.000923396
1.92896e-07
0.000922222
8.35453e-08
0.000921384
5.66737e-08
0.000920965
2.74573e-08
0.000920729
3.69208e-09
0.0009206
-9.305e-09
0.000920569
-1.09876e-08
0.000920593
-4.10493e-09
0.000920627
7.7259e-09
0.000920633
2.18579e-08
0.00092059
3.66437e-08
0.00092049
5.1248e-08
0.000920335
6.53348e-08
0.000920126
7.87046e-08
0.000919865
9.09775e-08
0.000919551
1.01434e-07
0.000919184
1.09096e-07
0.000918765
1.12992e-07
0.000918296
1.12398e-07
0.000917779
1.06873e-07
0.000917216
9.61841e-08
0.00091661
8.02468e-08
0.000915961
5.91193e-08
0.000915268
3.27626e-08
0.000914529
2.84341e-09
0.000913741
-2.95309e-08
0.000912913
-6.38313e-08
0.00091204
-9.94827e-08
0.000911122
-1.36091e-07
0.000910159
-1.73672e-07
0.000909152
-2.11804e-07
0.000908102
-2.49953e-07
0.00090701
-2.87649e-07
0.000905876
-3.24506e-07
0.000904702
-3.60207e-07
0.000903489
-3.94488e-07
0.000902239
-4.27138e-07
0.000900953
-4.57995e-07
0.000899633
-4.86932e-07
0.000898281
-5.13864e-07
0.000896898
-5.38668e-07
0.000895487
-5.61497e-07
0.000894051
-5.82492e-07
0.00089259
-6.0161e-07
0.000891107
-6.18857e-07
0.000889603
-6.34193e-07
0.00088808
-6.47769e-07
0.00088654
-6.5958e-07
0.000884985
-6.69602e-07
0.000883417
-6.77812e-07
0.000881839
-6.84207e-07
0.000880254
-6.88802e-07
0.000878664
-6.91633e-07
0.000877073
-6.92757e-07
0.000875483
-6.92249e-07
0.000873897
-6.90199e-07
0.000872318
-6.86702e-07
0.000870748
-6.81859e-07
0.00086919
-6.75762e-07
0.000867647
-6.68494e-07
0.000866119
-6.6013e-07
0.000864609
-6.50738e-07
0.000863118
-6.40376e-07
0.00086165
-6.29099e-07
0.000860204
-6.16958e-07
0.000858782
-6.03963e-07
0.000857386
-5.90066e-07
0.000856015
-5.75119e-07
0.000854668
-5.58804e-07
0.000853345
-5.40578e-07
0.000852042
-5.19624e-07
0.000850756
-4.9479e-07
0.000849486
-4.64625e-07
0.00084823
-4.27553e-07
0.000846993
-3.82374e-07
0.000845788
-3.29247e-07
0.00084465
-2.709e-07
0.000843636
-1.2828e-07
0.000842574
-7.81467e-08
0.000841623
-1.24586e-07
0.000840039
-1.61457e-06
0.000836827
-2.69316e-06
0.000830787
-1.25366e-05
0.000818625
-1.90157e-05
0.000802235
-5.35529e-05
0.000776363
-8.80063e-05
0.000758765
-0.000205741
0.000759925
-0.000459649
0.000883984
-0.000137004
0.000220109
2.28213e-05
0.000385073
-1.12851e-05
0.000485235
-6.07831e-06
0.000460609
-2.87338e-05
0.000387484
-3.86106e-06
0.000353852
-2.38352e-06
0.000128873
-1.77835e-06
0.000106773
8.65108e-05
4.21298e-06
8.23e-05
6.93941e-06
0.000104049
0.000124836
1.09789e-05
-4.61967e-06
0.000124025
5.43437e-06
-1.95346e-06
0.000101386
8.03487e-05
1.24575e-06
7.91053e-05
6.49384e-07
0.000101985
0.00012324
1.43767e-06
-5.74462e-07
0.000124023
-2.05358e-07
-1.09801e-06
0.000102511
7.80096e-05
2.63881e-07
7.7748e-05
1.39106e-06
0.000101386
0.000123955
1.4617e-06
-1.27225e-06
0.000123839
1.39164e-06
-9.1642e-07
0.000101033
7.68338e-05
8.40673e-07
7.59952e-05
1.196e-06
0.00010068
0.000123713
1.3245e-06
-1.08757e-06
0.000123554
1.24929e-06
-1.53444e-06
0.000101129
7.44626e-05
7.22155e-07
7.37422e-05
1.03787e-06
0.000100815
0.000123395
1.199e-06
-9.90366e-07
0.000122393
1.99459e-06
-6.67325e-07
0.000100494
7.30765e-05
6.13528e-07
7.24644e-05
9.32577e-07
0.000100177
0.000123041
2.85714e-07
-8.91658e-07
0.000122023
1.9113e-06
-5.72083e-07
9.98587e-05
7.18936e-05
5.31491e-07
7.13632e-05
8.43459e-07
9.95479e-05
0.000122655
2.13663e-07
-8.11804e-07
0.000121627
1.84064e-06
-5.01087e-07
9.92383e-05
7.0863e-05
4.69343e-07
7.03944e-05
7.71455e-07
9.8937e-05
0.000122246
1.53248e-07
-7.47301e-07
0.000121214
1.78027e-06
-4.46757e-07
9.8637e-05
6.99482e-05
4.21471e-07
6.95271e-05
7.13273e-07
9.83456e-05
0.000121825
1.02734e-07
-6.95419e-07
0.000120791
1.72932e-06
-4.04855e-07
9.80552e-05
6.91224e-05
3.8438e-07
6.8738e-05
6.66432e-07
9.7773e-05
0.000121396
6.11337e-08
-6.5384e-07
0.000120362
1.68686e-06
-3.72279e-07
9.74911e-05
6.83655e-05
3.55362e-07
6.80097e-05
6.28735e-07
9.72172e-05
0.000120963
2.74184e-08
-6.20551e-07
0.00011993
1.65199e-06
-3.46729e-07
9.69425e-05
6.76624e-05
3.32125e-07
6.73295e-05
5.97845e-07
9.66758e-05
0.000120527
-3.43797e-10
-5.93374e-07
0.000119497
1.6225e-06
-3.26174e-07
9.64073e-05
6.70023e-05
3.13762e-07
6.66873e-05
5.73616e-07
9.61459e-05
0.000120089
-2.0711e-08
-5.7083e-07
0.00011906
1.59758e-06
-3.09221e-07
9.58826e-05
6.63767e-05
2.98213e-07
6.6077e-05
5.53032e-07
9.56258e-05
0.000119648
-3.75481e-08
-5.52087e-07
0.000118621
1.57696e-06
-2.94935e-07
9.53665e-05
6.57803e-05
2.8479e-07
6.54936e-05
5.35437e-07
9.51135e-05
0.000119205
-5.11401e-08
-5.35823e-07
0.000118178
1.55909e-06
-2.8236e-07
9.48574e-05
6.52091e-05
2.72815e-07
6.4934e-05
5.20031e-07
9.46073e-05
0.000118757
-6.21659e-08
-5.21651e-07
0.000117731
1.54374e-06
-2.71143e-07
9.43538e-05
6.46603e-05
2.62092e-07
6.43955e-05
5.06527e-07
9.4106e-05
0.000118305
-7.08866e-08
-5.09458e-07
0.000117279
1.53078e-06
-2.61219e-07
9.38543e-05
6.41314e-05
2.52692e-07
6.38756e-05
4.95e-07
9.36082e-05
0.000117847
-7.72322e-08
-4.99261e-07
0.000116821
1.52009e-06
-2.52657e-07
9.33576e-05
6.36196e-05
2.44793e-07
6.33712e-05
4.85684e-07
9.31125e-05
0.000117383
-8.09492e-08
-4.91484e-07
0.000116357
1.51221e-06
-2.45722e-07
9.28622e-05
6.31218e-05
2.38649e-07
6.28792e-05
4.79038e-07
9.26171e-05
0.000116911
-8.14491e-08
-4.86758e-07
0.000115884
1.50798e-06
-2.40726e-07
9.23661e-05
6.26343e-05
2.3469e-07
6.23953e-05
4.75891e-07
9.21197e-05
0.000116432
-7.76536e-08
-4.86092e-07
0.000115403
1.50861e-06
-2.38248e-07
9.18665e-05
6.21525e-05
2.3372e-07
6.19141e-05
4.77654e-07
9.16169e-05
0.000115942
-6.78039e-08
-4.91493e-07
0.000114909
1.51663e-06
-2.39364e-07
9.13589e-05
6.16698e-05
2.37606e-07
6.14271e-05
4.87243e-07
9.11031e-05
0.000115438
-4.87537e-08
-5.08035e-07
0.000114402
1.53638e-06
-2.48506e-07
9.08373e-05
6.11734e-05
2.52978e-07
6.09149e-05
5.10353e-07
9.05734e-05
0.000114922
-1.67595e-08
-5.34667e-07
0.000113884
1.56487e-06
-2.67057e-07
9.02989e-05
6.06422e-05
2.68504e-07
6.03678e-05
5.34058e-07
9.00263e-05
0.000114393
1.64593e-08
-5.53536e-07
0.00011335
1.58727e-06
-2.77783e-07
8.97433e-05
6.00839e-05
2.75014e-07
5.98026e-05
5.48111e-07
8.94627e-05
0.000113848
4.17244e-08
-5.64264e-07
0.000112801
1.60248e-06
-2.81434e-07
8.91721e-05
5.95148e-05
2.76712e-07
5.92315e-05
5.56201e-07
8.88847e-05
0.000113286
6.16112e-08
-5.7111e-07
0.000112233
1.61386e-06
-2.82202e-07
8.85877e-05
5.89426e-05
2.7683e-07
5.86589e-05
5.61846e-07
8.82944e-05
0.000112706
7.90413e-08
-5.76611e-07
0.000111649
1.62362e-06
-2.82261e-07
8.79916e-05
5.83696e-05
2.76695e-07
5.80858e-05
5.66789e-07
8.76928e-05
0.00011211
9.57316e-08
-5.8131e-07
0.000111049
1.632e-06
-2.82078e-07
8.73848e-05
5.77965e-05
2.76502e-07
5.75126e-05
5.71343e-07
8.7081e-05
0.000111498
1.11941e-07
-5.85817e-07
0.000110433
1.63991e-06
-2.81928e-07
8.6768e-05
5.72232e-05
2.76553e-07
5.69391e-05
5.76211e-07
8.64592e-05
0.00011087
1.28767e-07
-5.89727e-07
0.000109801
1.64715e-06
-2.81556e-07
8.61417e-05
5.66499e-05
2.768e-07
5.63654e-05
5.81083e-07
8.58281e-05
0.000110226
1.45257e-07
-5.94294e-07
0.000109153
1.65576e-06
-2.81475e-07
8.55059e-05
5.60762e-05
2.77466e-07
5.5791e-05
5.8657e-07
8.51873e-05
0.000109566
1.62526e-07
-6.00152e-07
0.00010849
1.66508e-06
-2.82331e-07
8.48599e-05
5.55008e-05
2.78242e-07
5.52147e-05
5.92588e-07
8.45359e-05
0.000108889
1.81514e-07
-6.07538e-07
0.000107809
1.67645e-06
-2.83918e-07
8.42027e-05
5.49229e-05
2.78861e-07
5.46361e-05
5.97997e-07
8.38739e-05
0.000108195
1.99878e-07
-6.15022e-07
0.000107111
1.68838e-06
-2.85603e-07
8.35349e-05
5.43426e-05
2.80159e-07
5.40546e-05
6.04665e-07
8.32008e-05
0.000107484
2.19781e-07
-6.22819e-07
0.000106395
1.70058e-06
-2.87491e-07
8.28559e-05
5.37592e-05
2.821e-07
5.34693e-05
6.12575e-07
8.25159e-05
0.000106754
2.41621e-07
-6.31837e-07
0.000105661
1.7145e-06
-2.89998e-07
8.21646e-05
5.31714e-05
2.8465e-07
5.2879e-05
6.21665e-07
8.18182e-05
0.000106006
2.65295e-07
-6.41915e-07
0.000104907
1.72979e-06
-2.93045e-07
8.146e-05
5.25782e-05
2.88024e-07
5.22825e-05
6.32324e-07
8.11064e-05
0.000105237
2.91305e-07
-6.53877e-07
0.000104133
1.74713e-06
-2.97531e-07
8.07408e-05
5.19773e-05
2.93784e-07
5.16758e-05
6.45466e-07
8.03799e-05
0.000104447
3.20128e-07
-6.68375e-07
0.000103337
1.7673e-06
-3.04142e-07
8.00066e-05
5.13641e-05
3.00412e-07
5.10561e-05
6.60385e-07
7.96376e-05
0.000103635
3.51617e-07
-6.84282e-07
0.000102519
1.78974e-06
-3.11016e-07
7.92553e-05
5.07376e-05
3.07321e-07
5.04228e-05
6.76807e-07
7.88769e-05
0.0001028
3.85892e-07
-7.01781e-07
0.000101676
1.81472e-06
-3.18263e-07
7.84845e-05
5.00971e-05
3.14693e-07
4.9775e-05
6.94864e-07
7.80955e-05
0.000101938
4.2307e-07
-7.21004e-07
0.000100806
1.84233e-06
-3.26088e-07
7.76918e-05
4.94416e-05
3.22789e-07
4.91115e-05
7.14801e-07
7.72911e-05
0.000101047
4.63369e-07
-7.42237e-07
9.99065e-05
1.87281e-06
-3.3477e-07
7.6875e-05
4.87695e-05
3.31835e-07
4.84305e-05
7.36818e-07
7.64614e-05
0.000100126
5.07013e-07
-7.65622e-07
9.89754e-05
1.90628e-06
-3.44481e-07
7.60317e-05
4.80789e-05
3.41944e-07
4.77299e-05
7.61006e-07
7.56042e-05
9.91723e-05
5.54079e-07
-7.91183e-07
9.80108e-05
1.94274e-06
-3.55271e-07
7.51598e-05
4.73676e-05
3.53126e-07
4.70076e-05
7.8737e-07
7.47172e-05
9.81837e-05
6.04612e-07
-8.19016e-07
9.70105e-05
1.9824e-06
-3.67179e-07
7.4257e-05
4.66335e-05
3.65294e-07
4.62614e-05
8.15727e-07
7.37983e-05
9.7158e-05
6.58369e-07
-8.48427e-07
9.59726e-05
2.02416e-06
-3.79854e-07
7.33216e-05
4.58747e-05
3.78308e-07
4.54897e-05
8.4589e-07
7.28458e-05
9.60935e-05
7.15243e-07
-8.79755e-07
9.48949e-05
2.06874e-06
-3.93414e-07
7.23513e-05
4.50895e-05
3.91991e-07
4.46909e-05
8.7758e-07
7.18577e-05
9.4988e-05
7.74874e-07
-9.12669e-07
9.37755e-05
2.11573e-06
-4.07643e-07
7.13446e-05
4.42766e-05
4.06227e-07
4.38639e-05
9.10636e-07
7.08323e-05
9.38395e-05
8.37126e-07
-9.46438e-07
9.26126e-05
2.164e-06
-4.22147e-07
7.03001e-05
4.34352e-05
4.20756e-07
4.3008e-05
9.44683e-07
6.97684e-05
9.26463e-05
9.01647e-07
-9.81178e-07
9.14044e-05
2.21399e-06
-4.36912e-07
6.92164e-05
4.25648e-05
4.35227e-07
4.21233e-05
9.7911e-07
6.86649e-05
9.14068e-05
9.67611e-07
-1.01611e-06
9.01494e-05
2.26462e-06
-4.51485e-07
6.80928e-05
4.16656e-05
4.49438e-07
4.12101e-05
1.01363e-06
6.75213e-05
9.01195e-05
1.03476e-06
-1.05091e-06
8.88463e-05
2.3155e-06
-4.65676e-07
6.69288e-05
4.07385e-05
4.63125e-07
4.02695e-05
1.04777e-06
6.63371e-05
8.87833e-05
1.10242e-06
-1.08517e-06
8.74942e-05
2.36602e-06
-4.79267e-07
6.57243e-05
3.97845e-05
4.76165e-07
3.93028e-05
1.08127e-06
6.51124e-05
8.73972e-05
1.17025e-06
-1.1188e-06
8.6092e-05
2.41603e-06
-4.92217e-07
6.44792e-05
3.88051e-05
4.88583e-07
3.83112e-05
1.11414e-06
6.38472e-05
8.59602e-05
1.23823e-06
-1.15189e-06
8.4639e-05
2.46562e-06
-5.04627e-07
6.31936e-05
3.78014e-05
5.0056e-07
3.72957e-05
1.1466e-06
6.25413e-05
8.44716e-05
1.30655e-06
-1.18474e-06
8.31342e-05
2.51501e-06
-5.16736e-07
6.18673e-05
3.6774e-05
5.12356e-07
3.62568e-05
1.17893e-06
6.11948e-05
8.29306e-05
1.37543e-06
-1.21759e-06
8.15769e-05
2.56436e-06
-5.28792e-07
6.05002e-05
3.57233e-05
5.24173e-07
3.51945e-05
1.21129e-06
5.98074e-05
8.13365e-05
1.44495e-06
-1.25049e-06
7.99668e-05
2.61362e-06
-5.40926e-07
5.90924e-05
3.46491e-05
5.36045e-07
3.41086e-05
1.24365e-06
5.83794e-05
7.96891e-05
1.51496e-06
-1.28336e-06
7.83036e-05
2.6626e-06
-5.53101e-07
5.7644e-05
3.35513e-05
5.47908e-07
3.29992e-05
1.27595e-06
5.69108e-05
7.79881e-05
1.58536e-06
-1.31631e-06
7.6587e-05
2.71149e-06
-5.65327e-07
5.61549e-05
3.24298e-05
5.59584e-07
3.18663e-05
1.30783e-06
5.54019e-05
7.62336e-05
1.65555e-06
-1.34857e-06
7.48175e-05
2.75905e-06
-5.77217e-07
5.46258e-05
3.12852e-05
5.70982e-07
3.07104e-05
1.33916e-06
5.3853e-05
7.44257e-05
1.72542e-06
-1.37988e-06
7.29953e-05
2.80497e-06
-5.8864e-07
5.30573e-05
3.01181e-05
5.81665e-07
2.95327e-05
1.3691e-06
5.22655e-05
7.25653e-05
1.7938e-06
-1.4096e-06
7.11212e-05
2.84853e-06
-5.99207e-07
5.14508e-05
2.89299e-05
5.91229e-07
2.83351e-05
1.39705e-06
5.06407e-05
7.06532e-05
1.86006e-06
-1.43693e-06
6.91963e-05
2.88881e-06
-6.08374e-07
4.98079e-05
2.77232e-05
5.99138e-07
2.71206e-05
1.42226e-06
4.89806e-05
6.86904e-05
1.92323e-06
-1.4612e-06
6.72219e-05
2.92484e-06
-6.15732e-07
4.8131e-05
2.65013e-05
6.05081e-07
2.58927e-05
1.44397e-06
4.7288e-05
6.66789e-05
1.98218e-06
-1.48134e-06
6.52003e-05
2.95514e-06
-6.20922e-07
4.64234e-05
2.52683e-05
6.08577e-07
2.46562e-05
1.46091e-06
4.55669e-05
6.46211e-05
2.0352e-06
-1.49624e-06
6.31343e-05
2.97824e-06
-6.23405e-07
4.46899e-05
2.40293e-05
6.09347e-07
2.34164e-05
1.47266e-06
4.38224e-05
6.25205e-05
2.0816e-06
-1.50577e-06
6.10272e-05
2.9941e-06
-6.22975e-07
4.29354e-05
2.27898e-05
6.07377e-07
2.21788e-05
1.47933e-06
4.20591e-05
6.03801e-05
2.12145e-06
-1.51047e-06
5.88829e-05
3.00261e-06
-6.20191e-07
4.11645e-05
2.15549e-05
6.02954e-07
2.09483e-05
1.48067e-06
4.02824e-05
5.82048e-05
2.15361e-06
-1.51102e-06
5.67068e-05
3.00389e-06
-6.15635e-07
3.93826e-05
2.0329e-05
5.97064e-07
1.97283e-05
1.47808e-06
3.84971e-05
5.60008e-05
2.17887e-06
-1.50818e-06
5.45056e-05
2.9982e-06
-6.10006e-07
3.75945e-05
1.91147e-05
5.92085e-07
1.8519e-05
1.47378e-06
3.67084e-05
5.37765e-05
2.19771e-06
-1.50493e-06
5.22908e-05
2.98561e-06
-6.07894e-07
3.58071e-05
1.79077e-05
5.902e-07
1.73141e-05
1.4687e-06
3.49244e-05
5.15449e-05
2.20952e-06
-1.49846e-06
5.00743e-05
2.96429e-06
-6.05813e-07
3.40277e-05
1.67051e-05
5.86204e-07
1.61159e-05
1.45834e-06
3.31517e-05
4.93165e-05
2.21143e-06
-1.48532e-06
4.78655e-05
2.93174e-06
-6.01131e-07
3.22639e-05
1.5512e-05
5.80235e-07
1.49292e-05
1.43997e-06
3.14007e-05
4.71007e-05
2.2005e-06
-1.46282e-06
4.56747e-05
2.88478e-06
-5.94259e-07
3.05288e-05
1.43325e-05
5.69038e-07
1.37614e-05
1.41098e-06
2.96839e-05
4.49079e-05
2.17396e-06
-1.42934e-06
4.35112e-05
2.82234e-06
-5.79546e-07
2.88313e-05
1.31799e-05
5.50442e-07
1.26277e-05
1.37188e-06
2.80073e-05
4.27471e-05
2.13253e-06
-1.38682e-06
4.13843e-05
2.74627e-06
-5.58918e-07
2.71769e-05
1.20672e-05
5.27425e-07
1.15384e-05
1.32525e-06
2.63769e-05
4.06275e-05
2.07899e-06
-1.33659e-06
3.93031e-05
2.65795e-06
-5.3416e-07
2.55723e-05
1.1003e-05
5.00104e-07
1.05017e-05
1.27011e-06
2.48003e-05
3.85594e-05
2.01098e-06
-1.27995e-06
3.72774e-05
2.55922e-06
-5.06336e-07
2.40249e-05
9.99433e-06
4.71193e-07
9.52214e-06
1.21077e-06
2.32835e-05
3.65509e-05
1.93453e-06
-1.21883e-06
3.53155e-05
2.45172e-06
-4.77019e-07
2.25401e-05
9.04421e-06
4.41276e-07
8.60206e-06
1.14762e-06
2.18321e-05
3.46114e-05
1.8493e-06
-1.15483e-06
3.34264e-05
2.33757e-06
-4.47263e-07
2.11231e-05
8.15399e-06
4.11455e-07
7.74177e-06
1.08255e-06
2.04506e-05
3.27489e-05
1.75778e-06
-1.08931e-06
3.16175e-05
2.21865e-06
-4.17761e-07
1.97777e-05
7.3233e-06
3.8201e-07
6.94062e-06
1.01637e-06
1.91421e-05
3.09707e-05
1.66129e-06
-1.02254e-06
2.98955e-05
2.09592e-06
-3.88451e-07
1.85069e-05
6.55156e-06
3.53358e-07
6.19765e-06
9.5018e-07
1.7909e-05
2.92819e-05
1.56203e-06
-9.5551e-07
2.82648e-05
1.97113e-06
-3.59769e-07
1.73124e-05
5.83738e-06
3.25235e-07
5.51171e-06
8.83826e-07
1.67529e-05
2.76873e-05
1.45988e-06
-8.90641e-07
2.67282e-05
1.84849e-06
-3.32705e-07
1.61942e-05
5.17862e-06
2.98966e-07
4.87935e-06
8.20126e-07
1.56724e-05
2.6188e-05
1.35925e-06
-8.29644e-07
2.52858e-05
1.73086e-06
-3.07897e-07
1.51502e-05
4.5712e-06
2.76074e-07
4.29496e-06
7.62674e-07
1.46632e-05
2.47814e-05
1.26633e-06
-7.73076e-07
2.39345e-05
1.61938e-06
-2.85392e-07
1.41752e-05
4.00947e-06
2.54974e-07
3.75447e-06
7.09009e-07
1.3721e-05
2.34651e-05
1.17795e-06
-7.2285e-07
2.26699e-05
1.51787e-06
-2.65913e-07
1.32641e-05
3.4886e-06
2.37045e-07
3.25168e-06
6.61843e-07
1.28393e-05
2.22333e-05
1.09837e-06
-6.79735e-07
2.14853e-05
1.42773e-06
-2.49665e-07
1.24094e-05
3.00217e-06
2.2259e-07
2.77978e-06
6.22448e-07
1.20098e-05
2.10775e-05
1.03041e-06
-6.4281e-07
2.03725e-05
1.34804e-06
-2.35948e-07
1.16032e-05
2.54404e-06
2.10473e-07
2.33377e-06
5.88824e-07
1.12252e-05
1.999e-05
9.71637e-07
-6.11857e-07
1.93231e-05
1.27902e-06
-2.24582e-07
1.08382e-05
2.10935e-06
2.00739e-07
1.90874e-06
5.61037e-07
1.04781e-05
1.89619e-05
9.22513e-07
-5.86427e-07
1.83282e-05
1.22036e-06
-2.15248e-07
1.01072e-05
1.69356e-06
1.92773e-07
1.50079e-06
5.38107e-07
9.76199e-06
1.7984e-05
8.82501e-07
-5.65731e-07
1.73785e-05
1.17144e-06
-2.07372e-07
9.40373e-06
1.29335e-06
1.86766e-07
1.10647e-06
5.20449e-07
9.0701e-06
1.70474e-05
8.51687e-07
-5.49536e-07
1.64652e-05
1.13179e-06
-2.00747e-07
8.72129e-06
9.05522e-07
1.82244e-07
7.23026e-07
5.07e-07
8.39646e-06
1.61431e-05
8.29151e-07
-5.36583e-07
1.55795e-05
1.1001e-06
-1.94659e-07
8.0544e-06
5.28039e-07
1.78892e-07
3.48771e-07
4.96596e-07
7.73651e-06
1.52629e-05
8.13203e-07
-5.25438e-07
1.47141e-05
1.07407e-06
-1.88103e-07
7.39891e-06
1.60213e-07
1.77905e-07
-1.82829e-08
4.88797e-07
7.08759e-06
1.44007e-05
8.01947e-07
-5.14095e-07
1.38641e-05
1.05043e-06
-1.80628e-07
6.75368e-06
-1.99521e-07
1.70749e-07
-3.71017e-07
4.77636e-07
6.44619e-06
1.35503e-05
7.90968e-07
-5.05452e-07
1.30254e-05
1.02977e-06
-1.77536e-07
6.11757e-06
-5.49382e-07
1.62532e-07
-7.12786e-07
4.64917e-07
5.81443e-06
1.27105e-05
7.79215e-07
-4.95028e-07
1.21965e-05
1.00827e-06
-1.72711e-07
5.49127e-06
-8.86433e-07
1.54961e-07
-1.04236e-06
4.51778e-07
5.19356e-06
1.18806e-05
7.66912e-07
-4.81866e-07
1.138e-05
9.81658e-07
-1.66591e-07
4.87734e-06
-1.20996e-06
1.46276e-07
-1.35726e-06
4.34473e-07
4.58817e-06
1.10645e-05
7.49164e-07
-4.65075e-07
1.05776e-05
9.50974e-07
-1.59446e-07
4.28151e-06
-1.51776e-06
1.3785e-07
-1.65666e-06
4.15784e-07
4.00253e-06
1.0266e-05
7.26448e-07
-4.45231e-07
9.79601e-06
9.14223e-07
-1.5138e-07
3.70758e-06
-1.80912e-06
1.28675e-07
-1.93887e-06
3.94153e-07
3.44099e-06
9.49176e-06
6.97346e-07
-4.24672e-07
9.04062e-06
8.74701e-07
-1.43564e-07
3.15874e-06
-2.08353e-06
1.20184e-07
-2.2048e-06
3.72283e-07
2.90548e-06
8.74649e-06
6.65266e-07
-4.02917e-07
8.31686e-06
8.31361e-07
-1.35939e-07
2.63732e-06
-2.34183e-06
1.11182e-07
-2.45409e-06
3.47799e-07
2.39951e-06
8.03671e-06
6.26736e-07
-3.79072e-07
7.63134e-06
7.83193e-07
-1.27995e-07
2.14723e-06
-2.58315e-06
1.01972e-07
-2.68618e-06
3.21855e-07
1.92616e-06
7.36811e-06
5.83832e-07
-3.51156e-07
6.99044e-06
7.2756e-07
-1.18613e-07
1.69243e-06
-2.80581e-06
9.1487e-08
-2.8983e-06
2.92529e-07
1.49023e-06
6.74776e-06
5.33951e-07
-3.23066e-07
6.39741e-06
6.72141e-07
-1.09252e-07
1.27526e-06
-3.00852e-06
8.1301e-08
-3.09077e-06
2.64509e-07
1.09092e-06
6.17662e-06
4.84047e-07
-2.91799e-07
5.85729e-06
6.09885e-07
-9.86022e-08
8.96631e-07
-3.19027e-06
7.0064e-08
-3.26119e-06
2.33276e-07
7.32377e-07
5.6602e-06
4.2918e-07
-2.59593e-07
5.37256e-06
5.46114e-07
-8.81861e-08
5.60003e-07
-3.35015e-06
5.9726e-08
-3.41058e-06
2.03326e-07
4.15506e-07
5.20012e-06
3.74717e-07
-2.28121e-07
4.94392e-06
4.83352e-07
-7.84959e-08
2.65061e-07
-3.48971e-06
4.98463e-08
-3.54015e-06
1.75221e-07
1.38903e-07
4.7965e-06
3.21689e-07
-1.96882e-07
4.57059e-06
4.21932e-07
-6.9839e-08
1.11681e-08
-3.61051e-06
4.03374e-08
-3.65131e-06
1.5054e-07
-9.96883e-08
4.44794e-06
2.72393e-07
-1.68535e-07
4.25141e-06
3.64398e-07
-6.14699e-08
-2.07262e-07
-3.71313e-06
3.34832e-08
-3.74684e-06
1.25946e-07
-3.00098e-07
4.15033e-06
2.2649e-07
-1.46616e-07
3.98039e-06
3.16124e-07
-5.37726e-08
-3.93237e-07
-3.80077e-06
2.76933e-08
-3.82861e-06
1.04846e-07
-4.70674e-07
3.89881e-06
1.86007e-07
-1.26049e-07
3.75092e-06
2.73638e-07
-4.72523e-08
-5.49649e-07
-3.87592e-06
2.20803e-08
-3.89797e-06
8.99904e-08
-6.17626e-07
3.68453e-06
1.56198e-07
-1.07796e-07
3.56834e-06
2.23887e-07
-4.11585e-08
-6.84263e-07
-3.93903e-06
8.75994e-09
-3.94767e-06
6.59113e-08
-7.41376e-07
3.47423e-06
1.59968e-07
-9.08387e-08
3.40197e-06
1.63099e-07
-3.23101e-08
-7.99816e-07
-3.97981e-06
6.06348e-09
-3.98566e-06
5.66183e-08
-8.50251e-07
3.33754e-06
1.2109e-07
-5.72455e-08
3.22818e-06
1.66663e-07
-1.44827e-08
-8.92871e-07
-3.99986e-06
-3.50466e-08
-3.96399e-06
-6.53742e-08
-8.62299e-07
3.23351e-06
-7.05928e-08
1.70721e-07
3.39625e-06
-3.33292e-07
3.53756e-08
-7.26348e-07
-3.92582e-06
-2.74849e-08
-3.89063e-06
-2.49824e-07
-5.01973e-07
3.69156e-06
-5.44677e-07
1.49581e-07
-3.34753e-07
4.39475e-08
-1.87252e-06
-2.39725e-05
3.35785e-07
-3.72454e-05
9.27886e-08
-5.09159e-05
2.98724e-06
-5.65769e-05
2.39601e-06
-6.04437e-05
3.85733e-06
-6.67581e-05
3.8576e-06
-6.97118e-05
4.6578e-06
-7.26937e-05
5.22734e-06
-7.45658e-05
5.93903e-06
-7.64796e-05
6.67614e-06
-7.79457e-05
7.33726e-06
-7.92076e-05
8.11855e-06
-8.02969e-05
8.7517e-06
-8.09964e-05
9.5649e-06
-8.17773e-05
1.01942e-05
-8.20463e-05
1.10434e-05
-8.25659e-05
1.16876e-05
-8.24948e-05
1.25987e-05
-8.27961e-05
1.32596e-05
-8.23711e-05
1.42155e-05
-8.24151e-05
1.48757e-05
-8.15641e-05
1.58785e-05
-8.12479e-05
1.6558e-05
-7.97644e-05
1.76575e-05
-7.88268e-05
1.84083e-05
-7.62048e-05
1.96882e-05
-7.40708e-05
2.0572e-05
-6.91575e-05
2.21435e-05
-6.47519e-05
2.32657e-05
-5.56443e-05
2.5302e-05
-4.73736e-05
2.69417e-05
-3.3412e-05
2.96855e-05
-2.06269e-05
3.11691e-05
-2.81302e-06
3.25024e-05
1.2851e-05
2.99068e-05
3.15444e-05
2.3029e-05
2.69861e-05
6.58502e-06
0.000104514
-3.3743e-05
0.00038406
-0.000132162
0.000460237
-5.7852e-05
0.000289076
-1.70422e-05
0.000285952
-2.4382e-06
0.000284098
8.61631e-06
0.000276301
1.31945e-05
0.000266281
1.70936e-05
0.000261318
1.74502e-05
0.000256796
2.05174e-05
0.000254857
1.78142e-05
0.000250137
2.28389e-05
0.000247496
1.13033e-05
0.000234273
1.48784e-05
0.000220494
3.02201e-06
0.000184635
3.54853e-06
9.23087e-05
2.2855e-06
1.72661e-05
8.0734e-07
9.73645e-07
-5.20716e-06
-2.53269e-07
-4.95406e-06
-2.26788e-06
2.98783e-06
1.89182e-05
-3.92046e-06
3.60072e-06
2.23724e-05
-7.05589e-06
7.13977e-07
5.87318e-06
-4.24102e-06
-2.82709e-06
-1.41489e-06
-6.96473e-06
1.00096e-05
2.63667e-05
-1.09602e-05
7.30264e-06
3.04192e-05
-1.1355e-05
3.56106e-06
1.37514e-05
2.14619e-06
-3.22952e-06
5.37638e-06
-6.64173e-06
1.71647e-05
3.37798e-05
-1.00013e-05
5.37298e-06
3.67534e-05
-8.34506e-06
2.42484e-06
2.01142e-05
7.80241e-06
-1.94401e-06
9.74775e-06
-4.44075e-06
2.26126e-05
3.93423e-05
-7.02807e-06
3.75723e-06
4.15139e-05
-5.92728e-06
1.58098e-06
2.47903e-05
1.13301e-05
-1.31301e-06
1.26444e-05
-3.17871e-06
2.66574e-05
4.35336e-05
-5.19704e-06
2.76157e-06
4.53128e-05
-4.53955e-06
1.11685e-06
2.83034e-05
1.37625e-05
-9.63888e-07
1.47276e-05
-2.43643e-06
2.97772e-05
4.69514e-05
-4.07397e-06
2.16517e-06
4.84451e-05
-3.65792e-06
8.4596e-07
3.10976e-05
1.55747e-05
-7.48238e-07
1.6324e-05
-1.9431e-06
3.22936e-05
4.98193e-05
-3.31646e-06
1.77948e-06
5.11132e-05
-3.07269e-06
6.73117e-07
3.3401e-05
1.69981e-05
-6.16606e-07
1.76156e-05
-1.64174e-06
3.44271e-05
5.23007e-05
-2.82852e-06
1.52646e-06
5.34389e-05
-2.6641e-06
5.70946e-07
3.53835e-05
1.81873e-05
-5.35486e-07
1.87236e-05
-1.43294e-06
3.62818e-05
5.4495e-05
-2.4885e-06
1.35963e-06
5.55121e-05
-2.37619e-06
5.08164e-07
3.7134e-05
1.92325e-05
-4.86774e-07
1.972e-05
-1.28534e-06
3.79333e-05
5.64749e-05
-2.24777e-06
1.24297e-06
5.74051e-05
-2.17279e-06
4.70679e-07
3.87063e-05
2.01914e-05
-4.59463e-07
2.06516e-05
-1.19183e-06
3.94393e-05
5.82933e-05
-2.07964e-06
1.16812e-06
5.91587e-05
-2.03321e-06
4.5171e-07
4.01563e-05
2.11039e-05
-4.47407e-07
2.1552e-05
-1.13424e-06
4.08438e-05
5.99921e-05
-1.96741e-06
1.12526e-06
6.08114e-05
-1.94432e-06
4.45705e-07
4.15239e-05
2.19983e-05
-4.46718e-07
2.24456e-05
-1.10533e-06
4.2183e-05
6.16078e-05
-1.90151e-06
1.10828e-06
6.23978e-05
-1.89813e-06
4.49356e-07
4.28425e-05
2.28956e-05
-4.5575e-07
2.33518e-05
-1.10533e-06
4.34925e-05
6.31755e-05
-1.88296e-06
1.10595e-06
6.39462e-05
-1.87658e-06
4.61995e-07
4.41369e-05
2.38143e-05
-4.70914e-07
2.42857e-05
-1.12578e-06
4.47921e-05
6.47222e-05
-1.90181e-06
1.13963e-06
6.5498e-05
-1.91552e-06
4.83669e-07
4.54483e-05
2.47697e-05
-4.95898e-07
2.52659e-05
-1.15598e-06
4.61086e-05
6.62783e-05
-1.93643e-06
1.19376e-06
6.70765e-05
-1.99218e-06
5.11801e-07
4.67907e-05
2.57779e-05
-5.30416e-07
2.63085e-05
-1.2186e-06
4.74789e-05
6.78845e-05
-2.02686e-06
1.26506e-06
6.87249e-05
-2.10589e-06
5.51227e-07
4.81927e-05
2.68598e-05
-5.7604e-07
2.74358e-05
-1.31442e-06
4.8931e-05
6.95743e-05
-2.16433e-06
1.37227e-06
7.04732e-05
-2.27177e-06
6.04394e-07
4.96987e-05
2.80401e-05
-6.37121e-07
2.8677e-05
-1.43995e-06
5.05012e-05
7.13909e-05
-2.35837e-06
1.5182e-06
7.23641e-05
-2.49226e-06
6.74543e-07
5.13444e-05
2.93513e-05
-7.18405e-07
3.00694e-05
-1.61024e-06
5.22357e-05
7.33904e-05
-2.63744e-06
1.71777e-06
7.44791e-05
-2.80749e-06
7.69318e-07
5.31835e-05
3.08382e-05
-8.30294e-07
3.16679e-05
-1.84606e-06
5.41985e-05
7.56425e-05
-3.01071e-06
2.00064e-06
7.68957e-05
-3.25518e-06
9.03871e-07
5.52944e-05
3.25711e-05
-9.96641e-07
3.35669e-05
-2.18811e-06
5.64848e-05
7.82596e-05
-3.55354e-06
2.33741e-06
7.98516e-05
-3.93111e-06
1.11043e-06
5.77106e-05
3.46764e-05
-1.26839e-06
3.59437e-05
-2.7592e-06
5.91999e-05
8.14045e-05
-4.31412e-06
3.04154e-06
8.31426e-05
-4.78189e-06
1.44974e-06
6.07901e-05
3.73921e-05
-1.51079e-06
3.89013e-05
-3.17312e-06
6.24505e-05
8.50511e-05
-5.08409e-06
3.32803e-06
8.69807e-05
-5.26052e-06
1.50843e-06
6.42679e-05
4.04079e-05
-1.35376e-06
4.17595e-05
-3.33753e-06
6.62491e-05
8.92418e-05
-5.60194e-06
3.33236e-06
9.16924e-05
-5.78662e-06
1.45224e-06
6.81264e-05
4.32093e-05
-1.43831e-06
4.4645e-05
-3.62609e-06
7.03111e-05
9.45251e-05
-6.46269e-06
3.94213e-06
9.75893e-05
-7.01044e-06
1.55083e-06
7.26991e-05
4.6193e-05
-2.02535e-06
4.82155e-05
-4.99722e-06
7.56675e-05
0.000101259
-8.67156e-06
6.90497e-06
0.000106328
-1.19788e-05
2.93388e-06
7.9635e-05
5.11464e-05
-5.45829e-06
5.66014e-05
-1.02341e-05
8.44061e-05
0.000111114
-1.50261e-05
-7.34679e-05
5.36214e-05
0.000130957
-2.94929e-05
4.04279e-05
2.71058e-05
-1.0099e-05
3.72029e-05
-2.46331e-05
5.49599e-05
7.11403e-05
-4.21542e-05
1.4895e-05
8.25787e-05
-2.63367e-05
5.95163e-06
6.39005e-05
4.31523e-05
-3.5225e-06
4.66719e-05
-9.10017e-06
6.94747e-05
8.94219e-05
-1.59475e-05
7.41165e-06
9.50231e-05
-1.30176e-05
2.94831e-06
7.39341e-05
4.96169e-05
-2.90399e-06
5.2517e-05
-7.36055e-06
7.83859e-05
0.000100549
-1.28919e-05
8.3455e-06
0.000106425
-1.42276e-05
3.5282e-06
8.31982e-05
5.60409e-05
-4.11191e-06
6.01481e-05
-9.65637e-06
8.8737e-05
0.000113449
-1.66873e-05
1.23885e-05
0.000122212
-2.11593e-05
5.41023e-06
9.57092e-05
6.55533e-05
-6.99179e-06
7.25392e-05
-1.41639e-05
0.000102873
0.000130665
-2.26272e-05
-8.86036e-05
6.50289e-05
0.000154233
-3.64287e-05
5.06927e-05
3.61057e-05
-1.41333e-05
5.02356e-05
-3.28933e-05
6.94488e-05
8.69692e-05
-5.48377e-05
2.41727e-05
0.000103873
-4.10837e-05
1.01372e-05
8.34787e-05
6.0368e-05
-7.78976e-06
6.8152e-05
-1.82506e-05
9.39326e-05
0.000116864
-3.12493e-05
1.82578e-05
0.000129437
-3.08413e-05
7.92669e-06
0.000104255
7.60716e-05
-9.2384e-06
8.53021e-05
-2.15379e-05
0.000116545
0.000143562
-3.56745e-05
2.08455e-05
0.00015737
-3.46708e-05
9.97811e-06
0.0001274
9.52704e-05
4.59093e-05
4.93534e-05
0.000107682
6.56187e-05
8.10734e-05
0.000183969
4.61013e-05
0.000111
-7.60356e-05
2.10534e-05
9.06596e-05
7.04007e-05
-2.02482e-05
9.06405e-05
-4.62298e-05
0.000116631
0.000141395
-7.66369e-05
4.02982e-05
0.000166866
-6.57905e-05
1.80723e-05
0.000138842
0.000108701
5.05504e-05
5.81411e-05
0.000114467
7.49139e-05
9.02351e-05
0.000191086
6.34005e-05
0.000128703
-0.000101879
2.92423e-05
0.000109063
8.73754e-05
-3.31437e-05
0.000120506
-7.2782e-05
0.000148684
0.000174357
-0.00011846
-0.000117424
9.93012e-05
0.000192464
-5.17618e-05
8.30073e-05
6.87306e-05
-4.5156e-05
0.000113873
-9.33207e-05
0.000131157
0.000150451
-0.000144485
-0.000110313
9.08153e-05
0.000169931
-5.49742e-05
7.5804e-05
5.88801e-05
5.5142e-05
3.63793e-06
0.000109314
2.15888e-05
4.63762e-05
0.000153729
-7.0294e-05
-2.72144e-06
0.000119375
-3.05087e-05
-1.81864e-05
-2.67583e-05
4.64902e-06
-3.14132e-05
2.10041e-05
-3.45436e-05
-3.64605e-05
5.47323e-05
3.3663e-05
-1.8219e-05
-5.19132e-05
1.6645e-05
-1.75319e-05
-1.47725e-05
-7.47139e-06
-7.30365e-06
-1.49502e-05
-1.0056e-05
-1.15685e-05
-2.1604e-05
-8.8762e-06
-1.84051e-05
1.57086e-05
-3.44437e-06
-1.54913e-05
-1.0751e-05
-4.0176e-06
-6.73724e-06
-9.15587e-06
-1.03581e-05
-1.2576e-05
-1.49917e-05
6.84172e-06
-8.27408e-06
-1.11469e-05
2.89782e-06
-6.4172e-06
-3.84202e-06
3.16426e-06
-7.00946e-06
8.36531e-06
-1.1622e-05
-1.48259e-05
1.49128e-05
5.52571e-06
-1.09094e-05
-9.4492e-06
2.33469e-06
-8.43616e-06
-4.67869e-06
-1.93664e-06
-2.74481e-06
-5.02966e-06
-5.34624e-06
-7.24475e-06
-8.69782e-06
-7.86218e-06
-1.37249e-05
1.43378e-05
-2.80035e-06
-1.04119e-05
-5.54846e-06
-1.67838e-06
-3.87419e-06
-4.15674e-06
-7.93908e-06
-1.05823e-05
-7.30681e-06
4.27689e-06
-7.12914e-06
-7.73371e-06
1.47595e-06
-5.14139e-06
-2.40109e-06
2.87258e-06
-5.27718e-06
8.08422e-06
-1.03571e-05
-1.38264e-05
1.47767e-05
3.69062e-06
-1.11716e-05
-6.35335e-06
1.51263e-06
-8.18498e-06
-3.76892e-06
-1.35194e-06
-2.42005e-06
-4.09482e-06
-5.44557e-06
-7.56265e-06
-7.70759e-06
-8.76714e-06
-1.493e-05
1.61294e-05
-3.07063e-06
-1.11465e-05
-5.49439e-06
-1.35899e-06
-4.14006e-06
-3.59237e-06
-8.91934e-06
-1.21826e-05
-6.34817e-06
4.35337e-06
-8.38181e-06