/*--------------------------------*- C++ -*----------------------------------*\
| =========                 |                                                 |
| \\      /  F ield         | OpenFOAM: The Open Source CFD Toolbox           |
|  \\    /   O peration     | Version:  v2006                                 |
|   \\  /    A nd           | Website:  www.openfoam.com                      |
|    \\/     M anipulation  |                                                 |
\*---------------------------------------------------------------------------*/
FoamFile
{
    version     2.0;
    format      ascii;
    class       volScalarField;
    location    "0.032";
    object      omega;
}
// * * * * * * * * * * * * * * * * * * * * * * * * * * * * * * * * * * * * * //

dimensions      [0 0 -1 0 0 0 0];


internalField   nonuniform List<scalar> 
11076
(
0.0110362
0.0110362
0.0110362
0.0110362
0.0110362
0.0110362
0.0110363
0.0110363
0.0110362
0.0110343
0.0110286
0.0110183
0.0110045
0.0109883
0.0109708
0.0109525
0.0109336
0.0109139
0.0108935
0.0108722
0.0108499
0.0108267
0.0108027
0.0107777
0.0107519
0.0107254
0.0106981
0.0106702
0.0106416
0.0106125
0.0105829
0.0105528
0.0105223
0.0104916
0.0104608
0.0104302
0.0104003
0.0103719
0.0103466
0.0103279
0.0103223
0.0103432
0.0104183
0.0106038
0.0110024
0.0118184
0.0134455
0.0166348
0.0228466
0.0347986
0.0573545
0.0993084
0.176533
0.317953
0.574328
1.01589
1.61936
1.99605
2.59155
2.85106
3.02201
5.17694
8.84111
11.0847
9.80469
25.3671
71.5506
184.824
659.619
5666.57
30759
428769
415659
62126.6
14501.5
22242.3
78854
403016
390061
83905.4
26808.7
30333.7
87134.4
373905
362468
86873.5
32477
34568.1
88707.4
351994
345407
88559.1
35716.2
36933.9
88261.4
338040
332876
87651.4
37391.1
38270
87522.1
327395
323691
86856.7
38343.7
38921.7
86745.7
319412
316590
86148
38911.9
39321.6
86086.4
313122
310859
85587.4
39280.3
39606.8
85576.6
307964
306060
85174.4
39547.6
39823.6
85196.4
303564
301912
84864.1
39753.6
39996.8
84907.2
299704
298232
84623.7
39919.6
40140.2
84681.7
296236
294894
84433.1
40057.9
40262
84501
293056
291811
84275.6
40175.9
40367.1
84349.8
290093
288919
84139.2
40277.8
40458.4
84217.1
287294
286175
84015.3
40366.5
40538.1
84095
284622
283545
83897.8
40444
40608.1
83978
282049
281003
83782.6
40512
40671.9
83862.6
279550
278527
83666.6
40572.4
40727.7
83745.5
277107
276099
83546.7
40624.8
40775.7
83623.8
274702
273703
83420.8
40669.6
40816.6
83495.4
272322
271327
83287.7
40708
40851.9
83359.8
269956
268960
83146.9
40741.7
40883.2
83216.1
267590
266588
82996.4
40771.5
40910.3
83062.1
265214
264201
82833.9
40796.7
40932.3
82895.4
262816
261787
82658.1
40816.7
40949.4
82715.1
260387
259339
82469.4
40832.6
40963.4
82522
257919
256849
82267.4
40846.6
40976.3
82315.3
255402
254305
82049.8
40859.4
40987.1
82092.2
252824
251694
81813.1
40868.8
40992.9
81848.9
250173
249006
81555.9
40872.3
40992.9
81585.1
247440
246232
81280.6
40871.4
40990.9
81303.4
244618
243365
80987.4
40871.1
40990.8
81003.3
241695
240391
80670.5
40872.5
40990.3
80677.8
238652
237290
80325.3
40870
40982
80320
235478
234054
79945.1
40857.1
40962.4
79924.1
232166
230678
79529.8
40834.7
40937.2
79494
228715
227162
79083
40811.2
40913.1
79030.9
225120
223502
78594.8
40787.6
40883.4
78521.6
221364
219671
78047.8
40750.4
40832.3
77950.4
217433
215668
77437.3
40681.5
40753.9
77314.6
213345
211519
76769.4
40597.1
40663.5
76619.9
209126
207241
76042.5
40497.7
40556.2
75860.2
204771
202833
75235.3
40369.4
40414.6
74996.8
200285
198306
74308.5
40188.2
40212.4
73998.7
195702
193710
73250.5
39936.8
39934.8
72870.5
191104
189143
72069.8
39617.1
39584.1
71633.2
186600
184721
70780.5
39231.2
39164.6
70273.9
182268
180484
69350.7
38754.4
38639.9
68752.7
178124
176488
67742
38138.2
37972.3
67065.6
174308
172903
65983.3
37387.7
37181.6
65265.5
171010
169893
64143.2
36538
36295.9
63406.4
168324
167485
62260.8
35600.8
35326
61518.7
166192
165589
60351.3
34574.3
34278
59639.7
164605
164234
58523.7
33524.2
33210.1
57864.8
163563
163443
56852.3
32486
32185.3
56373.9
163101
163085
55470.8
31520.2
31255
55131.7
162986
163055
54343.1
30654.1
30405.3
54064.3
163040
163165
53376
29854.3
29644.6
53168.7
163153
163258
52551.2
29124.9
28951
52398
163298
163478
51887
28495.5
28382.7
51803.3
163558
163797
51399.9
27990.4
27908.5
51354
163898
164170
51029.2
27568.4
27509.7
51009
164247
164469
50729.8
27201.8
27161
50731.4
164532
164707
50496.8
26888.1
26863.7
50528
164769
164944
50323.1
26627.6
26621.6
50374.8
165017
165191
50203.6
26411.5
26416.4
50265.1
165266
165436
50120.2
26232.3
26240.9
50187.1
165526
165739
50075.8
26086.2
26104.6
50143.6
165837
166037
50061.9
25969.8
25996
50143.9
166109
166232
50068.6
25866.1
25896.5
50150.4
166279
166393
50067.4
25768.8
25801
50143.6
166492
166556
50071.4
25679.2
25706.6
50115.8
166535
166721
50127.2
25656.9
25686.3
50193.5
166565
167061
50300.8
25685.3
25497.2
50111.7
165269
161846
48536.2
24642.8
23713.8
46908.1
157591
11535.8
7450.4
5668.28
4649.48
4172.28
3703.31
3428.9
3221.32
3100.16
3028.25
3012.1
3046.99
3134.15
3292.62
3513.83
3855.7
4288.34
4981.16
5628.12
6681.67
9105.43
11395.2
15401.2
25702.5
55980.6
122809
412160
462815
142639
64457.4
71004.2
158579
525139
589762
178685
80738.4
86111
189164
621817
635881
189214
85423.9
89892.1
196134
641674
649503
193870
87408.9
90234.8
199800
649720
650666
193514
87721.3
89934
198809
650569
651902
193167
87730.2
89943.6
198734
651897
653183
193325
87730.5
89981.6
198821
652802
654274
193066
87786
90016.8
198483
654143
655486
192771
87851.5
90066.4
198244
655471
656911
192655
87849.1
90084.4
198101
656687
658101
192325
87851.7
90007.4
197760
658194
659731
192053
87761.9
89986.7
197471
659540
661066
191876
87782.4
90008.3
197531
661093
662627
191931
87899.6
90168.6
197587
662551
664214
191701
88062.6
90307.3
197154
664177
666016
191407
88129.2
90330.3
197105
665868
667699
191272
88171.6
90431.2
196933
667580
669606
191356
88287.7
90591.5
196989
669384
671570
191331
88419.2
90726.8
196724
671362
673637
190968
88593.2
90851.1
196677
673560
675665
190944
88781.8
91000.2
196816
675640
677774
191029
88869.7
91148.7
196504
677664
680255
190829
89011.2
91327.1
196719
680143
682496
191191
89262.4
91605.1
197022
682393
685049
191282
89525.7
91877.8
196994
685045
687870
191247
89835
92144.3
197263
688160
691149
191509
90135.6
92389.5
197589
691717
695097
191763
90269.2
92330.4
197933
696299
700168
191270
90048.6
91905.4
196372
701950
706126
188329
89039.4
91182.8
193188
707360
710622
184075
87488.2
89686.7
190233
703035
691810
179367
86713.2
88854.3
183880
678535
668346
171939
85109.6
87666
178743
655208
646155
168396
85574.4
87648
173854
628528
610093
165133
86924.9
89650.2
169661
597243
584566
167997
90199
93683.8
170583
574391
575814
174829
95103.4
97758.2
181467
575923
586025
183502
90718.8
63720
174568
370540
281894
86879.3
51748
51938.8
99495.6
284824
293093
122557
67247.3
52358.8
105462
273793
250377
94298.5
49155.5
44293.1
86771
238230
227793
81698.5
42065.3
38731.4
75907.7
222090
215756
70192.5
36466.3
33877.7
65911
217542
226361
68890.5
35186.1
42725
79237.8
238968
242717
73976.3
36372.2
35246.8
70765.7
243084
250670
71701.3
35447
41182.7
78626.4
272500
301240
94816.1
51664.1
54758.7
100942
328748
346928
111113
62563
55799.4
105024
348987
342640
98565.4
52410.9
47265.7
92038.5
334564
341206
89418.7
45285.2
47997.4
89131.7
334243
323882
77631
38292
27696.2
58900
293689
282290
47216.9
23389.7
21692.4
39958.7
254295
232434
32436.5
18046.7
16202.1
25898.8
200708
183264
22389.3
14899
12648.1
19720.8
152534
135711
17110.6
10947.8
10399.4
15673.6
125049
120297
15263.5
10227
10529.4
16774.3
122413
125714
15739.1
10116.9
16919.1
34436.4
141044
152686
52505.8
17382.7
38770.6
96193.6
171641
184507
118311
48627.2
65280.9
144189
207639
230943
179301
120667
115905
192380
253671
271508
208570
127190
169588
238302
300785
312450
236005
150548
151846
243071
329961
344714
254641
183710
154665
246908
354751
356222
248069
157152
183141
250075
360781
339717
220535
131461
138551
212290
317230
292874
182881
101109
101207
174664
284908
292555
178373
104668
126647
187830
304766
293413
170142
101865
97563.5
164166
287249
289482
169606
115923
92300.7
150383
281309
274155
143041
92333.1
96577.3
154504
298520
330590
173529
117648
94959.3
156405
329381
339599
148587
95797.7
141113
292664
523874
708884
242066
115834
129220
244033
551925
692067
273428
139812
250607
535937
995040
745060
216840
147952
144613
218621
599340
873315
418327
228288
134260
189002
660286
517937
202428
132441
138844
227713
665010
1.0152e+06
459734
240018
137359
200105
731255
592656
207212
136219
228947
412018
905906
686988
188262
132520
132909
199941
568419
868704
415692
223271
128822
185139
661394
549903
193916
128776
214888
400043
829098
623203
180403
124018
123720
190105
498624
663595
227008
132804
246072
537972
1.02952e+06
755360
212557
137598
136200
214084
617959
975401
465226
236690
135725
198356
725792
605463
212285
137001
240589
451640
960421
722353
198733
136827
136693
209544
602628
953291
450831
241548
137862
198651
719373
605259
212561
138964
242986
454688
989790
744686
203480
140910
142432
216928
630697
1.04919e+06
480618
260516
157218
180443
834601
772456
373926
224021
128688
188055
607945
530675
204898
131729
229728
426528
855915
657606
191565
134170
136157
205657
565673
911269
442926
236876
136441
195963
689482
587040
211181
137975
244550
454682
940857
720116
202049
141463
143845
219109
622797
1.03835e+06
503728
264008
159225
193261
845914
791439
390941
234198
136479
196871
626991
563180
215418
141093
248020
454490
930125
721416
206718
146220
148467
223620
625301
1.03569e+06
514891
269120
163169
204658
839096
792007
391707
234190
137704
196835
627284
562037
217303
141747
249551
461849
919448
710012
209009
148048
151615
229364
625310
1.0576e+06
516270
274902
167491
203719
857125
812353
400175
241386
142784
204090
647981
586629
227782
147890
269423
501399
991853
814876
206700
167261
240852
392448
781173
622721
203297
142812
147940
224856
565195
938155
474046
259396
154510
216581
724091
638765
237151
157839
282910
520683
1.07217e+06
875881
210569
176900
256910
414985
846763
680385
219545
152521
158107
243082
623595
1.06537e+06
531972
286865
178639
220666
872414
840169
417609
255577
153234
216841
666721
609287
241406
158710
284386
523096
1.03902e+06
856753
219942
178908
257629
421345
834054
674480
223431
155343
161398
248538
621890
1.05796e+06
532889
289920
182147
223560
871349
850009
426685
261540
157353
224031
671772
618687
248948
163232
292019
533321
1.05215e+06
870577
227831
184356
265250
430117
853989
686689
228817
160522
166881
255093
634473
1.07908e+06
545426
299058
188554
232689
891506
870459
438528
269539
162792
231334
686591
635125
257308
168975
300498
547352
1.0763e+06
894507
234949
190644
273950
443426
878566
705275
237361
166204
172877
264625
656332
1.1169e+06
568366
310702
196139
243017
916098
896446
456276
281038
169862
241054
706875
655998
268792
176311
313371
566512
1.11788e+06
921607
245110
199024
286250
462577
912074
731232
248251
173828
180754
276845
679594
1.14971e+06
587163
322770
204386
253058
948438
936016
474225
292778
177367
250899
737383
685556
278420
184107
326617
589003
1.15877e+06
958849
254933
207662
298395
482984
952416
757674
258765
181408
188544
288583
707966
1.19748e+06
610623
336492
213255
263863
978319
969073
494305
305477
185070
261977
765684
713463
290217
192085
340578
616425
1.20234e+06
988366
267265
216623
311314
503832
983485
789159
270881
189465
196990
302054
738400
1.24939e+06
636975
351567
222498
276658
1.01374e+06
1.00175e+06
511131
318046
192686
271171
786530
734280
300220
199867
352242
631003
1.23308e+06
1.01755e+06
275433
224265
322075
517552
1.0167e+06
810405
279564
196074
203738
310077
759395
1.27258e+06
656509
362375
229743
285617
1.03756e+06
1.02861e+06
526582
328356
199094
280362
806340
756976
309405
206376
365026
655129
1.27394e+06
1.04164e+06
287959
232335
332769
531869
1.0382e+06
826353
286861
202382
210380
318460
776703
1.29043e+06
663464
370145
235217
292340
1.0481e+06
1.04766e+06
537823
335362
202535
286212
813661
756556
313903
208994
362202
644664
1.22476e+06
941495
302847
219387
224886
329109
862974
1.41928e+06
715839
396062
247281
308263
1.13124e+06
1.12463e+06
575304
355365
214420
304099
879932
824837
333413
221862
394814
710033
1.36958e+06
1.10549e+06
312668
249153
356321
569685
1.09887e+06
855065
302590
214580
222676
334126
798477
1.28894e+06
680856
385082
231478
321522
994668
911554
341974
236052
416948
757339
1.48882e+06
1.18809e+06
326899
261361
377717
607958
1.18305e+06
915995
322188
226156
233179
353334
854228
1.37357e+06
718410
404125
242825
338419
1.04227e+06
952005
359051
246683
433228
781303
1.54353e+06
1.21735e+06
338156
270252
389571
629584
1.21387e+06
933545
330524
232242
240566
362946
870453
1.39406e+06
735881
415835
248356
344892
1.05294e+06
968005
370852
253051
442851
789759
1.57925e+06
1.24184e+06
345476
276827
400021
642229
1.24079e+06
956664
341423
237830
245054
371175
889996
1.40864e+06
743410
421765
251939
349655
1.05602e+06
963751
373617
256167
438288
780818
1.52378e+06
1.12536e+06
364694
259506
261846
385675
1.0092e+06
1.56295e+06
802198
449676
264068
371631
1.14611e+06
1.03916e+06
397688
268118
465665
838560
1.62807e+06
1.20434e+06
389291
272492
274056
402935
1.08203e+06
1.67919e+06
868759
482209
278983
396797
1.22361e+06
1.10342e+06
422089
282629
491893
877563
1.7105e+06
1.25244e+06
405285
285130
286965
427617
1.13089e+06
1.76193e+06
892880
499227
287181
408948
1.27545e+06
1.14307e+06
433448
289982
506744
903397
1.76032e+06
1.27901e+06
416172
291390
293389
436370
1.1475e+06
1.75885e+06
899841
506811
290230
411426
1.27156e+06
1.1456e+06
436278
292591
510244
908149
1.74597e+06
1.25115e+06
416531
290488
291468
432871
1.11556e+06
1.66754e+06
855913
488485
276393
395061
1.17067e+06
1.00062e+06
411530
276427
294873
480563
1.30884e+06
1.95429e+06
1.00104e+06
535175
297330
441750
1.34529e+06
1.14218e+06
475027
303039
309293
488907
1.46835e+06
2.14486e+06
1.09424e+06
569108
306498
464820
1.41109e+06
1.17419e+06
477934
307140
321964
541823
1.51521e+06
2.23734e+06
1.12364e+06
593279
318774
483317
1.50084e+06
1.24536e+06
504796
322379
324683
539277
1.54165e+06
2.16613e+06
1.07898e+06
573411
298322
451615
1.38063e+06
1.13863e+06
466391
294056
293206
479885
1.28657e+06
1.52623e+06
589785
318823
313093
588743
1.81241e+06
2.45641e+06
1.25513e+06
624081
312055
502678
1.53002e+06
1.26248e+06
486598
302235
316625
576332
1.42831e+06
1.56051e+06
561366
308953
318000
638686
1.65181e+06
1.71089e+06
634995
310388
317593
681649
1.71908e+06
1.69784e+06
686552
313750
319251
695265
1.66489e+06
1.61751e+06
684804
315400
319746
684045
1.5697e+06
1.52069e+06
659390
314617
318074
661005
1.47455e+06
1.42997e+06
644714
313238
317033
648182
1.39011e+06
1.35304e+06
637027
312979
317754
641262
1.3202e+06
1.29026e+06
633020
314829
320205
637258
1.26345e+06
1.23964e+06
629290
317415
322731
633074
1.21799e+06
1.19904e+06
624836
319803
324206
628079
1.18171e+06
1.16685e+06
618763
320484
324259
621464
1.15305e+06
1.14172e+06
611487
320033
323197
613583
1.13068e+06
1.1225e+06
602348
318544
321627
603887
1.11334e+06
1.10831e+06
591971
317179
320071
593103
1.10071e+06
1.09809e+06
580315
315560
318454
581185
1.09194e+06
1.09075e+06
568430
314117
316761
569224
1.08609e+06
1.08575e+06
556327
312277
314850
557125
1.08242e+06
1.08262e+06
544854
310365
312752
545797
1.08057e+06
1.08064e+06
533860
308039
310345
534927
1.07843e+06
1.07958e+06
523883
305787
307898
525195
1.07818e+06
1.07907e+06
514565
303232
305293
516029
1.07794e+06
1.07899e+06
506311
300682
302604
508044
1.07802e+06
1.0793e+06
498728
297954
299855
500602
1.07839e+06
1.0798e+06
492132
295290
297081
494263
1.07893e+06
1.0804e+06
486091
292491
294281
488333
1.07956e+06
1.0811e+06
480887
289785
291486
483357
1.0803e+06
1.08186e+06
476083
286972
288688
478625
1.08109e+06
1.08268e+06
471964
284274
285921
474710
1.08194e+06
1.08355e+06
468112
281501
283182
470899
1.08283e+06
1.08447e+06
464825
278879
280511
467803
1.08378e+06
1.08542e+06
461700
276217
277899
464692
1.08475e+06
1.08641e+06
459037
273728
275372
462196
1.08576e+06
1.08743e+06
456447
271220
272924
459607
1.0868e+06
1.08847e+06
454168
268892
270564
457551
1.08787e+06
1.08954e+06
451995
266559
268299
455390
1.08895e+06
1.09062e+06
450109
264410
266121
453715
1.09005e+06
1.09171e+06
448293
262260
264043
451894
1.09115e+06
1.09279e+06
446728
260297
262052
450530
1.09225e+06
1.09386e+06
445203
258336
260166
448985
1.09332e+06
1.09489e+06
443901
256564
258367
447869
1.09435e+06
1.09587e+06
442611
254788
256670
446546
1.09533e+06
1.0968e+06
441528
253206
255059
445642
1.09626e+06
1.09766e+06
440451
251616
253548
444525
1.09712e+06
1.09846e+06
439572
250209
252116
443817
1.09792e+06
1.0992e+06
438679
248793
250781
442873
1.09866e+06
1.09988e+06
437969
247562
249520
442325
1.09933e+06
1.10049e+06
437231
246291
248342
441529
1.09994e+06
1.10105e+06
436668
245240
247247
441121
1.10049e+06
1.10155e+06
436062
244072
246201
440448
1.10099e+06
1.10201e+06
435620
243164
245251
440155
1.10146e+06
1.10242e+06
435128
242141
244347
439593
1.10187e+06
1.10281e+06
434796
241367
243525
439403
1.10225e+06
1.10315e+06
434402
240466
242740
438932
1.10259e+06
1.10347e+06
434156
239807
242027
438822
1.10291e+06
1.10376e+06
433839
239011
241343
438422
1.1032e+06
1.10402e+06
433662
238449
240724
438375
1.10347e+06
1.10426e+06
433403
237743
240127
438029
1.10371e+06
1.10449e+06
433279
237265
239588
438030
1.10394e+06
1.10469e+06
433066
236634
239063
437726
1.10414e+06
1.10488e+06
432983
236229
238593
437765
1.10434e+06
1.10506e+06
432805
235666
238134
437494
1.10451e+06
1.10522e+06
432756
235323
237724
437564
1.10468e+06
1.10537e+06
432607
234816
237319
437319
1.10483e+06
1.10552e+06
432583
234527
236961
437413
1.10498e+06
1.10564e+06
432457
234072
236606
437190
1.1051e+06
1.10577e+06
432455
233830
236293
437303
1.10523e+06
1.10588e+06
432348
233419
235980
437097
1.10534e+06
1.10598e+06
432362
233217
235705
437225
1.10544e+06
1.10607e+06
432268
232843
235429
437032
1.10554e+06
1.10616e+06
432296
232678
235188
437171
1.10563e+06
1.10624e+06
432213
232337
234944
436989
1.10571e+06
1.10632e+06
432251
232203
234734
437137
1.10578e+06
1.10639e+06
432178
231891
234518
436963
1.10585e+06
1.10645e+06
432223
231785
234333
437118
1.10592e+06
1.10651e+06
432157
231499
234142
436950
1.10597e+06
1.10656e+06
432209
231417
233982
437111
1.10602e+06
1.10661e+06
432148
231152
233811
436948
1.10607e+06
1.10665e+06
432204
231092
233670
437112
1.10611e+06
1.10669e+06
432145
230846
233518
436950
1.10615e+06
1.10672e+06
432204
230804
233395
437116
1.10618e+06
1.10675e+06
432146
230576
233259
436954
1.10621e+06
1.10678e+06
432205
230548
233148
437119
1.10625e+06
1.10681e+06
432146
230333
233025
436957
1.10628e+06
1.10684e+06
432204
230316
232925
437120
1.10631e+06
1.10688e+06
432143
230109
232809
436955
1.10635e+06
1.10692e+06
432200
230102
232718
437118
1.10639e+06
1.10696e+06
432138
229904
232611
436953
1.10644e+06
1.10702e+06
432195
229906
232528
437115
1.1065e+06
1.10707e+06
432134
229715
232428
436951
1.10656e+06
1.10714e+06
432192
229724
232352
437116
1.10664e+06
1.10722e+06
432134
229540
232260
436956
1.10671e+06
1.1073e+06
432197
229557
232192
437126
1.1068e+06
1.10739e+06
432145
229384
232109
436973
1.10689e+06
1.10748e+06
432215
229409
232049
437150
1.10699e+06
1.10758e+06
432168
229241
231971
436999
1.10709e+06
1.10769e+06
432240
229272
231917
437175
1.1072e+06
1.1078e+06
432189
229106
231862
437101
1.10733e+06
1.10795e+06
432218
229093
231692
437030
1.10747e+06
1.10762e+06
431848
228991
231581
436750
1.10652e+06
1.10725e+06
431913
228842
231457
436906
1.10681e+06
1.10701e+06
431376
228315
231035
435112
1.10254e+06
1.09725e+06
427237
225599
222102
422564
1.07774e+06
1.0467e+06
413351
216383
194052
382042
982367
917569
358210
180047
161127
326749
865070
70222.9
35222.8
25277.9
18148
11488.5
9584.67
8958.98
6626.37
4822.51
3740.99
2908.25
2226.47
1689.76
1274.4
965.388
738.427
573.628
453.639
365.65
300.418
251.509
214.368
185.938
163.911
146.981
133.907
124.284
117.366
112.856
110.217
109.015
108.108
106.492
104.279
101.612
98.6699
95.542
92.3374
89.0662
85.7499
82.3789
78.948
75.4474
71.8685
68.1987
64.4228
60.5186
56.4516
51.7462
45.1604
36.0612
26.1476
17.5083
11.0165
6.55898
3.68869
1.95665
0.99465
0.520286
0.303814
0.212308
0.176032
0.162075
0.156473
0.153908
0.152239
0.150735
0.149328
0.147941
0.146531
0.145069
0.143533
0.141905
0.140168
0.13831
0.136321
0.134192
0.131918
0.129495
0.126923
0.124206
0.121348
0.11836
0.115252
0.112038
0.108737
0.105363
0.101938
0.098479
0.0950065
0.0915378
0.0880918
0.0846837
0.0813291
0.0780402
0.0748288
0.0717049
0.0686749
0.0657465
0.0629234
0.0602081
0.0576037
0.0551097
0.0527265
0.0504524
0.0482859
0.0462251
0.0442661
0.0424065
0.0406427
0.0389708
0.0373872
0.0358879
0.0344692
0.033127
0.0318577
0.0306579
0.0295235
0.0284514
0.0274382
0.0264809
0.0255761
0.0247211
0.0239133
0.0231499
0.0224285
0.0217466
0.0211021
0.0204929
0.0199171
0.0193726
0.0188579
0.0183711
0.0179108
0.0174754
0.0170637
0.0166743
0.0163059
0.0159575
0.015628
0.0153164
0.0150217
0.0147431
0.0144797
0.0142307
0.0139954
0.0137731
0.0135631
0.0133649
0.0131778
0.0130014
0.012835
0.0126783
0.0125308
0.012392
0.0122617
0.0121393
0.0120247
0.0119174
0.0118173
0.0117239
0.0116371
0.0115567
0.0114824
0.0114141
0.0113516
0.0112948
0.0112436
0.011198
0.0111582
0.0111243
0.0110966
0.011075
0.0110589
0.0110471
0.0110399
0.011037
0.0110364
0.0110364
0.0110364
0.0110365
0.011037
0.0110387
0.0110425
0.0110485
0.0110556
0.0110613
0.0110633
0.0110608
0.0110547
0.0110459
0.0110354
0.0110234
0.0110103
0.0109959
0.0109803
0.0109635
0.0109453
0.0109259
0.0109053
0.0108835
0.0108606
0.0108367
0.0108118
0.0107861
0.0107597
0.0107331
0.0107066
0.0106814
0.0106592
0.0106439
0.0106424
0.0106685
0.0107492
0.010937
0.0113342
0.0121389
0.0137321
0.0168417
0.0228455
0.0343077
0.055924
0.0961333
0.169784
0.302607
0.538711
0.953802
1.67943
2.94594
5.14181
8.817
14.3692
21.2499
27.7598
32.8076
37.9085
50.6134
93.4419
260.426
1136.33
2651.43
7778.88
8940.52
9673.76
10650.9
11134.2
11911.4
12240.9
12876.1
13108.3
13630.8
13808.6
14237.7
14375.6
14733.8
14842
15146.6
15232.2
15495.6
15563.6
15794.6
15848.7
16053.7
16096.6
16280.5
16314.4
16481.1
16507.5
16660.1
16680.5
16821.4
16836.8
16967.7
16978.9
17101.4
17109
17224.4
17229.2
17338.8
17341.4
17446.6
17447.4
17548.3
17547.7
17645.1
17643.7
17738.4
17736.4
17829.7
17827.5
17920
17917.9
18009.9
18007.7
18099.3
18097.2
18189.2
18187.5
18281.5
18281
18377.9
18379.2
18478.7
18481.2
18581.7
18584.8
18686.8
18691.5
18797.9
18805.4
18917.3
18927.3
19041.9
19052.7
19166.6
19176.9
19290.7
19301.6
19419.2
19431.5
19552.5
19564
19678.6
19683.3
19778.1
19773.9
19848
19834.3
19887
19864.3
19890.6
19851.6
19855.4
19762.8
19734.7
19581.7
19525.3
19327.6
19246.2
19005.5
18895.6
18596.4
18463
18117.6
17971.7
17604.9
17453.2
17087.5
16940.8
16599.8
16460.3
16130
15996.1
15667.6
15538.4
15233
15124
14858.6
14764
14529.3
14444.4
14226.4
14148.7
13944.5
13876
13691.8
13636
13472
13424.5
13275.8
13234.1
13103.6
13070.9
12958.3
12931
12824
12798.5
12692.7
12669.9
12567
12563.4
12480.5
12446.6
12462.7
12212.7
12132.9
7683.1
7818.15
5866.7
5760.06
4656.26
4666.71
4561.97
6087.84
7972.65
8098.47
6310.28
6069.82
8043.12
8174.19
6364.09
4624.53
4676.5
6132.41
8129.86
8270.43
6448.26
6213.07
8230.49
8377.06
6531.18
4738.87
4790.59
6291.96
8336.35
8484.26
6617.34
6377.33
8445.99
8600.09
6709.67
4858.82
4923.62
6468.98
8564.98
8730.86
6811.34
6571.27
8699.19
8878.47
6926
4995.46
5067.86
6685.19
8849.14
9040.78
7051.88
6805.16
9013.28
9215.93
7181.21
5146.79
5230.05
6928.92
9191.79
9404.39
7317.11
7061.09
9381.42
9604.87
7462.24
5319.45
5410.9
7201.78
9583.97
9822.26
7617.66
7353.55
9803.82
10061.3
7787.28
5504.79
5602.21
7517.17
10046.3
10322.8
7968.67
7687.99
10310
10594.3
8152.57
5701.4
5799.16
7854.85
10579.9
10866.4
8328.75
8014.44
10849.1
11139.1
8499.45
5890.88
5970.87
8171.04
11120
11415.8
8669.12
8322.31
11392.5
11683.2
8828.22
6037.18
6084.68
8453.67
11651
11922.3
8956.72
8547.88
11877
12114.3
9042.94
6108.99
6105.67
8603.76
12052.4
12254.2
9092.55
8627.81
12177.9
12343.5
9107.34
6084.54
6036.82
8618.21
12241.6
12380.2
9086.48
8577.36
12247.2
12364.1
9028.66
5963.07
5859.11
8503.76
12204.9
12311.2
8941.91
8405.4
12127.1
12227.9
8838.41
5745.54
5624.45
8296.05
12030.1
12127.2
8726.19
8179
11918.4
12010.7
8604.62
5495.9
5363.99
8053.07
11790.8
11879.3
8475.86
7922.39
11651.7
11739.4
8345.14
5233.97
5108.34
7793.06
11511.5
11601
8217.87
7669.8
11377.1
11468.3
8096.73
4986.53
4867.63
7551.21
11248.1
11340.3
7979.22
7435.64
11122.1
11215.2
7864.4
4752.11
4641.11
7323.13
10999.1
11093.9
7753.3
7214.99
10881.6
10978.4
7647.01
4534.41
4430.77
7111.63
10770.5
10869.1
7545.06
7011.97
10664.4
10764.2
7446.16
4328.77
4229.49
6914.84
10561.4
10662
7349.29
6819.75
10460.8
10562.5
7254.47
4132.86
4038.56
6726.92
10363.2
10466
7161.82
6636.18
10268.5
10372
7070.61
3945.9
3854.32
6546.56
10175.2
10279.1
6979.66
6456.96
10081.9
10185.8
6888.02
3763.46
3673.09
6366.7
9987.61
10091.2
6795.12
6275.31
9891.65
9994.83
6700.29
3583
3493.01
6182.08
9793.28
9895.65
6602.35
6085.73
9691.24
9792.36
6499.14
3403.01
3313.21
5984.02
9584.38
9684.05
6389.51
5876
9472.1
9570.29
6274.43
3221.94
3126.92
5762.91
9353.92
9450.4
6153.94
5644.56
9229
9323.39
6027.3
3028.73
2927.02
5520.2
9096.06
9187.85
5893.46
5388.84
8953.57
9042.22
5751.35
2821.25
2710.88
5249.49
8799.96
8884.91
5599.9
5101.14
8633.6
8714.19
5437.92
2595.31
2473.88
4942.67
8452.68
8528.16
5264.19
4772.92
8255.07
8324.55
5077.56
2346.02
2211.5
4590.91
8038.25
8100.6
4877.02
4395.85
7799.01
7852.75
4660.96
2071
1925.56
4186.26
7533.22
7576.4
4426.62
3957.76
7236.1
7266.8
4173.62
1771.45
1608.85
3708.28
6901.87
6917.59
3896.26
3435.35
6523.95
6521.03
3590.66
1437.27
1256.47
3135.1
6090.27
6058.01
3252.29
2805.48
5590.72
5521.95
2878.45
1066.52
867.54
2441.2
5008.71
4895
2462.4
2042.84
4337.6
4140.47
1994.58
660.051
450.727
1605.38
3557.85
3244.38
1476.83
173.651
270.228
371.564
472.332
571.111
667.396
761.029
851.93
940.13
1025.6
1108.87
1190.08
1269.31
1346.71
1422.39
1496.5
1569.19
1640.63
1710.98
1780.38
1849.13
1917.7
1986.51
2055.87
2125.96
2197.03
2269.23
2342.85
2417.77
2495.5
2577.29
2662.98
2752.34
2845.14
2941.58
3042.17
3147.06
3255.8
3368.12
3484.17
3603.7
3724.99
3845.41
3961.52
4071.09
4168.87
4252.11
4318.5
4361.83
4383.36
4380.01
4366.27
4338.52
4297.02
4247.46
4194.69
4142.44
4092.16
4043.16
3995.52
3949.07
3906.43
3867.56
3831.33
3794.89
3760.46
3725.82
3698.91
3664.46
3643.92
3574.1
3703.11
4259.22
4208.76
3703.82
3437.5
3450.55
3223.58
3222.82
3104.23
3110.13
3163.28
3014.69
3030.55
3029.42
3013.2
3014.81
3049.07
3047.85
3132.98
3131.05
3074.15
3383.97
3299.75
3295.73
3513.34
3510.04
3890.27
3872.43
4305.07
4310.02
4079.81
5767.95
5214.86
5106.27
5804
5881.83
8080.76
7600.29
11076.7
11988.9
12396.3
12747.5
12599.6
17176.5
18107.1
31039.7
29586.4
34364.8
20335.8
22068.2
35910.9
35175.8
20301.8
13170.3
8630.57
9217.58
13478.9
20333.9
22336.4
37144
35760.1
37260.8
22463.8
20429.6
13411.5
8812.59
5920.01
4152.33
3399.71
3082.08
3024.86
3191.76
3202.04
3025.97
3076.41
3395.9
3382.98
3066.46
3025.03
3214.57
3223.44
3021.08
3017.76
3235.73
3247.92
3013.24
3021.96
3039.2
3053.89
3366.53
3345.27
3319.07
3287.86
3001.47
3007.41
3260.39
3273.43
3000.6
2992.25
3286.47
3301.38
2983.08
2919.89
2950.6
2977.75
3250.13
3205.78
3154.23
3095.04
2886.54
2974.46
3318.99
3337.98
2966.36
2959.53
3358.71
3381.81
2955.68
2776.05
2813.85
2850.93
3028.22
2954.15
2873.2
3448.62
3588.95
3710.48
3813.48
3896.76
3963.95
4018.33
4061.73
4094.85
4121.72
4139.13
4153.21
4153.75
5931.54
8882.16
9377.9
13791.3
13621.6
13955.8
9488.44
8980.99
5974.5
5979.44
5991.07
5988.18
9255.84
9799.14
9160.71
9692.13
9068.78
9590.99
14119.9
13794.3
20941.6
23004.1
20866.9
22919.3
20675.4
22730.8
20586.4
22637.2
37286.9
35849
35976.8
37435.4
36088.1
37590.3
36231.7
37667.9
36364.5
37871.8
23201.7
21125.6
23263.1
37922.8
36508.4
36598.6
21180.6
13953.1
14279.1
21364.1
23444.9
38085.4
36718.8
38136.1
23518.5
21442.7
14117
14457.8
14296.5
14649
9908.2
9347.73
5979.2
5958.13
5922.58
5870.49
9528.04
10160.3
9490.04
10096.1
9427.59
10009.6
14841.4
14483.9
22069.4
24179
21969.8
24072.3
21751
23839.7
21655.3
23735.7
38356.5
36840.8
37028.8
38476.6
37201.2
38722.6
37405.8
38830.4
37560.1
39083.5
24416.3
22295.9
24532.4
39214.9
37780.8
37955.5
22401.8
14672.1
15032.3
22642.4
24783.6
39486.7
38179.4
39648.4
24916.3
22759.6
14858.6
15218
15039.9
15398.9
10196.6
9540.73
5799.14
5665.35
5479.04
5257.02
9167.04
9927.56
9375.91
10100.2
9495.43
10181.3
15563.3
15214.3
23549.3
25763.5
23409
25601.4
23139.5
25318.1
23013.7
25180.1
39940.6
38392.1
38637
40113.7
38873
40443.5
39158.7
40659.4
39428.8
41026.5
26069.5
23837
26246.3
41308.6
39756.8
40063.2
23981.4
15367
15686.4
24252.8
26547.6
41682.9
40375
41874.8
26711.4
24377
15467.8
15716.1
15476.3
15613
9634.32
8803.41
4959.67
3284.86
2786.11
2738.61
2954.34
3407.13
3434.05
2955.26
2959.48
3460.67
3483.49
2964.4
2649.72
2673.84
2703.8
2696.43
2607.55
2524.15
2451.12
2630.75
2966.55
3495.8
3500.51
2963.97
2946.48
3492.07
3462.2
2913.14
2525.76
2582.95
2613.26
2396.61
2335.68
2248.39
2143.94
2437.63
2848.11
3414.28
3340.87
2757.85
2649.92
3248.02
3142.04
2534.01
2092.87
2212.05
2329.51
2021.18
1893.65
1768.86
1650.95
1976.66
2418.21
3029.6
2914.36
2304.2
2194.7
2799.39
2687.03
2091.01
1666.59
1762.38
1865.92
1542.19
1443.12
1353.62
1116.62
1201.44
1297.83
1406.97
1530.13
1666.76
1815.81
1970.15
2113.18
2241.08
2342.2
2487.55
2702.73
2908.37
3103.88
4601.56
4184.45
3697.11
6486.57
7555.43
7498.74
8479.1
8250.92
9174.54
15245.4
15306.8
25700.7
28060.4
25283.3
27625.5
24858.4
27211.7
24645.9
26994.8
42179.6
40560.7
40648.3
42218.1
40914.8
42561
41451.9
43352.9
42447.9
44335.7
28613.9
26184
29089.2
46019.9
43858
45723.4
26517.1
14755.2
14314.6
26746.6
29485.6
48556
48541.8
52512.5
29326.6
26198.4
13406.4
12803.4
11324.9
9807.14
6204.27
5350.23
3162.39
2674.74
2459.89
2218.91
2721.44
2990.67
3127.34
3597.76
4001.4
4929.21
7738.25
8578.73
14681.9
16982.9