/*--------------------------------*- C++ -*----------------------------------*\
| =========                 |                                                 |
| \\      /  F ield         | OpenFOAM: The Open Source CFD Toolbox           |
|  \\    /   O peration     | Version:  v2006                                 |
|   \\  /    A nd           | Website:  www.openfoam.com                      |
|    \\/     M anipulation  |                                                 |
\*---------------------------------------------------------------------------*/
FoamFile
{
    version     2.0;
    format      ascii;
    class       volScalarField;
    location    "0.115";
    object      alphat;
}
// * * * * * * * * * * * * * * * * * * * * * * * * * * * * * * * * * * * * * //

dimensions      [1 -1 -1 0 0 0 0];


internalField   nonuniform List<scalar> 
38932
(
0.104094
0.104097
0.104125
0.104122
0.104115
0.104103
0.104086
0.104064
0.104036
0.104002
0.103964
0.103921
0.103873
0.10382
0.103763
0.1037
0.103632
0.10356
0.103482
0.1034
0.103313
0.103222
0.103125
0.103024
0.102919
0.102808
0.102693
0.102574
0.10245
0.102322
0.10219
0.102053
0.101912
0.101766
0.101617
0.101464
0.101306
0.101145
0.10098
0.100811
0.100638
0.100462
0.100282
0.100099
0.0999124
0.0997224
0.0995293
0.0993331
0.0991338
0.0989317
0.0987267
0.0985189
0.0983086
0.0980957
0.0978805
0.0976629
0.0974431
0.0972213
0.0969976
0.0967719
0.0965446
0.0963157
0.0960853
0.0958536
0.0956207
0.0953868
0.0951519
0.0949162
0.0946798
0.0944429
0.0942056
0.0939681
0.0937305
0.093493
0.0932557
0.0930187
0.0927822
0.0925465
0.0923115
0.0920775
0.0918446
0.091613
0.0913828
0.0911542
0.0909274
0.0907025
0.0904797
0.090259
0.0900408
0.0898251
0.0896121
0.0894019
0.0891948
0.0889908
0.0887901
0.0885929
0.0883992
0.0882094
0.0880234
0.0878414
0.0876636
0.08749
0.0873209
0.0871564
0.0869964
0.0868413
0.086691
0.0865457
0.0864055
0.0862704
0.0861406
0.0860161
0.0858969
0.0857832
0.0856751
0.0855725
0.0854756
0.0853846
0.0852994
0.0852202
0.0851467
0.0850773
0.0850053
0.0849022
0.0847682
0.0844365
0.0833977
0.0790839
0.064092
0.0229162
0.00837931
0.000314723
0.000326271
0.00353311
0.00945234
0.00655833
0.00238175
0.000321366
0.00031277
0.00187065
0.00512709
0.0044098
0.00157918
0.000303691
0.00029213
0.00140518
0.00391114
0.00360881
0.00130691
0.000282733
0.000273348
0.00122521
0.00341631
0.00328935
0.00118312
0.000265777
0.000259828
0.00115211
0.00319453
0.00312095
0.00112849
0.000254885
0.000250653
0.00110959
0.00305955
0.00300567
0.00109361
0.000247028
0.000243886
0.00107948
0.0029564
0.00290991
0.00106648
0.000241133
0.000238689
0.0010542
0.0028654
0.00282238
0.00104236
0.00023649
0.000234486
0.00103086
0.00278064
0.00274011
0.00101964
0.000232637
0.000230913
0.00100869
0.00270075
0.00266258
0.000998002
0.000229289
0.000227747
0.000987599
0.00262561
0.00258983
0.00097749
0.000226272
0.000224851
0.000967685
0.00255524
0.00252183
0.00095819
0.000223476
0.000222138
0.00094901
0.00248957
0.00245842
0.000940141
0.000220833
0.000219554
0.000931579
0.00242834
0.00239929
0.000923316
0.000218298
0.00021706
0.000915344
0.00237123
0.00234409
0.000907651
0.000215837
0.000214627
0.000900227
0.00231785
0.00229245
0.000893061
0.000213427
0.000212233
0.000886141
0.00226786
0.00224402
0.000879456
0.000211045
0.000209859
0.000872997
0.00222092
0.0021985
0.000866752
0.000208674
0.000207487
0.000860713
0.00217674
0.0021556
0.00085487
0.000206297
0.000205101
0.000849216
0.00213506
0.00211508
0.000843742
0.000203898
0.000202687
0.000838442
0.00209565
0.00207675
0.00083331
0.000201465
0.00020023
0.000828339
0.00205834
0.00204042
0.000823525
0.000198981
0.000197717
0.000818863
0.00202296
0.00200595
0.000814348
0.000196434
0.000195133
0.000809977
0.00198937
0.00197322
0.000805748
0.000193811
0.000192465
0.000801657
0.00195747
0.00194212
0.000797702
0.000191096
0.000189699
0.000793882
0.00192716
0.00191258
0.000790196
0.000188275
0.00018682
0.000786643
0.00189837
0.00188453
0.000783223
0.000185333
0.000183812
0.000779937
0.00187106
0.00185794
0.000776786
0.000182254
0.000180657
0.000773774
0.00184519
0.00183279
0.000770903
0.000179019
0.000177338
0.000768177
0.00182076
0.0018091
0.000765601
0.000175611
0.000173836
0.000763184
0.00179782
0.00178692
0.00076093
0.000172009
0.000170129
0.000758853
0.00177643
0.00176634
0.00075696
0.000168193
0.000166197
0.000755268
0.0017567
0.00174751
0.000753789
0.000164139
0.000162016
0.000752544
0.00173882
0.00173064
0.000751555
0.000159826
0.000157566
0.000750846
0.00172303
0.00171603
0.000750445
0.000155232
0.000152825
0.000750399
0.00170973
0.00170415
0.000750736
0.00015034
0.000147778
0.000751528
0.00169944
0.0016956
0.000752802
0.000145136
0.000142418
0.000754667
0.00169287
0.00169122
0.000757158
0.000139622
0.000136753
0.000760421
0.00169101
0.00169218
0.000764518
0.000133816
0.000130819
0.000769604
0.00169513
0.00170004
0.000775818
0.000127773
0.000124695
0.000783358
0.00170724
0.00171676
0.000792305
0.000121601
0.000118517
0.00080291
0.00172929
0.001745
0.000815336
0.000115468
0.000112491
0.000829676
0.00176398
0.00178561
0.000845573
0.000109586
0.000106788
0.000863342
0.0018113
0.00184021
0.000882504
0.00010409
0.000101473
0.000902644
0.00187267
0.00190818
0.000923546
9.89407e-05
9.6233e-05
0.000941255
0.00194524
0.00198322
0.000954195
9.46113e-05
9.41182e-05
0.000957664
0.00202172
0.00206406
0.000957615
9.2988e-05
9.09609e-05
0.000950043
0.00209603
0.00210657
0.00092992
8.78569e-05
8.38002e-05
0.000895226
0.0020885
0.00204011
0.000846786
7.8898e-05
7.336e-05
0.000783888
0.0019569
0.00183512
0.000707221
6.76721e-05
6.23985e-05
0.000621378
0.00167524
0.00146466
0.000523848
5.78166e-05
5.52071e-05
0.000416738
0.00121262
0.00102727
0.00035363
5.44112e-05
5.44228e-05
0.000324778
0.000926843
0.000881754
0.000310009
5.504e-05
5.57345e-05
0.000302819
0.00086315
0.000858754
0.000302679
5.65548e-05
5.73205e-05
0.000306957
0.000868097
0.000886967
0.000313837
5.79806e-05
5.85311e-05
0.000321428
0.000907544
0.000929117
0.000329847
5.89311e-05
5.91378e-05
0.000337787
0.000950901
0.000970147
0.000344692
5.92021e-05
5.91781e-05
0.00034988
0.000987108
0.00100487
0.000355949
5.89969e-05
5.86221e-05
0.000360074
0.00101771
0.00102799
0.000363772
5.81323e-05
5.74932e-05
0.000366487
0.00103533
0.00103911
0.000368204
5.67154e-05
5.58349e-05
0.000369026
0.00103981
0.00103695
0.00036868
5.47978e-05
5.36687e-05
0.000367495
0.00103099
0.00102162
0.000365216
5.24248e-05
5.10549e-05
0.00036192
0.00100904
0.000993265
0.000357715
4.95842e-05
4.80143e-05
0.000352568
0.000974367
0.000952169
0.000346414
4.63103e-05
4.45186e-05
0.000339432
0.000926736
0.000897469
0.000331319
4.25517e-05
4.05526e-05
0.000322285
0.000863923
0.000825017
0.000311655
3.83013e-05
3.57451e-05
0.000299275
0.000778862
0.000720541
0.000283424
3.26766e-05
2.92595e-05
0.000262449
0.000643385
0.000536571
0.000231687
2.47492e-05
1.92678e-05
0.000184775
0.000389008
0.000196866
9.98107e-05
1.42184e-05
9.09801e-06
4.37474e-05
4.95378e-05
6.23371e-05
8.45301e-05
0.000104796
0.000126067
0.000140003
0.000153691
0.000163178
0.000172179
0.000179251
0.000185464
0.000190678
0.000195215
0.000197299
0.00019971
0.000199992
0.000221553
0.000212847
0.000203931
0.000188087
0.00011929
6.66337e-05
8.27903e-05
9.85069e-05
6.64423e-05
3.17717e-05
3.46092e-05
3.62274e-05
3.33715e-05
2.94265e-05
2.57721e-05
1.50912e-05
1.1679e-05
9.32057e-06
7.51698e-06
5.67672e-06
1.24194e-05
2.29411e-05
3.68583e-05
6.32836e-05
0.000157783
0.000110581
6.71285e-05
2.82694e-05
7.16565e-06
9.06066e-06
5.31468e-05
0.00012622
0.000196729
0.00026612
0.000349622
0.000253957
0.000161147
6.69408e-05
1.05095e-05
1.12486e-05
7.61819e-05
0.000184821
0.000295551
0.000406564
0.000441073
0.000322015
0.000198929
8.1693e-05
1.17613e-05
1.182e-05
8.33054e-05
0.000203503
0.000330354
0.000453285
0.000452914
0.000329274
0.000202404
8.26812e-05
1.1621e-05
1.12835e-05
8.13732e-05
0.000198858
0.000323643
0.000446069
0.000435308
0.000316586
0.000194785
8.01257e-05
1.08646e-05
1.05039e-05
7.94095e-05
0.000192023
0.000311266
0.00042756
0.000425107
0.000308664
0.000190786
7.95197e-05
1.01997e-05
9.93985e-06
7.96886e-05
0.000189913
0.00030715
0.000423646
0.000422778
0.000305517
0.000188786
7.95621e-05
9.62069e-06
9.23042e-06
7.82028e-05
0.000185749
0.000302112
0.000420404
0.000410915
0.000292719
0.000178585
7.45375e-05
8.62841e-06
8.03545e-06
6.73143e-05
0.000165037
0.000276224
0.000394713
0.000371301
0.000252502
0.000145582
5.71849e-05
7.18712e-06
5.79385e-06
4.31449e-05
0.000119006
0.000220721
0.000340614
0.000298503
0.000178767
8.09928e-05
2.28096e-05
3.63809e-06
2.43806e-06
1.10804e-05
5.12973e-05
0.000126776
0.000240538
0.000169827
7.45998e-05
3.37051e-05
9.82594e-06
2.5247e-06
3.00078e-06
6.08468e-06
2.11723e-05
5.39586e-05
0.000102569
7.46094e-05
2.98178e-05
1.03499e-05
5.08664e-06
6.09615e-06
6.01883e-06
5.15505e-06
1.07533e-05
3.16061e-05
7.8388e-05
8.04286e-05
3.07164e-05
1.01608e-05
5.63796e-06
6.47824e-06
6.32277e-06
6.14839e-06
1.11216e-05
3.24655e-05
8.2913e-05
8.45771e-05
3.5843e-05
1.34141e-05
6.29576e-06
5.47284e-06
6.02598e-06
6.13627e-06
1.4057e-05
3.72211e-05
8.66283e-05
8.94135e-05
3.66142e-05
1.35591e-05
6.62955e-06
7.41458e-06
7.34717e-06
7.27908e-06
1.37111e-05
3.51098e-05
8.65174e-05
8.60471e-05
3.66968e-05
1.46681e-05
7.97718e-06
6.48218e-06
5.49835e-06
9.03049e-06
1.74021e-05
4.05446e-05
8.86438e-05
8.77248e-05
3.77653e-05
1.64119e-05
9.36947e-06
6.59705e-06
6.59099e-06
8.79363e-06
2.04373e-05
4.6874e-05
0.000100969
0.000126272
5.89672e-05
2.40129e-05
7.71438e-06
8.1001e-06
8.23437e-06
8.72631e-06
2.14762e-05
5.14971e-05
0.000115845
0.000114433
5.37857e-05
2.18251e-05
8.93785e-06
7.14079e-06
6.64309e-06
1.04985e-05
2.43355e-05
5.70022e-05
0.000116088
0.000121998
6.21396e-05
2.68072e-05
9.30932e-06
6.48182e-06
7.51226e-06
9.8216e-06
2.7116e-05
6.10838e-05
0.000124032
0.000136669
7.22526e-05
3.10217e-05
1.06552e-05
5.89324e-06
6.87707e-06
1.01779e-05
3.18288e-05
7.11928e-05
0.000135822
0.000138911
7.1014e-05
3.02677e-05
1.03179e-05
7.60055e-06
7.21159e-06
1.29169e-05
3.16714e-05
6.74422e-05
0.000131505
0.000134019
7.02452e-05
3.18189e-05
1.17424e-05
8.00547e-06
9.33737e-06
1.18185e-05
3.4241e-05
7.05414e-05
0.000136638
0.000142606
7.38946e-05
3.36673e-05
1.17054e-05
8.2282e-06
8.00691e-06
1.44555e-05
3.68695e-05
7.66449e-05
0.000144371
0.000153913
8.46814e-05
3.96088e-05
1.30559e-05
7.28651e-06
8.28596e-06
1.22089e-05
4.15642e-05
8.37475e-05
0.000153664
0.000155765
8.31775e-05
3.91359e-05
1.28294e-05
9.33267e-06
8.79799e-06
1.55836e-05
4.22404e-05
8.36964e-05
0.000156453
0.000162454
8.86538e-05
4.17565e-05
1.53078e-05
8.55813e-06
9.82639e-06
1.44583e-05
4.65615e-05
9.37084e-05
0.000168576
0.000175992
9.71634e-05
4.65859e-05
1.33234e-05
8.63633e-06
9.41669e-06
1.54292e-05
4.80549e-05
9.47667e-05
0.000174883
0.000181067
0.000102315
4.95084e-05
1.68346e-05
8.34433e-06
9.02049e-06
1.51347e-05
5.31201e-05
0.000103156
0.000182177
0.00018723
0.000103657
4.98522e-05
1.51126e-05
1.02279e-05
1.01923e-05
1.83176e-05
5.38933e-05
0.000103259
0.000187234
0.000194802
0.000110032
5.32392e-05
1.81683e-05
9.53495e-06
1.13234e-05
1.69013e-05
5.79885e-05
0.000113953
0.000201489
0.00020889
0.000117231
5.73363e-05
1.58975e-05
9.61626e-06
1.03823e-05
2.00881e-05
6.04195e-05
0.000117522
0.000208798
0.00022223
0.000128734
6.24592e-05
1.79064e-05
9.02577e-06
1.05962e-05
1.74288e-05
6.51187e-05
0.000122099
0.000219733
0.000222773
0.00012971
6.38441e-05
2.08178e-05
9.59652e-06
1.03055e-05
1.83866e-05
6.81365e-05
0.000129003
0.000223289
0.000227468
0.000130035
6.42749e-05
1.91025e-05
1.12524e-05
1.07039e-05
2.47247e-05
7.10906e-05
0.000132383
0.000227396
0.000237976
0.000137313
6.7108e-05
1.985e-05
1.15572e-05
1.3637e-05
2.13365e-05
7.29924e-05
0.000133139
0.000238461
0.00024605
0.000142915
7.11533e-05
2.24052e-05
1.12406e-05
1.31576e-05
2.18617e-05
7.62647e-05
0.000148425
0.000253915
0.000260463
0.000148776
7.51705e-05
2.00878e-05
1.12298e-05
1.23759e-05
2.50985e-05
8.0314e-05
0.000150018
0.00026055
0.000276384
0.000161472
7.9808e-05
2.23177e-05
1.08501e-05
1.24114e-05
2.21952e-05
8.67117e-05
0.000154736
0.000275119
0.000287239
0.000170886
8.49073e-05
2.66973e-05
1.12032e-05
1.19847e-05
2.20513e-05
8.84518e-05
0.00016435
0.000283822
0.000283288
0.00016668
8.38283e-05
2.49927e-05
1.29332e-05
1.20768e-05
2.86356e-05
9.22797e-05
0.000172529
0.000286425
0.000293821
0.000171108
8.50396e-05
2.43605e-05
1.40735e-05
1.59861e-05
2.58869e-05
9.16414e-05
0.000164775
0.00028958
0.000293926
0.000171384
9.00136e-05
2.56958e-05
1.33567e-05
1.36599e-05
3.2758e-05
9.57514e-05
0.000180093
0.00029999
0.000307929
0.000181823
9.20394e-05
2.93141e-05
1.38519e-05
1.34486e-05
3.22915e-05
9.48623e-05
0.000186159
0.000311648
0.000291432
0.000158708
8.65502e-05
2.51601e-05
1.43937e-05
1.47669e-05
2.60459e-05
9.3242e-05
0.000149868
0.000282217
0.000301249
0.00016009
9.07103e-05
2.82299e-05
2.04416e-05
1.62452e-05
2.77114e-05
8.76738e-05
0.000201158
0.000360655
0.00050293
0.000277839
0.000125003
4.31231e-05
2.20126e-05
2.80953e-05
7.3773e-05
0.000219647
0.000496356
0.000896537
0.00111317
0.000680627
0.000341585
0.000118244
3.53642e-05
4.30072e-05
0.000176901
0.000471387
0.000865363
0.00134385
0.00155768
0.00104573
0.000598701
0.000237585
5.01696e-05
5.6289e-05
0.000297338
0.000716648
0.00121011
0.0017548
0.00193817
0.00136332
0.000824592
0.000346774
6.12071e-05
6.61585e-05
0.000394503
0.000922381
0.001501
0.00210195
0.00223192
0.00162191
0.00101305
0.000441418
7.08948e-05
7.50942e-05
0.000489619
0.00110531
0.00175035
0.00239215
0.00254318
0.00186516
0.00118348
0.000527489
7.87756e-05
8.30794e-05
0.000556207
0.00125648
0.00197996
0.00270164
0.00286512
0.00209937
0.00133309
0.000593437
8.84288e-05
9.73452e-05
0.000627201
0.00140979
0.00220913
0.00299461
0.00312482
0.00233188
0.00150527
0.000684154
0.000106382
0.00011376
0.000746052
0.00161451
0.00248386
0.0033175
0.00351251
0.0026385
0.00172428
0.000801973
0.000120527
0.0001274
0.000866771
0.00183412
0.00279073
0.00370022
0.00389046
0.00293389
0.00193661
0.000931304
0.000131847
0.000132707
0.000964382
0.00199422
0.00302535
0.00406743
0.0039215
0.00296409
0.00195764
0.000943728
0.000130157
0.000127387
0.00091615
0.0018946
0.00284194
0.00369622
0.00388044
0.00291664
0.00192518
0.000922363
0.000129688
0.000131227
0.000963845
0.00200922
0.00305
0.00405703
0.00423297
0.00318589
0.00210321
0.00101908
0.000134665
0.000135204
0.00104751
0.00218335
0.00331052
0.00439853
0.00454955
0.00342172
0.00225306
0.00107859
0.00013907
0.000135589
0.00108022
0.00227769
0.00348212
0.00466562
0.00464094
0.00343134
0.00224051
0.0010657
0.00013367
0.000124465
0.00100469
0.00211192
0.00320753
0.00421968
0.00377202
0.00291256
0.00193784
0.000922336
0.000114856
0.00010532
0.000851214
0.0018001
0.00274917
0.00370349
0.00348195
0.00260456
0.00169477
0.000792051
9.89176e-05
9.22175e-05
0.000742811
0.00159405
0.00243732
0.00321251
0.00326363
0.00240867
0.00155778
0.000723564
9.12852e-05
8.96011e-05
0.000717455
0.00156091
0.0024295
0.0032988
0.00329059
0.00243091
0.00156277
0.000718799
9.01099e-05
8.95746e-05
0.000720224
0.00156241
0.00243054
0.00329345
0.00330654
0.00243731
0.00156429
0.000722795
9.08077e-05
8.91064e-05
0.000723029
0.00157164
0.00245493
0.00333992
0.00337252
0.0024501
0.00156804
0.000723015
8.92216e-05
8.59269e-05
0.000702183
0.00151807
0.00236039
0.00319255
0.00299143
0.00224736
0.00144984
0.000668955
8.2824e-05
8.35979e-05
0.000671173
0.00146674
0.00229267
0.003128
0.00326076
0.00238932
0.00152522
0.00069886
8.69449e-05
8.92481e-05
0.000735218
0.00159222
0.00248952
0.00339139
0.00351856
0.00257863
0.00164984
0.000761109
8.96104e-05
8.80759e-05
0.000760517
0.00165955
0.00261189
0.00361165
0.00343175
0.00253072
0.00161628
0.000737315
8.45973e-05
8.03393e-05
0.000708078
0.00156066
0.00242578
0.00323238
0.0033972
0.00248636
0.00158041
0.000707621
7.91373e-05
8.29394e-05
0.000731749
0.00164371
0.00259769
0.00356344
0.00371707
0.00271196
0.00171768
0.000764572
8.61446e-05
8.83137e-05
0.000792049
0.00177475
0.0028104
0.00386058
0.00397819
0.00285655
0.001799
0.000804895
8.92276e-05
8.80734e-05
0.000797177
0.001766
0.00278102
0.00378977
0.00359124
0.00268908
0.00172864
0.000784267
8.71511e-05
8.77773e-05
0.000793628
0.00176475
0.00277059
0.00378518
0.00398408
0.00290804
0.00184126
0.000823471
9.03969e-05
9.49198e-05
0.000857562
0.00192551
0.00304406
0.00417486
0.00435511
0.0031713
0.00200418
0.000902884
9.7978e-05
9.90703e-05
0.000913656
0.00204082
0.00323645
0.0045089
0.0043085
0.00315857
0.00200821
0.000907308
9.77029e-05
9.59721e-05
0.000901584
0.00198185
0.0030772
0.00410547
0.00433934
0.00318052
0.00202869
0.000915047
9.66739e-05
9.939e-05
0.000951337
0.00212628
0.00334971
0.00458154
0.00482031
0.00351126
0.00221907
0.000992977
0.000104179
0.000107353
0.00102075
0.0022704
0.00360167
0.0050199
0.00481905
0.00353977
0.00225956
0.00102173
0.000107381
0.000105922
0.00101909
0.00223591
0.0034713
0.00462046
0.00490053
0.00359709
0.00229245
0.00103619
0.000107361
0.000111952
0.00107892
0.00239537
0.00377983
0.00519047
0.00543574
0.00389066
0.00245684
0.00111243
0.000115888
0.000114956
0.00111444
0.00244776
0.00383851
0.00523497
0.00504748
0.00378692
0.00244129
0.00111494
0.000115408
0.000117957
0.00114541
0.0025251
0.00395037
0.00537491
0.0057128
0.00416745
0.00264216
0.0011943
0.000122454
0.000126279
0.00123129
0.0027188
0.0043107
0.00601978
0.00582249
0.00427585
0.00273737
0.00124987
0.000128046
0.000129536
0.0012712
0.00275529
0.00424868
0.00564538
0.00603779
0.00444933
0.00285999
0.00130907
0.000131618
0.000133877
0.00135588
0.00300461
0.00472498
0.00645773
0.00684785
0.00492276
0.00311285
0.00141404
0.000142969
0.000150921
0.00146945
0.00316722
0.00492041
0.00667589
0.00653304
0.00493504
0.00322367
0.00151185
0.000158701
0.000166969
0.00157626
0.00334629
0.00517672
0.00700721
0.00748444
0.0054072
0.00347018
0.00163545
0.000174326
0.000177433
0.00167134
0.00351857
0.0054182
0.00732269
0.00719642
0.00544217
0.00356427
0.00169316
0.000174104
0.000169359
0.00169787
0.00366292
0.00570316
0.00773066
0.00828504
0.00594109
0.00374679
0.00167902
0.000156843
0.000159772
0.00168187
0.00378949
0.00597598
0.00813938
0.0080762
0.00605386
0.00389028
0.00176267
0.000175208
0.000190987
0.0018517
0.00403726
0.0063193
0.00873488
0.00869744
0.00644565
0.00416725
0.00193882
0.000205272
0.000222102
0.00204454
0.00432184
0.00661384
0.00872223
0.0094873
0.00694332
0.00451022
0.00214868
0.000237797
0.000253218
0.00225056
0.00467041
0.00711191
0.00950412
0.00957074
0.00732621
0.00486331
0.00236512
0.000270043
0.000286065
0.00248644
0.00509046
0.00771968
0.010433
0.0105052
0.00793322
0.0052847
0.0025986
0.000302843
0.000321203
0.00272345
0.00550833
0.00820259
0.0105999
0.0114961
0.0085809
0.00569476
0.00281518
0.000331234
0.000317063
0.00280334
0.00570477
0.00862473
0.0114757
0.0113991
0.00854445
0.00558528
0.00269066
0.000310044
0.000331693
0.00267528
0.00551607
0.00849175
0.0114079
0.0117096
0.0086942
0.00564552
0.00277444
0.000373737
0.000389748
0.00289999
0.00588568
0.00896702
0.0119671
0.0127176
0.00949074
0.00617688
0.0029749
0.000374537
0.000340303
0.00290855
0.0062476
0.00970841
0.0132515
0.0129408
0.00962706
0.00624543
0.00296849
0.000355627
0.000431924
0.00318393
0.00634496
0.00954777
0.0126746
0.0124382
0.0094467
0.00643724
0.00339139
0.000498366
0.000524028
0.00344248
0.00629786
0.00920577
0.0121179
0.0116374
0.00870985
0.00580746
0.00298859
0.000521403
0.000498985
0.00239563
0.00503346
0.0078767
0.0108183
0.00912039
0.00662946
0.00416688
0.00188061
0.000441092
0.000377939
0.00151092
0.003515
0.00577268
0.00809408
0.00711973
0.00504745
0.00310592
0.00138264
0.000339797
0.000316333
0.0012041
0.00279171
0.00462667
0.0066292
0.00596092
0.00419298
0.00253344
0.00107991
0.00028901
0.000267393
0.000964647
0.0023483
0.00396551
0.00573669
0.00520439
0.00360878
0.00212628
0.000847516
0.000238059
0.000200478
0.000766537
0.00202966
0.00352001
0.0051663
0.00475373
0.00329443
0.0019182
0.000713384
0.000178516
0.000180391
0.000783772
0.00195626
0.00332958
0.00486645
0.00455739
0.0032182
0.00195227
0.000822586
0.000179853
0.000177084
0.000866032
0.0020112
0.00331219
0.00474991
0.00460647
0.00322432
0.00199595
0.000879375
0.000173643
0.000165681
0.000855656
0.00190429
0.0030023
0.00405825
0.00419495
0.00303852
0.001928
0.000868878
0.000157789
0.000156201
0.000918937
0.00194605
0.0030035
0.00408239
0.00434593
0.00315564
0.00203599
0.000977457
0.000160851
0.000166059
0.00100867
0.0020589
0.00314883
0.00434013
0.00396754
0.00302457
0.0020326
0.00102723
0.000170082
0.000170593
0.00102115
0.00205192
0.00308985
0.00414731
0.00414059
0.00305469
0.00203711
0.00101639
0.000169184
0.000165014
0.00097932
0.00197081
0.00292585
0.00381012
0.00397482
0.00297538
0.00196821
0.000945782
0.000158472
0.000151672
0.000934189
0.00194395
0.00293582
0.00397463
0.00366451
0.00281844
0.00188727
0.000906216
0.000145433
0.000139464
0.000909259
0.00190697
0.00287198
0.00381333
0.00379989
0.00289397
0.00194624
0.000953998
0.000137998
0.00014242
0.00100808
0.00203879
0.00305169
0.00405659
0.00411908
0.00307753
0.00207049
0.0010373
0.000146045
0.000147669
0.00103893
0.00205447
0.00300122
0.00386494
0.00405382
0.00308659
0.00208729
0.0010522
0.000148522
0.000149519
0.00106103
0.00209596
0.0030918
0.00410663
0.00385566
0.00300874
0.00206564
0.00104983
0.000149314
0.000149804
0.00106215
0.00209907
0.00308867
0.00403808
0.00409009
0.00308249
0.00208989
0.00105101
0.000149176
0.000148033
0.00104161
0.00205786
0.00300035
0.003848
0.00402339
0.00307298
0.00207828
0.00104108
0.000146766
0.000145292
0.0010271
0.00207162
0.00307275
0.00407968
0.00383878
0.00298806
0.00203632
0.00101473
0.000142953
0.000141396
0.00101621
0.00206187
0.00306206
0.00401455
0.00407464
0.00306208
0.00205783
0.00101377
0.00013966
0.000137362
0.000994272
0.00202411
0.00298619
0.00383975
0.00401915
0.00306739
0.0020637
0.00101955
0.000136896
0.000136657
0.00101441
0.00206152
0.00307024
0.00408858
0.00385907
0.00299877
0.00203289
0.00100503
0.000135483
0.000134252
0.00100246
0.00206536
0.00308295
0.00404738
0.00412497
0.00308763
0.00205338
0.000992211
0.00013203
0.000127933
0.000943384
0.00197736
0.00296754
0.00391515
0.00365661
0.00283116
0.0018925
0.000898332
0.000122992
0.000119958
0.000898211
0.00190201
0.00287788
0.00380387
0.003864
0.00287273
0.00189694
0.000901392
0.000118196
0.000117252
0.000902009
0.00187404
0.00280468
0.00364203
0.00381833
0.00288691
0.00191148
0.000914329
0.000117078
0.000116449
0.000909203
0.00191053
0.00289148
0.00388866
0.00366716
0.0028248
0.00188568
0.000903709
0.000115339
0.000115008
0.000904089
0.0019148
0.00290281
0.0038431
0.00391655
0.00290988
0.00191805
0.000913368
0.000114399
0.000113933
0.000893039
0.00188844
0.00284077
0.00368981
0.00386592
0.00291738
0.00192113
0.000906576
0.000113031
0.000113001
0.000901743
0.00191658
0.00291648
0.00393355
0.00370166
0.00284472
0.00188825
0.000892757
0.000111982
0.000111744
0.000902375
0.00191738
0.00291823
0.0038743
0.00394016
0.00291866
0.00191278
0.000894442
0.000111301
0.000109977
0.000881849
0.0018803
0.0028402
0.0037029
0.00387235
0.00291032
0.00190562
0.00089104
0.000109744
0.000109161
0.000882263
0.00189809
0.00290875
0.00393758
0.00369517
0.00282716
0.00186001
0.000862492
0.000107389
0.00010619
0.000872108
0.00188595
0.00289281
0.00386088
0.00392005
0.00288529
0.00187781
0.000871824
0.000105566
0.000104464
0.000852166
0.0018413
0.00280699
0.00367757
0.00384098
0.00287215
0.00186626
0.000858946
0.000103272
0.000102904
0.000857558
0.00185773
0.00286644
0.00389674
0.00365651
0.00278873
0.00182835
0.000842049
0.000101702
0.000100183
0.000842513
0.00184748
0.00285288
0.00382061
0.00387746
0.00284606
0.00184062
0.000845351
9.92932e-05
9.87168e-05
0.000826598
0.00181261
0.00277651
0.00364561
0.00382058
0.00285129
0.00184314
0.000839962
9.83745e-05
9.88937e-05
0.000838503
0.00184725
0.00286118
0.00389734
0.00369567
0.00281311
0.00183895
0.000840362
9.86753e-05
0.00010108
0.000860869
0.00189066
0.00292206
0.00390897
0.0040231
0.00296596
0.00192137
0.000878173
0.000102485
0.000106238
0.000899206
0.00195785
0.00297874
0.00389204
0.00417746
0.00315832
0.00206231
0.000945614
0.000106769
0.000117976
0.000997668
0.00215647
0.00329422
0.00443313
0.00438932
0.00338542
0.00225125
0.00105112
0.000118443
0.000138305
0.00115016
0.00244989
0.00365023
0.00468939
0.00513453
0.00402524
0.0027199
0.00127978
0.000147511
0.0001704
0.0014429
0.00308499
0.00463661
0.00604214
0.00656538
0.00495091
0.00329072
0.00154194
0.000180938
0.000189594
0.00156277
0.00330634
0.00495693
0.00652264
0.00618087
0.00482301
0.00324795
0.00154336
0.000191472
0.000195474
0.00156275
0.00330304
0.00494181
0.00644155
0.00651912
0.00502827
0.00338422
0.0016097
0.000202936
0.000210902
0.0016818
0.00353672
0.00531524
0.00694871
0.0071149
0.00537646
0.00358805
0.001716
0.000218812
0.000223999
0.00171004
0.00354444
0.00524693
0.00672347
0.00703012
0.00538546
0.00360023
0.00172331
0.000214845
0.000212942
0.00171978
0.00358892
0.00538283
0.00714007
0.00670863
0.00522214
0.00351422
0.00168738
0.00020997
0.000209065
0.00170621
0.00356887
0.00535348
0.00700267
0.0071043
0.0053502
0.00356539
0.00171133
0.000209245
0.000208077
0.00168251
0.00349388
0.00518826
0.00667138
0.00696478
0.00531478
0.00353965
0.00169139
0.000206862
0.000206055
0.00169174
0.00353255
0.00531145
0.00706673
0.00663223
0.00514555
0.0034534
0.00164851
0.000204316
0.000203883
0.00166645
0.00350241
0.00527421
0.00692824
0.00702998
0.00527234
0.00349696
0.00166887
0.000203828
0.000201861
0.00163751
0.00342476
0.00510873
0.00659445
0.00688711
0.00523258
0.00346813
0.00164559
0.000200843
0.000199812
0.00163083
0.00344626
0.00521996
0.0069781
0.00653327
0.0050464
0.00336539
0.00159571
0.000197768
0.00019619
0.00159225
0.00339388
0.00515643
0.00681687
0.0068809
0.00513016
0.00337155
0.00158206
0.000193641
0.000192055
0.00155879
0.00329428
0.00495391
0.00642812
0.00666798
0.00505259
0.00333792
0.00157456
0.000193194
0.00019628
0.00159966
0.00338662
0.00509522
0.00667818
0.00707965
0.00534569
0.00350573
0.00164351
0.000200597
0.000202621
0.00164827
0.00351992
0.0053516
0.00717238
0.0067091
0.00516815
0.0034325
0.00162189
0.000202061
0.00020087
0.00162262
0.00346279
0.00527381
0.00699017
0.00702808
0.00522523
0.00342094
0.00160203
0.000198267
0.000195575
0.00155933
0.00332708
0.0050297
0.00653776
0.00677303
0.00511196
0.00335624
0.00156782
0.000194848
0.000196911
0.00158542
0.00339307
0.00513809
0.0067598
0.00716138
0.00538111
0.00350588
0.00162559
0.00019976
0.000200887
0.00163084
0.00350771
0.00537
0.00723107
0.00673263
0.00516464
0.00340876
0.00159292
0.000199595
0.000197768
0.0015908
0.0034312
0.00526563
0.00701532
0.00703834
0.00520492
0.00338354
0.00156433
0.000195693
0.000193879
0.00152935
0.00328363
0.00499137
0.00651719
0.00675101
0.00506794
0.00330603
0.00153122
0.000193589
0.000195218
0.00154839
0.00333816
0.00508364
0.00672256
0.00712588
0.00532409
0.00344232
0.00158357
0.000198191
0.000198782
0.00158476
0.00344201
0.00530812
0.00718376
0.00665617
0.00508825
0.00334052
0.00154989
0.000197103
0.000195521
0.00154389
0.00335275
0.00517825
0.00693328
0.00694448
0.00511359
0.00330222
0.00151461
0.00019348
0.000190418
0.00146187
0.00318627
0.00487806
0.0064017
0.00662907
0.00494975
0.0031995
0.00146645
0.000189557
0.000190664
0.00147909
0.00322487
0.00494615
0.00657763
0.00697527
0.00517151
0.00331417
0.00151013
0.000192625
0.000193378
0.00151035
0.00330567
0.00513558
0.00700055
0.00644756
0.00490581
0.00320206
0.00147584
0.000191412
0.000191713
0.00147645
0.0032174
0.00497906
0.00667708
0.00662017
0.00497831
0.00324632
0.00149386
0.000193981
0.000196245
0.00151948
0.00332573
0.00518965
0.00701166
0.00703166
0.00515366
0.00330798
0.00151024
0.00019572
0.00019304
0.00145495
0.00319104
0.00490232
0.00645136
0.00667827
0.00496632
0.00319361
0.00145267
0.000191836
0.000192683
0.00145992
0.00320512
0.00494712
0.00660192
0.00699211
0.00515515
0.00328549
0.00148593
0.000193928
0.000193626
0.00148179
0.00326811
0.00511149
0.00699998
0.00640664
0.00485707
0.00315334
0.00144406
0.000192118
0.000191986
0.00143751
0.00315914
0.00492124
0.00663435
0.00655296
0.00490162
0.00317323
0.00144647
0.000193005
0.000194719
0.00147178
0.0032536
0.00511403
0.00694671
0.00695395
0.00506593
0.00322969
0.0014661
0.000194861
0.000193035
0.00140746
0.00310642
0.00480274
0.00634876
0.00657487
0.00485843
0.0031003
0.00139709
0.00019161
0.000192319
0.00141269
0.0031151
0.00483686
0.00648828
0.00687425
0.00504241
0.00319298
0.00143593
0.0001938
0.000192558
0.00142678
0.00316515
0.00498947
0.00687256
0.00625262
0.00471882
0.00303915
0.00137282
0.00018973
0.000187779
0.00136231
0.00303283
0.00477023
0.00647689
0.00636973
0.00473431
0.00303409
0.0013647
0.000187972
0.000189235
0.00138745
0.00310253
0.00492657
0.00675181
0.00674084
0.00487006
0.00307126
0.00136139
0.000188217
0.000184268
0.00129492
0.00292611
0.00458393
0.00610275
0.00631988
0.00462357
0.00291419
0.00128732
0.000181811
0.000183801
0.00130724
0.00292609
0.00459502
0.00620715
0.00655293
0.00478119
0.00302103
0.00135104
0.000188328
0.000191572
0.00137573
0.00306202
0.00478829
0.00645777
0.00686387
0.00500501
0.00314489
0.00140547
0.000194479
0.00019463
0.00139685
0.00312656
0.00495271
0.00684786
0.00619046
0.004649
0.00296974
0.00132179
0.000191449
0.000189299
0.00131169
0.00295314
0.00469067
0.00641908
0.00628691
0.00464252
0.00294898
0.00131456
0.000189002
0.00018908
0.00133067
0.00300709
0.00482865
0.00666572
0.00663852
0.00476215
0.0029737
0.00129795
0.000187148
0.000183274
0.00125013
0.00282779
0.00446171
0.0059769
0.00619687
0.00450322
0.00281412
0.00124049
0.000181885
0.000182275
0.00124566
0.0028171
0.0044577
0.00606048
0.00641157
0.00463939
0.00290198
0.00128381
0.00018526
0.000189189
0.0013065
0.00293675
0.00463424
0.00628882
0.00668672
0.00483881
0.00300699
0.00132278
0.000191095
0.000190367
0.00132012
0.00298725
0.00477823
0.00665843
0.00597438
0.0044583
0.00281262
0.00122419
0.000186496
0.000183236
0.00121573
0.00278679
0.00447998
0.00618809
0.00603571
0.00442898
0.0027852
0.00122022
0.000183901
0.000186309
0.00125722
0.00286399
0.0046093
0.0063911
0.00625161