/*--------------------------------*- C++ -*----------------------------------*\
| =========                 |                                                 |
| \\      /  F ield         | OpenFOAM: The Open Source CFD Toolbox           |
|  \\    /   O peration     | Version:  v2006                                 |
|   \\  /    A nd           | Website:  www.openfoam.com                      |
|    \\/     M anipulation  |                                                 |
\*---------------------------------------------------------------------------*/
FoamFile
{
    version     2.0;
    format      ascii;
    class       volScalarField;
    location    "0.115";
    object      nut;
}
// * * * * * * * * * * * * * * * * * * * * * * * * * * * * * * * * * * * * * //

dimensions      [0 2 -1 0 0 0 0];


internalField   nonuniform List<scalar> 
38932
(
0.0606732
0.0606745
0.0606909
0.0606892
0.060685
0.0606781
0.0606678
0.0606543
0.0606374
0.0606175
0.0605945
0.0605687
0.0605398
0.0605081
0.0604734
0.0604357
0.0603951
0.0603516
0.0603052
0.0602559
0.0602037
0.0601486
0.0600908
0.0600301
0.0599667
0.0599005
0.0598316
0.05976
0.0596857
0.0596088
0.0595293
0.0594473
0.0593627
0.0592756
0.0591861
0.0590941
0.0589998
0.0589031
0.0588042
0.058703
0.0585996
0.058494
0.0583864
0.0582767
0.0581649
0.0580513
0.0579357
0.0578183
0.0576991
0.0575782
0.0574556
0.0573314
0.0572056
0.0570784
0.0569498
0.0568198
0.0566885
0.056556
0.0564224
0.0562877
0.056152
0.0560154
0.055878
0.0557397
0.0556008
0.0554613
0.0553212
0.0551807
0.0550398
0.0548987
0.0547573
0.0546158
0.0544744
0.0543329
0.0541916
0.0540506
0.0539099
0.0537696
0.0536298
0.0534906
0.0533521
0.0532144
0.0530776
0.0529418
0.052807
0.0526734
0.052541
0.05241
0.0522804
0.0521523
0.0520259
0.0519011
0.0517782
0.0516572
0.0515381
0.0514211
0.0513063
0.0511937
0.0510834
0.0509755
0.0508701
0.0507673
0.0506671
0.0505696
0.0504748
0.0503829
0.0502939
0.0502079
0.0501248
0.0500449
0.049968
0.0498943
0.0498238
0.0497565
0.0496925
0.0496318
0.0495744
0.0495205
0.0494702
0.0494233
0.0493798
0.0493388
0.0492964
0.0492362
0.0491584
0.048966
0.0483705
0.0458492
0.0372643
0.0132525
0.00491978
0.000178904
0.000189016
0.00205053
0.00547069
0.0038013
0.0013807
0.00018643
0.000181469
0.00108457
0.00297254
0.00255689
0.000915733
0.000176219
0.00016952
0.000814921
0.00226794
0.00209274
0.000757998
0.000164071
0.000158625
0.00071065
0.00198117
0.00190761
0.000686261
0.000154231
0.000150777
0.00066829
0.00185266
0.00181003
0.000654605
0.000147907
0.000145449
0.000643646
0.00177445
0.00174321
0.000634378
0.000143342
0.000141515
0.000626182
0.00171465
0.00168769
0.00061864
0.000139914
0.000138491
0.000611506
0.00166187
0.0016369
0.000604635
0.000137211
0.000136044
0.000597954
0.00161267
0.00158914
0.000591432
0.000134967
0.000133961
0.000585064
0.00156629
0.00154412
0.000578851
0.000133014
0.000132114
0.000572801
0.00152264
0.00150185
0.000566919
0.000131253
0.000130423
0.000561213
0.00148175
0.00146233
0.000555687
0.000129619
0.000128838
0.000550341
0.00144357
0.00142546
0.000545175
0.000128074
0.000127326
0.000540187
0.00140796
0.00139106
0.000535371
0.000126591
0.000125866
0.000530722
0.00137472
0.00135893
0.000526235
0.00012515
0.000124441
0.000521903
0.00134365
0.00132886
0.00051772
0.000123738
0.000123038
0.000513678
0.00131453
0.00130064
0.000509772
0.000122341
0.000121645
0.000505996
0.00128717
0.00127409
0.000502343
0.000120949
0.000120253
0.000498809
0.0012614
0.00124906
0.000495387
0.000119554
0.000118852
0.000492074
0.00123707
0.00122541
0.000488864
0.000118145
0.000117433
0.000485754
0.00121406
0.00120301
0.000482741
0.000116715
0.000115989
0.00047982
0.00119225
0.00118176
0.000476989
0.000115255
0.000114512
0.000474245
0.00117155
0.00116159
0.000471585
0.000113758
0.000112993
0.000469009
0.00115188
0.00114241
0.000466512
0.000112215
0.000111424
0.000464095
0.00113318
0.00112418
0.000461756
0.000110619
0.000109798
0.000459494
0.0011154
0.00110683
0.000457308
0.000108961
0.000108106
0.000455198
0.00109849
0.00109035
0.000453164
0.000107232
0.000106338
0.000451206
0.00108242
0.00107469
0.000449325
0.000105423
0.000104485
0.000447523
0.00106718
0.00105986
0.0004458
0.000103523
0.000102536
0.000444161
0.00105276
0.00104587
0.000442607
0.000101522
0.00010048
0.000441143
0.00103919
0.00103273
0.000439772
9.94089e-05
9.83064e-05
0.000438501
0.00102651
0.00102052
0.000437336
9.71712e-05
9.60018e-05
0.000436285
0.00101478
0.0010093
0.000435356
9.47965e-05
9.3554e-05
0.00043456
0.0010041
0.000999203
0.000433911
9.22724e-05
9.09505e-05
0.000433422
0.000994625
0.000990403
0.000433109
8.95867e-05
8.81802e-05
0.000433
0.000986577
0.000983171
0.00043311
8.67294e-05
8.52344e-05
0.000433481
0.000980257
0.000977849
0.000434128
8.3694e-05
8.21095e-05
0.000435115
0.000976073
0.000974927
0.000436461
8.04808e-05
7.88111e-05
0.000438252
0.0009746
0.000975073
0.000440521
7.71024e-05
7.53603e-05
0.00044336
0.00097657
0.000979198
0.000446847
7.35902e-05
7.18031e-05
0.000451099
0.000983141
0.000988426
0.00045616
7.00077e-05
6.8219e-05
0.000462175
0.000995443
0.0010043
0.00046924
6.64519e-05
6.47276e-05
0.000477408
0.00101504
0.00102731
0.000486473
6.30459e-05
6.1427e-05
0.00049662
0.00104192
0.0010584
0.000507572
5.9867e-05
5.83551e-05
0.000519092
0.00107693
0.00109723
0.000531056
5.68931e-05
5.53312e-05
0.000541188
0.00111843
0.00114015
0.00054857
5.43925e-05
5.40959e-05
0.000550452
0.00116208
0.001186
0.000550206
5.34221e-05
5.2227e-05
0.000545561
0.00120376
0.00120915
0.000533701
5.04153e-05
4.80627e-05
0.000513522
0.00119816
0.00116986
0.000485522
4.52319e-05
4.20423e-05
0.000449294
0.00112173
0.0010516
0.00040523
3.87713e-05
3.5741e-05
0.000355953
0.000959737
0.000838916
0.000300017
3.31092e-05
3.16086e-05
0.000238627
0.000694421
0.000588182
0.000202456
3.11476e-05
3.11493e-05
0.000185909
0.000530601
0.000504718
0.000177429
3.14979e-05
3.18907e-05
0.00017329
0.000494004
0.000491424
0.000173186
3.23555e-05
3.27889e-05
0.00017561
0.000496706
0.000507436
0.000179521
3.31617e-05
3.34717e-05
0.000183838
0.000519138
0.000531403
0.000188626
3.36954e-05
3.38085e-05
0.000193138
0.000543783
0.000554704
0.000197056
3.384e-05
3.3821e-05
0.00019999
0.000564312
0.000574369
0.000203426
3.3712e-05
3.34924e-05
0.000205749
0.000581612
0.00058738
0.000207826
3.32072e-05
3.28368e-05
0.000209341
0.000591469
0.000593516
0.000210285
3.23873e-05
3.18794e-05
0.000210717
0.000593806
0.000592058
0.000210483
3.12823e-05
3.06331e-05
0.00020977
0.000588542
0.000583088
0.000208434
2.99187e-05
2.91329e-05
0.000206519
0.000575798
0.000566694
0.000204087
2.829e-05
2.73913e-05
0.000201121
0.000555817
0.000543066
0.000197585
2.64167e-05
2.53928e-05
0.000193581
0.000528483
0.000511731
0.000188938
2.42699e-05
2.31294e-05
0.000183777
0.000492556
0.000470349
0.000177712
2.1846e-05
2.039e-05
0.00017066
0.00044403
0.000410809
0.000161641
1.86431e-05
1.6699e-05
0.000149719
0.000366888
0.000306105
0.000132237
1.41329e-05
1.10139e-05
0.000105566
0.000222117
0.000112625
5.71439e-05
8.14441e-06
5.23833e-06
2.51758e-05
2.84761e-05
3.56746e-05
4.81255e-05
5.95788e-05
7.16365e-05
7.95264e-05
8.7273e-05
9.26316e-05
9.7711e-05
0.000101692
0.000105181
0.0001081
0.000110631
0.000111768
0.000113088
0.000113201
0.000125366
0.000120408
0.000115336
0.000106353
6.7447e-05
3.76719e-05
4.68007e-05
5.56835e-05
3.75668e-05
1.7966e-05
1.95716e-05
2.04902e-05
1.88799e-05
1.66531e-05
1.45915e-05
8.54822e-06
6.61829e-06
5.28483e-06
4.26516e-06
3.22179e-06
7.04605e-06
1.30096e-05
2.08921e-05
3.58518e-05
8.93801e-05
6.26674e-05
3.80603e-05
1.60362e-05
4.06655e-06
5.14041e-06
3.01376e-05
7.15395e-05
0.000111455
0.000150708
0.000197934
0.00014383
9.13017e-05
3.79445e-05
5.95991e-06
6.37619e-06
4.31637e-05
0.000104671
0.00016732
0.000230088
0.000249512
0.000182222
0.00011261
4.62644e-05
6.66358e-06
6.69322e-06
4.71524e-05
0.000115141
0.000186849
0.000256301
0.000255954
0.000186134
0.000114453
4.67708e-05
6.5764e-06
6.38073e-06
4.59989e-05
0.000112372
0.000182835
0.000251933
0.000245689
0.00017872
0.000109988
4.52579e-05
6.13879e-06
5.92949e-06
4.4814e-05
0.000108338
0.000175577
0.000241133
0.00023955
0.000173958
0.000107542
4.48332e-05
5.75199e-06
5.59955e-06
4.48828e-05
0.000106946
0.000172944
0.000238515
0.000237805
0.000171858
0.000106204
4.47644e-05
5.41384e-06
5.18844e-06
4.3952e-05
0.000104386
0.000169771
0.000236242
0.000230681
0.000164323
0.000100253
4.18458e-05
4.84459e-06
4.50649e-06
3.77479e-05
9.2545e-05
0.000154897
0.000221358
0.000208002
0.000141433
8.15393e-05
3.20291e-05
4.02586e-06
3.24113e-06
2.4133e-05
6.65673e-05
0.000123477
0.000190583
0.000166788
9.98583e-05
4.52354e-05
1.27405e-05
2.0321e-06
1.35936e-06
6.17805e-06
2.86024e-05
7.06959e-05
0.000134154
9.44993e-05
4.14708e-05
1.8733e-05
5.45973e-06
1.40291e-06
1.649e-06
3.34568e-06
1.16754e-05
2.98011e-05
5.67561e-05
4.104e-05
1.63318e-05
5.63361e-06
2.75487e-06
3.29063e-06
3.22696e-06
2.77378e-06
5.82685e-06
1.7258e-05
4.3075e-05
4.42091e-05
1.67854e-05
5.51518e-06
3.04075e-06
3.48479e-06
3.39249e-06
3.30891e-06
6.02877e-06
1.7737e-05
4.55738e-05
4.65438e-05
1.9624e-05
7.29921e-06
3.40497e-06
2.95344e-06
3.23226e-06
3.30062e-06
7.62543e-06
2.03412e-05
4.76599e-05
4.9216e-05
2.00528e-05
7.37367e-06
3.58247e-06
3.98922e-06
3.93152e-06
3.91234e-06
7.43345e-06
1.91987e-05
4.76301e-05
4.73875e-05
2.01061e-05
7.98372e-06
4.30737e-06
3.48641e-06
2.93759e-06
4.84802e-06
9.43509e-06
2.2165e-05
4.87874e-05
4.83416e-05
2.06755e-05
8.91424e-06
5.05128e-06
3.54558e-06
3.54016e-06
4.73873e-06
1.11105e-05
2.56712e-05
5.56168e-05
6.96161e-05
3.23458e-05
1.30787e-05
4.18831e-06
4.3807e-06
4.40554e-06
4.68952e-06
1.16309e-05
2.81585e-05
6.38022e-05
6.3053e-05
2.94611e-05
1.1871e-05
4.82525e-06
3.84238e-06
3.55852e-06
5.64545e-06
1.31898e-05
3.11812e-05
6.39442e-05
6.72513e-05
3.40671e-05
1.46153e-05
5.03502e-06
3.49279e-06
4.00819e-06
5.26773e-06
1.47051e-05
3.33889e-05
6.83185e-05
7.53308e-05
3.96006e-05
1.69031e-05
5.75951e-06
3.17232e-06
3.66685e-06
5.46131e-06
1.72961e-05
3.89625e-05
7.48205e-05
7.66116e-05
3.89256e-05
1.64675e-05
5.57655e-06
4.0928e-06
3.83905e-06
6.92141e-06
1.71846e-05
3.69188e-05
7.24909e-05
7.39628e-05
3.85174e-05
1.72969e-05
6.34651e-06
4.31276e-06
4.9719e-06
6.33167e-06
1.8526e-05
3.86033e-05
7.53627e-05
7.87317e-05
4.05569e-05
1.83487e-05
6.32221e-06
4.42443e-06
4.26298e-06
7.74277e-06
1.99683e-05
4.19466e-05
7.9634e-05
8.50115e-05
4.65023e-05
2.16086e-05
7.04745e-06
3.91091e-06
4.40118e-06
6.53687e-06
2.2601e-05
4.59175e-05
8.48304e-05
8.60618e-05
4.56459e-05
2.12783e-05
6.92447e-06
5.01419e-06
4.67321e-06
8.33992e-06
2.29038e-05
4.5852e-05
8.63845e-05
8.97506e-05
4.86439e-05
2.27176e-05
8.26097e-06
4.59869e-06
5.23331e-06
7.75013e-06
2.52047e-05
5.13201e-05
9.30846e-05
9.7289e-05
5.33831e-05
2.54289e-05
7.18864e-06
4.63126e-06
4.99869e-06
8.25758e-06
2.60951e-05
5.19559e-05
9.66171e-05
0.000100149
5.62306e-05
2.7007e-05
9.09494e-06
4.48415e-06
4.78502e-06
8.09819e-06
2.8897e-05
5.66006e-05
0.000100698
0.000103563
5.69024e-05
2.71053e-05
8.1559e-06
5.49298e-06
5.40442e-06
9.79313e-06
2.92092e-05
5.6597e-05
0.000103512
0.000107832
6.04805e-05
2.90171e-05
9.81503e-06
5.12439e-06
6.02529e-06
9.06281e-06
3.14297e-05
6.25175e-05
0.000111495
0.000115745
6.45301e-05
3.13517e-05
8.59274e-06
5.16477e-06
5.51364e-06
1.07616e-05
3.2832e-05
6.45357e-05
0.000115618
0.000123232
7.09506e-05
3.41969e-05
9.6975e-06
4.85808e-06
5.61792e-06
9.33694e-06
3.55093e-05
6.71705e-05
0.000121782
0.000123617
7.14877e-05
3.49212e-05
1.12792e-05
5.17146e-06
5.4641e-06
9.84523e-06
3.71485e-05
7.09726e-05
0.000123826
0.000126315
7.16277e-05
3.50733e-05
1.03339e-05
6.05323e-06
5.67694e-06
1.32417e-05
3.86864e-05
7.28231e-05
0.000126161
0.00013221
7.57097e-05
3.66471e-05
1.07551e-05
6.2275e-06
7.22695e-06
1.14233e-05
3.96209e-05
7.3241e-05
0.000132383
0.000136813
7.88816e-05
3.89421e-05
1.21319e-05
6.04894e-06
6.99834e-06
1.17349e-05
4.14551e-05
8.17257e-05
0.000141145
0.00014499
8.22371e-05
4.12543e-05
1.08798e-05
6.03628e-06
6.56776e-06
1.34646e-05
4.38102e-05
8.27498e-05
0.000144983
0.000154063
8.94216e-05
4.38806e-05
1.21233e-05
5.8522e-06
6.57959e-06
1.19138e-05
4.74756e-05
8.55387e-05
0.000153308
0.000160302
9.46815e-05
4.66668e-05
1.45117e-05
6.04895e-06
6.35708e-06
1.18349e-05
4.84481e-05
9.08742e-05
0.000158305
0.000158247
9.22846e-05
4.59395e-05
1.35477e-05
6.96152e-06
6.40634e-06
1.53667e-05
5.04704e-05
9.54241e-05
0.000159922
0.000164379
9.48552e-05
4.65884e-05
1.32036e-05
7.56943e-06
8.47124e-06
1.38911e-05
4.99992e-05
9.12806e-05
0.000162138
0.000164964
9.534e-05
4.95533e-05
1.39085e-05
7.15795e-06
7.26235e-06
1.76329e-05
5.25058e-05
0.00010011
0.000168523
0.000173562
0.000101473
5.07555e-05
1.59079e-05
7.44272e-06
7.1758e-06
1.74469e-05
5.2271e-05
0.000103945
0.000175757
0.000165231
8.91329e-05
4.80047e-05
1.36404e-05
7.6952e-06
7.83906e-06
1.40907e-05
5.20095e-05
8.46719e-05
0.000161077
0.000173094
9.13665e-05
5.11627e-05
1.56668e-05
1.11541e-05
9.33722e-06
1.59439e-05
5.05902e-05
0.000115574
0.000207013
0.00028865
0.000159422
7.17187e-05
2.47789e-05
1.2671e-05
1.61294e-05
4.23516e-05
0.000126086
0.000284947
0.000514668
0.00063903
0.000390724
0.000196094
6.78805e-05
2.03017e-05
2.46887e-05
0.000101551
0.000270602
0.000496766
0.000771442
0.000894179
0.0006003
0.000343684
0.000136386
2.88e-05
3.23129e-05
0.000170687
0.000411388
0.000694652
0.00100732
0.00111257
0.000782597
0.000473347
0.000199062
3.51354e-05
3.79775e-05
0.000226458
0.000529476
0.000861619
0.00120658
0.00128117
0.000931011
0.000581516
0.000253385
4.06955e-05
4.31059e-05
0.000281051
0.000634469
0.00100473
0.00137312
0.00145979
0.00107061
0.000679326
0.000302783
4.52181e-05
4.7688e-05
0.000319262
0.000721217
0.00113649
0.00155072
0.00164453
0.001205
0.000765172
0.000340625
5.07577e-05
5.58734e-05
0.000359993
0.000809174
0.00126797
0.0017188
0.00179349
0.00133839
0.000863951
0.000392669
6.10581e-05
6.52915e-05
0.000428184
0.000926624
0.00142558
0.00190403
0.00201591
0.00151429
0.000989598
0.000460265
6.91739e-05
7.3116e-05
0.000497439
0.00105261
0.00160161
0.00212357
0.00223269
0.00168372
0.0011114
0.000534459
7.56665e-05
7.61585e-05
0.000553425
0.00114442
0.00173615
0.00233417
0.00225038
0.00170096
0.0011234
0.000541555
7.46927e-05
7.31014e-05
0.000525711
0.00108719
0.00163081
0.00212102
0.00222669
0.00167364
0.00110471
0.000529261
7.44194e-05
7.53002e-05
0.000553049
0.00115291
0.00175011
0.00232797
0.00242885
0.00182804
0.0012068
0.000584727
7.72708e-05
7.75778e-05
0.000601021
0.00125275
0.00189949
0.00252377
0.00261033
0.00196323
0.0012927
0.000618835
7.97937e-05
7.77941e-05
0.000619752
0.00130679
0.00199781
0.00267682
0.00266252
0.00196859
0.00128541
0.000611402
7.66901e-05
7.14068e-05
0.00057638
0.00121159
0.00184013
0.00242078
0.00216387
0.00167084
0.00111168
0.000529114
6.58919e-05
6.04193e-05
0.000488295
0.00103262
0.00157705
0.00212447
0.00199735
0.00149405
0.000972166
0.000454338
5.67439e-05
5.28985e-05
0.000426076
0.000914361
0.00139806
0.00184271
0.00187198
0.00138158
0.000893524
0.000415019
5.23613e-05
5.13934e-05
0.000411499
0.000895285
0.00139348
0.00189209
0.0018873
0.00139423
0.000896315
0.000412251
5.1683e-05
5.13736e-05
0.000413049
0.000896065
0.00139395
0.00188886
0.00189628
0.00139778
0.000897103
0.000414504
5.20781e-05
5.11002e-05
0.00041462
0.000901277
0.00140781
0.00191533
0.00193393
0.00140498
0.00089917
0.000414594
5.11639e-05
4.92723e-05
0.00040263
0.000870474
0.00135348
0.00183067
0.00171525
0.0012886
0.000831315
0.000383558
4.74907e-05
4.79319e-05
0.000384811
0.000840968
0.00131453
0.00179351
0.00186955
0.00136989
0.000874459
0.000400666
4.98484e-05
5.11661e-05
0.000421489
0.000912825
0.00142727
0.00194435
0.00201716
0.00147828
0.000945812
0.000436312
5.1371e-05
5.04886e-05
0.000435953
0.000951324
0.00149726
0.0020704
0.00196721
0.00145068
0.000926478
0.000422634
4.8492e-05
4.60491e-05
0.000405856
0.000894549
0.00139044
0.00185279
0.00194719
0.00142509
0.000905822
0.000405571
4.53577e-05
4.75321e-05
0.000419369
0.000942039
0.00148881
0.00204236
0.00213027
0.00155419
0.000984359
0.000438146
4.93651e-05
5.06043e-05
0.000453858
0.00101699
0.00161049
0.00221236
0.00227955
0.00163681
0.0010308
0.000461183
5.11237e-05
5.04585e-05
0.000456726
0.00101182
0.00159343
0.00217149
0.00205754
0.00154063
0.000990348
0.000449299
4.99268e-05
5.02824e-05
0.000454631
0.00101097
0.00158723
0.00216855
0.00228236
0.00166586
0.00105472
0.000471689
5.17782e-05
5.43647e-05
0.000491176
0.00110289
0.00174364
0.00239147
0.0024945
0.00181636
0.00114785
0.000517086
5.61104e-05
5.67312e-05
0.000523208
0.00116873
0.00185351
0.00258232
0.00246743
0.00180877
0.00114995
0.000519527
5.59434e-05
5.49469e-05
0.000516202
0.00113476
0.00176199
0.00235086
0.00248463
0.00182102
0.00116147
0.000523865
5.53442e-05
5.68929e-05
0.000544586
0.00121723
0.00191772
0.0026231
0.00275953
0.00201
0.00127021
0.000568358
5.96267e-05
6.14366e-05
0.000584189
0.00129945
0.00206151
0.00287343
0.00275831
0.0020259
0.00129311
0.000584685
6.14455e-05
6.06049e-05
0.000583109
0.00127943
0.00198647
0.00264422
0.00280431
0.00205825
0.00131164
0.000592828
6.14206e-05
6.40385e-05
0.000617196
0.00137038
0.00216259
0.00296993
0.00310985
0.00222572
0.00140536
0.000636285
6.62814e-05
6.57402e-05
0.000637353
0.0014
0.00219567
0.00299481
0.00288703
0.00216584
0.00139612
0.000637557
6.59895e-05
6.74384e-05
0.000654896
0.00144388
0.00225909
0.00307409
0.00326698
0.00238295
0.00151062
0.000682755
6.9998e-05
7.21731e-05
0.000703791
0.00155421
0.0024645
0.00344201
0.00332902
0.00244431
0.0015646
0.000714307
7.31723e-05
7.40124e-05
0.00072639
0.00157461
0.00242837
0.00322705
0.00345113
0.00254278
0.00163423
0.000747914
7.51902e-05
7.64674e-05
0.000774533
0.00171662
0.00269998
0.00369079
0.00391315
0.00281256
0.00177817
0.000807614
8.16443e-05
8.61704e-05
0.000839112
0.00180894
0.00281091
0.00381472
0.00373216
0.00281873
0.00184089
0.000863185
9.05971e-05
9.53009e-05
0.000899817
0.00191065
0.00295648
0.00400286
0.00427499
0.0030877
0.0019811
0.000933457
9.94825e-05
0.000101238
0.000953782
0.00200844
0.00309371
0.00418252
0.00410945
0.00310689
0.00203424
0.000966085
9.93199e-05
9.65961e-05
0.000968627
0.00209031
0.00325567
0.00441449
0.00473078
0.00339115
0.0021379
0.000957728
8.94415e-05
9.11044e-05
0.000959237
0.002162
0.00341086
0.00464774
0.00461066
0.0034548
0.00221924
0.00100519
9.98919e-05
0.000108871
0.00105582
0.00230285
0.00360607
0.00498682
0.00496575
0.00367812
0.00237679
0.00110537
0.000116997
0.000126572
0.00116552
0.0024648
0.00377387
0.0049794
0.00541708
0.00396207
0.00257217
0.00122479
0.000135498
0.000144266
0.00128279
0.00266356
0.00405866
0.00542742
0.00546651
0.0041816
0.00277383
0.00134809
0.000153841
0.000162953
0.00141735
0.00290399
0.00440769
0.00596208
0.00600511
0.00453147
0.0030159
0.00148164
0.000172526
0.000183033
0.00155363
0.0031457
0.00468939
0.00606539
0.00658754
0.00491198
0.00325594
0.00160749
0.000188849
0.000181039
0.00160347
0.00326739
0.0049444
0.00658108
0.00656014
0.0049119
0.00320761
0.00154376
0.000177725
0.000191783
0.00154165
0.00317821
0.00489341
0.00657055
0.00677187
0.005025
0.00326154
0.00160289
0.000216501
0.000225886
0.00167862
0.00340777
0.00519211
0.00692377
0.00739102
0.00551374
0.00358657
0.00172629
0.000217455
0.000198231
0.00169409
0.00364072
0.00565671
0.00771477
0.00756836
0.00563452
0.00365802
0.00174064
0.000209979
0.000255908
0.00187548
0.00373237
0.00561091
0.0074409
0.0073254
0.00556984
0.00379926
0.0020036
0.000295387
0.000311922
0.00204142
0.00373029
0.00544623
0.00715979
0.00690057
0.00517316
0.00345458
0.0017802
0.000313737
0.00030098
0.0014323
0.00300439
0.00469447
0.00643968
0.0054416
0.0039634
0.00249525
0.00112809
0.000266787
0.00022896
0.000908929
0.00211136
0.0034624
0.0048497
0.00426895
0.00303402
0.00187097
0.000834384
0.000207281
0.000192903
0.00072787
0.00168461
0.00278629
0.00398576
0.00358427
0.0025274
0.00153035
0.000653419
0.000176343
0.000162872
0.000583861
0.00141924
0.00239214
0.00345502
0.0031333
0.00217722
0.00128519
0.000512979
0.00014468
0.000121684
0.000463972
0.00122695
0.00212435
0.00311333
0.00286357
0.0019887
0.00116031
0.000432207
0.000108786
0.000109855
0.000474793
0.00118348
0.00201014
0.00293291
0.00274466
0.00194158
0.00117986
0.000497692
0.000109129
0.000107282
0.0005234
0.00121408
0.00199655
0.0028593
0.00277084
0.0019422
0.00120384
0.000531
0.000105041
0.000100122
0.000516324
0.00114789
0.00180778
0.0024409
0.00252185
0.00182861
0.00116151
0.000523977
9.52752e-05
9.43047e-05
0.000553895
0.00117182
0.00180671
0.00245309
0.00261006
0.00189719
0.00122541
0.00058888
9.70893e-05
0.000100125
0.000607266
0.0012384
0.00189213
0.00260527
0.00238099
0.00181651
0.0012217
0.000617899
0.000102412
0.000102622
0.000613756
0.0012324
0.00185435
0.00248692
0.0024819
0.00183236
0.00122275
0.000610471
0.000101687
9.91068e-05
0.000587852
0.00118235
0.00175438
0.00228334
0.00238041
0.00178304
0.00118018
0.000567417
9.51218e-05
9.09937e-05
0.000560191
0.00116514
0.00175877
0.00237972
0.00219372
0.00168794
0.00113072
0.000543167
8.72023e-05
8.35883e-05
0.000544765
0.00114204
0.00171916
0.00228146
0.00227307
0.00173182
0.00116514
0.000571365
8.26974e-05
8.53121e-05
0.000603514
0.00122007
0.00182534
0.00242512
0.00246194
0.00184024
0.00123854
0.000620716
8.74294e-05
8.83529e-05
0.000621402
0.00122843
0.001794
0.00230954
0.00242082
0.00184403
0.0012475
0.000629063
8.88208e-05
8.93785e-05
0.000634087
0.00125223
0.00184666
0.00245195
0.00230169
0.00179655
0.0012337
0.000627159
8.9222e-05
8.94773e-05
0.000634282
0.00125318
0.00184339
0.00240915
0.00243989
0.00183932
0.00124732
0.000627416
8.90711e-05
8.83553e-05
0.000621599
0.00122783
0.00178985
0.00229509
0.00239837
0.0018324
0.0012396
0.000621082
8.75725e-05
8.6665e-05
0.000612563
0.00123529
0.00183192
0.0024317
0.00228776
0.00178104
0.00121392
0.000605007
8.52438e-05
8.42895e-05
0.000605709
0.00122876
0.00182441
0.00239127
0.00242688
0.00182413
0.00122606
0.000604093
8.32312e-05
8.18416e-05
0.000592322
0.00120568
0.00177855
0.00228665
0.00239232
0.00182623
0.0012289
0.000607214
8.15394e-05
8.13772e-05
0.000604003
0.00122733
0.00182766
0.00243348
0.00229657
0.00178477
0.00121002
0.000598273
8.06573e-05
7.99069e-05
0.000596603
0.00122902
0.00183422
0.00240751
0.00245349
0.00183675
0.00122165
0.000590374
7.85663e-05
7.61105e-05
0.000561202
0.0011762
0.00176503
0.00232832
0.00217424
0.00168356
0.00112547
0.000534281
7.31546e-05
7.13344e-05
0.000534089
0.00113085
0.00171082
0.00226091
0.00229657
0.00170757
0.00112764
0.000535873
7.02726e-05
6.96954e-05
0.00053613
0.00111382
0.00166686
0.0021644
0.00226829
0.00171522
0.00113582
0.000543342
6.95777e-05
6.91911e-05
0.0005402
0.00113507
0.00171777
0.00230999
0.00217817
0.00167791
0.00112012
0.00053684
6.85198e-05
6.83088e-05
0.000536961
0.00113718
0.00172376
0.00228184
0.00232538
0.0017278
0.00113893
0.000542378
6.79356e-05
6.76463e-05
0.000530217
0.00112117
0.00168653
0.00219053
0.00229428
0.00173155
0.00114036
0.000538161
6.71e-05
6.70709e-05
0.000535206
0.00113749
0.00173087
0.00233436
0.00219653
0.00168806
0.0011205
0.000529787
6.64546e-05
6.63025e-05
0.000535405
0.00113759
0.00173125
0.0022982
0.00233723
0.00173137
0.00113471
0.00053062
6.60294e-05
6.52352e-05
0.000523076
0.00111528
0.00168462
0.00219629
0.00229607
0.0017258
0.00113011
0.000528443
6.50856e-05
6.473e-05
0.000523162
0.00112549
0.00172474
0.00233471
0.00219079
0.00167617
0.00110276
0.000511366
6.36693e-05
6.29505e-05
0.000516997
0.00111797
0.00171471
0.00228835
0.00232339
0.00171014
0.00111302
0.000516763
6.25719e-05
6.19097e-05
0.000505047
0.00109124
0.00166355
0.00217949
0.00227569
0.00170181
0.00110586
0.000508999
6.11945e-05
6.09673e-05
0.000508114
0.00110068
0.00169831
0.0023087
0.0021662
0.00165209
0.00108313
0.000498863
6.02463e-05
5.9339e-05
0.000499082
0.0010943
0.00168975
0.0022628
0.00229646
0.00168562
0.00109013
0.000500707
5.88042e-05
5.8454e-05
0.000489544
0.0010734
0.00164425
0.00215897
0.002262
0.00168821
0.00109133
0.000497397
5.82425e-05
5.85427e-05
0.000496475
0.00109362
0.00169398
0.00230743
0.00218786
0.00166535
0.0010886
0.000497513
5.84058e-05
5.98212e-05
0.000509574
0.00111907
0.00172951
0.00231356
0.00238107
0.00175538
0.00113711
0.000519808
6.06374e-05
6.28605e-05
0.000532261
0.00115864
0.00176278
0.00230334
0.00247172
0.00186879
0.00122035
0.000560027
6.30931e-05
6.97778e-05
0.000590872
0.00127619
0.00194916
0.00262292
0.00259696
0.00200304
0.00133213
0.000622542
6.98844e-05
8.16854e-05
0.000680768
0.0014495
0.00215938
0.00277399
0.0030371
0.00238092
0.00160892
0.000757148
8.6968e-05
0.000100596
0.000853313
0.00182443
0.00274189
0.00357303
0.00388195
0.00292737
0.00194569
0.00091163
0.000106797
0.000111938
0.000923763
0.00195446
0.00293046
0.00385603
0.00365346
0.00285074
0.00191953
0.000912113
0.000113052
0.000115422
0.000923373
0.00195174
0.00292018
0.0038063
0.00385213
0.00297096
0.0019994
0.000950949
0.000119828
0.000124529
0.000993398
0.00208914
0.00313978
0.00410461
0.00420253
0.00317561
0.00211915
0.00101345
0.000129191
0.000132243
0.00100977
0.00209307
0.00309865
0.00397084
0.00415052
0.00317961
0.00212561
0.00101742
0.00012682
0.000125684
0.00101519
0.00211865
0.0031778
0.00421531
0.00396021
0.00308255
0.00207428
0.000995939
0.000123918
0.000123368
0.0010069
0.00210618
0.00315932
0.00413244
0.00419233
0.00315714
0.00210386
0.00100978
0.000123458
0.000122755
0.000992653
0.0020614
0.00306123
0.0039365
0.00410836
0.00313516
0.00208807
0.000997751
0.000122022
0.000121531
0.000997833
0.00208363
0.00313298
0.00416842
0.00391182
0.00303481
0.0020367
0.000972212
0.000120491
0.00012022
0.00098265
0.00206527
0.00311
0.00408521
0.00414514
0.00310869
0.00206182
0.000983944
0.000120168
0.000118995
0.00096535
0.00201903
0.00301194
0.00388807
0.00405952
0.00308435
0.00204433
0.000970004
0.000118386
0.000117766
0.000961201
0.00203125
0.00307675
0.00411314
0.00385072
0.00297419
0.00198337
0.000940398
0.000116549
0.000115599
0.000938232
0.00199987
0.00303844
0.0040168
0.00405453
0.00302282
0.00198654
0.000932134
0.000114087
0.000113146
0.000918343
0.00194084
0.00291876
0.00378755
0.00392795
0.00297638
0.00196631
0.00092753
0.000113802
0.000115609
0.000942218
0.00199481
0.00300136
0.0039341
0.00416965
0.00314843
0.00206476
0.000967955
0.000118141
0.000119323
0.000970682
0.00207296
0.00315179
0.00422425
0.00395122
0.00304351
0.00202129
0.000955048
0.000118981
0.000118261
0.000955369
0.00203886
0.00310518
0.00411577
0.00413814
0.00307648
0.00201408
0.000943166
0.00011672
0.000115129
0.000917961
0.00195868
0.0029612
0.00384932
0.00398703
0.0030092
0.00197567
0.000922892
0.000114695
0.000115899
0.000933174
0.00199721
0.0030245
0.00397943
0.00421501
0.00316716
0.00206343
0.000956741
0.000117566
0.00011822
0.000959769
0.0020644
0.00316057
0.00425609
0.00396261
0.00303954
0.00200604
0.000937394
0.000117452
0.000116367
0.00093607
0.00201905
0.00309854
0.00412818
0.00414182
0.00306277
0.00199091
0.000920446
0.000115143
0.000114067
0.000899805
0.00193202
0.00293699
0.00383506
0.00397192
0.00298165
0.00194503
0.000900841
0.000113888
0.000114837
0.00091087
0.00196381
0.00299082
0.00395538
0.00419195
0.00313196
0.00202494
0.000931506
0.000116578
0.000116919
0.000932162
0.00202469
0.00312254
0.00422611
0.00391569
0.00299311
0.0019649
0.000911618
0.000115929
0.00011499
0.000908034
0.00197195
0.00304568
0.004078
0.00408472
0.00300763
0.00194216
0.000890771
0.000113786
0.00011198
0.000859713
0.00187389
0.00286902
0.00376541
0.00389853
0.00291087
0.00188154
0.00086236
0.000111468
0.000112111
0.000869742
0.00189637
0.00290872
0.00386849
0.00410175
0.00304099
0.00194878
0.000887955
0.000113261
0.000113696
0.000888052
0.00194373
0.00301987
0.00411675
0.00379156
0.0028847
0.00188276
0.000867739
0.00011254
0.000112711
0.000868049
0.00189166
0.00292749
0.00392597
0.00389273
0.00292702
0.00190857
0.000878238
0.000114036
0.000115361
0.000893262
0.00195518
0.00305106
0.00412237
0.0041343
0.00302995
0.00194472
0.000887818
0.000115053
0.000113477
0.000855306
0.00187595
0.00288216
0.00379316
0.00392605
0.00291953
0.00187737
0.000853931
0.000112766
0.000113257
0.000858154
0.00188406
0.00290824
0.0038814
0.00411027
0.00303032
0.00193122
0.000873401
0.00011398
0.000113803
0.000870964
0.001921
0.00300473
0.0041151
0.00376637
0.00285518
0.00185355
0.000848795
0.000112922
0.00011284
0.000844917
0.00185688
0.00289269
0.00389977
0.00385217
0.00288117
0.00186512
0.00085016
0.000113435
0.000114438
0.000865012
0.0019123
0.00300586
0.00408318
0.00408764
0.00297767
0.00189827
0.000861676
0.000114524
0.000113451
0.00082721
0.0018258
0.00282298
0.00373198
0.00386443
0.00285548
0.00182211
0.000821077
0.000112607
0.000113014
0.000830194
0.00183073
0.00284279
0.00381376
0.0040402
0.00296345
0.00187645
0.000843834
0.00011388
0.000113154
0.000838473
0.00186013
0.00293245
0.00403945
0.00367521
0.00277345
0.00178612
0.000806776
0.000111496
0.000110352
0.000800603
0.00178238
0.00280351
0.00380668
0.00374396
0.00278247
0.00178312
0.000802006
0.000110466
0.000111207
0.00081537
0.00182332
0.00289537
0.0039682
0.003962
0.00286227
0.00180498
0.000800061
0.000110609
0.000108288
0.000761
0.00171969
0.00269416
0.00358709
0.00371434
0.00271728
0.00171263
0.000756521
0.000106843
0.000108014
0.000768221
0.0017196
0.00270054
0.00364834
0.00385125
0.00280985
0.00177535
0.000793929
0.000110664
0.000112571
0.000808434
0.00179945
0.0028141
0.00379559
0.00403401
0.00294141
0.00184817
0.000825928
0.000114282
0.000114378
0.0008209
0.00183747
0.00291085
0.00402491
0.00363869
0.00273244
0.00174535
0.000776808
0.000112511
0.000111248
0.000770866
0.00173556
0.00275679
0.00377276
0.00369534
0.00272854
0.00173311
0.000772541
0.000111068
0.000111118
0.000782016
0.00176726
0.00283788
0.00391772
0.00390201
0.00279895
0.0017477
0.000762801
0.000109983
0.000107708
0.00073471
0.00166198
0.00262245
0.0035133
0.00364232
0.00264674
0.00165393
0.000729056
0.000106896
0.000107122
0.00073209
0.00165569
0.00262006
0.00356242
0.00376858
0.00272683
0.0017056
0.000754527
0.000108882
0.000111191
0.000767879
0.00172609
0.00272392
0.00369674
0.00393045
0.00284415
0.0017674
0.000777465
0.000112315
0.000111892
0.00077593
0.00175588
0.00280873