/*--------------------------------*- C++ -*----------------------------------*\
| =========                 |                                                 |
| \\      /  F ield         | OpenFOAM: The Open Source CFD Toolbox           |
|  \\    /   O peration     | Version:  v2006                                 |
|   \\  /    A nd           | Website:  www.openfoam.com                      |
|    \\/     M anipulation  |                                                 |
\*---------------------------------------------------------------------------*/
FoamFile
{
    version     2.0;
    format      ascii;
    class       volScalarField;
    location    "0.02";
    object      turbulenceProperties:I;
}
// * * * * * * * * * * * * * * * * * * * * * * * * * * * * * * * * * * * * * //

dimensions      [0 0 0 0 0 0 0];


internalField   nonuniform List<scalar> 
41981
(
0.150003
0.150001
0.150002
0.150002
0.150002
0.150002
0.150001
0.15
0.149999
0.149998
0.149997
0.149997
0.149998
0.15
0.150002
0.150005
0.150008
0.150009
0.150009
0.150009
0.150009
0.150008
0.150007
0.150006
0.150005
0.150005
0.150004
0.150003
0.150003
0.150003
0.150002
0.150002
0.150001
0.150001
0.150001
0.15
0.15
0.15
0.15
0.149999
0.149999
0.149999
0.149999
0.149999
0.149998
0.149998
0.149998
0.149998
0.149998
0.149998
0.149997
0.149997
0.149997
0.149997
0.149997
0.149997
0.149997
0.149997
0.149996
0.149996
0.149996
0.149996
0.149996
0.149996
0.149996
0.149996
0.149996
0.149996
0.149996
0.149995
0.149995
0.149995
0.149995
0.149995
0.149995
0.149995
0.149995
0.149995
0.149995
0.149995
0.149995
0.149995
0.149995
0.149995
0.149995
0.149995
0.149995
0.149995
0.149995
0.149995
0.149995
0.149995
0.149995
0.149994
0.149994
0.149994
0.149994
0.149994
0.149994
0.149994
0.149994
0.149995
0.149995
0.149995
0.149995
0.149995
0.149995
0.149995
0.149995
0.149995
0.149995
0.149995
0.149995
0.149995
0.149995
0.149995
0.149995
0.149995
0.149995
0.149995
0.149995
0.149995
0.149995
0.149994
0.149994
0.149994
0.149994
0.149994
0.149994
0.149994
0.149994
0.149994
0.149993
0.149993
0.149992
0.149992
0.149993
0.149996
0.150001
0.150008
0.150017
0.150025
0.15003
0.150028
0.150017
0.150004
0.149998
0.149985
0.149972
0.149965
0.149961
0.149959
0.149958
0.149979
0.149995
0.149993
0.150004
0.15001
0.149835
0.149198
0.145165
0.139439
0.14552
0.148563
0.145215
0.137347
0.13326
0.128769
0.133077
0.142874
0.137686
0.125505
0.123757
0.120892
0.123279
0.135927
0.131355
0.117513
0.11736
0.115514
0.116353
0.1301
0.126649
0.112874
0.113277
0.112143
0.112262
0.125854
0.123073
0.109835
0.110545
0.109879
0.109749
0.122666
0.120424
0.108127
0.10881
0.108647
0.108241
0.120214
0.118331
0.107066
0.10835
0.108553
0.107307
0.118253
0.116637
0.106425
0.108487
0.108788
0.106733
0.116647
0.115228
0.106037
0.108801
0.109125
0.106367
0.115294
0.114017
0.105778
0.109166
0.109489
0.106112
0.114119
0.112952
0.105599
0.109541
0.109856
0.105934
0.11308
0.112004
0.105482
0.109913
0.110218
0.105813
0.112151
0.111159
0.105411
0.110279
0.110574
0.105738
0.111316
0.110394
0.105378
0.110637
0.110922
0.105699
0.110558
0.109698
0.105374
0.110989
0.111265
0.10569
0.10987
0.10907
0.105398
0.111334
0.111603
0.105709
0.109248
0.108504
0.105449
0.111675
0.111936
0.105757
0.108689
0.107997
0.105524
0.112011
0.112267
0.105828
0.108188
0.107542
0.10562
0.112343
0.112594
0.10592
0.107737
0.107131
0.105734
0.112672
0.112919
0.10603
0.10733
0.10676
0.105864
0.112999
0.113243
0.106157
0.106961
0.106424
0.106007
0.113324
0.113564
0.106298
0.106626
0.106117
0.106163
0.113646
0.113884
0.106449
0.106321
0.105838
0.106327
0.113967
0.114203
0.106611
0.106042
0.105583
0.1065
0.114287
0.11452
0.10678
0.105787
0.10535
0.10668
0.114604
0.114835
0.106957
0.105555
0.105139
0.106867
0.11492
0.11515
0.107141
0.105343
0.104949
0.107061
0.115235
0.115464
0.107333
0.105153
0.104779
0.107262
0.11555
0.115777
0.107531
0.104984
0.104629
0.10747
0.115864
0.11609
0.107737
0.104835
0.1045
0.107684
0.116178
0.116404
0.10795
0.104706
0.10439
0.107906
0.116493
0.116718
0.10817
0.104598
0.104301
0.108135
0.116808
0.117033
0.108398
0.104509
0.10423
0.108371
0.117124
0.11735
0.108634
0.10444
0.104179
0.108615
0.117442
0.117668
0.108878
0.10439
0.104146
0.108866
0.117762
0.117989
0.10913
0.104359
0.104132
0.109125
0.118085
0.118313
0.10939
0.104347
0.104135
0.109392
0.11841
0.11864
0.109658
0.104353
0.104157
0.109666
0.118738
0.118971
0.109934
0.104377
0.104195
0.109949
0.119071
0.119306
0.110219
0.104418
0.10425
0.11024
0.119408
0.119646
0.110513
0.104475
0.10432
0.110539
0.119749
0.11999
0.110815
0.104549
0.104406
0.110847
0.120096
0.12034
0.111126
0.104638
0.104507
0.111163
0.120448
0.120696
0.111446
0.104742
0.104622
0.111487
0.120805
0.121058
0.111775
0.10486
0.104751
0.11182
0.121169
0.121427
0.112112
0.104993
0.104894
0.112162
0.12154
0.121803
0.112458
0.105139
0.10505
0.112512
0.121919
0.122186
0.112809
0.105298
0.105218
0.112865
0.122305
0.122575
0.113164
0.10547
0.105398
0.113226
0.1227
0.122973
0.113528
0.105654
0.105591
0.113597
0.123104
0.123379
0.113903
0.105852
0.105798
0.11398
0.123517
0.123795
0.11429
0.106064
0.10602
0.114375
0.12394
0.124222
0.114691
0.106291
0.106258
0.114784
0.124373
0.124659
0.115106
0.106535
0.106512
0.115207
0.124816
0.125107
0.115536
0.106797
0.106786
0.115647
0.125271
0.125566
0.115982
0.107078
0.107078
0.116101
0.125737
0.126038
0.116444
0.107379
0.107391
0.116572
0.126215
0.126522
0.116923
0.107701
0.107725
0.11706
0.126706
0.127019
0.11742
0.108045
0.108082
0.117565
0.12721
0.127531
0.117936
0.108413
0.108463
0.11809
0.127728
0.128057
0.118473
0.108804
0.108867
0.118635
0.128261
0.128599
0.119031
0.109221
0.109296
0.119202
0.12881
0.129158
0.119612
0.109663
0.109751
0.11979
0.129376
0.129734
0.120215
0.110131
0.110232
0.1204
0.129958
0.130328
0.120842
0.110625
0.110739
0.121034
0.130559
0.13094
0.121493
0.111147
0.111273
0.121692
0.131178
0.131571
0.122169
0.111695
0.111833
0.122375
0.131816
0.132223
0.122871
0.112272
0.112422
0.123082
0.132473
0.132894
0.123598
0.112876
0.113037
0.123815
0.13315
0.133585
0.124353
0.113509
0.113681
0.124574
0.133847
0.134298
0.125133
0.114169
0.114352
0.125359
0.134565
0.135031
0.125941
0.114858
0.115051
0.126171
0.135304
0.135786
0.126777
0.115575
0.115778
0.12701
0.136062
0.136562
0.127639
0.116321
0.116533
0.127874
0.136841
0.137358
0.128528
0.117094
0.117315
0.128763
0.137639
0.138173
0.129442
0.117895
0.118125
0.129677
0.138456
0.139007
0.130381
0.118722
0.11896
0.130615
0.139291
0.139859
0.131344
0.119575
0.11982
0.131575
0.140141
0.140726
0.132329
0.120452
0.120702
0.132556
0.141005
0.141606
0.133333
0.121351
0.121605
0.133553
0.14188
0.142496
0.134352
0.122269
0.122524
0.134564
0.142762
0.143391
0.135382
0.123201
0.123457
0.135584
0.143648
0.144289
0.136419
0.124144
0.124398
0.136607
0.144532
0.145182
0.137455
0.125093
0.125343
0.137628
0.145409
0.146065
0.138484
0.126042
0.126284
0.138639
0.146273
0.146928
0.139497
0.126983
0.127212
0.139632
0.147119
0.14776
0.140481
0.127906
0.128117
0.14059
0.147937
0.148557
0.14142
0.128798
0.128985
0.141499
0.148714
0.149306
0.142301
0.129647
0.129803
0.142349
0.149441
0.149998
0.143114
0.130438
0.130557
0.143125
0.150107
0.150621
0.143844
0.131157
0.131232
0.143813
0.150702
0.151165
0.144475
0.131789
0.131814
0.144398
0.151214
0.151619
0.144992
0.13232
0.132287
0.144863
0.151634
0.151974
0.14538
0.132734
0.132638
0.145194
0.151952
0.152222
0.145625
0.133018
0.132855
0.145379
0.152162
0.152357
0.145717
0.133162
0.132927
0.145409
0.152259
0.152377
0.145648
0.133157
0.132849
0.145281
0.152239
0.152267
0.145412
0.132999
0.132614
0.144963
0.1521
0.152032
0.144983
0.132681
0.132217
0.144446
0.151839
0.151682
0.14436
0.132201
0.131659
0.143751
0.151477
0.151246
0.143567
0.131562
0.13095
0.142901
0.151006
0.15072
0.142629
0.130775
0.130102
0.141921
0.15045
0.150124
0.141571
0.129857
0.129133
0.140836
0.149833
0.149475
0.14042
0.128826
0.128064
0.139659
0.149161
0.14878
0.139182
0.127704
0.126914
0.1384
0.148452
0.148058
0.137876
0.126507
0.1257
0.137095
0.147725
0.147324
0.136539
0.125256
0.124449
0.135784
0.147001
0.1466
0.135209
0.12398
0.123182
0.134485
0.146282
0.145896
0.133896
0.122693
0.121906
0.133202
0.145576
0.145202
0.132595
0.121399
0.120632
0.131935
0.144883
0.144533
0.131324
0.120116
0.11938
0.13071
0.144231
0.143912
0.130118
0.118869
0.118176
0.129563
0.143632
0.143341
0.128993
0.117675
0.11703
0.128501
0.143081
0.142816
0.127954
0.116544
0.115948
0.127525
0.142576
0.142336
0.127001
0.11548
0.114939
0.126637
0.142116
0.141905
0.12614
0.114494
0.114005
0.125814
0.141709
0.141515
0.125353
0.113585
0.113147
0.125066
0.141345
0.14117
0.124646
0.112759
0.112363
0.124401
0.141024
0.140867
0.124025
0.112012
0.111654
0.123821
0.140745
0.140606
0.123488
0.111341
0.111021
0.123323
0.140506
0.140383
0.123029
0.110745
0.110461
0.122903
0.140302
0.140193
0.122645
0.11022
0.109972
0.122553
0.14013
0.140034
0.122329
0.109765
0.109553
0.122266
0.139984
0.139901
0.122071
0.109377
0.109196
0.122034
0.139863
0.139791
0.121867
0.109048
0.108897
0.121853
0.139764
0.139702
0.121711
0.108775
0.108651
0.121718
0.139684
0.139631
0.121598
0.108552
0.108452
0.121624
0.139622
0.139576
0.121523
0.108373
0.108295
0.121565
0.139573
0.139534
0.12148
0.108235
0.108177
0.121538
0.139538
0.139503
0.121466
0.108133
0.108091
0.121536
0.139512
0.139481
0.121474
0.108061
0.108034
0.121555
0.139493
0.139465
0.1215
0.108015
0.108
0.12159
0.139481
0.139455
0.12154
0.10799
0.107986
0.121637
0.139473
0.139449
0.121592
0.107983
0.107987
0.121693
0.139468
0.139445
0.121651
0.10799
0.108
0.121755
0.139465
0.139442
0.121715
0.108007
0.108021
0.12182
0.139463
0.13944
0.12178
0.108031
0.108048
0.121885
0.139461
0.139437
0.121845
0.108059
0.108078
0.121949
0.139459
0.139434
0.121907
0.108089
0.108109
0.12201
0.139456
0.13943
0.121966
0.108118
0.108138
0.122066
0.139451
0.139424
0.12202
0.108145
0.108164
0.122117
0.139446
0.139418
0.122068
0.108168
0.108185
0.122162
0.139439
0.139409
0.122109
0.108187
0.108202
0.122201
0.13943
0.1394
0.122145
0.1082
0.108212
0.122233
0.13942
0.139389
0.122173
0.108206
0.108216
0.122258
0.139409
0.139378
0.122194
0.108205
0.108212
0.122276
0.139397
0.139365
0.122209
0.108197
0.1082
0.122287
0.139382
0.13935
0.122215
0.108181
0.10818
0.12229
0.139366
0.139333
0.122214
0.108155
0.108151
0.122284
0.139348
0.139313
0.122204
0.10812
0.108111
0.12227
0.139325
0.139287
0.122183
0.108073
0.108058
0.122243
0.139297
0.139251
0.122146
0.108011
0.107986
0.122198
0.139254
0.139184
0.122078
0.107922
0.107881
0.12211
0.139159
0.138823
0.121995
0.107758
0.107678
0.121769
0.138708
0.138495
0.121409
0.107482
0.107124
0.120919
0.138007
0.136536
0.119589
0.106299
0.105965
0.119105
0.135124
0.133871
0.118275
0.105448
0.104986
0.117666
0.132581
0.131494
0.117012
0.104543
0.101626
0.104093
0.11108
0.118189
0.125056
0.130347
0.134522
0.138115
0.141128
0.143821
0.146158
0.148264
0.150116
0.151787
0.153256
0.154572
0.155717
0.156727
0.157583
0.15831
0.158891
0.159341
0.159647
0.159815
0.159828
0.159686
0.15937
0.158871
0.158165
0.157235
0.156043
0.154546
0.152721
0.150522
0.147904
0.144846
0.141266
0.137422
0.13304
0.127377
0.121631
0.11783
0.111646
0.108344
0.111842
0.11949
0.135484
0.160513
0.161094
0.135716
0.119826
0.120071
0.136226
0.161879
0.162063
0.136742
0.12071
0.120807
0.136828
0.16234
0.162455
0.137082
0.121064
0.121147
0.137322
0.162571
0.162975
0.137343
0.121323
0.121503
0.137358
0.163171
0.163262
0.137498
0.121482
0.121632
0.137696
0.163301
0.163259
0.137687
0.121646
0.121727
0.137749
0.163291
0.163266
0.137735
0.121738
0.121818
0.137793
0.163277
0.163254
0.137776
0.121827
0.121907
0.137835
0.163263
0.163238
0.137817
0.121915
0.121995
0.137875
0.163244
0.163219
0.137856
0.122003
0.122085
0.137915
0.163226
0.163199
0.137895
0.122092
0.122174
0.137955
0.163204
0.163177
0.137934
0.122181
0.122265
0.137995
0.163183
0.163154
0.137974
0.122273
0.122357
0.138035
0.163159
0.163131
0.138014
0.122365
0.122452
0.138076
0.163137
0.163107
0.138055
0.12246
0.122547
0.138118
0.163112
0.163083
0.138096
0.122556
0.122646
0.138161
0.163089
0.163059
0.138139
0.122655
0.122746
0.138204
0.163064
0.163034
0.138182
0.122755
0.122849
0.138249
0.16304
0.16301
0.138227
0.122858
0.122953
0.138294
0.163014
0.162984
0.138273
0.122964
0.123061
0.138342
0.162991
0.162959
0.13832
0.123072
0.123171
0.138389
0.162965
0.162934
0.138368
0.123182
0.123284
0.13844
0.162941
0.162909
0.138419
0.123296
0.123399
0.138491
0.162915
0.162884
0.138469
0.123412
0.123518
0.138544
0.162892
0.162859
0.138523
0.123531
0.123638
0.138598
0.162865
0.162834
0.138577
0.123652
0.123763
0.138655
0.162842
0.162809
0.138634
0.123777
0.12389
0.138712
0.162816
0.162784
0.138692
0.123905
0.124021
0.138773
0.162793
0.16276
0.138753
0.124036
0.124153
0.138834
0.162767
0.162735
0.138814
0.12417
0.12429
0.138899
0.162745
0.162711
0.138879
0.124307
0.12443
0.138964
0.162719
0.162686
0.138944
0.124447
0.124573
0.139033
0.162697
0.162663
0.139014
0.124591
0.124719
0.139103
0.162672
0.162639
0.139084
0.124738
0.124869
0.139177
0.16265
0.162616
0.139158
0.124888
0.125021
0.139253
0.162626
0.162593
0.139234
0.125041
0.125177
0.139332
0.162605
0.16257
0.139313
0.125197
0.125335
0.139412
0.162582
0.162548
0.139393
0.125355
0.125497
0.139495
0.162562
0.162526
0.139477
0.125517
0.12566
0.13958
0.162539
0.162504
0.139561
0.12568
0.125826
0.139668
0.162519
0.162483
0.139649
0.125846
0.125994
0.139757
0.162497
0.162462
0.139738
0.126013
0.126164
0.13985
0.162478
0.162441
0.139831
0.126182
0.126334
0.139944
0.162457
0.16242
0.139924
0.126352
0.126507
0.140043
0.162438
0.1624
0.140023
0.126524
0.12668
0.140143
0.162417
0.16238
0.140122
0.126695
0.126853
0.140247
0.1624
0.162361
0.140226
0.126867
0.127025
0.140353
0.16238
0.162342
0.140331
0.127037
0.127196
0.140462
0.162364
0.162325
0.14044
0.127205
0.127364
0.140574
0.162347
0.162308
0.140551
0.12737
0.127527
0.140689
0.162332
0.162292
0.140665
0.127529
0.127684
0.140806
0.162317
0.162278
0.140782
0.127681
0.127833
0.14093
0.162307
0.162267
0.140905
0.127824
0.12797
0.14106
0.162298
0.162259
0.141036
0.127954
0.128093
0.1412
0.162296
0.162258
0.141178
0.128067
0.128192
0.141354
0.1623
0.162266
0.141334
0.128152
0.128258
0.141523
0.162316
0.162286
0.141506
0.128199
0.128273
0.141704
0.162344
0.162321
0.141688
0.128189
0.128214
0.141887
0.162388
0.16237
0.141864
0.128092
0.128045
0.14204
0.16244
0.162429
0.141997
0.127871
0.12772
0.142107
0.162491
0.162487
0.142015
0.127474
0.127206
0.141982
0.162491
0.16248
0.141798
0.126831
0.126451
0.141536
0.162464
0.162411
0.141184
0.125872
0.12534
0.140654
0.162318
0.162141
0.139847
0.124549
0.123864
0.138994
0.161971
0.161671
0.137809
0.122894
0.122076
0.136605
0.161372
0.161009
0.135052
0.120957
0.120017
0.133532
0.160533
0.159955
0.131605
0.11877
0.117741
0.129777
0.159387
0.158678
0.127543
0.116418
0.115377
0.125469
0.158045
0.157267
0.122962
0.114041
0.112912
0.120618
0.156311
0.154821
0.118533
0.111667
0.11055
0.116831
0.153388
0.152237
0.114414
0.109483
0.108659
0.111301
0.151221
0.150222
0.108932
0.107781
0.107485
0.107372
0.148929
0.147934
0.106223
0.107053
0.106848
0.104572
0.147017
0.145766
0.103497
0.106649
0.10715
0.102575
0.14436
0.143596
0.102811
0.107089
0.107812
0.102268
0.142698
0.141541
0.102371
0.107829
0.109366
0.102364
0.140157
0.138089
0.10418
0.110318
0.112781
0.107449
0.135388
0.133304
0.109617
0.114562
0.116965
0.113515
0.13102
0.159092
0.0990029
0.091795
0.108203
0.106485
0.150043
0.151243
0.10266
0.105564
0.105044
0.10052
0.151337
0.150963
0.0996573
0.105089
0.103783
0.0975716
0.150016
0.149282
0.0967566
0.103991
0.10311
0.0953732
0.147788
0.146275
0.0956318
0.104467
0.104079
0.0947511
0.145111
0.143765
0.0967099
0.106245
0.10668
0.0967089
0.141391
0.137629
0.100938
0.110589
0.113014
0.103429
0.133835
0.131085
0.109041
0.117584
0.0878061
0.0921188
0.154546
0.146963
0.0999481
0.107995
0.10716
0.0978236
0.146385
0.145351
0.100336
0.111454
0.11163
0.0996176
0.14362
0.142715
0.101702
0.114625
0.115385
0.102238
0.140705
0.13858
0.104148
0.118183
0.120594
0.105391
0.135928
0.133705
0.111022
0.124595
0.126681
0.114983
0.132648
0.152695
0.0924509
0.0895497
0.113032
0.0999327
0.145892
0.146219
0.0967025
0.111543
0.11464
0.0994636
0.145758
0.143233
0.101424
0.11724
0.117973
0.102093
0.141567
0.139611
0.107889
0.123792
0.126764
0.111139
0.136851
0.135191
0.119046
0.132407
0.0940909
0.0936658
0.151777
0.14574
0.104024
0.122094
0.123363
0.103951
0.143742
0.14175
0.109574
0.131304
0.133651
0.111664
0.139608
0.138477
0.116623
0.139758
0.143973
0.121877
0.137894
0.137932
0.129908
0.147065
0.102545
0.099173
0.150075
0.145089
0.11018
0.134862
0.137122
0.111142
0.143806
0.142579
0.11928
0.144783
0.148085
0.123464
0.141118
0.142808
0.137026
0.156021
0.108793
0.101059
0.152888
0.146127
0.116533
0.145782
0.149128
0.118443
0.144492
0.144335
0.128315
0.16138
0.165642
0.132188
0.143564
0.145236
0.1457
0.175881
0.179579
0.154268
0.148436
0.151565
0.111641
0.126202
0.170333
0.13259
0.148416
0.14767
0.136021
0.174033
0.190659
0.156743
0.151114
0.155903
0.168549
0.198306
0.144226
0.119245
0.154404
0.151034
0.150434
0.195438
0.204006
0.159922
0.153665
0.160895
0.184186
0.224082
0.230527
0.196365
0.167065
0.156942
0.138187
0.173563
0.232538
0.183367
0.161967
0.168866
0.195288
0.243969
0.262639
0.224515
0.180828
0.162588
0.154193
0.204278
0.276446
0.216658
0.175442
0.186672
0.238799
0.296887
0.327503
0.281552
0.208207
0.18137
0.200334
0.271494
0.360655
0.296824
0.207769
0.230862
0.331647
0.393099
0.344346
0.248329
0.202476
0.2483
0.387793
0.465137
0.539345
0.460058
0.29293
0.251159
0.377276
0.516142
0.724653
0.617015
0.369979
0.51334
0.87451
1
1
0.905518
0.461772
1
1
1
1
1
1
0.740748
1
1
0.672344
0.605409
0.375125
0.243933
0.38853
0.449881
0.344838
0.296682
0.195534
0.179235
0.25455
0.292068
0.267359
0.251359
0.190874
0.157428
0.175493
0.216198
0.22033
0.201878
0.166458
0.149279
0.151285
0.175644
0.190237
0.17386
0.153146
0.142416
0.135386
0.15201
0.171809
0.155023
0.147461
0.139772
0.127347
0.139387
0.157231
0.142463
0.140549
0.137524
0.121054
0.130972
0.147611
0.130454
0.132737
0.129857
0.122068
0.138396
0.108766
0.104147
0.134139
0.128135
0.111988
0.129279
0.120072
0.106916
0.127538
0.134841
0.0963887
0.0958234
0.114621
0.103836
0.126787
0.132177
0.0949683
0.0971108
0.114431
0.0999402
0.120129
0.122146
0.0962491
0.106432
0.088056
0.0907822
0.131598
0.119487
0.0946572
0.104561
0.0983666
0.0912433
0.121511
0.131692
0.0869408
0.0830548
0.0974002
0.0889625
0.116969
0.121205
0.0866001
0.0924045
0.0794683
0.0842689
0.132334
0.114543
0.084773
0.0918356
0.0870884
0.0826911
0.118756
0.131656
0.0823703
0.0762347
0.0867204
0.0810661
0.113987
0.11863
0.0801805
0.083197
0.0734368
0.0804343
0.131136
0.111574
0.0778019
0.0828126
0.079757
0.0778773
0.116662
0.130803
0.0785357
0.0715465
0.0803495
0.0761485
0.110577
0.115114
0.0747053
0.0751984
0.0732684
0.0763718
0.122446
0.137122
0.0784918
0.0693873
0.0713615
0.0702942
0.112426
0.119688
0.0714321
0.0701658
0.0649266
0.0754977
0.135132
0.110785
0.0679334
0.0690254
0.0678624
0.070071
0.118097
0.134775
0.0739438
0.0637146
0.0661004
0.0657051
0.109651
0.117069
0.0685851
0.0653655
0.0623562
0.0731695
0.13446
0.109153
0.0657316
0.0653296
0.064183
0.0666387
0.116226
0.133477
0.0741528
0.0613019
0.062262
0.0643165
0.108457
0.115613
0.0650369
0.0617476
0.0598212
0.0741967
0.131681
0.107912
0.0637281
0.0617463
0.0608532
0.0641402
0.115299
0.132178
0.0739783
0.059371
0.0595618
0.0623863
0.108016
0.115704
0.0632706
0.0591924
0.058237
0.0733789
0.13186
0.106641
0.0612871
0.0586363
0.0581204
0.0625856
0.114468
0.130815
0.073249
0.0575819
0.0574796
0.0604592
0.107341
0.115188
0.0614512
0.0566467
0.0568476
0.0739985
0.131552
0.107164
0.0603805
0.0571471
0.0555851
0.0605967
0.114405
0.130923
0.072918
0.0561769
0.0560279
0.0593256
0.106459
0.113935
0.0597207
0.0541592
0.0556217
0.0734737
0.130232
0.107116
0.0590932
0.0556503
0.0534814
0.0595358
0.115188
0.130819
0.0743164
0.0553178
0.054551
0.058433
0.106054
0.113519
0.0588143
0.0523586
0.0544119
0.0734495
0.13044
0.106665
0.0577856
0.0539968
0.0515482
0.0576216
0.114375
0.130344
0.0743193
0.0539611
0.0526832
0.0570543
0.106647
0.115398
0.0579275
0.0507223
0.0530506
0.0740826
0.131251
0.106552
0.0562052
0.0520127
0.0495393
0.0561829
0.114532
0.130673
0.0737118
0.0521579
0.050578
0.0551585
0.106617
0.115212
0.0560312
0.0485596
0.0515659
0.0739991
0.131686
0.106626
0.0546447
0.0499767
0.0481431
0.0566932
0.115891
0.133755
0.0749904
0.0522423
0.0475908
0.051328
0.107832
0.123273
0.0656972
0.0484385
0.0480101
0.051129
0.101361
0.110187
0.0533487
0.0462662
0.0495876
0.071551
0.127224
0.105026
0.0527791
0.0481814
0.0464152
0.0543924
0.113466
0.130248
0.0736754
0.0500131
0.0479563
0.0533912
0.105554
0.114308
0.054352
0.0461608
0.0496768
0.0734075
0.130229
0.10585
0.0525365
0.0473035
0.0453715
0.0532509
0.114766
0.131237
0.0748142
0.0500848
0.0454854
0.0489435
0.106588
0.122404
0.0646988
0.0468142
0.046096
0.0495773
0.100883
0.109347
0.051486
0.0445889
0.0485903
0.0726609
0.126027
0.104416
0.0524037
0.0470247
0.0452973
0.0531237
0.112302
0.12817
0.0728543
0.0492179
0.0468223
0.0517318
0.104634
0.113764
0.0534824
0.0451217
0.0499359
0.0749189
0.13048
0.107369
0.0486484
0.0453516
0.0469257
0.0653864
0.122929
0.100468
0.0490605
0.0456761
0.0441735
0.0521767
0.10953
0.127374
0.0731262
0.0488406
0.0461395
0.0516239
0.10382
0.11271
0.0534733
0.0444835
0.0496889
0.0748814
0.129002
0.106211
0.047848
0.0445629
0.0460207
0.0644627
0.121956
0.100531
0.0481899
0.0446605
0.0430769
0.0506431
0.109276
0.125566
0.0725251
0.0478304
0.0450583
0.0506167
0.103398
0.112304
0.0521278
0.0436718
0.0493678
0.0754741
0.129028
0.107107
0.048839
0.0445764
0.0463198
0.0650893
0.122444
0.100448
0.0481163
0.0445014
0.0427779
0.0504795
0.109032
0.126503
0.0731226
0.0485213
0.0434891
0.0472188
0.103153
0.118811
0.0653634
0.0456995
0.0441641
0.0479008
0.0990088
0.107862
0.0502866
0.0426978
0.0484812
0.0738151
0.123852
0.104372
0.0477931
0.0437715
0.0459579
0.0649831
0.119288
0.0986875
0.0479909
0.0441928
0.0430023
0.0513922
0.107539
0.12228
0.0728385
0.0480312
0.0445057
0.0501246
0.101763
0.110534
0.051871
0.0430879
0.0490112
0.074974
0.126635
0.105823
0.0474836
0.0437872
0.0458721
0.0648896
0.12094
0.100421
0.0473993
0.043467
0.042031
0.0500748
0.109023
0.126057
0.0733448
0.0483765
0.043096
0.0473894
0.104203
0.119265
0.0653222
0.0457504
0.0434616
0.0475714
0.100277
0.108714
0.0506697
0.0421227
0.0481154
0.0732657
0.125426
0.104219
0.0474862
0.0428072
0.0452513
0.0644924
0.119146
0.0989441
0.0466755
0.0427167
0.0412703
0.0492844
0.107456
0.124476
0.072686
0.0480022
0.0426004
0.0465712
0.103495
0.118469
0.0650607
0.0455261
0.0427669
0.0466964
0.0987252
0.107975
0.0501143
0.0416341
0.0481923
0.0739816
0.124112
0.105219
0.04739
0.0430142
0.0456191
0.0646703
0.120304
0.0983949
0.0466774
0.0426911
0.0412427
0.0493178
0.10687
0.122282
0.0738551
0.0481477
0.0423862
0.0461634
0.102378
0.11827
0.0673425
0.0466004
0.041833
0.0434882
0.0973625
0.112547
0.0635911
0.0448111
0.0421823
0.0455661
0.0939063
0.102896
0.0498768
0.0413017
0.0480037
0.0724927
0.119732
0.100842
0.0467579
0.0427438
0.0458485
0.0653942
0.115539
0.0969456
0.0467237
0.0427933
0.041728
0.0503427
0.105777
0.121547
0.0731727
0.0485791
0.0429792
0.0464375
0.101762
0.116909
0.0666138
0.046841
0.041932
0.0438883
0.0979093
0.112067
0.0632414
0.0449753
0.0421521
0.0456599
0.0949288
0.10319
0.0491306
0.0410218
0.0479208
0.0718499
0.119448
0.102487
0.0467152
0.0424568
0.0453882
0.0643452
0.116321
0.0967544
0.0460372
0.0421553
0.0411182
0.0494833
0.105364
0.120814
0.0733208
0.0482138
0.0424626
0.0467043
0.102325
0.117374
0.0672358
0.0468645
0.0418319
0.0437153
0.0971062
0.11134
0.0627529
0.0448358
0.0417212
0.0451383
0.0928374
0.101409
0.0488643
0.0407509
0.0477644
0.0725421
0.116956
0.0995433
0.046267
0.0421687
0.0455607
0.0650769
0.114214
0.0951954
0.0457205
0.0418122
0.0408949
0.0497423
0.103859
0.120157
0.0725182
0.0484631
0.0422188
0.0455797
0.102114
0.117117
0.0667395
0.0468276
0.0414363
0.0435565
0.0967899
0.111477
0.064221
0.0450641
0.0416713
0.0458252
0.0951822
0.104024
0.0492809
0.0407736
0.0485274
0.0737485
0.118657
0.101221
0.0456789
0.0418659
0.0462341
0.0653481
0.116581
0.0982177
0.0424763
0.0407754
0.0442103
0.0625199
0.112002
0.094125
0.04456
0.040757
0.0397903
0.0480814
0.102353
0.118353
0.071731
0.0479435
0.04142
0.0447897
0.101171
0.115997
0.0653129
0.0460379
0.040574
0.0421609
0.0969459
0.111203
0.063421
0.0449425
0.0402871
0.0422836
0.0944022
0.108199
0.0628196
0.0441227
0.0408557
0.0446235
0.0913292
0.0998908
0.0488348
0.0402657
0.0480954
0.0716987
0.115407
0.0981178
0.0457436
0.041616
0.0462368
0.0656761
0.113018
0.0950589
0.0429882
0.0407618
0.0443444
0.0622779
0.108902
0.091687
0.0444178
0.0408501
0.0399942
0.0479951
0.0999745
0.114991
0.0723632
0.0479027
0.0411276
0.0457569
0.0977945
0.112632
0.0653887
0.0461828
0.0406441
0.0424234
0.0954787
0.10914
0.0621054
0.0445053
0.0406285
0.0441363
0.0916782
0.100006
0.0481865
0.0399573
0.0482882
0.073084
0.114649
0.0993184
0.0455334
0.0413309
0.0467076
0.0659415
0.114822
0.0958539
0.0423028
0.0404311
0.0451498
0.0629643
0.109893
0.0923882
0.0415863
0.0398558
0.0439904
0.0621642
0.106112
0.0895546
0.0437527
0.0400012
0.0392995
0.0479647
0.0976433
0.112973
0.0704866
0.0476935
0.0407258
0.0446635
0.097168
0.111843
0.0648437
0.046117
0.0399165
0.0419527
0.0940076
0.107922
0.0626441
0.0449234
0.0397551
0.0418596
0.0916404
0.104917
0.0621825
0.0439644
0.0399524
0.0438089
0.0887073
0.0972345
0.0483775
0.0394617
0.0479806
0.0715117
0.112181
0.0967451
0.0453838
0.0409023
0.0463879
0.0647718
0.111395
0.0939956
0.042173
0.0400063
0.0445358
0.0627259
0.106801
0.0893912
0.0436289
0.0397647
0.0390957
0.047484
0.0978976
0.112958
0.0716737
0.0475316
0.0400488
0.0449323
0.0964575
0.111117
0.0649842
0.0459164
0.0392218
0.0412361
0.0936942
0.108058
0.0623088
0.0445638
0.0388356
0.0407028
0.091683
0.105368
0.0616792
0.044081
0.0388945
0.0412967
0.0896954
0.102606
0.0614752
0.0435296
0.0392353
0.043482
0.0877511
0.0956465
0.0477329
0.038775
0.0477816
0.0703564
0.111153
0.095243
0.0450103
0.0402601
0.0461053
0.0645545
0.109729
0.093172
0.0416437
0.0393881
0.0446723
0.0622844
0.106502
0.0900989
0.0413462
0.0388598
0.0436702
0.0615415
0.102824
0.087831
0.0432404
0.0388577
0.038281
0.046739
0.0954283
0.110249
0.0697667
0.0471528
0.0397538
0.0439202
0.0945531
0.109205
0.0640555
0.0456621
0.0388031
0.0411952
0.0919351
0.105444
0.0613962
0.0442751
0.0383621
0.040547
0.0899358
0.102645
0.0610172
0.0433843
0.0384831
0.0428584
0.087183
0.0951898
0.0470968
0.038066
0.0473854
0.070736
0.109404
0.0949947
0.0443335
0.039692
0.0458066
0.0643363
0.109287
0.0933592
0.0411626
0.0386327
0.0445613
0.0621854
0.106967
0.090349
0.0405388
0.0381411
0.0438474
0.0613678
0.103704
0.0885272
0.0407634
0.037809
0.0429487
0.0606962
0.101353
0.0860709
0.0424706
0.037951
0.0374643
0.0465218
0.09369
0.108144
0.0689647
0.0466803
0.0390667
0.0438761
0.0936228
0.107923
0.0630897
0.0451344
0.0381382
0.0404788
0.091177
0.104338
0.0611828
0.0439824
0.0377707
0.0405175
0.0890839
0.10169
0.0608198
0.043228
0.0377249
0.0427634
0.087041
0.0948192
0.0469211
0.0374291
0.0473004
0.0695254
0.110193
0.0944539
0.0436387
0.0389522
0.0453713
0.0635571
0.109304
0.0920642
0.0406281
0.0378331
0.0439682
0.0613019
0.105505
0.0899859
0.0397676
0.0372049
0.0432441
0.0608123
0.103004
0.0874924
0.0400432
0.036962
0.0425264
0.0603263
0.100286
0.0857138
0.0419817
0.0369728
0.0365684
0.0459565
0.0931237
0.107959
0.068803
0.0463716
0.0384111
0.0431961
0.0924231
0.106763
0.0628861
0.0448031
0.0373921
0.0399043
0.0902881
0.103478
0.0604497
0.0434537
0.0369106
0.0395287
0.0886657
0.101561
0.0602822
0.0430719
0.0368468
0.0399769
0.0865811
0.0989335
0.0598946
0.0425919
0.0368999
0.0421418
0.0850577
0.0930895
0.0464118
0.0366937
0.0467838
0.0696782
0.107116
0.0927095
0.0432586
0.0382594
0.0448817
0.0636492
0.106883
0.0902704
0.0399411
0.0372377
0.0435985
0.0608593
0.103284
0.0877848
0.0393021
0.0366199
0.042866
0.0602161
0.100952
0.0862817
0.0397426
0.0364514
0.0421404
0.0594619
0.0985783
0.0843024
0.041462
0.0363421
0.0360417
0.0454134
0.0918857
0.105615
0.0683
0.0459502
0.037719
0.0428674
0.0907396
0.104722
0.0627171
0.0444155
0.0369114
0.0396916
0.088448
0.101709
0.0603738
0.0431643
0.0364878
0.0393993
0.0873033
0.0997157
0.0594803
0.042754
0.0363327
0.0392645
0.0853753
0.0978494
0.0590654
0.0424422
0.0363429
0.0396486
0.083862
0.0954024
0.0588406
0.0420609
0.0363498
0.0415641
0.0818495
0.0891051
0.0457204
0.0362282
0.0462636
0.0673185
0.103362
0.0893623
0.0431652
0.0379861
0.0445469
0.0616149
0.10315
0.0879729
0.0395593
0.036986
0.0432369
0.0600238
0.100703
0.0856776
0.0395005
0.0364729
0.0427847
0.0595741
0.0979659
0.0835987
0.039739
0.0362238
0.0420551
0.0589771
0.0954425
0.08185
0.041303
0.0360707
0.0358824
0.0451716
0.0889875
0.10254
0.0666186
0.045884
0.0375226
0.0423868
0.0884847
0.10245
0.0617446
0.0442067
0.0365599
0.0394716
0.0868008
0.0994339
0.0594462
0.0428758
0.0360818
0.0390994
0.0846064
0.096719
0.0589862
0.0423312
0.0359167
0.0394713
0.0825611
0.0940516
0.058493
0.0417794
0.0357318
0.0410482
0.0808333
0.0880223
0.0452286
0.0357135
0.0458841
0.0664689
0.101783
0.0878963
0.0426013
0.0373812
0.0442488
0.061546
0.101789
0.0863361
0.0395398
0.0363505
0.042932
0.0596601
0.0988066
0.0848341
0.0392241
0.0358311
0.0422899
0.0588028
0.0971368
0.0832458
0.0390212
0.0355221
0.0414987
0.0581534
0.0948264
0.0809608
0.0405481
0.0352883
0.035191
0.0444884
0.0880196
0.100842
0.0664526
0.0454224
0.0368031
0.0421068
0.0870006
0.100707
0.0612888
0.043792
0.0358896
0.0389512
0.0855115
0.0979968
0.0590024
0.0424913
0.0354426
0.0385047
0.0836131
0.0956463
0.0578356
0.0418391
0.0352687
0.0383382
0.0823875
0.0940116
0.0575927
0.0415885
0.035228
0.0388293
0.0810166
0.0920723
0.0570853
0.0411284
0.0350517
0.0403766
0.079352
0.0862768
0.0447528
0.0350612
0.0453454
0.0655264
0.0999504
0.0862441
0.0420878
0.0368467
0.0436969
0.0604302
0.0995538
0.0852923
0.0390747
0.0357617
0.0422144
0.0583068
0.0970085
0.0830176
0.0382394
0.0351085
0.0416864
0.0578121
0.0943653
0.0810586
0.0387705
0.0349877
0.0410257