/*--------------------------------*- C++ -*----------------------------------*\
| =========                 |                                                 |
| \\      /  F ield         | OpenFOAM: The Open Source CFD Toolbox           |
|  \\    /   O peration     | Version:  v2006                                 |
|   \\  /    A nd           | Website:  www.openfoam.com                      |
|    \\/     M anipulation  |                                                 |
\*---------------------------------------------------------------------------*/
FoamFile
{
    version     2.0;
    format      ascii;
    class       volScalarField;
    location    "0.156";
    object      turbulenceProperties:L;
}
// * * * * * * * * * * * * * * * * * * * * * * * * * * * * * * * * * * * * * //

dimensions      [0 1 0 0 0 0 0];


internalField   nonuniform List<scalar> 
16277
(
1998.76
1998.74
1999.12
1999.25
1999.6
1999.51
1999.49
1999.28
1998.8
1998.12
1997.37
1996.68
1996.09
1995.58
1995.13
1994.72
1994.32
1993.93
1993.54
1993.17
1992.81
1992.45
1992.11
1991.77
1991.44
1991.12
1990.8
1990.49
1990.19
1989.89
1989.59
1989.31
1989.03
1988.75
1988.49
1988.23
1987.98
1987.74
1987.51
1987.29
1987.08
1986.88
1986.69
1986.52
1986.36
1986.21
1986.07
1985.95
1985.85
1985.76
1985.69
1985.63
1985.59
1985.57
1985.57
1985.58
1985.62
1985.67
1985.75
1985.84
1985.95
1986.06
1986.18
1986.25
1986.18
1985.75
1984.4
1980.76
1971.2
1947.51
1896.72
1794.49
1607.86
1316.52
954.884
612.039
356.543
195.437
103.509
54.2393
28.4278
15.2721
9.12134
7.01292
5.13074
4.27654
3.524
1.9347
1.11788
0.885921
0.988295
0.374162
0.121352
0.0320748
0.0037253
0.000676235
4.70418e-05
4.51109e-05
0.000325013
0.00146002
0.000819233
0.000221171
4.31574e-05
4.18663e-05
0.000207442
0.000698858
0.000573418
0.000187013
4.15216e-05
4.10403e-05
0.000185002
0.000550564
0.000489886
0.000173553
4.07296e-05
4.03716e-05
0.000173034
0.000482192
0.00044974
0.000166465
4.01594e-05
4.00757e-05
0.000168994
0.000448779
0.000428599
0.000163764
3.99808e-05
3.99174e-05
0.00016628
0.000428798
0.000413559
0.000161754
3.98363e-05
3.97865e-05
0.000164
0.000414578
0.000401805
0.000159924
3.97153e-05
3.96745e-05
0.000161964
0.000403228
0.000391935
0.000158198
3.96113e-05
3.95762e-05
0.000160129
0.000393602
0.000383336
0.000156562
3.95184e-05
3.94872e-05
0.000158432
0.00038515
0.000375644
0.00015499
3.94332e-05
3.94049e-05
0.000156802
0.000377548
0.000368641
0.000153468
3.93535e-05
3.93271e-05
0.000155238
0.000370606
0.000362204
0.000152004
3.92774e-05
3.92524e-05
0.000153744
0.000364216
0.000356242
0.000150607
3.92039e-05
3.91797e-05
0.000152326
0.000358304
0.000350689
0.000149279
3.91319e-05
3.91083e-05
0.000150979
0.000352808
0.000345518
0.000148014
3.90609e-05
3.90376e-05
0.000149698
0.000347689
0.000340693
0.000146811
3.89903e-05
3.89671e-05
0.000148481
0.000342911
0.000336184
0.000145666
3.89197e-05
3.88965e-05
0.000147327
0.000338444
0.000331963
0.000144581
3.88488e-05
3.88254e-05
0.000146233
0.000334257
0.000327999
0.000143554
3.87773e-05
3.87537e-05
0.000145197
0.000330319
0.00032426
0.000142578
3.8705e-05
3.8681e-05
0.000144214
0.000326599
0.00032072
0.000141651
3.86315e-05
3.86071e-05
0.000143278
0.000323071
0.000317355
0.000140767
3.85567e-05
3.85317e-05
0.000142386
0.000319715
0.000314146
0.000139922
3.84803e-05
3.84545e-05
0.000141533
0.00031651
0.000311075
0.000139112
3.84018e-05
3.83752e-05
0.000140714
0.000313439
0.000308126
0.000138332
3.8321e-05
3.82934e-05
0.000139925
0.000310486
0.000305286
0.000137579
3.82375e-05
3.82088e-05
0.000139163
0.00030764
0.000302543
0.00013685
3.81509e-05
3.8121e-05
0.000138426
0.00030489
0.000299889
0.000136143
3.8061e-05
3.80296e-05
0.000137711
0.000302226
0.000297314
0.000135456
3.79671e-05
3.79342e-05
0.000137016
0.000299643
0.000294816
0.000134787
3.78691e-05
3.78344e-05
0.000136341
0.000297137
0.000292391
0.000134138
3.77663e-05
3.77297e-05
0.000135686
0.000294706
0.000290039
0.000133507
3.76585e-05
3.76199e-05
0.000135056
0.000292351
0.000287763
0.000132899
3.75451e-05
3.75045e-05
0.000134462
0.000290076
0.000285567
0.000132318
3.7426e-05
3.73832e-05
0.000133892
0.000287885
0.000283455
0.00013176
3.73008e-05
3.72557e-05
0.000133352
0.000285784
0.000281435
0.000131233
3.71693e-05
3.7122e-05
0.000132848
0.000283781
0.000279519
0.000130744
3.70314e-05
3.69821e-05
0.000132389
0.000281892
0.000277724
0.000130302
3.68872e-05
3.68361e-05
0.000131986
0.000280139
0.000276076
0.000129917
3.67372e-05
3.66846e-05
0.000131652
0.000278584
0.000274616
0.000129607
3.65821e-05
3.65287e-05
0.000131406
0.000277265
0.000273379
0.000129389
3.64231e-05
3.63698e-05
0.000131266
0.000276185
0.000272396
0.000129284
3.62622e-05
3.62103e-05
0.000131256
0.000275405
0.000271732
0.000129317
3.6102e-05
3.60532e-05
0.000131405
0.000274995
0.000271459
0.000129519
3.5946e-05
3.59024e-05
0.000131743
0.000275032
0.000271658
0.000129925
3.57986e-05
3.57634e-05
0.00013228
0.000275597
0.000272418
0.000130558
3.56662e-05
3.56413e-05
0.000132967
0.000276744
0.000273772
0.000131339
3.55567e-05
3.55426e-05
0.000133827
0.000278613
0.000275848
0.000132314
3.54742e-05
3.54723e-05
0.000134873
0.0002812
0.000278626
0.000133478
3.54268e-05
3.54349e-05
0.000136073
0.000284444
0.000282051
0.000134804
3.54211e-05
3.54331e-05
0.000137376
0.000288222
0.000285977
0.000136177
3.54273e-05
3.54678e-05
0.000138698
0.000292478
0.000290364
0.000137506
3.54742e-05
3.55355e-05
0.000139926
0.000297093
0.000295041
0.000138745
3.5554e-05
3.56318e-05
0.000140947
0.000301678
0.00029959
0.00013977
3.56588e-05
3.57466e-05
0.000141752
0.000305924
0.000303738
0.000140493
3.57794e-05
3.58728e-05
0.000142399
0.000309676
0.000307376
0.000140976
3.59093e-05
3.60057e-05
0.000142804
0.000312844
0.000310434
0.000141283
3.60441e-05
3.61409e-05
0.000143007
0.000315386
0.000312856
0.000141326
3.61793e-05
3.62737e-05
0.000142984
0.000317299
0.000314591
0.000141163
3.63108e-05
3.64007e-05
0.000142759
0.00031857
0.000315615
0.00014082
3.64355e-05
3.65196e-05
0.000142352
0.000319406
0.000316051
0.000140336
3.65513e-05
3.66282e-05
0.000141813
0.000319582
0.000315835
0.000139667
3.66564e-05
3.67255e-05
0.000141166
0.000319114
0.000314767
0.000138811
3.675e-05
3.68107e-05
0.00014031
0.000317944
0.000313259
0.000137884
3.68312e-05
3.68834e-05
0.000139386
0.000316344
0.000311443
0.000136935
3.68997e-05
3.69435e-05
0.000138438
0.000314422
0.000309374
0.000135999
3.69559e-05
3.69919e-05
0.000137498
0.000312239
0.000307124
0.000135103
3.70007e-05
3.70295e-05
0.000136591
0.000309877
0.000304768
0.000134265
3.70351e-05
3.70576e-05
0.000135738
0.000307415
0.00030237
0.000133499
3.70604e-05
3.70778e-05
0.000134953
0.000304915
0.000299986
0.000132798
3.70782e-05
3.70909e-05
0.000134228
0.000302442
0.000297628
0.000132162
3.70897e-05
3.70984e-05
0.000133564
0.000300033
0.000295346
0.000131581
3.7096e-05
3.71016e-05
0.000132953
0.000297708
0.000293154
0.000131048
3.70982e-05
3.71018e-05
0.000132393
0.000295497
0.000291055
0.00013054
3.70969e-05
3.70992e-05
0.000131872
0.000293387
0.000289046
0.000130053
3.70919e-05
3.70938e-05
0.000131391
0.00029137
0.000287128
0.000129604
3.70851e-05
3.70866e-05
0.000130946
0.000289445
0.000285296
0.000129186
3.70767e-05
3.70779e-05
0.00013053
0.000287604
0.000283522
0.000128788
3.70669e-05
3.70677e-05
0.000130119
0.000285808
0.000281781
0.000128387
3.70552e-05
3.70558e-05
0.000129709
0.000284052
0.000280066
0.000127997
3.70431e-05
3.70435e-05
0.000129321
0.000282359
0.000278431
0.00012763
3.70306e-05
3.70311e-05
0.000128955
0.000280758
0.000276885
0.000127276
3.70176e-05
3.70181e-05
0.000128598
0.000279226
0.000275389
0.000126919
3.69965e-05
3.70124e-05
0.000128252
0.000277755
0.000273757
0.000126566
3.69754e-05
3.6999e-05
0.000127798
0.000276425
0.000272587
0.00012591
3.69323e-05
3.71176e-05
0.000128138
0.000276727
0.000274254
0.000128041
3.72242e-05
3.77434e-05
0.000128416
0.000277425
0.000290727
0.000134788
3.84475e-05
4.1115e-05
0.000127561
0.000283189
0.000420864
0.000235608
4.708e-05
4.18583e-05
9.89381e-05
0.000220321
0.000497231
0.00104746
0.00181636
0.00244928
0.00284783
0.00358553
0.00402908
0.00441527
0.0046162
0.00469693
0.00464207
0.00443591
0.00416155
0.00372748
0.00331048
0.00266387
0.00237924
0.00181484
0.00142319
0.00102156
0.000619076
0.000299908
0.000116401
5.02953e-05
1.288e-05
1.18202e-05
4.63531e-05
0.000105617
9.94687e-05
4.37874e-05
1.10054e-05
1.03952e-05
4.19373e-05
9.45199e-05
9.4689e-05
4.16683e-05
1.02011e-05
1.00847e-05
4.13894e-05
9.31759e-05
9.30962e-05
4.10031e-05
9.96417e-06
9.95394e-06
4.09225e-05
9.28495e-05
9.30353e-05
4.09482e-05
9.96346e-06
9.96187e-06
4.09546e-05
9.31272e-05
9.32031e-05
4.09791e-05
9.97349e-06
9.97881e-06
4.10048e-05
9.3349e-05
9.34154e-05
4.10259e-05
9.98457e-06
9.99653e-06
4.10625e-05
9.3584e-05
9.3687e-05
4.10836e-05
9.99138e-06
1.00047e-05
4.11397e-05
9.38644e-05
9.39682e-05
4.11636e-05
1.00112e-05
1.00242e-05
4.12081e-05
9.41465e-05
9.42404e-05
4.12275e-05
1.00248e-05
1.00265e-05
4.12869e-05
9.44483e-05
9.45425e-05
4.13071e-05
1.00446e-05
1.00464e-05
4.13576e-05
9.47219e-05
9.48004e-05
4.13672e-05
1.00533e-05
1.00544e-05
4.14215e-05
9.49847e-05
9.50706e-05
4.14406e-05
1.00734e-05
1.00755e-05
4.14953e-05
9.52792e-05
9.53978e-05
4.15252e-05
1.00835e-05
1.00858e-05
4.15965e-05
9.56304e-05
9.57334e-05
4.16213e-05
1.01051e-05
1.0107e-05
4.16767e-05
9.59284e-05
9.60138e-05
4.16909e-05
1.01146e-05
1.01161e-05
4.17474e-05
9.62139e-05
9.63159e-05
4.17728e-05
1.01355e-05
1.01381e-05
4.18382e-05
9.65493e-05
9.66583e-05
4.18686e-05
1.01468e-05
1.01489e-05
4.19352e-05
9.68793e-05
9.69788e-05
4.19608e-05
1.01629e-05
1.01771e-05
4.20148e-05
9.71949e-05
9.72958e-05
4.20451e-05
1.01794e-05
1.01822e-05
4.21117e-05
9.7536e-05
9.76497e-05
4.21446e-05
1.01963e-05
1.02111e-05
4.22026e-05
9.78616e-05
9.79538e-05
4.22273e-05
1.02133e-05
1.02159e-05
4.22885e-05
9.81605e-05
9.82563e-05
4.23152e-05
1.02298e-05
1.02449e-05
4.23768e-05
9.84841e-05
9.86033e-05
4.2412e-05
1.02477e-05
1.02518e-05
4.24916e-05
9.88356e-05
9.89336e-05
4.25202e-05
1.02661e-05
1.02809e-05
4.25779e-05
9.91361e-05
9.92216e-05
4.25923e-05
1.02826e-05
1.02856e-05
4.26622e-05
9.94465e-05
9.9562e-05
4.26996e-05
1.03e-05
1.03155e-05
4.27664e-05
9.97732e-05
9.98392e-05
4.27778e-05
1.03174e-05
1.03201e-05
4.28376e-05
0.000100022
0.000100098
4.28505e-05
1.03338e-05
1.03486e-05
4.2909e-05
0.000100281
0.000100362
4.29214e-05
1.03504e-05
1.03537e-05
4.29909e-05
0.000100551
0.000100622
4.30007e-05
1.03672e-05
1.03813e-05
4.30472e-05
0.000100791
0.00010084
4.30426e-05
1.03823e-05
1.03843e-05
4.30862e-05
0.000100996
0.000101008
4.30714e-05
1.04023e-05
1.0403e-05
4.30814e-05
0.000101116
0.000101124
4.30491e-05
1.04085e-05
1.04087e-05
4.30588e-05
0.000101215
0.000101199
4.30209e-05
1.04263e-05
1.04256e-05
4.29962e-05
0.000101244
0.000101246
4.29362e-05
1.04307e-05
1.04294e-05
4.29106e-05
0.000101296
0.000101303
4.28398e-05
1.04404e-05
1.04504e-05
4.27721e-05
0.000101318
0.00010122
4.2652e-05
1.04478e-05
1.04441e-05
4.25291e-05
0.000101149
0.00010101
4.23574e-05
1.04524e-05
1.0462e-05
4.22101e-05
0.000100975
0.000100912
4.20372e-05
1.04614e-05
1.04635e-05
4.19035e-05
0.000100981
0.000100802
4.16834e-05
1.04831e-05
1.04858e-05
4.14561e-05
0.000100697
0.000100411
4.11365e-05
1.04937e-05
1.04994e-05
4.08755e-05
0.000100347
0.000100302
4.06208e-05
1.05232e-05
1.05552e-05
4.0441e-05
0.00010062
0.000100623
4.01676e-05
1.05798e-05
1.06126e-05
3.98693e-05
0.000100682
0.000100429
3.94888e-05
1.06473e-05
1.06912e-05
3.9172e-05
0.000100618
0.000101035
3.88909e-05
1.07491e-05
1.08255e-05
3.88179e-05
0.000101994
0.000102823
3.8694e-05
1.09132e-05
1.10029e-05
3.86465e-05
0.000103846
0.000105499
3.92904e-05
1.11804e-05
1.1354e-05
3.9834e-05
0.000106882
0.000107749
3.99818e-05
1.13325e-05
1.14715e-05
3.94837e-05
0.00010893
0.000110714
4.16873e-05
1.17304e-05
1.1878e-05
4.08815e-05
0.00011154
0.000112836
4.20224e-05
1.21547e-05
1.24043e-05
4.26626e-05
0.000114633
0.000115044
4.36162e-05
1.27641e-05
1.32342e-05
4.55576e-05
0.000117176
0.00011706
4.65356e-05
1.36262e-05
1.39328e-05
4.75939e-05
0.000117831
0.000117256
4.83108e-05
1.45905e-05
1.57438e-05
5.37723e-05
0.000119116
0.000117374
5.55355e-05
1.08412e-05
6.20054e-06
1.60465e-05
4.18036e-05
9.98643e-05
3.59092e-05
8.36341e-06
9.22731e-06
3.20987e-05
9.24551e-05
9.67133e-05
3.3665e-05
9.44489e-06
9.62493e-06
3.22122e-05
9.30727e-05
9.85746e-05
3.45495e-05
1.0024e-05
1.04956e-05
3.41458e-05
9.72137e-05
0.000104206
3.81374e-05
1.10802e-05
1.16978e-05
3.77374e-05
0.000102015
0.000108226
4.26474e-05
1.24499e-05
1.33678e-05
4.31789e-05
0.000107775
0.000114667
4.93612e-05
1.48837e-05
1.05379e-05
5.28392e-05
0.000115126
4.104e-05
1.52763e-05
6.46663e-06
9.02193e-06
3.76754e-05
0.000104389
0.000101285
3.51077e-05
1.06486e-05
1.1822e-05
4.41547e-05
0.000118544
0.000119235
4.41119e-05
1.26715e-05
1.37187e-05
4.96376e-05
0.000128051
0.000129558
5.21063e-05
1.48647e-05
1.64327e-05
5.88152e-05
0.000135895
0.000130831
6.13528e-05
1.16458e-05
7.01873e-06
1.7602e-05
4.67656e-05
0.000114104
4.20978e-05
9.63314e-06
1.10742e-05
3.91883e-05
0.000110523
0.000121372
4.61227e-05
1.19943e-05
1.3049e-05
4.55023e-05
0.000118686
0.000127156
5.36414e-05
1.48538e-05
1.07691e-05
5.89287e-05
0.000125477
4.57026e-05
1.6819e-05
6.65908e-06
9.60571e-06
4.12715e-05
0.000116853
0.000117611
4.22364e-05
1.17436e-05
1.38909e-05
5.46731e-05
0.000140881
0.000143618
6.08719e-05
1.59215e-05
1.15254e-05
6.57834e-05
0.000141289
5.2055e-05
1.82463e-05
6.86086e-06
9.91877e-06
4.92509e-05
0.000128885
0.000126053
4.66053e-05
1.21758e-05
1.45947e-05
6.09628e-05
0.000146717
0.000145681
6.69667e-05
1.08639e-05
6.71353e-06
1.89085e-05
5.64517e-05
0.000145986
5.48019e-05
1.04249e-05
1.36775e-05
5.55315e-05
0.000152073
0.000193069
8.10466e-05
1.68763e-05
1.27948e-05
8.32513e-05
0.000182817
7.67241e-05
2.58764e-05
8.22608e-06
1.35068e-05
7.84884e-05
0.000190444
0.000186324
8.02666e-05
1.12153e-05
7.7392e-06
2.66163e-05
8.33598e-05
0.000236824
9.0741e-05
1.40459e-05
1.24395e-05
9.88786e-05
0.00024916
0.000119968
4.20271e-05
9.66753e-06
1.10668e-05
0.000100664
0.000272862
0.000186733
7.29888e-05
1.01018e-05
1.36143e-05
0.000107823
0.00031991
0.000266172
9.03162e-05
1.12645e-05
1.11417e-05
8.6951e-05
0.000256868
0.000280045
9.68429e-05
1.30471e-05
1.7071e-05
0.000171697
0.000472452
0.000104833
3.92159e-05
1.41118e-05
1.31159e-05
9.56246e-05
0.000203423
7.48837e-05
3.15528e-05
1.21626e-05
1.35114e-05
6.92397e-05
0.00014832
0.000133008
5.59372e-05
1.47601e-05
8.1218e-06
1.90099e-05
4.8614e-05
9.90828e-05
6.13518e-05
9.9094e-06
1.05122e-05
2.44681e-05
5.46392e-05
0.000115882
5.88462e-05
1.28466e-05
1.4768e-05
5.1495e-05
0.000109631
4.59983e-05
1.97634e-05
8.93581e-06
1.17152e-05
5.30645e-05
0.000100633
9.70643e-05
4.75199e-05
1.40065e-05
8.56789e-06
1.84821e-05
4.21847e-05
9.37323e-05
4.97343e-05
1.12758e-05
1.36516e-05
4.57345e-05
9.09111e-05
4.04585e-05
1.81921e-05
8.52925e-06
1.11143e-05
4.75579e-05
8.92754e-05
8.56439e-05
4.38654e-05
1.34891e-05
8.45255e-06
1.74371e-05
3.85141e-05
8.44511e-05
4.53082e-05
1.09872e-05
1.34998e-05
4.18464e-05
8.15068e-05
3.70105e-05
1.71548e-05
8.55396e-06
1.1142e-05
4.44519e-05
8.09161e-05
7.6818e-05
4.04573e-05
1.35639e-05
8.5018e-06
1.66083e-05
3.531e-05
7.74876e-05
4.27263e-05
1.10478e-05
1.36699e-05
3.91442e-05
7.36774e-05
3.49581e-05
1.69186e-05
8.8165e-06
1.16192e-05
4.41026e-05
7.7498e-05
7.09817e-05
3.75986e-05
1.50397e-05
1.1082e-05
3.11954e-05
6.19826e-05
2.84119e-05
1.2952e-05
7.03998e-06
9.07426e-06
3.33167e-05
6.07588e-05
6.00443e-05
3.177e-05
1.15639e-05
7.32658e-06
1.36675e-05
2.86433e-05
5.96477e-05
3.3827e-05
9.32866e-06
1.17811e-05
3.15236e-05
5.76576e-05
2.78291e-05
1.35085e-05
7.39452e-06
9.24239e-06
3.26007e-05
5.60961e-05
5.52301e-05
3.11763e-05
1.16853e-05
7.4165e-06
1.34195e-05
2.72759e-05
5.50478e-05
3.23049e-05
9.36866e-06
1.179e-05
3.04287e-05
5.32969e-05
2.66229e-05
1.31917e-05
7.32449e-06
9.19705e-06
3.10285e-05
5.26379e-05
5.18069e-05
3.01214e-05
1.17728e-05
7.4301e-06
1.28306e-05
2.58727e-05
5.09799e-05
3.04081e-05
9.19956e-06
1.17298e-05
2.86229e-05
4.96359e-05
2.50072e-05
1.2688e-05
7.2891e-06
8.83288e-06
2.8926e-05
4.78422e-05
4.70528e-05
2.71486e-05
1.11969e-05
6.86626e-06
1.16684e-05
2.28681e-05
4.25304e-05
3.16794e-05
7.87704e-06
9.36733e-06
1.51285e-05
2.68284e-05
5.43445e-05
3.35433e-05
1.12065e-05
1.36105e-05
3.10016e-05
5.2182e-05
2.7225e-05
1.43504e-05
8.42897e-06
1.02665e-05
3.22721e-05
5.1668e-05
5.00086e-05
2.99898e-05
1.30335e-05
8.27478e-06
1.4137e-05
2.63694e-05
5.12701e-05
3.17307e-05
1.0158e-05
1.28131e-05
2.98919e-05
4.94817e-05
2.60481e-05
1.39825e-05
8.10102e-06
9.83179e-06
3.06647e-05
4.83332e-05
4.71155e-05
2.83639e-05
1.25563e-05
7.94349e-06
1.37452e-05
2.51698e-05
4.65714e-05
2.92966e-05
9.46984e-06
1.18551e-05
2.69492e-05
4.47707e-05
2.24012e-05
1.22625e-05
7.17024e-06
8.02621e-06
2.98082e-05
3.92614e-05
2.49239e-05
1.49543e-05
9.45585e-06
1.09567e-05
2.93843e-05
4.65429e-05
4.41356e-05
2.69526e-05
1.32892e-05
8.16153e-06
1.39027e-05
2.4003e-05
4.33861e-05
2.81268e-05
9.66849e-06
1.21799e-05
2.6323e-05
4.125e-05
2.19404e-05
1.26675e-05
7.5281e-06
8.30699e-06
2.89799e-05
3.73467e-05
2.42945e-05
1.49865e-05
9.79001e-06
1.13242e-05
2.90964e-05
4.47976e-05
4.20884e-05
2.6467e-05
1.3607e-05
8.33246e-06
1.39975e-05
2.34537e-05
4.21589e-05
2.76279e-05
9.87557e-06
1.23173e-05
2.52582e-05
3.99739e-05
2.12931e-05
1.25623e-05
7.48995e-06
8.28469e-06
2.76264e-05
3.5411e-05
2.32498e-05
1.46744e-05
9.73987e-06
1.10738e-05
2.7518e-05
4.22345e-05
3.96658e-05
2.50794e-05
1.32877e-05
8.14403e-06
1.36952e-05
2.21073e-05
3.90523e-05
2.59016e-05
9.74866e-06
1.21036e-05
2.38271e-05
3.71167e-05
2.02616e-05
1.23949e-05
7.31898e-06
8.13835e-06
2.6536e-05
3.29526e-05
2.19692e-05
1.43359e-05
9.56924e-06
1.08787e-05
2.55816e-05
3.92533e-05
3.65474e-05
2.30947e-05
1.295e-05
7.57035e-06
1.24922e-05
1.9942e-05
3.23702e-05
2.61492e-05
8.21386e-06
9.60278e-06
1.44689e-05
2.18033e-05
3.88882e-05
2.53471e-05
1.08467e-05
1.32116e-05
2.32571e-05
3.62406e-05
2.02558e-05
1.28946e-05
7.92992e-06
8.53888e-06
2.57084e-05
3.23596e-05
2.20071e-05
1.47823e-05
9.89456e-06
1.10231e-05
2.5543e-05
3.88681e-05
3.61887e-05
2.31304e-05
1.32888e-05
7.84773e-06
1.27733e-05
2.00534e-05
3.20003e-05
2.6182e-05
8.34892e-06
9.81665e-06
1.4685e-05
2.17131e-05
3.81132e-05
2.48529e-05
1.10732e-05
1.327e-05
2.2668e-05
3.55829e-05
1.98888e-05
1.28897e-05
7.93829e-06
8.51773e-06
2.58237e-05
3.14248e-05
2.15471e-05
1.48328e-05
9.87377e-06
1.09096e-05
2.46451e-05
3.73676e-05
3.47206e-05
2.23558e-05
1.29582e-05
7.69171e-06
1.25819e-05
1.93598e-05
3.01482e-05
2.59532e-05
8.16294e-06
9.25597e-06
1.44874e-05
2.08687e-05
3.30188e-05
2.51237e-05
9.56276e-06
1.09125e-05
1.5281e-05
2.25001e-05
3.79125e-05
2.46663e-05
1.18234e-05
1.37497e-05
2.23662e-05
3.50614e-05
1.97718e-05
1.29555e-05
8.04477e-06
8.5648e-06
2.54331e-05
3.07925e-05
2.13104e-05
1.49973e-05
1.00311e-05
1.10635e-05
2.4093e-05
3.63137e-05
3.38178e-05
2.19113e-05
1.30907e-05
7.70472e-06
1.26136e-05
1.9106e-05
2.94932e-05
2.52502e-05
8.20454e-06
9.35837e-06
1.45158e-05
2.06569e-05
3.22141e-05
2.47049e-05
9.62627e-06
1.07327e-05
1.53273e-05
2.21965e-05
3.70449e-05
2.41647e-05
1.16181e-05
1.37204e-05
2.20981e-05
3.42921e-05
1.94238e-05
1.30129e-05
8.10712e-06
8.46192e-06
2.51223e-05
2.9923e-05
2.11679e-05
1.50422e-05
9.75035e-06
9.90977e-06
2.53749e-05
3.26253e-05
2.25165e-05
1.58342e-05
1.10608e-05
1.18662e-05
2.40891e-05
3.72079e-05
3.42996e-05
2.19385e-05
1.38823e-05
8.18438e-06
1.31699e-05
1.9633e-05
2.98932e-05
2.57083e-05
8.51567e-06
9.69223e-06
1.50505e-05
2.11675e-05
3.24286e-05
2.5389e-05
9.9526e-06
1.1143e-05
1.5812e-05
2.25227e-05
3.7087e-05
2.42331e-05
1.20546e-05
1.40832e-05
2.21738e-05
3.42606e-05
1.97572e-05
1.33895e-05
8.3742e-06
8.79569e-06
2.53722e-05
3.00418e-05
2.14056e-05
1.53259e-05
1.00358e-05
1.01704e-05
2.54031e-05
3.25493e-05
2.26689e-05
1.59969e-05
1.11533e-05
1.18362e-05
2.40439e-05
3.68927e-05
3.39641e-05
2.18919e-05
1.37042e-05
8.08559e-06
1.30416e-05
1.93095e-05
2.91837e-05
2.48767e-05
8.4172e-06
9.59125e-06
1.47993e-05
2.06899e-05
3.13647e-05
2.48388e-05
9.87412e-06
1.09211e-05
1.55495e-05
2.18735e-05
3.5482e-05
2.32812e-05
1.17754e-05
1.37924e-05
2.14157e-05
3.28032e-05
1.90223e-05
1.29997e-05
8.22515e-06
8.55068e-06
2.44843e-05
2.87463e-05
2.05334e-05
1.46715e-05
9.60887e-06
9.72427e-06
2.42774e-05
3.0844e-05
2.17822e-05
1.54368e-05
1.06778e-05
1.05037e-05
2.47108e-05
3.21688e-05
2.26911e-05
1.64352e-05
1.15972e-05
1.23829e-05
2.40737e-05
3.61044e-05
3.31576e-05
2.1913e-05
1.42379e-05
8.32448e-06
1.32924e-05
1.93702e-05
2.8898e-05
2.51324e-05
8.57953e-06
9.65106e-06
1.48885e-05
2.07071e-05
3.06291e-05
2.40765e-05
9.80091e-06
1.06584e-05
1.53911e-05
2.18118e-05
3.18349e-05
2.46595e-05
1.05651e-05
1.16349e-05
1.63493e-05
2.25842e-05
3.56373e-05
2.3795e-05
1.22833e-05
1.42227e-05
2.18895e-05
3.28736e-05
1.93773e-05
1.34122e-05
8.48019e-06
8.71382e-06
2.48712e-05
2.88213e-05
2.07791e-05
1.49892e-05
9.86682e-06
1.00336e-05
2.41803e-05
3.08005e-05
2.19752e-05
1.57106e-05
1.09561e-05
1.08647e-05
2.48695e-05
3.19698e-05
2.28285e-05
1.66221e-05
1.1888e-05
1.25364e-05
2.40719e-05
3.57416e-05
3.29099e-05
2.20305e-05
1.43934e-05
8.51537e-06
1.34436e-05
1.9525e-05
2.86499e-05
2.47873e-05
8.72155e-06
9.84221e-06
1.49801e-05
2.07667e-05
3.03479e-05
2.41005e-05
9.84764e-06
1.06748e-05
1.53595e-05
2.1642e-05
3.12081e-05
2.4177e-05
1.05748e-05
1.16662e-05
1.63013e-05
2.24261e-05
3.47223e-05
2.34419e-05
1.23851e-05
1.42495e-05
2.15895e-05
3.22542e-05
1.93213e-05
1.34684e-05
8.47443e-06
8.88843e-06
2.46268e-05
2.82049e-05
2.0673e-05
1.51244e-05
9.94856e-06
1.00072e-05
2.41723e-05
3.01286e-05
2.16365e-05
1.54718e-05
1.07683e-05
1.03811e-05
2.40512e-05
3.09192e-05
2.22871e-05
1.59946e-05
1.12238e-05
1.10826e-05
2.49031e-05
3.16823e-05
2.28179e-05
1.68797e-05
1.20408e-05
1.25371e-05
2.38651e-05
3.50526e-05
3.24013e-05
2.18488e-05
1.43028e-05
8.44049e-06
1.32783e-05
1.93736e-05
2.78812e-05
2.42064e-05
8.67797e-06
9.84363e-06
1.47827e-05
2.04502e-05
2.93919e-05
2.35031e-05
1.0007e-05
1.08152e-05
1.53477e-05
2.13725e-05
3.02365e-05
2.35718e-05
1.05129e-05
1.13447e-05
1.59759e-05
2.2043e-05
3.12763e-05
2.46605e-05
1.11286e-05
1.20893e-05
1.68842e-05
2.27509e-05
3.49221e-05
2.39108e-05
1.27588e-05
1.47217e-05
2.21534e-05
3.24311e-05
1.9773e-05
1.38475e-05
8.86102e-06
9.17706e-06
2.50789e-05
2.84418e-05
2.08511e-05
1.52771e-05
1.02356e-05
1.01672e-05
2.40752e-05
3.01235e-05
2.18423e-05
1.57266e-05
1.10496e-05
1.08462e-05
2.42399e-05
3.09005e-05
2.24638e-05
1.63057e-05
1.16111e-05
1.13028e-05
2.50949e-05
3.16912e-05
2.31006e-05
1.72109e-05
1.23255e-05
1.29596e-05
2.41176e-05
3.49907e-05
3.2453e-05
2.21269e-05
1.47018e-05
8.81473e-06
1.37676e-05
1.98355e-05
2.80808e-05
2.4456e-05
9.10542e-06
1.01492e-05
1.52047e-05
2.08965e-05
2.9583e-05
2.38696e-05
1.01051e-05
1.09124e-05
1.5586e-05
2.1709e-05
3.01922e-05
2.36754e-05
1.07042e-05
1.15213e-05
1.61635e-05
2.22279e-05
3.10973e-05
2.46958e-05
1.14666e-05
1.24105e-05
1.71519e-05
2.28232e-05
3.4345e-05
2.4047e-05
1.30876e-05
1.49694e-05
2.22212e-05
3.21258e-05
1.99254e-05
1.39829e-05
8.98523e-06
9.27178e-06
2.48603e-05
2.82348e-05
2.10017e-05
1.54231e-05
1.03198e-05
1.03524e-05
2.40599e-05
2.97829e-05
2.19829e-05
1.59095e-05
1.12146e-05
1.09546e-05
2.40938e-05
3.05914e-05
2.25542e-05
1.64116e-05
1.17022e-05
1.15002e-05
2.49711e-05
3.12972e-05
2.3006e-05
1.72002e-05
1.23979e-05
1.29744e-05
2.39271e-05
3.43212e-05
3.19571e-05
2.19852e-05
1.47395e-05
8.81467e-06
1.37527e-05
1.97146e-05
2.75199e-05
2.42955e-05
9.13621e-06
1.01838e-05
1.51025e-05
2.06466e-05
2.87409e-05
2.32939e-05
1.02437e-05
1.11081e-05
1.56315e-05
2.14702e-05
2.94488e-05
2.33896e-05
1.08285e-05
1.15338e-05
1.61122e-05
2.19892e-05
3.01833e-05
2.41964e-05
1.12699e-05
1.19734e-05
1.67099e-05
2.25852e-05
3.11527e-05
2.50984e-05
1.17244e-05
1.27022e-05
1.75166e-05
2.31805e-05
3.45693e-05
2.43199e-05
1.3511e-05
1.54315e-05
2.25492e-05
3.23643e-05
2.03357e-05
1.44629e-05
9.33551e-06
9.70449e-06
2.52502e-05
2.84215e-05
2.14859e-05
1.60038e-05
1.07992e-05
1.08816e-05
2.45527e-05
3.0038e-05
2.24057e-05
1.64176e-05
1.16956e-05
1.14845e-05
2.47018e-05
3.08725e-05
2.30376e-05
1.69309e-05
1.22092e-05
1.19678e-05
2.54209e-05
3.18022e-05
2.36986e-05
1.78546e-05
1.29851e-05
1.36908e-05
2.46714e-05
3.48998e-05
3.24763e-05
2.2744e-05
1.5507e-05
9.37283e-06
1.44995e-05
2.04201e-05
2.83226e-05
2.51765e-05
9.72457e-06
1.08066e-05
1.59407e-05
2.15389e-05
2.9557e-05
2.43169e-05
1.07594e-05
1.15379e-05
1.62446e-05
2.22586e-05
3.00759e-05
2.41975e-05
1.1421e-05
1.21182e-05
1.67588e-05
2.27137e-05
3.08229e-05
2.48863e-05
1.19042e-05
1.28694e-05
1.76251e-05
2.32193e-05
3.39235e-05
2.41777e-05
1.37085e-05
1.56675e-05
2.25248e-05
3.18233e-05
2.03436e-05
1.45813e-05
9.50164e-06
9.85993e-06
2.4999e-05
2.80434e-05
2.15253e-05
1.61579e-05
1.10043e-05
1.11161e-05
2.45293e-05
2.96038e-05
2.24536e-05
1.65772e-05
1.19077e-05
1.1648e-05
2.45839e-05
3.03823e-05
2.30156e-05
1.71249e-05
1.24021e-05
1.22806e-05
2.52197e-05
3.13176e-05
2.36986e-05
1.80332e-05
1.32508e-05
1.39708e-05
2.4637e-05
3.4367e-05
3.20583e-05
2.28045e-05
1.57901e-05
9.61086e-06
1.47379e-05
2.05882e-05
2.82232e-05
2.53177e-05
9.90071e-06
1.09183e-05
1.60757e-05
2.16184e-05
2.93461e-05
2.42789e-05
1.10411e-05
1.18484e-05
1.6447e-05
2.23607e-05
2.989e-05
2.42669e-05
1.16702e-05
1.24516e-05
1.70519e-05
2.28565e-05
3.06732e-05
2.49119e-05
1.22717e-05
1.33071e-05
1.80121e-05
2.34332e-05
3.37463e-05
2.44523e-05
1.42121e-05
1.61004e-05
2.28755e-05
3.17473e-05
2.08275e-05
1.51337e-05
9.94259e-06
1.03485e-05
2.53774e-05
2.83965e-05
2.19538e-05
1.66059e-05
1.134e-05
1.14765e-05
2.51898e-05
2.99397e-05
2.28977e-05
1.71204e-05
1.22969e-05
1.20928e-05
2.52005e-05
3.08461e-05
2.34015e-05
1.77891e-05
1.31018e-05
1.39163e-05
2.40602e-05
3.35886e-05
3.1399e-05
2.24329e-05
1.57305e-05
9.64522e-06
1.4673e-05
2.03474e-05
2.75109e-05
2.46024e-05
1.00206e-05
1.10666e-05
1.61761e-05
2.14467e-05
2.88413e-05
2.43831e-05
1.12344e-05
1.20385e-05
1.66734e-05
2.23005e-05
2.97243e-05
2.43107e-05
1.20666e-05
1.31218e-05
1.76081e-05
2.2883e-05
3.25406e-05
2.3698e-05
1.39444e-05
1.58481e-05
2.22849e-05
3.0678e-05
2.03287e-05
1.48314e-05
9.78424e-06
1.01758e-05
2.47637e-05
2.74312e-05
2.14952e-05
1.64197e-05
1.12088e-05
1.14114e-05
2.44415e-05
2.8977e-05
2.24137e-05
1.69112e-05
1.22982e-05
1.22026e-05
2.44898e-05
2.98847e-05
2.29931e-05
1.76526e-05
1.3093e-05
1.38784e-05
2.36952e-05
3.24583e-05
3.05338e-05
2.21747e-05
1.57692e-05
9.6917e-06
1.46421e-05
2.02639e-05
2.69724e-05
2.42767e-05
1.00649e-05
1.11794e-05
1.62006e-05
2.12726e-05
2.83488e-05
2.4117e-05
1.14402e-05
1.22466e-05
1.68109e-05
2.22109e-05
2.93527e-05
2.41284e-05
1.22495e-05
1.32945e-05
1.77752e-05
2.28544e-05
3.22051e-05
2.37087e-05
1.41771e-05
1.60268e-05
2.24009e-05
3.0462e-05
2.04894e-05
1.5131e-05
9.97459e-06
1.0465e-05
2.48255e-05
2.74089e-05
2.16063e-05
1.66446e-05
1.15423e-05
1.17618e-05
2.46177e-05
2.90048e-05
2.26882e-05
1.73168e-05
1.26299e-05
1.27041e-05
2.4693e-05
3.00721e-05
2.3386e-05
1.82073e-05
1.3655e-05
1.44641e-05
2.4168e-05
3.27873e-05
3.09579e-05
2.27766e-05
1.63089e-05
1.01847e-05
1.53222e-05
2.09082e-05
2.76898e-05
2.50314e-05
1.06703e-05
1.17108e-05
1.69432e-05
2.19858e-05
2.9308e-05
2.47399e-05
1.21134e-05
1.32717e-05
1.79264e-05
2.30515e-05
3.21331e-05
2.38733e-05
1.43591e-05
1.62263e-05
2.26623e-05
3.05258e-05
2.05999e-05
1.51739e-05
1.01929e-05
1.07422e-05
2.46461e-05
2.74196e-05
2.18458e-05
1.69341e-05
1.18531e-05
1.21415e-05
2.47462e-05
2.91375e-05
2.30154e-05
1.77139e-05
1.30177e-05
1.3192e-05
2.50515e-05
3.04412e-05
2.39305e-05
1.87911e-05
1.41768e-05
1.52035e-05
2.49024e-05
3.33767e-05
3.14896e-05
2.35062e-05
1.71373e-05
1.08042e-05
1.60365e-05
2.16093e-05
2.85127e-05
2.5771e-05
1.12468e-05
1.23547e-05
1.7716e-05
2.28547e-05
3.02857e-05
2.55997e-05
1.28182e-05
1.39112e-05
1.87357e-05
2.39211e-05
3.32803e-05
2.48257e-05
1.49496e-05
1.70193e-05
2.35872e-05
3.16736e-05
2.18419e-05
1.6286e-05
1.10578e-05
1.16381e-05
2.57761e-05
2.87368e-05
2.30497e-05
1.80501e-05
1.26775e-05
1.3203e-05
2.58566e-05
3.0719e-05
2.43613e-05
1.92163e-05
1.43437e-05
1.55849e-05
2.53512e-05
3.3819e-05
3.20763e-05
2.40295e-05
1.75671e-05
1.1237e-05
1.65176e-05
2.22232e-05
2.93539e-05
2.60723e-05
1.18795e-05
1.32405e-05
1.85798e-05
2.35464e-05
3.27977e-05
2.50027e-05
1.4706e-05
1.6754e-05
2.375e-05
3.14347e-05
2.17537e-05
1.60475e-05
1.06962e-05
1.13347e-05
2.60724e-05
2.86049e-05
2.28382e-05
1.76762e-05
1.24684e-05
1.30289e-05
2.52274e-05
3.02024e-05
2.3984e-05
1.88462e-05
1.41978e-05
1.54109e-05
2.4776e-05
3.30558e-05
3.15672e-05
2.36148e-05
1.73523e-05
1.11997e-05
1.64584e-05
2.20965e-05
2.89325e-05
2.56329e-05
1.19838e-05
1.33241e-05
1.8668e-05
2.34326e-05
3.23999e-05
2.50289e-05
1.49353e-05
1.70166e-05
2.38862e-05
3.11658e-05
2.20015e-05
1.64043e-05
1.11132e-05
1.18638e-05
2.57563e-05
2.87486e-05
2.31369e-05
1.84277e-05
1.30767e-05
1.44372e-05
2.44171e-05
3.20025e-05
3.0806e-05
2.32548e-05
1.65365e-05
1.08049e-05
1.58951e-05
2.14807e-05
2.82213e-05
2.49858e-05
1.1776e-05
1.31065e-05
1.82096e-05
2.28728e-05
3.15628e-05
2.44112e-05
1.46992e-05
1.68286e-05
2.33678e-05
3.04407e-05
2.16212e-05
1.61764e-05
1.10249e-05
1.18557e-05
2.5151e-05
2.82057e-05
2.28835e-05
1.83271e-05
1.31291e-05
1.45893e-05
2.43475e-05
3.15188e-05
3.03883e-05
2.3228e-05
1.66353e-05
1.08483e-05
1.59684e-05
2.14888e-05
2.81222e-05
2.5826e-05
1.1641e-05
1.30028e-05
1.80752e-05
2.26849e-05
3.13458e-05
2.39026e-05
1.47768e-05
1.69815e-05
2.30229e-05
3.02794e-05
2.16378e-05
1.6358e-05
1.12803e-05
1.22615e-05
2.50222e-05
2.82601e-05
2.31559e-05
1.87697e-05
1.35885e-05
1.52496e-05
2.48915e-05
3.19219e-05
3.08264e-05
2.38584e-05
1.73393e-05
1.1485e-05
1.66901e-05
2.21718e-05
2.89189e-05
2.56018e-05
1.24706e-05
1.38584e-05
1.9154e-05
2.36777e-05
3.28579e-05
2.56072e-05
1.575e-05
1.79862e-05
2.47776e-05
3.18805e-05
2.29905e-05
1.76723e-05
1.24147e-05
1.44378e-05
2.55983e-05
3.14941e-05
3.06907e-05
2.45994e-05
1.68581e-05
1.14986e-05
1.68535e-05
2.23046e-05
2.94462e-05
2.58515e-05
1.26777e-05
1.40616e-05
1.93935e-05