/*--------------------------------*- C++ -*----------------------------------*\
| =========                 |                                                 |
| \\      /  F ield         | OpenFOAM: The Open Source CFD Toolbox           |
|  \\    /   O peration     | Version:  v2006                                 |
|   \\  /    A nd           | Website:  www.openfoam.com                      |
|    \\/     M anipulation  |                                                 |
\*---------------------------------------------------------------------------*/
FoamFile
{
    version     2.0;
    format      ascii;
    class       volScalarField;
    location    "0.06";
    object      turbulenceProperties:I;
}
// * * * * * * * * * * * * * * * * * * * * * * * * * * * * * * * * * * * * * //

dimensions      [0 0 0 0 0 0 0];


internalField   nonuniform List<scalar> 
16277
(
0.149974
0.149974
0.149982
0.149985
0.149991
0.14999
0.149991
0.149995
0.150002
0.15001
0.150016
0.150018
0.150018
0.150017
0.150015
0.150013
0.150011
0.150009
0.150008
0.150007
0.150006
0.150005
0.150005
0.150004
0.150004
0.150003
0.150003
0.150003
0.150002
0.150002
0.150002
0.150002
0.150002
0.150002
0.150002
0.150002
0.150002
0.150002
0.150001
0.150001
0.150001
0.150001
0.150001
0.150001
0.150001
0.150001
0.150001
0.150001
0.150001
0.150001
0.150001
0.150001
0.150001
0.150001
0.150001
0.150001
0.150001
0.150001
0.150001
0.150001
0.150001
0.150001
0.150001
0.150001
0.150001
0.150001
0.150001
0.150001
0.15
0.15
0.15
0.15
0.15
0.15
0.149999
0.149999
0.149998
0.149997
0.149996
0.149995
0.149998
0.150005
0.150018
0.150032
0.150035
0.150024
0.150006
0.149987
0.149966
0.149968
0.149981
0.149977
0.149989
0.150008
0.149873
0.149304
0.14506
0.13908
0.145978
0.148746
0.145981
0.139197
0.133277
0.129405
0.135534
0.143822
0.139875
0.129548
0.125376
0.123121
0.127254
0.138209
0.13454
0.122608
0.120472
0.119191
0.121243
0.13329
0.130277
0.117866
0.11744
0.116713
0.117168
0.12941
0.126996
0.114913
0.11555
0.115164
0.114556
0.126377
0.124398
0.112922
0.11435
0.114173
0.11277
0.123969
0.122298
0.111519
0.113571
0.113516
0.111488
0.121994
0.120553
0.110495
0.113058
0.113089
0.110551
0.120351
0.119086
0.109737
0.112728
0.112809
0.10985
0.118957
0.117821
0.109151
0.112502
0.112616
0.1093
0.117746
0.116713
0.108686
0.112352
0.112489
0.10886
0.116683
0.115736
0.10831
0.112254
0.112407
0.108505
0.115742
0.114868
0.108006
0.112194
0.112358
0.108219
0.114905
0.114094
0.107763
0.112163
0.112336
0.107991
0.114157
0.113401
0.107571
0.112155
0.112337
0.107814
0.11349
0.112785
0.107427
0.112168
0.112356
0.107684
0.112899
0.112243
0.107327
0.112198
0.112394
0.1076
0.112381
0.111771
0.107272
0.112246
0.112448
0.10756
0.111934
0.111369
0.107261
0.11231
0.11252
0.107565
0.111556
0.111032
0.107292
0.11239
0.112608
0.107613
0.111242
0.110758
0.107364
0.112486
0.112712
0.107702
0.11099
0.110542
0.107476
0.112599
0.112833
0.107831
0.110797
0.110384
0.107627
0.112727
0.112971
0.107998
0.110661
0.11028
0.107814
0.112871
0.113124
0.108203
0.110579
0.11023
0.108038
0.113031
0.113293
0.108446
0.110552
0.110233
0.108299
0.113206
0.113478
0.108726
0.110578
0.110288
0.108596
0.113397
0.11368
0.109042
0.110657
0.110396
0.108929
0.113603
0.113898
0.109397
0.110789
0.110555
0.109299
0.113826
0.114133
0.109789
0.110973
0.110766
0.109707
0.114065
0.114384
0.110221
0.111211
0.111031
0.110154
0.114319
0.114651
0.110693
0.111503
0.111349
0.110641
0.11459
0.114935
0.111205
0.111849
0.111722
0.111167
0.114875
0.115234
0.111759
0.11225
0.112148
0.111736
0.115175
0.115547
0.112355
0.112705
0.112627
0.112344
0.115487
0.115872
0.112991
0.113212
0.113157
0.11299
0.115809
0.116204
0.113662
0.113769
0.113733
0.113669
0.116136
0.11654
0.114365
0.11437
0.114351
0.114377
0.116462
0.116873
0.115094
0.11501
0.115003
0.115107
0.116781
0.117195
0.115839
0.115678
0.115677
0.115846
0.117083
0.117494
0.116586
0.116363
0.11636
0.116581
0.117356
0.117756
0.117319
0.117045
0.11703
0.117292
0.117584
0.117964
0.118014
0.117702
0.117662
0.117952
0.117748
0.118097
0.11864
0.118304
0.118222
0.118528
0.117824
0.118132
0.11916
0.118814
0.118673
0.118984
0.117787
0.118037
0.119532
0.119191
0.118972
0.119276
0.117618
0.117757
0.119687
0.119392
0.119067
0.119301
0.117291
0.117288
0.119541
0.119349
0.118902
0.119015
0.116783
0.116625
0.119063
0.119022
0.118442
0.118397
0.116128
0.115785
0.118244
0.118387
0.117674
0.117448
0.1153
0.114826
0.11711
0.117455
0.116629
0.1162
0.114281
0.113752
0.115654
0.116221
0.115268
0.114595
0.113077
0.112522
0.113851
0.114676
0.113624
0.11269
0.111785
0.111303
0.111846
0.11293
0.111839
0.11067
0.110576
0.110162
0.10978
0.111082
0.109993
0.10864
0.109474
0.109134
0.107753
0.109213
0.108159
0.10669
0.108507
0.108248
0.105843
0.107386
0.106396
0.104876
0.107691
0.107513
0.10411
0.105657
0.10475
0.103218
0.107035
0.106929
0.102577
0.104079
0.10325
0.101772
0.106533
0.106492
0.101259
0.102661
0.101905
0.100547
0.106178
0.106194
0.10016
0.101421
0.100743
0.0995475
0.105959
0.10602
0.0992796
0.100363
0.0997673
0.0987653
0.105857
0.105953
0.0986082
0.0994845
0.0989694
0.0981815
0.105849
0.105974
0.098106
0.0987697
0.098328
0.0977583
0.105921
0.106063
0.0977559
0.0981983
0.097823
0.0974803
0.106051
0.106201
0.0975403
0.0977503
0.0974341
0.097328
0.106223
0.106372
0.0974346
0.0974041
0.0971383
0.0972769
0.106419
0.10656
0.097416
0.0971367
0.0969124
0.0973029
0.106624
0.106751
0.097461
0.0969271
0.0967343
0.0973824
0.106825
0.106936
0.097547
0.0967531
0.096585
0.0974939
0.107015
0.107101
0.0976547
0.096601
0.0964447
0.0976191
0.107186
0.107252
0.097769
0.0964618
0.0963108
0.0977453
0.107339
0.107387
0.0978801
0.0963265
0.0961772
0.0978641
0.107475
0.10751
0.097982
0.0961928
0.0960353
0.0979653
0.107588
0.107617
0.0980687
0.0960515
0.0958814
0.0980429
0.107672
0.1077
0.0981368
0.0958962
0.095714
0.0981017
0.107741
0.107765
0.098185
0.0957258
0.0955318
0.098141
0.107794
0.107815
0.0982143
0.0955405
0.0953354
0.0981618
0.107834
0.107852
0.098224
0.0953397
0.0951221
0.098161
0.107861
0.107878
0.0982143
0.0951221
0.0948939
0.0981429
0.107879
0.107892
0.0981852
0.0948878
0.0946496
0.0981052
0.107887
0.107894
0.0981385
0.0946369
0.0943894
0.098046
0.10788
0.107881
0.0980693
0.0943685
0.0941109
0.0979613
0.107858
0.107862
0.0979846
0.0940882
0.0938238
0.0978758
0.107841
0.107831
0.097877
0.0937848
0.0934857
0.0977278
0.107794
0.107695
0.097689
0.0934228
0.0931391
0.0976307
0.107656
0.107431
0.0972587
0.0928898
0.0926458
0.0971386
0.106988
0.106282
0.0955935
0.0919082
0.0928319
0.0958733
0.104164
0.105109
0.0933921
0.0905883
0.0953273
0.100924
0.107143
0.112689
0.116349
0.12071
0.123518
0.12577
0.127335
0.128391
0.128918
0.128949
0.128436
0.127318
0.125554
0.122569
0.120264
0.115109
0.110274
0.10509
0.100396
0.0991024
0.10219
0.115997
0.131429
0.133544
0.117516
0.103033
0.104049
0.119138
0.135225
0.136158
0.120309
0.104811
0.105268
0.120944
0.137064
0.137393
0.121286
0.105474
0.105763
0.121505
0.13772
0.137776
0.121713
0.105927
0.106
0.121776
0.137797
0.137795
0.121777
0.106086
0.106124
0.121806
0.137786
0.137765
0.121812
0.106209
0.106228
0.121812
0.137746
0.137724
0.121827
0.10632
0.106338
0.121798
0.137682
0.137653
0.121825
0.106432
0.106448
0.121792
0.137609
0.137583
0.12182
0.106544
0.10656
0.121785
0.137537
0.137503
0.1218
0.106658
0.106675
0.121781
0.137459
0.137422
0.121771
0.106776
0.106791
0.121753
0.137366
0.137321
0.121753
0.106892
0.106908
0.121766
0.137293
0.13726
0.121763
0.107008
0.107025
0.121762
0.137224
0.137172
0.121745
0.107139
0.10716
0.121735
0.137121
0.137071
0.121723
0.107269
0.107283
0.12173
0.137036
0.136989
0.121721
0.107391
0.10741
0.121726
0.136946
0.136909
0.121729
0.10752
0.107535
0.121737
0.136872
0.136834
0.121737
0.10765
0.107674
0.121731
0.136785
0.136742
0.121746
0.107792
0.107812
0.121727
0.136694
0.136654
0.121746
0.107936
0.107957
0.121741
0.136608
0.136571
0.121769
0.10808
0.108101
0.121746
0.13652
0.136483
0.121776
0.108229
0.108252
0.121772
0.136438
0.136404
0.121811
0.108382
0.108404
0.121786
0.136353
0.136318
0.121818
0.108539
0.108562
0.121804
0.136264
0.136224
0.121845
0.108686
0.108696
0.121824
0.136181
0.136153
0.121871
0.108817
0.108829
0.121873
0.136111
0.136094
0.12193
0.108942
0.108948
0.121916
0.136056
0.136022
0.121955
0.10907
0.109071
0.121944
0.135978
0.135951
0.121983
0.109174
0.109165
0.121943
0.135893
0.13586
0.121986
0.109254
0.109229
0.121984
0.135832
0.135824
0.122031
0.109289
0.10925
0.121984
0.135788
0.135751
0.121984
0.109302
0.109246
0.121932
0.135699
0.135659
0.121899
0.109252
0.109163
0.12185
0.135625
0.135586
0.121785
0.109126
0.109014
0.121711
0.135541
0.135499
0.121606
0.108921
0.108768
0.121477
0.135462
0.135405
0.121295
0.108616
0.108423
0.121073
0.135321
0.135222
0.120827
0.108221
0.107941
0.120517
0.135112
0.135017
0.120203
0.10768
0.107316
0.11983
0.13491
0.134776
0.119383
0.106999
0.106555
0.118817
0.134586
0.134385
0.118202
0.106169
0.105627
0.117477
0.134135
0.133841
0.116709
0.105193
0.104558
0.115887
0.133555
0.133293
0.115
0.104045
0.103325
0.113902
0.132934
0.132468
0.112702
0.102754
0.101975
0.111351
0.131945
0.131415
0.110047
0.101335
0.100463
0.108577
0.130885
0.130327
0.107143
0.099786
0.0988818
0.105478
0.12976
0.129124
0.103727
0.0981516
0.0973398
0.101614
0.12811
0.126779
0.0997147
0.0965592
0.0957688
0.0981107
0.125356
0.124067
0.0961357
0.0951192
0.0945711
0.0943493
0.122894
0.121694
0.0932844
0.094586
0.0943117
0.0923866
0.120607
0.119631
0.0909987
0.0946391
0.0946396
0.0902619
0.118539
0.117301
0.0896521
0.0952993
0.0956058
0.0893345
0.116076
0.115168
0.0897124
0.0968802
0.097444
0.0897564
0.114332
0.11345
0.0909649
0.0991532
0.100301
0.0924563
0.112367
0.112443
0.095947
0.103287
0.105074
0.0986048
0.11367
0.13356
0.090281
0.0857651
0.0976445
0.0950997
0.126293
0.125901
0.091748
0.09671
0.0976166
0.0906597
0.125371
0.124057
0.0892154
0.0971039
0.0984957
0.0889384
0.122499
0.120561
0.0882474
0.0984423
0.100647
0.0891754
0.118864
0.117354
0.0893122
0.10092
0.104486
0.0919007
0.11592
0.114457
0.0930674
0.105728
0.111085
0.0981167
0.114277
0.115239
0.101363
0.113985
0.0880637
0.0878973
0.129894
0.121607
0.0946667
0.106291
0.107094
0.0937802
0.119454
0.117339
0.0966251
0.112859
0.114463
0.0973216
0.115753
0.115098
0.100824
0.118908
0.121107
0.102581
0.114555
0.116186
0.108257
0.12648
0.128345
0.112656
0.11851
0.126855
0.0945843
0.097246
0.120514
0.100955
0.121167
0.119511
0.100768
0.121955
0.128078
0.105622
0.119337
0.118819
0.107299
0.129661
0.138063
0.115818
0.120057
0.123757
0.122358
0.141935
0.107454
0.0982432
0.130149
0.122697
0.111496
0.137397
0.141246
0.114017
0.121157
0.122841
0.124897
0.152437
0.157509
0.131193
0.125055
0.131877
0.142133
0.164063
0.12567
0.109136
0.131976
0.127797
0.129342
0.161576
0.165953
0.13296
0.128418
0.134384
0.15208
0.18215
0.18984
0.162924
0.141101
0.137288
0.124546
0.151751
0.195863
0.158304
0.137797
0.141295
0.166989
0.206303
0.230041
0.195753
0.153831
0.162034
0.20874
0.241071
0.210152
0.166938
0.151679
0.171022
0.228684
0.267354
0.287563
0.249798
0.185199
0.171921
0.208323
0.265735
0.346029
0.302291
0.212665
0.245416
0.354076
0.398804
0.438179
0.347669
0.237608
0.414239
0.610536
0.648501
0.918267
0.847539
0.510872
1
1
1
0.825047
0.797004
0.508885
0.275474
0.424554
0.471711
0.342303
0.308873
0.213208
0.211377
0.276965
0.289216
0.239425
0.199187
0.171718
0.177693
0.216362
0.232973
0.192665
0.164828
0.149196
0.149688
0.177897
0.198389
0.187021
0.162887
0.141253
0.135611
0.122413
0.146367
0.165853
0.14838
0.136575
0.129131
0.124033
0.138581
0.155637
0.136574
0.127453
0.122487
0.127638
0.148819
0.116486
0.105212
0.122078
0.120745
0.119956
0.139414
0.133601
0.113979
0.117796
0.120144
0.0977734
0.104823
0.128006
0.109816
0.116564
0.115462
0.10591
0.122024
0.0971936
0.0942075
0.119541
0.11395
0.103076
0.119185
0.112989
0.0997687
0.113523
0.119073
0.0909496
0.0913736
0.111594
0.0977785
0.111012
0.110437
0.0943376
0.106011
0.0865596
0.0870816
0.117202
0.108774
0.0931159
0.105377
0.0999761
0.0900471
0.109174
0.116234
0.0843436
0.0828313
0.0998437
0.0890672
0.106256
0.107492
0.0863101
0.0950803
0.0798398
0.081943
0.114918
0.104627
0.0869454
0.0965405
0.0896019
0.0832994
0.105231
0.108796
0.0805754
0.0839553
0.0737488
0.0770157
0.121432
0.104786
0.0781564
0.0849906
0.0816352
0.076821
0.10735
0.116553
0.076984
0.0714425
0.0802509
0.0750218
0.102464
0.10653
0.0746159
0.0775416
0.0690177
0.0731389
0.118506
0.101415
0.0720985
0.0768922
0.0743278
0.072144
0.104593
0.114976
0.0737685
0.0669314
0.0735512
0.0704746
0.100505
0.105217
0.0708105
0.0717339
0.0656562
0.0731419
0.115026
0.099172
0.0682914
0.0705609
0.0688575
0.0689685
0.104151
0.117333
0.0704351
0.0637369
0.0688435
0.0670298
0.0991156
0.102794
0.0677742
0.0668373
0.0625115
0.0693261
0.115897
0.0982862
0.064831
0.0657061
0.0639624
0.0653771
0.102701
0.117668
0.0685004
0.0605644
0.0631215
0.0644581
0.100219
0.108614
0.0668618
0.0590245
0.0652848
0.0630124
0.0928343
0.0971153
0.0633333
0.0631433
0.0600098
0.0684352
0.108198
0.0935576
0.0630563
0.0635879
0.0622745
0.0632976
0.098591
0.109563
0.0686443
0.0595129
0.0631442
0.062752
0.0935306
0.0979387
0.0623623
0.0613262
0.05898
0.0692758
0.109268
0.0941236
0.061501
0.0604097
0.0593967
0.0611239
0.0991282
0.110722
0.0697899
0.0578982
0.0589156
0.0605327
0.0939805
0.0988378
0.0601701
0.0568471
0.0567512
0.0681471
0.113176
0.0961698
0.0574057
0.0567036
0.0549884
0.0653764
0.105673
0.0916239
0.057701
0.0565401
0.0547303
0.0574354
0.0968115
0.107445
0.0678164
0.0546882
0.0550971
0.0570939
0.091755
0.0970068
0.0567594
0.0523723
0.0539759
0.0681117
0.110577
0.0938799
0.0537317
0.0525395
0.0518749
0.063812
0.104237
0.0892952
0.0548057
0.052956
0.0509333
0.0547076
0.0938745
0.104605
0.0666288
0.0521095
0.0525388
0.0549213
0.0899134
0.095733
0.0550828
0.0500346
0.0522388
0.0674719
0.109624
0.0930365
0.0516058
0.0500588
0.0500781
0.0629785
0.103722
0.0886349
0.0529819
0.0508668
0.0486498
0.0530843
0.0934613
0.104416
0.0660774
0.0502334
0.0498066
0.052758
0.0893874
0.095205
0.0528753
0.0477865
0.0505344
0.0700368
0.105889
0.0920791
0.050348
0.0475188
0.0480348
0.0612209
0.103701
0.0877666
0.05038
0.048187
0.0459623
0.0513898
0.0931809
0.106291
0.0663726
0.0491371
0.0461298
0.0483639
0.0903155
0.101199
0.060991
0.0469023
0.0467751
0.0491667
0.0859549
0.091887
0.049878
0.0450853
0.0483835
0.0671954
0.103152
0.0892112
0.0488264
0.0457518
0.0465036
0.0602382
0.100282
0.0844174
0.0485027
0.0462522
0.0443635
0.0495145
0.0904208
0.101827
0.0673847
0.0477351
0.0448311
0.0477966
0.0880732
0.0996693
0.0597721
0.0457971
0.0454656
0.0477871
0.0846287
0.0905801
0.0492916
0.0438686
0.0476421
0.0654486
0.103673
0.0883831
0.0470312
0.0445206
0.0454301
0.0597764
0.0986735
0.08421
0.0472919
0.044867
0.0431419
0.0482448
0.0902739
0.100963
0.0675365
0.0469419
0.0438516
0.0466963
0.0885936
0.100368
0.06137
0.0459092
0.0432767
0.0444691
0.0853346
0.095698
0.0584392
0.0445617
0.0441773
0.0464583
0.082238
0.0877792
0.0478472
0.0425215
0.0461393
0.0649305
0.0991293
0.0852506
0.0459159
0.0430677
0.0443282
0.0586497
0.0965321
0.0825225
0.0460369
0.0436326
0.0420611
0.0475673
0.0889486
0.0995252
0.0668582
0.0461321
0.0428506
0.0460902
0.0879828
0.0996995
0.0607209
0.0451971
0.0422955
0.0436961
0.0853519
0.0946793
0.0573741
0.0434873
0.042772
0.0451008
0.0805491
0.0862094
0.0464563
0.0411753
0.0454017
0.0633279
0.0988893
0.0849625
0.0443866
0.0419019
0.0443749
0.0594518
0.0963601
0.0827579
0.0428863
0.0416169
0.043118
0.0569827
0.0924601
0.0799573
0.0447653
0.0424734
0.041191
0.0467015
0.0861889
0.0968174
0.0646768
0.0452748
0.0418526
0.0448866
0.0842456
0.0958053
0.0591471
0.044213
0.0411918
0.0422675
0.0819165
0.0914742
0.0565216
0.0426514
0.0417875
0.0440988
0.0784836
0.0840413
0.045773
0.0403999
0.0446907
0.0627204
0.096132
0.0831509
0.0438761
0.0412104
0.0438696
0.0588327
0.0944764
0.0818633
0.0425553
0.0409786
0.0426032
0.056614
0.0910582
0.0782007
0.043938
0.0415447
0.040135
0.0457301
0.0839156
0.0972564
0.0617699
0.0446117
0.0407972
0.0431596
0.0838751
0.0949637
0.0585492
0.0436199
0.0404225
0.0417231
0.081584
0.091148
0.0563335
0.0422539
0.0409211
0.0434082
0.0780606
0.0837329
0.0451992
0.0395899
0.044267
0.0617546
0.0970379
0.0833477
0.0431375
0.0404907
0.0433557
0.05867
0.0938356
0.0801184
0.0414425
0.0399497
0.0424016
0.0561784
0.090157
0.0780128
0.0407162
0.0394858
0.0415041
0.0552298
0.0873354
0.0754197
0.0425061
0.0401094
0.0390756
0.0445608
0.0812621
0.0914142
0.0629105
0.0436009
0.0402454
0.0437455
0.081722
0.0933697
0.0579147
0.042941
0.0395466
0.0408228
0.0806006
0.0903376
0.0559201
0.0421146
0.0391017
0.0405519
0.0775476
0.086543
0.0551416
0.0411468
0.0395797
0.0421301
0.074685
0.0801642
0.0438125
0.0383741
0.0430958
0.0602359
0.0927802
0.0802226
0.0417769
0.0393011
0.042291
0.0569004
0.0911433
0.0785486
0.0404483
0.0389646
0.041565
0.0551119
0.0881792
0.0763012
0.039948
0.0385933
0.0407977
0.0546243
0.085263
0.0741323
0.0418961
0.0391956
0.0381475
0.0437444
0.0794239
0.0918242
0.0598918
0.0430136
0.0389316
0.0416153
0.0795114
0.090363
0.0564776
0.042023
0.0385416
0.0399504
0.0779968
0.0879167
0.0549921
0.0412777
0.0381782
0.0396966
0.0760715
0.0850584
0.0542357
0.0404196
0.0384958
0.0412352
0.0733672
0.0790421
0.0432283
0.0376154
0.0426536
0.0612244
0.0885647
0.0794019
0.0424849
0.0388457
0.0418651
0.0564356
0.0903692
0.077269
0.0390668
0.0381094
0.0409488
0.0542283
0.0866957
0.0752673
0.0391991
0.0377158
0.0404484
0.0536294
0.0847819
0.0738284
0.0392102
0.0374803
0.039817
0.0531632
0.0824693
0.0719243
0.0408845
0.0379169
0.0370512
0.0428875
0.0773778
0.0905427
0.0585957
0.042292
0.0377645
0.0404998
0.077996
0.0886044
0.0555656
0.0414073
0.0376163
0.0392917
0.0765741
0.0861277
0.0541118
0.0406091
0.0371965
0.038665
0.0744277
0.083491
0.0529895
0.0399179
0.0369227
0.0387032
0.0728559
0.0813594
0.0525236
0.039184
0.0372644
0.0401388
0.0705337
0.0756958
0.0418746
0.0363806
0.0415981
0.058021
0.0872163
0.0753691
0.0399722
0.0373472
0.0408638
0.0545097
0.0857591
0.0740397
0.0386878
0.0371235
0.0400914
0.0530208
0.0835799
0.0726688
0.0382602
0.0367767
0.0396233
0.052364
0.0816126
0.0713093
0.0385006
0.0366644
0.0389565
0.0517206
0.0796026
0.0695265
0.0398217
0.0369369
0.0361625
0.0417957
0.0746225
0.0868071
0.0570902
0.0413844
0.0367388
0.0394656
0.0754154
0.085356
0.0538537
0.0404288
0.0365528
0.0382857
0.0741951
0.0836669
0.0525634
0.0397956
0.0361792
0.0375531
0.0725553
0.0812408
0.0516424
0.0391309
0.0359686
0.0376902
0.0708
0.0787801
0.0513459
0.0384737
0.036323
0.0392209
0.0683674
0.0735376
0.0411575
0.0355721
0.0408546
0.0567635
0.0849082
0.0738009
0.0391123
0.0363028
0.0399999
0.0530169
0.0836727
0.0723872
0.0375726
0.0360009
0.0391985
0.0515936
0.0815001
0.0708571
0.0371331
0.0356812
0.0387168
0.0507924
0.0793599
0.0694546
0.0372747
0.0354908
0.0380766
0.0505828
0.0774667
0.0675527
0.0387733
0.0357638
0.0351217
0.0408963
0.072909
0.0853446
0.0559153
0.0405996
0.0355767
0.0383159
0.0735707
0.0831275
0.0527943
0.0396982
0.0353387
0.0373662
0.0718991
0.0810198
0.0513454
0.038856
0.0349782
0.036564
0.0705252
0.0790211
0.050329
0.0382553
0.0348365
0.0365449
0.0690197
0.0773035
0.04997
0.0379821
0.0347539
0.036715
0.0675738
0.0753394
0.0495471
0.0372758
0.0349906
0.0379078
0.0654127
0.0707065
0.039766
0.0343662
0.0396551
0.0554929
0.080267
0.0704389
0.0385763
0.0352912
0.0388991
0.0516309
0.0802351
0.0693311
0.0363007
0.0347683
0.0380488
0.0497788
0.0775513
0.0675142
0.0361081
0.0345459
0.0376695
0.0493
0.0755086
0.066177
0.0364643
0.0344794
0.0371
0.048711
0.073698
0.0644225
0.0374748
0.0345973
0.034043
0.0394714
0.069745
0.0801771
0.0545402
0.0395159
0.0348055
0.0378635
0.0698098
0.0791549
0.0509248
0.0386766
0.0343299
0.036179
0.0688631
0.0772248
0.0495522
0.0378177
0.0339457
0.0356792
0.0673273
0.0750778
0.0487034
0.0372564
0.0337049
0.0356622
0.0656476
0.0732307
0.0481836
0.0365099
0.0337879
0.0367772
0.0636096
0.0690716
0.0386988
0.0332482
0.0388326
0.0544424
0.0781509
0.0684986
0.0378413
0.034223
0.0380471
0.05055
0.0778895
0.0674032
0.0355056
0.0336504
0.0371285
0.0485774
0.0751871
0.0655014
0.0350821
0.0333004
0.0365896
0.0478364
0.0733115
0.0641757
0.0351694
0.0331567
0.0359923
0.0474368
0.0717804
0.0625462
0.0362376
0.0332303
0.0327175
0.0383
0.0677844
0.0775547
0.0532725
0.0383844
0.0335895
0.036919
0.0675479
0.0765836
0.0495929
0.0375897
0.0331294
0.0351326
0.0664267
0.0745671
0.0483512
0.0368219
0.0328237
0.0348674
0.0649642
0.0728322
0.0475634
0.0363361
0.0326083
0.0347549
0.0635575
0.0712855
0.0470813
0.035611
0.0326683
0.0357445
0.0620865
0.0672647
0.0376651
0.0321435
0.037833
0.0526739
0.0763521
0.0666581
0.0365894
0.0331176
0.0370327
0.048938
0.0750841
0.064892
0.0346239
0.03263
0.0361767
0.0472874
0.0727689
0.0630327
0.0342201
0.0322612
0.035479
0.0467382
0.0708869
0.0621683
0.035567
0.0322508
0.0318524
0.0377291
0.0676638
0.0777437
0.052793
0.0381141
0.0328105
0.0362342
0.067314
0.0754846
0.0485957
0.0369691
0.0322794
0.0343517
0.0652774
0.0735161
0.0476415
0.0361772
0.0318628
0.0341613
0.0634899
0.0712134
0.0468181
0.0352823
0.0317033
0.0350939
0.0617524
0.067118
0.037033
0.0312186
0.0373642
0.0528019
0.0750073
0.0657462
0.0362305
0.0321711
0.0365375
0.0486428
0.0747376
0.0639587
0.0336685
0.0316409
0.0354781
0.0465789
0.0719971
0.0627373
0.0335096
0.0313707
0.0350112
0.046461
0.0707064
0.0615538
0.034958
0.031317
0.0309886
0.0372372
0.0670962
0.077009
0.0521958
0.0376197
0.0319041
0.035522
0.0661333
0.0743704
0.0477833
0.0362411
0.0313948
0.0335037
0.0639064
0.0721169
0.0468347
0.0354401
0.0309457
0.0334461
0.0623916
0.0702548
0.0460291
0.0345053
0.0307448
0.0342524
0.0609997
0.066202
0.0361627
0.030268
0.0366502
0.0510431
0.0749027
0.0644932
0.0348279
0.0313185
0.0357091
0.0474232
0.0732618
0.0631775
0.033249
0.0310123
0.0350688
0.0462343
0.0713357
0.0619662
0.0331399
0.0307857
0.0345113
0.0459252
0.0698969
0.0609148
0.0343843
0.0306767
0.030366
0.036561
0.0663095
0.0751088
0.0516798
0.0371022
0.0314727
0.03543
0.0646563
0.0729711
0.0474903
0.0358431
0.0308075
0.0332621
0.0626058
0.0706088
0.0460609
0.0346084
0.0303304
0.0339969
0.0610244
0.0658805
0.0355301
0.0298602
0.0367298
0.0513857
0.0752191
0.0644736
0.0349375
0.031091
0.0355735
0.0471653
0.0727718
0.0627057
0.0329276
0.0306274
0.0348187
0.0460587
0.0709308
0.0614689
0.0328541
0.0303603
0.034159
0.0456284
0.0693358
0.0602165
0.0339098
0.0301459
0.0299009
0.036037
0.0654756
0.0735862
0.0515279
0.036706
0.0310551
0.0353681
0.0635994
0.0720415
0.0474205
0.0356411
0.030498
0.0330962
0.0619903
0.0697457
0.0456933
0.0343023
0.0299399
0.0335571
0.0596878
0.0648369
0.0354536
0.0296101
0.0365549
0.0512045
0.073819
0.0641266
0.0350897
0.0309259
0.0356314
0.0475759
0.0726219
0.0625381
0.0332682
0.0304811
0.0344835
0.0460423
0.0703567
0.0608944
0.0338868
0.0300616
0.0298515
0.0360106
0.0660828
0.0742443
0.0518089
0.0368632
0.0309641
0.0354986
0.063766
0.0720536
0.0477746
0.0354895
0.0302145
0.0341119
0.061743
0.066823
0.0358313
0.0298107
0.0367731
0.051494
0.0748959
0.0635467
0.0346879
0.030706
0.0357089
0.0476912
0.072402
0.0626339
0.0332916
0.0302063
0.0345896
0.0463508
0.0707648
0.0613272
0.0339077
0.0297896
0.0296212
0.0361851
0.0666325
0.0751066
0.0518866
0.0369748
0.0307557
0.035341
0.0645127
0.0727256
0.0476437
0.0353718
0.0297498
0.0337342
0.0621698
0.0672697
0.0354792
0.0294199
0.0367608
0.0517703
0.0755416
0.0643936
0.0348433
0.0304213
0.0351051
0.0473744
0.0724475
0.0613469
0.033566
0.0293628
0.0291613
0.0356705
0.0669249
0.0760923
0.0524416
0.0370549
0.030507
0.0351046
0.0651406
0.0736298
0.0482928
0.0355974
0.0295086
0.03385
0.0627606
0.0679464
0.0357025
0.0292358
0.0369617
0.0521961
0.0765101
0.0650948
0.0349231
0.0302989
0.0352598
0.0476947
0.0732888
0.0623416
0.0334906
0.0292093
0.0288972
0.0353222
0.0674766
0.0757499
0.0518185
0.0365643
0.0297633
0.0337951
0.0628061
0.0716768
0.0472431
0.0348926
0.0287736
0.0333127
0.0617176
0.0673303
0.0351277
0.0286671
0.0365404
0.0521083
0.0757166
0.0647592
0.0345866
0.0298019
0.0350366
0.0477723
0.0731313
0.0624392
0.0334338
0.0289524
0.0286913
0.0352124
0.06742
0.075664
0.0517683
0.0364529
0.0297066
0.0344417
0.0640683
0.0719563
0.0469628
0.0345237
0.0283493
0.0326092
0.0603133
0.0643071
0.0333865
0.0278508
0.0352288
0.0505154
0.0730328
0.0629264
0.0342694
0.0287979
0.0286654
0.0357296
0.0684227
0.0767538
0.052768
0.0369288
0.0298221
0.0346673
0.0652887
0.0733674
0.0478296
0.0351116
0.0285793
0.0330786
0.0622839
0.0668785
0.0347003
0.028291
0.0356999
0.0512707
0.0745811
0.0631169
0.0345761
0.0288359
0.0282257
0.0345742
0.0672701
0.0750691
0.0514784
0.0357773
0.0285602
0.034367
0.0636586
0.0692913
0.0355236
0.0283279
0.0370194
0.053226
0.0781286
0.0659266
0.0345575
0.0295963
0.0349955
0.0479216
0.0737664
0.0621297
0.0327913
0.0282214
0.0279405
0.034354
0.0665125
0.0739272
0.0509147
0.0353219
0.0283347
0.0340773
0.0620987
0.0657996
0.0337751
0.0276822
0.0350015
0.0502043
0.0734741
0.0622584
0.0335311
0.0279437
0.0277801
0.0347734
0.067633
0.076411
0.051997
0.0358564
0.0284863
0.0345139
0.0642569
0.0687702
0.0351407
0.0281523
0.0359419
0.0518556
0.0764149
0.0637667
0.0341771
0.0283216
0.0277824
0.0345703
0.0677334
0.0747322
0.0505303
0.0351629
0.0275288
0.0330215
0.0617635
0.0661118
0.0359659
0.027663
0.0278475
0.0378667
0.0723848
0.0817025
0.0544662
0.0372749
0.0285225
0.0351321
0.0675021
0.0718794
0.0352289
0.0280314
0.0359396
0.0525078
0.0788379
0.0642449
0.0334768
0.0275172
0.0268924
0.0343411
0.066153
0.07062
0.0359253
0.0266816
0.0361539
0.0537973
0.0803987
0.0670176
0.0341066
0.0274183
0.0276278
0.0366583
0.0712701
0.0763683
0.0382997
0.027689
0.0371374
0.0546855
0.0841892
0.066156
0.0337705
0.0273969
0.026698
0.0346307
0.0686606
0.0732663
0.03611
0.0264501
0.0358531
0.0535874
0.0831019
0.068042
0.0337505
0.0267515
0.0262434
0.0332416
0.0718631
0.0755305
0.0394421
0.026918
0.0260381
0.0346203
0.0787529
0.0845742
0.0567805
0.0363276
0.0264914
0.0341458
0.0693084
0.0732059
0.0350493
0.0262698
0.02637
0.038629
0.0789398
0.0824068
0.0361825
0.0254393
0.0259455
0.0405747
0.0853533
0.0895606
0.0399509
0.0252376
0.0365992
0.0599488
0.0972065
0.0723449
0.0342683
0.0257827
0.0252633
0.034033
0.0741999
0.0799968
0.0378805
0.0252894
0.0252389
0.0383109
0.0861204
0.0916747
0.0397189
0.025507
0.0260285
0.0424354
0.0962303
0.101145
0.0447935
0.0266053
0.0271872
0.0470281
0.104955
0.106935
0.0493783
0.0277577
0.0282719
0.0514039
0.108097
0.10878
0.0536478
0.0288721
0.029453
0.0558606
0.109145
0.109285
0.0583976
0.0302396
0.0309362
0.0608884
0.109338
0.109341
0.0633457
0.0319363
0.0327903
0.0657492
0.109316
0.109289
0.0681058
0.0339503
0.0349338
0.0704003
0.109254
0.109231
0.0726281
0.036218
0.0374415
0.0746639
0.109212
0.109213
0.0766339
0.0389481
0.0403399
0.078442
0.109225
0.109257
0.0802148
0.0419619
0.0433642
0.0819068
0.109304
0.109375
0.0835494
0.0449906
0.0463924
0.085099
0.10946
0.109566
0.0865978
0.0480066
0.0493972
0.0880027
0.109677
0.109802
0.0893554
0.0509973
0.0523836
0.0906088
0.109924
0.110055
0.0918029
0.0539756
0.0553677
0.0928953
0.110183
0.110318
0.0939306
0.0569646
0.0583531
0.0948669
0.110445
0.110576
0.0957461
0.0599375
0.0612774
0.0965407
0.110694
0.11081
0.0972875
0.0627851
0.064052
0.0979556
0.110912
0.111009
0.0985789
0.065472
0.06665
0.0991266
0.111091
0.111167
0.0996352
0.067967
0.0690392
0.100074
0.111228
0.111282
0.100472
0.0702412
0.071201
0.100827
0.111321
0.111358
0.101151
0.0722891
0.0731394
0.101409
0.111379
0.111396
0.101669
0.0741149
0.0748614
0.101853
0.111401
0.111402
0.10205
0.0757279
0.0763734
0.102175
0.111395
0.111381
0.102312
0.0771325
0.0776804
0.102386
0.111363
0.111337
0.102472
0.0783378
0.0787977
0.102505
0.11131
0.111273
0.102549
0.0793604
0.0797406
0.102548
0.111239
0.111194
0.102557
0.0802184
0.0805313
0.102533
0.111155
0.111103
0.102512
0.0809293
0.0811858
0.102468
0.111061
0.111005
0.102425
0.0815127
0.0817245
0.102367
0.11096
0.110901
0.102305
0.0819864
0.0821606
0.102236
0.110853
0.110794
0.102162
0.0823682
0.0825113
0.102086
0.110746
0.110687
0.102003
0.0826672
0.0827852
0.10192
0.110639
0.110581
0.101832
0.0829052
0.0829953
0.101743
0.110533
0.110477
0.101653
0.0830929
0.0831545
0.10156
0.110429
0.110374
0.101472
0.0832299
0.0832598
0.101378
0.110328
0.110275
0.10129
0.0833173
0.083324
0.101196
0.11023
0.110179
0.101108
0.0833689
0.08336
0.101016
0.110138
0.110088
0.100928
0.0833945
0.0833748
0.100838
0.110047
0.11
0.100751
0.0834023
0.0833775
0.100666
0.109962
0.109916
0.100578
0.0833971
0.0833699
0.100498
0.109879
0.109835
0.100412
0.0833844
0.0833608
0.100338
0.109803
0.10976
0.100254
0.08337
0.0833479
0.100185
0.109729
0.109689
0.100106
0.083357
0.0833377
0.100043
0.109661
0.109624
0.0999687
0.0833462
0.0833294
0.0999116
0.109597
0.109561
0.0998415
0.0833387
0.0833268
0.0997905
0.109538
0.109505
0.0997267
0.0833381
0.08333
0.0996815
0.109484
0.109453
0.099623
0.083343
0.0833401
0.0995834
0.109434
0.109405
0.0995308
0.0833556
0.083357
0.0994968
0.109389
0.109362
0.0994491
0.0833748
0.0833814
0.0994202
0.109348
0.109323
0.0993777
0.0834018
0.0834126
0.0993536
0.109311
0.109289
0.0993157
0.0834352
0.0834505
0.0992958
0.109277
0.109257
0.0992622
0.0834758
0.0834936
0.0992456
0.109246
0.109228
0.0992153
0.08352
0.0835421
0.0992018
0.109217
0.109202
0.0991752
0.0835694
0.0835944
0.0991635
0.109191
0.109179
0.0991408
0.0836223
0.0836504
0.0991303
0.109168
0.109157
0.0991117
0.0836789
0.0837092
0.0991021
0.109146
0.109135
0.0990868
0.0837379
0.0837704
0.0990781
0.109127
0.109116
0.099066
0.0837994
0.0838331
0.0990578
0.109109
0.109098
0.0990488
0.0838618
0.083897
0.0990416
0.109093
0.109083
0.0990343
0.0839254
0.0839611
0.0990277
0.109078
0.109068
0.0990206
0.0839887
0.084025
0.0990161
0.109064
0.109054
0.0990092
0.0840521
0.0840881
0.0990062
0.109051
0.109041
0.0989993
0.0841142
0.0841503
0.0989978
0.109039
0.10903
0.098991
0.0841756
0.0842108
0.0989905
0.109027
0.109018
0.0989834
0.084235
0.0842697
0.0989839
0.109016
0.109008
0.0989769
0.0842929
0.0843265
0.0989781
0.109006
0.108998
0.0989709
0.0843486
0.0843812
0.0989729
0.108996
0.108988
0.0989653
0.0844022
0.0844334
0.0989675
0.108987
0.108978
0.0989595
0.0844531
0.084483
0.0989621
0.108977
0.108969
0.0989537