/*--------------------------------*- C++ -*----------------------------------*\
| =========                 |                                                 |
| \\      /  F ield         | OpenFOAM: The Open Source CFD Toolbox           |
|  \\    /   O peration     | Version:  v2006                                 |
|   \\  /    A nd           | Website:  www.openfoam.com                      |
|    \\/     M anipulation  |                                                 |
\*---------------------------------------------------------------------------*/
FoamFile
{
    version     2.0;
    format      ascii;
    class       volScalarField;
    location    "0.008";
    object      Ma;
}
// * * * * * * * * * * * * * * * * * * * * * * * * * * * * * * * * * * * * * //

dimensions      [0 0 0 0 0 0 0];


internalField   nonuniform List<scalar> 
41981
(
0.15152
0.151519
0.151519
0.15152
0.151522
0.151524
0.151526
0.151528
0.151531
0.151533
0.151534
0.151533
0.151529
0.151521
0.151508
0.15149
0.151465
0.151435
0.151397
0.151351
0.151298
0.151236
0.151168
0.151095
0.15102
0.150945
0.15087
0.150793
0.150716
0.150637
0.150556
0.150473
0.150387
0.150299
0.150208
0.150115
0.150018
0.14992
0.149818
0.149713
0.149606
0.149495
0.149382
0.149265
0.149145
0.149023
0.148896
0.148767
0.148634
0.148498
0.148358
0.148214
0.148067
0.147915
0.14776
0.147601
0.147437
0.147269
0.147097
0.146921
0.146739
0.146553
0.146363
0.146167
0.145967
0.145761
0.145551
0.145335
0.145115
0.144889
0.144657
0.144421
0.144179
0.143933
0.143681
0.143423
0.143161
0.142894
0.142622
0.142344
0.142063
0.141776
0.141485
0.141189
0.14089
0.140586
0.140279
0.139967
0.139653
0.139335
0.139014
0.13869
0.138364
0.138035
0.137704
0.137372
0.137038
0.136702
0.136366
0.136029
0.135691
0.135353
0.135015
0.134677
0.13434
0.134004
0.133668
0.133334
0.133002
0.132671
0.132342
0.132016
0.131692
0.131371
0.131053
0.130738
0.130427
0.130119
0.129816
0.129516
0.129221
0.12893
0.128644
0.128364
0.128088
0.127818
0.127553
0.127294
0.12704
0.126793
0.126551
0.126316
0.126088
0.125865
0.125649
0.125438
0.125232
0.125032
0.124838
0.124652
0.124478
0.124319
0.12418
0.124063
0.123972
0.123911
0.12388
0.123876
0.12389
0.12391
0.123926
0.123928
0.123907
0.123841
0.123743
0.123579
0.123286
0.122883
0.122294
0.121623
0.119032
0.117191
0.121569
0.122424
0.122434
0.121227
0.115026
0.112836
0.120891
0.122458
0.122392
0.120447
0.110831
0.109031
0.120018
0.122326
0.122139
0.119475
0.107347
0.105935
0.119068
0.122002
0.121784
0.118501
0.104579
0.103281
0.118041
0.121601
0.121337
0.117544
0.101977
0.100771
0.117079
0.121155
0.120862
0.116559
0.099539
0.0983972
0.116079
0.120661
0.120337
0.11554
0.097241
0.0961827
0.115056
0.120121
0.11977
0.114508
0.0951249
0.0941735
0.114027
0.119537
0.11916
0.113477
0.0932365
0.0924056
0.113007
0.118913
0.118514
0.112462
0.0915923
0.0908725
0.11201
0.118257
0.117841
0.111476
0.090163
0.089532
0.111044
0.11758
0.117154
0.110522
0.0889007
0.0883344
0.110108
0.116892
0.11646
0.109597
0.0877572
0.0872342
0.109199
0.116199
0.115762
0.108695
0.0866903
0.0861921
0.108307
0.115503
0.115061
0.107807
0.0856647
0.0851768
0.107425
0.114803
0.114357
0.106924
0.0846539
0.0841669
0.106543
0.114098
0.113646
0.106038
0.0836413
0.0831502
0.105655
0.113386
0.112926
0.105145
0.0826186
0.0821211
0.104759
0.112663
0.112195
0.104242
0.0815816
0.0810764
0.10385
0.111929
0.111452
0.103325
0.0805278
0.0800141
0.102928
0.111182
0.110695
0.102393
0.079456
0.0789344
0.10199
0.110421
0.109923
0.101446
0.0783681
0.0778406
0.101037
0.109645
0.109136
0.100485
0.0772688
0.0767381
0.10007
0.108853
0.108334
0.0995096
0.0761639
0.0756323
0.09909
0.108045
0.107515
0.0985217
0.0750577
0.0745268
0.0980977
0.107221
0.106681
0.0975224
0.0739537
0.0734252
0.0970946
0.106381
0.10583
0.0965129
0.0728557
0.0723305
0.0960816
0.105525
0.104964
0.0954943
0.0717651
0.0712378
0.0950627
0.104655
0.104085
0.0944712
0.0706779
0.0701487
0.0940409
0.103774
0.103195
0.0934452
0.0695981
0.0690695
0.0930161
0.102881
0.102295
0.0924172
0.0685264
0.0679977
0.0919903
0.101981
0.101391
0.0913916
0.0674567
0.0669304
0.0909677
0.101076
0.100482
0.0903698
0.066393
0.0658705
0.0899497
0.100169
0.0995735
0.089354
0.0653373
0.0648195
0.0889395
0.0992624
0.0986671
0.0883476
0.0642914
0.0637802
0.0879408
0.0983595
0.0977649
0.0873542
0.0632599
0.0627583
0.0869559
0.0974607
0.0968664
0.0863748
0.0622488
0.0617593
0.0859841
0.0965641
0.0959688
0.0854072
0.0612628
0.0607869
0.0850216
0.0956657
0.0950671
0.0844466
0.0603044
0.0598428
0.0840625
0.0947598
0.0941549
0.0834863
0.0593745
0.0589274
0.0831004
0.0938399
0.0932263
0.0825211
0.0584738
0.0580406
0.0821314
0.0929014
0.0922785
0.0815489
0.0576005
0.0571781
0.0811545
0.0919432
0.0913118
0.0805693
0.0567473
0.0563299
0.0801696
0.0909674
0.090329
0.0795818
0.0559019
0.0554829
0.0791749
0.0899765
0.0893315
0.0785826
0.0550511
0.0546253
0.0781653
0.0889702
0.0883161
0.0775648
0.0541847
0.0537488
0.0771337
0.0879429
0.0872761
0.0765214
0.0532959
0.052847
0.0760733
0.0868871
0.0862052
0.0754476
0.0523798
0.0519164
0.074981
0.0857991
0.0851021
0.0743413
0.0514336
0.0509546
0.0738552
0.0846786
0.0839661
0.0732006
0.050455
0.0499597
0.0726937
0.0835246
0.0827948
0.0720225
0.0494423
0.0489293
0.0714927
0.0823327
0.0815837
0.0708035
0.0483928
0.0478594
0.0702478
0.0811021
0.080329
0.069539
0.047302
0.0467478
0.0689567
0.0798283
0.0790299
0.0682277
0.046169
0.0455932
0.0676177
0.0785087
0.077683
0.0668674
0.0449926
0.0443944
0.0662276
0.0771393
0.076284
0.0654546
0.0437708
0.0431492
0.0647826
0.0757163
0.0748291
0.0639849
0.0425008
0.0418541
0.0632772
0.0742354
0.0733147
0.0624542
0.0411741
0.0405011
0.0617082
0.0726932
0.0717369
0.0608583
0.0397882
0.0390902
0.0600797
0.0710798
0.070087
0.0591981
0.0383445
0.0376221
0.0583858
0.0693915
0.0683609
0.057469
0.0368418
0.0360926
0.0566191
0.0676247
0.0665542
0.0556625
0.0352736
0.0344892
0.0547718
0.0657757
0.0646622
0.0537709
0.0336279
0.0328035
0.0528356
0.0638386
0.0626781
0.0517855
0.0318974
0.0310303
0.0508014
0.0618057
0.0605938
0.0496972
0.0300752
0.0291593
0.0486609
0.0596687
0.0584022
0.0475016
0.028144
0.0271711
0.0464138
0.0574198
0.0560934
0.0451943
0.026096
0.0250698
0.0440454
0.0550437
0.0536527
0.0427565
0.0239338
0.0228527
0.0415391
0.0525291
0.0510674
0.0401732
0.021652
0.0205145
0.0388813
0.0498633
0.0483251
0.0374315
0.0192449
0.0180492
0.0360581
0.0470329
0.0454121
0.0345164
0.016706
0.0154511
0.0330539
0.0440234
0.0423136
0.0314123
0.0140299
0.0127208
0.0298554
0.0408207
0.0390112
0.0281066
0.0112209
0.00987182
0.0264521
0.0374109
0.0354951
0.0245923
0.00829958
0.00694051
0.0228451
0.0337905
0.0317747
0.02089
0.0053293
0.00402646
0.0190657
0.0299708
0.0278694
0.0170548
0.00244122
0.00128937
0.0151857
0.0259815
0.0238233
0.013164
0.00019275
0.00109286
0.0113505
0.0218845
0.0196903
0.00934393
0.00226848
0.00295296
0.00770043
0.0177677
0.0156036
0.00577259
0.00390057
0.00435824
0.00441275
0.0137735
0.0117017
0.00261614
0.00510189
0.00533163
0.00166836
0.010049
0.00811397
0.000154942
0.00589685
0.00592553
0.000605607
0.00672481
0.00488179
0.00206717
0.00633986
0.00619527
0.00249087
0.00378763
0.00190458
0.0039324
0.00655217
0.00629674
0.00431916
0.00104423
0.00110331
0.00567255
0.00653523
0.00629759
0.00605327
0.00170398
0.00345394
0.00713606
0.0063873
0.00608229
0.00730254
0.00396099
0.00537827
0.00806618
0.00601381
0.00572712
0.00800808
0.00573964
0.00670869
0.00827104
0.00538889
0.00530411
0.00814999
0.00700037
0.00741701
0.00787217
0.00482059
0.00481602
0.00759557
0.00732139
0.00705038
0.0068457
0.00408204
0.00395938
0.00651947
0.00678867
0.00615057
0.0055833
0.0030173
0.00296606
0.00554011
0.00621734
0.00595479
0.00513384
0.00241095
0.00255268
0.00544428
0.00630688
0.00641938
0.00553733
0.00246868
0.00275631
0.00599606
0.00683979
0.00709939
0.00629537
0.00292566
0.00325235
0.00669951
0.00740955
0.00755889
0.00694375
0.00346849
0.00374971
0.00717214
0.00766532
0.00757613
0.00721735
0.00390032
0.00405163
0.00716954
0.00741951
0.00703088
0.00692067
0.00405279
0.0040396
0.00658101
0.00662624
0.00591612
0.00597489
0.00381959
0.00360846
0.00537438
0.00528035
0.00425883
0.00441879
0.00312615
0.00271214
0.00359533
0.00340442
0.00218484
0.00239437
0.00203221
0.00139578
0.00128739
0.00107549
0.000741911
0.00029187
0.000762513
0.000103672
0.00143229
0.00198368
0.00319379
0.00254041
0.00073616
0.0016408
0.00397034
0.00466926
0.00598584
0.00513083
0.00225919
0.00292863
0.00634193
0.00730025
0.00853527
0.00736623
0.00343881
0.00390555
0.00835245
0.00967104
0.0107412
0.00914629
0.00424489
0.00453443
0.00989173
0.0116893
0.0125462
0.0104137
0.00470684
0.00485198
0.0109093
0.0132818
0.0139059
0.0111758
0.00490939
0.00495835
0.011454
0.0144222
0.0148055
0.0115434
0.00495314
0.00494254
0.0116641
0.0151328
0.0153247
0.0116546
0.00490883
0.00488498
0.0117121
0.0155081
0.0155822
0.0116798
0.00485828
0.00487819
0.0117457
0.0156723
0.0156986
0.0117281
0.00489933
0.00495717
0.0118517
0.01575
0.0157753
0.0118873
0.00502473
0.00511356
0.0120823
0.0158134
0.0158406
0.0121869
0.00522136
0.00532565
0.0124208
0.0158701
0.0159036
0.0125671
0.00546005
0.00556244
0.0128095
0.0159267
0.0159725
0.012976
0.00570968
0.00579349
0.0132084
0.0159997
0.0160666
0.013379
0.00593965
0.00598635
0.0135844
0.0161101
0.016202
0.0137368
0.00611672
0.00611609
0.0138832
0.016262
0.0163559
0.0139863
0.00619729
0.00615027
0.0140218
0.0164008
0.0164378
0.0140531
0.00614695
0.00605331
0.0139555
0.0164031
0.0163173
0.0138823
0.00597973
0.00585129
0.0136633
0.0161549
0.0159406
0.0134959
0.00574636
0.00560752
0.0132058
0.0156647
0.0153584
0.0129919
0.00550105
0.00537586
0.012677
0.0150082
0.0146325
0.0124413
0.00527758
0.00516422
0.0121169
0.0142232
0.013785
0.0118583
0.00506165
0.00495471
0.0115144
0.0133196
0.0128232
0.0112229
0.00484305
0.00473803
0.010856
0.0123157
0.0117868
0.0105373
0.00461677
0.00451181
0.0101625
0.011271
0.0107521
0.00983757
0.00438567
0.00428054
0.00947651
0.010266
0.00979178
0.00916612
0.00415397
0.00404899
0.00883397
0.00935903
0.00894441
0.00855003
0.00392515
0.00382251
0.00825289
0.00856912
0.00821496
0.0080019
0.00370645
0.00360867
0.00774058
0.00789231
0.00759355
0.00752278
0.0035026
0.00340964
0.00729372
0.0073161
0.00706473
0.00710515
0.00331317
0.00322343
0.00690168
0.00682188
0.0066098
0.0067384
0.00313658
0.00304996
0.00655564
0.00639436
0.00621297
0.00641266
0.00297081
0.00288858
0.00624856
0.00602113
0.00586581
0.00612337
0.00281674
0.00273879
0.00597557
0.00569404
0.00556102
0.00586593
0.00267371
0.00259814
0.00573063
0.0054049
0.00529017
0.00563448
0.00253917
0.00246676
0.00551075
0.00514861
0.00504975
0.00542734
0.00241446
0.00234378
0.00531199
0.00491852
0.00483126
0.00523786
0.00229585
0.00222615
0.00512834
0.0047072
0.00463244
0.00506494
0.00218515
0.002119
0.00496234
0.00451586
0.00445174
0.0049087
0.00208518
0.00202076
0.00480998
0.00433922
0.00427943
0.00476042
0.00198926
0.00192292
0.00466122
0.00416686
0.00411058
0.00461511
0.00189378
0.00182778
0.00451705
0.00399985
0.00394808
0.00447512
0.00180211
0.00173665
0.00437809
0.00383922
0.00379312
0.0043412
0.00171526
0.00165007
0.00424533
0.00368732
0.0036452
0.0042123
0.00163167
0.00157305
0.00412445
0.0035498
0.00350968
0.00409296
0.00155472
0.00150126
0.0040116
0.00342188
0.00338824
0.00398532
0.00148586
0.00143501
0.00390861
0.00330646
0.0032814
0.00388977
0.0014242
0.00137812
0.00382062
0.00320825
0.0031927
0.00381002
0.00137179
0.00133085
0.0037496
0.00312908
0.00312423
0.00374874
0.00132981
0.00129418
0.00369807
0.0030709
0.00307873
0.00370902
0.00129963
0.00126843
0.00366782
0.00303472
0.00305639
0.00369304
0.00128307
0.00126218
0.00366771
0.00302691
0.00307017
0.00371567
0.00129355
0.00129747
0.00372369
0.0030705
0.00314134
0.00380237
0.00135511
0.00142453
0.00388641
0.0032116
0.00332824
0.00400231
0.00147553
0.00155876
0.00415607
0.00348273
0.00352209
0.00418974
0.00153457
0.00180363
0.00439362
0.00367645
0.00354675
0.00431799
0.00175889
0.00188648
0.00444793
0.00370534
0.00373414
0.0044965
0.0019386
0.00201081
0.00453715
0.00376797
0.00202289
0.000169734
0.00154366
0.00252288
0.00339027
0.00386164
0.00425329
0.0043982
0.00444237
0.00435794
0.00418174
0.00396
0.00366571
0.00337506
0.00301955
0.00270014
0.00232219
0.00200117
0.00163141
0.00133562
0.00101474
0.000782638
0.000577845
0.000461122
0.0004616
0.000523894
0.000883638
0.00118632
0.00197974
0.00263848
0.00515932
0.00736775
0.014155
0.0178366
0.0202596
0.0209417
0.0212908
0.02145
0.0214522
0.021173
0.0212582
0.0211011
0.0203483
0.0173675
0.0138948
0.00987317
0.00714676
0.00358301
0.00345732
0.00676709
0.00967446
0.00945284
0.00633208
0.0032318
0.00307444
0.00595866
0.00926342
0.00914477
0.00570806
0.0029878
0.00290474
0.00549903
0.00899778
0.00888724
0.00532486
0.00282454
0.00277852
0.00522699
0.00880726
0.00872398
0.00514204
0.00275314
0.00272642
0.00508197
0.00868111
0.00864221
0.00503962
0.00270795
0.00269552
0.00501516
0.00862457
0.00860745
0.00499117
0.00268451
0.00268271
0.0050011
0.00861567
0.00861442
0.00500314
0.00267893
0.00268857
0.00503791
0.00864623
0.00866018
0.00505272
0.00269125
0.00270093
0.00509044
0.00870193
0.00872612
0.00510564
0.00270079
0.00270894
0.00514368
0.00877706
0.00880722
0.00515866
0.0027082
0.00271402
0.00519167
0.00885679
0.00888568
0.00520312
0.0027122
0.00271864
0.00523302
0.00893183
0.00895382
0.00523971
0.00271689
0.00272105
0.00526078
0.008988
0.00899547
0.00525695
0.00271622
0.00271801
0.00526995
0.00901735
0.00901116
0.00526084
0.00271204
0.00270806
0.00526048
0.00901554
0.00899891
0.00524533
0.00269813
0.00269039
0.00523643
0.00899136
0.00896825
0.00521797
0.0026792
0.00266791
0.00520311
0.00895137
0.00892041
0.00517929
0.00265356
0.00264138
0.00516207
0.00889951
0.00886628
0.00513766
0.002627
0.00261306
0.00511783
0.00884086
0.00880385
0.00509058
0.00259666
0.00258258
0.00507045
0.00877772
0.0087411
0.00504422
0.00256666
0.00255137
0.00502295
0.00871299
0.0086747
0.00499516
0.00253386
0.00251874
0.00497459
0.00864773
0.00861132
0.00494854
0.0025019
0.00248581
0.00492761
0.00858392
0.00854693
0.00490053
0.00246763
0.00245198
0.00488092
0.00852161
0.00848703
0.00485599
0.00243467
0.00241838
0.00483656
0.00846192
0.00842724
0.00481093
0.00239992
0.00238415
0.00479302
0.00840465
0.00837271
0.00476955
0.00236655
0.00235017
0.00475186
0.00835059
0.00831869
0.00472757
0.00233138
0.00231542
0.0047113
0.00829912
0.00826997
0.00468902
0.00229739
0.00228087
0.00467302
0.00825094
0.00822179
0.00464983
0.00226162
0.00224545
0.00463501
0.00820502
0.00817838
0.00461364
0.00222693
0.00221008
0.00459874
0.00816192
0.00813497
0.00457621
0.00219027
0.00217353
0.00456198
0.00812027
0.00809534
0.00454095
0.00215435
0.0021368
0.00452612
0.00808034
0.00805457
0.00450354
0.00211622
0.0020985
0.00448878
0.00804061
0.00801627
0.00446732
0.00207842
0.00205983
0.00445155
0.00800138
0.00797561
0.00442825
0.00203829
0.00201937
0.00441209
0.00796103
0.00793614
0.0043896
0.00199829
0.00197852
0.00437232
0.00792023
0.00789342
0.00434779
0.00195596
0.00193581
0.00432983
0.00787724
0.00785086
0.00430596
0.00191371
0.00189276
0.00428691
0.00783311
0.00780447
0.00426085
0.00186917
0.00184782
0.00424108
0.00778617
0.00775784
0.00421566
0.00182467
0.00180264
0.00419497
0.00773804
0.00770753
0.00416748
0.00177803
0.00175561
0.00414617
0.00768728
0.00765728
0.00411948
0.00173149
0.00170854
0.00409754
0.00763588
0.007604
0.00406901
0.00168307
0.00165975
0.00404662
0.0075824
0.00755133
0.00401905
0.00163482
0.00161113
0.00399637
0.00752904
0.00749646
0.00396716
0.00158494
0.00156098
0.00394425
0.00747424
0.00744276
0.00391622
0.0015354
0.00151129
0.00389341
0.00742031
0.00738767
0.00386404
0.00148461
0.00146034
0.00384128
0.0073656
0.00733439
0.00381335
0.0014344
0.00141022
0.00379111
0.00731258
0.00728062
0.00376217
0.00138333
0.0013591
0.00374029
0.00725955
0.0072294
0.00371302
0.00133305
0.00130917
0.00369217
0.00720918
0.00717877
0.00366416
0.00128227
0.00125849
0.00364415
0.00715991
0.00713175
0.00361816
0.00123258
0.00120943
0.00359967
0.0071144
0.00708645
0.00357324
0.00118279
0.00115988
0.0035562
0.00707141
0.00704604
0.00353217
0.0011344
0.00111239
0.00351729
0.00703365
0.00700855
0.00349311
0.00108629
0.00106468
0.00348062
0.00700028
0.00697761
0.00345907
0.00104002
0.00101966
0.00344963
0.00697254
0.00695066
0.00342809
0.000994618
0.000974864
0.0034221
0.00695005
0.00693178
0.00340351
0.000951498
0.000933044
0.00340093
0.00693494
0.00691845
0.00338255
0.000909298
0.000891187
0.00338337
0.00692566
0.00691512
0.00336882
0.000869119
0.000852619
0.00337329
0.00692512
0.00691721
0.00336027
0.000830705
0.00081496
0.0033686
0.00693219
0.00693086
0.00336163
0.000795275
0.000781804
0.00337401
0.00695093
0.00695416
0.00337015
0.00076277
0.000751086
0.0033878
0.00698115
0.00699326
0.00339226
0.000734966
0.000726764
0.00341592
0.00702786
0.00704737
0.00342616
0.00071221
0.000706648
0.00345702
0.00709156
0.0071238
0.00347815
0.000696337
0.000695295
0.00351928
0.0071803
0.00722525
0.00355074
0.000688621
0.000692361
0.00360465
0.00729692
0.00736043
0.00365295
0.000692736
0.000703502
0.00372335
0.00744873
0.00753143
0.0037961
0.000716635
0.000746779
0.00388417
0.00760317
0.00768764
0.00393557
0.000743692
0.000730711
0.00398387
0.00780798
0.00782742
0.00397193
0.00070258
0.000674141
0.00400628
0.00789959
0.00800586
0.00405238
0.000671639
0.000646882
0.00408256
0.00805459
0.00812834
0.00408604
0.000608779
0.000611927
0.00418804
0.00826189
0.00833141
0.00425744
0.000612997
0.000602014
0.00433513
0.00845367
0.00855493
0.00439263
0.000596402
0.00062158
0.00453736
0.00871308
0.00889901
0.00466206
0.000601305
0.000845797
0.00502826
0.00917996
0.00931687
0.00512339
0.000481301
0.00208235
0.00669455
0.010199
0.00824011
0.00551035
0.00151144
0.000661701
0.0045197
0.00785168
0.00854637
0.00529354
0.00141452
0.000966579
0.00475585
0.00820724
0.00789451
0.00427799
0.000674016
0.000483484
0.00387611
0.00756077
0.00752543
0.00364454
0.000347896
0.0001924
0.00342241
0.00742446
0.00778295
0.00360035
0.000191488
0.000173919
0.00370305
0.00797772
0.00836165
0.00403526
0.000256919
0.000293626
0.00428277
0.00869938
0.00927618
0.00486905
0.000577325
0.000244832
0.00511007
0.00965497
0.0110004
0.0072261
0.00221128
0.00161263
0.00603351
0.00898358
0.00879224
0.00526758
0.000793951
0.00153456
0.00627077
0.00984757
0.0101828
0.00626637
0.00125083
0.00115692
0.00622629
0.0103857
0.0105423
0.00619797
0.00100526
0.000951662
0.00622887
0.0107091
0.0109459
0.00639711
0.00100957
0.00120129
0.00682823
0.0113599
0.0116281
0.00703282
0.00102269
0.00289099
0.00878266
0.0126874
0.0104757
0.00736988
0.00212509
0.00124534
0.00666205
0.0103394
0.0113722
0.00770164
0.00211803
0.00159041
0.00736363
0.0115527
0.0118326
0.00740175
0.00152361
0.00148352
0.00755199
0.0120706
0.0125984
0.00799932
0.00170056
0.00154975
0.0082834
0.0129127
0.014351
0.0104494
0.00378749
0.00299263
0.00900131
0.0121746
0.012318
0.00857207
0.00199876
0.00310554
0.00990783
0.0136028
0.0143509
0.0103982
0.00300523
0.00323619
0.0109047
0.0149728
0.0155817
0.0114351
0.00349847
0.0035301
0.0117823
0.016039
0.0173707
0.0137276
0.00574198
0.00476208
0.0119284
0.0151253
0.0153712
0.0116653
0.0036276
0.00481267
0.0131738
0.016733
0.017561
0.0137825
0.00488026
0.00483977
0.0140428
0.0180562
0.0196585
0.016128
0.00731395
0.00612007
0.014094
0.0174734
0.0178862
0.0141497
0.00513621
0.00685135
0.0160561
0.019582
0.020827
0.017201
0.00730401
0.00791606
0.0182204
0.021907
0.0228407
0.0191376
0.00856884
0.0115357
0.0216354
0.0248536
0.0229134
0.0195742
0.0105581
0.0095298
0.0202797
0.023631
0.0255749
0.022444
0.0114659
0.0124758
0.0238013
0.0269793
0.0295454
0.0267979
0.0156573
0.0144213
0.0245723
0.0279781
0.0291531
0.0259668
0.0142767
0.0175999
0.0290151
0.031685
0.0338052
0.0311959
0.0190774
0.0225469
0.0345434
0.0368453
0.0358899
0.0326642
0.0218501
0.0226693
0.0349544
0.0376784
0.0404914
0.0380763
0.0254994
0.0297717
0.0426127
0.0446072
0.0445409
0.0411987
0.0296434
0.0314955
0.044616
0.0471992
0.0508377
0.048697
0.0358082
0.0429017
0.0551008
0.0562328
0.0574138
0.0546062
0.0436989
0.0466037
0.0589225
0.0609927
0.068056
0.0674515
0.0558296
0.0576018
0.0683843
0.070946
0.0762375
0.0746823
0.0624684
0.0749872
0.0856279
0.0850445
0.0900966
0.0883699
0.0785142
0.0867462
0.0971635
0.0972887
0.108871
0.111625
0.104584
0.111254
0.118475
0.118833
0.13095
0.134679
0.131673
0.142888
0.147171
0.145626
0.158513
0.164826
0.166576
0.187603
0.187147
0.182322
0.205665
0.209981
0.204192
0.217957
0.231986
0.225624
0.237254
0.246522
0.226321
0.213809
0.246385
0.237872
0.230291
0.24005
0.20805
0.190743
0.215858
0.214579
0.208306
0.206796
0.178648
0.162188
0.187083
0.192336
0.188386
0.183132
0.158347
0.146081
0.167115
0.174129
0.17116
0.163019
0.137175
0.126443
0.150184
0.159011
0.159633
0.151382
0.125294
0.113054
0.138055
0.147667
0.148941
0.140695
0.117619
0.112366
0.133095
0.141539
0.131399
0.121358
0.100405
0.102173
0.125091
0.134137
0.128497
0.119312
0.0973909
0.0873404
0.108728
0.119169
0.122937
0.113668
0.09042
0.0827868
0.10517
0.115286
0.11971
0.111407
0.0898672
0.0856577
0.106335
0.114977
0.106539
0.0967966
0.0760227
0.0804649
0.102191
0.110445
0.106698
0.0981711
0.0772717
0.0694833
0.0897449
0.099371
0.103561
0.0954058
0.0747473
0.0709741
0.0913915
0.100057
0.0928579
0.0833392
0.0630675
0.0698847
0.0900464
0.0979229
0.0949478
0.0867649
0.0672021
0.0591381
0.0790178
0.0881153
0.09277
0.0850662
0.0650828
0.0626438
0.0820877
0.0902124
0.0838377
0.0748338
0.0552747
0.0619993
0.081451
0.0891032
0.0865873
0.0785535
0.0596432
0.052216
0.0714829
0.0802935
0.0851931
0.0778289
0.0591772
0.0565675
0.0753176
0.0831985
0.080162
0.0717395
0.053395
0.0447315
0.0641723
0.073695
0.0798647
0.0721938
0.0526146
0.0504394
0.0700832
0.078102
0.0723755
0.0631894
0.0432182
0.0511245
0.0704073
0.0777896
0.0761493
0.0683517
0.0492883
0.0420532
0.0618488
0.0705564
0.0761956
0.0690658
0.0500769
0.0483888
0.0670654
0.0746302
0.0693538
0.0607484
0.041545
0.0496374
0.0677352
0.0747297
0.0735514
0.0662188
0.0482385
0.0415587
0.0600228
0.0683285
0.0736945
0.0668535
0.0491715
0.0481104
0.065547
0.0727052
0.06784
0.0596513
0.0418619
0.0492044
0.0664822
0.0729583
0.0720102
0.0651771
0.0479871
0.0416628
0.0593727
0.0670995
0.07241
0.0658787
0.0487168
0.0473187
0.0644068
0.0713893
0.0668976
0.0590391
0.041414
0.0490808
0.0658516
0.0720703
0.0713162
0.0645305
0.047979
0.0417742
0.05936
0.0667387
0.0719065
0.0658347
0.0488306
0.0477183
0.0644891
0.0710954
0.0665891
0.0589563
0.041481
0.0486593
0.0654251
0.0713944
0.0708882
0.0644979
0.0478318
0.0419524
0.0594144
0.0665482
0.0716848
0.0657639
0.0492449
0.0482429
0.0646217
0.0710565
0.0667888
0.0594698
0.0425013
0.0493059
0.0658732
0.0716125
0.070852
0.0645526
0.0479566
0.0421918
0.0593327
0.0666175
0.0717526
0.0659084
0.0495496
0.0487761
0.0649727
0.0713449
0.0671835
0.0599574
0.043135
0.0499779
0.0661499
0.0718863
0.0713787
0.0651718
0.0488595
0.0431781
0.0598847
0.0670654
0.0720178
0.0661075
0.0498155
0.0485368
0.0648286
0.0713357
0.0672698
0.0599215
0.042799
0.0501947
0.0665838
0.072113
0.0718341
0.0657573
0.0492794
0.043647
0.0607038
0.0678558
0.0727056
0.0670776
0.0506384
0.0496136
0.0659833
0.072304
0.0681542
0.0610057
0.0436635
0.0507164
0.0670899
0.0726665
0.0720189
0.0655717
0.0492936
0.0432565
0.0602711
0.0677481
0.0730167
0.0674497
0.0506612
0.0471785
0.0640594
0.0705069
0.0751706
0.0699101
0.0542627
0.0532443
0.0686413
0.0746303
0.0707912
0.0641117
0.0477169
0.0540505
0.0700323
0.0753616
0.0749821
0.0689423
0.0530396
0.0471837
0.0639633
0.0710393
0.0753228
0.0697054
0.053894
0.0528744
0.0688394
0.0751552
0.0713823
0.0642812
0.0474658
0.0546198
0.0708455
0.0763482
0.076226
0.07001
0.0536469
0.0479715
0.0649378
0.0722164
0.0770963
0.071795
0.0553348
0.0514917
0.0682502
0.0745266
0.0794299
0.0742117
0.0584699
0.0574932
0.0730387
0.0789109
0.0750156
0.0680155
0.0520056
0.058137
0.0739778
0.0793296
0.079537
0.0735557
0.0576704
0.0525364
0.0692406
0.0759861
0.0805957
0.0754868
0.0594978
0.05849
0.0745319
0.0805011
0.0767202
0.0697463
0.0526363
0.0593813
0.076307
0.081299
0.0788844
0.0727784
0.0557904
0.062766
0.0783934
0.0832894
0.0827099
0.0768899
0.0614949
0.0556269
0.0718985
0.0787267
0.0827173
0.0774868
0.0620261
0.0611998
0.0767585
0.0828412
0.0791432
0.0722832
0.0556664
0.062516
0.0791126
0.084005
0.0817915
0.0758142
0.0589354
0.0656473
0.0813021
0.0859758
0.0857004
0.080091
0.0645135
0.0590359
0.0753239
0.0819955
0.0864421
0.0812819
0.0655948
0.0643668
0.0802828
0.0862273
0.0821366
0.0750734
0.0584252
0.064347
0.081339
0.0864818
0.0841208
0.0778499
0.0606919
0.0679951
0.0839562
0.0886073
0.0884456
0.0829066
0.0670013
0.0614911
0.0780333
0.0847627
0.0890269
0.0842773
0.068316
0.0646127
0.0806254
0.0866492
0.0909039
0.0862309
0.0709209
0.069795
0.0850732
0.0905437
0.0868293
0.0802733
0.0643148
0.069886
0.0861202
0.0908855
0.0884506
0.0825127
0.0661327
0.0719964
0.0874855
0.0923292
0.0917946
0.0859646
0.070569
0.0659155
0.08169
0.0884236
0.0925669
0.0877323
0.0723909
0.0712331
0.0868875
0.0926635
0.0889911
0.0821017
0.0654933
0.0715118
0.0885145
0.093314
0.0910824
0.0849471
0.0678032
0.0741607
0.0904113
0.0950059
0.094531
0.0889076
0.0726459
0.0669074
0.0837717
0.090568
0.0948957
0.0899118
0.0731363
0.06928
0.0861506
0.0923202
0.0961922
0.0913017
0.0748549
0.0736688
0.089988
0.0958456
0.0922667
0.085131
0.0684814
0.0747319
0.0915808
0.0966545
0.0944128
0.0882528
0.0710906
0.0777878
0.0938242
0.0983463
0.0981078
0.0925645
0.0765251
0.0708442
0.0876844
0.0942483
0.098511
0.0938018
0.0768145
0.0730881
0.0901232
0.0960864
0.100139
0.0954977
0.0794106
0.0779118
0.0938946
0.0996064
0.0955892
0.0888447
0.0718334
0.0771513
0.0946722
0.0995839
0.09711
0.0909218
0.0731951
0.0803401
0.0964852
0.101043
0.100977
0.0954074
0.0793742
0.0740267
0.0905284
0.0972519
0.101678
0.096975
0.0800365
0.0761476
0.0929694
0.0990987
0.103352
0.0988925
0.0826949
0.0794101
0.0952194
0.100974
0.10475
0.100314
0.0852962
0.0839025
0.09868
0.10419
0.100486
0.0940359
0.0783526
0.083686
0.099761
0.104303
0.101872
0.0960427
0.0799896
0.0855221
0.101084
0.105595
0.104948
0.0993723
0.0837024
0.0782161
0.0946143
0.101288
0.105444
0.100891
0.0842907
0.0808255
0.0973562
0.103226
0.107364
0.102922
0.0864536
0.0830712
0.0993385
0.105026
0.108683
0.104475
0.0888651
0.087661
0.103089
0.108382
0.104718
0.0983701
0.0819808
0.0867124
0.103933
0.108439
0.106175
0.100341
0.082952
0.0892118
0.105402
0.109747
0.109335
0.103832
0.0878104
0.0818178
0.0988302
0.105464
0.109244
0.104404
0.0868943
0.0828193
0.100167
0.106486
0.110586
0.106075
0.0894637
0.086326
0.102724
0.108351
0.112182
0.107804
0.0924944
0.0915076
0.106543
0.111942
0.108362
0.101896
0.0859915
0.0911088
0.107556
0.112214
0.109996
0.103953
0.0875934
0.0937968
0.109405
0.113829
0.113314
0.107729
0.0921471
0.0860858
0.102901
0.109524
0.113362
0.108753
0.0911971
0.0872417
0.104528
0.110733
0.11475
0.110087
0.0932912
0.0893733
0.105786
0.111963
0.115434
0.110646
0.0944337
0.0928076
0.109002
0.114887
0.111058
0.104037
0.0873185
0.0929748
0.110481
0.115248
0.112843
0.106679
0.088986
0.0946222
0.112378
0.116787
0.114484
0.108722
0.0912453
0.097358
0.113831
0.118227
0.117791
0.11218
0.0958645
0.0900784
0.10717
0.113831
0.117809
0.113249
0.0953592
0.0913594
0.109258
0.115303
0.119405
0.114821
0.0972044
0.0937641
0.110789
0.11677
0.120436
0.116019
0.0990183
0.0954234
0.112065
0.117819
0.121201
0.116745
0.100979
0.0993088
0.114889
0.120497
0.116704
0.110088
0.0937029
0.0991872
0.116041
0.120672
0.118615
0.112555
0.0959461
0.101565
0.118261
0.122708
0.120243
0.114525
0.0978486
0.103688
0.119445
0.123652
0.123349
0.117998
0.102414
0.0969016
0.113096
0.119705
0.123609
0.118831
0.101961
0.0979167
0.114894
0.121017
0.12504
0.120736
0.103481
0.0997672
0.11695
0.12251
0.125965
0.121677
0.105559
0.104171
0.119945
0.125441
0.121509
0.114712
0.0984495
0.102985
0.120513
0.125279
0.122419
0.116088
0.0984308
0.104331
0.121764
0.126345
0.123945
0.118034
0.101065
0.106949
0.123493
0.127751
0.125396
0.119797
0.103503
0.109054
0.124532
0.128855
0.128469
0.122968
0.107759
0.102369
0.118482
0.12487
0.128704
0.124272
0.106964
0.10302
0.120205
0.126181
0.130322
0.125915
0.108705
0.104995
0.121781
0.127656
0.131431
0.127151
0.11052
0.107188
0.123419
0.129095
0.132502
0.128135
0.112585
0.111079
0.126322
0.131894
0.12809
0.121603
0.10537
0.109783
0.127028
0.131744
0.128977
0.122866
0.105482
0.111017
0.128409
0.132851
0.13063
0.12471
0.107851
0.114375
0.130099
0.134377
0.133993
0.128461
0.112782
0.106943
0.123465
0.130235
0.134193
0.129352
0.111857
0.10788
0.125282
0.131623
0.135854
0.131354
0.113736
0.109824
0.127082
0.133128
0.136945
0.132545
0.115256
0.11183
0.128516
0.134358
0.137991
0.13372
0.117124
0.113792
0.129918
0.135591
0.138982
0.134697
0.119006
0.117652
0.13307
0.138497
0.134759
0.128259
0.112089
0.116675
0.133861
0.138477
0.135746
0.129633
0.11237
0.117541
0.135102
0.139547
0.137007
0.130979
0.113952
0.119636
0.136313
0.140638
0.138362
0.132617
0.116386
0.12195
0.137673
0.141918
0.141528
0.136164
0.120468
0.115034
0.131323
0.137893
0.141705
0.137244
0.119833
0.115833
0.13312
0.139182
0.143249
0.138844
0.121431
0.117573
0.13471
0.140573
0.144332
0.14012
0.12299
0.119637
0.136313
0.141937
0.145343
0.141032
0.125071
0.123691
0.139362
0.144871
0.141049
0.13449
0.11801
0.122275
0.140102
0.14476
0.142059
0.135794
0.11804
0.123085
0.141453
0.146005
0.14313
0.136916
0.119002
0.124888
0.142407
0.146864
0.144395
0.138395
0.121541
0.126954
0.143849
0.14822
0.145863
0.140133
0.123562
0.129256
0.145061
0.149334
0.148959
0.143436
0.127769
0.122467
0.138801
0.145387
0.149439
0.144759
0.126982
0.122767
0.140624
0.14682
0.150932
0.146485
0.128514
0.124717
0.142161
0.148205
0.151997
0.14753
0.130071
0.126682
0.143627
0.14954
0.153044
0.148627
0.132287
0.13034
0.146689
0.152392
0.1485
0.14152
0.124469
0.12949
0.147739
0.152471
0.149617
0.143177
0.124888
0.130337
0.148769
0.153462
0.150593
0.144314
0.126319
0.131665
0.149878
0.154454
0.15183
0.145613
0.128113
0.134027
0.151266
0.155685
0.153254
0.147376
0.130553
0.136019
0.152373
0.156836
0.156501
0.150841
0.134653
0.129086
0.145925
0.152778
0.156786
0.151946
0.13408
0.129736