/*--------------------------------*- C++ -*----------------------------------*\
| =========                 |                                                 |
| \\      /  F ield         | OpenFOAM: The Open Source CFD Toolbox           |
|  \\    /   O peration     | Version:  v2006                                 |
|   \\  /    A nd           | Website:  www.openfoam.com                      |
|    \\/     M anipulation  |                                                 |
\*---------------------------------------------------------------------------*/
FoamFile
{
    version     2.0;
    format      ascii;
    class       volScalarField;
    location    "0.008";
    object      omega;
}
// * * * * * * * * * * * * * * * * * * * * * * * * * * * * * * * * * * * * * //

dimensions      [0 0 -1 0 0 0 0];


internalField   nonuniform List<scalar> 
41981
(
0.014159
0.0152059
0.0102853
0.010089
0.00990287
0.00981848
0.00979076
0.00971477
0.0100514
0.0110338
0.0126339
0.0147364
0.0174389
0.0211815
0.0258104
0.031729
0.0407941
0.0575625
0.0699837
0.0988265
0.145442
0.210331
0.291832
0.386577
0.492097
0.608377
0.736521
0.876348
1.02496
1.17624
1.32272
1.4582
1.57748
1.67634
1.75203
1.80354
1.83112
1.83602
1.8199
1.78464
1.7319
1.66306
1.57901
1.48047
1.37379
1.38069
1.40871
1.2274
1.1348
1.04846
0.861641
0.769834
0.706219
0.639747
0.58003
0.531314
0.488899
0.450629
0.416954
0.387424
0.361332
0.33816
0.317491
0.298969
0.282264
0.26708
0.253172
0.240342
0.228437
0.21734
0.206955
0.197197
0.187998
0.179304
0.171068
0.163251
0.155819
0.148743
0.141997
0.135562
0.129421
0.123559
0.117966
0.112633
0.10755
0.102711
0.0981103
0.0937413
0.0896001
0.0856835
0.081989
0.0785144
0.0752561
0.0722103
0.0693712
0.0667319
0.0642851
0.062024
0.0599433
0.0580393
0.0563106
0.0547585
0.0533853
0.0521944
0.0511889
0.0503709
0.0497404
0.0492952
0.0490296
0.0489354
0.0490009
0.0492128
0.0495559
0.0500152
0.0505757
0.051224
0.0519482
0.0527387
0.0535873
0.0544882
0.0554367
0.0564309
0.0574714
0.0585649
0.0597286
0.0610011
0.0624601
0.0642551
0.0666601
0.070158
0.0755615
0.0841805
0.0980237
0.120021
0.15423
0.205996
0.282034
0.390414
0.540408
0.742147
1.00654
1.34633
1.77834
2.32302
2.99477
3.78378
4.65554
5.61938
6.87523
9.09018
13.1997
21.5843
39.9951
49.4891
40.7009
101.407
289.496
1048.86
9453.67
52289.6
687858
698896
108327
24573.8
45548.1
159252
709780
713735
165311
52056
62250
172144
692805
680730
168438
62285.1
67524.8
171753
665104
652515
164946
66644.8
68438.7
167416
638733
636860
163764
67496.5
69183
164338
629854
625808
162224
67663.7
69296.1
163346
620862
617769
162092
67820.4
69522
163701
613822
611267
162822
68142.7
69969
164914
608053
605953
164042
68696
70643.5
166197
603397
601732
165306
69468.3
71531.4
167443
599722
598399
166506
70372.3
72435.9
168549
596752
595671
167566
71272.5
73328.9
169527
594260
593343
168512
72159
74190.6
170410
592077
591264
169373
73010.3
75014.4
171230
590075
589318
170182
73817.6
75801.3
172023
588153
587410
170972
74580.7
76540.7
172812
586233
585477
171757
75293.3
77228.7
173595
584268
583491
172536
75952.6
77864.7
174370
582246
581449
173307
76561.9
78455.6
175139
580167
579349
174072
77130.5
79011.8
175904
578025
577178
174832
77668.1
79538.5
176657
575803
574923
175576
78174.2
80030.7
177381
573499
572588
176284
78643.5
80486.8
178061
571127
570192
176948
79078.9
80912
178693
568711
567760
177564
79487.9
81316.1
179278
566271
565305
178132
79882.1
81709.8
179807
563818
562842
178641
80270.7
82100
180275
561375
560388
179093
80658.8
82491.4
180707
558956
557931
179498
81046.7
82878.4
181081
556536
555479
179831
81426.2
83255.2
181387
554131
553064
180110
81798
83624
181652
551745
550666
180361
82160
83974.6
181881
549348
548267
180569
82498.4
84298.4
182067
546954
545873
180741
82809.4
84592.7
182223
544563
543480
180884
83086.7
84846.9
182348
542173
541092
180990
83316.1
85045.4
182425
539792
538722
181035
83482.8
85174.9
182427
537438
536385
180992
83577.2
85230.8
182332
535122
534089
180845
83602.1
85223.2
182124
532850
531841
180584
83575.8
85177.1
181801
530635
529655
180210
83529.5
85128.4
181369
528494
527551
179743
83501.7
85112.4
180859
526445
525539
179216
83518.5
85141.6
180313
524484
523605
178679
83575.1
85196.2
179766
522580
521713
178151
83640
85244
179229
520694
519823
177633
83688.5
85276.5
178705
518794
517909
177123
83730.8
85317.6
178188
516857
515953
176616
83795.1
85384.6
177672
514872
513943
176107
83879.2
85456.2
177149
512826
511870
175588
83952
85505.9
176613
510713
509727
175053
84002.3
85542.3
176066
508524
507506
174503
84051.2
85585.8
175502
506256
505203
173940
84104.7
85627.1
174919
503904
502815
173351
84148
85653.3
174312
501465
500341
172741
84177.4
85671.1
173683
498940
497779
172108
84205.1
85690.6
173029
496326
495130
171449
84235.5
85710.9
172347
493616
492393
170766
84266.7
85731
171637
490784
489534
170051
84300.5
85755.1
170891
487834
486566
169278
84343.7
85786.4
170088
484781
483503
168446
84391.3
85815
169226
481629
480335
167563
84433.8
85838
168321
478371
477027
166644
84472.4
85859.4
167378
474971
473571
165684
84513.4
85887.9
166398
471429
469972
164690
84567.7
85932.4
165390
467747
466229
163680
84639.6
85990.8
164361
463900
462312
162607
84719.8
86051.1
163253
459908
458275
161457
84808.5
86124.3
162076
455801
454132
160235
84915.4
86214.6
160821
451596
449901
158915
85039.5
86317.8
159461
447316
445611
157471
85175.8
86428.7
157967
442997
441307
155875
85319.8
86541.9
156304
438710
437082
154068
85463.6
86645
154389
434567
433065
151923
85587.6
86697.5
152057
430722
429425
149256
85629.4
86590.7
148972
427417
426446
145632
85430.1
86090.5
144564
424985
424454
140455
84608.6
84843.7
138335
424132
424629
132921
82746.5
82570.1
130275
424931
425439
123801
79852.9
79071.9
120965
425777
426275
113815
75548.5
74161.8
111311
426642
427094
103846
69850.2
68003.8
102130
427409
427755
94773.2
63159.8
61102.9
93721.9
427939
428100
87503.7
56413.7
54428
86438.1
428134
428145
80647.8
49911.7
47741.6
79787.3
428010
427917
74440.8
43343.6
40892.6
73771.6
427688
427517
69265.2
36575.5
33929.3
69554.6
427257
427061
65157.9
29256.9
26304.4
66787.9
426781
426651
63258
22535.7
20261.3
65616.5
426435
426345
62571
18729.3
18615.9
64266.8
426078
425969
61596.2
17939.9
19377.8
63787.8
425732
425683
64163.5
20222.1
21444.7
66956
425592
425616
68704.4
22247.3
22666
71700.9
425624
425710
72581.6
22781
21933.2
73007.2
425774
425893
72879.6
21734.9
20102.6
71507.2
425974
426086
70944.5
19966.8
17991.8
68009.6
426147
426204
67220.7
18071.9
16505.2
64284.9
426202
426196
64158.2
16684.4
15517.1
62006.6
426100
426027
62046.1
15772.8
14809.7
60120.6
425861
425747
60546.5
15226.9
14500.7
58896.2
425583
425469
59880
14899.3
14605.1
58798.2
425385
425320
59469.2
14660.6
14970
59986.2
425334
425404
60129.7
14794.6
15596.5
62123.5
425488
425613
62353.2
15341.1
16481.8
65023
425732
425864
65453.9
16240.9
17746.9
68521.7
425971
426076
69136.9
17572.8
19413.9
72298.9
426147
426215
72784.8
19304.5
21424.6
75629.1
426256
426294
75889.9
21350.9
23664.2
78292.6
426318
426338
78255.2
23515.1
25477.9
79869.8
426355
426374
79461.9
25142.1
26347.1
80218.1
426396
426428
79514.4
25756.3
26594.8
80084.3
426461
426501
79240.1
25659.4
26091.9
79734.2
426539
426577
78802.6
24826.7
25107.5
79247.9
426616
426653
78322.4
24016.6
24319.1
78761.2
426688
426722
77882.6
23416.6
23866.1
78320.7
426767
426799
77599.6
23295.1
23802.9
78123.1
426862
426887
77711.8
23529.7
24094.2
78301.6
426953
426962
78357.3
24039.5
24731.9
78976.2
426997
426981
79805
24807.2
25570.3
79853.9
426963
426916
81056.1
25709.4
26254.8
80481.2
426842
426722
81555.4
26402.9
26558.5
80414.1
426560
426363
81152.1
26477.9
26378.2
79509.4
426113
425848
80059.4
26071.7
25859.3
78230.5
425536
425235
78731.5
25575.8
25375.8
76781.6
424913
424650
77260.4
25178.6
25038.3
75226.9
424388
424206
75718
24864
24772.7
73669.3
424019
423906
74197.5
24548.2
24496.2
72234.1
423778
423706
72823.9
24203.6
24213.7
71031.7
423614
423563
71665.4
23865.2
23935.9
70054.6
423494
423455
70695.6
23545
23672.3
69250.3
423400
423369
69882.1
23250.8
23445.2
68610.9
423324
423298
69225.3
23004.8
23260.8
68118
423261
423238
68707.8
22810.2
23101
67721
423206
423185
68310.7
22658.1
22968.8
67407.9
423156
423137
67978.9
22533.6
22860.9
67161.9
423111
423094
67695.4
22432.6
22770.7
66962.2
423069
423053
67468.9
22353.7
22695.6
66795.5
423029
423014
67296.3
22294.4
22635.5
66653.5
422992
422978
67161.3
22250.8
22589.5
66535.4
422956
422942
67062.3
22221.5
22557.3
66442
422920
422907
66990.7
22205.5
22536.4
66363.1
422886
422874
66936.9
22200.1
22522.9
66292.4
422852
422839
66898.9
22202.7
22515.2
66228.4
422816
422803
66868
22209.2
22509.5
66168.3
422779
422767
66839.3
22214.9
22501.5
66109.9
422741
422730
66808.2
22215.5
22487.6
66050.7
422702
422691
66768.5
22208
22466.3
65989.6
422666
422654
66717.9
22191.8
22437.5
65923.9
422628
422617
66656
22168.2
22401.6
65851.2
422590
422581
66583.6
22138
22361.2
65775.2
422553
422545
66508.3
22105.7
22319
65697
422517
422510
66429
22072.5
22277.1
65617.7
422484
422477
66346.3
22044.7
22227
65513.4
422452
422449
66185.8
22000.7
22126
65340.1
422428
422433
65883.3
21923.9
21968.8
65154.1
422697
417515
65005.3
21718.1
21740.7
64792.9
418586
417251
64907.2
21685.4
21695.2
63531.2
409943
385178
59746
20674.1
19520.3
56071.1
360979
340202
53434.1
18923.2
18260.5
51577.9
330802
319768
49902.5
17116.4
6301.92
3229.52
2241.92
2017.74
1964.15
1949.98
1946.5
1944.51
1944.26
1944.12
1943.58
1942.13
1937.12
1931.95
1926.6
1920.33
1913.79
1905.47
1897.3
1887.05
1877.6
1866.08
1857.3
1849.77
1849.39
1858.72
1878.09
1917.17
1968.02
2130.06
2244.53
2640.1
2335.84
2113.66
2013.46
1994.62
1992.53
1991.62
1991.36
1993.25
1997.48
2000.58
2065.29
2232.86
2562.78
20944.4
139304
1.21723e+06
1.24638e+06
198535
54411.1
67495.2
209341
1.27854e+06
1.31655e+06
210931
71357.1
72223.6
210471
1.30812e+06
1.31499e+06
211628
73439.1
74111.6
214727
1.33945e+06
1.3683e+06
213700
74155.5
74923.2
215213
1.3666e+06
1.36845e+06
215704
74685.1
74746.1
215614
1.36486e+06
1.36671e+06
215168
74639.9
74629.9
215238
1.36675e+06
1.36678e+06
214837
74420.7
74346.6
214803
1.36682e+06
1.36685e+06
214680
74173.4
74207.5
214793
1.36689e+06
1.36692e+06
214777
74165.9
74235
214909
1.36696e+06
1.367e+06
214896
74231
74334.7
215049
1.36703e+06
1.36707e+06
215052
74360.5
74481.3
215189
1.3671e+06
1.36713e+06
215189
74516.5
74668.5
215345
1.36717e+06
1.3672e+06
215358
74718.3
74881.9
215523
1.36723e+06
1.36726e+06
215493
74911.5
75076.3
215721
1.3673e+06
1.36733e+06
215642
75091.2
75219.8
215901
1.36736e+06
1.36739e+06
215742
75202.4
75302
216005
1.36742e+06
1.36745e+06
215872
75271.3
75339.3
216072
1.36747e+06
1.3675e+06
215868
75271.1
75324
216082
1.36753e+06
1.36756e+06
215914
75251.5
75286.1
216092
1.36758e+06
1.36761e+06
215865
75187.6
75216.5
216066
1.36764e+06
1.36766e+06
215881
75121.6
75139.2
216052
1.36769e+06
1.36771e+06
215818
75025.2
75042.1
216014
1.36774e+06
1.36776e+06
215817
74933.9
74943.5
215990
1.36779e+06
1.36781e+06
215746
74819.8
74832.6
215943
1.36783e+06
1.36786e+06
215742
74720.2
74730.5
215921
1.36788e+06
1.3679e+06
215678
74606.9
74622.7
215879
1.36793e+06
1.36795e+06
215685
74514.3
74530.9
215872
1.36797e+06
1.36799e+06
215632
74411.9
74434.6
215843
1.36801e+06
1.36803e+06
215649
74331.7
74356.3
215844
1.36805e+06
1.36807e+06
215611
74245.7
74277.4
215829
1.36809e+06
1.36811e+06
215644
74184.6
74219.2
215845
1.36813e+06
1.36815e+06
215623
74119.6
74160.7
215843
1.36817e+06
1.36819e+06
215669
74079.7
74124.5
215877
1.36821e+06
1.36822e+06
215662
74035.5
74084
215881
1.36824e+06
1.36826e+06
215714
74013
74065.2
215925
1.36828e+06
1.36829e+06
215713
73984.5
74038.3
215935
1.36831e+06
1.36833e+06
215769
73973.7
74029.4
215979
1.36834e+06
1.36836e+06
215773
73953.7
74008.7
215989
1.36838e+06
1.36839e+06
215824
73946.2
74002.8
216033
1.3684e+06
1.36842e+06
215825
73927.3
73981.4
216039
1.36843e+06
1.36844e+06
215872
73918.1
73973.3
216080
1.36846e+06
1.36847e+06
215870
73896.1
73947.1
216078
1.36848e+06
1.36849e+06
215910
73882
73935.4
216115
1.36851e+06
1.36852e+06
215903
73856.1
73904.8
216109
1.36853e+06
1.36854e+06
215936
73836.8
73888.1
216141
1.36855e+06
1.36855e+06
215927
73806.2
73851.6
216128
1.36856e+06
1.36857e+06
215952
73780.2
73828.9
216157
1.36858e+06
1.36859e+06
215939
73743.3
73785.5
216137
1.3686e+06
1.3686e+06
215959
73711
73757.5
216163
1.36861e+06
1.36861e+06
215945
73669.3
73709.3
216142
1.36862e+06
1.36863e+06
215960
73631.8
73677.4
216167
1.36863e+06
1.36863e+06
215946
73586.4
73624.8
216141
1.36864e+06
1.36864e+06
215957
73545.3
73590.8
216169
1.36865e+06
1.36865e+06
215944
73496.2
73534.1
216140
1.36865e+06
1.36866e+06
215953
73449.7
73497.1
216171
1.36866e+06
1.36866e+06
215938
73396.4
73436.6
216139
1.36866e+06
1.36866e+06
215946
73349.5
73398.4
216173
1.36866e+06
1.36866e+06
215931
73299
73337.3
216143
1.36866e+06
1.36866e+06
215944
73251.9
73297.4
216187
1.36866e+06
1.36866e+06
215946
73201.8
73229.8
216164
1.36866e+06
1.36866e+06
215965
73153.1
73191.2
216210
1.36866e+06
1.36866e+06
215982
73102.7
73128.9
216178
1.36865e+06
1.36865e+06
216016
73052.8
73084.2
216217
1.36865e+06
1.36864e+06
216063
72997.9
73011.7
216185
1.36864e+06
1.36864e+06
216126
72939.4
72954.5
216243
1.36863e+06
1.36863e+06
216200
72875.3
72876.6
216305
1.36862e+06
1.36862e+06
216288
72799.8
72798.9
216407
1.36861e+06
1.3686e+06
216382
72705.5
72685.4
216495
1.3686e+06
1.36859e+06
216475
72598.8
72454.6
216500
1.36858e+06
1.36858e+06
216586
72761.5
72835.3
214618
1.3416e+06
1.31355e+06
212190
72374.3
72678.6
213010
1.31705e+06
1.33956e+06
214169
72506.8
71994
212858
1.3433e+06
1.31615e+06
210480
71657.4
71232
206241
1.2909e+06
1.26626e+06
202672
69554.4
68558
198399
1.24032e+06
1.19541e+06
192505
67365.3
66104
186811
1.15201e+06
1.12881e+06
183321
64481.4
62886.6
181104
1.12704e+06
1.08274e+06
174923
60452.6
58064.6
167940
1.01102e+06
940111
114340
35845.8
111699
314882
1.54942e+06
2.92021e+06
432521
122750
109543
344630
2.11353e+06
1.96547e+06
329200
109737
103882
310170
1.90926e+06
1.81701e+06
297807
102297
95631.8
283209
1.73573e+06
1.69829e+06
274215
93564.3
86477.7
256547
1.62e+06
1.5528e+06
248539
84382.6
79350.3
235788
1.48476e+06
1.39177e+06
223281
76811.7
70733.9
212602
1.32914e+06
1.22988e+06
201306
69231.3
37946.1
131083
1.07223e+06
1.68903e+06
339751
120456
124987
433745
2.91577e+06
1.99941e+06
333687
107921
92906.7
279064
1.68262e+06
1.5006e+06
252113
84906.7
79043
234260
1.4055e+06
1.31947e+06
217383
74030.5
69737.3
201992
1.21282e+06
1.14286e+06
189119
63890.9
60141.5
179006
1.05313e+06
953383
103801
37542.4
115948
331302
1.55329e+06
2.75378e+06
408016
117749
104034
326100
1.91417e+06
1.73327e+06
298820
99252.3
88076.9
267456
1.602e+06
1.45707e+06
246966
84730.5
73712.7
225662
1.35892e+06
1.2203e+06
215499
70846.1
41965.2
105968
1.06183e+06
1.67598e+06
368458
129084
122771
433184
2.9111e+06
1.91599e+06
317285
102126
86522.9
262985
1.55716e+06
1.35362e+06
229114
75253.5
66379.8
202252
1.18749e+06
1.04973e+06
188809
61003
44474.5
68060.4
931797
1.50364e+06
369800
127602
118433
398665
2.6626e+06
1.79751e+06
299864
97050.3
81148.7
245095
1.4843e+06
1.30991e+06
231429
77689.5
51309.8
93885.6
1.1213e+06
1.73809e+06
425270
150865
132296
427290
2.99609e+06
1.94875e+06
316084
105860
87378.4
257720
1.53348e+06
1.29511e+06
216300
74752.1
63415
199477
1.10956e+06
955415
47322.3
50468.3
150711
425631
1.50722e+06
2.64895e+06
380009
124875
98406.9
290412
1.77493e+06
1.38867e+06
253944
86470.3
63809.1
66370.6
1.12548e+06
1.72187e+06
506550
182703
140451
410733
2.87623e+06
1.7662e+06
292420
108857
84948
263506
1.30933e+06
1.0549e+06
71449.4
64387.3
190300
503985
1.61974e+06
2.62861e+06
395684
143643
111865
331923
1.6212e+06
1.21647e+06
94585.2
82726.8
234005
605230
1.8883e+06
2.94281e+06
452415
170428
123967
368078
1.67622e+06
1.20957e+06
85642.4
89386.2
252369
623211
1.79022e+06
2.63588e+06
501144
179636
125947
113835
1.5429e+06
2.12746e+06
773793
327441
222402
589015
2.91013e+06
1.64974e+06
127021
148265
362618
839625
2.19776e+06
2.86791e+06
627221
241127
154578
139663
1.55207e+06
1.94438e+06
776610
356554
192790
275343
2.2906e+06
2.47419e+06
939510
432298
209777
433536
2.09845e+06
1.85849e+06
534711
237993
279350
742812
2.68077e+06
3.44351e+06
892468
316524
309996
912244
3.68369e+06
3.15308e+06
857629
284318
183460
326152
2.27583e+06
2.70641e+06
1.4236e+06
656426
387426
641179
2.90286e+06
2.98603e+06
1.46445e+06
789276
484835
698213
2.8259e+06
2.84762e+06
1.441e+06
785292
503708
706936
2.58365e+06
2.53981e+06
1.23486e+06
710406
474834
619955
2.3039e+06
2.19106e+06
1.12595e+06
641841
416768
582751
1.76732e+06
1.52009e+06
633284
418372
657217
1.23945e+06
2.74696e+06
2.15089e+06
589274
409899
401052
605897
1.75753e+06
3.21898e+06
1.37763e+06
669071
414829
497986
2.56153e+06
2.28446e+06
1.05224e+06
565261
342152
496141
1.78718e+06
1.44564e+06
523057
338742
539200
1.0577e+06
2.49899e+06
1.83802e+06
476830
327305
320963
495941
1.48239e+06
2.68056e+06
1.08362e+06
524649
312401
474626
1.92424e+06
1.46327e+06
487254
305185
500161
1.015e+06
2.53888e+06
1.85474e+06
439987
292689
287512
463679
1.45969e+06
2.54926e+06
995395
480204
278882
427127
1.81171e+06
1.41715e+06
449176
273937
459722
957444
2.50622e+06
1.76118e+06
404501
261841
258460
428207
1.37501e+06
2.40635e+06
912364
436042
247373
377105
1.62577e+06
1.17125e+06
409610
243602
256094
490685
1.7113e+06
3.08689e+06
1.093e+06
484234
257825
433921
2.15046e+06
1.57795e+06
440500
251634
445256
974522
2.74892e+06
2.01777e+06
400211
242540
239915
424452
1.54275e+06
2.70863e+06
941344
431037
234173
381370
1.93525e+06
1.49416e+06
412001
233959
423664
939275
2.73827e+06
1.94124e+06
382239
228245
225429
398320
1.46709e+06
2.6089e+06
912183
411880
222778
369075
1.86329e+06
1.43004e+06
392510
221688
406910
907550
2.57506e+06
1.86236e+06
362909
217855
216902
383849
1.42926e+06
2.57331e+06
896938
403722
215534
359091
1.81925e+06
1.39303e+06
386853
215345
392129
866668
2.48886e+06
1.77049e+06
345959
209955
208527
379735
1.38724e+06
2.5022e+06
856516
390273
209015
344518
1.77133e+06
1.39272e+06
379183
209865
389161
869804
2.48782e+06
1.78482e+06
345586
207248
206513
369702
1.392e+06
2.47206e+06
851208
385256
205426
341513
1.74948e+06
1.35615e+06
372013
205935
385530
853310
2.41852e+06
1.75259e+06
340299
204775
206084
371472
1.35656e+06
2.42102e+06
850046
382654
203324
339591
1.74679e+06
1.37897e+06
371497
204693
391041
879120
2.53385e+06
1.81433e+06
351303
204966
204994
370268
1.38178e+06
2.47582e+06
877742
392226
207278
350265
1.81354e+06
1.41312e+06
388726
209244
396552
886052
2.5784e+06
1.85143e+06
351404
208033
207995
377335
1.42974e+06
2.5452e+06
892908
395901
209610
355527
1.87157e+06
1.47979e+06
393509
209887
412584
926841
2.70405e+06
1.8988e+06
364054
216127
218029
413699
1.48928e+06
2.86491e+06
1.00757e+06
437455
239764
307883
2.36228e+06
2.10873e+06
795246
372438
197950
324540
1.58439e+06
1.31134e+06
375057
202695
388790
859700
2.45224e+06
1.76873e+06
346683
208290
210539
390840
1.42626e+06
2.64258e+06
923781
407443
215656
371466
1.87565e+06
1.46063e+06
405300
215870
419248
937290
2.69262e+06
1.96203e+06
377448
220881
221307
411079
1.54509e+06
2.96058e+06
1.0547e+06
454666
247959
323218
2.36999e+06
2.04149e+06
800435
382708
203280
332561
1.56323e+06
1.28302e+06
375961
208675
398071
880646
2.34721e+06
1.78767e+06
359938
213858
214994
394766
1.44455e+06
2.67565e+06
951144
426840
226103
376981
1.94404e+06
1.5664e+06
429891
230106
470367
1.07573e+06
3.00037e+06
2.39406e+06
323432
257791
406065
853164
2.14654e+06
1.63537e+06
349597
216855
223317
407921
1.36242e+06
2.64373e+06
967393
437556
235600
392131
1.92358e+06
1.54492e+06
442554
238736
487530
1.0952e+06
3.01719e+06
2.43879e+06
337202
267997
414742
860899
2.16253e+06
1.6547e+06
360664
222052
227392
408759
1.37307e+06
2.60962e+06
970487
442557
238869
398196
1.95692e+06
1.56203e+06
444548
242764
500101
1.12763e+06
2.97611e+06
2.41196e+06
344895
275477
428090
881215
2.15042e+06
1.72687e+06
369120
231465
238083
424260
1.45211e+06
2.88196e+06
1.09324e+06
485167
275459
331857
2.32413e+06
2.06858e+06
875611
426987
230730
371280
1.66283e+06
1.39939e+06
425915
239653
480315
1.06437e+06
2.73725e+06
2.27198e+06
332074
275082
420641
855449
2.0402e+06
1.54847e+06
366747
230431
238250
424839
1.30241e+06
2.55027e+06
982119
455907
250656
411069
1.96737e+06
1.59557e+06
464628
253909
520967
1.16916e+06
3.04343e+06
2.4862e+06
361264
291858
449168
929890
2.23314e+06
1.7462e+06
393562
244874
251676
447974
1.47405e+06
2.88879e+06
1.12276e+06
506600
291200
352938
2.39656e+06
2.15425e+06
911396
449532
247455
393993
1.70363e+06
1.46119e+06
457751
256799
509659
1.14958e+06
2.9418e+06
2.48831e+06
360896
292262
453191
926101
2.23609e+06
1.76153e+06
401664
250369
257921
455969
1.49108e+06
2.92043e+06
1.14008e+06
521477
305222
355853
2.4043e+06
2.19801e+06
920236
467112
257033
411666
1.76641e+06
1.5187e+06
479874
266526
534150
1.16558e+06
2.99594e+06
2.46697e+06
371127
308973
471926
947227
2.24504e+06
1.7626e+06
410251
260753
269716
468965
1.48864e+06
2.93392e+06
1.18184e+06
541391
320418
367529
2.50105e+06
2.35284e+06
978524
497430
285917
363430
2.04361e+06
1.93434e+06
870757
441390
251897
400079
1.57951e+06
1.38712e+06
475659
264293
527221
1.13634e+06
2.8055e+06
2.31805e+06
359658
315161
477199
926253
2.13297e+06
1.70575e+06
418861
264905
276181
485547
1.45496e+06
2.86158e+06
1.16052e+06
540423
323329
373994
2.4773e+06
2.32808e+06
965258
495153
289797
376422
2.02969e+06
1.91591e+06
858126
443793
256506
409975
1.63251e+06
1.44746e+06
479107
268285
534016
1.14408e+06
2.81086e+06
2.39249e+06
376767
315009
476321
938678
2.22017e+06
1.74791e+06
421736
268547
277662
493261
1.52615e+06
3.02242e+06
1.20907e+06
553194
333927
379348
2.49657e+06
2.37902e+06
1.00686e+06
513388
299048
379916
2.10341e+06
1.99058e+06
887268
458556
264983
418657
1.62377e+06
1.43652e+06
494500
278686
549968
1.18222e+06
2.86873e+06
2.39398e+06
382870
325729
496230
978010
2.2328e+06
1.79887e+06
444012
281053
291464
522196
1.5607e+06
3.06221e+06
1.24161e+06
579473
348611
394913
2.56998e+06
2.48682e+06
1.04643e+06
535442
314442
409788
2.14715e+06
2.03469e+06
939922
480394
278482
451453
1.74037e+06
1.53407e+06
525016
293144
593099
1.27698e+06
3.08195e+06
2.67318e+06
419049
348335
527480
1.03108e+06
2.47256e+06
2.18663e+06
401016
315185
481005
936168
2.11555e+06
1.74416e+06
448984
282130
294152
516796
1.53323e+06
3.02421e+06
1.2501e+06
590714
357457
408310
2.64274e+06
2.50922e+06
1.03806e+06
539931
320302
410875
2.20474e+06
2.17199e+06
961350
495421
303433
393285
1.98264e+06
1.93651e+06
888063
462963
274333
433906
1.61051e+06
1.43721e+06
512770
291210
575406
1.21644e+06
2.89903e+06
2.51173e+06
396968
356392
537060
1.03301e+06
2.42745e+06
2.15081e+06
417009
319731
485814
929522
2.03193e+06
1.68448e+06
448858
285493
300587
525221
1.50002e+06
3.06316e+06
1.29078e+06
600024
358290
426813
2.59293e+06
2.41199e+06
1.0391e+06
545043
325413
417869
2.16289e+06
2.07246e+06
935955
495201
293070
456035
1.69048e+06
1.50574e+06
538041
309248
618231
1.3196e+06
3.07013e+06
2.70622e+06
427898
377847
573635
1.10029e+06
2.57823e+06
2.29827e+06
436894
344285
527831
1.01124e+06
2.26984e+06
2.06095e+06
422457
325940
490016
929520
1.99219e+06
1.64668e+06
457817
293112
307591
538411
1.4822e+06
2.95315e+06
1.26401e+06
607650
376789
419678
2.5398e+06
2.46968e+06
1.05302e+06
566173
339717
436527
2.20185e+06
2.1719e+06
985123
520933
322389
418932
2.01808e+06
1.97446e+06
924441
485735
289790
455264
1.63612e+06
1.4934e+06
546275
309714
619543
1.30265e+06
3.08129e+06
2.58459e+06
438184
376939
566431
1.05573e+06
2.44017e+06
2.149e+06
429885
343284
520503
988334
2.12367e+06
1.78059e+06
486897
307914
324622
569030
1.57386e+06
3.18182e+06
1.36297e+06
643245
391095
452044
2.70437e+06
2.58753e+06
1.1199e+06
593524
357974
465637
2.3417e+06
2.31017e+06
1.04668e+06
549008
343229
444642
2.13206e+06
2.14792e+06
987474
524219
330355
428258
1.96637e+06
1.93883e+06
924136
495068
299531
467056
1.64875e+06
1.51329e+06
554947
319914
640779
1.33993e+06
3.08999e+06
2.65691e+06
449486
394195
590262
1.09546e+06
2.52215e+06
2.24625e+06
459030
360132
544794
1.03195e+06
2.24381e+06
2.04946e+06
444294
343204
514830
962513
2.0093e+06
1.71803e+06
485828
309923
327755
563016
1.53998e+06
3.02071e+06
1.34117e+06
645338
404320
446308
2.63985e+06
2.57015e+06
1.11596e+06
605419
365549
473179
2.29117e+06
2.23825e+06
1.02716e+06
553574
346240
442478
2.06405e+06
2.05658e+06
971713
521762
315778
491749
1.71798e+06
1.56322e+06
581820
336604
667308
1.37944e+06
3.14867e+06
2.71503e+06
468721
414038
617044
1.14015e+06
2.62378e+06
2.37347e+06
480852
377960
578061
1.09252e+06
2.39446e+06
2.22228e+06
472019
366000
555603
1.04591e+06
2.24176e+06
2.08612e+06
457463
353567
529480
980605
2.05662e+06
1.71306e+06
499038
321188
339220
581999
1.54411e+06
3.07019e+06
1.36397e+06
663229
407781
474024
2.68015e+06
2.5883e+06
1.12136e+06
609499
374071
473486
2.30393e+06
2.30877e+06
1.06384e+06
570029
360138
464351
2.14234e+06
2.14169e+06
1.01837e+06
547000
329710
523024
1.83832e+06
1.64872e+06
613143
352159
702136
1.46197e+06
3.288e+06
2.87938e+06
489918
437467
652021
1.21157e+06
2.77577e+06
2.46392e+06
515897
399399
603427
1.12639e+06
2.43794e+06
2.25132e+06
488985
382949
577837
1.07816e+06
2.30103e+06
2.14361e+06
476560
369391
551904
1.0217e+06
2.12008e+06
1.78819e+06
522702
336735
356306
608806
1.62648e+06
3.24753e+06
1.44732e+06
699209
432003
495588
2.78661e+06
2.66683e+06
1.18388e+06
644535
395140
504710
2.40281e+06
2.41729e+06
1.11209e+06
599284
380677
490196
2.23961e+06
2.29236e+06
1.07633e+06
579232
371000
480693
2.10834e+06
2.09453e+06
1.01614e+06
557091
340994
532528
1.82397e+06
1.67881e+06
629690
362840
720208
1.49037e+06
3.38675e+06
2.90166e+06
509411
447615
665056
1.23517e+06
2.79905e+06
2.48386e+06
522779
411388
624931
1.16214e+06
2.49391e+06
2.30799e+06
510147
397681
598905
1.10923e+06
2.33641e+06
2.16947e+06
493490
383552
569922
1.03963e+06
2.15208e+06
1.81689e+06
540122
348697
368208
626980
1.65545e+06
3.25457e+06
1.45551e+06
715060
446257
505854
2.79282e+06
2.74551e+06
1.21404e+06
665567
410436
525258
2.47287e+06
2.46628e+06
1.15712e+06
621155
395794
511214
2.27489e+06
2.33031e+06
1.09952e+06
599385
387091
498530
2.17474e+06
2.21283e+06
1.05707e+06
580043
376089
481471
2.02776e+06
2.03493e+06
1.00573e+06
559651
344999
533380
1.75628e+06
1.60433e+06
626229
368976
717726
1.45224e+06
3.17644e+06
2.77511e+06
514756
452126
669009
1.19202e+06
2.70967e+06
2.44693e+06
521563
416704
628508
1.16645e+06
2.49334e+06
2.26864e+06
521870
404590
607560
1.1153e+06
2.29821e+06
2.13229e+06
506425
392955
582725
1.05305e+06
2.11819e+06
1.79217e+06
552441
358713
378540
637519
1.62806e+06
3.19477e+06
1.45076e+06
726377
458734
518849
2.78297e+06
2.74306e+06
1.23241e+06
681705
422025
532851
2.47367e+06
2.49612e+06
1.17205e+06
637292
408377
528159
2.26903e+06
2.29912e+06
1.12028e+06
612147
395923
511752
2.10264e+06
2.08992e+06
1.05194e+06
585352
361769
556572
1.80362e+06
1.65003e+06
651490
386584
745288
1.48927e+06
3.25638e+06
2.84654e+06
533461
468559
697073
1.26268e+06
2.81625e+06
2.49715e+06
555098
436283
655828
1.20565e+06
2.51285e+06
2.36155e+06
547126
423837
633374
1.15441e+06
2.39952e+06
2.22071e+06
527339
411545
607689
1.09125e+06
2.21292e+06
1.84029e+06
574618
376516
396611
662962
1.67222e+06
3.26926e+06
1.50537e+06
756475
476166
543006
2.84836e+06
2.81841e+06
1.27285e+06
707881
440183
555331
2.53559e+06
2.56028e+06
1.21673e+06
665205
427428
553654
2.35701e+06
2.3811e+06
1.14576e+06
638076
416058
528844
2.20735e+06
2.28319e+06
1.10819e+06
618351
405781
521261
2.1243e+06
2.13441e+06
1.05759e+06
598810
373884
571210
1.82191e+06
1.69759e+06
672746
397442
763594
1.53412e+06
3.34735e+06
2.86153e+06
557608
481692
708776
1.26803e+06
2.80208e+06
2.51257e+06
564133
447020
663634
1.20614e+06
2.54367e+06
2.29942e+06
551393
431890
644939
1.15737e+06
2.36229e+06
2.18574e+06
540419
420503
617783
1.09672e+06
2.18034e+06
1.83852e+06
585285
383954
405468
673247
1.67698e+06
3.26272e+06
1.52368e+06
770971
485583
559197
2.83962e+06
2.81797e+06
1.28577e+06
719165
449791
570369
2.48937e+06
2.49297e+06
1.20686e+06
670821
434606
552469
2.32366e+06
2.40156e+06
1.16726e+06
650213
424677
546197
2.19552e+06
2.20413e+06
1.11263e+06
628624
390706
598103
1.88465e+06
1.72431e+06
694756
415470
791832
1.56707e+06
3.3358e+06
2.95175e+06
584276
495773
730160
1.3065e+06
2.90387e+06
2.52246e+06
576927
464206
691984
1.24906e+06
2.57451e+06
2.39363e+06
576397
450780
670512
1.19892e+06
2.44442e+06
2.21831e+06
559415
437386
638020
1.12607e+06
2.21572e+06
1.86087e+06
604363
398312
421366
701156
1.71779e+06
3.40418e+06
1.58572e+06
803224
502841
586583
2.90159e+06
2.82195e+06
1.29512e+06
734327
462832
582509
2.48863e+06
2.52512e+06
1.22585e+06
687012
447201
574423
2.3214e+06
2.37693e+06
1.17422e+06
662210
435044
558854
2.19946e+06
2.21253e+06
1.10882e+06
636531
399163
607623
1.88667e+06
1.74917e+06
704215
424445
817673
1.61832e+06
3.40981e+06
2.95595e+06
608696
511147
751091
1.32551e+06
2.87256e+06
2.53127e+06
595703
477165
706074
1.25137e+06
2.56298e+06
2.3335e+06
581147
458610
671876
1.18805e+06
2.35113e+06
1.97501e+06
637429
417313
440247
728445
1.80108e+06
3.49236e+06
1.63043e+06
834909
525224
608816
3.03275e+06
2.95518e+06
1.34785e+06
768595
484372
600210
2.59111e+06
2.66076e+06
1.2885e+06
722499
469405
598644
2.42981e+06
2.4873e+06
1.23362e+06
696932
456481
584583
2.25032e+06
2.25729e+06
1.16377e+06
665983
416798
630367
1.91178e+06
1.75994e+06
727953
443373
840693
1.64186e+06
3.44006e+06
2.98918e+06
613691
530606
782344
1.36901e+06
2.95799e+06
2.60439e+06
627042
496274
732060
1.29845e+06
2.61283e+06
2.37615e+06
610903
476906
691953
1.20632e+06
2.37386e+06
1.98701e+06
653127
434312
457471
747758
1.83096e+06
3.52614e+06
1.67512e+06
858699
539465
630198
3.00228e+06
2.96213e+06
1.39315e+06
791681
500493
631560
2.64658e+06
2.66829e+06
1.29975e+06
737667
481678
613777
2.43488e+06
2.521e+06
1.25077e+06
710868
468722
603952
2.28803e+06
2.28651e+06
1.17937e+06
680022
428406
644901
1.94014e+06
1.81569e+06
750891
454567
853221
1.65306e+06
3.50256e+06
2.97705e+06
632259
539800