/*--------------------------------*- C++ -*----------------------------------*\
| =========                 |                                                 |
| \\      /  F ield         | OpenFOAM: The Open Source CFD Toolbox           |
|  \\    /   O peration     | Version:  v2006                                 |
|   \\  /    A nd           | Website:  www.openfoam.com                      |
|    \\/     M anipulation  |                                                 |
\*---------------------------------------------------------------------------*/
FoamFile
{
    version     2.0;
    format      ascii;
    class       volScalarField;
    location    "0.026";
    object      isentropic(p);
}
// * * * * * * * * * * * * * * * * * * * * * * * * * * * * * * * * * * * * * //

dimensions      [1 -1 -2 0 0 0 0];


internalField   nonuniform List<scalar> 
9148
(
150025
150027
150025
150028
150027
150030
150033
150034
150033
150031
150030
150029
150028
150027
150027
150026
150026
150025
150025
150024
150024
150023
150023
150022
150022
150021
150021
150020
150020
150019
150019
150018
150018
150017
150017
150017
150016
150016
150015
150015
150014
150014
150013
150013
150013
150012
150012
150011
150011
150011
150010
150010
150009
150009
150009
150008
150007
150006
150004
150002
150003
150005
150009
150012
150010
150011
150013
150015
150023
150033
150029
149961
149893
150019
150039
150036
150005
149834
149775
149988
150029
150020
149971
149723
149676
149951
150010
150000
149934
149635
149597
149915
149991
149981
149899
149564
149534
149884
149972
149963
149869
149506
149482
149854
149954
149945
149840
149459
149438
149827
149937
149928
149814
149419
149401
149801
149921
149912
149789
149384
149369
149778
149905
149897
149767
149355
149342
149757
149890
149882
149746
149330
149318
149737
149875
149868
149727
149308
149298
149718
149862
149855
149710
149289
149281
149701
149849
149843
149693
149273
149266
149686
149837
149831
149678
149259
149253
149671
149825
149819
149664
149248
149243
149658
149814
149809
149651
149238
149234
149645
149804
149798
149639
149230
149228
149634
149794
149789
149628
149225
149223
149623
149784
149779
149618
149221
149220
149613
149775
149770
149609
149218
149218
149604
149767
149762
149600
149217
149218
149596
149758
149753
149592
149218
149219
149588
149750
149745
149584
149220
149222
149581
149742
149737
149578
149224
149227
149575
149734
149730
149572
149229
149233
149569
149727
149723
149567
149236
149241
149565
149720
149716
149562
149245
149250
149560
149713
149709
149558
149255
149261
149556
149706
149702
149554
149266
149273
149552
149699
149695
149550
149279
149287
149549
149691
149687
149547
149294
149302
149546
149684
149680
149545
149311
149320
149543
149676
149671
149542
149329
149339
149540
149667
149661
149538
149349
149360
149536
149656
149649
149533
149371
149383
149530
149642
149632
149525
149395
149409
149520
149621
149606
149512
149422
149448
149508
149590
149552
149475
149453
149468
149451
149506
149463
149462
149482
149493
149473
149450
149462
149494
149510
149531
149520
149489
149524
149544
149547
149548
149557
149554
149550
149543
149530
149534
149548
149559
149549
149536
149521
149527
149544
149557
149552
149540
149519
149525
149548
149560
149559
149548
149523
149529
149555
149566
149568
149557
149531
149535
149560
149571
149571
149559
149535
149535
149560
149573
149574
149560
149534
149535
149562
149576
149579
149564
149536
149537
149567
149581
149584
149570
149539
149540
149573
149586
149588
149575
149540
149540
149576
149588
149588
149577
149540
149539
149577
149587
149585
149576
149539
149537
149575
149583
149581
149574
149536
149535
149572
149578
149575
149570
149535
149535
149569
149573
149571
149568
149536
149538
149568
149570
149571
149569
149541
149546
149571
149573
149575
149574
149552
149559
149579
149579
149585
149584
149567
149576
149590
149590
149597
149597
149585
149594
149603
149603
149609
149609
149603
149610
149614
149614
149619
149619
149617
149620
149622
149621
149622
149623
149622
149622
149622
149621
149620
149617
149614
149611
149607
149602
149598
149594
149591
149588
149586
149586
149588
149593
149599
149605
149610
149615
149618
149619
149617
149617
149619
149616
149618
149618
149618
149620
149616
149616
149600
149611
149635
149612
149614
149617
149614
149614
149611
149610
149614
149614
149610
149611
149606
149607
149610
149611
149606
149607
149602
149606
149602
149604
149594
149598
149595
149590
149593
149588
149582
149582
149583
149578
149580
149577
149573
149576
149573
149569
149569
149580
149586
149559
149558
149550
149567
149582
149596
149553
149542
149533
149569
149590
149603
149557
149529
149521
149572
149598
149609
149563
149519
149515
149578
149607
149609
149585
149514
149518
149580
149620
149618
149594
149515
149522
149592
149628
149627
149607
149522
149531
149606
149638
149645
149610
149538
149542
149629
149646
149657
149628
149557
149571
149646
149664
149674
149661
149589
149610
149676
149686
149697
149689
149630
149651
149702
149707
149719
149715
149673
149692
149727
149729
149739
149739
149711
149729
149751
149748
149759
149763
149746
149756
149771
149767
149805
149788
149735
149785
149799
149793
149798
149806
149805
149817
149814
149805
149810
149820
149824
149830
149823
149811
149832
149841
149837
149848
149838
149822
149846
149866
149889
149856
149854
149850
149899
149890
149970
150022
149960
149855
149985
149980
150009
149864
149804
149895
149401
149534
149908
149309
149632
149560
148476
148856
147448
145592
147169
147628
147463
147033
145703
146176
147288
147737
147458
146984
146078
145914
146641
147047
147521
147160
146439
146364
146917
147256
147694
147371
146783
146703
147144
147456
147841
147562
147041
147034
147492
147730
147514
147314
146886
147273
147632
147909
147708
147495
147197
147444
147808
148005
147938
147734
147409
147399
147606
147801
148036
147966
147498
147393
147820
147962
148170
148022
147650
147598
147900
148034
148249
148110
147810
147783
148061
148187
148063
147967
147663
147900
148084
148297
148173
147970
147862
147981
148203
148331
148246
148091
147897
148043
148301
148402
148306
148181
147944
148101
148368
148470
148380
148264
148029
148170
148431
148534
148493
148389
148148
148046
148287
148377
148549
148523
148112
147991
148405
148496
148638
148571
148194
148074
148451
148511
148672
148577
148272
148214
148471
148569
148705
148615
148349
148248
148491
148603
148746
148664
148400
148313
148553
148659
148779
148692
148421
148332
148577
148685
148821
148742
148479
148385
148626
148732
148848
148765
148492
148396
148647
148755
148885
148808
148537
148440
148689
148796
148910
148827
148546
148444
148704
148814
148943
148868
148586
148483
148744
148853
148963
148878
148594
148478
148750
148860
148978
148960
148569
148452
148809
148914
149019
149009
148539
148380
148827
148898
149030
148917
148511
148672
149021
149106
148987
148868
148577
148693
149001
149090
148987
148870
148592
148731
149034
149115
149023
148908
148629
148743
149055
149138
149033
148913
148618
148732
149063
149149
149052
148934
148629
148741
149107
149172
149075
148952
148609
148672
149141
149187
149064
148954
148493
148574
149083
149195
149300
149198
148773
148622
149007
149137
149261
149162
148805
148683
149014
149140
149277
149188
148832
148711
149039
149170
149291
149202
148852
148695
149031
149168
149285
149183
148828
148699
149028
149169
149256
149153
148769
148875
149291
149360
149226
149083
148722
148856
149248
149336
149224
149081
148716
148858
149256
149347
149237
149096
148724
148851
149261
149353
149223
149075
148688
148845
149249
149346
149207
149053
148658
148753
149187
149303
149418
149351
148865
148683
149104
149270
149401
149310
148854
148685
149106
149272
149405
149309
148845
148676
149104
149270
149396
149297
148849
148635
149076
149243
149352
149233
148724
148867
149378
149471
149297
149139
148674
148846
149324
149420
149273
149110
148644
148830
149315
149412
149266
149095
148618
148802
149303
149402
149254
149080
148591
148787
149301
149392
149211
149030
148511
148607
149199
149330
149472
149371
148779
148557
149097
149280
149413
149309
148763
148538
149067
149254
149392
149286
148732
148468
149019
149214
149371
149260
148682
148446
149012
149208
149359
149252
148642
148357
148954
149163
149282
149129
148463
148633
149330
149425
149199
148988
148357
148577
149230
149350
149182
148964
148344
148573
149229
149344
149175
148954
148323
148474
149165
149290
149068
148827
148146
148422
149144
149273
149075
148827
148118
148240
149024
149203
149395
149307
148534
148154
148877
149125
149267
149136
148390
148099
148812
149061
149255
149124
148374
148106
148822
149073
149236
149127
148400
148028
148755
149016
149151
149007
148208
147860
148646
148919
149137
149002
148176
147851
148667
148943
149135
149021
148200
147797
148623
148909
149022
148869
147961
147538
148444
148751
149000
148852
147905
147540
148481
148792
148995
148887
147951
147439
148397
148724
148838
148654
147572
147083
148144
148509
148747
148506
147351
147780
148912
149032
148739
148406
147345
147643
148663
148791
148440
148069
146989
147498
148519
148681
148714
148384
147318
146714
147792
148223
148517
148443
147474
146386
147596
148052
148315
148114
146873
146371
147632
148051
148365
148255
147018
146550
147803
148205
148114
147869
146439
145697
147145
147638
147995
147802
146409
146007
147411
147861
147980
148005
146931
145381
146860
147411
147513
147318
145961
145771
147235
147700
147219
146756
145268
145248
146829
147048
146466
145816
143948
145029
146693
146831
146959
146459
144798
144722
146419
146514
146512
145889
143822
143081
145075
145770
145672
145766
144489
142579
144942
145635
144739
143992
141632
143179
144590
144508
144595
143864
140921
141377
144022
144427
141920
140531
136561
139502
141622
142080
141503
140331
136232
133924
139116
140374
138834
137305
130647
127925
135206
136792
136959
135383
128124
128532
135689
137704
137962
135605
128493
128269
135178
137837
137713
134832
128084
127954
134440
137503
137380
134175
127900
127853
133842
137137
136981
133616
127855
127853
133329
136716
136562
133158
127896
127926
132928
136301
136161
132810
127998
128053
132632
135923
135808
132561
128146
128220
132427
135591
135498
132394
128329
128417
132298
135312
135245
132294
128538
128634
132224
135080
135033
132242
128760
128862
132195
134896
134873
132231
128993
129097
132204
134756
134751
132248
129238
129342
132238
134658
134671
132300
129487
129588
132302
134596
134635
132374
129731
129827
132387
134580
134644
132473
129969
130061
132496
134602
134685
132589
130198
130284
132618
134655
134755
132721
130417
130500
132758
134735
134843
132863
130627
130704
132903
134831
134951
133015
130828
130902
133060
134944
135067
133172
131020
131090
133217
135066
135195
133334
131206
131273
133383
135197
135326
133496
131384
131447
133544
135330
135462
133661
131555
131617
133710
135468
135596
133822
131720
131777
133869
135603
135732
133983
131879
131934
134031
135740
135864
134139
132030
132082
134184
135873
135996
134293
132176
132225
134337
136005
136123
134440
132315
132360
134482
136131
136248
134584
132447
132491
134625
136256
136368
134722
132573
132613
134760
136375
136485
134856
132693
132730
134893
136492
136596
134983
132806
132841
135017
136603
136705
135106
132914
132946
135139
136710
136808
135223
133015
133045
135252
136812
136908
135335
133111
133139
135362
136911
137002
135440
133201
133226
135463
137004
137095
135541
133286
133309
135562
137096
137181
135635
133366
133386
135653
137180
137263
135725
133441
133460
135742
137261
137341
135808
133511
133527
135823
137338
137416
135888
133576
133590
135901
137412
137486
135963
133636
133649
135973
137481
137554
136034
133693
133704
136043
137548
137618
136100
133746
133755
136108
137611
137680
136164
133795
133803
136171
137672
137738
136224
133840
133847
136228
137730
137795
136281
133883
133889
136284
137785
137848
136334
133923
133927
136336
137837
137899
136385
133960
133963
136386
137887
137947
136433
133995
133997
136432
137935
137994
136479
134028
134029
136478
137981
138038
136522
134059
134059
136519
138024
138081
136564
134087
134087
136561
138066
138121
136603
134115
134113
136598
138105
138160
136640
134140
134138
136635
138143
138196
136675
134164
134161
136668
138180
138232
136709
134187
134184
136702
138214
138265
136741
134208
134204
136732
138247
138298
136772
134229
134224
136763
138279
138328
136800
134248
134243
136791
138309
138358
136828
134266
134260
136818
138338
138386
136854
134283
134277
136843
138366
138413
136880
134299
134293
136869
138393
138439
136903
134314
134307
136891
138418
138464
136927
134329
134322
136914
138442
138488
136948
134342
134335
136935
138466
138511
136969
134355
134347
136956
138488
138532
136988
134367
134359
136974
138510
138554
137008
134379
134371
136994
138530
138573
137025
134390
134381
137011
138550
138593
137043
134400
134391
137028
138569
138611
137059
134410
134401
137044
138588
138630
137076
134420
134410
137060
138605
138646
137090
134429
134419
137074
138622
138663
137106
134437
134427
137089
138638
138679
137119
134445
134435
137102
138654
138694
137133
134452
134442
137116
138668
138708
137145
134460
134449
137127
138683
138723
137158
134466
134456
137140
138697
138736
137169
134473
134462
137151
138710
138749
137180
134479
134468
137162
138723
138761
137190
134484
134473
137172
138735
138774
137201
134490
134478
137183
138747
138785
137211
134495
134483
137192
138758
138797
137221
134500
134488
137202
138769
138807
137229
134504
134492
137210
138780
138818
137239
134508
134496
137219
138790
138828
137246
134512
134500
137227
138800
138838
137255
134516
134503
137235
138810
138847
137262
134519
134506
137242
138819
138856
137270
134522
134509
137250
138827
138864
137276
134525
134511
137255
138836
138873
137283
134527
134514
137262
138844
138880
137290
134529
134515
137268
138851
138889
137294
134533
134519
137274
138861
138899
137301
134533
134519
137281
138870
138915
137312
134538
134524
137296
138890
138951
137337
134552
134539
137331
138936
139013
137383
134578
134586
137399
139036
139236
137529
134689
134873
137759
139528
139708
137935
135022
141746
143152
143613
143807
144758
145396
145692
145945
146836
147431
148044
148529
148903
149195
149406
149555
149657
149729
149779
149816
149843
149864
149879
149891
149900
149907
149912
149915
149916
149918
149918
149919
149928
149933
149937
149944
149951
149960
149971
149985
150000
150017
150035
150053
150068
150078
150080
150076
150071
150067
150063
150059
150056
150052
150049
150045
150041
150037
150034
150030
150027
150024
150021
150018
150016
150015
150014
150014
150014
150015
150017
150020
150023
150027
150031
150036
150042
150047
150053
150059
150064
150069
150073
150077
150080
150081
150082
150082
150081
150079
150076
150073
150068
150064
150059
150053
150047
150042
150036
150030
150024
150018
150013
150008
150003
149998
149993
149989
149985
149982
149978
149975
149973
149970
149968
149966
149964
149963
149961
149960
149960
149959
149958
149958
149958
149958
149958
149958
149958
149959
149959
149960
149961
149962
149963
149964
149965
149966
149967
149969
149970
149972
149974
149976
149978
149980
149982
149985
149987
149990
149992
149995
149998
150004
150014
150022
150026
150026
150034
150053
150063
150064
150061
150057
150053
150049
150046
150044
150042
150040
150038
150036
150034
150033
150032
150031
150029
150028
150027
150026
150026
150025
150024
150023
150022
150021
150021
150020
150019
150018
150018
150017
150016
150015
150014
150014
150013
150012
150011
150011
150010
150009
150008
150007
150006
150005
150004
150003
150002
150000
149998
149995
149993
149993
149997
150004
150011
150022
150033
150036
150034
150030
150026
150022
150018
150013
150009
150005
150001
149997
149994
149990
149986
149982
149978
149975
149971
149967
149964
149961
149957
149954
149950
149947
149944
149941
149937
149934
149931
149928
149925
149922
149919
149916
149913
149910
149907
149904
149901
149898
149895
149892
149889
149886
149883
149880
149877
149874
149871
149868
149865
149862
149858
149855
149851
149848
149844
149840
149837
149833
149828
149824
149819
149813
149807
149801
149793
149784
149774
149762
149747
149718
149678
149625
149571
149531
149521
149533
149548
149542
149561
149552
149565
149555
149565
149559
149568
149568
149574
149575
149578
149579
149582
149583
149586
149587
149588
149589
149589
149587
149586
149583
149581
149578
149575
149571
149569
149566
149566
149566
149568
149571
149575
149581
149587
149594
149600
149607
149612
149617
149620
149621
149619
149616
149614
149618
149614
149608
149603
149608
149603
149595
149590
149604
149609
149612
149608
149604
149597
149591
149598
149603
149597
149592
149583
149576
149558
149574
149588
149595
149588
149577
149571
149581
149573
149561
149556
149543
149557
149567
149562
149549
149548
149559
149556
149542
149535
149532
149544
149556
149555
149541
149545
149558
149559
149545
149534
149538
149550
149563
149566
149551
149556
149569
149571
149556
149541
149544
149561
149574
149576
149561
149565
149578
149578
149564
149547
149551
149568
149579
149578
149565
149569
149578
149576
149565
149553
149547
149569
149574
149572
149561
149567
149572
149567
149547
149549
149551
149557
149568
149559
149513
149531
149558
149545
149484
149559
149624
149538
149552
149536
149495
149568
149545
149539
149539
149725
149822
149626
149555
149541
149628
149706
149584
149606
149720
149896
149949
149778
149645
149682
149802
149852
149731
149773
149877
149985
150005
149914
149813
149839
149924
149948
149860
149869
149944
150011
150011
149961
149879
149884
149954
149968
149891
149896
149961
150011
150012
149973
149901
149905
149966
149977
149909
149912
149970
150013
150015
149981
149916
149919
149974
149984
149922
149924
149978
150017
150019
149987
149927
149930
149981
149990
149933
149935
149984
150020
150022
149993
149937
149940
149987
149996
149942
149944
149990
150024
150025
149997
149946
149948
149992
149999
149950
149952
149993
150026
150026
150000
149954
149956
149995
150002
149958
149959
149997
150027
150028
150003
149962
149963
149999
150005
149966
149967
150001
150029
150029
150007
149969
149970
150003
150008
149973
149974
150004
150030
150030
150009
149976
149977
150006
150011
149980
149981
150007
150030
150030
150012
149983
149984
150009
150013
149986
149987
150010
150030
150030
150014
149990
149991
150012
150015
149993
149994
150013
150030
150030
150016
149996
149997
150015
150018
150000
150001
150016
150030
150030
150019
150003
150005
150018
150020
150007
150008
150019
150029
150029
150022
150011
150012
150021
150023
150014
150016
150023
150029
150029
150025
150018
150020
150025
150027
150023
150025
150027
150029
150029
150029
150027
150029
150030
150031
150031
150033
150032
150027
150018
150026
150030
150032
150034
150036
150037
150039
150041
150042
150044
150045
150046
150047
150048
150049
150049
150050
150050
150050
150050
150051
150051
150051
150051
150051
150050
150050
150049
150048
150048
150047
150048
150049
150050
150050
150044
150030
150005
149963
149900
149819
149727
149640
149575
149549
149528
149520
149516
149512
149510
149509
149510
149513
149520
149528
149540
149526
149542
149560
149576
149585
149593
149589
149581
149570
149566
149577
149586
149584
149576
149565
149551
149533
149533
149551
149564
149576
149583
149586
149580
149569
149574
149586
149591
149597
149594
149583
149562
149543
149524
149515
149517
149504
149514
149504
149496
149483
149492
149486
149500
149507
149491
149479
149474
149464
149473
149490
149485
149467
149465
149484
149486
149472
149486
149465
149461
149474
149472
149506
149508
149517
149531
149546
149567
149585
149593
149603
149604
149610
149611
149604
149618
149620
149615
149617
149622
149623
149612
149599
149624
149629
149630
149628
149625
149617
149616
149615
149618
149614
149616
149615
149612
149608
149612
149612
149610
149615
149623
149610
149605
149608
149608
149602
149605
149612
149628
149632
149633
149633
149620
149612
149583
149572
149564
149561
149592
149597
149593
149599
149599
149607
149627
149630
149631
149630
149630
149625
149624
149617
149616
149609
149595
149603
149596
149595
149602
149607
149613
149616
149620
149621
149631
149631
149630
149625
149624
149627
149630
149624
149625
149630
149630
149628
149630
149633
149631
149631
149624
149627
149630
149636
149602
149600
149562
149571
149514
149540
149490
149528
149595
149532
149494
149492
149509
149539
149612
149545
149607
149701
149795
149698
149605
149686
149785
149879
149951
149866
149767
149666
149589
149649
149598
149652
149641
149620
149617
149656
149644
149652
149650
149643
149643
149637
149638
149634
149634
149637
149634
149639
149643
149645
149649
149653
149658
149664
149674
149663
149666
149678
149692
149682
149701
149682
149667
149683
149699
149695
149711
149720
149730
149712
149717
149698
149712
149672
149697
149707
149739
149726
149748
149739
149735
149729
149750
149740
149754
149759
149775
149771
149782
149766
149771
149752
149766
149765
149784
149780
149793
149787
149790
149812
149802
149806
149810
149809
149800
149764
149753
149843
149940
150010
150067
150038
149928
149692
149842
149883
149768
149827
149834
149830
149854
149896
149854
149853
149997
150007
150003
149924
150021
149873
149957
150020
149923
149870
149903
150059
150090
150034
149958
149877
150147
149947
150012
150142
150107
150039
149883
150120
149944
150207
150074
150112
150047
149984
150015
150059
150151
150189
150162
150077
150166
149935
149887
149667
149381
148410
148461
149314
149449
148821
148151
147718
148190
147858
148218
147970
148262
148119
147978
148200
148088
148303
148223
148106
148305
148203
148380
148299
148454
148404
148334
148459
148403
148508
148442
148572
148507
148622
148573
148694
148664
148589
148704
148646
148753
148697
148789
148739
148831
148776
148863
148817
148900
148849
148929
148884
148963
148915
148990
148946
149021
148972
149044
149000
149073
149018
149091
149037
149108
149045
149118
149189
149267
149184
149261
149160
149234
149143
149222
149113
149189
149093
149175
149061
149141
149038
149124
149003
149087
148978
149068
148942
149030
148915
149008
148873
148963
148840
148930
148782
148847
149024
149177
149135
149255
149053
149110
149207
149307
149165
149256
149361
149174
149219
149303
149396
149264
149338
149439
149267
149308
149376
149463
149343
149402
149495
149339
149368
149282
149189
149131
149196
149147
149222
149178
149238
149187
149262
149213
149276
149217
149288
149217
149289
149364
149429
149367
149441
149345
149409
149338
149415
149307
149375
149296
149380
149276
149358
149503
149436
149528
149459
149541
149475
149564
149456
149366
149306
149370
149318
149380
149335
149386
149331
149389
149318
149393
149441
149380
149434
149384
149448
149399
149452
149392
149456
149374
149452
149517
149570
149532
149600
149516
149569
149519
149593
149504
149560
149521
149449
149514
149455
149518
149443
149503
149446
149511
149442
149498
149566
149638
149568
149669
149547
149581
149592
149669
149561
149584
149589
149695
149606
149685
149596
149718
149608
149521
149450
149509
149452
149508
149449
149497
149415
149493
149555
149602
149529
149467
149521
149461
149508
149449
149514
149448
149497
149401
149495
149529
149469
149512
149453
149497
149426
149488
149423
149472
149374
149459
149535
149580
149494
149406
149476
149411
149457
149387
149457
149338
149420
149318
149429
149439
149352
149408
149328
149387
149331
149377
149280
149335
149220
149312
149241
149288
149185
149255
149102
149208
149124
149196
149048
149123
148896
149065
149214
149256
149111
149021
149083
148852
149005
148997
148727
148871
148559
148765
148575
148739
148608
148654
148226
148531
148379
148469
147980
148305
148234
147778
148124
147382
147871
147547
147930
147382
146651
147369
146690
145835
146961
145980
145277
143720
145045
143297
142166
141152
139579
139465
140104
140478
140501
140540
140477
140528
140441
140470
140351
140379
140244
140279
140135
140180
140029
140083
139928
139992
139835
139910
139753
139840
139684
139779
139625
139728
139576
139680
139531
139638
139494
139600
139461
139570
139438
139544
139416
139528
139407
139515
139398
139510
139401
139509
139402
139515
139415
139523
139425
139538
139446
139554
139464
139576
139492
139599
139515
139626
139547
139653
139575
139685
139611
139715
139642
139749
139680
139782
139714
139819
139754
139853
139789
139892
139830
139927
139866
139965
139907
140002
139943
140040
139984
140076
140020
140113
140059
140149
140094
140185
140132
140219
140166
140254
140202
140287
140234
140320
140269
140351
140299
140382
140332
140412
140361
140442
140392
140470
140420
140498
140449
140524
140475
140551
140502
140576
140527
140601
140553
140624
140575
140648
140600
140670
140621
140692
140644
140713
140664
140734
140686
140753
140705
140773
140725
140791
140743
140810
140762
140827
140779
140845
140797
140861
140812
140877
140830
140892
140844
140908
140860
140922
140874
140937
140889
140950
140902
140964
140916
140976
140928
140989
140941
141001
140952
141013
140965
141025
140976
141036
140988
141047
140998
141058
141010
141068
141019
141078
141030
141088
141039
141097
141049
141106
141057
141116
141067
141124
141075
141136
141087
141146
141097
141165
141122
141203
141165
141265
141224
141412
141603
143105
143015
143580
142727
142789
143267
142565
142650
142989
142496
142585
142914
142444
142538
142797
142438
142533
142824
142417
142512
142766
142416
142512
142793
142401
142497
142751
142401
142497
142778
142388
142484
142739
142387
142484
142765
142374
142470
142727
142373
142470
142754
142360
142457
142715
142359
142456
142742
142345
142443
142703
142344
142442
142730
142330
142428
142690
142329
142428
142717
142315
142414
142678
142314
142413
142705
142299
142399
142665
142297
142398
142692
142282
142383
142651
142281
142382
142679
142266
142367
142638
142264
142366
142666
142248
142351
142624
142246
142349
142653
142231
142334
142611
142229
142333
142640
142213
142317
142597
142211
142316
142627
142194
142300
142583
142192
142299
142614
142176
142283
142570
142174
142282
142601
142157
142266
142556
142156
142266
142589
142139
142250
142544
142137
142250
142577
142121
142234
142532
142120
142234
142567
142103
142218
142521
142102
142219
142557
142086
142203
142511
142086
142205
142548
142070
142190
142502
142070
142193
142541
142055
142178
142495
142056
142181
142536
142041
142168
142490
142044
142172
142532
142030
142159
142487
142033
142165
142531
142020
142154
142486
142025
142161
142533
142013
142151
142488
142020
142160
142537
142009
142151
142493
142017
142162
142544
142008
142154
142500
142019
142168
142554
142012
142162
142510
142025
142178
142566
142019
142174
142524
142034
142192
142581
142031
142191
142541
142049
142211
142599
142047
142211
142560
142068
142235
142620
142068
142236
142583
142092
142263
142644
142093
142267
142609
142120
142295
142671
142124
142302
142639
142153
142333
142701
142161
142343
142673
142191
142375
142734
142202
142389
142710
142235
142423
142771
142249
142440
142751
142283
142476
142812
142300
142496
142798
142333
142531
142858
142355
142554
142850
142386
142587
142908
142412
142612
142907
142440
142642
142963
142465
142665
142970
142483
142682
143023
142495
142689
143036
142486
142675
143080
142464
142646
143078
142404
142582
143126
142310
142482
143188
142161
142321
143220
141931
142053
143031
141650
141602
142546
141124
141038
143358
141242
142740
144956
143800
144810
145748
145914
146613
145933
146354
146799
146945
147687
147208
146843
146971
147570
147722
148667
147501
147924
147750
148060
148152
148129
148227
148311
148535
148488
148550
149346
148675
148610
148829
148686
148871
148800
148960
148836
148987
148939
149096
148960
149084
149084
149140
149246
149146
149188
149234
149352
149523
149276
149336
149248
149336
149308
149407
149315
149387
149362
149446
149373
149444
149415
149495
149421
149485
149460
149539
149471
149540
149495
149565
149502
149517
149595
149516
149564
149551
149634
149533
149576
149571
149646
149713
149615
149609
149539
149596
149559
149621
149559
149614
149578
149632
149589
149574
149634
149568
149606
149589
149650
149575
149613
149597
149656
149697
149611
149704
149606
149691
149597
149674
149772
149636
149728
149639
149674
149600
149760
149620
149676
149613
149795
149832
149714
149648
149805
149724
149729
149755
149801
149725
149707
149640
149632
149575
149622
149675
149712
149634
149690
149749
149799
149695
149680
149742
149796
149688
149683
149720
149789
149674
149631
149700
149606
149663
149603
149684
149585
149651
149576
149662
149549
149626
149531
149627
149492
149583
149463
149567
149409
149511
149362
149480
149298
149107
148846
148684
148806
148604
148707
148560
148646
148825
149011
148967
149210
148959
148783
148583
148726
148523
148665
148443
148563
148735
148474
148662
148374
148542
149021
148931
149081
148813
149033
149143
148873
148925
149097
149308
149637
149293
149594
149440
149060
148852
148589
148965
148654
149159
149560
149825
149689
149700
149695
149773
149805
150019
149740
149932
149969
149950
149909
150001
149898
149861
149599
149131
149366
149299
149607
149743
149752
149896
149849
149984
149818
149642
149355
149523
149412
149246
149429
149680
149567
149612
149722
149658
149753
149683
149769
149692
149779
149693
149785
149688
149818
149866
149818
149872
149819
149881
149818
149894
149810
149902
149795
149921
150035
150075
149992
150038
149969
150000
149941
149973
149924
149956
149913
149945
149906
149863
149817
149861
149818
149860
149819
149857
149841
149773
149740
149725
149826
149684
149672
149836
149839
149887
149854
149892
149923
149948
149919
149879
149838
149876
149832
149829
149780
149740
149561
149565
149680
149503
149638
149790
149604
149609
149590
149437
149612
149501
149553
149404
149577
149510
149337
149583
149398
149476
149305
149535
149414
149216
149358
149573
149547
149650
149705
149601
149577
149632
149668
149537
149814
149656
149566
149894
149495
149839
149427
149843
149655
149606
149461
149850
149324
149555
149512
149455
149037
149450
149071
149176
148953
149378
149038
148798
149293
148856
148915
148665
149012
148752
149954
149231
149184