/*--------------------------------*- C++ -*----------------------------------*\
| =========                 |                                                 |
| \\      /  F ield         | OpenFOAM: The Open Source CFD Toolbox           |
|  \\    /   O peration     | Version:  v2006                                 |
|   \\  /    A nd           | Website:  www.openfoam.com                      |
|    \\/     M anipulation  |                                                 |
\*---------------------------------------------------------------------------*/
FoamFile
{
    version     2.0;
    format      ascii;
    class       volScalarField;
    location    "0.012";
    object      alphat;
}
// * * * * * * * * * * * * * * * * * * * * * * * * * * * * * * * * * * * * * //

dimensions      [1 -1 -1 0 0 0 0];


internalField   nonuniform List<scalar> 
11076
(
49315.6
49311.9
49399.9
49408
49400.3
24779.7
9989.86
4070.96
1723.51
749.5
340.867
166.361
89.2663
53.7564
36.8651
29.086
26.5516
28.0722
34.2171
47.4782
73.2443
121.205
205.638
342.112
542.159
816.013
1186.23
1671.92
2144.91
2282.14
2241.82
2223.32
2217.98
2229.25
2274.22
2092.95
1493.01
954.152
590.909
349.742
194.007
102.74
54.657
31.0187
19.7147
14.4633
12.4339
12.6125
15.1473
21.544
35.9838
68.7699
143.743
314.43
727.495
1997.77
6860.94
9262.2
6189.53
1772.28
527.936
167.467
27.0684
8.43879
4.91868
2.05786
1.15268
0.729166
0.37909
0.0862296
0.0155181
0.000480408
0.000407956
0.00733797
0.0329287
0.0209211
0.00540783
0.000358504
0.000320295
0.00478215
0.0168215
0.0143815
0.00432025
0.000296238
0.00027665
0.00411488
0.0130256
0.011833
0.00381224
0.000261146
0.000248928
0.00366421
0.0111622
0.010459
0.00351636
0.000238625
0.000231925
0.00345175
0.0101226
0.00961879
0.00332954
0.00022476
0.000220506
0.00329881
0.00944234
0.00908011
0.00320269
0.000215302
0.000212441
0.00318657
0.00895532
0.0086636
0.00310499
0.000208485
0.000206429
0.00309518
0.00857049
0.00832286
0.00302427
0.000203302
0.00020173
0.00301658
0.00825029
0.0080329
0.00295463
0.000199162
0.000197911
0.00294752
0.00797469
0.00777964
0.00289205
0.000195734
0.0001947
0.00288518
0.00773122
0.00755371
0.00283488
0.000192804
0.000191923
0.00282847
0.0075125
0.00735036
0.00278235
0.000190238
0.000189469
0.00277648
0.00731504
0.00716565
0.00273385
0.000187949
0.000187266
0.00272853
0.00713529
0.00699679
0.00268891
0.00018588
0.000185264
0.00268416
0.00697062
0.00684154
0.00264717
0.00018399
0.00018343
0.00264298
0.00681893
0.0066981
0.00260832
0.000182252
0.000181737
0.00260465
0.00667857
0.00656509
0.00257209
0.000180644
0.000180168
0.0025689
0.00654827
0.00644144
0.00253825
0.000179149
0.000178708
0.00253554
0.00642706
0.00632624
0.00250665
0.000177755
0.000177343
0.00250439
0.00631403
0.00621869
0.00247711
0.000176453
0.000176067
0.00247529
0.00620845
0.0061182
0.00244953
0.000175234
0.000174869
0.00244814
0.00610978
0.00602431
0.00242382
0.000174093
0.000173743
0.00242285
0.00601766
0.00593681
0.00239993
0.000173024
0.000172687
0.00239943
0.0059319
0.00585564
0.00237787
0.000172023
0.000171697
0.00237782
0.00585263
0.00578095
0.00235766
0.000171088
0.000170772
0.00235797
0.00577977
0.00571239
0.0023391
0.00017022
0.000169911
0.00233924
0.00571278
0.00564924
0.00232124
0.000169417
0.000169112
0.0023214
0.00565094
0.00559088
0.0023042
0.000168671
0.000168366
0.00230455
0.00559382
0.00553712
0.00228818
0.000167978
0.00016767
0.00228878
0.00554141
0.00548819
0.0022733
0.000167355
0.000167036
0.00227421
0.00549387
0.00544446
0.00225967
0.000166725
0.000166454
0.00226095
0.00545143
0.00540584
0.00224741
0.000166143
0.000165927
0.00224909
0.00541419
0.00537207
0.00223667
0.000165611
0.000165444
0.00223878
0.00538212
0.00534327
0.00222754
0.00016515
0.000165007
0.00223007
0.00535577
0.0053201
0.00222027
0.000164754
0.000164627
0.00222307
0.00533543
0.00530314
0.00221464
0.000164411
0.000164307
0.00221774
0.00532159
0.00529291
0.00221075
0.000164121
0.000164057
0.00221455
0.00531446
0.00528968
0.0022079
0.000163894
0.000163873
0.00221314
0.00531412
0.00529431
0.00220695
0.000163738
0.000163761
0.00221365
0.00532138
0.00530653
0.00220806
0.000163652
0.000163723
0.00221655
0.00533763
0.0053251
0.00221135
0.00016364
0.000163764
0.00222157
0.00536215
0.00535188
0.00221657
0.000163715
0.000163901
0.00222862
0.00539505
0.0053865
0.00222357
0.000163895
0.000164148
0.00223746
0.00543487
0.00542775
0.00223214
0.00016419
0.000164508
0.00224786
0.0054811
0.00547531
0.00224208
0.000164597
0.00016498
0.00225968
0.00553308
0.00552847
0.00225304
0.00016511
0.000165553
0.00227252
0.00558658
0.0055817
0.00226457
0.00016575
0.000166264
0.00228533
0.00563785
0.00562957
0.00227554
0.000166543
0.000167133
0.00229686
0.00568335
0.00566666
0.00228414
0.000167512
0.000168185
0.0023057
0.00571482
0.00568816
0.00228899
0.000168686
0.000169467
0.00230998
0.00572585
0.00567976
0.00228831
0.000170118
0.000171024
0.00230754
0.00570864
0.00564624
0.00228118
0.000171847
0.000172895
0.00229812
0.00566592
0.00558909
0.00226741
0.000173907
0.000175111
0.0022824
0.00559894
0.00550787
0.00224774
0.000176322
0.000177682
0.00226194
0.00551027
0.00540712
0.00222387
0.000179078
0.000180572
0.00223741
0.00540478
0.00529158
0.00219848
0.000182121
0.000183713
0.00220997
0.0052854
0.005164
0.00217357
0.000185333
0.000186979
0.00215337
0.00515615
0.00503334
0.00211968
0.000188597
0.000190189
0.00209335
0.00502471
0.00490039
0.00206214
0.000191702
0.000193128
0.00203817
0.00489255
0.00476809
0.00201178
0.000194432
0.000195627
0.00199082
0.00476162
0.00463877
0.00196856
0.000196708
0.000197671
0.00194999
0.00463469
0.00451596
0.00193136
0.00019851
0.000199242
0.00191486
0.00451535
0.0044045
0.00189948
0.000199887
0.000200415
0.00188482
0.00440566
0.00430355
0.00187215
0.00020088
0.00020123
0.00186031
0.00430603
0.00421195
0.00184993
0.000201546
0.000201727
0.00183994
0.00421634
0.00412958
0.00183182
0.000201899
0.000202023
0.00182372
0.00413589
0.00405594
0.00181761
0.000202057
0.000202066
0.00181133
0.00406433
0.00399081
0.00180714
0.000202005
0.000201946
0.00180183
0.00400116
0.00393379
0.0017993
0.000201809
0.000201713
0.00179577
0.0039458
0.00388393
0.00179401
0.000201516
0.000201408
0.00179243
0.00389806
0.00383952
0.00179105
0.000201075
0.000201062
0.00179114
0.00385863
0.00380896
0.00179064
0.000200942
0.00020057
0.00179148
0.00381097
0.00376902
0.00179441
0.000201179
0.000199871
0.00179197
0.00377382
0.00378064
0.00181732
0.000202348
0.00020412
0.00185178
0.00397774
0.00417737
0.00189884
0.000209
0.0126988
0.0295379
0.05129
0.0763792
0.0925907
0.12036
0.139402
0.157254
0.168367
0.175553
0.176896
0.172598
0.164024
0.148428
0.131351
0.106994
0.0748258
0.0568316
0.0470522
0.0345636
0.018305
0.0119801
0.0081991
0.00476426
0.0023334
0.00109877
0.000110578
0.000102325
0.000996257
0.00204328
0.00189035
0.000916463
9.47542e-05
8.70628e-05
0.000850063
0.0016649
0.00159983
0.000828822
8.43469e-05
8.30091e-05
0.000814385
0.00160996
0.00154213
0.000817508
8.27402e-05
8.22937e-05
0.000815271
0.00159007
0.00154957
0.000819465
8.21902e-05
8.23911e-05
0.00082313
0.00159571
0.00156369
0.000826242
8.23301e-05
8.24701e-05
0.000830017
0.00160597
0.0015737
0.000833309
8.24107e-05
8.25617e-05
0.000837544
0.00161647
0.00158405
0.000840816
8.24993e-05
8.26635e-05
0.000845345
0.00162734
0.00159461
0.000848651
8.25972e-05
8.2775e-05
0.000853638
0.00163853
0.00160586
0.000856887
8.26977e-05
8.28905e-05
0.000862291
0.00165054
0.00161736
0.000865468
8.28129e-05
8.30246e-05
0.0008714
0.00166322
0.00163017
0.000873059
8.29504e-05
8.31838e-05
0.000881004
0.00167641
0.00164289
0.000880023
8.3107e-05
8.33646e-05
0.000890969
0.00168999
0.0016568
0.000887011
8.33012e-05
8.35859e-05
0.000902016
0.00170394
0.00167044
0.000895064
8.35032e-05
8.38351e-05
0.000912911
0.0017184
0.00168446
0.000903657
8.37458e-05
8.41109e-05
0.000924672
0.00173322
0.00169842
0.000912285
8.40123e-05
8.44125e-05
0.000936288
0.00174772
0.00171214
0.00092152
8.43037e-05
8.47487e-05
0.000947908
0.00176191
0.00172501
0.000930782
8.46372e-05
8.51196e-05
0.000959479
0.00177477
0.00173715
0.000940054
8.49757e-05
8.55046e-05
0.00097026
0.00178658
0.00174781
0.000949116
8.53539e-05
8.59002e-05
0.000980554
0.00179631
0.00175652
0.000957931
8.56885e-05
8.62785e-05
0.000989021
0.00180439
0.00176317
0.000965838
8.6035e-05
8.66297e-05
0.000995076
0.00180895
0.00176661
0.000971845
8.62959e-05
8.68904e-05
0.000998385
0.00181018
0.00176638
0.00097567
8.65012e-05
8.70849e-05
0.000997327
0.00180639
0.00176148
0.000975568
8.66061e-05
8.71272e-05
0.000993179
0.00179824
0.00175325
0.000972673
8.66437e-05
8.71243e-05
0.0009861
0.0017865
0.00174307
0.00096654
8.66984e-05
8.71043e-05
0.000978515
0.00177482
0.00173813
0.0009624
8.66501e-05
8.70797e-05
0.000973723
0.00177011
0.00173706
0.000961327
8.63993e-05
8.66466e-05
0.000986917
0.00177134
0.00174216
0.000972994
8.59248e-05
8.64133e-05
0.00101319
0.00178615
0.00175661
0.000987922
8.65546e-05
8.84427e-05
0.00103317
0.00177748
0.00175611
0.00101317
8.94688e-05
9.18446e-05
0.00106783
0.00178653
0.00175858
0.00104363
9.27671e-05
9.53897e-05
0.00110103
0.00178286
0.00175832
0.00108359
9.6626e-05
0.000100373
0.00109916
0.00176998
0.00173965
0.00106333
9.95928e-05
0.000102736
0.00105073
0.0017422
0.00170926
0.000993717
0.000101206
0.000101855
0.000937787
0.00169702
0.00165881
0.000941481
0.0001032
0.000107873
0.0011002
0.00181579
0.00184627
0.00119934
0.000156344
0.000225776
0.00145889
0.00218066
0.00211972
0.00124441
0.000214874
0.00017921
0.00112391
0.00173363
0.00188422
0.00121448
0.000207043
0.000234181
0.00126463
0.00191006
0.00190882
0.00126541
0.000259644
0.000285695
0.00125449
0.00195223
0.00198332
0.00124513
0.000308231
0.000334565
0.00124617
0.00201362
0.0020768
0.0012614
0.000356929
0.000362671
0.00113964
0.0020251
0.00162422
0.00107662
0.00035074
0.000378867
0.00110833
0.00182444
0.00184212
0.00116312
0.00038816
0.000409307
0.00119467
0.00185023
0.00167259
0.00108457
0.000390329
0.000379215
0.000994839
0.00125357
0.00133139
0.000881546
0.000369539
0.000355572
0.000913806
0.00114792
0.00128741
0.000957453
0.000359254
0.000373299
0.00104171
0.00137974
0.00152014
0.00110353
0.000403091
0.000404654
0.00114804
0.00160346
0.00153686
0.00118697
0.000392542
0.000370362
0.0012368
0.00186082
0.0022116
0.00105076
0.000419697
0.000380253
0.000813042
0.00247498
0.00153507
0.000763333
0.000441188
0.000468203
0.000861951
0.00186533
0.00130562
0.000854228
0.000666134
0.000731962
0.0010366
0.00139371
0.00206021
0.00134645
0.00127022
0.00134703
0.00156281
0.00241988
0.0029817
0.00198871
0.00187945
0.00194121
0.00225172
0.00304101
0.00329332
0.00254926
0.00248726
0.00244633
0.00270751
0.00339332
0.00323864
0.00295263
0.00288524
0.00285977
0.00341867
0.00348068
0.00386966
0.00393013
0.00316327
0.00325675
0.004837
0.0046262
0.00554942
0.00513941
0.00324731
0.00283024
0.00600611
0.00607804
0.0072312
0.00728309
0.00248829
0.0022374
0.00785839
0.00844873
0.00889138
0.00868957
0.00190777
0.00175289
0.00944398
0.0094715
0.010863
0.0100364
0.00157563
0.00142679
0.00933417
0.0118715
0.012088
0.00900099
0.00131043
0.00123435
0.00834549
0.0138494
0.015875
0.00792171
0.00115025
0.00117978
0.00843357
0.0161119
0.0193079
0.00863078
0.00121159
0.00127882
0.00950161
0.0219296
0.0218521
0.00905301
0.00124367
0.00113216
0.00764384
0.0183723
0.0142262
0.00619014
0.000994224
0.000992227
0.00685919
0.0167274
0.0170023
0.00682467
0.000953999
0.000793292
0.00560295
0.0129112
0.015533
0.0063974
0.000778469
0.000758648
0.00615132
0.0151848
0.0124693
0.0046142
0.000588764
0.000451194
0.00328128
0.00825004
0.010747
0.00396407
0.00041319
0.000400677
0.0041103
0.0102708
0.00466067
0.000978429
0.000192204
0.000143587
0.00126269
0.00642248
0.00460676
0.00111904
0.000158273
0.000112618
0.000952161
0.00349651
0.00113092
0.000365744
6.59738e-05
0.000106752
0.00144799
0.00310775
0.00313759
0.00127346
0.000123727
7.77925e-05
0.00042337
0.00119372
0.00336126
0.00165084
0.000118034
0.000139131
0.00120366
0.00309088
0.00264051
0.000942469
0.000101668
6.21783e-05
0.000320464
0.000915326
0.00268812
0.00124879
9.29685e-05
0.000109067
0.00108806
0.00268272
0.000958796
0.000366196
7.03522e-05
9.57453e-05
0.00130515
0.00268889
0.00258261
0.00108007
0.000109881
7.02596e-05
0.000355824
0.000907754
0.00255899
0.00124482
9.42977e-05
0.000108827
0.00105169
0.00246553
0.000884654
0.000356362
7.10877e-05
9.69342e-05
0.00129024
0.00255344
0.00233384
0.00095428
0.000116604
8.69418e-05
0.000722853
0.00193135
0.00065321
0.000257894
5.52807e-05
7.32889e-05
0.000900083
0.00189791
0.00187788
0.000803781
8.83333e-05
6.04167e-05
0.000288755
0.000662413
0.00188515
0.000952929
7.49567e-05
8.83749e-05
0.000771888
0.00178608
0.000640072
0.000267935
5.61914e-05
7.05235e-05
0.000860535
0.0017574
0.00168454
0.000742776
8.4715e-05
5.63851e-05
0.000263073
0.000609737
0.00167732
0.000833448
6.99219e-05
8.37846e-05
0.000717015
0.00157793
0.000568268
0.000265553
5.83461e-05
6.85828e-05
0.000788772
0.00155438
0.00145131
0.000672115
7.976e-05
5.55169e-05
0.000238876
0.000505412
0.00127273
0.000868044
5.95956e-05
6.42184e-05
0.000337472
0.000641597
0.0016941
0.000834872
7.54705e-05
8.84737e-05
0.000697463
0.00151833
0.000559434
0.000275739
6.17671e-05
7.13132e-05
0.000782466
0.00151226
0.00137513
0.000670822
8.49007e-05
5.70804e-05
0.000260111
0.000531729
0.00140805
0.000721648
6.65266e-05
8.15737e-05
0.000630144
0.00129015
0.000496326
0.000257003
5.87551e-05
6.42925e-05
0.000689247
0.00128052
0.00116579
0.000586843
7.7155e-05
5.09987e-05
0.000230384
0.00046409
0.00104809
0.000652374
5.60389e-05
6.37882e-05
0.000281933
0.000531029
0.0013351
0.000699875
6.90304e-05
8.12097e-05
0.000583764
0.00116787
0.000464304
0.000246101
5.81055e-05
6.07875e-05
0.000616227
0.00110419
0.00100856
0.000534366
7.38876e-05
5.43963e-05
0.000217238
0.000408555
0.000887684
0.000630568
5.30337e-05
5.99845e-05
0.000283605
0.0004837
0.0011756
0.000621834
6.34598e-05
7.62498e-05
0.000533015
0.00103918
0.000429963
0.000235484
5.64005e-05
5.88734e-05
0.0005772
0.00100162
0.000902365
0.000491155
7.22209e-05
4.93983e-05
0.000216991
0.000400835
0.000823882
0.000542418
4.96046e-05
5.92946e-05
0.000257453
0.000451058
0.0010611
0.000583754
6.06844e-05
7.31823e-05
0.000492494
0.000916051
0.000397389
0.000216946
5.41878e-05
5.22071e-05
0.00057018
0.0007882
0.000449524
0.000276607
6.05735e-05
6.091e-05
0.000575593
0.00102923
0.000895085
0.00048782
7.35682e-05
5.43307e-05
0.000224506
0.000398285
0.000857421
0.00051514
5.46949e-05
6.85355e-05
0.000448346
0.000777572
0.000367129
0.000216386
4.90851e-05
4.70563e-05
0.000478994
0.000698642
0.000405649
0.000243848
5.65384e-05
5.58138e-05
0.0005028
0.000878636
0.000761146
0.000437079
6.85206e-05
5.13049e-05
0.000200751
0.000354176
0.000655822
0.000484599
4.82993e-05
5.81536e-05
0.000250849
0.000396417
0.000801264
0.000480368
5.5709e-05
6.79868e-05
0.000427096
0.000706531
0.000342569
0.000201623
5.05124e-05
4.66473e-05
0.00047905
0.000622553
0.000376651
0.000249369
5.54686e-05
5.35114e-05
0.000462568
0.000780423
0.000681658
0.000411524
6.62622e-05
5.03235e-05
0.000200681
0.000335982
0.000591753
0.000465152
4.67079e-05
5.57797e-05
0.000249745
0.000371188
0.000722025
0.000447941
5.33275e-05
6.63375e-05
0.000396474
0.000636964
0.000329879
0.000208221
5.02564e-05
4.62722e-05
0.000439658
0.000575612
0.000362341
0.000249282
5.56696e-05
5.24433e-05
0.000438817
0.000701778
0.000613842
0.00038508
6.54084e-05
4.96794e-05
0.000209553
0.000323013
0.000546937
0.000424175
4.53602e-05
5.52158e-05
0.000249649
0.000353851
0.000652755
0.000424166
5.25992e-05
6.57391e-05
0.000374329
0.000579833
0.000318041
0.000213615
5.00314e-05
4.4991e-05
0.0004124
0.000526424
0.000344701
0.000250687
5.50628e-05
5.15904e-05
0.000413332
0.000626509
0.000559946
0.000363757
6.43644e-05
4.81019e-05
0.00021824
0.000308947
0.000504117
0.00039052
4.33015e-05
5.4602e-05
0.000239115
0.000330926
0.000595075
0.000402671
5.0949e-05
6.45074e-05
0.000355728
0.000535686
0.000306105
0.000223063
4.84397e-05
4.36486e-05
0.00038631
0.000488183
0.000325587
0.000242478
5.49246e-05
5.06624e-05
0.00039519
0.000580408
0.00051875
0.000350706
6.44858e-05
5.00913e-05
0.000218317
0.000298828
0.000463635
0.000375913
4.43598e-05
5.53004e-05
0.00024987
0.000317321
0.00054897
0.000388331
5.09278e-05
6.45284e-05
0.000348541
0.000497268
0.000292994
0.000228474
4.88559e-05
4.33221e-05
0.000370994
0.000452603
0.000307613
0.000240003
5.47715e-05
4.991e-05
0.000373693
0.000533486
0.000477569
0.000335013
6.36773e-05
4.98161e-05
0.000221069
0.0002847
0.000424914
0.000353964
4.37863e-05
5.53666e-05
0.000247322
0.000298997
0.000510621
0.000366852
5.02659e-05
6.40204e-05
0.000333276
0.000463752
0.000281869
0.000229525
4.9041e-05
4.27637e-05
0.000352314
0.000420852
0.000294345
0.000240878
5.48354e-05
4.90446e-05
0.000355746
0.000501648
0.000450631
0.00032225
6.32188e-05
4.97454e-05
0.000223903
0.00027452
0.000407297
0.000341181
4.3562e-05
5.58795e-05
0.000248079
0.000289716
0.000488397
0.000356281
5.02381e-05
6.43574e-05
0.000326705
0.000444429
0.000276925
0.000234976
4.96478e-05
4.31762e-05
0.000348482
0.00040894
0.000289838
0.000246935
5.55202e-05
4.98474e-05
0.0003507
0.000488552
0.000439872
0.000321201
6.42122e-05
5.08184e-05
0.000231416
0.00027378
0.000401966
0.000340387
4.39284e-05
5.66552e-05
0.000253715
0.000288389
0.000480575
0.000353157
5.06326e-05
6.4786e-05
0.000326208
0.000437863
0.000275874
0.000240017
5.0189e-05
4.36803e-05
0.000346381
0.000404916
0.000290197
0.000254385
5.66976e-05
5.06468e-05
0.000351613
0.000484249
0.00043707
0.000324339
6.53305e-05
5.17792e-05
0.00024267
0.000277963
0.000404807
0.000345663
4.49555e-05
5.78395e-05
0.000260912
0.000292318
0.00048663
0.000357736
5.12347e-05
6.64203e-05
0.000332806
0.000444671
0.00028114
0.000249003
5.36665e-05
4.87574e-05
0.000350906
0.000451758
0.000418557
0.000329385
6.52115e-05
5.28447e-05
0.000242802
0.0002711
0.000395483
0.000340331
4.53729e-05
5.88425e-05
0.000264254
0.000287528
0.000472458
0.000351302
5.16643e-05
6.66021e-05
0.000327682
0.000429681
0.000277627
0.00025127
5.27372e-05
4.53868e-05
0.00034687
0.000401044
0.000291458
0.000266578
5.9455e-05
5.26346e-05
0.000356478
0.000480651
0.000437151
0.000332972
6.82101e-05
5.47226e-05
0.000257864
0.00028143
0.000446738
0.000350854
4.92247e-05
6.55744e-05
0.000332476
0.000415391
0.000274739
0.00025115
5.36681e-05
4.5739e-05
0.00034019
0.000394121
0.000288321
0.000270246
6.03909e-05
5.32801e-05
0.000352284
0.000469666
0.000430863
0.000330944
6.95297e-05
5.56035e-05
0.000261358
0.000281468
0.00043665
0.000346573
4.98696e-05
6.66779e-05
0.000329165
0.000408727
0.000274683
0.000256829
5.44086e-05
4.62304e-05
0.000342891
0.000393687
0.000289912
0.000273274
6.13053e-05
5.39654e-05
0.000354017
0.000470853
0.000430208
0.000333211
7.07048e-05
5.70388e-05
0.000267065
0.000283627
0.000442095
0.000354174
5.10612e-05
6.83994e-05
0.000337056
0.000413605
0.000280895
0.000266407
5.45371e-05
4.64515e-05
0.000352077
0.000398319
0.000295076
0.000282197
6.17886e-05
5.45456e-05
0.000354274
0.000475333
0.000437795
0.000337876
7.18443e-05
5.8408e-05
0.0002769
0.000291696
0.000449769
0.000362308
5.20879e-05
6.99864e-05
0.000343647
0.000422407
0.000286834
0.000274474
5.76513e-05
5.10129e-05
0.000352339
0.00043986
0.000415768
0.000338573
7.05951e-05
5.9767e-05
0.000274671
0.000285538
0.000437552
0.000355117
5.3481e-05
7.26203e-05
0.000341363
0.00041409
0.000286803
0.000276097
6.00127e-05
5.23768e-05
0.000347839
0.000429432
0.000404494
0.000335755
7.03927e-05
5.92724e-05
0.000271846
0.000280138
0.000419595
0.000343641
5.27993e-05
7.27076e-05
0.000331983
0.000397295
0.00028113
0.000277194
6.09166e-05
5.35797e-05
0.00034332
0.000416621
0.000394578
0.000331221
7.28427e-05
5.95626e-05
0.000278124
0.000279922
0.000410252
0.000336635
5.16022e-05
7.16823e-05
0.000323972
0.000388498
0.000277729
0.000277733
6.09802e-05
5.38432e-05
0.000339814
0.000408987
0.000390739
0.000328914
7.38626e-05
6.15354e-05
0.00028436
0.000281817
0.000411761
0.000340532
5.20504e-05
6.99185e-05
0.000326365
0.000388753
0.000278875
0.000283115
6.05723e-05
5.41263e-05
0.000342341
0.000412359
0.000395916
0.000334952
7.50522e-05
6.43226e-05
0.000298568
0.000289487
0.000434965
0.000358027
5.62016e-05
7.59794e-05
0.000359742
0.00041217
0.000373475
0.000335546
6.93647e-05
6.19078e-05
0.000286393
0.000283428
0.000401884
0.000336128
5.57335e-05
8.1429e-05
0.000344582
0.000376392
0.000354615
0.000325711
7.14725e-05
6.22927e-05
0.000277164
0.00027267
0.000379419
0.000314505
5.55053e-05
8.08262e-05
0.000328155
0.000357845
0.000331003
0.000309586
7.42014e-05
6.39879e-05
0.000280482
0.000265929
0.000360026
0.000301746
5.43475e-05
7.94813e-05
0.000314479
0.000333343
0.000315942
0.00029652
7.45032e-05
6.68185e-05
0.000280928
0.00025853
0.000362766
0.000305698
5.56328e-05
7.89852e-05
0.00030353
0.000342542
0.000322143
0.000302552
7.83928e-05
7.87973e-05
0.000299961
0.00029562
0.000281684
0.000276487
7.14969e-05
6.40382e-05
0.000260791
0.000237265
0.000311742
0.000271637
5.57613e-05
8.19436e-05
0.000260488
0.000300029
0.00027704
0.000276902
7.7976e-05
8.1775e-05
0.000263202
0.00027033
0.000255594
0.000261331
8.36817e-05
9.17448e-05
0.000253254
0.00025276
0.000248349
0.000252177
9.83912e-05
0.000107748
0.000249614
0.000248695
0.000253402
0.000257663
0.000117738
0.000125881
0.000268397
0.000263555
0.000271645
0.000290483
0.000131303
0.000130761
0.000302086
0.000277314
0.000284713
0.000332499
0.000129286
0.000126418
0.000353249
0.000290982
0.000304426
0.000390721
0.000123428
0.000119274
0.000393066
0.000311112
0.00032845
0.000418912
0.0001154
0.000111308
0.000422956
0.000335841
0.000356569
0.000444289
0.000107956
0.000105022
0.000456789
0.000365878
0.000396154
0.000471462
0.000102735
0.000100864
0.000486056
0.000409296
0.000448646
0.000498681
9.93105e-05
9.7966e-05
0.00051351
0.000462935
0.000504895
0.000527395
9.66647e-05
9.565e-05
0.000543303
0.000521021
0.000566322
0.000558094
9.45616e-05
9.40539e-05
0.000574835
0.000584409
0.000631855
0.000590613
9.31278e-05
9.33016e-05
0.000608062
0.000654639
0.000705244
0.000623803
9.26163e-05
9.32221e-05
0.000640762
0.000722206
0.000777686
0.00065684
9.28145e-05
9.35201e-05
0.000673175
0.000787376
0.000841799
0.000688377
9.34493e-05
9.41297e-05
0.000703941
0.00085125
0.000904304
0.000718381
9.42173e-05
9.48525e-05
0.000732884
0.00091343
0.000963823
0.000747166
9.49613e-05
9.56049e-05
0.000759892
0.000971087
0.00101876
0.000773003
9.58598e-05
9.63649e-05
0.000784966
0.00102571
0.00106891
0.000796442
9.64864e-05
9.70384e-05
0.000807187
0.00107535
0.00111611
0.00081734
9.71036e-05
9.76196e-05
0.000826638
0.00112162
0.00115863
0.000835319
9.76456e-05
9.81137e-05
0.000843369
0.00116356
0.00119849
0.000851074
9.81064e-05
9.85291e-05
0.000857719
0.00120251
0.00123418
0.000864202
9.84926e-05
9.88665e-05
0.000869755
0.00123775
0.00126784
0.000875524
9.88099e-05
9.9147e-05
0.000879817
0.00127052
0.00129811
0.000884682
9.90766e-05
9.9379e-05
0.00088817
0.00130038
0.00132718
0.000892643
9.92979e-05
9.95724e-05
0.000895122
0.00132864
0.00135385
0.000898946
9.94866e-05
9.97369e-05
0.000900877
0.0013549
0.00137994
0.000904498
9.96468e-05
9.98799e-05
0.000905687
0.00137997
0.00140403
0.000908858
9.97894e-05
0.000100009
0.000909752
0.00140351
0.00142724
0.000912758
9.99223e-05
0.00010013
0.000913082
0.00142559
0.00144864
0.00091573
0.000100043
0.00010024
0.00091589
0.00144645
0.00146322
0.000918474
0.00010016
0.000100347
0.00091815
0.00146571
0.00147601
0.000920419
0.00010027
0.000100445
0.000920001
0.00148346
0.0014873
0.000922224
0.000100373
0.000100536
0.000921378
0.00149996
0.00149751
0.000923316
0.000100469
0.000100621
0.000922429
0.00151347
0.00150643
0.000924345
0.000100557
0.000100698
0.00092309
0.00152157
0.00151419
0.000924739
0.000100636
0.000100768
0.000923459
0.00152883
0.00152061
0.000925078
0.000100709
0.00010083
0.000923425
0.00153448
0.00152608
0.000924753
0.000100774
0.000100886
0.000923162
0.00153964
0.00153052
0.000924453
0.000100832
0.000100932
0.000922546
0.00154352
0.00153431
0.00092357
0.00010088
0.000100969
0.000921712
0.00154716
0.0015373
0.000922789
0.000100919
0.000100999
0.000920642
0.00154971
0.00153986
0.000921502
0.000100952
0.000101024
0.000919439
0.00155224
0.00154182
0.000920411
0.00010098
0.000101045
0.0009181
0.0015539
0.00154358
0.00091892
0.000101004
0.000101063
0.000916733
0.00155605
0.00154502
0.000917705
0.000101025
0.000101078
0.000915307
0.00155702
0.00154616
0.000916129
0.000101044
0.000101092
0.000913946
0.00155883
0.00154718
0.000914863
0.000101061
0.000101105
0.000912595
0.00155932
0.00154787
0.000913303
0.000101077
0.000101118
0.000911332
0.0015607
0.0015485
0.000912197
0.000101092
0.000101129
0.000910054
0.00156077
0.00154883
0.000910748
0.000101106
0.000101139
0.00090887
0.00156182
0.00154917
0.000909738
0.000101117
0.000101147
0.000907676
0.0015616
0.00154927
0.00090838
0.000101128
0.000101154
0.000906584
0.00156239
0.00154937
0.000907466
0.000101137
0.00010116
0.000905486
0.00156192
0.00154925
0.000906207
0.000101145
0.000101166
0.000904484
0.00156249
0.00154918
0.000905383
0.000101153
0.000101171
0.00090347
0.00156183
0.0015489
0.000904208
0.00010116
0.000101176
0.000902548
0.00156219
0.00154869
0.000903466
0.000101166
0.00010118
0.000901617
0.00156145
0.00154834
0.000902381
0.000101171
0.000101183
0.00090078
0.00156167
0.00154805
0.000901727
0.000101175
0.000101184
0.00089994
0.00156086
0.00154766
0.000900731
0.000101177
0.000101185
0.000899193
0.00156105
0.00154736
0.000900164
0.000101179
0.000101185
0.000898437
0.00156023
0.00154696
0.000899256
0.000101179
0.000101185
0.000897774
0.00156039
0.00154664
0.000898776
0.000101179
0.000101184
0.000897107
0.00155956
0.00154626
0.000897954
0.000101178
0.000101183
0.000896525
0.00155977
0.001546
0.000897551
0.000101177
0.000101181
0.000895931
0.00155899
0.00154564
0.000896798
0.000101176
0.00010118
0.000895414
0.00155917
0.00154531
0.00089646
0.000101176
0.000101179
0.000894882
0.00155828
0.00154486
0.000895771
0.000101176
0.00010118
0.000894426
0.00155842
0.00154457
0.000895494
0.000101177
0.00010118
0.000893949
0.00155765
0.00154428
0.000894852
0.000101178
0.000101181
0.00089353
0.00155793
0.00154404
0.000894601
0.000101179
0.000101182
0.000893071
0.00155709
0.00154356
0.000893975
0.00010118
0.000101183
0.00089267
0.00155709
0.00154308
0.000893751
0.000101181
0.000101183
0.000892248
0.0015561
0.00154263
0.000893168
0.000101181
0.000101182
0.000891891
0.00155632
0.00154245
0.000892979
0.00010118
0.00010118
0.000891492
0.0015556
0.00154212
0.000892412
0.000101178
0.000101178
0.000891149
0.00155572
0.00154166
0.000892241
0.000101176
0.000101175
0.000890779
0.00155465
0.00154108
0.000891718
0.000101174
0.000101173
0.000890483
0.00155473
0.00154082
0.000891595
0.000101172
0.000101171
0.000890151
0.00155404
0.00154062
0.000891088
0.000101169
0.000101169
0.000889853
0.00155434
0.00154031
0.000890949
0.000101167
0.000101166
0.000889502
0.00155332
0.00153965
0.000890437
0.000101166
0.000101165
0.000889211
0.0015532
0.00153915
0.000890322
0.000101165
0.000101164
0.000888893
0.00155228
0.00153881
0.000889841
0.000101164
0.000101163
0.000888625
0.00155254
0.00153858
0.000889739
0.000101163
0.000101161
0.000888315
0.00155168
0.00153807
0.000889266
0.000101162
0.00010116
0.000888055
0.00155167
0.00153762
0.000889177
0.00010116
0.000101158
0.000887764
0.00155074
0.00153725
0.000888722
0.000101157
0.000101156
0.000887513
0.00155098
0.00153701
0.000888636
0.000101155
0.000101153
0.000887229
0.00155009
0.00153644
0.00088818
0.000101152
0.000101153
0.000886972
0.00154996
0.00153582
0.000888107
0.000101152
0.000101151
0.000886725
0.00154883
0.00153529
0.000887696
0.00010115
0.000101152
0.000886514
0.00154902
0.00153515
0.000887658
0.000101151
0.00010115
0.000886278
0.00154839
0.00153493
0.000887235
0.000101149
0.000101151
0.000886037
0.00154859
0.00153437
0.000887138
0.00010115
0.000101147
0.000885805
0.00154761
0.00153404
0.000886925
0.000101145
0.000101211
0.000886381
0.00154695
0.00153354
0.000887333
0.000101249
0.000101239
0.000886212
0.00154673
0.00153306
0.000887301
0.000101222
0.000101249
0.000886867
0.00154844
0.00153028
0.000890073
0.000101625
0.000101985
0.000891469
0.00156235
0.00157643
0.000904615
0.000104006
0.000106501
0.000921515
0.00161407
0.00174377
0.000969284
0.000114033
0.000121196
0.00102593
0.00183326
0.00195795
0.00109229
0.000127931
0.00326388
0.00540829
0.00768642
0.0125791
0.0242376
0.0317336
0.0356874
0.0545052
0.0804416
0.107746
0.142185
0.188902
0.250708
0.3324
0.436491
0.56551
0.720054
0.900002
1.10385
1.32903
1.57166
1.82732
2.08975
2.35383
2.60877
2.84891
3.05618
3.22707
3.34794
3.42527
3.46062
3.4834
3.53202
3.60158
3.68937
3.79037
3.90408
4.02732
4.16151
4.30665
4.46505
4.63847
4.83002
5.0428
5.28142
5.5517
5.86202
6.22411
6.65625
5.63837
4.066
2.93939
2.30203
1.96004
1.7687
1.64744
1.55628
1.47698
1.40202
1.32799
1.25219
1.17107
1.08011
0.975451
0.857592
0.732175
0.609441
0.498904
0.40593
0.331126
0.272456
0.226961
0.191755
0.164511
0.143338
0.126871
0.114007
0.103938
0.096046
0.089869
0.085054
0.0813338
0.0785109
0.076418
0.0749492
0.074002
0.0735081
0.0734066
0.0736668
0.0742408
0.0751056
0.0762421
0.0776281
0.079273
0.0811469
0.0832578
0.0856009
0.0881684
0.0909755
0.0940116
0.0973039
0.100849
0.104649
0.108724
0.113084
0.117753
0.122751
0.1281
0.133822
0.13995
0.146505
0.153526
0.161045
0.169135
0.177819
0.187174
0.197234
0.20809
0.219839
0.232531
0.246302
0.261247
0.277513
0.295226
0.314555
0.335701
0.358859
0.384306
0.412304
0.443187
0.477332
0.515182
0.557258
0.604174
0.656658
0.715572
0.781945
0.857013
0.942262
1.03949
1.15092
1.27933
1.42827
1.60241
1.80802
2.05357
2.35044
2.7134
3.16035
3.7114
4.39068
5.23675
6.31594
7.69254
9.2797
10.6487
11.3931
12.3244
16.1922
30.6288
89.9606
352.221
1110.6
2161.32
2318.06
3282.14
2887.76
4485.57
4061.45
6811.63
6652.5
12758.5
13622.9
48813.1
38314.9
49010.8
49115
49217.3
49218.9
48388
21748.4
9586.94
4043
1764.83
777.432
356.334
174.772
94.3215
57.1553
39.4453
31.2809
28.6335
30.3
36.9767
51.552
80.5725
136.98
243.496
433.742
739.633
1090.18
1105.07
791.218
564.665
462.077
423.551
411.177
408.797
415.67
446.739
540.236