/*--------------------------------*- C++ -*----------------------------------*\
| =========                 |                                                 |
| \\      /  F ield         | OpenFOAM: The Open Source CFD Toolbox           |
|  \\    /   O peration     | Version:  v2006                                 |
|   \\  /    A nd           | Website:  www.openfoam.com                      |
|    \\/     M anipulation  |                                                 |
\*---------------------------------------------------------------------------*/
FoamFile
{
    version     2.0;
    format      ascii;
    class       volScalarField;
    location    "0.012";
    object      isentropic(p);
}
// * * * * * * * * * * * * * * * * * * * * * * * * * * * * * * * * * * * * * //

dimensions      [1 -1 -2 0 0 0 0];


internalField   nonuniform List<scalar> 
11076
(
200362
200362
200362
200362
200362
200362
200362
200362
200362
200362
200362
200362
200362
200362
200362
200361
200361
200361
200360
200360
200360
200360
200360
200360
200360
200360
200360
200360
200360
200360
200360
200360
200360
200360
200360
200360
200360
200360
200360
200360
200360
200360
200360
200360
200360
200361
200361
200362
200363
200363
200363
200363
200363
200364
200364
200364
200364
200364
200364
200364
200364
200364
200362
200363
200361
200370
200368
200368
200386
200465
200465
200081
199709
200431
200546
200552
200365
199381
199066
200292
200540
200511
200209
198784
198534
200126
200475
200433
200032
198306
198102
199949
200392
200348
199867
197918
197754
199788
200304
200256
199709
197602
197466
199634
200212
200164
199561
197337
197221
199491
200119
200071
199422
197109
197007
199357
200027
199979
199292
196907
196816
199230
199937
199890
199169
196727
196644
199111
199849
199804
199052
196562
196486
198998
199764
199720
198942
196411
196341
198891
199682
199639
198838
196271
196206
198789
199603
199562
198738
196140
196079
198692
199527
199487
198644
196017
195959
198600
199454
199416
198553
195900
195845
198512
199384
199347
198467
195790
195738
198427
199316
199280
198384
195684
195635
198346
199250
199216
198305
195584
195536
198268
199188
199154
198228
195487
195441
198193
199127
199094
198155
195393
195349
198121
199068
199037
198084
195303
195260
198052
199011
198981
198015
195215
195174
197985
198956
198927
197949
195130
195089
197920
198903
198875
197885
195047
195007
197857
198852
198825
197824
194965
194926
197796
198803
198777
197764
194885
194846
197738
198756
198730
197706
194806
194769
197681
198710
198686
197649
194729
194692
197625
198666
198643
197595
194652
194615
197572
198624
198602
197542
194575
194538
197520
198584
198563
197491
194498
194461
197470
198545
198526
197441
194420
194382
197422
198509
198490
197394
194341
194302
197376
198475
198457
197349
194260
194220
197332
198443
198426
197307
194177
194136
197291
198413
198398
197266
194092
194049
197252
198387
198373
197228
194003
193957
197215
198363
198351
197192
193908
193860
197180
198343
198332
197159
193808
193757
197148
198326
198318
197128
193702
193647
197119
198314
198308
197101
193588
193528
197094
198307
198302
197076
193463
193397
197070
198303
198301
197053
193325
193252
197048
198304
198303
197032
193172
193090
197028
198310
198311
197012
193000
192908
197009
198320
198322
196992
192804
192697
196987
198331
198333
196967
192577
192453
196960
198342
198344
196935
192314
192169
196923
198351
198350
196892
192006
191836
196872
198353
198345
196830
191643
191440
196797
198342
198324
196739
191211
190970
196690
198311
198283
196614
190701
190418
196543
198256
198214
196445
190105
189777
196350
198171
198114
196226
189419
189047
196105
198054
197982
195956
188646
188236
195810
197905
197817
195637
187800
187357
195467
197725
197623
195272
186897
186428
195088
197520
197410
194878
185946
185461
194684
197298
197178
194464
184971
184488
194255
197061
196932
194025
184010
183541
193806
196813
196678
193570
183080
182631
193345
196557
196417
193105
182189
181760
192875
196294
196151
192635
181341
180937
192404
196028
195881
192165
180542
180162
191935
195758
195607
191699
179792
179438
191474
195485
195331
191241
179095
178767
191021
195210
195055
190794
178449
178146
190581
194933
194778
190361
177852
177574
190154
194657
194502
189941
177303
177047
189741
194382
194228
189536
176798
176564
189343
194109
193956
189145
176335
176121
188962
193840
193688
188775
175914
175723
188601
193562
193419
188430
175549
175362
188266
193305
193333
188277
175403
175694
188464
193503
193613
188597
175808
197253
198308
198630
198708
198674
198547
198439
198177
198007
197614
197360
196819
196451
195699
195161
194038
193286
191064
190241
189311
187370
185156
183425
180604
176717
172582
165184
164299
171610
175787
174835
170708
163536
162910
169975
173977
173281
169457
162492
162422
169336
173157
172822
169092
162307
162315
169068
172852
172598
168853
162215
162237
168873
172631
172418
168696
162134
162149
168708
172445
172226
168527
162042
162053
168533
172248
172025
168348
161942
161947
168349
172043
171814
168158
161830
161829
168151
171825
171589
167954
161706
161699
167941
171597
171353
167737
161569
161554
167715
171353
171102
167504
161416
161395
167475
171096
170836
167255
161248
161219
167215
170821
170553
166985
161063
161026
166941
170531
170253
166694
160859
160812
166641
170220
169929
166381
160632
160576
166320
169889
169586
166045
160381
160313
165970
169534
169217
165681
160103
160025
165596
169157
168826
165289
159796
159703
165189
168752
168403
164865
159456
159352
164753
168322
167953
164409
159081
158961
164280
167859
167469
163919
158671
158538
163779
167372
166959
163397
158220
158069
163237
166850
166409
162833
157726
157562
162664
166300
165838
162242
157195
157007
162052
165716
165218
161602
156611
156414
161412
165101
164593
160953
156007
155785
160742
164459
163915
160259
155354
155131
160058
163795
163250
159572
154700
154460
159359
163128
162535
158872
154055
153855
158698
162441
161933
158307
153560
153412
158134
161836
161382
157740
153142
152934
157496
161187
160613
157059
152580
152351
156821
160444
159976
156346
151887
151631
156129
159839
159486
155747
151165
150777
155498
159413
159220
155107
150202
149748
154870
159277
159236
154463
149115
148489
154133
159429
159265
153590
147761
147167
153334
159434
162388
153364
146869
147071
156359
164773
165663
155997
146421
144756
152718
161817
163219
153232
144647
144439
153979
164901
166299
154387
144130
143859
154775
167394
168692
155257
143612
143450
155880
170050
171729
156384
143298
143020
156198
171680
166785
153238
142408
142417
154414
168822
170602
155713
142433
142397
156338
171717
170498
154922
142104
141414
150366
163797
164425
149542
141311
141146
148541
159843
163665
150338
140981
140964
152913
167592
173753
156348
141024
140726
159425
177833
177420
162307
141230
145214
168828
185224
193381
176825
151330
158141
182885
197973
200146
188305
167622
176165
196713
205337
205604
202132
185365
191047
203134
204563
204058
205326
197567
199833
203561
201413
200730
201154
200424
200461
201140
200729
200683
201028
201062
201171
201271
201046
200619
200643
201369
201522
201373
201532
200997
200916
201717
201734
201449
201639
201213
201120
201733
201650
200945
200994
201159
201099
201741
201763
201094
200992
201130
201219
201836
201879
201345
201230
201241
201421
201924
201991
201584
201412
201448
201676
202029
202039
201761
201484
201649
201863
202031
202013
201873
201576
201615
201900
201988
201964
201910
201554
201596
201970
201919
201849
202031
201661
201693
202027
201776
201746
201941
201679
201723
201943
201688
201628
201893
201745
201714
201840
201616
201569
201815
201743
201735
201753
201508
201453
201704
201714
201707
201711
201436
201407
201687
201727
201634
201498
201273
201344
201540
201674
201672
201519
201215
201078
201490
201610
201579
201150
201024
201168
201585
201611
201625
201465
201092
200794
201443
201429
201616
201513
201168
201036
201477
201594
201543
201412
200906
200835
201023
201493
201565
201519
201022
200930
201374
201564
201346
201378
200600
201030
201447
201589
201558
201381
200901
200548
201302
201326
201584
201453
201020
200904
201399
201567
201334
201258
200542
200964
201443
201576
201575
201414
200875
200680
201306
201485
201398
200816
200570
200796
201433
201521
201525
201287
200743
200315
201273
201243
201557
201347
200829
200610
201305
201480
201400
200817
200546
200817
201431
201549
201532
201335
200647
200506
200786
201365
201529
201402
200729
200667
201254
201522
201209
201250
200210
200706
201452
201541
201499
201198
200604
200049
201205
201131
201642
201172
200862
200503
201084
201408
201607
201464
200799
200650
201290
201567
201250
201142
200213
200798
201417
201604
201563
201355
200611
200451
200836
201387
201564
201432
200701
200560
201232
201535
201198
201170
200075
200701
201340
201590
201512
201308
200442
200335
200626
201352
201457
201508
200484
200194
201084
201320
201596
201420
200674
200550
201265
201568
201195
201140
200037
200590
201345
201568
201490
201166
200412
199813
201092
201085
201587
201182
200572
200199
201026
201329
201597
201436
200615
200450
201221
201547
201158
201038
199912
200467
201279
201549
201456
201208
200243
200160
200523
201294
201420
201472
200330
200045
200989
201301
201556
201351
200505
200305
201147
201487
201050
200978
199696
200421
201200
201529
201277
201011
200039
200497
201357
201578
201498
201191
200318
199760
200895
201102
201493
201207
200331
200079
201124
201398
201195
200381
199937
200157
201369
201364
201238
200838
199864
200288
201291
201491
201419
201016
200093
199449
200803
200931
201322
201305
199955
199694
200877
201149
201486
201246
200263
200045
201031
201406
200922
200811
199405
200068
201021
201399
201070
200773
199609
200153
201184
201436
201357
200950
199953
199299
200778
200892
201408
200961
200039
199507
200723
201037
201412
201164
200115
199853
200911
201324
200804
200631
199181
199859
200945
201308
201003
200666
199432
200031
201109
201376
201279
200865
199748
199075
200553
200757
201264
200848
199782
199266
200564
200916
201304
201034
199882
199620
200775
201221
200707
200505
198981
199675
200795
201227
200851
200490
199144
199788
200952
201252
201135
200754
199427
199114
199977
200744
201048
200856
199489
199082
200309
200836
201154
200883
199603
199358
200670
201095
200618
199843
198920
199331
200767
200987
200746
200194
198901
199475
200826
201097
201014
200473
199198
198445
200131
200416
200993
200512
199226
198659
200176
200595
201028
200688
199344
198991
200474
200907
200429
199624
198559
199038
200612
200809
200549
199951
198536
199165
200629
200923
200852
200270
198891
198043
199852
200182
200799
200283
198892
198239
199896
200357
200844
200473
199032
198643
200262
200724
200175
199314
198127
198654
200347
200604
200337
199681
198178
198788
200382
200724
200604
199996
198471
197596
199487
199919
200549
200027
198434
197811
199598
200126
200630
200238
198661
198259
200019
200521
199908
199021
197666
198242
200074
200371
200022
199324
197646
198342
200097
200460
200365
199705
198032
197101
199128
199623
200305
199757
198053
197345
199269
199854
200385
199968
198265
197876
199765
200301
199522
198583
197037
197706
199677
200052
199695
198941
197085
197895
199809
200199
200112
199404
197563
196600
198697
199319
200011
199450
197603
196866
198931
199593
200096
199696
197886
197320
199297
199937
199129
198306
196334
197316
199323
199790
199758
198960
196969
195873
198331
198887
199728
199068
196997
196165
198488
199183
199777
199296
197294
196777
198996
199669
198628
197758
195535
196525
198788
199369
198909
198096
195819
196924
199081
199587
199495
198740
196452
195398
197650
198577
199318
198851
196536
196229
198434
199319
198182
197450
194709
195832
198282
198997
198328
197507
194855
196101
198491
199064
198987
198182
195562
194608
196993
198150
198898
198362
195790
195430
197950
198912
197693
196802
193944
195079
197847
198523
197748
196750
193928
195234
197942
198581
198511
197532
194835
193608
196526
197534
198463
197717
195087
194519
197523
198425
197335
196094
193418
194047
197148
197934
197091
195959
192855
194278
197283
197989
197908
196874
193774
192715
195666
196981
197902
197258
194252
193710
196868
197946
196712
195476
192398
193129
196474
197350
197138
195897
192362
190998
194479
195917
197077
196244
192802
192282
195802
197126
195899
194645
190797
192991
196230
197023
197084
195902
192178
189521
193339
195006
196221
195219
191445
190729
194634
196105
194819
193431
189230
191482
195166
196219
196345
195038
190698
189397
193322
195019
195513
194374
189945
188866
193517
195144
193530
191697
187196
189559
193927
195054
195145
193574
188765
187577
191947
193998
195042
194461
190768
188180
192955
194619
192304
190364
185678
188195
192692
193863
193910
192275
187462
186104
191011
192849
194084
193502
189788
187872
192762
194173
192619
190654
185173
182880
188369
190605
192326
191088
185952
185090
191151
192829
193032
190859
185146
179976
187291
189604
191209
189343
182951
181844
188882
191155
190591
187856
180557
179030
186340
188815
190128
188077
180770
178332
186912
189613
188806
185780
176848
174935
183506
186889
188972
188033
181699
177028
186414
189110
187461
184736
174706
173803
184607
187388
187589
184084
172493
164282
176274
181331
184089
181305
171615
171223
182348
185398
183695
179306
165695
164146
179128
183126
180892
175689
158489
154921
174391
179686
178336
172250
151045
146489
169731
176223
174362
167455
143798
142360
167038
174801
175247
166511
141549
140453
165637
175178
174583
164295
139478
138713
163332
174318
173834
162285
138262
137942
161605
173658
173088
160695
137685
137492
160061
172766
172060
159172
137291
137181
158550
171614
170804
157704
137059
137069
157177
170329
169552
156468
137075
137220
156116
169166
168447
155564
137333
137558
155343
168101
167430
154897
137726
137996
154776
167139
166503
154425
138198
138537
154364
166239
165663
154093
138759
139148
154119
165458
164933
153919
139384
139799
153997
164800
164339
153850
140036
140462
153985
164278
163862
153879
140691
141114
154042
163871
163511
153969
141333
141747
154169
163589
163270
154120
141952
142347
154331
163384
163119
154306
142539
142913
154538
163268
163036
154528
143089
143442
154761
163216
163022
154764
143602
143933
155011
163225
163053
155023
144078
144388
155266
163276
163129
155287
144520
144809
155536
163367
163233
155562
144928
145198
155802
163482
163369
155833
145305
145558
156077
163622
163518
156111
145656
145893
156345
163772
163685
156382
145982
146204
156618
163939
163856
156657
146286
146495
156882
164108
164036
156921
146570
146767
157146
164286
164215
157185
146836
147023
157399
164461
164398
157437
147086
147262
157650
164639
164575
157684
147320
147487
157887
164811
164753
157917
147540
147698
158119
164984
164922
158145
147745
147896
158336
165148
165091
158358
147938
148080
158549
165312
165251
158567
148118
148253
158745
165466
165409
158759
148286
148414
158936
165619
165557
158946
148442
148563
159111
165762
165702
159116
148585
148700
159282
165902
165837
159282
148719
148828
159437
166031
165968
159432
148840
148944
159588
166158
166089
159578
148952
149050
159722
166273
166206
159709
149053
149146
159855
166386
166314
159837
149146
149234
159972
166490
166421
159951
149230
149314
160089
166593
166517
160063
149307
149387
160191
166686
166613
160163
149376
149453
160293
166778
166699
160261
149440
149514
160382
166861
166785
160347
149497
149569
160471
166943
166861
160433
149550
149619
160548
167016
166937
160507
149598
149664
160625
167089
167005
160582
149642
149706
160692
167154
167072
160646
149682
149744
160759
167218
167130
160711
149718
149779
160816
167274
167189
160766
149751
149810
160874
167329
167239
160821
149781
149839
160922
167377
167290
160867
149808
149865
160972
167425
167333
160915
149833
149888
161012
167466
167376
160954
149856
149909
161055
167507
167413
160995
149876
149929
161089
167542
167451
161028
149895
149947
161126
167578
167482
161064
149912
149963
161155
167608
167515
161091
149927
149978
161187
167639
167541
161122
149941
149991
161211
167665
167570
161146
149954
150003
161240
167692
167593
161173
149966
150014
161260
167714
167618
161193
149976
150024
161285
167737
167637
161216
149985
150033
161301
167756
167659
161232
149993
150040
161323
167776
167675
161253
150000
150046
161336
167792
167694
161266
150006
150051
161355
167809
167707
161283
150010
150055
161365
167822
167722
161293
150014
150058
161380
167836
167733
161307
150016
150060
161388
167846
167746
161314
150018
150062
161401
167858
167753
161326
150019
150062
161406
167866
167765
161331
150019
150062
161417
167876
167770
161341
150019
150061
161420
167881
167779
161345
150017
150060
161429
167889
167783
161353
150015
150057
161430
167893
167791
161354
150012
150054
161437
167900
167793
161360
150009
150050
161437
167902
167798
161359
150004
150045
161442
167906
167798
161363
149999
150039
161439
167906
167802
161361
149993
150033
161443
167910
167802
161364
149986
150026
161439
167909
167804
161360
149979
150018
161442
167911
167802
161362
149971
150010
161437
167909
167804
161357
149962
150001
161438
167910
167801
161358
149953
149991
161432
167907
167802
161351
149943
149981
161431
167907
167797
161350
149932
149970
161424
167903
167797
161343
149921
149959
161423
167902
167792
161341
149909
149947
161414
167897
167790
161332
149896
149933
161411
167895
167784
161329
149883
149921
161408
167890
167783
161326
149869
149920
161400
167890
167785
161320
149870
149910
161403
167896
167795
161323
149855
149925
161435
167946
167874
161388
149871
150037
161606
168199
168440
161771
150150
150679
162433
169373
170545
163369
151433
152423
164561
171848
173022
165745
153463
180052
184134
185941
188538
190396
191139
192001
193870
195006
196271
197193
197856
198350
198705
198961
199148
199288
199394
199475
199540
199589
199628
199657
199690
199697
199736
199702
199775
199727
199829
199812
199516
199463
199460
199495
199504
199535
199550
199580
199600
199630
199652
199681
199703
199729
199748
199768
199780
199789
199789
199784
199771
199754
199733
199713
199692
199672
199652
199634
199615
199597
199580
199564
199550
199539
199533
199533
199540
199556
199581
199614
199656
199704
199759
199816
199875
199933
199988
200039
200083
200121
200151
200175
200191
200200
200203
200200
200193
200181
200166
200148
200128
200106
200084
200060
200036
200012
199989
199965
199943
199921
199901
199881
199863
199845
199829
199814
199800
199787
199776
199765
199756
199747
199740
199734
199729
199725
199721
199719
199718
199717
199718
199719
199721
199724
199728
199732
199738
199744
199751
199759
199768
199777
199788
199799
199811
199824
199837
199851
199866
199882
199898
199915
199932
199951
199969
199989
200010
200032
200055
200080
200107
200135
200163
200190
200217
200248
200284
200320
200342
200352
200356
200357
200358
200358
200359
200360
200360
200360
200361
200361
200361
200361
200361
200362
200362
200362
200362
200362
200362
200362
200362
200362
200362
200362
200362
200362
200362
200362
200362
200361
200360
200359
200358
200358
200358
200359
200359
200359
200359
200359
200359
200360
200360
200361
200361
200361
200361
200361
200361
200360
200360
200359
200359
200359
200358
200357
200357
200356
200355
200356
200359
200362
200365
200365
200365
200364
200363
200363
200362
200362
200362
200362
200362
200362
200365
200375
200410
200533
200661
200675
200645
200634
200621
200603
200584
200562
200539
200514
200489
200462
200436
200408
200381
200353
200326
200298
200272
200244
200218
200190
200165
200138
200113
200087
200063
200037
200014
199989
199967
199942
199921
199897
199876
199853
199833
199810
199791
199769
199750
199728
199710
199689
199672
199651
199634
199614
199598
199578
199562
199543
199528
199509
199495
199476
199463
199445
199432
199414
199402
199385
199374
199357
199347
199331
199322
199307
199299
199285
199279
199265
199260
199248
199245
199233
199232
199222
199223
199215
199219
199211
199218
199212
199221
199216
199230
199228
199244
199241
199259
199256
199278
199274
199296
199292
199313
199306
199326
199313
199330
199314
199324
199302
199303
199275
199268
199231
199214
199167
199138
199085
199049
198991
198947
198885
198837
198772
198723
198660
198609
198546
198493
198429
198375
198310
198254
198189
198133
198068
198011
197946
197888
197823
197765
197699
197641
197575
197516
197449
197391
197319
197260
197185
197136
197127
197160
198284
198287
198649
198637
198719
198732
198763
198661
198297
198315
198667
198718
198370
198394
198726
198807
198858
198777
198447
198470
198783
198832
198521
198545
198838
198903
198948
198886
198594
198620
198894
198940
198669
198695
198950
198991
199032
198996
198745
198771
199008
199054
198821
198849
199068
199076
199125
199116
198900
198929
199130
199180
198981
199011
199193
199178
199233
199247
199065
199095
199260
199315
199149
199179
199326
199287
199339
199382
199233
199263
199392
199452
199318
199349
199462
199393
199468
199526
199403
199432
199532
199606
199487
199512
199603
199568
199674
199692
199563
199578
199679
199774
199624
199629
199737
199785
199890
199830
199677
199673
199775
199864
199714
199693
199789
199973
200025
199870
199726
199686
199778
199846
199714
199663
199747
200039
200020
199801
199686
199629
199705
199743
199653
199596
199654
199978
199912
199684
199617
199566
199610
199630
199587
199540
199575
199840
199775
199587
199563
199526
199547
199557
199543
199515
199533
199718
199672
199543
199531
199510
199536
199545
199525
199507
199543
199639
199618
199548
199522
199509
199555
199560
199525
199516
199573
199611
199618
199579
199532
199526
199593
199599
199541
199537
199612
199631
199644
199619
199552
199550
199632
199641
199567
199567
199654
199661
199686
199665
199584
199586
199678
199691
199603
199606
199703
199714
199744
199716
199623
199627
199727
199742
199645
199650
199752
199773
199802
199768
199668
199674
199777
199794
199692
199699
199803
199830
199858
199821
199717
199725
199829
199848
199743
199751
199855
199886
199913
199874
199770
199778
199882
199901
199797
199806
199908
199940
199967
199928
199825
199834
199935
199955
199854
199863
199962
199994
200020
199982
199883
199893
199989
200009
199912
199923
200017
200047
200073
200037
199943
199953
200044
200064
199973
199985
200072
200099
200126
200092
200005
200017
200101
200120
200037
200050
200129
200152
200179
200149
200070
200083
200159
200178
200104
200118
200189
200205
200233
200208
200139
200153
200219
200238
200174
200190
200250
200260
200288
200269
200211
200227
200282
200301
200248
200265
200315
200317
200346
200333
200287
200304
200349
200367
200326
200344
200384
200375
200405
200401
200366
200386
200419
200436
200408
200427
200455
200436
200468
200472
200449
200469
200491
200508
200491
200511
200529
200502
200537
200545
200533
200553
200566
200582
200573
200593
200603
200573
200608
200619
200613
200630
200638
200651
200648
200662
200669
200617
200608
200671
200676
200682
200677
200461
200505
200510
200508
200490
200456
200423
200391
200361
200333
200305
200278
200251
200224
200197
200171
200145
200118
200092
200065
200038
200011
199983
199955
199925
199896
199865
199833
199800
199767
199732
199700
199673
199646
199620
199601
199592
199594
199606
199627
199659
199704
199763
199836
199923
200024
200128
200226
200322
200379
200381
200323
200216
200080
199939
199806
199695
199604
199507
199402
199296
199195
199106
199031
198959
198890
198826
198765
198706
198644
198585
198573
198707
198689
198561
198469
198498
198207
198195
198032
198057
198171
197563
197642
197630
197383
197412
196839
196834
196474
196511
196708
195493
195692
195699
195180
195229
193923
193980
193245
193287
193603
189982
190505
190777
189996
189926
188603
188666
185806
183864
183690
183661
184126
182785
182494
179216
179785
178617
182220
181577
178063
178118
181772
183207
188404
187957
182603
181451
181168
177783
177859
177577
181010
181317
182565
188139
189769
193573
195538
196768
197630
198238
198304
197697
196828
195585
195632
196888
197765
198369
198437
197837
197913
198506
198579
197995
197089
197019
196952
195678
195728
195783
195828
197161
198083
198660
198757
198182
198307
198868
199000
198466
197515
197358
197245
195867
195946
196069
196206
197720
198663
199149
199303
198889
199116
199435
199528
199291
198613
198294
197983
196414
196730
197119
194502
194181
193965
193762
193615
193645
193680
193687
193676
193656
193634
193607
193583
189707
188050
187750
182293
182303
182072
187682
188003
189701
189720
189736
189762
187915
187552
187939
187590
187969
187632
181853
182087
180782
180444
180878
180558
181040
180713
181139
180830
177401
177666
177493
177220
177308
177024
177114
176841
176927
176629
180284
180616
180168
176430
176717
176514
180519
181875
181632
180347
180001
176200
176287
175983
179881
180249
181664
181411
181455
181191
187516
187894
189795
189827
189862
189896
187783
187323
187835
187409
187868
187467
180975
181251
179696
179286
179792
179409
179974
179587
180072
179709
175733
176065
175818
175496
175576
175222
175306
174962
175042
174663
179104
179510
178983
174379
174748
174460
179420
181054
180769
179235
178798
174051
174140
173739
178684
179155
180866
180589
180703
180446
187224
187712
189950
190073
190338
190755
187700
187006
187510
186922
187597
187061
180343
180582
178686
178128
178730
178209
178911
178401
178973
178499
173378
173824
173474
173038
173129
172636
172741
172261
172359
171805
177926
178512
177853
171383
171923
171497
178487
180518
180322
178326
177646
170865
171008
170385
177577
178333
180560
180569
180975
181121
187238
187931
191164
194960
197549
198876
199414
199631
199775
199586
199815
199947
200132
200082
199805
199412
199105
197976
198416
198991
199718
200244
200348
200298
200408
200547
200625
200436
200382
200569
200812
200843
200633
200480
201028
201106
200860
200624
200429
200277
200147
200261
200099
200023
199912
199961
200017
200184
200399
200584
200285
200083
199932
199885
199847
199818
199742
199759
199693
199684
199641
199645
199662
199713
199786
199821
199743
199690
199728
199782
199861
199979
200144
200383
200793
201001
201277
200793
199508
198123
197010
196148
195486
191632
192311
193378
189548
188527
188573
187786
188170
187480
181760
181522
178693
177792
178545
177657
178429
177546
178255
177433
169840
170537
170054
169484
169665
169046
169176
168482
168593
167908
177838
178793
177918
167299
167999
167376
178934
182285
182647
178973
177922
166714
166777
166060
177635
178782
183293
184017
185532
187004
190021
191092
194784
196547
199003
201256
201250
197067
194900
193332
192663
191582
189258
188211
184709
183133
182850
180310
178150
176997
178493
177166
165381
165981
168663
169797
172069
174751
177881
179121
173268
171444
169424
174914
180665
181363
184694
185918
186210
183239
182592
177494
176058
178677
180275
184241
187229
190660
192248
189989
188349
185516
187397
188501
191173
192844
193976
195886
196055
192491
188114
187246
186502
185000
181890
177041
179719
182013
183101
183444
189759
193456
195128
197495
197569
198317
197657
198041
198217
196890
196673
193854
189126
186236
183470
178249
176281
171005
174803
178444
183152
189100
184873
191121
194449
197653
199036
199771
199427
200683
200491
200959
196486
201948
203881
200978
202118
200875
200326
198493
198708
199497
197575
200952
199130
199752
200791
200910
200438
200182
200194
200434
200847
200995
198359
199648
199950
198278
199123
200206
197600
199789
200706
201943
200510
199495
198648
200863
200517
200309
200444
203527
203302
200871
200714
200736
200741
200692
200842
200791
200552
200481
200783
200671
200868
201148
201174
201436
201390
201401
201244
201137
201142
201327
201260
201337
201507
201456
201387
201233
201339
201229
201042
201062
201162
201057
201182
201309
201192
201169
200874
200880
200717
200884
201128
200696
201112
200860
201178
201213
201128
201068
200779
201047
201218
200970
200908
200990
201439
201490
201449
201452
201655
201404
201564
201424
201543
201549
201617
201491
201651
201695
201570
201682
201688
201695
201636
201710
201686
201655
201688
201690
201647
201659
201686
201648
201659
201688
201666
201607
201650
201668
201621
201655
201672
201616
201659
201682
201618
201665
201701
201670
201576
201663
201678
201604
201695
201689
201600
201698
201701
201596
201710
201713
201617
201725
201709
201597
201720
201687
201758
201750
201649
201743
201764
201658
201765
201746
201637
201752
201754
201618
201745
201665
201766
201768
201641
201767
201743
201589
201742
201688
201788
201770
201622
201753
201745
201612
201748
201648
201765
201734
201575
201728
201679
201756
201737
201574
201728
201715
201553
201706
201598
201730
201691
201490
201673
201597
201723
201697
201484
201654
201545
201675
201648
201467
201631
201518
201673
201636
201407
201593
201495
201620
201584
201354
201547
201423
201586
201553
201337
201505
201382
201524
201494
201238
201454
201310
201499
201464
201191
201407
201250
201421
201377
201109
201325
201190
201374
201323
201025
201265
201092
201284
201241
200934
201177
201010
201237
201181
200846
201117
200924
201132
201058
200716
201000
200824
201061
201004
200626
200922
200675
200927
200859
200489
200799
200608
200873
200809
200337
200703
200438
200707
200650
200237
200582
200368
200647
200514
200044
200441
200388
199955
200329
200065
200384
200266
199673
200162
199880
200188
200120
199625
200067
199992
199372
199846
199386
199849
199785
199246
199759
199675
198978
199552
198966
199492
199385
198851
199377
199309
198573
199186
198450
199059
198947
198362
198982
198902
198146
198814
198403
197579
198428
198387
197672
198365
198161
196952
197899
197579
196804
197677
197738
196771
197731
196918
195777
196857
196846
196008
197168
196382
194788
196071
195897
195068
196460
196012
194887
193359
194834
194843
194823
193082
194973
194111
193544
192405
194191
192938
192173
190913
193994
192938
191612
190932
190823
187287
190625
189400
188043
187337
185625
184616
183492
182242
180483
180710
181252
181543
181427
181804
181753
182148
182028
182281
182018
182130
181765
181866
181493
181677
181314
181511
181120
181327
180914
181110
180677
180875
180432
180626
180176