/*--------------------------------*- C++ -*----------------------------------*\
| =========                 |                                                 |
| \\      /  F ield         | OpenFOAM: The Open Source CFD Toolbox           |
|  \\    /   O peration     | Version:  v2006                                 |
|   \\  /    A nd           | Website:  www.openfoam.com                      |
|    \\/     M anipulation  |                                                 |
\*---------------------------------------------------------------------------*/
FoamFile
{
    version     2.0;
    format      ascii;
    class       volScalarField;
    location    "0.012";
    object      k;
}
// * * * * * * * * * * * * * * * * * * * * * * * * * * * * * * * * * * * * * //

dimensions      [0 2 -2 0 0 0 0];


internalField   nonuniform List<scalar> 
11076
(
417.844
417.844
417.844
417.844
417.844
417.844
417.844
417.843
417.842
417.839
417.831
417.814
417.781
417.722
417.628
417.5
417.347
417.19
417.052
416.944
416.87
416.821
416.79
416.769
416.754
416.742
416.731
416.722
416.714
416.708
416.704
416.705
416.709
416.717
416.729
416.743
416.759
416.776
416.795
416.816
416.844
416.884
416.948
417.054
417.225
417.473
417.783
418.115
418.416
418.648
418.801
418.889
418.937
418.965
418.984
418.997
419.006
419.013
419.019
419.023
419.024
419.018
418.988
418.857
418.598
418.062
417.016
415.538
413.567
409.586
402.632
361.32
313.948
382.495
404.127
392.487
354.99
277.257
249.999
332.349
379.758
365.283
309.281
228.018
212.5
292.937
352.92
339.26
275.263
199.155
189.649
263.475
329.219
317.501
250.947
180.953
175.206
243.714
309.95
300.03
234.023
169.193
165.465
229.476
294.48
286.131
221.944
161.076
158.502
218.878
281.808
274.622
212.779
155.146
153.25
210.521
271.146
264.833
205.48
150.582
149.105
203.656
261.957
256.31
199.399
146.906
145.709
197.869
253.877
248.758
194.165
143.837
142.832
192.84
246.637
241.971
189.546
141.198
140.331
188.375
240.062
235.796
185.402
138.876
138.113
184.355
234.055
230.121
181.644
136.801
136.12
180.7
228.523
224.874
178.21
134.926
134.312
177.353
223.4
219.999
175.054
133.218
132.662
174.272
218.633
215.451
172.141
131.655
131.15
171.426
214.18
211.196
169.444
130.222
129.763
168.788
210.011
207.206
166.941
128.906
128.49
166.339
206.099
203.458
164.615
127.7
127.324
164.063
202.422
199.933
162.453
126.598
126.259
161.947
198.964
196.616
160.444
125.595
125.292
159.981
195.709
193.495
158.578
124.69
124.422
158.157
192.649
190.566
156.852
123.883
123.648
156.471
189.778
187.822
155.262
123.174
122.974
154.922
187.091
185.258
153.809
122.567
122.404
153.509
184.582
182.868
152.49
122.068
121.944
152.221
182.245
180.645
151.278
121.683
121.6
151.037
180.07
178.575
150.162
121.415
121.372
149.95
178.047
176.651
149.145
121.266
121.269
148.962
176.169
174.872
148.228
121.263
121.308
148.078
174.434
173.236
147.417
121.357
121.496
147.301
172.844
171.746
146.718
121.604
121.85
146.64
171.402
170.405
146.138
122.023
122.379
146.1
170.11
169.217
145.686
122.647
123.106
145.689
168.974
168.191
145.384
123.493
124.062
145.421
168.004
167.337
145.223
124.58
125.28
145.297
167.208
166.665
145.217
125.938
126.798
145.36
166.602
166.188
145.335
127.606
128.644
145.595
166.192
165.943
145.637
129.623
130.862
146.019
166.002
165.919
146.143
132.036
133.507
146.675
166.074
166.078
146.878
134.906
136.643
147.564
166.396
166.498
147.855
138.299
140.335
148.714
167.006
167.203
149.101
142.281
144.649
150.147
167.894
168.191
150.634
146.919
149.653
151.881
169.078
169.484
152.48
152.287
155.428
153.951
170.585
171.098
154.68
158.447
162.013
156.406
172.395
172.999
157.266
165.461
169.481
159.245
174.464
175.145
160.236
173.391
177.886
162.465
176.729
177.456
163.577
182.286
187.262
166.041
179.111
179.85
167.273
192.164
197.615
169.955
181.515
182.237
171.292
203.002
208.882
174.166
183.861
184.564
175.611
214.706
220.945
178.684
186.145
186.836
180.242
227.122
233.613
183.538
188.379
189.073
185.233
240.018
246.612
188.793
190.617
191.333
190.646
253.078
259.59
194.438
192.911
193.664
196.59
265.929
272.169
200.438
195.265
196.057
203.15
278.132
283.929
206.863
197.682
198.498
209.782
289.335
294.475
213.484
200.123
200.956
216.543
299.139
303.437
220.3
202.579
203.438
223.477
307.209
310.598
227.217
205.069
205.954
230.432
313.508
316.039
234.069
207.585
208.495
237.278
318.141
319.896
240.767
210.114
211.08
243.947
321.3
322.371
247.263
212.657
213.69
250.41
323.174
323.661
253.545
215.211
216.291
256.621
323.966
323.948
259.587
217.766
218.866
262.557
323.825
323.545
265.366
220.306
221.407
268.209
323.061
322.484
270.885
222.811
223.905
273.549
321.758
321.011
276.125
225.285
226.344
278.594
320.115
319.276
281.095
227.721
228.728
283.327
318.267
317.402
285.8
230.114
231.052
287.743
316.325
315.495
290.255
232.442
233.335
291.804
314.384
313.628
294.385
234.773
235.551
295.608
312.601
311.95
298.141
236.823
237.467
297.91
311.241
310.688
295.693
238.096
238.998
294.905
309.938
247.897
284.7
319.367
349.455
368.587
391.217
406.49
419.809
429.555
437.8
443.892
448.786
452.129
454.037
454.101
451.442
445.034
424.158
407.513
391.048
348.734
306.652
282.118
280.77
281.125
293.891
254.411
250.185
293.775
283.058
283.284
294.279
246.21
241.431
294.264
282.742
283.26
294.673
238.496
237.863
294.837
284.342
284.201
293.906
237.147
237.277
294.444
286.613
286.818
293.993
236.263
236.673
295.574
289.063
289.347
295.102
235.615
236.038
296.693
291.651
291.94
296.222
234.981
235.429
297.984
294.428
294.753
297.518
234.354
234.82
299.445
297.442
297.786
298.977
233.706
234.189
301.088
300.705
301.105
300.632
233.023
233.522
302.967
304.274
304.715
302.526
232.315
232.837
305.084
308.183
308.701
304.644
231.608
232.159
307.469
312.483
313.061
306.999
230.869
231.446
310.062
317.176
317.888
309.551
230.139
230.735
313.122
322.276
323.061
312.62
229.349
230.009
316.451
327.8
328.712
315.918
228.566
229.275
320.161
333.786
334.758
319.639
227.747
228.502
324.215
340.171
341.27
323.652
226.886
227.706
328.59
347.035
348.172
328.003
226.007
226.894
333.28
354.204
355.396
332.665
225.057
226.006
338.235
361.725
362.922
337.57
224.078
225.077
343.456
369.426
370.651
342.749
222.947
223.992
348.773
377.352
378.506
347.95
221.691
222.751
353.947
385.128
386.158
352.982
220.223
221.293
358.833
392.69
393.477
357.649
218.563
219.638
362.971
399.528
399.981
361.466
216.855
217.974
366.374
405.578
405.581
364.552
215.288
216.495
368.708
410.563
410.212
366.511
214.444
216.033
370.203
414.624
413.923
367.597
214.56
216.967
370.596
417.24
416
367.152
216.052
218.801
371.175
419.906
418.576
367.699
217.325
219.013
375.121
424.684
423.772
371.43
215.826
216.477
380.736
429.147
428.24
378.083
213.353
214.487
392.24
434.375
433.694
390.763
210.406
211.923
409.983
439.002
439.043
412.087
206.677
206.938
431.489
442.606
442.195
435.75
198.129
196.407
450.635
444.292
444.025
451.888
185.197
179.523
451.135
444.217
440.014
440.207
176.489
177.847
434.161
447.641
455.766
432.71
187.59
208.561
527.965
454.39
436.521
495.453
202.32
158.913
486.546
472.541
447.294
478.578
170.31
176.182
484.899
438.323
420.089
476.413
185.38
196.177
466.257
412.063
398.275
456.429
207.604
221.246
447.81
391.364
385.972
437.324
235.848
252.031
423.732
389.167
396.196
420.747
256.537
282.186
416.883
387.214
386.249
416.086
295.099
315.998
413.676
385.253
388.231
413.269
330.809
347.427
415.152
399.709
395.15
406.94
370.738
387.455
406.792
405.531
396.25
404.706
402.533
411.607
399.079
393.185
392.671
396.49
414.636
415.202
396.624
403.51
405.397
402.321
409.266
402.484
410.886
419.723
456.04
418.756
397.092
392.854
426.618
486.943
485.881
429.466
392.724
401.649
447.955
526.497
533.119
472.618
413.702
429.714
489.11
516.438
501.568
505.056
444.828
463.108
504.556
478.736
483.328
497.857
472.843
484.408
499.77
485.174
488.935
504.605
493.671
505.686
515.383
495.754
508.284
531.505
516.411
528.801
565.326
522.356
552.624
609.818
535.494
536.068
655.99
589.77
645.807
696.447
525.009
497.651
711.848
702.995
717.659
711.222
471.746
444.84
702.935
719.71
714.964
684.208
407.778
382.623
662.584
707.745
694.634
637.283
357.584
332.288
609.009
672.627
666.692
592.121
311.185
291.711
568.405
650.608
620.398
547.195
274.331
270.707
541.385
620.932
609.91
530.815
264.75
266.195
528.18
607.773
588.913
503.575
252.34
233.146
465.95
554.303
515.077
419.688
207.254
204.457
419.283
516.757
505.437
405.404
196.987
180.04
367.473
463.445
471.2
374.259
181.486
177.009
357.668
456.658
426.959
326.292
162.97
148.345
277.673
376.871
394.408
288.414
141.261
141.289
281.79
381.863
304.245
170.015
117.156
111.457
172.069
331.99
278.75
152.973
96.9902
86.2973
137.308
243.448
146.262
92.9716
69.8744
96.9971
165.286
224.003
219.977
151.092
90.3827
78.6719
96.5403
142.248
224.084
169.161
102.966
94.3081
144.863
209.477
192.007
126.261
86.0217
72.0519
84.4452
120.2
193.441
142.534
91.8875
86.6233
129.868
189.144
119.061
86.2923
78.2778
93.8467
140.458
188.548
181.371
126.698
87.9447
78.6646
84.5532
113.587
180.514
134.028
92.161
87.1554
121.275
173.391
108.864
83.1144
79.0663
92.8119
132.653
175.873
163.113
113.969
87.6974
82.7318
99.239
146.223
91.4
72.3225
72.7866
82.8387
108.098
146.431
141.941
98.4859
80.2736
77.713
71.537
87.8835
142.12
106.288
84.809
81.4399
95.8685
135.215
86.5738
71.3763
73.9452
81.5022
100.715
134.967
128.725
91.838
80.1024
75.6953
70.6517
83.2716
129.36
97.5305
82.1785
80.7217
89.0543
122.155
78.2723
68.1298
80.6344
84.1195
91.5201
123.79
116.046
84.6099
80.4696
81.058
65.7125
74.1547
111.272
88.9755
80.0038
78.0844
74.5139
82.461
125.042
94.565
83.2794
82.6642
86.4809
114.99
75.9696
69.243
82.6712
84.591
89.063
118.482
108.852
83.4296
83.7941
81.0437
69.3697
74.4363
112.499
85.5741
83.1524
83.4991
80.1656
103.944
70.6892
67.021
85.8712
83.6048
81.6274
105.794
97.5485
76.9311
83.7453
81.5144
67.1075
70.9013
96.5656
79.2698
82.2665
84.7534
66.3126
72.519
105.616
80.1498
83.3176
84.2596
75.2661
95.4649
67.6876
65.9946
88.4061
83.0624
75.713
95.0989
88.1654
71.3216
84.0302
90.0454
62.8467
64.1524
85.3723
70.8978
81.4454
83.7377
64.6383
67.0373
95.6367
74.4122
80.6736
83.0764
69.9039
87.1581
63.7724
63.4956
89.2814
82.8466
71.534
88.1834
81.0192
67.7435
84.9561
86.4286
64.589
64.3912
81.0111
69.5062
80.4799
87.4609
62.4082
64.8226
89.6132
70.8349
82.0192
85.1777
67.0204
80.0796
62.9376
63.0567
93.5587
84.1939
66.568
77.8555
63.8756
63.655
89.5013
82.6925
70.3966
87.0067
78.5996
66.4981
85.8449
93.1872
63.0736
61.7822
79.4261
66.7973
83.6243
87.244
64.4265
73.4008
61.4146
65.992
92.776
82.371
64.5429
72.4574
61.3496
61.4296
91.2141
83.0943
65.2333
79.4141
71.3472
63.5105
88.125
98.7752
62.1668
59.7385
70.641
62.0973
86.7142
95.6196
61.0961
60.5413
73.5551
62.257
84.0095
88.4181
61.4672
67.1227
57.3551
61.03
98.4347
85.378
60.2303
66.5359
57.4721
60.6673
93.074
82.8729
61.8349
72.6749
66.0766
61.0387
88.9397
101.112
62.0479
57.7282
64.7084
59.6873
87.9982
96.7914
61.8856
57.7718
68.2661
60.4176
84.5348
90.9973
59.2296
62.6144
57.3383
64.8543
103.262
89.1115
58.3842
63.8521
57.3388
62.5028
98.9061
86.2454
60.3327
67.867
61.8446
58.981
93.1704
106.152
66.7861
57.5658
62.0751
57.5664
90.8057
101.467
63.8132
56.9624
64.088
59.0549
87.8759
95.2297
57.7966
59.2116
57.04
68.5028
108.707
92.2713
56.7457
60.5614
56.4856
64.8478
103.929
89.7091
58.9827
63.0077
58.642
58.1694
97.358
109.879
72.4332
57.4745
59.6658
58.76
92.3517
106.442
65.8479
56.0944
61.336
58.4629
90.9177
99.4731
58.0014
57.337
57.71
74.5028
113.315
95.3045
58.7306
58.7798
56.3156
67.8567
110.637
94.2431
59.3029
61.3606
57.1112
58.6715
103.812
121.118
75.9594
58.0418
57.4751
56.311
100.505
115.361
69.5013
55.9391
59.247
58.8464
97.0992
106.4
58.9595
55.7663
57.8073
79.451
121.666
101.037
58.7052
57.2086
55.7701
70.3505
118.109
98.8741
58.7267
59.2884
55.2735
58.617
109.402
128.97
80.3929
58.0502
55.4095
55.7497
105.611
123.027
72.0349
55.3869
57.9245
58.3421
102.192
112.77
59.0777
54.677
58.3941
84.125
130.43
106.615
58.694
55.9018
56.1167
74.1283
125.874
104.391
59.0803
58.7026
54.9439
59.6293
116.36
138.29
85.6733
58.9841
55.8678
57.248
112.333
131.911
75.6224
56.4179
58.2117
59.1492
108.326
120.11
60.4046
55.0142
59.9141
89.0948
140.166
114.229
60.0831
56.8079
57.772
78.6898
135.786
111.937
60.7187
59.7651
56.0322
61.5628
124.916
148.789
92.368
61.3308
57.5937
59.8095
120.095
141.969
80.7309
58.6883
59.9222
61.3924
115.874
128.798
62.9335
56.6991
62.7137
95.7385
151.706
122.901
63.0012
59.0742
60.6159
84.4657
146.476
120.056
63.3945
61.975
58.2917
64.8624
134.313
159.976
99.3866
64.5948
60.3232
63.4404
129.052
153.16
86.5762
61.7969
62.7538
64.6782
123.712
138.117
66.2523
59.3455
64.6447
100.359
164.056
132.356
67.8946
63.3855
60.3213
68.8943
148.478
179.055
108.66
68.0927
62.8836
66.243
142.045
168.818
93.8273
65.1266
65.3368
67.9094
135.765
151.78
69.8324
61.6792
70.2935
112.514
181.181
144.441
69.6398
64.6536
67.0028
96.3983
172.203
138.653
69.6877
67.173
63.5888
72.1654
154.837
183.583
112.337
70.4263
67.8119
73.7631
147.78
165.938
73.914
64.5772
74.7245
122.016
201.657
158.984
72.671
67.9903
71.3728
104.775
191.225
152.685
73.7437
70.4064
66.7213
76.7276
170.44
201.589
122.294
75.2337
70.7629
77.994
160.586
180.25
78.5481
67.5979
79.2115
131.044
218.317
171.044
77.2494
71.5018
75.5782
112.757
206.463
163.81
77.7972
73.9247
70.1388
80.7985
183.196
217.832
131.3
79.5734
74.9036
82.3124
173.173
194.768
84.4205
71.6602
84.5113
139.915
233.673
183.63
82.5905
75.8879
81.1621
123.195
221.817
176.457
83.2749
78.3204
74.5132
86.3669
197.408
234.957
140.88
85.3024
79.286
88.1048
185.599
208.511
89.7652
76.1143
88.2538
147.875
251.936
196.926
90.3657
81.006
77.5549
91.7776
221.514
267.953
154.647
91.1203
82.5239
92.7444
207.76
232.864
94.7749
79.5162
94.851
162.56
279.881
217.473
95.8793
84.335
80.5441
95.5142
242.742
295.381
169.732
97.8872
85.6385
98.0639
226.831
254.985
99.962
82.4374
100.748
175.52
306.877
236.681
100.514
87.6705
84.0047
102.422
265.546
318.222
181.382
103.358
88.8094
102.148
243.515
274.626
104.627
85.3529
106.42
188.274
333.306
254.744
105.915
90.8274
87.6578
107.704
284.583
341.485
194.109
109.439
93.0342
107.354
257.269
288.973
110.577
89.4797
112.424
201.713
355.066
270.07
112.025
95.2276
92.0743
113.1
302.495
364.549
201.831
112.69
97.3295
112.813
276.06
300.193
120.941
93.5469
91.7385
132.348
345.196
421.579
237.672
126.428
100.467
122.651
315.222
354.14
135.743
96.2801
93.5724
131.217
392.333
472.786
259.262
133.916
102.252
127.615
346.067
381.756
137.541
97.6436
95.7069
146.903
436.411
523.468
281.826
141.93
105.596
133.954
384.228
425.749
147.663
100.412
97.2745
149.842
479.363
572.801
291.773
142.355
105.524
134.115
398.396
441.307
141.643
100.784
96.7899
147.752
487.745
558.237
181.409
98.0874
93.8514
172.367
601.106
726.426
371.872
165.148
108.904
154.418
499.639
558.76
142.468
102.394
102.265
190.294
610.797
685.619
177.583
99.141
99.0125
208.982
741.845
818.579
202.268
96.9422
96.5352
219.204
865.715
912.365
215.438
93.8745
94.8004
228.393
923.408
910.644
231.81
93.9235
96.7742
254.163
882.993
831.513
258.635
96.4158
101.477
282.748
777.399
722.021
290.101
101.539
108.338
318.426
669.271
619.374
326.164
108.678
117.215
351.943
575.858
537.465
361.062
118.283
128.572
380.971
504.9
477.137
395.045
130.576
145.131
407.096
452.725
431.755
421.086
148.558
166.623
429.28
412.398
395.794
441.346
170.021
188.78
448.343
380.203
367.701
459.15
192.461
211.567
464.747
355.592
347.196
474.066
215.108
234.404
478.48
337.705
333.475
485.486
238.396
258.063
488.405
326.202
324.647
492.659
261.811
281.439
494.483
319.365
319.104
496.873
284.753
303.033
497.289
315.793
316.206
498.133
305.378
322.045
497.479
314.098
314.937
497.425
323.697
338.475
496.483
313.642
314.75
495.491
338.995
351.918
493.893
313.879
315.37
492.765
351.952
362.713
490.521
314.6
316.303
489.18
362.221
371.347
486.5
315.61
317.408
485.209
370.523
378.005
482.305
316.775
318.572
480.973
376.822
383.038
477.983
317.977
319.743
476.785
381.655
386.627
473.807
319.185
320.887
472.644
385.025
389.088
469.751
320.356
322.007
468.75
387.402
390.599
465.981
321.507
323.097
465.04
388.807
391.415
462.432
322.622
324.167
461.64
389.619
391.724
459.194
323.721
325.218
458.458
389.844
391.689
456.198
324.797
326.27
455.591
389.772
391.345
453.476
325.877
327.329
452.904
389.317
390.688
450.951
326.956
328.382
450.479
388.631
389.845
448.637
328.031
329.433
448.176
387.701
388.763
446.468
329.096
330.464
446.084
386.612
387.53
444.457
330.142
331.472
444.063
385.344
386.155
442.527
331.159
332.449
442.2
384.018
384.726
440.732
332.145
333.394
440.386
382.569
383.206
438.992
333.095
334.303
438.701
381.03
381.604
437.354
334.012
335.179
437.03
379.365
379.909
435.732
334.89
336.01
435.453
377.66
378.175
434.194
335.724
336.801
433.878
375.907
376.421
432.665
336.512
337.538
432.398
374.205
374.703
431.23
337.251
338.222
430.936
372.505
373.012
429.823
337.931
338.857
429.584
370.875
371.378
428.524
338.567
339.443
428.262
369.27
369.795
427.267
339.151
339.987
427.067
367.772
368.296
426.135
339.695
340.488
425.915
366.318
366.872
425.051
340.194
340.951
424.895
364.979
365.53
424.081
340.655
341.375
423.931
363.682
364.266
423.146
341.075
341.763
423.101
362.496
363.074
422.325
341.461
342.118
422.312
361.347
361.956
421.578
341.813
342.443
421.617
360.291
360.896
420.899
342.136
342.738
420.947
359.269
359.905
420.271
342.428
343.009
420.36
358.332
358.964
419.694
342.697
343.255
419.788
357.421
358.084
419.159
342.941
343.481
419.29
356.591
357.247
418.667
343.167
343.685
418.799
355.78
356.468
418.207
343.368
343.869
418.372
355.046
355.725
417.783
343.551
344.031
417.943
354.306
355.027
417.383
343.709
344.174
417.575
353.662
354.371
417.016
343.851
344.298
417.199
352.99
353.747
416.666
343.972
344.408
416.879
352.418
353.162
416.345
344.082
344.504
416.545
351.812
352.603
416.035
344.176
344.592
416.264
351.306
352.081
415.752
344.265
344.674
415.969
350.762
351.583
415.48
344.346
344.752
415.724
350.313
351.118
415.232
344.425
344.827
415.462
349.828
350.678
414.991
344.499
344.9
415.246
349.433
350.261
414.77
344.576
344.976
415.009
348.985
349.849
414.552
344.653
345.053
414.817
348.614
349.459
414.357
344.734
345.132
414.608
348.203
349.1
414.169
344.812
345.208
414.447
347.899
348.781
414
344.89
345.282
414.259
347.552
348.467
413.828
344.961
345.351
414.109
347.267
348.142
413.668
345.031
345.416
413.932
346.901
347.817
413.511
345.093
345.476
413.802
346.627
347.537
413.377
345.154
345.533
413.651
346.334
347.295
413.242
345.208
345.587
413.538
346.136
347.054
413.118
345.265
345.642
413.392
345.837
346.775
412.988
345.322
345.703
413.289
345.591
346.511
412.882
345.387
345.767
413.168
345.318
346.305
412.781
345.453
345.835
413.091
345.172
346.135
412.691
345.523
345.904
412.976
344.951
345.923
412.586
345.594
345.977
412.892
344.753
345.68
412.494
345.671
346.053
412.783
344.475
345.461
412.406
345.748
346.13
412.724
344.325
345.305
412.342
345.827
346.208
412.641
344.14
345.15
412.274
345.904
346.286
412.595
344.009
344.972
412.219
345.985
346.367
412.521
343.784
344.793
412.163
346.067
346.451
412.492
343.665
344.661
412.126
346.153
346.539
412.433
343.504
344.533
412.078
346.242
346.634
412.403
343.397
344.366
412.037
346.341
346.737
412.344
343.17
344.174
411.999
346.445
346.847
412.335
343.032
344.036
411.988
346.558
346.961
412.312
342.892
343.963
411.982
346.673
347.079
412.326
342.873
343.903
411.98
346.793
347.199
412.297
342.744
343.78
411.952
346.913
347.322
412.259
342.598
343.548
411.927
347.035
347.552
412.249
342.401
343.389
411.895
347.276
347.73
412.161
342.25
343.208
411.797
347.466
348.174
411.981
341.911
342.024
411.884
347.952
349.022
411.731
341.014
338.195
411.185
349.95
352.661
408.905
337.14
325.324
405.529
356.611
360.696
401.062
316.84
301.874
396.832
362.663
217.913
182.483
186.513
219.08
268.639
293.772
308.081
348.502
373.331
384.071
387.804
387.949
385.258
381.591
377.911
374.628
371.876
369.631
367.826
366.377
365.215
364.276
363.52
362.905
362.415
362.021
361.728
361.504
361.362
361.269
361.23
361.279
361.251
361.19
361.112
361.023
360.924
360.817
360.705
360.586
360.462
360.331
360.193
360.048
359.893
359.729
359.552
359.362
359.155
358.9
358.538
358.019
357.356
356.626
355.913
355.274
354.733
354.293
353.946
353.686
353.504
353.402
353.366
353.376
353.451
353.591
353.799
354.081
354.443
354.895
355.448
356.114
356.902
357.818
358.864
360.041
361.342
362.76
364.283
365.897
367.588
369.34
371.137
372.965
374.807
376.653
378.489
380.306
382.094
383.845
385.554
387.216
388.826
390.381
391.88
393.32
394.702
396.025
397.29
398.497
399.647
400.742
401.783
402.771
403.708
404.597
405.438
406.234
406.987
407.697
408.368
409
409.596
410.157
410.685
411.18
411.646
412.082
412.492
412.875
413.233
413.568
413.881
414.172
414.444
414.698
414.934
415.154
415.358
415.549
415.726
415.892
416.046
416.189
416.323
416.448
416.564
416.673
416.775
416.87
416.958
417.041
417.119
417.191
417.258
417.321
417.379
417.434
417.484
417.531
417.574
417.614
417.65
417.683
417.712
417.739
417.765
417.791
417.815
417.83
417.836
417.838
417.838
417.839
417.839
417.84
417.84
417.841
417.841
417.841
417.842
417.842
417.843
417.843
417.843
417.843
417.844
417.844
417.844
417.844
417.844
417.843
417.843
417.841
417.838
417.831
417.814
417.782
417.724
417.632
417.505
417.353
417.197
417.059
416.951
416.877
416.829
416.799
416.779
416.765
416.754
416.743
416.734
416.725
416.719
416.717
416.717
416.722
416.73
416.741
416.755
416.77
416.784
416.799
416.816
416.838
416.872
416.932
417.035
417.204
417.449
417.759
418.091
418.395
418.629
418.784
418.874
418.923
418.951
418.97
418.985
418.996
419.004
419.007
419.004
418.99
418.936
418.75
418.051
414.844
410.096
397.143
390.938
385.832
379.238
374.506
368.03
363.773
357.524
353.725
347.734
344.362
338.627
335.634
330.153
327.465
322.231
319.801
314.805
312.594
307.837
305.777
301.269
299.342
295.058
293.249
289.168
287.467
283.574
281.972
278.253
276.743
273.187
271.763
268.362
267.019
263.764
262.499
259.384
258.194
255.22
254.105
251.275
250.233
247.541
246.568
244.006
243.099
240.663
239.819
237.505
236.723
234.528
233.805
231.727
231.065
229.102
228.5
226.653
226.111
224.382
223.904
222.298
221.885
220.408
220.063
218.718
218.446
217.243
217.049
215.998
215.887
214.996
214.971
214.276
214.327
213.843
213.978
213.729
213.99
213.89
214.371
214.36
215.059
215.175
216.136
216.393
217.611
217.966
219.359
219.789
221.335
221.83
223.344
223.892
225.394
225.88
227.302
227.754
229.134
229.56
230.909
231.305
232.629
233.025
234.392
234.728
236.067
236.27
237.328
237.443
238.346
238.383
239.134
239.125
239.743
239.707
240.257
240.206
240.712
240.652
241.129
241.065
241.523
241.457
241.9
241.834
242.263
242.195
242.611
242.543
242.945
242.876
243.265
243.198
243.575
243.508
243.872
243.806
244.153
244.048
244.34
244.199
244.392
244.956
245.899
282.767
281.591
317.141
318.678
350.601
351.219
357.436
314.105
280.331
279.548
310.331
318.121
281.311
280.463
312.09
358.738
360.747
319.71
282.363
281.314
313.351
321.036
283.144
282.042
314.537
362.783
364.806
322.325
283.859
282.735
315.679
323.539
284.527
283.374
316.745
366.74
368.598
324.688
285.142
283.955
317.742
325.762
285.701
284.477
318.667
370.368
372.082
326.761
286.2
284.938
319.503
327.666
286.636
285.337
320.232
373.683
375.084
328.453
287.008
285.673
320.834
329.081
287.313
285.942
321.259
376.181
376.851
329.468
287.552
286.147
321.488
329.603
287.71
286.264
321.5
376.935
376.363
329.452
287.678
286.105
321.274
329.028
287.375
285.65
320.706
376.13
375.632
328.345
286.794
284.563
319.84
327.362
285.508
283.115
318.489
375.243
373.701
326.047
284.062
281.516
316.896
324.284
282.374
279.607
314.754
371.516
368.273
321.834
280.361
277.422
312.03
318.749
278.095
275.036
308.8
364.423
359.907
315.218
275.643
272.547
305.335
311.519
273.115
270.07
301.863
355.219
350.425
307.908
270.631
267.709
298.678
304.649
268.291
265.554
295.938
345.949
341.879
301.83
266.209
263.692
293.69
299.493
264.423
262.145
291.843
338.468
335.807
297.576
262.934
260.736
290.362
296.061
261.514
259.387
289.199
334.053
332.892
295.025
260.289
258.508
288.607
294.547
259.538
258.067
288.503
332.24
332.063
294.501
259.26
257.908
288.619
294.598
259.303
258.061
288.923
332.187
332.659
294.934
259.723
258.602
289.59
295.728
260.5
259.471
290.594
333.641
334.959
296.83
261.566
260.613
291.84
298.15
262.89
262.013
293.308
336.397
337.908
299.674
264.467
263.666
295.021
301.438
266.283
265.552
296.955
339.62
341.499
303.408
268.316
267.649
299.086
305.561
270.553
269.948
301.399
343.515
345.643
307.886
272.983
272.439
303.889
310.379
275.597
275.112
306.542
347.912
350.291
313.024
278.387
277.958
309.348
315.813
281.345
280.972
312.298
352.775
355.355
318.737
284.465
284.148
315.385
321.788
287.746
287.486
318.603
358.014
360.745
324.961
291.186
290.984
321.948
328.251
294.786
294.644
325.416
363.539
366.386
331.655
298.546
298.467
329.006
335.171
302.468
302.456
332.725
369.277
372.201
338.808
306.571
306.648
336.584
342.575
310.859
311.035
340.613
375.143
378.075
346.513
315.317
315.578
344.748
350.532
319.929
320.279
348.972
381.03
383.994
354.629
324.695
325.136
353.284
358.803
329.612
330.145
357.651
386.955
389.905
363.046
334.681
335.311
362.078
367.345
339.904
340.636
366.567
392.831
395.717
371.688
345.279
346.12
371.108
376.06
350.807
351.763
375.685
398.548
401.305
380.445
356.488
357.568
380.282
384.83
362.323
363.542
384.896
403.968
406.513
389.184
368.315
369.689
389.526
393.488
374.434
375.996
394.092
408.906
411.115
397.69
380.595
382.415
398.543
401.75
386.819
388.885
402.811
413.104
414.839
405.609
393.051
395.3
406.823
409.173
399.144
401.534
410.444
416.28
417.372
412.331
404.967
407.306
413.502
418.511
418.095
417.489
416.7
415.736
414.61
413.336
411.93
410.41
408.79
407.087
405.311
403.474
401.587
399.659
397.698
395.713
393.712
391.694
389.668
387.643
385.629
383.633
381.667
379.739
377.856
376.039
374.285
372.592
371.006
369.506
367.973
366.556
365.37
364.559
364.1
364.156
364.529
365.446
367.276
369.9
373.34
377.605
382.682
388.543
395.097
402.106
409.514
416.757
423.697
429.625
434.603
438.055
440.538
441.354
441.023
440.006
438.715
436.815
434.161
431.09
427.847
424.591
421.376
418.279
415.209
412.38
409.308
406.992
403.527
403.345
393.815
367.663
368.522
392.477
407.198
407.574
421.84
420.716
430.233
430.74
428.933
444.719
439.501
438.542
444.543
445.132
450.235
449.42
452.788
453.457
453.681
457.031
455.421
454.661
454.795
455.461
452.227
451.975
445.896
446.589
451.559
408.155
419.121
421.35
405.801
405.329
373.058
379.836
315.046
299.053
302.575
295.794
296.712
281.193
281.17
287.408
284.91
291.294
280.874
280.302
294.588
295.75
283.586
298.598
368.947
364.754
296.25
285.119
282.167
297.579
299.311
300.908
284.702
287.894
300.229
374.063
409.162
452.463
458.746
455.657
446.611
430.468
433.833
449.62
458.131
460.806
462.5
460.338
452.248
436.561
439.793
455.175
458.109
442.975
446.401
461.233
467.378
464.99
462.692
464.281
465.851
467.408
468.826
469.803
464.513
449.977
453.805
468.037
471.862
457.878
462.195
476.061
478.236
475.109
472.346
470.138
471.398
472.863
474.772
481.776
480.617
466.665
471.098
485.406
490.125
475.237
478.197
494.033
493.693
489.825
485.709
477.126
479.834
482.623
468.408
465.906
464.032
462.832
462.356
462.115
461.664
460.918
460.019
458.86
457.666
456.041
454.674
411.951
379.208
369.058
299.494
304.957
304.373
373.658
383.709
414.94
417.832
420.633
423.398
396.295
387.165
392.295
382.807
388.085
378.269
309.392
309.941
299.215
296.363
295.886
292.889
293.33
290.236
290.114
287.129
304.165
302.643
306.153
307.944
309.92
311.764
313.965
315.954
318.127
320.363
299.078
302.004
302.919
325.18
322.668
327.267
305.488
315.038
314.447
308.476
305.798
330.348
332.338
335.943
309.941
312.116
320.13
319.475
325.177
324.393
391.266
400.037
426.109
428.793
431.45
434.072
409.01
401.426
406.439
398.476
403.445
395.063
328.994
330.088
325.576
325.552
321.977
320.758
318.866
317.389
315.225
313.031
341.944
337.492
343.197
348.263
349.105
354.838
355.779
361.794
362.525
369.199
329.309
329.152
334.233
376.823
370.005
377.31
333.299
334.796
333.836
336.447
337.325
384.818
385.293
392.821
342.652
340.884
339.637
338.712
344.573
343.568
403.895
411.198
436.691
439.563
443.653
449.257
421.724
411.241
416.221
407.931
413.261
405.943
348.49
349.512
355.889
359.648
351.62
354.283
348.299
351.022
343.902
345.697
401.055
392.904
401.083
409.227
408.934
417.43
417.038
425.129
424.336
432.509
363.047
359.501
368.325
438.899
431.568
437.506
363.563
354.59
353.664
367.089
371.546
444.533
442.975
448.69
376.589
371.089
360.325
359.863
368.294
368.994
417.711
429.604
455.546
471.18
485.051
496.726
496.091
479.637
480.151
496.948
497.106
479.762
477.262
495.632
498.416
498.854
498.324
486.382
486.927
486.535
484.602
496.139
492.873
473.657
468.009
488.638
482.682
461.139
452.793
475.462
481.549
487.719
492.955
482.933
478.551
473.366
470.221
474.09
467.03
443.878
434.638
458.212
448.785
425.79
417.895
439.268
452.362
459.766
466.816
465.159
460.578
454.882
449.816
444.791
430.632
410.613
404.312
423.03
416.756
398.858
394.268
411.228
423.51
429.759
436.79
443.953
438.554
432.496
436.96
441.642
445.372
450.292
453.398
457.696
459.723
461.498
462.799
464.124
467.407
472.052
474.89
474.735
473.59
461.973
467.864
471.331
464.372
451.265
451.082
437.472
439.287
426.45
380.096
378.041
392.333
397.31
386.365
390.649
380.882
385.925
375.095
379.668
451.919
446.708
450.067
454.478
452.265
456.171
453.236
455.354
450.319
450.762
400.51
396.264
403.705
442.46
443.549
434.553
399.199
389.42
393.226
400.159
403.214
432.561
426.113
424.848
402.048
398.005
403.154
410.223
428.404
442.222
467.951
474.371
471.513
462.565
454.191
451.555
446.036
451.577
455.409
466.801
473.697
475.822
471.997
461.437
428.17
402.887
407.757
391.575
392.225
387.235
390.464
393.74
423.648
423.476
421.882
404.87
391.748
384.42
384.28
382.152
383.02
386.547
400.41
381.037
389.823
388.995
422.937
447.748
445.564
407.547
404.535
382.931
380.171
385.459
393.895
431.813
466.064
479.149
480.551