/*--------------------------------*- C++ -*----------------------------------*\
| =========                 |                                                 |
| \\      /  F ield         | OpenFOAM: The Open Source CFD Toolbox           |
|  \\    /   O peration     | Version:  v2006                                 |
|   \\  /    A nd           | Website:  www.openfoam.com                      |
|    \\/     M anipulation  |                                                 |
\*---------------------------------------------------------------------------*/
FoamFile
{
    version     2.0;
    format      ascii;
    class       volScalarField;
    location    "0.012";
    object      turbulenceProperties:L;
}
// * * * * * * * * * * * * * * * * * * * * * * * * * * * * * * * * * * * * * //

dimensions      [0 1 0 0 0 0 0];


internalField   nonuniform List<scalar> 
11076
(
1994.28
1994.13
1997.69
1998.01
1997.7
1998.34
1998.01
1997.78
1997.24
1996.19
1993.88
1989.06
1979.64
1963.25
1938.25
1905.42
1868.46
1832.87
1803.56
1783.02
1770.89
1765.12
1763.71
1766.05
1773.68
1790.19
1819.49
1858.57
1890.34
1900.25
1891.97
1872.78
1844.17
1798.2
1711.88
1544.75
1290.02
1052.84
892.446
782.028
687.719
589.084
479.661
368.278
271.597
199.779
152.092
122.79
106.332
98.9251
98.174
102.58
111.892
128.553
160.236
225.922
326.405
374.084
249.982
122.019
51.0452
21.6487
6.35242
2.98859
2.98413
0.897518
0.277326
0.10362
0.0297738
0.00351676
0.000638017
4.32071e-05
4.20942e-05
0.000309563
0.00135142
0.00087121
0.000236847
4.12327e-05
4.0787e-05
0.000216485
0.000712153
0.00062085
0.000202762
4.08795e-05
4.08817e-05
0.000198464
0.000572141
0.000530186
0.000189712
4.08941e-05
4.07601e-05
0.000186411
0.000507773
0.000484561
0.000183333
4.07541e-05
4.07456e-05
0.000182647
0.000474735
0.00045858
0.000179822
4.07371e-05
4.0731e-05
0.000179948
0.000454464
0.000443433
0.000177672
4.07237e-05
4.07192e-05
0.000178038
0.00044075
0.000432003
0.000175974
4.07132e-05
4.07096e-05
0.000176381
0.000430157
0.000422744
0.000174467
4.07045e-05
4.07015e-05
0.000174827
0.000421416
0.000414871
0.00017308
4.0697e-05
4.06945e-05
0.000173356
0.000413896
0.000407967
0.000171733
4.06905e-05
4.06883e-05
0.000171936
0.000407227
0.000401753
0.000170424
4.06847e-05
4.06827e-05
0.000170588
0.000401202
0.00039613
0.000169169
4.06793e-05
4.06775e-05
0.00016931
0.000395741
0.000391008
0.00016797
4.06744e-05
4.06728e-05
0.000168099
0.000390756
0.000386314
0.000166829
4.06699e-05
4.06683e-05
0.000166954
0.000386179
0.000381989
0.000165747
4.06656e-05
4.06642e-05
0.000165872
0.000381955
0.000377987
0.000164722
4.06616e-05
4.06603e-05
0.000164849
0.000378041
0.00037427
0.000163752
4.06579e-05
4.06567e-05
0.000163883
0.000374402
0.000370814
0.000162835
4.06544e-05
4.06532e-05
0.000162972
0.000371017
0.000367595
0.000161969
4.06511e-05
4.065e-05
0.000162113
0.000367862
0.000364592
0.000161154
4.0648e-05
4.06471e-05
0.000161304
0.000364918
0.00036179
0.000160387
4.06452e-05
4.06443e-05
0.000160546
0.000362172
0.00035918
0.000159668
4.06426e-05
4.06417e-05
0.000159838
0.000359617
0.00035676
0.000159
4.06402e-05
4.06394e-05
0.000159182
0.000357254
0.000354537
0.000158383
4.0638e-05
4.06374e-05
0.000158578
0.000355101
0.00035253
0.000157822
4.06361e-05
4.06356e-05
0.000158024
0.000353164
0.000350731
0.000157305
4.06345e-05
4.0634e-05
0.000157484
0.000351421
0.000349107
0.000156784
4.06332e-05
4.06328e-05
0.000156953
0.000349843
0.000347636
0.000156272
4.06322e-05
4.06319e-05
0.000156444
0.000348418
0.000346319
0.000155784
4.06316e-05
4.06314e-05
0.000155963
0.000347155
0.000345177
0.000155327
4.06313e-05
4.06312e-05
0.000155516
0.000346072
0.000344238
0.000154908
4.06313e-05
4.06315e-05
0.000155111
0.000345187
0.0003435
0.000154535
4.06317e-05
4.06322e-05
0.000154754
0.00034451
0.00034295
0.000154216
4.06325e-05
4.06333e-05
0.000154452
0.000344042
0.000342597
0.000153955
4.06339e-05
4.0635e-05
0.000154209
0.000343819
0.000342484
0.000153761
4.06359e-05
4.06372e-05
0.000154027
0.00034386
0.000342644
0.000153627
4.06385e-05
4.06401e-05
0.000153908
0.000344195
0.000343112
0.000153558
4.06417e-05
4.06436e-05
0.000153867
0.000344834
0.000343902
0.000153525
4.06455e-05
4.06478e-05
0.000153891
0.000345786
0.000345045
0.000153563
4.06501e-05
4.06527e-05
0.000153985
0.00034709
0.000346547
0.000153676
4.06554e-05
4.06585e-05
0.000154169
0.000348811
0.000348384
0.000153871
4.06615e-05
4.0665e-05
0.000154432
0.000350933
0.000350618
0.000154133
4.06684e-05
4.06723e-05
0.000154764
0.000353443
0.000353219
0.000154447
4.06761e-05
4.06804e-05
0.000155147
0.000356275
0.000356131
0.000154799
4.06845e-05
4.06892e-05
0.000155568
0.000359404
0.000359338
0.00015518
4.06936e-05
4.06986e-05
0.000156016
0.000362788
0.00036281
0.000155559
4.07033e-05
4.07085e-05
0.000156457
0.000366203
0.000366248
0.000155907
4.07134e-05
4.07188e-05
0.000156834
0.000369476
0.000369367
0.000156162
4.07239e-05
4.07293e-05
0.000157081
0.000372473
0.000371922
0.000156223
4.07344e-05
4.07399e-05
0.000157127
0.000374752
0.000373694
0.00015602
4.0745e-05
4.07503e-05
0.000156865
0.000375992
0.000373817
0.000155447
4.07553e-05
4.07604e-05
0.000156166
0.000375724
0.000372598
0.000154446
4.07652e-05
4.07701e-05
0.000154993
0.000374055
0.000370043
0.000152982
4.07746e-05
4.07791e-05
0.000153358
0.000370948
0.000365978
0.000151057
4.07833e-05
4.07874e-05
0.000151309
0.000366385
0.000360515
0.00014873
4.07913e-05
4.07949e-05
0.000148865
0.000360515
0.000353812
0.000146113
4.07983e-05
4.08015e-05
0.000146095
0.000353428
0.000345974
0.000143299
4.08044e-05
4.08071e-05
0.000143171
0.000345322
0.000337575
0.000140414
4.08095e-05
4.08117e-05
0.000140243
0.000336729
0.000328697
0.000137572
4.08136e-05
4.08153e-05
0.000137291
0.000327771
0.00031956
0.000134526
4.08167e-05
4.08179e-05
0.000134181
0.000318602
0.000310364
0.000131473
4.08189e-05
4.08196e-05
0.000131132
0.000309474
0.00030141
0.000128596
4.08202e-05
4.08206e-05
0.000128289
0.000300692
0.000293056
0.000125976
4.08209e-05
4.08211e-05
0.000125741
0.00029243
0.000285294
0.000123649
4.08211e-05
4.0821e-05
0.000123492
0.00028475
0.000278097
0.000121621
4.08209e-05
4.08206e-05
0.000121527
0.000277674
0.000271491
0.000119877
4.08203e-05
4.08199e-05
0.000119848
0.000271191
0.000265459
0.000118405
4.08194e-05
4.08189e-05
0.000118426
0.000265314
0.000260013
0.000117177
4.08183e-05
4.08178e-05
0.000117244
0.000260006
0.00025514
0.000116154
4.08172e-05
4.08166e-05
0.000116284
0.000255245
0.000250782
0.000115316
4.08159e-05
4.08153e-05
0.000115512
0.000251022
0.00024683
0.000114662
4.08077e-05
4.08141e-05
0.000114873
0.000247394
0.000243816
0.000114236
4.08273e-05
4.08059e-05
0.000114327
0.000243271
0.000240268
0.000113828
4.08799e-05
4.07814e-05
0.000113937
0.000239995
0.000240086
0.000113991
4.12007e-05
4.20577e-05
0.000118033
0.000252231
0.000264372
0.000122356
4.31367e-05
0.00078641
0.00170468
0.00279365
0.00397657
0.00469452
0.00592542
0.00673476
0.0074796
0.00791902
0.00818473
0.00819314
0.00795728
0.00753698
0.00681294
0.00603187
0.00493343
0.00406276
0.00270942
0.00229028
0.00172037
0.000966743
0.000676829
0.000484145
0.000282947
0.000138668
7.05567e-05
2.17926e-05
2.00794e-05
6.19763e-05
0.000121096
0.000112166
5.76747e-05
1.83823e-05
1.6947e-05
5.20291e-05
9.89868e-05
9.51065e-05
5.07413e-05
1.63344e-05
1.60953e-05
5.06087e-05
9.55447e-05
9.15576e-05
4.91836e-05
1.59927e-05
1.58813e-05
4.98667e-05
9.40211e-05
9.1607e-05
4.86888e-05
1.58726e-05
1.58789e-05
5.01367e-05
9.39842e-05
9.20683e-05
4.90109e-05
1.5876e-05
1.58764e-05
5.03358e-05
9.4199e-05
9.22779e-05
4.92058e-05
1.58735e-05
1.5874e-05
5.05435e-05
9.44034e-05
9.24788e-05
4.94072e-05
1.58709e-05
1.58714e-05
5.07569e-05
9.4596e-05
9.26612e-05
4.9612e-05
1.58682e-05
1.58687e-05
5.09713e-05
9.47733e-05
9.28458e-05
4.98232e-05
1.58653e-05
1.58659e-05
5.12018e-05
9.49561e-05
9.30055e-05
5.00514e-05
1.58623e-05
1.58628e-05
5.14448e-05
9.51314e-05
9.31918e-05
5.02903e-05
1.58591e-05
1.58596e-05
5.16977e-05
9.52831e-05
9.33226e-05
5.05307e-05
1.58557e-05
1.58563e-05
5.19469e-05
9.54073e-05
9.34615e-05
5.07633e-05
1.58521e-05
1.58529e-05
5.22032e-05
9.55006e-05
9.35494e-05
5.10095e-05
1.58482e-05
1.58492e-05
5.24705e-05
9.55705e-05
9.36046e-05
5.12773e-05
1.58442e-05
1.58452e-05
5.273e-05
9.56116e-05
9.36139e-05
5.15171e-05
1.58397e-05
1.58408e-05
5.29875e-05
9.55993e-05
9.35681e-05
5.17751e-05
1.5835e-05
1.58363e-05
5.32308e-05
9.55264e-05
9.34409e-05
5.20153e-05
1.583e-05
1.58311e-05
5.34596e-05
9.53648e-05
9.32645e-05
5.2239e-05
1.58244e-05
1.58255e-05
5.36831e-05
9.51302e-05
9.2995e-05
5.24444e-05
1.58183e-05
1.58193e-05
5.38644e-05
9.47956e-05
9.26376e-05
5.26264e-05
1.58113e-05
1.58122e-05
5.40343e-05
9.43825e-05
9.21865e-05
5.27734e-05
1.58035e-05
1.58041e-05
5.41218e-05
9.38478e-05
9.16449e-05
5.28457e-05
1.57945e-05
1.57949e-05
5.41492e-05
9.32095e-05
9.09872e-05
5.28438e-05
1.57843e-05
1.57844e-05
5.40512e-05
9.24444e-05
9.0246e-05
5.27205e-05
1.57729e-05
1.57729e-05
5.38693e-05
9.16055e-05
8.9475e-05
5.25193e-05
1.57613e-05
1.57611e-05
5.35819e-05
9.07514e-05
8.87895e-05
5.22621e-05
1.57507e-05
1.57514e-05
5.34017e-05
9.007e-05
8.85301e-05
5.221e-05
1.57421e-05
1.57452e-05
5.35194e-05
8.99676e-05
8.87132e-05
5.24782e-05
1.57371e-05
1.57409e-05
5.42605e-05
9.04441e-05
8.91148e-05
5.33522e-05
1.57313e-05
1.57313e-05
5.50974e-05
9.08224e-05
8.95701e-05
5.4082e-05
1.58293e-05
1.60359e-05
5.59361e-05
9.04349e-05
8.9337e-05
5.51482e-05
1.62321e-05
1.64321e-05
5.71357e-05
9.06478e-05
8.91861e-05
5.6073e-05
1.66369e-05
1.68342e-05
5.78238e-05
8.99627e-05
8.89031e-05
5.71257e-05
1.71361e-05
1.75555e-05
5.83377e-05
8.92285e-05
8.79259e-05
5.76207e-05
1.78331e-05
1.82533e-05
5.80854e-05
8.79062e-05
8.64168e-05
5.73816e-05
1.86348e-05
1.90421e-05
5.73724e-05
8.60167e-05
8.47182e-05
5.83317e-05
1.95954e-05
2.02616e-05
6.20265e-05
9.20906e-05
0.000100974
6.65546e-05
3.12881e-05
4.25439e-05
8.49605e-05
0.000108626
0.0001076
8.07835e-05
4.19276e-05
4.15697e-05
7.65051e-05
9.04224e-05
0.000100345
7.99827e-05
4.63978e-05
5.24377e-05
8.2791e-05
0.000101973
0.000104542
8.32767e-05
5.69229e-05
6.13426e-05
8.32602e-05
0.000105257
0.000107219
8.29727e-05
6.49108e-05
6.85856e-05
8.20985e-05
0.00010843
0.000112094
8.04741e-05
6.96514e-05
6.80139e-05
7.83718e-05
0.000109507
8.90314e-05
7.44787e-05
6.44607e-05
6.61686e-05
7.43135e-05
0.000100263
0.000101281
7.18101e-05
6.74768e-05
6.69252e-05
6.90869e-05
0.000101359
9.21962e-05
6.51447e-05
6.14517e-05
5.52451e-05
6.0135e-05
7.04718e-05
7.50636e-05
5.84903e-05
5.08911e-05
4.91804e-05
5.7039e-05
6.94098e-05
7.58456e-05
5.87345e-05
5.07762e-05
5.39207e-05
6.22653e-05
7.76585e-05
8.31333e-05
6.45472e-05
5.71897e-05
5.76317e-05
6.62328e-05
8.56489e-05
8.15203e-05
6.76877e-05
6.05154e-05
6.46874e-05
7.4968e-05
9.37157e-05
0.000103324
8.28614e-05
7.45122e-05
7.95039e-05
8.80856e-05
0.000116588
0.00011389
9.80149e-05
9.05999e-05
0.000101513
0.000111653
0.000153487
0.000201156
0.000132471
0.000119708
0.000132677
0.00016694
0.00026101
0.00104473
0.000316819
0.000160911
0.000181334
0.00127092
0.00358451
0.00312627
0.00208756
0.000196503
0.000203832
0.00221097
0.00354744
0.00382084
0.00243994
0.000199296
0.000193184
0.00227403
0.00369496
0.0031871
0.00213387
0.000170609
0.000156248
0.0016577
0.00264544
0.00205006
0.00130685
0.000137752
0.000127034
0.00100226
0.00153048
0.00137065
0.000861278
0.000111828
9.95759e-05
0.000727857
0.00113363
0.00105398
0.000603008
8.9583e-05
8.27255e-05
0.000532145
0.00102763
0.000822679
0.000433037
7.3537e-05
6.96891e-05
0.000372836
0.000766329
0.000718228
0.00032766
6.47705e-05
6.08355e-05
0.000294665
0.000596474
0.000625943
0.000288094
5.77513e-05
5.62112e-05
0.00027261
0.000596093
0.00051104
0.00026372
5.40478e-05
5.58461e-05
0.000282404
0.000594519
0.0006104
0.000292011
5.80385e-05
6.11417e-05
0.000322468
0.000715083
0.000704144
0.000314803
6.11232e-05
5.79431e-05
0.000276457
0.000610509
0.000490629
0.000236082
5.40131e-05
5.43132e-05
0.000262019
0.000576338
0.000592703
0.000265321
5.39537e-05
5.18464e-05
0.000228999
0.000470293
0.000561579
0.000259332
5.18999e-05
5.18972e-05
0.000255286
0.000558056
0.000474244
0.00020066
4.65484e-05
4.11141e-05
0.000154778
0.000334145
0.000425708
0.000183563
4.00243e-05
3.83581e-05
0.000192686
0.000413709
0.000210443
5.90926e-05
2.50161e-05
1.86537e-05
7.58153e-05
0.000277684
0.00021746
7.12973e-05
2.25622e-05
1.82459e-05
6.40894e-05
0.000176694
7.37965e-05
2.98329e-05
1.293e-05
1.67106e-05
8.88255e-05
0.000163809
0.000166998
8.1767e-05
1.98009e-05
1.44132e-05
3.40863e-05
7.90071e-05
0.000177336
0.000100241
1.83456e-05
2.23523e-05
7.90169e-05
0.000168766
0.000150661
6.63387e-05
1.80792e-05
1.28784e-05
2.74949e-05
6.60648e-05
0.000152855
8.26975e-05
1.655e-05
1.95562e-05
7.55358e-05
0.000154378
6.95148e-05
3.1278e-05
1.40157e-05
1.72959e-05
8.71803e-05
0.000155005
0.000151899
7.59951e-05
2.01633e-05
1.44301e-05
3.07252e-05
6.74636e-05
0.000150887
8.51843e-05
1.78136e-05
2.0756e-05
7.5691e-05
0.000148424
6.72338e-05
3.10387e-05
1.50176e-05
1.87386e-05
8.88359e-05
0.00015267
0.000144955
7.09002e-05
2.25865e-05
1.79779e-05
5.76296e-05
0.000126771
5.42847e-05
2.39901e-05
1.26293e-05
1.59099e-05
6.87005e-05
0.000124501
0.000125201
6.43033e-05
1.8765e-05
1.33008e-05
2.72099e-05
5.60975e-05
0.000125643
7.34304e-05
1.63639e-05
1.90585e-05
6.26963e-05
0.000122099
5.47287e-05
2.51359e-05
1.33063e-05
1.62839e-05
6.81347e-05
0.000120263
0.000118119
6.16875e-05
1.89874e-05
1.33947e-05
2.48383e-05
5.32141e-05
0.000117361
6.71198e-05
1.63196e-05
1.89125e-05
6.0461e-05
0.000113676
5.11106e-05
2.57099e-05
1.32208e-05
1.59523e-05
6.57034e-05
0.000111217
0.000107357
5.82217e-05
1.84048e-05
1.26833e-05
2.35818e-05
4.67414e-05
9.61811e-05
7.31578e-05
1.46129e-05
1.57997e-05
3.1111e-05
5.63459e-05
0.0001208
6.84574e-05
1.85759e-05
2.10541e-05
5.98518e-05
0.000112974
5.12348e-05
2.64952e-05
1.47611e-05
1.76039e-05
6.61649e-05
0.000110865
0.000105212
5.8637e-05
2.02156e-05
1.41639e-05
2.49012e-05
4.92669e-05
0.000106074
6.23055e-05
1.70726e-05
1.97949e-05
5.62618e-05
0.000101188
4.71935e-05
2.51859e-05
1.39459e-05
1.65659e-05
6.10062e-05
9.95545e-05
9.44318e-05
5.35661e-05
1.89586e-05
1.29202e-05
2.24207e-05
4.41403e-05
8.53462e-05
5.86914e-05
1.47008e-05
1.59301e-05
2.77665e-05
4.9937e-05
0.000104045
6.25997e-05
1.84418e-05
2.06335e-05
5.38991e-05
9.57797e-05
4.52344e-05
2.43522e-05
1.42054e-05
1.66072e-05
5.67996e-05
9.0777e-05
8.62034e-05
5.07586e-05
1.90252e-05
1.31196e-05
2.20895e-05
4.09239e-05
7.71513e-05
5.99745e-05
1.47376e-05
1.59517e-05
2.82807e-05
4.74523e-05
9.65378e-05
5.78919e-05
1.8446e-05
2.07398e-05
5.12443e-05
8.94706e-05
4.33039e-05
2.38185e-05
1.44371e-05
1.69234e-05
5.4883e-05
8.57641e-05
8.06533e-05
4.80412e-05
1.92882e-05
1.30644e-05
2.16431e-05
4.02142e-05
7.36456e-05
5.23992e-05
1.46582e-05
1.58921e-05
2.62829e-05
4.51188e-05
9.03139e-05
5.58605e-05
1.82006e-05
2.03313e-05
4.85018e-05
8.25493e-05
4.04074e-05
2.21145e-05
1.38154e-05
1.53047e-05
5.63327e-05
7.20641e-05
4.53975e-05
2.79717e-05
1.64821e-05
1.88274e-05
5.5378e-05
8.9075e-05
8.15737e-05
4.83345e-05
2.10806e-05
1.45194e-05
2.28999e-05
4.0982e-05
7.77804e-05
5.0969e-05
1.69248e-05
1.9357e-05
4.52251e-05
7.34125e-05
3.79237e-05
2.14815e-05
1.32223e-05
1.46779e-05
4.82704e-05
6.63976e-05
4.19446e-05
2.52223e-05
1.57473e-05
1.78249e-05
5.04284e-05
7.98789e-05
7.30705e-05
4.44729e-05
1.98516e-05
1.33942e-05
2.07331e-05
3.71831e-05
6.33242e-05
4.99193e-05
1.47933e-05
1.59683e-05
2.60557e-05
4.13433e-05
7.58483e-05
4.9383e-05
1.81827e-05
2.03054e-05
4.42537e-05
7.00857e-05
3.6794e-05
2.1055e-05
1.37202e-05
1.50431e-05
5.01838e-05
6.20922e-05
4.04454e-05
2.60515e-05
1.61862e-05
1.81543e-05
4.78733e-05
7.44991e-05
6.83088e-05
4.29012e-05
2.01901e-05
1.36917e-05
2.08354e-05
3.60469e-05
5.99842e-05
4.90501e-05
1.50208e-05
1.61647e-05
2.58955e-05
3.98517e-05
7.12987e-05
4.70159e-05
1.838e-05
2.04871e-05
4.20866e-05
6.57469e-05
3.56321e-05
2.1198e-05
1.38869e-05
1.51719e-05
4.70578e-05
5.8889e-05
3.91535e-05
2.58037e-05
1.6268e-05
1.82463e-05
4.62114e-05
6.96966e-05
6.39359e-05
4.10809e-05
2.03195e-05
1.37711e-05
2.10815e-05
3.49262e-05
5.69218e-05
4.58301e-05
1.50433e-05
1.62343e-05
2.56463e-05
3.84778e-05
6.69002e-05
4.5292e-05
1.8476e-05
2.05776e-05
4.04512e-05
6.18853e-05
3.46391e-05
2.12713e-05
1.39595e-05
1.51577e-05
4.50161e-05
5.56322e-05
3.77531e-05
2.56326e-05
1.63122e-05
1.82971e-05
4.4296e-05
6.49638e-05
6.02341e-05
3.93239e-05
2.03078e-05
1.37223e-05
2.11191e-05
3.36273e-05
5.38267e-05
4.20207e-05
1.50509e-05
1.62395e-05
2.43382e-05
3.64913e-05
6.27584e-05
4.35023e-05
1.8443e-05
2.0548e-05
3.86323e-05
5.84624e-05
3.33721e-05
2.13714e-05
1.38679e-05
1.51597e-05
4.17074e-05
5.27014e-05
3.59592e-05
2.43907e-05
1.62352e-05
1.81971e-05
4.25374e-05
6.13987e-05
5.69436e-05
3.80003e-05
2.02689e-05
1.37854e-05
2.08517e-05
3.26039e-05
5.07985e-05
4.16149e-05
1.50094e-05
1.61635e-05
2.49329e-05
3.52826e-05
5.93092e-05
4.21079e-05
1.83269e-05
2.04236e-05
3.7816e-05
5.5426e-05
3.21452e-05
2.13475e-05
1.38604e-05
1.50726e-05
4.03596e-05
4.98818e-05
3.43887e-05
2.38943e-05
1.6136e-05
1.81609e-05
4.07226e-05
5.78344e-05
5.36795e-05
3.65812e-05
2.01745e-05
1.37113e-05
2.06873e-05
3.12996e-05
4.77832e-05
3.96881e-05
1.5008e-05
1.61632e-05
2.44341e-05
3.36715e-05
5.62251e-05
4.02541e-05
1.82519e-05
2.03449e-05
3.6413e-05
5.262e-05
3.10192e-05
2.10229e-05
1.38323e-05
1.50702e-05
3.8641e-05
4.73112e-05
3.30757e-05
2.35544e-05
1.61573e-05
1.80325e-05
3.89837e-05
5.51299e-05
5.12547e-05
3.52002e-05
2.00607e-05
1.36213e-05
2.04706e-05
3.02089e-05
4.60129e-05
3.80995e-05
1.49774e-05
1.61918e-05
2.4137e-05
3.26109e-05
5.41213e-05
3.91729e-05
1.83447e-05
2.04528e-05
3.56171e-05
5.07189e-05
3.03626e-05
2.11203e-05
1.39338e-05
1.51368e-05
3.81494e-05
4.60318e-05
3.24129e-05
2.3672e-05
1.62166e-05
1.8197e-05
3.82737e-05
5.37123e-05
5.00104e-05
3.48561e-05
2.02302e-05
1.38177e-05
2.05702e-05
2.9832e-05
4.51628e-05
3.75449e-05
1.51017e-05
1.63229e-05
2.41348e-05
3.21461e-05
5.30251e-05
3.85111e-05
1.85033e-05
2.05599e-05
3.52055e-05
4.97361e-05
2.98976e-05
2.10498e-05
1.39774e-05
1.52753e-05
3.74388e-05
4.5186e-05
3.2022e-05
2.379e-05
1.64261e-05
1.84342e-05
3.79449e-05
5.28365e-05
4.92431e-05
3.4669e-05
2.04737e-05
1.40611e-05
2.10179e-05
2.98401e-05
4.49481e-05
3.74293e-05
1.54215e-05
1.65872e-05
2.42363e-05
3.21203e-05
5.30929e-05
3.84688e-05
1.88958e-05
2.12045e-05
3.54514e-05
4.999e-05
3.03889e-05
2.16288e-05
1.48823e-05
1.7129e-05
3.6982e-05
4.92409e-05
4.68129e-05
3.4489e-05
1.94499e-05
1.34963e-05
2.03324e-05
2.86368e-05
4.34363e-05
3.64566e-05
1.49524e-05
1.61708e-05
2.38458e-05
3.10972e-05
5.10456e-05
3.72636e-05
1.82905e-05
2.0402e-05
3.43564e-05
4.78931e-05
2.91242e-05
2.08641e-05
1.40124e-05
1.53898e-05
3.65363e-05
4.38021e-05
3.13255e-05
2.39172e-05
1.66571e-05
1.89478e-05
3.75786e-05
5.15853e-05
4.83126e-05
3.45825e-05
2.12161e-05
1.48703e-05
2.15497e-05
2.96795e-05
4.7965e-05
3.61598e-05
1.70473e-05
1.93792e-05
3.42891e-05
4.57993e-05
2.82939e-05
2.02672e-05
1.35667e-05
1.49758e-05
3.55757e-05
4.25243e-05
3.04495e-05
2.35924e-05
1.62251e-05
1.84784e-05
3.65893e-05
4.99086e-05
4.70804e-05
3.37831e-05
2.074e-05
1.45741e-05
2.11934e-05
2.90783e-05
4.65119e-05
3.51976e-05
1.69027e-05
1.92832e-05
3.33929e-05
4.46679e-05
2.78871e-05
2.02868e-05
1.35511e-05
1.50789e-05
3.53252e-05
4.20524e-05
3.02366e-05
2.33897e-05
1.634e-05
1.86873e-05
3.63775e-05
4.95905e-05
4.65735e-05
3.36513e-05
2.09799e-05
1.47829e-05
2.12534e-05
2.89536e-05
4.65039e-05
3.55822e-05
1.71695e-05
1.95644e-05
3.35281e-05
4.45983e-05
2.80498e-05
2.06886e-05
1.3628e-05
1.52319e-05
3.56862e-05
4.20694e-05
3.02478e-05
2.35189e-05
1.65039e-05
1.88414e-05
3.58147e-05
4.95372e-05
4.68132e-05
3.36335e-05
2.12213e-05
1.50897e-05
2.16466e-05
2.92759e-05
4.68451e-05
3.5824e-05
1.76398e-05
2.02147e-05
3.37973e-05
4.50558e-05
2.86145e-05
2.11828e-05
1.44617e-05
1.70704e-05
3.48832e-05
4.58973e-05
4.44401e-05
3.33572e-05
1.98717e-05
1.44567e-05
2.09397e-05
2.82985e-05
4.54794e-05
3.48449e-05
1.71246e-05
1.97162e-05
3.32051e-05
4.39106e-05
2.80281e-05
2.0622e-05
1.4169e-05
1.6636e-05
3.39196e-05
4.45439e-05
4.31562e-05
3.29746e-05
1.92814e-05
1.40592e-05
2.0271e-05
2.73949e-05
4.37863e-05
3.35724e-05
1.66944e-05
1.93366e-05
3.21798e-05
4.23235e-05
2.72389e-05
2.03726e-05
1.40215e-05
1.65624e-05
3.33353e-05
4.3235e-05
4.19791e-05
3.19879e-05
1.92021e-05
1.38681e-05
2.03678e-05
2.7092e-05
4.3108e-05
3.30766e-05
1.65599e-05
1.93256e-05
3.16077e-05
4.18122e-05
2.69534e-05
2.03277e-05
1.4087e-05
1.6751e-05
3.30169e-05
4.287e-05
4.17336e-05
3.18013e-05
1.95128e-05
1.42408e-05
2.06075e-05
2.71333e-05
4.32403e-05
3.32911e-05
1.69364e-05
1.968e-05
3.18915e-05
4.20227e-05
2.72098e-05
2.07203e-05
1.45368e-05
1.74819e-05
3.3437e-05
4.35972e-05
4.26356e-05
3.2609e-05
2.04678e-05
1.52945e-05
2.19248e-05
2.83784e-05
4.6092e-05
3.53006e-05
1.8687e-05
2.25773e-05
3.47175e-05
4.50181e-05
4.17549e-05
3.13996e-05
1.86878e-05
1.39856e-05
2.01926e-05
2.72599e-05
4.32946e-05
3.27942e-05
1.73549e-05
2.12465e-05
3.2124e-05
4.14782e-05
3.9959e-05
3.10329e-05
1.75298e-05
1.35252e-05
1.92113e-05
2.62384e-05
4.18954e-05
3.12933e-05
1.7239e-05
2.13377e-05
3.16046e-05
4.06861e-05
3.83346e-05
2.90729e-05
1.77414e-05
1.32927e-05
1.92427e-05
2.56484e-05
4.06699e-05
3.05552e-05
1.67346e-05
2.09666e-05
3.06596e-05
3.90954e-05
3.80364e-05
2.89535e-05
1.80256e-05
1.40647e-05
1.99264e-05
2.60807e-05
4.28487e-05
3.21518e-05
1.82204e-05
2.30988e-05
3.18937e-05
4.21857e-05
4.13606e-05
3.1664e-05
2.14504e-05
1.92572e-05
2.86561e-05
3.81778e-05
3.78788e-05
2.76688e-05
1.68109e-05
1.34996e-05
1.86151e-05
2.50224e-05
4.04826e-05
2.99164e-05
1.7832e-05
2.23719e-05
3.00357e-05
4.03978e-05
3.81794e-05
2.83857e-05
2.07377e-05
1.98437e-05
2.82996e-05
3.8464e-05
3.70982e-05
2.65033e-05
1.92873e-05
1.9101e-05
2.62056e-05
3.72962e-05
3.67297e-05
2.50966e-05
1.90608e-05
1.91524e-05
2.493e-05
3.71792e-05
3.69577e-05
2.44688e-05
1.92347e-05
1.92546e-05
2.45314e-05
3.73419e-05
3.69001e-05
2.47227e-05
1.92566e-05
1.92451e-05
2.50858e-05
3.70626e-05
3.65432e-05
2.60408e-05
1.9234e-05
1.92171e-05
2.69825e-05
3.68093e-05
3.68191e-05
2.8135e-05
1.92023e-05
1.91825e-05
2.90392e-05
3.7177e-05
3.74916e-05
2.99761e-05
1.91646e-05
1.91442e-05
3.07548e-05
3.79193e-05
3.84157e-05
3.13639e-05
1.91263e-05
1.91083e-05
3.22469e-05
3.89364e-05
3.98119e-05
3.24723e-05
1.90923e-05
1.90769e-05
3.32874e-05
4.0476e-05
4.17057e-05
3.33693e-05
1.90627e-05
1.90491e-05
3.41596e-05
4.24154e-05
4.37264e-05
3.42908e-05
1.90361e-05
1.90248e-05
3.52145e-05
4.45275e-05
4.60135e-05
3.53557e-05
1.90135e-05
1.90058e-05
3.63978e-05
4.69496e-05
4.85004e-05
3.6548e-05
1.89962e-05
1.89936e-05
3.7637e-05
4.96989e-05
5.13437e-05
3.78026e-05
1.89862e-05
1.89874e-05
3.89609e-05
5.27881e-05
5.43357e-05
3.91452e-05
1.89824e-05
1.89853e-05
4.03649e-05
5.5772e-05
5.71492e-05
4.05237e-05
1.89829e-05
1.89865e-05
4.17933e-05
5.85588e-05
5.97396e-05
4.19122e-05
1.89856e-05
1.89896e-05
4.31778e-05
6.11449e-05
6.21618e-05
4.32687e-05
1.8983e-05
1.89939e-05
4.45206e-05
6.35462e-05
6.43789e-05
4.4552e-05
1.90011e-05
1.89989e-05
4.57638e-05
6.5738e-05
6.63996e-05
4.57205e-05
1.89995e-05
1.9004e-05
4.69027e-05
6.77659e-05
6.82759e-05
4.67916e-05
1.90045e-05
1.90089e-05
4.78966e-05
6.96297e-05
7.00067e-05
4.77235e-05
1.90095e-05
1.90137e-05
4.87785e-05
7.13531e-05
7.16036e-05
4.85606e-05
1.90143e-05
1.90182e-05
4.9535e-05
7.2929e-05
7.30765e-05
4.927e-05
1.90187e-05
1.90224e-05
5.02028e-05
7.43968e-05
7.44449e-05
4.99068e-05
1.90228e-05
1.90263e-05
5.07642e-05
7.57484e-05
7.57222e-05
5.04313e-05
1.90267e-05
1.903e-05
5.1261e-05
7.70269e-05
7.69231e-05
5.0909e-05
1.90304e-05
1.90335e-05
5.16745e-05
7.82139e-05
7.80628e-05
5.12938e-05
1.90339e-05
1.90369e-05
5.20468e-05
7.93525e-05
7.91482e-05
5.16556e-05
1.90373e-05
1.90401e-05
5.23542e-05
8.04107e-05
8.01753e-05
5.19376e-05
1.90405e-05
1.90432e-05
5.26365e-05
8.14272e-05
8.11385e-05
5.22147e-05
1.90437e-05
1.90463e-05
5.28663e-05
8.23563e-05
8.2045e-05
5.24214e-05
1.90467e-05
1.90493e-05
5.30815e-05
8.32493e-05
8.2886e-05
5.26327e-05
1.90497e-05
1.90521e-05
5.32535e-05
8.40545e-05
8.36692e-05
5.27797e-05
1.90526e-05
1.90549e-05
5.34179e-05
8.48258e-05
8.43904e-05
5.29375e-05
1.90553e-05
1.90575e-05
5.35486e-05
8.55163e-05
8.50635e-05
5.30379e-05
1.9058e-05
1.90601e-05
5.3665e-05
8.61795e-05
8.56793e-05
5.31513e-05
1.90605e-05
1.90625e-05
5.37514e-05
8.67577e-05
8.62448e-05
5.32104e-05
1.90628e-05
1.90648e-05
5.38279e-05
8.73082e-05
8.67514e-05
5.32862e-05
1.90651e-05
1.90669e-05
5.38777e-05
8.77783e-05
8.72144e-05
5.33114e-05
1.90672e-05
1.90689e-05
5.39223e-05
8.82317e-05
8.76272e-05
5.33583e-05
1.90692e-05
1.90708e-05
5.39438e-05
8.86125e-05
8.8005e-05
5.33582e-05
1.9071e-05
1.90725e-05
5.39632e-05
8.89846e-05
8.83389e-05
5.33816e-05
1.90727e-05
1.90741e-05
5.39611e-05
8.92913e-05
8.86461e-05
5.33606e-05
1.90743e-05
1.90756e-05
5.3961e-05
8.95978e-05
8.89167e-05
5.33673e-05
1.90757e-05
1.9077e-05
5.39432e-05
8.98443e-05
8.9167e-05
5.33333e-05
1.90771e-05
1.90783e-05
5.39312e-05
9.01159e-05
8.93931e-05
5.33303e-05
1.90784e-05
1.90795e-05
5.39038e-05
9.0307e-05
8.95927e-05
5.32875e-05
1.90795e-05
1.90806e-05
5.38857e-05
9.05437e-05
8.97786e-05
5.32777e-05
1.90806e-05
1.90817e-05
5.38544e-05
9.06914e-05
8.99369e-05
5.323e-05
1.90817e-05
1.90826e-05
5.38336e-05
9.08874e-05
9.00844e-05
5.32197e-05
1.90826e-05
1.90835e-05
5.37991e-05
9.09966e-05
9.02087e-05
5.31707e-05
1.90835e-05
1.90844e-05
5.37765e-05
9.11606e-05
9.03272e-05
5.31599e-05
1.90843e-05
1.90852e-05
5.37412e-05
9.12413e-05
9.04259e-05
5.31108e-05
1.90851e-05
1.90859e-05
5.37185e-05
9.13801e-05
9.05205e-05
5.31e-05
1.90858e-05
1.90866e-05
5.36829e-05
9.14361e-05
9.05966e-05
5.30509e-05
1.90865e-05
1.90872e-05
5.36602e-05
9.15527e-05
9.06706e-05
5.30404e-05
1.90871e-05
1.90878e-05
5.36249e-05
9.1588e-05
9.07284e-05
5.29921e-05
1.90877e-05
1.90884e-05
5.36029e-05
9.16855e-05
9.07864e-05
5.29828e-05
1.90883e-05
1.90889e-05
5.3569e-05
9.1706e-05
9.08313e-05
5.29366e-05
1.90888e-05
1.90894e-05
5.35491e-05
9.17888e-05
9.08772e-05
5.29297e-05
1.90892e-05
1.90898e-05
5.35178e-05
9.17983e-05
9.09129e-05
5.28863e-05
1.90896e-05
1.90902e-05
5.35007e-05
9.1873e-05
9.09516e-05
5.28824e-05
1.909e-05
1.90906e-05
5.34721e-05
9.18747e-05
9.09805e-05
5.28418e-05
1.90904e-05
1.90909e-05
5.34579e-05
9.19424e-05
9.10128e-05
5.28408e-05
1.90907e-05
1.90913e-05
5.34321e-05
9.19383e-05
9.10376e-05
5.28031e-05
1.90911e-05
1.90916e-05
5.34208e-05
9.20028e-05
9.10676e-05
5.28049e-05
1.90914e-05
1.90919e-05
5.33977e-05
9.19961e-05
9.10893e-05
5.27696e-05
1.90917e-05
1.90922e-05
5.33884e-05
9.20559e-05
9.11131e-05
5.2773e-05
1.9092e-05
1.90925e-05
5.33666e-05
9.20414e-05
9.11277e-05
5.27389e-05
1.90923e-05
1.90928e-05
5.33585e-05
9.20954e-05
9.11483e-05
5.27434e-05
1.90926e-05
1.90931e-05
5.33378e-05
9.20802e-05
9.11641e-05
5.27104e-05
1.90929e-05
1.90934e-05
5.33305e-05
9.21351e-05
9.1183e-05
5.27153e-05
1.90931e-05
1.90936e-05
5.33097e-05
9.21139e-05
9.11888e-05
5.2682e-05
1.90934e-05
1.90939e-05
5.33021e-05
9.21558e-05
9.11957e-05
5.26871e-05
1.90936e-05
1.90941e-05
5.32821e-05
9.21258e-05
9.11993e-05
5.26555e-05
1.90939e-05
1.90943e-05
5.32768e-05
9.21722e-05
9.12145e-05
5.26629e-05
1.90941e-05
1.90945e-05
5.3259e-05
9.21502e-05
9.12215e-05
5.2633e-05
1.90943e-05
1.90947e-05
5.32546e-05
9.21931e-05
9.12269e-05
5.26411e-05
1.90945e-05
1.90949e-05
5.32375e-05
9.21579e-05
9.12236e-05
5.26122e-05
1.90946e-05
1.90951e-05
5.32347e-05
9.21966e-05
9.12334e-05
5.26222e-05
1.90948e-05
1.90953e-05
5.32194e-05
9.21724e-05
9.12419e-05
5.25945e-05
1.9095e-05
1.90955e-05
5.32169e-05
9.22186e-05
9.12499e-05
5.26037e-05
1.90952e-05
1.90956e-05
5.32002e-05
9.21827e-05
9.12416e-05
5.25747e-05
1.90954e-05
1.90958e-05
5.3197e-05
9.22127e-05
9.12408e-05
5.2584e-05
1.90956e-05
1.9096e-05
5.3181e-05
9.21771e-05
9.12409e-05
5.25566e-05
1.90957e-05
1.90962e-05
5.31794e-05
9.22187e-05
9.12481e-05
5.25668e-05
1.90959e-05
1.90963e-05
5.31635e-05
9.21841e-05
9.12419e-05
5.25392e-05
1.90961e-05
1.90965e-05
5.31619e-05
9.22154e-05
9.12404e-05
5.25499e-05
1.90963e-05
1.90967e-05
5.3147e-05
9.21772e-05
9.12374e-05
5.25236e-05
1.90964e-05
1.90968e-05
5.31466e-05
9.22158e-05
9.12424e-05
5.2535e-05
1.90966e-05
1.9097e-05
5.31317e-05
9.2179e-05
9.12338e-05
5.25083e-05
1.90968e-05
1.90972e-05
5.31308e-05
9.2206e-05
9.1226e-05
5.25193e-05
1.90969e-05
1.90974e-05
5.31161e-05
9.21601e-05
9.12166e-05
5.24934e-05
1.90971e-05
1.90975e-05
5.31167e-05
9.21954e-05
9.12231e-05
5.2506e-05
1.90973e-05
1.90977e-05
5.3103e-05
9.21644e-05
9.12229e-05
5.248e-05
1.90975e-05
1.90979e-05
5.31024e-05
9.22002e-05
9.1211e-05
5.24804e-05
1.90977e-05
1.90981e-05
5.3089e-05
9.2166e-05
9.12284e-05
5.24805e-05
1.90978e-05
1.91089e-05
5.31267e-05
9.21591e-05
9.12269e-05
5.25034e-05
1.91191e-05
1.91195e-05
5.31046e-05
9.21741e-05
9.12337e-05
5.24748e-05
1.91193e-05
1.91344e-05
5.31608e-05
9.23335e-05
9.12355e-05
5.27042e-05
1.91997e-05
1.93134e-05
5.3658e-05
9.32879e-05
9.45188e-05
5.42591e-05
1.96606e-05
2.02768e-05
5.53188e-05
9.6834e-05
0.000106402
5.97133e-05
2.16447e-05
2.32004e-05
6.32395e-05
0.000113132
0.000123669
6.92092e-05
2.46889e-05
0.000242276
0.000436428
0.000612256
0.000920844
0.00159843
0.00199978
0.00219309
0.00314379
0.00447856
0.00590645
0.00775025
0.0102874
0.0136924
0.0182316
0.0240473
0.0312809
0.0399654
0.0500929
0.0615773
0.0742728
0.0879602
0.102388
0.117206
0.132114
0.146523
0.160074
0.171821
0.181425
0.188303
0.192585
0.194601
0.196126
0.198918
0.202853
0.207779
0.213478
0.21987
0.226815
0.234362
0.242535
0.251445
0.261207
0.271984
0.283964
0.297397
0.312623
0.330111
0.350535
0.374926
0.408553
0.464249
0.563803
0.736787
1.01707
1.44195
2.05773
2.92886
4.1398
5.77991
7.89909
10.4393
13.1814
15.7963
18.0073
19.7335
21.0726
22.1646
23.0949
23.9
24.6138
25.2732
25.9092
26.5483
27.2124
27.9204
28.6886
29.5309
30.4604
31.4878
32.624
33.8779
35.2592
36.7759
38.4371
40.2504
42.2243
44.3669
46.6861
49.19
51.886
54.783
57.8868
61.2065
64.7468
68.5164
72.5194
76.7611
81.2474
85.9797
90.9622
96.1978
101.684
107.423
113.412
119.65
126.132