/*--------------------------------*- C++ -*----------------------------------*\
| =========                 |                                                 |
| \\      /  F ield         | OpenFOAM: The Open Source CFD Toolbox           |
|  \\    /   O peration     | Version:  v2006                                 |
|   \\  /    A nd           | Website:  www.openfoam.com                      |
|    \\/     M anipulation  |                                                 |
\*---------------------------------------------------------------------------*/
FoamFile
{
    version     2.0;
    format      ascii;
    class       volScalarField;
    location    "0.012";
    object      yPlus;
}
// * * * * * * * * * * * * * * * * * * * * * * * * * * * * * * * * * * * * * //

dimensions      [0 0 0 0 0 0 0];


internalField   uniform 0;

boundaryField
{
    bottomEmptyFaces
    {
        type            empty;
    }
    topEmptyFaces
    {
        type            empty;
    }
    inlet
    {
        type            calculated;
        value           uniform 0;
    }
    outlet
    {
        type            calculated;
        value           uniform 0;
    }
    walls
    {
        type            calculated;
        value           nonuniform List<scalar> 
768
(
41.7147
41.8866
41.9133
42.1035
42.1288
42.3188
42.3442
42.5282
42.5515
42.728
42.7486
42.9154
42.934
43.0932
43.111
43.2626
43.2802
43.4253
43.443
43.5823
43.6003
43.7352
43.7541
43.8856
43.9059
44.0339
44.0549
44.1791
44.2007
44.3212
44.3425
44.4586
44.4796
44.5913
44.6118
44.7193
44.7391
44.8422
44.8611
44.9597
44.9774
45.0713
45.0875
45.1771
45.1914
45.2758
45.2876
45.3669
45.3766
45.4515
45.4597
45.5305
45.5372
45.6044
45.6097
45.6733
45.6771
45.7378
45.7403
45.7981
45.7994
45.8548
45.8549
45.9079
45.9069
45.9576
45.9557
46.004
46.0014
46.0477
46.0444
46.0885
46.0844
46.1267
46.1219
46.1622
46.1568
46.1953
46.1891
46.2258
46.2187
46.2541
46.2463
46.2802
46.2717
46.3046
46.2955
46.3271
46.3175
46.3484
46.3383
46.3685
46.3579
46.3877
46.3768
46.4061
46.3949
46.4239
46.4126
46.4412
46.4298
46.4582
46.4468
46.4749
46.4632
46.4909
46.4791
46.5063
46.4942
46.5209
46.5085
46.5346
46.5218
46.5475
46.5344
46.5595
46.5461
46.571
46.5576
46.5822
46.5687
46.5933
46.5798
46.6042
46.5906
46.6148
46.6013
46.6253
46.6117
46.6357
46.6222
46.646
46.6325
46.6561
46.6426
46.6662
46.6526
46.676
46.6624
46.6858
46.6722
46.6955
46.6818
46.7052
46.6915
46.715
46.7013
46.7251
46.7116
46.7354
46.7217
46.7457
46.7322
46.756
46.7422
46.7663
46.7528
46.7767
46.7631
46.8206
46.8303
46.856
46.843
46.9212
47.063
47.4024
48.2895
49.9973
53.6076
57.8484
31.9786
33.0826
29.6396
22.7765
33.8323
36.7086
31.696
24.2143
30.1725
23.3544
34.6537
30.1833
29.2386
25.7166
25.5683
34.12
33.4053
29.285
28.0638
25.2421
24.993
33.4513
25.2068
25.0513
29.8294
28.2769
34.0017
25.2599
25.0375
29.7803
28.659
25.5095
25.5804
30.1071
28.8221
28.8642
26.3558
32.7738
30.4301
23.8661
22.7112
29.0761
25.8763
30.9752
27.2151
24.491
23.6876
21.8876
29.0938
23.5877
21.1626
33.3265
32.2853
28.6013
24.2456
29.8389
24.9991
29.672
26.8705
21.6789
29.9359
26.4032
21.3368
30.255
26.2662
20.9983
28.9454
25.9469
19.9768
29.9187
26.1766
21.9007
31.5688
30.3925
26.8953
23.4828
29.554
26.1278
32.9009
26.8335
24.1209
24.0584
21.2231
27.5656
23.0131
31.3469
28.3992
26.5275
23.8489
22.7276
32.7771
32.6858
24.9175
24.5302
28.7498
27.2579
24.6466
24.307
32.1264
24.562
23.9004
28.9568
27.3031
33.647
29.8308
27.3909
32.4606
25.01
24.0629
27.2311
24.966
29.2774
27.6506
45.7283
37.582
36.3772
42.2362
41.9376
35.882
35.1723
39.645
36.3176
35.7109
30.5298
31.1186
33.4075
32.4633
42.5471
34.0754
32.9232
40.5988
31.4267
31.8997
43.9976
37.491
36.7848
35.4406
34.2943
44.3944
37.4511
35.8709
45.5305
36.9996
35.6534
38.5897
37.7967
32.2239
32.599
44.346
165.087
169.704
160.785
36.4829
35.18
44.5717
37.4478
35.8812
45.0442
37.0873
35.9179
45.3437
37.8319
36.5195
77.5217
128.558
118.641
118.093
150.356
131.906
132.149
117.089
100.828
80.8684
85.1095
431.532
329.893
375.647
296.473
232.218
252.749
493.221
530.654
594.011
633.907
704.47
706.851
208.771
173.739
189.104
163.708
156.553
152.622
708.078
659.843
594.633
490.928
313.61
377.829
245.005
169.328
204.128
155.959
132.781
122.55
124.313
123.379
116.931
109.906
107.509
105.443
124.037
113.535
38.6311
34.5189
46.6572
30.0472
29.247
20.1514
33.0503
32.6902
23.3958
37.7037
29.6915
28.2421
20.2974
132.609
129.706
124.99
123.195
116.85
122.755
117.579
108.481
100.218
91.078
49.4768
43.3131
40.9034
47.0567
38.9519
37.872
45.8615
38.7138
37.1795
46.7237
82.2259
40.4546
38.37
72.1496
71.9504
62.8023
74.4719
53.6188
52.5198
53.2496
34.0706
46.7283
41.8426
38.8663
33.1052
32.6755
46.4579
42.1364
38.6664
54.0002
47.6537
32.6179
33.0383
32.5565
32.8828
32.1898
32.1394
31.745
31.7725
53.4873
48.6581
44.7996
41.5708
57.2311
55.243
52.8099
47.1078
58.1271
54.3008
54.5449
44.5555
40.1885
53.4474
54.9761
55.9815
57.3192
41.6037
39.5145
58.8082
59.3825
59.7263
58.445
57.2569
55.5833
54.213
52.5352
51.146
49.6866
48.4937
47.3765
46.4438
45.5957
44.8518
44.1709
43.5465
43.0236
42.517
42.1817
41.7735
41.6654
41.3621
41.4116
41.2102
41.3246
41.2293
41.3734
41.336
41.5005
41.4922
41.6777
31.3852
31.3352
30.984
31.0859
31.0589
31.2547
31.1691
31.3473
31.2772
31.4855
31.4685
31.7063
31.7095
31.9797
31.9796
32.2519
32.249
32.5078
32.4974
32.739
32.7215
32.9427
32.9152
33.1244
33.0964
33.2865
33.2525
33.4343
33.4015
33.5687
33.5349
33.693
33.6624
33.8106
33.7818
33.9207
33.893
34.0204
34.003
34.1144
34.0983
34.2087
34.1937
34.2983
34.2839
34.3855
34.3709
34.4684
34.4537
34.5462
34.5314
34.6201
34.6057
34.6922
34.6786
34.7641
34.7378
34.8332
35.0601
35.3276
35.8889
37.3831
40.8009
44.8335
37.0389
36.0193
31.001
30.5407
26.6066
26.8852
35.9244
27.0718
27.327
31.9478
31.1777
38.1839
33.2705
32.7427
28.3151
28.6488
40.2218
34.5628
34.1133
38.2561
32.2856
31.2446
29.4184
29.8279
38.6095
29.1457
29.5603
34.3866
33.6491
37.1817
27.9144
28.4116
32.0731
31.5058
27.3939
27.7962
32.9775
32.2558
35.3792
35.3103
26.5449
26.8448
30.6397
29.8078
26.1372
26.2529
34.7885
26.0946
26.3443
30.7016
29.6062
31.1464
30.3122
40.216
30.2006
30.704
48.9413
61.7219
121.561
111.909
105.136
100.651
97.1797
94.1166
91.5499
89.423
87.9786
86.4463
85.4802
84.3319
83.6504
82.7538
82.24
81.5131
81.1036
80.494
80.1557
79.6301
79.3426
78.8795
78.6292
78.2143
77.9923
77.6158
77.4163
77.0719
76.891
76.574
76.409
76.1161
75.9652
75.6939
75.5555
75.304
75.1773
74.9442
74.8283
74.6128
74.5073
74.3089
74.2133
74.0321
73.9456
73.7823
73.7047
73.5596
73.4916
73.3648
73.3068
73.2013
73.1532
73.0691
73.0314
72.9691
72.9422
72.9026
72.8871
72.876
72.8711
72.8752
72.8958
72.9158
72.9653
73.0027
73.0815
73.1445
73.2494
73.3448
73.477
73.6071
73.771
73.9375
74.1398
74.344
74.5881
74.8342
75.1241
75.416
75.7585
76.1005
76.5009
76.8977
77.3605
77.816
78.3444
78.862
79.4584
80.041
80.7076
81.3518
82.0834
82.7913
83.5857
84.3554
85.2072
86.0338
86.9345
87.8099
88.7488
89.6609
90.622
91.5561
92.5219
93.4604
94.4123
95.3354
96.2535
97.1407
98.0032
98.8351
99.6236
100.374
101.074
101.724
102.315
102.846
103.311
103.714
104.05
104.336
104.563
104.733
104.857
104.945
104.985
104.999
104.969
104.925
104.836
104.742
104.63
104.493
104.348
104.185
104.023
103.843
103.675
103.483
103.319
103.103
102.968
102.801
102.615
102.614
102.25
103.232
105.298
133.875
107.875
)
;
    }
    rightWall
    {
        type            calculated;
        value           uniform 0;
    }
    symmetryLine
    {
        type            symmetryPlane;
    }
}


// ************************************************************************* //
