/*--------------------------------*- C++ -*----------------------------------*\
| =========                 |                                                 |
| \\      /  F ield         | OpenFOAM: The Open Source CFD Toolbox           |
|  \\    /   O peration     | Version:  v2006                                 |
|   \\  /    A nd           | Website:  www.openfoam.com                      |
|    \\/     M anipulation  |                                                 |
\*---------------------------------------------------------------------------*/
FoamFile
{
    version     2.0;
    format      ascii;
    class       volScalarField;
    location    "0.032";
    object      p;
}
// * * * * * * * * * * * * * * * * * * * * * * * * * * * * * * * * * * * * * //

dimensions      [1 -1 -2 0 0 0 0];


internalField   nonuniform List<scalar> 
16277
(
147986
147993
147996
147981
147991
147989
147990
147993
147997
148001
148007
148013
148019
148025
148032
148038
148045
148052
148060
148067
148075
148084
148092
148101
148111
148120
148130
148140
148150
148161
148172
148183
148194
148205
148217
148228
148240
148252
148265
148277
148289
148302
148315
148327
148340
148353
148366
148379
148391
148404
148417
148430
148442
148455
148468
148480
148492
148504
148516
148528
148540
148551
148563
148574
148584
148595
148605
148615
148625
148635
148644
148653
148661
148670
148678
148685
148692
148699
148706
148712
148718
148724
148729
148733
148735
148737
148737
148737
148736
148738
148737
148741
148746
148755
148772
148783
148791
148779
148779
148775
148772
148773
148774
148768
148768
148768
148763
148763
148763
148759
148759
148759
148755
148755
148755
148753
148753
148753
148751
148750
148750
148749
148749
148749
148748
148747
148747
148747
148747
148747
148746
148746
148746
148746
148746
148746
148746
148746
148746
148746
148746
148747
148747
148747
148746
148747
148748
148748
148749
148748
148748
148750
148750
148750
148751
148751
148751
148753
148753
148753
148755
148755
148754
148757
148757
148757
148759
148759
148759
148761
148762
148762
148764
148764
148764
148767
148767
148767
148769
148769
148769
148772
148773
148773
148776
148775
148775
148779
148779
148779
148782
148782
148782
148786
148786
148786
148790
148790
148789
148794
148794
148794
148798
148798
148798
148802
148802
148803
148806
148806
148806
148811
148811
148812
148816
148816
148815
148821
148821
148821
148826
148825
148825
148831
148831
148831
148836
148836
148836
148842
148842
148842
148847
148847
148847
148853
148853
148854
148859
148859
148859
148865
148865
148866
148871
148871
148871
148878
148878
148878
148884
148884
148884
148891
148891
148892
148898
148898
148898
148905
148905
148905
148912
148912
148912
148920
148920
148920
148927
148927
148927
148935
148935
148935
148943
148942
148942
148951
148951
148951
148959
148958
148958
148967
148967
148967
148975
148975
148975
148984
148984
148985
148993
148993
148992
149002
149002
149002
149011
149010
149010
149020
149020
149020
149029
149029
149029
149038
149039
149039
149048
149048
149048
149057
149058
149058
149067
149067
149067
149077
149077
149077
149087
149086
149086
149096
149097
149097
149106
149106
149106
149116
149116
149116
149126
149125
149125
149135
149135
149136
149145
149145
149145
149154
149155
149155
149164
149164
149163
149173
149173
149173
149182
149182
149182
149191
149191
149191
149199
149199
149199
149207
149207
149208
149215
149215
149215
149222
149222
149223
149229
149229
149229
149235
149235
149236
149241
149241
149241
149246
149246
149246
149250
149250
149250
149254
149254
149254
149257
149257
149257
149259
149259
149259
149260
149260
149260
149261
149261
149261
149260
149260
149260
149259
149259
149259
149257
149257
149257
149254
149254
149254
149250
149250
149250
149246
149246
149246
149240
149240
149240
149235
149235
149235
149227
149228
149228
149222
149221
149221
149213
149214
149214
149207
149206
149206
149198
149198
149198
149190
149190
149190
149181
149181
149182
149174
149173
149173
149164
149164
149165
149157
149156
149156
149147
149148
149148
149140
149140
149140
149131
149131
149131
149124
149124
149124
149115
149116
149116
149109
149109
149109
149101
149101
149101
149095
149095
149095
149088
149088
149088
149083
149083
149083
149076
149077
149077
149072
149072
149072
149066
149067
149067
149063
149063
149062
149058
149058
149058
149055
149055
149054
149050
149051
149051
149048
149048
149048
149044
149044
149044
149042
149042
149042
149039
149039
149039
149037
149037
149037
149035
149035
149035
149033
149033
149033
149031
149031
149031
149030
149030
149030
149028
149028
149028
149027
149027
149027
149025
149025
149025
149024
149024
149024
149022
149022
149022
149021
149021
149021
149020
149020
149020
149019
149019
149019
149018
149018
149018
149017
149017
149017
149016
149016
149016
149015
149015
149015
149014
149014
149014
149013
149013
149013
149012
149012
149012
149012
149012
149012
149011
149011
149011
149010
149010
149010
149009
149009
149009
149008
149008
149008
149007
149007
149007
149007
149007
149007
149006
149006
149006
149005
149005
149005
149004
149004
149004
149003
149003
149003
149002
149002
149002
149001
149001
149001
148999
148999
148999
148999
149000
149000
149008
149008
149006
148981
148978
148979
148986
148995
149000
149001
149000
149001
149000
149000
149000
149000
149000
149000
149000
149000
149001
149000
149002
149001
149001
149001
149003
149004
149000
149005
149008
149008
149003
148994
148993
148999
149003
148999
148998
148995
148997
148997
148998
148999
148998
148998
148999
148999
148999
149000
149000
149000
149000
149000
149000
149001
149001
149001
149001
149001
149002
149002
149002
149002
149002
149002
149002
149003
149003
149003
149003
149003
149003
149004
149004
149003
149004
149004
149004
149004
149004
149004
149004
149005
149005
149005
149005
149005
149005
149005
149005
149006
149006
149006
149006
149006
149006
149006
149006
149006
149007
149007
149007
149007
149007
149007
149007
149007
149007
149008
149008
149008
149008
149008
149008
149008
149008
149008
149009
149009
149009
149009
149009
149009
149009
149009
149009
149010
149010
149009
149010
149010
149010
149010
149010
149010
149010
149010
149011
149011
149011
149011
149011
149011
149011
149011
149011
149011
149011
149012
149012
149012
149012
149012
149012
149012
149012
149012
149012
149012
149012
149013
149013
149013
149013
149013
149013
149013
149013
149013
149013
149013
149013
149014
149014
149014
149014
149014
149014
149014
149014
149014
149014
149014
149014
149014
149014
149015
149014
149014
149014
149015
149015
149015
149015
149015
149015
149015
149015
149015
149015
149015
149015
149015
149015
149015
149015
149015
149015
149015
149015
149015
149015
149015
149015
149015
149015
149015
149015
149015
149015
149015
149015
149015
149015
149014
149014
149014
149014
149014
149014
149014
149014
149014
149014
149014
149014
149014
149013
149013
149013
149013
149013
149013
149012
149012
149012
149011
149012
149012
149011
149011
149011
149010
149010
149011
149010
149009
149009
149008
149009
149009
149008
149007
149007
149006
149006
149007
149006
149005
149005
149003
149004
149004
149003
149002
149002
149000
149000
149001
148999
148998
148998
148996
148996
148997
148995
148994
148993
148990
148991
148992
148989
148988
148987
148983
148984
148986
148981
148980
148980
148975
148975
148976
148969
148968
148968
148959
148960
148962
148957
148955
148954
148948
148950
148953
148951
148949
148946
148948
148950
148952
148954
148952
148950
148953
148955
148957
148960
148958
148956
148959
148961
148963
148970
148968
148966
148973
148974
148975
148980
148978
148976
148981
148982
148984
148990
148986
148984
149003
149003
149003
149018
149024
149022
148975
148953
148972
148997
148996
148995
149012
149010
149008
149018
149017
149015
149025
149024
149023
149032
149030
149029
149033
149035
149038
149045
149047
149047
149052
149051
149049
149055
149060
149063
149065
149064
149062
149086
149078
149072
149094
149098
149100
149061
149036
149069
149084
149085
149084
149097
149097
149097
149104
149105
149106
149121
149118
149116
149119
149123
149129
149130
149132
149131
149149
149149
149152
149163
149168
149163
149124
149142
149139
149165
149160
149159
149174
149177
149179
149193
149191
149189
149196
149200
149204
149220
149217
149212
149241
149242
149240
149223
149202
149240
149239
149243
149246
149261
149265
149269
149281
149278
149273
149312
149301
149292
149320
149322
149322
149309
149288
149323
149346
149346
149344
149365
149362
149359
149383
149390
149394
149419
149421
149422
149437
149395
149417
149455
149465
149469
149475
149484
149488
149530
149527
149521
149557
149563
149562
149594
149587
149579
149646
149651
149652
149694
149698
149694
149729
149757
149748
149817
149821
149818
149900
149902
149888
149995
150002
149997
150147
150124
150087
150120
150171
150189
150274
150219
150164
150124
150179
150227
149993
149990
149959
149685
149690
149636
149311
149382
149397
149223
149170
149082
149062
149088
149099
149016
148976
148917
148940
148960
148969
148932
148916
148880
148907
148843
148880
148868
148863
148838
148843
148847
148857
148863
148856
148842
148826
148836
148845
148821
148813
148809
148819
148831
148837
148831
148826
148823
148805
148806
148811
148826
148827
148820
148820
148819
148818
148804
148799
148798
148826
148836
148841
148831
148820
148814
148800
148800
148805
148831
148845
148848
148828
148823
148813
148803
148797
148796
148836
148845
148850
148847
148829
148820
148804
148805
148812
148833
148850
148855
148853
148836
148811
148813
148812
148814
148852
148856
148854
148837
148836
148837
148846
148835
148812
148819
148786
148864
148869
148866
148861
148837
148839
148844
148796
148828
148815
148848
148857
148855
148842
148842
148838
148819
148797
148843
148863
148864
148860
148842
148838
148839
148800
148828
148817
148857
148864
148861
148850
148842
148843
148817
148829
148798
148858
148860
148850
148837
148840
148840
148833
148794
148815
148855
148861
148861
148849
148847
148841
148814
148790
148844
148860
148856
148847
148820
148835
148839
148850
148777
148809
148843
148857
148852
148824
148820
148815
148846
148847
148842
148827
148821
148817
148793
148792
148796
148841
148840
148829
148813
148826
148835
148812
148804
148801
148825
148837
148838
148821
148813
148801
148781
148777
148779
148820
148823
148819
148799
148805
148809
148794
148787
148785
148813
148828
148832
148798
148798
148794
148759
148728
148800
148801
148805
148795
148766
148764
148765
148805
148804
148790
148772
148788
148805
148762
148754
148752
148778
148789
148790
148762
148763
148758
148730
148705
148760
148768
148772
148766
148739
148735
148733
148782
148781
148771
148752
148754
148760
148714
148711
148715
148744
148752
148752
148727
148728
148723
148694
148670
148725
148730
148734
148728
148702
148699
148697
148742
148745
148743
148725
148711
148706
148671
148669
148676
148702
148704
148700
148686
148681
148684
148651
148668
148620
148691
148688
148685
148655
148655
148656
148699
148698
148691
148668
148670
148670
148647
148607
148628
148655
148662
148657
148618
148619
148623
148637
148642
148638
148622
148619
148621
148593
148602
148586
148635
148635
148628
148601
148603
148610
148624
148623
148611
148583
148590
148599
148545
148569
148554
148582
148586
148587
148546
148547
148551
148569
148577
148577
148556
148555
148549
148525
148508
148544
148579
148580
148566
148528
148524
148524
148542
148543
148533
148507
148509
148517
148447
148498
148477
148509
148504
148525
148472
148471
148471
148487
148493
148490
148461
148460
148462
148491
148506
148512
148481
148473
148464
148427
148423
148438
148452
148456
148450
148416
148413
148414
148429
148432
148427
148406
148405
148413
148344
148398
148376
148409
148402
148424
148374
148373
148374
148400
148412
148416
148373
148368
148365
148373
148380
148379
148349
148350
148345
148310
148289
148332
148332
148341
148334
148301
148298
148300
148323
148325
148319
148285
148279
148277
148312
148312
148303
148282
148287
148296
148256
148276
148257
148284
148287
148295
148234
148235
148239
148247
148253
148251
148209
148209
148211
148226
148232
148229
148201
148203
148201
148166
148149
148177
148197
148204
148194
148161
148158
148159
148197
148197
148187
148153
148151
148154
148171
148170
148160
148128
148135
148135
148125
148062
148088
148113
148137
148115
148071
148071
148077
148091
148097
148094
148049
148049
148055
148071
148079
148079
148049
148052
148045
148012
147984
148050
148062
148080
148051
148012
148010
148013
148019
148022
148015
147972
147968
147970
147981
147984
147979
147942
147938
147938
147961
147962
147953
147928
147929
147939
147864
147913
147891
147925
147917
147936
147881
147881
147884
147900
147906
147905
147877
147869
147867
147876
147884
147883
147835
147833
147834
147841
147851
147851
147811
147815
147809
147768
147743
147800
147793
147811
147792
147754
147749
147749
147768
147772
147766
147728
147724
147726
147747
147749
147742
147705
147701
147700
147742
147739
147726
147696
147706
147707
147690
147626
147652
147672
147699
147673
147629
147627
147631
147638
147646
147643
147584
147585
147592
147604
147611
147608
147562
147562
147566
147578
147587
147586
147552
147544
147548
147507
147534
147472
147561
147534
147545
147501
147501
147506
147521
147519
147510
147462
147460
147461
147470
147473
147467
147422
147418
147418
147436
147439
147432
147392
147390
147393
147409
147410
147400
147366
147375
147373
147369
147284
147319
147341
147381
147338
147298
147297
147302
147321
147330
147326
147280
147276
147279
147292
147302
147303
147237
147237
147241
147248
147256
147255
147202
147201
147203
147209
147219
147218
147170
147176
147171
147128
147109
147154
147156
147171
147153
147107
147104
147106
147114
147119
147112
147065
147060
147061
147078
147082
147076
147032
147030
147033
147056
147056
147046
147001
146999
147001
147017
147017
147006
146968
146978
146976
146956
146881
146916
146938
146976
146941
146895
146892
146895
146900
146909
146903
146841
146842
146848
146860
146869
146869
146799
146802
146808
146820
146829
146826
146779
146775
146777
146784
146793
146791
146750
146752
146745
146692
146667
146720
146726
146743
146718
146667
146662
146665
146668
146675
146668
146615
146610
146611
146635
146635
146625
146569
146563
146560
146584
146586
146577
146529
146527
146528
146547
146547
146535
146493
146503
146497
146492
146397
146437
146454
146504
146454
146408
146403
146407
146413
146423
146414
146358
146355
146360
146366
146374
146371
146305
146304
146309
146313
146321
146317
146263
146260
146261
146265
146273
146271
146210
146210
146213
146217
146227
146225
146182
146176
146174
146108
146115
146105
146147
146141
146138
146079
146076
146076
146080
146082
146076
146017
146011
146010
146026
146030
146022
145967
145964
145965
145972
145977
145970
145919
145918
145920
145931
145933
145924
145880
145886
145885
145835
145797
145814
145833
145854
145835
145778
145775
145779
145786
145798
145796
145712
145715
145722
145723
145732
145730
145663
145660
145663
145657
145664
145660
145591
145591
145595
145592
145597
145589
145553
145548
145548
145479
145491
145480
145509
145506
145506
145446
145444
145445
145452
145454
145446
145382
145378
145379
145395
145396
145385
145318
145313
145311
145324
145326
145317
145256
145254
145257
145262
145263
145251
145195
145201
145201
145126
145099
145110
145125
145145
145130
145044
145047
145057
145054
145061
145051
144988
144987
144992
144999
145008
145003
144938
144934
144936
144933
144942
144939
144862
144863
144867
144867
144880
144879
144822
144818
144812
144721
144713
144729
144762
144766
144747
144675
144669
144671
144672
144676
144664
144584
144579
144582
144569
144573
144566
144479
144462
144448
144483
144491
144484
144439
144448
144442
144396
144331
144365
144381
144417
144390
144316
144310
144317
144314
144326
144318
144232
144231
144238
144234
144245
144241
144153
144153
144157
144151
144167
144168
144090
144079
144080
143969
143993
143955
144004
143989
143991
143903
143900
143898
143855
143864
143867
143769
143754
143742
143787
143794
143786
143722
143718
143716
143732
143736
143724
143661
143673
143665
143626
143534
143573
143574
143617
143583
143491
143487
143496
143495
143511
143508
143399
143399
143406
143383
143392
143386
143279
143279
143283
143267
143282
143284
143179
143179
143175
143036
143014
143053
142994
143023
143022
142946
142933
142930
142981
142985
142971
142896
142889
142886
142897
142902
142892
142808
142805
142805
142815
142817
142802
142727
142734
142734
142625
142591
142604
142618
142644
142631
142527
142522
142526
142491
142501
142492
142376
142374
142378
142347
142362
142361
142232
142233
142230
142055
142000
142020
142075
142095
142082
142015
142006
142010
142039
142045
142030
141942
141936
141936
141937
141941
141928
141824
141819
141819
141816
141821
141806
141716
141724
141734
141572
141569
141564
141583
141595
141604
141459
141464
141470
141415
141423
141419
141260
141262
141269
141201
141210
141206
140956
141012
141050
140919
140895
140873
141001
141008
140991
140916
140914
140915
140907
140915
140903
140795
140792
140794
140779
140786
140772
140671
140680
140685
140512
140496
140496
140513
140531
140530
140390
140392
140400
140344
140361
140359
140216
140203
140191
139942
139934
139949
139839
139869
139883
139732
139687
139651
139740
139763
139763
139692
139688
139689
139711
139717
139699
139612
139620
139623
139454
139429
139435
139443
139473
139466
139304
139303
139315
139263
139283
139281
139124
139120
139110
138870
138868
138889
138879
138886
138860
138697
138681
138678
138447
138497
138521
138346
138292
138231
138141
138176
138204
138300
138323
138315
138196
138202
138207
138191
138213
138211
138070
138071
138062
137824
137817
137853
137828
137841
137815
137660
137658
137665
137584
137590
137573
137367
137377
137384
137056
137032
137039
136930
136945
136908
136485
136582
136672
136671
136650
136599
136579
136588
136599
136466
136483
136466
136521
136519
136505
136365
136357
136349
136325
136328
136311
136130
136141
136145
135859
135824
135829
135787
135816
135809
135555
135555
135565
135350
135366
135357
134911
134967
135027
134586
134453
134320
134652
134690
134698
134665
134661
134663
134509
134529
134512
134519
134537
134541
134305
134320
134335
134247
134268
134265
134025
134020
134006
133612
133600
133617
133570
133566
133544
133268
133260
133281
132548
132639
132715
132526
132427
132306
132338
132379
132437
132281
132285
132251
132405
132407
132380
132226
132211
132196
132168
132174
132147
131890
131906
131912
131432
131411
131425
131297
131322
131324
130944
130930
130950
130256
130127
130000
129724
129887
130029
129950
129872
129795
129777
129798
129817
129918
129952
129943
129799
129797
129788
129409
129396
129403
129296
129288
129256
128876
128883
128891
128118
128113
128169
127647
127463
127269
126865
127129
127327
127200
127118
126977
127032
127055
127088
127209
127264
127251
127055
127043
127035
126526
126526
126515
126153
126158
126150
125579
125492
125441
123747
124145
124473
124037
123847
123622
124334
124384
124377
124449
124441
124442
124256
124269
124256
123762
123688
123793
123281
123340
123376
122635
122442
122211
120557
121097
121483
121218
121037
120838
121782
121804
121726
121766
121761
121764
121409
121425
121447
120627
120527
120611
118064
118736
119104
119232
118994
118833
119387
119387
119492
119495
119427
119415
119145
119179
119290
118528
118159
117616
117354
117695
117991
118008
117920
117699
118804
118843
118776
118997
118760
118305
118075
118642
118948
119146
118992
118745
119649
119792
119797
120659
120549
120262
121398
121523
121550
122419
122445
122409
123124
123144
123122
123668
123679
123664
124117
124127
124122
124520
124522
124515
124869
124875
124874
125193
125193
125188
125477
125481
125482
125746
125744
125741
125983
125987
125989
126213
126211
126207
126414
126417
126420
126611
126608
126605
126782
126785
126788
126952
126949
126947
127100
127102
127105
127248
127245
127242
127376
127378
127381
127507
127504
127501
127619
127621
127624
127735
127732
127731
127835
127836
127839
127938
127935
127934
128026
128028
128030
128119
128116
128115
128198
128199
128202
128281
128279
128277
128352
128354
128356
128428
128425
128424
128492
128493
128495
128560
128558
128557
128619
128619
128621
128680
128678
128678
128733
128734
128735
128790
128788
128787
128838
128839
128840
128889
128888
128887
128933
128934
128935
128980
128979
128978
129021
129021
129022
129063
129062
129061
129100
129101
129101
129139
129138
129138
129173
129174
129174
129209
129208
129208
129240
129240
129241
129273
129272
129272
129302
129302
129302
129331
129331
129331
129358
129358
129358
129385
129385
129385
129410
129410
129410
129435
129435
129434
129457
129458
129457
129481
129481
129480
129501
129502
129501
129522
129523
129522
129542
129542
129541
129561
129561
129561
129579
129579
129579
129597
129597
129597
129613
129613
129613
129630
129630
129630
129645
129645
129645
129660
129660
129660
129674
129674
129674
129688
129688
129688
129701
129701
129701
129714
129714
129714
129726
129726
129726
129738
129738
129738
129749
129749
129749
129760
129760
129760
129770
129770
129770
129781
129781
129781
129790
129790
129790
129799
129800
129799
129808
129808
129808
129817
129817
129817
129825
129825
129825
129833
129833
129833
129840
129840
129840
129848
129848
129848
129855
129855
129855
129862
129862
129862
129868
129868
129868
129875
129875
129874
129880
129880
129880
129886
129886
129886
129892
129892
129891
129897
129897
129897
129902
129902
129902
129907
129907
129907
129912
129912
129912
129917
129917
129917
129921
129921
129921
129926
129925
129925
129929
129929
129929
129934
129933
129933
129937
129937
129937
129941
129941
129941
129944
129944
129944
129948
129948
129948
129951
129951
129951
129954
129954
129954
129957
129957
129957
129960
129960
129960
129963
129963
129963
129966
129966
129966
129968
129968
129968
129971
129971
129971
129973
129973
129973
129976
129975
129975
129977
129977
129977
129980
129980
129980
129981
129981
129981
129984
129984
129984
129985
129985
129985
129987
129987
129987
129989
129989
129989
129991
129990
129990
129992
129992
129992
129994
129993
129993
129995
129995
129995
129996
129996
129996
129997
129997
129997
129999
129999
129999
130000
130000
130000
130001
130001
130001
130002
130002
130002
130003
130003
130003
130004
130004
130004
130005
130005
130005
130006
130006
130006
130007
130007
130007
130007
130007
130007
130008
130008
130008
130009
130009
130009
130010
130009
130009
130010
130010
130010
130011
130011
130011
130011
130011
130011
130011
130011
130011
130012
130012
130012
130012
130012
130012
130012
130012
130012
130013
130013
130013
130013
130013
130013
130013
130013
130013
130013
130013
130013
130013
130013
130013
130013
130013
130013
130013
130013
130013
130013
130013
130013
130013
130013
130013
130013
130013
130013
130013
130013
130013
130013
130013
130013
130013
130013
130013
130013
130013
130013
130013
130013
130013
130012
130012
130012
130012
130012
130012
130012
130012
130012
130011
130011
130011
130011
130011
130011
130011
130011
130011
130010
130010
130010
130010
130010
130010
130009
130009
130009
130008
130008
130008
130007
130007
130007
130007
130007
130007
130006
130006
130006
130005
130005
130005
130004
130004
130004
130003
130003
130003
130002
130002
130002
130001
130001
130001
129999
129999
129999
129998
129998
129998
129997
129997
129997
129996
129996
129996
129994
129994
129994
129993
129993
129993
129992
129991
129991
129990
129990
129990
129989
129989
129989
129988
129988
129988
129986
129986
129986
129985
129985
129985
129983
129983
129983
129982
129982
129982
129980
129980
129980
129980
129980
129980
129979
129978
129978
129977
129977
129977
129973
129973
129973
129967
129967
129967
129965
129964
129963
129972
129973
129973
130004
130006
130007
130031
130027
130024
130040
130067
130036
130014
129986
130035
130070
130028
130003
130028
130055
130044
130028
130019
130014
130012
130011
130012
130012
130012
130012
130013
130013
130013
130013
130013
130012
130012
130011
130011
130010
130011
130011
130008
130010
130016
130021
130029
130037
130047
130058
130070
130082
130093
130101
130105
130108
130112
130117
130124
130131
130140
130150
130160
130172
130185
130200
130216
130235
130256
130279
130306
130337
130372
130411
130456
130506
130563
130628
130700
130782
130873
130975
131088
131215
131354
131508
131677
131862
132063
132281
132515
132766
133033
133315
133612
133922
134244
134577
134918
135267
135622
135981
136342
136704
137065
137425
137781
138132
138479
138819
139152
139478
139795
140105
140406
140697
140980
141254
141519
141775
142021
142259
142489
142710
142922
143127
143324
143513
143695
143870
144038
144200
144355
144504
144647
144784
144916
145043
145165
145282
145394
145502
145606
145706
145801
145893
145982
146066
146148
146226
146302
146374
146444
146511
146576
146638
146697
146755
146810
146863
146914
146963
147010
147056
147100
147142
147182
147221
147259
147295
147329
147363
147395
147426
147456
147484
147512
147538
147563
147588
147611
147633
147655
147675
147695
147714
147732
147750
147766
147782
147797
147812
147826
147839
147851
147863
147874
147885
147895
147904
147913
147921
147929
147936
147943
147949
147954
147959
147964
147968
147971
147977
147984
147991
147994
147994
147996
147983
147990
147991
147999
148006
148011
148015
148019
148024
148029
148034
148040
148046
148052
148058
148065
148072
148080
148088
148096
148105
148114
148123
148132
148142
148152
148163
148173
148184
148195
148207
148218
148230
148242
148254
148266
148278
148290
148303
148315
148328
148341
148354
148366
148379
148392
148405
148417
148430
148443
148455
148468
148480
148492
148504
148516
148528
148540
148551
148562
148573
148584
148595
148605
148615
148624
148634
148643
148652
148660
148668
148676
148683
148690
148696
148703
148708
148714
148719
148724
148728
148732
148733
148734
148736
148741
148750
148756
148759
148755
148753
148751
148749
148748
148747
148747
148747
148747
148747
148747
148748
148749
148751
148752
148754
148755
148758
148759
148762
148764
148767
148770
148773
148776
148780
148783
148787
148790
148795
148798
148803
148807
148812
148816
148822
148826
148832
148836
148843
148848
148854
148859
148866
148872
148879
148885
148892
148898
148906
148912
148920
148927
148936
148943
148951
148959
148968
148976
148985
148993
149003
149011
149021
149029
149039
149048
149058
149067
149078
149087
149097
149106
149117
149126
149136
149145
149155
149164
149174
149182
149192
149199
149208
149215
149223
149229
149236
149241
149247
149251
149255
149257
149260
149260
149261
149261
149260
149257
149255
149250
149246
149240
149234
149227
149221
149213
149206
149197
149190
149180
149173
149163
149156
149146
149139
149130
149123
149114
149108
149100
149094
149087
149082
149076
149071
149066
149062
149057
149054
149050
149048
149044
149042
149039
149037
149034
149033
149031
149030
149027
149027
149025
149024
149022
149021
149020
149019
149018
149017
149016
149015
149014
149014
149012
149012
149010
149010
149009
149009
149007
149007
149006
149005
149004
149003
149002
149002
149001
149002
149005
149003
149003
149004
149003
149002
149001
149002
149002
149002
149004
149004
149004
149005
149005
149005
149007
149007
149007
149009
149008
149009
149010
149010
149010
149012
149011
149012
149014
149013
149014
149015
149015
149015
149017
149017
149017
149019
149019
149019
149021
149021
149022
149024
149023
149024
149026
149025
149027
149029
149028
149030
149033
149031
149034
149037
149035
149038
149041
149040
149043
149047
149045
149049
149053
149051
149056
149061
149058
149064
149070
149067
149073
149080
149078
149085
149092
149090
149097
149106
149104
149112
149121
149119
149127
149137
149135
149143
149153
149152
149160
149170
149170
149178
149188
149187
149194
149204
149204
149211
149220
149221
149225
149234
149235
149238
149246
149248
149249
149255
149259
149258
149261
149264
149261
149263
149265
149262
149262
149264
149259
149257
149259
149252
149250
149251
149243
149239
149240
149231
149227
149226
149217
149212
149211
149201
149195
149194
149184
149178
149176
149166
149159
149157
149147
149140
149138
149128
149121
149118
149108
149101
149098
149089
149081
149079
149069
149062
149059
149050
149043
149040
149031
149024
149021
149013
149006
149003
148995
148988
148986
148977
148971
148969
148960
148955
148952
148944
148939
148936
148929
148923
148921
148914
148909
148907
148900
148895
148893
148886
148881
148880
148873
148869
148867
148861
148856
148855
148849
148845
148844
148838
148834
148833
148827
148824
148823
148817
148814
148813
148808
148805
148804
148799
148797
148796
148791
148789
148788
148784
148782
148781
148777
148775
148775
148771
148769
148769
148765
148764
148764
148760
148759
148759
148756
148755
148755
148753
148752
148752
148750
148749
148750
148748
148748
148748
148747
148747
148748
148747
148748
148748
148748
148749
148749
148750
148752
148750
148754
148744
148746
148747
148748
148749
148751
148754
148757
148761
148766
148771
148777
148783
148790
148798
148806
148815
148824
148834
148845
148856
148868
148881
148894
148908
148922
148937
148953
148969
148986
149004
149022
149041
149060
149079
149099
149119
149139
149159
149179
149197
149215
149232
149246
149258
149267
149273
149274
149272
149267
149254
149239
149223
149205
149187
149168
149149
149131
149115
149099
149086
149074
149064
149055
149048
149042
149038
149034
149030
149027
149025
149023
149020
149018
149017
149015
149013
149012
149010
149009
149007
149006
149004
149003
149002
149002
149001
149002
149002
149000
149002
149000
149001
149001
149001
149000
149001
149002
149003
149004
149005
149007
149008
149009
149011
149012
149014
149016
149017
149019
149021
149023
149021
149020
149018
149017
149015
149014
149012
149011
149009
149008
149007
149005
149004
149003
149002
149001
149001
149000
149001
149001
149000
149001
149001
149002
149003
149004
149004
149003
149002
149001
149000
149001
149002
149000
149000
149001
149001
149001
149002
149003
149005
149005
149005