/*--------------------------------*- C++ -*----------------------------------*\
| =========                 |                                                 |
| \\      /  F ield         | OpenFOAM: The Open Source CFD Toolbox           |
|  \\    /   O peration     | Version:  v2006                                 |
|   \\  /    A nd           | Website:  www.openfoam.com                      |
|    \\/     M anipulation  |                                                 |
\*---------------------------------------------------------------------------*/
FoamFile
{
    version     2.0;
    format      ascii;
    class       volScalarField;
    location    "0.025";
    object      T;
}
// * * * * * * * * * * * * * * * * * * * * * * * * * * * * * * * * * * * * * //

dimensions      [0 0 0 1 0 0 0];


internalField   nonuniform List<scalar> 
38932
(
298.191
298.191
298.191
298.192
298.192
298.192
298.193
298.194
298.195
298.196
298.197
298.199
298.2
298.202
298.204
298.207
298.209
298.211
298.214
298.217
298.22
298.223
298.227
298.23
298.234
298.238
298.242
298.246
298.25
298.255
298.259
298.264
298.269
298.274
298.279
298.285
298.29
298.296
298.301
298.307
298.313
298.319
298.325
298.331
298.338
298.344
298.351
298.357
298.364
298.371
298.378
298.385
298.392
298.399
298.406
298.413
298.421
298.428
298.435
298.443
298.45
298.458
298.465
298.473
298.48
298.488
298.495
298.503
298.511
298.518
298.526
298.533
298.541
298.548
298.556
298.563
298.571
298.578
298.585
298.593
298.6
298.607
298.614
298.621
298.628
298.635
298.642
298.649
298.655
298.662
298.668
298.675
298.681
298.687
298.693
298.699
298.705
298.71
298.716
298.721
298.727
298.732
298.737
298.741
298.746
298.751
298.755
298.759
298.763
298.767
298.771
298.775
298.778
298.781
298.785
298.787
298.79
298.793
298.795
298.798
298.8
298.801
298.803
298.803
298.803
298.801
298.792
298.779
298.729
298.755
298.806
298.939
299.07
298.77
298.782
298.788
298.776
299.047
299.039
298.805
298.804
298.81
298.833
299.035
299.034
298.853
298.817
298.826
298.874
299.033
299.033
298.888
298.836
298.845
298.899
299.032
299.03
298.908
298.853
298.861
298.915
299.027
299.025
298.922
298.869
298.876
298.928
299.023
299.022
298.933
298.883
298.89
298.938
299.02
299.019
298.943
298.896
298.902
298.947
299.018
299.018
298.952
298.908
298.914
298.956
299.017
299.017
298.96
298.92
298.925
298.964
299.017
299.018
298.968
298.931
298.936
298.972
299.019
299.02
298.976
298.942
298.947
298.98
299.022
299.025
298.985
298.953
298.959
298.99
299.027
299.03
298.995
298.965
298.972
299
299.033
299.037
299.005
298.978
298.985
299.01
299.04
299.044
299.016
298.991
298.998
299.022
299.048
299.052
299.028
299.005
299.012
299.034
299.057
299.062
299.04
299.02
299.028
299.047
299.068
299.074
299.054
299.036
299.044
299.062
299.08
299.086
299.069
299.052
299.061
299.077
299.092
299.099
299.085
299.07
299.079
299.094
299.106
299.113
299.102
299.088
299.098
299.111
299.121
299.129
299.12
299.108
299.118
299.129
299.137
299.146
299.139
299.129
299.14
299.149
299.155
299.164
299.16
299.151
299.162
299.17
299.174
299.184
299.181
299.174
299.187
299.193
299.194
299.205
299.204
299.199
299.212
299.217
299.216
299.228
299.229
299.225
299.239
299.242
299.24
299.252
299.255
299.253
299.268
299.269
299.265
299.278
299.283
299.282
299.298
299.297
299.292
299.305
299.312
299.313
299.329
299.327
299.32
299.334
299.343
299.345
299.362
299.359
299.349
299.365
299.375
299.379
299.396
299.391
299.381
299.397
299.408
299.414
299.432
299.425
299.413
299.43
299.443
299.45
299.468
299.46
299.447
299.464
299.478
299.487
299.505
299.496
299.481
299.499
299.514
299.524
299.543
299.532
299.517
299.534
299.551
299.562
299.58
299.569
299.552
299.57
299.587
299.598
299.616
299.604
299.588
299.606
299.622
299.634
299.651
299.639
299.624
299.642
299.656
299.668
299.684
299.672
299.659
299.676
299.688
299.699
299.713
299.703
299.693
299.708
299.718
299.727
299.739
299.731
299.722
299.735
299.742
299.749
299.757
299.751
299.745
299.755
299.759
299.763
299.769
299.766
299.764
299.787
299.784
299.784
299.846
299.861
299.888
300.206
300.116
300.054
300.473
300.591
300.748
301.329
301.144
300.997
301.493
301.637
301.808
302.148
302.009
301.888
302.165
302.259
302.363
302.482
302.409
302.341
302.438
302.486
302.539
302.565
302.521
302.483
302.5
302.535
302.578
302.583
302.54
302.503
302.501
302.54
302.583
302.582
302.535
302.494
302.488
302.533
302.581
302.582
302.531
302.484
302.481
302.53
302.583
302.587
302.531
302.48
302.482
302.535
302.592
302.599
302.54
302.486
302.492
302.548
302.609
302.62
302.557
302.501
302.513
302.57
302.632
302.647
302.584
302.527
302.543
302.6
302.662
302.68
302.618
302.562
302.582
302.638
302.698
302.717
302.659
302.605
302.629
302.681
302.737
302.757
302.705
302.655
302.682
302.729
302.778
302.799
302.754
302.71
302.738
302.779
302.819
302.84
302.803
302.767
302.796
302.828
302.86
302.879
302.852
302.824
302.852
302.876
302.898
302.916
302.898
302.879
302.905
302.921
302.935
302.953
302.943
302.93
302.955
302.965
302.972
302.993
302.988
302.981
303.008
303.013
303.016
303.042
303.041
303.038
303.072
303.074
303.073
303.113
303.115
303.114
303.173
303.179
303.182
303.306
303.296
303.277
303.224
303.167
303.126
303.079
303.022
302.961
302.907
302.859
302.818
302.784
302.756
302.733
302.717
302.707
302.705
302.699
302.709
302.723
302.746
302.797
302.809
302.8
302.809
302.852
302.876
302.887
302.907
302.936
302.969
303.015
303.061
303.1
303.148
303.2
303.206
303.181
303.145
303.104
303.055
303.028
303.064
303.105
303.147
303.178
303.122
303.091
303.054
303.021
302.991
302.956
302.982
303.008
303.039
303.067
303.013
302.99
302.964
302.942
302.921
302.886
302.904
302.923
302.943
302.962
302.914
302.899
302.883
302.867
302.852
302.818
302.831
302.845
302.858
302.869
302.829
302.819
302.808
302.796
302.783
302.747
302.76
302.772
302.783
302.792
302.758
302.748
302.735
302.722
302.708
302.663
302.681
302.697
302.713
302.726
302.693
302.674
302.653
302.632
302.61
302.541
302.57
302.598
302.627
302.654
302.602
302.564
302.525
302.488
302.45
302.328
302.375
302.423
302.475
302.527
302.413
302.344
302.277
302.218
302.162
301.934
301.997
302.068
302.148
302.236
301.963
301.856
301.766
301.688
301.617
301.174
301.241
301.327
301.465
301.532
300.755
300.689
300.676
300.646
300.51
299.623
299.339
299.385
299.408
299.281
294.344
294.84
295.969
296.48
297.362
294.473
293.096
290.289
288.237
287.814
285.683
286.529
288.969
291.862
294.184
294.002
292.082
289.39
286.522
286.232
285.817
285.705
288.782
291.894
293.847
293.836
292.3
290.63
288.477
284.471
283.316
287.311
289.983
291.796
293.623
293.713
292.492
289.675
287.183
287.834
286.48
286.076
288.661
291.626
293.354
293.262
291.771
290.431
288.272
286.139
285.21
286.405
289.133
291.189
292.905
293.103
291.572
289.491
287.489
286.613
284.988
287.21
289.403
291.316
292.947
293.167
291.918
290.086
287.95
288.504
285.399
284.91
288.327
291.049
292.865
292.644
291.094
289.469
287.61
285.281
283.419
285.588
288.567
290.682
292.535
292.85
291.275
289.569
287.795
286.342
282.983
286.124
288.699
290.667
292.528
292.936
291.593
289.569
287.439
287.503
284.251
285.775
288.49
290.857
292.6
292.917
291.655
289.697
287.48
288.026
284.402
284.611
288.071
290.926
292.66
292.902
291.632
289.814
287.502
287.623
284.71
284.432
288.224
291.114
292.739
292.854
291.654
290.119
287.916
287.288
284.025
284.042
288.243
290.979
292.724
292.678
291.392
290.18
288.382
284.901
281.887
285.225
288.862
290.845
292.508
292.765
291.308
289.505
287.765
286.803
282.251
286.134
288.647
290.555
292.427
292.686
291.302
289.122
286.516
287.105
283.571
283.711
287.64
290.694
292.524
292.719
291.178
289.566
287.334
285.688
283.145
283.818
287.971
290.728
292.54
292.833
291.282
289.794
287.826
285.095
281.504
284.818
288.543
290.789
292.684
293.068
291.466
289.754
287.771
285.949
280.427
285.147
288.65
290.794
292.821
293.219
291.703
289.449
286.833
286.666
282.105
285.124
288.473
290.946
292.965
293.264
291.85
289.588
286.807
287.373
283.007
283.539
287.897
291.197
293.032
293.206
291.772
290.179
287.677
286.826
284.518
284.062
288.319
291.386
293.082
293.285
291.617
290.067
287.9
286.126
283.573
284.597
288.629
291.267
293.162
293.438
291.709
289.95
287.389
285.482
282.658
284.62
288.846
291.422
293.343
293.69
291.956
290.225
287.626
285.12
281.553
284.57
289.016
291.597
293.569
293.921
292.122
290.357
287.924
285.055
279.904
285.122
289.301
291.663
293.736
294.189
292.372
290.082
287.314
286.067
280.717
285.953
289.505
291.766
294.001
294.409
292.797
290.157
286.906
287.123
282.504
284.773
289.073
292.148
294.24
294.63
292.978
290.637
287.398
287.418
283.407
283.701
288.815
292.56
294.542
294.807
293.063
290.993
287.911
286.438
283.871
283.865
289.191
292.794
294.897
295.236
293.209
291.169
287.932
285.123
283.101
284.677
289.986
293.143
295.281
295.657
293.636
291.601
288.52
284.185
279.788
285.383
290.638
293.459
295.84
296.726
294.425
291.134
287.003
285.866
281.669
286.288
291.104
294.285
297.047
298.203
296.189
293.123
287.685
284.477
284.649
288.106
294.385
297.43
299.187
301.032
299.687
298.179
293.496
293.372
300.803
301.785
301.809
300.64
300.524
300.518
300.405
300.379
300.739
301.434
300.573
300.608
300.581
300.608
300.611
300.609
300.604
300.601
300.594
300.593
300.577
300.584
300.591
300.597
300.604
300.601
300.594
300.587
300.579
300.572
300.564
300.573
300.582
300.589
300.597
300.593
300.584
300.576
300.567
300.556
300.549
300.56
300.57
300.579
300.588
300.582
300.573
300.564
300.553
300.54
300.533
300.547
300.558
300.568
300.577
300.572
300.562
300.551
300.539
300.524
300.517
300.532
300.545
300.556
300.567
300.561
300.55
300.538
300.525
300.509
300.502
300.518
300.532
300.544
300.555
300.549
300.538
300.525
300.512
300.496
300.49
300.506
300.519
300.532
300.544
300.538
300.526
300.513
300.499
300.483
300.476
300.492
300.506
300.519
300.532
300.525
300.512
300.499
300.485
300.469
300.462
300.478
300.492
300.505
300.518
300.507
300.496
300.483
300.469
300.453
300.446
300.462
300.476
300.488
300.499
300.495
300.482
300.47
300.455
300.44
300.433
300.449
300.464
300.477
300.49
300.484
300.471
300.458
300.443
300.427
300.419
300.437
300.452
300.465
300.478
300.471
300.458
300.445
300.431
300.414
300.407
300.424
300.438
300.45
300.463
300.452
300.441
300.43
300.417
300.401
300.394
300.409
300.421
300.431
300.439
300.429
300.422
300.413
300.402
300.387
300.381
300.395
300.405
300.414
300.422
300.414
300.406
300.398
300.388
300.375
300.369
300.381
300.391
300.399
300.407
300.402
300.394
300.385
300.375
300.363
300.357
300.369
300.379
300.388
300.396
300.39
300.382
300.373
300.363
300.352
300.346
300.358
300.367
300.376
300.384
300.377
300.369
300.361
300.352
300.34
300.334
300.346
300.355
300.363
300.371
300.364
300.357
300.349
300.34
300.328
300.322
300.333
300.342
300.35
300.356
300.35
300.344
300.336
300.327
300.316
300.31
300.322
300.331
300.339
300.347
300.342
300.334
300.326
300.316
300.305
300.299
300.311
300.321
300.329
300.337
300.332
300.324
300.315
300.305
300.293
300.287
300.299
300.309
300.317
300.325
300.317
300.31
300.302
300.293
300.28
300.273
300.287
300.296
300.304
300.311
300.307
300.299
300.291
300.281
300.266
300.262
300.276
300.286
300.294
300.303
300.297
300.289
300.28
300.27
300.258
300.251
300.265
300.274
300.283
300.292
300.284
300.276
300.268
300.259
300.246
300.24
300.253
300.262
300.269
300.276
300.27
300.263
300.256
300.247
300.235
300.228
300.241
300.25
300.258
300.266
300.261
300.253
300.245
300.235
300.223
300.216
300.229
300.239
300.247
300.255
300.249
300.241
300.232
300.223
300.212
300.204
300.216
300.225
300.233
300.241
300.232
300.225
300.218
300.21
300.198
300.191
300.203
300.211
300.219
300.225
300.22
300.213
300.205
300.196
300.184
300.177
300.19
300.199
300.206
300.214
300.207
300.199
300.192
300.183
300.172
300.163
300.175
300.184
300.191
300.198
300.188
300.182
300.176
300.168
300.157
300.149
300.161
300.168
300.175
300.18
300.175
300.168
300.161
300.153
300.142
300.134
300.145
300.153
300.16
300.167
300.156
300.151
300.144
300.137
300.127
300.119
300.129
300.135
300.141
300.146
300.137
300.132
300.127
300.12
300.111
300.102
300.112
300.118
300.124
300.13
300.12
300.115
300.109
300.102
300.093
300.084
300.092
300.098
300.103
300.108
300.095
300.092
300.087
300.082
300.074
300.064
300.072
300.077
300.081
300.085
300.075
300.07
300.066
300.061
300.054
300.042
300.049
300.053
300.058
300.062
300.045
300.043
300.04
300.036
300.03
300.018
300.022
300.025
300.027
300.028
300.015
300.013
300.011
300.008
300.005
299.992
299.994
299.995
299.997
300
299.979
299.979
299.978
299.977
299.977
299.961
299.96
299.96
299.959
299.958
299.941
299.94
299.941
299.941
299.944
299.926
299.921
299.92
299.919
299.921
299.891
299.894
299.896
299.899
299.905
299.882
299.874
299.87
299.866
299.862
299.836
299.838
299.842
299.848
299.858
299.833
299.82
299.813
299.807
299.803
299.768
299.773
299.78
299.789
299.805
299.774
299.754
299.744
299.737
299.734
299.691
299.696
299.704
299.716
299.74
299.698
299.671
299.658
299.648
299.641
299.594
299.596
299.606
299.621
299.656
299.593
299.56
299.544
299.534
299.53
299.453
299.459
299.468
299.486
299.529
299.441
299.394
299.379
299.375
299.381
299.279
299.268
299.267
299.273
299.304
299.135
299.117
299.126
299.138
299.145
299.032
299.006
298.974
298.924
298.796
298.56
298.745
298.822
298.868
298.898
298.788
298.742
298.691
298.629
298.56
298.511
298.497
298.548
298.599
298.64
298.527
298.454
298.383
298.319
298.343
297.723
298.031
298.169
298.267
298.346
298.15
298.075
297.965
297.782
297.434
297.461
297.664
297.813
297.917
297.995
297.862
297.778
297.675
297.532
297.198
297.091
297.394
297.543
297.654
297.745
297.646
297.548
297.423
297.231
296.744
296.833
297.134
297.332
297.461
297.558
297.478
297.389
297.268
297.096
296.994
296.814
297.04
297.232
297.356
297.449
297.434
297.359
297.243
297.072
297.054
297.233
297.195
297.306
297.401
297.495
297.537
297.489
297.432
297.394
297.649
297.88
297.572
297.574
297.597
297.642
297.684
297.678
297.682
297.749
298.074
297.906
297.789
297.76
297.769
297.787
297.851
297.867
297.894
297.932
298.071
298.478
298.129
298.063
298.016
297.985
298.054
298.113
298.186
298.313
298.677
298.803
298.474
298.319
298.226
298.16
298.255
298.328
298.428
298.591
298.882
298.927
298.676
298.519
298.418
298.352
298.411
298.487
298.587
298.731
298.93
298.946
298.777
298.649
298.552
298.47
298.53
298.616
298.716
298.841
299.019
299.081
298.911
298.788
298.688
298.601
298.682
298.758
298.855
298.977
299.148
299.186
299.027
298.908
298.81
298.723
298.769
298.856
298.95
299.063
299.211
299.223
299.091
298.986
298.898
298.827
298.853
298.929
299.012
299.11
299.226
299.231
299.123
299.033
298.956
298.881
298.922
298.981
299.051
299.132
299.229
299.218
299.136
299.065
299.001
298.939
298.955
299.015
299.076
299.141
299.219
299.233
299.154
299.091
299.031
298.969
298.989
299.049
299.107
299.169
299.249
299.257
299.181
299.123
299.069
299.02
299.032
299.084
299.135
299.189
299.258
299.258
299.196
299.145
299.096
299.044
299.066
299.108
299.152
299.2
299.258
299.258
299.204
299.16
299.118
299.075
299.082
299.126
299.165
299.206
299.256
299.254
299.208
299.17
299.133
299.098
299.104
299.14
299.174
299.21
299.251
299.249
299.21
299.177
299.144
299.108
299.119
299.15
299.18
299.211
299.248
299.245
299.211
299.182
299.154
299.124
299.126
299.157
299.184
299.211
299.243
299.24
299.211
299.185
299.16
299.134
299.137
299.163
299.187
299.211
299.239
299.236
299.21
299.187
299.164
299.138
299.144
299.166
299.188
299.209
299.234
299.231
299.208
299.188
299.168
299.146
299.146
299.169
299.189
299.207
299.229
299.226
299.207
299.189
299.171
299.152
299.157
299.173
299.19
299.206
299.224
299.223
299.206
299.19
299.175
299.158
299.158
299.175
299.19
299.205
299.221
299.22
299.204
299.189
299.175
299.16
299.16
299.176
299.189
299.202
299.217
299.215
299.201
299.188
299.175
299.16
299.161
299.174
299.187
299.199
299.211
299.211
299.198
299.186
299.175
299.161
299.16
299.174
299.186
299.197
299.208
299.207
299.195
299.184
299.173
299.161
299.161
299.173
299.183
299.194
299.205
299.204
299.193
299.183
299.172
299.16
299.16
299.171
299.181
299.191
299.203
299.2
299.19
299.18
299.17
299.159
299.158
299.17
299.179
299.188
299.198
299.195
299.186
299.177
299.168
299.158
299.157
299.168
299.177
299.185
299.195
299.193
299.184
299.175
299.167
299.156
299.156
299.165
299.173
299.182
299.191
299.187
299.179
299.172
299.164
299.155
299.153
299.163
299.171
299.178
299.186
299.184
299.176
299.169
299.161
299.153
299.152
299.16
299.167
299.174
299.181
299.18
299.173
299.166
299.159
299.15
299.149
299.157
299.164
299.171
299.178
299.174
299.169
299.162
299.156
299.148
299.146
299.154
299.161
299.167
299.172
299.171
299.165
299.159
299.152
299.145
299.144
299.151
299.157
299.163
299.169
299.167
299.161
299.156
299.149
299.141
299.141
299.147
299.154
299.16
299.16
299.164
299.152
299.152
299.146
299.14
299.136
299.144
299.147
299.17
299.115
299.243
299.168
299.155
299.143
299.137
299.138
299.147
299.16
299.342
298.757
299.324
299.336
299.203
299.156
299.137
299.144
299.166
299.207
299.43
298.338
298.996
299.283
299.209
299.165
299.143
299.139
299.159
299.189
299.225
298.384
298.802
299.152
299.165
299.146
299.126
299.111
299.13
299.14
299.109
298.777
298.876
299.081
299.119
299.117
299.105
299.1
299.107
299.102
299.067
298.909
298.95
299.062
299.093
299.099
299.094
299.088
299.092
299.087
299.062
298.981
299.005
299.064
299.083
299.086
299.08
299.07
299.078
299.079
299.067
299.024
299.043
299.069
299.075
299.073
299.067
299.064
299.07
299.073
299.069
299.052
299.053
299.067
299.068
299.065
299.057
299.055
299.062
299.065
299.065
299.056
299.058
299.064
299.063
299.059
299.051
299.046
299.054
299.06
299.063
299.06
299.06
299.06
299.057
299.051
299.043
299.04
299.048
299.054
299.058
299.06
299.059
299.056
299.05
299.043
299.034
299.032
299.04
299.047
299.052
299.057
299.056
299.05
299.043
299.036
299.028
299.02
299.03
299.038
299.046
299.054
299.048
299.04
299.033
299.026
299.018
299.013
299.022
299.029
299.035
299.042
299.039
299.031
299.023
299.015
299.005
299.004
299.011
299.019
299.026
299.035
299.033
299.022
299.014
299.007
298.999
298.991
298.999
299.008
299.015
299.023
299.019
299.01
299.002
298.996
298.989
298.984
298.99
298.997
299.004
299.013
299.006
298.998
298.992
298.986
298.979
298.972
298.979
298.986
298.993
299
298.997
298.988
298.98
298.972
298.962
298.96
298.967
298.974
298.983
298.993
298.991
298.977
298.969
298.961
298.954
298.944
298.953
298.961
298.969
298.98
298.97
298.961
298.954
298.948
298.942
298.935
298.941
298.947
298.954
298.964
298.958
298.948
298.941
298.936
298.929
298.923
298.928
298.934
298.941
298.949
298.945
298.935
298.928
298.921
298.912
298.909
298.915
298.921
298.928
298.937
298.933
298.921
298.914
298.908
298.902
298.893
298.901
298.907
298.915
298.925
298.916
298.908
298.901
298.896
298.891
298.884
298.889
298.895
298.902
298.911
298.903
298.895
298.888
298.883
298.878
298.871
298.875
298.881
298.888
298.899
298.889
298.88
298.874
298.868
298.86
298.857
298.862
298.868
298.874
298.885
298.875
298.867
298.86
298.854
298.85
298.84
298.847
298.853
298.86
298.872
298.862
298.853
298.847
298.842
298.837
298.831
298.835
298.84
298.847
298.857
298.848
298.84
298.833
298.829
298.824
298.817
298.821
298.827
298.833
298.843
298.837
298.826
298.819
298.813
298.806
298.803
298.808
298.813
298.82
298.83
298.821
298.812
298.805
298.8
298.796
298.788
298.793
298.799
298.806
298.816
298.804
298.796
298.79
298.785
298.781
298.77
298.777
298.782
298.789
298.799
298.791
298.782
298.776
298.771
298.766
298.759
298.763
298.768
298.775
298.786
298.781
298.769
298.761
298.756
298.751
298.744
298.747
298.752
298.759
298.77
298.759
298.751
298.745
298.739
298.733
298.727
298.732
298.737
298.744
298.754
298.746
298.736
298.73
298.724
298.721
298.713
298.718
298.722
298.729
298.74
298.728
298.72
298.714
298.709
298.706
298.695
298.702
298.707
298.713
298.721
298.72
298.709
298.702
298.696
298.69
298.683
298.688
298.694
298.701
298.715
298.709
298.695
298.686
298.68
298.674
298.667
298.67
298.675
298.683
298.695
298.689
298.675
298.668
298.662
298.655
298.647
298.652
298.658
298.665
298.676
298.666
298.656
298.649
298.643
298.64
298.63
298.635
298.64
298.647
298.658
298.65
298.639
298.632
298.627
298.624
298.612
298.619
298.625
298.632
298.645
298.64
298.624
298.617
298.611
298.606
298.599
298.603
298.608
298.615
298.625
298.623
298.61
298.601
298.595
298.59
298.583
298.587
298.592
298.6
298.612
298.604
298.591
298.583
298.578
298.572
298.564
298.567
298.573
298.58
298.589
298.585
298.572
298.564
298.559
298.552
298.543
298.549
298.555
298.562
298.575
298.57
298.555
298.547
298.541
298.537
298.527
298.532
298.538
298.546
298.56
298.551
298.537
298.529
298.522
298.519
298.507
298.515
298.52
298.529
298.546
298.532
298.518
298.51
298.504
298.498
298.491
298.495
298.501
298.51
298.526
298.511
298.5
298.492
298.486
298.48
298.472
298.477
298.483
298.491
298.504
298.495
298.481
298.473
298.467
298.461
298.453
298.456
298.463
298.471
298.484
298.479
298.463
298.454
298.448
298.441
298.431
298.437
298.444
298.453
298.472
298.457
298.444
298.436
298.429
298.425
298.414
298.421
298.428
298.438
298.455
298.443
298.427
298.418
298.411
298.407
298.395
298.401
298.408
298.419
298.437
298.423
298.407
298.397
298.39
298.385
298.373
298.38
298.386
298.396
298.415
298.406
298.385
298.375
298.367
298.361
298.354
298.358
298.365
298.374
298.387
298.382
298.365
298.356
298.349
298.343
298.335
298.34
298.347
298.356
298.37
298.363
298.346
298.336
298.329
298.323
298.313
298.318
298.325
298.335
298.358
298.345
298.325
298.315
298.308
298.301
298.288
298.295
298.303
298.314
298.337
298.32
298.304
298.293
298.286
298.281
298.269
298.276
298.283
298.295
298.314
298.3
298.284
298.273
298.266
298.26
298.248
298.254
298.261
298.272
298.289
298.284
298.261
298.25
298.243
298.238
298.226
298.233
298.24
298.25
298.271
298.263
298.24
298.229
298.22
298.213
298.206
298.211
298.219
298.231
298.248
298.243
298.222
298.209
298.202
298.194
298.186
298.192
298.2
298.212
298.229
298.223
298.2
298.188
298.18
298.173
298.163
298.17
298.177
298.189
298.209
298.202
298.177
298.165
298.156
298.149
298.138
298.144
298.152
298.164
298.184
298.177
298.152
298.14
298.132
298.125
298.11
298.117
298.126
298.139
298.163
298.146
298.128
298.116
298.108
298.103
298.09
298.097
298.105
298.117
298.14
298.127
298.107
298.095
298.088
298.082
298.069
298.075
298.083
298.095
298.116
298.111
298.086
298.074
298.066
298.06
298.046
298.053
298.062
298.075
298.101
298.095
298.065
298.05
298.041
298.035
298.021
298.03
298.038
298.052
298.081
298.072
298.041
298.025
298.014
298.006
297.997
298.004
298.013
298.027
298.049
298.039
298.014
298
297.991
297.984
297.975
297.982
297.989
298
298.022
298.016
297.99
297.976
297.967
297.961
297.951
297.958
297.966
297.979
298
297.992
297.966
297.952
297.942
297.935
297.924
297.931
297.939
297.954
297.987
297.977
297.944
297.928
297.919
297.91
297.894
297.903
297.914
297.93
297.956
297.949
297.92
297.905
297.894
297.886
297.873
297.881
297.891
297.907
297.931
297.925
297.896
297.881
297.872
297.863
297.848
297.856
297.866
297.882
297.912
297.903
297.871
297.855
297.845
297.837
297.82
297.828
297.839
297.854
297.883
297.877
297.841
297.825
297.815
297.808
297.793
297.802
297.812
297.828
297.86
297.848
297.816
297.798
297.786
297.776
297.768
297.777
297.788
297.805
297.84
297.822
297.792
297.775
297.763
297.754
297.745
297.754
297.765
297.782
297.816
297.8
297.769
297.751
297.739
297.729
297.719
297.729
297.74
297.759
297.795
297.775
297.744
297.725
297.712
297.702
297.689
297.699
297.71
297.728
297.765
297.745
297.712
297.693
297.68
297.671
297.657
297.665
297.677
297.697
297.739
297.725
297.683
297.663
297.651
297.641
297.622
297.633
297.647
297.667
297.705
297.69
297.654
297.635
297.623
297.614
297.598
297.607
297.621
297.64
297.677
297.664
297.627
297.609
297.598
297.588
297.571
297.581
297.594
297.613
297.651
297.642
297.602
297.582
297.57
297.561
297.542
297.552
297.567
297.588
297.628
297.622
297.574
297.551
297.538
297.529
297.513
297.524
297.538
297.561
297.609
297.585
297.544
297.521
297.505
297.494
297.485
297.496
297.509
297.531
297.574
297.556
297.515
297.493
297.479
297.468
297.458
297.468
297.48
297.501
297.54
297.53
297.486
297.463
297.45
297.44
297.428
297.439
297.451
297.471
297.513
297.497
297.455
297.434
297.419
297.409
297.397
297.408
297.421
297.442
297.489
297.472
297.428
297.404
297.388
297.376
297.362
297.373
297.388
297.413
297.466
297.454
297.401
297.375
297.359
297.345
297.324
297.338
297.356
297.382
297.426
297.418
297.37
297.345
297.329
297.315
297.298
297.31
297.328
297.355
297.4
297.391
297.341
297.315
297.299
297.286
297.267
297.279
297.296
297.321
297.371
297.358
297.307
297.282
297.267
297.255
297.234
297.246
297.263
297.29
297.344
297.326
297.273
297.248
297.233
297.221
297.199
297.211
297.228
297.254
297.302
297.293
297.239
297.213
297.198
297.186
297.163
297.177
297.195
297.223
297.275
297.269
297.206
297.177
297.161
297.149
297.13
297.146
297.164
297.194
297.256
297.23
297.175
297.144
297.124
297.108
297.098
297.113
297.132
297.162
297.221
297.198
297.143
297.112
297.093
297.079
297.067
297.081
297.099
297.128
297.183
297.166
297.109
297.078
297.059
297.046
297.033
297.047
297.064
297.092
297.151
297.132
297.074
297.043
297.024
297.009
296.996
297.01
297.027
297.056
297.119
297.096
297.038
297.007
296.987
296.971
296.955
296.969
296.988
297.021
297.089
297.071
297.006
296.973
296.953
296.936
296.913
296.93
296.953
296.989
297.053
297.037
296.974
296.94
296.919
296.902
296.882
296.897
296.919
296.954
297.022
296.998
296.935
296.903
296.884
296.87
296.847
296.861
296.882
296.915
296.979
296.965
296.9
296.867
296.849
296.833
296.81
296.825
296.847
296.882
296.951
296.935
296.864
296.83
296.811
296.795
296.771
296.787
296.809
296.843
296.91
296.902
296.824
296.788
296.768
296.753
296.734
296.752
296.773
296.811
296.887
296.866
296.793
296.753
296.728
296.71
296.698
296.717
296.74
296.778
296.853
296.837
296.759
296.719
296.694
296.677
296.663
296.68
296.701
296.739
296.81
296.79
296.716
296.678
296.654
296.638
296.623
296.64
296.66
296.696
296.771
296.753
296.677
296.637
296.614
296.596
296.58
296.598
296.619
296.656
296.736
296.713
296.636
296.596
296.571
296.552
296.532
296.549
296.573
296.615
296.701
296.685
296.598
296.556
296.532
296.511
296.485
296.506
296.534
296.577
296.653
296.645
296.565
296.521
296.494
296.474
296.451
296.471
296.499
296.544
296.625
296.612
296.527
296.483
296.457
296.437
296.411
296.43
296.457
296.502
296.587
296.57
296.482
296.439
296.415
296.394
296.366
296.386
296.413
296.457
296.543
296.529
296.437
296.393
296.369
296.349
296.32
296.34
296.368
296.411
296.499
296.489
296.391
296.343
296.317
296.298
296.276
296.298
296.326
296.374
296.466
296.45
296.355
296.303
296.271
296.248
296.235
296.257
296.287
296.335
296.436
296.404
296.311
296.26
296.229
296.209
296.193
296.214
296.24
296.286
296.374
296.363
296.265
296.215
296.186
296.165
296.147
296.17
296.196
296.244
296.339
296.319
296.22
296.17
296.14
296.118
296.099
296.122
296.149
296.197
296.297
296.28
296.175
296.124
296.093
296.069
296.045
296.067
296.099
296.154
296.266
296.249
296.137
296.08
296.048
296.023
295.993
296.019
296.055
296.114
296.215
296.205
296.095
296.037
296.004
295.979
295.951
295.974
296.009
296.066
296.17
296.145
296.041
295.987
295.957
295.934
295.903
295.925
295.958
296.015
296.122
296.096
295.988
295.935
295.907
295.884
295.852
295.874
295.906
295.962
296.071
296.043
295.932
295.882
295.855
295.832
295.801
295.824
295.856
295.912
296.023
296.011
295.888
295.83
295.799
295.776
295.754
295.78
295.814
295.875
295.998
295.969
295.852
295.788
295.75
295.723
295.709
295.736
295.772
295.834
295.957
295.928
295.809
295.744
295.706
295.681
295.663
295.689
295.724
295.786
295.905
295.88
295.756
295.693
295.656
295.631
295.609
295.636
295.67
295.731
295.853
295.831
295.7
295.637
295.6
295.574
295.55
295.577
295.609
295.671
295.795
295.773
295.639
295.578
295.541
295.514
295.483
295.509
295.545
295.612
295.738
295.726
295.587
295.523
295.486
295.457
295.423
295.452
295.494
295.565
295.696
295.682
295.544
295.474
295.435
295.406
295.376
295.403
295.445
295.517
295.642
295.629
295.492
295.422
295.385
295.355
295.321
295.349
295.392
295.463
295.594
295.573
295.43
295.362
295.326
295.297
295.261
295.291
295.333
295.405
295.543
295.533
295.373
295.299
295.258
295.229
295.201
295.234
295.277
295.355
295.51
295.479
295.326
295.244
295.197
295.165
295.146
295.178
295.222
295.301
295.447
295.412
295.268
295.187
295.141
295.111
295.087
295.118
295.158
295.237
295.39
295.341
295.196
295.12
295.077
295.047
295.018
295.048
295.085
295.161
295.317
295.267
295.122
295.049
295.008
294.978
294.941
294.969
295.009
295.086
295.252
295.212
295.063
294.985
294.944
294.912
294.876
294.908
294.956
295.04
295.188
295.181
295.022
294.94
294.892
294.859
294.827
294.859
294.909
294.997
295.159
295.138
294.969
294.885
294.839
294.804
294.767
294.8
294.85
294.938
295.105
295.085
294.906
294.819
294.774
294.739
294.699
294.734
294.784
294.872
295.046
295.034
294.836
294.744
294.694
294.66
294.628
294.665
294.714
294.805
294.998
294.967
294.771
294.673
294.619
294.583
294.56
294.595
294.643
294.736
294.917
294.867
294.694
294.6
294.55
294.52
294.49
294.522
294.564
294.65
294.82
294.774
294.611
294.523
294.478
294.448
294.417
294.45
294.49
294.576
294.754
294.732
294.551
294.46
294.412
294.378
294.34
294.375
294.425
294.522
294.723
294.697
294.505
294.403
294.35
294.31
294.27
294.309
294.369
294.476
294.684
294.65
294.446
294.343
294.287
294.247
294.207
294.244
294.303
294.409
294.601
294.575
294.368
294.269
294.217
294.177
294.131
294.168
294.226
294.334
294.53
294.497
294.284
294.183
294.133
294.093
294.046
294.084
294.139
294.244
294.437
294.42
294.192
294.086
294.033
293.996
293.956
293.996
294.049
294.153
294.378
294.334
294.115
294.005
293.946
293.908
293.879
293.918
293.971
294.081
294.307
294.244
294.037
293.928
293.871
293.835
293.8
293.838
293.89
293.996
294.211
294.18
293.958