/*--------------------------------*- C++ -*----------------------------------*\
| =========                 |                                                 |
| \\      /  F ield         | OpenFOAM: The Open Source CFD Toolbox           |
|  \\    /   O peration     | Version:  v2006                                 |
|   \\  /    A nd           | Website:  www.openfoam.com                      |
|    \\/     M anipulation  |                                                 |
\*---------------------------------------------------------------------------*/
FoamFile
{
    version     2.0;
    format      ascii;
    class       volScalarField;
    location    "0.025";
    object      turbulenceProperties:L;
}
// * * * * * * * * * * * * * * * * * * * * * * * * * * * * * * * * * * * * * //

dimensions      [0 1 0 0 0 0 0];


internalField   nonuniform List<scalar> 
38932
(
0.0100146
0.0100149
0.0100048
0.0100047
0.0100048
0.0100047
0.0100048
0.0100048
0.0100048
0.0100048
0.0100048
0.0100048
0.0100048
0.0100048
0.0100048
0.0100048
0.0100048
0.0100048
0.0100048
0.0100048
0.0100048
0.0100048
0.0100048
0.0100048
0.0100048
0.0100048
0.0100048
0.0100048
0.0100048
0.0100048
0.0100048
0.0100049
0.0100049
0.0100049
0.0100049
0.0100049
0.0100049
0.0100049
0.0100049
0.0100049
0.0100049
0.0100049
0.0100049
0.0100049
0.0100049
0.0100049
0.0100049
0.0100049
0.0100049
0.0100049
0.0100049
0.0100049
0.0100049
0.010005
0.010005
0.010005
0.010005
0.010005
0.010005
0.010005
0.010005
0.010005
0.010005
0.010005
0.010005
0.010005
0.010005
0.010005
0.010005
0.010005
0.010005
0.010005
0.0100051
0.0100051
0.0100051
0.0100051
0.0100051
0.0100051
0.0100051
0.0100051
0.0100051
0.0100051
0.0100051
0.0100051
0.0100051
0.0100051
0.0100051
0.0100051
0.0100051
0.0100051
0.0100051
0.0100051
0.0100051
0.0100051
0.0100051
0.0100051
0.0100051
0.0100051
0.0100051
0.0100051
0.0100051
0.0100051
0.0100051
0.0100051
0.0100051
0.0100051
0.0100051
0.0100051
0.0100051
0.0100051
0.0100051
0.0100051
0.0100051
0.0100051
0.0100051
0.0100051
0.0100051
0.0100051
0.010005
0.0100049
0.0100045
0.0100035
0.0100005
0.00999095
0.0099722
0.00991885
0.00975009
0.0091479
0.00717781
0.00248875
0.00084616
4.35497e-05
4.28478e-05
0.000377583
0.00102534
0.000726988
0.00027154
4.25621e-05
4.24857e-05
0.0002263
0.000591212
0.000527491
0.000201613
4.28407e-05
4.28001e-05
0.000188455
0.000484255
0.000461066
0.000182685
4.28641e-05
4.27193e-05
0.000177563
0.000448854
0.000442953
0.000176578
4.26423e-05
4.26353e-05
0.00017618
0.00043966
0.000437879
0.0001761
4.26411e-05
4.264e-05
0.000176128
0.000436676
0.000435643
0.000176152
4.264e-05
4.264e-05
0.000176104
0.000434505
0.000433125
0.000175946
4.264e-05
4.264e-05
0.000175674
0.000431486
0.000429599
0.000175295
4.264e-05
4.264e-05
0.000174825
0.000427503
0.000425245
0.000174284
4.264e-05
4.264e-05
0.000173691
0.000422868
0.000420413
0.000173063
4.264e-05
4.264e-05
0.000172414
0.000417915
0.000415402
0.000171757
4.264e-05
4.264e-05
0.0001711
0.000412896
0.000410415
0.000170452
4.264e-05
4.264e-05
0.000169818
0.000407972
0.000405576
0.000169201
4.264e-05
4.264e-05
0.000168606
0.000403232
0.000400945
0.000168034
4.264e-05
4.264e-05
0.000167486
0.000398717
0.000396551
0.000166963
4.264e-05
4.264e-05
0.000166466
0.000394446
0.000392402
0.000165994
4.264e-05
4.264e-05
0.000165549
0.000390418
0.000388495
0.000165129
4.264e-05
4.264e-05
0.000164735
0.000386629
0.000384821
0.000164366
4.264e-05
4.264e-05
0.000164023
0.000383068
0.000381369
0.000163704
4.264e-05
4.264e-05
0.00016341
0.000379722
0.000378126
0.00016314
4.264e-05
4.264e-05
0.000162895
0.000376579
0.000375079
0.000162674
4.264e-05
4.264e-05
0.000162477
0.000373626
0.000372217
0.000162304
4.264e-05
4.264e-05
0.000162156
0.000370853
0.000369532
0.000162032
4.264e-05
4.264e-05
0.000161934
0.000368254
0.000367018
0.000161862
4.264e-05
4.264e-05
0.000161817
0.000365825
0.000364675
0.000161799
4.264e-05
4.264e-05
0.00016181
0.000363568
0.000362505
0.000161851
4.264e-05
4.264e-05
0.000161923
0.000361486
0.000360513
0.000162027
4.264e-05
4.264e-05
0.000162166
0.000359589
0.000358713
0.000162341
4.264e-05
4.264e-05
0.000162555
0.00035789
0.000357121
0.00016281
4.264e-05
4.264e-05
0.000163109
0.00035641
0.000355761
0.000163456
4.264e-05
4.264e-05
0.000163853
0.000355176
0.000354664
0.000164305
4.264e-05
4.264e-05
0.000164816
0.000354225
0.00035387
0.000165391
4.264e-05
4.264e-05
0.000166037
0.000353601
0.000353429
0.000166758
4.264e-05
4.264e-05
0.000167564
0.000353363
0.000353409
0.000168461
4.264e-05
4.264e-05
0.00016946
0.00035358
0.000353892
0.000170572
4.264e-05
4.264e-05
0.000171809
0.00035436
0.000354997
0.000173185
4.264e-05
4.264e-05
0.00017472
0.000355829
0.00035687
0.000176427
4.264e-05
4.264e-05
0.000178334
0.000358155
0.000359715
0.000180462
4.264e-05
4.264e-05
0.000182842
0.000361572
0.000363783
0.000185507
4.264e-05
4.264e-05
0.000188499
0.000366412
0.000369486
0.000191856
4.264e-05
4.264e-05
0.000195633
0.000373098
0.000377277
0.000199864
4.264e-05
4.264e-05
0.000204633
0.000382226
0.000387949
0.000209974
4.264e-05
4.26401e-05
0.000215921
0.000394521
0.000402056
0.000222492
4.26401e-05
4.26401e-05
0.00022978
0.000410896
0.000421059
0.000237756
4.26401e-05
4.264e-05
0.000246446
0.000432869
0.000446797
0.000255992
4.264e-05
4.26399e-05
0.000266292
0.000463919
0.000482897
0.000274789
4.26399e-05
4.26399e-05
0.000281852
0.000504136
0.000529242
0.000289386
4.264e-05
4.26399e-05
0.000296917
0.000556925
0.000586818
0.00030418
4.26399e-05
4.26399e-05
0.000310648
0.000618402
0.000651482
0.000316232
4.26399e-05
4.26399e-05
0.000319894
0.00068421
0.000710278
0.000319004
4.26399e-05
4.264e-05
0.000311623
0.000720559
0.000683415
0.000283711
4.26329e-05
4.26471e-05
0.000243721
0.000605531
0.000543012
0.000218472
4.26329e-05
4.264e-05
0.00020561
0.00050816
0.00049119
0.000197517
4.26471e-05
4.264e-05
0.000193248
0.000482015
0.000480845
0.000192833
4.264e-05
4.264e-05
0.000194388
0.000485409
0.000492808
0.000197073
4.26329e-05
4.26471e-05
0.000200823
0.000502783
0.000512849
0.000205039
4.264e-05
4.264e-05
0.000209178
0.000523172
0.000533863
0.000213536
4.26329e-05
4.264e-05
0.000216747
0.00054316
0.000553625
0.000220665
4.26471e-05
4.264e-05
0.000224615
0.000563526
0.000572981
0.000228473
4.264e-05
4.264e-05
0.000232321
0.000581972
0.000590631
0.000236173
4.26329e-05
4.26471e-05
0.000240034
0.000598915
0.000606777
0.000243802
4.26329e-05
4.264e-05
0.000247643
0.00061438
0.000621644
0.000251445
4.26471e-05
4.264e-05
0.000255237
0.00062863
0.000635375
0.000259087
4.264e-05
4.26471e-05
0.000263027
0.000641981
0.000648358
0.00026702
4.26329e-05
4.26472e-05
0.000271268
0.000654693
0.000660915
0.000275731
4.2626e-05
4.27498e-05
0.000280768
0.000667102
0.000673382
0.000286321
4.2804e-05
4.28731e-05
0.000293072
0.000679952
0.000685636
0.000300931
4.27733e-05
4.29523e-05
0.000309625
0.000686636
0.000678508
0.000318507
4.26836e-05
4.27961e-05
0.00031497
0.000639309
0.000514078
0.000256075
4.29536e-05
4.35638e-05
0.00017701
0.000177028
0.000174628
0.000177112
0.000175978
0.000180211
0.000179713
0.000181182
0.000180719
0.000181016
0.000180956
0.000181046
0.000180955
0.000181128
0.000180411
0.000180682
0.000180923
0.000195584
0.000192084
0.0001886
0.000182271
0.000136065
8.31808e-05
9.69142e-05
0.000114721
9.66734e-05
5.29395e-05
5.56007e-05
6.0058e-05
5.96978e-05
5.80586e-05
5.84664e-05
3.93751e-05
3.4197e-05
3.18452e-05
3.30509e-05
2.32367e-05
4.86946e-05
7.44505e-05
9.895e-05
0.000139264
0.000299322
0.000240806
0.000173413
9.09128e-05
2.60202e-05
2.70708e-05
0.000129415
0.000263086
0.000365936
0.000447036
0.000542321
0.000428957
0.000298107
0.000140946
2.76764e-05
2.72772e-05
0.000145118
0.000313431
0.00046214
0.00059071
0.000606946
0.000473988
0.000315966
0.000144942
2.69198e-05
2.60104e-05
0.000140328
0.000307062
0.000463416
0.000596927
0.000574056
0.000443389
0.000292646
0.00013346
2.48681e-05
2.36221e-05
0.00012657
0.000276976
0.000420196
0.000546021
0.000516206
0.000397468
0.000262213
0.000120484
2.2346e-05
2.123e-05
0.000115736
0.000250217
0.000378303
0.000491115
0.00047197
0.000362745
0.000240531
0.000112247
2.02906e-05
1.93978e-05
0.000109019
0.000231821
0.000349253
0.000454891
0.000439385
0.000336482
0.000223398
0.00010572
1.84847e-05
1.74675e-05
0.000101057
0.000213518
0.000322894
0.000423572
0.000403819
0.000305717
0.000201026
9.45486e-05
1.61517e-05
1.46314e-05
8.64339e-05
0.000185245
0.000284974
0.00038094
0.000353601
0.000258811
0.000164022
7.46939e-05
1.28043e-05
1.02202e-05
5.72998e-05
0.000134782
0.000225301
0.000320823
0.000280102
0.000183277
9.39624e-05
3.20556e-05
6.56475e-06
4.50764e-06
1.58831e-05
5.99578e-05
0.000130795
0.000225357
0.000158509
7.2395e-05
3.2935e-05
1.08784e-05
4.52272e-06
4.53438e-06
8.17857e-06
2.28164e-05
5.48369e-05
9.9361e-05
6.52231e-05
2.61746e-05
8.96808e-06
4.9984e-06
4.47136e-06
4.5349e-06
5.57098e-06
1.05934e-05
2.93192e-05
6.72877e-05
6.43722e-05
2.83424e-05
1.08789e-05
5.5912e-06
4.46506e-06
4.44103e-06
5.6198e-06
1.27027e-05
3.19773e-05
6.80875e-05
7.41961e-05
3.09471e-05
1.02455e-05
4.77856e-06
4.77884e-06
4.77831e-06
4.96388e-06
1.05097e-05
3.01856e-05
7.34773e-05
7.30651e-05
3.0397e-05
1.05523e-05
4.92263e-06
4.36029e-06
4.41772e-06
5.64886e-06
1.34465e-05
3.68846e-05
7.90783e-05
8.6132e-05
4.16771e-05
1.51918e-05
6.18485e-06
4.57177e-06
4.48436e-06
7.66985e-06
1.97336e-05
4.77343e-05
8.86104e-05
8.23525e-05
4.24036e-05
1.6598e-05
6.69471e-06
4.55504e-06
4.74513e-06
7.57231e-06
2.11267e-05
4.86073e-05
8.70156e-05
9.55301e-05
5.53085e-05
2.40481e-05
7.0193e-06
4.41608e-06
4.38131e-06
6.38973e-06
2.21476e-05
5.27053e-05
9.2336e-05
8.82006e-05
4.86858e-05
1.95108e-05
6.54674e-06
4.66271e-06
4.54206e-06
6.90687e-06
1.92859e-05
4.74087e-05
8.62283e-05
8.84793e-05
5.01178e-05
2.14931e-05
7.50079e-06
4.6668e-06
4.77244e-06
6.78398e-06
2.07749e-05
4.90757e-05
8.75591e-05
8.98923e-05
5.02213e-05
2.07006e-05
6.82373e-06
4.44105e-06
4.59834e-06
7.53972e-06
2.06694e-05
4.88333e-05
8.7731e-05
9.2909e-05
5.40809e-05
2.38155e-05
7.15812e-06
4.40423e-06
4.41178e-06
6.71482e-06
1.99196e-05
4.81253e-05
8.76418e-05
9.17967e-05
5.39437e-05
2.46092e-05
7.65956e-06
4.41934e-06
4.34725e-06
6.55707e-06
2.03558e-05
4.78874e-05
8.65838e-05
8.77261e-05
5.04515e-05
2.28354e-05
7.99767e-06
4.43843e-06
4.33498e-06
6.75938e-06
2.14307e-05
4.78523e-05
8.49473e-05
8.81462e-05
4.82898e-05
2.01708e-05
6.80317e-06
4.73479e-06
4.57824e-06
7.24378e-06
1.95193e-05
4.59401e-05
8.55196e-05
9.1004e-05
5.16036e-05
2.23558e-05
7.76344e-06
4.54664e-06
4.87183e-06
7.60718e-06
2.46457e-05
5.38908e-05
9.17309e-05
9.42517e-05
5.61917e-05
2.57793e-05
7.37401e-06
4.349e-06
4.34823e-06
7.0783e-06
2.30199e-05
5.20389e-05
9.08938e-05
9.16345e-05
5.4543e-05
2.51869e-05
8.46133e-06
4.51107e-06
4.35955e-06
8.03623e-06
2.57847e-05
5.39722e-05
9.02329e-05
9.29115e-05
5.58037e-05
2.57472e-05
7.93454e-06
4.70797e-06
4.5857e-06
7.71282e-06
2.29665e-05
5.12868e-05
8.87372e-05
9.1242e-05
5.52318e-05
2.64976e-05
8.73672e-06
4.66387e-06
4.83628e-06
7.27785e-06
2.30373e-05
5.11897e-05
8.84739e-05
8.93825e-05
5.25062e-05
2.40322e-05
7.69633e-06
4.42419e-06
4.72913e-06
8.33743e-06
2.43134e-05
5.16877e-05
8.78182e-05
9.2501e-05
5.49794e-05
2.56995e-05
7.55142e-06
4.32547e-06
4.3364e-06
7.24564e-06
2.21554e-05
4.94245e-05
8.79988e-05
9.52344e-05
5.84975e-05
2.89279e-05
9.63729e-06
4.44073e-06
4.24256e-06
7.48659e-06
2.70245e-05
5.72101e-05
9.53016e-05
9.81957e-05
6.17554e-05
3.11493e-05
1.03489e-05
4.55566e-06
4.37373e-06
9.45427e-06
3.03342e-05
5.94948e-05
9.50253e-05
9.56997e-05
5.97879e-05
3.02579e-05
1.03879e-05
4.53687e-06
4.41994e-06
9.90764e-06
2.93306e-05
5.76302e-05
9.31334e-05
9.39359e-05
5.75701e-05
2.80073e-05
9.09961e-06
4.60582e-06
4.48245e-06
9.28372e-06
2.6406e-05
5.45222e-05
9.06035e-05
9.38126e-05
5.73568e-05
2.78004e-05
8.76679e-06
4.7102e-06
4.77262e-06
7.72473e-06
2.37365e-05
5.19905e-05
8.97008e-05
9.14667e-05
5.55965e-05
2.71736e-05
9.27957e-06
4.51522e-06
4.91375e-06
8.01906e-06
2.63568e-05
5.53749e-05
9.17204e-05
9.22649e-05
5.51425e-05
2.62203e-05
7.86516e-06
4.32404e-06
4.52625e-06
8.97805e-06
2.57371e-05
5.36006e-05
9.01645e-05
9.61269e-05
5.8952e-05
2.91347e-05
8.73311e-06
4.33184e-06
4.23886e-06
7.56207e-06
2.49571e-05
5.34719e-05
9.20009e-05
9.74051e-05
6.08656e-05
3.12921e-05
1.07141e-05
4.45139e-06
4.2044e-06
7.81684e-06
2.77718e-05
5.76219e-05
9.54757e-05
9.59242e-05
5.90499e-05
2.92322e-05
9.62605e-06
4.57364e-06
4.31389e-06
9.17693e-06
2.97691e-05
5.87965e-05
9.54678e-05
9.48359e-05
5.64988e-05
2.66785e-05
8.39698e-06
4.76425e-06
4.71795e-06
7.89212e-06
2.31417e-05
4.99278e-05
8.70724e-05
8.85286e-05
5.28305e-05
2.54743e-05
8.21164e-06
4.42822e-06
4.77483e-06
8.89638e-06
2.75682e-05
5.57676e-05
9.16914e-05
9.40943e-05
5.71981e-05
2.8726e-05
1.00954e-05
4.47838e-06
4.49712e-06
9.6173e-06
2.76319e-05
5.6502e-05
9.46581e-05
9.41488e-05
5.39076e-05
2.40434e-05
7.2624e-06
4.32383e-06
5.25441e-06
1.00084e-05
2.84615e-05
6.10994e-05
0.00010017
0.00012974
7.86246e-05
3.94441e-05
1.50894e-05
6.79377e-06
8.85104e-06
2.35622e-05
6.22188e-05
0.000125878
0.000208661
0.00024714
0.000163083
9.02219e-05
3.57073e-05
1.13537e-05
1.38216e-05
4.99988e-05
0.000116929
0.000196446
0.000284553
0.000317322
0.000227179
0.00014136
6.36852e-05
1.59493e-05
1.75977e-05
7.62101e-05
0.000162291
0.000253008
0.000345224
0.00036944
0.000275455
0.000180081
8.57536e-05
1.88253e-05
1.99947e-05
9.43812e-05
0.000195059
0.000294114
0.000389366
0.000403267
0.000309196
0.000208048
0.000102436
2.10452e-05
2.18884e-05
0.000110312
0.000220574
0.000324557
0.000420789
0.000436064
0.000337015
0.000230113
0.000115933
2.25816e-05
2.33696e-05
0.000119296
0.000238046
0.000348637
0.00045149
0.000466855
0.000360339
0.000246126
0.00012395
2.4239e-05
2.59007e-05
0.000127729
0.000253802
0.000370155
0.000477071
0.000486915
0.000381322
0.000263879
0.000135147
2.75604e-05
2.87213e-05
0.000142957
0.000275333
0.000395726
0.000504103
0.000520758
0.000409798
0.000286323
0.000149412
2.96925e-05
3.06649e-05
0.000156961
0.000296894
0.000422957
0.000535702
0.000549988
0.000434294
0.000306064
0.000164244
3.11207e-05
3.08997e-05
0.000166663
0.000308964
0.000438666
0.000561102
0.000536689
0.00042512
0.000299844
0.000161341
3.00006e-05
2.91515e-05
0.000155274
0.000287855
0.000405329
0.000505462
0.000521049
0.000409275
0.000287786
0.000153743
2.91434e-05
2.90056e-05
0.000157257
0.000294419
0.000419718
0.000534421
0.000546966
0.000429979
0.000302088
0.000162657
2.92648e-05
2.89086e-05
0.000164204
0.000307799
0.000438563
0.000557801
0.000566559
0.000445373
0.000312208
0.000166138
2.91442e-05
2.8122e-05
0.000164288
0.000311289
0.000446371
0.000570993
0.000560201
0.000435456
0.000303446
0.000160546
2.73951e-05
2.55231e-05
0.000151143
0.000285529
0.000406805
0.00051102
0.000461113
0.000371221
0.000262776
0.000139109
2.35733e-05
2.16432e-05
0.000128685
0.000244506
0.000350303
0.00044991
0.000423157
0.000331516
0.000230106
0.000119937
2.03492e-05
1.89914e-05
0.000112456
0.000216331
0.000310485
0.000392173
0.000394179
0.000304552
0.00021003
0.000108847
1.86331e-05
1.81384e-05
0.000106855
0.000208176
0.000303693
0.000393807
0.000388876
0.000300665
0.00020616
0.000105839
1.80064e-05
1.77223e-05
0.000104855
0.000203911
0.000297449
0.000385097
0.00038238
0.000295009
0.000201943
0.000104053
1.77457e-05
1.72935e-05
0.000102927
0.000200539
0.000293644
0.000381544
0.000380277
0.000290004
0.000197998
0.000101753
1.70844e-05
1.63954e-05
9.82785e-05
0.000190683
0.000278136
0.000359412
0.000337313
0.000264259
0.000181585
9.34758e-05
1.57893e-05
1.57426e-05
9.2674e-05
0.000181491
0.00026631
0.000347603
0.000356724
0.000273127
0.000185673
9.48308e-05
1.60932e-05
1.62777e-05
9.79276e-05
0.000190545
0.000279931
0.000365109
0.000372709
0.000285336
0.000194238
9.96713e-05
1.6142e-05
1.57189e-05
9.84691e-05
0.000193075
0.000285291
0.000376509
0.000356814
0.000274898
0.00018686
9.49102e-05
1.49999e-05
1.42362e-05
9.08922e-05
0.000179682
0.000262733
0.000336275
0.000348221
0.000265984
0.000179885
8.98797e-05
1.38539e-05
1.42512e-05
9.16332e-05
0.000184301
0.000273624
0.000359458
0.000369038
0.000281147
0.000189571
9.4287e-05
1.46336e-05
1.48058e-05
9.6198e-05
0.000192975
0.00028688
0.00037719
0.000382369
0.000287783
0.000193214
9.65222e-05
1.478e-05
1.45313e-05
9.48952e-05
0.000188345
0.000278436
0.000363051
0.000343801
0.000268053
0.000183217
9.27635e-05
1.43092e-05
1.42453e-05
9.27346e-05
0.000184615
0.000272431
0.000356731
0.000369029
0.000281057
0.000189352
9.4593e-05
1.44385e-05
1.48718e-05
9.67471e-05
0.000194525
0.000289074
0.000379952
0.000389399
0.000295982
0.000199068
0.000100005
1.50842e-05
1.51043e-05
9.98861e-05
0.000199841
0.000297559
0.000395816
0.000376293
0.000288077
0.000194877
9.81622e-05
1.47577e-05
1.44266e-05
9.66635e-05
0.000190674
0.000278833
0.0003577
0.000371754
0.000283912
0.000192385
9.67785e-05
1.43494e-05
1.44915e-05
9.87918e-05
0.000197937
0.000293487
0.000385239
0.000397501
0.000301891
0.000202829
0.000101233
1.49134e-05
1.51147e-05
0.000102373
0.000204292
0.000304609
0.000405776
0.000386919
0.000296461
0.00020106
0.000101295
1.49631e-05
1.46658e-05
9.99708e-05
0.00019703
0.000288352
0.000369449
0.00038484
0.000294038
0.000198935
0.000100176
1.46603e-05
1.5003e-05
0.000102347
0.000203968
0.00030305
0.000399423
0.000409481
0.000306478
0.000205701
0.00010365
1.52151e-05
1.49697e-05
0.000102521
0.000202427
0.000298979
0.000391109
0.000374935
0.000292028
0.000199491
0.000101315
1.48627e-05
1.49192e-05
0.000102256
0.000202713
0.000299209
0.000391634
0.000407301
0.000309098
0.000207841
0.000104435
1.51536e-05
1.53669e-05
0.000105718
0.00020999
0.000313577
0.000419267
0.000401367
0.000306908
0.00020827
0.000105644
1.53733e-05
1.53218e-05
0.000105694
0.000206578
0.00030121
0.000386143
0.000404456
0.000309273
0.000210236
0.000106723
1.5276e-05
1.52266e-05
0.000108129
0.000215929
0.000320865
0.000422417
0.000436482
0.000326988
0.000219051
0.000110299
1.58161e-05
1.64e-05
0.000112389
0.000218949
0.000321656
0.000419906
0.000406702
0.000317885
0.000219078
0.000113501
1.6901e-05
1.73838e-05
0.000115795
0.000222795
0.000326479
0.000426535
0.000443602
0.000333413
0.000226076
0.000117496
1.77401e-05
1.76818e-05
0.000117573
0.00022485
0.000328209
0.00042757
0.000415111
0.000324247
0.000223528
0.000116784
1.70913e-05
1.62753e-05
0.000114773
0.000224824
0.000332205
0.00043547
0.000453521
0.000337874
0.000224925
0.000111334
1.48584e-05
1.46953e-05
0.000109312
0.000222909
0.000333177
0.000437794
0.000427928
0.000331282
0.000224266
0.000112092
1.57186e-05
1.66766e-05
0.000115105
0.000227707
0.000338027
0.000450357
0.000439877
0.00033748
0.000229832
0.000117644
1.74251e-05
1.82592e-05
0.000120818
0.000232782
0.000338847
0.000433514
0.000457599
0.000346605
0.000236729
0.000123538
1.89447e-05
1.94973e-05
0.000125676
0.00023863
0.000346137
0.000447977
0.000441919
0.000347504
0.000241516
0.000128076
2.00928e-05
2.04775e-05
0.000130202
0.000245011
0.000355136
0.000466084
0.000456302
0.000353921
0.000246031
0.000131258
2.08059e-05
2.1071e-05
0.00013229
0.000247619
0.00035485
0.000449625
0.00047127
0.000358712
0.000246727
0.000131171
2.06648e-05
1.90613e-05
0.000125459
0.000238483
0.00034911
0.000456045
0.00044344
0.000337058
0.000226434
0.00011568
1.75168e-05
1.81936e-05
0.000112683
0.000219553
0.000329025
0.000435477
0.000441199
0.000332214
0.000222086
0.000116041
2.03041e-05
2.09911e-05
0.000120103
0.000228507
0.000337857
0.00044403
0.000465815
0.000351924
0.000236041
0.000121846
2.02607e-05
1.80774e-05
0.000116783
0.00023447
0.000354374
0.000477724
0.000462383
0.000348071
0.000231701
0.000116957
1.83772e-05
2.16827e-05
0.00012429
0.000234094
0.000343615
0.000450857
0.00044128
0.000338922
0.000236333
0.00013115
2.43205e-05
2.51734e-05
0.000132144
0.000230745
0.000329898
0.000429583
0.000413675
0.000313137
0.000213647
0.000115664
2.54531e-05
2.47592e-05
9.56272e-05
0.000188051
0.000286043
0.000387653
0.000330657
0.00024493
0.000159541
7.81367e-05
2.24342e-05
1.98135e-05
6.54162e-05
0.000138211
0.000217353
0.000298311
0.000265841
0.000193748
0.000125079
6.14831e-05
1.84148e-05
1.76425e-05
5.56463e-05
0.000115383
0.00018106
0.000251724
0.000230149
0.000167846
0.000107723
5.17971e-05
1.66708e-05
1.59616e-05
4.80615e-05
0.000102485
0.000161854
0.000225287
0.000208393
0.000151139
9.58786e-05
4.418e-05
1.47927e-05
1.29728e-05
4.15689e-05
9.39059e-05
0.000150124
0.000210044
0.000197223
0.000143927
9.12566e-05
4.02009e-05
1.21172e-05
1.27127e-05
4.47204e-05
9.45371e-05
0.000147504
0.000204313
0.000195219
0.000145605
9.62917e-05
4.76625e-05
1.31084e-05
1.33197e-05
5.08338e-05
0.000100647
0.000151664
0.000205423
0.000203181
0.000150946
0.000102024
5.24957e-05
1.34213e-05
1.31697e-05
5.24021e-05
0.000100161
0.000144858
0.000185681
0.000193342
0.000148542
0.000102949
5.40471e-05
1.28733e-05
1.29712e-05
5.76996e-05
0.000105596
0.000149438
0.000191363
0.000204236
0.000157833
0.000111252
6.15842e-05
1.35214e-05
1.41455e-05
6.40228e-05
0.000113932
0.000159952
0.000207027
0.000195231
0.000157057
0.000114332
6.57573e-05
1.46507e-05
1.49003e-05
6.6142e-05
0.000116588
0.000161668
0.000204473
0.000206803
0.000162237
0.000117308
6.66003e-05
1.49763e-05
1.48372e-05
6.53444e-05
0.000115599
0.000158657
0.000195886
0.000204588
0.000162513
0.000116745
6.42163e-05
1.4502e-05
1.41098e-05
6.42707e-05
0.000116887
0.000162652
0.000206949
0.000196195
0.000159209
0.000115431
6.34099e-05
1.37743e-05
1.34049e-05
6.42948e-05
0.000117624
0.000163192
0.000204266
0.000205631
0.000165943
0.000120943
6.76819e-05
1.34109e-05
1.38869e-05
7.14293e-05
0.000126791
0.000174813
0.000218645
0.000223818
0.000177838
0.000129575
7.36383e-05
1.42943e-05
1.45334e-05
7.42554e-05
0.000129916
0.000176029
0.000215054
0.000225028
0.000181467
0.000132607
7.55571e-05
1.47132e-05
1.48566e-05
7.65427e-05
0.00013408
0.000183314
0.000229523
0.000220323
0.000180891
0.00013356
7.64302e-05
1.49626e-05
1.50798e-05
7.76467e-05
0.000136242
0.000186055
0.000230102
0.000234459
0.000187225
0.000136703
7.74301e-05
1.5112e-05
1.51104e-05
7.73995e-05
0.000136003
0.000184637
0.000225208
0.000234795
0.000189475
0.000137996
7.78419e-05
1.50798e-05
1.50288e-05
7.74139e-05
0.000138539
0.000190855
0.000239303
0.000229731
0.00018797
0.000137587
7.71866e-05
1.49216e-05
1.48732e-05
7.77513e-05
0.000139867
0.000192926
0.000239489
0.000244167
0.000194275
0.000140533
7.80228e-05
1.47635e-05
1.46741e-05
7.73062e-05
0.000139597
0.000191696
0.000234561
0.000244649
0.00019709
0.000142699
7.93959e-05
1.46884e-05
1.47224e-05
7.94397e-05
0.000143423
0.000198555
0.000249791
0.000240188
0.000196104
0.000142706
7.93058e-05
1.46857e-05
1.46212e-05
7.94973e-05
0.000145355
0.000201698
0.000250869
0.000256511
0.000203251
0.000145473
7.91886e-05
1.44568e-05
1.41478e-05
7.62943e-05
0.0001418
0.000198036
0.000247833
0.000235833
0.000191665
0.000137541
7.36711e-05
1.37609e-05
1.35448e-05
7.40834e-05
0.000138842
0.00019522
0.000244598
0.000249168
0.000196047
0.000139288
7.46802e-05
1.34353e-05
1.34206e-05
7.51697e-05
0.000138716
0.000193358
0.000238963
0.000249401
0.000198948
0.000141673
7.63165e-05
1.34256e-05
1.33867e-05
7.62213e-05
0.000142276
0.000200272
0.000254551
0.000244146
0.000197524
0.000141458
7.61894e-05
1.33245e-05
1.33391e-05
7.64892e-05
0.000143852
0.000202869
0.000254659
0.000259955
0.000204268
0.000144675
7.74011e-05
1.32896e-05
1.33108e-05
7.62772e-05
0.00014347
0.000201242
0.000248995
0.000259621
0.000206534
0.000146098
7.752e-05
1.32421e-05
1.32791e-05
7.74127e-05
0.000146386
0.000207415
0.000264595
0.000253092
0.000204128
0.00014522
7.71048e-05
1.3234e-05
1.32405e-05
7.80632e-05
0.000147626
0.000209268
0.000263638
0.000268514
0.000210184
0.000147879
7.77019e-05
1.3222e-05
1.31437e-05
7.71159e-05
0.000146399
0.000206393
0.00025645
0.000266926
0.000211361
0.000148559
7.80444e-05
1.31546e-05
1.31324e-05
7.76042e-05
0.000148587
0.000212114
0.000271762
0.000259141
0.00020802
0.000146671
7.64427e-05
1.29942e-05
1.28994e-05
7.74269e-05
0.000148892
0.000212758
0.000269521
0.000274025
0.000213132
0.000148879
7.76285e-05
1.28623e-05
1.28018e-05
7.6438e-05
0.000147015
0.000209137
0.00026116
0.000271503
0.000213869
0.000149165
7.71932e-05
1.27103e-05
1.27027e-05
7.73053e-05
0.000149089
0.000214299
0.00027579
0.000262826
0.000210244
0.000147653
7.63935e-05
1.26223e-05
1.24906e-05
7.66613e-05
0.000149402
0.000214942
0.000273321
0.000277652
0.000215276
0.000149432
7.70978e-05
1.24201e-05
1.24257e-05
7.59165e-05
0.000148038
0.000211635
0.000264958
0.000276201
0.000217053
0.00015059
7.72021e-05
1.24165e-05
1.24846e-05
7.73199e-05
0.000151379
0.000218443
0.000281748
0.000270659
0.000216121
0.000151318
7.77011e-05
1.24738e-05
1.27426e-05
7.95021e-05
0.000155341
0.000223747
0.000284255
0.000292061
0.000227281
0.000157947
8.10675e-05
1.29985e-05
1.31899e-05
8.28741e-05
0.000160927
0.000228788
0.000285086
0.000302877
0.000240831
0.000168603
8.66274e-05
1.38144e-05
1.4041e-05
9.05425e-05
0.000175311
0.00025007
0.000318899
0.000317165
0.000256395
0.000182262
9.50529e-05
1.54956e-05
1.61789e-05
0.000102747
0.000195972
0.000273527
0.000335515
0.000361939
0.000297155
0.000214417
0.000112844
1.83485e-05
2.00708e-05
0.000125201
0.000238786
0.000334774
0.000413836
0.000444347
0.000354514
0.000252874
0.00013289
2.14477e-05
2.23377e-05
0.000134998
0.000254856
0.000356361
0.000444517
0.000427529
0.000349873
0.000252181
0.000134295
2.26686e-05
2.31406e-05
0.000136222
0.000256599
0.000358115
0.000443404
0.000449306
0.000364618
0.000262844
0.000140225
2.39638e-05
2.48095e-05
0.000145856
0.000273543
0.000382867
0.000474667
0.000486051
0.000387992
0.000277754
0.000148791
2.57089e-05
2.62812e-05
0.000148823
0.000275943
0.00038184
0.00046664
0.000485299
0.000391353
0.000280361
0.000150272
2.55673e-05
2.55577e-05
0.000150602
0.000280622
0.000392698
0.000493506
0.000471426
0.000384668
0.000277012
0.000149062
2.54724e-05
2.54895e-05
0.000151086
0.000281638
0.000394008
0.000489715
0.000497572
0.000395402
0.000282465
0.00015194
2.55622e-05
2.55689e-05
0.000150465
0.000278937
0.000387157
0.000475004
0.000493495
0.000396271
0.000282916
0.000151633
2.55156e-05
2.54732e-05
0.00015207
0.000283407
0.000397569
0.000501358
0.000478152
0.000388775
0.00027916
0.000149367
2.53944e-05
2.53818e-05
0.000151112
0.000283251
0.000397998
0.00049692
0.000504652
0.000399203
0.00028369
0.000151609
2.54251e-05
2.52636e-05
0.000149679
0.000279728
0.000390266
0.000480866
0.000499568
0.000399193
0.000283385
0.000150614
2.51687e-05
2.50884e-05
0.000149758
0.000282607
0.000399578
0.000506537
0.000481717
0.000389717
0.000277849
0.000147417
2.49382e-05
2.48153e-05
0.000147404
0.000280373
0.000397709
0.000499988
0.000505191
0.000397074
0.000279471
0.000146855
2.45322e-05
2.43989e-05
0.000145428
0.000274863
0.000386823
0.000479431
0.000495204
0.000394116
0.000278454
0.000146876
2.45336e-05
2.48496e-05
0.000149091
0.000282501
0.000397834
0.000496866
0.000522559
0.000414918
0.000291347
0.000152686
2.5315e-05
2.55822e-05
0.000153261
0.000292831
0.000416208
0.000529508
0.000502824
0.000405265
0.000287321
0.000151487
2.55806e-05
2.54937e-05
0.00015173
0.000289872
0.00041297
0.00052123
0.000524596
0.0004106
0.000287393
0.000150265
2.52143e-05
2.49441e-05
0.000147221
0.000281386
0.00039865
0.00049557
0.000511369
0.000404903
0.000283965
0.000148119
2.48693e-05
2.51076e-05
0.000149782
0.000287159
0.00040746
0.000511362
0.000537646
0.00042435
0.000295678
0.000153126
2.5413e-05
2.55528e-05
0.000153679
0.000296255
0.000424446
0.000543134
0.000513403
0.000411714
0.000289776
0.000150952
2.54599e-05
2.52671e-05
0.000150944
0.000291804
0.000419264
0.000532401
0.000534808
0.000415994
0.000288839
0.000148985
2.50574e-05
2.48899e-05
0.000146479
0.000282215
0.000402441
0.000502922
0.000518964
0.000408381
0.000284297
0.000146829
2.48825e-05
2.50671e-05
0.00014845
0.000287146
0.000410204
0.000517869
0.000544905
0.000427271
0.00029519
0.000151458
2.53978e-05
2.54826e-05
0.000151688
0.000295609
0.000426999
0.000549669
0.000517152
0.000412928
0.000288813
0.000149165
2.53186e-05
2.51614e-05
0.00014883
0.000290103
0.000419855
0.000536244
0.000537894
0.000416187
0.000286799
0.000146536
2.49548e-05
2.46451e-05
0.000142486
0.000278778
0.000400705
0.000503636
0.000519606
0.000406402
0.000280224
0.000143099
2.45601e-05
2.4706e-05
0.000144391
0.000282602
0.000406886
0.00051692
0.000544302
0.000423333
0.000289736
0.000147119
2.49204e-05
2.5029e-05
0.000147269
0.000289544
0.000421597
0.000546886
0.000511559
0.000406335
0.000282328
0.000144669
2.48337e-05
2.4874e-05
0.000144879
0.000283842
0.000412132
0.000527799
0.000524664
0.000412719
0.000286423
0.000146488
2.51225e-05
2.53813e-05
0.000148744
0.000292791
0.000428263
0.000551855
0.000554066
0.000426456
0.000291848
0.000148096
2.53332e-05
2.50595e-05
0.000143674
0.00028351
0.000409423
0.000516398
0.000532595
0.000414582
0.000284077
0.000143714
2.49403e-05
2.50715e-05
0.000144527
0.000285341
0.000413832
0.000528095
0.000555493
0.000429323
0.000291862
0.000146841
2.52038e-05
2.51665e-05
0.000146602
0.000290949
0.000426946
0.00055691
0.000517853
0.000409506
0.000282715
0.000143679
2.5012e-05
2.5016e-05
0.00014329
0.000283553
0.000414759
0.000534314
0.00052941
0.000413959
0.000284994
0.000144213
2.51318e-05
2.53152e-05
0.000146507
0.000291605
0.000429959
0.000557386
0.00055873
0.000427192
0.000290148
0.000146139
2.53393e-05
2.51816e-05
0.000141303
0.000281088
0.000408824
0.000518268
0.00053472
0.000413401
0.00028089
0.000140598
2.50611e-05
2.51395e-05
0.000142088
0.000282356
0.000412329
0.000529274
0.000556931
0.000427923
0.000288788
0.000144217
2.53174e-05
2.51683e-05
0.000143519
0.000286954
0.000424708
0.000557615
0.000515529
0.000405597
0.000277611
0.000139043
2.48478e-05
2.46293e-05
0.000138324
0.000277452
0.000409921
0.000532097
0.000525146
0.000407808
0.00027787
0.000138669
2.46459e-05
2.47812e-05
0.000140834
0.000283716
0.000422703
0.00055293
0.000552963
0.000419151
0.00028153
0.000138534
2.4687e-05
2.42448e-05
0.000132862
0.000270431
0.00039855
0.000508943
0.000525129
0.000401942
0.000269762
0.000132398
2.3972e-05
2.42013e-05
0.000134389
0.000271092
0.000400316
0.000517607
0.000542987
0.000414803
0.000278956
0.000138297