/*--------------------------------*- C++ -*----------------------------------*\
| =========                 |                                                 |
| \\      /  F ield         | OpenFOAM: The Open Source CFD Toolbox           |
|  \\    /   O peration     | Version:  v2006                                 |
|   \\  /    A nd           | Website:  www.openfoam.com                      |
|    \\/     M anipulation  |                                                 |
\*---------------------------------------------------------------------------*/
FoamFile
{
    version     2.0;
    format      ascii;
    class       volVectorField;
    location    "0.025";
    object      U;
}
// * * * * * * * * * * * * * * * * * * * * * * * * * * * * * * * * * * * * * //

dimensions      [0 1 -1 0 0 0 0];


internalField   nonuniform List<vector> 
38932
(
(60.2874 -0.00462412 0)
(60.2893 -0.00153021 0)
(60.2869 -0.000573449 0)
(60.2851 -0.00177549 0)
(60.2811 -0.00306192 6.34219e-20)
(60.2742 -0.00439337 -2.77933e-19)
(60.2642 -0.00596341 2.22726e-19)
(60.2509 -0.00739422 1.05236e-19)
(60.2342 -0.00896948 -1.07173e-19)
(60.2147 -0.0104451 0)
(60.192 -0.0119712 -5.38067e-20)
(60.1666 -0.0134574 5.05493e-20)
(60.1382 -0.0149436 -4.22496e-22)
(60.107 -0.016415 2.11344e-22)
(60.0729 -0.0178815 -5.28584e-23)
(60.0358 -0.01934 0)
(59.9959 -0.0207917 0)
(59.953 -0.0222357 0)
(59.9073 -0.0236714 0)
(59.8588 -0.025098 0)
(59.8074 -0.0265151 0)
(59.7532 -0.027922 0)
(59.6963 -0.0293181 0)
(59.6366 -0.0307028 0)
(59.5741 -0.0320753 0)
(59.5089 -0.0334352 0)
(59.441 -0.0347817 0)
(59.3705 -0.0361142 0)
(59.2973 -0.0374319 0)
(59.2215 -0.0387343 0)
(59.1432 -0.0400205 0)
(59.0623 -0.04129 0)
(58.9789 -0.042542 0)
(58.893 -0.0437759 0)
(58.8047 -0.044991 0)
(58.7141 -0.0461865 0)
(58.621 -0.0473619 -1.0585e-22)
(58.5257 -0.0485164 0)
(58.4281 -0.0496492 0)
(58.3282 -0.0507598 0)
(58.2262 -0.0518474 0)
(58.1221 -0.0529114 0)
(58.0158 -0.053951 0)
(57.9076 -0.0549656 0)
(57.7973 -0.0559544 0)
(57.6851 -0.056917 0)
(57.5711 -0.0578524 0)
(57.4552 -0.0587602 0)
(57.3376 -0.0596395 0)
(57.2182 -0.0604898 0)
(57.0972 -0.0613104 0)
(56.9746 -0.0621006 0)
(56.8505 -0.0628598 0)
(56.7249 -0.0635871 0)
(56.5979 -0.0642821 0)
(56.4695 -0.064944 0)
(56.3399 -0.0655721 0)
(56.2091 -0.0661658 0)
(56.0771 -0.0667244 0)
(55.9441 -0.0672472 0)
(55.8101 -0.0677336 0)
(55.6752 -0.0681829 0)
(55.5394 -0.0685944 0)
(55.4029 -0.0689674 0)
(55.2656 -0.0693013 1.06143e-22)
(55.1278 -0.0695954 0)
(54.9894 -0.0698495 0)
(54.8506 -0.070063 0)
(54.7114 -0.0702353 0)
(54.5719 -0.0703655 0)
(54.4322 -0.0704529 0)
(54.2924 -0.0704966 0)
(54.1525 -0.070496 0)
(54.0127 -0.0704507 0)
(53.873 -0.0703603 0)
(53.7336 -0.0702239 0)
(53.5945 -0.0700418 0)
(53.4558 -0.0698148 0)
(53.3176 -0.0695433 0)
(53.18 -0.0692271 0)
(53.0431 -0.0688648 1.06337e-22)
(52.907 -0.0684555 -1.06348e-22)
(52.7717 -0.0679995 0)
(52.6373 -0.0674964 0)
(52.5041 -0.0669464 0)
(52.3719 -0.0663495 0)
(52.2411 -0.0657056 0)
(52.1115 -0.065015 0)
(51.9833 -0.0642776 -5.32142e-23)
(51.8567 -0.0634938 0)
(51.7317 -0.0626641 0)
(51.6083 -0.0617887 0)
(51.4868 -0.060868 0)
(51.3671 -0.0599027 0)
(51.2494 -0.0588933 0)
(51.1337 -0.0578405 0)
(51.0202 -0.0567451 0)
(50.9089 -0.0556079 0)
(50.7999 -0.0544299 0)
(50.6932 -0.053212 0)
(50.589 -0.0519553 0)
(50.4873 -0.0506612 0)
(50.3883 -0.049331 0)
(50.2919 -0.0479659 0)
(50.1982 -0.0465678 5.32913e-23)
(50.1074 -0.0451381 0)
(50.0194 -0.0436787 0)
(49.9343 -0.0421916 0)
(49.8522 -0.040679 0)
(49.7732 -0.039143 0)
(49.6972 -0.0375859 0)
(49.6243 -0.0360104 0)
(49.5546 -0.0344189 0)
(49.488 -0.0328138 0)
(49.4247 -0.0311975 0)
(49.3646 -0.0295715 0)
(49.3079 -0.0279365 -1.0666e-22)
(49.2546 -0.0262906 0)
(49.2048 -0.0246284 0)
(49.1588 -0.0229373 2.68418e-20)
(49.1169 -0.0211554 -2.72e-20)
(49.0801 -0.0192225 -5.77148e-20)
(49.0502 -0.0168293 5.37274e-20)
(49.0315 -0.0134554 -1.08141e-19)
(49.0344 -0.00886867 1.59333e-19)
(49.065 0.0164991 0)
(49.2736 -0.0129827 0)
(49.337 0.326924 6.42345e-20)
(51.1746 -0.467995 0)
(49.6999 3.19369 0)
(53.0472 -1.57668 5.33029e-20)
(33.819 10.936 0)
(50.1877 0.688122 -9.4841e-19)
(46.598 0.0935558 -4.89535e-20)
(49.5186 1.4005 6.74939e-19)
(49.4355 0.148104 5.74947e-19)
(47.5026 0.0481293 9.06578e-19)
(49.659 0.0515903 -6.19494e-20)
(48.4703 -0.166957 -1.56641e-19)
(48.2018 -0.169915 0)
(49.0803 -0.112456 0)
(48.9463 -0.189141 2.91759e-19)
(48.3892 -0.192736 -3.58235e-19)
(47.4849 -0.1883 1.86545e-23)
(46.6096 -0.152988 2.00118e-19)
(48.3508 -0.188575 4.19971e-20)
(48.8722 -0.214198 0)
(48.7831 -0.215004 0)
(48.1995 -0.181233 -2.16499e-19)
(45.8321 -0.124464 0)
(45.1464 -0.102442 0)
(47.9931 -0.167888 1.71122e-19)
(48.6814 -0.204725 0)
(48.5743 -0.194378 -1.81082e-20)
(47.7807 -0.156209 0)
(44.5418 -0.0864729 0)
(44.0073 -0.0742448 0)
(47.5596 -0.145129 -5.42562e-21)
(48.4576 -0.185523 1.81505e-20)
(48.3286 -0.177542 0)
(47.3322 -0.135101 8.17328e-21)
(43.5236 -0.0646395 0)
(43.0814 -0.0572418 0)
(47.1015 -0.126359 -2.7251e-21)
(48.1888 -0.171143 0)
(48.0423 -0.165182 0)
(46.8718 -0.11865 0)
(42.6756 -0.0514126 0)
(42.2994 -0.0467944 0)
(46.6436 -0.112001 0)
(47.8902 -0.159906 0)
(47.7332 -0.155404 0)
(46.4169 -0.10635 0)
(41.9471 -0.0430943 0)
(41.6144 -0.0401093 0)
(46.1917 -0.101587 0)
(47.5719 -0.151612 0)
(47.4068 -0.148479 0)
(45.9679 -0.0976136 0)
(41.2977 -0.0376995 0)
(40.9942 -0.0357463 0)
(45.7453 -0.0943193 0)
(47.2385 -0.14595 0)
(47.0671 -0.143965 0)
(45.5236 -0.0916044 0)
(40.7016 -0.0341588 0)
(40.4178 -0.032863 0)
(45.3024 -0.0893795 0)
(46.8928 -0.142468 0)
(46.7156 -0.141403 0)
(45.0814 -0.0875717 0)
(40.1411 -0.0317988 0)
(39.8703 -0.0309304 0)
(44.8603 -0.0861392 0)
(46.5354 -0.140721 0)
(46.3521 -0.140383 0)
(44.6385 -0.0850285 0)
(39.6042 -0.0302187 0)
(39.3417 -0.0296377 0)
(44.4158 -0.0841985 0)
(46.1656 -0.140361 0)
(45.9758 -0.140632 0)
(44.1918 -0.0836146 0)
(39.082 -0.029167 0)
(38.8244 -0.0287917 0)
(43.9662 -0.0832495 0)
(45.7824 -0.141175 0)
(45.5853 -0.141977 0)
(43.7386 -0.0830825 0)
(38.5682 -0.0285007 0)
(38.3128 -0.0282853 0)
(43.5086 -0.0830967 0)
(45.3843 -0.143023 0)
(45.1791 -0.144305 0)
(43.276 -0.0832785 0)
(38.0576 -0.0281384 0)
(37.8021 -0.0280544 0)
(43.0404 -0.0836173 0)
(44.9695 -0.145814 0)
(44.7552 -0.147545 0)
(42.8013 -0.0841048 0)
(37.5457 -0.0280288 0)
(37.2881 -0.0280581 0)
(42.5586 -0.0847347 0)
(44.5359 -0.149493 0)
(44.3114 -0.151655 0)
(42.3117 -0.0855023 0)
(37.0287 -0.0281399 0)
(36.7671 -0.0282719 0)
(42.0605 -0.0864043 0)
(44.0814 -0.154032 0)
(43.8456 -0.156623 0)
(41.8044 -0.0874383 0)
(36.5028 -0.0284526 0)
(36.2355 -0.028681 0)
(41.5433 -0.0886032 0)
(43.6037 -0.159429 0)
(43.3554 -0.162453 0)
(41.2767 -0.0898982 0)
(35.9647 -0.0289564 0)
(35.6901 -0.0292781 0)
(41.0043 -0.0913233 0)
(43.1004 -0.165697 0)
(42.8385 -0.169166 0)
(40.7259 -0.0928791 0)
(35.4113 -0.0296458 0)
(35.128 -0.0300592 0)
(40.4411 -0.0945662 0)
(42.5694 -0.172862 0)
(42.2927 -0.17679 0)
(40.1495 -0.0963856 0)
(34.8397 -0.0305182 0)
(34.5462 -0.0310228 0)
(39.8508 -0.098339 0)
(42.0081 -0.180955 0)
(41.7154 -0.185364 0)
(39.5446 -0.100429 0)
(34.2469 -0.0315731 0)
(33.9416 -0.0321696 0)
(39.2306 -0.102657 0)
(41.414 -0.190024 0)
(41.1037 -0.194943 0)
(38.9083 -0.105027 0)
(33.6298 -0.0328129 0)
(33.311 -0.0335042 0)
(38.5773 -0.107545 0)
(40.7839 -0.20013 0)
(40.4542 -0.205596 0)
(38.2371 -0.110213 0)
(32.9847 -0.0342446 0)
(32.6506 -0.0350358 0)
(37.8871 -0.113039 0)
(40.1142 -0.211354 0)
(39.7633 -0.217415 0)
(37.527 -0.116027 0)
(32.308 -0.0358793 0)
(31.9565 -0.0367767 0)
(37.156 -0.119185 0)
(39.4009 -0.223793 0)
(39.0266 -0.230502 0)
(36.7738 -0.122519 0)
(31.5955 -0.03773 0)
(31.2246 -0.0387409 0)
(36.3797 -0.126035 0)
(38.6397 -0.237557 0)
(38.2396 -0.244974 0)
(35.9731 -0.129742 0)
(30.8431 -0.0398115 0)
(30.4506 -0.0409444 0)
(35.5534 -0.133647 0)
(37.8258 -0.25277 0)
(37.3976 -0.260963 0)
(35.12 -0.137761 0)
(30.0463 -0.0421421 0)
(29.6298 -0.0434079 0)
(34.6722 -0.142093 0)
(36.9543 -0.269573 0)
(36.4952 -0.278623 0)
(34.2093 -0.146653 0)
(29.2004 -0.044745 0)
(28.7575 -0.0461573 0)
(33.7307 -0.151455 0)
(36.0196 -0.288134 0)
(35.5267 -0.298132 0)
(33.2355 -0.156509 0)
(28.3003 -0.0476484 0)
(27.8281 -0.0492228 0)
(32.7228 -0.161831 0)
(35.0155 -0.308644 0)
(34.4853 -0.319699 0)
(32.1919 -0.167435 0)
(27.3401 -0.0508851 0)
(26.8354 -0.0526403 0)
(31.6418 -0.173336 0)
(33.935 -0.331328 0)
(33.3635 -0.343566 0)
(31.0714 -0.179554 0)
(26.3133 -0.054495 0)
(25.7726 -0.0564546 0)
(30.4798 -0.186107 0)
(32.7699 -0.356448 0)
(32.1529 -0.370011 0)
(29.8657 -0.193012 0)
(25.2125 -0.0585251 0)
(24.6318 -0.0607137 0)
(29.228 -0.200291 0)
(31.5113 -0.384295 0)
(30.8437 -0.39934 0)
(28.5655 -0.207967 0)
(24.0293 -0.0630277 0)
(23.404 -0.0654704 0)
(27.8767 -0.216051 0)
(30.1488 -0.415177 0)
(29.425 -0.431848 0)
(27.1603 -0.224567 0)
(22.7545 -0.0680501 0)
(22.0795 -0.0707754 0)
(26.4147 -0.233538 0)
(28.6709 -0.449394 0)
(27.8847 -0.467844 0)
(25.6384 -0.242976 0)
(21.3775 -0.0736509 0)
(20.6473 -0.0766785 0)
(24.8298 -0.252889 0)
(27.0648 -0.487218 0)
(26.2094 -0.507533 0)
(23.9874 -0.263286 0)
(19.8874 -0.0798622 0)
(19.0965 -0.0832013 0)
(23.1095 -0.274159 0)
(25.3169 -0.528784 0)
(24.3855 -0.55095 0)
(22.1947 -0.285497 0)
(18.2733 -0.0866928 0)
(17.4165 -0.0903216 0)
(21.2414 -0.297266 0)
(23.4137 -0.573972 0)
(22.3999 -0.597758 0)
(20.2485 -0.309412 0)
(16.5253 -0.0940651 0)
(15.5986 -0.097894 0)
(19.2147 -0.321854 0)
(21.3427 -0.622151 0)
(20.2409 -0.646927 0)
(18.1393 -0.334465 0)
(14.6361 -0.101767 0)
(13.6375 -0.105618 0)
(17.0218 -0.347061 0)
(19.0938 -0.671765 0)
(17.9008 -0.696222 0)
(15.8623 -0.359399 0)
(12.6034 -0.109362 0)
(11.5351 -0.112888 0)
(14.6618 -0.371151 0)
(16.6625 -0.71971 0)
(15.3801 -0.741444 0)
(13.4224 -0.381897 0)
(10.435 -0.11606 0)
(9.30684 -0.118696 0)
(12.1474 -0.391107 0)
(14.0563 -0.7605 0)
(12.6952 -0.775535 0)
(10.8421 -0.398051 0)
(8.15625 -0.120539 0)
(6.99124 -0.121331 0)
(9.51411 -0.401914 0)
(11.3033 -0.785024 0)
(9.88972 -0.787179 0)
(8.17356 -0.401729 0)
(5.82219 -0.120746 0)
(4.66295 -0.118421 0)
(6.83422 -0.396401 0)
(8.46685 -0.780024 0)
(7.05003 -0.761681 0)
(5.51286 -0.384915 0)
(3.53038 -0.113978 0)
(2.44505 -0.107689 0)
(4.23001 -0.367377 0)
(5.65897 -0.731811 0)
(4.31189 -0.688051 0)
(3.00267 -0.342047 0)
(1.4197 -0.0986808 0)
(0.49629 -0.0922792 0)
(1.86846 -0.315838 0)
(3.04376 -0.636205 0)
(1.8773 -0.569775 0)
(0.830922 -0.279133 0)
(-0.389035 -0.0793351 0)
(-1.07832 -0.0569539 0)
(-0.0993078 -0.23112 0)
(0.813022 -0.492153 0)
(-0.153457 -0.414427 0)
(-0.901894 -0.188883 0)
(-1.64843 -0.0436052 0)
(-2.10507 -0.0351869 0)
(-1.55565 -0.153266 0)
(-0.96804 -0.33981 0)
(-1.65809 -0.281347 0)
(-2.10792 -0.126244 0)
(-2.48817 -0.0285023 0)
(-2.80136 -0.0231315 0)
(-2.56783 -0.104995 0)
(-2.23078 -0.238063 0)
(-2.72143 -0.201918 0)
(-2.96409 -0.0878046 0)
(-3.06559 -0.0179782 0)
(-3.27826 -0.0130675 0)
(-3.30284 -0.0739068 0)
(-3.14122 -0.174437 0)
(-3.51491 -0.159059 0)
(-3.60662 -0.065759 0)
(-3.45487 -0.00907056 0)
(-3.61011 -0.00526183 0)
(-3.89704 -0.0611935 -4.44147e-20)
(-3.86636 -0.151918 0)
(-4.21078 -0.14981 0)
(-4.18579 -0.0597539 4.44249e-20)
(-3.74846 -0.00349572 0)
(-3.88451 -0.00640065 0)
(-4.47024 -0.0615792 0)
(-4.55075 -0.148901 0)
(-4.87408 -0.14843 0)
(-4.74195 -0.0665879 0)
(-4.04674 -0.0125766 0)
(-4.23573 -0.0174768 0)
(-5.00115 -0.0710271 0)
(-5.17159 -0.147242 0)
(-5.44199 -0.142623 0)
(-5.24909 -0.0724276 0)
(-4.44077 -0.0202134 0)
(-4.64957 -0.0211855 0)
(-5.47999 -0.0699393 -4.44372e-20)
(-5.68325 -0.132968 0)
(-5.89213 -0.118706 0)
(-5.68697 -0.0641509 4.43921e-20)
(-4.84995 -0.0206183 0)
(-5.03134 -0.0188392 0)
(-5.86541 -0.0559672 -4.44352e-20)
(-6.0671 -0.101168 0)
(-6.2043 -0.0810161 0)
(-6.00919 -0.0458456 4.44348e-20)
(-5.18488 -0.016167 0)
(-5.30612 -0.012961 0)
(-6.116 -0.0343633 0)
(-6.30275 -0.0587702 0)
(-6.36368 -0.0362049 0)
(-6.18627 -0.0225572 -4.44347e-20)
(-5.39515 -0.0095164 0)
(-5.44919 -0.00596351 0)
(-6.2192 -0.0105585 4.43908e-20)
(-6.38711 -0.0133991 0)
(-6.37276 0.00947586 0)
(-6.2144 0.00151769 0)
(-5.46829 -0.00228716 0)
(-5.45205 0.00138922 0)
(-6.17147 0.0135685 0)
(-6.32124 0.0321463 0)
(-6.23382 0.0541426 0)
(-6.09173 0.0255233 0)
(-5.40032 0.00505787 0)
(-5.31376 0.00868312 0)
(-5.97679 0.0370292 0)
(-6.11222 0.075032 0)
(-5.9589 0.0945147 0)
(-5.82916 0.0476691 0)
(-5.1936 0.0121707 0)
(-5.04286 0.0153812 0)
(-5.65107 0.0574196 0)
(-5.77585 0.112425 0)
(-5.56614 0.128647 0)
(-5.44553 0.0662196 0)
(-4.86405 0.0184089 -2.68421e-20)
(-4.65982 0.0210019 2.6817e-20)
(-5.2152 0.073977 0)
(-5.33214 0.143068 0)
(-5.0766 0.155693 0)
(-4.96283 0.0808356 0)
(-4.43401 0.023262 -2.68468e-20)
(-4.18845 0.0253163 -4.81793e-25)
(-4.69175 0.086725 0)
(-4.80279 0.16654 0)
(-4.51296 0.175511 0)
(-4.40439 0.0916597 0)
(-3.92673 0.0267668 2.68245e-20)
(-3.65188 0.0279314 0)
(-4.10351 0.0957398 -4.44766e-20)
(-4.20989 0.182773 0)
(-3.89675 0.188447 0)
(-3.79236 0.0988637 4.44368e-20)
(-3.36626 0.0289581 0)
(-3.07266 0.0296055 0)
(-3.47295 0.101025 0)
(-3.57534 0.192515 0)
(-3.24872 0.195178 0)
(-3.14816 0.102472 0)
(-2.77406 0.0300581 0)
(-2.47123 0.0302919 0)
(-2.81956 0.103201 0)
(-2.9185 0.196576 0)
(-2.58613 0.197156 0)
(-2.48866 0.103506 -4.41506e-20)
(-2.167 0.0303551 0)
(-1.85942 0.0302668 0)
(-2.15496 0.103471 4.41126e-20)
(-2.25161 0.197055 0)
(-1.91564 0.197182 -1.44358e-19)
(-1.81921 0.103646 1.72476e-19)
(-1.55263 0.0306307 0)
(-1.23354 0.0308108 0)
(-1.47599 0.103884 -1.73578e-19)
(-1.5756 0.197522 0)
(-1.23354 0.198484 0)
(-1.13168 0.10484 6.58745e-19)
(-0.916595 0.0310995 0)
(-0.585698 0.0314617 0)
(-0.77912 0.105326 -7.00312e-19)
(-0.889347 0.198614 -1.42918e-19)
(-0.555301 0.191534 4.21056e-19)
(-0.438393 0.10248 0)
(-0.270751 0.0310248 0)
(0.0356072 0.0234195 0)
(-0.121763 0.0843101 -7.67177e-19)
(-0.252246 0.163131 3.11636e-19)
(-0.0159629 0.0760372 -6.34822e-19)
(0.114685 0.0237517 1.49603e-18)
(0.208716 0.000575299 -8.86304e-19)
(0.147389 -0.024715 0)
(0.152364 -0.0679109 0)
(0.100373 -0.105326 3.37994e-19)
(-0.0470053 -0.0918419 -1.2361e-19)
(-0.144323 0.141558 0)
(-0.15036 0.426096 -8.46696e-19)
(-0.144687 0.738438 8.41163e-19)
(-0.129463 1.02438 -1.97826e-19)
(-0.113183 1.28856 4.0103e-19)
(-0.0905769 1.50258 -3.98551e-19)
(-0.0668687 1.67041 0)
(-0.0409789 1.78305 2.51989e-20)
(-0.0143442 1.84037 -2.53092e-20)
(0.0131243 1.84033 5.07406e-20)
(0.0407927 1.78395 -5.14098e-20)
(0.069205 1.67366 5.20526e-20)
(0.0961886 1.50658 -5.54148e-20)
(0.119594 1.30845 -1.83417e-18)
(0.155661 1.12142 -1.03342e-17)
(0.176145 0.955704 1.2075e-17)
(0.191709 0.81452 0)
(0.242467 0.627545 0)
(0.172752 0.44456 8.79086e-18)
(0.0897674 0.273959 0)
(0.134315 0.105974 5.58475e-17)
(0.115692 0.0371688 -4.38392e-17)
(0.0817117 -0.154597 2.22447e-17)
(0.0351658 -0.202873 -5.53437e-23)
(0.0425905 -0.247026 -5.37698e-17)
(0.0250603 -0.268958 1.03215e-16)
(0.0167828 -0.280856 -1.10972e-16)
(0.000720066 -0.273201 0)
(-0.0100629 -0.273527 4.75417e-17)
(-0.0111883 -0.205565 -1.94406e-16)
(-0.0211586 -0.163188 1.2345e-16)
(-0.0328783 -0.114081 0)
(-0.0415219 -0.0383429 0)
(-0.0759213 -3.18204e-05 0)
(-0.112113 -0.0222196 1.44379e-17)
(-0.126651 -0.048136 -1.78966e-24)
(-0.130857 -0.0780837 -1.31013e-17)
(-0.119377 -0.112616 -2.24441e-18)
(-0.119393 -0.0581792 -8.45749e-25)
(-0.139115 -0.0494806 7.57211e-18)
(-0.145633 -0.0365043 0)
(-0.134949 -0.0207552 0)
(-0.0867967 -0.00344396 0)
(-0.119182 -0.00723015 0)
(-0.166512 -0.028379 7.79029e-19)
(-0.17242 -0.0429267 -7.45009e-19)
(-0.161781 -0.0565279 -1.40039e-18)
(-0.140572 -0.0711649 -4.64614e-18)
(-0.158262 -0.0395562 -1.04286e-18)
(-0.179847 -0.0359315 -1.36716e-18)
(-0.193052 -0.0301157 -2.84077e-18)
(-0.192459 -0.0219668 -2.88167e-18)
(-0.146139 -0.00596554 1.52103e-18)
(-0.166366 -0.00431746 -2.15359e-18)
(-0.209327 -0.0148033 2.79385e-18)
(-0.202503 -0.0184214 3.06082e-18)
(-0.182954 -0.0197387 2.28757e-18)
(-0.155999 -0.0183185 0)
(-0.150783 0.00617931 2.32154e-18)
(-0.181009 -0.00143398 2.48885e-18)
(-0.205662 -0.00526553 2.64619e-18)
(-0.218543 -0.00649485 -2.73235e-18)
(-0.17929 -0.00218791 7.09043e-19)
(-0.182286 -0.00033019 -2.87036e-18)
(-0.217691 0.000263971 1.39409e-18)
(-0.200799 0.00553392 -9.30039e-26)
(-0.173191 0.0130331 2.58278e-18)
(-0.140454 0.0234664 -1.46575e-17)
(-0.126127 0.0391581 2.55738e-18)
(-0.160061 0.0257068 0)
(-0.189362 0.0149245 0)
(-0.208506 0.00623695 0)
(-0.176985 0.00126267 1.49036e-18)
(-0.165786 0.00187277 1.57053e-18)
(-0.192839 0.00953104 -1.54164e-18)
(-0.172133 0.0200556 0)
(-0.141791 0.0325283 5.77924e-18)
(-0.106914 0.0471875 5.43418e-18)
(-0.0867837 0.0534263 0)
(-0.120834 0.0375334 1.53563e-18)
(-0.151345 0.0236675 3.16135e-18)
(-0.173153 0.0116511 -4.88894e-18)
(-0.151266 0.00226871 0)
(-0.134645 0.00224659 -1.73763e-18)
(-0.149674 0.0128645 1.70825e-18)
(-0.12578 0.0261244 -1.66688e-18)
(-0.0945801 0.0413192 -8.05606e-18)
(-0.0602025 0.0584383 6.21063e-18)
(-0.0258857 0.061531 0)
(-0.0618253 0.0431269 8.25723e-19)
(-0.0944983 0.0271209 1.72183e-18)
(-0.120834 0.0132629 1.15682e-24)
(-0.114266 0.00218761 1.81312e-18)
(-0.0965651 0.00172518 -7.00383e-25)
(-0.0930992 0.0125067 3.69274e-18)
(-0.0630559 0.0261292 -3.57961e-18)
(-0.0284349 0.0422301 2.53972e-18)
(0.00891949 0.0608889 0)
(0.0497225 0.0657236 0)
(0.0104194 0.0456027 -4.28499e-19)
(-0.0264241 0.0284001 -3.6976e-18)
(-0.0603052 0.0138596 1.91834e-18)
(-0.074283 0.00199097 -1.98137e-18)
(-0.0540812 0.00128659 2.08708e-18)
(-0.0282846 0.0128749 0)
(0.0103769 0.026945 9.51042e-19)
(0.0501548 0.044117 4.37596e-19)
(0.0920068 0.064479 -1.00219e-19)
(0.134105 0.0656752 6.71577e-18)
(0.0902008 0.0443213 0)
(0.0479845 0.026824 2.99182e-18)
(0.0052699 0.0129479 -8.66187e-18)
(-0.0314699 0.00146602 -1.24962e-24)
(-0.0102019 0.000880933 2.48998e-18)
(0.0375117 0.0119656 1.29742e-17)
(0.0846734 0.0245814 5.34647e-19)
(0.129367 0.0414041 -7.19824e-18)
(0.175628 0.0619061 0)
(0.217345 0.0616578 0)
(0.16842 0.0406016 -1.53089e-18)
(0.120995 0.0233467 8.8046e-18)
(0.0693923 0.0112496 -1.72292e-17)
(0.011415 0.000708887 2.82853e-18)
(0.0274224 0.000473852 1.41997e-17)
(0.0952203 0.00941899 -1.23229e-17)
(0.151276 0.0202586 -2.24314e-17)
(0.201704 0.0375726 1.09423e-18)
(0.255516 0.0583916 -8.92219e-19)
(0.29454 0.05402 -1.39638e-17)
(0.23487 0.0354986 0)
(0.17093 0.0192737 2.47329e-17)
(0.104989 0.00860812 -2.08502e-17)
(0.0355388 0.000694068 -2.35411e-17)
(0.00971553 0.0441874 0)
(0.0785725 0.0404618 0)
(0.157749 -0.00898816 2.90484e-17)
(0.228905 0.00759847 -2.56181e-17)
(0.29758 0.0295422 8.73867e-19)
(0.308799 0.0136682 -1.05514e-18)
(0.229562 0.0276375 0)
(0.170692 0.0276117 0)
(0.101967 -0.11848 0)
(0.0118765 -0.123744 0)
(0.0614263 -0.209377 0)
(0.0778985 -0.177992 0)
(0.172169 0.0515195 0)
(0.254119 0.0576362 0)
(0.312943 0.0328329 0)
(0.415357 -0.0379508 0)
(0.341936 -0.100041 0)
(0.284294 -0.120198 0)
(0.212306 0.33447 0)
(0.115725 0.369763 0)
(0.0281842 -0.311891 0)
(-0.0735345 -0.295187 0)
(0.0577612 0.0893015 0)
(0.271445 0.103293 0)
(0.420501 0.0299762 0)
(0.542589 0.0469578 0)
(0.477649 -0.274436 0)
(0.321389 -0.297446 0)
(0.222439 1.40238 0)
(0.321951 1.41256 0)
(-0.263913 1.91122 0)
(0.161815 1.9242 0)
(0.369337 -0.431708 0)
(0.390099 -0.336069 0)
(0.56517 0.195899 0)
(0.669568 0.137942 0)
(0.553564 0.732647 0)
(0.619716 0.692267 0)
(0.616264 -2.80622 0)
(0.0837146 -2.80012 0)
(0.134079 -2.81325 0)
(-0.336485 -2.72823 0)
(0.0343451 0.770925 0)
(0.4714 0.807935 0)
(0.648786 0.258731 0)
(0.766636 0.180054 0)
(0.632971 -0.484349 0)
(0.376195 -0.616779 0)
(0.347322 2.59902 0)
(0.666343 2.6066 0)
(-0.294754 1.7073 0)
(0.100264 1.68413 0)
(0.434287 -0.393278 0)
(0.599256 -0.298344 0)
(0.807627 0.132632 0)
(0.90859 0.128991 0)
(0.751759 0.263447 0)
(0.60634 0.258917 0)
(0.423322 -0.685734 0)
(0.134911 -0.755327 0)
(0.0569921 0.480586 0)
(0.207235 0.486056 0)
(0.505709 -0.125751 0)
(0.767086 -0.093794 0)
(0.956365 0.0458179 0)
(1.06924 0.0439967 0)
(0.907019 0.126201 0)
(0.77461 0.0963445 0)
(0.532189 -0.523659 0)
(0.0764318 -0.539231 0)
(0.308022 -1.86891 0)
(0.202191 -1.81701 0)
(0.553184 0.468178 0)
(0.903552 0.476281 0)
(1.12532 0.0535302 0)
(1.21666 -0.0601682 0)
(1.0111 -0.561419 0)
(0.620224 -0.604732 0)
(0.341397 2.36335 0)
(0.592261 2.40828 0)
(-0.056336 2.69242 0)
(0.485724 2.67598 0)
(0.908447 -0.664624 0)
(1.07192 -0.583202 0)
(1.29239 0.0036389 0)
(1.42262 0.049051 0)
(1.20802 0.406622 0)
(1.04723 0.399477 0)
(0.753638 -1.52485 0)
(0.221776 -1.58237 0)
(0.224075 -0.50101 0)
(0.44393 -0.455494 0)
(0.865413 0.127305 0)
(1.21144 0.133142 0)
(1.46231 0.0833939 0)
(1.57034 0.140802 0)
(1.34441 0.37466 0)
(1.11028 0.344866 0)
(0.725963 -1.36432 0)
(0.22172 -1.43124 0)
(0.409716 -2.55625 0)
(0.407359 -2.46759 0)
(0.911374 0.64795 0)
(1.33549 0.666982 0)
(1.61657 0.133183 0)
(1.7273 0.0427546 0)
(1.46782 -0.217203 0)
(1.09811 -0.286014 0)
(0.687685 0.95299 0)
(0.54197 0.962439 0)
(0.371729 -0.877195 0)
(0.629333 -0.8444 0)
(1.11899 0.220267 0)
(1.51741 0.240276 0)
(1.81034 0.0183988 0)
(1.92458 -0.0748116 0)
(1.63755 -0.481854 0)
(1.20936 -0.5281 0)
(0.72691 1.9652 0)
(0.643457 2.01329 0)
(0.446689 1.50105 0)
(0.774909 1.47469 0)
(1.31377 -0.392484 0)
(1.70505 -0.330326 0)
(2.01095 -0.0581995 0)
(2.1428 -0.0595389 0)
(1.84599 -0.393448 0)
(1.41919 -0.430642 0)
(0.869697 1.74675 0)
(0.616285 1.76903 0)
(0.514746 2.81597 0)
(0.864158 2.77931 0)
(1.47409 -0.702024 0)
(1.89189 -0.610824 0)
(2.21632 -0.0461921 0)
(2.33875 0.0117648 0)
(2.04006 -0.234192 0)
(1.59699 -0.272763 0)
(1.03022 1.28078 0)
(0.559756 1.25893 0)
(0.291608 3.1401 0)
(0.971842 3.16402 0)
(1.70016 -0.801026 0)
(2.05121 -0.709552 0)
(2.41738 0.0280668 0)
(2.57993 -0.00166468 0)
(2.2471 0.595079 0)
(1.9713 0.576707 0)
(1.4581 -2.47896 0)
(0.696174 -2.52522 0)
(0.625001 -0.912221 0)
(0.876782 -0.853939 0)
(1.63796 0.206874 0)
(2.24986 0.208512 0)
(2.63563 0.0864772 0)
(2.74632 0.123741 0)
(2.41438 0.129987 0)
(2.06931 0.144981 0)
(1.46918 -0.568438 0)
(0.597343 -0.651154 0)
(0.883241 -3.59025 0)
(0.967111 -3.50286 0)
(1.79569 0.897351 0)
(2.41106 0.912765 0)
(2.82167 0.0942095 0)
(2.97816 -0.0276333 0)
(2.58949 -0.644511 0)
(1.91917 -0.710608 0)
(1.24896 2.82665 0)
(1.36065 2.86602 0)
(0.604657 2.4909 0)
(1.33367 2.45478 0)
(2.18715 -0.599847 0)
(2.65432 -0.517317 0)
(3.06876 -0.010617 0)
(3.22216 0.0393518 0)
(2.84054 0.0822447 0)
(2.30828 0.0863719 0)
(1.56698 -0.0306495 0)
(0.853293 -0.0796675 0)
(0.721648 2.58364 0)
(1.49409 2.57866 0)
(2.38489 -0.648459 0)
(2.89179 -0.559136 0)
(3.31765 0.0539827 0)
(3.46213 0.0885122 0)
(3.04922 0.558811 0)
(2.61063 0.53494 0)
(1.81651 -2.09559 0)
(0.880038 -2.14876 0)
(0.967689 -1.00382 0)
(1.54429 -0.927506 0)
(2.44883 0.258811 0)
(3.09362 0.275133 0)
(3.53966 0.136939 0)
(3.66801 0.162149 0)
(3.24294 0.425287 0)
(2.74355 0.39389 0)
(1.87293 -1.58195 0)
(0.847471 -1.66551 0)
(1.23499 -3.55477 0)
(1.49981 -3.44594 0)
(2.52727 0.884686 0)
(3.26423 0.919596 0)
(3.75456 0.150594 0)
(3.90037 0.0879251 0)
(3.44588 -0.22861 0)
(2.80842 -0.313396 0)
(1.92498 1.02505 0)
(1.3125 1.01767 0)
(1.18378 -2.25939 0)
(1.78384 -2.19684 0)
(2.80544 0.550329 0)
(3.51146 0.579573 0)
(4.01612 0.0460248 0)
(4.17185 -0.118956 0)
(3.68837 -0.725112 0)
(2.91933 -0.773495 0)
(1.96963 2.90615 0)
(1.75653 2.98003 0)
(1.22254 2.41179 0)
(2.05269 2.36728 0)
(3.13009 -0.62093 0)
(3.77638 -0.533001 0)
(4.272 -0.0777081 0)
(4.45042 0.00351659 0)
(3.97382 -0.170396 0)
(3.26876 -0.185663 0)
(2.2646 1.08644 0)
(1.35668 1.02873 0)
(1.4396 4.33506 0)
(2.2396 4.24879 0)
(3.38971 -1.09308 0)
(4.031 -0.989442 0)
(4.54803 -0.0873871 0)
(4.70094 0.0343198 0)
(4.2292 0.196458 0)
(3.61367 0.177257 0)
(2.56771 -0.51995 0)
(1.19078 -0.567686 0)
(1.44044 2.05534 0)
(2.45159 2.07673 0)
(3.60485 -0.527937 0)
(4.31796 -0.447913 0)
(4.83148 0.0529807 0)
(4.9753 0.0545447 0)
(4.46667 0.134059 0)
(3.78263 0.119673 0)
(2.68011 -0.305988 0)
(1.34005 -0.360226 0)
(1.37753 1.18472 0)
(2.66754 1.2461 0)
(3.83904 -0.288267 0)
(4.55821 -0.231705 0)
(5.08788 0.105991 0)
(5.23647 0.103467 0)
(4.69122 0.332541 0)
(3.97592 0.303822 0)
(2.78797 -1.08788 0)
(1.60109 -1.16137 0)
(1.48555 0.200389 0)
(2.83274 0.249126 0)
(4.03729 -0.0147941 0)
(4.80011 0.0399876 0)
(5.35618 0.1467 0)
(5.48846 0.160422 0)
(4.93609 0.5968 0)
(4.25534 0.541893 0)
(3.01717 -2.21967 0)
(1.66743 -2.30022 0)
(2.06253 -3.09336 0)
(2.69929 -2.98811 0)
(4.08082 0.752061 0)
(4.99796 0.796062 0)
(5.62152 0.161979 0)
(5.78011 0.124076 0)
(5.21468 0.100027 0)
(4.48085 0.0386319 0)
(3.26044 -0.251874 0)
(1.73348 -0.240779 0)
(2.26097 -4.48431 0)
(2.86684 -4.3945 0)
(4.32573 1.098 0)
(5.27407 1.15208 0)
(5.89096 0.125777 0)
(6.08649 0.0326244 0)
(5.48447 -0.589172 0)
(4.53681 -0.684408 0)
(3.24167 2.58122 0)
(2.6256 2.6066 0)
(2.01037 -0.307386 0)
(3.36992 -0.25697 0)
(4.72659 0.11436 0)
(5.60108 0.137749 0)
(6.21773 0.0437426 0)
(6.39569 -0.0260077 0)
(5.77872 -0.56905 0)
(4.79823 -0.619866 0)
(3.37585 2.66764 0)
(2.58817 2.67096 0)
(2.41456 3.87518 0)
(3.52595 3.81456 0)
(5.03922 -0.956624 0)
(5.89471 -0.848814 0)
(6.54387 -0.069338 0)
(6.7531 0.0220717 0)
(6.14323 -0.0990153 0)
(5.24559 -0.111619 0)
(3.84393 0.856854 0)
(2.15052 0.801614 0)
(2.56374 4.57277 0)
(3.7186 4.52098 0)
(5.33421 -1.1248 0)
(6.22095 -1.01679 0)
(6.8833 -0.0260623 0)
(7.10142 0.0850741 0)
(6.49587 0.290539 0)
(5.63501 0.265102 0)
(4.15323 -0.735767 0)
(2.37877 -0.819592 0)
(2.41225 2.71423 0)
(4.08881 2.78852 0)
(5.73749 -0.660397 0)
(6.61013 -0.572984 0)
(7.26035 0.142596 0)
(7.44604 0.119673 0)
(6.78158 0.799348 0)
(5.98835 0.722886 0)
(4.43572 -3.02892 0)
(2.71445 -3.09317 0)
(3.09182 -2.57065 0)
(3.91506 -2.46827 0)
(5.6974 0.611437 0)
(6.90965 0.685361 0)
(7.64015 0.198196 0)
(7.88179 0.186679 0)
(7.21504 -0.155817 0)
(6.24844 -0.279688 0)
(4.60483 0.918384 0)
(2.96544 0.88071 0)
(2.87575 -3.11701 0)
(4.53794 -2.99978 0)
(6.4188 0.746755 0)
(7.46492 0.860801 0)
(8.15387 0.209339 0)
(8.50174 0.225852 0)
(7.87494 0.0204951 0)
(6.76153 -0.0429023 0)
(5.00128 0.455957 0)
(2.92636 0.35112 0)
(3.00077 0.202065 0)
(5.25645 0.286465 0)
(7.07828 -0.00129077 0)
(8.18347 0.15095 0)
(8.75918 0.285235 0)
(9.11735 0.437188 0)
(8.54273 -0.378994 0)
(7.61119 -0.566257 0)
(5.62227 2.65223 0)
(3.76195 2.42538 0)
(4.15285 -0.571011 0)
(6.973 -0.267911 0)
(8.57048 0.450636 3.5549e-19)
(9.13032 0.188222 0)
(9.49931 0.142073 0)
(9.97833 0.433757 -2.77483e-17)
(9.71126 0.513996 3.30209e-17)
(9.13066 0.303895 -3.01028e-19)
(7.97721 0.21787 0)
(5.7216 0.288518 0)
(7.00295 0.202511 -4.12944e-18)
(8.83274 0.352557 0)
(9.62103 0.462444 -4.46687e-19)
(10.0435 0.450731 1.40004e-18)
(10.2621 0.5159 -2.12108e-18)
(10.4565 0.559461 1.95733e-18)
(10.3161 0.507177 -1.06684e-17)
(10.0423 0.457782 1.17102e-17)
(9.4529 0.397779 -3.36712e-18)
(8.02317 0.30603 3.17998e-18)
(8.74459 0.328881 2.60939e-18)
(9.93658 0.414319 2.82713e-18)
(10.358 0.483835 0)
(10.5431 0.537294 0)
(10.6222 0.593391 -1.44882e-17)
(10.7675 0.623279 0)
(10.7316 0.569271 -7.91421e-18)
(10.6063 0.517735 1.34064e-17)
(10.2803 0.453585 -4.98323e-18)
(9.24198 0.366213 -9.05434e-18)
(9.63536 0.375919 2.99734e-24)
(10.5684 0.460569 2.24907e-18)
(10.8206 0.533248 -6.16029e-18)
(10.8992 0.591388 3.70819e-18)
(10.9006 0.649 6.60482e-18)
(11.0266 0.683966 -9.42482e-18)
(11.0546 0.628467 7.00424e-18)
(11.0117 0.572746 -2.87308e-18)
(10.8115 0.507114 2.05388e-18)
(9.96706 0.42546 5.76828e-18)
(10.2489 0.462236 9.07857e-19)
(11.0231 0.541366 -1.92003e-18)
(11.1842 0.611572 1.83512e-24)
(11.1977 0.668607 -3.37561e-18)
(11.1465 0.723337 1.57644e-18)
(11.2607 0.760525 1.48963e-18)
(11.3297 0.711122 -4.11221e-19)
(11.3403 0.659736 -2.60342e-18)
(11.2126 0.596189 -1.82826e-18)
(10.4929 0.520535 8.65945e-19)
(10.7105 0.565147 3.33492e-18)
(11.3863 0.636999 0)
(11.4823 0.707206 0)
(11.4491 0.759078 3.98655e-19)
(11.3601 0.806987 3.05815e-18)
(11.4527 0.858343 0)
(11.5601 0.8148 0)
(11.6141 0.768197 -1.60691e-18)
(11.5446 0.702893 4.9901e-18)
(10.9036 0.640474 -3.24902e-18)
(11.0793 0.712444 3.15258e-18)
(11.69 0.760911 -1.60892e-18)
(11.7353 0.831889 7.76592e-19)
(11.6597 0.874355 7.39594e-19)
(11.5311 0.914092 -2.7921e-18)
(11.5983 0.980642 0)
(11.7475 0.948979 -1.08162e-18)
(11.8452 0.914057 1.51519e-18)
(11.8267 0.841009 3.13041e-18)
(11.2557 0.822206 -3.09134e-23)
(11.3122 0.967924 6.24521e-18)
(11.904 0.963792 -3.0662e-18)
(11.9178 1.01068 0)
(11.8111 1.03025 -3.59347e-19)
(11.6545 1.0489 -2.76148e-18)
(11.6863 1.09306 -6.98716e-19)
(11.8467 1.08387 -1.06603e-18)
(11.9597 1.0739 -7.25395e-19)
(11.953 1.03211 3.74998e-18)
(11.3438 1.02474 5.93639e-18)
(11.4348 1.0512 -1.42209e-17)
(12.0162 1.0608 -3.65502e-18)
(11.9992 1.11559 2.11819e-18)
(11.8716 1.1252 3.43934e-19)
(11.698 1.13239 3.34353e-19)
(11.7099 1.16037 1.30104e-18)
(11.8975 1.1568 -1.68199e-18)
(12.0414 1.15046 0)
(12.0857 1.09227 0)
(11.5554 1.09842 0)
(11.6718 1.13214 0)
(12.149 1.12163 -2.84829e-18)
(12.0797 1.17845 6.1773e-18)
(11.9204 1.18013 -2.28917e-18)
(11.7197 1.18053 -1.27461e-18)
(11.7209 1.19338 1.19001e-18)
(11.9387 1.19535 0)
(12.1139 1.20019 2.04369e-18)
(12.2054 1.14128 -1.44894e-18)
(11.7919 1.15229 1.93024e-17)
(11.9048 1.18409 4.08316e-22)
(12.2563 1.16337 1.52451e-18)
(12.1481 1.22563 -2.838e-18)
(11.9597 1.21404 -9.99244e-18)
(11.7243 1.20742 7.75161e-18)
(11.8046 1.22349 2.959e-17)
(12.0111 1.23401 -6.8116e-18)
(12.1923 1.25097 -3.37137e-18)
(12.31 1.17941 0)
(11.9992 1.22068 -2.38563e-17)
(12.0614 1.25505 6.27801e-18)
(12.3588 1.19157 -7.49164e-18)
(12.2369 1.26154 -3.88516e-18)
(12.0624 1.23877 -5.31495e-18)
(11.8672 1.23256 5.92558e-18)
(11.8442 1.22917 -4.62533e-19)
(12.0645 1.24256 -2.90256e-18)
(12.2553 1.26917 8.68169e-18)
(12.3885 1.20514 -2.87971e-18)
(12.1221 1.27992 3.27785e-18)
(12.2132 1.30495 3.34486e-18)
(12.4153 1.21911 -1.95603e-18)
(12.2622 1.27724 -9.45929e-19)
(12.0586 1.24811 0)
(11.8267 1.22808 -8.43599e-19)
(11.8046 1.2275 -8.12125e-19)
(12.0486 1.25327 -3.48842e-18)
(12.2615 1.28894 3.75471e-18)
(12.4309 1.24068 -1.00475e-18)
(12.2922 1.33239 8.31656e-23)
(12.3511 1.36344 3.18834e-17)
(12.4287 1.25463 -2.0175e-18)
(12.2579 1.29934 7.4554e-18)