/*--------------------------------*- C++ -*----------------------------------*\
| =========                 |                                                 |
| \\      /  F ield         | OpenFOAM: The Open Source CFD Toolbox           |
|  \\    /   O peration     | Version:  v2006                                 |
|   \\  /    A nd           | Website:  www.openfoam.com                      |
|    \\/     M anipulation  |                                                 |
\*---------------------------------------------------------------------------*/
FoamFile
{
    version     2.0;
    format      ascii;
    class       volScalarField;
    location    "0.027";
    object      isentropic(p);
}
// * * * * * * * * * * * * * * * * * * * * * * * * * * * * * * * * * * * * * //

dimensions      [1 -1 -2 0 0 0 0];


internalField   nonuniform List<scalar> 
16277
(
150006
150015
150018
150001
150012
150010
150011
150012
150013
150013
150012
150012
150011
150011
150011
150010
150010
150010
150010
150010
150010
150010
150010
150009
150009
150009
150009
150009
150009
150009
150009
150009
150008
150008
150008
150008
150008
150008
150008
150008
150007
150007
150007
150007
150007
150007
150007
150007
150006
150006
150006
150006
150006
150006
150006
150006
150005
150005
150005
150005
150005
150005
150005
150005
150005
150004
150004
150004
150004
150004
150004
150004
150004
150004
150004
150003
150003
150003
150003
150002
150002
150001
150001
150000
150001
150003
150004
150005
150004
150006
150005
150007
150008
150011
150017
150015
149976
149936
150011
150022
150021
150002
149898
149860
149993
150018
150013
149981
149826
149796
149971
150009
150002
149959
149768
149745
149949
149997
149991
149938
149722
149703
149929
149986
149980
149919
149685
149669
149911
149975
149969
149901
149654
149641
149894
149964
149958
149885
149628
149617
149878
149954
149948
149869
149606
149596
149863
149944
149938
149855
149586
149578
149849
149935
149929
149842
149569
149562
149837
149926
149920
149829
149554
149548
149825
149917
149912
149818
149541
149536
149814
149909
149904
149808
149529
149525
149804
149902
149897
149798
149519
149515
149795
149895
149890
149789
149510
149506
149786
149888
149883
149781
149501
149498
149778
149882
149877
149773
149494
149491
149771
149876
149871
149765
149488
149485
149763
149870
149866
149759
149482
149480
149757
149864
149861
149752
149477
149476
149751
149859
149856
149746
149473
149472
149745
149854
149851
149741
149469
149469
149740
149850
149846
149736
149466
149466
149735
149845
149842
149731
149464
149464
149730
149841
149838
149727
149463
149463
149726
149837
149834
149722
149462
149462
149722
149834
149830
149719
149461
149462
149719
149830
149827
149715
149461
149462
149715
149827
149824
149712
149462
149463
149712
149823
149820
149710
149463
149464
149710
149820
149817
149707
149464
149466
149707
149817
149815
149705
149466
149468
149705
149814
149812
149703
149469
149471
149703
149812
149809
149701
149472
149474
149702
149809
149807
149700
149475
149477
149701
149807
149805
149699
149479
149482
149700
149805
149803
149698
149483
149486
149699
149803
149801
149698
149488
149491
149699
149802
149800
149698
149493
149496
149699
149800
149798
149698
149499
149502
149700
149799
149797
149699
149505
149508
149700
149798
149797
149700
149511
149515
149702
149798
149796
149701
149518
149522
149704
149798
149797
149703
149524
149529
149706
149798
149797
149706
149532
149536
149709
149799
149798
149709
149539
149543
149712
149800
149800
149713
149546
149551
149716
149802
149802
149717
149553
149558
149720
149804
149804
149721
149561
149565
149725
149807
149808
149726
149567
149572
149730
149811
149811
149731
149574
149578
149735
149814
149815
149737
149580
149584
149741
149819
149819
149742
149585
149588
149746
149823
149823
149747
149589
149591
149751
149827
149827
149752
149591
149593
149755
149831
149831
149756
149592
149593
149759
149834
149835
149759
149592
149593
149762
149838
149838
149762
149590
149590
149764
149840
149840
149764
149588
149587
149766
149843
149842
149765
149584
149583
149767
149845
149844
149766
149579
149578
149767
149846
149845
149765
149574
149573
149766
149847
149846
149765
149568
149567
149765
149848
149847
149763
149563
149561
149764
149848
149847
149762
149556
149555
149762
149848
149846
149760
149550
149549
149760
149847
149846
149757
149544
149543
149757
149846
149845
149755
149539
149537
149755
149845
149844
149752
149533
149532
149752
149844
149842
149749
149528
149527
149749
149843
149841
149747
149523
149522
149747
149841
149839
149744
149519
149518
149744
149840
149837
149741
149514
149513
149741
149838
149836
149738
149510
149510
149738
149836
149834
149735
149507
149506
149735
149834
149832
149733
149503
149502
149733
149832
149830
149730
149500
149499
149730
149830
149828
149727
149497
149496
149727
149828
149826
149725
149494
149493
149725
149826
149824
149722
149491
149490
149722
149824
149822
149720
149488
149487
149720
149822
149820
149717
149485
149485
149717
149820
149818
149715
149482
149482
149715
149818
149816
149712
149480
149479
149712
149817
149815
149710
149477
149478
149711
149816
149814
149709
149476
149478
149712
149817
149818
149715
149483
149495
149725
149829
149865
149774
149550
149515
149696
149790
149861
149919
149952
149963
149969
149981
149986
149991
149994
149996
149997
149996
149994
149990
149987
149977
149972
149965
149957
149944
149911
149840
149701
149541
149278
149260
149524
149682
149677
149505
149233
149242
149497
149647
149660
149490
149220
149230
149492
149648
149652
149489
149222
149225
149489
149651
149652
149490
149225
149226
149491
149653
149654
149492
149227
149228
149493
149655
149656
149494
149229
149230
149495
149657
149658
149496
149230
149231
149498
149659
149661
149499
149232
149233
149500
149661
149663
149501
149234
149235
149502
149664
149665
149503
149236
149237
149504
149666
149667
149506
149238
149239
149507
149669
149669
149508
149240
149240
149509
149671
149671
149510
149242
149242
149511
149673
149673
149513
149244
149244
149514
149675
149675
149515
149246
149246
149516
149678
149678
149518
149248
149248
149519
149680
149680
149520
149250
149250
149521
149682
149682
149522
149252
149252
149523
149685
149685
149525
149254
149254
149526
149687
149687
149527
149256
149256
149528
149689
149690
149530
149258
149258
149531
149691
149692
149532
149259
149260
149533
149694
149694
149535
149262
149262
149536
149697
149697
149537
149264
149264
149538
149699
149699
149540
149266
149266
149541
149702
149702
149542
149267
149268
149544
149704
149705
149545
149269
149270
149546
149706
149709
149547
149270
149272
149549
149709
149711
149550
149272
149273
149552
149712
149714
149553
149273
149274
149554
149715
149717
149556
149275
149275
149557
149718
149720
149558
149275
149276
149560
149722
149723
149561
149277
149277
149563
149726
149727
149564
149277
149278
149566
149729
149731
149567
149278
149278
149569
149733
149736
149571
149277
149279
149573
149737
149741
149574
149277
149278
149576
149742
149746
149578
149277
149278
149581
149747
149751
149583
149277
149278
149585
149753
149757
149588
149278
149279
149591
149760
149764
149594
149279
149280
149598
149767
149771
149601
149281
149282
149605
149775
149778
149610
149284
149286
149615
149782
149787
149620
149288
149292
149625
149791
149795
149632
149297
149301
149638
149801
149806
149646
149307
149315
149654
149811
149819
149666
149327
149336
149677
149826
149834
149689
149350
149366
149698
149840
149847
149711
149381
149398
149721
149854
149860
149731
149415
149435
149742
149867
149873
149754
149457
149478
149766
149879
149885
149776
149496
149514
149785
149892
149899
149793
149533
149575
149815
149895
149941
149824
149552
149292
149674
149784
149887
149721
149377
149397
149747
149901
149890
149763
149434
149473
149775
149876
149903
149786
149483
149489
149792
149932
149924
149817
149543
149584
149830
149909
149951
149840
149583
149639
149859
149927
149936
149877
149678
149633
149883
150016
149857
149797
149444
149530
149817
149980
149989
149851
149577
149663
149881
149930
149991
149885
149641
149692
149902
149970
149987
149914
149709
149745
149934
149993
150007
149943
149750
149605
149797
149955
150016
149896
149643
149700
149922
150003
149992
149940
149745
149759
149945
150009
150009
149966
149801
149817
149981
150037
149952
149941
149653
149759
149943
150025
150023
149979
149819
149834
149988
150041
150049
150011
149870
149887
150020
150062
149991
149998
149740
149864
150007
150057
150064
150025
149889
149924
150043
150073
150085
150058
149955
149812
150055
150036
150121
150051
149931
149982
150074
150097
150117
150096
150018
150039
150103
150112
150112
150082
149996
150066
150129
150149
150139
150139
150086
150106
150097
150167
150182
150183
150147
150185
150195
150180
150212
150217
150200
150277
150253
150219
150182
150223
150235
150279
150229
150189
150216
150262
150313
150295
150273
150234
150189
150215
150182
150036
150106
150105
150008
149954
149844
149889
149967
149978
149923
149869
149744
149804
149909
149931
149918
149856
149734
149572
149908
149824
149886
149814
149699
149638
149796
149841
149894
149852
149699
149658
149819
149882
149828
149757
149590
149660
149829
149879
149871
149802
149630
149557
149737
149817
149873
149820
149640
149614
149791
149855
149801
149723
149537
149637
149818
149869
149857
149788
149604
149519
149710
149796
149868
149817
149640
149603
149784
149853
149792
149708
149518
149632
149814
149865
149854
149786
149606
149517
149706
149792
149864
149811
149629
149600
149783
149852
149793
149708
149517
149641
149817
149864
149849
149799
149619
149471
149722
149932
149757
149756
149362
149583
149787
149877
149908
149749
149481
149482
149608
149813
149869
149800
149576
149558
149751
149833
149750
149748
149428
149590
149794
149867
149871
149759
149520
149489
149623
149796
149842
149803
149601
149591
149776
149802
149787
149625
149530
149562
149798
149884
149905
149740
149493
149391
149721
149764
149834
149799
149619
149625
149775
149782
149737
149765
149441
149576
149792
149884
149908
149733
149483
149355
149757
149746
149869
149780
149598
149513
149729
149804
149891
149827
149621
149613
149795
149845
149788
149712
149524
149629
149825
149882
149867
149792
149594
149521
149718
149805
149886
149831
149633
149600
149799
149875
149804
149711
149509
149627
149828
149885
149862
149792
149591
149512
149713
149803
149897
149831
149623
149577
149783
149893
149765
149795
149411
149621
149806
149882
149815
149746
149534
149631
149841
149897
149885
149810
149606
149522
149726
149816
149913
149840
149622
149549
149786
149929
149791
149787
149425
149616
149823
149903
149837
149746
149520
149647
149858
149921
149886
149828
149636
149540
149738
149818
149915
149852
149643
149572
149796
149925
149798
149797
149434
149624
149829
149909
149839
149753
149525
149657
149866
149919
149904
149829
149624
149527
149738
149830
149902
149852
149644
149606
149824
149880
149844
149613
149567
149594
149862
149895
149843
149744
149514
149643
149865
149922
149898
149822
149620
149461
149781
149805
149912
149837
149628
149533
149766
149849
149918
149861
149641
149599
149822
149898
149830
149694
149531
149610
149854
149909
149859
149768
149544
149653
149871
149930
149907
149829
149607
149552
149686
149841
149909
149863
149612
149532
149761
149854
149924
149866
149641
149605
149818
149900
149808
149775
149454
149639
149853
149922
149859
149775
149536
149649
149874
149924
149911
149833
149588
149568
149624
149857
149897
149901
149567
149517
149751
149853
149986
149846
149546
149412
149732
149961
150007
149875
149580
149656
149847
149871
149815
149772
149511
149624
149854
149919
149855
149769
149525
149634
149870
149926
149908
149826
149574
149555
149610
149853
149892
149898
149542
149482
149732
149844
149927
149862
149596
149514
149772
149874
149937
149874
149627
149592
149822
149907
149808
149783
149429
149592
149829
149916
149841
149750
149486
149605
149863
149917
149852
149767
149515
149621
149869
149928
149906
149820
149571
149499
149695
149835
149913
149869
149579
149486
149745
149851
149920
149860
149592
149505
149764
149859
149929
149870
149619
149577
149817
149905
149811
149751
149427
149579
149831
149915
149837
149738
149462
149587
149859
149919
149857
149764
149502
149612
149870
149931
149902
149811
149573
149360
149798
149788
149924
149793
149588
149435
149739
149827
149909
149848
149560
149462
149744
149842
149918
149854
149584
149544
149792
149887
149768
149785
149325
149581
149788
149919
149825
149728
149432
149553
149841
149907
149834
149733
149454
149560
149845
149907
149839
149744
149469
149586
149853
149913
149888
149802
149527
149488
149587
149819
149873
149869
149482
149411
149697
149817
149896
149823
149510
149423
149718
149827
149904
149836
149539
149444
149730
149836
149910
149845
149566
149521
149782
149878
149763
149756
149312
149530
149770
149895
149802
149699
149378
149502
149816
149887
149811
149703
149401
149520
149823
149889
149816
149710
149417
149549
149835
149901
149872
149773
149507
149280
149749
149752
149897
149743
149522
149352
149688
149791
149877
149806
149485
149366
149684
149797
149876
149806
149489
149385
149693
149804
149881
149815
149523
149446
149755
149852
149780
149500
149416
149390
149844
149828
149778
149647
149326
149452
149792
149865
149785
149662
149339
149455
149790
149866
149784
149666
149343
149463
149790
149865
149793
149679
149365
149486
149798
149872
149836
149727
149445
149162
149734
149699
149876
149660
149479
149258
149637
149745
149841
149761
149407
149292
149635
149757
149849
149773
149430
149309
149641
149764
149848
149772
149434
149326
149655
149773
149855
149782
149464
149401
149710
149822
149701
149640
149201
149410
149710
149836
149733
149610
149253
149386
149745
149828
149740
149614
149265
149389
149747
149829
149742
149616
149275
149410
149755
149833
149757
149636
149299
149428
149762
149840
149803
149688
149384
149097
149675
149662
149836
149636
149398
149193
149588
149709
149805
149720
149337
149197
149582
149713
149808
149727
149348
149212
149582
149715
149806
149724
149353
149243
149599
149725
149814
149735
149386
149330
149660
149782
149642
149596
149084
149337
149653
149797
149684
149553
149153
149297
149694
149784
149688
149552
149160
149314
149704
149788
149692
149554
149174
149317
149701
149786
149702
149569
149198
149343
149709
149793
149749
149622
149289
148959
149630
149595
149799
149544
149328
149075
149514
149646
149753
149655
149237
149097
149514
149654
149758
149665
149245
149106
149513
149658
149754
149662
149246
149121
149517
149660
149758
149668
149266
149141
149531
149671
149764
149677
149303
149230
149606
149731
149602
149407
149073
149197
149648
149720
149628
149467
149060
149204
149640
149730
149631
149476
149066
149214
149638
149732
149633
149484
149082
149224
149637
149732
149643
149501
149102
149257
149650
149741
149704
149568
149186
148948
149456
149556
149709
149559
149176
148978
149433
149586
149702
149603
149152
148991
149438
149595
149699
149603
149153
149014
149444
149598
149700
149604
149165
149030
149456
149606
149700
149605
149189
149102
149526
149664
149530
149308
148953
149068
149570
149651
149552
149375
148926
149086
149564
149666
149558
149388
148937
149109
149571
149672
149563
149400
148952
149117
149571
149671
149575
149418
148977
149155
149583
149679
149644
149497
149073
148820
149342
149481
149643
149485
149066
148834
149341
149505
149626
149506
149014
148849
149339
149511
149627
149516
149025
148872
149346
149516
149632
149524
149046
148886
149360
149527
149639
149538
149081
148998
149452
149606
149434
149260
148749
148977
149465
149595
149475
149294
148779
148977
149487
149602
149485
149308
148803
149004
149498
149603
149479
149302
148801
148987
149480
149591
149547
149376
148903
148562
149295
149362
149564
149358
148906
148660
149229
149413
149550
149421
148871
148676
149233
149421
149556
149434
148895
148712
149248
149437
149560
149450
148945
148824
149355
149525
149352
149040
148656
148779
149416
149487
149386
149170
148614
148805
149394
149508
149358
149146
148586
148797
149369
149497
149377
149177
148614
148835
149386
149510
149457
149262
148734
148340
149200
149248
149479
149234
148756
148458
149094
149302
149461
149325
148719
148501
149112
149324
149473
149338
148737
148528
149130
149338
149474
149352
148780
148683
149252
149440
149213
149059
148328
148604
149209
149407
149227
149005
148334
148611
149257
149401
149259
149033
148390
148631
149273
149416
149279
149056
148423
148673
149285
149421
149378
149168
148558
148209
148944
149146
149370
149174
148570
148282
148976
149205
149370
149216
148559
148317
149000
149223
149381
149248
148613
148523
149142
149345
149050
148899
148005
148410
149066
149283
149102
148855
148129
148420
149129
149294
149142
148888
148178
148454
149159
149315
149164
148919
148220
148500
149173
149326
149281
149057
148369
148072
148719
149034
149238
149102
148347
148102
148817
149096
149268
149125
148377
148136
148857
149118
149268
149146
148490
148219
148938
149180
148920
148622
147887
148209
148977
149154
148999
148724
147947
148239
149022
149195
149036
148767
147987
148296
149050
149216
149169
148916
148144
147801
148571
148893
149125
148932
148147
147853
148674
148970
149165
148996
148214
148055
148870
149132
148827
148493
147677
147982
148837
149032
148794
148468
147592
147919
148807
149018
148847
148537
147660
148011
148864
149056
149008
148711
147855
147432
148376
148699
148982
148743
147867
147523
148473
148800
149023
148829
147944
147741
148679
148978
148634
148264
147314
147768
148685
148920
148765
148430
147446
147792
148720
148920
148793
148456
147463
147042
148033
148463
148776
148540
147516
147165
148211
148585
148842
148622
147631
147433
148451
148797
148419
148048
146921
147445
148465
148756
148539
148165
147051
147549
148574
148801
148755
148406
147308
146823
147925
148364
148676
148393
147486
146761
147945
148338
148607
148337
147241
147002
148161
148518
148190
147655
146612
147068
148281
148535
148327
147882
146699
147208
148368
148610
148568
148168
147008
146421
147675
148129
148500
148188
147059
146613
147875
148294
148538
148344
147291
147001
148163
148510
147929
147397
146128
146739
147970
148290
148216
147797
146478
146039
147264
147872
148250
147981
146585
146149
147508
148014
148350
148091
146777
146542
147874
148313
147835
147292
145915
146635
147920
148218
148275
147876
146452
145704
147047
147709
147970
147542
146034
145689
147299
147838
147397
146697
145174
145930
147504
147889
147620
147039
145430
146216
147697
148031
148011
147509
145968
145297
146843
147475
147892
147568
146155
145993
147550
147985
147322
146601
145067
145422
147102
147582
147431
146820
145049
144486
146282
146988
147534
147116
145442
145154
146940
147529
147027
146281
144476
145466
147148
147532
147601
147021
145209
144513
146341
147019
147258
146802
145046
144295
146366
147040
146781
145988
143827
143064
145449
146279
146978
146459
144403
144037
146332
147007
146472
145475
143342
144650
146597
146988
147271
146741
144661
142978
145547
146481
145582
144502
141861
143358
145727
146359
146365
145586
142967
142591
145241
146269
145599
144735
141535
143667
145844
146378
146576
145896
143190
141291
144439
145616
144669
143495
140148
142330
145020
145730
145796
144954
141865
141612
144812
145891
145887
145051
141324
138781
142040
144181
145012
143779
140334
139993
143674
144974
144932
143564
139454
139389
143836
145173
144781
142962
137727
136399
141906
143948
142904
140293
135561
139386
143278
144456
144450
142991
138599
137374
142355
144111
143720
141917
136617
136221
141710
143507
143361
141261
135353
134918
141018
143259
143241
140866
134640
134360
140681
143215
143150
140455
134075
133817
140219
143062
142964
139989
133595
133409
139767
142860
142750
139553
133249
133112
139347
142635
142518
139150
132999
132904
138962
142396
142275
138785
132827
132767
138620
142152
142031
138467
132721
132687
138323
141908
141787
138190
132663
132648
138067
141666
141547
137953
132641
132642
137848
141428
141312
137752
132651
132664
137664
141196
141084
137583
132684
132707
137510
140973
140865
137444
132734
132765
137383
140760
140658
137329
132798
132833
137280
140559
140464
137237
132871
132911
137198
140370
140282
137164
132952
132994
137133
140195
140114
137106
133037
133080
137082
140036
139962
137061
133123
133166
137043
139891
139825
137027
133210
133252
137013
139761
139701
137001
133295
133336
136991
139644
139591
136982
133377
133417
136975
139540
139493
136969
133457
133495
136964
139448
139407
136960
133534
133570
136956
139368
139332
136954
133606
133641
136952
139297
139267
136952
133675
133707
136952
139237
139211
136952
133738
133768
136953
139185
139162
136955
133797
133824
136957
139140
139121
136960
133851
133876
136963
139102
139086
136966
133900
133923
136970
139070
139057
136974
133946
133966
136978
139043
139031
136982
133987
134006
136987
139020
139010
136992
134025
134042
136996
139000
138992
137001
134060
134075
137006
138983
138977
137011
134091
134106
137016
138969
138964
137021
134120
134134
137026
138957
138953
137031
134147
134159
137035
138947
138943
137040
134171
134182
137044
138938
138935
137049
134193
134203
137053
138931
138928
137057
134213
134222
137061
138924
138922
137066
134232
134240
137069
138918
138916
137073
134248
134256
137077
138913
138912
137081
134264
134271
137084
138909
138908
137088
134278
134284
137091
138906
138905
137095
134291
134297
137098
138903
138902
137102
134303
134308
137105
138901
138901
137108
134314
134319
137111
138899
138899
137115
134324
134329
137118
138898
138898
137121
134334
134339
137124
138897
138898
137128
134344
134348
137131
138897
138898
137134
134353
134357
137137
138897
138898
137140
134361
134365
137143
138898
138899
137147
134370
134374
137150
138899
138900
137153
134378
134382
137156
138900
138902
137160
134386
134390
137163
138902
138904
137167
134394
134398
137170
138904
138906
137174
134402
134406
137177
138906
138909
137180
134410
134414
137184
138909
138912
137188
134418
134422
137191
138912
138915
137195
134426
134429
137198
138916
138919
137202
134434
134437
137205
138919
138923
137209
134441
134445
137212
138924
138927
137217
134449
134453
137220
138928
138932
137224
134457
134460
137228
138933
138937
137232
134464
134468
137235
138938
138942
137239
134472
134475
137243
138943
138947
137247
134479
134483
137251
138949
138953
137255
134487
134490
137259
138955
138959
137263
134494
134498
137267
138961
138965
137271
134502
134505
137275
138967
138972
137279
134509
134513
137283
138973
138978
137287
134516
134520
137291
138980
138985
137296
134524
134527
137300
138987
138992
137304
134531
134534
137308
138994
138999
137312
134538
134541
137316
139001
139006
137321
134545
134548
137325
139008
139013
137329
134552
134555
137333
139016
139021
137337
134558
134562
137341
139023
139028
137346
134565
134568
137350
139031
139036
137354
134572
134575
137358
139038
139044
137362
134578
134581
137366
139046
139051
137370
134584
134587
137374
139054
139059
137379
134591
134594
137382
139061
139067
137387
134597
134600
137391
139069
139075
137395
134603
134606
137399
139077
139082
137403
134609
134611
137407
139085
139090
137411
134614
134617
137415
139093
139098
137419
134620
134623
137423
139101
139106
137427
134625
134628
137431
139108
139114
137435
134631
134633
137438
139116
139122
137443
134636
134638
137446
139124
139130
137450
134641
134643
137454
139132
139138
137458
134646
134648
137461
139140
139145
137465
134650
134652
137468
139147
139153
137472
134654
134656
137476
139155
139160
137479
134658
134660
137482
139162
139168
137486
134662
134664
137489
139170
139175
137493
134666
134667
137496
139177
139183
137500
134669
134671
137502
139185
139191
137507
134675
134678
137511
139194
139197
137515
134681
134682
137513
139195
139182
137503
134680
134673
137486
139165
139209
137507
134687
134762
137604
139361
139454
137677
134820
142064
144701
146379
146751
146901
147557
147894
148040
148185
148599
148869
149152
149363
149519
149635
149718
149778
149821
149852
149875
149892
149906
149916
149925
149932
149937
149941
149945
149947
149949
149950
149951
149951
149948
149950
149957
149962
149970
149978
149989
149999
150011
150021
150031
150036
150037
150036
150034
150031
150029
150027
150025
150024
150022
150020
150018
150016
150014
150012
150010
150008
150006
150005
150003
150002
150001
150000
150000
150000
150001
150002
150003
150006
150008
150012
150016
150020
150025
150031
150037
150043
150049
150055
150062
150068
150074
150079
150084
150088
150091
150094
150096
150097
150097
150097
150096
150095
150093
150090
150087
150084
150080
150076
150072
150068
150064
150060
150055
150051
150047
150043
150039
150035
150031
150028
150024
150021
150018
150015
150012
150009
150006
150004
150001
149999
149997
149995
149993
149992
149990
149989
149987
149986
149985
149984
149983
149982
149981
149980
149979
149979
149978
149978
149977
149977
149977
149976
149976
149976
149976
149976
149976
149976
149976
149976
149976
149976
149976
149976
149976
149977
149977
149977
149977
149978
149978
149978
149979
149979
149980
149980
149981
149981
149982
149982
149983
149983
149984
149984
149985
149986
149986
149987
149987
149988
149989
149989
149990
149991
149992
149992
149993
149994
149994
149995
149996
149997
149998
149999
149999
150000
150002
150005
150011
150015
150017
150016
150018
150003
150011
150012
150021
150028
150029
150029
150028
150026
150024
150023
150022
150021
150020
150019
150018
150017
150017
150016
150015
150015
150014
150014
150013
150013
150013
150012
150012
150012
150011
150011
150011
150011
150010
150010
150010
150010
150009
150009
150009
150009
150008
150008
150008
150007
150007
150007
150007
150006
150006
150006
150006
150006
150005
150005
150005
150005
150004
150004
150004
150004
150003
150003
150003
150003
150002
150002
150002
150001
150001
150001
150000
150000
149999
149999
149998
149997
149996
149994
149994
149995
149997
149999
150001
150004
150010
150019
150025
150024
150021
150019
150016
150014
150011
150008
150005
150003
150000
149998
149995
149993
149990
149989
149986
149984
149981
149980
149977
149976
149972
149972
149968
149968
149964
149964
149961
149960
149957
149957
149954
149954
149951
149950
149947
149947
149944
149944
149941
149942
149938
149939
149936
149936
149933
149933
149930
149931
149928
149928
149925
149926
149923
149923
149921
149921
149918
149919
149916
149916
149914
149914
149911
149912
149909
149910
149907
149908
149905
149906
149903
149904
149901
149902
149899
149900
149898
149899
149896
149897
149895
149896
149894
149895
149893
149894
149892
149894
149892
149894
149892
149895
149893
149895
149894
149896
149895
149898
149897
149900
149898
149902
149901
149904
149903
149907
149905
149909
149908
149911
149910
149914
149912
149916
149914
149918
149916
149920
149918
149921
149920
149923
149921
149924
149922
149924
149922
149925
149923
149925
149923
149925
149923
149925
149923
149924
149922
149924
149921
149923
149921
149922
149920
149921
149919
149920
149918
149919
149917
149918
149916
149917
149915
149916
149914
149915
149913
149914
149912
149913
149910
149911
149909
149910
149908
149909
149907
149909
149907
149912
149920
149929
149953
149952
149950
149963
149946
149949
149962
149946
149950
149963
149947
149950
149964
149947
149951
149965
149948
149952
149966
149949
149953
149967
149950
149954
149967
149951
149955
149968
149952
149956
149969
149953
149956
149970
149953
149957
149971
149954
149958
149972
149955
149959
149972
149956
149959
149973
149956
149960
149973
149957
149961
149974
149957
149961
149974
149958
149961
149975
149958
149962
149975
149958
149962
149975
149958
149962
149975
149957
149962
149975
149957
149961
149975
149956
149960
149974
149955
149959
149974
149954
149958
149973
149953
149957
149972
149951
149955
149970
149949
149953
149969
149947
149951
149967
149946
149950
149966
149944
149948
149965
149942
149946
149964
149941
149945
149964
149940
149944
149964
149939
149943
149963
149939
149943
149963
149939
149943
149964
149939
149944
149965
149939
149944
149966
149940
149945
149967
149941
149946
149968
149942
149948
149969
149943
149949
149971
149944
149950
149972
149946
149952
149973
149947
149953
149975
149949
149955
149976
149950
149957
149978
149952
149958
149979
149953
149960
149980
149955
149961
149981
149957
149963
149983
149958
149964
149984
149960
149966
149985
149961
149967
149986
149963
149968
149988
149964
149970
149989
149966
149971
149990
149967
149973
149991
149969
149974
149992
149971
149976
149993
149972
149977
149994
149974
149979
149995
149975
149980
149996
149977
149982
149997
149979
149983
149998
149981
149985
150000
149982
149987
150001
149984
149988
150002
149986
149990
150003
149988
149992
150004
149990
149994
150005
149993
149996
150007
149995
149998
150008
149997
150000
150009
150000
150003
150011
150002
150005
150012
150005
150007
150013
150008
150010
150015
150011
150013
150016
150014
150016
150018
150017
150019
150019
150020
150022
150020
150023
150013
150015
150015
150015
150015
150015
150014
150014
150014
150013
150013
150013
150013
150013
150012
150012
150012
150012
150012
150012
150011
150011
150011
150011
150010
150010
150010
150009
150009
150008
150008
150007
150007
150006
150005
150004
150003
150002
150001
150000
149998
149997
149996
149994
149993
149992
149992
149991
149992
149995
149996
149997
149999
150001
150004
150006
150008
150009
150010
150010
150010
150009
150008
150007
150006
150005
150003
150002
150001
150000
149999
149997
149996
149995
149994
149993
149992
149991
149990
149989
149988
149987
149986
149985
149985
149983
149966
149963
149963
149968
149982
149986
149986
149993
149992
149994
149994
149994
149995
149996
149997
149998
149999
150000
150001
150002
150003
150004
150005
150006
150007
150008
150012
150011
150010
150009
150007
150006
150005
150004
150004
150003
150002
150001
150000
149999
149998
149997
149996
149997
149997
149996
149996
149995
149995
149997
149998
149999
149992
149991
149990
149991
149990
149987
149988
149973
149975
149969
149969
149970
149970
149972
149973
149993