/*--------------------------------*- C++ -*----------------------------------*\
| =========                 |                                                 |
| \\      /  F ield         | OpenFOAM: The Open Source CFD Toolbox           |
|  \\    /   O peration     | Version:  v2006                                 |
|   \\  /    A nd           | Website:  www.openfoam.com                      |
|    \\/     M anipulation  |                                                 |
\*---------------------------------------------------------------------------*/
FoamFile
{
    version     2.0;
    format      ascii;
    class       volScalarField;
    location    "0.027";
    object      Ma;
}
// * * * * * * * * * * * * * * * * * * * * * * * * * * * * * * * * * * * * * //

dimensions      [0 0 0 0 0 0 0];


internalField   nonuniform List<scalar> 
16277
(
0.139345
0.139346
0.13934
0.139344
0.139343
0.139335
0.139314
0.139259
0.139144
0.138974
0.138766
0.138541
0.138309
0.138076
0.137841
0.1376
0.137352
0.137095
0.136826
0.136547
0.136256
0.135953
0.13564
0.135316
0.134982
0.134637
0.134281
0.133915
0.133539
0.133153
0.132758
0.132353
0.131939
0.131517
0.131086
0.130647
0.130201
0.129747
0.129287
0.12882
0.128347
0.127869
0.127386
0.126899
0.126407
0.125912
0.125414
0.124914
0.124412
0.123909
0.123405
0.122901
0.122397
0.121894
0.121393
0.120894
0.120398
0.119906
0.119417
0.118933
0.118454
0.117982
0.117516
0.117056
0.116605
0.116162
0.115728
0.115303
0.114888
0.114484
0.114091
0.113709
0.11334
0.112983
0.11264
0.11231
0.111993
0.111688
0.111392
0.111101
0.110814
0.110537
0.110294
0.110122
0.110047
0.110045
0.110074
0.110109
0.110137
0.110134
0.110113
0.110043
0.109865
0.109567
0.109083
0.108526
0.106477
0.105163
0.108551
0.109219
0.109289
0.108403
0.103679
0.102212
0.108226
0.109353
0.109345
0.107956
0.100863
0.0996193
0.10767
0.109304
0.109191
0.1073
0.0984587
0.0974098
0.106964
0.109072
0.1089
0.106581
0.0964177
0.0955482
0.10625
0.108747
0.108541
0.105849
0.0947062
0.0939543
0.105512
0.108355
0.108118
0.105102
0.0932129
0.0925433
0.104763
0.107912
0.107657
0.104353
0.0918785
0.0912769
0.104022
0.107441
0.107165
0.103607
0.090662
0.090103
0.103274
0.106935
0.106643
0.102856
0.0895268
0.0890046
0.102527
0.106404
0.106105
0.102113
0.0884651
0.0879726
0.101789
0.105861
0.105553
0.101375
0.0874586
0.0869879
0.101052
0.105301
0.104985
0.100638
0.0864933
0.0860395
0.100316
0.104727
0.104402
0.0998999
0.0855601
0.0851194
0.0995786
0.104138
0.103805
0.0991596
0.0846514
0.0842203
0.0988367
0.103534
0.103191
0.098414
0.0837607
0.0833365
0.0980883
0.102913
0.102561
0.0976612
0.0828829
0.0824634
0.0973316
0.102276
0.101914
0.0968994
0.0820138
0.0815973
0.0965651
0.10162
0.101249
0.0961271
0.0811501
0.0807348
0.0957871
0.100946
0.100565
0.0953424
0.0802885
0.0798731
0.0949956
0.100252
0.0998594
0.0945435
0.0794262
0.0790096
0.0941892
0.099537
0.099133
0.0937292
0.0785613
0.0781421
0.0933668
0.0987998
0.0983836
0.0928979
0.0776909
0.0772681
0.0925265
0.0980392
0.0976103
0.0920479
0.076813
0.0763855
0.0916668
0.0972539
0.0968118
0.0911777
0.0759254
0.0754922
0.0907859
0.0964427
0.0959866
0.0902856
0.0750261
0.0745861
0.0898823
0.095604
0.0951333
0.0893698
0.0741129
0.0736652
0.0889542
0.0947367
0.0942508
0.0884289
0.0731839
0.0727276
0.0880001
0.0938393
0.0933376
0.0874614
0.0722375
0.0717717
0.0870187
0.0929107
0.0923926
0.0864659
0.071272
0.0707961
0.0860087
0.0919497
0.0914148
0.0854413
0.0702861
0.0697995
0.0849691
0.0909555
0.0904034
0.0843867
0.0692788
0.0687812
0.0838992
0.0899274
0.089358
0.0833017
0.0682496
0.0677411
0.0827988
0.0888652
0.0882787
0.0821865
0.0671988
0.0666799
0.0816686
0.0877694
0.0871663
0.081042
0.0661277
0.0655992
0.08051
0.0866412
0.0860226
0.0798704
0.0650381
0.0645016
0.0793256
0.085483
0.0848505
0.0786747
0.0639333
0.0633908
0.0781192
0.0842982
0.083654
0.0774596
0.0628178
0.0622724
0.0768962
0.0830918
0.0824391
0.0762312
0.0616981
0.0611537
0.0756639
0.0818705
0.0812134
0.0749981
0.0605827
0.0600445
0.0744321
0.0806432
0.0799872
0.0737712
0.0594825
0.0589571
0.0732132
0.0794213
0.0787733
0.0725647
0.0584116
0.0579073
0.0720228
0.0782196
0.0775882
0.0713958
0.0573874
0.0569145
0.0708803
0.0770563
0.0764521
0.0702862
0.0564312
0.0560019
0.0698095
0.0759536
0.0753893
0.0692616
0.0555684
0.0551967
0.0688381
0.0749379
0.0744277
0.0683515
0.0548277
0.054532
0.0679958
0.0740385
0.0735989
0.0675882
0.0542428
0.054054
0.0673166
0.0732861
0.0729348
0.067006
0.0538561
0.0537871
0.0668399
0.0727221
0.0724714
0.0666406
0.0536902
0.0537526
0.0665941
0.072373
0.0722343
0.0665167
0.0537646
0.0539621
0.0665969
0.0722583
0.0722398
0.066648
0.0540863
0.0544038
0.0668457
0.0723789
0.0724714
0.0670118
0.0546348
0.0550925
0.0673491
0.072748
0.0729706
0.0676506
0.0554569
0.0560377
0.0681225
0.0733827
0.073725
0.0685421
0.0565029
0.0571493
0.0691024
0.0742282
0.0746537
0.0695995
0.0576683
0.0583517
0.0702222
0.0752258
0.0757109
0.0707708
0.0588969
0.059594
0.071431
0.0763297
0.076855
0.0720098
0.0601447
0.0608372
0.0726878
0.0775017
0.0780485
0.0732769
0.0613756
0.0620466
0.0739535
0.0787045
0.0792548
0.0745351
0.0625556
0.0631907
0.0751936
0.0799031
0.0804407
0.0757515
0.0636567
0.0642444
0.0763779
0.0810668
0.0815782
0.0768991
0.0646575
0.0651893
0.0774825
0.0821699
0.0826439
0.0779565
0.0655423
0.0660131
0.0784882
0.0831917
0.0836196
0.0789059
0.0663044
0.0667116
0.0793805
0.0841167
0.0844909
0.0797355
0.0669454
0.0672857
0.0801513
0.0849333
0.0852533
0.0804458
0.0674626
0.0677384
0.0808027
0.0856399
0.085906
0.081038
0.0678616
0.0680779
0.0813383
0.0862375
0.0864515
0.0815178
0.0681527
0.0683163
0.0817658
0.0867311
0.086897
0.0818948
0.0683494
0.0684689
0.0820965
0.08713
0.0872532
0.0821817
0.0684679
0.0685521
0.082344
0.0874458
0.0875323
0.0823922
0.0685245
0.0685814
0.0825218
0.0876909
0.0877466
0.0825398
0.0685336
0.0685702
0.0826428
0.087877
0.0879073
0.0826364
0.0685077
0.0685295
0.0827184
0.088015
0.0880248
0.0826929
0.0684565
0.0684673
0.0827579
0.0881136
0.0881068
0.0827174
0.0683869
0.0683911
0.0827702
0.0881816
0.0881619
0.0827185
0.0683062
0.0683058
0.0827618
0.0882254
0.0881957
0.082702
0.068218
0.0682145
0.0827379
0.0882503
0.0882127
0.0826719
0.068125
0.0681206
0.0827029
0.088261
0.0882171
0.0826323
0.0680307
0.068026
0.0826596
0.0882603
0.0882116
0.0825855
0.0679359
0.0679316
0.0826103
0.0882511
0.0881986
0.0825337
0.0678417
0.067838
0.0825568
0.0882355
0.0881803
0.0824786
0.0677486
0.067746
0.0825009
0.0882154
0.0881584
0.0824219
0.0676574
0.0676562
0.0824441
0.0881927
0.0881347
0.0823651
0.0675688
0.0675699
0.0823883
0.0881691
0.0881114
0.0823106
0.0674851
0.0674897
0.0823364
0.088148
0.0880921
0.0822614
0.0674085
0.0674187
0.0822937
0.0881463
0.088106
0.0822322
0.067337
0.0674361
0.0823055
0.0881901
0.0881759
0.0823134
0.0674161
0.0676394
0.0825229
0.0883664
0.0885301
0.0827609
0.0680619
0.0688937
0.0833258
0.0890548
0.0905926
0.0856172
0.0721995
0.0714938
0.0828914
0.0880866
0.0914906
0.0939956
0.0954464
0.0959457
0.0962516
0.0968565
0.0970994
0.0973673
0.0974883
0.0975924
0.0976163
0.0975866
0.0975141
0.0973218
0.0971219
0.0966188
0.0963324
0.0960118
0.0956178
0.0949427
0.0932166
0.0894849
0.0816562
0.0716843
0.0511304
0.0495255
0.07066
0.0808609
0.0800008
0.069701
0.0482611
0.0474614
0.0690626
0.0794651
0.079208
0.0687965
0.0468446
0.0467722
0.0686777
0.079096
0.0789922
0.0685676
0.0464392
0.0464319
0.0684988
0.0789978
0.079011
0.0685109
0.0464473
0.0464757
0.068536
0.079034
0.0790618
0.0685715
0.0465173
0.0465628
0.0686147
0.0790974
0.0791302
0.0686578
0.0466104
0.0466626
0.0687072
0.0791714
0.0792111
0.0687567
0.046718
0.0467743
0.0688096
0.0792546
0.0792945
0.0688608
0.0468293
0.0468878
0.0689156
0.0793402
0.0793837
0.0689703
0.0469478
0.0470097
0.0690273
0.0794305
0.0794749
0.0690828
0.0470697
0.0471315
0.0691403
0.0795221
0.0795685
0.0691981
0.0471947
0.0472593
0.0692578
0.0796173
0.0796641
0.069316
0.0473225
0.047388
0.0693761
0.0797132
0.0797621
0.069437
0.0474547
0.0475216
0.0694986
0.0798129
0.0798613
0.0695588
0.0475874
0.0476554
0.0696208
0.0799121
0.0799628
0.0696838
0.0477245
0.0477937
0.0697473
0.0800152
0.0800654
0.0698094
0.0478619
0.0479322
0.0698733
0.0801179
0.0801705
0.0699382
0.0480034
0.0480746
0.0700035
0.0802247
0.0802769
0.0700677
0.0481448
0.0482172
0.0701338
0.080332
0.0803868
0.0702011
0.0482904
0.0483645
0.0702685
0.0804436
0.0804979
0.070335
0.0484365
0.0485104
0.0704035
0.080556
0.0806138
0.0704733
0.0485856
0.0486613
0.0705432
0.0806739
0.0807304
0.0706114
0.0487347
0.0488096
0.0706826
0.0807916
0.0808524
0.070754
0.048884
0.0489602
0.0708264
0.0809153
0.0809764
0.0708977
0.0490337
0.0491086
0.0709713
0.0810415
0.081107
0.0710461
0.049183
0.0492587
0.071122
0.0811756
0.0812422
0.0711975
0.0493318
0.0494049
0.0712751
0.0813141
0.0813849
0.0713539
0.0494781
0.0495513
0.0714346
0.0814612
0.0815349
0.0715149
0.0496227
0.0496942
0.0715999
0.0816167
0.0816971
0.0716851
0.0497648
0.0498347
0.0717735
0.0817838
0.0818687
0.0718613
0.0499015
0.0499692
0.0719549
0.0819618
0.0820565
0.0720498
0.0500341
0.0500975
0.0721474
0.0821562
0.0822572
0.0722471
0.0501588
0.0502208
0.0723531
0.0823666
0.0824794
0.0724617
0.0502785
0.0503348
0.0725744
0.0825984
0.0827201
0.0726915
0.0503903
0.0504448
0.0728161
0.0828526
0.0829905
0.0729472
0.0505001
0.0505557
0.0730858
0.0831386
0.0832893
0.0732305
0.0506126
0.0506703
0.073386
0.0834548
0.0836247
0.07355
0.0507331
0.0508
0.0737269
0.0838093
0.0839993
0.0739128
0.0508742
0.0509575
0.0741159
0.0842056
0.0844212
0.0743327
0.0510552
0.0511713
0.07457
0.0846533
0.0848976
0.0748237
0.0513061
0.051469
0.0751018
0.0851597
0.085436
0.0754023
0.0516629
0.0518942
0.0757311
0.0857311
0.0860431
0.0760864
0.052167
0.0524929
0.0764771
0.0863771
0.0867301
0.0769025
0.0528759
0.0533289
0.0773691
0.0871088
0.0875099
0.0778793
0.0538591
0.0544813
0.078444
0.0879441
0.0884116
0.0790646
0.055201
0.0560598
0.0797661
0.0889281
0.089522
0.0805927
0.0571268
0.0584627
0.0815477
0.0901922
0.0908626
0.0825305
0.0597985
0.0610643
0.0834749
0.0914651
0.0919507
0.0842585
0.06229
0.0633609
0.0847033
0.0922748
0.0925342
0.0853464
0.0644103
0.065378
0.0857183
0.0927427
0.0928886
0.0861296
0.0664586
0.0676114
0.0865392
0.0930439
0.093067
0.0868279
0.06866
0.0695787
0.087093
0.0930531
0.0930462
0.0873837
0.0705749
0.0716319
0.0876591
0.0930488
0.092983
0.0878735
0.0726781
0.0732295
0.0880644
0.0928151
0.092218
0.087741
0.0732009
0.0582737
0.0808683
0.0891399
0.0915679
0.0838532
0.0620241
0.0620607
0.0842744
0.0916702
0.0915512
0.0844692
0.0630032
0.0642277
0.0845486
0.0913923
0.0914754
0.0849989
0.0657309
0.0674465
0.0853576
0.0914249
0.0914624
0.0858937
0.0690664
0.0704993
0.0861308
0.0913738
0.0913599
0.0865743
0.0720258
0.0734114
0.0869163
0.0912878
0.0912228
0.0871818
0.0745307
0.0749907
0.0871319
0.0906507
0.0882509
0.0818733
0.0644827
0.0686804
0.0846021
0.0902209
0.0902053
0.0850993
0.0696601
0.0711056
0.0856909
0.0903399
0.0903179
0.0859983
0.0723364
0.0735092
0.0862527
0.0902301
0.090141
0.086549
0.0746878
0.0752743
0.0865375
0.0898497
0.0891891
0.0861429
0.0755533
0.0666595
0.0816109
0.0870849
0.0885253
0.0841562
0.0700445
0.0709318
0.0843416
0.088349
0.0880425
0.0844018
0.0720826
0.0732369
0.0843459
0.0876549
0.0872877
0.0844414
0.0744133
0.0747132
0.0840727
0.0864508
0.0845628
0.0802402
0.0669693
0.0710439
0.0821118
0.085751
0.0855048
0.0824086
0.0720642
0.0730703
0.0823133
0.0850519
0.0845039
0.0822341
0.0737198
0.0736682
0.0815131
0.0834442
0.081824
0.0783735
0.067122
0.0703
0.0796096
0.0824163
0.0815366
0.0792144
0.0706861
0.0715176
0.0787871
0.0806162
0.07925
0.0778418
0.0712873
0.065929
0.0750627
0.0776752
0.0776272
0.0755685
0.06882
0.0688473
0.0747211
0.0762781
0.0746855
0.0735669
0.068736
0.0676258
0.0716683
0.0723691
0.0700375
0.0685808
0.0629935
0.0634636
0.0674667
0.0683286
0.0649213
0.0645972
0.0615312
0.0567938
0.060661
0.0617299
0.0585594
0.0580897
0.0557781
0.051644
0.0525105
0.0524184
0.0450852
0.0448028
0.0436054
0.0347311
0.0346202
0.0350492
0.0238704
0.0219315
0.0205145
0.00580859
0.00907654
0.0149745
0.0296502
0.0280409
0.0284361
0.053707
0.0520374
0.0513171
0.0693917
0.07085
0.0722774
0.0833803
0.0832161
0.0823187
0.0867444
0.0866742
0.0854794
0.0890628
0.0917623
0.0918074
0.0932581
0.0924657
0.0890024
0.0909001
0.0952507
0.0959017
0.0968648
0.0952828
0.0905458
0.0872445
0.0945643
0.0966762
0.0984583
0.0968832
0.089485
0.0867191
0.0949427
0.0974879
0.0994128
0.0976687
0.0904336
0.0894006
0.097003
0.0994386
0.0981503
0.0950425
0.0864629
0.0896764
0.0976985
0.0998465
0.0995346
0.0966631
0.0881203
0.0851165
0.0945043
0.0980348
0.0998358
0.0974916
0.0887729
0.0872091
0.096428
0.0995001
0.0976805
0.0939016
0.0838244
0.0877317
0.0968666
0.0994165
0.0992699
0.0961017
0.0866348
0.0831465
0.0934032
0.0973886
0.0991425
0.0964615
0.0873837
0.086555
0.095901
0.0991296
0.0971986
0.0932526
0.0830463
0.0867524
0.0961298
0.0988833
0.0988227
0.0954895
0.085857
0.0826854
0.0929661
0.0969793
0.0987954
0.0960024
0.0866122
0.0855467
0.0952856
0.098671
0.096781
0.0927266
0.0822439
0.0864269
0.0957755
0.098622
0.098533
0.0953127
0.0854905
0.0839522
0.0938517
0.0978059
0.0956341
0.0910128
0.0789477
0.083747
0.0946556
0.0975735
0.0976824
0.0940209
0.0827102
0.0790146
0.0907977
0.0956012
0.097781
0.0945465
0.0837557
0.0824199
0.0935152
0.0975804
0.0953797
0.0908771
0.0784577
0.0835783
0.0945706
0.0975338
0.0976142
0.0939268
0.0826075
0.0789282
0.0907315
0.0954839
0.0976981
0.0943127
0.0833315
0.0820819
0.0936564
0.0976233
0.0954556
0.0906218
0.0788477
0.0837925
0.0946413
0.0978165
0.0977732
0.0937785
0.0826215
0.078632
0.0907938
0.0956005
0.0979002
0.094495
0.0833917
0.0824025
0.0937002
0.0978902
0.0957887
0.0911702
0.0788922
0.0840863
0.0951403
0.0981445
0.0981613
0.0940645
0.0830415
0.0784997
0.0911721
0.0958903
0.0982731
0.0950203
0.0832738
0.0810464
0.0929439
0.0970867
0.099565
0.0966442
0.0863192
0.0857065
0.09605
0.0996429
0.0975966
0.0933081
0.0825208
0.0866124
0.0967415
0.0998221
0.099731
0.0959449
0.0853546
0.0822813
0.0933955
0.0978643
0.100331
0.0973636
0.0872504
0.0865467
0.0969515
0.100559
0.0986336
0.094314
0.0834248
0.0875506
0.0978006
0.100848
0.100687
0.0969158
0.086184
0.0826899
0.0940109
0.0986322
0.101027
0.0979679
0.0876165
0.0870468
0.0974538
0.101359
0.099376
0.0950581
0.083273
0.0874848
0.0987202
0.101701
0.100302
0.0964126
0.0850148
0.0888469
0.0994892
0.102449
0.102398
0.0986925
0.0878217
0.0851393
0.0962484
0.100593
0.102994
0.100201
0.0899231
0.0891124
0.0995342
0.103121
0.101173
0.0969332
0.0853934
0.0895886
0.100667
0.103531
0.102114
0.0981953
0.0869068
0.0910386
0.101322
0.104308
0.104539
0.100991
0.0907
0.0880417
0.098664
0.10284
0.105094
0.102298
0.0923405
0.0915001
0.101583
0.105172
0.103273
0.0991081
0.0877497
0.0916487
0.102705
0.105579
0.104078
0.100122
0.0887925
0.0929495
0.103236
0.106143
0.106526
0.103008
0.0927116
0.0899687
0.100778
0.104904
0.107167
0.104318
0.0941344
0.0931181
0.103856
0.107332
0.105203
0.100658
0.0899115
0.0935335
0.104522
0.107563
0.106104
0.10212
0.0906477
0.0948874
0.105391
0.108343
0.108588
0.104865
0.0944655
0.0912849
0.102567
0.106759
0.109252
0.106407
0.0954466
0.0933458
0.104452
0.108238
0.110559
0.107852
0.0977239
0.0965636
0.106967
0.110413
0.108221
0.103815
0.0931904
0.0964567
0.107312
0.110383
0.109306
0.105309
0.094204
0.0991705
0.109105
0.111879
0.11203
0.10856
0.0983817
0.0953561
0.105704
0.110123
0.112513
0.109644
0.0991581
0.0967956
0.107636
0.111392
0.113576
0.110871
0.100821
0.0997149
0.109804
0.113378
0.111149
0.106951
0.0957752
0.0996801
0.110556
0.113356
0.112625
0.108959
0.0979967
0.102391
0.112526
0.115127
0.115291
0.112062
0.101594
0.098521
0.108871
0.113284
0.115561
0.112777
0.10184
0.0994356
0.11055
0.114326
0.116581
0.114108
0.103514
0.100744
0.111353
0.115036
0.117126
0.11432
0.104202
0.103811
0.113882
0.117361
0.115677
0.11163
0.101021
0.104845
0.115439
0.118211
0.117237
0.113525
0.102691
0.106748
0.116878
0.119488
0.119405
0.116102
0.105624
0.102529
0.112889
0.11733
0.119562
0.11676
0.105598
0.102624
0.114191
0.118099
0.120313
0.117519
0.106338
0.104632
0.115748
0.119453
0.121898
0.119324
0.109231
0.108501
0.118601
0.12207
0.120289
0.11624
0.105311
0.108859
0.119877
0.12262
0.121343
0.117557
0.106318
0.110236
0.121056
0.123688
0.122512
0.118948
0.108205
0.11162
0.121778
0.12443
0.124214
0.120692
0.110327
0.107161
0.117926
0.122339
0.12483
0.122085
0.111172
0.109107
0.120179
0.123908
0.126321
0.123774
0.113071
0.111107
0.121789
0.125325
0.127483
0.124976
0.115072
0.114275
0.124163
0.127527
0.125693
0.121671
0.111003
0.114247
0.125106
0.127869
0.126459
0.122635
0.111572
0.114921
0.125894
0.12866
0.127676
0.123952
0.113091
0.1173
0.127335
0.1299
0.130111
0.12658
0.116668
0.113143
0.124429
0.128353
0.130666
0.127974
0.116648
0.11427
0.125833
0.129521
0.131765
0.129309
0.118139
0.116019
0.127102
0.130638
0.132696
0.130159
0.119946
0.118981
0.129067
0.132602
0.13052
0.126433
0.114974
0.11842
0.129809
0.132727
0.131761
0.127797
0.116418
0.120808
0.131777
0.134416
0.133392
0.129717
0.11891
0.12261
0.1332
0.135719
0.134662
0.131194
0.120625
0.124369
0.13425
0.136718
0.136715
0.133494
0.123421
0.12054
0.130466
0.134833
0.137042
0.134332
0.123295
0.120617
0.132007
0.135786
0.138018
0.135256
0.12386
0.121531
0.132903
0.136789
0.139147
0.136532
0.125766
0.123996
0.134625
0.138232
0.140477
0.138024
0.128102
0.127403
0.137251
0.140652
0.138927
0.13498
0.123951
0.127378
0.138533
0.141237
0.140089
0.136286
0.124953
0.128657
0.139833
0.142443
0.141208
0.13752
0.126472
0.130112
0.140828
0.14337
0.142156
0.138555
0.127959
0.131436
0.141524
0.144129
0.144247
0.140737
0.13078
0.127467
0.138574
0.142566
0.144999
0.142199
0.130983
0.12861
0.140051
0.143928
0.146364
0.143812
0.132551
0.130472
0.14157
0.14524
0.147389
0.144851
0.134034
0.131911
0.142697
0.146298
0.148383
0.145851
0.135848
0.134896
0.145163
0.148419
0.146462
0.142003
0.131884
0.134546
0.145952
0.148657
0.147488
0.143634
0.131864
0.136028
0.147431
0.1501
0.149075
0.145264
0.134085
0.137887
0.148944
0.151538
0.150416
0.146763
0.135821
0.139341
0.150081
0.152646
0.151599
0.148034
0.137432
0.141168
0.151262
0.153741
0.153847
0.150295
0.140394
0.136607
0.14815
0.152096
0.15447
0.15151
0.140102
0.137456
0.149117
0.153131
0.155387
0.152701
0.141044
0.138742
0.150207
0.154126
0.156544
0.153856
0.142731
0.14087
0.151783
0.155527
0.157875
0.155291
0.144508
0.142691
0.15338
0.156966
0.159249
0.156773
0.146809
0.145987
0.155966
0.159381
0.157606
0.153554
0.142518
0.146066
0.157223
0.159998
0.158864
0.154934
0.143711
0.147617
0.158804
0.161427
0.160255
0.1565
0.145421
0.148908
0.159914
0.162539
0.161278
0.157533
0.14669
0.150274
0.160928
0.163538
0.162613
0.159066
0.148501
0.152267
0.162355
0.164825
0.165015
0.161498
0.151598
0.147962
0.159411
0.163338
0.165709
0.162811
0.151258
0.148847
0.160544
0.164582
0.167072
0.164478
0.152736
0.150456
0.162119
0.165903
0.168262
0.165676
0.154299
0.152266
0.163448
0.167127
0.169354
0.166766
0.155769
0.153875
0.164709
0.168342
0.17062
0.168133
0.157968
0.15717
0.167285
0.170811
0.169099
0.165013
0.153697
0.157232
0.168715
0.171554
0.17053
0.166563
0.154972
0.158975
0.17057
0.173181
0.172024
0.168213
0.156671
0.160565
0.171843
0.174451
0.173371
0.169693
0.158638
0.162162
0.173117
0.175714
0.174733
0.171097
0.160274
0.164236
0.174491
0.176987
0.177163
0.173517
0.163441
0.159523
0.171531
0.175484
0.17803
0.17499
0.163259
0.160787
0.172628
0.176829
0.179379
0.176692
0.164781
0.162523
0.174322
0.178234
0.180767
0.178096
0.166406
0.164351
0.175825
0.179651
0.182082
0.179431
0.16803
0.166016
0.177205
0.181001
0.183487
0.180898
0.169957
0.168141
0.178965
0.182597
0.184924
0.182391
0.172314
0.171499
0.181793
0.185243
0.183572
0.179244
0.168558
0.171969
0.183305
0.186063
0.185074
0.181194
0.169717
0.173813
0.185211
0.187814
0.186764
0.182979
0.171738
0.175509
0.18664
0.189256
0.188193
0.184447
0.173566
0.177255
0.188015
0.190604
0.189661
0.18607
0.175376
0.179321
0.189487
0.191983
0.19221
0.188681
0.178384
0.175216
0.186455
0.190594
0.19313
0.190312
0.178815
0.176235
0.187916
0.191963
0.194589
0.191933
0.180212
0.178177
0.189761
0.193585
0.196079
0.193467
0.181982
0.180125
0.191361
0.195137
0.19776
0.195232
0.184185
0.182471
0.193422
0.197
0.199378
0.196945
0.186702
0.18546
0.196112
0.19959
0.197904
0.19344
0.182547
0.186147
0.197684
0.200527
0.199424
0.195411
0.183669
0.187797
0.199468
0.202202
0.201131
0.197172
0.185672
0.189779
0.201124
0.20381
0.202867
0.199084
0.187947
0.19181
0.202822
0.205434
0.204637
0.200949
0.18998
0.194336
0.204655
0.20718
0.207688
0.204119
0.193619
0.190649
0.201968
0.206226
0.208974
0.206138
0.19463
0.192337
0.203987
0.207971
0.210647
0.207948
0.196182
0.193801
0.205494
0.209477
0.211963
0.209227
0.19766
0.195571
0.206998
0.210905
0.213598
0.210964
0.199779
0.197834
0.209049
0.212773
0.215277
0.212718
0.202135
0.201423
0.212243
0.215842
0.214305
0.209963
0.198557
0.202304
0.214084
0.216998
0.21608
0.211995
0.20013
0.204698
0.216423
0.219134
0.218412
0.214495
0.202849
0.207848
0.218963
0.221434
0.220685
0.217129
0.206059
0.20958
0.22042
0.222951
0.223021
0.219238
0.208204
0.204561
0.217006
0.221309
0.224081
0.221067
0.20867
0.206191
0.218675
0.222975
0.225876
0.223095
0.210679
0.208379
0.220778
0.224873
0.227739
0.224957
0.21307
0.21095
0.222873
0.226877
0.229627
0.226919
0.215811
0.215034
0.226632
0.230354
0.228849
0.223986
0.21252
0.216637
0.228948
0.231896
0.231276
0.227161
0.214593
0.220218
0.23225
0.234789
0.233782
0.229895
0.217895
0.221493
0.233489
0.236284
0.235133
0.231117
0.219034
0.223533
0.235011
0.237801
0.238085
0.233933
0.22229
0.218663
0.231923
0.236497
0.239638
0.236473
0.223662
0.221049
0.233995
0.238528
0.241632
0.238726
0.225939
0.223815
0.236566
0.240829
0.244189
0.241334
0.228984
0.226921
0.239408
0.243541
0.246579
0.24385
0.232144
0.231792
0.243754
0.247722
0.246637
0.242184
0.229458
0.234261
0.247053
0.249961
0.248468
0.24405
0.2309
0.235251
0.248204
0.251206
0.250004
0.245704
0.232737
0.237423
0.250105
0.25305
0.252095
0.24784
0.23511
0.240045
0.25208
0.254989
0.255606
0.251435
0.239087
0.235938
0.249113
0.253992
0.257208
0.253966
0.240943
0.238552
0.251865
0.256405
0.260059
0.257164
0.244294
0.242205
0.255377
0.259621
0.263091
0.260371
0.248151
0.248508
0.260773
0.264694
0.263282
0.258774
0.245613
0.249627
0.26292
0.266104
0.264487
0.259788
0.24623
0.250991
0.264421
0.267632
0.266525
0.261943
0.248431
0.25372
0.266841
0.269886
0.269141
0.264744
0.251579
0.25702
0.269394
0.272402
0.2733
0.269042
0.256178
0.253509
0.266489
0.271773
0.275203
0.271935
0.258728
0.25644
0.269993
0.274609
0.278696
0.275809
0.262654
0.261009
0.274391
0.278686
0.28255
0.280222
0.268769
0.268543
0.280338
0.283792
0.281705
0.276937
0.26411
0.26754
0.281073
0.284422
0.283126
0.278378
0.264379
0.269878
0.28353
0.286713
0.285955
0.281375
0.267451
0.273314
0.286339
0.289409
0.290412
0.285966
0.272373
0.269492
0.283401
0.288889
0.292475
0.288994
0.275299
0.272775
0.287023
0.291901
0.296124
0.293036
0.279708
0.279614
0.293715
0.298261
0.297583
0.292203
0.277876
0.285238
0.299009
0.301947
0.300695
0.296131
0.28192
0.285919
0.300343
0.303755
0.302221
0.297232
0.282382
0.288076
0.302089
0.305507
0.306225
0.301315
0.286806
0.283457
0.298728
0.304553
0.30852
0.304743
0.289757
0.28708
0.302656
0.307868
0.312279
0.308978
0.294518
0.294034
0.309275
0.31415
0.312864
0.306945
0.291156
0.298432
0.313651
0.317366
0.317694
0.312605
0.297066
0.306604
0.320345
0.322982
0.323891
0.319638
0.305069
0.299548
0.315275
0.321146
0.324404
0.320375
0.304484
0.300761
0.317379
0.322999
0.32718
0.323487
0.308104
0.307117
0.323211
0.328594
0.32705
0.320677
0.303719
0.311072
0.327557
0.331724
0.331156
0.325361
0.308301
0.317157
0.332827
0.336358
0.339012
0.333714
0.317094
0.314847
0.332046
0.338386
0.344262
0.341045
0.326327
0.32407
0.339281
0.344017
0.347696
0.344227
0.328766
0.325607
0.342366
0.347501
0.344927
0.338181
0.321111
0.327875
0.344974
0.349359
0.348339
0.342357
0.324495
0.332907
0.349384
0.353235
0.355323
0.349629
0.332371
0.329337
0.347306
0.354116
0.359425
0.355241
0.338236
0.336515
0.354199
0.36006
0.36662
0.363783
0.349013
0.352213
0.367261
0.371048
0.369715
0.364485
0.348804
0.35235
0.36877
0.372911
0.372402
0.366702
0.348579
0.343931
0.362485
0.369872
0.37509
0.370543
0.352199
0.349049
0.368233
0.374463
0.380198
0.376268
0.358873
0.359075
0.377419
0.383212
0.382644
0.375626
0.35671
0.367234
0.384465
0.388527
0.393138
0.38786
0.369251
0.369384
0.38748
0.393758
0.399703
0.395762
0.377947
0.372803
0.393161
0.399281
0.395784
0.387661
0.366615
0.375205
0.39548
0.400825
0.399542
0.392421
0.371394
0.382396
0.40124
0.405747
0.409028
0.40263
0.382846
0.381035
0.401219
0.408849
0.415626
0.411445
0.393671
0.397211
0.416231
0.421392
0.422705
0.416685
0.398296
0.407046
0.425157
0.428915
0.428208
0.422051
0.401299
0.394427
0.416532
0.424817
0.429882
0.424514
0.404222
0.402644
0.424485
0.431552
0.430701
0.422077
0.399615
0.413589
0.433665
0.438572
0.444277
0.437622
0.415868
0.418291
0.439797
0.446953
0.456271
0.453544
0.435986
0.432549
0.452946
0.457926
0.456721
0.448892
0.425288
0.415964
0.442882
0.452752
0.458703
0.452556
0.42848
0.427069
0.453351
0.461351
0.461571
0.451747
0.425347
0.446105
0.467489
0.472171
0.482305
0.478019
0.455504
0.459009
0.481907
0.487732
0.483642
0.474387
0.447526
0.455348
0.48083
0.487619
0.486708
0.478467
0.449372
0.446604
0.477037
0.487863
0.487853
0.476059
0.442905
0.471523
0.495634
0.499968
0.511283
0.506736
0.482082
0.481448
0.508092
0.515258
0.509244
0.498283
0.465527
0.476652
0.5056
0.513174
0.513668
0.505218
0.472487
0.472434
0.507696
0.51804
0.528503
0.519513
0.482484
0.483167
0.516899
0.528512
0.536027
0.52667
0.494075
0.481662
0.52085
0.532514
0.532171
0.519285
0.475541
0.478474
0.525065
0.536981
0.54221
0.528751
0.480023
0.468915
0.523662
0.540651
0.529136
0.507361
0.451815
0.483291
0.523075
0.536039
0.533357
0.521673
0.480668
0.469834
0.516636
0.530614
0.524328
0.50781
0.451833
0.434311
0.49564
0.514334
0.502282
0.481176
0.414276
0.391141
0.465815
0.490109
0.478904
0.451795
0.371158
0.355187
0.44011
0.469586
0.461769
0.429979
0.341541
0.329386
0.420745
0.454809
0.44841
0.412172
0.31843
0.308574
0.404178
0.442449
0.43685
0.396683
0.299595
0.291407
0.389609
0.431541
0.426483
0.382919
0.283945
0.277121
0.376584
0.42164
0.417002
0.370605
0.270903
0.265262
0.36498
0.412561
0.408304
0.359687
0.260149
0.255517
0.354708
0.404209
0.40027
0.350022
0.251305
0.247485
0.345615
0.396469
0.3928
0.341469
0.244033
0.240931
0.337576
0.389251
0.385819
0.333916
0.238148
0.235656
0.330484
0.382493
0.379276
0.327262
0.233429
0.231444
0.324245
0.376167
0.373165
0.321416
0.229669
0.228095
0.318767
0.370262
0.367458
0.316284
0.226705
0.225487
0.313962
0.364746
0.362127
0.311789
0.224421
0.223497
0.309757
0.359599
0.357164
0.307852
0.222696
0.222007
0.306071
0.354824
0.352577
0.304401
0.221416
0.220913
0.30284
0.350427
0.348363
0.301375
0.220486
0.220127
0.300003
0.34639
0.3445
0.298714
0.219827
0.219582
0.297505
0.342697
0.34097
0.296368
0.219382
0.219224
0.295299
0.339325
0.337754
0.294293
0.2191
0.219009
0.29335
0.336262
0.334839
0.292457
0.218952
0.218915
0.291618
0.333489
0.332204
0.290823
0.218905
0.218907
0.29008
0.330989
0.329833
0.289375
0.218926
0.218947
0.288716
0.32874
0.327702
0.288091
0.218978
0.21901
0.287509
0.326723
0.325793
0.286957
0.219048
0.21908
0.286442
0.324915
0.324082
0.285952
0.219117
0.21915
0.285499
0.323299
0.322554
0.285068
0.219186
0.219212
0.284667
0.321853
0.321186
0.284286
0.219243
0.21927
0.283936
0.320563
0.319969
0.283605
0.2193
0.219319
0.283296
0.319411
0.318876
0.283002
0.219339
0.219354
0.28273
0.318377
0.317901
0.282473
0.21937
0.219378
0.282234
0.317452
0.317023
0.282006
0.219387
0.219392
0.281796
0.316622
0.316238
0.281596
0.2194
0.2194
0.281408
0.315875
0.315526
0.281226
0.219403
0.219403
0.281058
0.315201
0.314887
0.280898
0.219405
0.219399
0.280746
0.314591
0.314304
0.280599
0.219395
0.219389
0.280463
0.314037
0.313779
0.280333
0.219385
0.219374
0.280209
0.313534
0.313297
0.28009
0.219365
0.219354
0.27998
0.313076
0.312862
0.279875
0.219346
0.219333
0.279774
0.31266
0.312462
0.279677
0.21932
0.219306
0.279588
0.312279
0.312103
0.279503
0.219296
0.219282
0.279422
0.311934
0.311775
0.279345
0.219268
0.219254
0.279273
0.311621
0.311482
0.279207
0.219244
0.219233
0.279146
0.311343
0.311217
0.279088
0.219223
0.219211
0.279033
0.311089
0.310977
0.278982
0.219203
0.219195
0.278936
0.310862
0.310763
0.278893
0.21919
0.219183
0.278854
0.310657
0.310571
0.278819
0.219182
0.219179
0.278788
0.310475
0.3104
0.278759
0.219181
0.219181
0.278733
0.310312
0.310247
0.278711
0.219187
0.219191
0.278691
0.310168
0.310112
0.278676
0.219201
0.21921
0.278662
0.310041
0.309994
0.278654
0.219225
0.21924
0.278646
0.309932
0.309894
0.278644
0.219259
0.219278
0.278642
0.309838
0.309809
0.278646
0.219303
0.219328
0.27865
0.30976
0.309739
0.27866
0.219357
0.219386
0.278669
0.309696
0.309683
0.278684
0.21942
0.219454
0.278699
0.309647
0.309642
0.27872
0.219492
0.21953
0.278738
0.309611
0.309614
0.278764
0.219573
0.219615
0.278788
0.309589
0.309598
0.278818
0.219661
0.219708
0.278846
0.309577
0.309593
0.278881
0.219757
0.219808
0.278914
0.309578
0.3096
0.278952
0.21986
0.219914
0.278988
0.309589
0.309617
0.27903
0.21997
0.220026
0.279071
0.309611
0.309643
0.279116
0.220085
0.220144
0.27916
0.309642
0.309679
0.279208
0.220205
0.220267
0.279256
0.309683
0.309724
0.279308
0.22033
0.220394
0.279358
0.309732
0.309778
0.279412
0.22046
0.220526
0.279465
0.309789
0.309839
0.279523
0.220593
0.220662
0.279579
0.309854
0.309908
0.279639
0.220731
0.220802
0.279698
0.309927
0.309985
0.279761
0.220874
0.220946
0.279823
0.310007
0.31007
0.279889
0.22102
0.221094
0.279953
0.310095
0.310161
0.280022
0.221169
0.221244
0.280088
0.310189
0.310258
0.280159
0.221321
0.221398
0.280228
0.31029
0.310362
0.2803
0.221475
0.221553
0.280371
0.310395
0.310471
0.280445
0.221632
0.221711
0.280518
0.310507
0.310585
0.280593
0.221789
0.221869
0.280667
0.310623
0.310703
0.280744
0.221948
0.222028
0.28082
0.310743
0.310825
0.280898
0.222108
0.222188
0.280974
0.310867
0.310951
0.281054
0.222267
0.222347
0.281131
0.310994
0.31108
0.281211