/*--------------------------------*- C++ -*----------------------------------*\
| =========                 |                                                 |
| \\      /  F ield         | OpenFOAM: The Open Source CFD Toolbox           |
|  \\    /   O peration     | Version:  v2006                                 |
|   \\  /    A nd           | Website:  www.openfoam.com                      |
|    \\/     M anipulation  |                                                 |
\*---------------------------------------------------------------------------*/
FoamFile
{
    version     2.0;
    format      ascii;
    class       volScalarField;
    location    "0.027";
    object      T;
}
// * * * * * * * * * * * * * * * * * * * * * * * * * * * * * * * * * * * * * //

dimensions      [0 0 0 1 0 0 0];


internalField   nonuniform List<scalar> 
16277
(
298.84
298.84
298.84
298.84
298.84
298.84
298.84
298.841
298.842
298.845
298.848
298.852
298.856
298.86
298.864
298.868
298.872
298.876
298.88
298.885
298.89
298.895
298.9
298.905
298.91
298.916
298.922
298.927
298.933
298.94
298.946
298.952
298.959
298.965
298.972
298.979
298.986
298.993
299
299.007
299.015
299.022
299.029
299.037
299.044
299.052
299.059
299.066
299.074
299.081
299.089
299.096
299.104
299.111
299.118
299.125
299.133
299.14
299.147
299.154
299.16
299.167
299.174
299.18
299.186
299.192
299.198
299.204
299.21
299.216
299.221
299.226
299.231
299.236
299.241
299.245
299.249
299.254
299.258
299.261
299.265
299.269
299.272
299.274
299.275
299.275
299.275
299.274
299.274
299.274
299.274
299.275
299.277
299.28
299.286
299.292
299.317
299.323
299.291
299.283
299.283
299.293
299.332
299.342
299.296
299.283
299.284
299.299
299.348
299.354
299.302
299.285
299.287
299.305
299.356
299.36
299.309
299.29
299.292
299.311
299.362
299.364
299.315
299.294
299.296
299.317
299.365
299.366
299.32
299.299
299.301
299.322
299.366
299.367
299.325
299.303
299.306
299.326
299.367
299.368
299.329
299.308
299.31
299.331
299.368
299.369
299.333
299.313
299.315
299.335
299.369
299.37
299.337
299.317
299.319
299.338
299.37
299.371
299.341
299.322
299.324
299.342
299.371
299.372
299.345
299.327
299.328
299.346
299.373
299.374
299.348
299.331
299.333
299.35
299.374
299.376
299.352
299.336
299.337
299.354
299.376
299.378
299.356
299.341
299.342
299.358
299.379
299.381
299.361
299.346
299.347
299.362
299.381
299.383
299.365
299.351
299.352
299.366
299.384
299.386
299.369
299.356
299.358
299.371
299.387
299.389
299.374
299.361
299.363
299.375
299.39
299.393
299.379
299.367
299.368
299.38
299.394
299.396
299.384
299.372
299.374
299.385
299.397
299.4
299.389
299.378
299.38
299.39
299.401
299.404
299.394
299.384
299.386
299.395
299.405
299.409
299.399
299.39
299.392
299.401
299.41
299.413
299.405
299.397
299.399
299.407
299.415
299.418
299.411
299.403
299.405
299.413
299.42
299.424
299.417
299.41
299.413
299.419
299.425
299.429
299.424
299.418
299.42
299.426
299.431
299.436
299.431
299.425
299.428
299.433
299.438
299.442
299.439
299.433
299.436
299.441
299.444
299.449
299.446
299.442
299.444
299.449
299.451
299.457
299.455
299.45
299.453
299.457
299.459
299.465
299.463
299.46
299.462
299.466
299.467
299.473
299.472
299.469
299.472
299.475
299.475
299.481
299.481
299.479
299.482
299.484
299.484
299.49
299.491
299.489
299.492
299.494
299.493
299.499
299.5
299.499
299.502
299.503
299.501
299.508
299.51
299.509
299.513
299.513
299.51
299.517
299.52
299.52
299.523
299.523
299.519
299.526
299.529
299.53
299.533
299.532
299.529
299.535
299.539
299.54
299.543
299.542
299.538
299.545
299.549
299.55
299.553
299.552
299.548
299.554
299.559
299.56
299.563
299.562
299.557
299.564
299.568
299.57
299.573
299.571
299.567
299.573
299.577
299.579
299.582
299.58
299.576
299.582
299.586
299.588
299.59
299.588
299.584
299.589
299.593
299.596
299.598
299.595
299.591
299.595
299.6
299.602
299.604
299.601
299.596
299.599
299.604
299.607
299.608
299.605
299.6
299.602
299.607
299.61
299.61
299.607
299.602
299.603
299.608
299.611
299.611
299.607
299.603
299.603
299.607
299.61
299.609
299.605
299.601
299.6
299.604
299.608
299.605
299.602
299.598
299.597
299.6
299.603
299.599
299.596
299.594
299.592
299.595
299.597
299.592
299.59
299.588
299.587
299.588
299.59
299.584
299.583
299.582
299.58
299.58
299.582
299.576
299.575
299.575
299.573
299.572
299.573
299.566
299.566
299.568
299.566
299.564
299.563
299.557
299.557
299.56
299.558
299.555
299.554
299.547
299.549
299.553
299.551
299.546
299.544
299.538
299.54
299.545
299.543
299.537
299.535
299.529
299.532
299.538
299.536
299.529
299.526
299.52
299.524
299.531
299.529
299.522
299.518
299.512
299.517
299.524
299.523
299.515
299.51
299.505
299.51
299.519
299.517
299.508
299.503
299.499
299.504
299.513
299.512
299.503
299.497
299.493
299.499
299.509
299.508
299.498
299.492
299.488
299.495
299.505
299.504
299.494
299.487
299.484
299.491
299.502
299.501
299.49
299.483
299.481
299.488
299.499
299.499
299.488
299.48
299.478
299.486
299.497
299.497
299.485
299.478
299.476
299.484
299.496
299.496
299.484
299.476
299.475
299.483
299.495
299.495
299.483
299.475
299.474
299.483
299.494
299.495
299.483
299.475
299.474
299.482
299.494
299.494
299.483
299.475
299.475
299.483
299.494
299.494
299.483
299.475
299.475
299.483
299.494
299.494
299.484
299.476
299.476
299.484
299.494
299.494
299.484
299.476
299.476
299.484
299.494
299.494
299.485
299.477
299.477
299.485
299.494
299.494
299.485
299.478
299.478
299.485
299.494
299.494
299.486
299.479
299.479
299.485
299.494
299.494
299.486
299.479
299.479
299.486
299.494
299.494
299.486
299.48
299.48
299.486
299.494
299.494
299.487
299.48
299.48
299.486
299.494
299.494
299.487
299.481
299.48
299.486
299.494
299.493
299.486
299.481
299.481
299.486
299.492
299.482
299.479
299.478
299.483
299.489
299.482
299.475
299.482
299.482
299.485
299.477
299.47
299.467
299.466
299.466
299.466
299.466
299.466
299.467
299.467
299.468
299.469
299.471
299.472
299.474
299.477
299.48
299.484
299.489
299.499
299.506
299.501
299.511
299.522
299.537
299.513
299.496
299.544
299.521
299.491
299.546
299.526
299.466
299.539
299.514
299.501
299.518
299.519
299.502
299.513
299.515
299.522
299.521
299.516
299.511
299.511
299.516
299.52
299.521
299.516
299.51
299.511
299.515
299.519
299.518
299.515
299.511
299.51
299.515
299.519
299.521
299.515
299.507
299.51
299.514
299.517
299.516
299.513
299.51
299.508
299.513
299.517
299.52
299.513
299.504
299.507
299.512
299.517
299.514
299.511
299.509
299.506
299.511
299.516
299.516
299.511
299.505
299.504
299.511
299.517
299.513
299.51
299.507
299.503
299.51
299.515
299.513
299.51
299.506
299.502
299.51
299.515
299.512
299.509
299.506
299.502
299.509
299.514
299.511
299.509
299.506
299.502
299.509
299.514
299.511
299.509
299.506
299.502
299.509
299.514
299.511
299.509
299.506
299.502
299.509
299.514
299.511
299.509
299.506
299.502
299.509
299.514
299.511
299.509
299.506
299.501
299.51
299.515
299.51
299.509
299.506
299.503
299.509
299.513
299.512
299.509
299.504
299.5
299.51
299.517
299.512
299.509
299.504
299.504
299.509
299.512
299.513
299.509
299.503
299.499
299.509
299.517
299.513
299.508
299.503
299.5
299.508
299.513
299.513
299.508
299.502
299.498
299.507
299.515
299.51
299.506
299.503
299.5
299.507
299.513
299.512
299.507
299.5
299.5
299.507
299.513
299.51
299.507
299.501
299.505
299.507
299.507
299.511
299.508
299.501
299.504
299.509
299.51
299.511
299.51
299.503
299.509
299.51
299.509
299.512
299.512
299.506
299.506
299.514
299.515
299.517
299.515
299.508
299.513
299.516
299.513
299.517
299.517
299.512
299.507
299.519
299.523
299.522
299.519
299.512
299.513
299.519
299.521
299.523
299.52
299.511
299.507
299.52
299.528
299.525
299.519
299.508
299.509
299.517
299.523
299.525
299.516
299.502
299.505
299.513
299.52
299.522
299.512
299.498
299.501
299.509
299.516
299.519
299.508
299.495
299.5
299.505
299.511
299.509
299.504
299.497
299.496
299.503
299.507
299.502
299.502
299.496
299.499
299.502
299.497
299.498
299.502
299.497
299.494
299.504
299.501
299.504
299.505
299.494
299.491
299.506
299.51
299.513
299.506
299.489
299.492
299.504
299.509
299.512
299.502
299.485
299.476
299.499
299.516
299.503
299.493
299.479
299.477
299.487
299.492
299.486
299.481
299.468
299.461
299.475
299.48
299.473
299.469
299.458
299.449
299.458
299.461
299.45
299.449
299.442
299.437
299.441
299.446
299.444
299.439
299.437
299.445
299.443
299.443
299.437
299.457
299.466
299.485
299.468
299.41
299.341
299.467
299.488
299.474
299.452
299.298
299.322
299.431
299.428
299.388
299.387
299.481
299.588
299.361
299.44
299.615
299.42
299.317
299.949
299.007
299.445
299.506
299.471
299.374
299.365
299.421
299.515
299.436
299.455
299.452
299.515
299.481
299.392
299.511
299.477
299.4
299.306
299.454
299.603
299.492
299.469
299.381
299.41
299.479
299.412
299.525
299.427
299.285
299.575
299.388
299.341
299.491
299.335
299.666
299.286
299.389
299.724
299.489
298.901
300.526
299.25
299.526
299.689
299.674
299.442
299.186
299.476
299.489
299.357
299.568
299.442
299.277
299.486
299.445
299.384
299.435
299.412
299.551
299.561
299.456
299.423
299.504
299.561
299.401
298.948
299.827
299.507
299.596
299.436
299.452
299.511
299.467
299.458
299.388
299.483
299.555
299.492
299.446
299.492
299.526
299.404
299.564
299.648
299.392
299.544
299.524
298.934
300.596
299.562
299.594
299.525
299.449
299.52
299.641
299.604
299.508
299.525
299.517
299.478
299.707
299.642
299.468
299.596
299.574
298.969
300.4
299.493
299.603
299.569
299.544
299.539
299.68
299.713
299.49
299.565
299.607
299.466
299.748
300.538
298.857
299.683
299.731
299.621
299.356
299.676
299.605
299.558
299.607
299.607
299.636
299.651
299.622
299.615
299.655
299.644
299.654
299.612
299.676
299.698
299.701
299.727
299.62
299.248
300.149
299.667
299.734
299.726
299.799
299.732
299.76
299.77
299.784
299.785
299.783
299.79
299.798
299.815
299.864
299.868
299.887
299.878
299.885
299.889
299.832
299.811
299.784
299.755
299.751
299.761
299.635
299.621
299.645
299.516
299.537
299.547
299.495
299.491
299.502
299.439
299.438
299.437
299.418
299.433
299.467
299.453
299.397
299.383
299.442
299.449
299.325
300.8
298.346
299.405
299.249
299.381
299.575
299.646
299.275
299.277
299.331
299.321
299.463
299.437
299.376
299.34
299.368
299.397
299.432
299.408
299.383
299.359
299.411
299.373
299.366
299.395
299.371
299.403
299.36
299.37
299.412
299.487
299.39
299.324
299.342
299.427
299.484
299.423
299.368
299.344
299.365
299.376
299.418
299.417
299.388
299.378
299.355
299.365
299.397
299.421
299.379
299.352
299.367
299.393
299.424
299.405
299.369
299.356
299.357
299.38
299.416
299.422
299.394
299.373
299.358
299.371
299.409
299.437
299.388
299.357
299.376
299.406
299.43
299.474
299.352
299.327
299.252
299.388
299.565
298.702
299.319
299.862
299.715
298.351
300.682
299.795
299.23
299.41
299.567
299.106
299.599
298.45
299.784
299.365
299.352
299.394
299.163
299.08
299.468
299.459
299.396
298.576
299.804
299.148
299.235
299.428
299.551
299.112
299.05
298.329
299.678
299.373
299.337
299.406
299.111
299.67
299.466
299.033
299.069
300.111
298.822
299.139
299.423
299.341
299.72
299.358
298.739
299.929
298.76
299.591
299.276
299.226
299.704
299.962
299.47
298.955
299.066
298.686
300.784
299.458
299.198
299.327
299.658
299.174
298.834
300.678
298.314
299.503
299.218
299.212
299.679
299.823
299.257
299.215
299.394
299.334
299.33
299.501
299.324
299.336
299.335
299.578
299.882
299.715
299.342
299.272
299.18
299.375
299.754
299.713
299.538
299.229
299.211
299.275
299.46
299.36
299.271
299.294
299.295
299.286
299.34
299.316
299.266
299.26
299.199
299.293
299.365
299.328
299.278
299.205
299.253
299.24
299.272
298.999
299.261
299.416
299.351
298.245
300.344
299.412
299.181
299.219
299.226
299.127
299.46
299.36
299.2
299.24
299.203
299.289
299.352
299.302
299.28
299.223
299.274
299.264
299.207
298.52
299.143
299.774
299.557
298.302
299.777
299.328
299.132
299.293
299.208
299.125
299.445
299.167
299.206
299.297
299.267
299.195
299.202
299.32
299.251
299.207
299.234
299.242
299.269
298.71
299.167
299.668
299.511
298.362
299.913
299.358
299.155
299.238
299.196
299.144
299.485
299.304
299.139
299.191
299.158
299.217
299.306
299.257
299.205
299.161
299.155
299.19
299.208
299.466
299.218
299.048
299.037
300.194
298.26
299.219
299.173
299.196
299.244
299.396
299.214
299.351
299.22
299.149
299.093
299.282
299.354
300.021
298.681
299.166
299.059
299.126
299.3
299.329
299.065
299.064
299.103
299.102
299.183
299.242
299.126
299.145
299.124
299.476
298.777
299.124
299.184
299.164
299.169
299.216
299.137
299.156
299.167
299.127
299.119
299.147
299.308
298.637
299.606
299.069
299.145
299.131
299.099
299.082
299.195
299.148
299.101
299.131
299.16
299.126
299.172
299.11
299.165
298.642
299.733
299.165
299.106
299.037
299.038
299.037
299.241
299.107
299.074
299.075
299.124
299.065
299.198
297.947
299.99
299.042
299.281
298.78
299.276
299.085
299.218
299.146
299.303
299.187
298.617
298.493
298.951
299.755
299.668
299.34
298.417
298.761
299.059
299.37
299.019
298.874
299.639
299.276
298.954
298.877
298.829
298.892
299.193
298.948
298.928
298.909
299.037
298.931
299.021
297.644
299.856
298.955
299.261
298.677
299.121
298.871
299.105
299.117
299.075
299.068
298.992
299.04
299.019
299.065
299.017
299.002
299.067
299.022
299.07
299.012
299.064
298.478
299.726
299.097
299.023
298.911
298.931
298.96
299.215
299.114
298.922
298.925
298.929
299.019
299.127
299.07
298.97
298.93
298.945
298.996
299.138
298.824
299.258
298.931
298.962
298.897
299.085
299.019
299.004
298.954
298.921
298.951
299.017
299.031
298.971
298.93
298.902
298.919
299.009
298.977
298.973
298.913
298.978
298.603
299.37
298.959
298.962
298.855
298.875
298.907
299.057
299.003
298.87
298.86
298.851
298.917
298.994
298.972
298.855
298.837
298.857
298.949
298.885
299.916
298.1
298.955
298.685
299.14
298.752
299.094
298.797
298.772
298.793
298.799
298.949
298.902
298.857
298.817
298.809
298.823
298.908
298.819
298.904
298.838
298.94
298.015
299.931
298.72
299.097
298.659
298.72
298.78
299.022
298.903
298.751
298.741
298.759
298.804
298.867
298.856
298.777
298.747
298.741
298.818
298.899
298.85
298.763
298.734
298.731
298.776
298.996
297.915
299.596
298.641
298.879
298.444
299.017
298.711
298.795
298.81
298.741
298.775
298.771
298.825
298.749
298.724
298.693
298.699
298.798
298.804
298.732
298.696
298.663
298.68
298.787
298.722
298.765
298.676
298.771
297.99
299.602
298.642
298.875
298.551
298.588
298.659
298.894
298.799
298.613
298.608
298.627
298.677
298.761
298.75
298.65
298.622
298.634
298.704
298.777
298.765
298.633
298.613
298.633
298.726
298.669
299.63
297.891
298.746
298.442
298.984
298.455
298.837
298.601
298.542
298.547
298.555
298.744
298.688
298.61
298.568
298.554
298.59
298.657
298.687
298.62
298.562
298.547
298.569
298.64
298.835
298.586
298.54
298.436
299.566
297.547
298.887
298.136
298.729
298.617
298.541
298.521
298.552
298.578
298.54
298.514
298.536
298.617
298.603
298.481
298.481
298.485
298.52
298.615
298.575
298.48
298.456
298.465
298.516
298.582
298.578
298.453
298.434
298.459
298.542
298.449
299.807
297.438
298.58
298.155
299.034
298.054
298.664
298.418
298.344
298.36
298.347
298.582
298.497
298.43
298.383
298.37
298.415
298.49
298.495
298.443
298.385
298.366
298.389
298.478
298.496
298.42
298.373
298.349
298.365
298.47
298.457
298.448
298.362
298.439
297.918
299.005
298.367
298.499
298.263
298.279
298.39
298.522
298.461
298.287
298.271
298.287
298.34
298.446
298.416
298.309
298.271
298.291
298.348
298.423
298.386
298.289
298.262
298.272
298.318
298.401
298.391
298.248
298.232
298.24
298.349
298.295
299.479
297.336
298.346
297.991
298.708
297.99
298.443
298.279
298.119
298.129
298.116
298.401
298.342
298.196
298.159
298.145
298.187
298.296
298.3
298.231
298.17
298.143
298.171
298.279
298.299
298.206
298.151
298.122
298.139
298.271
298.225
298.236
298.132
298.215
297.548
298.974
298.119
298.31
298.016
298.039
298.192
298.322
298.253
298.044
298.029
298.049
298.098
298.249
298.199
298.067
298.034
298.051
298.117
298.198
298.161
298.055
298.023
298.036
298.09
298.184
298.161
298.017
297.999
298.016
298.131
298.065
299.445
296.927
298.116
297.685
298.65
297.565
298.138
298.091
297.873
297.879
297.861
298.139
298.097
297.923
297.898
297.885
297.936
298.058
298.048
297.98
297.91
297.882
297.914
298.036
298.053
297.952
297.892
297.861
297.887
298.016
298.03
297.931
297.873
297.833
297.862
297.974
298.046
297.891
297.825
297.815
298.113
297.759
298.01
297.742
297.821
297.812
297.856
297.93
297.931
297.801
297.776
297.78
297.849
297.923
297.914
297.769
297.736
297.749
297.811
297.932
297.885
297.739
297.709
297.725
297.79
297.9
297.85
297.711
297.679
297.678
297.794
297.862
298.266
297.397
297.738
297.576
297.849
297.696
297.866
297.764
297.623
297.599
297.615
297.831
297.824
297.667
297.617
297.584
297.619
297.788
297.782
297.673
297.599
297.554
297.592
297.737
297.746
297.629
297.567
297.523
297.553
297.686
297.789
297.582
297.527
297.512
297.86
297.446
297.752
297.449
297.509
297.516
297.542
297.661
297.638
297.499
297.468
297.483
297.556
297.627
297.621
297.462
297.417
297.433
297.499
297.633
297.564
297.407
297.375
297.39
297.455
297.583
297.52
297.363
297.331
297.332
297.444
297.539
297.799
297.148
297.379
297.221
297.489
297.344
297.506
297.403
297.277
297.23
297.279
297.443
297.501
297.316
297.251
297.206
297.252
297.438
297.443
297.312
297.232
297.17
297.216
297.373
297.395
297.262
297.194
297.133
297.162
297.325
297.363
297.233
297.114
297.158
297.103
297.498
297.271
297.172
297.076
297.098
297.182
297.322
297.265
297.067
297.023
297.036
297.106
297.279
297.212
297
296.969
296.999
297.064
297.219
297.154
296.967
296.933
296.937
297.087
297.115
298.027
296.288
296.997
296.799
297.126
297.013
297.158
297.113
296.881
296.82
296.864
297.1
297.184
296.898
296.827
296.787
296.831
297.062
297.068
296.912
296.815
296.752
296.803
296.963
297.09
296.818
296.755
296.743
297.302
296.434
296.986
296.613
296.737
296.697
296.661
296.877
296.881
296.675
296.657
296.684
296.747
296.81
296.791
296.658
296.593
296.617
296.695
296.835
296.781
296.565
296.533
296.531
296.712
296.748
297.848
295.7
296.566
296.348
296.714
296.56
296.707
296.741
296.453
296.384
296.416
296.655
296.753
296.438
296.368
296.309
296.366
296.655
296.664
296.445
296.346
296.272
296.302
296.518
296.5
296.407
296.249
296.266
295.929
296.931
296.402
296.312
296.151
296.219
296.364
296.54
296.463
296.181
296.138
296.149
296.258
296.524
296.399
296.118
296.082
296.104
296.196
296.415
296.292
296.064
296.03
296.012
296.181
296.32
296.649
295.842
296.047
295.908
296.12
296.121
296.215
296.104
295.968
295.875
295.967
296.199
296.242
295.965
295.881
295.77
295.801
296.082
296.024
295.93
295.747
295.776
295.309
296.736
295.954
295.744
295.681
295.747
295.919
296.035
295.97
295.712
295.63
295.633
295.777
296.077
295.94
295.599
295.56
295.579
295.689
295.953
295.808
295.547
295.506
295.485
295.617
295.867
295.685
295.742
295.525
295.437
295.397
295.737
295.677
295.479
295.394
295.3
295.356
295.682
295.653
295.447
295.307
295.203
295.266
295.485
295.521
295.278
295.144
295.252
295.368
295.546
295.451
295.197
295.114
295.149
295.281
295.5
295.424
295.102
295.032
295.067
295.197
295.452
295.322
295.025
294.961
294.922
295.095
295.379
295.335
295.126
294.993
294.83
294.926
295.191
295.217
294.991
294.857
294.738
294.798
295.103
295.112
294.828
294.665
294.677
294.797
295.002
294.899
294.606
294.514
294.569
294.703
294.966
294.878
294.537
294.457
294.499
294.661
294.935
294.792
294.466
294.395
294.362
294.597
294.861
295.009
294.412
294.405
294.26
294.41
294.638
294.684
294.462
294.307
294.17
294.235
294.576
294.645
294.296
294.105
294.153
294.235
294.618
294.312
294.102
293.917
293.935
294.086
294.314
294.175
293.84
293.768
293.72
293.885
294.279
294.206
294.085
293.865
293.685
293.845
294.14
294.232
293.921
293.727
293.608
293.669
294.058
294.116
293.816
293.554
293.574
293.561
294.29
293.885
293.587
293.382
293.435
293.623
293.902
293.811
293.371
293.266
293.172
293.392
293.832
293.712
293.26
293.177
292.861
293.245
293.239
293.439
293.195
292.889
292.814
292.904
293.309
293.464
292.953
292.877
292.987
293.318
293.091
293.24
292.886
292.734
292.72
292.925
293.337
293.135
292.638
292.598
292.512
292.809
293.204
293.258
292.612
292.522
292.279
292.493
292.774
292.766
292.463
292.274
292.044
292.155
292.553
292.46
291.986
291.836
291.957
292.17
292.517
292.34
291.944
291.769
291.788
291.943
292.591
292.227
292.303
291.932
291.653
291.814
292.306
292.368
291.861
291.679
291.473
291.538
292.119
292.162
291.628
291.332
291.367
291.618
291.99
291.696
291.24
291.067
290.922
291.067
291.67
291.209
291.202
290.861
290.531
290.848
291.119
291.636
290.856
290.605
290.821
291.202
291.349
291.255
290.793
290.477
290.566
290.869
291.348
291.091
290.449
290.317
290.168
290.495
291.106
290.87
290.46
290.177
289.828
290.036
290.547
290.453
289.773
289.601
289.483
289.847
290.049
289.855
289.457
289.178
289.213
289.525
290.371
290.429
289.858
289.444
289.202
289.39
290.056
290.126
289.447
289.053
289.182
289.572
289.993
289.63
289.03
288.779
288.491
288.845
289.596
289.158
288.665
288.385
287.885
288.012
288.653
288.849
288.034
287.763
287.838
288.408
289.081
289.464
288.282
288.013
287.792
287.963
288.937
289.009
287.929
287.569
287.709
288.146
288.427
287.994
287.366
286.999
286.59
286.827
287.572
287.619
286.482
286.192
286.566
287.051
287.864
287.498
286.66
286.32
286.292
286.637
287.828
287.68
286.986
286.184
286.034
286.113
288.129
287.026
285.538
285.658
285.083
285.223
286.323
286.501
285.192
284.702
285.111
285.513
286.796
286.494
285.163
284.917
284.821
285.105
286.52
286.504
285.346
284.558
284.084
284.047
286.113
285.386
284.957
284.083
283.62
284.634
284.729
285.922
284.66
283.716
283.769
284.636
286.42
285.894
284.189
283.313
283.192
284.106
286.013
286.866
284.512
283.489
284.245
285.744
285.329
285.187
284.681
283.415
283.737
284.586
285.677
286.941
284.92
284.015
284.557
285.383
287.241
287.737
286.027
284.89
285.538
286.831
288.555
289.641
287.654
286.226
286.858
288.347
290.455
290.976
288.898
287.377
287.805
289.411
291.424
291.807
289.882
288.178
288.509
290.277
292.096
292.311
290.589
288.815
289.102
290.87
292.507
292.668
291.145
289.38
289.649
291.419
292.792
292.894
291.671
289.909
290.155
291.895
292.991
293.069
292.084
290.388
290.604
292.25
293.123
293.17
292.394
290.809
291
292.531
293.235
293.312
292.653
291.182
291.354
292.767
293.379
293.416
292.864
291.52
291.68
292.952
293.429
293.431
293.022
291.833
291.977
293.083
293.433
293.447
293.134
292.107
292.222
293.184
293.489
293.541
293.227
292.323
292.419
293.275
293.589
293.625
293.321
292.511
292.605
293.372
293.65
293.662
293.415
292.696
292.786
293.457
293.665
293.665
293.486
292.865
292.936
293.511
293.662
293.655
293.525
292.991
293.038
293.537
293.65
293.644
293.541
293.072
293.103
293.547
293.641
293.636
293.549
293.124
293.146
293.553
293.634
293.63
293.553
293.161
293.177
293.555
293.628
293.623
293.555
293.187
293.199
293.554
293.62
293.613
293.552
293.205
293.213
293.549
293.609
293.602
293.544
293.215
293.218
293.54
293.598
293.59
293.532
293.218
293.217
293.526
293.586
293.578
293.516
293.215
293.213
293.51
293.574
293.565
293.498
293.208
293.205
293.491
293.56
293.551
293.478
293.199
293.195
293.47
293.546
293.535
293.456
293.187
293.183
293.448
293.529
293.518
293.433
293.175
293.17
293.424
293.511
293.499
293.409
293.161
293.157
293.4
293.492
293.48
293.386
293.148
293.144
293.376
293.472
293.46
293.362
293.135
293.131
293.353
293.452
293.439
293.339
293.123
293.119
293.33
293.431
293.419
293.317
293.111
293.107
293.308
293.411
293.398
293.295
293.099
293.096
293.287
293.39
293.377
293.275
293.089
293.085
293.267
293.37
293.357
293.255
293.078
293.075
293.248
293.349
293.336
293.237
293.068
293.065
293.23
293.329
293.316
293.218
293.058
293.055
293.212
293.309
293.297
293.201
293.048
293.045
293.195
293.29
293.278
293.184
293.038
293.034
293.178
293.271
293.26
293.168
293.027
293.024
293.162
293.253
293.242
293.152
293.016
293.013
293.147
293.236
293.224
293.136
293.005
293.002
293.131
293.218
293.207
293.121
292.994
292.99
293.116
293.201
293.19
293.106
292.982
292.978
293.1
293.184
293.173
293.09
292.97
292.965
293.085
293.167
293.156
293.075
292.957
292.952
293.069
293.15
293.14
293.059
292.943
292.939
293.054
293.133
293.123
293.044
292.929
292.924
293.038
293.117
293.106
293.028
292.914
292.909
293.022
293.1
293.09
293.012
292.899
292.894
293.006
293.084
293.073
292.996
292.884
292.878
292.989
293.067
293.056
292.979
292.868
292.862
292.973
293.05
293.039
292.962
292.851
292.846
292.956
293.033
293.022
292.945
292.834
292.828
292.938
293.016
293.005
292.928
292.818
292.81
292.921
292.999
292.987
292.91
292.8
292.792
292.903
292.981
292.97
292.892
292.783
292.773
292.885
292.963
292.952
292.874
292.765
292.755
292.867
292.945
292.933
292.855
292.746
292.737
292.848
292.927
292.915
292.836
292.726
292.718
292.83
292.909
292.896
292.817
292.707
292.7
292.811
292.89
292.878
292.798
292.687
292.68
292.791
292.871
292.859
292.779
292.667
292.661
292.772
292.852
292.839
292.759
292.648
292.641
292.752
292.832
292.82
292.739
292.628
292.621
292.732
292.813
292.8
292.719
292.608
292.601
292.712
292.793
292.78
292.699
292.588
292.581
292.692
292.773
292.76
292.679
292.568
292.561
292.671
292.752
292.74
292.658
292.548
292.541
292.651
292.732
292.719
292.638
292.528
292.521
292.63
292.711
292.698
292.617
292.508
292.501
292.609
292.69
292.677
292.596
292.487
292.48
292.588
292.669
292.656
292.575
292.467
292.46
292.567
292.648
292.635
292.554
292.447
292.44
292.546
292.627
292.614
292.533
292.427
292.42
292.525
292.606
292.592
292.512
292.407
292.4
292.504
292.584
292.571
292.491
292.387
292.38
292.484
292.563
292.55
292.47
292.367
292.36
292.463
292.542
292.529
292.45
292.347
292.34
292.442
292.521
292.507
292.429
292.327
292.32
292.421
292.5
292.487
292.408
292.307
292.301
292.401
292.479
292.466
292.388
292.288
292.281
292.381
292.459
292.445
292.368
292.269
292.262
292.36
292.438
292.425
292.347
292.249
292.243
292.34
292.418
292.404
292.327
292.23
292.224
292.321
292.397
292.384
292.308
292.211
292.205
292.301
292.377
292.364
292.288
292.193
292.186
292.281
292.357
292.344
292.268
292.174
292.168
292.262
292.338
292.325
292.249
292.155
292.15
292.242
292.318
292.305
292.23
292.137
292.131
292.223
292.299
292.286
292.211
292.119
292.114
292.205
292.279
292.267
292.193
292.102
292.096
292.186
292.261
292.248
292.174
292.084
292.078
292.168
292.242
292.23
292.156
292.067
292.061
292.15
292.223
292.211
292.138
292.05
292.044
292.132
292.205
292.193
292.121
292.033
292.027
292.114
292.185
292.175
292.104
292.017
292.011
292.096
292.166
292.158
292.089
292.003
291.995
292.078
292.141
292.136
292.072
291.987
291.958
292.055
292.124
292.116
292.047
291.931
291.913
292.029
292.1
291.701
291.375
290.38
289.911
289.813
289.385
289.12
288.953
288.87
288.719
288.64
288.477
288.349
288.249
288.174
288.121
288.085
288.061
288.045
288.035
288.028
288.024
288.021
288.018
288.017
288.016
288.015
288.014
288.014
288.014
288.013
288.013
288.013
288.014
288.014
288.014
288.014
288.014
288.014
288.015
288.015
288.015
288.016
288.016
288.017
288.017
288.017
288.017
288.018
288.021
288.024
288.029
288.034
288.042
288.05
288.059
288.07
288.082
288.096
288.11
288.127
288.146
288.167
288.19
288.216
288.246
288.278
288.315
288.356
288.402
288.454
288.511
288.575
288.645
288.723
288.809
288.904
289.008
289.122
289.245
289.378
289.522
289.675
289.839
290.011
290.193
290.383
290.58
290.784
290.993
291.207
291.425
291.644
291.866
292.087
292.309
292.529
292.747
292.962
293.174
293.382
293.586
293.785
293.979
294.167
294.351
294.529
294.701
294.867
295.028
295.184
295.334
295.478
295.618
295.752
295.881
296.005
296.124
296.239
296.349
296.455
296.556
296.654
296.747
296.837
296.924
297.007
297.086
297.162
297.236
297.306
297.373
297.438
297.5
297.559
297.616
297.671
297.723
297.774
297.822
297.868
297.912
297.955
297.996
298.035
298.072
298.108
298.142
298.175
298.207
298.237
298.267
298.294
298.321
298.347
298.372
298.395
298.418
298.44
298.461
298.482
298.501
298.52
298.538
298.555
298.572
298.588
298.603
298.618
298.632
298.646
298.659
298.671
298.683
298.694
298.705
298.716
298.726
298.735
298.744
298.752
298.76
298.768
298.775
298.782
298.788
298.794
298.799
298.804
298.809
298.813
298.818
298.821
298.825
298.827
298.83
298.832
298.834
298.836
298.837
298.838
298.839
298.839
298.839
298.84
298.84
298.84
298.84
298.84
298.84
298.84
298.84
298.841
298.842
298.844
298.847
298.85
298.854
298.857
298.861
298.865
298.869
298.874
298.878
298.883
298.888
298.893
298.898
298.903
298.909
298.914
298.92
298.926
298.932
298.938
298.945
298.951
298.958
298.964
298.971
298.978
298.985
298.992
298.999
299.006
299.014
299.021
299.028
299.036
299.043
299.051
299.058
299.066
299.073
299.081
299.088
299.096
299.103
299.111
299.118
299.125
299.132
299.139
299.146
299.153
299.16
299.167
299.174
299.18
299.186
299.193
299.199
299.205
299.211
299.216
299.222
299.227
299.232
299.237
299.242
299.247
299.251
299.255
299.259
299.263
299.266
299.27
299.272
299.274
299.274
299.274
299.274
299.274
299.274
299.274
299.275
299.276
299.277
299.278
299.279
299.28
299.282
299.283
299.285
299.286
299.289
299.29
299.293
299.294
299.297
299.299
299.301
299.303
299.305
299.308
299.31
299.313
299.315
299.318
299.32
299.323
299.325
299.328
299.33
299.334
299.336
299.339
299.342
299.345
299.348
299.351
299.354
299.358
299.36
299.364
299.366
299.371
299.373
299.377
299.38
299.384
299.387
299.392
299.394
299.399
299.402
299.407
299.41
299.416
299.419
299.424
299.427
299.433
299.436
299.443
299.446
299.452
299.456
299.462
299.466
299.473
299.476
299.484
299.487
299.495
299.498
299.506
299.509
299.517
299.52
299.528
299.531
299.539
299.542
299.55
299.553
299.56
299.563
299.57
299.573
299.58
299.583
299.589
299.591
299.597
299.599
299.604
299.605
299.609
299.61
299.613
299.613
299.614
299.613
299.613
299.611
299.611
299.607
299.606
299.601
299.599
299.594
299.592
299.585
299.583
299.576
299.573
299.566
299.563
299.556
299.552
299.545
299.542
299.535
299.532