/*--------------------------------*- C++ -*----------------------------------*\
| =========                 |                                                 |
| \\      /  F ield         | OpenFOAM: The Open Source CFD Toolbox           |
|  \\    /   O peration     | Version:  v2006                                 |
|   \\  /    A nd           | Website:  www.openfoam.com                      |
|    \\/     M anipulation  |                                                 |
\*---------------------------------------------------------------------------*/
FoamFile
{
    version     2.0;
    format      ascii;
    class       volScalarField;
    location    "0.014";
    object      nut;
}
// * * * * * * * * * * * * * * * * * * * * * * * * * * * * * * * * * * * * * //

dimensions      [0 2 -1 0 0 0 0];


internalField   nonuniform List<scalar> 
10108
(
10.8648
24.566
107.103
22.1347
5.6658
1.94841
0.927917
0.549737
0.379136
0.292498
0.244895
0.215422
0.194341
0.177275
0.162594
0.149855
0.138895
0.129512
0.121438
0.114419
0.108245
0.102766
0.0978702
0.0934727
0.0895076
0.0859235
0.0826794
0.0797375
0.0770693
0.0746471
0.0724358
0.0704153
0.0686165
0.067035
0.0656278
0.064386
0.0633055
0.0623832
0.061618
0.0610106
0.0605632
0.0602797
0.0601661
0.0602307
0.060485
0.0609441
0.0616281
0.0625631
0.0637827
0.0653316
0.0672691
0.0696736
0.0726451
0.0763058
0.0807482
0.0860827
0.0925292
0.100942
0.113915
0.139635
0.197219
0.325261
0.541835
1.08095
0.746454
0.557867
0.344553
0.180811
0.0745078
0.0143619
0.00261231
8.83835e-05
7.66593e-05
0.00127823
0.00565667
0.00358163
0.000931685
6.88815e-05
6.19804e-05
0.000808611
0.00286429
0.00243203
0.00073276
5.82965e-05
5.4309e-05
0.000664174
0.00215696
0.00193983
0.000624207
5.16443e-05
4.94047e-05
0.000589442
0.0018172
0.00168862
0.000561573
4.74908e-05
4.62286e-05
0.000548735
0.00162472
0.00153059
0.000526178
4.4905e-05
4.40693e-05
0.000519366
0.00149577
0.00142584
0.000501455
4.30631e-05
4.24643e-05
0.000497238
0.00140162
0.00134618
0.000482494
4.16729e-05
4.12076e-05
0.000479286
0.0013278
0.00128086
0.000466671
4.05462e-05
4.0157e-05
0.000463772
0.00126588
0.0012243
0.0004524
3.9573e-05
3.92275e-05
0.0004496
0.00121121
0.00117309
0.000438909
3.86925e-05
3.83743e-05
0.00043615
0.00116114
0.00112547
0.000425957
3.78771e-05
3.75839e-05
0.000423272
0.00111437
0.00108077
0.000413593
3.71244e-05
3.68538e-05
0.000411048
0.00107053
0.00103893
0.00040196
3.64283e-05
3.61813e-05
0.000399598
0.0010296
0.00100018
0.000391165
3.57888e-05
3.55635e-05
0.000388998
0.000991767
0.000964575
0.00038119
3.51974e-05
3.4989e-05
0.000379209
0.00095705
0.000931969
0.000371925
3.46406e-05
3.44428e-05
0.000370087
0.000925155
0.000901847
0.000363168
3.41026e-05
3.39089e-05
0.000361414
0.000895547
0.000873585
0.00035469
3.35679e-05
3.3372e-05
0.00035297
0.000867572
0.000846494
0.00034629
3.30223e-05
3.28188e-05
0.000344566
0.000840572
0.000820004
0.000337824
3.24546e-05
3.22399e-05
0.000336074
0.000814044
0.00079374
0.000329209
3.18582e-05
3.16316e-05
0.000327418
0.000787664
0.00076747
0.000320397
3.12322e-05
3.09949e-05
0.000318552
0.000761244
0.000741079
0.000311362
3.05792e-05
3.03334e-05
0.000309434
0.000734687
0.000714505
0.000302069
2.99022e-05
2.96496e-05
0.000300039
0.000707938
0.000687696
0.000292483
2.92024e-05
2.89426e-05
0.000290327
0.000680932
0.000660557
0.000282544
2.84759e-05
2.82059e-05
0.000280224
0.000653558
0.000632919
0.000272147
2.77128e-05
2.74269e-05
0.000269581
0.000625591
0.000604444
0.000261103
2.68977e-05
2.65865e-05
0.00025818
0.000596637
0.000574736
0.000249138
2.60112e-05
2.56567e-05
0.000245686
0.000566115
0.000543039
0.000235973
2.50375e-05
2.45959e-05
0.000231197
0.000532985
0.000508188
0.000221065
2.39436e-05
2.33597e-05
0.000213902
0.000494881
0.000468313
0.000202964
2.26569e-05
2.18698e-05
0.000192456
0.000449257
0.000419584
0.000179706
2.09545e-05
2.01813e-05
0.000162929
0.000391186
0.000351897
0.000145427
1.97113e-05
1.87226e-05
0.000120212
0.000311569
0.000238675
6.70155e-05
1.03158e-05
6.41954e-06
2.93763e-05
0.000144168
0.000103737
4.45731e-05
1.15762e-05
1.67871e-05
9.83139e-05
0.000108637
0.000191187
0.000148425
1.97194e-05
2.079e-05
0.000185149
0.000252615
0.000293031
0.000201971
2.00209e-05
1.72075e-05
0.000207673
0.000340722
0.000338681
0.000157734
1.13422e-05
8.87411e-06
0.000119081
0.000324465
0.000303136
9.20424e-05
8.04612e-06
8.75462e-06
9.23633e-05
0.000309797
0.00029947
8.40934e-05
9.71187e-06
1.13773e-05
0.000105625
0.000351096
0.000354479
0.000103978
1.24176e-05
1.41196e-05
0.000134867
0.000424103
0.000437062
0.000137613
1.48271e-05
1.5885e-05
0.000167798
0.000502311
0.000511036
0.000171857
1.60237e-05
1.68959e-05
0.000193361
0.000564862
0.000582646
0.000200306
1.68507e-05
1.76671e-05
0.000220976
0.00063229
0.000670203
0.000235882
1.78451e-05
1.84038e-05
0.00025498
0.000718925
0.000775025
0.000277512
1.90399e-05
1.90738e-05
0.00029101
0.000810007
0.000828229
0.000295397
2.05191e-05
2.23921e-05
0.000301154
0.000848857
0.000844683
0.000297008
2.35129e-05
2.45817e-05
0.000291285
0.00083424
0.000797943
0.000276302
2.48673e-05
2.45749e-05
0.00025831
0.00075223
0.000691657
0.000236097
2.1734e-05
1.96343e-05
0.000217588
0.000641977
0.000595768
0.000200286
1.81676e-05
1.71501e-05
0.000187864
0.000564514
0.000543304
0.000179229
1.65324e-05
1.6138e-05
0.000173251
0.000529258
0.000520401
0.000169977
1.58887e-05
1.57161e-05
0.00016741
0.000511546
0.00050505
0.000165508
1.56225e-05
1.54609e-05
0.000162295
0.000492632
0.000483137
0.000159899
1.53284e-05
1.51454e-05
0.000155421
0.000466458
0.000457559
0.000153199
1.50018e-05
1.48076e-05
0.000148607
0.000442135
0.000433802
0.000146554
1.46727e-05
1.44831e-05
0.000141311
0.000417142
0.000405882
0.000138218
1.43208e-05
1.40382e-05
0.00012959
0.000381472
0.000367817
0.000125563
1.38286e-05
1.34552e-05
0.000114622
0.000337781
0.000324927
0.000110306
1.32142e-05
1.29442e-05
0.00010161
0.000300553
0.000294
9.98189e-05
1.28276e-05
1.27627e-05
9.61761e-05
0.000281242
0.000277652
9.60239e-05
1.2732e-05
1.2713e-05
9.36788e-05
0.000267015
0.000259618
9.24695e-05
1.26959e-05
1.26661e-05
8.76186e-05
0.000240566
0.000230894
8.49198e-05
1.26152e-05
1.25974e-05
7.92357e-05
0.000211883
0.000202672
7.66586e-05
1.25077e-05
1.25016e-05
7.05923e-05
0.000186025
0.000176298
6.52961e-05
1.2385e-05
1.24239e-05
6.03634e-05
0.000163229
0.000157299
5.75522e-05
1.22883e-05
1.23531e-05
5.63077e-05
0.000153295
0.000157195
5.91558e-05
1.21731e-05
2.18797e-05
5.8668e-05
0.000156381
0.000248157
0.000187231
0.000137684
0.00019839
0.000206694
0.000211304
0.000277283
0.000300107
0.000258914
0.000249077
0.000189498
0.0002072
6.27573e-05
4.46385e-05
8.91892e-05
0.000256354
0.000499806
0.000499716
0.000499793
0.000500105
0.00049992
0.000500302
5.03546e-05
2.2458e-05
3.26637e-05
5.72774e-06
3.65493e-06
3.14691e-06
9.22486e-06
1.91652e-05
2.27551e-05
6.87987e-06
4.6461e-06
7.74888e-06
9.28847e-06
2.26807e-05
2.28367e-05
9.63337e-06
9.75224e-06
1.05883e-05
1.37249e-05
1.9395e-05
1.90069e-05
1.37943e-05
1.07274e-05
1.07825e-05
1.72864e-05
1.73258e-05
1.70454e-05
1.73901e-05
1.05858e-05
1.04489e-05
2.037e-05
1.67209e-05
1.65722e-05
2.03806e-05
1.02198e-05
1.00923e-05
2.27677e-05
1.72824e-05
1.72776e-05
2.34244e-05
9.91885e-06
9.79912e-06
2.51681e-05
1.83783e-05
1.84474e-05
2.64024e-05
9.66166e-06
9.56294e-06
2.7647e-05
2.01983e-05
2.0346e-05
2.90346e-05
9.46996e-06
9.39936e-06
3.01085e-05
2.27199e-05
2.29067e-05
3.1366e-05
9.34115e-06
9.2881e-06
3.23953e-05
2.54425e-05
2.569e-05
3.35827e-05
9.27066e-06
9.23426e-06
3.45925e-05
2.82778e-05
2.85858e-05
3.56999e-05
9.24967e-06
9.2246e-06
3.66668e-05
3.12106e-05
3.15724e-05
3.76458e-05
9.25579e-06
9.24323e-06
3.85434e-05
3.41388e-05
3.45903e-05
3.93617e-05
9.27881e-06
9.27254e-06
4.01509e-05
3.70794e-05
3.76295e-05
4.08671e-05
9.30736e-06
9.29967e-06
4.13635e-05
4.00014e-05
4.06494e-05
4.19536e-05
9.32931e-06
9.31788e-06
4.23218e-05
4.29044e-05
4.36379e-05
4.27959e-05
9.34257e-06
9.33228e-06
4.30999e-05
4.57577e-05
4.6596e-05
4.34416e-05
9.35199e-06
9.34451e-06
4.36998e-05
4.85693e-05
4.95067e-05
4.39403e-05
9.35959e-06
9.36084e-06
4.4161e-05
5.12991e-05
5.22909e-05
4.43508e-05
9.37604e-06
9.37898e-06
4.45393e-05
5.38811e-05
5.49014e-05
4.47413e-05
9.40999e-06
9.41168e-06
4.49409e-05
5.62394e-05
5.72516e-05
4.51267e-05
9.46104e-06
9.46734e-06
4.54003e-05
5.82492e-05
5.92456e-05
4.56683e-05
9.54197e-06
9.56834e-06
4.60664e-05
5.98166e-05
6.04608e-05
4.65867e-05
9.68647e-06
9.75791e-06
4.71686e-05
6.10509e-05
6.04489e-05
4.73919e-05
9.95701e-06
1.00568e-05
4.75471e-05
6.10241e-05
5.9986e-05
4.74286e-05
1.02406e-05
1.04617e-05
4.80362e-05
5.99556e-05
5.90805e-05
4.79851e-05
1.05647e-05
1.07377e-05
4.91642e-05
5.87337e-05
5.7474e-05
4.95153e-05
1.09559e-05
1.11048e-05
5.02692e-05
5.69653e-05
5.55705e-05
5.09683e-05
1.13103e-05
1.15146e-05
5.22539e-05
5.45697e-05
5.36843e-05
5.36809e-05
1.17943e-05
1.21487e-05
5.51871e-05
5.17264e-05
5.14145e-05
5.70327e-05
1.26933e-05
1.25995e-05
4.57928e-05
3.49134e-05
3.88254e-05
3.48821e-05
1.08488e-05
9.03033e-06
3.40962e-05
4.29261e-05
4.16338e-05
3.40301e-05
1.12513e-05
1.21373e-05
3.30964e-05
3.95475e-05
3.94281e-05
3.28212e-05
1.27427e-05
1.30133e-05
3.205e-05
3.87011e-05
3.86439e-05
3.205e-05
1.33481e-05
1.25036e-05
1.922e-05
4.73304e-05
3.11333e-05
2.87213e-05
1.09586e-05
8.91334e-06
2.71492e-05
3.23517e-05
3.32167e-05
2.61087e-05
1.11139e-05
1.20602e-05
2.6076e-05
3.34794e-05
3.8303e-05
9.62932e-06
1.11095e-05
1.03193e-05
2.89645e-05
3.01994e-05
3.15159e-05
2.71864e-05
8.50162e-06
1.01604e-05
2.76874e-05
3.24251e-05
2.15833e-05
2.65169e-06
9.24009e-06
9.60391e-06
3.55977e-05
3.56844e-05
1.50775e-05
1.92739e-05
7.2871e-06
7.54231e-06
1.64523e-05
1.65822e-05
1.78463e-05
3.60688e-05
1.17659e-05
1.87273e-05
3.88456e-05
3.89265e-05
4.52005e-05
3.61171e-05
2.89286e-05
6.23537e-06
2.28456e-05
5.16546e-05
2.54465e-05
1.78498e-05
6.75577e-06
7.20826e-06
4.73484e-05
7.46661e-05
4.12063e-05
1.39092e-05
3.45154e-06
6.05501e-06
1.31287e-05
3.14052e-05
8.294e-05
4.77293e-05
1.00508e-05
6.85389e-06
2.07016e-05
5.86445e-05
5.46621e-05
2.37681e-05
1.16374e-05
1.45754e-05
7.93919e-05
0.000138798
9.62421e-05
3.51433e-05
1.06788e-05
1.38265e-05
3.60004e-05
8.03337e-05
0.000204929
0.000115824
1.74837e-05
1.26064e-05
5.1616e-05
0.000136453
0.000109443
4.92026e-05
1.56753e-05
2.00084e-05
0.000160091
0.00027874
0.000181862
6.88205e-05
1.41176e-05
1.72214e-05
6.20371e-05
0.000140482
0.000360539
0.000209426
2.24111e-05
1.53506e-05
8.74757e-05
0.000231511
0.00017297
7.37683e-05
1.84159e-05
2.43103e-05
0.000261189
0.000446961
0.000278666
0.000104435
1.60739e-05
1.92104e-05
8.28814e-05
0.000201615
0.000529551
0.000306838
2.58643e-05
1.65797e-05
0.000116551
0.000314124
0.00022399
8.93483e-05
1.9665e-05
2.66996e-05
0.000345234
0.000593937
0.000346938
0.000126117
1.67894e-05
1.97271e-05
9.34423e-05
0.000243625
0.000652207
0.000368666
2.70828e-05
1.68423e-05
0.000129062
0.000360727
0.00024641
9.25184e-05
1.9664e-05
2.74723e-05
0.000366218
0.000667038
0.00035629
0.00012244
1.6555e-05
1.87837e-05
8.18604e-05
0.000230419
0.000683614
0.00038787
2.48378e-05
2.39045e-05
0.000127022
0.000365734
0.000937537
0.000511766
3.27408e-05
1.77886e-05
0.000155373
0.000465487
0.000308129
0.000103911
2.04607e-05
2.95621e-05
0.000440518
0.000849903
0.000412575
0.000133008
1.64971e-05
1.84716e-05
8.04274e-05
0.000243601
0.000738759
0.000370425
2.65432e-05
2.37109e-05
0.000118638
0.000354611
0.000915566
0.00048932
3.5082e-05
1.76025e-05
0.000141061
0.000426269
0.00026041
8.35886e-05
1.96816e-05
3.02476e-05
0.000359982
0.00077555
0.000380654
0.000122402
2.58698e-05
4.10513e-05
0.000495987
0.000964342
0.000472899
0.000158162
1.92295e-05
2.13419e-05
8.88117e-05
0.000296544
0.000903353
0.00039576
3.46134e-05
2.96279e-05
0.000137113
0.000448748
0.00110712
0.00052786
4.52392e-05
1.7493e-05
0.00017441
0.000521398
0.000297554
8.40435e-05
1.81632e-05
3.06695e-05
0.000370488
0.000868889
0.000434344
0.000130053
2.58843e-05
4.12975e-05
0.00047379
0.00107823
0.000549187
0.000183071
1.55072e-05
1.59976e-05
9.43985e-05
0.000341276
0.000920628
0.000373595
3.03647e-05
2.57689e-05
0.000165985
0.000545697
0.00128938
0.000517577
4.56802e-05
1.72629e-05
0.000255712
0.00074195
0.000574408
0.000160221
1.33602e-05
2.44164e-05
0.000322918
0.00085707
0.000742426
0.000228491
1.67126e-05
2.68889e-05
0.000342883
0.000914513
0.000972606
0.000347893
2.62904e-05
3.24107e-05
0.000397184
0.0010708
0.000661256
0.00021903
1.19627e-05
1.47955e-05
0.000256866
0.000749997
0.000690661
0.000235698
1.40778e-05
2.26192e-05
0.000324248
0.000883916
0.000723459
0.000243928
1.72556e-05
3.5395e-05
0.000426943
0.00108377
0.000993504
0.000362062
3.30904e-05
9.59733e-06
0.000135034
0.000488034
0.000880578
0.000340581
2.52375e-05
1.44252e-05
0.000137974
0.000449904
0.000973798
0.000389546
3.06013e-05
1.83311e-05
0.000129961
0.0004178
0.000949792
0.000408373
3.34116e-05
2.18885e-05
0.000130018
0.000408718
0.00090881
0.000385271
3.64869e-05
3.45112e-05
0.000279335
0.000789225
0.000257141
6.40741e-05
1.27665e-05
2.3836e-05
0.000300988
0.000662945
0.000267854
8.13032e-05
1.69873e-05
2.82955e-05
0.000328467
0.000655612
0.000276358
8.82125e-05
2.02213e-05
2.93857e-05
0.000337848
0.000655639
0.00028303
9.44091e-05
2.11988e-05
2.90138e-05
0.000310897
0.000688541
0.000603914
0.000226877
2.71322e-05
1.43264e-05
4.96152e-05
0.000181233
0.000476436
0.000262232
2.02877e-05
1.66787e-05
7.0551e-05
0.000209241
0.000512599
0.000281819
2.20594e-05
1.80018e-05
7.80515e-05
0.000219769
0.000507127
0.000283873
2.20778e-05
1.84532e-05
8.11289e-05
0.000217789
0.000494199
0.000281255
2.19587e-05
1.90661e-05
8.47498e-05
0.00021653
0.000523407
0.000244305
2.22775e-05
2.25243e-05
0.000175473
0.000435846
0.000127686
4.66174e-05
1.37271e-05
1.59691e-05
0.000208613
0.000320259
0.000145654
6.25118e-05
1.55469e-05
1.70296e-05
0.000203833
0.000337057
0.000151431
6.62582e-05
1.6231e-05
1.72982e-05
0.000202683
0.000335487
0.000153658
6.92158e-05
1.65726e-05
1.75167e-05
0.000206086
0.000336673
0.000158078
7.37532e-05
1.71466e-05
1.85668e-05
0.000181444
0.000371205
0.000309105
0.000137495
2.006e-05
1.35549e-05
4.46597e-05
0.000101939
0.00022857
0.000160531
1.41546e-05
1.50591e-05
5.64649e-05
0.000112702
0.000250342
0.000159021
1.50533e-05
1.56297e-05
5.98924e-05
0.000120708
0.000251899
0.000157759
1.51897e-05
1.58827e-05
6.23327e-05
0.000124102
0.000253171
0.000160574
1.54534e-05
1.63572e-05
6.51472e-05
0.000127821
0.000275972
0.000139039
1.63038e-05
1.87563e-05
0.000109897
0.000221252
8.61777e-05
4.31166e-05
1.33759e-05
1.25307e-05
0.000124143
0.00016498
9.12492e-05
5.16147e-05
1.44105e-05
1.31343e-05
0.000121008
0.000174017
9.57121e-05
5.33494e-05
1.47545e-05
1.32639e-05
0.000119654
0.000176167
9.72743e-05
5.42169e-05
1.4717e-05
1.33063e-05
0.000120098
0.000178384
9.96595e-05
5.65334e-05
1.51222e-05
1.43564e-05
0.000109165
0.000200483
0.000165811
9.07276e-05
1.73332e-05
1.29293e-05
4.33613e-05
7.4823e-05
0.000127568
0.000102034
1.15717e-05
1.39284e-05
5.1176e-05
7.75431e-05
0.000136365
0.00010128
1.21615e-05
1.42053e-05
5.30784e-05
8.20969e-05
0.000141658
0.000100573
1.23042e-05
1.43344e-05
5.43882e-05
8.53251e-05
0.000146147
0.000103163
1.24372e-05
1.47706e-05
5.57332e-05
8.83511e-05
0.000163685
9.62077e-05
1.34504e-05
1.67238e-05
8.1473e-05
0.000137403
6.95425e-05
4.60903e-05
1.28462e-05
1.1219e-05
9.00692e-05
0.000108998
7.19028e-05
5.38359e-05
1.39044e-05
1.17514e-05
9.02674e-05
0.000110694
7.32206e-05
5.49149e-05
1.41529e-05
1.16885e-05
8.62696e-05
0.000112367
7.46703e-05
5.54701e-05
1.42304e-05
1.19874e-05
8.66074e-05
0.000115943
7.65305e-05
5.64186e-05
1.49126e-05
1.32157e-05
8.51749e-05
0.000130147
0.00011415
7.57878e-05
1.68001e-05
1.31303e-05
5.09583e-05
6.5328e-05
9.63031e-05
8.29944e-05
1.11329e-05
1.4247e-05
5.63871e-05
6.83299e-05
0.000100273
8.36977e-05
1.17611e-05
1.48225e-05
5.82943e-05
7.09006e-05
0.000103798
8.24011e-05
1.22936e-05
1.5452e-05
6.10752e-05
7.23342e-05
0.000117197
8.00046e-05
1.33459e-05
1.72104e-05
7.29701e-05
0.000103809
6.28873e-05
5.40878e-05
1.36559e-05
1.13353e-05
8.00991e-05
8.8698e-05
6.53806e-05
5.81104e-05
1.49038e-05
1.22068e-05
7.80683e-05
9.32597e-05
6.84152e-05
6.00014e-05
1.55909e-05
1.27116e-05
7.78163e-05
9.69694e-05
7.07104e-05
6.43385e-05
1.63494e-05
1.40858e-05
7.90379e-05
0.000111105
0.000100319
7.41233e-05
1.81704e-05
1.47221e-05
6.00178e-05
6.46184e-05
9.16764e-05
8.19506e-05
1.22901e-05
1.63497e-05
6.47577e-05
6.93948e-05
9.90332e-05
8.21587e-05
1.34007e-05
1.73516e-05
6.87839e-05
7.35833e-05
0.000112511
8.15903e-05
1.47684e-05
1.91868e-05
7.70976e-05
0.000102255
6.83881e-05
6.37586e-05
1.54358e-05
1.28304e-05
8.41125e-05
9.25198e-05
7.22797e-05
6.79457e-05
1.72494e-05
1.41602e-05
8.30829e-05
9.995e-05
7.6387e-05
7.22851e-05
1.84119e-05
1.5593e-05
8.35384e-05
0.000112815
0.00010402
8.01743e-05
2.05159e-05
1.66117e-05
6.92629e-05
7.27742e-05
9.54779e-05
8.73802e-05
1.36747e-05
1.875e-05
7.47438e-05
7.63581e-05
0.00010878
8.34402e-05
1.60195e-05
2.1428e-05
8.09437e-05
0.000101486
7.34182e-05
7.10707e-05
1.74881e-05
1.44118e-05
8.68617e-05
9.36595e-05
7.72932e-05
7.6686e-05
1.94168e-05
1.63094e-05
8.35158e-05
0.00010622
9.98282e-05
8.18877e-05
2.2135e-05
1.84655e-05
7.45222e-05
7.53778e-05
9.33039e-05
8.77248e-05
1.52124e-05
2.05625e-05
8.01817e-05
7.91661e-05
0.00010521
8.51514e-05
1.70431e-05
2.25491e-05
8.34225e-05
9.94607e-05
7.7376e-05
7.68351e-05
1.88942e-05
1.57024e-05
8.78972e-05
9.28206e-05
8.08172e-05
8.34916e-05
2.15409e-05
1.80476e-05
8.66994e-05
0.000105162
9.98136e-05
8.64148e-05
2.42567e-05
1.98119e-05
8.2755e-05
8.13941e-05
9.58676e-05
9.29363e-05
1.60706e-05
2.25159e-05
8.93546e-05
8.49225e-05
0.000109215
9.08106e-05
1.90943e-05
2.58237e-05
9.13469e-05
0.000104301
8.71127e-05
9.13964e-05
2.18055e-05
1.82658e-05
9.69299e-05
0.000106743
0.00010304
9.61614e-05
2.52815e-05
2.26209e-05
9.38937e-05
8.9024e-05
0.000106708
9.83903e-05
1.95782e-05
2.74056e-05
9.67632e-05
0.000103474
9.09381e-05
9.58744e-05
2.35904e-05
1.96764e-05
9.79862e-05
0.00010683
0.000103715
9.75222e-05
2.76417e-05
2.46681e-05
9.94299e-05
9.26717e-05
0.000108106
0.000100744
2.11439e-05
2.92056e-05
9.84613e-05
0.000105336
9.45747e-05
0.000101445
2.52617e-05
2.15125e-05
0.000102257
0.000109405
0.000106681
0.000101954
3.0892e-05
2.73388e-05
0.000110012
9.93074e-05
0.000113752
0.000106974
2.25241e-05
3.243e-05
0.000116846
0.000113336
0.000108839
0.000114792
3.14575e-05
2.91577e-05
0.000116126
0.000105558
0.000118913
0.000112496
2.48968e-05
3.61276e-05
0.000112295
0.000118021
0.000113665
0.0001267
3.79898e-05
3.40637e-05
0.000118097
0.00011124
0.00011004
0.000119406
3.27465e-05
2.86848e-05
0.000114983
0.000120617
0.000119706
0.000112826
4.304e-05
4.39534e-05
0.00012692
0.000115718
0.00011469
0.000121859
4.69645e-05
5.05798e-05
0.000127886
0.000114541
0.000113662
0.000124023
5.56875e-05
5.96251e-05
0.000130057
0.000114865
0.000115103
0.000131141
6.21192e-05
6.18189e-05
0.000139447
0.000116989
0.000117606
0.000144043
5.96244e-05
5.72552e-05
0.000151515
0.000120695
0.000122393
0.000158934
5.46374e-05
5.21895e-05
0.000166863
0.000127451
0.000129876
0.000174321
4.97214e-05
4.76109e-05
0.000182336
0.000137166
0.000140073
0.000181814
4.56467e-05
4.39999e-05
0.000187391
0.000149214
0.000153229
0.000189439
4.25096e-05
4.1235e-05
0.000192234
0.000166547
0.000171732
0.00019434
4.00741e-05
3.9083e-05
0.000196964
0.000187288
0.00019304
0.000199207
3.81875e-05
3.74287e-05
0.000202331
0.000208945
0.000215372
0.000205016
3.67574e-05
3.61849e-05
0.000208396
0.000231519
0.000237005
0.000211522
3.57112e-05
3.52841e-05
0.000215269
0.000253803
0.000254741
0.000218732
3.49902e-05
3.46521e-05
0.000222651
0.000270961
0.000271629
0.000226528
3.45414e-05
3.4252e-05
0.000230654
0.000287501
0.000288329
0.000234789
3.43031e-05
3.40722e-05
0.000238643
0.000303551
0.000304113
0.000242674
3.41843e-05
3.40274e-05
0.000246485
0.000318596
0.00031888
0.000250238
3.41626e-05
3.40788e-05
0.000253842
0.000332432
0.000332432
0.00025731
3.42104e-05
3.41594e-05
0.00026075
0.000345095
0.000344833
0.000263785
3.42827e-05
3.42538e-05
0.000266922
0.000356438
0.00035605
0.000269575
3.43667e-05
3.43449e-05
0.000272519
0.000366882
0.00036632
0.000274768
3.44464e-05
3.44309e-05
0.000277309
0.000376352
0.000375705
0.000279233
3.45208e-05
3.45016e-05
0.000281493
0.000385115
0.000384313
0.000283029
3.45799e-05
3.45562e-05
0.000284942
0.000393101
0.000392205
0.000286202
3.46272e-05
3.45966e-05
0.000287912
0.000400602
0.000399583
0.000288846
3.46616e-05
3.46283e-05
0.000290276
0.000407419
0.000406363
0.000290997
3.46897e-05
3.46484e-05
0.000292294
0.000413885
0.000412689
0.000292761
3.4705e-05
3.46624e-05
0.000293766
0.000420154
0.000418634
0.000294178
3.46871e-05
3.46944e-05
0.000295078
0.00042591
0.000424441
0.00029524
3.47178e-05
3.46701e-05
0.000296141
0.000431559
0.000429991
0.000296186
3.47212e-05
3.46695e-05
0.000297042
0.000436882
0.000435129
0.000296944
3.47193e-05
3.4669e-05
0.000297676
0.000442059
0.000439943
0.000297496
3.4718e-05
3.46657e-05
0.000298197
0.000446771
0.000444357
0.000297908
3.47135e-05
3.46631e-05
0.000298498
0.000451217
0.000448657
0.000298158
3.47098e-05
3.46584e-05
0.000298722
0.000455334
0.000452544
0.000298291
3.47033e-05
3.46531e-05
0.000298778
0.000459316
0.000456404
0.00029834
3.4698e-05
3.46487e-05
0.000298793
0.00046301
0.000459891
0.000298264
3.46914e-05
3.46434e-05
0.00029865
0.000466535
0.000463314
0.000298137
3.46853e-05
3.46379e-05
0.000298511
0.000469812
0.0004664
0.000297913
3.4678e-05
3.46327e-05
0.000298222
0.000472903
0.000469417
0.000297653
3.46717e-05
3.46274e-05
0.000297972
0.000475803
0.000472143
0.000297321
3.46646e-05
3.4622e-05
0.000297576
0.000478496
0.00047479
0.000296968
3.4658e-05
3.46169e-05
0.000297257
0.000480313
0.000477096
0.000296568
3.46513e-05
3.46123e-05
0.000296795
0.000481243
0.000479154
0.000296146
3.4645e-05
3.46075e-05
0.000296403
0.00048192
0.000480963
0.000295671
3.46382e-05
3.46026e-05
0.000295863
0.00048248
0.000482549
0.00029517
3.46313e-05
3.4597e-05
0.000295392
0.000482846
0.000483944
0.000294619
3.46234e-05
3.45912e-05
0.000294786
0.000483138
0.000485149
0.000294055
3.46155e-05
3.45845e-05
0.000294263
0.00048327
0.000486206
0.000293459
3.46069e-05
3.45777e-05
0.000293617
0.000483357
0.00048636
0.000292865
3.45983e-05
3.45702e-05
0.000293069
0.000483275
0.00048611
0.000292247
3.45892e-05
3.45629e-05
0.000292393
0.000483086
0.0004861
0.000291626
3.45802e-05
3.45548e-05
0.000291821
0.000482846
0.000485682
0.000290987
3.45705e-05
3.45467e-05
0.000291126
0.000482493
0.000485517
0.000290351
3.45607e-05
3.45379e-05
0.000290548
0.000482111
0.000484967
0.00028971
3.45506e-05
3.45293e-05
0.000289852
0.000481644
0.000484697
0.000289085
3.45404e-05
3.45199e-05
0.000289284
0.000481174
0.000484073
0.000288455
3.45299e-05
3.45107e-05
0.000288601
0.000480642
0.000483741
0.000287854
3.45194e-05
3.45008e-05
0.000288052
0.000480121
0.000483069
0.000287245
3.45086e-05
3.44913e-05
0.000287393
0.000479552
0.000482705
0.000286671
3.4498e-05
3.44813e-05
0.000286875
0.000479009
0.000482013
0.000286095
3.44874e-05
3.44718e-05
0.000286251
0.000478429
0.000481646
0.000285555
3.44772e-05
3.44621e-05
0.000285769
0.000477884
0.000480942
0.000285017
3.44671e-05
3.4453e-05
0.000285183
0.000477305
0.000480576
0.000284515
3.44574e-05
3.44439e-05
0.000284739
0.000476769
0.000479889
0.000284015
3.44481e-05
3.44355e-05
0.000284193
0.000476207
0.000479534
0.000283553
3.44393e-05
3.44272e-05
0.000283789
0.000475688
0.000478863
0.000283092
3.44309e-05
3.44196e-05
0.000283283
0.000475147
0.00047853
0.000282669
3.4423e-05
3.44122e-05
0.000282919
0.000474655
0.000477884
0.000282247
3.44154e-05
3.44054e-05
0.000282451
0.000474142
0.000477564
0.000281859
3.44085e-05
3.43986e-05
0.000282122
0.000473672
0.00047694
0.000281472
3.44016e-05
3.43924e-05
0.000281688
0.000473187
0.00047663
0.000281118
3.43954e-05
3.43863e-05
0.000281391
0.000472745
0.000476044
0.000280761
3.43891e-05
3.43805e-05
0.00028099
0.000472304
0.000475781
0.000280439
3.43833e-05
3.43748e-05
0.000280727
0.000471911
0.000475244
0.00028012
3.43775e-05
3.43696e-05
0.000280362
0.000471523
0.000475035
0.000279835
3.43724e-05
3.43646e-05
0.000280137
0.000471187
0.000474559
0.000279553
3.43674e-05
3.43604e-05
0.000279812
0.000470859
0.000474411
0.000279309
3.43635e-05
3.43566e-05
0.000279627
0.000470585
0.000473997
0.000279067
3.43599e-05
3.43539e-05
0.000279342
0.00047032
0.000473911
0.00027886
3.43575e-05
3.43517e-05
0.000279195
0.000470104
0.000473551
0.000278656
3.43556e-05
3.43506e-05
0.000278945
0.00046989
0.000473513
0.000278484
3.43549e-05
3.43501e-05
0.000278829
0.00046972
0.000473196
0.000278308
3.43546e-05
3.43503e-05
0.000278608
0.000469545
0.000473194
0.000278162
3.4355e-05
3.43506e-05
0.000278519
0.000469408
0.000472908
0.000278012
3.43556e-05
3.43517e-05
0.000278321
0.000469264
0.000472938
0.000277888
3.43566e-05
3.43527e-05
0.000278251
0.000469158
0.000472679
0.000277756
3.43577e-05
3.43542e-05
0.00027807
0.000469037
0.000472728
0.000277649
3.43591e-05
3.43555e-05
0.000278017
0.000468948
0.000472485
0.000277534
3.43606e-05
3.43574e-05
0.000277856
0.000468845
0.000472558
0.000277446
3.43625e-05
3.43592e-05
0.000277824
0.000468785
0.000472351
0.000277353
3.43646e-05
3.43617e-05
0.000277683
0.000468723
0.000472464
0.000277285
3.43673e-05
3.43643e-05
0.000277667
0.000468699
0.000472284
0.000277206
3.43703e-05
3.43677e-05
0.000277541
0.000468654
0.000472407
0.000277152
3.43739e-05
3.43713e-05
0.00027754
0.000468637
0.000472239
0.000277085
3.43777e-05
3.43756e-05
0.000277425
0.00046861
0.000472382
0.000277042
3.43821e-05
3.43799e-05
0.000277423
0.000468573
0.000472274
0.000276992
3.43854e-05
3.43838e-05
0.000277383
0.000468661
0.000472213
0.000277178
3.44139e-05
3.44301e-05
0.000277495
0.000468683
0.000472385
0.000277013
3.44357e-05
3.4453e-05
0.000277476
0.000468665
0.000472682
0.000277333
3.45139e-05
3.45873e-05
0.000278007
0.000469257
0.00047467
0.000278202
3.47408e-05
3.47495e-05
0.000279322
0.000471214
0.000477964
0.000279868
3.51232e-05
3.51951e-05
0.00028073
0.000474294
0.000488947
0.000284903
3.64e-05
3.78605e-05
0.000292695
0.000511591
0.000528409
0.000306406
3.97239e-05
0.000696422
0.000834964
0.00113322
0.0012101
0.00130087
0.00255433
0.00340896
0.00393111
0.00449768
0.0099776
0.0128741
0.0164307
0.0209571
0.0270295
0.0358227
0.0486819
0.0671721
0.0924625
0.125411
0.166369
0.215243
0.271446
0.334017
0.401451
0.472129
0.543049
0.611769
0.672968
0.72391
0.76104
0.784353
0.795444
0.80546
0.821954
0.84367
0.869584
0.898877
0.93157
0.967309
1.00685
1.05072
1.10011
1.15638
1.22158
1.29861
1.35398
1.00933
0.747835
0.605713
0.528097
0.480141
0.444587
0.413686
0.384416
0.356008
0.32856
0.302334
0.277405
0.253766
0.231402
0.210342
0.190641
0.172354
0.155502
0.140101
0.12609
0.113424
0.10202
0.0917987
0.0826536
0.0745005
0.0672534
0.0608183
0.0551348
0.0501177
0.0457003
0.0418312
0.0384399
0.035482
0.0329108
0.030676
0.0287478
0.0270866
0.0256632
0.0244502
0.0234226
0.0225602
0.0218429
0.021256
0.0207838
0.0204159
0.0201397
0.0199481
0.0198311
0.0197824
0.0197957
0.019866
0.0199886
0.0201596
0.0203755
0.0206332
0.0209294
0.0212645
0.0216339
0.0220361
0.022471
0.0229378
0.0234366
0.0239667
0.0245293
0.025123
0.0257517
0.0264107
0.0271075
0.0278404
0.0286114
0.0294221
0.0302756
0.0311746
0.0321194
0.0331129
0.0341535
0.0352471
0.0363924
0.0375921
0.0388488
0.0401652
0.0415442
0.0429902
0.0445082
0.0461044
0.0477872
0.0495668
0.0514552
0.0534665
0.0556171
0.0579256
0.0604119
0.0630976
0.0660046
0.0691546
0.0725682
0.0762651
0.0802639
0.0845813
0.0892337
0.0942378
0.0996153
0.105394
0.11161
0.118315
0.125583
0.133519
0.142275
0.152057
0.16315
0.175976
0.191213
0.21017
0.235502
0.272178
0.329798
0.429348
0.618958
0.999547
1.78746
3.30798
5.94408
10.6605
6.41118
3.38413
1.83089
1.02549
0.627698
0.436672
0.341525
0.290282
0.259382
0.237169
0.218228
0.2009
0.185201
0.171392
0.159462
0.149168
0.140211
0.132338
0.125363
0.119149
0.113593
0.108609
0.104118
0.100047
0.0963546
0.092989
0.0899379
0.0872715
0.0849283
0.0827431
0.0807338
0.0789706
0.0774265
0.0760838
0.0749386
0.0739878
0.0732306
0.0726687
0.0723066
0.0721516
0.0722147
0.0725101
0.0730572
0.0738808
0.0750125
0.0764919
0.0783696
0.0807105
0.0835956
0.0871129
0.0913138
0.0961314
0.101309
0.106588
0.112749
0.123739
0.15069
0.220046
0.373104
0.462447
0.22911
0.0646678
0.0290153
0.00993919
0.00843496
0.00771903
0.00688531
0.00649936
0.00596106
0.00572249
0.00533547
0.00517507
0.00488071
0.00476364
0.00453116
0.00443997
0.00424875
0.00417366
0.0040094
0.00394466
0.00379861
0.00374094
0.00360797
0.00355578
0.00343305
0.00338588
0.00327213
0.00322979
0.00312467
0.00308687
0.00299002
0.00295587
0.00286686
0.00283572
0.00275314
0.00272421
0.00264643
0.00261891
0.00254445
0.00251772
0.00244541
0.00241899
0.00234798
0.00232156
0.00225131
0.00222469
0.00215487
0.00212791
0.0020583
0.00203086
0.00196124
0.00193322
0.00186333
0.00183446
0.00176381
0.00173368
0.00166157
0.00162954
0.00155479
0.00151982
0.00144071
0.00140109
0.00131496
0.00126783
0.00117103
0.00110883
0.000994939
0.000867797
0.000737702
0.000600238
0.000469207
0.000353494
0.000321179
0.000325256
0.000376811
0.000470086
0.000537594
0.000542234
0.000447615
0.000528635
0.000597543
0.000755816
0.000857433
0.00105792
0.0010896
0.00119992
0.00123967
0.00132026
0.00136513
0.00144741
0.00152289
0.00161172
0.00170971
0.00172255
0.00172733
0.00175868
0.0018788
0.00192611
0.00187922
0.00180912
0.00169969
0.00161109
0.00152624
0.0014779
0.00144207
0.00140633
0.0013737
0.00133641
0.00130457
0.00125508
0.00120601
0.00115507
0.00110319
0.00105737
0.00100798
0.000962457
0.000907253
0.000848375
0.000793629
0.000728323
0.000683509
0.0006333
0.00060163
0.000568737
0.000539986
0.000503895
0.000469119
0.000422999
0.000394051
0.000359096
0.00034099
0.00031775
0.000305754
0.000292325
0.000283429
0.000270175
0.000266299
0.000214892
0.000155026
0.000172942
0.000244632
0.000244542
0.000190631
0.000235307
0.000280152
0.000263651
0.000220269
0.000259272
0.000263625
0.00022928
0.000231656
0.000216598
0.000215365
0.000218464
0.00021735
0.000228132
0.000226529
0.000274937