/*--------------------------------*- C++ -*----------------------------------*\
| =========                 |                                                 |
| \\      /  F ield         | OpenFOAM: The Open Source CFD Toolbox           |
|  \\    /   O peration     | Version:  v2006                                 |
|   \\  /    A nd           | Website:  www.openfoam.com                      |
|    \\/     M anipulation  |                                                 |
\*---------------------------------------------------------------------------*/
FoamFile
{
    version     2.0;
    format      ascii;
    class       volScalarField;
    location    "0.014";
    object      rho;
}
// * * * * * * * * * * * * * * * * * * * * * * * * * * * * * * * * * * * * * //

dimensions      [1 -3 0 0 0 0 0];


internalField   nonuniform List<scalar> 
10108
(
1.71619
1.71618
1.71616
1.71616
1.71618
1.71622
1.71627
1.71635
1.71645
1.71656
1.71669
1.71682
1.71696
1.7171
1.71725
1.71742
1.71759
1.71777
1.71796
1.71815
1.71836
1.71857
1.71879
1.71902
1.71925
1.71949
1.71973
1.71998
1.72024
1.72049
1.72075
1.72101
1.72128
1.72154
1.72181
1.72208
1.72234
1.72261
1.72287
1.72313
1.72339
1.72364
1.72389
1.72413
1.72437
1.7246
1.72482
1.72504
1.72525
1.72545
1.72564
1.72582
1.726
1.72616
1.72631
1.72646
1.72659
1.72671
1.72681
1.7269
1.72697
1.72703
1.72708
1.72712
1.72713
1.72713
1.72715
1.72721
1.72734
1.72756
1.72767
1.72757
1.72728
1.72752
1.72754
1.7274
1.72733
1.72703
1.72679
1.72713
1.72723
1.72706
1.72695
1.72658
1.72642
1.72678
1.72691
1.72678
1.72665
1.72628
1.72617
1.72653
1.72667
1.72658
1.72643
1.72607
1.726
1.72634
1.7265
1.72643
1.72627
1.72594
1.7259
1.72621
1.72636
1.72631
1.72616
1.72585
1.72582
1.72611
1.72626
1.72621
1.72606
1.72578
1.72574
1.72602
1.72617
1.72613
1.72598
1.7257
1.72566
1.72593
1.72609
1.72604
1.72588
1.72561
1.72556
1.72583
1.726
1.72596
1.7258
1.72553
1.72549
1.72575
1.72592
1.72589
1.72572
1.72547
1.72546
1.7257
1.72586
1.72585
1.72569
1.72547
1.72549
1.72569
1.72584
1.72585
1.7257
1.72552
1.72556
1.72572
1.72586
1.72589
1.72576
1.72561
1.72567
1.7258
1.72592
1.72597
1.72586
1.72573
1.7258
1.72591
1.72602
1.72608
1.72598
1.72588
1.72595
1.72605
1.72614
1.72622
1.72612
1.72603
1.7261
1.72619
1.72628
1.72636
1.72628
1.72618
1.72625
1.72634
1.72643
1.72651
1.72643
1.72634
1.7264
1.72649
1.72657
1.72664
1.72656
1.72648
1.72653
1.72661
1.7267
1.72676
1.72668
1.7266
1.72665
1.72672
1.7268
1.72686
1.72678
1.72672
1.72678
1.72683
1.7269
1.72697
1.7269
1.72686
1.72694
1.72697
1.72703
1.72711
1.72707
1.72705
1.72717
1.72716
1.72721
1.72733
1.7273
1.72731
1.72745
1.72743
1.72746
1.72761
1.72759
1.72761
1.72779
1.72776
1.72778
1.72796
1.72795
1.72797
1.72817
1.72813
1.72814
1.72834
1.72834
1.72837
1.72858
1.72854
1.72854
1.72875
1.72875
1.7288
1.72903
1.72896
1.72895
1.72918
1.7292
1.72927
1.72951
1.72941
1.72939
1.72963
1.72967
1.72977
1.73001
1.7299
1.72985
1.73012
1.73018
1.73031
1.73057
1.73044
1.73037
1.73064
1.73073
1.73088
1.73117
1.73104
1.73095
1.73121
1.73132
1.73147
1.73191
1.73172
1.73154
1.73182
1.73191
1.7316
1.7307
1.73136
1.73177
1.73154
1.73083
1.73067
1.73071
1.73078
1.73105
1.73089
1.73077
1.73071
1.7308
1.73087
1.73098
1.73104
1.73096
1.73089
1.7311
1.73113
1.73119
1.73121
1.7312
1.73121
1.73142
1.7314
1.73139
1.73131
1.73133
1.73135
1.73152
1.7315
1.73148
1.73132
1.73134
1.73136
1.73157
1.73154
1.73153
1.73134
1.73136
1.73138
1.73161
1.73159
1.73157
1.73144
1.73146
1.73148
1.73174
1.73172
1.7317
1.73169
1.73171
1.73173
1.73193
1.73191
1.73189
1.73199
1.73201
1.73203
1.7322
1.73218
1.73216
1.7323
1.73233
1.73235
1.7325
1.73248
1.73245
1.73258
1.73261
1.73264
1.73276
1.73273
1.7327
1.73279
1.73283
1.73287
1.73294
1.73289
1.73284
1.73285
1.73291
1.73295
1.73293
1.73287
1.73281
1.73273
1.7328
1.73285
1.73276
1.7327
1.73263
1.73252
1.73259
1.73265
1.73254
1.73248
1.73241
1.73231
1.73237
1.73244
1.73234
1.73227
1.7322
1.73211
1.73219
1.73226
1.73217
1.73209
1.73202
1.73194
1.73202
1.7321
1.73201
1.73193
1.73185
1.73177
1.73185
1.73194
1.73185
1.73176
1.73168
1.73161
1.73169
1.73177
1.73168
1.73159
1.73151
1.73145
1.73153
1.73161
1.73152
1.73143
1.73135
1.7313
1.73137
1.73145
1.73135
1.73127
1.73119
1.73113
1.73121
1.73128
1.73117
1.7311
1.73102
1.73097
1.73104
1.73111
1.73101
1.73094
1.73086
1.7308
1.73088
1.73095
1.73087
1.73079
1.73069
1.73063
1.73073
1.73082
1.73073
1.73062
1.7305
1.73041
1.73053
1.73066
1.73054
1.73039
1.73024
1.73013
1.73026
1.73039
1.73022
1.73009
1.72998
1.7299
1.73
1.73011
1.72999
1.72989
1.7298
1.72976
1.72983
1.72991
1.72972
1.72969
1.72963
1.72953
1.72953
1.72949
1.72929
1.72937
1.72943
1.72938
1.72926
1.72916
1.72912
1.72923
1.72938
1.7294
1.72922
1.7291
1.72922
1.72932
1.7295
1.72978
1.72992
1.72994
1.72995
1.72995
1.72994
1.72994
1.72994
1.72994
1.72993
1.72994
1.72993
1.72994
1.72993
1.72994
1.72993
1.72993
1.72993
1.72993
1.72994
1.72994
1.72995
1.72996
1.72991
1.73009
1.72969
1.73009
1.72992
1.72928
1.72959
1.73007
1.73024
1.73065
1.73035
1.73007
1.72997
1.72982
1.7298
1.72989
1.72978
1.7297
1.72976
1.72973
1.72963
1.7297
1.72966
1.72959
1.72972
1.72969
1.72951
1.72959
1.72955
1.72947
1.72966
1.72963
1.72941
1.72951
1.72948
1.72938
1.72961
1.72958
1.72934
1.72944
1.72941
1.72932
1.72956
1.72954
1.7293
1.72938
1.72936
1.72928
1.72951
1.72949
1.72925
1.72933
1.72931
1.72923
1.72945
1.72942
1.72921
1.72929
1.72926
1.7292
1.72939
1.72936
1.72918
1.72924
1.72921
1.72916
1.72932
1.7293
1.72914
1.72919
1.72916
1.72912
1.72926
1.72924
1.72909
1.72913
1.72911
1.72907
1.7292
1.72917
1.72904
1.72907
1.72904
1.72902
1.72913
1.7291
1.72899
1.72901
1.72898
1.72896
1.72906
1.72904
1.72893
1.72894
1.7289
1.7289
1.72899
1.72897
1.72886
1.72886
1.72882
1.72882
1.72893
1.7289
1.72879
1.72878
1.72873
1.72875
1.72886
1.72883
1.72871
1.72869
1.72863
1.72866
1.72879
1.72876
1.72862
1.72859
1.72853
1.72857
1.7287
1.72867
1.72852
1.72848
1.72841
1.72845
1.7286
1.72856
1.72839
1.72835
1.72826
1.72832
1.72849
1.72843
1.72824
1.72818
1.72806
1.72814
1.72833
1.72823
1.72803
1.72796
1.72773
1.72787
1.72808
1.72791
1.72766
1.72755
1.72729
1.72746
1.72773
1.7276
1.72731
1.72713
1.72701
1.72718
1.72749
1.72745
1.72713
1.72693
1.72681
1.72702
1.72735
1.72732
1.72693
1.72673
1.7266
1.72686
1.72721
1.7272
1.72677
1.72656
1.7264
1.72665
1.72708
1.72702
1.72653
1.72629
1.72612
1.72635
1.72692
1.72684
1.72627
1.72601
1.72617
1.72634
1.72719
1.72558
1.72515
1.72518
1.72587
1.72595
1.72625
1.72624
1.72575
1.72554
1.72486
1.72528
1.7259
1.72546
1.72478
1.72429
1.72372
1.72437
1.72507
1.72459
1.72384
1.72321
1.72262
1.72358
1.72432
1.72213
1.72144
1.721
1.72097
1.72132
1.72194
1.72137
1.72071
1.7197
1.71826
1.71926
1.71993
1.71873
1.71817
1.71616
1.71249
1.7139
1.71444
1.71168
1.71098
1.70954
1.70738
1.70832
1.70914
1.70282
1.70299
1.70043
1.6893
1.69426
1.69756
1.68002
1.67846
1.67477
1.65182
1.66459
1.6673
1.6447
1.63838
1.6078
1.59644
1.6206
1.62741
1.63539
1.62987
1.62872
1.62364
1.62428
1.62754
1.62789
1.62746
1.62745
1.6267
1.6268
1.62686
1.62683
1.62687
1.62685
1.62679
1.62686
1.62711
1.62684
1.62676
1.62665
1.62657
1.62667
1.62672
1.62647
1.62633
1.62622
1.62609
1.62624
1.62632
1.62614
1.62608
1.62603
1.62573
1.62587
1.62598
1.62581
1.62576
1.62559
1.62561
1.62567
1.62569
1.6256
1.6255
1.62534
1.62521
1.62539
1.62545
1.62529
1.62529
1.62526
1.62501
1.62517
1.62523
1.62502
1.62499
1.62484
1.6249
1.62493
1.62493
1.625
1.62494
1.6248
1.62475
1.62485
1.62485
1.62497
1.62502
1.62494
1.62516
1.62528
1.62526
1.62537
1.6254
1.6253
1.62569
1.6258
1.62571
1.62629
1.62633
1.62623
1.62648
1.62659
1.62652
1.62713
1.62721
1.6271
1.62794
1.628
1.62792
1.62849
1.6286
1.62852
1.62917
1.62929
1.62925
1.63029
1.63035
1.63026
1.63109
1.63119
1.63108
1.63191
1.63193
1.63185
1.63297
1.63302
1.63293
1.63377
1.63398
1.63402
1.63494
1.63498
1.63486
1.63575
1.63585
1.6357
1.63682
1.63683
1.6368
1.63786
1.63796
1.63789
1.63873
1.63887
1.6388
1.63969
1.63969
1.6396
1.64065
1.64069
1.64061
1.64146
1.64165
1.64167
1.64225
1.64232
1.64225
1.64301
1.64308
1.64297
1.6437
1.64374
1.64371
1.64443
1.64447
1.64445
1.64506
1.64503
1.64492
1.64564
1.64565
1.64557
1.64609
1.64618
1.64614
1.64677
1.64677
1.6467
1.64732
1.64735
1.64734
1.64785
1.64792
1.6479
1.64845
1.64852
1.64852
1.64909
1.64912
1.64902
1.64942
1.64951
1.64954
1.64998
1.64994
1.64988
1.6503
1.65034
1.65033
1.65087
1.65082
1.65074
1.65106
1.65116
1.65118
1.65161
1.65156
1.65146
1.65194
1.65199
1.65204
1.65236
1.65239
1.65237
1.65287
1.65293
1.65297
1.65334
1.65337
1.65331
1.65368
1.65383
1.65384
1.65428
1.65419
1.65408
1.6544
1.65447
1.65446
1.65502
1.65496
1.65483
1.65495
1.65503
1.65501
1.65574
1.65568
1.65555
1.65557
1.65572
1.65576
1.65597
1.65593
1.65576
1.65629
1.65645
1.65649
1.65624
1.65621
1.65607
1.65696
1.65708
1.65709
1.65674
1.65666
1.6565
1.65742
1.65752
1.65752
1.65747
1.65741
1.6573
1.65707
1.65727
1.6574
1.65808
1.65811
1.65801
1.65743
1.65757
1.65768
1.65832
1.65835
1.65828
1.65763
1.65776
1.65788
1.65848
1.65848
1.65838
1.6578
1.65791
1.65803
1.65856
1.65851
1.65836
1.65813
1.65827
1.65839
1.65804
1.65786
1.65771
1.65847
1.65862
1.65865
1.65813
1.65799
1.65783
1.65849
1.65863
1.65869
1.65814
1.658
1.65786
1.65857
1.65873
1.65879
1.65824
1.65811
1.65801
1.65856
1.65874
1.65884
1.6586
1.65839
1.65822
1.65762
1.65775
1.65798
1.65875
1.65868
1.65847
1.65773
1.6579
1.65804
1.65865
1.6586
1.6584
1.65765
1.65781
1.65795
1.65847
1.65842
1.65821
1.65747
1.65761
1.65773
1.65828
1.65822
1.65799
1.65729
1.65742
1.65754
1.65808
1.65798
1.65774
1.65725
1.65744
1.65765
1.6568
1.6566
1.65652
1.65717
1.65744
1.65752
1.6567
1.65652
1.65633
1.65666
1.65702
1.6571
1.65627
1.65612
1.65587
1.65628
1.65665
1.65674
1.65588
1.65575
1.65552
1.65599
1.65637
1.65647
1.65553
1.65536
1.65509
1.65556
1.65592
1.65601
1.6554
1.65517
1.65482
1.65389
1.65404
1.65427
1.65505
1.65494
1.65454
1.65361
1.6539
1.65411
1.65444
1.65434
1.65383
1.65287
1.65321
1.65341
1.6538
1.65369
1.65319
1.65215
1.65253
1.65273
1.65318
1.6531
1.65259
1.65162
1.65197
1.65215
1.65253
1.65245
1.65196
1.65108
1.65154
1.65175
1.65044
1.65018
1.64996
1.65061
1.65108
1.65117
1.65012
1.64986
1.6495
1.64958
1.65019
1.65031
1.64917
1.64894
1.64849
1.64882
1.64946
1.64956
1.64839
1.64811
1.64762
1.648
1.64863
1.64875
1.64761
1.64731
1.64686
1.64729
1.64786
1.64792
1.64704
1.64678
1.64623
1.64492
1.64521
1.64542
1.64631
1.64623
1.64563
1.64419
1.64472
1.64503
1.64514
1.64498
1.64419
1.6429
1.64346
1.64377
1.64428
1.64415
1.64337
1.64199
1.64256
1.64292
1.64312
1.64303
1.64227
1.64077
1.64137
1.64169
1.64196
1.64181
1.6411
1.63969
1.64047
1.64084
1.63893
1.63858
1.63812
1.63902
1.63976
1.63989
1.63859
1.63816
1.63755
1.63758
1.63843
1.63851
1.63704
1.63657
1.636
1.63602
1.63691
1.63702
1.63533
1.63493
1.63418
1.63436
1.63541
1.63564
1.63407
1.63363
1.6329
1.63338
1.63433
1.63449
1.63323
1.63289
1.63192
1.63008
1.63055
1.63092
1.63176
1.63164
1.63058
1.62904
1.62974
1.63016
1.6297
1.62938
1.62807
1.62604
1.62709
1.62771
1.62843
1.62823
1.62705
1.62555
1.62644
1.62688
1.62694
1.62677
1.62565
1.6238
1.62498
1.62539
1.62297
1.62233
1.62183
1.62192
1.62304
1.62323
1.62137
1.62059
1.61953
1.6199
1.62118
1.62141
1.61943
1.619
1.61795
1.61835
1.61975
1.61998
1.61799
1.61733
1.61628
1.61632
1.61754
1.61777
1.61602
1.6155
1.61417
1.61082
1.61171
1.61244
1.61328
1.61283
1.61122
1.60948
1.61058
1.61149
1.6116
1.61141
1.60983
1.60763
1.60883
1.60939
1.60936
1.6091
1.60763
1.60513
1.6067
1.60707
1.60378
1.60299
1.60208
1.6011
1.60308
1.60363
1.60132
1.60024
1.59865
1.60011
1.60186
1.60202
1.60003
1.59949
1.59817
1.5975
1.59922
1.59946
1.59703
1.59636
1.59471
1.59128
1.59251
1.59305
1.59277
1.59196
1.58973
1.58695
1.58876
1.59009
1.59075
1.59041
1.58834
1.58689
1.58862
1.58939
1.5853
1.58448
1.58349
1.58331
1.58514
1.58543
1.58216
1.58111
1.57953
1.5761
1.57914
1.58009
1.57767
1.57621
1.57339
1.57085
1.57278
1.57353
1.57576
1.57536
1.57301
1.57063
1.57235
1.57338
1.57145
1.57119
1.56899
1.56412
1.56678
1.5679
1.56073
1.5587
1.55584
1.55886
1.5615
1.56224
1.56015
1.5588
1.55711
1.55655
1.55898
1.55946
1.55671
1.55557
1.55294
1.54631
1.54841
1.54949
1.54751
1.54586
1.54217
1.53839
1.54138
1.54361
1.54456
1.54377
1.54068
1.53891
1.54156
1.54307
1.537
1.53603
1.53446
1.53262
1.53474
1.53524
1.52972
1.52709
1.52165
1.51588
1.51972
1.52273
1.52395
1.52315
1.51994
1.51789
1.52097
1.52286
1.51551
1.5145
1.51253
1.50645
1.50996
1.51133
1.5053
1.50183
1.49464
1.49167
1.49584
1.49875
1.49985
1.49887
1.4955
1.49234
1.49616
1.49861
1.48783
1.48539
1.48194
1.47011
1.47749
1.48139
1.47785
1.47454
1.46867
1.4663
1.46986
1.47235
1.46946
1.46854
1.46614
1.44533
1.45691
1.46164
1.45352
1.44946
1.44074
1.43946
1.4448
1.44718
1.44529
1.44388
1.44014
1.41809
1.43286
1.43814
1.43109
1.42673
1.41641
1.4183
1.42431
1.42672
1.41297
1.40653
1.39357
1.40102
1.41068
1.41566
1.41648
1.41054
1.39867
1.38685
1.40456
1.41256
1.40981
1.40373
1.38767
1.38386
1.40223
1.40915
1.41051
1.40407
1.386
1.40169
1.41641
1.42199
1.43991
1.43406
1.42074
1.43343
1.44534
1.45188
1.4589
1.45125
1.43991
1.44622
1.45635
1.46423
1.46899
1.46042
1.45103
1.45618
1.46451
1.47289
1.47623
1.46744
1.45995
1.46386
1.47053
1.47887
1.48129
1.47279
1.46696
1.47017
1.4754
1.48333
1.48529
1.47739
1.4729
1.47565
1.47968
1.48696
1.4886
1.48152
1.47806
1.4804
1.4835
1.48999
1.49139
1.48518
1.48251
1.48451
1.4869
1.49258
1.49382
1.48848
1.48639
1.48812
1.48999
1.49488
1.49604
1.49145
1.4898
1.49131
1.49279
1.49699
1.49811
1.49416
1.49285
1.49419
1.49537
1.49898
1.5001
1.49664
1.4956
1.49681
1.49772
1.50088
1.50198
1.49891
1.49811
1.4992
1.49991
1.50272
1.5038
1.50104
1.50039
1.50138
1.50197
1.5045
1.50555
1.50304
1.50247
1.50338
1.50391
1.50626
1.50726
1.50492
1.5044
1.50522
1.50574
1.50796
1.50889
1.50667
1.50616
1.50691
1.50744
1.50956
1.51045
1.50834
1.5078
1.50849
1.50906
1.51109
1.51191
1.5099
1.50932
1.50997
1.51057
1.51252
1.5133
1.51138
1.51075
1.51137
1.51201
1.51388
1.5146
1.51276
1.51209
1.51267
1.51336
1.51515
1.51584
1.51408
1.51336
1.5139
1.51463
1.51633
1.51699
1.5153
1.51454
1.51506
1.51583
1.51742
1.51807
1.51646
1.51567
1.51616
1.51696
1.51846
1.51908
1.51754
1.51673
1.5172
1.51801
1.51943
1.52003
1.51857
1.51774
1.51818
1.51901
1.52036
1.5209
1.51952
1.51868
1.51911
1.51993
1.52121
1.52173
1.52042
1.51959
1.51999
1.52081
1.52202
1.52249
1.52126
1.52043
1.52081
1.52162
1.52276
1.52321
1.52205
1.52123
1.5216
1.52239
1.52347
1.52388
1.52278
1.52198
1.52233
1.5231
1.52411
1.5245
1.52347
1.5227
1.52302
1.52377
1.52472
1.52509
1.52411
1.52336
1.52366
1.52439
1.52529
1.52563
1.52471
1.52398
1.52427
1.52497
1.52582
1.52614
1.52527
1.52457
1.52484
1.52551
1.52631
1.52662
1.52579
1.52512
1.52538
1.52603
1.52678
1.52706
1.52628
1.52563
1.52587
1.5265
1.52722
1.52748
1.52674
1.52612
1.52634
1.52695
1.52763
1.52787
1.52717
1.52657
1.52678
1.52736
1.52801
1.52825
1.52757
1.52699
1.52719
1.52775
1.52837
1.52859
1.52795
1.52739
1.52757
1.52812
1.52871
1.52892
1.5283
1.52776
1.52794
1.52846
1.52903
1.52922
1.52863
1.52811
1.52827
1.52877
1.52933
1.52951
1.52893
1.52843
1.52858
1.52907
1.5296
1.52978
1.52922
1.52873
1.52887
1.52935
1.52987
1.53003
1.52949
1.52902
1.52915
1.52961
1.53011
1.53027
1.52974
1.52928
1.5294
1.52985
1.53034
1.53049
1.52998
1.52953
1.52964
1.53008
1.53056
1.53069
1.53019
1.52976
1.52987
1.53029
1.53076
1.53089
1.5304
1.52998
1.53008
1.5305
1.53094
1.53107
1.53059
1.53018
1.53027
1.53068
1.53112
1.53124
1.53078
1.53037
1.53046
1.53086
1.53129
1.5314
1.53094
1.53055
1.53063
1.53102
1.53145
1.53155
1.53111
1.53072
1.5308
1.53118
1.53159
1.53169
1.53126
1.53089
1.53095
1.53133
1.53173
1.53182
1.5314
1.53104
1.5311
1.53147
1.53186
1.53195
1.53153
1.53118
1.53124
1.5316
1.53199
1.53207
1.53166
1.53132
1.53138
1.53172
1.5321
1.53218
1.53178
1.53145
1.5315
1.53184
1.53221
1.53228
1.5319
1.53157
1.53162
1.53195
1.53232
1.53239
1.532
1.53168
1.53173
1.53206
1.53242
1.53248
1.53211
1.53179
1.53184
1.53216
1.53251
1.53257
1.5322
1.5319
1.53194
1.53225
1.5326
1.53265
1.5323
1.532
1.53204
1.53234
1.53268
1.53273
1.53238
1.53209
1.53213
1.53243
1.53276
1.53281
1.53247
1.53218
1.53222
1.53251
1.53284
1.53288
1.53255
1.53227
1.5323
1.53259
1.53291
1.53295
1.53262
1.53235
1.53238
1.53266
1.53298
1.53302
1.5327
1.53243
1.53246
1.53273
1.53305
1.53308
1.53277
1.5325
1.53253
1.5328
1.53311
1.53315
1.53283
1.53258
1.5326
1.53287
1.53317
1.53321
1.5329
1.53265
1.53267
1.53293
1.53323
1.53327
1.53296
1.53271
1.53274
1.533
1.53329
1.53332
1.53302
1.53278
1.5328
1.53306
1.53334
1.53338
1.53308
1.53284
1.53286
1.53311
1.5334
1.53343
1.53314
1.5329
1.53293
1.53317
1.53345
1.53349
1.5332
1.53296
1.53299
1.53323
1.53351
1.53353
1.53326
1.53303
1.53305
1.53329
1.53356
1.53359
1.53331
1.53308
1.53311
1.53334
1.53361
1.53364
1.53337
1.53314
1.53316
1.5334
1.53366
1.5337
1.53342
1.5332
1.53322
1.53345
1.53372
1.53374
1.53348
1.53326
1.53328
1.53351
1.53377
1.5338
1.53353
1.53331
1.53333
1.53356
1.53382
1.53385
1.53359
1.53337
1.53339
1.53362
1.53387
1.5339
1.53364
1.53342
1.53344
1.53367
1.53392
1.53395
1.53369
1.53348
1.5335
1.53372
1.53397
1.534
1.53374
1.53353
1.53355
1.53377
1.53402
1.53405
1.5338
1.53359
1.53361
1.53383
1.53407
1.5341
1.53385
1.53364
1.53366
1.53388
1.53413
1.53415
1.5339
1.5337
1.53372
1.53393
1.53418
1.53421
1.53395
1.53375
1.53377
1.53399
1.53423
1.53425
1.53401
1.5338
1.53382
1.53404
1.53428
1.53431
1.53406
1.53385
1.53387
1.53409
1.53434
1.53436
1.53412
1.53391
1.53393
1.53415
1.53439
1.53442
1.53417
1.53396
1.53398
1.5342
1.53445
1.53448
1.53423
1.53403
1.53404
1.53426
1.53451
1.53456
1.53429
1.53408
1.53411
1.53434
1.53458
1.53465
1.53438
1.53418
1.53421
1.53445
1.5347
1.53481
1.53453
1.53431
1.53436
1.5346
1.53485
1.53501
1.53471
1.53445
1.53458
1.53485
1.53518
1.53587
1.53533
1.53503
1.53603
1.53635
1.53697
1.53718
1.53667
1.53647
1.53775
1.54238
1.54428
1.54456
1.55035
1.55404
1.55515
1.55547
1.55963
1.56306
1.56497
1.56653
1.56781
1.56891
1.5698
1.57049
1.571
1.57136
1.5716
1.57176
1.57186
1.5719
1.57191
1.57191
1.57189
1.57187
1.57184
1.57182
1.57177
1.57176
1.57172
1.57172
1.57187
1.57192
1.5718
1.57174
1.57171
1.57171
1.57174
1.57178
1.57187
1.572
1.57216
1.57233
1.57251
1.57266
1.57278
1.5729
1.57305
1.57321
1.57338
1.57357
1.57377
1.57398
1.5742
1.57444
1.57469
1.57495
1.57524
1.57556
1.57589
1.57626
1.57667
1.57712
1.57761
1.57816
1.57877
1.57945
1.58021
1.58105
1.58199
1.58303
1.58418
1.58545
1.58685
1.58839
1.59006
1.59188
1.59385
1.59596
1.59821
1.6006
1.60313
1.60577
1.60852
1.61136
1.61429
1.61728
1.62032
1.6234
1.6265
1.6296
1.63269
1.63577
1.63881
1.64181
1.64477
1.64767
1.6505
1.65327
1.65598
1.6586
1.66116
1.66364
1.66604
1.66836
1.67062
1.67279
1.67489
1.67693
1.67889
1.68078
1.6826
1.68436
1.68606
1.68769
1.68927
1.69078
1.69224
1.69364
1.69499
1.69628
1.69752
1.6987
1.69984
1.70092
1.70195
1.70293
1.70387
1.70476
1.7056
1.7064
1.70715
1.70787
1.70855
1.70919
1.7098
1.71037
1.71091
1.71142
1.7119
1.71235
1.71276
1.71315
1.7135
1.71383
1.71412
1.71439
1.71463
1.71485
1.71505
1.71523
1.71539
1.71554
1.71567
1.71579
1.71591
1.71602
1.71612
1.71622
1.71631
1.71641
1.7165
1.71657
1.71663
1.71661
1.7165
1.71637
1.71625
1.71627
1.71636
1.71654
1.71668
1.71678
1.71688
1.71698
1.71708
1.71719
1.7173
1.71742
1.71754
1.71768
1.71783
1.71799
1.71816
1.71834
1.71852
1.71872
1.71892
1.71913
1.71935
1.71957
1.7198
1.72003
1.72027
1.72052
1.72076
1.72101
1.72127
1.72152
1.72178
1.72203
1.72229
1.72254
1.7228
1.72305
1.72329
1.72354
1.72378
1.72401
1.72424
1.72446
1.72467
1.72488
1.72507
1.72526
1.72544
1.72561
1.72577
1.72592
1.72606
1.72619
1.72631
1.72642
1.72652
1.72662
1.72672
1.72679
1.72684
1.72691
1.72695
1.72697
1.72698
1.72686
1.72677
1.72668
1.72661
1.72654
1.72649
1.72644
1.72639
1.72635
1.72631
1.72628
1.72624
1.72621
1.72617
1.72614
1.72611
1.72608
1.72605
1.72604
1.72603
1.72603
1.72604
1.72606
1.72609
1.72612
1.72617
1.72622
1.72628
1.72635
1.72642
1.72649
1.72657
1.72664
1.72671
1.72677
1.72683
1.72689
1.72694
1.72698
1.72703
1.72709
1.72715
1.72722
1.72731
1.72742
1.72754
1.72769
1.72785
1.72803
1.72821
1.7284
1.72859
1.7288
1.72899
1.72921
1.72941
1.72964
1.72986
1.7301
1.73034
1.7306
1.73086
1.73112
1.73137
1.73158
1.73165
1.73164
1.7316
1.73145
1.7314
1.7315
1.73164
1.73147
1.73152
1.73134
1.73149
1.73129
1.73152
1.73129
1.73157
1.73138
1.73169
1.73162
1.73186
1.73194
1.73212
1.73225
1.73239
1.73252
1.73263
1.73271
1.73275
1.73274
1.73269
1.73261
1.73251
1.7324
1.73229
1.73219
1.73208
1.732
1.7319
1.73183
1.73173
1.73165
1.73155
1.73149
1.73138
1.73134
1.73122
1.73119
1.73106
1.73103
1.73089
1.73087
1.73071
1.73069
1.73052
1.7305
1.73029
1.73026
1.73002
1.73
1.72981
1.72983
1.7297
1.72973
1.72962
1.72967
1.72962
1.72967
1.72971
1.72973
1.72994
1.73
1.73
1.72995
1.72993
1.73009
1.72994
1.72991
1.72996
1.73024
1.73011
1.73004
1.73001
1.72998
1.73001
1.73002
1.73011
1.73004
1.73002
1.72999
1.73
1.73005
1.7301
1.73011
1.73021
1.7302
1.72999
1.7299
1.72999
1.73035
1.73005
1.72991
1.73002
1.73043
1.73029
1.73036
1.73008
1.72993
1.73005
1.73047
1.73009
1.72997
1.73013
1.73049
1.73041
1.73043
1.73008
1.73008
1.73028
1.73051
1.73011
1.73026
1.73048
1.73057
1.73046
1.73052
1.73021
1.73047
1.73067
1.73069
1.73036
1.73068
1.73086
1.73085
1.73061
1.73071
1.73053
1.73087
1.73103
1.73102
1.73072
1.73105
1.73119
1.73116
1.73079
1.73089
1.73089
1.7312
1.73134
1.73129
1.73108
1.73136
1.73151
1.73146
1.73102
1.7312
1.73134
1.73155
1.73169
1.73164
1.73157
1.73174
1.73186
1.73179
1.73137
1.73147
1.73177
1.73193
1.73204
1.73191
1.73195
1.73213
1.73225
1.73208
1.73166
1.73194
1.73217
1.73236
1.73247
1.73231
1.73242
1.73257
1.73263
1.73251
1.73226
1.73245
1.73258
1.73267
1.73264
1.73256
1.73252
1.73257
1.73246
1.73241
1.73235
1.73213
1.73234
1.73235
1.73219
1.73213
1.7321
1.73206
1.73188
1.73176
1.73195
1.73183
1.73191
1.7318
1.73159
1.73139
1.7318
1.73162
1.73134
1.73114
1.73168
1.73169
1.73174
1.73153
1.73129
1.7312
1.73189
1.73155
1.73134
1.73145
1.73181
1.73183
1.7321
1.73163
1.73155
1.73173
1.73219
1.73184
1.73175
1.73177
1.73176
1.73167
1.732
1.73175
1.73165
1.73163
1.73173
1.73163
1.73162
1.73156
1.73159
1.73147
1.73162
1.73163
1.73159
1.73149
1.73151
1.73155
1.73145
1.73134
1.7313
1.73103
1.73128
1.73128
1.73107
1.731
1.73088
1.73083
1.73059
1.73059
1.73069
1.73032
1.73044
1.73036
1.73012
1.73016
1.73001
1.7299
1.72969
1.72975
1.72994
1.72957
1.7296
1.72947
1.72927
1.72935
1.72921
1.72907
1.72887
1.72896
1.72919
1.72882
1.72882
1.72867
1.72848
1.72858
1.72844
1.72829
1.72811
1.72822
1.72847
1.72814
1.7281
1.72794
1.72779
1.7279
1.7278
1.72764
1.72752
1.72764
1.72788
1.72767
1.72758
1.72742
1.72733
1.72745
1.72741
1.72726
1.7272
1.72732
1.72753
1.72742
1.72729
1.72715
1.7271
1.72721
1.72719
1.72705
1.727
1.72711
1.72731
1.72719
1.72708
1.72694
1.72688
1.72699
1.72695
1.72682
1.72674
1.72685
1.72706
1.72691
1.7268
1.72667
1.7266
1.7267
1.72666
1.72653
1.72646
1.72656
1.72676
1.72664
1.72653
1.7264
1.72634
1.72644
1.72642
1.72629
1.72625
1.72635
1.72654
1.72647
1.72634
1.72621
1.72618
1.72629
1.72629
1.72617
1.72616
1.72626
1.72642
1.7264
1.72627
1.72616
1.72616
1.72625
1.72628
1.72617
1.72619
1.72627
1.7264
1.72642
1.7263
1.72621
1.72624
1.72631
1.72634
1.72626
1.72629
1.72635
1.72644
1.72646
1.72638
1.72632
1.72635
1.7264
1.72643
1.72638
1.72641
1.72645
1.72651
1.72656
1.72649
1.72645
1.72649
1.72653
1.72657
1.72654
1.72659
1.72662
1.72663
1.72672
1.72667
1.72665
1.72672
1.72673
1.7268
1.72679
1.72688
1.72687
1.72681
1.72678
1.72673
1.72668
1.72663
1.72658
1.72655
1.72652
1.72652
1.7265
1.7265
1.72653
1.72658
1.72664
1.72674
1.72685
1.72698
1.72712
1.72725
1.72736
1.72746
1.72757
1.7277
1.72789
1.72814
1.72844
1.72878
1.72912
1.72947
1.72981
1.73016
1.7305
1.73082
1.73111
1.73135
1.73155
1.73174
1.73192
1.73206
1.73214
1.73215
1.73211
1.73206
1.73216
1.73241
1.73262
1.73264
1.73226
1.73178
1.7315
1.73135
1.73118
1.73107
1.731
1.73095
1.73088
1.73081
1.73076
1.73072
1.73067
1.7306
1.7305
1.73039
1.7303
1.7303
1.73021
1.73011
1.73005
1.73003
1.72998
1.72999
1.73006
1.73011
1.73006
1.73002
1.72997
1.72998
1.73005
1.73012
1.73012
1.73021
1.73022
1.73015
1.73004
1.72999
1.72995
1.72998
1.73004
1.73014
1.72999
1.72992
1.72994
1.72997
1.73005
1.73011
1.73011
1.73028
1.7304
1.7303
1.73032
1.73042
1.73038
1.73047
1.73057
1.73061
1.73051
1.73052
1.73041
1.73047
1.73052
1.73058
1.73063
1.73072
1.73072
1.73069
1.7308
1.73085
1.73097
1.73089
1.73095
1.73109
1.73109
1.73096
1.73083
1.73073
1.73064
1.73059
1.73057
1.73053
1.73046
1.73037
1.73024
1.73009
1.72996
1.72994
1.72993
1.72995
1.72997
1.73004
1.73001
1.72997
1.72994
1.72995
1.72999
1.73004
1.73014
1.7303
1.73033
1.73029
1.73022
1.73018
1.73008
1.73001
1.73
1.72992
1.72994
1.72999
1.7297
1.72978
1.73015
1.73002
1.72976
1.72972
1.72999
1.73016
1.73024
1.72987
1.7299
1.72969
1.72969
1.72969
1.72991
1.72988
1.73023
1.73028
1.7303
1.73037
1.73038
1.73042
1.73043
1.73053
1.73061
1.73066
1.73064
1.73062
1.73058
1.73056
1.73051
1.73048
1.73045
1.73039
1.7301
1.73013
1.73003
1.73006
1.72998
1.73
1.7299
1.72994
1.72969
1.72968
1.72969
1.72971
1.72972
1.72975
1.72976
1.72979
1.72979
1.72983
1.73018
1.73015
1.73023
1.72987
1.72983
1.72986
1.73021
1.73047
1.73052
1.73024
1.73028
1.7299
1.72989
1.72992
1.73032
1.73028
1.73053
1.73058
1.73057
1.7306
1.73065
1.73066
1.73067
1.73067
1.73061
1.73062
1.73085
1.73097
1.73108
1.73124
1.73119
1.731
1.73106
1.73125
1.73128
1.73112
1.73118
1.73133
1.73161
1.7315
1.73137
1.73118
1.7313
1.73146
1.73067
1.73068
1.7307
1.73071
1.73066
1.73055
1.73063
1.73057
1.73057
1.73064
1.73063
1.73059
1.73058
1.73033
1.73039
1.73033
1.73038
1.73033
1.73037
1.7303
1.73035
1.72993
1.7299
1.7299
1.72993
1.7299
1.72993
1.72988
1.72991
1.72985
1.72988
1.73039
1.73031
1.73038
1.72984
1.72981
1.72976
1.73031
1.73054
1.73052
1.73026
1.73035
1.72979
1.72969
1.72972
1.73031
1.73022
1.73043
1.73038
1.73044
1.73043
1.73021
1.73012
1.73022
1.73002
1.73015
1.73012
1.73024
1.72963
1.72961
1.7295
1.72951
1.72936
1.72935
1.72999
1.72983
1.72976
1.72909
1.72914
1.72885
1.7296
1.7299
1.73018
1.73051
1.73049
1.73041
1.73019
1.72944
1.72942
1.72977
1.72972
1.72995
1.72993
1.72978
1.72964
1.72951
1.72911
1.72922
1.72925
1.72936
1.72939
1.72952
1.72881
1.72865
1.72867
1.72853
1.72856
1.72842
1.72845
1.72906
1.72894
1.72939
1.72916
1.72898
1.72864
1.72889
1.72885
1.72985
1.73073
1.7317
1.7317
1.7314
1.73125
1.73132
1.73152
1.73171
1.7315
1.73179
1.73196
1.73214
1.73186
1.73173
1.73206
1.73234
1.73251
1.73282
1.73259
1.7324
1.73229
1.73285
1.73311
1.73328
1.73291
1.73273
1.7331
1.7334
1.73364
1.73331
1.73349
1.73391
1.73352
1.73303
1.73303
1.73284
1.73254
1.73242
1.73264
1.73238
1.73229
1.73216
1.73213
1.732
1.73233
1.73269
1.73256
1.73212
1.73172
1.73136
1.7317
1.7319
1.73202
1.73187
1.73168
1.73147
1.73171
1.73153
1.73124
1.7309
1.73115
1.73142
1.73104
1.73075
1.73048
1.72999
1.73026
1.73055
1.73088
1.73126
1.7317
1.73221
1.73275
1.73334
1.73401
1.73351
1.73295
1.73234
1.73142
1.73096
1.72962
1.72944
1.7303
1.7266
1.72561
1.72663
1.72789
1.72806
1.72765
1.72829
1.72766
1.7278
1.72818
1.72821
1.72849
1.72857
1.72874
1.72886
1.72829
1.72829
1.72811
1.7281
1.72788
1.72775
1.72765
1.72746
1.72658
1.72679
1.72654
1.72625
1.72708
1.72672
1.7271
1.72695
1.72622
1.72574
1.72623
1.72547
1.72587
1.72483
1.72402
1.72514
1.72602
1.72704
1.72629
1.72423
1.7252
1.72471
1.72328
1.72195
1.72281
1.721
1.72299
1.72062
1.719
1.71648
1.71999
1.72377
1.72055
1.71555
1.71717
1.71359
1.71074
1.70789
1.71298
1.71344
1.7203
1.72021
1.72349
1.71406
1.7136
1.70952
1.70852
1.70122
1.70075
1.70687
1.71044
1.71461
1.69659
1.6934
1.69751
1.70508
1.709
1.71474
1.69922
1.68912
1.67695
1.66147
1.67626
1.667
1.64769
1.64342
1.66278
1.68681
1.70161
1.67835
1.66303
1.64676
1.62736
1.62654
1.62853
1.6268
1.6265
1.62677
1.62653
1.62682
1.62633
1.62609
1.62603
1.62577
1.62564
1.62561
1.62542
1.62529
1.62525
1.62495
1.62489
1.62481
1.62481
1.62503
1.62502
1.62535
1.62581
1.6259
1.62649
1.62734
1.62748
1.62851
1.62954
1.62975
1.6311
1.63232
1.63285
1.63413
1.63461
1.63592
1.63727
1.63777
1.63899
1.64021
1.64072
1.64181
1.64226
1.64319
1.64405
1.64439
1.64525
1.64558
1.64632
1.64707
1.64736
1.64821
1.64846
1.64931
1.64986
1.65017
1.65073
1.65099
1.65146
1.65191
1.65219
1.65277
1.653
1.65363
1.65411
1.65415
1.65485
1.65507
1.65557
1.65554
1.65612
1.65631
1.65643
1.65685
1.65684
1.65724
1.65736
1.65772
1.65781
1.65784
1.65808
1.65811
1.65828
1.65828
1.65842
1.65844
1.65856
1.65845
1.65854
1.65856
1.65873
1.65862
1.65874
1.65874
1.65887
1.65888
1.65854
1.65865
1.65848
1.65855
1.65831
1.65839
1.65811
1.65822
1.658
1.65795
1.6579
1.65736
1.6574
1.65698
1.65707
1.65664
1.65688
1.65637
1.65637
1.65596
1.65596
1.65565
1.6549
1.65491
1.65439
1.65441
1.65378
1.65376
1.6531
1.65309
1.65251
1.65229
1.65192
1.65103
1.65108
1.65036
1.65035
1.6496
1.64967
1.64881
1.64875
1.64792
1.64805
1.64747
1.64624
1.64628
1.64537
1.64538
1.64436
1.64421
1.64318
1.6432
1.64219
1.64194
1.64122
1.63983
1.63985
1.63878
1.63865
1.63728
1.63754
1.63606
1.636
1.63467
1.63471
1.63372
1.6319
1.6318
1.63038
1.6303
1.62861
1.62862
1.62728
1.62703
1.62572
1.62365
1.62381
1.62185
1.6224
1.62049
1.62023
1.61839
1.61839
1.61651
1.6141
1.61406
1.61189
1.61223
1.60996
1.60975
1.60762
1.60466
1.60514
1.60227
1.60298
1.6004
1.60041
1.59787
1.59444
1.59456
1.59151
1.5924
1.59028
1.58659
1.5863
1.58272
1.58323
1.57993
1.57647
1.57637
1.57335
1.57298
1.5691
1.5641
1.5648
1.5609
1.5617
1.55779
1.55162
1.552
1.54653
1.54834
1.54486
1.53887
1.53886
1.53254
1.52617
1.5286
1.5247
1.51719
1.51769
1.50961
1.50278
1.50546
1.50054
1.49091
1.49259
1.4837
1.47559
1.47925
1.46901
1.46103
1.45238
1.45833
1.44844
1.44119
1.43477
1.42517
1.43549
1.42808
1.42459
1.42394
1.42322
1.42673
1.43356
1.4491
1.45896
1.46769
1.47219
1.47854
1.48165
1.48654
1.48861
1.49253
1.49405
1.49744
1.49857
1.50157
1.50234
1.50493
1.50542
1.50776
1.50802
1.51011
1.51019
1.51213
1.5121
1.51388
1.51374
1.51541
1.51518
1.51675
1.51644
1.51791
1.51756
1.51896
1.51856
1.51985
1.51945
1.52069
1.52028
1.52143
1.52102
1.52213
1.52173
1.52276
1.52236
1.52336
1.52298
1.52391
1.52352
1.52443
1.52406
1.5249
1.52455
1.52537
1.52504
1.5258
1.52548
1.52625
1.52592
1.52664
1.52633