/*--------------------------------*- C++ -*----------------------------------*\
| =========                 |                                                 |
| \\      /  F ield         | OpenFOAM: The Open Source CFD Toolbox           |
|  \\    /   O peration     | Version:  v2006                                 |
|   \\  /    A nd           | Website:  www.openfoam.com                      |
|    \\/     M anipulation  |                                                 |
\*---------------------------------------------------------------------------*/
FoamFile
{
    version     2.0;
    format      ascii;
    class       volScalarField;
    location    "0.048";
    object      isentropic(p);
}
// * * * * * * * * * * * * * * * * * * * * * * * * * * * * * * * * * * * * * //

dimensions      [1 -1 -2 0 0 0 0];


internalField   nonuniform List<scalar> 
11076
(
150034
150034
150034
150034
150034
150034
150034
150035
150037
150038
150038
150037
150036
150035
150034
150034
150033
150033
150033
150032
150032
150032
150031
150031
150031
150030
150030
150029
150029
150029
150028
150028
150028
150027
150027
150026
150026
150026
150025
150025
150025
150024
150024
150024
150023
150023
150022
150022
150022
150021
150021
150021
150020
150019
150018
150017
150015
150015
150017
150020
150022
150024
150024
150025
150021
150024
150026
150025
150034
150049
150047
149960
149871
150037
150063
150062
150021
149792
149714
150002
150057
150047
149979
149642
149578
149956
150035
150022
149930
149519
149466
149907
150009
149996
149884
149418
149375
149862
149983
149970
149841
149335
149299
149820
149958
149945
149800
149265
149235
149781
149933
149920
149762
149206
149180
149745
149909
149897
149728
149155
149132
149711
149886
149875
149695
149110
149090
149680
149864
149853
149665
149070
149052
149651
149844
149833
149638
149035
149019
149625
149824
149814
149612
149004
148990
149600
149806
149796
149588
148976
148963
149576
149788
149779
149565
148951
148939
149554
149771
149762
149544
148928
148918
149534
149755
149746
149524
148908
148899
149515
149740
149731
149505
148890
148882
149497
149725
149717
149488
148874
148867
149480
149711
149704
149472
148860
148854
149464
149698
149691
149456
148848
148843
149449
149685
149678
149442
148837
148833
149435
149673
149667
149429
148828
148824
149422
149662
149655
149416
148821
148818
149410
149651
149645
149404
148814
148812
149399
149640
149635
149394
148810
148808
149389
149630
149625
149384
148807
148806
149379
149621
149616
149374
148805
148805
149370
149612
149607
149366
148805
148806
149362
149603
149598
149358
148806
148808
149355
149595
149590
149351
148809
148811
149348
149588
149583
149345
148813
148816
149342
149580
149576
149339
148818
148822
149337
149573
149569
149334
148825
148830
149333
149566
149562
149330
148834
148839
149329
149560
149556
149327
148844
148849
149326
149554
149551
149324
148855
148862
149324
149549
149545
149323
148868
148876
149322
149544
149540
149321
148883
148891
149321
149539
149536
149321
148899
148908
149322
149534
149532
149322
148916
148926
149322
149530
149528
149323
148935
148945
149324
149527
149525
149326
148956
148967
149327
149524
149522
149329
148977
148989
149331
149522
149520
149334
149001
149013
149337
149520
149519
149340
149026
149039
149343
149520
149520
149347
149051
149065
149351
149521
149521
149356
149079
149093
149361
149523
149524
149366
149106
149121
149373
149527
149528
149379
149135
149149
149386
149532
149534
149393
149163
149177
149400
149539
149542
149408
149191
149205
149416
149547
149551
149424
149219
149232
149433
149557
149562
149441
149245
149258
149450
149568
149573
149458
149270
149282
149467
149579
149585
149475
149294
149305
149484
149591
149597
149492
149315
149325
149501
149603
149609
149508
149335
149344
149516
149616
149622
149524
149352
149360
149531
149628
149633
149538
149367
149374
149545
149639
149644
149551
149380
149386
149557
149649
149654
149563
149391
149396
149569
149659
149664
149573
149401
149405
149579
149668
149672
149583
149409
149413
149588
149677
149681
149592
149417
149420
149597
149685
149688
149600
149423
149426
149605
149692
149695
149608
149428
149431
149612
149699
149702
149615
149433
149436
149618
149706
149709
149621
149438
149440
149625
149712
149715
149627
149442
149444
149631
149718
149721
149633
149446
149448
149636
149724
149726
149638
149449
149451
149641
149729
149731
149643
149452
149454
149646
149734
149735
149647
149455
149456
149649
149738
149742
149653
149459
149468
149661
149750
149758
149669
149475
149847
149904
149942
149966
149981
150012
150027
150049
150062
150079
150089
150103
150111
150122
150129
150137
150142
150147
150148
150146
150137
150128
150110
150068
149968
149828
149515
149483
149804
149952
149930
149775
149448
149414
149751
149909
149895
149733
149394
149392
149734
149896
149890
149728
149388
149392
149733
149897
149893
149728
149390
149397
149737
149900
149898
149734
149395
149402
149742
149905
149903
149740
149401
149408
149748
149910
149908
149747
149407
149414
149755
149915
149914
149753
149413
149420
149761
149921
149919
149760
149419
149426
149768
149927
149925
149767
149425
149432
149775
149932
149930
149773
149431
149439
149782
149938
149937
149780
149438
149446
149789
149944
149943
149788
149446
149453
149797
149950
149949
149796
149453
149460
149804
149957
149956
149803
149460
149468
149813
149964
149963
149812
149468
149476
149821
149971
149970
149821
149476
149485
149830
149978
149978
149829
149486
149494
149839
149986
149986
149839
149494
149503
149849
149994
149994
149849
149504
149512
149859
150003
150003
149859
149514
149522
149870
150012
150013
149870
149524
149533
149882
150022
150023
149883
149535
149544
149894
150033
150034
149896
149546
149557
149907
150044
150046
149910
149560
149570
149923
150056
150060
149926
149574
149586
149940
150070
150074
149944
149592
149604
149959
150085
150089
149965
149612
149626
149980
150100
150106
149989
149639
149657
150007
150120
150130
150021
149676
149701
150043
150147
150161
150058
149728
149754
150079
150176
150187
150094
149778
149806
150115
150202
150210
150123
149825
149858
150146
150226
150238
150162
149890
149917
150178
150249
150257
150190
149943
149980
150209
150270
150279
150225
150012
150041
150237
150288
150297
150250
150077
150116
150266
150306
150326
150275
150165
150225
150342
150363
150363
150348
150232
150237
150345
150366
150377
150359
150253
150280
150382
150390
150401
150400
150295
150321
150420
150411
150421
150439
150340
150363
150460
150432
150440
150479
150384
150404
150488
150440
150459
150521
150412
150437
150539
150465
150483
150539
150463
150483
150530
150494
150477
150521
150491
150497
150541
150507
150494
150550
150507
150522
150572
150513
150507
150580
150544
150566
150565
150492
150465
150540
150586
150596
150520
150444
150434
150505
150606
150597
150473
150415
150368
150424
150562
150544
150409
150382
150351
150374
150532
150515
150341
150335
150386
150376
150496
150476
150330
150329
150309
150311
150423
150413
150348
150320
150284
150311
150350
150334
150315
150286
150294
150335
150271
150262
150372
150322
150341
150421
150096
149924
150507
150385
150480
150543
149607
149360
150519
150469
150481
150357
148995
148662
150109
150320
150151
149868
148362
148164
149594
149998
149738
149316
147952
147856
149155
149644
149518
148970
147760
147710
148795
149316
149327
148729
147672
147657
148630
149234
149129
148550
147636
147641
148645
149226
149206
148669
147646
147652
148747
149288
149237
148689
147637
147619
148572
149099
148985
148469
147601
147611
148540
149092
149046
148508
147602
147588
148441
148950
149055
148534
147617
147618
148498
148998
148864
148389
147601
147593
148315
148767
148910
148430
147634
147644
148372
148823
148589
148032
147576
147816
148108
148712
148659
148103
147770
147720
148074
148520
148312
147965
147593
148014
148440
148672
148629
148385
147968
147842
148225
148464
148782
148601
148197
148146
148549
148751
148697
148488
148103
147976
148323
148554
148845
148681
148294
148242
148624
148812
148669
148464
148131
148415
148781
148928
148892
148720
148361
148234
148573
148755
148995
148869
148528
148473
148815
148970
148835
148665
148336
148597
148935
149059
149045
148902
148560
148485
148825
148988
148865
148708
148334
148606
148959
149081
149062
148914
148564
148412
148774
148930
149127
149011
148661
148593
148937
149089
148973
148827
148464
148727
149063
149171
149145
149003
148658
148502
148858
149010
149205
149092
148734
148697
149041
149183
149058
148915
148541
148777
149131
149239
149207
149062
148710
148536
148911
149064
149276
149189
148812
148697
149047
149173
149337
149232
148902
148829
149165
149302
149172
149017
148683
148945
149273
149377
149359
149223
148888
148724
149059
149219
149396
149287
148944
148872
149226
149367
149231
149064
148726
148972
149319
149425
149399
149255
148899
148718
149088
149247
149429
149321
148942
148808
149158
149316
149486
149376
149032
148968
149319
149458
149316
149147
148808
149018
149376
149487
149455
149309
148937
148761
149131
149302
149497
149380
149013
148868
149235
149397
149543
149442
149076
148999
149371
149511
149361
149194
148824
149046
149431
149542
149514
149368
148975
148820
149196
149370
149542
149446
149034
148873
149284
149432
149580
149484
149094
149008
149403
149544
149385
149217
148822
149081
149475
149572
149477
149330
148944
149138
149517
149617
149581
149440
149056
148871
149257
149427
149598
149490
149096
149006
149419
149569
149412
149231
148844
149062
149476
149598
149484
149306
148901
149101
149513
149625
149584
149427
149006
148814
149228
149413
149595
149474
149032
148892
149324
149493
149638
149534
149112
149017
149448
149601
149425
149240
148817
149046
149488
149606
149489
149316
148875
149087
149530
149641
149608
149452
149004
148795
149239
149430
149612
149501
149043
148854
149320
149494
149640
149536
149089
148992
149447
149605
149414
149218
148764
149009
149488
149609
149496
149319
148843
149078
149539
149646
149604
149438
148962
148744
149216
149415
149600
149482
148990
148794
149295
149478
149632
149521
149033
148931
149428
149596
149404
149198
148714
148958
149469
149595
149466
149275
148758
149011
149511
149625
149585
149409
148892
148656
149165
149380
149573
149442
148911
148717
149251
149447
149606
149487
148969
148860
149387
149567
149354
149133
148609
148863
149420
149557
149422
149217
148661
148927
149466
149590
149544
149352
148795
148541
149092
149326
149534
149399
148823
148604
149188
149398
149563
149438
148869
148749
149328
149521
149290
149051
148476
148771
149369
149509
149362
149140
148531
148823
149407
149538
149496
149294
148694
148389
148993
149247
149472
149327
148707
148460
149093
149323
149506
149374
148768
148625
149253
149461
149211
148951
148334
148643
149287
149444
149291
149051
148405
148692
149328
149474
149417
149194
148540
148234
148888
149161
149398
149236
148550
148304
148995
149242
149439
149297
148638
148495
149173
149397
149119
148840
148168
148496
149197
149362
149188
148928
148212
148535
149233
149390
149343
149104
148387
148050
148760
149058
149315
149145
148413
148137
148881
149149
149356
149206
148497
148365
149087
149322
148989
148677
147946
148308
149071
149258
149079
148799
148028
148392
149140
149306
149257
148998
148224
147863
148632
148951
149224
149045
148256
147967
148771
149057
149262
149107
148367
148147
148930
149191
148882
148553
147756
148192
148985
149174
149146
148865
148030
147607
148453
148807
149109
148908
148043
147722
148604
148922
149156
148987
148164
147949
148813
149095
148712
148344
147477
147916
148806
149022
148824
148498
147598
148039
148902
149093
149044
148746
147853
147441
148335
148703
149005
148806
147927
147756
148696
149001
148555
148144
147188
147637
148630
148875
148638
148274
147264
147760
148719
148934
148902
148569
147576
147106
148107
148519
148854
148627
147648
147469
148511
148853
148394
147956
146913
147368
148460
148725
148439
148033
146930
147486
148537
148780
148744
148384
147307
146806
147886
148338
148700
148450
147390
147202
148322
148700
148251
147796
146692
147016
148234
148539
148224
147783
146576
147176
148327
148594
148560
148164
146979
146475
147655
148140
148532
148267
147129
146905
148128
148529
148082
147598
146395
146746
148026
148364
148272
147807
146458
145929
147278
147831
148304
147995
146695
146464
147842
148305
147789
147213
145835
146665
147935
148230
148239
147781
146378
145428
146892
147527
148023
147658
146240
145958
147469
147985
147480
146858
145342
146211
147652
147991
148038
147514
145942
145328
146864
147474
147777
147333
145685
145310
147039
147632
147098
146405
144702
145672
147299
147694
147727
147144
145404
144732
146452
147154
147629
147346
145930
145090
146826
147429
146726
146002
144252
145308
146947
147351
147398
146815
145041
144385
146175
146890
147368
147099
145669
145014
146794
147316
146854
146132
144166
143423
145446
146262
146943
146514
144656
144399
146529
147138
147074
146393
144205
142343
144767
145831
146512
145877
143637
143272
145743
146525
146409
145490
142925
142295
144805
145822
146221
145456
142862
142182
145094
146051
145845
144774
141733
141069
144059
145243
145998
145470
143164
141753
144865
145805
145511
144505
141185
140970
144476
145491
145390
144145
140375
138170
142101
143786
144955
144027
140849
140590
144043
145087
144685
143251
139087
138674
143143
144482
144130
142507
137454
136439
141998
143701
143274
141348
135468
134911
141070
143169
143176
140897
134648
134358
140727
143179
143063
140426
134053
133786
140193
142982
142815
139888
133552
133374
139677
142720
142535
139392
133211
133090
139208
142435
142237
138950
132973
132897
138793
142132
141935
138564
132818
132778
138436
141835
141638
138237
132728
132715
138137
141543
141354
137965
132687
132694
137892
141269
141086
137744
132682
132704
137692
141009
140838
137567
132707
132741
137535
140776
140614
137429
132754
132805
137410
140561
140413
137320
132825
132889
137318
140373
140235
137242
132914
132985
137248
140210
140085
137184
133013
133090
137203
140074
139959
137148
133120
133199
137173
139961
139858
137128
133229
133309
137163
139875
139781
137124
133338
133417
137162
139803
139720
137130
133446
133524
137176
139753
139676
137149
133552
133628
137196
139716
139647
137173
133653
133728
137227
139695
139632
137208
133752
133824
137261
139684
139628
137245
133846
133916
137304
139686
139633
137291
133937
134004
137348
139694
139645
137337
134023
134089
137399
139711
139665
137390
134107
134169
137449
139731
139689
137442
134186
134247
137505
139758
139718
137499
134262
134320
137559
139787
139750
137554
134334
134391
137617
139821
139785
137613
134405
134460
137673
139855
139821
137669
134471
134525
137731
139892
139859
137728
134536
134587
137787
139929
139898
137783
134597
134648
137844
139968
139937
137841
134657
134705
137899
140006
139976
137895
134713
134761
137954
140045
140015
137951
134768
134814
138006
140082
140053
138002
134820
134864
138059
140121
140091
138053
134869
134912
138107
140157
140128
138101
134916
134958
138156
140193
140164
138149
134961
135001
138200
140227
140198
138192
135002
135041
138245
140261
140231
138236
135042
135079
138285
140293
140264
138274
135079
135115
138325
140324
140294
138314
135114
135148
138360
140353
140324
138348
135146
135179
138396
140382
140351
138384
135176
135208
138428
140409
140378
138415
135204
135235
138460
140435
140403
138446
135230
135260
138489
140459
140428
138474
135254
135284
138518
140483
140451
138502
135277
135305
138543
140504
140473
138526
135298
135326
138569
140526
140494
138551
135318
135344
138591
140546
140514
138573
135336
135362
138614
140565
140532
138595
135353
135378
138633
140582
140550
138614
135368
135393
138654
140600
140566
138634
135383
135407
138671
140615
140582
138651
135396
135420
138689
140631
140597
138668
135409
135432
138704
140645
140611
138683
135420
135443
138720
140659
140624
138698
135431
135453
138733
140671
140637
138711
135441
135463
138747
140684
140648
138725
135450
135472
138759
140694
140660
138736
135459
135480
138771
140705
140670
138748
135467
135487
138781
140715
140680
138758
135474
135494
138792
140724
140688
138768
135481
135501
138801
140732
140697
138776
135486
135506
138810
140741
140704
138786
135492
135512
138818
140748
140712
138793
135497
135517
138826
140755
140719
138801
135502
135521
138832
140761
140725
138807
135506
135525
138840
140768
140731
138814
135510
135529
138845
140773
140736
138819
135513
135532
138851
140779
140741
138825
135516
135535
138855
140783
140746
138829
135519
135537
138861
140787
140750
138834
135522
135540
138864
140791
140754
138837
135524
135541
138869
140795
140757
138842
135526
135543
138871
140798
140760
138844
135527
135545
138875
140801
140763
138848
135528
135546
138877
140803
140766
138850
135529
135547
138881
140806
140768
138853
135530
135547
138882
140807
140770
138854
135531
135548
138885
140810
140771
138857
135531
135548
138886
140811
140773
138858
135531
135548
138888
140813
140774
138860
135532
135548
138888
140814
140776
138860
135531
135548
138890
140815
140776
138862
135531
135547
138890
140815
140777
138862
135530
135547
138892
140817
140778
138864
135529
135546
138891
140816
140778
138863
135528
135544
138892
140817
140778
138864
135527
135543
138892
140817
140778
138863
135525
135541
138892
140817
140778
138864
135524
135540
138891
140816
140778
138862
135522
135538
138892
140817
140778
138863
135520
135536
138892
140816
140778
138863
135517
135537
138891
140818
140780
138863
135519
135536
138893
140820
140783
138865
135516
135541
138903
140835
140806
138884
135521
135572
138951
140908
140972
138997
135601
135750
139187
141247
141627
139493
135995
136298
139856
142024
142314
140157
136557
144395
145586
146103
146807
147381
147556
147725
148253
148583
148895
149126
149301
149440
149546
149627
149690
149737
149773
149801
149823
149840
149853
149863
149871
149878
149882
149885
149887
149888
149888
149889
149895
149897
149901
149906
149911
149917
149924
149932
149942
149954
149967
149983
150000
150019
150037
150054
150065
150068
150066
150059
150053
150046
150041
150036
150032
150027
150023
150018
150013
150008
150003
149998
149994
149990
149986
149983
149980
149978
149977
149975
149975
149975
149976
149977
149979
149981
149984
149987
149991
149994
149998
150001
150004
150007
150009
150011
150012
150013
150013
150013
150013
150012
150010
150008
150006
150004
150001
149999
149996
149993
149990
149986
149983
149979
149976
149972
149968
149965
149961
149957
149954
149950
149947
149944
149942
149939
149937
149935
149933
149931
149930
149929
149928
149927
149927
149927
149926
149927
149927
149927
149928
149929
149930
149931
149932
149933
149934
149936
149937
149938
149940
149941
149942
149943
149944
149945
149946
149947
149948
149949
149950
149951
149953
149954
149955
149957
149959
149960
149962
149964
149966
149968
149970
149973
149975
149977
149979
149982
149984
149987
149990
149997
150010
150025
150032
150034
150034
150034
150034
150033
150035
150048
150065
150069
150067
150064
150060
150057
150053
150051
150048
150046
150045
150043
150041
150040
150039
150038
150036
150035
150034
150033
150032
150032
150031
150030
150029
150029
150028
150027
150026
150026
150025
150024
150024
150023
150022
150021
150020
150019
150018
150017
150016
150015
150013
150012
150010
150007
150004
150000
149998
149999
150004
150011
150014
150017
150025
150047
150064
150070
150068
150062
150057
150051
150045
150039
150032
150026
150020
150014
150008
150002
149996
149990
149985
149979
149973
149968
149963
149957
149952
149947
149942
149937
149932
149927
149922
149918
149913
149908
149904
149900
149896
149891
149887
149883
149879
149875
149871
149867
149864
149860
149856
149852
149849
149845
149842
149839
149835
149832
149829
149826
149823
149819
149816
149813
149810
149807
149804
149801
149798
149795
149793
149790
149787
149784
149781
149778
149776
149773
149770
149767
149765
149762
149759
149756
149753
149751
149748
149745
149742
149740
149737
149735
149732
149730
149727
149725
149723
149721
149720
149718
149717
149716
149716
149715
149715
149715
149716
149717
149718
149720
149722
149724
149726
149728
149732
149734
149737
149740
149743
149746
149749
149752
149756
149758
149762
149765
149768
149771
149774
149777
149780
149783
149786
149788
149792
149794
149797
149799
149802
149804
149807
149810
149813
149815
149818
149819
149822
149824
149827
149828
149831
149835
149840
149901
149898
149941
149942
149966
149965
149965
149938
149895
149891
149931
149935
149891
149887
149928
149962
149960
149933
149888
149884
149926
149931
149884
149881
149923
149959
149957
149928
149881
149877
149921
149926
149877
149873
149918
149955
149954
149924
149874
149870
149916
149922
149870
149867
149914
149953
149952
149920
149867
149863
149912
149918
149864
149860
149910
149951
149950
149916
149860
149856
149909
149915
149857
149853
149907
149950
149949
149914
149854
149850
149906
149913
149851
149847
149905
149949
149950
149912
149848
149844
149904
149911
149845
149841
149903
149951
149952
149911
149842
149838
149903
149911
149840
149836
149903
149954
149957
149911
149837
149833
149903
149912
149835
149832
149904
149959
149962
149913
149833
149831
149905
149915
149832
149831
149908
149966
149969
149918
149833
149832
149910
149921
149834
149833
149914
149973
149977
149925
149836
149837
149918
149930
149839
149840
149922
149982
149986
149934
149843
149845
149926
149939
149848
149849
149930
149990
149993
149943
149852
149854
149935
149947
149857
149859
149939
149996
149999
149951
149862
149864
149943
149955
149867
149869
149946
150002
150004
149958
149872
149874
149949
149961
149877
149878
149953
150006
150008
149964
149882
149883
149955
149966
149886
149887
149958
150010
150011
149969
149890
149891
149960
149971
149895
149895
149963
150012
150013
149973
149899
149899
149965
149975
149903
149903
149967
150014
150015
149976
149906
149907
149969
149978
149910
149911
149971
150016
150016
149980
149914
149914
149973
149982
149918
149918
149975
150017
150018
149984
149922
149922
149977
149985
149926
149926
149979
150019
150020
149987
149930
149930
149981
149989
149934
149934
149983
150021
150021
149991
149938
149938
149986
149993
149942
149942
149988
150022
150023
149995
149946
149947
149990
149997
149951
149951
149993
150024
150025
149999
149955
149956
149995
150002
149960
149961
149998
150026
150028
150004
149964
149965
150000
150006
149969
149970
150003
150029
150030
150009
149974
149976
150006
150012
149979
149981
150009
150031
150033
150015
149985
149987
150013
150018
149990
149992
150016
150034
150036
150021
149996
149998
150019
150024
150002
150004
150023
150037
150039
150027
150008
150010
150027
150031
150014
150017
150031
150041
150042
150034
150020
150023
150035
150038
150027
150030
150039
150044
150046
150042
150034
150037
150044
150047
150041
150045
150049
150049
150051
150052
150049
150052
150054
150057
150056
150060
150059
150052
150052
150062
150064
150067
150064
150033
150041
150045
150046
150046
150046
150046
150046
150047
150047
150047
150047
150048
150048
150049
150050
150050
150051
150052
150053
150053
150054
150055
150056
150057
150058
150059
150060
150061
150061
150062
150062
150063
150063
150062
150062
150061
150060
150058
150057
150055
150052
150050
150047
150043
150040
150036
150032
150028
150024
150021
150019
150017
150015
150015
150014
150014
150014
150014
150015
150015
150015
150016
150016
150016
150017
150017
150018
150018
150019
150021
150016
149974
149978
150014
150026
150025
150053
150051
150061
150061
150057
150086
150082
150080
150089
150088
150105
150104
150111
150110
150109
150128
150125
150123
150129
150129
150140
150139
150142
150143
150143
150152
150149
150148
150149
150150
150144
150144
150130
150121
150120
150120
150123
150106
150102
150049
150058
150040
150099
150092
150033
150039
150099
150120
150145
150145
150121
150101
150093
150035
150041
150038
150096
150104
150124
150148
150155
150145
150130
150110
150086
150057
150057
150087
150111
150131
150133
150113
150088
150058
150058
150089
150089
150058
150058
150090
150117
150115
150114
150135
150137
150139
150141
150118
150091
150058
150059
150092
150093
150059
150059
150094
150123
150121
150120
150143
150146
150149
150152
150125
150095
150060
150060
150096
150097
150060
150060
150098
150132
150130
150128
150156
150160
150165
150197
150188
150181
150176
150171
150168
150164
150161
150158
150156
150153
150150
150148
150159
150152
150149
150126
150130
150132
150153
150156
150163
150166
150170
150174
150170
150167
150166
150162
150161
150158
150138
150136
150116
150108
150112
150104
150109
150101
150106
150098
150041
150044
150047
150044
150051
150048
150055
150052
150059
150056
150111
150119
150115
150061
150063
150067
150123
150142
150145
150126
150118
150065
150071
150069
150122
150130
150149
150152
150155
150159
150173
150176
150178
150183
150187
150192
150192
150190
150187
150184
150181
150178
150167
150163
150145
150138
150141
150133
150137
150129
150133
150126
150074
150076
150080
150079
150085
150083
150090
150089
150095
150094
150142
150150
150147
150100
150101
150107
150154
150171
150175
150159
150152
150106
150113
150112
150156
150164
150179
150184
150189
150194
150196
150198
150198
150204
150213
150225
150230
150225
150213
150211
150205
150203
150204
150198
150185
150179
150180
150173
150174
150167
150169
150162
150119
150119
150126
150126
150133
150133
150140
150141
150148
150150
150185
150192
150191
150158
150157
150165
150198
150209
150215
150204
150198
150167
150174
150176
150204
150210
150222
150233
150246
150260
150247
150252
150239
150207
150171
150135
150098
150060
150060
150099
150100
150061
150061
150099
150141
150139
150137
150176
150183
150191
150187
150138
150099
150063
150064
150100
150100
150067
150070
150099
150118
150130
150137
150179
150158
150135
150121
150110
150095
150073
150074
150094
150095
150076
150078
150097
150109
150107
150107
150116
150115
150117
150118
150111
150099
150080
150083
150102
150104
150085
150088
150105
150115
150114
150113
150120
150121
150121
150123
150124
150123
150122
150120
150119
150119
150128
150154
150186
150221
150246
150249
150232
150218
150254
150272
150290
150318
150309
150295
150289
150273
150269
150285
150272
150266
150260
150250
150244
150233
150226
150219
150213
150187
150184
150197
150204
150216
150227
150238
150247
150257
150264
150275
150280
150290
150283
150274
150290
150294
150296
150307
150306
150302
150296
150304
150310
150314
150318
150318
150332
150346
150351
150323
150332
150291
150249
150200
150175
150160
150151
150253
150279
150318
150323
150357
150359
150379
150373
150366
150361
150359
150349
150333
150326
150316
150314
150328
150342
150366
150367
150377
150383
150388
150380
150370
150397
150391
150393
150380
150383
150380
150399
150399
150410
150403
150416
150422
150400
150382
150356
150352
150351
150353
150378
150372
150382
150318
150373
150358
150339
150336
150413
150404
150435
150417
150404
150406
150438
150438
150447
150461
150429
150428
150390
150345
150329
150268
150175
150262
150255
150299
150337
150389
150367
150430
150416
150448
150424
150477
150476
150466
150450
150446
150393
150427
150410
150396
150367
150335
150356
150310
150334
150349
150349
150396
150355
150389
150383
150348
150347
150340
150326
150284
150283
150202
150189
150202
150097
150127
150115
150119
150121
150120
150119
150105
150092
150175
150175
150228
150251
150245
150264
150261
150326
150329
150329
150308
150297
150266
150281
150300
150288
150307
150357
150363
150257
150282
150293
150271
150274
150279
150277
150274
150296
150279
150267
150271
150333
150277
150382
150288
150373
150240
150194
150015
149826
149901
149691
149536
149656
149844
149839
149975
150074
150129
150057
150198
150237
150290
150252
150237
150258
150258
150261
150252
150266
150220
150126
150198
150211
150220
150226
150160
150141
150072
150148
150192
150186
150082
150089
149886
149903
149703
149593
149382
149504
149458
149565
149433
149325
149235
149350
149256
149176
149284
149203
149112
149032
149179
149065
148928
149113
148920
148859
148745
148993
148957
148853
149057
149046
148993
148903
149097
149068
148983
149148
149121
149042
149200
149179
149105
149248
149245
149204
149125
149267
149252
149174
149305
149282
149210
149350
149331
149251
149379
149365
149289
149423
149396
149310
149434
149390
149511
149485
149412
149523
149514
149442
149553
149532
149461
149566
149551
149468
149579
149523
149615
149601
149531
149632
149609
149528
149628
149586
149684
149663
149584
149679
149664
149591
149685
149630
149709
149687
149603
149705
149667
149735
149718
149639
149732
149716
149636
149724
149672
149751
149726
149635
149729
149683
149769
149748
149654
149744
149688
149766
149748
149657
149746
149691
149779
149756
149655
149749
149699
149772
149750
149649
149742
149683
149771
149750
149649
149740
149679
149757
149735
149627
149725
149663
149755
149731
149617
149717
149650
149732
149706
149590
149694
149627
149721
149693
149570
149677
149604
149691
149665
149532
149648
149573
149679
149650
149514
149630
149551
149644
149607
149467
149592
149512
149622
149593
149442
149566
149471
149577
149544
149390
149526
149440
149561
149528
149349
149492
149391
149506
149474
149309
149452
149364
149485
149429
149261
149413
149387
149203
149368
149267
149391
149335
149124
149315
149199
149332
149297
149116
149288
149254
149009
149203
149047
149220
149188
148980
149176
149143
148887
149108
148913
149105
149062
148839
149059
149030
148763
148980
148743
148969
148927
148688
148928
148891
148630
148870
148741
148465
148765
148735
148439
148722
148646
148252
148592
148502
148196
148530
148521
148177
148494
148266
147914
148298
148285
147950
148320
148066
147611
148055
148026
147705
148130
147956
147641
147229
147715
147776
147674
147004
147642
147481
147362
146988
147457
147114
146922
146567
147307
146974
146720
146612
146464
145615
146456
146215
145944
145760
145497
145232
144911
144886
144938
145024
145022
145062
145020
145057
145001
145037
144969
145006
144929
144970
144886
144930
144839
144885
144789
144836
144734
144784
144677
144728
144617
144668
144555
144606
144490