/*--------------------------------*- C++ -*----------------------------------*\
| =========                 |                                                 |
| \\      /  F ield         | OpenFOAM: The Open Source CFD Toolbox           |
|  \\    /   O peration     | Version:  v2006                                 |
|   \\  /    A nd           | Website:  www.openfoam.com                      |
|    \\/     M anipulation  |                                                 |
\*---------------------------------------------------------------------------*/
FoamFile
{
    version     2.0;
    format      ascii;
    class       volScalarField;
    location    "0.048";
    object      k;
}
// * * * * * * * * * * * * * * * * * * * * * * * * * * * * * * * * * * * * * //

dimensions      [0 2 -2 0 0 0 0];


internalField   nonuniform List<scalar> 
11076
(
146.571
146.571
146.571
146.571
146.571
146.571
146.57
146.558
146.469
146.231
145.843
145.362
144.839
144.304
143.765
143.223
142.671
142.104
141.519
140.913
140.286
139.64
138.976
138.294
137.595
136.882
136.155
135.416
134.665
133.904
133.135
132.358
131.576
130.79
130.001
129.212
128.423
127.637
126.854
126.078
125.309
124.549
123.799
123.061
122.338
121.63
120.939
120.267
119.615
118.984
118.373
117.78
117.2
116.627
116.063
115.522
115.047
114.708
114.547
114.523
114.558
114.612
114.658
114.679
114.696
114.627
114.43
114.075
113.513
112.331
110.4
100.195
88.946
105.165
110.903
107.784
97.7262
79.8416
72.8807
91.6193
104.33
100.323
85.2445
67.0613
62.8536
80.7767
96.8761
92.9984
75.8434
59.1468
56.4348
72.5418
90.1097
86.695
68.9722
53.9108
52.1619
66.9018
84.4654
81.5161
64.0921
50.3383
49.1219
62.7646
79.8367
77.3219
60.5539
47.7351
46.831
59.6398
75.9928
73.8202
57.8497
45.7315
45.0205
57.176
72.7436
70.8362
55.6996
44.1186
43.5301
55.1552
69.9434
68.2435
53.9152
42.7638
42.2599
53.4593
67.4899
65.9542
52.3863
41.5902
41.1463
51.9932
65.3043
63.9083
51.0447
40.5474
40.147
50.6966
63.3269
62.0567
49.8425
39.6011
39.2331
49.5294
61.5291
60.3638
48.7503
38.7281
38.385
48.4648
59.8801
58.8028
47.7462
37.9121
37.5883
47.4829
58.3565
57.3547
46.814
37.1411
36.8325
46.5688
56.9404
56.0037
45.9411
36.4058
36.1091
45.7106
55.6167
54.7361
45.1171
35.6988
35.4114
44.8986
54.3728
53.5412
44.3335
35.0141
34.7336
44.1248
53.1985
52.41
43.5835
34.3464
34.0708
43.3828
52.0854
51.335
42.8614
33.6914
33.4192
42.6671
51.0262
50.3095
42.1625
33.0454
32.7752
41.9734
50.0146
49.3275
41.4826
32.4052
32.1357
41.2976
49.0446
48.3835
40.818
31.7679
31.4979
40.6359
48.1111
47.4728
40.1651
31.1307
30.8593
39.9849
47.2094
46.5911
39.5208
30.4913
30.2173
39.3415
46.3356
45.7348
38.8821
29.8473
29.57
38.703
45.4861
44.9005
38.2465
29.1967
28.9152
38.067
44.6576
44.085
37.612
28.5376
28.2509
37.4313
43.8468
43.2851
36.9758
27.8676
27.5747
36.7929
43.0504
42.4972
36.3347
27.1842
26.8844
36.1488
42.2651
41.718
35.6866
26.4858
26.178
35.497
41.4874
40.9443
35.0289
25.7699
25.4532
34.8344
40.7141
40.1731
34.3576
25.0343
24.7082
34.1577
39.9424
39.4013
33.6719
24.2783
23.9425
33.4659
39.1693
38.6263
32.9688
23.5005
23.1544
32.756
38.3922
37.846
32.247
22.7007
22.3448
32.0283
37.6092
37.0583
31.5085
21.8792
21.5136
31.2819
36.8183
36.2619
30.7471
21.0348
20.6596
30.5131
36.0181
35.4547
29.965
20.1697
19.7867
29.7247
35.2067
34.6356
29.164
19.2871
18.8963
28.9156
34.384
33.8058
28.3398
18.3869
17.9911
28.0864
33.5501
32.963
27.501
17.4774
17.0797
27.2411
32.7035
32.1093
26.644
16.5623
16.1665
26.3826
31.8479
31.249
25.7854
15.6553
15.2694
25.5267
30.9879
30.3906
24.9347
14.7693
14.3933
24.6757
30.131
29.5362
24.0837
13.9064
13.5522
23.8339
29.2803
28.6938
23.2639
13.0965
12.7736
23.0297
28.4484
27.8814
22.4879
12.3511
12.0612
22.2689
27.6476
27.1011
21.7571
11.6819
11.4383
21.5626
26.8837
26.3702
21.0976
11.1122
10.9159
20.9263
26.1738
25.6972
20.5015
10.6418
10.495
20.353
25.5207
25.0839
19.9745
10.2794
10.1835
19.8511
24.9314
24.5421
19.5215
10.0228
9.96709
19.4176
24.4095
24.0622
19.1294
9.85878
9.8386
19.0285
23.9446
23.6309
18.7436
9.78534
9.78259
18.6431
23.5246
23.2349
18.3669
9.75896
9.76761
18.2767
23.1377
22.8642
18.0225
9.75968
9.77815
17.9436
22.7724
22.5134
17.7133
9.78122
9.80781
17.644
22.4263
22.1806
17.434
9.81693
9.85083
17.3724
22.099
21.8656
17.179
9.8621
9.89771
17.1239
21.7889
21.5677
16.9457
9.91023
9.94674
16.8982
21.4978
21.2917
16.738
9.96035
9.99707
16.6981
21.2293
21.0383
16.5543
10.0106
10.0457
16.5213
20.9817
20.8058
16.3918
10.0585
10.0912
16.3655
20.7555
20.595
16.2498
10.1034
10.134
16.2284
20.5505
20.4027
16.1239
10.1457
10.1753
16.1071
20.3631
20.2259
16.0135
10.1874
10.2173
16.0015
20.1916
20.0655
15.9206
10.2299
10.2593
15.9127
20.0361
19.9208
15.8408
10.2706
10.297
15.835
19.894
19.7856
15.768
10.3075
10.3328
15.764
19.7604
19.6546
15.7011
10.3424
10.3638
15.6969
19.6342
19.5313
15.6449
10.3813
10.3912
15.6249
19.4883
19.4114
15.5821
10.4188
10.4131
15.5319
19.311
19.2895
15.5008
10.4612
10.5828
15.6484
19.4745
19.7019
15.8587
10.7041
27.0074
34.0278
40.4574
46.5351
51.5775
56.9515
61.188
64.9691
68.0289
70.6355
72.6843
74.2329
75.1992
75.6135
75.3643
74.3497
72.4662
69.5037
66.1265
61.1492
53.1723
46.5113
38.9825
30.7063
22.837
19.5979
12.7665
12.6436
18.9896
22.0913
21.6349
18.835
12.4175
12.0893
18.3507
21.1247
21.1288
18.4011
11.9113
11.8986
18.5072
21.3052
21.1929
18.2788
11.8583
11.9436
18.4563
21.597
21.4811
18.3189
11.9064
12.046
18.6563
21.9188
21.8281
18.5224
12.0199
12.1658
18.858
22.2726
22.1793
18.7195
12.1452
12.3099
19.0423
22.6539
22.5604
18.8835
12.2954
12.4405
19.2543
23.0361
22.9344
19.1252
12.4123
12.5663
19.5048
23.4246
23.3241
19.3602
12.55
12.7194
19.7177
23.8524
23.7505
19.5698
12.7026
12.8579
19.9797
24.2815
24.1777
19.8315
12.8452
13.0266
20.2217
24.7565
24.6505
20.0734
13.0127
13.186
20.4946
25.2331
25.1294
20.3285
13.1816
13.3712
20.7493
25.7527
25.6425
20.6061
13.3523
13.5298
21.0832
26.2693
26.155
20.9363
13.5119
13.7184
21.3826
26.8321
26.7235
21.2165
13.7137
13.926
21.6819
27.4284
27.3095
21.5328
13.9119
14.1224
22.0604
28.0396
27.9229
21.9088
14.1156
14.3544
22.4013
28.6964
28.5708
22.2413
14.3452
14.5665
22.7693
29.3588
29.2303
22.604
14.5559
14.7798
23.1641
30.0371
29.9081
22.9898
14.7771
15.0252
23.5597
30.765
30.631
23.3867
15.0244
15.2888
23.9589
31.515
31.3703
23.7779
15.2879
15.5567
24.3407
32.2922
32.1332
24.1512
15.5543
15.8258
24.7259
33.0617
32.8995
24.499
15.8528
16.1505
25.0455
33.8871
33.7109
24.8226
16.1725
16.4987
25.388
34.7216
34.5435
25.1332
16.5659
16.9787
25.6726
35.6552
35.4733
25.4171
17.0957
17.5424
26.03
36.652
36.4378
25.7744
17.7514
18.2277
26.445
37.8176
37.5222
26.1158
18.3692
18.7408
26.911
39.0796
38.6889
26.4068
18.692
18.8818
27.1129
40.1612
39.7457
26.6508
18.8086
18.9637
27.336
41.389
40.978
26.692
18.8937
19.0778
27.3357
42.6163
42.3722
26.8757
18.9987
19.2801
27.7512
44.3572
44.3063
27.5248
19.5193
20.3334
29.1878
47.1976
47.6571
29.4878
21.3704
23.896
32.0102
52.4459
54.9595
32.8625
26.9716
32.0973
39.5526
70.7225
82.9246
51.4018
35.7171
40.5907
68.8729
94.466
98.7044
68.708
40.1815
42.1867
64.8068
91.4118
105.262
75.8469
46.5341
50.2671
82.9813
110.996
120.171
92.1075
53.9506
57.533
98.8909
126.59
134.828
107.914
61.4186
64.8561
116.098
142.126
151.109
125.019
68.0595
70.2411
129.53
155.177
153.646
128.734
70.2236
76.4671
139.471
163.547
170.693
147.65
79.8383
83.5372
154.914
178.117
181.321
157.203
83.0357
81.7199
154.243
178.842
181.499
156.503
82.3318
85.5711
158.715
181.704
190.677
168.428
92.5218
101.036
178.5
198.692
208.035
188.618
108.807
114.994
195.619
213.791
215.969
200.242
121.041
131.657
209.367
222.943
229.204
219.707
142.771
150.804
224.621
230.567
229.665
225.819
158.876
166.488
226.079
226.116
221.885
224.574
172.839
177.044
220.926
216.694
207.01
215.283
180.416
181.452
208.853
199.98
197.408
205.161
180.897
180.149
203.874
196.843
196.979
203.802
178.313
176.695
206.12
198.859
203.514
206.228
173.423
170.416
204.97
207.917
207.728
197.579
167.317
164.366
192.369
208.284
203.639
182.281
161.205
157.996
169.416
185.838
184.374
162.821
154.145
150.458
154.752
174.801
154.684
145.755
145.694
141.06
138.832
156.267
149.505
132.052
135.692
130.455
124.315
133.129
137.737
117.47
124.308
118.607
112.904
130.47
115.692
103.292
112.276
106.288
103.914
129.824
121.732
96.9494
100.119
94.7601
98.6125
137.273
128.858
93.5298
89.5512
84.6457
88.9337
119.237
100.371
81.4173
79.5385
74.4459
81.2929
108.729
106.335
78.5602
70.2904
65.6904
71.1935
89.6934
100.289
73.0776
62.0407
58.8169
69.7271
92.9606
85.8185
64.519
55.5749
52.4607
57.3748
71.5575
79.9804
58.6348
49.0123
47.486
56.7641
75.6659
57.6995
45.5863
44.113
39.7448
41.7862
65.5656
52.7235
36.7748
38.2657
35.2175
33.494
45.9965
31.3668
26.6098
33.0079
31.8172
32.8998
41.4015
38.5945
30.9058
31.518
30.3283
25.2941
26.6997
40.0839
31.6959
30.8774
30.994
28.9217
35.5124
31.563
26.6636
30.7998
30.519
22.917
23.388
33.3771
26.8894
28.5191
28.833
25.296
31.305
22.2991
21.924
29.2678
27.9894
25.9833
32.906
30.44
24.4704
28.5873
29.8414
21.5585
21.7021
32.4196
25.5559
28.1764
28.9179
24.1251
30.0316
21.7363
21.6024
30.3198
28.5145
25.4893
32.1252
28.5602
23.8658
29.2399
30.3362
22.3228
25.5622
20.0592
20.2161
33.2129
28.3143
22.3275
27.0872
25.2823
21.1958
29.1873
31.9415
19.7722
19.4348
25.6414
21.2559
27.5553
28.6566
20.4369
23.7932
18.7161
19.209
31.6928
27.0827
20.0756
23.8068
22.4491
19.5617
28.3015
31.5473
18.8744
17.8626
23.0359
19.5072
26.987
28.3177
19.2054
21.6352
17.5888
18.5184
31.9316
26.9921
18.6678
21.6766
20.464
18.6484
28.6332
32.7791
18.4813
17.3036
21.0424
18.3099
27.7165
30.9129
18.0984
17.5417
23.4665
19.0705
26.8367
28.6839
19.0034
21.5859
17.7421
19.2081
32.0907
27.3375
19.3804
22.2821
21.0972
19.2102
29.069
32.6064
19.5307
17.7091
22.1148
19.4272
27.7174
29.6531
18.7861
20.4219
17.9821
20.4203
33.2578
27.9598
18.895
20.3662
19.1188
18.3072
29.9821
34.3272
20.8267
17.4205
19.5347
17.7096
28.9347
32.6308
19.3837
17.5095
20.4627
18.5191
27.8992
30.2712
18.0939
18.8988
17.4431
21.0579
34.143
28.5735
18.2304
18.7249
17.7336
17.7418
31.0549
35.7089
21.6155
17.0009
17.8609
17.1094
29.5137
33.1956
19.9741
16.5866
18.3015
17.5524
28.0417
30.8075
17.2128
17.2865
16.701
21.14
35.2184
29.3306
17.7616
17.9126
16.8279
17.5113
32.3018
37.2147
22.5589
16.9144
17.792
17.2916
30.4776
35.486
20.4151
16.7433
18.3131
17.6616
29.7521
32.9823
17.4829
16.9455
17.1492
23.1219
37.9793
31.0004
17.1419
17.3319
16.6332
20.8049
35.8807
29.9751
17.6266
17.8649
16.7375
17.5731
33.3014
38.542
23.1129
16.9669
17.7411
18.0461
31.6578
35.1952
17.9939
16.4875
17.3487
24.7842
40.6041
32.8727
16.8575
16.4415
16.2975
21.6993
38.2477
31.5191
17.2562
17.1153
15.9247
17.4297
35.2977
41.1167
25.069
17.0069
16.0479
16.6948
33.21
39.0235
21.602
16.0118
16.5945
16.8112
31.8587
35.832
17.088
15.5164
16.852
25.6068
42.1333
33.7411
16.6605
15.9031
16.0925
22.2394
40.0873
32.9288
17.062
16.7772
15.7026
17.4193
37.1447
43.8234
26.4609
17.1871
16.128
16.9453
35.1162
41.8806
22.9081
16.3665
16.7443
17.1353
33.9329
38.3541
17.6167
15.7285
17.48
27.5587
45.499
36.4896
17.3725
16.3507
16.7389
23.8054
43.5192
35.2875
17.5892
17.1447
16.0925
18.1642
40.01
47.5774
28.7126
18.0323
16.6902
17.828
38.0072
45.565
24.5716
17.096
17.2983
17.8403
36.7889
41.6439
18.4984
16.281
18.4328
29.9283
49.4394
39.4418
18.3219
17.0274
17.6019
25.6552
47.3879
38.3129
18.4049
17.7851
16.7346
19.1468
43.5095
51.9011
31.3071
19.1037
17.4694
18.9057
41.099
49.44
26.6968
18.0957
18.0884
18.7937
39.5281
44.9442
19.6827
17.0636
19.604
32.3004
53.7059
42.7442
19.4062
17.8828
18.7093
27.938
51.5377
41.3416
19.4386
18.6075
17.5585
20.3593
47.0699
56.3863
33.8616
20.3502
18.4455
20.0954
44.7824
54.0515
28.8879
19.3259
19.0026
19.8874
43.1334
49.0643
20.8429
17.9365
20.9665
35.0652
58.7645
46.5969
20.6871
18.9461
20.0433
30.361
56.3798
44.9862
20.6111
19.5853
18.5308
21.7213
51.2843
61.6348
36.7497
21.7868
19.5917
21.4683
48.6865
58.9361
31.5235
20.7722
20.0968
21.2159
46.8852
53.3871
22.2899
19.0106
22.5049
38.2404
64.1682
50.4656
22.2468
20.207
21.6275
33.2464
61.2468
48.7961
22.0749
20.8227
19.7455
23.355
55.8069
67.3098
39.9209
23.473
20.9466
23.0772
53.0156
64.22
34.1261
22.3665
21.3693
22.6489
50.8278
57.9137
23.9051
20.254
24.2519
41.3297
69.769
55.0623
23.8255
21.5895
23.2891
36.0327
67.0119
53.405
23.6647
22.2037
21.0812
24.9989
60.9104
73.4348
43.538
25.4987
22.3915
24.8534
57.6251
69.9469
37.2095
24.154
22.8591
24.3725
55.2675
62.9544
25.717
21.7118
26.3901
45.0989
76.22
59.9422
25.7975
23.1964
25.2097
39.163
72.8954
57.9572
25.4481
23.8124
22.6688
27.0014
66.1301
79.804
46.9682
27.6246
24.0579
26.749
62.7083
76.2389
40.5548
26.1094
24.5995
26.3507
59.7242
67.9862
27.7771
23.3665
27.952
48.1253
82.3859
64.7062
28.3726
24.9743
24.1129
29.5028
73.7649
89.3433
51.9671
30.1683
25.3977
28.5713
69.1999
83.9654
44.1537
28.2112
25.7914
27.8919
65.7333
74.9458
29.43
24.5624
30.8969
53.2654
91.0656
70.7363
29.5227
26.0354
28.9912
45.8034
86.0957
67.4484
28.7825
26.6362
25.4665
30.7097
76.7608
92.6399
54.1869
31.2878
26.9295
31.1555
72.6293
82.6873
31.9568
25.9756
33.4526
58.4735
101.34
78.0582
31.3203
27.4118
31.4205
49.8979
95.1622
74.0251
30.3981
27.6256
26.4908
32.5
84.2881
101.759
58.6433
33.3428
27.8607
32.8493
79.0524
89.9715
33.7684
26.9259
35.2819
62.5941
109.947
84.0204
32.7914
28.4798
33.134
53.7122
102.719
79.4292
31.9113
28.6917
27.6927
34.2685
90.3556
109.083
63.0246
35.2611
29.258
34.7638
84.4104
96.4535
36.2471
28.3673
37.6468
66.4644
117.801
90.2591
34.7932
30.1391
35.641
57.9332
110.649
85.6843
34.083
30.2398
29.2247
36.4029
97.4179
117.743
67.3192
37.5616
30.7972
36.9034
90.7365
103.42
38.3782
29.8479
39.148
71.047
126.359
96.5515
38.0867
31.5716
30.4922
39.4109
109.774
133.633
74.287
40.4452
32.1693
39.1745
101.352
114.92
40.9335
31.1668
42.1186
78.1407
139.077
105.465
40.7214
33.0529
31.93
41.1288
118.975
146.336
81.1305
43.6569
33.7284
41.703
110.156
125.048
43.4473
32.6489
44.9974
83.732
151.268
114.021
42.987
34.5665
33.3875
44.3919
129.473
157.582
86.1271
46.1712
35.0813
43.395
118.452
134.634
45.2787
33.9452
47.5561
89.6058
163.414
122.642
45.3907
36.0298
34.8571
46.6137
138.634
167.689
91.4152
48.6195
36.7515
45.5507
124.195
141.017
47.6871
35.5488
49.9947
95.2188
173.36
129.482
47.88
37.8051
36.5663
48.9403
145.892
176.513
94.5426
49.858
38.2858
47.7808
131.069
144.318
52.3436
36.9295
36.6432
58.804
166.827
202.297
111.769
56.4835
40.5471
52.8603
149.181
166.945
59.8131
39.5073
38.5552
58.2208
185.554
225.801
120.217
60.1303
41.3092
54.7109
162.827
178.646
60.2682
40.1123
39.6476
65.4267
203.084
240.018
127.915
63.5389
43.0208
57.5158
173.764
194.159
64.2005
41.4429
40.3468
65.5122
217.786
256.162
129.226
62.6782
42.818
56.8102
176.331
198.97
60.6213
40.9983
39.6038
63.0807
218.704
247.215
79.3322
40.7884
39.0611
74.7453
263.202
306.112
157.52
70.4788
45.0833
64.5866
209.779
230.361
61.4708
42.4305
42.3356
78.4741
253.056
276.479
74.0047
41.1159
41.0753
85.1435
292.964
308.356
81.6293
39.9313
40.2939
90.4488
309.58
304.598
90.9383
39.8452
40.4905
96.8642
294.666
277.491
97.3437
40.1389
41.1399
102.638
260.217
242.964
103.762
40.8631
42.546
110.037
227.282
212.54
112.118
42.5166
45.0306
119.768
199.784
188.215
121.539
45.2281
48.5145
127.825
178.256
169.374
130.45
49.038
53.1385
134.711
161.615
154.851
137.843
53.9423
59.1463
140.131
148.824
143.634
142.896
60.1866
65.8915
144.636
138.968
135.017
146.951
66.9106
72.7532
148.449
131.4
128.467
150.551
73.9059
79.8557
151.753
125.636
123.564
153.628
81.015
87.1158
154.621
121.257
120.013
156.192
88.2391
94.1281
156.942
118.124
117.498
158.172
95.0557
100.647
158.759
115.987
115.718
159.736
101.431
106.607
160.126
114.584
114.526
160.84
107.155
111.93
161.107
113.723
113.797
161.675
112.318
116.647
161.69
113.208
113.353
162.119
116.772
120.665
162.045
112.928
113.131
162.369
120.716
124.144
162.197
112.805
113.046
162.419
124.051
127.084
162.185
112.784
113.062
162.347
126.918
129.555
162.052
112.839
113.173
162.155
129.292
131.615
161.831
112.964
113.328
161.906
131.306
133.31
161.547
113.129
113.508
161.592
132.933
134.691
161.224
113.317
113.711
161.259
134.292
135.803
160.87
113.528
113.929
160.89
135.359
136.685
160.505
113.752
114.161
160.526
136.236
137.375
160.13
113.991
114.403
160.146
136.899
137.903
159.762
114.239
114.658
159.786
137.434
138.3
159.388
114.499
114.921
159.406
137.815
138.583
159.028
114.767
115.191
159.058
138.11
138.778
158.669
115.042
115.467
158.694
138.293
138.911
158.327
115.324
115.751
158.365
138.427
138.987
157.996
115.612
116.038
158.032
138.475
138.99
157.676
115.903
116.329
157.72
138.481
138.948
157.361
116.197
116.62
157.401
138.411
138.826
157.05
116.491
116.91
157.09
138.277
138.63
156.73
116.783
117.194
156.758
138.047
138.355
156.399
117.068
117.469
156.426
137.769
138.034
156.051
117.343
117.73
156.061
137.415
137.662
155.692
117.604
117.977
155.706
137.045
137.27
155.321
117.85
118.208
155.321
136.619
136.834
154.946
118.079
118.423
154.95
136.176
136.38
154.565
118.294
118.621
154.553
135.707
135.909
154.174
118.49
118.802
154.173
135.246
135.44
153.796
118.67
118.967
153.78
134.772
134.968
153.415
118.833
119.117
153.412
134.316
134.507
153.05
118.983
119.254
153.044
133.859
134.056
152.696
119.118
119.379
152.705
133.427
133.619
152.36
119.243
119.492
152.37
132.997
133.196
152.041
119.356
119.596
152.063
132.588
132.783
151.736
119.46
119.69
151.76
132.185
132.387
151.448
119.554
119.778
151.484
131.803
132.002
151.173
119.641
119.857
151.211
131.426
131.634
150.915
119.72
119.931
150.964
131.072
131.277
150.669
119.794
119.998
150.719
130.723
130.936
150.438
119.861
120.06
150.499
130.396
130.607
150.218
119.924
120.117
150.278
130.072
130.292
150.011
119.981
120.171
150.082
129.773
129.99
149.814
120.036
120.22
149.884
129.476
129.702
149.629
120.085
120.267
149.709
129.2
129.423
149.453
120.132
120.31
149.53
128.925
129.158
149.286
120.174
120.35
149.374
128.675
128.904
149.128
120.215
120.387
149.213
128.416
128.659
148.978
120.252
120.421
149.072
128.187
128.427
148.835
120.287
120.453
148.926
127.949
128.203
148.7
120.319
120.483
148.8
127.742
127.992
148.572
120.349
120.51
148.668
127.524
127.788
148.45
120.376
120.536
148.555
127.336
127.596
148.335
120.402
120.56
148.436
127.137
127.41
148.225
120.426
120.583
148.336
126.966
127.235
148.122
120.448
120.603
148.228
126.784
127.067
148.024
120.468
120.623
148.139
126.631
126.909
147.932
120.488
120.64
148.042
126.465
126.756
147.844
120.505
120.657
147.962
126.326
126.612
147.761
120.522
120.672
147.874
126.174
126.473
147.681
120.536
120.685
147.803
126.05
126.343
147.607
120.55
120.698
147.723
125.911
126.217
147.535
120.562
120.709
147.66
125.8
126.099
147.468
120.574
120.719
147.587
125.673
125.984
147.403
120.584
120.73
147.531
125.572
125.876
147.343
120.595
120.74
147.464
125.454
125.771
147.284
120.605
120.75
147.414
125.362
125.672
147.229
120.616
120.761
147.353
125.252
125.575
147.176
120.627
120.772
147.307
125.17
125.484
147.127
120.64
120.785
147.252
125.068
125.395
147.078
120.653
120.8
147.211
124.993
125.311
147.034
120.67
120.816
147.161
124.897
125.228
146.991
120.687
120.834
147.126
124.827
125.15
146.952
120.707
120.855
147.08
124.738
125.072
146.913
120.728
120.877
147.05
124.674
125
146.879
120.751
120.901
147.009
124.591
124.929
146.845
120.776
120.926
146.983
124.533
124.862
146.815
120.802
120.952
146.946
124.453
124.793
146.785
120.829
120.981
146.925
124.399
124.731
146.76
120.859
121.013
146.893
124.324
124.668
146.732
120.892
121.05
146.864
124.264
124.586
146.71
120.929
121.136
146.844
124.192
124.52
146.683
121.023
121.21
146.802
124.121
124.432
146.636
121.099
121.38
146.732
123.967
124.098
146.65
121.289
121.727
146.69
123.437
122.868
146.586
122.112
123.254
145.908
121.989
118.341
144.896
125.13
126.733
143.55
115.229
109.773
142.604
128.675
76.533
61.5025
62.3162
72.854
89.0542
97.3278
102.864
118.937
129.547
134.831
137.527
138.693
138.923
138.588
138.041
137.477
136.977
136.565
136.235
135.975
135.771
135.611
135.485
135.386
135.31
135.25
135.205
135.173
135.152
135.14
135.134
135.133
135.13
135.127
135.122
135.116
135.109
135.101
135.093
135.084
135.076
135.068
135.06
135.053
135.048
135.044
135.042
135.042
135.045
135.052
135.067
135.089
135.117
135.148
135.19
135.246
135.319
135.409
135.516
135.635
135.76
135.887
136.01
136.128
136.239
136.343
136.442
136.538
136.632
136.725
136.82
136.916
137.016
137.119
137.227
137.34
137.458
137.582
137.711
137.847
137.988
138.135
138.286
138.443
138.604
138.769
138.938
139.109
139.282
139.457
139.634
139.81
139.987
140.164
140.34
140.514
140.686
140.855
141.022
141.186
141.345
141.501
141.652
141.799
141.94
142.077
142.208
142.335
142.457
142.574
142.686
142.794
142.898
142.998
143.095
143.189
143.279
143.366
143.451
143.533
143.613
143.69
143.766
143.839
143.911
143.98
144.048
144.114
144.178
144.24
144.301
144.361
144.418
144.475
144.529
144.583
144.635
144.686
144.735
144.784
144.831
144.878
144.924
144.97
145.014
145.059
145.103
145.147
145.191
145.235
145.279
145.323
145.369
145.414
145.461
145.509
145.557
145.607
145.658
145.711
145.765
145.821
145.878
145.937
145.997
146.059
146.122
146.186
146.25
146.314
146.375
146.432
146.484
146.526
146.556
146.568
146.57
146.571
146.571
146.57
146.569
146.562
146.53
146.429
146.214
145.869
145.42
144.913
144.382
143.842
143.295
142.736
142.163
141.571
140.96
140.328
139.677
139.008
138.322
137.619
136.902
136.172
135.428
134.674
133.911
133.139
132.36
131.576
130.788
129.998
129.208
128.419
127.632
126.85
126.073
125.304
124.544
123.795
123.058
122.335
121.627
120.937
120.265
119.614
118.984
118.374
117.783
117.206
116.643
116.098
115.588
115.155
114.847
114.676
114.603
114.577
114.564
114.522
114.342
113.455
112.242
108.838
107.018
105.483
103.506
102.048
100.078
98.745
96.8278
95.6266
93.7815
92.7107
90.9423
89.9894
88.3035
87.4477
85.842
85.0705
83.5416
82.8427
81.3867
80.7457
79.3638
78.7657
77.4571
76.8971
75.6544
75.1285
73.9457
73.4504
72.3216
71.8543
70.7757
70.3342
69.3019
68.8838
67.8938
67.4966
66.5448
66.1663
65.2489
64.8872
64.0008
63.654
62.7956
62.4622
61.6298
61.3086
60.4998
60.1894
59.4017
59.1007
58.3316
58.0387
57.286
57
56.2613
55.9809
55.2538
54.9777
54.2599
53.9869
53.2763
53.0054
52.3
52.03
51.3277
51.0576
50.3566
50.0853
49.3832
49.1096
48.405
48.1287
47.4206
47.1403
46.4264
46.1421
45.4227
45.1333
44.4058
44.1107
43.3752
43.0754
42.3329
42.0283
41.2808
40.9742
40.2266
39.9194
39.1748
38.8702
38.1327
37.8335
37.1079
36.8193
36.1173
35.8474
35.1809
34.934
34.3117
34.0934
33.5234
33.3339
32.8161
32.6546
32.1922
32.0543
31.64
31.5167
31.1349
31.0243
30.6672
30.5667
30.2327
30.1402
29.8266
29.7427
29.4476
29.3723
29.0964
29.0293
28.77
28.71
28.4663
28.4145
28.1885
28.1442
27.9337
27.8948
27.6946
27.6592
27.4676
27.4366
27.2552
27.2278
27.0544
27.0275
26.8572
26.832
26.6576
26.6106
26.4693
26.3709
26.4367
26.5588
33.7159
33.5164
40.1294
40.3676
46.7376
46.8867
48.76
39.5736
33.3456
33.2609
38.7778
40.3177
33.6601
33.5239
39.2233
49.1625
49.7951
40.7233
33.9732
33.8035
39.5705
41.0927
34.245
34.0663
39.9045
50.3389
50.8643
41.4532
34.5104
34.33
40.2341
41.8033
34.7791
34.598
40.5585
51.3638
51.8439
42.1504
35.0544
34.8724
40.882
42.4948
35.3366
35.1541
41.208
52.3072
52.7644
42.8421
35.6291
35.4482
41.5434
43.2002
35.9391
35.7619
41.8961
53.2219
53.6926
43.577
36.2718
36.0997
42.2731
43.9796
36.6302
36.4637
42.6811
54.184
54.7146
44.4158
37.0178
36.8577
43.1274
44.8942
37.4412
37.2899
43.6232
55.293
55.9201
45.4275
37.9083
37.7688
44.1901
46.0391
38.4277
38.3022
44.8434
56.6492
57.4846
46.7461
39.0083
38.8985
45.5893
47.569
39.6621
39.5684
46.4217
58.4523
59.5637
48.5156
40.4022
40.3266
47.3695
49.5851
41.2392
41.1839
48.4371
60.8179
62.2041
50.7741
42.1783
42.1429
49.6185
52.0672
43.2145
43.197
50.899
63.6963
65.2664
53.4432
44.338
44.3349
52.2569
54.8725
45.5344
45.5442
53.6647
66.8713
68.4806
56.3256
46.7827
46.7966
55.0962
57.7805
48.0568
48.0687
56.5301
70.058
71.5934
59.2163
49.3357
49.3399
57.9451
60.6151
50.6066
50.6019
59.3276
73.0696
74.4745
61.9701
51.8618
51.8489
60.6722
63.2803
53.0966
53.0751
61.9764
75.8119
77.0841
64.5452
54.3067
54.2767
63.2408
65.7705
55.493
55.4559
64.4704
78.3004
79.4684
66.9629
56.6576
56.6135
65.6696
68.1251
57.8012
57.7513
66.8423
80.5961
81.69
69.2629
58.9276
58.8731
67.9933
70.3803
60.0393
59.9812
69.1259
82.7561
83.7985
71.4811
61.1396
61.0789
70.2439
72.5684
62.2311
62.1687
71.3501
84.8205
85.8245
73.6451
63.3164
63.2534
72.4477
74.7147
64.3988
64.3361
73.5382
86.8128
87.7866
75.7801
65.4812
65.4198
74.6226
76.8434
66.567
66.5079
75.7073
88.7491
89.7029
77.9065
67.6591
67.6033
76.7955
78.9729
68.7602
68.7089
77.8897
90.6541
91.6046
80.0448
69.8732
69.8274
78.9915
81.1237
71.0009
70.9617
80.1026
92.5539
93.5024
82.2109
72.1458
72.1144
81.2246
83.3078
73.3107
73.2883
82.3592
94.4496
95.3954
84.4159
74.4983
74.4861
83.5083
85.5368
75.7107
75.7097
84.6741
96.3402
97.2841
86.6729
76.9527
76.9681
85.8588
87.8253
78.2258
78.2593
87.0642
98.2284
99.1737
88.9964
79.5325
79.5859
88.2921
90.1879
80.876
80.9514
89.5441
100.12
101.065
91.4024
82.2595
82.3591
90.818
92.6415
83.6877
83.8141
92.1199
102.008
102.948
93.9071
85.1651
85.3213
93.4536
95.2043
86.6958
86.8841
94.8256
103.879
104.795
96.5433
88.2782
88.4963
96.2204
97.8985
89.9099
90.1594
97.6356
105.706
106.609
99.2688
91.5917
91.875
99.0689
100.651
93.3246
93.6443
100.518
107.5
108.376
102.043
95.1098
95.4697
101.979
103.441
96.9485
97.3521
103.449
109.232
110.064
104.836
98.8436
99.2973
104.94
106.226
100.789
101.302
106.423
110.863
111.622
107.597
102.754
103.354
107.886
108.939
104.747
105.431
109.307
112.33
112.977
110.234
106.751
107.496
110.662
111.451
108.715
109.503
111.907
113.546
114.012
112.55
110.59
111.358
112.984
114.378
114.167
113.896
113.579
113.221
112.828
112.404
111.952
111.475
110.978
110.461
109.929
109.381
108.82
108.244
107.656
107.058
106.451
105.839
105.221
104.597
103.965
103.327
102.682
102.034
101.384
100.731
100.077
99.425
98.7612
98.0765
97.376
96.6622
95.9354
95.195
94.4389
93.6642
92.8661
92.0384
91.1728
90.2605
89.2918
88.2554
87.1473
85.959
84.7332
83.3978
81.9325
80.4031
78.8456
77.3163
75.8713
74.5555
73.4018
72.4095
71.5574
70.8107
70.1327
69.4862
68.8423
68.1827
67.4974
66.7789
66.0257
65.2388
64.4184
63.5733
62.6836
61.831
60.8498
60.3953
57.6111
51.5977
51.6621
57.2517
61.4288
61.6265
65.6516
65.2564
68.2998
68.5801
68.1616
73.575
71.3814
70.9418
73.0069
73.4498
75.1184
74.5885
75.5693
76.1206
76.9865
78.1144
76.6377
76.028
75.8136
76.4547
75.5117
74.826
72.9204
73.5618
76.2294
69.2458
69.9339
69.7087
66.0614
66.369
57.9381
58.182
48.8876
46.8916
45.9785
44.1911
44.4349
37.202
36.465
28.8971
29.3413
28.0185
34.9566
33.987
27.9842
28.5811
36.2198
45.3024
57.2072
56.5736
45.6378
36.9624
34.5773
28.2812
29.1516
28.7813
35.2867
37.8078
46.909
59.2558
70.765
78.1668
79.9633
78.6253
74.9671
69.1396
70.427
76.5643
80.5448
82.1963
84.394
82.4342
78.126
71.6457
72.8787
79.7038
81.2762
74.0858
75.2696
82.8414
88.2762
86.3096
84.3639
86.6794
89.011
91.4067
93.8608
90.2546
84.3908
76.4217
77.5331
85.9141
87.3979
78.5971
79.605
88.8273
96.1534
94.2091
92.2371
96.3675
98.916
101.492
104.072
98.0476
90.1852
80.5513
81.4331
91.4536
92.6165
82.2593
83.0439
93.6672
103.102
101.559
99.8615
106.623
109.099
111.439
118.188
114.574
110.969
107.432
103.99
100.662
97.4556
94.3724
91.4132
88.5633
85.8375
83.1829
80.7084
73.6254
61.7448
58.5089
47.5907
49.0398
49.7063
60.925
64.2731
76.2561
79.2411
82.3109
85.5984
73.2837
69.4726
70.0343
66.3898
67.0543
63.5488
52.057
51.3084
41.2854
38.46
40.2656
37.5637
39.4717
36.7954
38.5608
35.9894
29.3319
29.7103
30.2982
29.9054
30.9136
30.495
31.5358
31.1405
32.2211
31.7822
39.2984
42.133
40.2711
32.4851
32.8971
33.6436
43.2465
53.7861
54.6104
44.1608
41.1863
33.1843
34.3828
33.9544
42.2463
45.3775
56.487
57.4068
59.4483
60.4778
72.8459
76.8468
89.0487
92.7196
96.6431
100.842
89.6845
84.9686
85.0244
80.567
80.7608
76.5396
63.8554
62.7034
50.2819
46.7895
48.8184
45.5174
47.7149
44.4113
46.3823
43.2512
34.721
35.2006
36.0129
35.5671
36.912
36.4115
37.8023
37.3408
38.7907
38.2673
48.009
51.4969
49.4058
39.2916
39.7723
40.8589
53.1076
66.2822
67.5699
54.4506
50.7552
40.3097
41.9395
41.4313
52.2942
56.2281
70.237
71.6867
74.6395
76.2841
89.8495
94.7953
105.342
110.168
115.322
120.809
113.469
107.937
106.66
101.291
100.433
95.2753
81.4619
79.5681
63.61
59.1053
61.3804
57.1865
59.7017
55.506
57.7212
53.7946
42.5535
43.1317
44.3255
43.7929
45.6432
45.0339
46.9679
46.4099
48.437
47.7939
61.0126
65.5185
63.1898
49.3411
49.9288
51.598
68.0513
85.1505
87.3457
70.2601
65.3835
50.9216
53.3089
52.7048
67.9038
73.2145
91.5606
94.1658
99.0846
102.138
115.144
120.709
126.683
121.704
113.575
104.454
94.608
83.8204
84.6327
95.4577
96.2608
85.5281
86.5573
97.0824
107.059
106.435
105.574
115.402
116.707
117.278
117.331
107.556
97.9845
87.7389
89.0421
98.972
99.9935
90.3947
91.6825
100.842
109.098
108.468
107.962
117.124
117.069
117.46
117.632
109.853
101.74
92.8487
93.9847
102.59
103.369
95.042
95.9813
104.049
111.053
110.819
110.446
117.647
117.422
117.13
116.801
111.186
104.597
96.844
97.6194
105.048
105.43
98.3279
98.9785
105.758
111.273
111.271
111.249
116.462
116.128
115.804
119.562
120.193
120.884
121.646
122.483
123.396
124.411
125.509
126.433
127.273
128.42
129.268
129.054
127.667
124.945
132.674
138.529
143.475
147.118
142.342
137.316
132.403
128.623
123.292
111.869
107.909
86.7532
80.2384
82.493
76.58
79.3161
73.4696
75.8434
70.4947
54.534
55.26
57.3409
56.6314
59.6297
58.8264
62.0689
61.29
64.7781
64.1323
84.2813
90.9728
89.142
67.4805
67.9547
71.8135
96.579
118.343
123.523
102.519
94.7985
71.4745
76.3282
76.2312
101.581
110.016
130.34
136.795
144.704
152.718
152.789
156.325
145.815
145.266
140.972
136.913
150.839
154.633
157.506
161.86
161.863
161.17
166.466
159.666
152.332
146.254
141.973
134.264
127.854
118.713
118.648
109.412
81.7502
81.5729
99.1443
100.685
113.557
124.637
134.533
139.239
128.391
122.89
113.048
136.479
146.371
151.121
156.452
161.631
166.376
162.652
157.384
149.352
142.141
155.656
163.637
168.795
170.688
171.676
173.557
178.959
175.722