/*--------------------------------*- C++ -*----------------------------------*\
| =========                 |                                                 |
| \\      /  F ield         | OpenFOAM: The Open Source CFD Toolbox           |
|  \\    /   O peration     | Version:  v2006                                 |
|   \\  /    A nd           | Website:  www.openfoam.com                      |
|    \\/     M anipulation  |                                                 |
\*---------------------------------------------------------------------------*/
FoamFile
{
    version     2.0;
    format      ascii;
    class       volScalarField;
    location    "0.046";
    object      rho;
}
// * * * * * * * * * * * * * * * * * * * * * * * * * * * * * * * * * * * * * //

dimensions      [1 -3 0 0 0 0 0];


internalField   nonuniform List<scalar> 
11076
(
1.71074
1.71074
1.71074
1.71074
1.71074
1.71074
1.71074
1.71075
1.71079
1.71087
1.71095
1.71105
1.71114
1.71125
1.71135
1.71146
1.71157
1.71168
1.7118
1.71193
1.71205
1.71219
1.71232
1.71246
1.7126
1.71275
1.7129
1.71305
1.71321
1.71336
1.71352
1.71368
1.71384
1.714
1.71417
1.71433
1.71449
1.71465
1.71482
1.71498
1.71514
1.71529
1.71545
1.7156
1.71575
1.71589
1.71604
1.71617
1.71631
1.71644
1.71656
1.71668
1.7168
1.71691
1.71702
1.71712
1.71721
1.71729
1.71734
1.71738
1.71739
1.71739
1.71738
1.71738
1.71734
1.71739
1.71745
1.71753
1.71776
1.71814
1.71837
1.71824
1.71787
1.71825
1.71827
1.71822
1.71811
1.71763
1.71739
1.71795
1.71811
1.71798
1.71779
1.71719
1.71702
1.71764
1.71785
1.71773
1.7175
1.71688
1.71678
1.7174
1.71763
1.71755
1.7173
1.71669
1.71663
1.71722
1.71747
1.7174
1.71715
1.71657
1.71653
1.71709
1.71735
1.7173
1.71704
1.71651
1.71649
1.717
1.71726
1.71723
1.71697
1.71648
1.71648
1.71695
1.71721
1.71719
1.71694
1.71648
1.7165
1.71693
1.71718
1.71718
1.71694
1.71652
1.71654
1.71694
1.71718
1.7172
1.71696
1.71657
1.7166
1.71697
1.71721
1.71723
1.717
1.71664
1.71668
1.71703
1.71725
1.71728
1.71706
1.71673
1.71678
1.7171
1.71731
1.71735
1.71714
1.71683
1.71689
1.71718
1.71739
1.71744
1.71724
1.71695
1.71701
1.71729
1.71748
1.71754
1.71735
1.71708
1.71715
1.7174
1.7176
1.71766
1.71748
1.71723
1.7173
1.71754
1.71772
1.71779
1.71762
1.71739
1.71747
1.71768
1.71786
1.71794
1.71777
1.71756
1.71765
1.71785
1.71801
1.7181
1.71794
1.71775
1.71784
1.71802
1.71818
1.71828
1.71813
1.71795
1.71805
1.71822
1.71837
1.71847
1.71833
1.71817
1.71827
1.71843
1.71857
1.71868
1.71855
1.7184
1.71851
1.71865
1.71879
1.71891
1.71878
1.71865
1.71877
1.7189
1.71902
1.71915
1.71904
1.71892
1.71904
1.71916
1.71927
1.71942
1.71931
1.71919
1.71932
1.71943
1.71955
1.7197
1.71959
1.71948
1.71961
1.71973
1.71984
1.72001
1.7199
1.71978
1.71994
1.72005
1.72016
1.72034
1.72023
1.72013
1.72031
1.72039
1.72049
1.72068
1.72059
1.72051
1.7207
1.72076
1.72085
1.72106
1.72097
1.72089
1.72111
1.72116
1.72124
1.72145
1.72138
1.72136
1.72162
1.72157
1.72163
1.72184
1.7218
1.72188
1.7221
1.722
1.72204
1.72228
1.72224
1.72231
1.72256
1.72246
1.72249
1.72273
1.72272
1.72284
1.72311
1.72295
1.72295
1.7232
1.72319
1.72331
1.72352
1.72344
1.72346
1.72372
1.7237
1.72383
1.72417
1.72395
1.72394
1.72418
1.72422
1.72452
1.72481
1.72447
1.72443
1.72473
1.72477
1.72497
1.72526
1.72507
1.72505
1.72534
1.72539
1.72566
1.7261
1.72568
1.72557
1.72584
1.72598
1.72645
1.72663
1.72628
1.72616
1.72652
1.72663
1.72694
1.72737
1.72695
1.72682
1.72708
1.72727
1.72779
1.72804
1.72756
1.72738
1.72773
1.72785
1.72808
1.72839
1.72815
1.72809
1.72836
1.72846
1.72894
1.7296
1.72878
1.72855
1.72884
1.72915
1.73001
1.73
1.72947
1.72922
1.72961
1.72979
1.72997
1.73029
1.73006
1.72997
1.73015
1.73028
1.73087
1.73139
1.73056
1.73031
1.7306
1.73085
1.73158
1.73163
1.73116
1.73094
1.73125
1.73145
1.73193
1.73244
1.7317
1.73144
1.73157
1.73192
1.73283
1.73307
1.73216
1.73178
1.73201
1.73234
1.73306
1.73303
1.73251
1.73223
1.73243
1.73268
1.73312
1.73328
1.73285
1.7326
1.73277
1.733
1.7334
1.73331
1.73309
1.73291
1.733
1.73312
1.73323
1.73324
1.73314
1.73305
1.73313
1.73321
1.73331
1.73339
1.7333
1.73323
1.73332
1.7334
1.73349
1.73351
1.73344
1.73338
1.73341
1.73347
1.73354
1.73359
1.73347
1.7334
1.73347
1.73356
1.73373
1.73378
1.73361
1.73352
1.73359
1.73373
1.73398
1.73396
1.73375
1.73361
1.73364
1.73381
1.73403
1.73377
1.73373
1.73361
1.73366
1.73375
1.73374
1.73362
1.7337
1.73367
1.73368
1.7337
1.73369
1.73376
1.73367
1.73365
1.73364
1.73368
1.73382
1.73395
1.73371
1.73361
1.73361
1.73374
1.73399
1.73406
1.73382
1.73364
1.73365
1.73381
1.73396
1.73391
1.73378
1.73365
1.73359
1.73364
1.73368
1.73365
1.73361
1.73358
1.73355
1.73352
1.73346
1.73352
1.73354
1.73355
1.73352
1.73354
1.73355
1.73368
1.7336
1.73353
1.73361
1.7337
1.73369
1.73367
1.7337
1.73363
1.73366
1.73375
1.73377
1.73378
1.73375
1.73367
1.73368
1.73374
1.73377
1.73368
1.73369
1.73366
1.73367
1.73369
1.7337
1.7336
1.73367
1.73368
1.73366
1.73361
1.73356
1.7335
1.73358
1.73362
1.73359
1.73356
1.73346
1.73356
1.73346
1.73347
1.7334
1.73341
1.73352
1.73341
1.73341
1.73344
1.73346
1.73346
1.73348
1.73348
1.73352
1.73354
1.73357
1.73359
1.73362
1.73363
1.73366
1.73367
1.73368
1.73368
1.73368
1.73368
1.73367
1.73364
1.73358
1.73347
1.73333
1.73354
1.73409
1.73494
1.73497
1.73438
1.73361
1.73358
1.73455
1.73482
1.7347
1.73467
1.73357
1.73371
1.73415
1.73512
1.7349
1.73389
1.73377
1.73361
1.73397
1.73401
1.73362
1.7339
1.7335
1.73356
1.73346
1.73373
1.7337
1.73342
1.73352
1.73361
1.73312
1.73365
1.73348
1.73328
1.73353
1.73354
1.73328
1.73356
1.73373
1.73343
1.73363
1.73366
1.73372
1.73382
1.73389
1.73392
1.73374
1.73373
1.73403
1.73387
1.73398
1.73395
1.73381
1.73382
1.73381
1.73391
1.73361
1.73375
1.73376
1.73372
1.73348
1.73343
1.73329
1.73344
1.73368
1.73383
1.73315
1.73326
1.73324
1.73332
1.73377
1.73376
1.7333
1.73339
1.73329
1.73367
1.7337
1.7339
1.73331
1.73381
1.73396
1.73362
1.73383
1.73376
1.73376
1.73403
1.73411
1.73381
1.73379
1.73378
1.7339
1.73396
1.73392
1.73397
1.73379
1.73381
1.73389
1.73405
1.73414
1.73386
1.7339
1.73397
1.7338
1.73416
1.7341
1.73393
1.73397
1.73391
1.73402
1.73405
1.73401
1.73399
1.73395
1.73381
1.7342
1.73376
1.73383
1.73406
1.73384
1.73383
1.73401
1.73387
1.73379
1.7341
1.73383
1.7339
1.73392
1.73387
1.73376
1.7341
1.73385
1.73385
1.73405
1.73374
1.73391
1.7338
1.73396
1.73395
1.73387
1.73379
1.73382
1.73383
1.73399
1.73393
1.7339
1.7338
1.73372
1.73391
1.734
1.73392
1.73399
1.73361
1.73368
1.73392
1.734
1.73404
1.73378
1.73372
1.73374
1.73386
1.73403
1.73407
1.73372
1.73381
1.73367
1.7339
1.73399
1.73393
1.7339
1.73362
1.73363
1.73384
1.73393
1.73391
1.7338
1.73361
1.73362
1.7338
1.7339
1.73394
1.73383
1.73365
1.73369
1.73392
1.73402
1.73418
1.73407
1.73386
1.73402
1.73424
1.73434
1.73451
1.73441
1.73419
1.73438
1.73461
1.73469
1.73483
1.73472
1.73446
1.73465
1.73493
1.73503
1.73527
1.73517
1.73493
1.7351
1.73537
1.73546
1.73563
1.73553
1.73525
1.7355
1.73577
1.73585
1.73608
1.73601
1.73574
1.73594
1.73622
1.73628
1.73649
1.73643
1.73617
1.7364
1.73666
1.73665
1.73691
1.73679
1.7366
1.73722
1.73739
1.73745
1.7377
1.73772
1.73755
1.73777
1.73794
1.73792
1.73816
1.73819
1.738
1.73838
1.73859
1.73851
1.73888
1.73899
1.73868
1.73909
1.73945
1.73927
1.73969
1.73993
1.73947
1.73991
1.74047
1.74015
1.74063
1.74103
1.74036
1.74078
1.74148
1.741
1.7415
1.7422
1.7412
1.74172
1.74284
1.74188
1.74254
1.74334
1.74231
1.74285
1.74371
1.74321
1.74359
1.74409
1.74333
1.74376
1.74466
1.74432
1.74452
1.74513
1.74421
1.74473
1.74571
1.74503
1.74529
1.74621
1.74535
1.74604
1.74648
1.74553
1.74563
1.74662
1.74677
1.74743
1.7468
1.74576
1.7459
1.74697
1.74809
1.74847
1.74677
1.74575
1.74506
1.7462
1.74831
1.74805
1.74569
1.74488
1.74403
1.74481
1.74746
1.74619
1.74354
1.74295
1.74236
1.74248
1.74431
1.74204
1.74058
1.74049
1.73876
1.73854
1.73888
1.7358
1.73665
1.73652
1.73407
1.73423
1.7322
1.72879
1.73227
1.73212
1.73015
1.73034
1.72497
1.72071
1.72807
1.72783
1.72617
1.72646
1.71559
1.70977
1.72438
1.72417
1.72299
1.72231
1.70373
1.69934
1.71961
1.72021
1.71798
1.71604
1.69423
1.69046
1.71258
1.71517
1.7117
1.70908
1.68782
1.68693
1.70609
1.70943
1.70648
1.70323
1.686
1.68666
1.70144
1.70481
1.7039
1.69996
1.68733
1.68827
1.6982
1.70196
1.70178
1.69801
1.68939
1.69041
1.69746
1.70164
1.70062
1.69692
1.69152
1.69242
1.698
1.7016
1.70192
1.69857
1.69345
1.69401
1.69953
1.70273
1.70296
1.69964
1.69458
1.69517
1.69927
1.70234
1.70205
1.69888
1.69597
1.69692
1.70002
1.70326
1.70357
1.70054
1.69748
1.69809
1.70054
1.70319
1.70444
1.70175
1.6989
1.69943
1.70213
1.70455
1.70415
1.7019
1.69983
1.70056
1.70209
1.70402
1.70538
1.70336
1.7014
1.70168
1.70332
1.70526
1.70386
1.70212
1.70153
1.70387
1.70362
1.70543
1.70551
1.70409
1.7038
1.70435
1.70348
1.70508
1.70698
1.7061
1.70073
1.70404
1.71014
1.70665
1.70704
1.70773
1.706
1.70639
1.70595
1.70598
1.70812
1.7077
1.70766
1.70733
1.70743
1.70822
1.70845
1.70762
1.70504
1.71762
1.69883
1.70848
1.71028
1.70413
1.71441
1.70985
1.70729
1.70948
1.70933
1.70054
1.71655
1.7124
1.70737
1.71022
1.70981
1.7078
1.71076
1.70864
1.70898
1.70927
1.71059
1.71085
1.71021
1.71006
1.70998
1.71035
1.70968
1.71067
1.70834
1.71048
1.71139
1.71094
1.71085
1.71095
1.71039
1.71061
1.70892
1.71021
1.71272
1.71061
1.70594
1.70753
1.71471
1.71051
1.71043
1.71242
1.70861
1.70854
1.70986
1.71273
1.71055
1.71235
1.70956
1.70929
1.71153
1.71047
1.71049
1.71787
1.70255
1.70807
1.71545
1.71106
1.71104
1.71194
1.71003
1.70501
1.7163
1.71023
1.7105
1.71498
1.70881
1.71167
1.71154
1.71107
1.70774
1.72232
1.70149
1.70774
1.71559
1.71031
1.7104
1.71106
1.71148
1.69873
1.72339
1.70729
1.7104
1.71935
1.70618
1.70971
1.71229
1.70933
1.71151
1.71059
1.7109
1.70901
1.71101
1.71093
1.71105
1.71026
1.70936
1.71188
1.712
1.71172
1.71113
1.71131
1.71143
1.71028
1.71082
1.7104
1.71041
1.71096
1.71061
1.71074
1.70927
1.70962
1.70896
1.71253
1.70552
1.70819
1.71228
1.7098
1.70945
1.71086
1.70791
1.70686
1.71098
1.70857
1.71076
1.70659
1.71172
1.71145
1.70629
1.70952
1.70977
1.70963
1.71003
1.70977
1.70858
1.70887
1.7081
1.70727
1.70938
1.70938
1.70853
1.70898
1.70832
1.70865
1.70755
1.70926
1.70666
1.7072
1.70837
1.70886
1.70849
1.70793
1.70634
1.70751
1.70827
1.70797
1.70719
1.70554
1.708
1.70768
1.70648
1.70697
1.70439
1.70647
1.70767
1.70758
1.70704
1.70706
1.70559
1.70572
1.70526
1.70595
1.70516
1.71026
1.70329
1.69988
1.71008
1.70536
1.70585
1.70747
1.7046
1.70357
1.70584
1.70548
1.7044
1.70509
1.7031
1.7054
1.70573
1.70556
1.70464
1.70367
1.70553
1.70483
1.70435
1.70492
1.70429
1.7037
1.70353
1.70254
1.70277
1.70315
1.70398
1.70395
1.70351
1.70262
1.70305
1.7034
1.70266
1.70159
1.70287
1.70278
1.70297
1.70309
1.7022
1.70154
1.702
1.70214
1.70201
1.70219
1.70139
1.70067
1.70126
1.70106
1.70013
1.70042
1.70118
1.70099
1.70134
1.70126
1.7007
1.70076
1.70086
1.70099
1.70115
1.70018
1.69985
1.7001
1.69898
1.69895
1.69869
1.69922
1.69967
1.69954
1.69887
1.69875
1.69775
1.69845
1.69937
1.69913
1.69855
1.69823
1.69774
1.6966
1.69704
1.69729
1.69791
1.69796
1.69747
1.69605
1.6965
1.69693
1.6971
1.69716
1.69654
1.69533
1.69599
1.69637
1.69488
1.69443
1.69412
1.69527
1.69578
1.69593
1.69508
1.69458
1.6944
1.69467
1.69531
1.69528
1.69448
1.69399
1.69329
1.69216
1.69261
1.69302
1.69384
1.69378
1.69305
1.69171
1.69227
1.69278
1.69311
1.69307
1.69229
1.69103
1.69173
1.69232
1.69067
1.69024
1.68982
1.69063
1.69145
1.69158
1.69047
1.68998
1.68933
1.6901
1.69093
1.69089
1.69011
1.68956
1.68881
1.6876
1.68812
1.68852
1.68936
1.68927
1.68844
1.68724
1.68785
1.68828
1.68853
1.68854
1.68761
1.68633
1.68709
1.68764
1.68585
1.68539
1.68486
1.68571
1.68665
1.6868
1.68567
1.68517
1.68447
1.68503
1.68602
1.68601
1.68514
1.68453
1.68362
1.68232
1.68293
1.68339
1.68439
1.6843
1.68338
1.68189
1.68267
1.68317
1.68336
1.68332
1.68225
1.68092
1.68184
1.68243
1.68046
1.67994
1.67932
1.68045
1.68142
1.68155
1.68022
1.67964
1.67879
1.67949
1.68055
1.68055
1.6796
1.67897
1.678
1.67614
1.6769
1.67747
1.67864
1.67854
1.67757
1.67589
1.67674
1.67732
1.67763
1.67768
1.6766
1.67496
1.67594
1.67657
1.67447
1.67403
1.67335
1.67433
1.67541
1.67556
1.67419
1.67364
1.67275
1.67298
1.67424
1.67436
1.67331
1.67254
1.67141
1.66981
1.67056
1.67119
1.67237
1.67218
1.67097
1.66952
1.67043
1.67105
1.67134
1.67136
1.67011
1.66843
1.6695
1.67017
1.66773
1.6672
1.66642
1.66737
1.66861
1.66881
1.66722
1.66656
1.66543
1.66623
1.66755
1.66761
1.66661
1.66583
1.66466
1.66278
1.66357
1.66421
1.66542
1.66526
1.66404
1.6622
1.66325
1.66389
1.664
1.66398
1.66266
1.66086
1.66209
1.66276
1.6597
1.65883
1.65781
1.65945
1.66078
1.66106
1.65961
1.6589
1.65785
1.6587
1.6601
1.66014
1.65896
1.65814
1.65681
1.65474
1.65561
1.65629
1.65753
1.65738
1.65605
1.65397
1.65519
1.65581
1.65557
1.6554
1.65392
1.65127
1.65306
1.65408
1.65137
1.65032
1.64918
1.65141
1.6528
1.65294
1.65214
1.65117
1.64982
1.64716
1.64804
1.649
1.65035
1.65009
1.64859
1.64637
1.64769
1.64849
1.64826
1.64812
1.64654
1.64369
1.64555
1.64657
1.64309
1.6419
1.64062
1.6427
1.64435
1.64473
1.64305
1.6422
1.64093
1.64176
1.64351
1.64359
1.6421
1.64117
1.63959
1.63709
1.63821
1.63906
1.63995
1.63985
1.63844
1.63594
1.63763
1.63862
1.63428
1.63294
1.63158
1.63322
1.63504
1.63558
1.63375
1.63268
1.63122
1.63266
1.63446
1.63457
1.63338
1.63222
1.63054
1.62756
1.62873
1.62979
1.63079
1.63065
1.62901
1.62658
1.62814
1.62931
1.62471
1.62366
1.62239
1.62234
1.6248
1.62557
1.6231
1.62173
1.61982
1.62194
1.62416
1.62441
1.62338
1.62217
1.62014
1.61687
1.6181
1.61953
1.62054
1.62029
1.61835
1.61605
1.6178
1.61903
1.61418
1.61302
1.61195
1.60958
1.61263
1.61395
1.61139
1.60971
1.60758
1.61003
1.61254
1.61282
1.61188
1.61058
1.60819
1.60506
1.60648
1.60781
1.60889
1.60859
1.60639
1.6034
1.60568
1.60662
1.60202
1.60066
1.59921
1.59638
1.59964
1.60117
1.59974
1.5979
1.5945
1.59259
1.59446
1.59628
1.59828
1.59796
1.59547
1.59295
1.59526
1.59692
1.59164
1.59018
1.58855
1.58927
1.59146
1.59215
1.58961
1.58776
1.58433
1.57663
1.57958
1.58261
1.58497
1.58411
1.58123
1.57922
1.58229
1.58411
1.57955
1.57787
1.57603
1.57771
1.58032
1.58084
1.57884
1.57683
1.57391
1.56831
1.57002
1.57186
1.56991
1.56744
1.56297
1.56075
1.56545
1.56791
1.56394
1.56156
1.5591
1.56246
1.5658
1.56639
1.56511
1.56295
1.55971
1.55452
1.5566
1.5585
1.55753
1.55656
1.5539
1.54264
1.54907
1.55254
1.54633
1.54301
1.53927
1.54522
1.54884
1.54959
1.54913
1.54703
1.54321
1.53846
1.54068
1.54283
1.54167
1.54097
1.53803
1.52758
1.53356
1.53639
1.53038
1.52656
1.51992
1.51921
1.52291
1.52586
1.52882
1.5281
1.52423
1.52108
1.5256
1.52804
1.52154
1.5194
1.51568
1.49661
1.50263
1.50799
1.51061
1.50791
1.50254
1.50192
1.5076
1.51019
1.50734
1.50448
1.49937
1.49305
1.49594
1.49939
1.49412
1.48924
1.48089
1.47702
1.48578
1.49064
1.48793
1.48395
1.47666
1.474
1.47852
1.48226
1.48106
1.47838
1.47182
1.45554
1.46871
1.47467
1.4704
1.46554
1.45527
1.45737
1.46503
1.46834
1.46361
1.45808
1.44788
1.43132
1.44088
1.44915
1.45677
1.45337
1.4457
1.44424
1.45364
1.4589
1.45397
1.44585
1.43062
1.43458
1.44678
1.45237
1.45134
1.44373
1.42827
1.43083
1.44553
1.45183
1.4583
1.45164
1.43725
1.44787
1.46152
1.46825
1.47853
1.47188
1.4599
1.4668
1.47835
1.48576
1.49123
1.48347
1.47286
1.47683
1.4869
1.49531
1.49897
1.49056
1.48137
1.48466
1.4931
1.50191
1.50458
1.49601
1.48828
1.49108
1.49801
1.50677
1.5088
1.5004
1.49404
1.4965
1.50213
1.5105
1.51213
1.50416
1.499
1.50119
1.50574
1.51351
1.51483
1.50749
1.50333
1.50527
1.50895
1.51599
1.5171
1.51047
1.50711
1.50884
1.51183
1.51811
1.51904
1.51316
1.51042
1.51198
1.51444
1.51997
1.52079
1.51563
1.51337
1.51479
1.51683
1.5217
1.52241
1.51788
1.51602
1.51734
1.51901
1.52331
1.52395
1.51997
1.51846
1.51967
1.52105
1.52485
1.52545
1.52193
1.52068
1.5218
1.52295
1.52634
1.52691
1.52378
1.52272
1.52376
1.52474
1.52781
1.52834
1.52552
1.5246
1.52556
1.52642
1.52921
1.52978
1.52715
1.52633
1.52724
1.52801
1.5306
1.53116
1.5287
1.52793
1.52877
1.52951
1.53193
1.53248
1.53016
1.52941
1.53021
1.53094
1.53322
1.53375
1.53155
1.53082
1.53155
1.53228
1.53444
1.53494
1.53286
1.53212
1.53282
1.53357
1.5356
1.53608
1.5341
1.53335
1.534
1.53477
1.5367
1.53715
1.53527
1.5345
1.53512
1.53591
1.53775
1.53817
1.5364
1.53559
1.53617
1.53699
1.53874
1.53911
1.53744
1.53662
1.53717
1.53801
1.53968
1.54
1.53843
1.5376
1.53811
1.53896
1.54055
1.54084
1.53936
1.53852
1.53901
1.53987
1.54139
1.54166
1.54025
1.53941
1.53987
1.54072
1.54215
1.54241
1.54108
1.54024
1.54068
1.54154
1.54289
1.54313
1.54188
1.54104
1.54146
1.5423
1.54357
1.5438
1.54262
1.54179
1.54219
1.54302
1.54422
1.54443
1.54332
1.54251
1.54288
1.54369
1.54482
1.54502
1.54397
1.54318
1.54354
1.54433
1.54539
1.54557
1.54459
1.54383
1.54416
1.54493
1.54592
1.5461
1.54517
1.54443
1.54475
1.54549
1.54643
1.54658
1.54572
1.54501
1.54531
1.54602
1.5469
1.54704
1.54623
1.54555
1.54584
1.54652
1.54735
1.54747
1.54672
1.54606
1.54633
1.54698
1.54776
1.54788
1.54717
1.54654
1.5468
1.54742
1.54816
1.54826
1.54759
1.54699
1.54723
1.54783
1.54853
1.54863
1.54799
1.54741
1.54765
1.54821
1.54888
1.54897
1.54836
1.54781
1.54803
1.54857
1.5492
1.54929
1.5487
1.54818
1.54839
1.54891
1.54951
1.54958
1.54903
1.54853
1.54873
1.54922
1.5498
1.54987
1.54934
1.54885
1.54905
1.54952
1.55007
1.55013
1.54963
1.54916
1.54934
1.5498
1.55033
1.55038
1.5499
1.54944
1.54962
1.55006
1.55057
1.55062
1.55015
1.54972
1.54988
1.55031
1.5508
1.55084
1.55039
1.54997
1.55013
1.55054
1.55101
1.55105
1.55062
1.55021
1.55036
1.55076
1.55121
1.55125
1.55083
1.55043
1.55058
1.55097
1.5514
1.55144
1.55103
1.55065
1.55078
1.55116
1.55159
1.55162
1.55122
1.55084
1.55098
1.55134
1.55176
1.55179
1.5514
1.55103
1.55116
1.55152
1.55192
1.55194
1.55157
1.55121
1.55133
1.55168
1.55207
1.5521
1.55173
1.55138
1.55149
1.55183
1.55222
1.55224
1.55188
1.55153
1.55165
1.55198
1.55236
1.55237
1.55202
1.55169
1.55179
1.55212
1.55249
1.5525
1.55215
1.55182
1.55193
1.55225
1.55261
1.55262
1.55228
1.55196
1.55206
1.55237
1.55273
1.55273
1.5524
1.55208
1.55218
1.55249
1.55283
1.55284
1.55252
1.55221
1.5523
1.5526
1.55294
1.55294
1.55262
1.55232
1.55241
1.5527
1.55304
1.55304
1.55272
1.55243
1.55251
1.5528
1.55313
1.55313
1.55282
1.55252
1.55261
1.5529
1.55322
1.55322
1.55291
1.55262
1.5527
1.55298
1.55331
1.5533
1.553
1.55271
1.55279
1.55307
1.55338
1.55338
1.55308
1.5528
1.55287
1.55315
1.55346
1.55345
1.55315
1.55288
1.55295
1.55322
1.55353
1.55352
1.55323
1.55295
1.55303
1.55329
1.5536
1.55358
1.5533
1.55303
1.5531
1.55336
1.55366
1.55365
1.55336
1.5531
1.55317
1.55342
1.55372
1.55371
1.55342
1.55316
1.55323
1.55348
1.55377
1.55376
1.55348
1.55322
1.55329
1.55354
1.55383
1.55382
1.55354
1.55328
1.55335
1.5536
1.55388
1.55387
1.55359
1.55334
1.5534
1.55365
1.55393
1.55391
1.55364
1.55339
1.55346
1.5537
1.55397
1.55396
1.55369
1.55345
1.55351
1.55374
1.55402
1.554
1.55374
1.55349
1.55355
1.55379
1.55406
1.55404
1.55378
1.55354
1.5536
1.55383
1.5541
1.55408
1.55382
1.55358
1.55364
1.55387
1.55413
1.55412
1.55386
1.55362
1.55368
1.5539
1.55417
1.55415
1.55389
1.55366
1.55371
1.55394
1.5542
1.55418
1.55393
1.55369
1.55374
1.55397
1.55423
1.55421
1.55395
1.55372
1.55377
1.554
1.55425
1.55423
1.55398
1.55375
1.5538
1.55402
1.55428
1.55425
1.554
1.55377
1.55382
1.55404
1.55429
1.55427
1.55402
1.5538
1.55384
1.55405
1.55431
1.55428
1.55404
1.55381
1.55386
1.55407
1.55432
1.55429
1.55405
1.55383
1.55387
1.55408
1.55433
1.5543
1.55406
1.55383
1.55388
1.55409
1.55433
1.5543
1.55406
1.55384
1.55388
1.55409
1.55434
1.55431
1.55407
1.55384
1.55388
1.55409
1.55434
1.5543
1.55407
1.55385
1.55388
1.55409
1.55434
1.5543
1.55406
1.55384
1.55388
1.55409
1.55433
1.55429
1.55406
1.55384
1.55387
1.55408
1.55432
1.55428
1.55404
1.55383
1.55386
1.55406
1.55431
1.55426
1.55402
1.55381
1.55382
1.55403
1.55428
1.55421
1.55398
1.55376
1.55378
1.554
1.55425
1.55419
1.55393
1.55369
1.55374
1.55398
1.55427
1.55427
1.55397
1.55373
1.5542
1.55448
1.55491
1.55567
1.55532
1.5551
1.55635
1.5563
1.55645
1.55644
1.55633
1.55661
1.55709
1.56021
1.56155
1.5634
1.56579
1.56602
1.5661
1.56746
1.56849
1.56915
1.5696
1.57004
1.57041
1.57072
1.57096
1.57114
1.57128
1.57139
1.57146
1.57152
1.57155
1.57158
1.5716
1.5716
1.57161
1.5716
1.57159
1.57158
1.57157
1.57156
1.57157
1.57162
1.57165
1.5717
1.57174
1.5718
1.57187
1.57195
1.57204
1.57216
1.57229
1.57246
1.57265
1.57286
1.5731
1.57334
1.57358
1.57376
1.57386
1.57391
1.57396
1.57404
1.57415
1.57428
1.57442
1.57457
1.57473
1.57491
1.57509
1.5753
1.57553
1.5758
1.5761
1.57645
1.57684
1.5773
1.57781
1.5784
1.57907
1.57982
1.58066
1.58161
1.58266
1.58383
1.58512
1.58654
1.58809
1.58978
1.5916
1.59357
1.59567
1.59791
1.60027
1.60275
1.60533
1.60801
1.61077
1.61359
1.61647
1.61939
1.62234
1.62529
1.62824
1.63118
1.63409
1.63697
1.6398
1.64257
1.64529
1.64795
1.65053
1.65304
1.65548
1.65785
1.66013
1.66234
1.66447
1.66653
1.6685
1.67041
1.67224
1.67401
1.6757
1.67733
1.67889
1.68039
1.68183
1.68321
1.68453
1.6858
1.68701
1.68816
1.68927
1.69033
1.69134
1.69231
1.69323
1.69411
1.69495
1.69575
1.69651
1.69725
1.69795
1.69862
1.69926
1.69987
1.70046
1.70103
1.70157
1.70209
1.70259
1.70308
1.70354
1.70398
1.7044
1.7048
1.70519
1.70556
1.70591
1.70624
1.70656
1.70686
1.70714
1.70741
1.70766
1.7079
1.70813
1.70834
1.70854
1.70873
1.7089
1.70907
1.70922
1.70936
1.7095
1.70962
1.70973
1.70983
1.70993
1.71001
1.71009
1.71016
1.71026
1.71042
1.71062
1.71071
1.71074
1.71074
1.71074
1.71074
1.71074
1.71075
1.7109
1.7111
1.7112
1.71126
1.71133
1.71141
1.71148
1.71156
1.71165
1.71174
1.71184
1.71194
1.71205
1.71216
1.71228
1.71241
1.71254
1.71267
1.71281
1.71295
1.7131
1.71325
1.7134
1.71355
1.71371
1.71387
1.71402
1.71418
1.71434
1.7145
1.71466
1.71482
1.71497
1.71513
1.71528
1.71543
1.71557
1.71572
1.71586
1.71599
1.71612
1.71624
1.71636
1.71648
1.71658
1.71669
1.71678
1.71687
1.71696
1.71705
1.71713
1.71722
1.71729
1.7173
1.7173
1.71738
1.71762
1.71783
1.71792
1.71795
1.71786
1.71778
1.71771
1.71764
1.71759
1.71755
1.71751
1.71748
1.71745
1.71743
1.71742
1.71742
1.71742
1.71743
1.71743
1.71745
1.71747
1.71749
1.71752
1.71755
1.71759
1.71763
1.71767
1.71772
1.71777
1.71783
1.71789
1.71795
1.71802
1.71809
1.71816
1.71824
1.71832
1.7184
1.71849
1.71858
1.71867
1.71877
1.71888
1.71898
1.7191
1.71921
1.71933
1.71946
1.71959
1.71972
1.71987
1.72001
1.72017
1.72033
1.72049
1.72066
1.72084
1.72101
1.7212
1.72139
1.72159
1.72179
1.72199
1.72219
1.72241
1.72262
1.72285
1.72308
1.72332
1.72357
1.72383
1.72407
1.72433
1.72458
1.72484
1.72513
1.72541
1.72567
1.72593
1.72622
1.72654
1.72683
1.72712
1.72741
1.72774
1.72809
1.72839
1.72862
1.72888
1.72917
1.72952
1.72986
1.73015
1.73038
1.73062
1.7309
1.73115
1.73134
1.7315
1.7317
1.73191
1.73211
1.73228
1.73244
1.7326
1.73273
1.73284
1.73293
1.73303
1.73313
1.73323
1.73331
1.73334
1.73334
1.73337
1.73343
1.73347
1.73347
1.73346
1.73346
1.7335
1.73357
1.73364
1.73366
1.73364
1.73355
1.7335
1.73348
1.73348
1.73351
1.73353
1.73359
1.73359
1.73358
1.73349
1.73346
1.73346
1.73349
1.73353
1.73356
1.73359
1.7336
1.73363
1.73369
1.7337
1.73368
1.73362
1.7335
1.73352
1.73361
1.73356
1.73351
1.73349
1.73351
1.73347
1.73357
1.73363
1.73363
1.73354
1.73353
1.7336
1.73355
1.7335
1.73348
1.7335
1.73352
1.73353
1.73353
1.73351
1.73354
1.73352
1.7335
1.73352
1.73353
1.73354
1.73353
1.73348
1.73344
1.73348
1.73352
1.73346
1.7335
1.73352
1.73354
1.73356
1.73358
1.73359
1.7336
1.73357
1.73358
1.73359
1.73353
1.73353
1.73356
1.73352
1.73352
1.73349
1.73345
1.73348
1.73349
1.73345
1.73346
1.73346
1.73352
1.73353
1.73349
1.73349
1.73354
1.73348
1.73353
1.73358
1.73357
1.73351
1.73354
1.73352
1.73354
1.73354
1.73349
1.7335
1.7335
1.73346
1.73343
1.73344
1.73349
1.73346
1.73343
1.73342
1.7334
1.73338
1.73339
1.73339
1.73335
1.73335
1.73343
1.73341
1.73338
1.73335
1.73332
1.73333
1.73332
1.73329
1.73321
1.73324
1.73336
1.73329
1.73319
1.73312
1.73303
1.7331
1.73306
1.73295
1.73288
1.73297
1.73318
1.73301
1.73291
1.7328
1.73269
1.73278
1.73267
1.73255
1.7324
1.7325
1.73276
1.73247
1.73236
1.73223
1.73205
1.73217
1.73201
1.73184
1.73165
1.73179
1.73212
1.73172
1.73162
1.73144
1.73125
1.73138
1.7312
1.73101
1.73077
1.73092
1.73127
1.73075
1.7307
1.73051
1.73025
1.73038
1.73013
1.72994
1.72963
1.72979
1.73019
1.72962
1.72954
1.72931
1.72904
1.7292
1.72898
1.72876
1.7285
1.72863
1.72903
1.72843
1.7284
1.72819
1.72788
1.72803
1.72779
1.72756
1.72727
1.72742
1.72783
1.72724
1.72719
1.72697
1.72667
1.72683
1.72659
1.72637
1.72608
1.72624
1.72665
1.72608
1.72602
1.72581
1.72553
1.72567
1.72546
1.72526
1.72498
1.72513
1.72552
1.72499
1.72493
1.72473
1.72447
1.72461
1.72441
1.72422
1.72396
1.7241
1.72448
1.72398
1.72391
1.72371
1.72346
1.7236
1.72343
1.72323
1.72299
1.72314
1.72351
1.72306
1.72297
1.72278
1.72255
1.7227
1.72254
1.72235
1.72214
1.72227
1.72263
1.72221
1.72213
1.72194
1.72173
1.72187
1.72173
1.72154
1.72134
1.72148
1.72182
1.72144
1.72135
1.72117
1.72098
1.72111
1.72099
1.72081
1.72064
1.72077
1.72109
1.72076
1.72066
1.72048
1.72032
1.72045
1.72035
1.72017
1.72002
1.72015
1.72045
1.72017
1.72006
1.71989
1.71974
1.71988
1.71979
1.71962
1.71949
1.71962
1.7199
1.71965
1.71954
1.71938
1.71925
1.71938
1.71931
1.71915
1.71903
1.71916
1.71942
1.7192
1.7191
1.71894
1.71883
1.71895
1.7189
1.71874
1.71864
1.71876
1.719
1.71882
1.71871
1.71857
1.71847
1.71859
1.71854
1.7184
1.71831
1.71843
1.71865
1.71849
1.71838
1.71825
1.71817
1.71828
1.71824
1.71811
1.71804
1.71814
1.71834
1.71821
1.71811
1.71799
1.71792
1.71802
1.71799
1.71788
1.71782
1.71792
1.71809
1.71798
1.71789
1.71778
1.71773
1.71782
1.7178
1.7177
1.71766
1.71774
1.71789
1.71781
1.71773
1.71763
1.7176
1.71768
1.71767
1.71758
1.71756
1.71763
1.71774
1.71769
1.71763
1.71755
1.71753
1.7176
1.7176
1.71753
1.71753
1.71758
1.71765
1.71763
1.71759
1.71753
1.71754
1.71758
1.7176
1.71756
1.71758
1.71761
1.71763
1.71764
1.71763
1.71761
1.71764
1.71765
1.71769
1.71769
1.71774
1.71772
1.71766
1.71766
1.71776
1.71779
1.71785
1.7178
1.71746
1.71756
1.71761
1.71764
1.71766
1.7177
1.71776
1.71782
1.7179
1.71799
1.71809
1.7182
1.71833
1.71847
1.71862
1.71878
1.71896
1.71915
1.71935
1.71957
1.71981
1.72006
1.72033
1.72061
1.72092
1.72125
1.7216
1.72198
1.72237
1.72278
1.72321
1.72366
1.72413
1.72462
1.72512
1.72565
1.7262
1.72677
1.72735
1.72795
1.72856
1.72917
1.72978
1.73038
1.73095
1.73149
1.73198
1.7324
1.73275
1.73303
1.73326
1.73343
1.73354
1.73358
1.7336
1.7336
1.73361
1.73361
1.73363
1.73364
1.73364
1.73363
1.73362
1.73363
1.73363
1.73361
1.73359
1.73357
1.73353
1.73351
1.7335
1.73352
1.73345
1.73345
1.73351
1.73347
1.73347
1.73355
1.73354
1.73353
1.73353
1.73355
1.7336
1.7336
1.73359
1.73359
1.73359
1.73365
1.73363
1.73363
1.73363
1.73365
1.7337
1.73369
1.73367
1.73367
1.73367
1.73371
1.7337
1.73369
1.7337
1.73372
1.73373
1.73371
1.73369
1.7337
1.73371
1.7337
1.73367
1.73361
1.7336
1.73364
1.73361
1.73359
1.7335
1.73352
1.73337
1.73336
1.73339
1.73354
1.73352
1.73341
1.73351
1.73362
1.73367
1.73371
1.73371
1.73368
1.73364
1.7336
1.73352
1.73356
1.73353
1.73359
1.73362
1.73366
1.73371
1.73375
1.73374
1.73371
1.73367
1.73362
1.73356
1.73357
1.73363
1.73369
1.73373
1.73376
1.73371
1.73365
1.7336
1.73363
1.73367
1.7337
1.73366
1.73368
1.73373
1.73378
1.73375
1.73373
1.73378
1.7338
1.73383
1.73387
1.73381
1.73375
1.73369
1.7337
1.73377
1.7338
1.73371
1.73373
1.73383
1.73392
1.73387
1.73384
1.7339
1.73395
1.734
1.73406
1.73396
1.73386
1.73375
1.73376
1.73389
1.73394
1.73377
1.7338
1.73399
1.73419
1.73409
1.73402
1.73413
1.73422
1.73436
1.7345
1.73432
1.7342
1.73412
1.73406
1.734
1.73396
1.73392
1.73388
1.73386
1.73384
1.73381
1.73377
1.73378
1.73376
1.73373
1.73366
1.73371
1.73378
1.7338
1.73382
1.73384
1.73387
1.73391
1.73394
1.73391
1.7339
1.73388
1.73386
1.73385
1.73383
1.73384
1.73382
1.73385
1.73379
1.73377
1.73369
1.73367
1.7336
1.73362
1.73357
1.7335
1.73354
1.73354
1.73355
1.73361
1.73366
1.73375
1.7338
1.73385
1.73383
1.73384
1.73386
1.73385
1.73383
1.73384
1.73385
1.73387
1.73384
1.73385
1.73387
1.73385
1.73383
1.73385
1.73384
1.73385
1.73386
1.73386
1.73387
1.73387
1.7339
1.73393
1.73397
1.73398
1.73403
1.73406
1.73411
1.73408
1.73408
1.73405
1.73405
1.73403
1.73401
1.734
1.73395
1.73391
1.73383
1.73384
1.73379
1.73381
1.73379
1.73383
1.73383
1.73381
1.73385
1.7338
1.73377
1.73377
1.73375
1.73378
1.73379
1.73385
1.73387
1.73391
1.73398
1.73397
1.73394
1.73392
1.73397
1.73402
1.73403
1.73404
1.73402
1.73399
1.73396
1.73397
1.73395
1.73399
1.73401
1.73404
1.73406
1.73407
1.73411
1.73412
1.73413
1.73416
1.73423
1.73434
1.73456
1.73442
1.73433
1.73422
1.73421
1.73417
1.73417
1.73416
1.73413
1.7341
1.73407
1.73407
1.73402
1.73403
1.73399
1.73401
1.73399
1.73393
1.73395
1.73396
1.73395
1.73397
1.73397
1.73401
1.73403
1.73406
1.73406
1.7341
1.73412
1.73412
1.73406
1.73408
1.73408
1.73413
1.73417
1.73418
1.73413
1.73412
1.73407
1.73407
1.73406
1.73411
1.7341
1.73419
1.73426
1.73441
1.73464
1.73467
1.73484
1.73491
1.73475
1.73452
1.7343
1.73406
1.73384
1.73387
1.73414
1.73421
1.73389
1.73387
1.73424
1.73472
1.73458
1.73442
1.73473
1.73499
1.7353
1.73546
1.73477
1.73424
1.73381
1.73367
1.73414
1.73395
1.73346
1.73318
1.73361
1.73403
1.73449
1.73473
1.73543
1.73509
1.7345
1.73372
1.73341
1.73312
1.7328
1.73231
1.73253
1.73188
1.73175
1.73114
1.7312
1.73118
1.73194
1.7327
1.73285
1.73196
1.73109
1.73027
1.73043
1.73051
1.73052
1.72988
1.72983
1.72916
1.72924
1.7286
1.72851
1.72833
1.729
1.7297
1.7295
1.72876
1.72807
1.72771
1.72841
1.72918
1.73
1.7309
1.73189
1.73297
1.7341
1.73517
1.73591
1.73631
1.73635
1.73602
1.73549
1.73506
1.73536
1.73595
1.73665
1.73695
1.73654
1.73609
1.73579
1.73541
1.73518
1.73522
1.7349
1.73479
1.73467
1.73448
1.73439
1.73424
1.73418
1.73411
1.73411
1.73402
1.73404
1.73402
1.73407
1.73415
1.73429
1.73444
1.73461
1.73477
1.73493
1.73498
1.73511
1.73534
1.73533
1.73511
1.73551
1.73547
1.73555
1.7359
1.73584
1.7357
1.7357
1.73589
1.73611
1.73608
1.73624
1.7363
1.73677
1.7373
1.73782
1.7374
1.73788
1.73731
1.73744
1.73701
1.73623
1.73773
1.73762
1.73868
1.73867
1.73864
1.73824
1.73887
1.73838
1.73856
1.73825
1.7379
1.73761
1.73731
1.73701
1.73666
1.73647
1.73648
1.7363
1.73667
1.73698
1.73744
1.73772
1.73804
1.73837
1.73845
1.73812
1.73786
1.73882
1.73872
1.73905
1.73888
1.73918
1.73948
1.73976
1.73941
1.73957
1.73917
1.73999
1.74045
1.74013
1.73981
1.73937
1.73982