/*--------------------------------*- C++ -*----------------------------------*\
| =========                 |                                                 |
| \\      /  F ield         | OpenFOAM: The Open Source CFD Toolbox           |
|  \\    /   O peration     | Version:  v2006                                 |
|   \\  /    A nd           | Website:  www.openfoam.com                      |
|    \\/     M anipulation  |                                                 |
\*---------------------------------------------------------------------------*/
FoamFile
{
    version     2.0;
    format      ascii;
    class       volScalarField;
    location    "0.01";
    object      T;
}
// * * * * * * * * * * * * * * * * * * * * * * * * * * * * * * * * * * * * * //

dimensions      [0 0 0 1 0 0 0];


internalField   nonuniform List<scalar> 
23013
(
299.526
299.525
299.561
299.561
299.561
299.56
299.559
299.559
299.559
299.558
299.557
299.557
299.557
299.558
299.557
299.557
299.557
299.556
299.556
299.557
299.558
299.558
299.558
299.558
299.559
299.557
299.557
299.557
299.557
299.558
299.558
299.559
299.559
299.558
299.558
299.559
299.56
299.56
299.56
299.559
299.558
299.557
299.556
299.555
299.555
299.555
299.556
299.557
299.558
299.559
299.561
299.563
299.565
299.567
299.57
299.572
299.575
299.578
299.581
299.584
299.588
299.591
299.595
299.598
299.602
299.605
299.609
299.613
299.617
299.621
299.624
299.628
299.632
299.636
299.639
299.643
299.647
299.65
299.654
299.657
299.66
299.663
299.666
299.669
299.672
299.675
299.678
299.68
299.683
299.685
299.687
299.689
299.691
299.693
299.695
299.696
299.698
299.699
299.7
299.701
299.703
299.704
299.704
299.705
299.706
299.707
299.708
299.708
299.709
299.71
299.712
299.716
299.722
299.726
299.726
299.73
299.733
299.732
299.73
299.729
299.731
299.732
299.739
299.717
299.708
299.71
299.684
299.683
299.695
299.667
299.653
299.654
299.617
299.619
299.635
299.606
299.587
299.583
299.548
299.555
299.575
299.547
299.525
299.516
299.484
299.494
299.514
299.483
299.463
299.453
299.42
299.43
299.447
299.415
299.398
299.388
299.356
299.365
299.382
299.354
299.334
299.325
299.294
299.304
299.323
299.296
299.276
299.266
299.238
299.248
299.267
299.241
299.222
299.211
299.184
299.195
299.211
299.185
299.169
299.159
299.132
299.141
299.154
299.127
299.116
299.107
299.079
299.087
299.096
299.069
299.061
299.054
299.026
299.031
299.038
299.013
299.006
299
298.973
298.977
298.983
298.959
298.952
298.948
298.921
298.925
298.931
298.908
298.901
298.897
298.871
298.874
298.88
298.858
298.852
298.848
298.822
298.825
298.83
298.808
298.804
298.801
298.776
298.778
298.782
298.761
298.757
298.755
298.731
298.733
298.736
298.717
298.713
298.711
298.689
298.691
298.695
298.678
298.673
298.671
298.651
298.654
298.66
298.646
298.639
298.635
298.618
298.621
298.629
298.618
298.609
298.604
298.589
298.594
298.603
298.593
298.583
298.577
298.564
298.57
298.58
298.57
298.56
298.554
298.542
298.548
298.557
298.548
298.539
298.533
298.522
298.527
298.533
298.524
298.519
298.514
298.503
298.507
298.51
298.5
298.499
298.495
298.484
298.486
298.485
298.476
298.478
298.476
298.465
298.464
298.461
298.451
298.456
298.457
298.445
298.443
298.437
298.427
298.435
298.437
298.425
298.421
298.413
298.404
298.413
298.417
298.404
298.399
298.391
298.382
298.391
298.396
298.384
298.378
298.369
298.361
298.37
298.376
298.364
298.358
298.349
298.341
298.35
298.357
298.345
298.339
298.329
298.322
298.331
298.338
298.326
298.319
298.31
298.302
298.311
298.318
298.306
298.3
298.291
298.283
298.291
298.298
298.286
298.28
298.273
298.265
298.272
298.278
298.266
298.26
298.255
298.247
298.252
298.257
298.245
298.241
298.237
298.229
298.232
298.236
298.225
298.222
298.22
298.212
298.213
298.216
298.205
298.203
298.203
298.194
298.194
298.195
298.184
298.183
298.183
298.172
298.172
298.174
298.161
298.16
298.159
298.142
298.147
298.149
298.136
298.131
298.122
298.111
298.112
298.117
298.105
298.11
298.148
298.231
298.121
298.099
298.11
298.182
298.388
298.445
298.213
298.12
298.161
298.295
298.566
298.601
298.324
298.177
298.231
298.405
298.695
298.717
298.428
298.247
298.299
298.495
298.785
298.796
298.507
298.307
298.349
298.557
298.848
298.856
298.564
298.353
298.393
298.61
298.903
298.912
298.617
298.398
298.442
298.663
298.956
298.964
298.67
298.449
298.494
298.714
299.006
299.015
298.721
298.5
298.542
298.762
299.056
299.067
298.769
298.547
298.587
298.81
299.112
299.126
298.818
298.592
298.632
298.863
299.175
299.192
298.875
298.639
298.685
298.926
299.242
299.261
298.943
298.698
298.755
299.004
299.309
299.326
299.026
298.774
298.844
299.091
299.364
299.377
299.114
298.868
298.944
299.175
299.398
299.406
299.197
298.972
299.045
299.246
299.415
299.415
299.265
299.071
299.135
299.296
299.414
299.411
299.31
299.158
299.205
299.328
299.405
299.4
299.336
299.226
299.256
299.344
299.393
299.389
299.346
299.27
299.29
299.347
299.382
299.38
299.346
299.298
299.307
299.345
299.376
299.376
299.345
299.309
299.312
299.343
299.373
299.375
299.344
299.312
299.314
299.345
299.373
299.376
299.347
299.315
299.318
299.348
299.376
299.38
299.351
299.319
299.324
299.354
299.382
299.388
299.358
299.327
299.334
299.364
299.395
299.407
299.372
299.34
299.349
299.382
299.418
299.435
299.394
299.358
299.371
299.41
299.451
299.472
299.428
299.385
299.402
299.448
299.49
299.513
299.47
299.42
299.442
299.492
299.531
299.552
299.516
299.462
299.487
299.537
299.566
299.585
299.561
299.51
299.535
299.579
299.596
299.613
299.602
299.559
299.583
299.617
299.622
299.636
299.638
299.607
299.63
299.652
299.645
299.661
299.673
299.653
299.675
299.686
299.671
299.688
299.707
299.697
299.717
299.719
299.701
299.722
299.74
299.738
299.757
299.754
299.74
299.765
299.776
299.777
299.795
299.792
299.787
299.818
299.816
299.815
299.833
299.835
299.845
299.879
299.861
299.852
299.871
299.885
299.909
299.946
299.913
299.891
299.914
299.941
299.978
300.018
299.973
299.936
299.965
300.005
300.051
300.092
300.041
299.991
300.026
300.076
300.125
300.166
300.115
300.056
300.096
300.152
300.199
300.24
300.194
300.132
300.175
300.231
300.272
300.312
300.273
300.214
300.259
300.309
300.343
300.382
300.351
300.299
300.342
300.385
300.413
300.452
300.425
300.38
300.42
300.457
300.482
300.521
300.496
300.456
300.494
300.528
300.551
300.59
300.565
300.528
300.565
300.597
300.621
300.661
300.635
300.597
300.634
300.667
300.692
300.733
300.704
300.666
300.703
300.737
300.765
300.806
300.776
300.735
300.773
300.81
300.84
300.882
300.849
300.806
300.845
300.884
300.916
300.958
300.924
300.879
300.919
300.959
300.992
301.036
301
300.954
300.995
301.036
301.07
301.114
301.077
301.03
301.072
301.115
301.15
301.193
301.154
301.105
301.151
301.195
301.231
301.272
301.232
301.184
301.23
301.276
301.315
301.352
301.315
301.267
301.305
301.355
301.399
301.438
301.401
301.351
301.376
301.429
301.474
301.529
301.485
301.428
301.451
301.507
301.551
301.611
301.565
301.507
301.45
301.436
301.429
301.424
301.411
301.408
301.404
301.403
301.403
301.403
301.407
301.41
301.422
301.424
301.445
301.454
301.459
301.465
301.502
301.61
301.68
301.706
301.681
301.652
301.584
301.578
301.643
301.672
301.649
301.619
301.555
301.539
301.604
301.633
301.612
301.578
301.515
301.498
301.561
301.591
301.571
301.536
301.474
301.455
301.517
301.549
301.529
301.495
301.434
301.412
301.474
301.508
301.486
301.453
301.394
301.37
301.431
301.464
301.444
301.411
301.352
301.329
301.388
301.421
301.401
301.369
301.311
301.287
301.345
301.378
301.358
301.326
301.27
301.246
301.303
301.336
301.315
301.284
301.229
301.204
301.261
301.293
301.272
301.242
301.187
301.164
301.22
301.251
301.23
301.2
301.147
301.123
301.178
301.209
301.188
301.159
301.106
301.083
301.137
301.167
301.146
301.117
301.066
301.043
301.096
301.125
301.105
301.077
301.026
301.004
301.056
301.084
301.064
301.036
300.986
300.965
301.016
301.043
301.023
300.996
300.947
300.927
300.976
301.003
300.983
300.956
300.909
300.889
300.937
300.963
300.943
300.917
300.871
300.853
300.898
300.923
300.903
300.878
300.835
300.816
300.859
300.883
300.864
300.84
300.798
300.781
300.822
300.844
300.824
300.802
300.763
300.746
300.784
300.805
300.786
300.765
300.727
300.711
300.748
300.767
300.748
300.728
300.693
300.677
300.711
300.729
300.71
300.692
300.659
300.644
300.676
300.692
300.673
300.656
300.625
300.61
300.641
300.655
300.637
300.622
300.591
300.577
300.606
300.619
300.601
300.587
300.557
300.542
300.572
300.584
300.565
300.552
300.522
300.508
300.537
300.548
300.53
300.518
300.488
300.473
300.503
300.514
300.496
300.484
300.453
300.438
300.47
300.48
300.462
300.45
300.417
300.402
300.436
300.446
300.428
300.417
300.381
300.366
300.402
300.412
300.395
300.382
300.345
300.329
300.368
300.379
300.362
300.349
300.309
300.292
300.334
300.347
300.33
300.315
300.273
300.255
300.3
300.315
300.298
300.282
300.237
300.22
300.267
300.283
300.266
300.249
300.202
300.184
300.234
300.251
300.234
300.216
300.167
300.15
300.201
300.22
300.203
300.183
300.135
300.117
300.168
300.188
300.172
300.152
300.102
300.085
300.136
300.158
300.142
300.12
300.071
300.054
300.105
300.127
300.111
300.089
300.04
300.024
300.074
300.097
300.081
300.057
300.012
299.996
300.043
300.066
300.05
300.027
299.983
299.969
300.013
300.036
300.02
299.997
299.957
299.943
299.983
300.006
299.99
299.968
299.93
299.917
299.954
299.975
299.959
299.937
299.903
299.891
299.924
299.945
299.929
299.908
299.875
299.864
299.894
299.914
299.898
299.878
299.849
299.838
299.864
299.883
299.867
299.849
299.822
299.812
299.835
299.852
299.836
299.819
299.797
299.788
299.807
299.822
299.806
299.791
299.772
299.764
299.779
299.792
299.776
299.763
299.748
299.74
299.752
299.762
299.747
299.736
299.724
299.717
299.726
299.733
299.718
299.71
299.702
299.695
299.701
299.705
299.69
299.687
299.68
299.673
299.677
299.678
299.664
299.664
299.659
299.652
299.655
299.652
299.639
299.643
299.639
299.632
299.635
299.628
299.616
299.623
299.619
299.612
299.616
299.607
299.596
299.606
299.6
299.593
299.599
299.588
299.579
299.589
299.582
299.575
299.584
299.572
299.565
299.575
299.563
299.555
299.57
299.559
299.553
299.561
299.543
299.534
299.555
299.548
299.542
299.545
299.521
299.512
299.539
299.537
299.531
299.528
299.499
299.489
299.522
299.526
299.519
299.511
299.479
299.47
299.505
299.514
299.506
299.495
299.46
299.45
299.488
299.5
299.491
299.479
299.439
299.426
299.47
299.485
299.479
299.459
299.411
299.394
299.448
299.474
299.464
299.432
299.376
299.351
299.416
299.454
299.44
299.396
299.326
299.291
299.373
299.424
299.406
299.349
299.26
299.207
299.311
299.385
299.371
299.281
299.175
299.348
299.398
299.43
299.405
299.35
299.198
299.186
299.34
299.406
299.388
299.3
299.098
299.059
299.267
299.371
299.346
299.219
298.973
298.914
299.165
299.315
299.273
299.098
298.827
298.757
299.025
299.222
299.157
298.941
298.669
298.599
298.858
299.088
299.007
298.768
298.517
298.452
298.685
298.93
298.852
298.603
298.38
298.322
298.527
298.78
298.709
298.449
298.258
298.203
298.373
298.638
298.568
298.288
298.139
298.11
298.248
298.513
298.681
298.496
298.286
298.074
298.278
298.53
298.466
298.247
298.064
297.992
298.153
298.346
298.287
298.117
297.97
297.913
298.037
298.188
298.141
298.004
297.891
297.846
297.941
298.068
298.032
297.913
297.826
297.787
297.858
297.974
297.943
297.831
297.768
297.745
297.796
297.899
297.955
297.885
297.809
297.726
297.804
297.899
297.874
297.79
297.718
297.689
297.752
297.835
297.814
297.738
297.679
297.661
297.71
297.784
297.768
297.699
297.653
297.639
297.676
297.742
297.727
297.662
297.632
297.625
297.651
297.705
297.74
297.706
297.662
297.626
297.669
297.73
297.716
297.663
297.623
297.618
297.653
297.704
297.696
297.651
297.619
297.617
297.643
297.684
297.677
297.637
297.617
297.615
297.629
297.666
297.693
297.672
297.642
297.626
297.655
297.694
297.688
297.654
297.627
297.63
297.653
297.687
297.686
297.656
297.635
297.641
297.658
297.688
297.684
297.655
297.646
297.665
297.689
297.71
297.718
297.685
297.661
297.67
297.69
297.719
297.725
297.698
297.677
297.686
297.705
297.729
297.736
297.712
297.696
297.707
297.714
297.736
297.757
297.739
297.724
297.721
297.742
297.77
297.773
297.748
297.734
297.743
297.76
297.786
297.789
297.767
297.759
297.774
297.786
297.803
297.822
297.796
297.778
297.795
297.805
297.828
297.841
297.816
297.805
297.822
297.829
297.847
297.861
297.846
297.837
297.846
297.858
297.878
297.883
297.866
297.86
297.878
297.884
297.901
297.914
297.902
297.897
297.911
297.915
297.926
297.951
297.935
297.93
297.949
297.952
297.964
297.982
297.973
297.97
297.985
297.985
297.994
298.025
298.015
298.014
298.035
298.036
298.041
298.057
298.05
298.051
298.082
298.086
298.091
298.113
298.11
298.111
298.146
298.142
298.139
298.173
298.166
298.168
298.203
298.202
298.202
298.239
298.231
298.228
298.268
298.27
298.268
298.308
298.307
298.311
298.343
298.343
298.342
298.394
298.392
298.391
298.421
298.421
298.421
298.437
298.437
298.44
298.459
298.457
298.463
298.503
298.486
298.482
298.494
298.494
298.503
298.533
298.521
298.518
298.531
298.539
298.548
298.59
298.563
298.555
298.58
298.598
298.616
298.613
298.591
298.581
298.609
298.631
298.652
298.642
298.624
298.614
298.622
298.636
298.659
298.696
298.675
298.653
298.648
298.659
298.682
298.705
298.686
298.666
298.662
298.676
298.699
298.714
298.689
298.676
298.686
298.708
298.729
298.718
298.694
298.682
298.69
298.705
298.734
298.739
298.724
298.702
298.697
298.706
298.728
298.736
298.712
298.696
298.712
298.733
298.75
298.744
298.717
298.706
298.704
298.721
298.748
298.759
298.739
298.719
298.712
298.722
298.746
298.757
298.739
298.722
298.716
298.727
298.753
298.756
298.733
298.717
298.721
298.739
298.762
298.77
298.756
298.734
298.73
298.74
298.762
298.772
298.745
298.729
298.744
298.764
298.78
298.772
298.748
298.738
298.739
298.756
298.783
298.802
298.781
298.758
298.754
298.766
298.796
298.81
298.776
298.757
298.784
298.81
298.835
298.828
298.793
298.778
298.785
298.807
298.846
298.878
298.85
298.819
298.813
298.83
298.87
298.892
298.847
298.822
298.862
298.896
298.924
298.912
298.872
298.854
298.863
298.893
298.937
298.961
298.937
298.904
298.892
298.911
298.949
298.971
298.933
298.902
298.939
298.964
298.986
298.975
298.941
298.924
298.93
298.958
298.992
299
298.981
298.96
298.944
298.958
298.987
299
298.969
298.946
298.969
298.986
299.003
298.991
298.965
298.952
298.953
298.973
299
299.003
298.987
298.971
298.955
298.966
298.989
298.996
298.971
298.955
298.969
298.982
298.997
298.984
298.963
298.953
298.952
298.967
298.991
298.992
298.978
298.964
298.949
298.959
298.98
298.988
298.963
298.948
298.96
298.974
298.989
298.977
298.954
298.944
298.943
298.958
298.985
298.99
298.973
298.957
298.943
298.953
298.979
298.989
298.959
298.943
298.962
298.98
298.999
298.987
298.958
298.946
298.946
298.966
299
299.01
298.989
298.968
298.951
298.965
298.997
299.01
298.975
298.953
298.98
299.004
299.03
299.016
298.978
298.963
298.966
298.991
299.031
299.057
299.029
299
298.98
298.998
299.04
299.057
299.012
298.983
299.021
299.05
299.079
299.064
299.019
298.998
299.004
299.035
299.084
299.109
299.079
299.047
299.021
299.045
299.092
299.114
299.062
299.029
299.077
299.11
299.141
299.122
299.074
299.049
299.055
299.094
299.144
299.162
299.133
299.103
299.072
299.096
299.143
299.165
299.119
299.079
299.123
299.152
299.179
299.159
299.116
299.095
299.123
299.148
299.181
299.163
299.116
299.094
299.104
299.141
299.183
299.189
299.164
299.144
299.11
299.13
299.169
299.182
299.146
299.113
299.144
299.162
299.184
299.165
299.131
299.114
299.117
299.143
299.174
299.173
299.152
299.139
299.111
299.124
299.153
299.158
299.135
299.124
299.097
299.11
299.142
299.145
299.118
299.099
299.112
299.123
299.142
299.117
299.095
299.087
299.081
299.1
299.12
299.116
299.102
299.092
299.068
299.075
299.095
299.099
299.08
299.062
299.07
299.081
299.095
299.075
299.054
299.046
299.052
299.059
299.077
299.063
299.038
299.028
299.026
299.042
299.065
299.062
299.044
299.034
299.01
299.016
299.037
299.042
299.02
299
299.01
299.023
299.039
299.021
298.995
298.986
298.993
299.003
299.025
299.01
298.982
298.974
298.972
298.989
299.018
299.018
298.998
298.984
298.962
298.973
299.002
299.014
298.988
298.973
298.954
298.964
298.997
299.004
298.97
298.952
298.968
298.985
299.007
298.991
298.958
298.946
298.945
298.967
299.004
299.009
298.985
298.965
298.944
298.956
298.993
299.009
298.977
298.958
298.94
298.953
298.993
299.01
298.969
298.945
298.973
298.998
299.025
299.008
298.969
298.952
298.972
298.997
299.032
299.013
298.968
298.951
298.956
298.986
299.031
299.042
299.013
298.991
298.963
298.983
299.025
299.049
299.004
298.969
299.005
299.034
299.063
299.045
299
298.981
299.008
299.034
299.072
299.055
299.003
298.981
298.991
299.029
299.079
299.095
299.064
299.033
299.009
299.031
299.077
299.103
299.063
299.036
299.008
299.029
299.081
299.101
299.054
299.015
299.053
299.081
299.109
299.095
299.046
299.026
299.051
299.073
299.111
299.091
299.041
299.02
299.027
299.064
299.11
299.116
299.088
299.061
299.036
299.053
299.101
299.113
299.078
299.054
299.033
299.049
299.095
299.115
299.079
299.056
299.026
299.047
299.102
299.111
299.065
299.033
299.065
299.09
299.121
299.102
299.054
299.037
299.057
299.079
299.119
299.101
299.049
299.03
299.039
299.07
299.121
299.135
299.1
299.075
299.048
299.067
299.117
299.142
299.101
299.074
299.046
299.071
299.129
299.151
299.09
299.058
299.104
299.139
299.178
299.159
299.101
299.08
299.115
299.152
299.199
299.18
299.116
299.089
299.104
299.139
299.204
299.238
299.197
299.16
299.134
299.157
299.221
299.264
299.215
299.175
299.151
299.176
299.244
299.291
299.238
299.2
299.17
299.205
299.282
299.315
299.235
299.197
299.274
299.314
299.366
299.346
299.27
299.244
299.299
299.343
299.4
299.38
299.301
299.271
299.338
299.379
299.441
299.442
299.344
299.298
299.334
299.379
299.473
299.53
299.472
299.43
299.388
299.421
299.504
299.565
299.501
299.458
299.411
299.46
299.558
299.597
299.5
299.45
299.555
299.6
299.66
299.637
299.549
299.515
299.584
299.635
299.699
299.677
299.585
299.548
299.627
299.672
299.74
299.731
299.631
299.579
299.622
299.672
299.773
299.835
299.774
299.729
299.689
299.724
299.812
299.873
299.81
299.758
299.719
299.757
299.845
299.9
299.835
299.79
299.738
299.789
299.89
299.926
299.831
299.779
299.881
299.919
299.978
299.957
299.87
299.837
299.902
299.95
300.012
299.988
299.898
299.861
299.936
299.978
300.044
300.031
299.931
299.878
299.92
299.973
300.069
300.121
300.062
300.022
299.98
300.014
300.1
300.156
300.093
300.044
300.004
300.042
300.131
300.192
300.124
300.077
300.026
300.074
300.175
300.208
300.114
300.062
300.16
300.196
300.254
300.231
300.147
300.115
300.175
300.222
300.282
300.266
300.169
300.134
300.201
300.249
300.312
300.289
300.196
300.156
300.226
300.274
300.34
300.33
300.227
300.175
300.216
300.267
300.364
300.414
300.352
300.317
300.27
300.303
300.392
300.445
300.382
300.334
300.289
300.329
300.422
300.475
300.408
300.36
300.31
300.364
300.47
300.5
300.399
300.348
300.442
300.483
300.546
300.52
300.433
300.4
300.461
300.508
300.572
300.556
300.454
300.418
300.485
300.536
300.602
300.58
300.482
300.442
300.512
300.562
300.631
300.613
300.512
300.462
300.501
300.554
300.65
300.697
300.637
300.596
300.56
300.59
300.682
300.727
300.665
300.617
300.583
300.615
300.713
300.76
300.696
300.646
300.609
300.646
300.738
300.791
300.724
300.674
300.632
300.677
300.776
300.812
300.723
300.669
300.752
300.79
300.848
300.832
300.748
300.723
300.773
300.814
300.874
300.858
300.769
300.737
300.793
300.84
300.9
300.883
300.789
300.755
300.81
300.857
300.919
300.893
300.806
300.767
300.796
300.853
300.932
300.954
300.903
300.866
300.837
300.861
300.945
300.97
300.914
300.873
300.843
300.869
300.964
300.983
300.925
300.882
300.848
300.879
300.96
300.99
300.93
300.889
300.852
300.884
300.966
300.996
300.922
300.872
300.922
300.96
301.008
300.994
300.914
300.893
300.921
300.956
301.01
301.001
300.912
300.889
300.921
300.962
301.017
301.004
300.915
300.888
300.923
300.961
301.02
300.994
300.916
300.885
300.899
300.95
301.022
301.032
300.987
300.946
300.918
300.942
301.013
301.033
300.978
300.941
300.914
300.934
301.025
301.037
300.979
300.94
300.91
300.935
301.017
301.036
300.977
300.938
300.905
300.933
301.007
301.037
300.964
300.916
300.958
301
301.046
301.025
300.952
300.928
300.948
300.982
301.039
301.029
300.937
300.917
300.939
300.976
301.035
301.022
300.931
300.908
300.933
300.972
301.032
301.009
300.923
300.899
300.925
300.962
301.022
300.991
300.915
300.889
300.897
300.942
301.014
301.019
300.972
300.934
300.903
300.925
301.001
301.015
300.956
300.921
300.893
300.911
301.001
301.012
300.95
300.914
300.886
300.906
300.994
301.003
300.943
300.906
300.877
300.898
300.985
300.995
300.934
300.899
300.865
300.889
300.968
300.984
300.913
300.869
300.901
300.942
300.991
300.969
300.888
300.868
300.885
300.918
300.98
300.964
300.871
300.853
300.87
300.902
300.964
300.948
300.858
300.838
300.857
300.892
300.956
300.93
300.846
300.823
300.843
300.878
300.938
300.903
300.83
300.806
300.812
300.856
300.929
300.926
300.88
300.844
300.808
300.827
300.913
300.913
300.855
300.822
300.794
300.812
300.908
300.909
300.844
300.81
300.782
300.802
300.893
300.901
300.836
300.799
300.767
300.79
300.872
300.884
300.823
300.786
300.751
300.774
300.85
300.872
300.797
300.752
300.782
300.822
300.87
300.853
300.767
300.747
300.76
300.792
300.855
300.845
300.747
300.729
300.744
300.777
300.841
300.825
300.73
300.71
300.727
300.762
300.829
300.801
300.713
300.692
300.71
300.745
300.809
300.771
300.695
300.673
300.676
300.722
300.794
300.785
300.738
300.704
300.665
300.684
300.777
300.778
300.712
300.676
300.648
300.668
300.758
300.767
300.699
300.663
300.63
300.65
300.742
300.752
300.683
300.647
300.614
300.636
300.721
300.73
300.665
300.63
300.592
300.614
300.693
300.716
300.639
300.593
300.62
300.66
300.714
300.679
300.607
300.584
300.596
300.628
300.692
300.678
300.578
300.559
300.572
300.608
300.679
300.656
300.556
300.536
300.551
300.588
300.66
300.622
300.541
300.516
300.533
300.57
300.634
300.596
300.516
300.493
300.495
300.546
300.623
300.611
300.558
300.525
300.478
300.497
300.598
300.598
300.526
300.489
300.456
300.477
300.582
300.581
300.507
300.468
300.434
300.455
300.566
300.56
300.486
300.449
300.411
300.434
300.542
300.542
300.465
300.424
300.388
300.412
300.5
300.512
300.441
300.404
300.364
300.386
300.472
300.494
300.416
300.363
300.384
300.42
300.484
300.447
300.369
300.347
300.355
300.393
300.463
300.446
300.336
300.318
300.329
300.366
300.441
300.419
300.312
300.292
300.304
300.343
300.421
300.377
300.291
300.266
300.279
300.317
300.386
300.346
300.261
300.238
300.236
300.287
300.371
300.359
300.302
300.264
300.216
300.236
300.344
300.343
300.264
300.22
300.191
300.211
300.303
300.314
300.238
300.197
300.163
300.183
300.298
300.295
300.214
300.177
300.134
300.157
300.262
300.266
300.186
300.152
300.1
300.125
300.217
300.241
300.157
300.1
300.123
300.163
300.228
300.202
300.1
300.08
300.089
300.125
300.205
300.19
300.067
300.048
300.055
300.094
300.173
300.164
300.038
300.019
300.032
300.07
300.157
300.122
300.01
299.987
300.007
300.044
300.129
300.076
299.98
299.954
299.952
300.015
300.102
300.084
300.02
299.98
299.932
299.952
300.071
300.067
299.983
299.938
299.905
299.923
300.051
300.047
299.955
299.917
299.872
299.892
300.013
300.009
299.923
299.885
299.843
299.865
299.979
299.991
299.9
299.867
299.801
299.831
299.938
299.965
299.866
299.8
299.832
299.88
299.948
299.927
299.806
299.783
299.794
299.834
299.924
299.893
299.771
299.747
299.758
299.803
299.893
299.871
299.735
299.711
299.728
299.772
299.871
299.823
299.707
299.678
299.698
299.738
299.83
299.774
299.666
299.638
299.638
299.702
299.805
299.791
299.715
299.673
299.611
299.635
299.765
299.764
299.668
299.619
299.581
299.6
299.735
299.731
299.633
299.588
299.547
299.573
299.684
299.701
299.603
299.556
299.509
299.541
299.659
299.672
299.575
299.536
299.461
299.496
299.617
299.642
299.53
299.462
299.501
299.553
299.637
299.604
299.471
299.444
299.459
299.505
299.61
299.571
299.428
299.404
299.422
299.467
299.572
299.539
299.397
299.37
299.386
299.435
299.537
299.485
299.368
299.337
299.362
299.403
299.499
299.446
299.325
299.291
299.292
299.368
299.475
299.469
299.374
299.328
299.271
299.301
299.412
299.435
299.336
299.28
299.238
299.261
299.405
299.411
299.299
299.254
299.197
299.226
299.351
299.361
299.256
299.22
299.145
299.175
299.297
299.335
299.222
299.146
299.19
299.234
299.329
299.275
299.158
299.124
299.148
299.193
299.301
299.259
299.117
299.082
299.102
299.16
299.274
299.25
299.077
299.046
299.074
299.124
299.25
299.182
299.043
299.003
299.031
299.088
299.198
299.133
298.998
298.961
298.966
299.039
299.166
299.164
299.056
299.023
298.925
298.965
299.098
299.117
299.004
298.942
298.886
298.919
299.068
299.084
298.96
298.909
298.839
298.875
299.023
299.039
298.921
298.861
298.795
298.828
298.969
299
298.87
298.786
298.823
298.881
298.979
298.921
298.782
298.752
298.766
298.822
298.939
298.89
298.756
298.725
298.74
298.802
298.916
298.866
298.722
298.685
298.712
298.768
298.887
298.818
298.675
298.64
298.644
298.72
298.857
298.855
298.737
298.697
298.607
298.646
298.782
298.803
298.686
298.621
298.564
298.598
298.754
298.77
298.641
298.584
298.515
298.553
298.711
298.727
298.596
298.548
298.454
298.496
298.652
298.687
298.536
298.447
298.498
298.569
298.68
298.605
298.46
298.415
298.429
298.496
298.623
298.573
298.394
298.362
298.38
298.436
298.579
298.499
298.339
298.308
298.32
298.37
298.497
298.434
298.289
298.249
298.255
298.333
298.492
298.496
298.369
298.317
298.222
298.269
298.421
298.448
298.32
298.239
298.181
298.22
298.384
298.41
298.268
298.214
298.126
298.167
298.332
298.38
298.216
298.122
298.169
298.245
298.37
298.289
298.138
298.094
298.124
298.172
298.312
298.249
298.07
298.027
298.049
298.123
298.267
298.199
298.019
297.974
297.993
298.07
298.21
298.135
297.966
297.926
297.913
298.016
298.173
298.149
298.028
297.95
297.869
297.913
298.078
298.091
297.948
297.883
297.802
297.839
298.024
298.017
297.862
297.826
297.716
297.773
297.946
298.009
297.808
297.712
297.772
297.879
298.017
297.927
297.749
297.693
297.729
297.799
297.959
297.877
297.678
297.629
297.654
297.74
297.899
297.81
297.623
297.578
297.568
297.672
297.861
297.85
297.713
297.612
297.535
297.587
297.759
297.783
297.633
297.549
297.476
297.517
297.713
297.728
297.561
297.499
297.396
297.443
297.643
297.654
297.489
297.427
297.324
297.37
297.562
297.594
297.416
297.296
297.345
297.436
297.563
297.465
297.281
297.225
297.24
297.309
297.468
297.361
297.173
297.137
297.168
297.217
297.383
297.297
297.11
297.059
297.065
297.163
297.364
297.37
297.218
297.132
297.02
297.081
297.272
297.302
297.14
297.046
296.963
297.01
297.21
297.261
297.054
296.942
296.987
297.097
297.25
297.145
296.955
296.898
296.928
297.002
297.174
297.085
296.869
296.819
296.842
296.925
297.104
297.007
296.797
296.752
296.726
296.86
297.054
297.013
296.864
296.768
296.656
296.715
296.92
296.939
296.757
296.682
296.563
296.612
296.845
296.84
296.646
296.583
296.446
296.503
296.721
296.712
296.49
296.374
296.442
296.571
296.72
296.631
296.436
296.364
296.423
296.508
296.695
296.59
296.359
296.293
296.283
296.419
296.666
296.648
296.479
296.343
296.248
296.318
296.534
296.567
296.379
296.268
296.177
296.231
296.479
296.498
296.293
296.202
296.102
296.152
296.39
296.425
296.204
296.071
296.156
296.234
296.413
296.287
296.054
295.973
296
296.11
296.304
296.203
295.943
295.886
295.836
295.977
296.229
296.198
296.005
295.916
295.713
295.788
296.048
296.03
295.809
295.723
295.582
295.633
295.877
295.917
295.641
295.522
295.643
295.751
295.959
295.863
295.599
295.517
295.554
295.697
295.915
295.789
295.518
295.45
295.436
295.596
295.89
295.862
295.642
295.53
295.362
295.447
295.713
295.748
295.518
295.402
295.258
295.331
295.636
295.653
295.401
295.302
295.146
295.216
295.504
295.554
295.262
295.097
295.144
295.321
295.514
295.372
295.111
295.037
294.973
295.163
295.429
295.361
295.156
295.05
294.83
294.918
295.232
295.202
294.947
294.814
294.652
294.716
294.978
295.027
294.71
294.567
294.715
294.853
295.09
294.995
294.677
294.577
294.62
294.792
295.049
294.907
294.582
294.499
294.478
294.657
295.013
294.995
294.737
294.601
294.383
294.492
294.814
294.846
294.582
294.419
294.287
294.362
294.689
294.75
294.416
294.225
294.337
294.461
294.708
294.52
294.194
294.079
294.102
294.267
294.542
294.385
294.038
293.963
293.873
294.058
294.399
294.292
294.022
293.901
293.693
293.798
294.114
294.007
293.663
293.5
293.583
293.818
294.056
293.949
293.603
293.475
293.59
293.756
294.085
293.921
293.529
293.398
293.389
293.579
294.05
294.038
293.742
293.499
293.321
293.451
293.828
293.925
293.507
293.272
293.401
293.59
293.872
293.674
293.27
293.13
293.168
293.372
293.695
293.493
293.086
292.991
292.905
293.133
293.538
293.445
293.131
292.948
292.744
292.851
293.242
293.261
292.856
292.606
292.618
292.815
293.098
292.787
292.445
292.338
292.21
292.418
292.864
292.986
292.64
292.451
292.231
292.387
292.849
292.937
292.564
292.318
292.137
292.269
292.735
292.855
292.324
292.074
292.224
292.471
292.816
292.574
292.119
291.946
291.837
292.131
292.651
292.584
292.273
291.938
291.726
291.878
292.335
292.395
291.922
291.6
291.691
291.923
292.263
292.007
291.522
291.342
291.183
291.432
291.988
291.872
291.374
291.059
290.782
290.938
291.386
291.705
291.054
290.796
291.042
291.356
291.754
291.524
291.024
290.809
290.789
291.072
291.743
291.714
291.299
290.946
290.686
290.874
291.407
291.531
290.961
290.585
290.73
290.998
291.405
291.128
290.574
290.384
290.224
290.623
291.188
291.012
290.615
290.272
289.963
290.166
290.702
290.639
290.046
289.654
289.628
289.938
290.537
289.834
289.294
289.15
289.224
289.587
290.299
290.316
289.907
289.533
289.294
289.569
290.214
290.325
289.567
289.264
289.252
289.701
290.492
290.368
289.837
289.438
289.04
289.29
289.983
290.066
289.344
288.853
288.963
289.359
289.865
289.47
288.795
288.517
288.129
288.633
289.421
289.155
288.489
288.119
287.493
287.661
288.306
288.617
287.862
287.496
287.672
288.142
289.117
289.078
288.555