/*--------------------------------*- C++ -*----------------------------------*\
| =========                 |                                                 |
| \\      /  F ield         | OpenFOAM: The Open Source CFD Toolbox           |
|  \\    /   O peration     | Version:  v2006                                 |
|   \\  /    A nd           | Website:  www.openfoam.com                      |
|    \\/     M anipulation  |                                                 |
\*---------------------------------------------------------------------------*/
FoamFile
{
    version     2.0;
    format      ascii;
    class       volScalarField;
    location    "0.054";
    object      omega;
}
// * * * * * * * * * * * * * * * * * * * * * * * * * * * * * * * * * * * * * //

dimensions      [0 0 -1 0 0 0 0];


internalField   nonuniform List<scalar> 
24416
(
0.013832
0.0138321
0.0138319
0.0138318
0.0138317
0.0138316
0.0138316
0.0138316
0.0138316
0.0138316
0.0138316
0.0138316
0.0138315
0.0138309
0.0138289
0.0138247
0.0138182
0.0138098
0.0138
0.0137892
0.0137779
0.0137663
0.0137545
0.0137425
0.0137302
0.0137178
0.0137051
0.0136921
0.0136788
0.0136651
0.0136512
0.013637
0.0136224
0.0136076
0.0135926
0.0135773
0.0135618
0.013546
0.0135301
0.0135141
0.0134979
0.0134815
0.0134652
0.0134488
0.0134325
0.0134163
0.0134003
0.0133847
0.0133697
0.0133555
0.0133425
0.013331
0.0133218
0.0133155
0.0133134
0.0133168
0.013328
0.0133496
0.0133855
0.0134409
0.0135229
0.0136412
0.013809
0.0140441
0.014371
0.0148228
0.015444
0.016295
0.0174568
0.019038
0.0211836
0.0240855
0.0279965
0.0332457
0.0402561
0.0495629
0.0618288
0.0778562
0.0985923
0.12513
0.15871
0.200723
0.252686
0.315893
0.389304
0.457747
0.425443
0.477997
0.520164
0.491203
0.377478
0.239327
0.138163
0.0757075
0.0307883
0.177055
0.669497
1.86075
4.52587
10.5572
25.247
35.5702
30.4871
79.6984
214.296
533.933
1751.13
14686.7
78640.7
1.10518e+06
1.07763e+06
163608
37849.2
57680.7
203354
1.04994e+06
1.01778e+06
218133
69383.7
78296.5
227007
977899
947601
225274
83902.2
89198.1
228745
916768
899083
228424
91812.6
95273
232437
885814
876938
231122
96571.1
98779.1
229498
863498
853686
227905
99114.4
100384
226813
843532
836255
225747
100475
101326
225018
828275
822634
224276
101319
101973
223819
816163
811587
223287
101932
102496
223024
806190
802336
222646
102433
102941
222502
797698
794357
222235
102864
103332
222151
790271
787304
221968
103245
103681
221917
783630
780946
221789
103586
103995
221757
777588
775124
221664
103891
104276
221637
772017
769733
221558
104165
104529
221544
766827
764681
221477
104412
104757
221468
761940
759910
221407
104633
104960
221397
757309
755378
221333
104830
105140
221322
752897
751050
221255
105005
105300
221242
748674
746901
221172
105159
105440
221156
744617
742908
221081
105295
105562
221062
740705
739053
220981
105413
105669
220960
736924
735323
220873
105516
105762
220848
733259
731702
220756
105606
105842
220728
729697
728180
220630
105683
105910
220598
726229
724749
220493
105748
105970
220457
722847
721401
220346
105804
106020
220307
719544
718128
220188
105849
106061
220145
716311
714922
220019
105886
106093
219973
713142
711777
219839
105914
106117
219789
710029
708685
219648
105935
106134
219593
706965
705641
219445
105948
106144
219387
703945
702637
219230
105956
106148
219168
700963
699667
219004
105957
106146
218937
698012
696728
218764
105952
106137
218693
695088
693814
218512
105940
106122
218436
692187
690920
218247
105923
106101
218166
689303
688041
217968
105900
106074
217883
686431
685172
217676
105871
106042
217586
683566
682308
217370
105836
106004
217274
680705
679446
217049
105796
105961
216948
677842
676580
216714
105751
105912
216607
674973
673707
216363
105700
105858
216252
672093
670820
215997
105644
105799
215880
669199
667917
215615
105583
105734
215493
666284
664992
215217
105516
105663
215089
663347
662043
214803
105444
105587
214668
660382
659064
214371
105366
105506
214230
657386
656053
213921
105281
105418
213773
654356
653006
213452
105190
105324
213297
651289
649920
212965
105093
105224
212803
648179
646790
212458
104986
105115
212289
645025
643615
211931
104873
104999
211756
641823
640391
211385
104752
104876
211202
638570
637113
210818
104624
104746
210627
635260
633777
210229
104489
104608
210030
631891
630379
209617
104347
104464
209409
628456
626915
208981
104197
104311
208764
624954
623381
208320
104039
104150
208094
621379
619772
207633
103872
103981
207398
617728
616086
206920
103697
103803
206675
613996
612319
206179
103513
103616
205924
610182
608465
205411
103321
103420
205145
606279
604521
204614
103119
103215
204333
602285
600485
203788
102907
103000
203490
598196
596352
202930
102685
102774
202615
594009
592121
202039
102452
102537
201706
589721
587787
201113
102208
102289
200761
585329
583347
200151
101952
102028
199780
580829
578799
199152
101683
101755
198760
576219
574139
198114
101401
101468
197700
571495
569364
197035
101105
101167
196599
566655
564473
195913
100794
100851
195456
561696
559462
194749
100467
100519
194268
556616
554328
193539
100124
100170
193034
551413
549071
192282
99764.1
99803.3
191752
546087
543692
190976
99385.1
99417.6
190419
540640
538194
189618
98986
99011.3
189033
535075
532579
188206
98565.2
98582.7
187592
529395
526852
186738
98121
98130.4
186096
523606
521017
185211
97651.9
97652.6
184541
517714
515076
183626
97160.5
97149.1
182929
511729
509031
181979
96640
96615.9
181258
505668
502873
180268
96089.2
96053.2
179529
499573
496558
178507
95510.8
95468
177770
493538
491324
176843
94924.8
94886.8
176202
488679
486617
175352
94359.8
94328.7
174768
484025
481961
173956
93819.3
93792
173394
479352
477259
172594
93294.5
93266.7
172035
474624
472504
171224
92772.3
92739.7
170652
469850
467715
169819
92240.1
92198
169223
465055
462917
168358
91685.8
91630
167729
460263
458138
166823
91097.3
91023.5
166155
455505
453408
165201
90462.2
90366.6
164489
450812
448760
163483
89769.8
89648.9
162723
446219
444228
161661
89011
88862.2
160853
441758
439844
159734
88178.8
88000.1
158880
437461
435640
157705
87267.7
87057.9
156806
433360
431645
155580
86274.8
86033.3
154640
429482
427886
153370
85199.7
84927.2
152397
425849
424381
151087
84044.1
83744.4
150096
422479
421143
148757
82813.3
82507.7
147762
419382
418179
146408
81526.2
81200.9
145412
416557
415487
144060
80193.2
79852.8
143077
414004
413062
141739
78826.7
78477.2
140782
411713
410892
139471
77443.4
77091.2
138554
409667
408957
137283
76060.7
75711.6
136413
407848
407237
135195
74694.8
74354.4
134378
406235
405711
133224
73364.8
73022.5
132464
404805
404358
131380
72078
71752.3
130684
403537
403154
129673
70844.5
70538.9
129043
402407
402069
128111
69673.3
69391.9
127553
401384
401078
126695
68565.8
68312.8
126211
400449
400167
125430
67533.1
67310.2
125015
399577
399306
124311
66582.8
66391.1
123965
398738
398465
123342
65721.1
65559.9
123062
397874
397622
122404
64903.2
64998.2
122585
397193
396685
121858
64302.6
64348.6
121868
395843
395638
121674
63889.2
64036
121879
393900
394775
122048
63825.2
63332.1
121119
389381
380230
117239
61383.2
59483.6
114610
365650
30518.5
19969.3
15104.5
12248.9
10993.2
9653.71
8795.47
8054.02
7504.1
7014.69
6619.04
6262.55
5961.44
5688.53
5452.22
5237.56
5049.28
4878.67
4728.69
4594.14
4477.16
4374.68
4288.53
4216.96
4161.81
4122.51
4100.91
4097.8
4114.96
4154.59
4220.22
4315.36
4445.21
4616.46
4836.7
5118.68
5474.64
5929.76
6503.66
7249.66
8195.72
9459.99
11085.9
13398.8
15642.1
20313.8
26323.7
37078.3
61985.9
134085
294760
1.12486e+06
1.24362e+06
331071
150199
162466
364166
1.39018e+06
1.53988e+06
402413
179987
188884
423303
1.62306e+06
1.67291e+06
430114
190708
198181
442207
1.69365e+06
1.70795e+06
439571
195706
198779
445878
1.70554e+06
1.71069e+06
438563
195955
199588
447851
1.71322e+06
1.71575e+06
439611
197057
199521
446102
1.71238e+06
1.71509e+06
437084
196793
200252
446244
1.71777e+06
1.72074e+06
438126
197716
200077
444649
1.71751e+06
1.71861e+06
435601
197428
200894
444819
1.72536e+06
1.72674e+06
436632
198401
200782
443204
1.72359e+06
1.72501e+06
434169
198194
201693
443453
1.73181e+06
1.73355e+06
435315
199268
201692
441966
1.73047e+06
1.73222e+06
432998
199185
202740
442378
1.73903e+06
1.74114e+06
434344
200412
202913
441112
1.73812e+06
1.74025e+06
432267
200518
204172
441787
1.74708e+06
1.74965e+06
433915
201971
204578
440845
1.7467e+06
1.74928e+06
432177
202299
206117
441892
1.75615e+06
1.7593e+06
434231
204034
206827
441384
1.75646e+06
1.75961e+06
432952
204650
208772
442987
1.76654e+06
1.77043e+06
435672
206822
210033
443336
1.76778e+06
1.77375e+06
435466
208044
212770
446461
1.77697e+06
1.78444e+06
440169
211067
214675
449099
1.78272e+06
1.79192e+06
441599
212645
216266
452890
1.79861e+06
1.81743e+06
443567
213144
215712
448856
1.81426e+06
1.81453e+06
434236
211026
214441
439785
1.78264e+06
1.74924e+06
426995
212114
215216
430877
1.69695e+06
1.64018e+06
426855
216623
223533
434137
1.56564e+06
1.44875e+06
435351
226789
235699
422720
2.15493e+06
3.29634e+06
1.05312e+06
458117
261132
515562
2.37873e+06
2.0524e+06
542874
269209
249040
511051
1.93135e+06
1.90837e+06
481627
242214
169987
477921
1.08378e+06
786091
240073
126173
117263
236170
673364
630401
188613
98552.8
101427
189509
636819
613358
205175
116939
102007
186019
587219
533693
167201
92474.8
84106.6
151133
498898
457253
134299
71861.7
58497.9
117028
431483
400030
94022.2
48434
43537.3
78249.2
381796
332852
59349.6
34123.8
27823
47167
298358
263661
39697.1
25983.2
24285.9
33978.1
240302
204789
29588.6
20683.7
18378.9
25183.9
183727
161993
22707.8
17103.9
15276.2
21083.7
149949
146860
22573.9
15957.9
16553.4
22787.9
155068
172101
41706.1
17445.9
50180
120378
198651
246707
200006
141919
162462
235171
281721
344790
289864
201508
283985
346945
405097
488519
405110
290583
316233
450132
556819
681148
549886
412114
397379
575802
757532
854678
606277
408583
501859
698175
981618
1.06838e+06
690206
453197
465420
684156
1.19796e+06
1.9571e+06
1.15334e+06
644748
556480
946917
2.84486e+06
2.15789e+06
936739
577066
850127
1.5243e+06
3.2674e+06
2.45479e+06
748308
560058
541024
756094
1.92708e+06
3.16132e+06
1.36882e+06
745978
488345
658904
2.34879e+06
1.84022e+06
675007
472024
693713
1.31657e+06
3.06299e+06
2.2826e+06
608730
437468
429697
634251
1.80958e+06
3.11063e+06
1.3127e+06
665271
413599
584762
2.3372e+06
1.88534e+06
617455
406979
685928
1.42542e+06
3.40346e+06
2.68899e+06
481753
421497
589845
1.09111e+06
2.3898e+06
1.84217e+06
510894
354408
357623
551761
1.53489e+06
2.72505e+06
1.17934e+06
592478
354969
508987
2.05772e+06
1.66602e+06
560888
355992
606240
1.2244e+06
2.90423e+06
2.17173e+06
519757
356577
358594
569207
1.793e+06
3.25144e+06
1.39382e+06
657178
399228
453739
2.64207e+06
2.42824e+06
1.08238e+06
585439
340480
516067
1.93228e+06
1.66397e+06
573895
350209
654183
1.36507e+06
3.11489e+06
2.5672e+06
452499
399525
581591
1.05778e+06
2.33501e+06
1.8201e+06
505383
336932
344315
554155
1.56247e+06
2.80257e+06
1.23627e+06
620284
360178
530241
2.19524e+06
1.85651e+06
601895
366917
711560
1.47603e+06
3.43574e+06
2.87957e+06
498068
431584
651203
1.20594e+06
2.74383e+06
2.3766e+06
473568
387631
578599
1.05392e+06
2.24064e+06
1.84443e+06
525996
343391
357580
598201
1.64874e+06
3.07996e+06
1.39224e+06
682323
413907
500813
2.57384e+06
2.43059e+06
1.10757e+06
614380
357054
541493
1.9917e+06
1.76904e+06
611640
371117
719487
1.50095e+06
3.35958e+06
2.78228e+06
516619
437688
664186
1.2075e+06
2.68062e+06
2.38003e+06
510025
400361
604590
1.11125e+06
2.29763e+06
1.89032e+06
551670
359049
377122
636767
1.6856e+06
3.19852e+06
1.48364e+06
737769
450249
543768
2.77605e+06
2.67465e+06
1.21617e+06
677592
411487
506315
2.37537e+06
2.31735e+06
1.11192e+06
619532
370816
576564
1.93714e+06
1.77695e+06
663890
392248
767617
1.57101e+06
3.42622e+06
2.88955e+06
536210
479434
720109
1.2829e+06
2.82617e+06
2.49075e+06
562538
435906
658244
1.20172e+06
2.41412e+06
1.99618e+06
605407
393064
412957
688194
1.81771e+06
3.50659e+06
1.62606e+06
800591
496859
561308
2.9518e+06
2.89622e+06
1.3319e+06
749572
457430
589004
2.56135e+06
2.56139e+06
1.2525e+06
695635
436997
565565
2.35563e+06
2.34959e+06
1.17442e+06
657033
398666
612209
1.96634e+06
1.81632e+06
722698
426215
829056
1.68348e+06
3.5469e+06
3.05303e+06
612751
523187
775465
1.35787e+06
2.97369e+06
2.67293e+06
589014
482203
731065
1.30818e+06
2.73754e+06
2.5609e+06
602209
469548
713107
1.28068e+06
2.61355e+06
2.37921e+06
589260
458741
682326
1.19728e+06
2.37747e+06
1.98809e+06
637513
418212
442256
730726
1.82532e+06
3.49231e+06
1.66329e+06
856325
532351
626285
3.03288e+06
2.97696e+06
1.37423e+06
794779
495475
627877
2.63389e+06
2.68542e+06
1.31675e+06
746649
480320
617634
2.50368e+06
2.56875e+06
1.271e+06
721563
468048
599137
2.33724e+06
2.37127e+06
1.21348e+06
698047
432344
656384
2.0194e+06
1.87318e+06
763021
461854
879482
1.70701e+06
3.57514e+06
3.06589e+06
658726
560758
824525
1.4331e+06
3.03678e+06
2.77067e+06
639014
523272
789323
1.39657e+06
2.86054e+06
2.626e+06
662721
514533
764984
1.3407e+06
2.66927e+06
2.42545e+06
641615
500819
739774
1.27135e+06
2.46501e+06
2.0845e+06
692026
459774
486319
790831
1.92816e+06
3.63417e+06
1.77431e+06
916848
583163
677718
3.1497e+06
3.14242e+06
1.4622e+06
857124
542617
675679
2.81632e+06
2.88076e+06
1.40794e+06
812893
529187
676058
2.63536e+06
2.7159e+06
1.36026e+06
789360
515797
656642
2.46289e+06
2.50925e+06
1.29369e+06
761515
476718
714280
2.13366e+06
1.99861e+06
834617
509042
963953
1.81654e+06
3.80296e+06
3.25039e+06
717321
609086
907317
1.55533e+06
3.29034e+06
2.90479e+06
729081
576042
856568
1.48627e+06
2.95056e+06
2.73068e+06
716762
562765
836899
1.45106e+06
2.84624e+06
2.57323e+06
709044
551129
807432
1.36961e+06
2.59629e+06
2.21211e+06
758335
504815
533981
857665
2.05406e+06
3.83756e+06
1.8931e+06
998048
640270
737427
3.31883e+06
3.32407e+06
1.61178e+06
938502
597023
742779
2.95699e+06
3.0301e+06
1.53206e+06
889555
581444
739156
2.72449e+06
2.80808e+06
1.4618e+06
860404
565468
715066
2.57021e+06
2.60692e+06
1.38253e+06
822230
516769
772244
2.20379e+06
2.07659e+06
890417
551137
1.02511e+06
1.9201e+06
3.90448e+06
3.3822e+06
778488
656627
959896
1.64604e+06
3.43271e+06
2.97001e+06
753465
617788
908253
1.55414e+06
3.03572e+06
2.74979e+06
758500
598802
872087
1.46071e+06
2.76077e+06
2.33595e+06
814180
546971
578346
918443
2.18827e+06
3.96593e+06
1.96476e+06
1.05949e+06
673123
807448
3.42498e+06
3.43728e+06
1.6552e+06
979620
629036
768563
2.94804e+06
3.02577e+06
1.54541e+06
920956
605651
762151
2.73653e+06
2.77582e+06
1.47383e+06
880608
552212
822938
2.29217e+06
2.16018e+06
946345
586841
1.08591e+06
1.97401e+06
3.9932e+06
3.40726e+06
830676
691492
1.00329e+06
1.6798e+06
3.43371e+06
2.98673e+06
788890
644012
941933
1.56554e+06
3.00605e+06
2.44012e+06
870456
587297
616362
979024
2.27736e+06
4.17673e+06
2.10462e+06
1.13356e+06
720928
855486
3.54998e+06
3.56068e+06
1.73876e+06
1.04268e+06
665073
813501
3.03852e+06
3.0406e+06
1.58742e+06
964442
600617
888919
2.51501e+06
2.37062e+06
1.0115e+06
634478
1.16669e+06
2.14551e+06
4.31432e+06
3.60904e+06
887730
740008
1.07276e+06
1.7817e+06
3.62016e+06
3.11751e+06
845157
684996
996523
1.63539e+06
3.15026e+06
2.55458e+06
914184
617833
647252
1.02133e+06
2.36197e+06
4.19638e+06
2.1328e+06
1.16973e+06
740915
916183
3.50646e+06
3.43513e+06
1.73444e+06
1.0617e+06
645318
928204
2.72967e+06
2.54709e+06
1.02634e+06
669587
1.23488e+06
2.29695e+06
4.58302e+06
3.72156e+06
961288
771521
1.11718e+06
1.82698e+06
3.61506e+06
2.80356e+06
954997
668539
692987
1.05653e+06
2.5825e+06
4.58144e+06
2.26741e+06
1.24418e+06
780287
941799
3.75906e+06
3.68684e+06
1.85888e+06
1.13713e+06
679170
992824
2.87091e+06
2.65013e+06
1.10061e+06
703260
1.27503e+06
2.31247e+06
4.64836e+06
3.72083e+06
984399
793792
1.14095e+06
1.82642e+06
3.65019e+06
2.81617e+06
977934
674459
692677
1.05936e+06
2.54168e+06
4.18074e+06
2.15441e+06
1.20084e+06
711230
1.00401e+06
3.16658e+06
2.81973e+06
1.06526e+06
721584
1.26614e+06
2.29138e+06
4.65777e+06
3.39937e+06
1.05138e+06
733438
738757
1.11714e+06
2.96769e+06
4.81303e+06
2.37331e+06
1.30691e+06
752908
1.09524e+06
3.519e+06
3.11599e+06
1.1141e+06
760057
1.372e+06
2.56563e+06
5.09908e+06
3.65924e+06
1.13713e+06
778103
782912
1.18997e+06
3.18683e+06
5.09796e+06
2.52497e+06
1.38222e+06
785233
1.12471e+06
3.68012e+06
3.24556e+06
1.19733e+06
787934
1.41578e+06
2.59198e+06
5.14177e+06
3.60729e+06
1.1599e+06
784999
783656
1.17464e+06
3.15471e+06
4.98726e+06
2.4926e+06
1.3605e+06
759977
1.11287e+06
3.40641e+06
2.82275e+06
1.17992e+06
766113
797465
1.25072e+06
3.75038e+06
5.74374e+06
2.83121e+06
1.46138e+06
783741
1.19245e+06
3.73884e+06
3.0323e+06
1.21064e+06
779231
771143
1.2813e+06
3.58867e+06
4.17189e+06
1.58414e+06
823458
774965
1.46334e+06
4.58075e+06
4.99716e+06
1.86053e+06
848688
785881
1.65427e+06
5.51886e+06
7.16544e+06
3.67603e+06
1.72594e+06
820948
1.36108e+06
4.02464e+06
3.03178e+06
1.35764e+06
805886
795448
1.36928e+06
3.14536e+06
3.1589e+06
1.36486e+06
775015
753320
1.35547e+06
3.12752e+06
3.07585e+06
1.33453e+06
731810
712684
1.31783e+06
3.00596e+06
2.91703e+06
1.29662e+06
695272
680514
1.28117e+06
2.83082e+06
2.74455e+06
1.26789e+06
668390
658401
1.25652e+06
2.66009e+06
2.57964e+06
1.24702e+06
650657
644856
1.23869e+06
2.50409e+06
2.43412e+06
1.23119e+06
640444
637541
1.22413e+06
2.36954e+06
2.3103e+06
1.21697e+06
635195
633899
1.20977e+06
2.25591e+06
2.20614e+06
1.20185e+06
632418
631580
1.19357e+06
2.16079e+06
2.11961e+06
1.18464e+06
630628
630050
1.17524e+06
2.08234e+06
2.04871e+06
1.16508e+06
629114
628521
1.15452e+06
2.01847e+06
1.99135e+06
1.14315e+06
627342
626549
1.13157e+06
1.96712e+06
1.94557e+06
1.11914e+06
624991
623711
1.10663e+06
1.92647e+06
1.90958e+06
1.09347e+06
621800
620123
1.08039e+06
1.89471e+06
1.88166e+06
1.06664e+06
617728
615553
1.05304e+06
1.87023e+06
1.86026e+06
1.03901e+06
612785
610207
1.02531e+06
1.85153e+06
1.84399e+06
1.01118e+06
606967
603910
997487
1.83735e+06
1.83162e+06
983588
600304
596889
970281
1.82658e+06
1.82221e+06
956760
592904
589137
943914
1.81831e+06
1.8149e+06
931023
584909
580921
918918
1.81177e+06
1.80901e+06
906721
576475
572303
895349
1.80642e+06
1.80407e+06
883996
567766
563520
873528
1.8018e+06
1.79972e+06
862998
558917
554632
853348
1.79764e+06
1.7957e+06
843708
550061
545810
834961
1.79371e+06
1.79186e+06
826140
541284
537089
818158
1.78991e+06
1.78811e+06
810182
532672
528581
802975
1.78613e+06
1.78443e+06
795760
524262
520289
789180
1.78245e+06
1.78081e+06
782697
516097
512266
776765
1.7789e+06
1.77732e+06
770882
508196
504502
765511
1.77547e+06
1.77397e+06
760163
500560
497009
755301
1.77216e+06
1.77074e+06
750423
493191
489771
746001
1.76902e+06
1.76771e+06
741542
486084
482804
737531
1.76606e+06
1.76488e+06
733442
479245
476082
729772
1.76336e+06
1.76231e+06
726002
472658
469625
722657
1.76091e+06
1.76001e+06
719156
466326
463402
716055
1.75875e+06
1.75802e+06
712790
460228
457428
709951
1.75691e+06
1.75633e+06
706906
454364
451667
704238
1.75541e+06
1.75494e+06
701411
448748
446178
698988
1.75419e+06
1.75384e+06
696362
443393
440927
694119
1.75329e+06
1.75305e+06
691746
438287
435951
689732
1.75269e+06
1.75254e+06
687558
433454
431238
685712
1.75234e+06
1.75227e+06
683707
428885
426805
682038
1.75213e+06
1.75219e+06
680191
424582
422608
678628
1.75213e+06
1.75231e+06
676938
420527
418673
675521
1.7523e+06
1.75257e+06
673968
416715
414963
672654
1.75262e+06
1.753e+06
671224
413123
411480
670039
1.75311e+06
1.75358e+06
668728
409750
408197
667633
1.75375e+06
1.75432e+06
666427
406571
405117
665450
1.75456e+06
1.75519e+06
664349
403588
402214
663451
1.75553e+06
1.75624e+06
662440
400776
399490
661650
1.75666e+06
1.75742e+06
660730
398137
396920
660005
1.75793e+06
1.75877e+06
659162
395645
394507
658535
1.75936e+06
1.76024e+06
657769
393306
392227
657197
1.76092e+06
1.76185e+06
656495
391093
390085
656008
1.7626e+06
1.76357e+06
655373
389013
388057
654932
1.76438e+06
1.7654e+06
654349
387042
386152
653981
1.76625e+06
1.76732e+06
653459
385188
384327
653120
1.76821e+06
1.76932e+06
652651
383428
382620
652370
1.77024e+06
1.77137e+06
651954
381759
380974
651700
1.77232e+06
1.77348e+06
651331
380167
379423
651124
1.77444e+06
1.77562e+06
650798
378655
377945
650619
1.7766e+06
1.77779e+06
650329
377213
376542
650193
1.77878e+06
1.77996e+06
649941
375844
375204
649826
1.78097e+06
1.78216e+06
649609
374535
373941
649525
1.78316e+06
1.78435e+06
649350
373297
372715
649280
1.78535e+06
1.78654e+06
649138
372113
371570
649093
1.78753e+06
1.78871e+06
648990
370992
370455
648957
1.78969e+06
1.79086e+06
648883
369919
369410
648871
1.79183e+06
1.79299e+06
648832
368898
368410
648832
1.79395e+06
1.79509e+06
648824
367919
367462
648845
1.79604e+06
1.79715e+06
648853
366990
366557
648889
1.79809e+06
1.79919e+06
648912
366099
365705
648982
1.80011e+06
1.80119e+06
649016
365258
364869
649100
1.80209e+06
1.80314e+06
649148
364451
364098
649264
1.80402e+06
1.80505e+06
649321
363690
363339
649449
1.80592e+06
1.80693e+06
649518
362959
362639
649673
1.80776e+06
1.80875e+06
649751
362276
361964
649916
1.80957e+06
1.81053e+06
650004
361610
361330
650192
1.81133e+06
1.81227e+06
650287
360979
360733
650487
1.81305e+06
1.81396e+06
650589
360365
360141
650806
1.81472e+06
1.8156e+06
650919
359833
359578
651146
1.81634e+06
1.81721e+06
651266
359300
359063
651511
1.81792e+06
1.81876e+06
651637
358796
358574
651888
1.81946e+06
1.82027e+06
652019
358313
358119
652283
1.82095e+06
1.82174e+06
652423
357866
357662
652687
1.8224e+06
1.82317e+06
652833
357439
357249
653110
1.82381e+06
1.82456e+06
653263
357038
356857
653543
1.82518e+06
1.8259e+06
653696
356655
356489
653993
1.82651e+06
1.82721e+06
654146
356299
356141
654490
1.8278e+06
1.82847e+06
654524
355965
355807
655022
1.82905e+06
1.82971e+06
655131
355635
355515
655452
1.83027e+06
1.83091e+06
655493
355339
355255
655825
1.83142e+06
1.83205e+06
656009
355065
354968
656326
1.83255e+06
1.83316e+06
656504
354795
354728
656825
1.83365e+06
1.83425e+06
657005
354553
354476
657320
1.83473e+06
1.83531e+06
657498
354317
354274
657818
1.83577e+06
1.83634e+06
658001
354110
354047
658317
1.83679e+06
1.83733e+06
658498
353903
353884
658818
1.83777e+06
1.8383e+06
659006
353728
353678
659319
1.83873e+06
1.83924e+06
659505
353556
353547
659823
1.83965e+06
1.84015e+06
660015
353401
353362
660325
1.84055e+06
1.84104e+06
660515
353262
353259
660830
1.84142e+06
1.84189e+06
661025
353127
353097
661330
1.84227e+06
1.84273e+06
661525
353016
353015
661834
1.84309e+06
1.84353e+06
662033
352903
352878
662333
1.84389e+06
1.84432e+06
662530
352810
352801
662830
1.84466e+06
1.84508e+06
663030
352734
352721
663328
1.84542e+06
1.84582e+06
663521
352634
352640
663815
1.84615e+06
1.84654e+06
664015
352563
352547
664301
1.84686e+06
1.84724e+06
664498
352504
352498
664782
1.84755e+06
1.84791e+06
664981
352459
352450
665260
1.84821e+06
1.84857e+06
665454
352393
352384
665726
1.84886e+06
1.8492e+06
665925
352371
352344
666193
1.84948e+06
1.84981e+06
666384
352329
352311
666650
1.85008e+06
1.8504e+06
666841
352291
352291
667105
1.85066e+06
1.85097e+06
667288
352251
352264
667549
1.85122e+06
1.85152e+06
667736
352238
352234
667990
1.85176e+06
1.85205e+06
668172
352224
352236
668425
1.85228e+06
1.85256e+06
668608
352219
352216
668854
1.85279e+06
1.85306e+06
669034
352219
352218
669277
1.85327e+06
1.85353e+06
669457
352224
352224
669699
1.85374e+06
1.85399e+06
669869
352220
352249
670111
1.85419e+06
1.85443e+06
670282
352231
352254
670516
1.85462e+06
1.85486e+06
670685
352262
352266
670913
1.85504e+06
1.85527e+06
671084
352282
352287
671308
1.85545e+06
1.85567e+06
671471
352304
352311
671694
1.85584e+06
1.85605e+06
671855
352325
352353
672079
1.85621e+06
1.85642e+06
672230
352337
352379
672450
1.85657e+06
1.85677e+06
672605
352391
352418
672822
1.85692e+06
1.85711e+06
672966
352407
352453
673180
1.85725e+06
1.85743e+06
673328
352457
352485
673537
1.85757e+06
1.85774e+06
673679
352496
352543
673886
1.85788e+06
1.85805e+06
674029
352548
352579
674231
1.85817e+06
1.85834e+06
674367
352591
352643
674568
1.85846e+06
1.85861e+06
674704
352648
352683
674900
1.85873e+06
1.85888e+06
675030
352695
352752
675227
1.85899e+06
1.85914e+06
675357
352758
352795
675547
1.85924e+06
1.85938e+06
675671
352809
352870
675863
1.85948e+06
1.85962e+06
675986
352877
352917
676171
1.85972e+06
1.85985e+06
676290
352932
352997
676477
1.85994e+06
1.86006e+06
676595
353004
353047
676775
1.86015e+06
1.86027e+06
676889
353062
353131
677069
1.86035e+06
1.86047e+06
677184
353139
353184
677357
1.86055e+06
1.86067e+06
677469
353200
353271
677640
1.86074e+06
1.86085e+06
677756
353290
353314
677918
1.86092e+06
1.86103e+06
678029
353363
353395
678193
1.8611e+06
1.8612e+06
678301
353431
353484
678467
1.86126e+06
1.86136e+06
678564
353493
353576
678732
1.86142e+06
1.86152e+06
678828
353566
353650
678992
1.86158e+06
1.86167e+06
679086
353644
353725
679244
1.86173e+06
1.86182e+06
679345
353746
353800
679497
1.86187e+06
1.86196e+06
679589
353796
353881
679736
1.86201e+06
1.86209e+06
679839
353903
353930
679975
1.86215e+06
1.86222e+06
680078
353990
354016
680212
1.86227e+06
1.86235e+06
680315
354075
354100
680446
1.8624e+06
1.86247e+06
680545
354157
354183
680675
1.86252e+06
1.86259e+06
680773
354241
354266
680899
1.86263e+06
1.8627e+06
680993
354323
354349
681120
1.86274e+06
1.86281e+06
681213
354407
354432
681335
1.86285e+06
1.86291e+06
681425
354489
354515
681546
1.86295e+06
1.86301e+06
681636
354573
354599
681754
1.86305e+06
1.86311e+06
681840
354655
354681
681958
1.86315e+06
1.8632e+06
682044
354737
354769
682158
1.86324e+06
1.8633e+06
682239
354818
354847
682353
1.86333e+06
1.86338e+06
682435
354904
354936
682546
1.86341e+06
1.86346e+06
682623
354985
355013
682733
1.86349e+06
1.86354e+06
682811
355072
355098
682918
1.86357e+06
1.86362e+06
682991
355154
355180
683098
1.86365e+06
1.8637e+06
683172
355237
355262
683276
1.86372e+06
1.86377e+06
683344
355317
355343
683449
1.86379e+06
1.86384e+06
683516
355398
355423
683619
1.86386e+06
1.86392e+06
683680
355473
355508
683786
1.86393e+06
1.86398e+06
683845
355547
355599
683950
1.864e+06
1.86405e+06
684003
355614
355693
684112
1.86407e+06
1.86412e+06
684163
355701
355754
684265
1.86414e+06
1.86418e+06
684316
355769
355848
684420
1.8642e+06
1.86425e+06
684469
355856
355908
684568
1.86426e+06
1.86431e+06
684616
355923
356000
684718
1.86433e+06
1.86438e+06
684764
356007
356059
684859
1.86439e+06
1.86444e+06
684905
356072
356148
685001
1.86445e+06
1.86451e+06
685046
356165
356189
685136
1.86452e+06
1.86457e+06
685181
356236
356265
685272
1.86459e+06
1.86464e+06
685316
356301
356344
685404
1.86466e+06
1.86471e+06
685445
356358
356427
685534
1.86473e+06
1.86478e+06
685575
356450
356470
685672
1.86482e+06
1.86486e+06
685621
356545
356476
685903
1.86492e+06
1.86497e+06
685799
356589
356616
685889
1.865e+06
1.86506e+06
685926
356603
356672
686009
1.86509e+06
1.86517e+06
686047
356677
356718
686126
1.8652e+06
1.86528e+06
686164
356728
356792
686248
1.86532e+06
1.8654e+06
686285
356795
356837
686365
1.86545e+06
1.86553e+06
686403
356845
356908
686488
1.86558e+06
1.86566e+06
686526
356911
356954
686607
1.86571e+06
1.8658e+06
686648
356961
357030
686737
1.86585e+06
1.86593e+06
686780
357042
357069
686868
1.86598e+06
1.86605e+06
686913
357111
357134
687006
1.8661e+06
1.86617e+06
687052
357182
357204
687144
1.86621e+06
1.86628e+06
687189
357251
357273
687278
1.86633e+06
1.86638e+06
687324
357328
357317
687403
1.86645e+06
1.8665e+06
687441
357408
357389
687507
1.86664e+06
1.86824e+06
687507
357427
357355
686907
1.86528e+06
1.87078e+06
689038
357920
358094
689661
1.86818e+06
1.87297e+06
690368
358847
352404
680530
1.83477e+06
1.78276e+06
658720
339504
323495
631629
1.72173e+06
151756
75726.6
45970
34280
28236.9
20157.1
17221.5
16364.1
13694.9
11349.3
9780.44
8457.81
7304.5
6305.11
5430.42
4675.31
4021.69
3459.92
2977.89
2565.66
2214.04
1914.81
1660.63
1444.97
1262.05
1106.84
974.989
862.796
767.116
685.309
615.164
554.839
502.803
457.779
418.709
384.71
355.045
329.101
306.362
286.398
268.846
253.399
239.8
227.83
217.304
208.061
199.97
192.902
186.767
181.454
176.948
173.161
170.165
167.885
166.336
165.403
164.974
164.617
163.915
162.861
161.476
159.842
158.009
156.058
154.01
151.897
149.728
147.513
145.257
142.965
140.643
138.294
135.921
133.524
131.106
128.666
126.206
123.726
121.224
118.701
116.155
113.586
110.993
108.374
105.727
103.05
100.343
97.6005
94.8209
91.9987
89.1296
86.2076
83.2249
80.1726
76.7547
72.3882
66.7303
60.0026
52.691
45.2898
38.1901
31.6425
25.7815
20.6617
16.2875
12.627
9.62527
7.21186
5.30965
3.83985
2.72749
1.90461
1.30958
0.890448
0.603161
0.412069
0.288831
0.211797
0.165143
0.137608
0.121621
0.112349
0.106826
0.103346
0.100973
0.0992062
0.0977897
0.0965894
0.0955322
0.0945754
0.0936911
0.0928601
0.0920678
0.0913035
0.0905582
0.0898252
0.0890982
0.0883729
0.0876453
0.0869118
0.0861699
0.0854169
0.084651
0.0838703
0.0830734
0.0822591
0.0814265
0.0805747
0.0797037
0.0788126
0.0779014
0.0769703
0.0760195
0.0750493
0.0740602
0.0730532
0.0720292
0.070989
0.0699338
0.0688649
0.0677837
0.0666912
0.0655896
0.0644804
0.0633648
0.0622449
0.0611222
0.0599987
0.0588757
0.0577547
0.0566377
0.0555266
0.0544223
0.0533269
0.0522414
0.051167
0.0501053
0.0490573
0.0480242
0.0470065
0.0460054
0.0450219
0.0440564
0.0431097
0.0421821
0.0412744
0.0403865
0.0395187
0.0386715
0.037845
0.0370391
0.0362539
0.0354893
0.0347453
0.0340215
0.0333181
0.0326347
0.031971
0.0313268
0.0307018
0.0300956
0.0295079
0.0289383
0.0283865
0.027852
0.0273344
0.0268335
0.0263486
0.0258795
0.0254257
0.0249868
0.0245624
0.0241521
0.0237555
0.0233722
0.0230018
0.0226439
0.0222981
0.0219641
0.0216415
0.02133
0.0210291
0.0207386
0.0204581
0.0201873
0.0199258
0.0196735
0.0194299
0.0191949
0.018968
0.0187491
0.0185378
0.018334
0.0181373
0.0179476
0.0177646
0.0175881
0.0174179
0.0172537
0.0170953
0.0169426
0.0167954
0.0166535
0.0165167
0.0163848
0.0162577
0.0161352
0.0160172
0.0159035
0.0157939
0.0156883
0.0155867
0.0154888
0.0153945
0.0153038
0.0152165
0.0151326
0.0150518
0.0149743
0.0148998
0.0148283
0.0147599
0.0146942
0.0146315
0.0145715
0.0145143
0.0144597
0.0144078
0.0143584
0.0143116
0.0142672
0.0142252
0.0141856