/*--------------------------------*- C++ -*----------------------------------*\
| =========                 |                                                 |
| \\      /  F ield         | OpenFOAM: The Open Source CFD Toolbox           |
|  \\    /   O peration     | Version:  v2006                                 |
|   \\  /    A nd           | Website:  www.openfoam.com                      |
|    \\/     M anipulation  |                                                 |
\*---------------------------------------------------------------------------*/
FoamFile
{
    version     2.0;
    format      ascii;
    class       volScalarField;
    location    "0.064";
    object      omega;
}
// * * * * * * * * * * * * * * * * * * * * * * * * * * * * * * * * * * * * * //

dimensions      [0 0 -1 0 0 0 0];


internalField   nonuniform List<scalar> 
16277
(
0.00810638
0.00810643
0.00810522
0.0081048
0.00810359
0.00810359
0.00810286
0.00810127
0.00809762
0.00809141
0.00808285
0.00807266
0.00806153
0.00804988
0.00803787
0.00802546
0.00801256
0.00799908
0.00798496
0.00797015
0.00795464
0.00793844
0.00792157
0.00790402
0.00788583
0.00786698
0.00784751
0.00782741
0.00780669
0.00778537
0.00776347
0.00774099
0.00771795
0.00769437
0.00767028
0.00764568
0.00762059
0.00759505
0.00756907
0.00754268
0.00751589
0.00748875
0.00746126
0.00743346
0.00740538
0.00737705
0.00734849
0.00731973
0.00729081
0.00726175
0.0072326
0.00720337
0.0071741
0.00714484
0.0071156
0.00708643
0.00705735
0.0070284
0.00699963
0.00697108
0.00694277
0.00691478
0.00688719
0.00686017
0.00683406
0.00680969
0.00678897
0.00677662
0.0067851
0.00684361
0.00700284
0.00737721
0.00820694
0.0099918
0.0137343
0.0213653
0.0365723
0.0665393
0.125303
0.238517
0.453968
0.843152
1.40959
1.829
2.49799
2.99653
3.63689
6.62589
11.4692
14.4725
12.9721
34.2406
105.412
397.789
3406.77
18601.1
254898
251709
37848.5
8637.96
15117.7
52962.8
248574
245278
54893.1
17469.8
20705.9
58055.4
236456
232034
57495
21300.6
23279.4
58848.1
226110
223288
58184.9
23405.8
24489
58586.6
218920
216054
57190.3
24344
24967.3
57662.9
212519
210464
56434
24791.7
25247.6
56963.7
207750
206195
55926.7
25050.7
25438.4
56494.8
204001
202775
55590.6
25235.3
25590.3
56182.9
200921
199916
55356.6
25384.8
25720.4
55973
198291
197433
55192.8
25514.4
25837.5
55833.6
195972
195220
55088.3
25631.9
25945.5
55741.8
193877
193200
55020
25740
26045
55677.2
191943
191319
54970.9
25839.1
26137
55626.2
190128
189544
54930.3
25929.4
26221.4
55580.8
188404
187849
54892.5
26010.8
26296.6
55536.3
186750
186217
54853.9
26082.8
26362.8
55489.9
185150
184634
54812
26146
26420.6
55439.3
183594
183090
54764.6
26201.2
26470.9
55382.6
182071
181577
54710.5
26249.1
26514.5
55318.9
180576
180089
54649.2
26290.8
26552.2
55248
179102
178620
54580.4
26327
26584.7
55169.3
177644
177166
54503.4
26358.1
26612.2
55082
176197
175720
54417.6
26384.3
26635.1
54985.7
174755
174278
54322.5
26406.1
26653.6
54880
173315
172835
54217.9
26423.6
26667.9
54764.5
171871
171386
54103.2
26437
26678.1
54638.6
170419
169928
53977.9
26446.4
26684.2
54501.7
168955
168456
53841.3
26451.7
26686.2
54353.1
167474
166967
53692.8
26452.8
26683.8
54192.1
165975
165458
53531.6
26449.5
26676.7
54017.9
164453
163925
53356.7
26441.3
26664.5
53829.4
162907
162367
53167.3
26427.9
26646.7
53625.6
161334
160782
52960.6
26408.5
26622.5
53404.7
159733
159171
52731.7
26382.3
26591
53164.7
158106
157533
52485.2
26348.5
26551.3
52906.2
156453
155871
52218.1
26306.1
26502.4
52626.2
154777
154189
51927.8
26254
26442.8
52322.2
153082
152490
51611.8
26190.3
26370.6
51991.7
151375
150783
51267
26113.1
26283.6
51631.6
149664
149078
50889.9
26016.5
26178
51238.5
147961
147389
50476.8
25897.6
26051.4
50808.5
146282
145732
50024.4
25756.9
25901.6
50338.8
144646
144130
49529.1
25589.8
25724
49825.5
143077
142609
48987
25391.5
25513.9
49265.3
141604
141200
48395.3
25157.6
25267
48655.1
140257
139941
47759.7
24884.4
24979.7
47997.7
139085
138866
47101.7
24571.6
24652.2
47313.1
138140
138018
46412.5
24210.8
24278.2
46598.2
137441
137423
45701
23808
23865
45867.1
137044
137110
44988.2
23373.9
23424.1
45140.6
136901
137093
44299.2
22924.2
22971
44451.8
137044
137380
43654.8
22466.1
22512
43823.1
137433
137949
43083.4
22012.3
22064
43270.3
138106
138772
42619.4
21592.5
21656
42831.1
139007
139778
42265.9
21225
21304.1
42530
140070
140914
42005.1
20916.4
21012.7
42349.4
141247
142145
41864.4
20669.8
20783.3
42266.9
142507
143436
41833.9
20485.1
20616.1
42297
143810
144743
41912.9
20361.8
20510.2
42431.5
145116
146035
42089.8
20294.7
20461.6
42657.2
146395
147278
42353.8
20268.4
20463.7
42959.3
147616
148447
42686
20294.5
20518
43345.7
148755
149521
43074.1
20369.7
20635.2
43809.8
149795
150484
43533.8
20494.4
20785.7
44304.3
150717
151321
44020
20648.9
20958.4
44811.2
151511
152027
44515.8
20824.4
21147.9
45314.9
152173
152602
45006.4
21015.1
21347.3
45801.4
152708
153056
45478.6
21213.9
21549.6
46259.7
153124
153401
45922.2
21414.1
21748.9
46682.1
153436
153651
46330.3
21610.4
21941.2
47065.2
153657
153812
46699.8
21799
22123.6
47408.6
153799
153905
47030.8
21977.3
22295
47715
153875
153940
47326
22144.8
22454.7
47986.4
153895
153936
47587.7
22300.3
22601.6
48226.5
153867
153894
47817.9
22443.1
22734.4
48441.1
153801
153824
48016.9
22571.1
22852.1
48622.6
153715
153733
48184.5
22684.7
22957
48776.4
153611
153626
48327.4
22786
23050.6
48908.5
153493
153505
48451.2
22876.6
23135.4
49023.1
153363
153371
48558.9
22957.8
23212.7
49122.7
153223
153230
48652.9
23030.4
23281.5
49210.7
153073
153080
48736.5
23095.2
23342.1
49287.3
152920
152925
48808.1
23151.4
23394.9
49352.8
152794
152741
48864
23197.9
23452.6
49409.3
152678
152595
48951
23228.8
23469.4
49573.1
152640
151976
48746.6
23131.3
23265.1
48757.5
151436
149541
48558.4
22988.5
21916.9
46327
147107
138325
48501.9
22452.2
15524.2
27062.2
124065
139427
60775
28135.7
13626.5
7036.25
4374.17
3429.54
3055.11
2533.26
2312.59
2154.66
2089.07
2072.34
2105.93
2203.62
2337.78
2582.15
2861.19
3453.07
3782.16
4729.92
5754.51
7585.5
11739.9
22963.4
55810.6
128646
405471
435204
139336
61229.5
64576.3
147078
461122
483294
153553
68106.1
68325
155023
489298
495172
156276
69562.1
69771.9
157904
498921
499527
158267
69981.1
69915.6
158276
499324
499688
158315
69929.4
69930
158349
499538
499641
158343
69909.3
69894
158340
499759
499631
158313
69850.5
69809.2
158295
500324
500182
158276
69792.6
69771.2
158284
500316
500174
158273
69738.9
69723.6
158283
500596
501048
158218
69689.8
69674.1
158247
500616
501065
158171
69632.5
69594.4
158207
501226
501660
158086
69552
69541.7
158153
501239
501676
158088
69516.8
69503
158148
501826
502270
158027
69454.4
69433.3
158077
501867
502325
157981
69392.3
69375.9
158039
502505
502967
157928
69334.4
69317.3
157982
502564
503022
157896
69285.4
69273.7
157961
503201
503649
157854
69247.4
69236.9
157914
503539
503430
157870
69195.6
69177
157867
503886
504356
157794
69149.4
69141
157830
504233
504143
157805
69115.7
69098.1
157801
504596
505083
157722
69058.3
69042.7
157757
504988
504897
157739
69026.1
69023
157768
505386
505886
157706
69002.5
68996.6
157755
505785
505717
157747
68983.5
68976.9
157792
506169
506648
157751
68965.9
68967.4
157836
506545
506441
157837
68965.7
68981.7
157938
506899
507383
157932
68984.5
68990.9
158029
507256
507177
158050
68988.4
68993.9
158160
507640
508116
158160
68988.5
68993.4
158298
508000
507919
158371
68992.6
69012.2
158535
508371
508856
158618
69022
69056.2
158832
508446
508899
158957
69070.3
69107.4
159224
509040
509461
159371
69124.4
69175.7
159687
508992
509379
159888
69195
69209.8
160218
509483
509845
160411
69207.5
69231.1
160782
509644
509441
161095
69248.6
69281.7
161525
509806
510198
161838
69284.8
69277
162275
510031
509880
162586
69207.9
69156.4
163012
510304
510721
163387
69135.6
69150.3
163962
510292
510768
164355
69111.7
68992.5
164761
511027
511667
164929
68785.6
68662
165358
511778
512012
165740
68565.5
68516.7
166120
512929
513746
166210
68274.9
67921.9
166148
514712
515947
165990
67422.6
66963.3
165770
517390
519136
165466
66503.1
66064
164944
521171
523559
163847
65298.2
64132.1
160303
520998
518407
156635
63258.1
62703.7
154524
524837
522193
155454
62227.5
61177.9
146826
514454
511445
148033
61009.5
60428.1
143469
503383
496508
141103
60040.7
60108.4
138224
484848
470101
133404
59864.9
60276.3
131106
459671
452855
130091
60897.6
61772.2
130279
434942
407009
120514
62371.9
63737.2
118772
596875
979966
342446
140266
69330.4
172698
729138
657847
187191
74455.7
71654.9
176835
650263
643727
182068
73851.8
70667
169990
624408
602084
171367
71626.9
68548.1
155994
574827
548664
158323
70207.3
68341.8
144739
520429
489753
144996
69285.8
68285.5
133306
446849
638839
125118
69163.3
144697
350055
1.00953e+06
718350
165284
71464.2
74582.5
177022
605282
547313
146191
66849.8
67049.9
146892
513377
479085
135363
64999.3
65600.5
133190
447025
412775
124942
65157.7
68155.1
124792
596673
935339
349831
141746
72361.1
156161
684203
594252
167832
75421
72148.4
149926
557085
518101
154407
74480.8
73554.3
140445
468523
668417
131297
75266.6
152219
348434
1.0179e+06
704583
172886
78546.9
80118.9
173464
578251
501689
146060
71448.2
71629.4
136207
451663
656232
133400
74976.1
151984
350530
1.00372e+06
703517
162722
80283.9
83187.6
175596
581483
512906
150954
77242.2
79370.8
142693
721539
1.04933e+06
364689
158837
80707
168999
704978
551772
174439
80404.8
69017.7
137745
486356
664885
139439
74114.4
148967
343108
902546
623108
154072
74930.4
78534.7
158504
787561
981515
380882
155847
66566.4
150904
656447
792448
146298
65295.7
128129
288389
833995
1.01283e+06
163629
64912.8
91550.3
198671
809448
827180
160510
58689.3
71129.9
191384
993481
1.02879e+06
196842
73013.5
65747.1
175160
915617
800495
104075
39069.2
153622
341380
806636
935798
160995
81534.2
186073
374630
846858
782429
189930
99528.1
105876
214602
668788
1.12876e+06
465375
224101
126419
167681
962701
829595
363303
189046
102880
174980
697423
576517
185830
104126
192428
393154
917011
717282
171406
107220
107634
181628
572300
926428
392052
193251
106971
168525
712804
569068
176026
106403
187650
381316
910934
698708
164375
104528
102077
169934
566905
911156
377135
178016
101117
160908
686821
549618
169946
101715
182621
372685
884991
657943
158867
101870
102103
167124
533544
874449
367522
178831
99286.1
155584
646158
519447
162187
98568.2
169240
346016
828665
602271
145116
94695.1
96205.5
163296
462799
636898
186233
101490
186189
396720
1.05728e+06
753415
164611
103471
101823
170697
601260
982480
409960
187730
103375
166801
714045
577577
175128
102379
181608
371371
975539
712396
159198
103043
102102
166690
577964
956577
396444
183401
101726
162254
693698
566516
171398
101737
185254
399909
958944
698829
165718
102926
101699
169320
562596
958158
376981
181138
101656
157875
696683
563860
168313
101897
181124
375397
975586
724163
159356
102518
102487
170458
592833
1.04674e+06
401596
190383
111898
136291
819471
734199
317555
164893
92635.4
144521
558589
476616
155477
93948.4
168646
347478
824799
614163
147982
96101.5
97313.6
158192
501209
842722
351286
172273
96748.8
149202
621934
514015
154609
94955.4
169552
359748
876604
652325
151503
96620.2
97057.8
161682
531986
902471
372693
176080
99720.1
158159
678878
565889
168709
100733
190831
401293
1.02305e+06
812319
135392
114429
172000
323228
741558
578266
155182
97041.7
99144.3
165886
496347
868357
366682
179954
102149
158701
662345
550432
166730
102345
189927
395253
973769
785480
136985
113103
169205
320605
720553
558129
150547
95632.5
97919.8
163544
486351
859165
364777
177196
101580
157989
652401
550440
171471
102583
193154
402737
993930
798263
140881
115562
173681
328893
736078
578279
156280
98878.9
100814
169854
506228
893795
375948
183822
105521
164489
669904
569429
179588
106611
208940
449900
1.01276e+06
818043
165000
121685
181241
348069
759406
592867
158478
103384
107336
178712
525582
986754
413877
202740
121213
147377
809255
761837
336732
181002
103205
164407
598802
521059
179598
105293
200364
423739
947953
786743
160025
120649
179000
335925
743046
591021
160710
103937
108496
181445
519471
961919
434846
208475
124170
160741
810103
762114
345024
183871
106248
165485
598160
527972
185439
109897
207701
418504
972489
804316
152713
125142
184537
338619
763983
614918
169080
107557
112007
189633
549894
1.00663e+06
455420
218987
131627
168480
854219
835811
375695
197705
119500
158655
715238
684709
329024
177603
106355
167283
563034
514032
189154
110918
210284
432530
967144
810257
161414
128137
189034
345033
767845
618174
173333
111355
115775
196372
556275
1.02827e+06
465156
225189
136230
175928
873066
847045
383093
203244
123366
163957
731347
716103
334293
182009
109476
172749
587537
528957
193042
114002
216517
438376
995556
847529
158667
133663
196884
354612
817543
714723
158478
122084
181660
332261
701867
583661
174954
109955
115557
199384
531250
985992
448559
219779
135536
168594
852321
836086
370802
201434
124744
161432
722219
707515
337183
184334
111528
176463
581113
529166
198918
116967
220624
442557
987829
837584
165517
136385
200773
361798
815906
717647
162302
125497
185998
340493
716112
601059
180445
113274
119210
204497
554197
1.05414e+06
456545
227501
142763
164866
900935
880727
377895
210795
131272
167268
757465
750693
356787
195354
118576
187498
616583
560372
210477
123993
232809
464136
1.05065e+06
894087
169676
145421
214356
388545
886291
773081
173899
134429
200873
365743
778214
706205
169608
129034
190950
342098
704777
587625
183984
117665
125044
210996
546374
1.03027e+06
478486
237423
148207
186052
907531
903455
405123
220253
138865
179794
790049
798912
375754
205468
132742
174828
715745
715099
352019
195444
121085
189299
603843
556906
212675
127408
238165
471060
1.04997e+06
908663
175474
151145
220561
393244
898731
781845
179816
139391
206626
372853
788754
708156
174597
133960
196837
352704
711636
602629
191092
122310
129689
216398
559649
1.06391e+06
479739
242373
153255
179323
925175
919556
401464
224258
143538
183252
814954
832275
391755
214082
139560
183365
746975
745683
367717
204277
127375
199038
624035
580388
225963
134254
253410
499804
1.07322e+06
927534
200873
159588
234335
423382
925883
813960
187174
148050
219528
396566
837369
775094
189194
143468
211638
381419
795213
719283
182622
139969
205078
361031
729395
627533
200967
128747
136384
228105
588462
1.13252e+06
507944
255023
161882
188145
974281
964167
424592
237203
152825
194997
837819
855355
408232
225402
148697
193971
782552
803484
389558
217885
144265
188887
733254
744322
370048
209357
131578
203855
628890
581956
228179
138509
256003
498853
1.08569e+06
929269
191722
164177
240810
424103
936381
834289
196081
153935
227413
407576
852120
772739
194858
149726
220284
391594
798841
734548
191451
146578
212475
370486
743080
632871
207627
134748
142560
235906
596283
1.1266e+06
514197
262485
168282
198305
969497
975854
432311
244310
158972
201348
871017
892482
421510
234443
155714
202298
809209
831552
403815
227569
151591
197048
744992
756731
382224
219727
139627
212398
639254
598232
239750
146600
267895
519530
1.12328e+06
968894
203207
171577
250492
439417
977619
862889
204054
161723
236912
420752
881552
803913
204301
157307
230276
406233
833133
758457
200065
154262
223937
389879
775629
662223
219014
142670
150776
249438
626157
1.19264e+06
542877
277819
178490
207805
1.01576e+06
1.0231e+06
458453
259951
169437
215185
898383
916430
440605
248030
165575
214066
837973
871554
424156
241410
162572
209854
796671
830043
410674
235601
158383
204927
758573
772199
391717
227175
144853
219934
645909
608314
248295
152266
277440
532074
1.12464e+06
966946
217284
178838
259731
452750
974805
856616
212454
168419
245628
429943
881701
798761
211400
163969
238239
415783
830865
758575
208773
159942
229762
392799
770346
652993
222660
147294
155973
253242
621064
1.15823e+06
543271
284891
183725
220039
993072
1.00152e+06
463011
265770
174477
219174
893863
922880
446521
253878
170946
220216
829970
863508
429856
247342
167188
216230
785876
803408
409101
239595
153513
231802
670330
632632
260779
161268
292639
557974
1.16507e+06
1.00116e+06
231844
189199
272997
472855
1.00412e+06
880155
223937
177942
257494
447682
907090
825770
222330
172839
249545
430454
859504
775304
218873
168227
240342
408740
796013
672857
232692
154937
163974
264957
643058
1.18835e+06
565206
296993
192410
231628
1.02689e+06
1.04438e+06
486048
279066
183596
231485
913449
943075
466180
266250
179740
232170
850666
884525
446182
258985
175447
227366
799967
819479
422398
249908
161028
240355
682738
650919
270029
168899
300678
565198
1.17837e+06
1.00754e+06
238015
195640
281339
482590
1.02516e+06
895076
229246
184438
266449
457348
927898
837324
229613
178864
258391
440610
861691
723553
251654
165353
174870
284522
692336
1.27122e+06
604924
319336
206512
249668
1.0826e+06
1.09273e+06
507327
295444
194641
239126
949696
983708
484248
280795
188160
243354
865951
884545
458051
269733
172690
259372
738391
703691
290866
180896
325506
614716
1.2643e+06
1.0831e+06
260636
211150
303755
519538
1.10165e+06
950823
248584
198285
286367
490999
985409
880183
247600
191782
276872
470035
913795
765648
267944
177151
186775
303161
730611
1.33743e+06
640541
337893
218519
264182
1.13342e+06
1.14302e+06
532552
311720
205742
251227
979726
1.01866e+06
504492
295378
198167
257160
900054
925421
479269
283132
181435
271894
770777
739257
302844
189872
339588
631039
1.32688e+06
1.11414e+06
266351
220311
316548
537858
1.13461e+06
977872
257471
207004
297667
504721
1.01567e+06
893952
258208
199619
286710
482315
928957
780217
276693
183924
193377
311062
750623
1.34059e+06
649248
347165
225521
276348
1.12656e+06
1.14888e+06
545262
322006
210733
265613
975791
994591
504639
300408
191211
285872
813693
779008
314965
199690
361198
676949
1.39341e+06
1.15455e+06
285183
232146
331488
559232
1.17068e+06
1.00398e+06
269665
216645
310458
522701
1.0466e+06
912850
268675
207372
296136
496780
949669
785295
283536
189473
199995
318093
754836
1.33205e+06
659762
355739
231271
288120
1.12824e+06
1.15267e+06
557008
330230
216387
275350
978915
1.00905e+06
516366
308173
195937
292104
827180
788642
324767
204499
363393
670965
1.35877e+06
1.13604e+06
294859
235862
337293
565511
1.16745e+06
985366
281104
219169
311816
519449
1.01113e+06
822896
294805
198136
208140
330112
789552
1.372e+06
684720
369054
237547
302973
1.1384e+06
1.14358e+06
568390
338749
210006
307781
904537
858997
341151
217709
387169
721829
1.49838e+06
1.23127e+06
306158
249409
361799
614971
1.2606e+06
1.05824e+06
304997
233746
335392
562608
1.08371e+06
882480
318120
211805
221080
355178
848119
1.46196e+06
725031
391861
251983
322603
1.20016e+06
1.20633e+06
594510
357449
220520
320118
943827
894791
352974
228002
401749
745160
1.52359e+06
1.24665e+06
325908
258039
370372
618046
1.26609e+06
1.00216e+06
338187
227629
235456
376671
949861
1.6237e+06
799563
425721
269597
346353
1.29588e+06
1.29901e+06
646882
386254
234943
344673
1.01094e+06
953178
379432
242423
429216
796011
1.61837e+06
1.31242e+06
348052
273313
391750
650783
1.32312e+06
1.04221e+06
351393
239366
247528
389288
988850
1.69056e+06
827789
441933
279940
342020
1.35389e+06
1.37136e+06
681522
405875
244742
367717
1.05463e+06
991279
400506
252301
446895
824994
1.65692e+06
1.32936e+06
367191
283388
404426
666779
1.33749e+06
1.04279e+06
359766
245691
253569
396512
989612
1.6629e+06
827743
446409
282778
365718
1.33333e+06
1.34042e+06
666159
402536
242494
355012
1.02529e+06
965428
379072
248398
434009
798587
1.57333e+06
1.17752e+06
378483
261195
266395
408293
1.08532e+06
1.7639e+06
868808
469199
291255
382152
1.39153e+06
1.39449e+06
694437
417090
250188
367261
1.06577e+06
1.00556e+06
402511
258185
445579
814704
1.6203e+06
1.21884e+06
390519
266510
268846
406550
1.11668e+06
1.78812e+06
884389
471119
277438
412604
1.31205e+06
1.18889e+06
438078
279918
501915
940150
1.9008e+06
1.46934e+06
408765
308465
443582
734991
1.46304e+06
1.10024e+06
383024
260191
267946
416021
1.03005e+06
1.63612e+06
830796
458778
270037
397452
1.21579e+06
1.11153e+06
408738
272354
472214
871289
1.75902e+06
1.27309e+06
408795
276028
279226
433088
1.14893e+06
1.77207e+06
885042
483297
278658
413173
1.27995e+06
1.15512e+06
434952
281086
482110
882513
1.76866e+06
1.28776e+06
413163
280015
283684
437055
1.17436e+06
1.82306e+06
898963
488387
281068
416234
1.30626e+06
1.11949e+06
453204
286481
299539
512223
1.47061e+06
2.19867e+06
1.06352e+06
544290
304857
471454
1.50705e+06
1.33363e+06
486148
302891
524301
978494
1.99111e+06
1.38601e+06
446941
295206
295640
458273
1.18475e+06
1.5406e+06
526614
308642
570109
1.11928e+06
2.26588e+06
1.50841e+06
485113
308908
311956
506470
1.26804e+06
1.63684e+06
566700
325959
590689
1.15115e+06
2.39837e+06
1.5935e+06
494452
316400
317749
513292
1.351e+06
1.69423e+06
578835
324145
589926
1.16362e+06
2.40953e+06
1.55144e+06
497584
311948
303629
490125
1.27868e+06
1.53579e+06
607412
332435
328304
554221
1.93481e+06
2.73622e+06
1.36726e+06
650957
331657
553027
1.71458e+06
1.38367e+06
554296
327996
336883
617576
1.57715e+06
1.78128e+06
588599
320515
344730
724174
1.94229e+06
2.14584e+06
729518
329401
641519
1.35256e+06
2.76235e+06
1.62528e+06
523656
312272
304961
518569
1.28343e+06
1.38568e+06
563901
305255
298542
560545
1.46011e+06
1.51714e+06
572429
293160
290257
598996
1.53115e+06
1.51541e+06
607410
288398
285227
612845
1.49415e+06
1.45947e+06
611717
283450
280632
607212
1.42358e+06
1.3859e+06
598422
278453
276104
591601
1.34836e+06
1.31207e+06
586793
274930
273916
583664
1.27808e+06
1.24659e+06
581945
273947
274102
581102
1.21765e+06
1.19118e+06
580800
274945
275885
580674
1.167e+06
1.1451e+06
580502
277507
278946
580127
1.12525e+06
1.10745e+06
579491
280772
282207
578296
1.09146e+06
1.0772e+06
576704
283743
284834
574570
1.06446e+06
1.05319e+06
572114
285905
286517
569087
1.0432e+06
1.03448e+06
565778
286993
286923
561917
1.02682e+06
1.0202e+06
557915
286739
286108
553454
1.01442e+06
1.00949e+06
548979
285377
283995
544068
1.00521e+06
1.00161e+06
539188
282852
281109
533911
998484
995873
528605
280030
278358
523049
993618
991774
517587
277328
275703
511939
990189
988923
506477
274694
273098
500872
987831
986969
495507
272092
270493
490033
986225
985636
484856
269462
267844
479611
985109
984730
474694
266782
265138
469740
984354
984072
465122
264041
262379
460505
983836
983638
456217
261265
259594
451940
983482
983322
447990
258475
256807
444046
983197
983027
440433
255694
254050
436819
982894
982689
433530
252948
251323
430234
982532
982271
427263
250248
248661
424271
982080
981768
421589
247608
246069
418881
981545
981179
416475
245047
243568
414028
980918
980517
411864
242573
241155
409654
980228
979796
407721
240191
238824
405730
979474
979026
403995
237871
236541
402194
978681
978221
400645
235620
234333
399014
977855
977394
397622
233442
232201
396141
977023
976562
394903
231348
230153
393565
976189
975734
392448
229336
228190
391230
975370
974913
390229
227417
226320
389118
974550
974099
388209
225585
224536
387188
973746
973303
386374
223844
222842
385437
972956
972521
384694
222189
221231
383825
972187
971765
383166
220617
219712
382368
971440
971028
381761
219128
218265
381019
970721
970328
380480
217722
216902
379798
970040
969665
379303
216391
215612
378674
969401
969052
378223
215132
214395
377648
968814
968486
377237
213947
213247
376708
968276
967973
376325
212826
212166
375843
967793
967515
375488
211771
211146
375044
967366
967116
374713
210774
210184
374302
966996
966776
373999
209836
209278
373614
966681
966499
373335
208951
208424
372975
966425
966280
372717
208118
207617
372376
966228
966122
372135
207332
206857
371813
966089
966019
371588
206591
206138
371282
966006
965978
371071
205890
205459
370783
965982
965980
370584
205228
204815
370309
966008
966024
370121
204599
204206
369863
966083
966116
369685
204005
203628
369441
966205
966254
369273
203440
203081
369044
966369
966434
368885
202906
202561
368668
966568
966650
368517
202397
202066
368315
966802
966899
368173
201915
201596
367982
967067
967176
367846
201456
201148
367668
967357
967477
367540
201018
200721
367371
967674
967808
367250
200600
200314
367094
968016
968159
366980
200202
199926
366834
968377
968529
366726
199820
199556
366593
968756
968919
366490
199456
199203
366367
969155
969325
366268
199108
198864
366156
969567
969743
366062
198775
198540
365959
969991
970176
365869
198455
198229
365777
970430
970623
365692
198148
197930
365608
970882
971079
365529
197855
197644
365454
971341
971542
365379
197573
197369
365311
971807
972014
365241
197302
197105
365182
972281
972490
365118
197041
196851
365064
972759
972968
365007
196791
196608
364959
973239
973450
364907
196551
196373
364863
973723
973934
364817
196319
196147
364780
974206
974416
364739
196097
195931
364708
974686
974896
364671
195883
195723
364647
975166
975376
364612
195678
195522
364592
975646
975855
364562
195480
195328
364545
976124
976332
364519
195288
195140
364504
976602
976809
364483
195103
194958
364471
977080
977286
364454
194923
194782
364443
977559
977766
364431
194749
194612
364423
978040
978247
364414
194581
194446
364407
978523
978731
364403
194417
194285
364399
979009
979218
364397
194257
194128
364397
979499
979709
364400
194102
193976
364403
979992
980201
364411
193953
193830
364417
980484
980691
364432
193809
193690
364442
980973
981175
364463
193672
193556
364476
981455
981650
364501
193540
193451
364524
981927
982111
364550
193388
193314
364570
982018
982577
364607
193301
193193
364627
983220
983009
364669
193201
193062
364696
983304
983435
364864
193089
192920
364492
983327
983260
364737
192880
192536
363952
982873
985040
365409
193115
193330
366399
988898
998165
371120
195201
196112
372096
993401
981199
361230
191013
188847
356484
963700
105129
57905.3
31271.4
19289.7
17998.1
12113.7
8886.29
7355.78
6960.11
5245.97
3817.44
2988.7
2263.55
1648.94
1168.03
815.106
573.653
411.574
303.357
229.998
179.256
143.363
117.44
98.3566
84.1046
73.3274
65.1977
59.059
54.614
51.4835
49.4718
48.3075
47.7824
47.2654
46.3373
45.0632
43.528
41.8426
40.0485
38.2113
36.323
34.3938
32.4046
30.3401
28.1713
25.4112
21.3989
16.3584
11.4282
7.47787
4.67477
2.82343
1.66654
0.986502
0.622137
0.446555
0.367803
0.334598
0.320927
0.314974
0.312013
0.30969
0.307536
0.305485
0.303495
0.301528
0.299554
0.29754
0.29546
0.293286
0.29099
0.288548
0.285933
0.28312
0.280086
0.276807
0.273263
0.269436
0.265312
0.260881
0.256133
0.251073
0.245702
0.240032
0.234083
0.227875
0.221438
0.214802
0.208003
0.20108
0.194071
0.187014
0.179949
0.172912
0.165937
0.159056
0.152295
0.14568
0.139232
0.132969
0.126901
0.121044
0.115402
0.109981
0.104783
0.0998092
0.0950574
0.090527
0.0862103
0.082105
0.0782036
0.0744998
0.0709864
0.0676559
0.0645008
0.0615133
0.0586856
0.0560101
0.0534793
0.0510857
0.048822
0.0466821
0.0446584
0.0427453
0.0409359
0.0392252
0.0376071
0.0360768
0.0346291
0.0332589
0.0319625
0.030735
0.0295729
0.0284721
0.0274293
0.0264413
0.0255045
0.0246164
0.0237742
0.0229753
0.022217
0.0214973
0.0208138
0.0201647
0.019548
0.0189619
0.0184048
0.017875
0.017371
0.0168916
0.0164354
0.0160011
0.0155877
0.0151939
0.0148189
0.0144616
0.0141211
0.0137965
0.0134871
0.0131922
0.012911
0.0126429
0.0123871
0.0121431
0.0119104
0.0116885
0.0114767
0.0112747
0.0110821
0.0108983
0.0107231
0.0105559
0.0103966
0.0102448
0.0101001
0.00996219
0.00983091
0.00970594
0.00958704
0.00947398
0.00936655
0.00926452
0.00916772
0.00907596
0.00898906
0.00890688
0.00882926
0.00875606
0.00868715
0.00862242
0.00856174
0.00850504
0.0084522
0.00840316
0.00835785
0.00831621
0.0082782
0.00824383
0.00821314
0.00818623
0.00816325
0.00814442
0.00812984
0.0081199
0.00811405
0.0081114
0.00810955
0.00810807
0.00810808
0.00810794
0.00810806
0.00810882
0.00811045
0.00811298
0.00811566
0.00811712
0.00811642
0.00811358
0.00810909
0.00810344
0.00809695
0.00808973
0.00808182
0.00807317
0.00806375
0.00805352
0.00804246
0.00803057
0.00801785
0.00800431
0.00798998
0.00797485
0.00795895
0.00794228
0.00792485
0.00790669
0.0078878
0.0078682
0.00784791
0.00782693
0.0078053
0.00778302
0.00776011
0.0077366
0.00771251
0.00768785
0.00766265
0.00763693
0.0076107
0.00758401
0.00755686
0.00752928
0.00750131
0.00747297
0.00744428
0.00741527
0.00738598
0.00735643
0.00732666
0.00729669
0.00726658
0.00723635
0.00720606
0.00717578
0.00714567
0.00711608
0.00708773
0.00706229
0.00704365
0.00704039
0.00707207
0.00718172
0.00746276
0.00811329
0.00954274
0.0126138
0.0190727
0.0323346
0.0588911
0.110754
0.209722
0.394437
0.733097
1.34737
2.45584
4.43427
7.81235
12.9529
19.3052
25.4083
30.6253
37.2002
54.649
111.235
353.23
1710.35
5117.12
6290.99
6386.72
7291.34
7251
7981.91
7894.47
8501.64
8379.85
8920.39
8774.98
9266.52
9104.26
9558.22
9383.58
9807.89
9623.85
10024.3
9832.77
10213.9
10016.3
10381.3
10178.7
10529.7
10322.8
10661.4
10451
10779
10565.7
10884.6
10669
10980.1
10762.7
11067.2
10848.5
11147.5
10927.6
11221.8
11001.3
11291.2
11070.4
11356.6
11135.5
11418.4
11197.2
11477.1
11255.9
11533.2
11312.1
11587.1
11366
11638.8
11417.9
11688.8
11467.5
11737.1
11515
11782.9
11560.2
11826.5
11603.3
11868
11644.3
11907.3
11683.1
11944.1
11719.3
11978.1
11752.4
12008.6
11781.7
12034.6
11806
12054.9
11824
12067.9
11833.9
12071.1
11833
12062.4
11819
12038.8
11788.6
11996.8
11738.4
11932.8
11664.8
11843.3
11563.2
11725.1
11426
11577
11264.9
11404.9
11081.2
11210.9
10879.1
10999.3
10661.3
10775.1
10437
10548.1
10217.5
10328.1
10009.4
10120.7
9816.34
9929.58
9641.17
9757.36
9486.01
9605.95
9352.15
9476.43
9239.96
9368.94
9148.91
9282.75
9073.34
9215.5
9015.76
9168.45
8978.4
9142.84
8961.61
9137.44
8963.44
9149.51
8980.97
9175.82
9011.02
9213.19
9050.62
9259.18
9097.17
9311.87
9148.5
9366.47
9201.44
9421.48
9254.61
9475.61
9306.81
9527.99
9357.13
9578.05
9405.2
9625.71
9450.71
9671.29
9493.69
9713.84
9533.74
9753.11
9570.52
9789.17
9604.06
9822.12
9635
9851.89
9662.43
9878.55
9684.13
9911.48
9702.42
9946.03
9708.14
9956.44
9552.71
9876.59
8916.92
8756.39
7016.04
4674.87
5045.28
5504.24
3490.23
5966.87
5553.6
3508.21
6016.08
5557.15
3541.19
6029.2
5568.54
3536.56
6023.51
5562.37
3532
6009.35
5551.22
3522.9
5995.85
5538.54
3512.4
5981.17
5524.33
3501.54
5964.88
5508.88
3490.36
5947.48
5492.62