/*--------------------------------*- C++ -*----------------------------------*\
| =========                 |                                                 |
| \\      /  F ield         | OpenFOAM: The Open Source CFD Toolbox           |
|  \\    /   O peration     | Version:  v2006                                 |
|   \\  /    A nd           | Website:  www.openfoam.com                      |
|    \\/     M anipulation  |                                                 |
\*---------------------------------------------------------------------------*/
FoamFile
{
    version     2.0;
    format      ascii;
    class       volScalarField;
    location    "0.044";
    object      isentropic(p);
}
// * * * * * * * * * * * * * * * * * * * * * * * * * * * * * * * * * * * * * //

dimensions      [1 -1 -2 0 0 0 0];


internalField   nonuniform List<scalar> 
9148
(
150025
150028
150026
150027
150027
150030
150033
150034
150033
150031
150030
150029
150028
150027
150027
150026
150026
150025
150025
150024
150024
150023
150023
150022
150022
150021
150021
150020
150020
150019
150019
150018
150018
150017
150017
150016
150016
150016
150015
150015
150014
150014
150013
150013
150012
150012
150012
150011
150011
150010
150010
150010
150009
150009
150008
150008
150007
150006
150004
150002
150002
150005
150009
150012
150010
150011
150013
150015
150023
150033
150029
149961
149893
150019
150039
150036
150005
149833
149774
149988
150028
150019
149970
149723
149675
149950
150009
149999
149932
149634
149596
149914
149989
149980
149898
149562
149532
149882
149970
149961
149867
149504
149479
149852
149952
149943
149837
149456
149435
149824
149934
149925
149810
149415
149397
149798
149917
149908
149785
149380
149365
149774
149900
149892
149762
149350
149337
149752
149885
149877
149741
149325
149313
149731
149870
149863
149722
149303
149293
149713
149857
149849
149704
149284
149275
149696
149844
149837
149688
149267
149260
149680
149831
149825
149672
149253
149247
149665
149819
149813
149658
149241
149236
149651
149808
149802
149644
149231
149227
149638
149797
149791
149631
149223
149219
149626
149786
149780
149620
149216
149214
149614
149776
149771
149609
149212
149211
149605
149767
149762
149600
149210
149209
149596
149758
149754
149592
149209
149210
149588
149751
149746
149585
149211
149212
149582
149743
149739
149578
149214
149216
149575
149736
149732
149572
149218
149221
149569
149728
149724
149566
149223
149226
149563
149720
149716
149559
149229
149233
149557
149712
149708
149554
149236
149241
149551
149704
149700
149548
149245
149251
149547
149697
149693
149545
149257
149264
149543
149690
149687
149542
149271
149279
149542
149684
149681
149541
149288
149297
149541
149679
149676
149541
149307
149317
149541
149674
149670
149540
149328
149339
149540
149667
149662
149539
149350
149361
149537
149657
149650
149535
149373
149384
149531
149643
149633
149527
149396
149409
149521
149622
149605
149511
149421
149445
149506
149589
149548
149471
149449
149462
149446
149501
149456
149454
149474
149484
149465
149442
149454
149486
149502
149522
149511
149481
149517
149537
149540
149543
149551
149549
149547
149539
149527
149534
149547
149558
149550
149539
149523
149531
149549
149561
149558
149547
149527
149535
149558
149570
149571
149560
149535
149543
149569
149580
149583
149573
149547
149552
149577
149588
149590
149578
149553
149554
149579
149592
149594
149581
149554
149556
149583
149597
149600
149586
149558
149560
149589
149603
149606
149593
149561
149564
149596
149610
149613
149600
149566
149568
149604
149616
149618
149608
149571
149574
149612
149621
149624
149615
149577
149581
149619
149627
149629
149623
149585
149590
149626
149632
149634
149630
149594
149599
149633
149637
149639
149636
149604
149609
149639
149641
149643
149642
149615
149620
149644
149645
149647
149647
149625
149630
149649
149649
149651
149651
149634
149638
149652
149652
149653
149654
149642
149645
149654
149654
149654
149654
149648
149649
149654
149653
149653
149654
149651
149651
149652
149652
149651
149651
149651
149649
149649
149649
149647
149643
149637
149631
149623
149615
149608
149602
149598
149597
149597
149599
149604
149611
149618
149627
149634
149641
149644
149647
149645
149646
149649
149646
149648
149648
149648
149648
149647
149648
149641
149648
149648
149643
149646
149646
149645
149645
149642
149641
149645
149645
149642
149642
149638
149640
149643
149644
149640
149640
149637
149639
149642
149640
149632
149636
149633
149630
149633
149628
149623
149627
149624
149622
149623
149621
149622
149619
149618
149616
149616
149628
149633
149612
149608
149601
149613
149640
149646
149615
149595
149590
149619
149652
149658
149622
149586
149583
149628
149664
149669
149633
149581
149581
149640
149674
149678
149645
149581
149583
149651
149684
149689
149657
149585
149588
149665
149695
149699
149671
149593
149599
149679
149706
149712
149686
149606
149615
149694
149717
149723
149702
149624
149637
149714
149730
149739
149726
149654
149673
149738
149748
149756
149748
149689
149708
149758
149763
149771
149768
149726
149742
149777
149778
149785
149785
149758
149771
149793
149791
149798
149801
149784
149793
149804
149800
149825
149813
149791
149820
149826
149823
149824
149831
149830
149839
149836
149827
149828
149839
149844
149845
149840
149828
149850
149852
149854
149860
149852
149837
149856
149877
149901
149868
149864
149860
149895
149931
149944
150039
149967
149874
149996
149983
150018
149899
149868
149925
149422
149561
149950
149292
149624
149565
148477
148851
147439
145597
147172
147631
147472
147041
145712
146187
147299
147750
147470
146996
146091
145927
146654
147061
147534
147173
146452
146379
146932
147270
147708
147388
146797
146700
147172
147468
147860
147578
147052
147046
147483
147758
147562
147316
146943
147261
147679
147891
147735
147526
147178
147451
147834
148024
147953
147762
147428
147339
147631
147812
148069
147908
147566
147483
147779
147942
148167
148020
147693
147617
147895
148046
148258
148122
147818
147789
148058
148203
148087
147943
147700
147866
148161
148287
148185
148052
147796
147954
148241
148356
148248
148121
147868
148037
148308
148411
148307
148187
147946
148105
148369
148471
148381
148266
148034
148173
148433
148535
148496
148382
148148
148051
148273
148392
148559
148457
148185
148091
148348
148470
148617
148525
148247
148149
148400
148517
148658
148563
148290
148215
148454
148565
148699
148612
148344
148240
148487
148599
148741
148658
148394
148306
148547
148653
148773
148686
148414
148323
148570
148679
148816
148737
148472
148378
148620
148727
148844
148760
148486
148390
148642
148751
148882
148804
148532
148435
148685
148792
148906
148824
148542
148441
148701
148811
148940
148864
148584
148482
148742
148851
148961
148880
148589
148476
148748
148861
148989
148912
148616
148505
148781
148893
149006
148924
148611
148469
148770
148896
148999
148890
148548
148673
149025
149106
148984
148868
148571
148692
149006
149094
148991
148872
148588
148729
149037
149119
149026
148909
148628
148743
149057
149139
149035
148914
148618
148732
149064
149151
149055
148935
148632
148762
149098
149179
149071
148943
148626
148731
149092
149180
149055
148920
148578
148672
149057
149163
149270
149191
148797
148667
149009
149138
149259
149168
148805
148681
149013
149147
149279
149189
148830
148708
149038
149171
149292
149206
148846
148693
149033
149171
149289
149199
148815
148675
149030
149166
149262
149160
148750
148879
149290
149364
149218
149083
148720
148845
149238
149331
149216
149075
148709
148854
149251
149342
149233
149092
148721
148847
149259
149350
149220
149073
148683
148821
149257
149346
149208
149053
148632
148708
149188
149307
149422
149342
148861
148673
149107
149257
149393
149295
148846
148676
149103
149263
149399
149298
148841
148666
149099
149262
149396
149297
148830
148614
149071
149243
149354
149222
148712
148848
149388
149477
149299
149134
148664
148821
149314
149411
149268
149099
148634
148821
149310
149406
149262
149090
148615
148795
149300
149398
149251
149075
148585
148774
149295
149391
149214
149027
148506
148605
149189
149331
149476
149382
148766
148561
149100
149282
149410
149305
148745
148538
149065
149254
149390
149283
148720
148471
149019
149215
149370
149260
148676
148446
149012
149211
149359
149248
148633
148360
148956
149167
149282
149129
148465
148634
149331
149426
149200
148989
148359
148579
149232
149351
149183
148966
148346
148575
149230
149346
149176
148955
148325
148475
149166
149291
149069
148828
148147
148423
149146
149275
149077
148829
148120
148242
149027
149205
149397
149310
148537
148157
148880
149128
149270
149139
148393
148101
148815
149064
149258
149126
148377
148108
148825
149076
149238
149129
148403
148030
148757
149018
149153
149009
148210
147861
148648
148920
149139
149003
148177
147852
148669
148944
149136
149022
148202
147798
148625
148910
149024
148871
147963
147540
148446
148754
149003
148854
147907
147542
148483
148795
148997
148889
147953
147442
148399
148725
148840
148654
147576
147094
148152
148512
148748
148500
147353
147773
148925
149049
148751
148431
147367
147636
148661
148783
148436
148066
146985
147495
148517
148679
148711
148382
147315
146716
147799
148227
148525
148444
147464
146388
147594
148063
148319
148114
146858
146360
147628
148056
148377
148251
146989
146559
147811
148220
148119
147878
146432
145695
147149
147643
147996
147802
146409
146007
147410
147859
147979
148005
146928
145381
146860
147412
147511
147321
145961
145765
147251
147704
147213
146734
145264
145285
146859
147070
146478
145809
143925
145026
146689
146829
146955
146464
144807
144738
146473
146586
146506
145866
143814
143074
145074
145756
145666
145755
144492
142577
144936
145638
144742
143997
141634
143179
144592
144508
144596
143866
140923
141374
144016
144422
141913
140525
136557
139499
141616
142074
141500
140328
136231
133925
139116
140373
138836
137310
130652
127929
135210
136794
136960
135387
128129
128538
135696
137708
137968
135612
128498
128272
135183
137841
137715
134834
128085
127953
134440
137503
137378
134174
127900
127854
133841
137136
136979
133616
127857
127855
133329
136715
136562
133158
127896
127926
132928
136302
136161
132810
127997
128053
132632
135923
135807
132561
128147
128221
132428
135591
135498
132395
128330
128418
132298
135312
135245
132294
128538
128634
132224
135081
135034
132242
128761
128863
132195
134897
134874
132232
128994
129098
132205
134757
134752
132249
129239
129342
132239
134659
134671
132300
129488
129588
132302
134597
134636
132374
129732
129828
132387
134580
134645
132474
129970
130062
132496
134603
134685
132589
130199
130285
132619
134656
134755
132722
130418
130501
132758
134735
134844
132863
130628
130705
132903
134831
134951
133016
130828
130903
133060
134945
135068
133172
131021
131091
133218
135066
135195
133335
131206
131274
133383
135198
135326
133497
131384
131448
133545
135330
135462
133661
131556
131617
133710
135468
135596
133823
131721
131778
133870
135604
135732
133983
131879
131934
134031
135741
135865
134139
132031
132082
134184
135873
135996
134293
132176
132226
134337
136005
136123
134440
132315
132360
134482
136131
136248
134584
132447
132491
134625
136256
136368
134722
132573
132613
134760
136375
136485
134856
132693
132731
134893
136492
136596
134983
132806
132841
135017
136602
136705
135106
132914
132946
135139
136710
136808
135223
133015
133045
135252
136812
136908
135335
133111
133139
135362
136911
137002
135440
133202
133227
135463
137004
137095
135541
133287
133310
135562
137096
137181
135635
133366
133387
135654
137180
137263
135725
133441
133460
135742
137261
137341
135808
133511
133527
135823
137338
137416
135889
133576
133591
135902
137412
137486
135963
133637
133649
135974
137482
137555
136035
133694
133705
136044
137548
137619
136101
133746
133755
136108
137612
137681
136165
133795
133803
136171
137673
137739
136224
133841
133848
136229
137730
137795
136282
133884
133889
136285
137785
137848
136335
133924
133928
136336
137838
137900
136386
133961
133964
136387
137888
137948
136434
133996
133998
136433
137936
137995
136480
134029
134030
136479
137981
138038
136523
134059
134059
136520
138025
138081
136565
134088
134088
136561
138066
138121
136603
134115
134114
136598
138106
138160
136641
134141
134139
136635
138144
138196
136675
134165
134162
136669
138180
138232
136710
134187
134184
136703
138214
138265
136741
134209
134205
136733
138248
138298
136772
134229
134225
136763
138279
138328
136800
134248
134243
136791
138310
138358
136829
134266
134261
136819
138338
138386
136854
134283
134277
136843
138366
138414
136880
134299
134293
136869
138393
138439
136903
134314
134307
136891
138418
138464
136927
134329
134322
136914
138443
138488
136948
134342
134335
136935
138466
138511
136969
134355
134347
136956
138488
138532
136988
134367
134359
136974
138510
138554
137008
134379
134371
136994
138530
138573
137025
134390
134381
137011
138550
138593
137044
134400
134391
137029
138569
138611
137059
134410
134401
137044
138588
138630
137076
134420
134410
137060
138605
138646
137090
134429
134419
137074
138622
138663
137106
134437
134427
137089
138638
138679
137119
134445
134434
137102
138654
138694
137133
134452
134442
137116
138669
138708
137145
134460
134449
137127
138683
138723
137158
134466
134455
137140
138697
138736
137169
134473
134462
137151
138710
138749
137181
134479
134468
137162
138723
138761
137190
134484
134473
137172
138735
138774
137201
134490
134478
137183
138747
138785
137211
134495
134483
137192
138758
138797
137221
134500
134488
137202
138769
138807
137229
134504
134492
137210
138780
138818
137239
134508
134496
137219
138790
138828
137246
134512
134500
137227
138800
138838
137255
134516
134503
137235
138810
138847
137262
134519
134506
137242
138819
138856
137270
134522
134509
137250
138828
138864
137276
134525
134511
137255
138836
138873
137283
134527
134513
137262
138844
138880
137290
134529
134515
137268
138851
138889
137294
134533
134519
137274
138861
138899
137301
134533
134519
137281
138871
138915
137312
134538
134524
137296
138890
138951
137337
134552
134539
137331
138936
139013
137383
134578
134586
137399
139036
139236
137529
134689
134873
137759
139528
139708
137935
135022
141746
143152
143613
143808
144758
145396
145692
145945
146836
147431
148044
148529
148902
149194
149406
149555
149657
149728
149779
149815
149842
149863
149878
149890
149899
149906
149910
149913
149915
149916
149916
149917
149927
149932
149936
149943
149950
149959
149970
149984
149999
150016
150034
150052
150067
150076
150078
150075
150070
150065
150061
150058
150054
150051
150047
150044
150040
150036
150032
150028
150025
150022
150019
150016
150014
150013
150012
150011
150012
150013
150015
150017
150021
150025
150029
150035
150040
150046
150052
150058
150063
150068
150073
150077
150080
150082
150083
150083
150082
150080
150078
150075
150071
150066
150061
150056
150050
150045
150039
150033
150028
150022
150017
150012
150007
150002
149998
149994
149990
149986
149983
149980
149977
149975
149973
149971
149969
149968
149967
149966
149965
149965
149965
149964
149964
149965
149965
149965
149965
149965
149966
149966
149967
149967
149968
149969
149970
149971
149972
149974
149975
149977
149979
149981
149982
149984
149986
149988
149990
149992
149994
149996
149999
150005
150016
150024
150027
150025
150033
150053
150064
150066
150062
150058
150054
150050
150047
150044
150042
150040
150038
150036
150035
150033
150032
150031
150030
150029
150028
150027
150026
150025
150024
150023
150022
150021
150020
150019
150019
150018
150017
150016
150016
150015
150014
150013
150012
150012
150011
150010
150009
150008
150007
150006
150005
150004
150003
150002
150000
149999
149997
149994
149992
149992
149996
150003
150010
150021
150032
150035
150033
150029
150024
150020
150016
150011
150007
150003
149998
149994
149990
149985
149981
149977
149973
149969
149966
149962
149959
149955
149952
149948
149945
149941
149938
149934
149931
149927
149924
149920
149917
149914
149910
149907
149904
149901
149899
149896
149894
149891
149888
149886
149883
149880
149877
149874
149871
149867
149863
149860
149856
149853
149849
149846
149843
149840
149837
149834
149832
149829
149826
149822
149818
149814
149808
149802
149795
149786
149775
149761
149745
149715
149673
149620
149564
149524
149514
149526
149542
149538
149560
149554
149569
149561
149574
149570
149581
149583
149591
149593
149597
149599
149602
149604
149607
149609
149612
149613
149615
149617
149619
149621
149623
149625
149627
149629
149631
149633
149635
149637
149640
149642
149644
149646
149648
149649
149650
149651
149651
149651
149650
149649
149646
149640
149639
149646
149646
149636
149636
149645
149645
149632
149614
149627
149630
149632
149624
149621
149614
149603
149610
149615
149608
149602
149592
149585
149567
149604
149630
149643
149640
149624
149622
149638
149634
149615
149592
149582
149614
149632
149628
149607
149607
149626
149622
149600
149575
149570
149601
149621
149618
149595
149597
149616
149613
149592
149568
149567
149594
149612
149610
149589
149592
149609
149607
149588
149566
149566
149590
149606
149604
149587
149590
149604
149602
149586
149567
149569
149589
149601
149599
149586
149588
149598
149596
149584
149570
149562
149587
149594
149590
149578
149584
149589
149584
149563
149563
149563
149572
149584
149573
149527
149543
149570
149555
149494
149568
149630
149546
149560
149542
149501
149572
149549
149541
149541
149728
149821
149626
149554
149538
149625
149703
149580
149600
149714
149892
149943
149772
149639
149676
149796
149846
149725
149767
149872
149980
150002
149909
149808
149836
149922
149946
149858
149868
149944
150010
150012
149962
149879
149886
149955
149970
149893
149897
149962
150012
150012
149974
149902
149905
149966
149977
149909
149911
149969
150012
150011
149978
149913
149915
149970
149979
149917
149918
149972
150011
150011
149980
149920
149922
149973
149982
149924
149926
149975
150012
150013
149984
149928
149931
149978
149987
149933
149936
149981
150015
150018
149989
149939
149941
149984
149992
149944
149946
149987
150020
150021
149994
149948
149950
149989
149996
149952
149953
149991
150021
150021
149997
149955
149956
149992
149998
149958
149959
149993
150021
150021
149998
149961
149962
149994
149999
149964
149965
149996
150021
150021
150001
149968
149969
149998
150003
149972
149973
150000
150022
150023
150005
149976
149977
150002
150006
149980
149981
150004
150024
150024
150008
149984
149985
150006
150010
149987
149988
150007
150024
150024
150011
149991
149992
150009
150012
149994
149996
150011
150024
150024
150014
149998
149999
150012
150015
150002
150004
150015
150025
150025
150017
150006
150008
150017
150019
150011
150013
150020
150026
150026
150022
150015
150017
150022
150025
150020
150022
150025
150027
150027
150027
150025
150027
150028
150030
150030
150032
150031
150025
150017
150024
150027
150029
150030
150031
150032
150034
150035
150037
150038
150039
150040
150040
150041
150041
150041
150041
150042
150043
150044
150045
150045
150044
150043
150042
150042
150042
150042
150044
150045
150046
150048
150049
150049
150048
150041
150027
150003
149963
149903
149823
149732
149647
149585
149561
149541
149532
149527
149521
149515
149513
149513
149517
149524
149535
149549
149513
149536
149562
149582
149593
149601
149597
149589
149576
149572
149585
149594
149594
149586
149572
149553
149523
149525
149555
149573
149588
149597
149601
149594
149580
149588
149602
149608
149616
149612
149600
149574
149546
149518
149496
149495
149473
149494
149480
149471
149445
149456
149453
149472
149495
149477
149465
149441
149437
149441
149468
149469
149443
149450
149475
149484
149467
149482
149454
149440
149467
149461
149521
149522
149530
149544
149562
149585
149605
149613
149624
149625
149633
149634
149627
149643
149646
149641
149644
149649
149650
149641
149632
149664
149667
149664
149659
149654
149645
149645
149644
149647
149644
149647
149645
149642
149638
149643
149643
149641
149646
149656
149642
149636
149639
149641
149637
149640
149649
149665
149672
149677
149681
149665
149658
149621
149613
149608
149606
149652
149657
149650
149656
149653
149659
149683
149681
149683
149679
149678
149672
149668
149659
149656
149648
149634
149639
149636
149637
149646
149653
149661
149666
149672
149676
149685
149687
149689
149684
149681
149688
149690
149683
149687
149693
149693
149691
149695
149698
149697
149697
149688
149693
149696
149701
149661
149656
149604
149607
149529
149552
149488
149529
149598
149534
149495
149496
149517
149543
149616
149552
149613
149702
149794
149699
149608
149688
149786
149877
149948
149866
149769
149672
149598
149666
149625
149688
149684
149669
149670
149714
149706
149717
149717
149711
149711
149706
149706
149702
149701
149705
149701
149708
149712
149714
149719
149721
149726
149730
149738
149727
149727
149737
149751
149744
149757
149737
149720
149729
149748
149747
149764
149769
149776
149757
149759
149737
149744
149702
149721
149725
149757
149751
149775
149769
149769
149767
149788
149782
149788
149788
149805
149803
149808
149792
149794
149775
149786
149782
149800
149799
149812
149810
149805
149827
149814
149819
149824
149824
149813
149777
149760
149845
149940
150010
150069
150039
149932
149701
149851
149892
149780
149839
149845
149840
149863
149905
149862
149861
150003
150013
150008
149929
150026
149879
149963
150026
149930
149878
149912
150073
150098
150040
149964
149882
150153
149953
150019
150149
150117
150044
149883
150128
149952
150215
150082
150119
150052
149988
150018
150064
150157
150200
150176
150088
150176
149945
149896
149674
149391
148420
148472
149325
149461
148834
148164
147731
148203
147871
148232
147985
148276
148135
147981
148216
148096
148316
148236
148128
148317
148223
148392
148310
148464
148413
148332
148466
148400
148513
148446
148575
148509
148624
148574
148695
148663
148594
148703
148648
148751
148693
148787
148736
148827
148771
148858
148812
148895
148844
148924
148880
148959
148910
148986
148942
149017
148969
149042
148998
149070
149018
149090
149039
149109
149041
149121
149189
149266
149182
149259
149159
149232
149141
149219
149110
149186
149089
149170
149057
149136
149033
149119
148998
149081
148973
149063
148937
149025
148910
149005
148869
148960
148838
148929
148781
148847
149023
149176
149133
149251
149050
149106
149203
149301
149160
149250
149355
149168
149213
149297
149391
149259
149334
149435
149263
149305
149373
149461
149341
149400
149495
149338
149368
149283
149191
149133
149198
149150
149224
149180
149241
149189
149265
149216
149278
149223
149292
149212
149296
149366
149431
149369
149443
149347
149411
149340
149417
149309
149377
149298
149381
149277
149359
149504
149437
149530
149462
149543
149477
149566
149458
149368
149304
149371
149320
149381
149335
149386
149330
149389
149322
149395
149440
149374
149430
149378
149444
149396
149448
149387
149451
149373
149448
149512
149565
149527
149595
149512
149564
149515
149589
149501
149558
149518
149448
149513
149455
149518
149443
149503
149446
149513
149443
149500
149567
149640
149569
149669
149548
149582
149592
149667
149561
149583
149587
149692
149602
149680
149591
149712
149602
149515
149442
149501
149447
149502
149443
149491
149415
149491
149549
149596
149523
149456
149514
149453
149503
149444
149509
149444
149493
149402
149495
149526
149461
149509
149450
149495
149423
149486
149422
149472
149374
149460
149534
149580
149494
149407
149477
149412
149459
149388
149458
149340
149422
149321
149431
149441
149355
149410
149331
149389
149333
149379
149282
149336
149222
149313
149242
149290
149187
149257
149104
149210
149126
149198
149049
149123
148902
149071
149215
149256
149113
149013
149081
148847
149004
148996
148730
148873
148560
148764
148579
148743
148603
148658
148226
148528
148377
148469
147981
148302
148244
147805
148111
147387
147871
147536
147930
147380
146653
147371
146697
145841
146965
145983
145274
143716
145045
143299
142168
141154
139582
139468
140108
140482
140505
140542
140479
140529
140442
140470
140351
140380
140245
140280
140137
140180
140030
140083
139928
139993
139837
139912
139755
139842
139686
139781
139626
139730
139578
139681
139532
139640
139495
139601
139461
139571
139439
139545
139417
139528
139408
139515
139398
139511
139401
139509
139402
139515
139415
139523
139425
139538
139446
139554
139464
139576
139492
139598
139515
139626
139547
139653
139575
139684
139610
139715
139642
139749
139680
139782
139714
139818
139753
139853
139789
139891
139829
139927
139866
139965
139907
140002
139943
140040
139984
140076
140020
140114
140059
140149
140094
140185
140132
140219
140166
140254
140202
140287
140235
140320
140269
140351
140300
140383
140333
140412
140362
140442
140393
140470
140420
140498
140449
140525
140475
140551
140503
140576
140527
140601
140553
140625
140575
140648
140600
140670
140621
140692
140644
140713
140664
140734
140686
140753
140705
140773
140725
140791
140743
140810
140762
140827
140779
140845
140797
140861
140812
140877
140830
140893
140844
140908
140860
140922
140874
140937
140889
140950
140902
140964
140916
140977
140928
140990
140942
141001
140953
141014
140966
141025
140976
141036
140988
141047
140998
141058
141010
141068
141019
141078
141030
141088
141039
141098
141049
141106
141057
141116
141068
141124
141076
141136
141087
141146
141098
141165
141122
141203
141166
141265
141224
141412
141603
143105
143015
143581
142727
142789
143268
142566
142650
142990
142496
142585
142914
142445
142538
142797
142438
142533
142824
142417
142513
142767
142416
142512
142793
142402
142498
142751
142401
142497
142778
142388
142484
142739
142388
142484
142766
142374
142471
142727
142374
142470
142754
142360
142457
142715
142359
142457
142742
142345
142443
142703
142344
142442
142730
142330
142429
142690
142329
142428
142717
142315
142414
142678
142314
142413
142705
142299
142399
142665
142298
142398
142692
142282
142383
142651
142281
142382
142679
142266
142367
142638
142264
142366
142666
142248
142351
142624
142246
142349
142653
142230
142334
142610
142229
142333
142640
142212
142317
142597
142210
142316
142627
142194
142300
142583
142192
142299
142614
142176
142283
142569
142174
142282
142601
142157
142266
142556
142155
142266
142589
142139
142250
142544
142137
142250
142577
142121
142234
142532
142120
142234
142566
142103
142218
142521
142102
142219
142557
142086
142204
142511
142086
142205
142548
142070
142190
142502
142071
142193
142541
142055
142178
142496
142056
142182
142536
142041
142168
142490
142044
142172
142532
142030
142159
142487
142033
142165
142531
142020
142154
142486
142025
142161
142533
142013
142150
142488
142019
142160
142537
142009
142151
142492
142017
142162
142544
142008
142154
142499
142018
142168
142553
142011
142162
142510
142024
142178
142565
142019
142174
142523
142034
142192
142580
142031
142190
142540
142049
142211
142598
142047
142211
142559
142068
142235
142619
142067
142236
142583
142092
142263
142644
142094
142267
142609
142121
142295
142671
142125
142303
142639
142154
142333
142701
142161
142343
142673
142192
142376
142735
142203
142389
142711
142235
142424
142772
142249
142441
142752
142283
142476
142813
142301
142497
142798
142333
142532
142858
142356
142555
142850
142387
142588
142909
142413
142613
142908
142441
142643
142964
142466
142665
142971
142483
142682
143023
142494
142689
143037
142487
142676
143081
142465
142647
143080
142405
142583
143128
142312
142484
143190
142163
142323
143222
141933
142055
143033
141653
141604
142547
141127
141039
143359
141244
142741
144956
143802
144811
145748
145915
146614
145936
146356
146798
146943
147686
147206
146842
146972
147570
147721
148665
147500
147923
147750
148062
148156
148129
148228
148313
148536
148490
148548
149343
148673
148607
148826
148683
148868
148797
148958
148835
148987
148938
149096
148960
149083
149084
149139
149244
149145
149187
149233
149352
149523
149277
149336
149249
149337
149309
149408
149317
149387
149362
149447
149374
149444
149416
149496
149422
149486
149462
149540
149472
149541
149497
149566
149504
149519
149596
149517
149565
149552
149635
149533
149576
149571
149646
149713
149615
149609
149538
149595
149557
149619
149557
149611
149575
149629
149586
149571
149630
149564
149601
149584
149645
149569
149607
149591
149650
149690
149605
149699
149601
149686
149593
149670
149768
149632
149726
149637
149672
149599
149758
149618
149675
149612
149793
149830
149711
149645
149801
149719
149723
149749
149795
149718
149700
149633
149625
149569
149616
149668
149705
149628
149684
149744
149794
149691
149677
149740
149794
149687
149683
149721
149791
149676
149633
149702
149609
149665
149604
149685
149586
149651
149574
149660
149545
149621
149526
149621
149486
149576
149457
149560
149403
149506
149358
149477
149297
149108
148849
148688
148810
148610
148714
148568
148654
148832
149016
148970
149215
148966
148792
148593
148736
148534
148677
148456
148575
148747
148488
148675
148388
148556
149034
148944
149092
148824
149044
149151
148883
148934
149105
149316
149644
149304
149605
149453
149074
148865
148603
148979
148668
149173
149573
149837
149702
149711
149706
149784
149816
150030
149752
149944
149982
149963
149921
150010
149909
149873
149612
149145
149380
149312
149620
149755
149762
149903
149858
149981
149817
149642
149360
149528
149414
149248
149428
149674
149566
149606
149713
149650
149745
149678
149766
149691
149780
149695
149788
149691
149820
149868
149818
149870
149813
149873
149808
149882
149799
149891
149787
149912
150027
150062
149981
150024
149956
149990
149932
149969
149921
149957
149915
149949
149910
149866
149820
149862
149817
149858
149815
149852
149835
149767
149734
149718
149820
149677
149666
149831
149834
149881
149847
149886
149916
149942
149914
149875
149834
149874
149832
149829
149780
149741
149561
149566
149681
149505
149640
149792
149606
149611
149592
149438
149613
149502
149554
149405
149578
149511
149338
149584
149399
149476
149306
149535
149415
149216
149359
149573
149547
149651
149706
149602
149578
149633
149670
149538
149816
149658
149567
149895
149496
149840
149427
149843
149655
149605
149460
149849
149324
149554
149512
149454
149036
149449
149070
149175
148952
149377
149038
148797
149292
148855
148913
148664
149011
148750
149952
149229
149183