/*--------------------------------*- C++ -*----------------------------------*\
| =========                 |                                                 |
| \\      /  F ield         | OpenFOAM: The Open Source CFD Toolbox           |
|  \\    /   O peration     | Version:  v2006                                 |
|   \\  /    A nd           | Website:  www.openfoam.com                      |
|    \\/     M anipulation  |                                                 |
\*---------------------------------------------------------------------------*/
FoamFile
{
    version     2.0;
    format      ascii;
    class       volScalarField;
    location    "0.044";
    object      nut;
}
// * * * * * * * * * * * * * * * * * * * * * * * * * * * * * * * * * * * * * //

dimensions      [0 2 -1 0 0 0 0];


internalField   nonuniform List<scalar> 
9148
(
117.683
307.081
231.856
103.128
13.5723
2.4153
0.868118
0.487
0.353854
0.292919
0.257675
0.232254
0.21131
0.193251
0.177708
0.164455
0.153178
0.143531
0.135198
0.127922
0.121505
0.115806
0.110716
0.106153
0.102052
0.0983583
0.0950264
0.0920183
0.0893019
0.0868512
0.0846447
0.0826652
0.0808992
0.0793366
0.07797
0.0767948
0.0758074
0.0750055
0.0743889
0.0739601
0.0737261
0.0736927
0.0738717
0.0742755
0.0749155
0.0758131
0.0769974
0.0785054
0.0803834
0.0826947
0.0855253
0.0889843
0.0931891
0.0982625
0.104279
0.111403
0.120215
0.132863
0.155301
0.203942
0.317001
0.565089
0.956164
2.36574
1.05636
0.644912
0.360253
0.186635
0.0794621
0.0152538
0.00281049
9.4955e-05
8.23862e-05
0.00136436
0.005976
0.0038594
0.00101138
7.41717e-05
6.65478e-05
0.000863254
0.00305991
0.00260075
0.000786377
6.24617e-05
5.82021e-05
0.000718305
0.00231799
0.00208231
0.000675491
5.54068e-05
5.30323e-05
0.000639152
0.00195929
0.00182636
0.000610122
5.10261e-05
4.96961e-05
0.0005974
0.00176148
0.00166312
0.000573467
4.83011e-05
4.74158e-05
0.000566496
0.00162658
0.00155307
0.000547208
4.63491e-05
4.57081e-05
0.000542695
0.00152659
0.00146695
0.000526533
4.48663e-05
4.4373e-05
0.000523102
0.00144654
0.00139578
0.000509346
4.36866e-05
4.32886e-05
0.000506353
0.00137954
0.00133508
0.000494441
4.27087e-05
4.23762e-05
0.000491783
0.00132186
0.00128213
0.000481197
4.18711e-05
4.15843e-05
0.000478785
0.00127107
0.00123517
0.000469193
4.11328e-05
4.08783e-05
0.000466972
0.0012255
0.00119286
0.000458133
4.04653e-05
4.0234e-05
0.000456089
0.00118425
0.00115425
0.000447841
3.98489e-05
3.96343e-05
0.000445952
0.00114648
0.00111865
0.000438169
3.92696e-05
3.90672e-05
0.000436416
0.00111156
0.00108554
0.000428996
3.87172e-05
3.85239e-05
0.00042736
0.00107899
0.0010545
0.000420223
3.81845e-05
3.7998e-05
0.000418684
0.00104839
0.00102518
0.000411763
3.76659e-05
3.74845e-05
0.000410302
0.00101943
0.0009973
0.000403542
3.71571e-05
3.69794e-05
0.000402142
0.000991824
0.000970615
0.000395494
3.66544e-05
3.64791e-05
0.000394138
0.000965349
0.000944902
0.000387558
3.61538e-05
3.59793e-05
0.000386227
0.000939782
0.000919942
0.000379671
3.56512e-05
3.54758e-05
0.000378347
0.000914916
0.000895557
0.000371772
3.51418e-05
3.49636e-05
0.000370434
0.000890568
0.000871572
0.000363799
3.46208e-05
3.44379e-05
0.00036243
0.000866553
0.000847809
0.000355695
3.40831e-05
3.38936e-05
0.000354272
0.000842707
0.000824096
0.000347405
3.35241e-05
3.33269e-05
0.000345905
0.000818872
0.00080029
0.000338872
3.29403e-05
3.27349e-05
0.000337276
0.000794886
0.000776201
0.000330027
3.23292e-05
3.21155e-05
0.000328287
0.00077054
0.000751575
0.000320756
3.16881e-05
3.1465e-05
0.000318843
0.000745587
0.000726164
0.000310955
3.10124e-05
3.0779e-05
0.000308783
0.000719728
0.000699564
0.000300424
3.02972e-05
3.00503e-05
0.000297891
0.000692528
0.000671255
0.000288913
2.95335e-05
2.92659e-05
0.000285871
0.000663408
0.00064074
0.000276075
2.87106e-05
2.84048e-05
0.000272277
0.000631599
0.000606949
0.000261589
2.78222e-05
2.7439e-05
0.000255977
0.000595742
0.000568263
0.000244496
2.68343e-05
2.63363e-05
0.00023603
0.000552997
0.000522223
0.000223116
2.57039e-05
2.503e-05
0.000210263
0.000499162
0.000464216
0.000194766
2.43066e-05
2.34673e-05
0.000173062
0.000426417
0.000382338
0.000152557
2.36061e-05
1.97071e-05
0.000107333
0.000317471
0.000206092
4.04244e-05
8.88513e-06
1.46262e-05
3.50674e-05
0.000107734
0.000103701
9.66812e-05
2.11295e-05
2.36785e-05
0.000155968
0.000205159
0.000275189
0.000201319
2.27791e-05
1.84581e-05
0.000225975
0.000317586
0.000311667
0.000139837
8.64258e-06
3.81482e-06
3.34063e-05
0.000113215
5.76034e-05
1.75768e-05
2.2676e-06
1.76863e-06
1.40961e-05
4.87135e-05
4.56459e-05
1.16341e-05
1.63649e-06
3.37281e-06
1.53146e-05
5.78416e-05
6.82941e-05
1.91618e-05
5.11084e-06
6.8114e-06
2.76095e-05
9.40948e-05
0.000105783
3.18901e-05
7.50673e-06
7.29453e-06
3.73954e-05
0.000116796
0.000114964
3.7175e-05
6.87036e-06
6.39276e-06
3.57615e-05
0.000106772
9.13185e-05
3.1111e-05
5.5721e-06
5.09288e-06
2.84248e-05
8.37048e-05
7.62541e-05
2.54532e-05
4.89803e-06
5.26916e-06
2.39656e-05
7.6581e-05
7.924e-05
2.46555e-05
6.06622e-06
7.07493e-06
2.60583e-05
8.4286e-05
9.19397e-05
2.84874e-05
7.95475e-06
8.62407e-06
3.12609e-05
0.000100329
0.000112199
3.47161e-05
9.23147e-06
9.74404e-06
3.79498e-05
0.000122439
0.00013806
4.18165e-05
1.01814e-05
1.05274e-05
4.52343e-05
0.000149221
0.000167388
4.96434e-05
1.08102e-05
1.10098e-05
5.30877e-05
0.000178207
0.000197424
5.76977e-05
1.1164e-05
1.12476e-05
6.11273e-05
0.000207461
0.000225845
6.53477e-05
1.1249e-05
1.12075e-05
6.85025e-05
0.000234065
0.000248204
7.21709e-05
1.11667e-05
1.10046e-05
7.3071e-05
0.000253102
0.000262312
7.50947e-05
1.08231e-05
1.05528e-05
7.42433e-05
0.000262758
0.000266225
7.52341e-05
1.02578e-05
9.8639e-06
7.22888e-05
0.000258547
0.000254474
7.18286e-05
9.45402e-06
8.91616e-06
6.63775e-05
0.000235753
0.000223948
6.47159e-05
8.37676e-06
7.68663e-06
5.76452e-05
0.000193772
0.000177759
5.5468e-05
6.89474e-06
5.22026e-06
4.89115e-05
0.000143863
0.000127758
4.78151e-05
3.93488e-06
2.2491e-06
3.92121e-05
9.09433e-05
7.71262e-05
3.7841e-05
1.39104e-06
2.06084e-06
4.50939e-05
5.73569e-05
7.3479e-05
9.21353e-05
9.12172e-05
9.11671e-05
8.53713e-05
8.3435e-05
8.00627e-05
7.87699e-05
7.733e-05
7.71297e-05
7.73022e-05
7.84128e-05
8.02639e-05
8.29015e-05
8.59705e-05
8.97482e-05
9.35558e-05
9.66992e-05
0.000108657
0.000105956
4.80644e-05
6.89175e-06
1.1386e-05
1.34628e-05
1.09787e-05
7.02251e-06
3.72005e-07
5.61735e-08
4.48691e-07
3.14511e-06
6.63466e-06
4.49031e-07
4.47733e-08
9.942e-08
5.19906e-07
8.44368e-06
9.64023e-06
4.98646e-07
9.40023e-08
9.6707e-08
5.20261e-07
1.05215e-05
7.91621e-06
4.09432e-07
7.1197e-08
6.0283e-08
4.38069e-07
8.84454e-06
1.05013e-05
5.77125e-07
6.8217e-08
1.49986e-07
2.73597e-06
3.23088e-05
3.78322e-05
4.77599e-06
2.77692e-07
2.86536e-07
4.41673e-06
3.16653e-05
2.19879e-05
2.9856e-06
2.46916e-07
1.5058e-07
1.20053e-06
8.58583e-06
8.31566e-06
8.54522e-07
1.02022e-07
8.11489e-08
1.60831e-06
1.53391e-05
1.98389e-05
2.13904e-06
7.61449e-08
4.60298e-08
2.97073e-06
2.70558e-05
3.1594e-05
3.97675e-06
7.20698e-08
2.10741e-07
6.48735e-06
4.22014e-05
4.49363e-05
7.71508e-06
3.97891e-07
6.88702e-07
1.08995e-05
5.7147e-05
5.93718e-05
1.17797e-05
9.67869e-07
1.34228e-06
1.5144e-05
7.25608e-05
7.42266e-05
1.56897e-05
1.67496e-06
2.11056e-06
1.9287e-05
8.85486e-05
8.975e-05
1.96004e-05
2.4839e-06
2.97118e-06
2.35163e-05
0.000105635
0.000106425
2.35206e-05
3.39498e-06
3.9667e-06
2.81703e-05
0.000125378
0.000126836
2.82263e-05
4.48092e-06
5.21779e-06
3.44662e-05
0.000150691
0.000153957
3.51872e-05
5.89492e-06
6.73022e-06
4.55918e-05
0.000188034
0.000191561
4.68275e-05
7.18785e-06
7.94945e-06
6.07843e-05
0.000236428
0.00024001
6.20269e-05
8.42818e-06
9.45154e-06
7.9496e-05
0.000295842
0.000305538
8.45246e-05
1.0221e-05
1.17559e-05
0.000109858
0.000373537
0.000390743
0.000118601
1.29684e-05
1.55742e-05
0.000152021
0.000467955
0.00050146
0.000164049
1.88732e-05
1.54338e-05
0.00020737
0.000542576
0.00019011
4.67874e-05
5.18577e-06
1.15086e-05
0.000175136
0.000533045
0.000614093
0.000203062
1.54218e-05
2.20825e-05
0.000273179
0.000778903
0.000903753
0.000327626
2.76517e-05
1.91089e-05
0.000298276
0.000820678
0.000555427
0.000176647
7.90571e-06
2.3504e-05
0.000324786
0.000877021
0.000950683
0.000554536
4.45035e-05
2.43875e-05
0.000171327
0.000526506
0.000566219
0.000296144
2.5126e-05
5.31801e-05
0.000441461
0.000565072
0.000514646
0.000477873
3.82882e-05
1.70166e-05
0.000133138
0.00031642
0.000299804
0.000193517
2.41426e-05
3.1249e-05
0.000231718
0.000456922
0.000510732
0.000415768
3.25797e-05
2.65924e-05
0.000113112
0.000264424
0.000319959
0.0001404
2.32471e-05
3.93884e-05
0.000289364
0.000551819
0.000395693
0.000202285
4.05312e-05
2.3066e-05
7.59064e-05
0.000142366
0.000246646
0.00017239
2.33168e-05
2.16852e-05
7.85163e-05
0.00014
0.000234419
0.00016946
2.21825e-05
2.13995e-05
7.91129e-05
0.00013822
0.000231265
0.000148005
2.19646e-05
2.45941e-05
0.000121861
0.000202353
9.11908e-05
4.77479e-05
1.55251e-05
1.54535e-05
0.000120974
0.000157264
9.59081e-05
5.60453e-05
1.63704e-05
1.65632e-05
0.000109079
0.000167282
0.000147309
9.21138e-05
1.84334e-05
1.31282e-05
3.69665e-05
6.96897e-05
0.000118083
9.35869e-05
1.2424e-05
1.40298e-05
4.32798e-05
7.23129e-05
0.000123186
9.52386e-05
1.29473e-05
1.44795e-05
4.48565e-05
7.54662e-05
0.000126999
8.18953e-05
1.33783e-05
1.54979e-05
6.77184e-05
0.000110835
5.28944e-05
2.95204e-05
1.14909e-05
1.05153e-05
7.28125e-05
8.91893e-05
5.52947e-05
3.53536e-05
1.2469e-05
1.08927e-05
7.40882e-05
8.95937e-05
5.58796e-05
3.6538e-05
1.26685e-05
1.09791e-05
6.98918e-05
9.12394e-05
5.63727e-05
3.61068e-05
1.26304e-05
1.1013e-05
6.803e-05
9.24584e-05
5.76342e-05
3.66986e-05
1.27573e-05
1.14481e-05
6.13616e-05
9.82218e-05
8.51759e-05
5.21233e-05
1.38589e-05
1.05577e-05
2.79045e-05
4.35463e-05
6.80702e-05
5.6458e-05
9.33596e-06
1.17696e-05
3.22274e-05
4.45867e-05
6.958e-05
5.81866e-05
9.8332e-06
1.18687e-05
3.32399e-05
4.54016e-05
7.1264e-05
5.47083e-05
9.90446e-06
1.17946e-05
3.31936e-05
4.63362e-05
7.2198e-05
5.47127e-05
9.71747e-06
1.17651e-05
3.30686e-05
4.6508e-05
7.14162e-05
5.42751e-05
9.77394e-06
1.16635e-05
3.3478e-05
4.64297e-05
7.10966e-05
5.34251e-05
9.60949e-06
1.17475e-05
3.37634e-05
4.66211e-05
7.04676e-05
5.40047e-05
9.68605e-06
1.16456e-05
3.38439e-05
4.64177e-05
6.93493e-05
5.30643e-05
9.55673e-06
1.16927e-05
3.4106e-05
4.62391e-05
6.84021e-05
5.30435e-05
9.62303e-06
1.16302e-05
3.40093e-05
4.56868e-05
6.73241e-05
5.22595e-05
9.50936e-06
1.16595e-05
3.42317e-05
4.52296e-05
6.61494e-05
5.19814e-05
9.50686e-06
1.15855e-05
3.39376e-05
4.45665e-05
6.4881e-05
5.09538e-05
9.39691e-06
1.16294e-05
3.39999e-05
4.39447e-05
6.29801e-05
5.05326e-05
9.4268e-06
1.15341e-05
3.29217e-05
4.26835e-05
5.88297e-05
4.9388e-05
9.2033e-06
1.12774e-05
3.11765e-05
3.93385e-05
5.1348e-05
3.3224e-05
1.01043e-05
1.2825e-05
4.5695e-05
8.17523e-05
5.45469e-05
4.00281e-05
1.31549e-05
1.0113e-05
6.27435e-05
7.628e-05
5.26371e-05
4.06381e-05
1.18092e-05
9.71717e-06
6.23063e-05
7.50748e-05
5.15436e-05
3.97964e-05
1.1699e-05
9.55146e-06
6.00677e-05
7.24925e-05
4.98801e-05
3.90176e-05
1.17276e-05
9.67634e-06
5.68729e-05
6.99291e-05
4.85014e-05
3.84198e-05
1.18207e-05
9.52768e-06
5.6172e-05
6.70009e-05
4.60556e-05
3.64766e-05
1.16549e-05
9.29527e-06
5.3266e-05
6.19853e-05
4.22378e-05
3.43694e-05
1.14562e-05
1.03395e-05
3.60851e-05
5.33458e-05
8.27126e-05
4.70243e-05
1.31927e-05
1.37855e-05
4.36767e-05
5.66469e-05
7.82312e-05
6.52652e-05
1.05493e-05
1.22567e-05
4.43341e-05
5.49331e-05
7.6693e-05
6.55183e-05
9.94194e-06
1.19542e-05
4.30912e-05
5.34569e-05
7.36873e-05
6.33767e-05
9.64888e-06
1.18065e-05
4.09975e-05
5.12097e-05
6.83297e-05
5.95282e-05
9.48304e-06
1.15309e-05
3.825e-05
4.67393e-05
5.88549e-05
4.05822e-05
1.04591e-05
1.34733e-05
5.22735e-05
8.80233e-05
6.14864e-05
4.82158e-05
1.41655e-05
1.0822e-05
7.0115e-05
8.18628e-05
5.85698e-05
4.80384e-05
1.28007e-05
1.03504e-05
6.84188e-05
7.92806e-05
5.64999e-05
4.63874e-05
1.2504e-05
1.01087e-05
6.54154e-05
7.5607e-05
5.37174e-05
4.39456e-05
1.23227e-05
9.84868e-06
6.21237e-05
6.96069e-05
4.86003e-05
4.05328e-05
1.18335e-05
1.07502e-05
4.24821e-05
5.96333e-05
8.78757e-05
5.26337e-05
1.39162e-05
1.48153e-05
5.0915e-05
6.25265e-05
8.30354e-05
7.12692e-05
1.13647e-05
1.35532e-05
5.14573e-05
6.02591e-05
8.17973e-05
7.17291e-05
1.08462e-05
1.31297e-05
4.92621e-05
5.86656e-05
7.65414e-05
6.90846e-05
1.03518e-05
1.24685e-05
4.57592e-05
5.39681e-05
6.69032e-05
4.78249e-05
1.12184e-05
1.45271e-05
5.94918e-05
9.71285e-05
6.96821e-05
5.68808e-05
1.5612e-05
1.19457e-05
7.92226e-05
9.04307e-05
6.61386e-05
5.66534e-05
1.43067e-05
1.14522e-05
7.7703e-05
8.77601e-05
6.42395e-05
5.50548e-05
1.40958e-05
1.13097e-05
7.41747e-05
8.46375e-05
6.16867e-05
5.24906e-05
1.39267e-05
1.09326e-05
7.13378e-05
7.87133e-05
5.6726e-05
4.8902e-05
1.32541e-05
1.19549e-05
5.05576e-05
6.79866e-05
9.82311e-05
6.05889e-05
1.54674e-05
1.66993e-05
6.11157e-05
7.18499e-05
9.27893e-05
8.17813e-05
1.26994e-05
1.53585e-05
6.16988e-05
6.92418e-05
9.24616e-05
8.1967e-05
1.22652e-05
1.52142e-05
6.05408e-05
6.86549e-05
9.0422e-05
7.9418e-05
1.22047e-05
1.50937e-05
5.80359e-05
6.67607e-05
8.49852e-05
7.65429e-05
1.18796e-05
1.44253e-05
5.45798e-05
6.19535e-05
7.49209e-05
5.6494e-05
1.29847e-05
1.6718e-05
6.6087e-05
0.00010371
7.73876e-05
6.7294e-05
1.80607e-05
1.37721e-05
8.71383e-05
9.82251e-05
7.4778e-05
6.75685e-05
1.67029e-05
1.32711e-05
8.66341e-05
9.67936e-05
7.33567e-05
6.58879e-05
1.64171e-05
1.30455e-05
8.41703e-05
9.45706e-05
7.17641e-05
6.40091e-05
1.64089e-05
1.29899e-05
8.16227e-05
9.05501e-05
6.79748e-05
6.09077e-05
1.58045e-05
1.43036e-05
6.25326e-05
8.14537e-05
0.000111375
7.15182e-05
1.82027e-05
1.97032e-05
7.59586e-05
8.41617e-05
0.000108758
9.5885e-05
1.51283e-05
1.83938e-05
7.75863e-05
8.35699e-05
0.000110132
9.75604e-05
1.47426e-05
1.82424e-05
7.71964e-05
8.41208e-05
0.000110204
9.74528e-05
1.44169e-05
1.81104e-05
7.59467e-05
8.38685e-05
0.000109359
9.50277e-05
1.45154e-05
1.84279e-05
7.66445e-05
8.40388e-05
0.000108901
9.46501e-05
1.48513e-05
1.86201e-05
7.67363e-05
8.43007e-05
0.000108273
9.49959e-05
1.47542e-05
1.85694e-05
7.59401e-05
8.39067e-05
0.000106881
9.36146e-05
1.47832e-05
1.89037e-05
7.70231e-05
8.41358e-05
0.000106479
9.34209e-05
1.51831e-05
1.91141e-05
7.70516e-05
8.44647e-05
0.00010554
9.43197e-05
1.5009e-05
1.88848e-05
7.47414e-05
8.35475e-05
0.000101478
9.19545e-05
1.48136e-05
1.85853e-05
7.41207e-05
8.12793e-05
9.24083e-05
7.59201e-05
1.70322e-05
2.17486e-05
8.0798e-05
0.000122046
9.646e-05
9.29379e-05
2.34769e-05
1.77065e-05
0.00011043
0.000123891
9.89084e-05
0.000100325
2.22029e-05
1.88092e-05
0.000110612
0.000139867
0.00012814
0.000105914
2.42821e-05
1.93871e-05
8.95258e-05
9.40243e-05
0.000113902
0.000114553
1.54305e-05
2.09489e-05
9.05297e-05
9.44264e-05
0.00011846
0.000104057
1.7007e-05
2.21301e-05
9.01798e-05
9.66424e-05
0.000119791
0.000103166
1.75491e-05
2.21463e-05
9.08596e-05
9.7506e-05
0.000120872
0.000105482
1.7289e-05
2.27325e-05
9.63564e-05
0.000100304
0.000124562
0.000109148
1.81209e-05
2.31464e-05
9.98235e-05
0.000103446
0.000128954
0.000113977
1.76354e-05
2.33961e-05
0.000106004
0.000106056
0.000143295
0.000113634
2.00774e-05
2.65106e-05
0.000111465
0.000132789
0.000102644
0.000102374
2.16602e-05
1.72625e-05
0.000120808
0.000123198
0.000106836
0.000107107
2.43841e-05
1.96966e-05
0.000115319
0.000131996
0.00011099
0.000113677
2.5967e-05
2.14474e-05
0.000120167
0.000151747
0.000141776
0.000119852
2.90041e-05
2.51894e-05
0.000119863
0.000111339
0.000146751
0.000128614
2.11169e-05
2.97164e-05
0.000127629
0.00014253
0.000117554
0.000126697
2.73947e-05
2.23121e-05
0.000134719
0.00015243
0.000146971
0.00013982
3.45041e-05
3.03806e-05
0.000132345
0.000139425
0.000119501
0.000129577
3.04541e-05
2.63637e-05
0.000132666
0.000152157
0.000147948
0.000136186
3.97519e-05
4.44975e-05
0.000150931
0.000143818
0.000141314
0.00014841
5.10166e-05
6.22217e-05
0.000154499
0.000144533
0.000145385
0.000155697
6.95384e-05
7.35349e-05
0.000169245
0.000148212
0.000149657
0.000173408
7.1735e-05
6.83148e-05
0.000180695
0.0001516
0.00015568
0.000188383
6.43015e-05
6.04323e-05
0.000193164
0.000159084
0.000164319
0.00020299
5.67513e-05
5.33216e-05
0.000207532
0.000170411
0.000176887
0.000215103
5.02867e-05
4.77267e-05
0.000216035
0.000189062
0.000197366
0.000215957
4.54656e-05
4.35413e-05
0.000216737
0.000214194
0.000222636
0.00021737
4.18289e-05
4.03661e-05
0.000219012
0.000239882
0.000248383
0.000220936
3.90891e-05
3.80035e-05
0.000223617
0.000265966
0.000273189
0.000226648
3.70958e-05
3.63284e-05
0.00023022
0.000290089
0.000291082
0.0002344
3.57433e-05
3.5235e-05
0.000238841
0.000307714
0.00030922
0.000243797
3.49287e-05
3.46035e-05
0.00024877
0.0003254
0.000326951
0.000254335
3.45511e-05
3.42851e-05
0.00025972
0.000342843
0.000344175
0.000265764
3.45282e-05
3.4364e-05
0.000271088
0.000359547
0.000361079
0.000277281
3.46612e-05
3.46195e-05
0.000282394
0.000375844
0.00037695
0.000288019
3.49046e-05
3.49035e-05
0.00029256
0.000390579
0.00039155
0.000297622
3.51607e-05
3.51595e-05
0.000301614
0.000404029
0.000404812
0.000305918
3.53873e-05
3.53629e-05
0.000309265
0.000416424
0.000417297
0.00031288
3.55825e-05
3.55198e-05
0.000315831
0.000428051
0.00042892
0.000318709
3.57183e-05
3.56346e-05
0.000321185
0.000439211
0.00044069
0.000323503
3.58189e-05
3.57099e-05
0.000325762
0.000449986
0.00045175
0.000327553
3.5882e-05
3.57641e-05
0.000329511
0.000460703
0.000462441
0.000330933
3.59318e-05
3.57977e-05
0.000332764
0.00047129
0.000472349
0.000333826
3.59575e-05
3.5822e-05
0.000335371
0.000481399
0.000482117
0.000336211
3.59783e-05
3.58325e-05
0.000337599
0.000490893
0.000491313
0.000338187
3.59809e-05
3.58382e-05
0.000339271
0.000500004
0.000500355
0.000339719
3.59823e-05
3.58328e-05
0.000340638
0.000508606
0.000508627
0.000340888
3.59677e-05
3.5824e-05
0.000341509
0.000516843
0.000516754
0.000341654
3.5953e-05
3.58053e-05
0.000342132
0.000524513
0.000524061
0.000342109
3.59244e-05
3.57845e-05
0.000342325
0.000531819
0.000531226
0.000342222
3.58974e-05
3.5756e-05
0.000342333
0.000538519
0.000537542
0.000342083
3.58597e-05
3.57267e-05
0.000341977
0.000544822
0.000543713
0.000341682
3.58248e-05
3.56923e-05
0.000341512
0.000550588
0.000549026
0.000341088
3.5782e-05
3.56576e-05
0.000340758
0.00055592
0.000554235
0.000340319
3.57418e-05
3.56208e-05
0.000339956
0.000560425
0.000558652
0.000339391
3.56988e-05
3.55866e-05
0.000338894
0.000561595
0.000562587
0.000338318
3.56585e-05
3.55498e-05
0.000337798
0.000562273
0.000565515
0.000337072
3.56145e-05
3.55141e-05
0.000336416
0.000562557
0.000568079
0.000335602
3.55726e-05
3.54757e-05
0.000334978
0.000562623
0.000568527
0.000334126
3.55281e-05
3.54383e-05
0.0003334
0.000562237
0.000567994
0.000332586
3.54864e-05
3.53999e-05
0.000331849
0.000561438
0.00056693
0.000330898
3.54419e-05
3.53613e-05
0.000330076
0.000560432
0.000565796
0.000329159
3.5399e-05
3.53217e-05
0.000328362
0.000559134
0.000564282
0.000327326
3.53542e-05
3.52824e-05
0.000326482
0.000557739
0.000562803
0.0003255
3.53115e-05
3.52427e-05
0.000324713
0.000556137
0.000561027
0.000323633
3.52681e-05
3.52044e-05
0.000322828
0.000554538
0.000559374
0.000321819
3.52279e-05
3.51671e-05
0.000321101
0.000552802
0.000557493
0.000320006
3.51881e-05
3.5132e-05
0.000319289
0.000551126
0.000555784
0.000318274
3.51521e-05
3.50986e-05
0.00031766
0.000549398
0.000553824
0.000316566
3.51172e-05
3.5068e-05
0.000315959
0.000547761
0.000552213
0.000314951
3.50861e-05
3.50393e-05
0.000314455
0.000546132
0.00055028
0.00031338
3.50564e-05
3.50133e-05
0.000312891
0.000544516
0.000548753
0.000311908
3.50304e-05
3.49893e-05
0.000311529
0.000542946
0.000546879
0.000310482
3.50059e-05
3.49682e-05
0.000310105
0.000541381
0.000545422
0.000309153
3.49847e-05
3.49487e-05
0.000308883
0.00053987
0.000543632
0.000307871
3.49649e-05
3.49318e-05
0.000307599
0.00053837
0.000542273
0.000306684
3.49481e-05
3.49164e-05
0.000306511
0.000536925
0.000540594
0.000305539
3.49325e-05
3.49034e-05
0.000305356
0.000535488
0.000539366
0.000304477
3.49196e-05
3.48915e-05
0.000304391
0.000534095
0.00053784
0.000303463
3.49075e-05
3.48819e-05
0.000303353
0.000532723
0.00053675
0.000302541
3.48981e-05
3.48733e-05
0.000302499
0.000531426
0.00053532
0.000301637
3.48893e-05
3.48665e-05
0.000301566
0.000530152
0.000534323
0.000300817
3.48827e-05
3.48605e-05
0.000300813
0.000528957
0.000532983
0.000300011
3.48765e-05
3.48562e-05
0.000299976
0.000527778
0.000532074
0.000299282
3.48723e-05
3.48525e-05
0.000299313
0.000526676
0.000530815
0.000298564
3.48684e-05
3.48503e-05
0.000298562
0.000525584
0.000529988
0.000297917
3.48663e-05
3.48485e-05
0.000297979
0.000524569
0.000528813
0.000297276
3.48642e-05
3.4848e-05
0.000297304
0.000523564
0.000528065
0.000296703
3.48639e-05
3.48479e-05
0.000296792
0.000522631
0.000526967
0.000296131
3.48634e-05
3.48489e-05
0.000296185
0.000521707
0.000526298
0.000295622
3.48644e-05
3.48501e-05
0.000295737
0.000520857
0.000525275
0.000295113
3.48654e-05
3.48523e-05
0.000295192
0.000520018
0.000524661
0.000294663
3.48676e-05
3.48547e-05
0.000294802
0.000519244
0.000523693
0.000294209
3.48698e-05
3.4858e-05
0.000294311
0.000518488
0.000523133
0.000293811
3.48731e-05
3.48614e-05
0.000293972
0.000517789
0.00052224
0.000293406
3.48762e-05
3.48656e-05
0.000293529
0.000517097
0.000521738
0.000293054
3.48805e-05
3.48699e-05
0.000293236
0.000516449
0.000520895
0.000292694
3.48844e-05
3.48749e-05
0.000292837
0.000515811
0.000520453
0.000292384
3.48894e-05
3.48798e-05
0.000292583
0.000515228
0.000519676
0.000292063
3.48941e-05
3.48854e-05
0.000292222
0.000514645
0.00051928
0.000291788
3.48998e-05
3.4891e-05
0.000292004
0.000514092
0.000518533
0.000291503
3.49051e-05
3.48972e-05
0.000291676
0.000513527
0.000518177
0.00029126
3.49113e-05
3.49032e-05
0.000291488
0.000513035
0.000517503
0.000291004
3.4917e-05
3.49098e-05
0.000291189
0.000512539
0.000517202
0.000290789
3.49236e-05
3.49162e-05
0.000291029
0.000512079
0.00051654
0.000290561
3.49298e-05
3.49231e-05
0.000290759
0.000511593
0.000516262
0.000290374
3.49369e-05
3.493e-05
0.000290627
0.000511182
0.000515674
0.000290174
3.49437e-05
3.49374e-05
0.000290383
0.000510777
0.000515465
0.000290011
3.49514e-05
3.49449e-05
0.000290274
0.000510407
0.000514889
0.000289833
3.4959e-05
3.49531e-05
0.000290052
0.00051
0.000514683
0.000289692
3.49676e-05
3.49615e-05
0.000289964
0.000509656
0.000514159
0.000289534
3.4976e-05
3.49708e-05
0.00028976
0.00050931
0.000514005
0.000289408
3.49856e-05
3.49802e-05
0.000289685
0.000508991
0.000513474
0.000289259
3.49949e-05
3.49905e-05
0.00028949
0.000508619
0.000513291
0.00028914
3.50051e-05
3.50008e-05
0.000289411
0.000508241
0.000512824
0.000289006
3.50136e-05
3.50104e-05
0.000289294
0.000507993
0.00051251
0.000289074
3.50477e-05
3.50619e-05
0.000289291
0.000507837
0.000512359
0.000288826
3.50731e-05
3.50896e-05
0.000289197
0.000507566
0.000512527
0.000289018
3.51863e-05
3.51895e-05
0.000289702
0.000507542
0.000516089
0.000290418
3.54349e-05
3.55681e-05
0.000291457
0.000511204
0.000523249
0.000293904
3.60569e-05
3.62207e-05
0.000295599
0.000519807
0.00053559
0.000300893
3.75016e-05
3.88133e-05
0.000310182
0.000567865
0.000594836
0.000324531
4.05904e-05
0.000960117
0.00153199
0.00221478
0.00244265
0.00301388
0.00578295
0.0074839
0.00821153
0.00888101
0.0157547
0.019317
0.0235582
0.0290555
0.0372021
0.0501473
0.0701433
0.0995148
0.139859
0.192266
0.257088
0.334028
0.422069
0.519639
0.624332
0.73358
0.842721
0.948044
1.04147
1.11906
1.17537
1.21073
1.22747
1.24222
1.26868
1.30582
1.35234
1.40646
1.46808
1.53628
1.61249
1.69772
1.79443
1.9055
2.0352
2.18963
2.3785
1.68416
1.09966
0.816502
0.678928
0.598809
0.538214
0.484207
0.434467
0.389238
0.348458
0.311624
0.278234
0.247985
0.220721
0.196315
0.174602
0.155368
0.138373
0.12337
0.110132
0.0984525
0.0881519
0.0790709
0.07107
0.0640261
0.0578305
0.0523871
0.0476112
0.0434276
0.03977
0.0365795
0.0338041
0.0313974
0.0293178
0.0275289
0.0259981
0.0246964
0.0235985
0.022682
0.0219272
0.0213171
0.0208371
0.0204741
0.0202174
0.0200576
0.0199867
0.019998
0.0200859
0.0202457
0.0204736
0.0207664
0.0211215
0.0215371
0.0220117
0.0225444
0.0231346
0.0237821
0.024487
0.0252497
0.0260711
0.0269526
0.0278955
0.0289017
0.0299734
0.0311131
0.0323239
0.0336086
0.0349711
0.0364154
0.0379457
0.0395668
0.0412838
0.0431022
0.0450281
0.047068
0.0492293
0.0515207
0.0539515
0.0565328
0.059277
0.0621991
0.0653162
0.0686478
0.0722166
0.0760497
0.0801782
0.0846378
0.0894694
0.0947215
0.100451
0.106728
0.113638
0.121285
0.129803
0.139356
0.150156
0.162475
0.176674
0.193245
0.212878
0.236594
0.266003
0.30384
0.354868
0.428299
0.544144
0.749829
1.19708
2.51906
8.83653
68.552
22.01
6.2105
2.04234
0.887256
0.517877
0.384098
0.329499
0.300736
0.278739
0.257888
0.237722
0.2191
0.202596
0.18827
0.175896
0.16517
0.155809
0.147584
0.14032
0.133873
0.128126
0.122998
0.118419
0.114317
0.11063
0.107314
0.10433
0.101652
0.0992561
0.0971238
0.0952419
0.0935981
0.0921823
0.0909987
0.0900516
0.0893328
0.0888461
0.0885962
0.0885835
0.0888071
0.0892925
0.0900766
0.0911827
0.0926448
0.0945004
0.096802
0.0996201
0.103046
0.107178
0.11208
0.117696
0.123751
0.12982
0.136065
0.145265
0.165951
0.218117
0.346623
0.604131
0.565327
0.259858
0.0703354
0.0311325
0.0106117
0.00903624
0.00829861
0.00742644
0.00702831
0.0064623
0.00621394
0.00580337
0.00563312
0.0053173
0.00518959
0.00493789
0.00483826
0.0046304
0.00455014
0.00437323
0.00430702
0.0041529
0.00409711
0.00396049
0.00391235
0.00378978
0.00374726
0.00363611
0.00359801
0.00349601
0.00346144
0.00336697
0.00333526
0.00324705
0.00321766
0.00313466
0.00310714
0.00302849
0.00300247
0.00292742
0.00290255
0.00283047
0.00280646
0.00273676
0.00271336
0.00264554
0.00262251
0.00255614
0.00253329
0.00246798
0.0024451
0.00238045
0.00235728
0.00229284
0.00226909
0.0022043
0.00217976
0.00211418
0.00208846
0.0020214
0.00199402
0.00192462
0.00189496
0.00182214
0.0017893
0.00171156
0.00167417
0.00158925
0.001545
0.00144936
0.00139422
0.00128349
0.00120656
0.00104864
0.0009063
0.000736868
0.0005862
0.000400182
0.000342613
0.000354838
0.000430637
0.000519538
0.000177597
9.64375e-05
9.82407e-05
0.000152279
0.000240956
0.000269285
0.000351308
0.000380858
0.000408637
0.000395384
0.000381091
0.000347614
0.00033177
0.000316281
0.000321375
0.000334109
0.000351408
0.000383318
0.000410223
0.000450983
0.000481321
0.000525668
0.000554598
0.000597853
0.000621198
0.000657519
0.000673935
0.00069687
0.000704801
0.000714967
0.000709842
0.000707782
0.00069035
0.000676592
0.000638042
0.000611071
0.000548488
0.000507081
0.000417769
0.000368626
0.000269717
0.000224394
0.000135308
9.77248e-05
0.000129193
0.000166636
0.000332574
0.000212716
0.000384694
0.000588513
0.000721109
0.00046517
0.000653858
0.000909938
0.00120531
0.000765109
0.000488587
0.000220228
0.00028223
0.000631122
0.000862206
0.0011696
0.000785062
0.000360299
0.000434162
0.000883637
0.00124294
0.00163962
0.00209412
0.00166316
0.00103232
0.000733623
0.000887096
0.00115822
0.00125049
0.000927196
0.0010378
0.00143724
0.00192897
0.00208042
0.00140553
0.00105868
0.00113437
0.00156085
0.00150755
0.00114087
0.00119339
0.00163434
0.00216976
0.00221989
0.00155269
0.00118071
0.00121687
0.00166181
0.0015658
0.00118935
0.00120856
0.00165415
0.00221943
0.00219279
0.0015519
0.00117029
0.00117109
0.00162336
0.00151687
0.00112384
0.00111639
0.00157346
0.00212831
0.00202723
0.00146123
0.00105576
0.00104176
0.00150498
0.00137656
0.00097071
0.000953063
0.00141952
0.00174562
0.00145635
0.00128581
0.000878199
0.000860571
0.00132833
0.00120113
0.000793533
0.000782671
0.0012368
0.00108628
0.00066941
0.000982392
0.000741674
0.000748885
0.000970687
0.000644207
0.000747354
0.000685941
0.000683347
0.000506075
0.00076931
0.000428777
0.000772852
0.000689494
0.000629429
0.000406775
0.000792768
0.000419109
0.000411572
0.0009092
0.000994674
0.000286843
0.00033147
0.000203991
0.00029942
0.000386169
0.000168029
0.000125581
0.000524623
0.00145949
0.00196233
0.000734267
0.000253219
0.000494537
0.000936276
0.00112003
0.000596061
0.000696877
0.00118603
0.00282348
0.00392899
0.00155648
0.000698175
0.000742749
0.00165219
0.00241859
0.00101165
0.00115086
0.00235393
0.00508207
0.00635237
0.00326248
0.00156047
0.00174712
0.00316705
0.00395805
0.00215051
0.00229904
0.0039176
0.00748244
0.00852213
0.00461798
0.00262186
0.00271244
0.00453275
0.00535212
0.00299611
0.0030479
0.00505372
0.00949658
0.0104155
0.00585969
0.00330897
0.00333703
0.00551278
0.00632188
0.00358352
0.00359457
0.00593241
0.0112828
0.0121259
0.00675506
0.00383372
0.00383349
0.00632656
0.00716139
0.00406745
0.00405956
0.00670291
0.0129594
0.0137917
0.00755514
0.00428959
0.00427533
0.00706745
0.0079407
0.0045038
0.00448418
0.00742455
0.0146293
0.0154778
0.00832143
0.00471299
0.00468883
0.00777752
0.00869998
0.00491969
0.00489177
0.00812941
0.0163416
0.0172245
0.00907957
0.00512571
0.00509399
0.00848391
0.00946419
0.00533227
0.00529733
0.00884131
0.0181282
0.0190554
0.00985754
0.00554134
0.00550368
0.00920554
0.0102622
0.00575489
0.00571505
0.00958272
0.0200099
0.0209983
0.0106828
0.00597492
0.00593342
0.00997976
0.0111282
0.00620316
0.00616019
0.0103993
0.0220424
0.0231558
0.0116003
0.00644132
0.00639724
0.0108434
0.0121018
0.00669165
0.00664696
0.0113171
0.0243576
0.0256653
0.0126387
0.00695687
0.00691216
0.0118264
0.0132184
0.00724018
0.00719613
0.0123788
0.0271015
0.0286938
0.0138497
0.00754544
0.00750288
0.0129831
0.0145435
0.00787734
0.00783732
0.0136506
0.0304771
0.0324941
0.0153138
0.0082417
0.00820545
0.0143952
0.0161778
0.00864542
0.00861422
0.0152309
0.0347942
0.0374314
0.0171531
0.00909784
0.00907429
0.0161766
0.0182742
0.00961307
0.00960055
0.0172719
0.0405131
0.0441996
0.0195855
0.0102096
0.010213
0.0185641
0.0211492
0.0109133
0.0109401
0.0201241
0.0487208
0.0544162
0.023059
0.0117617
0.0118234
0.0220595
0.0254671
0.0128187
0.012951
0.0245429
0.0618369
0.0719429
0.0286059
0.0141827
0.014431
0.0278532
0.032922
0.0160384
0.0164819
0.0325573
0.0866188
0.110213
0.0392584
0.018729
0.019617
0.0399097
0.0495945
0.0229651
0.0251486
0.0536157
0.154508
0.339691
0.23806
0.184006
0.150867
0.128286
0.11178
0.099122
0.0890862
0.0808956