/*--------------------------------*- C++ -*----------------------------------*\
| =========                 |                                                 |
| \\      /  F ield         | OpenFOAM: The Open Source CFD Toolbox           |
|  \\    /   O peration     | Version:  v2006                                 |
|   \\  /    A nd           | Website:  www.openfoam.com                      |
|    \\/     M anipulation  |                                                 |
\*---------------------------------------------------------------------------*/
FoamFile
{
    version     2.0;
    format      ascii;
    class       volScalarField;
    location    "0.044";
    object      rho;
}
// * * * * * * * * * * * * * * * * * * * * * * * * * * * * * * * * * * * * * //

dimensions      [1 -3 0 0 0 0 0];


internalField   nonuniform List<scalar> 
9148
(
1.71417
1.71421
1.71419
1.7142
1.7142
1.71424
1.71432
1.71442
1.71454
1.71466
1.71479
1.71492
1.71506
1.71521
1.71537
1.71553
1.71571
1.71589
1.71608
1.71628
1.71649
1.71671
1.71693
1.71716
1.71739
1.71763
1.71787
1.71812
1.71837
1.71862
1.71888
1.71914
1.7194
1.71966
1.71992
1.72018
1.72044
1.72069
1.72095
1.7212
1.72145
1.72169
1.72193
1.72216
1.72239
1.72262
1.72283
1.72304
1.72324
1.72343
1.72362
1.72379
1.72396
1.72412
1.72426
1.7244
1.72453
1.72464
1.72474
1.72482
1.72489
1.72494
1.72499
1.72501
1.72498
1.72499
1.72503
1.72509
1.72526
1.72551
1.72564
1.72552
1.72524
1.72552
1.72555
1.72546
1.72538
1.72504
1.72486
1.72525
1.72536
1.72525
1.72512
1.7247
1.72459
1.72502
1.72516
1.72509
1.72493
1.72451
1.72445
1.72487
1.72504
1.725
1.72482
1.7244
1.72438
1.72478
1.72496
1.72494
1.72475
1.72436
1.72435
1.72473
1.72492
1.72492
1.72473
1.72436
1.72437
1.72473
1.72491
1.72492
1.72474
1.7244
1.72442
1.72475
1.72494
1.72496
1.72478
1.72446
1.7245
1.7248
1.72499
1.72502
1.72485
1.72456
1.72461
1.72489
1.72506
1.72511
1.72494
1.72468
1.72474
1.72499
1.72516
1.72522
1.72506
1.72482
1.72489
1.72512
1.72529
1.72536
1.7252
1.72498
1.72506
1.72527
1.72543
1.72551
1.72536
1.72516
1.72525
1.72544
1.72559
1.72569
1.72554
1.72536
1.72546
1.72563
1.72577
1.72587
1.72574
1.72557
1.72568
1.72584
1.72597
1.72608
1.72595
1.72581
1.72592
1.72606
1.72618
1.72631
1.72619
1.72606
1.72618
1.7263
1.72642
1.72655
1.72645
1.72633
1.72647
1.72657
1.72668
1.72683
1.72673
1.72663
1.72678
1.72687
1.72697
1.72713
1.72704
1.72695
1.72711
1.72719
1.72728
1.72745
1.72737
1.7273
1.72747
1.72753
1.72762
1.7278
1.72772
1.72767
1.72785
1.7279
1.72797
1.72816
1.7281
1.72806
1.72825
1.72828
1.72835
1.72855
1.72849
1.72846
1.72866
1.72869
1.72874
1.72895
1.7289
1.72888
1.7291
1.72911
1.72915
1.72937
1.72933
1.72933
1.72956
1.72955
1.72959
1.72983
1.7298
1.72981
1.73005
1.73003
1.73006
1.73031
1.73029
1.73032
1.73059
1.73055
1.73056
1.73084
1.73083
1.73087
1.73117
1.73111
1.73111
1.73141
1.73141
1.73147
1.73179
1.73172
1.73171
1.73202
1.73204
1.73211
1.73244
1.73237
1.73234
1.73268
1.7327
1.73277
1.73313
1.73305
1.73302
1.73336
1.73339
1.73347
1.73385
1.73376
1.73372
1.73407
1.73411
1.7342
1.73461
1.73451
1.73446
1.73483
1.73488
1.73498
1.73543
1.73531
1.73525
1.73564
1.73572
1.73584
1.73632
1.7362
1.7361
1.73651
1.73661
1.73673
1.73737
1.73727
1.73706
1.73716
1.73658
1.73458
1.7336
1.73432
1.73653
1.7348
1.73385
1.73365
1.73362
1.73387
1.7343
1.73445
1.73403
1.73372
1.73382
1.73416
1.73461
1.73452
1.73421
1.7341
1.73434
1.73434
1.73438
1.73424
1.73421
1.73417
1.73431
1.73434
1.7344
1.73422
1.73419
1.73416
1.73426
1.73428
1.7343
1.73415
1.73415
1.73413
1.73417
1.7342
1.73421
1.73415
1.73415
1.73411
1.73419
1.73425
1.73425
1.73431
1.7343
1.73424
1.73435
1.73442
1.73442
1.7345
1.7345
1.73441
1.73449
1.73459
1.73459
1.73465
1.73467
1.73457
1.73468
1.73474
1.73472
1.73478
1.7348
1.73475
1.73482
1.73485
1.73481
1.7348
1.73485
1.73487
1.73488
1.73483
1.73476
1.73472
1.73478
1.73485
1.7348
1.73473
1.73468
1.73465
1.73468
1.73474
1.73469
1.73465
1.73462
1.73462
1.73463
1.73464
1.73462
1.73463
1.73464
1.73468
1.73466
1.73463
1.73466
1.73472
1.73474
1.73481
1.73479
1.73472
1.73478
1.73486
1.73489
1.73498
1.73494
1.73485
1.73493
1.73502
1.73507
1.73516
1.73511
1.73501
1.73509
1.73519
1.73525
1.73535
1.73528
1.73517
1.73524
1.73536
1.73544
1.73553
1.73544
1.73532
1.73538
1.73551
1.73561
1.73569
1.73558
1.73545
1.7355
1.73563
1.73575
1.73583
1.73569
1.73555
1.73558
1.73571
1.73587
1.73592
1.73576
1.73562
1.73563
1.73575
1.73592
1.73592
1.73575
1.73564
1.7356
1.7357
1.73587
1.73624
1.73649
1.73644
1.73626
1.73606
1.73594
1.73587
1.73582
1.73579
1.73575
1.73575
1.73576
1.73581
1.73589
1.73602
1.73617
1.73634
1.73649
1.73661
1.73668
1.73675
1.73677
1.73682
1.73679
1.73682
1.73684
1.73683
1.73687
1.73678
1.73687
1.7362
1.7354
1.74025
1.73831
1.73625
1.73631
1.73636
1.7365
1.73734
1.73715
1.73676
1.73666
1.73677
1.73708
1.737
1.73709
1.73712
1.73695
1.73682
1.73707
1.73713
1.737
1.73705
1.73655
1.73646
1.73673
1.73682
1.7367
1.73665
1.73649
1.73661
1.73642
1.73651
1.73646
1.73644
1.73631
1.73617
1.73618
1.73588
1.73585
1.73577
1.73599
1.73651
1.73557
1.73539
1.73508
1.73601
1.73664
1.73663
1.73617
1.73582
1.73592
1.73624
1.73655
1.73655
1.73615
1.73608
1.73591
1.73624
1.73653
1.73656
1.73617
1.73603
1.73623
1.7365
1.73632
1.73623
1.73654
1.73629
1.73631
1.73643
1.73626
1.7362
1.73647
1.73624
1.73626
1.73644
1.73626
1.73624
1.73657
1.73622
1.73636
1.7363
1.73642
1.73648
1.7362
1.73638
1.73633
1.73629
1.73643
1.73648
1.7362
1.73637
1.73636
1.7364
1.73644
1.73652
1.73651
1.73643
1.73654
1.73663
1.73664
1.7368
1.73678
1.73667
1.73683
1.73695
1.73696
1.73716
1.73714
1.73702
1.73721
1.73734
1.73735
1.73756
1.73756
1.73743
1.73771
1.73779
1.73777
1.73801
1.73805
1.73807
1.73811
1.73849
1.73825
1.73932
1.74091
1.73529
1.73886
1.73875
1.7388
1.73892
1.73905
1.73913
1.7394
1.73928
1.73914
1.73931
1.73947
1.73963
1.73981
1.73976
1.73945
1.73979
1.74107
1.73975
1.73983
1.73986
1.73957
1.73962
1.74
1.7404
1.73943
1.73919
1.73916
1.73822
1.73947
1.7398
1.73758
1.7369
1.73599
1.73386
1.73336
1.73463
1.72146
1.73198
1.72981
1.71616
1.7157
1.71177
1.69289
1.7046
1.70674
1.68744
1.6875
1.66728
1.65273
1.67237
1.68047
1.67807
1.67353
1.66688
1.67552
1.68079
1.68432
1.68575
1.68197
1.67755
1.68031
1.6831
1.68551
1.69107
1.6894
1.68689
1.68886
1.68999
1.69152
1.69585
1.69463
1.69294
1.69361
1.6943
1.69563
1.69942
1.69849
1.69707
1.69824
1.69838
1.69981
1.69964
1.7001
1.6978
1.70196
1.70142
1.7022
1.70236
1.70119
1.70216
1.70398
1.70418
1.7047
1.70479
1.70442
1.704
1.70434
1.70421
1.70485
1.70669
1.70637
1.70599
1.70543
1.70631
1.70628
1.70782
1.70769
1.7071
1.70693
1.70709
1.70741
1.70885
1.70865
1.70829
1.70821
1.70847
1.70876
1.70854
1.70816
1.70821
1.70933
1.70972
1.7099
1.70956
1.70935
1.70918
1.70998
1.71036
1.71044
1.70994
1.70969
1.7095
1.71054
1.7109
1.71097
1.71044
1.71018
1.71002
1.71112
1.71143
1.71152
1.71107
1.71084
1.71075
1.71143
1.71185
1.71196
1.71165
1.71149
1.71132
1.71109
1.71095
1.71126
1.71247
1.71205
1.71176
1.70998
1.71221
1.71206
1.71257
1.71309
1.71134
1.71066
1.71181
1.71191
1.71274
1.71219
1.71222
1.7119
1.71152
1.71194
1.71258
1.71244
1.71217
1.71148
1.71155
1.7119
1.71275
1.71266
1.71245
1.71173
1.71185
1.71208
1.7125
1.71241
1.71199
1.7114
1.71165
1.71185
1.71263
1.71262
1.71221
1.7114
1.71165
1.71189
1.71233
1.71223
1.71175
1.71112
1.7114
1.71163
1.71233
1.71233
1.71189
1.71109
1.71135
1.71158
1.71196
1.71188
1.71137
1.7107
1.711
1.71121
1.71186
1.71187
1.71143
1.71053
1.71082
1.71105
1.71136
1.71128
1.71067
1.70992
1.7103
1.71052
1.71118
1.71121
1.71071
1.70957
1.71015
1.71033
1.71072
1.7108
1.70996
1.70796
1.70989
1.70989
1.71087
1.7091
1.70998
1.70907
1.71071
1.71097
1.70931
1.70921
1.70794
1.70891
1.70956
1.70959
1.70873
1.70853
1.70824
1.7089
1.70932
1.70933
1.70839
1.7082
1.7079
1.70791
1.70856
1.70865
1.70763
1.70733
1.70691
1.70736
1.70794
1.70803
1.70717
1.707
1.70665
1.70697
1.70756
1.70759
1.70644
1.70619
1.70565
1.70582
1.70656
1.70663
1.70551
1.70513
1.70471
1.70529
1.70591
1.70595
1.70597
1.70588
1.70508
1.70371
1.70432
1.70459
1.70501
1.70492
1.70429
1.70324
1.70369
1.70392
1.70441
1.70437
1.70372
1.70259
1.70305
1.70326
1.70346
1.70341
1.70278
1.70137
1.70192
1.7022
1.70252
1.70249
1.70174
1.70105
1.70116
1.70127
1.70098
1.70158
1.70106
1.70111
1.70095
1.70106
1.69971
1.69944
1.69963
1.69948
1.70004
1.70016
1.69899
1.69874
1.69812
1.69866
1.69938
1.69947
1.69824
1.69795
1.69741
1.69727
1.69806
1.69828
1.6969
1.6966
1.69586
1.69635
1.69712
1.69722
1.69588
1.69555
1.69452
1.69462
1.69552
1.6957
1.6956
1.69541
1.69493
1.69299
1.69363
1.69385
1.69423
1.69411
1.69359
1.69174
1.69248
1.69278
1.69298
1.6928
1.69203
1.69036
1.69116
1.69152
1.69155
1.69133
1.69074
1.6882
1.68972
1.69019
1.69025
1.68985
1.68846
1.68779
1.69007
1.69002
1.68813
1.68785
1.68652
1.68674
1.68803
1.68805
1.68639
1.68584
1.68508
1.68546
1.6864
1.68647
1.6848
1.68447
1.68364
1.68389
1.68498
1.68497
1.68334
1.68287
1.68209
1.68225
1.68311
1.68316
1.68132
1.68077
1.67962
1.67963
1.68091
1.68163
1.68136
1.68137
1.67885
1.67732
1.67881
1.67916
1.67891
1.67891
1.67739
1.67553
1.6764
1.67697
1.67668
1.67641
1.67514
1.6731
1.67414
1.67469
1.67498
1.67501
1.67372
1.67175
1.67276
1.67318
1.67281
1.67278
1.67142
1.66918
1.67016
1.67072
1.67049
1.66997
1.669
1.66783
1.66964
1.66989
1.66728
1.66658
1.66512
1.66598
1.66737
1.66749
1.66549
1.6649
1.66379
1.66371
1.66498
1.66503
1.66271
1.66205
1.66096
1.65956
1.66127
1.66172
1.65932
1.65844
1.65697
1.65852
1.65984
1.65984
1.65748
1.65686
1.65558
1.65479
1.65618
1.6567
1.65591
1.65585
1.65394
1.64942
1.65131
1.65244
1.65185
1.65155
1.64984
1.64719
1.64858
1.64938
1.64925
1.64918
1.64762
1.64474
1.64599
1.64656
1.64545
1.6453
1.6438
1.6395
1.64118
1.64219
1.64109
1.64048
1.6385
1.63579
1.63741
1.63835
1.63849
1.63849
1.63669
1.63352
1.63503
1.63569
1.63445
1.63442
1.63269
1.62777
1.62969
1.63079
1.62893
1.62818
1.62573
1.62253
1.62456
1.62569
1.62585
1.62587
1.62383
1.62016
1.62192
1.62281
1.62091
1.62097
1.61884
1.61287
1.61507
1.61643
1.61402
1.61303
1.6101
1.60654
1.60908
1.61053
1.61061
1.60939
1.60754
1.60548
1.60884
1.6094
1.60411
1.6032
1.59975
1.59674
1.59948
1.60022
1.59515
1.59329
1.59011
1.59237
1.59435
1.59461
1.59201
1.59097
1.58908
1.58317
1.58455
1.58546
1.58278
1.58256
1.58078
1.56884
1.5727
1.57579
1.57474
1.57393
1.57008
1.56618
1.56905
1.57067
1.56864
1.56869
1.5654
1.5571
1.56072
1.56292
1.5546
1.55262
1.54706
1.54141
1.54602
1.54801
1.54805
1.54771
1.54448
1.53852
1.5418
1.54294
1.53621
1.53603
1.5318
1.51388
1.52145
1.52637
1.52184
1.52067
1.51656
1.51298
1.51734
1.52003
1.50754
1.50712
1.50372
1.48832
1.49329
1.49666
1.48684
1.48227
1.47425
1.47818
1.48275
1.48326
1.47754
1.47414
1.46871
1.44957
1.45879
1.46159
1.45105
1.44485
1.43528
1.42832
1.43302
1.43691
1.42417
1.42223
1.41508
1.3881
1.4031
1.41028
1.39511
1.38906
1.37864
1.36846
1.37665
1.37953
1.36607
1.35628
1.33616
1.33639
1.34537
1.34993
1.32206
1.30933
1.28701
1.30009
1.31038
1.31798
1.3135
1.29918
1.26766
1.26253
1.29553
1.3077
1.30644
1.29482
1.25971
1.28662
1.31478
1.31903
1.35983
1.35767
1.33656
1.37201
1.38997
1.39487
1.41376
1.40665
1.39009
1.40275
1.41696
1.42528
1.43413
1.42478
1.41216
1.42184
1.43244
1.44199
1.44847
1.4385
1.42944
1.4369
1.44443
1.45398
1.45847
1.44895
1.4427
1.44846
1.45377
1.46258
1.46612
1.45753
1.45321
1.45796
1.46164
1.46944
1.47233
1.46494
1.46206
1.46609
1.46853
1.4751
1.47758
1.47155
1.46968
1.47306
1.47465
1.47999
1.48225
1.47742
1.47611
1.47897
1.4801
1.48444
1.48655
1.48256
1.48163
1.48409
1.48487
1.48844
1.49041
1.48708
1.48647
1.48862
1.48912
1.4921
1.494
1.49116
1.49075
1.49266
1.49297
1.49554
1.49739
1.49486
1.49461
1.49632
1.49652
1.49881
1.50058
1.49831
1.49813
1.49966
1.49984
1.50193
1.50362
1.50151
1.50133
1.50273
1.50295
1.50493
1.50654
1.50455
1.5043
1.50557
1.50588
1.50776
1.50925
1.50738
1.50704
1.50822
1.50862
1.51041
1.51181
1.51003
1.50959
1.51072
1.5112
1.51289
1.51418
1.5125
1.51197
1.51303
1.51358
1.51515
1.51642
1.51483
1.51422
1.51523
1.51585
1.51728
1.51847
1.51699
1.51632
1.51728
1.51795
1.51925
1.52039
1.51903
1.51833
1.51923
1.51993
1.52112
1.52218
1.52092
1.5202
1.52105
1.52175
1.52285
1.52386
1.5227
1.52198
1.52278
1.52348
1.52447
1.52539
1.52434
1.52363
1.52438
1.52506
1.52595
1.52683
1.52588
1.5252
1.52591
1.52656
1.52736
1.52814
1.5273
1.52665
1.52731
1.52792
1.52863
1.52939
1.52864
1.52803
1.52865
1.52922
1.52985
1.53052
1.52986
1.52929
1.52987
1.5304
1.53096
1.53161
1.53102
1.53049
1.53103
1.53152
1.53203
1.53261
1.53208
1.53159
1.53209
1.53255
1.53299
1.53356
1.53309
1.53264
1.5331
1.53352
1.53392
1.53443
1.53401
1.53359
1.53402
1.53441
1.53477
1.53527
1.53488
1.5345
1.5349
1.53526
1.53558
1.53603
1.53569
1.53533
1.5357
1.53604
1.53632
1.53677
1.53645
1.53612
1.53646
1.53677
1.53703
1.53744
1.53715
1.53684
1.53715
1.53745
1.53769
1.53808
1.53781
1.53752
1.53782
1.53809
1.53831
1.53867
1.53843
1.53815
1.53842
1.53868
1.53889
1.53924
1.53901
1.53874
1.539
1.53925
1.53944
1.53976
1.53954
1.53929
1.53952
1.53976
1.53994
1.54025
1.54004
1.5398
1.54002
1.54025
1.54042
1.54071
1.54051
1.54027
1.54047
1.5407
1.54087
1.54115
1.54095
1.54072
1.5409
1.54113
1.54129
1.54155
1.54136
1.54113
1.5413
1.54152
1.54168
1.54194
1.54174
1.54152
1.54168
1.5419
1.54206
1.54229
1.5421
1.54188
1.54202
1.54224
1.5424
1.54264
1.54244
1.54222
1.54236
1.54258
1.54273
1.54295
1.54276
1.54254
1.54266
1.54288
1.54304
1.54325
1.54306
1.54284
1.54296
1.54318
1.54333
1.54353
1.54334
1.54312
1.54322
1.54344
1.5436
1.5438
1.54361
1.54339
1.54349
1.5437
1.54386
1.54405
1.54386
1.54364
1.54372
1.54394
1.5441
1.54429
1.5441
1.54387
1.54396
1.54418
1.54434
1.54451
1.54432
1.5441
1.54417
1.54439
1.54455
1.54472
1.54453
1.54431
1.54439
1.5446
1.54476
1.54492
1.54473
1.54451
1.54458
1.54479
1.54495
1.54511
1.54492
1.54471
1.54477
1.54498
1.54514
1.54529
1.5451
1.54489
1.54494
1.54515
1.54531
1.54546
1.54527
1.54506
1.54511
1.54532
1.54548
1.54562
1.54543
1.54522
1.54527
1.54548
1.54563
1.54578
1.54558
1.54538
1.54542
1.54563
1.54579
1.54592
1.54573
1.54552
1.54556
1.54577
1.54593
1.54606
1.54587
1.54566
1.54569
1.5459
1.54606
1.54619
1.54599
1.54579
1.54582
1.54603
1.54619
1.54631
1.54612
1.54592
1.54594
1.54615
1.54631
1.54643
1.54624
1.54603
1.54606
1.54626
1.54643
1.54655
1.54635
1.54615
1.54617
1.54638
1.54654
1.54665
1.54645
1.54625
1.54627
1.54648
1.54665
1.54675
1.54656
1.54635
1.54637
1.54658
1.54675
1.54685
1.54665
1.54645
1.54646
1.54667
1.54684
1.54694
1.54674
1.54654
1.54655
1.54676
1.54693
1.54703
1.54683
1.54663
1.54664
1.54684
1.54702
1.54711
1.54691
1.54671
1.54672
1.54693
1.5471
1.54719
1.54699
1.54679
1.54679
1.547
1.54718
1.54726
1.54706
1.54687
1.54687
1.54708
1.54725
1.54734
1.54713
1.54694
1.54694
1.54714
1.54732
1.5474
1.5472
1.54701
1.54701
1.54721
1.54739
1.54747
1.54727
1.54707
1.54707
1.54727
1.54745
1.54753
1.54733
1.54713
1.54713
1.54733
1.54752
1.54759
1.54739
1.54719
1.54719
1.54739
1.54757
1.54765
1.54744
1.54725
1.54724
1.54745
1.54763
1.5477
1.54749
1.5473
1.54729
1.54749
1.54768
1.54775
1.54754
1.54735
1.54734
1.54754
1.54773
1.5478
1.54759
1.54739
1.54738
1.54759
1.54777
1.54784
1.54763
1.54744
1.54743
1.54763
1.54782
1.54788
1.54767
1.54747
1.54746
1.54766
1.54785
1.54791
1.5477
1.54751
1.5475
1.5477
1.54789
1.54794
1.54773
1.54754
1.54752
1.54772
1.54791
1.54797
1.54776
1.54757
1.54755
1.54775
1.54794
1.54799
1.54778
1.54759
1.54757
1.54777
1.54796
1.54801
1.5478
1.54761
1.54759
1.54779
1.54798
1.54803
1.54782
1.54762
1.5476
1.5478
1.54799
1.54804
1.54783
1.54764
1.54762
1.54782
1.54801
1.54806
1.54785
1.54766
1.54763
1.54783
1.54802
1.54809
1.54787
1.54768
1.54766
1.54786
1.54806
1.54812
1.54789
1.5477
1.54768
1.54789
1.54808
1.54818
1.54795
1.54776
1.54775
1.54796
1.54817
1.54829
1.54806
1.54786
1.54787
1.54809
1.5483
1.54847
1.54821
1.54798
1.54804
1.54826
1.54853
1.54918
1.54873
1.54847
1.54936
1.5496
1.55006
1.5501
1.54976
1.54963
1.5506
1.55364
1.55465
1.55455
1.55759
1.56062
1.56126
1.56114
1.56338
1.56515
1.56664
1.56768
1.56866
1.56953
1.57026
1.57081
1.57119
1.57145
1.57162
1.57174
1.57181
1.57186
1.57189
1.57191
1.57191
1.57191
1.5719
1.57188
1.57186
1.57186
1.57184
1.57184
1.57194
1.57199
1.57203
1.5721
1.57217
1.57228
1.5724
1.57256
1.57274
1.57295
1.57318
1.57341
1.57362
1.57377
1.57385
1.5739
1.57398
1.57409
1.57421
1.57436
1.57451
1.57468
1.57486
1.57505
1.57527
1.57551
1.57579
1.57611
1.57648
1.5769
1.57738
1.57793
1.57855
1.57926
1.58005
1.58095
1.58196
1.58309
1.58435
1.58575
1.5873
1.589
1.59086
1.59289
1.59509
1.59745
1.59998
1.60268
1.60552
1.6085
1.6116
1.61482
1.61812
1.62148
1.6249
1.62834
1.63179
1.63523
1.63864
1.64201
1.64532
1.64855
1.65171
1.65478
1.65775
1.66062
1.66339
1.66605
1.6686
1.67105
1.67339
1.67563
1.67776
1.6798
1.68174
1.68358
1.68534
1.68701
1.68859
1.6901
1.69152
1.69288
1.69417
1.69539
1.69655
1.69765
1.69869
1.69968
1.70061
1.7015
1.70235
1.70315
1.7039
1.70462
1.7053
1.70594
1.70654
1.70712
1.70766
1.70817
1.70865
1.7091
1.70953
1.70994
1.71032
1.71068
1.71102
1.71133
1.71163
1.71191
1.71217
1.71241
1.71263
1.71283
1.71302
1.71319
1.71335
1.71349
1.71361
1.71371
1.7138
1.71391
1.71406
1.71416
1.7142
1.71417
1.71427
1.7145
1.71465
1.71475
1.71484
1.71493
1.71503
1.71514
1.71526
1.71539
1.71553
1.71567
1.71583
1.716
1.71618
1.71637
1.71657
1.71678
1.71699
1.71721
1.71744
1.71767
1.71791
1.71816
1.7184
1.71865
1.71891
1.71916
1.71942
1.71968
1.71993
1.72019
1.72045
1.7207
1.72096
1.72121
1.72145
1.72169
1.72193
1.72216
1.72238
1.7226
1.72281
1.72302
1.72321
1.7234
1.72358
1.72375
1.72391
1.72406
1.7242
1.72433
1.72445
1.72456
1.72467
1.72477
1.72487
1.72494
1.72499
1.72509
1.7252
1.72523
1.72524
1.72519
1.72515
1.72512
1.7251
1.72508
1.72507
1.72507
1.72508
1.72509
1.72511
1.72514
1.72517
1.7252
1.72525
1.72529
1.72535
1.72541
1.72547
1.72554
1.72561
1.72569
1.72578
1.72586
1.72595
1.72605
1.72614
1.72625
1.72635
1.72647
1.72659
1.72671
1.72684
1.72698
1.72712
1.72727
1.72743
1.72759
1.72775
1.72793
1.7281
1.72829
1.72847
1.72866
1.72885
1.72905
1.72926
1.72947
1.72968
1.72991
1.73014
1.73039
1.73064
1.7309
1.73117
1.73146
1.73175
1.73206
1.73237
1.7327
1.73303
1.73337
1.73372
1.73408
1.73444
1.73481
1.7352
1.73559
1.73601
1.7364
1.73679
1.73702
1.73705
1.73684
1.73636
1.73608
1.73616
1.73595
1.73478
1.73426
1.7344
1.73419
1.73435
1.73413
1.73422
1.73409
1.73421
1.73424
1.73437
1.73443
1.73452
1.73457
1.73465
1.73469
1.73472
1.73471
1.73469
1.73466
1.73463
1.73461
1.7346
1.7346
1.73463
1.73468
1.73474
1.73482
1.7349
1.73499
1.73509
1.7352
1.7353
1.73541
1.73552
1.73563
1.73574
1.73585
1.73594
1.73605
1.73613
1.73622
1.73626
1.73628
1.7365
1.73643
1.73637
1.73645
1.73639
1.7363
1.73621
1.73628
1.73619
1.73609
1.73584
1.7361
1.73617
1.73624
1.73603
1.73595
1.73584
1.73567
1.73577
1.73588
1.73578
1.73566
1.73553
1.73543
1.73516
1.73561
1.73597
1.73605
1.73593
1.73582
1.7357
1.73579
1.73567
1.73555
1.73533
1.73509
1.73544
1.73554
1.73541
1.73529
1.73519
1.73529
1.73517
1.73506
1.73488
1.73471
1.73498
1.73507
1.73496
1.73486
1.7348
1.73487
1.73478
1.73471
1.73461
1.73451
1.73466
1.73471
1.73464
1.73459
1.73456
1.7346
1.73456
1.73452
1.73445
1.73443
1.73453
1.73456
1.73456
1.73451
1.73455
1.73458
1.73459
1.73453
1.73442
1.73442
1.73457
1.73462
1.73462
1.73454
1.73457
1.73463
1.73458
1.73451
1.73441
1.73429
1.73455
1.73455
1.73448
1.73441
1.73448
1.73446
1.73436
1.73425
1.73448
1.73475
1.73437
1.73435
1.7342
1.73387
1.73419
1.73417
1.734
1.73364
1.73483
1.73593
1.73448
1.73417
1.73399
1.7339
1.73503
1.7343
1.73434
1.73505
1.73697
1.73745
1.73702
1.73505
1.73532
1.73685
1.73777
1.73673
1.737
1.73727
1.73742
1.73717
1.73747
1.73706
1.73698
1.7371
1.73718
1.73709
1.73704
1.73695
1.7369
1.73658
1.73694
1.73701
1.73685
1.73667
1.73657
1.73663
1.7363
1.73617
1.73616
1.73562
1.73596
1.73595
1.73557
1.73552
1.73528
1.73521
1.73483
1.73484
1.73502
1.7344
1.73458
1.73447
1.73411
1.73416
1.7339
1.73377
1.73343
1.7335
1.73377
1.73315
1.73324
1.73309
1.73277
1.73285
1.7326
1.73245
1.73214
1.73223
1.73255
1.73197
1.732
1.73184
1.73155
1.73165
1.73143
1.73126
1.731
1.73111
1.73143
1.73092
1.73091
1.73073
1.73049
1.7306
1.73042
1.73024
1.73002
1.73013
1.73045
1.73001
1.72997
1.72979
1.72958
1.7297
1.72954
1.72937
1.72917
1.72928
1.72959
1.72919
1.72913
1.72897
1.72878
1.72889
1.72875
1.72859
1.7284
1.72852
1.72881
1.72845
1.72838
1.72823
1.72805
1.72816
1.72803
1.72788
1.72771
1.72782
1.7281
1.72777
1.7277
1.72755
1.72739
1.72751
1.72739
1.72725
1.7271
1.72721
1.72747
1.72719
1.72711
1.72697
1.72684
1.72695
1.72685
1.72672
1.72659
1.7267
1.72694
1.7267
1.72662
1.72649
1.72637
1.72648
1.7264
1.72628
1.72617
1.72627
1.72649
1.72628
1.7262
1.72608
1.72598
1.72608
1.72602
1.7259
1.72581
1.7259
1.72609
1.72592
1.72584
1.72574
1.72566
1.72574
1.72569
1.72559
1.72552
1.7256
1.72576
1.72562
1.72555
1.72546
1.7254
1.72547
1.72544
1.72535
1.7253
1.72537
1.7255
1.7254
1.72534
1.72527
1.72523
1.72529
1.72526
1.7252
1.72517
1.72523
1.72532
1.72526
1.72521
1.72516
1.72514
1.72518
1.72518
1.72514
1.72514
1.72517
1.72521
1.72518
1.72517
1.72514
1.72516
1.72517
1.72518
1.72518
1.7252
1.72519
1.72515
1.72508
1.72518
1.72526
1.72532
1.7254
1.72549
1.7256
1.72573
1.72587
1.72603
1.72621
1.7264
1.7266
1.72681
1.72705
1.7273
1.72757
1.72786
1.72818
1.72852
1.72887
1.72924
1.72963
1.73004
1.73046
1.73091
1.7314
1.73191
1.73246
1.73302
1.7336
1.73419
1.73477
1.73532
1.73584
1.7363
1.7367
1.73707
1.73739
1.73763
1.73772
1.73753
1.73705
1.73613
1.73503
1.73462
1.73435
1.73423
1.73422
1.73422
1.73423
1.73428
1.73435
1.73443
1.73455
1.7347
1.7349
1.7346
1.73487
1.73516
1.73542
1.73556
1.7357
1.73564
1.73549
1.73535
1.73527
1.73542
1.73559
1.73556
1.7354
1.73524
1.73502
1.73473
1.73471
1.73498
1.73521
1.73538
1.73556
1.73559
1.73541
1.73524
1.73528
1.73547
1.73565
1.73576
1.73558
1.73539
1.73508
1.73482
1.73454
1.73443
1.73446
1.73423
1.7344
1.73424
1.73412
1.73389
1.73403
1.73394
1.73417
1.73428
1.73405
1.73388
1.73377
1.73368
1.7338
1.73403
1.734
1.73377
1.73376
1.73398
1.73399
1.73382
1.73388
1.73375
1.73368
1.73387
1.73382
1.73442
1.73443
1.73453
1.73471
1.73493
1.73517
1.73541
1.73554
1.73572
1.7359
1.73606
1.73588
1.73572
1.73594
1.73608
1.73622
1.73637
1.73621
1.73607
1.73584
1.73571
1.73611
1.73619
1.73619
1.73626
1.73637
1.73651
1.73677
1.73674
1.73682
1.73676
1.73704
1.73685
1.73676
1.73673
1.73673
1.73675
1.73676
1.73652
1.73639
1.7367
1.7367
1.73676
1.73681
1.73677
1.73651
1.73647
1.73632
1.73627
1.73628
1.73634
1.73612
1.73601
1.73558
1.73547
1.73536
1.73531
1.73581
1.73588
1.73581
1.73591
1.73589
1.736
1.73623
1.73627
1.73638
1.73643
1.73645
1.73634
1.73626
1.73623
1.73632
1.73635
1.73646
1.73658
1.73638
1.73622
1.73617
1.7362
1.73641
1.73648
1.73644
1.73639
1.73637
1.73633
1.73633
1.73636
1.73636
1.73634
1.73628
1.73616
1.73614
1.73625
1.73629
1.73633
1.73631
1.73631
1.73626
1.73622
1.7361
1.73613
1.73612
1.7362
1.73593
1.73591
1.73532
1.73545
1.73451
1.73476
1.73401
1.73428
1.73486
1.73419
1.73394
1.734
1.73414
1.73428
1.73513
1.73447
1.7353
1.73626
1.73681
1.73597
1.73492
1.73571
1.73656
1.73691
1.73671
1.73682
1.73648
1.73579
1.73519
1.73617
1.73572
1.73664
1.73645
1.73619
1.73611
1.73644
1.73628
1.73635
1.73634
1.73627
1.73629
1.73623
1.73625
1.73622
1.73625
1.7363
1.73628
1.73628
1.73631
1.73631
1.73634
1.73634
1.73638
1.73642
1.73652
1.73648
1.73653
1.7367
1.73677
1.73662
1.73692
1.73678
1.73664
1.73693
1.7371
1.73699
1.73711
1.73728
1.73749
1.73731
1.73746
1.73722
1.73751
1.73688
1.73719
1.73721
1.73785
1.73779
1.73818
1.73798
1.73785
1.73768
1.73792
1.73769
1.73808
1.73826
1.73849
1.7383
1.7387
1.73845
1.73859
1.73827
1.73842
1.73829
1.73873
1.73874
1.73905
1.73888
1.73902
1.73937
1.73917
1.739
1.73878
1.73851
1.7381
1.73746
1.73682
1.73684
1.73669
1.73622
1.73531
1.73659
1.7375
1.73602
1.7379
1.73881
1.73781
1.73882
1.73906
1.73924
1.73866
1.73913
1.73786
1.7374
1.7372
1.73831
1.73842
1.73564
1.73431
1.73545
1.73485
1.73372
1.73486
1.73683
1.73894
1.73366
1.73054
1.73004
1.73208
1.73128
1.73164
1.72905
1.72733
1.72671
1.72519
1.72841
1.71373
1.72085
1.72168
1.72776
1.72746
1.73141
1.7327
1.73436
1.73542
1.73388
1.73366
1.73061
1.72659
1.72474
1.72269
1.71811
1.713
1.70783
1.70044
1.68953
1.69125
1.70034
1.70392
1.69715
1.69245
1.69091
1.69659
1.69524
1.69927
1.69834
1.70124
1.70159
1.70137
1.7037
1.70379
1.70526
1.70574
1.7058
1.707
1.70696
1.70808
1.70807
1.70888
1.7092
1.70918
1.70982
1.70986
1.71044
1.71034
1.711
1.71086
1.71138
1.7114
1.71176
1.71191
1.71172
1.71203
1.712
1.7122
1.71205
1.71226
1.71223
1.71233
1.71217
1.71228
1.71221
1.71227
1.71209
1.71215
1.71202
1.71205
1.71185
1.71185
1.71166
1.71165
1.71141
1.71134
1.7111
1.71106
1.71077
1.71065
1.71034
1.71028
1.70981
1.70982
1.71023
1.71059
1.71074
1.71109
1.71106
1.71131
1.71143
1.71175
1.71168
1.71189
1.71196
1.71223
1.71214
1.71229
1.7123
1.71256
1.71243
1.71254
1.7125
1.71273
1.71256
1.71262
1.71255
1.71272
1.71248
1.71253
1.71237
1.71252
1.71222
1.71209
1.71245
1.71261
1.7127
1.71294
1.71276
1.71277
1.71286
1.71291
1.71277
1.71277
1.71278
1.71279
1.71263
1.71253
1.71237
1.71233
1.71211
1.71194
1.71216
1.71189
1.71154
1.71122
1.71126
1.71081
1.7105
1.71089
1.71051
1.71032
1.70967
1.70936
1.70918
1.70889
1.70878
1.70845
1.7082
1.70776
1.70771
1.70729
1.70702
1.70655
1.70635
1.70582
1.70568
1.70626
1.70673
1.70696
1.70734
1.70754
1.70798
1.70824
1.70855
1.70866
1.7091
1.70929
1.70956
1.70961
1.71009
1.7095
1.709
1.70845
1.70789
1.70721
1.70668
1.70594
1.70605
1.70544
1.70479
1.70461
1.70412
1.70377
1.70333
1.70293
1.70239
1.70206
1.70155
1.7014
1.70071
1.70004
1.69972
1.6992
1.69878
1.69826
1.69776
1.69716
1.69658
1.69595
1.69563
1.69619
1.69683
1.69726
1.69788
1.69836
1.69893
1.69941
1.69995
1.70037
1.70091
1.70133
1.70175
1.70221
1.70263
1.70313
1.70348
1.70392
1.70433
1.70478
1.70518
1.70541
1.70503
1.70497
1.70416
1.70345
1.70429
1.70351
1.70259
1.70178
1.70264
1.70175
1.70087
1.70005
1.69897
1.69803
1.69686
1.69597
1.6957
1.6949
1.6941
1.6935
1.69293
1.69218
1.69151
1.69087
1.69015
1.68959
1.69028
1.68959
1.68872
1.68808
1.68721
1.68646
1.68576
1.68504
1.68424
1.68339
1.6826
1.68162
1.68098
1.67979
1.67901
1.6779
1.67699
1.67605
1.67511
1.67412
1.67327
1.67213
1.67101
1.67017
1.67123
1.67034
1.66884
1.66769
1.66648
1.66546
1.66403
1.66269
1.66149
1.65987
1.65891
1.65739
1.65639
1.65419
1.65258
1.65112
1.64961
1.64795
1.6465
1.64437
1.64246
1.64072
1.63897
1.63722
1.63561
1.63308
1.63076
1.62876
1.62658
1.6246
1.62241
1.61971
1.61649
1.6144
1.61118
1.6098
1.61289
1.61073
1.60654
1.60322
1.60016
1.5964
1.5944
1.59053
1.58537
1.58199
1.57731
1.57482
1.57089
1.56633
1.56146
1.55631
1.55073
1.54769
1.54272
1.53596
1.52825
1.5259
1.51803
1.50783
1.50208
1.49079
1.48696
1.47599
1.47231
1.45521
1.43877
1.43969
1.41815
1.39987
1.40602
1.38207
1.36205
1.33966
1.36011
1.33948
1.33386
1.33495
1.3428
1.37333
1.40393
1.423
1.43474
1.4443
1.45227
1.45959
1.46531
1.47073
1.47496
1.47946
1.48278
1.4866
1.48916
1.49239
1.49433
1.49714
1.49864
1.50114
1.50233
1.50459
1.50552
1.50756
1.50826
1.51011
1.51067
1.51242
1.51286
1.51451
1.51485
1.51645
1.51668
1.51817
1.51833
1.51979
1.5199
1.52127
1.52136
1.5227
1.52278
1.524
1.52406
1.52524
1.52532
1.52638
1.52649
1.52752
1.52764
1.52855
1.5287
1.52957
1.52975
1.53049
1.53071
1.53146
1.53168
1.53233
1.53256
1.53323
1.53344
1.53402
1.53424
1.53483
1.53504
1.53555
1.53576
1.53627
1.53647
1.53693
1.53713
1.53758
1.53777
1.53817
1.53836
1.53876
1.53894
1.53929
1.53946
1.53982
1.53999
1.54029
1.54045
1.54076
1.54091
1.54118
1.54133
1.5416
1.54174
1.54198
1.54211
1.54235
1.54248
1.54269
1.5428
1.54302
1.54313
1.54332
1.54342
1.54362
1.54372
1.54389
1.54398
1.54416
1.54424
1.5444
1.54448
1.54464
1.54472
1.54486
1.54493
1.54508
1.54514
1.54527
1.54533
1.54547
1.54553
1.54565
1.5457
1.54583
1.54588
1.54599
1.54603
1.54616
1.5462
1.5463
1.54633
1.54645
1.54648
1.54658
1.54661
1.54672
1.54675
1.54684
1.54686
1.54696
1.54698
1.54707
1.54708
1.54718
1.5472
1.54728
1.54729
1.54738
1.54739
1.54747
1.54748
1.54757
1.54757
1.54765
1.54765
1.54773
1.54773
1.54781
1.5478
1.54788
1.54788
1.54795
1.54794
1.54802
1.54801
1.54808
1.54807
1.54814
1.54813
1.5482
1.54818
1.54825
1.54824
1.5483
1.54828
1.54835
1.54833
1.54839
1.54836
1.54843
1.54841
1.54846
1.54843
1.54849
1.54847
1.54852
1.54848
1.54854
1.54851
1.54856
1.54852
1.54858
1.54855
1.5486
1.54856
1.54863
1.5486
1.54865
1.54863
1.54872
1.54874
1.54887
1.54888
1.5492
1.54915
1.5498
1.55059
1.55375
1.55302
1.55444
1.55155
1.55187
1.55307
1.55088
1.55124
1.55236
1.55057
1.55099
1.55209
1.55039
1.55084
1.55189
1.55037
1.55083
1.55192
1.55031
1.55077
1.5518
1.5503
1.55078
1.55188
1.55026
1.55073
1.55173
1.55027
1.55074
1.55186
1.55022
1.55069
1.55168
1.55023
1.5507
1.55183
1.55018
1.55064
1.55164
1.55017
1.55064
1.55179
1.55011
1.55058
1.55159
1.5501
1.55057
1.55173
1.55003
1.5505
1.55152
1.55002
1.55049
1.55166
1.54994
1.55041
1.55144
1.54992
1.55039
1.55158
1.54983
1.55031
1.55135
1.54981
1.55028
1.55148
1.54971
1.55019
1.55126
1.54968
1.55016
1.55138
1.54959
1.55007
1.55115
1.54955
1.55003
1.55127
1.54944
1.54993
1.55104
1.5494
1.54989
1.55115
1.54929
1.54978
1.55091
1.54924
1.54973
1.55102
1.54912
1.54962
1.55077
1.54906
1.54956
1.55088
1.54894
1.54944
1.55062
1.54887
1.54938
1.55073
1.54874
1.54925
1.55046
1.54866
1.54918
1.55056
1.54852
1.54904
1.55029
1.54843
1.54896
1.55039
1.54828
1.54881
1.55011
1.54819
1.54873
1.55019
1.54803
1.54857
1.54991
1.54792
1.54848
1.54999
1.54776
1.54831
1.5497
1.54764
1.54821
1.54976
1.54746
1.54802
1.54947
1.54733
1.54791
1.54952
1.54715
1.54772
1.54922
1.547
1.5476
1.54926
1.5468
1.54739
1.54895
1.54664
1.54726
1.54897
1.54643
1.54704
1.54865
1.54626
1.5469
1.54867
1.54604
1.54666
1.54832
1.54584
1.54651
1.54833
1.54561
1.54626
1.54796
1.5454
1.54609
1.54797
1.54515
1.54581
1.54756
1.54492
1.54563
1.54756
1.54465
1.54534
1.54711
1.54439
1.54514
1.5471
1.5441
1.54482
1.54661
1.54382
1.5446
1.54659
1.5435
1.54425
1.54605
1.54319
1.544
1.546
1.54284
1.54362
1.54541
1.5425
1.54334
1.54532
1.54211
1.54291
1.54468
1.54173
1.5426
1.54453
1.5413
1.54213
1.54381
1.54089
1.54178
1.54364
1.5404
1.54123
1.54282
1.53994
1.54084
1.5426
1.53936
1.5402
1.54168
1.53883
1.53974
1.54138
1.53816
1.539