/*--------------------------------*- C++ -*----------------------------------*\
| =========                 |                                                 |
| \\      /  F ield         | OpenFOAM: The Open Source CFD Toolbox           |
|  \\    /   O peration     | Version:  v2006                                 |
|   \\  /    A nd           | Website:  www.openfoam.com                      |
|    \\/     M anipulation  |                                                 |
\*---------------------------------------------------------------------------*/
FoamFile
{
    version     2.0;
    format      ascii;
    class       surfaceScalarField;
    location    "0.052";
    object      phi;
}
// * * * * * * * * * * * * * * * * * * * * * * * * * * * * * * * * * * * * * //

dimensions      [1 0 -1 0 0 0 0];
oriented        oriented;


internalField   nonuniform List<scalar> 
25161
(
-3.46694e-05
-0.00195405
0.00192545
6.32715e-05
-0.00182214
0.00178747
1.39708e-05
0.000114198
-2.04424e-05
0.00207617
3.11548e-05
0.0022841
-7.79391e-05
0.00228251
-1.64579e-05
0.00233365
-3.55064e-05
0.00228606
-3.57586e-06
0.00228135
-5.84689e-06
0.00225437
5.67134e-07
0.0022446
-1.05828e-06
0.00223414
-5.42078e-07
0.00222883
-8.91781e-07
0.00222442
-9.97353e-07
0.00222056
-1.0886e-06
0.00221691
-1.17059e-06
0.00221322
-1.24633e-06
0.00220944
-1.31719e-06
0.00220554
-1.38364e-06
0.0022015
-1.44578e-06
0.00219732
-1.50365e-06
0.002193
-1.5574e-06
0.00218855
-1.60717e-06
0.00218397
-1.6532e-06
0.00217927
-1.69571e-06
0.00217446
-1.73484e-06
0.00216954
-1.77064e-06
0.00216453
-1.80311e-06
0.00215942
-1.83218e-06
0.00215424
-1.85775e-06
0.00214897
-1.87969e-06
0.00214365
-1.89785e-06
0.00213826
-1.9121e-06
0.00213283
-1.92228e-06
0.00212736
-1.92826e-06
0.00212186
-1.92988e-06
0.00211634
-1.92694e-06
0.00211082
-1.91966e-06
0.00210531
-1.90728e-06
0.00209982
-1.8898e-06
0.00209435
-1.86702e-06
0.00208893
-1.83867e-06
0.00208355
-1.80447e-06
0.00207825
-1.76416e-06
0.00207302
-1.71759e-06
0.00206789
-1.66474e-06
0.00206287
-1.60548e-06
0.00205797
-1.53915e-06
0.0020532
-1.46359e-06
0.00204853
-1.37384e-06
0.00204393
-1.26095e-06
0.00203937
-1.11256e-06
0.00203378
-9.18658e-07
0.00202719
-3.7242e-06
0.0020188
-6.5264e-06
0.00200607
-1.8479e-05
0.0019846
-3.45545e-05
0.00195662
-7.59481e-05
0.00191351
-0.000142645
0.00187777
-0.000316488
0.00187437
-0.000622712
0.00190209
-0.000299239
0.00115829
-0.000173892
0.00117425
-9.51037e-05
0.00114517
-9.71229e-05
0.000996255
-2.99274e-05
0.000894307
-1.82765e-05
0.000322787
-9.79477e-06
0.000267535
0.000217611
1.37003e-05
0.000203911
2.7133e-05
0.000254102
0.000306013
4.39073e-05
-1.84343e-05
0.000296054
2.83928e-05
-9.09657e-06
0.000244765
0.000194815
5.38756e-06
0.000189427
9.80428e-06
0.000240348
0.00029213
1.37275e-05
-4.75798e-06
0.00029104
5.84752e-06
-3.17641e-06
0.000238765
0.00018625
3.0664e-06
0.000183183
3.72258e-06
0.000238109
0.000289866
4.89653e-06
-2.57352e-06
0.000288593
3.84527e-06
-1.8874e-06
0.000237422
0.000181295
1.73039e-06
0.000179564
2.45786e-06
0.000236693
0.000288253
2.79666e-06
-2.32618e-06
0.00028785
2.72783e-06
-1.57613e-06
0.000235942
0.000177986
1.46089e-06
0.000176524
3.20728e-06
0.000234195
0.000288396
2.66073e-06
-1.14216e-06
0.000286917
2.6196e-06
-1.35342e-06
0.000234405
0.00017517
1.27706e-06
0.000173892
3.02279e-06
0.000232658
0.000287384
2.55389e-06
-9.91681e-07
0.000285851
2.52375e-06
-1.19671e-06
0.000232862
0.000172694
1.14421e-06
0.000171549
2.88168e-06
0.000231123
0.000286266
2.466e-06
-8.78157e-07
0.000284696
2.44653e-06
-1.08155e-06
0.000231326
0.000170467
1.04462e-06
0.000169422
2.7709e-06
0.000229599
0.000285072
2.39494e-06
-7.92793e-07
0.000283478
2.3855e-06
-9.96885e-07
0.000229803
0.000168425
9.70396e-07
0.000167454
2.68648e-06
0.000228087
0.00028382
2.34459e-06
-7.28313e-07
0.000282205
2.34399e-06
-9.2986e-07
0.000228288
0.000166525
9.15197e-07
0.00016561
2.62108e-06
0.000226583
0.000282521
2.30535e-06
-6.80475e-07
0.00028089
2.3122e-06
-8.798e-07
0.000226783
0.00016473
8.71435e-07
0.000163859
2.56908e-06
0.000225086
0.000281182
2.27859e-06
-6.46268e-07
0.000279537
2.29285e-06
-8.40964e-07
0.000225281
0.000163019
8.38224e-07
0.000162181
2.53031e-06
0.00022359
0.000279803
2.26483e-06
-6.24415e-07
0.000278143
2.28585e-06
-8.11589e-07
0.000223778
0.00016137
8.13263e-07
0.000160558
2.50257e-06
0.00022209
0.000278384
2.2627e-06
-6.1248e-07
0.000276709
2.28943e-06
-7.89442e-07
0.000222269
0.00015977
7.94731e-07
0.000158976
2.48372e-06
0.000220581
0.000276923
2.27061e-06
-6.08831e-07
0.000275231
2.30231e-06
-7.73061e-07
0.000220746
0.000158204
7.81464e-07
0.000157423
2.47252e-06
0.000219055
0.000275416
2.28765e-06
-6.12964e-07
0.000273705
2.32429e-06
-7.61732e-07
0.000219204
0.000156661
7.73018e-07
0.000155888
2.46882e-06
0.000217508
0.00027386
2.31394e-06
-6.24894e-07
0.000272129
2.35575e-06
-7.55179e-07
0.000217638
0.000155133
7.69114e-07
0.000154363
2.47243e-06
0.000215935
0.000272251
2.34972e-06
-6.4402e-07
0.000270498
2.39635e-06
-7.52886e-07
0.000216043
0.00015361
7.69147e-07
0.00015284
2.48253e-06
0.000214328
0.000270585
2.39433e-06
-6.69561e-07
0.000268807
2.44544e-06
-7.54261e-07
0.000214412
0.000152085
7.72614e-07
0.000151311
2.49845e-06
0.000212684
0.000268857
2.44728e-06
-7.01129e-07
0.000267053
2.5026e-06
-7.58911e-07
0.00021274
0.000150551
7.79303e-07
0.00014977
2.52013e-06
0.000210998
0.000267063
2.50861e-06
-7.39207e-07
0.000265231
2.56877e-06
-7.6692e-07
0.000211024
0.000149002
7.89389e-07
0.000148211
2.54813e-06
0.000209264
0.000265198
2.57949e-06
-7.84363e-07
0.000263335
2.64518e-06
-7.78435e-07
0.000209256
0.000147432
8.02953e-07
0.000146628
2.58284e-06
0.000207475
0.000263256
2.66094e-06
-8.36781e-07
0.000261359
2.73241e-06
-7.93423e-07
0.000207431
0.000145834
8.19946e-07
0.000145014
2.62432e-06
0.000205626
0.00026123
2.75336e-06
-8.96654e-07
0.000259296
2.83084e-06
-8.1188e-07
0.000205542
0.000144202
8.40366e-07
0.000143362
2.67269e-06
0.00020371
0.000259112
2.85702e-06
-9.64052e-07
0.000257137
2.94058e-06
-8.33785e-07
0.000203581
0.000142529
8.64162e-07
0.000141666
2.72788e-06
0.000201718
0.000256894
2.97187e-06
-1.03894e-06
0.000254874
3.06158e-06
-8.59076e-07
0.00020154
0.000140808
8.91359e-07
0.000139919
2.78996e-06
0.000199644
0.000254569
3.09819e-06
-1.12173e-06
0.000252499
3.19455e-06
-8.8789e-07
0.000199413
0.000139033
9.22201e-07
0.000138113
2.85952e-06
0.000197479
0.000252125
3.23705e-06
-1.21328e-06
0.000250001
3.34091e-06
-9.20578e-07
0.000197189
0.000137195
9.57098e-07
0.000136241
2.93747e-06
0.000195212
0.000249553
3.39006e-06
-1.31463e-06
0.000247369
3.50236e-06
-9.5757e-07
0.000194858
0.000135286
9.9647e-07
0.000134292
3.02473e-06
0.000192833
0.000246838
3.55893e-06
-1.42675e-06
0.000244588
3.68057e-06
-9.99257e-07
0.000192409
0.000133296
1.04068e-06
0.000132257
3.12214e-06
0.00019033
0.000243968
3.74522e-06
-1.55051e-06
0.000241645
3.87695e-06
-1.04595e-06
0.000189829
0.000131214
1.08994e-06
0.000130126
3.23027e-06
0.000187691
0.000240928
3.95002e-06
-1.68634e-06
0.000238524
4.09215e-06
-1.09777e-06
0.000187104
0.00012903
1.14419e-06
0.000127888
3.34905e-06
0.000184902
0.000237703
4.17331e-06
-1.83373e-06
0.000235213
4.32539e-06
-1.15439e-06
0.000184224
0.000126735
1.20291e-06
0.000125534
3.47742e-06
0.000181952
0.000234279
4.41366e-06
-1.99158e-06
0.000231698
4.57501e-06
-1.21524e-06
0.000181177
0.000124321
1.2657e-06
0.000123057
3.6146e-06
0.00017883
0.000230644
4.67015e-06
-2.15979e-06
0.000227965
4.84099e-06
-1.28019e-06
0.000177953
0.000121778
1.33268e-06
0.000120447
3.76086e-06
0.000175526
0.000226785
4.94323e-06
-2.33893e-06
0.000224002
5.12395e-06
-1.34948e-06
0.000174539
0.000119099
1.40395e-06
0.000117697
3.91642e-06
0.000172028
0.000222687
5.23326e-06
-2.52884e-06
0.000219795
5.42369e-06
-1.42297e-06
0.000170924
0.000116276
1.47913e-06
0.000114798
4.0805e-06
0.000168325
0.000218338
5.53923e-06
-2.72829e-06
0.00021533
5.73834e-06
-1.50004e-06
0.000167098
0.0001133
1.55737e-06
0.000111744
4.25123e-06
0.000164406
0.000213725
5.85842e-06
-2.93488e-06
0.000210597
6.06424e-06
-1.57957e-06
0.000163052
0.000110166
1.63724e-06
0.00010853
4.42557e-06
0.000160265
0.000208838
6.18618e-06
-3.14515e-06
0.000205588
6.39574e-06
-1.65989e-06
0.000158781
0.000106871
1.71677e-06
0.000105154
4.59931e-06
0.000155899
0.000203672
6.51568e-06
-3.35413e-06
0.000200301
6.72473e-06
-1.7387e-06
0.000154283
0.000103416
1.79321e-06
0.000101622
4.76644e-06
0.00015131
0.000198229
6.83727e-06
-3.5548e-06
0.000194742
7.04021e-06
-1.8128e-06
0.000149567
9.9809e-05
1.86275e-06
9.79457e-05
4.91861e-06
0.000146511
0.000192521
7.13806e-06
-3.73801e-06
0.000188928
7.32869e-06
-1.87808e-06
0.000144649
9.60668e-05
1.91818e-06
9.41476e-05
5.04019e-06
0.000141526
0.000186572
7.39311e-06
-3.87619e-06
0.000182901
7.5451e-06
-1.92141e-06
0.00013957
9.22251e-05
1.95264e-06
9.02713e-05
5.11716e-06
0.000136404
0.000180436
7.58011e-06
-3.96994e-06
0.000176712
7.69094e-06
-1.94388e-06
0.000134376
8.83263e-05
1.96044e-06
8.6365e-05
5.13613e-06
0.000131199
0.00017417
7.67621e-06
-3.99376e-06
0.000170436
7.72586e-06
-1.93382e-06
0.000129138
8.44307e-05
1.93075e-06
8.24997e-05
5.07397e-06
0.000125995
0.000167864
7.64426e-06
-3.92595e-06
0.000164175
7.61547e-06
-1.88154e-06
0.00012395
8.06185e-05
1.85476e-06
7.87644e-05
4.91101e-06
0.000120895
0.000161635
7.45181e-06
-3.74733e-06
0.000158055
7.32918e-06
-1.7789e-06
0.000118928
7.69868e-05
1.72561e-06
7.52634e-05
4.63205e-06
0.000116024
0.000155618
7.07243e-06
-3.44558e-06
0.000152221
6.84663e-06
-1.6209e-06
0.000114203
7.36454e-05
1.5403e-06
7.21091e-05
4.23012e-06
0.000111518
0.000149964
6.49262e-06
-3.01914e-06
0.000146827
6.16311e-06
-1.40783e-06
0.000109912
7.07061e-05
1.30248e-06
6.94096e-05
3.71147e-06
0.00010751
0.000144828
5.71791e-06
-2.48082e-06
0.00014202
5.29706e-06
-1.14701e-06
0.000106184
6.82693e-05
1.02233e-06
6.72545e-05
3.0959e-06
0.000104119
0.000140349
4.7756e-06
-1.84979e-06
0.000137934
4.27543e-06
-8.48444e-07
0.000103127
6.6414e-05
7.17869e-07
6.57044e-05
2.42072e-06
0.000101433
0.000136644
3.72075e-06
-1.18297e-06
0.000134651
3.18572e-06
-5.40143e-07
0.0001008
6.51728e-05
4.16124e-07
6.4765e-05
1.74168e-06
9.94838e-05
0.000133765
2.63793e-06
-5.29824e-07
0.000132199
2.10612e-06
-2.45476e-07
9.92087e-05
6.45276e-05
1.35734e-07
6.43994e-05
1.10251e-06
9.82506e-05
0.000131711
1.60114e-06
7.23899e-08
0.000130542
1.10597e-06
2.81218e-08
9.83031e-05
6.44348e-05
-1.23769e-07
6.45653e-05
5.2804e-07
9.76594e-05
0.000130409
6.70768e-07
5.86561e-07
0.000129597
2.33796e-07
2.57445e-07
9.79961e-05
6.4829e-05
-3.06245e-07
6.51411e-05
8.15367e-08
9.76154e-05
0.000129793
-1.06026e-07
9.83417e-07
0.000129304
-4.85297e-07
4.05788e-07
9.81996e-05
6.55526e-05
-4.32129e-07
6.59906e-05
-2.63569e-07
9.80377e-05
0.000129791
-7.42915e-07
1.27271e-06
0.00012954
-1.01342e-06
5.05137e-07
9.88123e-05
6.65018e-05
-5.11049e-07
6.7019e-05
-4.96538e-07
9.88047e-05
0.000130239
-1.18751e-06
1.45687e-06
0.000130156
-1.36642e-06
5.60987e-07
9.97078e-05
6.75862e-05
-5.48197e-07
6.81411e-05
-6.2808e-07
9.97954e-05
0.000131002
-1.46541e-06
1.55138e-06
0.00013103
-1.57135e-06
5.79112e-07
0.000100775
6.8727e-05
-5.52143e-07
6.92863e-05
-6.79191e-07
0.000100911
0.000131969
-1.61013e-06
1.57888e-06
0.000132062
-1.66259e-06
5.6976e-07
0.000101929
6.9864e-05
-5.35108e-07
7.04075e-05
-6.76563e-07
0.00010208
0.000133057
-1.66235e-06
1.56413e-06
0.000133181
-1.67775e-06
5.44288e-07
0.00010311
7.09609e-05
-5.05155e-07
7.14767e-05
-6.38135e-07
0.000103255
0.000134204
-1.65061e-06
1.52078e-06
0.000134337
-1.64076e-06
5.08359e-07
0.00010428
7.19958e-05
-4.6827e-07
7.24763e-05
-5.78268e-07
0.000104403
0.000135367
-1.59411e-06
1.46175e-06
0.00013549
-1.56761e-06
4.68684e-07
0.000105411
7.29575e-05
-4.27607e-07
7.33978e-05
-5.05184e-07
0.000105504
0.000136513
-1.51001e-06
1.39391e-06
0.000136615
-1.47551e-06
4.27532e-07
0.000106486
7.38384e-05
-3.85372e-07
7.42367e-05
-4.24675e-07
0.000106541
0.000137619
-1.40831e-06
1.3212e-06
0.00013769
-1.37086e-06
3.8639e-07
0.000107491
7.46364e-05
-3.44601e-07
7.49948e-05
-3.42671e-07
0.000107506
0.00013867
-1.29913e-06
1.24869e-06
0.000138708
-1.26229e-06
3.47162e-07
0.000108425
7.53556e-05
-3.08005e-07
7.56763e-05
-2.662e-07
0.000108399
0.000139659
-1.19362e-06
1.18192e-06
0.00013966
-1.16005e-06
3.12281e-07
0.000109284
7.60012e-05
-2.74862e-07
7.62886e-05
-1.94932e-07
0.00010922
0.000140582
-1.09443e-06
1.11999e-06
0.000140548
-1.06436e-06
2.80717e-07
0.000110075
7.65817e-05
-2.45883e-07
7.68394e-05
-1.30925e-07
0.000109975
0.000141441
-1.00384e-06
1.06518e-06
0.000141373
-9.77767e-07
2.53349e-07
0.000110801
7.7104e-05
-2.19597e-07
7.73353e-05
-7.20989e-08
0.000110668
0.000142239
-9.21047e-07
1.00935e-06
0.000142139
-8.9565e-07
2.26646e-07
0.000111469
7.75763e-05
-1.92607e-07
7.77868e-05
-1.28557e-08
0.000111307
0.00014298
-8.40524e-07
9.57935e-07
0.00014285
-8.18531e-07
2.00808e-07
0.000112085
7.80069e-05
-1.69643e-07
7.81979e-05
3.85017e-08
0.000111898
0.000143669
-7.69475e-07
9.14863e-07
0.000143513
-7.50206e-07
1.7909e-07
0.000112656
7.83992e-05
-1.50498e-07
7.85733e-05
8.23671e-08
0.000112446
0.000144312
-7.06372e-07
8.80215e-07
0.000144132
-6.91432e-07
1.62167e-07
0.000113186
7.87573e-05
-1.36139e-07
7.89142e-05
1.17389e-07
0.000112953
0.000144912
-6.53847e-07
8.50585e-07
0.000144708
-6.40944e-07
1.48455e-07
0.000113675
7.90826e-05
-1.23104e-07
7.92245e-05
1.49545e-07
0.00011342
0.000145469
-6.06251e-07
8.21441e-07
0.000145244
-5.93154e-07
1.34917e-07
0.000114127
7.93799e-05
-1.09461e-07
7.95111e-05
1.82108e-07
0.000113857
0.000145991
-5.59372e-07
7.94858e-07
0.00014575
-5.48426e-07
1.22031e-07
0.000114551
7.96551e-05
-9.83071e-08
7.97747e-05
2.08994e-07
0.000114264
0.000146483
-5.18646e-07
7.73375e-07
0.000146225
-5.10125e-07
1.11823e-07
0.000114946
7.99076e-05
-8.9272e-08
8.00155e-05
2.31482e-07
0.000114644
0.000146944
-4.8348e-07
7.54122e-07
0.000146669
-4.7603e-07
1.03064e-07
0.000115313
8.01368e-05
-7.94763e-08
8.02345e-05
2.5577e-07
0.000114995
0.000147375
-4.49102e-07
7.32995e-07
0.000147084
-4.41976e-07
9.2729e-08
0.000115652
8.03458e-05
-6.97209e-08
8.04374e-05
2.77299e-07
0.000115326
0.000147784
-4.17707e-07
7.22485e-07
0.000147488
-4.21722e-07
8.49306e-08
0.000115985
8.05449e-05
-9.29693e-08
8.06586e-05
-2.28118e-07
0.000116138
0.000147695
-4.25692e-07
7.44445e-07
0.000148994
-2.03537e-06
5.51171e-07
0.000116347
8.12264e-05
-5.92742e-07
8.1834e-05
-1.7799e-06
0.000117549
0.000150305
-3.0838e-06
2.74842e-06
0.000152206
-4.64386e-06
1.48209e-06
0.000118829
8.33312e-05
-5.97524e-07
8.39485e-05
-1.83028e-06
0.000120081
0.000153548
-3.17113e-06
1.85079e-06
0.000154924
-3.22857e-06
6.25287e-07
0.000121326
8.45936e-05
-2.48359e-06
8.70996e-05
-5.34777e-06
0.000124211
0.000159022
-9.44348e-06
1.80432e-06
-2.55888e-06
5.86914e-07
-2.69879e-05
-0.00044966
8.03763e-07
-0.000499378
-1.5531e-05
-0.000554342
1.03208e-05
-0.000579049
-1.18243e-06
-0.000596329
4.0415e-06
-0.000600766
-1.46241e-06
-0.000603728
-1.47618e-06
-0.000605138
-2.73092e-06
-0.000607101
-2.08969e-06
-0.000609698
-2.07541e-06
-0.000612091
-2.0009e-06
-0.000613267
-1.3228e-06
-0.000613778
4.18396e-08
-0.000611814
7.63103e-06
-0.000605468
1.21816e-05
-0.000596433
3.73365e-05
-0.00058171
6.12763e-05
-0.000572128
0.000146915
-0.000576178
0.000316461
-0.000652652
9.13645e-05
-0.000180383
-3.28107e-05
-0.000275287
-1.64189e-05
-0.000333194
1.11246e-05
-0.000336906
6.15604e-06
-9.65618e-05
3.20371e-06
-7.625e-05
-5.2764e-05
-3.11761e-05
-2.16703e-05
-7.33365e-05
-3.39859e-05
-4.42073e-05
-0.000125609
-1.41318e-05
-5.70914e-05
2.56743e-05
-2.26147e-06
-4.23366e-05
-2.60176e-05
4.42138e-06
-2.78796e-05
5.51071e-06
-4.5723e-05
-6.21955e-05
1.032e-05
-2.79988e-06
-6.51313e-05
6.08159e-06
-1.43526e-06
-4.79484e-05
-2.89447e-05
-7.22165e-07
-2.79507e-05
-1.82712e-06
-4.72909e-05
-6.38911e-05
-2.91604e-06
-4.13272e-07
-6.34109e-05
-6.51134e-08
-4.4701e-07
-4.73319e-05
-2.83388e-05
-5.78447e-07
-2.74715e-05
-2.08669e-06
-4.62266e-05
-6.27118e-05
-2.68257e-06
-6.16871e-07
-6.33537e-05
1.16906e-06
-3.36092e-07
-4.62936e-05
-2.79346e-05
-1.00984e-06
-2.71e-05
-8.12607e-07
-4.61878e-05
-6.21817e-05
-2.11942e-06
-9.85077e-07
-6.23134e-05
1.21424e-06
-5.32038e-07
-4.68555e-05
-2.75104e-05
-5.32665e-07
-2.71183e-05
-1.39562e-06
-4.58036e-05
-6.22526e-05
-1.51863e-06
-1.02007e-06
-6.29452e-05
1.79959e-06
-6.21399e-07
-4.64337e-05
-2.75947e-05
-2.73248e-07
-2.72113e-05
-9.45039e-07
-4.59444e-05
-6.23529e-05
-1.48226e-06
-1.20875e-06
-6.30609e-05
1.8173e-06
-3.51536e-07
-4.65775e-05
-2.77421e-05
-5.42464e-07
-2.73786e-05
-8.64856e-07
-4.60707e-05
-6.24846e-05
-1.48283e-06
-1.21878e-06
-6.31946e-05
1.84768e-06
-3.46231e-07
-4.67142e-05
-2.78914e-05
-6.31481e-07
-2.75213e-05
-8.0335e-07
-4.62095e-05
-6.26187e-05
-1.46135e-06
-1.24785e-06
-6.3326e-05
1.86337e-06
-3.29198e-07
-4.68648e-05
-2.80196e-05
-5.59842e-07
-2.76485e-05
-8.29202e-07
-4.63577e-05
-6.27494e-05
-1.45889e-06
-1.23123e-06
-6.3461e-05
1.86069e-06
-3.86207e-07
-4.70102e-05
-2.81577e-05
-5.52802e-07
-2.77928e-05
-8.24289e-07
-4.65058e-05
-6.28877e-05
-1.46573e-06
-1.2428e-06
-6.36033e-05
1.86587e-06
-3.54098e-07
-4.71599e-05
-2.8308e-05
-5.82451e-07
-2.79335e-05
-8.33801e-07
-4.66503e-05
-6.30298e-05
-1.46574e-06
-1.23601e-06
-6.37448e-05
1.86545e-06
-3.84194e-07
-4.7298e-05
-2.84332e-05
-4.5228e-07
-2.80524e-05
-8.4861e-07
-4.67651e-05
-6.3177e-05
-1.47239e-06
-1.10058e-06
-6.38886e-05
1.90267e-06
-6.64786e-07
-4.74327e-05
-2.85532e-05
-2.40575e-07
-2.81651e-05
-9.03214e-07
-4.69276e-05
-6.33188e-05
-1.4606e-06
-1.06903e-06
-6.40245e-05
1.90293e-06
-6.69291e-07
-4.75927e-05
-2.86832e-05
-1.61383e-07
-2.82986e-05
-9.64534e-07
-4.70847e-05
-6.34533e-05
-1.44753e-06
-1.10362e-06
-6.41728e-05
1.91419e-06
-6.85976e-07
-4.77445e-05
-2.88369e-05
-1.73329e-07
-2.84551e-05
-9.45703e-07
-4.72399e-05
-6.36026e-05
-1.4488e-06
-1.10218e-06
-6.432e-05
1.91598e-06
-6.91575e-07
-4.79041e-05
-2.89942e-05
-1.76825e-07
-2.86129e-05
-9.41593e-07
-4.74002e-05
-6.3751e-05
-1.44994e-06
-1.11305e-06
-6.44722e-05
1.92375e-06
-6.96929e-07
-4.80678e-05
-2.91536e-05
-1.56264e-07
-2.87702e-05
-9.60568e-07
-4.75616e-05
-6.39014e-05
-1.44452e-06
-1.11827e-06
-6.46254e-05
1.93189e-06
-6.81096e-07
-4.82241e-05
-2.93182e-05
-2.1033e-07
-2.89336e-05
-9.3209e-07
-4.77203e-05
-6.40593e-05
-1.44776e-06
-1.12964e-06
-6.47836e-05
1.94233e-06
-6.64912e-07
-4.83919e-05
-2.94745e-05
-1.81065e-07
-2.90889e-05
-9.31314e-07
-4.78851e-05
-6.42181e-05
-1.4468e-06
-1.13756e-06
-6.49445e-05
1.94642e-06
-7.20664e-07
-4.85611e-05
-2.96378e-05
-1.75525e-07
-2.92619e-05
-9.19808e-07
-4.80608e-05
-6.43828e-05
-1.44045e-06
-1.14902e-06
-6.51149e-05
1.96852e-06
-6.95606e-07
-4.87456e-05
-2.98238e-05
-2.06388e-07
-2.94518e-05
-9.17339e-07
-4.82513e-05
-6.45548e-05
-1.42696e-06
-1.16067e-06
-6.52876e-05
1.98286e-06
-6.61721e-07
-4.89445e-05
-3.00207e-05
-2.95939e-07
-2.96523e-05
-8.92381e-07
-4.84711e-05
-6.47238e-05
-1.41699e-06
-1.30627e-06
-6.54653e-05
1.97884e-06
-4.072e-07
-4.91547e-05
-3.02325e-05
-5.11909e-07
-2.98719e-05
-8.26506e-07
-4.86579e-05
-6.49089e-05
-1.43031e-06
-1.30587e-06
-6.56549e-05
1.98963e-06
-4.46934e-07
-4.93495e-05
-3.04362e-05
-5.19675e-07
-3.00805e-05
-7.9811e-07
-4.88568e-05
-6.51001e-05
-1.41001e-06
-1.40409e-06
-6.58559e-05
1.99875e-06
-3.9137e-07
-4.95537e-05
-3.06505e-05
-5.67527e-07
-3.02935e-05
-7.94995e-07
-4.90691e-05
-6.53032e-05
-1.42177e-06
-1.33633e-06
-6.60559e-05
2.01519e-06
-4.2915e-07
-4.97755e-05
-3.08626e-05
-5.44246e-07
-3.05099e-05
-7.9328e-07
-4.92874e-05
-6.55087e-05
-1.40198e-06
-1.39116e-06
-6.62706e-05
2.0372e-06
-4.05059e-07
-4.99975e-05
-3.109e-05
-5.7268e-07
-3.07364e-05
-7.82891e-07
-4.95176e-05
-6.57262e-05
-1.39429e-06
-1.39434e-06
-6.6492e-05
2.0463e-06
-3.94046e-07
-5.02359e-05
-3.13163e-05
-5.47546e-07
-3.0962e-05
-8.01198e-07
-4.97563e-05
-6.595e-05
-1.39066e-06
-1.37617e-06
-6.6722e-05
2.07207e-06
-4.64178e-07
-5.04801e-05
-3.15487e-05
-4.94878e-07
-3.12008e-05
-7.83624e-07
-5.00002e-05
-6.61857e-05
-1.37388e-06
-1.41453e-06
-6.69636e-05
2.09227e-06
-4.74038e-07
-5.07273e-05
-3.18004e-05
-5.06143e-07
-3.1455e-05
-7.63186e-07
-5.02521e-05
-6.64312e-05
-1.35827e-06
-1.44694e-06
-6.7217e-05
2.11699e-06
-4.67933e-07
-5.09871e-05
-3.20604e-05
-5.03936e-07
-3.17182e-05
-7.54823e-07
-5.05181e-05
-6.66897e-05
-1.34565e-06
-1.46845e-06
-6.74852e-05
2.13542e-06
-4.43736e-07
-5.12618e-05
-3.23365e-05
-5.51458e-07
-3.19994e-05
-7.52765e-07
-5.08039e-05
-6.6969e-05
-1.33559e-06
-1.47139e-06
-6.77761e-05
2.16372e-06
-4.23384e-07
-5.15627e-05
-3.26234e-05
-5.55765e-07
-3.22896e-05
-7.5541e-07
-5.11123e-05
-6.72692e-05
-1.31386e-06
-1.49025e-06
-6.809e-05
2.20203e-06
-4.32622e-07
-5.18847e-05
-3.29244e-05
-5.51692e-07
-3.25975e-05
-7.36715e-07
-5.14463e-05
-6.75956e-05
-1.27902e-06
-1.52567e-06
-6.84321e-05
2.25231e-06
-4.49811e-07
-5.22361e-05
-3.32447e-05
-5.10903e-07
-3.2928e-05
-7.14514e-07
-5.18116e-05
-6.79514e-05
-1.24059e-06
-1.56306e-06
-6.88074e-05
2.31098e-06
-4.76e-07
-5.26223e-05
-3.35998e-05
-4.91107e-07
-3.33001e-05
-6.83463e-07
-5.22197e-05
-6.83464e-05
-1.18205e-06
-1.61859e-06
-6.92255e-05
2.39054e-06
-4.88059e-07
-5.30559e-05
-3.39967e-05
-4.41026e-07
-3.37187e-05
-6.39066e-07
-5.26769e-05
-6.87854e-05
-1.11173e-06
-1.69547e-06
-6.96903e-05
2.49348e-06
-5.54025e-07
-5.35431e-05
-3.44522e-05
-3.63015e-07
-3.42191e-05
-5.65624e-07
-5.32006e-05
-6.9283e-05
-1.00757e-06
-1.81259e-06
-7.02274e-05
2.63847e-06
-6.29335e-07
-5.41113e-05
-3.50151e-05
-2.58078e-07
-3.48485e-05
-4.60563e-07
-5.38166e-05
-6.98647e-05
-8.51757e-07
-1.98087e-06
-7.08711e-05
2.85242e-06
-7.43099e-07
-5.47936e-05
-3.57331e-05
-1.32138e-08
-3.57228e-05
-2.25656e-07
-5.45753e-05
-6.99707e-05
-1.13272e-06
-2.10064e-06
-7.16105e-05
3.72158e-06
-1.00432e-06
-5.56219e-05
-3.67632e-05
-2.14892e-07
-3.65838e-05
4.81627e-08
-5.58509e-05
-7.05849e-05
-9.67751e-07
-1.94409e-06
-7.21606e-05
3.36466e-06
-1.1485e-06
-5.62338e-05
-3.80089e-05
-5.02532e-07
-3.74588e-05
-2.68719e-07
-5.65287e-05
-7.17697e-05
-6.51053e-07
-2.13457e-06
-7.32466e-05
3.63007e-06
-1.29292e-06
-5.7389e-05
-3.87447e-05
-2.70232e-07
-3.84768e-05
-2.00773e-07
-5.74692e-05
-7.26574e-05
-7.93554e-07
-1.86708e-06
-7.46222e-05
3.9616e-06
-1.41879e-06
-5.8265e-05
-3.96898e-05
1.97933e-07
-3.99455e-05
3.56887e-07
-5.83817e-05
-7.40607e-05
-2.10127e-07
-2.3281e-06
-7.54274e-05
3.6737e-06
-8.94513e-07
-5.98291e-05
-4.08425e-05
1.55305e-07
-4.09995e-05
1.4767e-07
-5.98399e-05
-7.60407e-05
7.42564e-07
-2.42187e-06
-7.74664e-05
3.82828e-06
-9.98076e-07
-6.12813e-05
-4.19898e-05
8.41369e-07
-4.2827e-05
9.70299e-07
-6.14176e-05
-7.68706e-05
3.71419e-07
-2.60258e-06
-7.87275e-05
4.46194e-06
-1.26595e-06
-6.27549e-05
-4.4094e-05
2.27329e-07
-4.43234e-05
8.31724e-07
-6.33583e-05
-7.93152e-05
1.42225e-06
-2.58016e-06
-8.11976e-05
4.4577e-06
-1.25436e-06
-6.4682e-05
-4.55849e-05
4.50786e-07
-4.60429e-05
1.19168e-06
-6.54277e-05
-8.12161e-05
1.2063e-06
-2.60663e-06
-8.30708e-05
4.45563e-06
-1.33135e-06
-6.67104e-05
-4.73823e-05
8.07582e-07
-4.82004e-05
1.47559e-06
-6.73721e-05
-8.36137e-05
2.02251e-06
-2.7385e-06
-8.61105e-05
5.24742e-06
-1.4745e-06
-6.86187e-05
-4.9688e-05
1.12223e-06
-5.083e-05
1.67915e-06
-6.91472e-05
-8.65171e-05
2.09948e-06
-3.03956e-06
-8.83481e-05
4.88595e-06
-1.04748e-06
-7.11144e-05
-5.18992e-05
1.32822e-06
-5.32562e-05
1.90355e-06
-7.1676e-05
-8.94131e-05
2.97999e-06
-3.94566e-06
-9.05866e-05
5.14459e-06
-1.51686e-06
-7.41105e-05
-5.48026e-05
1.44146e-06
-5.62787e-05
2.56441e-06
-7.52758e-05
-9.29339e-05
4.98787e-06
-6.22215e-06
-9.59379e-05
9.28207e-06
-3.25484e-06
-7.8246e-05
-5.95758e-05
4.39128e-06
-6.39557e-05
8.71563e-06
-8.32989e-05
-0.000102309
1.57619e-05
7.53964e-05
-5.15291e-05
-0.000126209
3.12364e-05
-4.08156e-05
-3.10422e-05
1.46115e-05
-3.92713e-05
2.08365e-05
-5.32342e-05
-6.66809e-05
3.63641e-05
-1.16766e-05
-7.46567e-05
2.08314e-05
-6.53177e-06
-6.08879e-05
-4.48439e-05
3.08268e-06
-4.82874e-05
6.05348e-06
-6.34696e-05
-7.89117e-05
1.02697e-05
-4.5935e-06
-8.18671e-05
7.50793e-06
-2.11697e-06
-6.58829e-05
-5.04333e-05
2.30452e-06
-5.27377e-05
4.66031e-06
-6.8245e-05
-0.000158151
8.09423e-05
-6.55273e-05
-0.000125057
3.24305e-05
-1.73015e-06
-0.000132045
-5.44685e-05
5.33202e-05
-0.000107793
3.63404e-05
-0.000115069
-0.000136876
4.81554e-05
-2.98692e-05
-0.000141347
3.43331e-05
-1.39291e-05
-0.000131015
-0.000121729
1.3548e-05
-0.000135286
2.05218e-05
-0.000137996
-0.000144757
2.39228e-05
-1.63124e-05
-0.000147092
1.86386e-05
-9.51743e-06
-0.000144797
-0.000144811
-1.00665e-06
-0.000143813
-2.61552e-06
-0.000143194
-0.000162147
1.24297e-05
3.81715e-05
-0.00010311
-9.7214e-05
1.3629e-05
-0.000118655
-0.000130191
-4.29482e-07
-0.000129768
1.3613e-06
-0.000120448
-0.000127886
2.61341e-05
-1.05178e-05
-0.000130759
1.33864e-05
-6.54835e-06
-0.00012442
-0.000136321
4.44113e-06
-0.000140767
5.08371e-06
-0.000125065
-0.000129075
3.39509e-06
3.80368e-08
-0.000127287
-1.83016e-06
-3.18786e-06
-0.000121841
-0.00014396
2.0955e-06
-0.00014606
-3.60128e-06
-0.000116146
-0.000112651
-1.82422e-05
-4.88733e-06
-0.000119339
1.15716e-05
-5.00506e-06
-0.00011603
-0.000151069
3.15405e-06
-0.000154228
1.35018e-06
-0.000114229
-0.000111565
-6.42702e-06
7.74698e-06
-0.00012042
1.10318e-06
2.76867e-06
-0.000109252
-0.000151465
-1.30738e-05
-0.000138395
-3.53776e-05
-8.69487e-05
-7.27252e-05
-8.30747e-05
1.60141e-05
-8.88992e-05
1.58252e-07
9.66276e-06
-8.05981e-05
-0.000128736
-7.25943e-06
-0.000121479
-1.7545e-05
-7.03132e-05
-6.10485e-05
-4.53972e-05
1.02443e-05
-7.81911e-05
6.89635e-06
7.19307e-06
-6.72627e-05
-0.000114289
-1.17908e-05
-0.000102501
-2.70428e-05
-5.20112e-05
-4.16932e-05
-6.35416e-05
1.12476e-05
-4.67935e-05
-6.14792e-06
7.7036e-06
-4.84677e-05
-9.47984e-05
-3.89826e-06
-9.09012e-05
-5.50716e-06
-4.68595e-05
-4.73693e-05
-4.93207e-06
8.64465e-06
-4.49948e-05
-1.10198e-05
5.41727e-06
-4.36329e-05
-8.54847e-05
-9.36676e-06
-7.61185e-05
-1.5909e-05
-3.70913e-05
-3.75601e-05
-2.33445e-05
2.15226e-05
-2.29808e-05
-3.61022e-05
1.27818e-05
-2.8351e-05
-6.33368e-05
-1.20247e-05
-5.13122e-05
-1.46001e-05
-2.57761e-05
-2.92422e-05
-8.33892e-06
2.01508e-05
-2.55883e-05
-2.3805e-05
1.5195e-05
-2.08208e-05
-3.61174e-05
-2.20011e-05
-1.41207e-05
-3.38102e-05
-9.0125e-06
-4.19104e-06
-5.52085e-05
3.88002e-05
-8.11022e-07
-4.21805e-05
2.9412e-05
3.75148e-07
1.52914e-05
-3.67856e-05
5.20779e-05
-4.29559e-05
6.54505e-06
-5.55646e-06
-3.82105e-05
7.32583e-05
3.12745e-05
-0.00011009
5.40469e-05
2.57567e-05
0.000106124
-6.67741e-05
0.000172896
-7.7954e-05
3.69367e-05
2.73725e-05
-7.40516e-05
9.80511e-05
4.37583e-05
-0.000114437
8.14603e-05
5.35275e-05
0.000254354
-9.04088e-05
0.000344756
-0.000113211
7.633e-05
8.61127e-05
-0.000155565
6.74358e-05
9.98607e-05
-8.11836e-05
5.27491e-05
9.1017e-05
0.000397498
-7.76499e-06
0.000405247
-3.85466e-05
0.000121804
0.000127087
-6.57738e-05
-2.36721e-06
0.000184457
-5.49974e-05
-3.71793e-05
0.000156616
0.000368053
5.48868e-05
0.000313144
6.02815e-05
0.000151219
0.000133735
0.00011101
-1.93267e-05
0.000216477
-6.34059e-05
-4.34077e-05
0.000175296
0.000269716
3.95236e-05
0.000230171
5.55414e-05
0.000159276
0.00016748
0.000104545
-4.40467e-05
0.000133018
7.85112e-05
-2.88883e-05
0.000144118
0.000201264
1.59436e-05
0.000185306
-3.41433e-07
0.000160403
0.000212081
-7.94027e-05
-3.05573e-05
0.00016732
7.53211e-05
-1.74557e-05
0.0001473
0.00016784
1.46261e-05
0.000153207
2.54967e-05
0.000136428
0.000130325
6.24913e-05
9.72102e-06
0.00020977
-8.91667e-05
-7.18989e-06
0.000153337
0.000146015
9.47621e-06
0.000136539
1.75545e-05
0.000145254
0.000172466
5.4858e-05
-3.10954e-05
0.00015132
5.22395e-05
-1.4494e-05
0.000128649
0.000122046
1.04577e-05
0.00011159
1.59791e-05
0.000123123
0.000120706
4.65916e-05
1.91104e-05
0.000196329
-9.47343e-05
4.45601e-07
0.000141785
0.000112037
4.50775e-06
0.00010753
8.59702e-06
0.000137691
0.000168337
3.65883e-05
-2.18232e-05
0.000152324
3.78354e-05
-1.0458e-05
0.000126323
9.70736e-05
5.76512e-06
9.13089e-05
8.74158e-06
0.000123343
0.000121152
3.99124e-05
2.8384e-05
0.000191491
-9.87225e-05
6.44925e-06
0.000145275
9.77571e-05
-1.29076e-05
0.000110663
-2.72368e-05
0.000159602
0.000150509
1.37446e-05
6.74058e-05
0.000257583
-0.000174479
2.06942e-05
0.00020631
0.000131357
-1.15124e-05
0.000142871
-2.37133e-05
0.000218507
0.0002547
-2.08304e-05
-1.32101e-05
0.000242148
2.57622e-05
-1.46995e-06
0.000206761
0.000141403
-5.57184e-07
0.00014196
5.78106e-06
0.00020042
0.000192557
5.53729e-05
5.00693e-05
0.000311911
-0.000169422
1.35985e-05
0.000236889
0.000155558
-2.97031e-06
0.000158529
6.18017e-06
0.000227736
0.000265371
5.27222e-05
-3.5208e-05
0.000236659
6.39212e-05
-1.10408e-05
0.000203566
0.000147492
4.13268e-06
0.000143363
1.67752e-05
0.000190922
0.00018487
6.85652e-05
4.57598e-05
0.000283399
-0.000144288
1.42952e-05
0.000222385
0.000157662
-4.66216e-06
0.000162326
-1.10896e-06
0.000218831
0.000248761
3.35314e-05
-2.65077e-05
0.000239222
3.60487e-05
-9.62719e-06
0.000201948
0.000152699
1.52238e-05
0.000137474
3.57486e-05
0.000181421
0.000215221
5.97502e-05
-1.88922e-05
0.000168594
6.55198e-05
-6.47229e-06
0.000169
0.000131001
-1.05635e-05
0.000141563
-3.91625e-05
0.000197596
0.000272609
-0.000143178
-3.79197e-05
0.000210846
9.96824e-05
-1.30992e-05
0.000172775
0.000128463
2.5876e-05
0.000102587
6.92421e-05
0.000129409
0.000183148
9.69395e-05
-4.15076e-05
0.000150759
7.38967e-05
-6.33016e-05
0.000151203
3.92856e-05
-3.83391e-05
7.76245e-05
8.15578e-06
0.000104708
0.000294102
-0.000135189
-2.01893e-05
0.000130392
0.000183898
-9.49709e-06
9.4016e-05
6.81275e-05
7.75895e-06
6.0369e-05
1.7367e-05
8.44081e-05
0.000115014
3.27442e-05
-2.19718e-05
9.59591e-05
4.10268e-05
-9.27796e-06
7.17152e-05
5.10913e-05
1.2564e-05
3.85236e-05
3.00258e-05
5.4257e-05
7.1422e-05
5.45609e-05
0.000102656
0.000144898
-0.000176135
4.37411e-05
0.00011317
8.22648e-05
7.5116e-06
7.47579e-05
1.80217e-05
0.000102665
0.000132401
3.05111e-05
-2.38313e-05
0.000115016
4.12287e-05
-1.02267e-05
8.91517e-05
6.43655e-05
1.20617e-05
5.26985e-05
2.701e-05
7.29297e-05
9.42015e-05
4.84435e-05
-3.14467e-05
6.96356e-05
5.74503e-05
-1.9665e-05