/*--------------------------------*- C++ -*----------------------------------*\
| =========                 |                                                 |
| \\      /  F ield         | OpenFOAM: The Open Source CFD Toolbox           |
|  \\    /   O peration     | Version:  v2006                                 |
|   \\  /    A nd           | Website:  www.openfoam.com                      |
|    \\/     M anipulation  |                                                 |
\*---------------------------------------------------------------------------*/
FoamFile
{
    version     2.0;
    format      ascii;
    class       volScalarField;
    location    "0.052";
    object      yPlus;
}
// * * * * * * * * * * * * * * * * * * * * * * * * * * * * * * * * * * * * * //

dimensions      [0 0 0 0 0 0 0];


internalField   uniform 0;

boundaryField
{
    bottomEmptyFaces
    {
        type            empty;
    }
    topEmptyFaces
    {
        type            empty;
    }
    inlet
    {
        type            calculated;
        value           uniform 0;
    }
    outlet
    {
        type            calculated;
        value           uniform 0;
    }
    walls
    {
        type            calculated;
        value           nonuniform List<scalar> 
900
(
24.2582
24.3005
24.2929
24.3347
24.3272
24.3686
24.361
24.4021
24.3944
24.4352
24.4274
24.4677
24.4596
24.4992
24.4908
24.5294
24.5207
24.5584
24.5492
24.5861
24.5767
24.6127
24.603
24.6381
24.6282
24.6624
24.6523
24.6854
24.6752
24.7072
24.6968
24.7275
24.7168
24.7463
24.7354
24.7636
24.7525
24.7796
24.7682
24.7941
24.7826
24.8075
24.7957
24.8196
24.8076
24.8307
24.8185
24.8407
24.8283
24.8498
24.8372
24.8581
24.8455
24.8659
24.8531
24.873
24.8602
24.8797
24.8668
24.8858
24.8729
24.8917
24.8787
24.897
24.884
24.9022
24.8891
24.9069
24.8938
24.9114
24.8982
24.9156
24.9022
24.9194
24.906
24.9229
24.9094
24.9261
24.9125
24.929
24.9152
24.9315
24.9178
24.9339
24.92
24.936
24.922
24.9379
24.9239
24.9396
24.9256
24.9412
24.9272
24.9427
24.9286
24.9441
24.93
24.9454
24.9314
24.9467
24.9327
24.9479
24.934
24.9492
24.9353
24.9505
24.9365
24.9517
24.9378
24.953
24.9392
24.9543
24.9405
24.9556
24.9419
24.957
24.9433
24.9584
24.9448
24.9599
24.9464
24.9617
24.9483
24.9637
24.9505
24.9661
24.9532
24.9693
24.9567
24.9735
24.9611
24.9789
24.9669
24.9861
24.9742
25.0126
25.0144
25.0637
25.1506
25.3683
25.8933
26.9096
29.0954
31.6279
70.883
79.3063
83.3155
107.656
122.514
63.3911
54.7005
57.123
58.4803
43.4946
40.6635
50.6784
44.915
45.7778
64.3686
68.3137
138.31
149.163
126.883
132.772
111.113
90.0687
100.008
87.005
76.4533
68.6336
70.5436
67.6168
63.3132
58.2909
61.2739
57.1999
16.6314
14.6917
12.4581
12.8494
10.1328
15.3147
15.6688
12.9838
12.5255
10.3136
12.9138
12.6779
10.465
15.5224
13.0331
15.2386
12.9214
12.4731
10.547
14.404
15.4444
13.105
12.0297
10.4942
12.3679
10.4713
15.9353
13.7134
14.5468
12.3126
11.1728
16.042
13.8753
15.6529
13.3948
12.046
10.7493
12.7815
11.4129
14.4188
12.9342
11.4704
16.3806
13.3572
11.5654
13.8813
12.8678
11.1823
24.1317
21.147
18.1563
17.166
22.319
18.7611
18.0341
22.9398
19.7902
18.7317
24.9139
21.8429
16.2961
13.6531
12.9854
16.5759
13.77
13.186
23.0205
23.5987
19.3784
18.6701
25.1492
22.1413
19.1021
18.0654
19.9253
19.0192
18.6917
17.6847
19.7541
17.2271
17.7735
14.5194
13.7358
17.3281
14.5245
13.8881
17.5916
14.7057
14.0988
16.7322
14.0588
13.4109
17.0403
14.2795
13.6054
17.8536
15.1119
14.4011
18.3315
15.8093
14.8554
15.9731
13.8548
14.1159
11.7121
10.6909
14.8779
15.3889
12.782
11.8175
12.2629
11.1901
17.1815
14.9647
15.8453
15.457
12.7381
11.9286
13.0761
12.311
29.4843
26.2993
16.4404
14.2185
12.3977
11.4054
15.3018
13.0742
12.1816
14.9972
12.7369
11.9465
13.2799
12.2498
15.7468
13.7338
12.6125
15.9368
14.4705
12.0578
10.8445
12.8532
11.518
29.5133
23.1861
21.6803
13.7499
12.1418
11.0296
14.6208
12.8198
11.6459
26.4199
23.6962
21.9276
30.2387
27.1491
30.4001
23.9884
22.4628
16.4399
17.8849
16.7866
13.8998
13.1343
14.3371
13.4344
16.1812
13.4165
12.6445
13.6082
12.8439
15.5037
13.1624
12.3539
16.0852
13.4174
12.8248
24.3258
21.1282
19.9992
25.1661
26.6175
54.5228
23.5343
20.4107
19.1998
53.3157
54.6043
51.4658
53.5396
56.6819
52.2365
50.7492
48.4932
25.5337
22.4914
21.2039
28.3529
24.9903
27.445
21.8974
20.6887
23.8627
18.4894
15.5158
20.5233
19.357
50.4005
23.5395
45.0741
19.8259
40.3027
41.5073
40.1138
19.072
33.3704
15.7144
20.0561
49.5454
42.7318
38.4415
37.479
63.037
63.2909
70.5749
65.1508
27.4809
24.2437
21.5212
20.1383
21.6628
20.3881
26.6191
23.3065
21.9286
13.043
14.3991
9.6451
17.7878
15.5224
16.0456
13.597
12.7562
12.9548
8.99971
16.613
13.5935
9.91856
13.9143
13.4797
10.1742
72.4011
68.9862
64.3125
60.0075
57.2706
52.7928
31.3863
48.5045
47.2287
43.97
29.2107
49.0491
46.2399
26.4323
23.9791
40.587
22.2723
35.4291
30.9104
23.6138
14.4757
27.959
27.1739
24.5391
22.7152
32.5847
30.898
27.5993
25.2566
23.3123
33.9207
26.0353
23.509
31.7024
28.4508
12.7115
11.4411
10.3996
9.33531
10.9919
7.12831
33.198
13.8793
31.9541
12.8013
30.8647
11.9426
11.3214
28.913
10.9199
26.9744
24.8023
35.6857
10.649
10.4603
35.2564
10.218
10.054
9.8763
9.77127
34.5038
33.3467
31.7963
29.4552
35.2065
9.62358
9.52798
34.0726
9.3839
34.2605
9.22263
27.5851
25.3934
9.07194
25.4744
23.8202
9.01618
8.90049
8.84748
8.67167
8.64062
8.52392
8.52462
8.45734
8.36694
8.27422
8.2321
8.14631
8.11975
8.03962
8.02865
7.95653
7.95363
7.89015
7.88976
7.82555
7.8269
7.76661
7.77133
7.71162
7.71539
7.65701
7.66102
7.60226
7.60401
7.54722
7.5529
7.4976
7.50268
7.44928
7.45918
7.41163
7.41943
7.36719
7.37325
7.32046
7.331
7.28412
7.28854
7.23638
7.24473
7.20242
7.19429
7.14077
7.14349
7.1013
7.10415
7.06281
7.06881
7.0353
7.0414
7.00367
7.00466
6.96875
6.97409
6.93807
6.94264
6.90755
6.91105
6.8779
6.89082
6.8545
6.87715
6.85197
6.86878
6.82956
6.84003
6.79667
6.81183
6.77594
6.79474
6.75199
6.7607
6.72187
6.71565
6.67057
6.70308
6.66282
6.74892
6.75919
6.8004
6.81734
6.89261
6.84105
6.34985
8.61053
5.5284
34.2447
34.0386
34.2166
33.9613
33.6406
33.3951
32.8104
32.0172
31.2468
30.4379
29.7257
29.0201
28.4106
27.822
27.3106
26.8386
26.417
26.0459
25.7039
25.4142
25.1392
24.9205
24.6971
24.5454
24.362
24.2724
24.1226
24.0807
23.9625
23.9487
23.8625
23.8669
23.8087
23.8246
23.7867
23.8095
23.7848
23.8127
23.7977
23.8289
19.6322
19.8675
16.3807
15.7623
23.8179
23.8557
23.8468
23.8893
23.8811
23.9258
23.9181
23.9644
20.5001
17.3027
16.5799
23.9571
24.004
23.9966
24.0433
24.0357
24.0817
24.0738
24.1193
19.4181
16.261
15.6926
24.1115
20.3594
24.1566
21.8255
17.488
16.5452
16.6983
15.9715
18.8753
15.8172
15.056
24.149
24.1937
19.9658
16.6305
16.0216
24.1863
19.7811
16.3827
15.8092
20.2286
16.8689
16.261
24.2303
24.2227
24.2658
18.4811
18.6849
15.3925
14.788
18.0302
18.1884
14.9872
14.3983
14.8532
14.2489
15.2407
14.5824
18.9664
19.2551
15.8898
15.2654
15.5873
14.9373
16.1568
15.4568
21.3513
21.5158
18.6637
17.5938
21.0458
17.6587
16.9399
23.3488
20.3426
17.2787
16.3358
22.1178
21.7857
17.875
17.2904
18.1679
17.5353
22.5678
18.6051
17.9023
19.3048
18.347
34.2377
11.4479
53.1392
48.3841
44.7688
42.6354
40.7843
39.5382
38.4718
37.7349
36.9913
36.4877
35.9301
35.5624
35.1228
34.8367
34.4767
34.2412
33.935
33.7332
33.4642
33.2859
33.0438
32.8822
32.6602
32.5109
32.3042
32.1643
31.9695
31.8367
31.6513
31.524
31.3459
31.2228
31.0505
30.9304
30.7624
30.6444
30.4795
30.3628
30.2001
30.0839
29.9226
29.8064
29.6456
29.5289
29.368
29.2501
29.0883
28.9688
28.8053
28.6836
28.5178
28.3933
28.2244
28.0967
27.924
27.7924
27.6151
27.479
27.2963
27.155
26.9658
26.8185
26.6219
26.4679
26.2628
26.1014
25.8869
25.7174
25.4926
25.3142
25.0782
24.8902
24.642
24.4438
24.1826
23.9736
23.6985
23.4781
23.1885
22.9567
22.6522
22.4091
22.09
21.8361
21.5033
21.2398
20.8957
20.6254
20.273
19.9994
19.6435
19.3717
19.0184
18.7551
18.4124
18.1655
17.8428
17.6209
17.3278
17.139
16.8836
16.7339
16.5227
16.4153
16.2505
16.1837
16.0644
16.031
15.9608
15.953
15.9208
15.9245
15.9122
15.926
15.9253
15.9457
15.953
15.9836
15.9955
16.0317
16.046
16.0843
16.0995
16.1379
16.1533
16.1908
16.2059
16.2419
16.2566
16.2907
16.3046
16.3366
16.3496
16.3794
16.3917
16.4196
16.4312
16.4574
16.4683
16.4932
16.5042
16.5278
16.5383
16.5602
16.5699
16.5904
16.5989
16.6174
16.6246
16.641
16.6475
16.6623
16.6678
16.6804
16.6846
16.6947
16.6977
16.7061
16.7052
16.7182
16.7007
16.7786
16.8354
17.1246
17.247
17.434
17.6547
17.9987
59.104
)
;
    }
    rightWall
    {
        type            calculated;
        value           uniform 0;
    }
    symmetryLine
    {
        type            symmetryPlane;
    }
}


// ************************************************************************* //
