/*--------------------------------*- C++ -*----------------------------------*\
| =========                 |                                                 |
| \\      /  F ield         | OpenFOAM: The Open Source CFD Toolbox           |
|  \\    /   O peration     | Version:  v2006                                 |
|   \\  /    A nd           | Website:  www.openfoam.com                      |
|    \\/     M anipulation  |                                                 |
\*---------------------------------------------------------------------------*/
FoamFile
{
    version     2.0;
    format      ascii;
    class       volVectorField;
    location    "0.126";
    object      U;
}
// * * * * * * * * * * * * * * * * * * * * * * * * * * * * * * * * * * * * * //

dimensions      [0 1 -1 0 0 0 0];


internalField   nonuniform List<vector> 
16277
(
(48.3132 0.00150217 -3.16087e-19)
(48.3135 -0.00398887 0)
(48.3131 0.00430364 0)
(48.3128 -0.00371898 0)
(48.3126 0.000450056 -5.0082e-21)
(48.3109 -0.00141799 -7.69872e-19)
(48.306 -0.00138963 9.05075e-19)
(48.2905 -0.00369065 0)
(48.2552 -0.00804101 0)
(48.1992 -0.0140627 0)
(48.1283 -0.0207848 -3.42922e-21)
(48.0502 -0.0271836 -6.98962e-21)
(47.9697 -0.0329181 1.76985e-21)
(47.8888 -0.0379783 0)
(47.8072 -0.0425383 0)
(47.7241 -0.0467612 0)
(47.6384 -0.0507627 0)
(47.5495 -0.0546054 0)
(47.4568 -0.0583083 0)
(47.3603 -0.0618741 0)
(47.2597 -0.0653008 0)
(47.1553 -0.0685917 0)
(47.0471 -0.0717562 0)
(46.9352 -0.0748072 0)
(46.8195 -0.0777585 0)
(46.7002 -0.0806214 0)
(46.5773 -0.0834046 0)
(46.4508 -0.0861132 0)
(46.3209 -0.0887495 0)
(46.1875 -0.0913136 0)
(46.0508 -0.0938038 0)
(45.9109 -0.0962175 0)
(45.7678 -0.098551 0)
(45.6218 -0.1008 0)
(45.4728 -0.102961 0)
(45.3211 -0.105029 0)
(45.1668 -0.106999 0)
(45.01 -0.108866 0)
(44.8508 -0.110625 0)
(44.6895 -0.112272 0)
(44.5261 -0.113802 0)
(44.3608 -0.115211 0)
(44.1938 -0.116496 0)
(44.0253 -0.117652 0)
(43.8554 -0.118675 0)
(43.6844 -0.119562 0)
(43.5123 -0.120309 0)
(43.3394 -0.120914 0)
(43.1659 -0.121373 0)
(42.9919 -0.121684 0)
(42.8177 -0.121843 0)
(42.6435 -0.121849 0)
(42.4694 -0.121699 0)
(42.2957 -0.121396 0)
(42.1226 -0.120936 0)
(41.9502 -0.120288 0)
(41.7788 -0.119467 0)
(41.6086 -0.118507 0)
(41.4398 -0.117389 0)
(41.2727 -0.116107 0)
(41.1073 -0.114657 0)
(40.9441 -0.113042 0)
(40.783 -0.111264 0)
(40.6245 -0.109321 0)
(40.4686 -0.107217 0)
(40.3156 -0.104951 0)
(40.1656 -0.102523 0)
(40.019 -0.0999338 0)
(39.8758 -0.0971795 0)
(39.7362 -0.0942545 0)
(39.6004 -0.0911499 0)
(39.4686 -0.0878539 0)
(39.341 -0.084354 0)
(39.2178 -0.0806407 0)
(39.0992 -0.0767097 0)
(38.9853 -0.0725591 0)
(38.876 -0.0681716 0)
(38.7707 -0.0634764 0)
(38.6684 -0.0582814 -3.00485e-20)
(38.5678 -0.0522706 2.99835e-20)
(38.4686 -0.0449839 0)
(38.373 -0.0362087 8.95482e-20)
(38.289 -0.0265775 -5.91627e-20)
(38.23 -0.0181971 0)
(38.2039 -0.0128869 -1.7185e-18)
(38.2033 -0.0105386 1.11681e-18)
(38.2136 -0.0096414 0)
(38.2257 -0.00943637 0)
(38.2355 -0.00935767 0)
(38.2345 -0.00738618 1.73915e-17)
(38.2271 -0.00459662 -1.02946e-17)
(38.2027 -0.0102857 -1.26057e-17)
(38.141 -0.0202389 -3.78885e-18)
(38.038 -0.0398382 2.12387e-18)
(37.8701 -0.0576763 0)
(37.6772 -0.0669742 0)
(36.9673 -0.102504 -2.7645e-19)
(36.5115 -0.0930306 2.32487e-18)
(37.6856 -0.113576 1.73386e-18)
(37.9172 -0.0967241 -5.82514e-18)
(37.9413 -0.11928 0)
(37.6342 -0.133698 1.79665e-18)
(35.9972 -0.0920251 1.93163e-18)
(35.4886 -0.0845119 7.1971e-19)
(37.5734 -0.133344 4.01137e-19)
(37.9635 -0.124081 1.33766e-18)
(37.9611 -0.121241 1.33862e-18)
(37.48 -0.122898 0)
(35.0208 -0.0739637 -1.2557e-18)
(34.5896 -0.0643158 1.16904e-19)
(37.3809 -0.112507 0)
(37.9471 -0.118005 0)
(37.9079 -0.113524 1.65967e-19)
(37.2529 -0.103541 0)
(34.1869 -0.057196 2.4773e-24)
(33.8231 -0.0518372 1.35712e-19)
(37.1364 -0.0967147 0)
(37.8669 -0.111143 -1.66811e-19)
(37.8075 -0.107652 1.05541e-20)
(37.004 -0.0912549 3.94167e-19)
(33.4788 -0.0475947 -5.06966e-19)
(33.1772 -0.0430715 4.92613e-19)
(36.8892 -0.0858037 3.961e-19)
(37.7547 -0.10718 -6.88728e-19)
(37.6832 -0.103008 -6.8157e-19)
(36.7504 -0.0811023 -7.95249e-19)
(32.885 -0.0400387 0)
(32.6241 -0.0364106 4.95034e-19)
(36.6333 -0.0770811 -4.10777e-19)
(37.6187 -0.102233 -1.06778e-20)
(37.5367 -0.0979753 6.94577e-19)
(36.4914 -0.0731228 -4.11016e-19)
(32.3667 -0.034352 -4.95317e-19)
(32.1341 -0.031604 0)
(36.3736 -0.0703004 0)
(37.4651 -0.097386 0)
(37.3768 -0.0938552 6.84266e-19)
(36.2315 -0.0671182 0)
(31.9032 -0.0301979 0)
(31.6946 -0.0279265 0)
(36.1167 -0.0651649 0)
(37.3022 -0.0939982 0)
(37.207 -0.090735 0)
(35.9733 -0.0625673 0)
(31.4817 -0.027066 0)
(31.2879 -0.025198 0)
(35.8583 -0.0610068 0)
(37.1275 -0.090735 0)
(37.0262 -0.087891 0)
(35.7132 -0.0589341 0)
(31.0877 -0.024745 0)
(30.9064 -0.0229778 0)
(35.5992 -0.0577706 0)
(36.9436 -0.0884082 0)
(36.8401 -0.0857679 0)
(35.4556 -0.0562192 0)
(30.7192 -0.0230551 0)
(30.5484 -0.0211449 0)
(35.3434 -0.0551501 0)
(36.7555 -0.0866301 0)
(36.6488 -0.0843076 0)
(35.1998 -0.0540743 0)
(30.37 -0.021646 0)
(30.2067 -0.0197303 0)
(35.0883 -0.0532116 0)
(36.5619 -0.0853528 0)
(36.4522 -0.0833487 0)
(34.9445 -0.052484 0)
(30.035 -0.0205124 0)
(29.8776 -0.0186428 0)
(34.8333 -0.051698 0)
(36.3632 -0.0844378 0)
(36.2506 -0.0827268 0)
(34.6889 -0.0512538 0)
(29.7112 -0.0196272 0)
(29.5583 -0.0177689 0)
(34.5777 -0.0505483 0)
(36.1593 -0.0839351 0)
(36.0438 -0.0824985 0)
(34.4324 -0.0503643 0)
(29.3959 -0.0189303 0)
(29.2463 -0.0170648 0)
(34.3207 -0.0497121 0)
(35.9502 -0.0838087 0)
(35.8315 -0.0826193 0)
(34.1742 -0.0497628 0)
(29.0869 -0.0183845 0)
(28.9397 -0.0164959 0)
(34.0615 -0.0491401 0)
(35.7354 -0.0840141 0)
(35.6136 -0.0830472 0)
(33.9134 -0.0494033 0)
(28.7823 -0.0179614 0)
(28.6369 -0.0161189 0)
(33.7994 -0.0487873 0)
(35.5148 -0.0844562 0)
(35.3896 -0.0837141 0)
(33.6495 -0.0492321 0)
(28.4809 -0.0176811 0)
(28.3365 -0.0158146 0)
(33.5339 -0.0485892 0)
(35.2879 -0.0851541 0)
(35.1593 -0.0846189 0)
(33.382 -0.0492182 0)
(28.1813 -0.0174752 0)
(28.0374 -0.0156408 0)
(33.2643 -0.0485551 0)
(35.0546 -0.0860887 0)
(34.9224 -0.0857509 6.86085e-19)
(33.1102 -0.0493489 0)
(27.8825 -0.0173686 0)
(27.7386 -0.0155639 0)
(32.9902 -0.0486564 0)
(34.8144 -0.0872686 0)
(34.6783 -0.0871152 0)
(32.8335 -0.0496137 0)
(27.5837 -0.0173454 0)
(27.4393 -0.0155483 0)
(32.7109 -0.0488332 0)
(34.5668 -0.0886764 0)
(34.4268 -0.0886255 0)
(32.5515 -0.0499588 0)
(27.2839 -0.0173834 0)
(27.1387 -0.0156016 0)
(32.426 -0.0492168 0)
(34.3116 -0.0901205 0)
(34.1674 -0.0902417 0)
(32.2635 -0.0504473 0)
(26.9823 -0.0174592 0)
(26.8359 -0.0156823 0)
(32.135 -0.0497395 0)
(34.0483 -0.0917552 0)
(33.8997 -0.0920605 6.86519e-19)
(31.9692 -0.0510692 0)
(26.6781 -0.0175703 0)
(26.5301 -0.0158033 0)
(31.8373 -0.0503789 0)
(33.7764 -0.0936067 0)
(33.6232 -0.0940854 0)
(31.6678 -0.0518096 0)
(26.3706 -0.0177261 0)
(26.2207 -0.0159679 0)
(31.5322 -0.0511363 0)
(33.4955 -0.0956684 0)
(33.3374 -0.0963086 0)
(31.3588 -0.052665 0)
(26.0591 -0.017926 0)
(25.9068 -0.0161739 0)
(31.2192 -0.0520092 0)
(33.2051 -0.0979328 0)
(33.0419 -0.0987224 0)
(31.0415 -0.0536306 0)
(25.7428 -0.018167 0)
(25.5878 -0.0164174 0)
(30.8977 -0.0529934 0)
(32.9046 -0.100391 0)
(32.7362 -0.101316 6.86946e-19)
(30.7156 -0.0547 0)
(25.421 -0.0184448 0)
(25.263 -0.0166931 0)
(30.5672 -0.0540827 0)
(32.5937 -0.103031 0)
(32.4198 -0.104075 0)
(30.3804 -0.0558649 0)
(25.0932 -0.0187544 0)
(24.9319 -0.0169963 0)
(30.2271 -0.0552675 0)
(32.2719 -0.105837 0)
(32.0923 -0.10698 0)
(30.0354 -0.0571145 0)
(24.7587 -0.0190912 0)
(24.5939 -0.0173287 0)
(29.8771 -0.0565267 0)
(31.9389 -0.108776 0)
(31.7534 -0.110002 0)
(29.6803 -0.0584262 0)
(24.4171 -0.019452 0)
(24.2486 -0.0176828 0)
(29.5168 -0.0578366 0)
(31.5943 -0.11182 0)
(31.4028 -0.113103 6.87388e-19)
(29.3149 -0.0597779 0)
(24.0681 -0.0198297 0)
(23.8958 -0.0180492 0)
(29.146 -0.0591709 0)
(31.2379 -0.114916 0)
(31.0404 -0.116222 0)
(28.9388 -0.0611348 0)
(23.7115 -0.0202099 0)
(23.5354 -0.0184099 0)
(28.7647 -0.0604878 0)
(30.8697 -0.117996 0)
(30.6663 -0.119278 0)
(28.5523 -0.0624494 0)
(23.3475 -0.0205715 0)
(23.1677 -0.0187418 0)
(28.373 -0.0617325 0)
(30.4898 -0.120964 0)
(30.2807 -0.122176 0)
(28.1557 -0.0636682 0)
(22.9763 -0.0209006 0)
(22.7933 -0.0190358 0)
(27.9714 -0.0628541 0)
(30.0987 -0.123721 0)
(29.8842 -0.124811 0)
(27.7497 -0.064737 0)
(22.5988 -0.0211798 0)
(22.413 -0.0192668 0)
(27.561 -0.0637889 0)
(29.6973 -0.126147 0)
(29.4779 -0.127048 0)
(27.3353 -0.0655843 0)
(22.2161 -0.0213816 0)
(22.0282 -0.0194052 0)
(27.143 -0.064455 0)
(29.2866 -0.128092 0)
(29.0633 -0.128721 0)
(26.9143 -0.0661186 0)
(21.8296 -0.0214736 0)
(21.6408 -0.019416 0)
(26.7192 -0.0647497 0)
(28.8685 -0.129365 0)
(28.6422 -0.129621 0)
(26.4887 -0.0662276 0)
(21.4418 -0.0214168 0)
(21.2533 -0.0192562 0)
(26.2923 -0.0645473 0)
(28.4452 -0.129731 0)
(28.2174 -0.129496 0)
(26.0615 -0.0657744 0)
(21.0554 -0.0211653 0)
(20.8691 -0.0188764 0)
(25.8655 -0.0636974 0)
(28.0199 -0.128912 0)
(27.7925 -0.128049 0)
(25.6365 -0.0646008 0)
(20.6744 -0.0206634 0)
(20.4926 -0.0182165 0)
(25.4433 -0.0620295 0)
(27.5965 -0.126584 0)
(27.3719 -0.124937 0)
(25.2186 -0.0625293 0)
(20.3037 -0.0198457 0)
(20.1292 -0.0172085 0)
(25.031 -0.0593507 0)
(27.1801 -0.122374 0)
(26.9613 -0.11977 0)
(24.8138 -0.0593485 0)
(19.9492 -0.0186366 0)
(19.7856 -0.0157783 0)
(24.6354 -0.0554293 0)
(26.7771 -0.115857 0)
(26.5677 -0.112107 0)
(24.4296 -0.0548181 0)
(19.6183 -0.0169459 0)
(19.4699 -0.0138408 0)
(24.2647 -0.0500116 0)
(26.3951 -0.106559 0)
(26.1995 -0.101512 0)
(24.0748 -0.048698 0)
(19.3198 -0.0146699 0)
(19.1913 -0.0113281 0)
(23.9284 -0.042893 0)
(26.0433 -0.0940878 0)
(25.8664 -0.0876243 0)
(23.7598 -0.0407889 0)
(19.0636 -0.011782 0)
(18.9616 -0.00823235 0)
(23.6366 -0.0336654 0)
(25.7317 -0.0779641 0)
(25.5793 -0.0698393 0)
(23.4954 -0.0305337 0)
(18.8614 -0.00809507 0)
(18.7964 -0.00430158 0)
(23.4015 -0.0225088 0)
(25.471 -0.0578693 0)
(25.3493 -0.0480258 0)
(23.294 -0.0186844 0)
(18.7278 -0.0039607 0)
(18.7042 0.000149874 0)
(23.2366 -0.0102871 0)
(25.2757 -0.0338002 0)
(25.1888 -0.0231108 0)
(23.1676 -0.00561863 0)
(18.6706 0.000625698 0)
(18.6925 0.00493544 0)
(23.1516 0.00353541 0)
(25.1548 -0.00733723 0)
(25.1067 0.00333618 0)
(23.1249 0.00823954 0)
(18.6967 0.00516052 0)
(18.7654 0.00978901 0)
(23.1528 0.0179995 0)
(25.1151 0.0200164 0)
(25.1086 0.0304107 0)
(23.1704 0.0223051 0)
(18.8083 0.00944021 0)
(18.9189 0.0139274 6.21922e-20)
(23.2393 0.0313516 0)
(25.1571 0.0453454 0)
(25.1894 0.0568647 0)
(23.2971 0.0364434 0)
(18.9992 0.0138696 -6.21922e-20)
(19.1563 0.0187144 6.21875e-20)
(23.4127 0.0461293 0)
(25.2841 0.0733583 0)
(25.3604 0.0840092 0)
(23.5164 0.0504722 0)
(19.2816 0.0189932 -6.21874e-20)
(19.483 0.0236875 6.21812e-20)
(23.6799 0.0600899 0)
(25.5032 0.100598 0)
(25.6215 0.104449 0)
(23.825 0.0597928 0)
(19.644 0.0216237 -6.21813e-20)
(19.8678 0.0257798 6.2174e-20)
(24.0189 0.0681382 0)
(25.7956 0.118402 0)
(25.9429 0.118437 0)
(24.191 0.0657539 0)
(20.0474 0.0230152 -6.21742e-20)
(20.2843 0.0264485 6.21662e-20)
(24.4067 0.0724038 0)
(26.1411 0.129434 0)
(26.3092 0.126585 0)
(24.5966 0.0684935 0)
(20.473 0.0231934 -6.21668e-20)
(20.7144 0.0262663 6.21582e-20)
(24.8253 0.0741249 0)
(26.5235 0.13562 0)
(26.7054 0.130466 0)
(25.0256 0.0690644 0)
(20.9049 0.0226427 -6.2159e-20)
(21.1447 0.025386 6.21501e-20)
(25.2603 0.0736844 0)
(26.9293 0.137584 0)
(27.1187 0.130379 0)
(25.4642 0.0676077 0)
(21.3309 0.0214766 -6.21513e-20)
(21.5632 0.0238612 6.21422e-20)
(25.6984 0.0712256 0)
(27.3459 0.135585 0)
(27.5364 0.126727 0)
(25.8997 0.0643489 0)
(21.7392 0.0197332 -6.21438e-20)
(21.9591 0.0218256 6.21347e-20)
(26.1277 0.0670614 0)
(27.761 0.130166 0)
(27.9471 0.120081 0)
(26.3207 0.0596286 0)
(22.1202 0.0175699 -6.21366e-20)
(22.3238 0.0194225 6.21278e-20)
(26.5376 0.0615658 0)
(28.164 0.121956 0)
(28.3411 0.11103 0)
(26.718 0.0537963 0)
(22.4665 0.0150951 -6.213e-20)
(22.6508 0.0167538 6.21216e-20)
(26.92 0.0550867 0)
(28.5461 0.111539 0)
(28.7102 0.100175 0)
(27.084 0.0471767 0)
(22.7728 0.0124184 -6.2124e-20)
(22.9359 0.0140273 6.21161e-20)
(27.2682 0.0480207 0)
(28.9001 0.0995344 0)
(29.0483 0.0880928 0)
(27.4127 0.0402088 0)
(23.0367 0.00989318 -6.21187e-20)
(23.1778 0.0114693 5.59015e-19)
(27.5772 0.0408008 4.12923e-19)
(29.2206 0.0866416 -1.37614e-18)
(29.3502 0.0754245 0)
(27.7001 0.0332996 0)
(23.2586 0.00776887 -6.21138e-20)
(23.3766 0.00897753 6.21074e-20)
(27.8442 0.0334989 0)
(29.5036 0.073484 -6.88012e-19)
(29.6145 0.0627937 0)
(27.9461 0.0266782 0)
(23.4377 0.00553606 -6.21097e-20)
(23.5333 0.0065414 6.21043e-20)
(28.0698 0.0265551 0)
(29.7486 0.0605514 0)
(29.8407 0.0506263 0)
(28.1512 0.0203629 0)
(23.5759 0.00346498 -6.21063e-20)
(23.6508 0.00437289 6.21019e-20)
(28.2554 0.0200749 0)
(29.9558 0.0483596 0)
(30.0299 0.0393518 0)
(28.3174 0.0144404 0)
(23.6766 0.00156477 -6.21037e-20)
(23.7334 0.00247123 6.21002e-20)
(28.4034 0.0140864 0)
(30.1269 0.0372075 0)
(30.1843 0.0294649 0)
(28.4481 0.00915109 0)
(23.7446 -6.85331e-05 -6.21017e-20)
(23.7862 0.00095297 6.20988e-20)
(28.5181 0.00898868 0)
(30.2652 0.0275701 0)
(30.3079 0.0210742 0)
(28.5475 0.00486563 0)
(23.7857 -0.00129477 -6.21001e-20)
(23.8149 -0.000133788 6.20978e-20)
(28.6038 0.00502046 0)
(30.3747 0.0195843 0)
(30.4047 0.0142024 0)
(28.6205 0.00157818 0)
(23.8051 -0.00215317 -6.20989e-20)
(23.8248 -0.000895091 6.20972e-20)
(28.6653 0.00196853 0)
(30.4598 0.013106 0)
(30.4791 0.00859446 0)
(28.6715 -0.00102956 0)
(23.808 -0.00278578 -6.20983e-20)
(23.8207 -0.00137049 6.20972e-20)
(28.7072 -0.00030661 0)
(30.5244 0.00790572 0)
(30.5349 0.00429457 0)
(28.705 -0.00260415 0)
(23.7988 -0.00297925 -6.20981e-20)
(23.806 -0.00142747 6.20971e-20)
(28.7332 -0.00138703 0)
(30.5722 0.00392103 0)
(30.5756 0.0012305 0)
(28.724 -0.00298064 0)
(23.7803 -0.00280807 -6.20979e-20)
(23.7838 -0.00121106 6.2097e-20)
(28.7467 -0.00180636 0)
(30.6068 0.00103675 0)
(30.6046 -0.000996108 0)
(28.7326 -0.00324303 0)
(23.7561 -0.00255354 -6.2098e-20)
(23.7567 -0.000981784 6.20975e-20)
(28.7506 -0.00203002 0)
(30.6305 -0.000932134 0)
(30.6237 -0.00300737 0)
(28.7327 -0.00411962 0)
(23.7274 -0.00260827 -6.20985e-20)
(23.7272 -0.00104852 6.20984e-20)
(28.7479 -0.00273226 0)
(30.646 -0.00260964 0)
(30.6358 -0.0041982 0)
(28.727 -0.00441969 0)
(23.6967 -0.00252344 -6.20991e-20)
(23.6956 -0.00113604 6.20987e-20)
(28.7397 -0.00357174 0)
(30.6548 -0.00477058 0)
(30.6415 -0.00430938 0)
(28.7162 -0.00406539 0)
(23.6641 -0.00226235 -6.20991e-20)
(23.6621 -0.00112285 6.20983e-20)
(28.7269 -0.00383291 0)
(30.6584 -0.00533185 0)
(30.6436 -0.00573882 0)
(28.7027 -0.00496727 0)
(23.6313 -0.00253067 -6.20991e-20)
(23.6301 -0.00140837 6.20983e-20)
(28.7129 -0.00408843 0)
(30.6596 -0.00528188 0)
(30.6427 -0.00666345 0)
(28.6873 -0.00614026 0)
(23.5987 -0.00295411 -6.2099e-20)
(23.5962 -0.00147484 6.20989e-20)
(28.695 -0.00448136 0)
(30.6556 -0.00537924 0)
(30.6375 -0.00748673 0)
(28.6683 -0.00685336 0)
(23.5648 -0.00314959 -6.20989e-20)
(23.5643 -0.00210607 6.20995e-20)
(28.6769 -0.00600298 0)
(30.6507 -0.00665082 -6.87958e-19)
(30.6316 -0.00707975 0)
(28.6496 -0.00631031 0)
(23.5327 -0.00303181 -6.20994e-20)
(23.5321 -0.00196451 6.20988e-20)
(28.6576 -0.00580409 0)
(30.6441 -0.00752143 0)
(30.6243 -0.00657031 0)
(28.63 -0.00576728 0)
(23.501 -0.00272161 -6.20996e-20)
(23.5001 -0.00185645 6.20989e-20)
(28.6374 -0.00555353 0)
(30.6363 -0.00652581 0)
(30.6163 -0.00791184 0)
(28.6103 -0.00672263 0)
(23.4702 -0.00310461 -6.21001e-20)
(23.471 -0.00147774 6.21003e-20)
(28.6186 -0.00454274 0)
(30.6285 -0.00584858 0)
(30.6079 -0.00653336 0)
(28.5908 -0.00541321 0)
(23.4404 -0.002551 -6.20692e-20)
(23.442 -0.00138141 6.20084e-20)
(28.5994 -0.00430734 0)
(30.6202 -0.00557492 -6.86653e-19)
(30.6017 -0.00612067 -6.83637e-19)
(28.5744 -0.00473733 3.07356e-19)
(23.4154 -0.00222711 -5.53951e-19)
(23.4192 -0.000495387 0)
(28.5863 -0.00193153 7.31007e-25)
(30.6212 -0.00301045 0)
(30.6061 -0.000395732 -6.67735e-19)
(28.5633 1.71428e-06 9.95086e-20)
(23.389 0.000122112 0)
(23.4223 0.00198956 -9.6765e-19)
(28.5882 0.00216426 6.06756e-25)
(30.635 0.00325242 -6.65848e-19)
(30.6298 0.0120045 0)
(28.5906 0.00706705 0)
(23.4152 0.00256513 9.04707e-19)
(23.4931 0.0122367 -2.44995e-19)
(28.6638 0.0223862 -4.01861e-18)
(30.6965 0.030814 -1.23771e-23)
(30.7535 0.0650439 5.11414e-18)
(28.7469 0.0490782 0)
(23.6406 0.0265889 -1.55967e-18)
(23.9312 0.0664616 -2.01042e-18)
(28.9442 0.0954842 1.59543e-17)
(30.9367 0.101826 5.12929e-23)
(31.4726 0.0687565 -3.71528e-17)
(29.7421 0.130796 1.04347e-18)
(25.0797 0.124841 0)
(24.8325 0.0641892 0)
(28.7931 0.127997 -8.81794e-19)
(30.5994 0.19147 7.3904e-19)
(31.7838 0.285657 -7.49073e-18)
(32.6568 0.135471 -4.1908e-22)
(33.1618 0.0300449 1.31331e-17)
(33.3349 0.00807768 -1.91315e-19)
(33.441 0.018593 -2.83196e-18)
(33.6507 0.023925 2.8362e-18)
(33.7348 0.0191745 0)
(33.8271 0.0212001 0)
(33.8686 0.0198552 6.10493e-19)
(33.9041 0.0216398 7.87702e-19)
(33.9119 0.0202669 -1.75588e-19)
(33.9009 0.0215839 8.90244e-19)
(33.8753 0.019603 -1.44746e-18)
(33.8079 0.0196666 7.45329e-19)
(33.7379 0.0125394 0)
(33.5623 0.0113172 -1.27923e-17)
(33.4625 0.00528588 -1.48591e-17)
(33.3511 0.00580407 0)
(33.2142 0.0183228 -5.28937e-19)
(32.9788 0.0103127 0)
(32.3783 -0.0284739 0)
(31.0819 -0.0713369 2.67777e-18)
(28.3667 -0.0672252 -6.93555e-18)
(24.9081 -0.0636711 0)
(17.7878 -0.066678 -3.65492e-19)
(17.2343 -0.0519698 3.45074e-19)
(24.5518 -0.0947873 -8.53479e-18)
(28.0825 -0.0908605 2.00738e-17)
(27.7895 -0.0857981 8.11699e-19)
(24.2158 -0.0548905 2.68902e-18)
(16.7841 -0.0386682 -2.84083e-18)
(16.4993 -0.0261782 0)
(23.9949 -0.0400992 -1.43977e-18)
(27.6063 -0.0644451 -3.70388e-18)
(27.5152 -0.0405112 0)
(23.9054 -0.0297571 9.46178e-19)
(16.2936 -0.0172861 0)
(16.2599 -0.00870083 0)
(23.8615 -0.0123376 2.22503e-19)
(27.4769 -0.0185011 -1.20496e-18)
(27.439 -0.0110155 4.59656e-25)
(23.8239 -0.0108149 -2.22569e-19)
(16.1467 -0.00571441 0)
(16.1416 0.0006939 0)
(23.7988 -0.00252921 0)
(27.4413 -0.00330315 -1.68551e-19)
(27.4457 0.00370634 0)
(23.8029 0.00204389 0)
(16.1469 0.000763472 0)
(16.1568 0.00100245 0)
(23.8115 0.0030919 0)
(27.4536 0.00592427 0)
(27.4631 0.00897553 0)
(23.8238 0.00462473 0)
(16.1711 0.00146934 0)
(16.1864 0.00146359 0)
(23.8382 0.00463386 0)
(27.4752 0.00845085 0)
(27.4866 0.00977303 0)
(23.853 0.00499136 0)
(16.2028 0.0015918 0)
(16.2208 0.00143527 0)
(23.8696 0.0048266 0)
(27.5003 0.00914359 -1.68205e-19)
(27.5137 0.010728 1.68535e-19)
(23.8863 0.00618989 0)
(16.2395 0.00206545 0)
(16.2585 0.0018802 0)
(23.9044 0.00582114 0)
(27.5287 0.00988122 0)
(27.5423 0.0107997 0)
(23.9219 0.00603906 0)
(16.2774 0.00198649 0)
(16.2981 0.00188367 0)
(23.9412 0.00577891 0)
(27.5582 0.0102791 0)
(27.5735 0.0120264 0)
(23.9608 0.00687483 0)
(16.3194 0.00234901 0)
(16.3406 0.00225009 0)
(23.9804 0.0065311 0)
(27.5897 0.0111644 0)
(27.6049 0.0119963 0)
(23.9994 0.00682194 0)
(16.3613 0.00232595 0)
(16.383 0.00174721 0)
(24.0196 0.00563103 0)
(27.6213 0.0111044 0)
(27.6371 0.0122939 0)
(24.0395 0.00639384 0)
(16.4053 0.00215996 0)
(16.4274 0.00203074 0)
(24.06 0.00595816 0)
(27.6542 0.0111194 0)
(27.6698 0.0119461 0)
(24.0796 0.00620942 0)
(16.4491 0.00209943 0)
(16.4712 0.00201207 0)
(24.1002 0.00607687 0)
(27.6869 0.0114419 0)
(27.7034 0.0126582 0)
(24.121 0.00634951 0)
(16.4941 0.00206059 0)
(16.517 0.00211982 0)
(24.1422 0.00627936 0)
(27.7209 0.0116778 0)
(27.7371 0.0126207 0)
(24.1626 0.0074008 0)
(16.5396 0.00253919 0)
(16.5632 0.00231409 0)
(24.1844 0.0068653 0)
(27.7549 0.0119337 0)
(27.7722 0.0132866 0)
(24.206 0.0077241 0)
(16.5876 0.00269937 0)
(16.6114 0.00249305 0)
(24.228 0.00710979 0)
(27.7907 0.0123926 0)
(27.8075 0.0128116 0)
(24.2492 0.00636487 0)
(16.6347 0.00207537 0)
(16.6587 0.00214974 0)
(24.2711 0.00654707 0)
(27.8257 0.0123802 0)
(27.8435 0.0134897 0)
(24.2932 0.00695934 0)
(16.6833 0.00228468 0)
(16.7078 0.00236284 0)
(24.3157 0.00692408 0)
(27.8623 0.0124955 0)
(27.88 0.0133045 0)
(24.3374 0.00779783 0)
(16.7321 0.00268694 -1.4407e-19)
(16.7569 0.00243911 1.43925e-19)
(24.3604 0.00727863 0)
(27.8993 0.0127251 0)
(27.9178 0.0139393 0)
(24.3833 0.00785922 0)
(16.782 0.00267121 0)
(16.8071 0.00249607 0)
(24.4066 0.00739752 0)
(27.9375 0.013058 0)
(27.9561 0.0138055 0)
(24.4293 0.00773954 0)
(16.8318 0.00261906 0)
(16.8572 0.00252966 0)
(24.4532 0.00760808 0)
(27.9763 0.0134037 0)
(27.9957 0.0146434 0)
(24.4769 0.00825292 0)
(16.8828 0.00280272 0)
(16.9089 0.00258603 0)
(24.5014 0.00767021 0)
(28.0165 0.0135899 0)
(28.0361 0.0144168 0)
(24.525 0.00829599 0)
(16.9345 0.00281924 0)
(16.9603 0.00263004 0)
(24.5495 0.00783138 0)
(28.0575 0.014005 0)
(28.0782 0.0146564 0)
(24.5743 0.00716942 0)
(16.9865 0.00223742 0)
(17.0128 0.00229784 0)
(24.5993 0.0070389 0)
(28.1 0.0136953 0)
(28.121 0.0143288 0)
(24.6237 0.00724731 0)
(17.038 0.00235733 0)
(17.0637 0.00221284 0)
(24.6492 0.00712997 0)
(28.1438 0.0140187 0)
(28.166 0.0151215 0)
(24.6748 0.00730368 0)
(17.0892 0.00221699 0)
(17.1154 0.0020676 0)
(24.7012 0.00697544 0)
(28.1896 0.0142184 0)
(28.2125 0.0152213 0)
(24.727 0.00825568 0)
(17.1409 0.00265592 0)
(17.1669 0.00253172 0)
(24.7542 0.00826073 0)
(28.2374 0.01506 0)
(28.2622 0.0161322 0)
(24.7817 0.00859629 0)
(17.1927 0.00262259 0)
(17.2179 0.00223088 0)
(24.8097 0.00759772 0)
(28.2886 0.015315 0)
(28.3143 0.015682 0)
(24.8375 0.00684406 0)
(17.2421 0.00173183 0)
(17.2666 0.0017703 0)
(24.8664 0.0071164 0)
(28.3423 0.0155541 0)
(28.3706 0.0165581 0)
(24.8961 0.00732185 0)
(17.2904 0.0017321 0)
(17.3144 0.00140125 0)
(24.9268 0.00667601 0)
(28.4006 0.0159471 0)
(28.4304 0.0169204 0)
(24.9578 0.00733238 0)
(17.3378 0.00157467 0)
(17.3618 0.00180206 0)
(24.9902 0.00831509 0)
(28.4628 0.0171784 0)
(28.4957 0.0182282 0)
(25.0237 0.00843039 0)
(17.3851 0.0017555 0)
(17.4079 0.00151523 0)
(25.0579 0.00799524 0)
(28.5305 0.017785 0)
(28.5659 0.0186806 0)
(25.0927 0.00772208 0)
(17.4292 0.00117937 0)
(17.4501 0.000457791 0)
(25.1291 0.00671273 0)
(28.6036 0.018465 0)
(28.6425 0.0197651 0)
(25.1666 0.0073601 0)
(17.4702 0.000552316 0)
(17.4896 2.54818e-05 0)
(25.2062 0.00659662 0)
(28.6844 0.0192203 0)
(28.7267 0.0204863 0)
(25.2468 0.00699253 0)
(17.5085 -6.55735e-05 0)
(17.5276 0.000400372 0)
(25.2897 0.00861778 0)
(28.7723 0.0214057 0)
(28.8201 0.0232812 0)
(25.3355 0.00888014 0)
(17.5473 0.00027338 0)
(17.5675 7.65289e-06 0)
(25.3838 0.00868341 0)
(28.871 0.0235649 0)
(28.9234 0.0255147 0)
(25.4343 0.00955533 0)
(17.588 9.17284e-05 0)
(17.6095 -0.000124311 0)
(25.4885 0.0101794 0)
(28.9806 0.0264912 0)
(29.0403 0.0290401 0)
(25.5456 0.0110198 0)
(17.6311 -5.28299e-05 0)
(17.653 -0.00126625 0)
(25.6068 0.00936524 0)
(29.1041 0.0295785 0)
(29.1705 0.0326093 0)
(25.6715 0.0110265 0)
(17.677 -0.000891277 0)
(17.7052 -0.000857506 0)
(25.742 0.0122261 0)
(29.2423 0.0348281 0)
(29.3174 0.0389952 0)
(25.8182 0.0153034 0)
(17.7397 8.29274e-05 0)
(17.7817 0.00156376 0)
(25.9011 0.0190477 0)
(29.3981 0.042258 0)
(29.4831 0.0468435 0)
(25.991 0.0213726 0)
(17.8317 0.00223354 0)
(17.8909 0.00352496 0)
(26.0882 0.0248748 0)
(29.574 0.0512465 0)
(29.6707 0.0568994 0)
(26.1933 0.0267374 0)
(17.9593 0.00411166 0)
(18.0395 0.00411126 0)
(26.3068 0.0269864 0)
(29.7722 0.0610844 0)
(29.8794 0.0683716 0)
(26.4286 0.0332585 0)
(18.1331 0.00669515 0)
(18.2444 0.00831802 0)
(26.5634 0.038057 0)
(29.9961 0.0753252 1.67896e-19)
(30.1192 0.0840443 -1.68218e-19)
(26.711 0.0420116 0)
(18.3769 0.0096355 0)
(18.5354 0.01296 0)
(26.873 0.0488464 0)
(30.2487 0.0933944 0)
(30.3868 0.107334 0)
(27.0484 0.0652369 0)
(18.719 0.0203777 0)
(18.9347 0.0238967 0)
(27.2455 0.0720514 0)
(30.5384 0.119702 0)
(30.7004 0.136813 0)
(27.4621 0.0833184 0)
(19.186 0.0302652 0)
(19.4815 0.038336 0)
(27.7054 0.0934642 0)
(30.8816 0.156269 0)
(31.0872 0.179378 1.68094e-19)
(27.9922 0.0964395 0)
(19.8496 0.0446229 0)
(20.3138 0.0759831 0)
(28.3221 0.13362 0)
(31.317 0.232922 -1.68619e-19)
(31.549 0.346912 -2.70883e-18)
(28.663 0.255076 1.36883e-23)
(20.7777 0.176484 2.29254e-18)
(21.2169 0.246114 -9.11819e-18)
(28.9896 0.350025 -5.57891e-23)
(31.7572 0.464233 2.53654e-18)
(31.9224 0.627809 -2.52201e-18)
(29.2586 0.514855 -7.02392e-18)
(21.6402 0.381821 9.03175e-18)
(22.0088 0.545993 1.42512e-19)
(29.4087 0.700595 -6.9988e-18)
(32.0305 0.79966 5.33288e-18)
(32.1153 0.966045 -5.46351e-18)
(29.6272 0.850647 0)
(22.3698 0.658293 0)
(22.7 0.800642 1.79948e-17)
(29.75 1.01185 -1.37434e-17)
(32.1815 1.12397 -5.09232e-18)
(32.2256 1.27066 0)
(29.886 1.14935 -1.35991e-17)
(23.0681 0.92043 1.78638e-17)
(23.4592 1.04621 1.77345e-17)
(30.0207 1.29256 -4.21831e-19)
(32.273 1.42242 0)
(32.2729 1.58484 0)
(30.1105 1.47123 4.22453e-19)
(23.8095 1.20531 -5.53605e-19)
(24.1143 1.31826 -1.63574e-17)
(30.1939 1.60502 0)
(32.2619 1.71818 0)
(32.2546 1.82211 -1.02929e-17)
(30.2882 1.69717 1.3517e-17)
(24.4499 1.40342 -1.82856e-17)
(24.8134 1.52064 0)
(30.378 1.81774 1.65823e-18)
(32.249 1.92863 0)
(32.2273 2.05236 -9.74498e-18)
(30.4497 1.94239 -1.6426e-18)
(25.1878 1.6305 -4.44038e-18)
(25.3898 1.7174 2.04741e-17)
(30.5018 2.10646 -3.46847e-17)
(32.1472 2.21555 2.41358e-17)
(31.9469 2.13505 2.98774e-17)
(30.3602 2.02174 -5.54884e-17)
(25.376 1.5941 -2.03417e-17)
(20.2201 1.37637 -3.16544e-17)
(28.007 1.67276 -3.12063e-18)
(30.9009 1.55192 -1.59576e-17)
(31.7059 2.25891 -3.52748e-18)
(29.0795 2.1155 4.69578e-18)
(21.4795 1.59059 -3.1051e-18)
(21.4824 1.71808 1.3957e-18)
(29.1718 2.33036 -2.11627e-18)
(31.7376 2.51576 -1.60981e-18)
(31.6907 2.64055 5.25842e-17)
(29.2338 2.42611 -4.56478e-22)
(21.8071 1.81248 -4.4646e-17)
(22.225 1.96816 3.33862e-19)
(29.2499 2.55748 6.48977e-17)
(31.6128 2.76177 2.33936e-22)
(31.6233 2.85905 2.46317e-17)
(29.401 2.63927 -3.18223e-17)
(22.735 2.07225 4.1815e-17)
(23.3065 2.19915 -3.18494e-19)
(29.5145 2.7346 1.20819e-19)
(31.6062 2.95707 2.33348e-17)
(31.6067 3.09456 -2.38818e-17)
(29.6734 2.91623 3.02558e-17)
(23.8475 2.3814 -3.09525e-19)
(24.3475 2.50522 6.17199e-19)
(29.7485 3.02143 2.8287e-17)
(31.5607 3.18724 -2.36258e-17)
(31.5602 3.29466 -1.80477e-17)
(29.8894 3.14774 -2.72376e-17)
(24.8474 2.65854 4.04631e-17)
(25.3347 2.74456 -2.36996e-18)
(30.0002 3.19564 0)
(31.5242 3.37274 -2.62624e-18)
(31.4651 3.51977 0)
(30.0835 3.35006 2.41252e-17)
(25.7519 2.87176 -6.88306e-17)
(25.8991 2.85277 5.08539e-17)
(30.0113 3.37184 0)
(31.2857 3.50924 -1.26528e-16)
(30.4911 2.98989 1.06669e-17)
(28.2518 2.98324 -3.13321e-18)
(22.2966 2.54774 -3.7784e-18)
(23.6462 2.83852 0)
(29.2345 3.42786 -2.30796e-18)
(31.1147 3.64163 -6.94905e-18)
(31.1211 3.83291 0)
(29.3339 3.59342 -3.20592e-17)
(23.9688 3.00439 4.23584e-17)
(24.5074 3.13904 6.33128e-19)
(29.528 3.71615 -9.62117e-19)
(31.1164 3.94864 0)
(31.0867 4.09305 1.19763e-22)
(29.6044 3.93129 2.79989e-17)
(24.8971 3.35776 -3.89038e-17)
(25.2824 3.47245 3.45938e-17)
(29.6712 4.01798 3.49142e-18)
(31.046 4.17949 0)
(30.9969 4.29804 1.98528e-17)
(29.7624 4.13052 -1.66686e-18)
(25.69 3.60213 -2.25032e-18)
(25.8811 3.74561 4.11085e-18)
(29.7329 4.33043 0)
(30.8667 4.45658 -3.21802e-17)
(30.6392 4.41248 -3.70417e-18)
(29.6163 4.28253 2.28261e-18)
(25.9601 3.69501 4.60557e-17)
(22.9128 3.16869 0)
(28.0854 3.86005 -3.08425e-18)
(29.9398 4.23178 7.91351e-18)
(30.3966 4.61969 3.78751e-17)
(28.8463 4.47423 -7.45001e-17)
(24.0449 3.79077 9.69328e-17)
(24.2988 3.96333 -4.36732e-17)
(28.9139 4.6477 -3.19096e-17)
(30.3167 4.82402 1.5467e-18)
(30.1749 4.97324 -2.38958e-17)
(28.9135 4.79838 -3.15718e-17)
(24.6756 4.18702 8.41172e-17)
(25.0524 4.3519 0)
(28.8759 4.89173 3.73035e-18)
(30.0118 5.09524 0)
(29.8495 5.26719 0)
(28.8785 5.0593 9.5485e-18)
(25.4419 4.54385 0)
(25.5373 4.68146 0)
(28.6747 5.24607 -1.98007e-17)
(29.5386 5.37041 0)
(28.8989 5.01134 -2.50603e-17)
(27.374 4.98419 2.58789e-17)
(22.8871 4.4035 0)
(24.1936 4.70916 1.00988e-16)
(28.0489 5.33206 2.94698e-19)
(29.2388 5.52962 -1.78676e-18)
(29.1219 5.81857 -2.44526e-17)
(28.0273 5.71652 3.24077e-17)
(24.4908 5.08316 -8.72035e-17)
(24.8278 5.20822 8.10294e-17)
(28.0045 5.71944 -6.00106e-17)
(28.9437 5.91842 -2.18061e-17)
(28.6901 6.14001 -3.46707e-17)
(27.9175 5.991 8.85737e-17)
(25.0194 5.45844 -1.5272e-16)
(24.9948 5.54984 2.11347e-16)
(27.6098 6.09498 9.8048e-17)
(28.3196 6.21365 -2.51724e-21)
(27.7696 5.97429 -7.07865e-19)
(26.5522 5.86862 -8.24964e-19)
(22.7425 5.28459 -1.00385e-18)
(23.6759 5.81199 1.02241e-16)
(26.9368 6.41976 6.00279e-19)
(27.8522 6.57622 0)
(27.4956 6.76848 9.76898e-17)
(26.7089 6.57518 -6.65331e-17)
(23.7905 6.05791 -2.45554e-18)
(24.0008 6.40834 2.48552e-18)
(26.4822 6.86957 0)
(27.1004 7.02015 -5.61183e-17)
(26.591 7.16986 -3.37727e-17)
(26.0463 7.11805 0)
(23.8816 6.62823 3.31442e-18)
(22.0623 6.3779 -1.40029e-16)
(25.1128 6.92161 1.10151e-16)
(26.0222 7.0285 0)
(25.866 7.62654 -5.78545e-17)
(25.1898 7.56353 7.7295e-17)
(22.7953 7.08921 2.02235e-19)
(22.7606 7.34298 8.84893e-17)
(24.7985 7.6575 0)
(25.3421 7.76557 0)
(24.6743 8.02349 0)
(24.2556 8.05983 -5.4027e-17)
(22.5675 7.82568 1.55653e-16)
(22.0962 8.00381 0)
(23.5149 8.19475 0)
(23.8119 8.07642 -8.03538e-18)
(22.8273 8.43469 1.09643e-17)
(22.343 8.29656 0)
(20.3937 7.97513 -1.32108e-16)
(20.3106 8.61481 -1.20756e-17)
(21.7448 8.77279 -1.32744e-16)
(22.1208 8.6505 1.80236e-21)
(20.8717 8.58653 -4.65481e-18)
(20.6508 8.88924 5.91636e-18)
(19.4554 8.81849 1.87937e-17)
(17.7414 8.60093 -4.51445e-18)
(19.1489 8.87391 -1.47251e-17)
(19.4452 9.12649 1.79499e-17)
(18.3388 8.86887 -8.52714e-17)
(17.9332 9.23321 1.22602e-16)
(16.9825 9.43885 -1.24218e-17)
(15.3045 9.40289 2.46756e-16)
(15.9951 8.82716 -1.52623e-16)
(16.3257 8.12498 0)
(13.3853 8.18975 -7.22768e-17)
(12.9521 8.68129 -1.20289e-17)
(12.1203 9.13138 0)
(9.31148 7.72927 0)
(9.92656 6.85849 1.78619e-17)
(10.7062 5.87999 -9.02936e-18)
(7.33353 3.94342 -1.32492e-16)
(5.87198 4.90678 3.63362e-16)
(4.96478 5.15729 -2.44731e-16)
(1.89498 0.809129 1.99172e-16)
(3.16369 -0.218828 -2.70636e-16)
(5.08248 -1.14581 1.83587e-16)
(3.7697 -9.5442 0)
(1.55793 -9.57217 -4.39388e-17)
(-0.182592 -9.83222 1.27272e-16)
(3.37762 -18.2984 -9.60384e-19)
(5.06803 -17.3011 4.64707e-17)