/*--------------------------------*- C++ -*----------------------------------*\
| =========                 |                                                 |
| \\      /  F ield         | OpenFOAM: The Open Source CFD Toolbox           |
|  \\    /   O peration     | Version:  v2006                                 |
|   \\  /    A nd           | Website:  www.openfoam.com                      |
|    \\/     M anipulation  |                                                 |
\*---------------------------------------------------------------------------*/
FoamFile
{
    version     2.0;
    format      ascii;
    class       volScalarField;
    location    "0.066";
    object      Co;
}
// * * * * * * * * * * * * * * * * * * * * * * * * * * * * * * * * * * * * * //

dimensions      [0 0 0 0 0 0 0];


internalField   nonuniform List<scalar> 
24416
(
0.018869
0.0180596
0.0195428
0.0202944
0.0206274
0.0201623
0.0202735
0.0201143
0.019942
0.0199036
0.0197765
0.0197772
0.0197512
0.0197346
0.0197211
0.0197067
0.01969
0.0196726
0.019655
0.0196374
0.01962
0.0196025
0.0195849
0.0195671
0.0195488
0.0195302
0.0195112
0.0194917
0.0194718
0.0194514
0.0194306
0.0194095
0.019388
0.0193662
0.019344
0.0193215
0.0192986
0.0192755
0.019252
0.0192283
0.0192043
0.0191801
0.0191556
0.0191308
0.0191059
0.0190808
0.0190555
0.01903
0.0190043
0.0189786
0.0189527
0.0189268
0.0189007
0.0188746
0.0188485
0.0188224
0.0187962
0.0187701
0.0187441
0.0187181
0.0186922
0.0186664
0.0186407
0.0186151
0.0185897
0.0185645
0.0185395
0.0185146
0.0184901
0.0184657
0.0184416
0.0184178
0.0183943
0.0183711
0.0183483
0.0183259
0.0183039
0.0182823
0.0182611
0.0182403
0.0182197
0.0181992
0.0181785
0.0181572
0.0181352
0.0181125
0.0180899
0.0180688
0.0180517
0.0180413
0.0180378
0.01804
0.0180466
0.0180717
0.0181123
0.0182556
0.0184814
0.0190624
0.0200628
0.0224266
0.0277486
0.0395552
0.0607328
0.0489432
0.0431689
0.0430322
0.0418685
0.0400704
0.0394801
0.0380175
0.0344472
0.0372399
0.0388569
0.0353016
0.0353133
0.0335888
0.0280848
0.0299447
0.0304663
0.0293478
0.0295393
0.0279233
0.0254027
0.0276881
0.0282965
0.0282296
0.0278239
0.0254853
0.0248719
0.0274402
0.0280298
0.0280475
0.0275397
0.0248757
0.0245331
0.0273615
0.0280315
0.0281117
0.0273051
0.0243553
0.0241628
0.027219
0.0278842
0.0280315
0.0271361
0.0239878
0.0238213
0.02705
0.0277963
0.0279384
0.026968
0.023667
0.0235216
0.0268853
0.0277022
0.027843
0.0268075
0.0233859
0.0232567
0.0267286
0.0276065
0.0277469
0.0266547
0.0231354
0.0230187
0.0265794
0.0275181
0.0276506
0.0265085
0.0229085
0.0228018
0.0264363
0.02743
0.0275548
0.0263681
0.0227004
0.0226017
0.0262986
0.0273414
0.0274598
0.026233
0.0225076
0.0224155
0.0261658
0.0272527
0.0273653
0.0261023
0.0223273
0.0222409
0.0260377
0.0271643
0.0272717
0.0259755
0.0221576
0.0220763
0.0259134
0.0270762
0.02718
0.0258534
0.0219971
0.0219192
0.0257921
0.0269881
0.0270888
0.0257339
0.0218438
0.0217688
0.0256735
0.0269001
0.0269977
0.0256167
0.0216966
0.0216245
0.0255575
0.0268123
0.0269073
0.0255019
0.0215549
0.0214853
0.0254436
0.0267245
0.0268173
0.0253892
0.0214181
0.0213506
0.0253317
0.0266369
0.0267276
0.0252781
0.0212854
0.0212197
0.0252214
0.0265492
0.0266382
0.0251686
0.0211564
0.0210924
0.0251125
0.0264614
0.0265489
0.0250604
0.0210306
0.020968
0.0250047
0.0263734
0.0264596
0.0249532
0.0209076
0.0208463
0.024898
0.0262852
0.0263702
0.0248469
0.0207871
0.0207269
0.024792
0.0261965
0.0262806
0.0247412
0.0206687
0.0206095
0.0246865
0.0261075
0.0261907
0.0246361
0.0205523
0.0204939
0.0245816
0.0260179
0.0261004
0.0245314
0.0204375
0.0203799
0.024477
0.0259277
0.0260097
0.024427
0.0203243
0.0202673
0.0243725
0.0258368
0.0259183
0.0243226
0.0202123
0.020156
0.0242682
0.0257452
0.0258263
0.0242183
0.0201015
0.0200456
0.0241638
0.0256527
0.0257336
0.0241138
0.0199916
0.019936
0.0240592
0.0255592
0.02564
0.0240091
0.0198824
0.0198271
0.0239543
0.0254647
0.0255455
0.023904
0.0197737
0.0197186
0.0238489
0.0253691
0.0254499
0.0237984
0.0196654
0.0196105
0.023743
0.0252723
0.0253533
0.0236923
0.0195574
0.0195025
0.0236364
0.0251741
0.0252554
0.0235853
0.0194495
0.0193946
0.0235291
0.0250746
0.0251564
0.0234776
0.0193415
0.0192866
0.0234208
0.0249736
0.0250558
0.0233689
0.0192333
0.0191782
0.0233116
0.0248709
0.0249537
0.0232591
0.0191248
0.0190694
0.0232011
0.0247666
0.0248501
0.023148
0.0190157
0.01896
0.0230894
0.0246603
0.0247447
0.0230356
0.018906
0.0188499
0.0229762
0.0245521
0.0246374
0.0229217
0.0187954
0.0187389
0.0228615
0.0244418
0.0245281
0.0228062
0.0186839
0.0186268
0.0227451
0.0243293
0.0244167
0.0226889
0.0185713
0.0185135
0.0226269
0.0242144
0.0243031
0.0225697
0.0184574
0.0183989
0.0225066
0.0240971
0.0241871
0.0224484
0.018342
0.0182828
0.0223843
0.0239771
0.0240687
0.022325
0.0182251
0.018165
0.0222596
0.0238544
0.0239475
0.0221991
0.0181064
0.0180454
0.0221325
0.0237288
0.0238236
0.0220708
0.0179858
0.0179239
0.0220029
0.0236002
0.0236968
0.0219399
0.0178633
0.0178003
0.0218706
0.0234694
0.023567
0.0218061
0.0177386
0.0176744
0.0217355
0.023339
0.0234341
0.0216695
0.0176116
0.0175462
0.0215973
0.0232054
0.023298
0.0215299
0.0174822
0.0174155
0.0214561
0.0230684
0.0231583
0.021387
0.0173501
0.0172821
0.0213115
0.0229279
0.023015
0.0212407
0.0172153
0.0171458
0.0211634
0.0227837
0.0228679
0.0210908
0.0170775
0.0170065
0.0210117
0.0226355
0.0227167
0.0209371
0.0169367
0.0168641
0.020856
0.0224833
0.0225614
0.0207795
0.0167926
0.0167183
0.0206964
0.0223269
0.0224017
0.0206178
0.0166451
0.016569
0.0205325
0.022166
0.0222374
0.0204518
0.0164939
0.016416
0.0203643
0.0220006
0.0220685
0.0202813
0.0163391
0.0162592
0.0201914
0.0218304
0.0218947
0.0201061
0.0161803
0.0160983
0.0200138
0.0216552
0.0217157
0.019926
0.0160173
0.0159332
0.0198312
0.0214748
0.0215314
0.0197407
0.01585
0.0157637
0.0196433
0.021289
0.0213415
0.0195502
0.0156782
0.0155896
0.0194501
0.0210977
0.021146
0.0193543
0.0155018
0.0154108
0.0192513
0.0209006
0.0209445
0.0191526
0.0153206
0.0152272
0.0190468
0.0206975
0.020737
0.0189452
0.0151345
0.0150386
0.0188363
0.0204882
0.0205231
0.0187317
0.0149433
0.0148448
0.0186198
0.0202726
0.0203027
0.018512
0.0147469
0.0146457
0.0183969
0.0200504
0.0200756
0.0182859
0.0145451
0.0144412
0.0181676
0.0198216
0.0198418
0.0180533
0.0143378
0.0142311
0.0179317
0.0195858
0.0196009
0.0178141
0.0141249
0.0140152
0.017689
0.019343
0.0193527
0.0175679
0.0139061
0.0137935
0.0174393
0.0190928
0.0190971
0.0173146
0.0136815
0.0135659
0.0171825
0.0188353
0.018834
0.0170543
0.0134508
0.0133323
0.0169185
0.0185702
0.0185633
0.0167867
0.0132143
0.0130927
0.0166474
0.0182976
0.018285
0.0165121
0.0129718
0.0128474
0.0163692
0.0180174
0.017999
0.0162302
0.0127235
0.0125963
0.0160839
0.0177296
0.0177055
0.0159414
0.0124697
0.0123396
0.0157915
0.0174343
0.0174045
0.0156457
0.0122103
0.0120776
0.0154925
0.0171316
0.017096
0.0153433
0.0119456
0.0118103
0.0151867
0.0168216
0.0167804
0.0150343
0.0116758
0.0115381
0.0148746
0.0165047
0.016458
0.0147192
0.0114012
0.011261
0.0145571
0.0161818
0.0161308
0.0144
0.0111207
0.0109753
0.0142355
0.0158547
0.0157984
0.0140749
0.0108292
0.0106784
0.0139067
0.0155213
0.0154597
0.0137427
0.0105276
0.0103725
0.0135709
0.0151817
0.0151149
0.0134037
0.010218
0.0100598
0.013229
0.0148365
0.0147645
0.013059
0.00990259
0.00974226
0.012882
0.014486
0.0144096
0.01271
0.00958357
0.0094222
0.0125312
0.0141314
0.0140511
0.0123582
0.00926313
0.00910186
0.0121785
0.013774
0.0136903
0.0120051
0.00894349
0.00878347
0.0118255
0.013415
0.0133289
0.0116528
0.00862702
0.00846948
0.0114743
0.0130561
0.0129685
0.0113035
0.00831618
0.00816236
0.0111273
0.0126994
0.0126113
0.0109594
0.00801346
0.00786457
0.0107867
0.0123467
0.0122593
0.010623
0.00772129
0.00757853
0.010455
0.0120004
0.0119148
0.0102968
0.00744202
0.00730653
0.0101346
0.0116626
0.0115801
0.009983
0.00717787
0.00705066
0.00982786
0.0113355
0.0112573
0.00968401
0.00693084
0.00681286
0.00953714
0.0110217
0.010938
0.0093927
0.00669594
0.00659446
0.00926416
0.0107228
0.0106566
0.00913882
0.00649447
0.00639668
0.00901096
0.0104413
0.010393
0.00889591
0.00630718
0.00621991
0.00877847
0.0101687
0.0101381
0.00867421
0.00614102
0.00606429
0.00856768
0.00992607
0.00990391
0.00847436
0.00599583
0.00592939
0.00837881
0.00970416
0.00969094
0.00829651
0.00587104
0.00581439
0.00821182
0.00950349
0.00949938
0.00814025
0.00576552
0.00571792
0.00806591
0.00932379
0.00932875
0.00800458
0.00567779
0.00563848
0.00794018
0.00916476
0.00917847
0.00788839
0.00560618
0.00557429
0.00783323
0.00902546
0.00903847
0.00779023
0.00554891
0.00552346
0.00774351
0.00891349
0.00892542
0.00770829
0.00550396
0.00548405
0.00766918
0.00880973
0.00882879
0.00764082
0.00546944
0.00545395
0.00760833
0.00872153
0.00874677
0.00758572
0.00544304
0.00543077
0.00755851
0.00865512
0.00867792
0.00754094
0.00542271
0.00541269
0.007518
0.0086
0.00861972
0.00750426
0.00540642
0.00539762
0.00748452
0.00855129
0.00856986
0.00747336
0.005392
0.00538321
0.00745564
0.00850638
0.00852586
0.0074456
0.00537688
0.00536685
0.00742771
0.00846116
0.00852465
0.00746437
0.00536486
0.00534492
0.00740362
0.00843339
0.00853138
0.00751627
0.00541543
0.00540204
0.00749155
0.0085487
0.00904616
0.00800224
0.00581501
0.00582882
0.00812133
0.00928578
0.0106967
0.00945252
0.00683372
0.00701303
0.0100188
0.0118432
0.0125603
0.0108883
0.00775726
0.0146871
0.0162551
0.0172599
0.0187938
0.0195268
0.0203213
0.0208032
0.0212442
0.0215651
0.0218999
0.0221673
0.0224364
0.022656
0.0228712
0.0230549
0.023232
0.0233901
0.0235394
0.0236783
0.0238073
0.0239312
0.0240455
0.0241582
0.0242618
0.0243661
0.0244622
0.0245608
0.024652
0.0247466
0.0248353
0.0249273
0.0250155
0.0251064
0.0251962
0.0252874
0.0253805
0.0254755
0.0255941
0.0257248
0.0259788
0.0262841
0.0267249
0.0274199
0.0294069
0.0379202
0.0546669
0.0582388
0.0543708
0.0495792
0.0469576
0.0421711
0.0315178
0.0282612
0.0392773
0.0450774
0.0410174
0.0368937
0.0268837
0.022005
0.0309594
0.0348894
0.0311308
0.0286801
0.0209567
0.0190254
0.0266041
0.029534
0.0279551
0.0256518
0.0186007
0.0183719
0.0255837
0.0281155
0.0278482
0.025404
0.0183264
0.0183445
0.0254249
0.0279092
0.0277033
0.0253325
0.0183544
0.0183535
0.0252782
0.0276952
0.0277762
0.0253906
0.0184533
0.0184524
0.0253313
0.0277333
0.0276146
0.0253231
0.0185002
0.0184992
0.0252448
0.027549
0.0276885
0.0253908
0.0186227
0.0185843
0.0252141
0.0275142
0.0276351
0.0254284
0.0187234
0.0186849
0.0252372
0.0274466
0.0275934
0.025394
0.0188194
0.0187807
0.0252097
0.0274137
0.0275319
0.0254276
0.0189278
0.0188887
0.0252313
0.0273423
0.0274807
0.0253874
0.019028
0.0189887
0.0252003
0.0273043
0.0274076
0.0254129
0.019139
0.0190995
0.0252148
0.027223
0.0273443
0.0253638
0.0192403
0.0192005
0.0251761
0.0271756
0.0272575
0.0253792
0.0193521
0.019312
0.0251801
0.02708
0.0271817
0.0253214
0.0194542
0.0194139
0.0251324
0.0270201
0.0270825
0.0253285
0.0195687
0.0195281
0.0251256
0.0269074
0.0269985
0.0252675
0.0196769
0.0196361
0.0250715
0.0268345
0.0268951
0.0252767
0.0198041
0.019763
0.0250575
0.0267029
0.0268193
0.0252327
0.0199395
0.0199378
0.0251053
0.0267231
0.0266361
0.0251811
0.0200819
0.0200802
0.0249901
0.0264557
0.0267189
0.0253312
0.0203817
0.0204619
0.0251335
0.0264691
0.0267875
0.0255234
0.0208236
0.0210381
0.0253478
0.0263929
0.0270368
0.0259385
0.0215292
0.0215555
0.02558
0.0265682
0.0269808
0.0260663
0.0220782
0.0220761
0.0256711
0.0264398
0.0274035
0.0265699
0.0228313
0.0226275
0.0260235
0.0267114
0.0270996
0.0268407
0.0236946
0.022977
0.0244497
0.0232374
0.0717405
0.0530887
0.0324691
0.0229918
0.0356631
0.0484185
0.030378
0.0280858
0.0223626
0.0214103
0.0249636
0.0258617
0.0317578
0.0243191
0.0216044
0.0211323
0.030606
0.0321388
0.0282561
0.0311776
0.0294461
0.0227626
0.0247596
0.025061
0.0210864
0.021854
0.0214001
0.0195405
0.0178233
0.0148729
0.0338735
0.0239894
0.0200422
0.0190891
0.021391
0.0274646
0.0184675
0.0171275
0.0165354
0.0145143
0.0159038
0.0175911
0.0175862
0.0156928
0.0118743
0.00887472
0.0163924
0.0195169
0.0170258
0.0168089
0.00552456
0.00846689
0.0211503
0.0232159
0.0325722
0.0261977
0.0170199
0.0263046
0.0306111
0.0336223
0.0400109
0.0399275
0.0351623
0.0473032
0.0546217
0.0528976
0.0663121
0.0654132
0.0586415
0.0668211
0.0748915
0.066609
0.0827797
0.0939745
0.0746199
0.0833039
0.111274
0.0952488
0.0918972
0.11518
0.0825908
0.0933403
0.105006
0.0962636
0.0827221
0.0801397
0.105115
0.115104
0.0697268
0.0499917
0.0914825
0.110568
0.139223
0.158636
0.14538
0.161888
0.117408
0.139672
0.159093
0.153988
0.139879
0.125483
0.183827
0.155866
0.155968
0.138848
0.13484
0.126202
0.123128
0.1279
0.127758
0.116102
0.134633
0.172949
0.120774
0.106093
0.0989704
0.0855564
0.0974305
0.100614
0.145947
0.104597
0.0792974
0.0663467
0.0780289
0.10586
0.0919355
0.081135
0.0631033
0.0812861
0.101109
0.134161
0.102001
0.0737472
0.0588961
0.0476143
0.0596691
0.0818772
0.114211
0.0760751
0.0450375
0.0509703
0.0901153
0.130831
0.0657604
0.0570592
0.0419635
0.048268
0.0756302
0.103331
0.125978
0.0896333
0.0522704
0.0419025
0.0556927
0.0625472
0.104558
0.073132
0.0423122
0.0512951
0.0901255
0.126406
0.0631159
0.0563788
0.0424141
0.049795
0.076383
0.102324
0.125115
0.0907495
0.0552795
0.0430269
0.0568378
0.0628915
0.105853
0.0791723
0.0523669
0.0576649
0.0905796
0.122721
0.0912076
0.0717039
0.0465953
0.0564375
0.0894602
0.116055
0.0660058
0.0602389
0.0470871
0.0544913
0.0808414
0.106088
0.128348
0.0952664
0.0587491
0.0480834
0.060525
0.0658294
0.107851
0.0824622
0.0557325
0.0599217
0.0971455
0.130984
0.066985
0.0621037
0.0496755
0.0591553
0.0873677
0.114406
0.127611
0.0969166
0.0641697
0.0533393
0.0790187
0.0988698
0.121363
0.0948607
0.0618729
0.0527058
0.0657651
0.0708301
0.118652
0.0916392
0.06305
0.0666176
0.10109
0.132477
0.101379
0.0820244
0.0565419
0.0650095
0.098715
0.124888
0.0731225
0.0683408
0.0561866
0.0595789
0.0913546
0.123011
0.138348
0.106258
0.069225
0.0573683
0.0695463
0.0738233
0.130965
0.0943811
0.058613
0.0637594
0.105967
0.141998
0.110207
0.091707
0.0672673
0.0668718
0.101295
0.130677
0.108596
0.0900471
0.0651922
0.0706807
0.104403
0.130889
0.080699
0.0753461
0.0614729
0.0723877
0.104629
0.134584
0.143938
0.111346
0.0747151
0.0648195
0.0927831
0.114616
0.136639
0.109362
0.0742683
0.0640007
0.0777873
0.0828629
0.140301
0.109637
0.076577
0.0785794
0.115228
0.149367
0.124325
0.0993207
0.0679323
0.0766846
0.112175
0.140951
0.12072
0.0995093
0.0718223
0.0794053
0.115167
0.142911
0.0886216
0.0834011
0.0695179
0.0727983
0.111563
0.151686
0.1605
0.122118
0.0777457
0.079718
0.10813
0.129792
0.147608
0.117485
0.0814871
0.0777536
0.106643
0.128239
0.148705
0.119633
0.0827963
0.07268
0.0878838
0.09368
0.157498
0.12372
0.0869261
0.0887882
0.129187
0.163466
0.13889
0.112159
0.0783363
0.0879301
0.124963
0.153563
0.134205
0.110794
0.0798614
0.0889366
0.1277
0.156438
0.0985123
0.0927806
0.0775017
0.0921317
0.130734
0.166983
0.172355
0.135161
0.0951055
0.0822993
0.118051
0.146939
0.162453
0.130992
0.0908646
0.0861337
0.120586
0.148041
0.162521
0.131007
0.0924397
0.0879783
0.119878
0.145021
0.165624
0.135398
0.0957275
0.0833156
0.100047
0.106341
0.178298
0.139825
0.0986366
0.0919249
0.142154
0.187592
0.15351
0.129387
0.096816
0.0962813
0.137099
0.17074
0.157259
0.130809
0.0958894
0.0988516
0.137731
0.170753
0.158621
0.130827
0.0949934
0.100694
0.141607
0.173155
0.155211
0.129018
0.0953647
0.103915
0.146499
0.178222
0.113411
0.107393
0.0911093
0.0986681
0.146599
0.195315
0.200811
0.155354
0.102456
0.102429
0.138207
0.165682
0.181368
0.147678
0.104739
0.103049
0.140498
0.168582
0.18153
0.148593
0.106799
0.102643
0.140969
0.171111
0.185789
0.151428
0.108906
0.103758
0.139564
0.167359
0.189113
0.15592
0.112184
0.0975301
0.115733
0.122887
0.206505
0.161254
0.113112
0.108788
0.164885
0.212922
0.177483
0.149436
0.112238
0.112019
0.15637
0.194146
0.180107
0.150542
0.111238
0.114738
0.159
0.192326
0.181631
0.150396
0.110023
0.115826
0.16164
0.196761
0.178006
0.148926
0.111078
0.119861
0.167131
0.202343
0.129136
0.122926
0.105034
0.114899
0.167873
0.221708
0.225599
0.177416
0.123428
0.113449
0.156448
0.190625
0.205885
0.168106
0.121366
0.115905
0.15931
0.192657
0.206311
0.169743
0.122551
0.117374
0.160927
0.194988
0.211416
0.172905
0.124221
0.118762
0.15929
0.190511
0.213413
0.177981
0.128076
0.112973
0.132198
0.138847
0.236633
0.179006
0.122969
0.132706
0.188396
0.237254
0.204528
0.166422
0.119661
0.130005
0.181061
0.220096
0.205814
0.168986
0.122865
0.130084
0.179787
0.219982
0.207269
0.171333
0.125968
0.133201
0.184365
0.223678
0.201014
0.16802
0.125974
0.136
0.187871
0.227727
0.145977
0.138272
0.118083
0.138382
0.195365
0.24972
0.252459
0.200907
0.140475
0.133663
0.179698
0.214674
0.233336
0.192004
0.139262
0.133912
0.18107
0.217112
0.233404
0.194244
0.140539
0.135218
0.182947
0.219745
0.238652
0.197694
0.143511
0.13515
0.179235
0.213894
0.241558
0.200004
0.146136
0.12836
0.149339
0.156795
0.264862
0.205535
0.144645
0.145085
0.210263
0.268612
0.227041
0.190066
0.142897
0.147143
0.203711
0.249778
0.228856
0.191776
0.14349
0.151011
0.205968
0.250634
0.223493
0.188633
0.142277
0.152666
0.210448
0.25678
0.162348
0.154948
0.133629
0.15046
0.214495
0.278272
0.285805
0.222351
0.1548
0.147711
0.198002
0.238485
0.263438
0.215159
0.155871
0.150034
0.201999
0.24114
0.262974
0.217601
0.158341
0.149887
0.197862
0.235404
0.26893
0.222441
0.161626
0.142044
0.16389
0.171218
0.293582
0.224488
0.156423
0.163244
0.237656
0.298832
0.250747
0.207857
0.155166
0.16406
0.227721
0.281012
0.244672
0.207282
0.157854
0.167582
0.233453
0.282114
0.175336
0.168477
0.146569
0.167925
0.23689
0.303016
0.31601
0.247073
0.171944
0.163464
0.217658
0.260547
0.293675
0.239392
0.173664
0.164954
0.216583
0.25468
0.295462
0.24225
0.175021
0.154154
0.17704
0.184366
0.31638
0.244178
0.171752
0.179665
0.25902
0.328349
0.270511
0.225823
0.169854
0.179592
0.247861
0.305594
0.263764
0.224055
0.172088
0.184355
0.254729
0.309541
0.189052
0.182136
0.159192
0.179755
0.253325
0.326734
0.344482
0.270737
0.187585
0.1742
0.228016
0.270791
0.322461
0.264276
0.189302
0.16618
0.187474
0.192747
0.340071
0.264145
0.187509
0.195742
0.282063
0.365698
0.276737
0.234731
0.179902
0.196177
0.276036
0.336877
0.198078
0.19213
0.169363
0.193433
0.272324
0.350593
0.376947
0.29402
0.203109
0.189383
0.246228
0.289362
0.350251
0.28483
0.202875
0.17635
0.19769
0.202461
0.358707
0.276359
0.196275
0.211018
0.306238
0.38895
0.295277
0.251163
0.194438
0.213747
0.298358
0.367964
0.206228
0.201079
0.179214
0.201374
0.277061
0.352145
0.407298
0.316857
0.217635
0.182298
0.202074
0.205393
0.363774
0.282777
0.204639
0.225338
0.328531
0.422238
0.205151
0.201999
0.183395
0.205579
0.285326
0.366025
0.432862
0.337783
0.228246
0.187777
0.207712
0.211521
0.381028
0.303693
0.220477
0.234534
0.346934
0.44899
0.212705
0.20985
0.190407
0.218846
0.301736
0.383345
0.463719
0.364252
0.248807
0.205326
0.223516
0.222248
0.393267
0.310411
0.225843
0.250932
0.371291
0.47475
0.220851
0.220548
0.203389
0.23204
0.313781
0.394382
0.492442
0.379839
0.256852
0.192705
0.19893
0.192662
0.261362
0.241803
0.208222
0.225304
0.307393
0.39143
0.499748
0.380121
0.252328
0.179514
0.182883
0.176567
0.21094
0.209025
0.193426
0.181281
0.203334
0.209279
0.197252
0.193475
0.17884
0.17738
0.199977
0.202682
0.231851
0.214441
0.179287
0.191465
0.276184
0.358132
0.487706
0.357691
0.220743
0.149135
0.159611
0.155307
0.167394
0.163205
0.142175
0.127076
0.151221
0.158997
0.152782
0.144183
0.118874
0.109127
0.135167
0.145093
0.140583
0.130242
0.102975
0.0965281
0.123857
0.135619
0.132132
0.120276
0.092122
0.0875086
0.115875
0.128476
0.125764
0.112605
0.083949
0.0806976
0.109528
0.123196
0.120745
0.106623
0.0777206
0.0749914
0.103883
0.118404
0.116164
0.101299
0.0724857
0.0701855
0.0988668
0.114019
0.112182
0.096575
0.0680713
0.066132
0.0944205
0.109776
0.10809
0.092402
0.0643554
0.0627274
0.0905054
0.106275
0.104538
0.0887264
0.0612369
0.059874
0.0870541
0.102865
0.101267
0.0854878
0.0586305
0.0574964
0.0840144
0.0997244
0.0984511
0.0826349
0.0564657
0.0555306
0.0813369
0.0966547
0.0954922
0.080123
0.054686
0.0539205
0.0789759
0.0941916
0.0931422
0.0779013
0.0532313
0.0526105
0.076886
0.0915861
0.0906306
0.075938
0.0520555
0.0515563
0.0750393
0.0895336
0.0886743
0.0742002
0.0511125
0.050716
0.0734054
0.0873241
0.0865493
0.0726663
0.0503665
0.0500539
0.0719632
0.0856327
0.084944
0.0713094
0.04978
0.0495363
0.0706873
0.0837773
0.083165
0.0701123
0.0493251
0.0491359
0.0695622
0.082409
0.0818727
0.0690545
0.0489729
0.0488274
0.0685683
0.0808672
0.0803989
0.0681235
0.0487042
0.0485924
0.0676949
0.0797839
0.0793813
0.0673039
0.0484985
0.0484127
0.0669259
0.0785153
0.0781713
0.066585
0.0483427
0.0482765
0.0662529
0.0776766
0.0773878
0.0659546
0.0482231
0.0481718
0.0656619
0.0766383
0.0763982
0.0654034
0.0481324
0.0480927
0.0651475
0.0760032
0.075808
0.0649223
0.0480626
0.0480366
0.0647008
0.0751535
0.0749981
0.0645047
0.0480137
0.0480011
0.0643162
0.0746831
0.074416
0.0641468
0.0479853
0.0479799
0.0639837
0.0741341
0.0739009
0.0638395
0.047971
0.0479711
0.0637003
0.0736518
0.0734488
0.0635785
0.0479669
0.0479732
0.06346
0.073225
0.0730486
0.063359
0.0479753
0.0479864
0.0632608
0.0728527
0.0727015
0.0631782
0.047992
0.0480086
0.0630961
0.0725239
0.0723927
0.0630304
0.0480204
0.0480417
0.0629716
0.072244
0.0721274
0.0629154
0.0480572
0.0480834
0.0628876
0.0720056
0.0719057
0.0628484
0.0481059
0.0481374
0.0628322
0.071801
0.0718587
0.0628028
0.0481638
0.0482005
0.0627986
0.0714804
0.0715511
0.0627814
0.0482326
0.0482739
0.0627873
0.0714938
0.0715622
0.0627755
0.0483079
0.0483537
0.0627921
0.0712528
0.0713381
0.0627915
0.0483942
0.0484434
0.0628118
0.071319
0.0712692
0.0628151
0.048486
0.0485382
0.0628424
0.0712621
0.0712255
0.0628543
0.0485852
0.0486398
0.0628855
0.0712233
0.0713345
0.0629007
0.048688
0.0487452
0.0629382
0.0710587
0.0711812
0.062961
0.048797
0.0488559
0.0630017
0.0711934
0.0711773
0.0630267
0.048908
0.0489685
0.0630732
0.0711986
0.0711933
0.0631053
0.0490239
0.049086
0.0631544
0.0712179
0.0712149
0.063188
0.0491414
0.0492048
0.0632422
0.071248
0.071255
0.0632826
0.0492634
0.0493284
0.063339
0.0712905
0.0712992
0.0633804
0.0493868
0.0494531
0.0634414
0.0713424
0.0713605
0.0634893
0.0495148
0.0495827
0.063552
0.0714054
0.0714242
0.0636002
0.0496442
0.0497134
0.0636672
0.0714761
0.0715037
0.0637215
0.0497782
0.0498488
0.0637896
0.0715564
0.0715837
0.0638437
0.0499132
0.0499849
0.0639155
0.0716426
0.0716779
0.063975
0.0500523
0.0501251
0.0640474
0.071737
0.0717715
0.0641062
0.0501919
0.0502655
0.0641818
0.0718358
0.0718773
0.0642452
0.0503348
0.0504094
0.0643213
0.0719414
0.0721255
0.064384
0.0504781
0.0505532
0.0644622
0.0719071
0.0720973
0.0645287
0.0506238
0.0506995
0.0646076
0.0721659
0.0723556
0.0646735
0.0507696
0.0508455
0.0647535
0.0721393
0.0723335
0.064822
0.0509166
0.0509925
0.0649024
0.0724054
0.0724549
0.0649704
0.051063
0.051139
0.0650522
0.0725294
0.0725825
0.0651223
0.0512103
0.0512861
0.0652037
0.0726565
0.0727089
0.065273
0.0513564
0.0514319
0.0653554
0.0727852
0.0728407
0.0654266
0.0515028
0.0515778
0.0655085
0.0729161
0.0731159
0.0655784
0.0516475
0.051722
0.0656607
0.0729023
0.0731054
0.0657321
0.0517918
0.0518656
0.0658139
0.0731815
0.0733832
0.0658838
0.051934
0.052007
0.0659657
0.073169
0.0733737
0.0660369
0.0520754
0.0521475
0.0661179
0.0734502
0.0735069
0.0661875
0.0522143
0.0522855
0.0662687
0.0735848
0.0736436
0.0663393
0.0523521
0.0524222
0.0664191
0.07372
0.0737769
0.0664879
0.052487
0.052556
0.0665677
0.0738543
0.0739131
0.0666372
0.0526204
0.0526882
0.0667157
0.0739886
0.074193
0.0667832
0.0527507
0.0528174
0.0668613
0.0739743
0.0741808
0.0669294
0.0528795
0.0529448
0.0670062
0.0742554
0.0744599
0.0670723
0.0530049
0.053069
0.0671485
0.0742389
0.0744452
0.067215
0.0531286
0.0531912
0.0672898
0.0745185
0.0747227
0.0673543
0.0532488
0.05331
0.0674285
0.0746471
0.0747041
0.0674931
0.0533671
0.053427
0.0675656
0.0747762
0.0748309
0.0676281
0.0534821
0.0535406
0.0677
0.0749033
0.0749592
0.0677626
0.053595
0.0536521
0.0678329
0.0748807
0.0752336
0.0678935
0.0537045
0.0537602
0.0679629
0.0750043
0.0752086
0.0680234
0.0538117
0.053866
0.0680914
0.0752771
0.0753291
0.0681498
0.0539157
0.0539686
0.0682169
0.0753976
0.0754503
0.0682752
0.0540175
0.0540691
0.0683409
0.0755169
0.0757181
0.068397
0.0541163
0.0541666
0.0684617
0.0754832
0.0756854
0.0685177
0.0542131
0.0542621
0.0685809
0.0757503
0.0757992
0.0686349
0.0543068
0.0543545
0.0686973
0.0758638
0.0759131
0.0687511
0.0543984
0.0544449
0.0688118
0.0759759
0.0760231
0.0688635
0.0544871
0.0545322
0.0689233
0.0760856
0.0761331
0.0689748
0.0545736
0.0546176
0.069033
0.0761937
0.0765445
0.0692204
0.0546572
0.0546998
0.0691392
0.0762989
0.0763445
0.0691881
0.0547388
0.0547802
0.069106
0.0760991
0.0765994
0.0692913
0.0548175
0.0548577
0.0693461
0.0763524
0.0765492
0.0693931
0.0548945
0.0549337
0.0694468
0.0766058
0.0768009
0.0694921
0.0549691
0.0550073
0.0695444
0.0765509
0.0767464
0.0695893
0.055042
0.0550792
0.0696409
0.076801
0.0769951
0.0696843
0.0551128
0.0551488
0.0697342
0.0767418
0.0769362
0.0697771
0.0551816
0.0552167
0.0698264
0.0769886
0.0771817
0.0698678
0.0552484
0.0552825
0.0699155
0.0769254
0.0771186
0.0699565
0.0553134
0.0553466
0.0700036
0.0771689
0.0773609
0.0700432
0.0553766
0.0554087
0.0700886
0.0771017
0.0772938
0.0701278
0.0554379
0.0554692
0.0701727
0.077342
0.0775328
0.0702105
0.0554974
0.0555278
0.0702538
0.0772709
0.0774617
0.0702912
0.0555553
0.0555848
0.0703339
0.0775079
0.0776976
0.0703699
0.0556114
0.05564
0.0704112
0.0774329
0.0776226
0.0704468
0.055666
0.0556939
0.0704877
0.077667
0.0778555
0.0705222
0.0557191
0.0557461
0.0705616
0.0777427
0.0777762
0.0705954
0.0557707
0.0557972
0.0706341
0.0776638
0.0780066
0.0706668
0.055821
0.0558465
0.0707042
0.0777365
0.0779238
0.0707365
0.0558695
0.0558944
0.0707735
0.0779641
0.0781501
0.0708047
0.0559167
0.0559408
0.0708402
0.0780327
0.078063
0.0708707
0.0559626
0.0559862
0.0709056
0.0779462
0.078287
0.0709352
0.0560071
0.0560298
0.0709689
0.0781674
0.0781961
0.0709979
0.0560502
0.0560725
0.0710311
0.0782329
0.0782603
0.0710589
0.0560922
0.0561135
0.0710908
0.0782955
0.078323
0.0711182
0.0561328
0.0561536
0.0711497
0.0782019
0.0785411
0.0711761
0.0561722
0.0561922
0.0712063
0.0782614
0.078444
0.0712324
0.0562101
0.0562297
0.0712624
0.0784771
0.0786588
0.0712874
0.0562471
0.0562659
0.0713159
0.078377
0.0785585
0.0713405
0.0562827
0.0563011
0.0713688
0.0785901
0.0786135
0.0713924
0.0563174
0.0563349
0.0714195
0.0786438
0.0786672
0.0714428
0.0563507
0.0563679
0.0714697
0.0786972
0.0788768
0.0714919
0.0563831
0.0563996
0.0715176
0.078591
0.0789279
0.0715396
0.0564144
0.0564307
0.071565
0.0787988
0.0788198
0.0715859
0.0564449
0.0564603
0.0716101
0.078847
0.0788681
0.0716307
0.0564742
0.0564894
0.0716548
0.0788955
0.0789152
0.0716745
0.0565027
0.0565171
0.0716973
0.0789411
0.078961
0.0717167
0.0565301
0.0565443
0.0717394
0.0788296
0.0791639
0.0717581
0.0565566
0.0565701
0.0717797
0.07903
0.0790489
0.0717979
0.0565822
0.0565956
0.0718194
0.078916
0.0792498
0.0718369
0.0566072
0.0566198
0.0718571
0.0789568
0.0791324
0.0718744
0.0566309
0.0566433
0.0718949
0.0791557
0.0793307
0.0719113
0.0566541
0.056666
0.0719304
0.0790362
0.079211
0.0719465
0.0566763
0.0566879
0.0719658
0.0792331
0.0794073
0.0719812
0.056698
0.0567091
0.0719993
0.0791116
0.0792856
0.0720144
0.0567188
0.0567296
0.0720326
0.0793064
0.0794797
0.072047
0.0567389
0.0567493
0.0720641
0.0791828
0.0793561
0.0720783
0.0567583
0.0567684
0.0720954
0.0793758
0.0795484
0.0721089
0.056777
0.0567867
0.0721251
0.0792503
0.0794228
0.0721385
0.0567951
0.0568046
0.0721547
0.0794416
0.0796135
0.0721673
0.0568125
0.0568216
0.0721826
0.0793142
0.079486
0.0721951
0.0568294
0.0568383
0.0722105
0.079504
0.0796751
0.0722223
0.0568457
0.0568542
0.0722368
0.0793748
0.0795459
0.0722485
0.0568614
0.0568698
0.0722631
0.0795631
0.0797336
0.0722742
0.0568767
0.0568846
0.0722878
0.0794322
0.0796027
0.0722988
0.0568913
0.0568991
0.0723125
0.0796192
0.0796295
0.0723229
0.0569056
0.0569129
0.0723359
0.0796456
0.0796564
0.0723464
0.0569192
0.0569265
0.0723594
0.0796722
0.0798414
0.0723693
0.0569326
0.0569394
0.0723815
0.0795381
0.0798669
0.0723913
0.0569453
0.0569521
0.0724034
0.0795633
0.079891
0.0724127
0.0569577
0.0569641
0.0724242
0.0797459
0.0797556
0.0724334
0.0569697
0.0569761
0.0724448
0.0796111
0.0799386
0.0724536
0.0569814
0.0569874
0.0724642
0.0796335
0.0798019
0.0724731
0.0569925
0.0569984
0.0724839
0.0798157
0.0798237
0.0724921
0.0570034
0.0570089
0.0725025
0.0798371
0.0798455
0.0725109
0.0570138
0.0570194
0.072521
0.0798587
0.0798662
0.0725287
0.0570239
0.0570292
0.0725386
0.0798792
0.079887
0.0725464
0.0570338
0.057039
0.072556
0.0798997
0.0799066
0.0725632
0.0570432
0.0570482
0.0725726
0.079919
0.0799264
0.0725799
0.0570525
0.0570575
0.0725892
0.0799386
0.0799449
0.0725958
0.0570614
0.0570661
0.0726047
0.0799568
0.0799635
0.0726114
0.0570699
0.0570746
0.0726202
0.0799753
0.0799812
0.0726264
0.0570782
0.0570826
0.0726348
0.0799926
0.0799989
0.0726412
0.0570862
0.0570907
0.0726495
0.0800103
0.0800157
0.0726553
0.057094
0.0570982
0.0726634
0.0800267
0.0800325
0.0726693
0.0571016
0.0571059
0.0726773
0.0800435
0.0800486
0.0726827
0.0571089
0.057113
0.0726905
0.0800593
0.0800647
0.0726961
0.0571162
0.0571203
0.0727038
0.0800752
0.0800799
0.0727088
0.0571232
0.0571271
0.0727163
0.0800902
0.0800953
0.0727215
0.05713
0.0571341
0.072729
0.0801055
0.0801099
0.0727337
0.0571368
0.0571406
0.072741
0.0801198
0.0801246
0.0727459
0.0571434
0.0571473
0.0727532
0.0801346
0.0801386
0.0727576
0.0571498
0.0571535
0.0727647
0.0801483
0.0801528
0.0727693
0.0571561
0.0571599
0.0727765
0.0801625
0.0803267
0.0727807
0.0571624
0.0571661
0.0727874
0.0800156
0.0801799
0.0727916
0.0571686
0.0571722
0.0727987
0.0801894
0.0803536
0.0728027
0.0571746
0.0571783
0.0728094
0.0800421
0.0802062
0.0728133
0.0571806
0.0571843
0.0728204
0.0802156
0.0803796
0.0728242
0.0571866
0.0571903
0.0728308
0.0800679
0.0802319
0.0728346
0.0571926
0.0571963
0.0728417
0.0802413
0.0804052
0.0728454
0.0571987
0.0572024
0.072852
0.0800934
0.0802575
0.0728558
0.0572049
0.0572087
0.0728628
0.0802668
0.0802701
0.0728664
0.0572111
0.057215
0.0728734
0.0802794
0.0802833
0.0728775
0.0572177