/*--------------------------------*- C++ -*----------------------------------*\
| =========                 |                                                 |
| \\      /  F ield         | OpenFOAM: The Open Source CFD Toolbox           |
|  \\    /   O peration     | Version:  v2006                                 |
|   \\  /    A nd           | Website:  www.openfoam.com                      |
|    \\/     M anipulation  |                                                 |
\*---------------------------------------------------------------------------*/
FoamFile
{
    version     2.0;
    format      ascii;
    class       volScalarField;
    location    "0.066";
    object      nut;
}
// * * * * * * * * * * * * * * * * * * * * * * * * * * * * * * * * * * * * * //

dimensions      [0 2 -1 0 0 0 0];


internalField   nonuniform List<scalar> 
24416
(
1052.63
712.568
2317.95
3127.52
7794.95
16630
16630
11602.6
1247.12
121.565
17.6034
4.50508
1.87395
1.11006
0.814261
0.671428
0.59296
0.546278
0.51568
0.49286
0.473551
0.455877
0.439155
0.423233
0.408255
0.39439
0.381729
0.370274
0.359956
0.350663
0.342263
0.334628
0.327645
0.321217
0.315269
0.309742
0.304588
0.29978
0.295292
0.2911
0.287186
0.283536
0.280137
0.276979
0.274054
0.271353
0.26887
0.266599
0.264536
0.262676
0.261018
0.259559
0.258296
0.257229
0.256356
0.255679
0.255198
0.254911
0.254819
0.254931
0.255249
0.255771
0.256505
0.257456
0.25863
0.260036
0.261686
0.263593
0.265778
0.26827
0.271106
0.274336
0.278021
0.282233
0.287041
0.292501
0.298625
0.305348
0.312495
0.319763
0.32676
0.333135
0.338862
0.344707
0.352973
0.368797
0.402645
0.476572
0.645632
1.08641
2.53064
9.08697
54.1062
442.759
2193.48
376.199
82.6391
23.7085
8.31089
3.4233
1.26296
0.579751
0.372673
0.198874
0.12713
0.0873196
0.0487899
0.0127937
0.00234849
7.67276e-05
6.71602e-05
0.0010741
0.00490036
0.00312394
0.000803365
6.04641e-05
5.50542e-05
0.000701548
0.00251353
0.00214168
0.000626304
5.15355e-05
4.8596e-05
0.000598608
0.00193005
0.00174246
0.000553738
4.63763e-05
4.45298e-05
0.000532373
0.00164251
0.00152419
0.000495858
4.2639e-05
4.11855e-05
0.000482578
0.0014668
0.00138425
0.000467039
3.99677e-05
3.91214e-05
0.000459975
0.00135283
0.00129476
0.000447874
3.82341e-05
3.76416e-05
0.000443009
0.0012737
0.00122823
0.000433084
3.69695e-05
3.65351e-05
0.000429566
0.00121319
0.00117527
0.00042116
3.6009e-05
3.56737e-05
0.000418346
0.00116376
0.00113102
0.000411141
3.52489e-05
3.49786e-05
0.000408636
0.00112154
0.00109289
0.00040236
3.46238e-05
3.43983e-05
0.000400072
0.00108485
0.00105927
0.000394509
3.40932e-05
3.38993e-05
0.000392373
0.00105233
0.0010292
0.000387359
3.36304e-05
3.34597e-05
0.000385356
0.00102313
0.00100197
0.000380779
3.32178e-05
3.30645e-05
0.000378897
0.000996614
0.000977103
0.000374679
3.28433e-05
3.27039e-05
0.000372921
0.000972337
0.000954219
0.000368985
3.25004e-05
3.23718e-05
0.00036733
0.000949947
0.000933017
0.000363635
3.21816e-05
3.20617e-05
0.000362075
0.000929172
0.000913293
0.000358595
3.18828e-05
3.17702e-05
0.000357129
0.000909819
0.000894874
0.000353839
3.16011e-05
3.14947e-05
0.000352457
0.000891728
0.00087762
0.000349336
3.1334e-05
3.1233e-05
0.000348031
0.000874767
0.000861409
0.000345063
3.10797e-05
3.09835e-05
0.00034383
0.000858817
0.000846144
0.000341001
3.08368e-05
3.07447e-05
0.000339834
0.000843786
0.000831735
0.000337133
3.0604e-05
3.05156e-05
0.000336028
0.000829591
0.000818109
0.000333443
3.03803e-05
3.02953e-05
0.000332395
0.000816163
0.000805217
0.000329919
3.01648e-05
3.00828e-05
0.000328927
0.000803457
0.000793012
0.000326555
2.99568e-05
2.98777e-05
0.000325616
0.000791423
0.000781418
0.00032334
2.97558e-05
2.96792e-05
0.000322451
0.000779998
0.000770397
0.000320264
2.95612e-05
2.9487e-05
0.00031942
0.000769132
0.000759901
0.000317315
2.93725e-05
2.93005e-05
0.000316513
0.000758777
0.000749893
0.000314482
2.91891e-05
2.91191e-05
0.000313719
0.000748894
0.000740328
0.000311755
2.90105e-05
2.89423e-05
0.000311029
0.000739442
0.000731165
0.000309126
2.88363e-05
2.87697e-05
0.000308433
0.000730384
0.000722381
0.000306586
2.8666e-05
2.86009e-05
0.000305923
0.000721696
0.00071395
0.000304127
2.84993e-05
2.84354e-05
0.000303494
0.000713355
0.000705851
0.000301746
2.83356e-05
2.82729e-05
0.000301141
0.000705335
0.000698048
0.000299435
2.81747e-05
2.8113e-05
0.000298855
0.000697606
0.000690528
0.000297188
2.80162e-05
2.79555e-05
0.000296632
0.000690151
0.00068326
0.000294998
2.78599e-05
2.78e-05
0.000294463
0.000682942
0.000676229
0.00029286
2.77054e-05
2.76462e-05
0.000292344
0.000675966
0.000669421
0.000290768
2.75524e-05
2.74937e-05
0.000290271
0.000669206
0.000662811
0.000288719
2.74006e-05
2.73423e-05
0.000288239
0.000662636
0.00065638
0.000286707
2.72497e-05
2.71918e-05
0.000286242
0.000656241
0.000650113
0.000284725
2.70994e-05
2.70417e-05
0.000284274
0.000650006
0.000643997
0.000282771
2.69495e-05
2.68919e-05
0.000282332
0.000643918
0.00063802
0.000280839
2.67996e-05
2.6742e-05
0.000280412
0.000637967
0.000632173
0.000278927
2.66496e-05
2.65919e-05
0.000278511
0.000632143
0.000626446
0.000277033
2.6499e-05
2.64412e-05
0.000276626
0.000626435
0.000620826
0.000275153
2.63479e-05
2.62897e-05
0.000274754
0.000620833
0.000615315
0.000273284
2.61958e-05
2.61372e-05
0.000272895
0.000615347
0.000609903
0.000271427
2.60426e-05
2.59836e-05
0.000271047
0.000609952
0.000604571
0.000269578
2.58881e-05
2.58287e-05
0.000269205
0.000604639
0.000599321
0.000267732
2.57322e-05
2.56722e-05
0.000267367
0.000599422
0.000594158
0.000265892
2.55745e-05
2.55139e-05
0.000265534
0.000594282
0.000589064
0.000264054
2.54151e-05
2.53537e-05
0.000263702
0.000589204
0.000584023
0.000262214
2.52535e-05
2.51914e-05
0.000261867
0.000584177
0.000579027
0.000260367
2.50897e-05
2.50266e-05
0.000260024
0.000579192
0.000574068
0.000258511
2.49232e-05
2.48592e-05
0.000258171
0.000574244
0.000569142
0.000256643
2.47539e-05
2.46888e-05
0.000256305
0.000569328
0.000564243
0.00025476
2.45814e-05
2.45152e-05
0.000254425
0.000564437
0.000559367
0.000252861
2.44056e-05
2.43381e-05
0.000252528
0.000559568
0.000554508
0.000250943
2.42262e-05
2.41573e-05
0.000250612
0.000554715
0.000549662
0.000249006
2.40429e-05
2.39726e-05
0.000248676
0.000549874
0.000544821
0.000247045
2.38556e-05
2.37837e-05
0.000246715
0.000545038
0.000539987
0.000245059
2.3664e-05
2.35904e-05
0.000244727
0.000540209
0.000535158
0.000243052
2.34678e-05
2.33924e-05
0.000242715
0.000535385
0.000530331
0.000241018
2.32668e-05
2.31895e-05
0.000240675
0.00053056
0.000525497
0.000238957
2.30607e-05
2.29815e-05
0.000238607
0.000525728
0.000520651
0.000236866
2.28493e-05
2.27681e-05
0.000236509
0.000520882
0.000515787
0.000234742
2.26324e-05
2.25491e-05
0.000234377
0.000516018
0.0005109
0.000232582
2.24097e-05
2.23241e-05
0.000232208
0.00051113
0.000505986
0.000230384
2.21808e-05
2.20929e-05
0.000230001
0.000506215
0.000501042
0.000228147
2.19454e-05
2.18551e-05
0.000227754
0.00050127
0.00049606
0.000225867
2.17033e-05
2.16106e-05
0.000225464
0.000496285
0.000491032
0.000223541
2.14542e-05
2.13589e-05
0.000223127
0.000491255
0.000485961
0.000221167
2.11977e-05
2.10996e-05
0.000220741
0.000486185
0.000480851
0.000218744
2.09336e-05
2.08326e-05
0.000218309
0.000481079
0.000475705
0.000216277
2.06614e-05
2.05576e-05
0.000215832
0.000475938
0.000470522
0.000213765
2.03812e-05
2.02745e-05
0.000213312
0.000470764
0.000465303
0.000211209
2.00928e-05
1.99832e-05
0.000210749
0.000465556
0.000460051
0.000208612
1.97961e-05
1.96835e-05
0.000208145
0.000460318
0.00045476
0.000205969
1.94911e-05
1.93754e-05
0.000205497
0.000455044
0.000449437
0.000203284
1.91779e-05
1.90586e-05
0.000202806
0.000449721
0.000444078
0.000200551
1.88569e-05
1.87321e-05
0.000200074
0.000444378
0.000438703
0.000197776
1.85294e-05
1.83938e-05
0.000197305
0.000439023
0.000433313
0.000194963
1.81996e-05
1.80373e-05
0.00019448
0.000433642
0.000427868
0.000192061
1.78812e-05
1.78253e-05
0.000191489
0.000428143
0.00042228
0.000189006
1.77206e-05
1.76894e-05
0.000188377
0.000422445
0.000416522
0.000185885
1.7596e-05
1.75697e-05
0.000185234
0.000416585
0.000410651
0.000182764
1.74776e-05
1.74517e-05
0.000182117
0.000410647
0.000404731
0.000179684
1.73586e-05
1.73322e-05
0.000179064
0.000404706
0.000398838
0.000176678
1.72376e-05
1.72106e-05
0.000176096
0.000398835
0.00039305
0.000173768
1.71145e-05
1.70871e-05
0.000173231
0.000393108
0.000387435
0.000170968
1.69894e-05
1.69619e-05
0.000170488
0.000387592
0.000382052
0.000168297
1.68627e-05
1.68352e-05
0.000167883
0.000382347
0.000376961
0.000165771
1.67348e-05
1.67077e-05
0.000165429
0.000377427
0.000372212
0.000163401
1.66064e-05
1.65799e-05
0.000163137
0.000372876
0.000367842
0.000161197
1.64778e-05
1.64523e-05
0.000161015
0.000368728
0.000363884
0.000159166
1.63499e-05
1.63254e-05
0.000159067
0.00036501
0.00036036
0.000157309
1.62229e-05
1.61998e-05
0.000157294
0.000361741
0.000357292
0.000155631
1.60975e-05
1.60758e-05
0.000155695
0.000358934
0.000354671
0.000154117
1.59738e-05
1.59536e-05
0.000154261
0.000356576
0.000352481
0.000152756
1.58521e-05
1.58332e-05
0.000152972
0.000354672
0.000350653
0.000151535
1.57324e-05
1.57144e-05
0.000151804
0.000353142
0.000349262
0.000150426
1.56139e-05
1.55964e-05
0.000150738
0.00035195
0.0003482
0.00014941
1.54963e-05
1.5479e-05
0.000149754
0.000351056
0.000347403
0.000148461
1.53793e-05
1.5362e-05
0.000148819
0.000350385
0.000346796
0.000147542
1.52624e-05
1.52443e-05
0.0001479
0.000349861
0.000346322
0.000146633
1.51448e-05
1.51257e-05
0.000146977
0.000349427
0.000345921
0.000145716
1.50267e-05
1.50063e-05
0.00014603
0.000348989
0.00034559
0.000144767
1.49079e-05
1.48863e-05
0.000145046
0.000348521
0.00034512
0.000143779
1.4789e-05
1.4766e-05
0.000144009
0.000347957
0.000344509
0.000142722
1.46701e-05
1.46446e-05
0.000142893
0.000347228
0.000343729
0.00014157
1.45509e-05
1.45228e-05
0.000141696
0.000346335
0.00034276
0.000140349
1.44319e-05
1.44019e-05
0.000140416
0.000345198
0.000341524
0.000139038
1.43135e-05
1.4282e-05
0.000139033
0.000343745
0.000339952
0.000137607
1.4195e-05
1.41623e-05
0.000137513
0.000341909
0.000337922
0.000135957
1.40714e-05
1.40435e-05
0.000136075
0.000340014
0.000334322
0.000133606
1.39335e-05
1.39134e-05
0.000133912
0.000336445
0.000331394
0.00013187
1.38407e-05
1.37832e-05
0.000131245
0.000332143
0.000326736
0.00012909
1.37831e-05
1.36134e-05
0.000127336
0.00032443
0.000324958
0.000127333
1.36794e-05
1.38934e-05
0.000133031
0.000337091
0.00034987
0.000136959
1.94218e-05
0.000953531
0.00179706
0.00280255
0.00401592
0.0050923
0.00664411
0.00807077
0.00965663
0.0111859
0.0128308
0.0144617
0.0161804
0.017899
0.0196817
0.0214659
0.0232928
0.0251147
0.0269562
0.0287777
0.0305902
0.0323576
0.034079
0.0357181
0.0372643
0.0386797
0.0399436
0.0410186
0.0418742
0.042479
0.0427968
0.0427923
0.0424405
0.0417129
0.0405914
0.0390713
0.0371457
0.0348449
0.032171
0.0292132
0.0259701
0.0226214
0.0191427
0.0157865
0.0124381
0.0100682
0.00705363
0.00481747
0.00287813
0.00133195
0.000424504
0.000141016
1.64244e-05
1.28628e-05
0.000119613
0.000362878
0.000327254
0.000105992
1.18841e-05
1.09453e-05
9.2059e-05
0.000285241
0.000272143
8.76867e-05
1.05593e-05
1.03345e-05
8.62992e-05
0.000271014
0.000259829
8.32803e-05
1.0244e-05
1.0234e-05
8.47375e-05
0.000268364
0.000264102
8.33247e-05
1.0255e-05
1.03358e-05
8.62824e-05
0.000274118
0.000268341
8.40195e-05
1.03154e-05
1.04228e-05
8.73353e-05
0.000278357
0.000274777
8.58061e-05
1.04335e-05
1.05481e-05
8.95118e-05
0.000285466
0.00027982
8.72247e-05
1.05266e-05
1.06507e-05
9.08246e-05
0.000290799
0.000287455
8.9266e-05
1.06634e-05
1.08111e-05
9.33036e-05
0.00029894
0.000293145
9.09353e-05
1.07554e-05
1.09154e-05
9.49002e-05
0.000305116
0.000301806
9.32976e-05
1.09304e-05
1.10941e-05
9.76881e-05
0.000314161
0.000308144
9.52248e-05
1.10379e-05
1.1216e-05
9.95584e-05
0.000321159
0.000317819
9.78981e-05
1.12347e-05
1.14159e-05
0.000102671
0.000331134
0.000324858
0.000100093
1.13591e-05
1.15574e-05
0.000104822
0.000338965
0.000335549
0.000103088
1.15799e-05
1.17817e-05
0.000108274
0.00034986
0.000343234
0.000105562
1.17247e-05
1.19474e-05
0.000110737
0.000358559
0.000355056
0.00010892
1.19749e-05
1.22022e-05
0.000114574
0.000370529
0.000363447
0.000111708
1.21449e-05
1.23981e-05
0.000117398
0.000380267
0.000376612
0.000115478
1.24311e-05
1.2688e-05
0.000121634
0.000393499
0.000385711
0.000118557
1.26288e-05
1.2917e-05
0.000124757
0.000404341
0.000400142
0.000122626
1.29542e-05
1.32248e-05
0.000129187
0.000418642
0.000409751
0.000125679
1.321e-05
1.35385e-05
0.000132358
0.000430626
0.000426251
0.000129889
1.35957e-05
1.39887e-05
0.000137424
0.00044812
0.000442164
0.000133785
1.40221e-05
1.4417e-05
0.000143522
0.000470752
0.000467784
0.000141509
1.44391e-05
1.48602e-05
0.000154105
0.00050081
0.000491327
0.000149905
1.49436e-05
1.54783e-05
0.000160853
0.000519881
0.000512878
0.000157197
1.57442e-05
1.66904e-05
0.000164067
0.000533925
0.000521917
0.000161103
1.7949e-05
2.2035e-05
0.000178691
0.000543827
0.000526423
0.000211472
1.88953e-05
7.0397e-06
3.6522e-05
0.000159147
0.000437348
0.000127829
1.19601e-05
1.4184e-05
0.000118401
0.000426992
0.000536573
0.000140486
1.80031e-05
2.39399e-05
0.000169674
0.0006858
0.00128484
0.000263986
5.68786e-05
0.00011472
0.000767557
0.00194183
0.00227859
0.000844505
0.000144785
0.000177284
0.00123632
0.00298912
0.00299887
0.00129491
0.000183698
0.000193626
0.00119844
0.00258653
0.00319288
0.00146564
0.000236219
0.000297188
0.00178843
0.00375666
0.00439237
0.00216153
0.000360997
0.000451559
0.00263713
0.00400937
0.00379155
0.00324842
0.000537131
0.000636301
0.00338082
0.00350186
0.0034744
0.00321092
0.000710176
0.000875462
0.00285795
0.00324305
0.00307126
0.00253499
0.00103844
0.00122005
0.00243014
0.0027122
0.00246247
0.00214963
0.00137015
0.0014079
0.002005
0.00255065
0.00245538
0.00206284
0.00159672
0.00148859
0.00199565
0.0024496
0.00279413
0.00195526
0.00163412
0.00146295
0.00196137
0.00303156
0.00296071
0.0017597
0.00157905
0.00132118
0.00141239
0.00228795
0.00203714
0.00126875
0.00150733
0.000912384
0.00108883
0.00155834
0.0016589
0.0010626
0.000880771
0.000623531
0.00106763
0.00166996
0.00108085
0.00085389
0.000525846
0.000401953
0.000696781
0.000999532
0.000862844
0.000590637
0.000356888
0.000260552
0.000451211
0.00060195
0.000589635
0.000399097
0.000228456
0.00018625
0.000348007
0.000535324
0.000382642
0.000274482
0.000143684
0.000114928
0.000244943
0.000405269
0.000359308
0.00022426
9.14777e-05
4.31292e-05
0.00010585
0.000204364
0.000228472
0.000103632
2.24503e-05
2.33581e-05
8.50482e-05
0.000191006
7.86021e-05
3.08804e-05
1.31138e-05
1.40743e-05
8.30752e-05
0.00013455
0.000123956
7.17429e-05
1.60157e-05
1.04208e-05
2.61607e-05
5.77031e-05
0.000101312
6.39871e-05
1.1314e-05
1.35472e-05
5.72281e-05
9.54508e-05
4.56474e-05
2.14584e-05
9.6993e-06
1.00974e-05
5.31645e-05
8.60321e-05
7.99277e-05
4.73534e-05
1.24049e-05
9.47255e-06
1.88002e-05
3.79361e-05
6.93407e-05
4.37109e-05
9.07701e-06
1.13351e-05
3.97289e-05
6.69141e-05
3.06236e-05
1.51786e-05
8.9257e-06
8.23544e-06
4.94326e-05
6.05274e-05
3.53079e-05
1.98097e-05
1.02144e-05
9.4955e-06
4.49194e-05
7.71015e-05
7.12777e-05
4.0839e-05
1.19993e-05
9.64533e-06
1.80107e-05
3.31408e-05
7.60846e-05
4.44908e-05
8.91959e-06
1.15926e-05
3.98793e-05
7.111e-05
3.22903e-05
1.73751e-05
9.49774e-06
8.88695e-06
4.29576e-05
7.36567e-05
6.86602e-05
3.93804e-05
1.14339e-05
9.32208e-06
1.54804e-05
3.01223e-05
5.72345e-05
4.88673e-05
8.37027e-06
1.03318e-05
2.01361e-05
3.32394e-05
7.10996e-05
4.13493e-05
9.34291e-06
1.18946e-05
3.77454e-05
6.51061e-05
2.93992e-05
1.63139e-05
9.47497e-06
8.3219e-06
4.6664e-05
5.45078e-05
3.28497e-05
2.0832e-05
1.05317e-05
9.43291e-06
4.005e-05
6.49935e-05
6.06452e-05
3.62061e-05
1.20608e-05
9.81738e-06
1.89774e-05
3.04043e-05
5.7409e-05
3.84037e-05
8.72701e-06
1.14579e-05
3.32984e-05
5.48386e-05
2.62273e-05
1.6683e-05
9.35963e-06
7.83268e-06
3.73117e-05
4.66083e-05
2.84266e-05
1.95588e-05
1.03171e-05
8.65164e-06
4.00153e-05
5.34984e-05
3.24286e-05
2.1598e-05
1.09018e-05
9.46576e-06
3.83347e-05
6.21481e-05
5.54216e-05
3.3078e-05
1.18796e-05
9.59291e-06
1.85625e-05
2.79803e-05
4.90351e-05
3.85353e-05
8.45217e-06
1.07112e-05
2.21383e-05
3.08374e-05
5.89829e-05
3.81046e-05
9.2477e-06
1.18482e-05
3.35602e-05
5.21822e-05
2.72384e-05
1.89637e-05
9.59431e-06
8.30044e-06
3.62973e-05
4.39058e-05
2.87484e-05
2.24217e-05
1.05599e-05
8.56196e-06
3.72306e-05
4.96637e-05
3.13099e-05
2.21915e-05
1.1005e-05
9.42556e-06
3.72403e-05
5.87305e-05
5.16768e-05
3.27967e-05
1.2087e-05
9.74992e-06
2.02396e-05
2.75696e-05
4.32224e-05
3.59575e-05
7.99837e-06
1.07756e-05
2.29397e-05
2.89027e-05
4.94597e-05
3.74441e-05
8.82217e-06
1.11087e-05
2.39489e-05
3.19986e-05
5.86183e-05
3.74176e-05
9.65655e-06
1.21743e-05
3.29573e-05
5.1333e-05
2.77152e-05
2.09274e-05
9.74205e-06
8.27371e-06
3.69603e-05
4.19529e-05
2.86053e-05
2.40713e-05
1.08007e-05
8.77058e-06
3.61692e-05
4.70267e-05
3.10543e-05
2.38358e-05
1.12786e-05
9.54529e-06
3.61367e-05
5.57449e-05
4.90605e-05
3.26711e-05
1.22193e-05
9.84377e-06
2.18151e-05
2.74467e-05
4.12591e-05
3.66479e-05
8.34786e-06
1.09273e-05
2.46873e-05
2.85649e-05
4.58572e-05
3.54925e-05
8.76125e-06
1.12098e-05
2.54924e-05
3.11525e-05
4.96567e-05
3.69644e-05
8.94172e-06
1.13505e-05
2.59799e-05
3.32573e-05
5.7804e-05
3.77269e-05
9.62831e-06
1.2337e-05
3.37536e-05
5.05126e-05
2.85003e-05
2.31369e-05
9.88056e-06
8.28226e-06
3.74211e-05
4.19093e-05
2.97887e-05
2.6054e-05
1.12197e-05
9.10934e-06
3.56105e-05
4.59285e-05
3.15586e-05
2.63576e-05
1.12617e-05
9.03133e-06
3.58154e-05
4.76401e-05
3.27875e-05
2.72274e-05
1.13521e-05
9.22607e-06
3.8204e-05
4.98108e-05
3.42615e-05
2.84153e-05
1.15706e-05
9.82491e-06
3.88751e-05
5.80571e-05
5.12516e-05
3.5445e-05
1.2507e-05
1.01727e-05
2.54302e-05
2.9903e-05
4.38868e-05
3.825e-05
8.38471e-06
1.14584e-05
2.77657e-05
3.13952e-05
4.77101e-05
3.73092e-05
9.27586e-06
1.15201e-05
2.85387e-05
3.35538e-05
4.97632e-05
3.80433e-05
9.25984e-06
1.1554e-05
2.96467e-05
3.502e-05
5.20365e-05
4.05656e-05
9.43612e-06
1.17425e-05
3.13083e-05
3.63513e-05
5.99909e-05
4.06721e-05
9.88444e-06
1.26364e-05
3.71146e-05
5.27652e-05
3.15554e-05
2.74311e-05
1.02035e-05
8.60363e-06
4.07109e-05
4.48738e-05
3.30431e-05
2.97366e-05
1.1613e-05
9.35827e-06
3.82266e-05
4.79508e-05
3.42022e-05
2.96189e-05
1.16566e-05
9.35244e-06
3.78144e-05
4.87795e-05
3.52915e-05
3.0725e-05
1.17761e-05
9.60573e-06
4.01072e-05
5.06784e-05
3.62196e-05
3.26169e-05
1.19315e-05
1.00298e-05
4.07828e-05
5.88634e-05
5.22714e-05
3.77876e-05
1.27967e-05
1.04888e-05
2.88378e-05
3.21552e-05
4.57102e-05
4.10333e-05
8.8186e-06
1.17144e-05
3.09196e-05
3.37952e-05
4.85828e-05
3.92576e-05
9.48147e-06
1.18958e-05
3.13422e-05
3.54105e-05
5.00995e-05
3.95702e-05
9.58599e-06
1.19086e-05
3.24976e-05
3.65618e-05
5.22257e-05
4.17286e-05
9.6979e-06
1.2048e-05
3.45396e-05
3.77332e-05
5.99039e-05
4.20696e-05
1.00982e-05
1.2889e-05
3.90705e-05
5.3275e-05
3.32313e-05
3.02041e-05
1.05367e-05
8.94118e-06
4.23086e-05
4.6636e-05
3.47759e-05
3.20343e-05
1.18425e-05
9.40089e-06
4.0162e-05
4.89987e-05
3.64447e-05
3.25964e-05
1.20888e-05
9.59649e-06
4.06098e-05
5.0091e-05
3.72249e-05
3.35707e-05
1.20356e-05
9.65334e-06
4.17033e-05
5.16412e-05
3.80309e-05
3.56445e-05
1.22304e-05
1.02768e-05
4.24318e-05
5.96472e-05
5.34418e-05
3.99083e-05
1.31746e-05
1.07179e-05
3.20277e-05
3.44036e-05
4.72402e-05
4.42279e-05
8.90279e-06
1.19638e-05
3.39439e-05
3.59322e-05
5.05989e-05
4.14163e-05
9.61044e-06
1.21776e-05
3.42923e-05
3.76875e-05
5.21551e-05
4.20056e-05
9.74042e-06
1.21871e-05
3.577e-05
3.90424e-05
5.42654e-05
4.45627e-05
9.715e-06
1.22651e-05
3.78798e-05
4.03745e-05
6.21093e-05
4.45651e-05
1.02941e-05
1.32655e-05
4.19977e-05
5.57547e-05
3.61554e-05
3.409e-05
1.08342e-05
9.22981e-06
4.60238e-05
4.97576e-05
3.81845e-05
3.58752e-05
1.22231e-05
9.87943e-06
4.38902e-05
5.2682e-05
3.9825e-05
3.66193e-05
1.24018e-05
9.83362e-06
4.44908e-05
5.43829e-05
4.07159e-05
3.86151e-05
1.24838e-05
1.05947e-05
4.49569e-05
6.19693e-05
5.58015e-05
4.26531e-05
1.36098e-05
1.12877e-05
3.56575e-05
3.73589e-05
5.12021e-05
4.69945e-05
9.50328e-06
1.25236e-05
3.77442e-05
3.96871e-05
5.47528e-05
4.56972e-05
1.01897e-05
1.25919e-05
3.87503e-05
4.17211e-05
5.69509e-05
4.69442e-05
1.00641e-05
1.2699e-05
4.08272e-05
4.29312e-05
6.47945e-05
4.71725e-05
1.07666e-05
1.39325e-05
4.50243e-05
5.87823e-05
3.94198e-05
3.75001e-05
1.13947e-05
9.48423e-06
4.93568e-05
5.33216e-05
4.17172e-05
3.98115e-05
1.26277e-05
1.00854e-05
4.86521e-05
5.73537e-05
4.32635e-05
4.14428e-05
1.29358e-05
1.09113e-05
4.73382e-05
6.49876e-05
5.91075e-05
4.54645e-05
1.43453e-05
1.15918e-05
3.86813e-05
4.0432e-05
5.40507e-05
5.02609e-05
9.76416e-06
1.27961e-05
4.10717e-05
4.2607e-05
5.87259e-05
4.95895e-05
1.02605e-05
1.31615e-05
4.31343e-05
4.47176e-05
6.67498e-05
4.88698e-05
1.10924e-05
1.45372e-05
4.69353e-05
6.07458e-05
4.18353e-05
4.01019e-05
1.18881e-05
9.96996e-06
5.15196e-05
5.54454e-05
4.4246e-05
4.2496e-05
1.30559e-05
1.04007e-05
5.08851e-05
5.99501e-05
4.58852e-05
4.4542e-05
1.33887e-05
1.12527e-05
5.03554e-05
6.8538e-05
6.25909e-05
4.85921e-05
1.50018e-05
1.23047e-05
4.26458e-05
4.39745e-05
5.82528e-05
5.34101e-05
1.02496e-05
1.37317e-05
4.58371e-05
4.6015e-05
6.83959e-05
5.20598e-05
1.15011e-05
1.51007e-05
5.03473e-05
6.28359e-05
4.46201e-05
4.2981e-05
1.24064e-05
1.03903e-05
5.35009e-05
5.80969e-05
4.63654e-05
4.64305e-05
1.41156e-05
1.18639e-05
5.23921e-05
6.79743e-05
6.28533e-05
5.1141e-05
1.5849e-05
1.26841e-05
4.50909e-05
4.5744e-05
5.9465e-05
5.59537e-05
1.03739e-05
1.42812e-05
4.88986e-05
4.80413e-05
6.97536e-05
5.30949e-05
1.2165e-05
1.6284e-05
5.21547e-05
6.48507e-05
4.71787e-05
4.64915e-05
1.31794e-05
1.07209e-05
5.69437e-05
6.10402e-05
4.96696e-05
5.11354e-05
1.45761e-05
1.23245e-05
5.62046e-05
7.30232e-05
6.80247e-05
5.51374e-05
1.68642e-05
1.4475e-05
5.22671e-05
5.05572e-05
7.08805e-05
5.99309e-05
1.2479e-05
1.69849e-05
5.8465e-05
6.7615e-05
5.10169e-05
5.24178e-05
1.4512e-05
1.24433e-05
5.95934e-05
7.07183e-05
6.78212e-05
5.84942e-05
1.76226e-05
1.53014e-05
5.39682e-05
5.19592e-05
7.09126e-05
6.03828e-05
1.30822e-05
1.79239e-05
5.85354e-05
6.78348e-05
5.18296e-05
5.42041e-05
1.51626e-05
1.32381e-05
6.02355e-05
7.09844e-05
6.79089e-05
5.90615e-05
1.88136e-05
1.61624e-05
5.67077e-05
5.33427e-05
7.19699e-05
6.18949e-05
1.3422e-05
1.84583e-05
6.08456e-05
6.90704e-05
5.45495e-05
5.85946e-05
1.65741e-05
1.44203e-05
6.38812e-05
7.41733e-05
7.16466e-05
6.2437e-05
1.9987e-05
1.73566e-05
6.23374e-05
5.72283e-05
7.83762e-05
6.73877e-05
1.51374e-05
2.27539e-05
7.30749e-05
7.49902e-05
7.0546e-05
6.90442e-05
2.07749e-05
1.87196e-05
6.47003e-05
5.96822e-05
7.99754e-05
6.88559e-05
1.63304e-05
2.53252e-05
7.09586e-05
7.67814e-05
7.41654e-05
7.15963e-05
2.45495e-05
2.63605e-05
7.27855e-05
7.04606e-05
7.06606e-05
6.78093e-05
2.70489e-05
2.95536e-05
6.93869e-05
6.75745e-05
6.77289e-05
6.1575e-05
2.82498e-05
2.61546e-05
6.78585e-05
6.02571e-05
7.62106e-05
6.84321e-05
2.23741e-05
3.52143e-05
7.08052e-05
7.46487e-05
7.32978e-05
7.67294e-05
3.83407e-05
3.99568e-05
8.07665e-05
7.33599e-05
7.35303e-05
8.46839e-05
4.14453e-05
4.17422e-05
8.90079e-05
7.42662e-05
7.51394e-05
9.31776e-05
4.1006e-05
4.00961e-05
9.77442e-05
7.65879e-05
7.84318e-05
0.000101979
3.87078e-05
3.72208e-05
0.000106741
8.05113e-05
8.32258e-05
0.000111056
3.56773e-05
3.41609e-05
0.000116041
8.59768e-05
8.98089e-05
0.000118538
3.27114e-05
3.13586e-05
0.00012064
9.32646e-05
9.79284e-05
0.00012227
3.01047e-05
2.89542e-05
0.000123596
0.000103091
0.000109518
0.000124379
2.78973e-05
2.69296e-05
0.000125271
0.000115809
0.000122337
0.000126291
2.60507e-05
2.52568e-05
0.000127457
0.00012868
0.000135265
0.000128784
2.45456e-05
2.39108e-05
0.000130231
0.000141646
0.000148305
0.000131832
2.33495e-05
2.28549e-05
0.000133535
0.000154712
0.000161416
0.000135361
2.24235e-05
2.205e-05
0.000137341
0.000166665
0.000171908
0.0001394
2.17315e-05
2.14619e-05
0.000141546
0.000176958
0.000182199
0.000143774
2.12377e-05
2.10534e-05
0.000146106
0.000187257
0.000192359
0.000148452
2.09052e-05
2.07883e-05
0.000150835
0.000197241
0.000202305
0.000153241
2.06984e-05
2.0633e-05
0.000155697
0.00020711
0.000211956
0.000158075
2.0586e-05
2.05567e-05
0.000160484
0.0002165
0.000221211
0.000162831
2.05402e-05
2.05354e-05
0.000165189
0.000225561
0.000229977
0.000167413
2.05374e-05
2.05466e-05
0.000169599
0.000234025
0.000238232
0.000171673
2.05578e-05
2.05733e-05
0.000173742
0.000242014
0.000245889
0.000175628
2.05874e-05
2.06031e-05
0.00017746
0.000249377
0.000253017
0.000179143
2.0615e-05
2.06275e-05
0.000180815
0.000256225
0.000259536
0.000182277
2.06345e-05
2.0641e-05
0.000183686
0.000262475
0.000265527
0.000184934
2.06411e-05
2.06409e-05
0.000186171
0.000268203
0.000270936
0.000187204
2.06332e-05
2.06264e-05
0.00018818
0.000273453
0.00027597
0.000189031
2.06097e-05
2.05991e-05
0.000189859
0.000278279
0.000280604
0.000190533
2.0575e-05
2.05599e-05
0.000191152
0.000282803
0.000285068
0.000191707
2.05318e-05
2.05127e-05
0.00019218
0.000287084
0.000289303
0.000192606
2.04807e-05
2.04586e-05
0.000192961
0.000291203
0.0002934
0.000193277
2.0423e-05
2.0399e-05
0.000193544
0.000295242
0.000297372
0.000193769
2.03614e-05
2.03369e-05
0.000193972
0.000299198
0.000301313
0.000194126
2.02979e-05
2.02737e-05
0.000194288
0.000303151
0.000305235
0.000194391
2.02351e-05
2.02119e-05
0.000194531
0.000307101
0.000309207
0.000194605
2.01741e-05
2.01525e-05
0.000194745
0.000311167
0.00031325
0.000194792
2.01165e-05
2.00975e-05
0.000194938
0.000315268
0.000317384
0.000194955
2.00634e-05
2.00472e-05
0.000195173
0.000319454
0.000321495
0.000195167
2.00172e-05
2.00018e-05
0.000195337
0.000323616
0.000325666
0.000195335
1.9976e-05
1.99626e-05
0.000195552
0.000327788
0.000328919
0.000195528
1.9942e-05
1.99299e-05
0.00019572
0.000330438
0.000331437
0.000195724
1.99148e-05
1.99047e-05
0.000195908
0.000332895
0.000333812
0.000195902
1.98929e-05
1.98839e-05
0.000196072
0.00033523
0.000336086
0.00019605
1.98733e-05
1.98678e-05
0.000196256
0.000337462
0.000338296
0.00019621
1.98581e-05
1.98552e-05
0.000196371
0.000339631
0.00034045
0.000196356
1.98465e-05
1.98461e-05
0.000196509
0.000341743
0.000342567
0.000196494
1.98384e-05
1.98406e-05
0.000196639
0.000343832
0.000344669
0.000196639
1.98338e-05
1.98384e-05
0.00019678
0.000345903
0.000346759
0.000196787
1.98326e-05
1.98396e-05
0.000196929
0.000347969
0.000348839
0.000196957
1.98354e-05
1.98442e-05
0.000197102
0.000350018
0.000350904
0.000197144
1.98424e-05
1.98526e-05
0.000197295
0.000352059
0.000352949
0.000197362
1.98532e-05
1.98648e-05
0.00019752
0.000354072
0.000354971
0.0001976
1.98678e-05
1.98808e-05
0.000197763
0.000356068
0.00035696
0.000197868
1.98861e-05
1.99003e-05
0.000198034
0.000358023
0.000358913
0.00019815
1.99078e-05
1.99231e-05
0.000198315
0.000359947
0.000360821
0.000198453
1.99324e-05
1.99488e-05
0.000198617
0.000361821
0.000362681
0.000198764
1.99598e-05
1.99771e-05
0.000198923
0.000363655
0.00036447
0.000199073
1.99893e-05
2.00079e-05
0.000199267
0.000365412
0.000366219
0.000199403
2.00209e-05
2.00403e-05
0.000199563
0.000367116
0.000367874
0.000199701
2.00538e-05
2.0074e-05
0.000199902
0.000368748
0.0003695
0.000200025
2.00883e-05
2.01089e-05
0.000200187
0.000370322
0.000371036
0.000200325
2.01235e-05
2.01444e-05
0.000200485
0.000371819
0.000372501
0.000200612
2.01594e-05
2.01805e-05
0.000200767
0.000373252
0.00037389
0.000200886
2.01957e-05
2.02168e-05
0.000201033
0.000374601
0.000375203
0.000201142
2.02321e-05
2.02531e-05
0.000201275
0.000375884
0.000376433
0.000201368
2.02683e-05
2.02896e-05
0.000201529
0.000377082
0.000377601
0.000201596
2.03047e-05
2.03255e-05
0.000201709
0.000378207
0.000378679
0.000201778
2.03403e-05
2.03611e-05
0.000201921
0.000379249
0.000379695
0.000201961
2.03758e-05
2.0396e-05
0.000202058
0.00038021
0.000380619
0.000202111
2.04104e-05
2.04302e-05
0.000202197
0.000381099
0.000381467
0.000202235
2.04443e-05
2.04637e-05
0.000202308
0.000381917
0.000382236
0.000202337
2.04775e-05
2.04963e-05
0.000202398
0.000382658
0.000382929
0.000202415
2.05098e-05
2.05281e-05
0.000202458
0.000383338
0.000383551
0.000202455
2.0541e-05
2.0559e-05
0.000202526
0.000383935
0.000384118
0.000202498
2.05716e-05
2.05888e-05
0.000202519
0.00038447
0.000384608
0.000202493
2.06008e-05
2.06177e-05
0.000202542
0.000384936
0.000385047
0.000202493
2.06294e-05
2.06455e-05
0.000202494
0.000385344
0.000385421
0.000202443
2.06567e-05
2.06723e-05
0.000202459
0.000385681
0.000385733
0.000202413
2.06833e-05
2.06983e-05
0.000202393
0.00038598
0.000385987
0.00020234
2.07088e-05
2.07233e-05
0.000202312
0.000386224
0.000386175
0.00020225
2.07333e-05
2.07474e-05
0.000202226
0.00038644
0.00038636
0.000202122
2.07567e-05
2.07703e-05
0.000202116
0.000386542
0.000386483
0.00020202
2.07795e-05
2.07924e-05
0.000201967
0.000386629
0.000386551
0.000201887
2.08012e-05
2.08136e-05
0.000201828
0.000386678
0.000386572
0.000201741
2.0822e-05
2.0834e-05
0.000201673
0.000386696
0.000386558
0.000201566
2.0842e-05
2.08536e-05
0.000201533
0.000386663
0.00038652
0.000201415
2.08614e-05
2.08724e-05
0.000201337
0.000386591
0.000386438
0.000201237
2.08798e-05
2.08904e-05
0.000201155
0.000386492
0.000386323
0.00020105
2.08976e-05
2.09077e-05
0.000200963
0.000386366
0.000386178
0.000200855
2.09146e-05
2.09243e-05
0.000200766
0.000386206
0.000386005
0.000200652
2.09311e-05
2.09401e-05
0.000200558
0.000386016
0.000385799
0.000200322
2.0946e-05
2.09559e-05
0.000200363
0.000385808
0.00038556
0.000200249
2.09622e-05
2.09715e-05
0.000200262
0.00038559
0.000385317
0.000199985
2.09758e-05
2.09843e-05
0.000199922
0.000385338
0.000385053
0.000199782
2.09894e-05
2.09975e-05
0.000199678
0.000385066
0.000384768
0.000199543
2.10023e-05
2.10104e-05
0.000199477
0.000384776
0.000384474
0.000199335
2.10152e-05
2.10228e-05
0.000199227
0.000384473
0.000384154
0.000199089
2.10273e-05
2.10348e-05
0.00019902
0.000384152
0.000383839
0.000198877
2.10392e-05
2.10462e-05
0.000198767
0.000383825
0.000383484
0.000198628
2.10503e-05
2.10572e-05
0.000198558
0.000383473
0.000383154
0.000198414
2.10613e-05
2.10678e-05
0.000198303
0.000383117
0.000382771