/*--------------------------------*- C++ -*----------------------------------*\
| =========                 |                                                 |
| \\      /  F ield         | OpenFOAM: The Open Source CFD Toolbox           |
|  \\    /   O peration     | Version:  v2006                                 |
|   \\  /    A nd           | Website:  www.openfoam.com                      |
|    \\/     M anipulation  |                                                 |
\*---------------------------------------------------------------------------*/
FoamFile
{
    version     2.0;
    format      ascii;
    class       volScalarField;
    location    "0.066";
    object      T;
}
// * * * * * * * * * * * * * * * * * * * * * * * * * * * * * * * * * * * * * //

dimensions      [0 0 0 1 0 0 0];


internalField   nonuniform List<scalar> 
24416
(
296.602
296.602
296.602
296.602
296.602
296.602
296.602
296.602
296.602
296.602
296.602
296.603
296.605
296.608
296.612
296.618
296.623
296.63
296.636
296.642
296.648
296.654
296.66
296.667
296.673
296.679
296.686
296.693
296.7
296.707
296.714
296.721
296.728
296.736
296.743
296.751
296.759
296.767
296.774
296.783
296.791
296.799
296.807
296.815
296.824
296.832
296.841
296.849
296.858
296.866
296.875
296.883
296.892
296.9
296.909
296.918
296.926
296.935
296.943
296.952
296.96
296.969
296.977
296.985
296.993
297.002
297.01
297.018
297.026
297.033
297.041
297.049
297.056
297.064
297.071
297.078
297.085
297.092
297.098
297.105
297.111
297.118
297.124
297.131
297.138
297.144
297.151
297.157
297.161
297.164
297.164
297.163
297.162
297.161
297.16
297.159
297.158
297.157
297.156
297.155
297.155
297.156
297.158
297.163
297.171
297.182
297.197
297.22
297.244
297.343
297.365
297.243
297.208
297.206
297.25
297.405
297.441
297.261
297.207
297.21
297.271
297.464
297.485
297.284
297.215
297.22
297.295
297.495
297.505
297.306
297.226
297.233
297.315
297.509
297.514
297.321
297.238
297.244
297.328
297.516
297.516
297.333
297.249
297.254
297.339
297.515
297.513
297.343
297.259
297.264
297.347
297.511
297.507
297.351
297.269
297.274
297.354
297.504
297.501
297.357
297.278
297.282
297.36
297.498
297.494
297.363
297.287
297.29
297.365
297.491
297.488
297.367
297.295
297.298
297.37
297.486
297.483
297.372
297.302
297.305
297.374
297.48
297.478
297.376
297.309
297.312
297.377
297.476
297.474
297.379
297.316
297.318
297.381
297.472
297.471
297.383
297.322
297.324
297.384
297.469
297.469
297.387
297.328
297.331
297.388
297.467
297.467
297.39
297.335
297.337
297.392
297.466
297.466
297.394
297.341
297.343
297.395
297.465
297.465
297.398
297.347
297.349
297.399
297.465
297.465
297.402
297.353
297.355
297.404
297.465
297.466
297.407
297.359
297.361
297.408
297.466
297.467
297.411
297.366
297.368
297.413
297.467
297.469
297.416
297.372
297.374
297.418
297.469
297.471
297.421
297.379
297.381
297.423
297.472
297.474
297.426
297.386
297.388
297.428
297.475
297.477
297.432
297.393
297.395
297.434
297.478
297.48
297.438
297.4
297.403
297.44
297.482
297.484
297.444
297.408
297.411
297.446
297.486
297.489
297.451
297.416
297.418
297.453
297.49
297.494
297.458
297.424
297.427
297.46
297.495
297.499
297.465
297.432
297.435
297.467
297.501
297.504
297.472
297.441
297.444
297.475
297.506
297.51
297.48
297.45
297.453
297.483
297.512
297.517
297.488
297.459
297.462
297.491
297.519
297.523
297.496
297.469
297.472
297.499
297.526
297.53
297.505
297.478
297.482
297.508
297.533
297.538
297.514
297.489
297.492
297.517
297.54
297.546
297.523
297.499
297.502
297.527
297.548
297.554
297.533
297.51
297.513
297.536
297.557
297.562
297.543
297.521
297.524
297.547
297.565
297.572
297.554
297.532
297.536
297.557
297.575
297.581
297.564
297.544
297.548
297.568
297.584
297.591
297.576
297.557
297.561
297.58
297.595
297.602
297.588
297.569
297.573
297.592
297.605
297.612
297.6
297.582
297.587
297.604
297.616
297.624
297.612
297.596
297.601
297.617
297.628
297.636
297.626
297.61
297.615
297.63
297.64
297.648
297.639
297.625
297.63
297.644
297.652
297.661
297.653
297.64
297.645
297.658
297.665
297.674
297.668
297.655
297.66
297.673
297.679
297.688
297.683
297.671
297.677
297.688
297.693
297.703
297.699
297.688
297.693
297.704
297.707
297.717
297.715
297.705
297.711
297.72
297.723
297.733
297.731
297.723
297.729
297.737
297.738
297.749
297.748
297.741
297.747
297.754
297.754
297.765
297.766
297.76
297.766
297.772
297.771
297.782
297.784
297.779
297.785
297.791
297.788
297.8
297.803
297.799
297.806
297.81
297.806
297.818
297.823
297.819
297.826
297.829
297.824
297.837
297.843
297.841
297.848
297.85
297.843
297.856
297.863
297.862
297.869
297.87
297.862
297.876
297.885
297.885
297.892
297.892
297.883
297.896
297.906
297.907
297.915
297.914
297.903
297.917
297.929
297.931
297.939
297.936
297.925
297.939
297.952
297.955
297.963
297.96
297.946
297.961
297.975
297.98
297.988
297.984
297.969
297.984
298
298.005
298.014
298.008
297.992
298.008
298.025
298.031
298.04
298.033
298.016
298.032
298.05
298.058
298.067
298.059
298.04
298.057
298.076
298.085
298.094
298.085
298.065
298.082
298.103
298.113
298.122
298.112
298.091
298.108
298.13
298.142
298.151
298.14
298.117
298.135
298.158
298.171
298.18
298.168
298.144
298.162
298.187
298.201
298.21
298.197
298.171
298.19
298.216
298.231
298.241
298.226
298.2
298.218
298.245
298.262
298.272
298.256
298.228
298.247
298.276
298.293
298.304
298.286
298.258
298.277
298.306
298.325
298.336
298.317
298.287
298.307
298.338
298.357
298.368
298.349
298.318
298.337
298.369
298.39
298.401
298.38
298.348
298.368
298.401
298.423
298.434
298.412
298.379
298.399
298.433
298.456
298.467
298.445
298.411
298.431
298.466
298.49
298.501
298.477
298.443
298.463
298.499
298.524
298.535
298.51
298.475
298.495
298.532
298.558
298.569
298.543
298.507
298.528
298.565
298.592
298.603
298.576
298.54
298.561
298.598
298.625
298.636
298.61
298.573
298.594
298.631
298.659
298.67
298.643
298.607
298.627
298.664
298.692
298.704
298.676
298.64
298.66
298.697
298.726
298.737
298.708
298.673
298.693
298.729
298.758
298.769
298.741
298.705
298.725
298.761
298.791
298.801
298.773
298.737
298.757
298.792
298.822
298.832
298.804
298.769
298.788
298.823
298.853
298.863
298.834
298.799
298.818
298.853
298.883
298.892
298.864
298.829
298.848
298.882
298.912
298.921
298.892
298.859
298.876
298.91
298.94
298.949
298.92
298.887
298.904
298.937
298.966
298.975
298.947
298.914
298.931
298.963
298.992
299
298.972
298.941
298.957
298.988
299.017
299.025
298.997
298.966
298.981
299.012
299.04
299.048
299.02
298.991
299.005
299.035
299.063
299.07
299.043
299.014
299.028
299.057
299.084
299.09
299.064
299.036
299.05
299.077
299.104
299.11
299.084
299.058
299.071
299.097
299.123
299.129
299.104
299.078
299.09
299.116
299.141
299.146
299.122
299.098
299.109
299.133
299.157
299.163
299.14
299.116
299.127
299.15
299.173
299.178
299.156
299.133
299.144
299.166
299.188
299.193
299.172
299.15
299.16
299.181
299.203
299.207
299.186
299.166
299.175
299.195
299.216
299.22
299.2
299.181
299.189
299.209
299.229
299.233
299.213
299.195
299.203
299.222
299.241
299.244
299.226
299.208
299.216
299.234
299.252
299.256
299.238
299.221
299.228
299.245
299.263
299.266
299.25
299.234
299.24
299.257
299.274
299.277
299.261
299.246
299.252
299.268
299.284
299.287
299.272
299.258
299.263
299.278
299.294
299.298
299.283
299.27
299.273
299.288
299.303
299.308
299.294
299.281
299.284
299.298
299.312
299.317
299.303
299.291
299.294
299.307
299.32
299.328
299.314
299.301
299.35
299.374
299.386
299.391
299.395
299.4
299.4
299.399
299.396
299.393
299.389
299.385
299.38
299.375
299.37
299.364
299.358
299.352
299.346
299.34
299.334
299.327
299.321
299.315
299.308
299.302
299.295
299.289
299.282
299.275
299.269
299.262
299.255
299.248
299.24
299.233
299.225
299.217
299.208
299.199
299.19
299.181
299.171
299.161
299.153
299.145
299.139
299.137
299.137
299.145
299.148
299.142
299.141
299.147
299.145
299.147
299.15
299.15
299.153
299.15
299.146
299.147
299.153
299.162
299.167
299.157
299.15
299.15
299.158
299.169
299.174
299.161
299.154
299.154
299.162
299.175
299.177
299.165
299.157
299.157
299.165
299.178
299.18
299.167
299.16
299.16
299.167
299.18
299.183
299.17
299.162
299.161
299.169
299.182
299.185
299.172
299.164
299.163
299.171
299.184
299.187
299.174
299.165
299.165
299.173
299.187
299.189
299.175
299.167
299.167
299.175
299.189
299.192
299.178
299.169
299.169
299.177
299.191
299.194
299.18
299.171
299.171
299.18
299.194
299.197
299.182
299.174
299.174
299.182
299.197
299.2
299.185
299.176
299.177
299.186
299.201
299.204
299.189
299.18
299.18
299.189
299.205
299.209
299.193
299.183
299.184
299.194
299.21
299.215
299.198
299.188
299.189
299.199
299.216
299.221
299.203
299.192
299.194
299.204
299.223
299.228
299.208
299.197
299.198
299.21
299.23
299.235
299.213
299.201
299.202
299.214
299.236
299.24
299.217
299.205
299.206
299.218
299.242
299.245
299.22
299.208
299.208
299.22
299.245
299.247
299.221
299.209
299.208
299.219
299.245
299.245
299.217
299.206
299.205
299.214
299.243
299.249
299.217
299.208
299.211
299.221
299.259
299.274
299.23
299.219
299.224
299.237
299.295
299.322
299.245
299.231
299.234
299.25
299.361
299.416
299.25
299.235
299.23
299.237
299.459
299.933
299.004
299.2
299.336
299.37
299.311
299.383
299.311
299.317
299.343
299.352
299.364
299.376
299.355
299.36
299.389
299.377
299.369
299.412
299.413
299.416
299.444
299.437
299.439
299.467
299.47
299.478
299.51
299.498
299.476
299.516
299.528
299.533
299.559
299.56
299.545
299.588
299.589
299.586
299.62
299.623
299.617
299.646
299.65
299.649
299.663
299.655
299.658
299.645
299.643
299.646
299.62
299.603
299.597
299.516
299.541
299.568
299.468
299.433
299.377
299.18
299.278
299.305
299.201
299.131
298.945
298.667
298.931
299.034
298.769
298.688
298.378
298.036
298.523
298.641
298.374
298.279
297.734
297.212
297.974
298.085
297.864
297.764
296.928
296.269
297.111
297.411
296.718
296.316
296.042
295.78
295.279
295.623
295.118
294.737
295.703
295.914
294.641
294.765
294.591
294.83
296.335
297.014
295.22
294.587
294.724
295.858
297.632
298.595
297.115
295.497
295.796
297.659
299.138
299.662
298.335
296.22
297.679
299.19
300
300.299
299.304
297.543
298.159
299.756
300.388
300.639
300.323
299.335
299.237
300.516
300.611
300.726
300.349
299.785
300.433
300.323
301.481
300.696
300.2
299.879
300.013
300.352
300.663
300.824
300.317
300.26
299.681
299.885
300.544
300.494
300.05
299.793
300.056
299.858
300.988
300.25
299.744
299.548
299.647
299.911
300.188
300.398
299.848
299.811
299.381
299.371
300.288
299.63
299.923
299.4
299.524
299.546
300.084
299.879
299.073
299.238
299.307
299.493
299.526
299.467
299.273
299.001
299.1
299.452
299.388
299.417
299.435
299.22
299.052
299.035
299.397
299.292
299.266
299.052
299.077
299.2
299.359
299.364
298.857
298.934
298.974
299.136
299.168
299.525
298.923
298.904
298.762
298.445
299.206
298.862
298.887
298.753
298.536
298.697
298.844
298.706
298.91
298.647
298.524
298.644
298.857
298.892
298.23
298.497
298.458
298.559
298.557
298.511
298.562
298.308
298.361
298.466
298.661
298.64
298.322
298.482
298.2
298.33
298.366
298.444
298.427
298.292
298.291
297.878
299.074
297.867
298.44
298.201
298.039
297.988
298.519
298.349
298.005
298.144
298.014
297.99
298.593
298.391
297.873
297.994
297.931
298.128
298.218
298.365
297.992
297.911
297.877
297.493
298.39
297.922
297.977
297.816
297.676
297.775
297.876
297.687
297.949
297.672
297.538
297.706
297.9
298.094
297.175
297.667
297.554
297.506
297.717
297.517
297.479
297.428
297.446
297.499
297.502
297.45
297.517
297.341
297.404
297.457
297.719
297.727
297.11
297.441
297.201
297.484
296.902
297.498
297.201
297.226
297.16
297.003
297.362
297.422
297.14
297.082
297.072
297.021
297.375
297.197
297.247
297.014
296.844
297.095
297.272
297.524
296.51
297.007
296.899
296.793
297.196
297.115
296.802
296.745
296.777
296.93
296.905
296.935
296.82
296.672
296.67
296.965
296.7
296.788
296.723
296.533
296.724
296.07
297.078
296.947
296.541
296.559
296.49
296.489
296.499
296.478
296.409
296.451
296.346
296.393
296.424
296.469
296.38
296.369
296.278
296.317
296.476
296.405
296.511
296.299
296.037
296.556
296.203
295.714
296.572
296.207
295.998
296.103
296.467
296.252
295.73
295.99
295.826
295.98
296.36
296.256
295.79
295.882
295.809
295.952
296.308
296.148
295.832
295.801
295.778
295.906
296.18
296.055
295.775
295.712
295.682
295.765
296.067
296.178
295.821
295.75
295.626
295.793
295.753
296.276
295.489
295.489
295.492
295.361
295.859
295.902
295.5
295.374
295.352
295.307
295.69
295.624
295.408
295.292
295.266
295.289
295.568
295.544
295.356
295.226
295.164
295.205
295.432
295.466
295.365
295.144
295.033
295.568
295.238
294.895
295.403
295.062
294.972
295.173
295.526
295.324
294.768
294.932
294.853
295.022
295.424
295.267
294.772
294.817
294.748
294.943
295.332
295.156
294.751
294.715
294.679
294.841
295.167
294.987
294.647
294.596
294.537
294.603
294.976
295.052
294.702
294.738
294.405
294.665
294.853
294.693
294.497
294.442
294.273
294.405
294.465
294.306
294.514
294.291
294.222
294.319
294.427
294.331
294.388
294.215
294.125
294.21
294.422
294.377
294.231
294.086
293.984
294.054
294.339
294.375
294.016
293.924
294.073
293.855
294.575
294.392
293.534
293.812
293.831
293.939
294.307
293.974
293.744
293.61
293.743
293.803
293.984
293.824
293.623
293.502
293.57
293.606
293.81
293.737
293.524
293.401
293.428
293.481
293.761
293.686
293.377
293.301
293.216
293.457
293.616
293.622
293.552
293.179
293.083
293.018
293.468
293.589
293.313
292.982
292.91
293.019
293.428
293.393
293.144
292.895
292.781
292.911
293.354
293.302
293.027
292.8
292.625
292.706
293.218
293.165
292.861
292.626
292.531
292.59
293.024
292.948
292.736
292.445
292.491
292.844
292.937
292.805
292.586
292.363
292.272
292.582
292.99
292.805
292.174
292.164
292.112
292.364
292.821
292.57
291.983
291.974
291.921
292.246
292.574
292.396
291.824
291.806
291.704
292.025
292.469
292.472
292.176
291.853
291.598
291.773
292.221
292.293
291.823
291.57
291.398
291.434
292.065
291.926
291.606
291.367
291.149
291.229
291.828
291.799
291.413
291.141
290.978
291.138
291.684
291.663
291.071
290.842
291.107
291.165
291.86
291.248
290.874
290.695
290.767
290.917
291.368
290.954
290.604
290.576
290.493
290.585
291.073
290.882
290.349
290.294
290.133
290.405
290.836
290.881
290.665
290.186
289.964
290.01
290.735
290.644
290.145
289.834
289.693
289.701
290.423
290.27
289.942
289.58
289.381
289.545
290.129
290.288
289.634
289.274
289.511
289.877
290.311
289.969
289.353
289.141
289.15
289.424
289.968
289.471
289.014
288.934
288.783
288.924
289.494
289.214
288.633
288.493
288.386
288.761
289.41
289.348
288.928
288.586
288.179
288.382
289.027
289.02
288.473
288.193
287.894
288.06
288.635
288.547
287.857
287.569
287.705
288.075
288.505
288.261
287.605
287.398
287.463
287.796
288.335
288.006
287.322
287.137
286.874
287.289
288.017
287.57
287.307
286.848
286.355
286.608
287.297
287.402
286.753
286.348
286.12
286.318
287.162
287.232
286.259
285.834
286.061
286.285
287.092
286.316
285.751
285.579
285.405
285.583
286.267
285.734
285.006
284.85
284.632
285.111
286.062
285.979
285.393
284.793
284.398
284.67
285.496
285.26
284.374
283.937
283.915
284.064
285.203
284.461
283.567
283.324
283.188
283.751
284.73
284.854
283.901
283.361
282.947
283.232
283.886
283.307
282.497
282.239
282.012
283.01
283.187
283.15
282.024
281.728
281.492
282.067
283.258
283.003
282.208
281.468
280.831
280.628
281.671
281.401
280.446
280.048
280.122
280.825
281.434
281.036
280.053
279.73
279.064
279.758
280.87
280.207
279.734
278.756
278.143
278.223
279.456
279.743
278.326
277.814
277.34
277.907
279.348
278.924
278.19
277.02
276.568
276.741
278.413
278.363
276.665
276.179
275.703
276.201
278.123
278.523
276.062
275.306
274.99
275.774
278.114
279.108
276.274
275.033
275.234
276.434
279.331
280.963
278.919
276.9
276.64
277.984
279.692
282.836
280.12
278.621
280.252
281.991
284.753
286.31
283.58
281.671
282.77
284.792
287.414
288.285
285.773
283.661
284.417
286.602
288.977
289.569
287.347
285.107
285.739
288.01
290.051
290.463
288.607
286.33
286.878
289.139
290.809
291.103
289.618
287.396
287.879
290.039
291.355
291.582
290.416
288.329
288.747
290.75
291.776
291.945
291.055
289.143
289.513
291.321
292.088
292.221
291.557
289.863
290.185
291.759
292.335
292.44
291.94
290.485
290.757
292.094
292.528
292.609
292.235
291.009
291.237
292.356
292.675
292.738
292.469
291.449
291.64
292.564
292.789
292.841
292.655
291.817
291.973
292.732
292.883
292.926
292.806
292.117
292.241
292.868
292.96
292.998
292.929
292.356
292.453
292.98
293.029
293.064
293.032
292.546
292.623
293.074
293.09
293.119
293.118
292.697
292.758
293.152
293.14
293.166
293.188
292.817
292.864
293.215
293.185
293.208
293.244
292.911
292.947
293.265
293.225
293.246
293.288
292.984
293.011
293.303
293.261
293.278
293.321
293.04
293.06
293.332
293.29
293.304
293.345
293.083
293.097
293.351
293.314
293.326
293.359
293.115
293.123
293.362
293.335
293.345
293.366
293.136
293.142
293.367
293.352
293.36
293.369
293.153
293.157
293.37
293.366
293.372
293.37
293.166
293.17
293.37
293.376
293.38
293.369
293.178
293.18
293.367
293.383
293.385
293.366
293.186
293.188
293.362
293.386
293.386
293.36
293.192
293.193
293.355
293.386
293.385
293.353
293.196
293.196
293.348
293.383
293.382
293.345
293.199
293.2
293.339
293.378
293.376
293.337
293.202
293.202
293.331
293.371
293.368
293.327
293.203
293.202
293.32
293.362
293.359
293.316
293.202
293.2
293.308
293.351
293.347
293.304
293.199
293.197
293.296
293.339
293.335
293.292
293.195
293.192
293.283
293.326
293.322
293.279
293.19
293.186
293.27
293.313
293.308
293.266
293.183
293.178
293.257
293.298
293.293
293.252
293.175
293.168
293.242
293.283
293.278
293.237
293.164
293.156
293.227
293.268
293.262
293.222
293.152
293.143
293.211
293.252
293.246
293.206
293.138
293.128
293.195
293.235
293.23
293.189
293.122
293.112
293.178
293.219
293.213
293.172
293.105
293.094
293.16
293.201
293.196
293.154
293.088
293.076
293.142
293.184
293.178
293.135
293.069
293.056
293.122
293.166
293.159
293.115
293.048
293.034
293.102
293.147
293.14
293.094
293.027
293.012
293.08
293.127
293.12
293.073
293.004
292.989
293.058
293.107
293.1
293.05
292.98
292.965
293.035
293.086
293.079
293.027
292.956
292.94
293.012
293.065
293.057
293.003
292.93
292.915
292.987
293.043
293.035
292.978
292.905
292.889
292.963
293.02
293.012
292.953
292.878
292.862
292.937
292.997
292.988
292.927
292.852
292.836
292.911
292.973
292.964
292.901
292.825
292.809
292.885
292.949
292.939
292.875
292.798
292.781
292.859
292.924
292.914
292.848
292.77
292.753
292.832
292.899
292.889
292.821
292.743
292.726
292.805
292.873
292.863
292.794
292.715
292.698
292.778
292.847
292.837
292.767
292.688
292.671
292.75
292.821
292.811
292.74
292.661
292.644
292.723
292.795
292.785
292.713
292.633
292.617
292.696
292.769
292.758
292.685
292.606
292.59
292.669
292.742
292.732
292.658
292.58
292.563
292.642
292.715
292.705
292.631
292.553
292.537
292.615
292.689
292.679
292.604
292.527
292.511
292.588
292.662
292.652
292.578
292.501
292.485
292.562
292.636
292.626
292.551
292.475
292.459
292.535
292.61
292.599
292.525
292.449
292.433
292.509
292.583
292.573
292.499
292.424
292.408
292.483
292.557
292.547
292.473
292.399
292.384
292.458
292.532
292.522
292.448
292.374
292.359
292.433
292.506
292.496
292.423
292.35
292.335
292.408
292.481
292.471
292.398
292.326
292.312
292.383
292.456
292.446
292.373
292.303
292.288
292.359
292.431
292.421
292.349
292.28
292.265
292.335
292.407
292.397
292.325
292.257
292.243
292.311
292.382
292.373
292.302
292.234
292.22
292.288
292.359
292.349
292.279
292.212
292.198
292.265
292.335
292.326
292.256
292.19
292.177
292.243
292.312
292.303
292.234
292.169
292.155
292.221
292.29
292.281
292.212
292.148
292.135
292.199
292.267
292.259
292.191
292.127
292.114
292.178
292.245
292.237
292.169
292.107
292.094
292.157
292.224
292.216
292.149
292.087
292.074
292.136
292.203
292.195
292.128
292.067
292.055
292.116
292.182
292.174
292.108
292.048
292.036
292.096
292.161
292.154
292.088
292.029
292.017
292.077
292.141
292.134
292.069
292.01
291.998
292.057
292.122
292.114
292.05
291.992
291.98
292.039
292.102
292.095
292.031
291.974
291.962
292.02
292.083
292.076
292.013
291.956
291.945
292.002
292.065
292.057
291.995
291.938
291.928
291.984
292.046
292.039
291.978
291.921
291.911
291.967
292.028
292.021
291.96
291.905
291.894
291.95
292.01
292.004
291.943
291.888
291.878
291.933
291.993
291.986
291.926
291.872
291.862
291.916
291.976
291.969
291.91
291.856
291.846
291.9
291.959
291.953
291.894
291.84
291.83
291.884
291.943
291.936
291.878
291.825
291.815
291.868
291.926
291.92
291.862
291.81
291.8
291.853
291.91
291.904
291.847
291.795
291.785
291.838
291.895
291.889
291.832
291.78
291.771
291.823
291.879
291.873
291.817
291.766
291.757
291.808
291.864
291.858
291.803
291.751
291.743
291.794
291.849
291.844
291.788
291.738
291.729
291.78
291.835
291.829
291.774
291.724
291.715
291.766
291.82
291.815
291.76
291.71
291.702
291.752
291.806
291.801
291.747
291.697
291.689
291.739
291.792
291.787
291.734
291.684
291.676
291.726
291.779
291.773
291.721
291.672
291.664
291.713
291.765
291.76
291.708
291.659
291.651
291.7
291.752
291.747
291.695
291.647
291.639
291.688
291.739
291.734
291.683
291.635
291.627
291.675
291.726
291.722
291.671
291.623
291.616
291.663
291.714
291.709
291.659
291.611
291.604
291.651
291.702
291.697
291.647
291.6
291.593
291.64
291.69
291.685
291.635
291.589
291.582
291.628
291.678
291.673
291.624
291.578
291.571
291.617
291.666
291.662
291.613
291.567
291.56
291.606
291.655
291.65
291.602
291.556
291.549
291.595
291.643
291.639
291.591
291.545
291.539
291.584
291.632
291.628
291.58
291.535
291.528
291.574
291.621
291.617
291.57
291.524
291.518
291.563
291.61
291.606
291.559
291.514
291.508
291.553
291.6
291.596
291.549
291.504
291.498
291.543
291.589
291.585
291.539
291.494
291.488
291.533
291.579
291.575
291.529
291.485
291.478
291.523
291.569
291.565
291.519
291.475
291.469
291.513
291.559
291.555
291.51
291.465
291.46
291.504
291.549
291.545
291.5
291.456
291.45
291.495
291.539
291.536
291.491
291.447
291.441
291.485
291.53
291.526
291.482
291.438
291.432
291.476
291.52
291.517
291.473
291.429
291.423
291.467
291.511
291.508
291.464
291.42
291.415
291.458
291.502
291.498
291.455
291.411
291.406
291.45
291.493
291.489
291.446
291.403
291.398
291.441
291.484
291.481
291.438
291.394
291.389
291.433
291.475
291.472
291.429
291.386
291.381
291.424
291.467
291.463
291.421
291.378
291.373
291.416
291.458
291.455
291.412
291.369
291.364
291.407
291.45
291.446
291.404
291.361
291.356
291.399
291.441
291.438
291.396
291.353
291.348
291.391
291.433
291.43
291.388
291.345
291.34
291.383
291.425
291.422
291.38
291.338
291.333
291.375
291.417
291.414
291.372
291.33
291.325
291.368
291.409
291.406
291.365
291.322
291.317
291.36
291.401
291.398
291.357
291.315
291.31
291.352
291.393
291.39
291.349
291.307
291.302
291.345
291.386
291.382
291.342
291.3
291.295
291.338
291.378
291.375
291.334
291.292
291.288
291.33
291.371
291.367
291.327
291.285
291.281
291.323
291.363
291.36
291.32
291.277
291.273
291.316
291.356
291.352
291.312
291.27
291.266
291.308
291.348
291.345
291.305
291.263
291.259
291.301
291.341
291.338
291.298
291.256
291.252
291.294
291.334
291.331
291.291
291.249
291.245
291.287
291.327
291.323
291.284
291.242
291.238
291.28
291.319
291.316
291.277
291.235
291.232
291.273
291.312
291.309
291.27
291.229
291.225
291.267
291.305
291.302
291.264
291.222
291.218
291.26
291.298
291.296
291.257
291.215
291.212
291.253
291.291
291.289
291.25
291.209
291.205
291.246
291.284
291.282
291.244
291.202
291.199
291.24
291.278
291.275
291.237
291.196
291.192
291.233
291.271
291.268
291.231
291.189
291.186
291.227
291.264
291.262
291.224
291.183
291.179
291.22
291.257
291.255
291.218
291.177
291.173
291.214
291.251
291.249
291.211
291.171
291.167
291.207
291.244
291.242
291.205
291.164
291.16
291.201
291.238
291.235
291.199
291.158
291.154
291.194
291.231
291.229
291.192
291.152
291.148
291.188
291.225
291.223
291.186
291.146
291.142
291.182
291.218
291.216
291.18
291.14
291.136
291.176
291.212
291.21
291.174
291.134
291.13
291.17
291.206
291.203
291.167
291.128
291.124
291.163
291.199
291.197
291.161
291.122
291.118
291.157
291.193
291.191
291.155
291.116
291.112
291.151
291.187
291.185
291.149
291.11
291.106
291.145
291.181
291.178
291.143
291.104
291.1
291.139
291.174
291.172
291.137
291.098
291.094
291.133
291.168
291.166
291.131
291.092
291.088
291.127
291.162
291.16
291.125
291.086
291.082
291.121
291.156
291.153
291.119
291.079
291.076
291.114
291.15
291.147
291.113
291.073
291.07
291.108
291.143
291.141
291.107
291.068
291.063
291.103
291.137
291.135
291.1
291.062
291.058
291.096
291.131
291.128
291.094
291.055
291.051
291.09
291.125
291.122
291.087
291.049
291.045
291.084
291.119
291.116
291.081
291.043
291.039
291.078
291.112
291.109
291.075
291.037
291.033
291.072
291.106
291.103
291.069
291.031
291.027
291.065
291.1
291.096
291.062
291.024
291.021
291.059
291.093
291.09
291.056
291.018
291.015
291.053
291.087
291.084
291.05
291.012
291.009
291.047
291.081
291.078
291.044
291.006
291.003
291.041
291.075
291.071
291.038
291
290.997
291.035
291.069
291.065
291.032
290.993
290.991
291.029
291.063
291.059
291.026
290.987
290.985
291.022
291.057
291.051
291.019
290.981
290.978
291.015
291.049
291.042
291.012
290.974
290.968
291.006
291.04
291.035
291.001
290.953
290.929
290.991
291.024
290.995
290.964
290.882
290.887
290.959
290.983
290.854
290.804
290.554
290.343
290.188
290.126
289.926
289.785
289.705
289.655
289.483
289.322
289.181
289.054
288.942
288.842
288.753
288.676
288.609
288.551
288.501
288.459
288.422
288.391
288.364
288.341
288.322
288.305
288.291
288.279
288.269
288.26
288.252
288.245
288.239
288.234
288.23
288.226
288.223
288.22
288.217
288.215
288.213
288.212
288.21
288.209
288.208
288.207
288.206
288.205
288.204
288.204
288.203
288.203
288.203
288.203
288.203
288.202
288.202
288.202
288.201
288.201
288.2
288.2
288.199
288.199
288.198
288.197
288.196
288.196
288.195
288.194
288.193
288.192
288.192
288.191
288.19
288.189
288.188
288.188
288.187
288.186
288.186
288.185
288.185
288.184
288.184
288.183
288.183
288.183
288.182
288.182
288.182
288.181
288.181
288.181
288.18
288.179
288.178
288.177
288.177
288.177
288.178
288.179
288.182
288.185
288.189
288.194
288.2
288.208
288.216
288.225
288.235
288.246
288.259
288.272
288.286
288.301
288.318
288.335
288.354
288.373
288.394
288.417
288.44
288.465
288.492
288.52
288.549
288.58
288.613
288.647
288.684
288.722
288.762
288.804
288.849
288.895
288.944
288.995
289.048
289.104
289.162
289.222
289.285
289.351
289.419
289.49
289.563
289.639
289.717
289.798
289.882
289.968
290.056
290.146
290.239
290.334
290.431
290.529
290.63
290.732
290.835
290.94
291.047
291.154
291.262
291.371
291.48
291.59
291.7
291.81
291.92
292.03
292.14
292.249
292.357
292.465
292.572
292.677
292.782
292.886
292.988
293.089
293.189
293.287
293.383
293.478
293.571
293.663
293.753
293.841
293.927
294.011
294.094
294.175
294.254
294.331
294.406
294.48
294.551
294.621
294.689
294.756
294.82
294.883
294.945
295.004
295.062
295.118
295.173
295.226
295.278
295.328
295.376
295.423
295.469
295.514
295.557
295.598
295.639
295.678
295.716
295.752
295.788
295.822
295.855
295.888
295.919
295.949
295.978
296.006
296.033
296.059
296.084
296.108
296.132
296.155
296.176
296.197
296.218
296.237
296.256
296.274
296.291
296.308
296.324
296.339
296.354
296.368
296.382
296.395
296.408
296.42
296.431
296.442
296.453
296.463
296.473
296.482
296.491
296.499
296.507
296.515
296.522
296.529
296.536
296.542
296.548
296.553
296.558
296.563
296.568
296.572
296.576
296.58
296.583
296.586
296.589
296.591
296.593
296.595
296.597
296.598
296.599
296.6
296.601
296.602
296.602
296.602
296.602
296.602
296.602
296.602
296.602
296.602
296.602
296.602
296.602
296.602
296.602
296.602
296.602
296.602
296.603
296.604
296.607
296.611
296.616
296.621
296.627
296.633
296.639
296.645
296.651
296.657
296.663
296.669
296.676
296.682
296.689
296.696
296.703
296.711
296.718
296.725
296.733
296.741
296.748
296.756
296.764
296.772
296.78
296.789
296.797
296.805
296.814
296.822
296.831
296.839
296.848
296.856
296.865
296.874
296.883
296.891
296.9
296.909
296.917
296.926
296.935
296.943
296.952
296.96
296.969
296.977
296.986
296.994
297.002
297.01
297.019
297.027
297.034
297.042
297.05
297.058
297.065
297.072
297.08
297.087
297.094
297.1
297.107
297.113
297.12
297.126
297.132
297.139
297.145
297.151
297.156
297.159
297.161
297.161
297.161
297.161
297.161
297.16
297.16
297.159
297.159
297.158
297.158
297.158
297.159
297.161
297.164
297.174
297.174
297.175
297.177
297.179
297.182
297.185
297.189
297.192
297.196
297.2
297.203
297.207
297.211
297.215
297.219
297.224
297.227
297.232
297.235
297.239
297.243
297.247
297.251
297.255
297.258
297.262
297.266
297.27
297.273
297.278
297.281
297.285
297.288
297.293
297.296
297.3
297.303
297.308
297.311
297.316
297.319
297.324
297.327
297.332
297.335
297.341
297.344
297.349
297.352
297.358
297.361
297.367
297.37
297.376
297.38
297.386
297.389
297.396
297.399
297.406
297.409
297.416
297.42
297.427
297.43
297.438
297.442
297.449
297.453
297.461
297.465
297.472
297.477
297.485
297.489
297.497
297.502
297.51
297.515
297.524
297.529
297.538
297.543
297.552
297.557
297.567
297.572
297.582
297.587
297.598
297.603
297.614
297.619
297.631
297.636
297.648
297.654
297.666
297.672
297.684
297.69
297.703
297.709
297.722
297.729
297.742
297.749
297.763
297.77
297.784
297.791
297.806
297.813
297.828
297.836
297.851
297.859
297.875
297.883
297.899
297.908
297.924
297.933
297.95
297.959
297.976
297.985
298.003
298.012
298.031
298.04
298.059
298.068
298.088
298.098
298.117
298.127
298.147
298.158
298.178
298.189
298.21
298.22
298.242
298.252
298.274
298.285
298.307
298.318
298.341
298.352
298.375
298.386
298.409
298.421
298.444
298.456
298.479
298.491
298.514
298.526
298.55
298.562
298.585
298.597
298.621
298.633
298.656
298.668
298.691
298.703
298.726
298.738
298.76
298.772
298.794
298.805
298.827
298.838