/*--------------------------------*- C++ -*----------------------------------*\
| =========                 |                                                 |
| \\      /  F ield         | OpenFOAM: The Open Source CFD Toolbox           |
|  \\    /   O peration     | Version:  v2006                                 |
|   \\  /    A nd           | Website:  www.openfoam.com                      |
|    \\/     M anipulation  |                                                 |
\*---------------------------------------------------------------------------*/
FoamFile
{
    version     2.0;
    format      ascii;
    class       volScalarField;
    location    "0.165";
    object      isentropic(p);
}
// * * * * * * * * * * * * * * * * * * * * * * * * * * * * * * * * * * * * * //

dimensions      [1 -1 -2 0 0 0 0];


internalField   nonuniform List<scalar> 
38932
(
150024
150024
150024
150024
150024
150024
150024
150024
150024
150024
150024
150024
150024
150023
150023
150023
150023
150023
150023
150023
150023
150023
150023
150023
150023
150023
150022
150022
150022
150022
150022
150022
150022
150022
150021
150021
150021
150021
150021
150021
150021
150020
150020
150020
150020
150020
150020
150020
150019
150019
150019
150019
150019
150019
150018
150018
150018
150018
150018
150018
150017
150017
150017
150017
150017
150017
150016
150016
150016
150016
150016
150016
150015
150015
150015
150015
150015
150015
150015
150014
150014
150014
150014
150014
150014
150014
150013
150013
150013
150013
150013
150013
150013
150013
150012
150012
150012
150012
150012
150012
150012
150012
150012
150011
150011
150011
150011
150011
150011
150011
150011
150011
150011
150011
150011
150011
150011
150011
150011
150011
150010
150010
150011
150011
150011
150013
150005
150067
149773
150471
148523
152096
150396
149674
150342
150116
149925
150133
150006
149975
150052
150031
149981
149907
149826
149971
150016
150006
149955
149761
149706
149937
149996
149987
149920
149659
149618
149902
149978
149968
149884
149582
149551
149867
149958
149948
149850
149523
149498
149834
149938
149928
149819
149476
149455
149805
149918
149909
149791
149437
149420
149778
149900
149891
149766
149404
149390
149754
149882
149874
149742
149377
149364
149732
149865
149857
149721
149353
149342
149711
149850
149842
149702
149332
149323
149693
149835
149828
149684
149314
149306
149675
149821
149814
149667
149299
149292
149660
149808
149801
149652
149285
149280
149645
149795
149789
149638
149274
149269
149631
149783
149778
149625
149264
149260
149619
149772
149767
149613
149257
149253
149607
149761
149756
149602
149250
149247
149596
149751
149746
149591
149245
149243
149586
149741
149736
149582
149242
149241
149577
149731
149727
149573
149240
149240
149569
149722
149718
149565
149240
149241
149562
149714
149710
149559
149242
149243
149555
149706
149702
149553
149245
149247
149550
149698
149694
149547
149249
149252
149545
149691
149687
149543
149255
149258
149541
149684
149680
149539
149262
149267
149537
149677
149674
149536
149271
149276
149535
149671
149668
149534
149282
149288
149533
149665
149662
149533
149294
149301
149532
149659
149657
149533
149309
149317
149533
149655
149653
149534
149325
149334
149535
149651
149649
149536
149344
149354
149537
149647
149645
149539
149364
149375
149541
149644
149642
149544
149386
149398
149546
149641
149640
149550
149410
149423
149553
149639
149639
149557
149437
149451
149562
149639
149639
149567
149465
149480
149572
149640
149641
149579
149496
149512
149585
149643
149645
149593
149529
149546
149602
149648
149652
149611
149564
149582
149621
149656
149662
149632
149601
149619
149643
149668
149675
149655
149637
149654
149667
149682
149690
149679
149670
149686
149691
149699
149707
149702
149699
149711
149712
149715
149722
149721
149721
149730
149729
149729
149736
149736
149736
149742
149741
149741
149746
149746
149746
149750
149750
149750
149753
149753
149752
149754
149756
149756
149758
149758
149755
149755
149759
149760
149762
149761
149756
149756
149762
149764
149765
149763
149757
149757
149764
149766
149767
149765
149758
149759
149766
149768
149769
149767
149760
149761
149769
149770
149771
149770
149762
149763
149771
149772
149773
149772
149765
149766
149773
149774
149775
149774
149768
149769
149775
149776
149778
149776
149771
149772
149778
149779
149780
149779
149774
149775
149780
149781
149782
149781
149777
149778
149782
149782
149783
149783
149780
149781
149784
149784
149785
149785
149782
149783
149785
149786
149786
149786
149784
149785
149786
149786
149787
149787
149785
149785
149786
149786
149786
149786
149786
149785
149786
149786
149785
149785
149785
149784
149784
149784
149783
149783
149783
149782
149782
149782
149781
149781
149781
149780
149780
149780
149781
149781
149782
149783
149783
149783
149784
149784
149784
149785
149785
149785
149785
149785
149785
149785
149785
149784
149785
149784
149784
149784
149784
149783
149784
149783
149783
149783
149783
149783
149783
149783
149783
149783
149783
149783
149783
149783
149783
149783
149783
149783
149783
149783
149783
149783
149783
149783
149783
149783
149783
149783
149783
149783
149783
149783
149783
149783
149783
149783
149783
149783
149783
149783
149783
149783
149783
149783
149783
149783
149783
149783
149783
149783
149782
149782
149782
149782
149782
149782
149782
149782
149782
149782
149782
149782
149782
149782
149782
149782
149782
149782
149782
149782
149782
149782
149782
149782
149782
149782
149782
149782
149782
149782
149781
149781
149781
149781
149782
149781
149781
149781
149781
149781
149781
149781
149781
149781
149781
149781
149781
149781
149781
149781
149781
149781
149781
149781
149781
149781
149780
149780
149780
149780
149780
149780
149780
149780
149780
149779
149779
149778
149779
149780
149792
149778
149776
149782
149781
149771
149784
149843
149833
149689
149633
149855
149865
149773
149758
149789
149768
149685
149693
149907
149903
149685
149676
149760
149781
149771
149768
149778
149777
149761
149872
149742
149738
149791
149797
149777
149804
149938
149924
149611
149618
149935
149946
149815
149784
149784
149811
149926
149914
149642
149555
149913
149928
149773
149747
149796
149768
149646
149653
149955
149886
149680
149674
149757
149779
149763
149762
149800
149790
149688
149727
149780
149785
149766
149770
149787
149769
149689
149693
149885
149791
149728
149729
149756
149767
149777
149755
149674
149689
149908
150043
149640
149626
149788
149818
149755
149781
149913
149907
149590
149751
149838
149838
149800
149786
149777
149804
149922
149909
149639
149523
149958
149972
149790
149752
149786
149790
149783
149780
149788
149585
149862
149876
149757
149747
149790
149763
149645
149655
149944
149887
149672
149665
149751
149773
149770
149759
149732
149736
149806
150096
149620
149603
149796
149828
149750
149790
149971
149957
149505
149585
149926
149933
149799
149763
149785
149796
149809
149806
149761
149501
149924
149940
149761
149735
149802
149778
149651
149656
149953
149812
149704
149705
149753
149767
149765
149748
149684
149693
149862
150183
149551
149532
149787
149833
149735
149775
149975
149959
149457
149583
149912
149919
149792
149760
149782
149794
149798
149787
149779
149464
149933
149953
149757
149730
149806
149781
149640
149645
149965
149820
149689
149692
149752
149768
149765
149746
149675
149684
149869
150264
149506
149483
149790
149847
149734
149774
149984
149966
149438
149658
149870
149876
149797
149774
149776
149806
149893
149876
149646
149336
150025
150046
149768
149719
149802
149792
149696
149693
149887
149539
149843
149866
149747
149744
149784
149751
149608
149624
149973
149975
149613
149606
149759
149791
149771
149753
149737
149743
149785
150339
149484
149456
149809
149870
149736
149782
150034
150013
149381
149651
149881
149890
149805
149781
149778
149818
149976
149944
149541
149293
150070
150095
149784
149727
149796
149807
149780
149768
149784
149350
150001
150032
149766
149733
149819
149798
149662
149662
149943
149638
149778
149799
149761
149769
149786
149741
149563
149578
150008
150251
149483
149467
149792
149841
149731
149772
150036
150009
149328
149609
149854
149877
149790
149797
149802
149810
149755
149728
149767
149191
150061
150112
149761
149731
149847
149824
149475
149491
150222
149660
149830
149825
149775
149818
149827
149809
149831
149775
149770
149770
149814
149807
149823
149823
149829
149825
149821
149810
149790
149800
149819
149827
149831
149833
149837
149835
149832
149826
149808
149813
149830
149835
149838
149839
149841
149841
149840
149835
149819
149824
149839
149843
149844
149843
149847
149847
149846
149843
149829
149833
149847
149850
149850
149850
149853
149854
149854
149852
149838
149842
149856
149858
149858
149856
149860
149862
149862
149861
149847
149853
149866
149867
149866
149863
149867
149870
149871
149871
149858
149862
149875
149875
149873
149870
149872
149876
149879
149880
149866
149872
149884
149882
149879
149876
149879
149883
149886
149889
149877
149882
149894
149890
149887
149884
149887
149891
149895
149899
149886
149891
149904
149899
149897
149893
149895
149900
149903
149908
149896
149902
149912
149907
149903
149898
149902
149907
149910
149916
149907
149911
149920
149914
149910
149905
149910
149915
149918
149924
149916
149920
149928
149923
149919
149914
149921
149925
149928
149932
149925
149929
149936
149933
149930
149926
149934
149937
149939
149941
149933
149937
149946
149944
149942
149940
149942
149946
149949
149952
149941
149945
149957
149954
149952
149949
149952
149956
149959
149962
149950
149954
149967
149963
149960
149956
149962
149965
149969
149973
149960
149966
149979
149974
149971
149967
149972
149976
149979
149984
149972
149977
149989
149985
149981
149977
149983
149987
149990
149994
149984
149989
150000
149996
149991
149986
149994
149997
150001
150006
149995
150001
150012
150006
150002
149997
150001
150006
150011
150017
150008
150015
150023
150016
150011
150005
150010
150016
150021
150028
150022
150029
150033
150027
150022
150017
150020
150027
150033
150038
150035
150041
150044
150039
150034
150030
150033
150040
150045
150051
150047
150059
150059
150053
150046
150039
150045
150053
150061
150067
150067
150075
150075
150069
150061
150053
150062
150069
150077
150084
150084
150092
150091
150084
150075
150066
150078
150085
150092
150099
150100
150107
150106
150099
150090
150082
150087
150097
150106
150115
150118
150126
150123
150114
150104
150094
150103
150113
150124
150133
150138
150146
150142
150132
150122
150113
150117
150130
150142
150152
150156
150167
150161
150151
150142
150133
150137
150149
150160
150170
150176
150189
150181
150169
150157
150145
150154
150167
150180
150193
150204
150214
150204
150192
150179
150167
150171
150187
150203
150216
150227
150238
150228
150215
150202
150191
150196
150211
150226
150240
150252
150266
150252
150237
150221
150206
150219
150234
150250
150265
150279
150293
150279
150263
150244
150223
150247
150261
150277
150293
150308
150322
150306
150289
150271
150253
150263
150283
150303
150321
150339
150356
150338
150318
150298
150280
150283
150309
150334
150354
150373
150389
150370
150350
150330
150312
150318
150341
150364
150387
150406
150426
150405
150380
150354
150328
150347
150372
150399
150425
150448
150468
150445
150418
150384
150349
150384
150409
150437
150465
150487
150507
150484
150454
150422
150390
150407
150439
150473
150504
150527
150549
150525
150492
150451
150408
150443
150476
150512
150546
150572
150596
150568
150529
150488
150448
150465
150508
150551
150591
150622
150635
150612
150572
150521
150466
150504
150549
150596
150635
150656
150680
150659
150619
150569
150516
150519
150582
150641
150685
150705
150732
150711
150665
150607
150549
150554
150622
150688
150739
150762
150792
150767
150709
150633
150561
150565
150645
150728
150795
150824
150865
150824
150742
150644
150548
150563
150644
150748
150845
150903
150941
150853
150729
150598
150489
150400
150523
150675
150835
150989
151060
150776
150578
150452
150419
150080
150225
150382
150585
150997
150040
150178
150104
150049
150108
149699
149791
149890
149963
149754
149764
149867
149763
149713
149796
149372
149454
149592
149778
149817
150014
149629
149378
149310
149369
148990
148945
148950
149025
148598
148096
148582
148566
148595
148674
148423
148331
148291
148334
148098
148237
148045
148000
148053
148159
147826
147677
147584
147639
147036
146612
147272
147263
147348
147448
147232
147016
146935
146934
146234
146111
146652
146615
146665
146723
146634
146374
146242
146234
145198
144903
145900
145950
146095
146252
146193
145907
145720
145626
144541
144355
145393
145542
145733
145923
145888
145621
145416
145243
144403
144542
145137
145305
145501
145693
145647
145362
145114
144898
143956
143668
144713
144940
145230
145489
145452
145159
144872
144638
143798
143799
144596
144864
145137
145402
145381
145109
144847
144556
143836
143862
144522
144815
145059
145283
145285
145043
144799
144504
143906
143880
144484
144775
145022
145265
145273
145015
144743
144449
143818
143805
144423
144723
144986
145243
145172
144960
144720
144430
143868
143908
144437
144729
144979
145222
145200
144968
144733
144447
143950
143995
144455
144729
144949
145140
145199
144972
144739
144462
144028
144055
144475
144742
144961
145175
145120
144946
144744
144489
144095
144134
144509
144761
144976
145179
145159
144977
144775
144528
144135
144150
144546
144795
145015
145226
145209
145012
144808
144571
144191
144232
144596
144823
145007
145169
145242
145050
144848
144624
144271
144310
144650
144866
145051
145229
145192
145046
144879
144673
144341
144381
144700
144906
145090
145266
145254
145091
144922
144723
144413
144450
144748
144937
145090
145223
145294
145132
144961
144772
144481
144511
144794
144978
145135
145285
145257
145134
144992
144817
144542
144572
144842
145019
145177
145327
145321
145181
145036
144866
144603
144627
144886
145050
145183
145297
145364
145225
145079
144914
144660
144687
144937
145096
145230
145360
145339
145234
145111
144959
144717
144742
144982
145138
145276
145406
145404
145281
145153
145002
144767
144792
145018
145161
145278
145389
145374
145283
145173
145036
144815
144840
145058
145197
145318
145432
145430
145324
145213
145078
144861
144888
145100
145228
145329
145415
145474
145367
145253
145123
144914
144938
145143
145269
145373
145473
145460
145379
145284
145162
144958
144984
145184
145308
145416
145517
145517
145423
145325
145205
145006
145029
145223
145339
145429
145505
145560
145465
145362
145244
145051
145072
145263
145378
145471
145560
145549
145478
145392
145281
145093
145116
145302
145415
145512
145602
145603
145519
145430
145320
145137
145154
145336
145443
145524
145593
145643
145558
145465
145356
145177
145197
145374
145480
145565
145644
145635
145570
145493
145390
145219
145237
145408
145514
145602
145683
145684
145608
145527
145425
145256
145276
145440
145540
145614
145676
145722
145645
145560
145457
145296
145316
145474
145574
145651
145723
145716
145658
145588
145489
145339
145358
145505
145609
145688
145761
145762
145694
145622
145520
145379
145400
145534
145637
145701
145756
145800
145732
145657
145552
145422
145440
145569
145675
145738
145804
145801
145748
145687
145586
145460
145490
145604
145708
145780
145845
145851
145789
145722
145634
145494
145593
145630
145746
145800
145852
145894
145835
145764
145690
145450
145758
145660
145793
145849
145914
145915
145868
145809
145730
145427
145819
145725
145843
145904
145958
145991
145940
145874
145771
145578
145748
145804
145920
146000
146066
146107
146027
145948
145834
145715
145737
145853
145969
146042
146122
146123
146056
145988
145868
145745
145755
145892
146011
146097
146181
146183
146114
146034
145919
145767
145782
145946
146064
146158
146248
146261
146172
146084
145969
145797
145810
145990
146102
146185
146257
146318
146228
146131
146018
145838
145859
146040
146151
146240
146327
146320
146249
146166
146058
145877
145898
146081
146192
146289
146378
146385
146300
146211
146103
145922
145941
146121
146227
146308
146377
146433
146347
146253
146144
145963
145984
146164
146271
146358
146441
146434
146366
146286
146182
146003
146022
146204
146312
146404
146488
146496
146416
146331
146226
146048
146070
146245
146347
146425
146490
146542
146461
146371
146266
146086
146105
146284
146388
146471
146550
146543
146479
146402
146301
146120
146146
146323
146427
146515
146594
146600
146525
146444
146342
146166
146180
146358
146457
146532
146593
146639
146564
146481
146380
146203
146224
146402
146502
146577
146640
146691
146613
146528
146425
146244
146260
146442
146544
146624
146701
146695
146633
146558
146458
146273
146299
146480
146583
146668
146743
146750
146677
146599
146498
146317
146333
146513
146611
146684
146743
146786
146713
146632
146531
146347
146366
146551
146651
146726
146786
146835
146759
146676
146573
146384
146401
146590
146691
146770
146843
146837
146777
146704
146603
146414
146434
146621
146725
146808
146880
146886
146815
146738
146636
146445
146458
146649
146749
146821
146878
146918
146849
146769
146667
146475
146492
146686
146787
146860
146918
146964
146892
146810
146706
146510
146526
146721
146824
146901
146972
146964
146907
146835
146733
146536
146549
146748
146853
146934
147004
147009
146941
146865
146762
146564
146574
146773
146874
146946
147001
147038
146970
146892
146788
146588
146604
146806
146908
146980
147037
147079
147009
146929
146823
146617
146633
146836
146941
147017
147084
147076
147021
146950
146847
146641
146653
146862
146967
147045
147111
147111
147055
146983
146880
146671
146687
146897
147003
147083
147152
147157
147090
147014
146908
146698
146704
146917
147021
147092
147147
147181
147115
147037
146929
146713
146726
146945
147052
147124
147180
147219
147151
147071
146962
146745
146757
146974
147082
147158
147224
147213
147159
147088
146982
146760
146770
146994
147102
147181
147246
147244
147189
147116
147009
146784
146798
147024
147134
147214
147282
147285
147219
147142
147032
146803
146808
147039
147148
147220
147274
147307
147242
147162
147050
146815
146835
147067
147178
147251
147306
147343
147276
147196
147083
146849
146858
147093
147205
147282
147347
147335
147281
147209
147099
146863
146869
147108
147222
147301
147365
147362
147307
147233
147120
146877
146886
147132
147248
147330
147397
147400
147334
147255
147139
146892
146899
147144
147258
147332
147386
147416
147351
147271
147154
146905
146912
147166
147283
147358
147413
147447
147381
147300
147184
146932
146946
147199
147315
147389
147445
147479
147413
147331
147212
146956
146960
147218
147336
147416
147482
147467
147412
147337
147220
146961
146964
147229
147349
147431
147496
147493
147438
147361
147241
146976
146979
147251
147375
147460
147527
147529
147463
147381
147257
146987
146991
147262
147383
147459
147514
147541
147477
147394
147269
146993
147006
147281
147405
147483
147539
147569
147503
147420
147294
147014
147026
147306
147430
147509
147567
147598
147530
147444
147317
147031
147034
147322
147449
147532
147600
147583
147527
147448
147322
147039
147038
147328
147458
147544
147610
147606
147549
147468
147337
147039
147057
147353
147484
147570
147637
147635
147577
147496
147367
147068
147077
147378
147511
147599
147667
147667
147600
147514
147381
147078
147082
147383
147514
147593
147649
147675
147609
147522
147386
147079
147081
147394
147529
147613
147671
147700
147632
147544
147407
147093
147098
147418
147554
147637
147697
147727
147658
147567
147427
147105
147108
147431
147570
147659
147728
147709
147651
147568
147429
147106
147105
147434
147576
147667
147735
147731
147672
147585
147443
147111
147124
147457
147599
147691
147760
147757
147694
147609
147467
147130
147135
147475
147621
147715
147786
147785
147713
147622
147477
147134
147132
147475
147619
147705
147764
147789
147719
147625
147477
147131
147132
147484
147633
147723
147785
147812
147742
147647
147497
147143
147151
147508
147657
147746
147809
147837
147766
147670
147519
147157
147166
147530
147680
147769
147832
147861
147789
147692
147538
147170
147175
147539
147692
147787
147859
147836
147776
147687
147533
147167
147162
147534
147691
147789
147860
147856
147791
147698
147541
147164
147173
147552
147710
147809
147882
147876
147810
147717
147560
147175
147178
147568
147730
147829
147903
147897
147831
147737
147578
147183
147189
147586
147750
147852
147926
147923
147849
147750
147585
147185
147184
147582
147744
147838
147899
147923
147851
147750
147582
147182
147185
147589
147755
147853
147919
147944
147869
147766
147596
147187
147186
147603
147772
147869
147937
147963
147888
147785
147615
147199
147200
147622
147791
147889
147957
147985
147908
147802
147627
147197
147200
147626
147800
147904
147980
147955
147890
147791
147616
147189
147179
147614
147794
147903
147978
147974
147905
147801
147623
147188
147189
147633
147814
147923
148000
147994
147924
147821
147642
147195
147205
147654
147835
147943
148021
148014
147943
147841
147661
147205
147211
147668
147852
147963
148041
148035
147955
147846
147660
147198
147188
147652
147837
147940
148007
148031
147952
147840
147652
147191
147185
147656
147845
147953
148025
148051
147970
147855
147662
147181
147191
147671
147862
147970
148044
148070
147989
147874
147680
147188
147202
147692
147883
147991
148064
148091
148011
147897
147704
147215
147206
147707
147902
148010
148083
148110
148028
147911
147710
147206
147201
147705
147906
148021
148103
148074
148004
147895
147696
147192
147178
147690
147895
148015
148097
148090
148014
147900
147696
147179
147185
147705
147911
148032
148115
148107
148030
147916
147709
147176
147186
147720
147928
148049
148133
148125
148048
147934
147727
147188
147182
147730
147944
148068
148152
148145
148060
147939
147724
147183
147166
147710
147925
148042
148114
148137
148053
147927
147707
147155
147159
147713
147931
148052
148130
148155
148069
147941
147719
147155
147155
147725
147946
148066
148146
148171
148084
147957
147735
147165
147156
147739
147961
148082
148162
148187
148100
147972
147748
147162
147156
147751
147976
148097
148177
148204
148116
147985
147755
147156
147150
147744
147976
148106
148195
148162
148085
147960
147727
147139
147116
147718
147958
148095
148185
148177
148093
147962
147723
147118
147119
147733
147974
148111
148203
148193
148109
147978
147738
147116
147115
147744
147989
148126
148219
148208
148123
147993
147750
147112
147123
147761
148005
148141
148234
148223
148138
148008
147766
147120
147117
147770
148018
148155
148249
148237
148152
148020
147774
147115
147110
147778
148030
148171
148265
148254
148160
148021
147767
147101
147088
147751
148004
148138
148220
148244
148149
148004
147744
147076
147068
147744
148007
148147
148235
148261
148164
148017
147753
147069
147070
147760
148022
148161
148251
148278
148180
148034
147768
147069
147073
147775
148038
148176
148266
148293
148195
148049
147783
147071
147071
147788
148052
148191
148281
148308
148210
148060
147788
147061
147048
147773
148049
148197
148297
148260
148174
148031
147755
147033
147019
147746
148030
148185
148284
148275
148182
148033
147751
147022
147009
147756
148043
148199
148301
148289
148195
148045
147759
147002
147005
147768
148056
148212
148315
148303
148208
148060
147773
147002
147013
147785
148072
148228
148329
148316
148223
148075
147787
147002
146986
147784
148081
148241
148343
148330
148227
148067
147768
146972
146956
147747
148047
148201
148291
148316
148211
148046
147741
146945
146930
147741
148048
148208
148305
148333
148226
148060
147750
146939
146930
147754
148064
148222
148321
148347
148239
148073
147760
146924
146926
147766
148076
148235
148334
148360
148254
148088
147775
146924
146921
147778
148090
148248
148347
148374
148267
148097
147775
146909
146890
147756
148080
148251
148361
148318
148222
148057
147733
146873
146845
147717
148051
148230
148343
148331
148226
148053
147719
146839
146842
147730
148066
148246
148360
148348
148242
148071
147736
146839
146834
147744
148082
148261
148375
148362
148256
148086
147749
146832
146833
147758
148098
148276
148389
148375
148271
148101
147763
146828
146819
147762
148109
148290
148402
148389
148273
148091
147734
146782
146774
147715
148068
148243
148345
148371
148255
148066
147705
146760
146752
147707
148067
148250
148358
148387
148268
148077
147713
146747
146723
147713
148079
148261
148373
148400
148281
148091
147724
146732
146741
147734
148096
148276
148387
148413
148295
148105
147736
146722
146726
147741
148107
148289
148399
148427
148309
148115
147738
146701
146690
147715
148097
148292
148413
148365
148257
148068
147682
146656
146647
147670
148063
148267
148392
148378
148263
148066
147672
146636
146612
147675
148075
148281
148407
148393
148275
148079
147684
146623
146611
147690
148090
148294
148419
148405
148288
148093
147699
146618
146604
147704
148103
148305
148429
148414
148297
148103
147704
146594
146572
147699
148109
148315
148439
148425
148297
148090
147676
146549
146528
147646
148059
148261
148375
148401
148271
148054
147627
146504
146492
147628
148056
148266
148388
148418
148286
148067
147634
146483
146477
147641
148071
148281
148405
148433
148302
148085
147653
146480
146476
147660
148088
148296
148419
148446
148316
148102
147671
146475
146470
147675
148105
148309
148431
148457
148329
148110
147670
146442
146424
147648
148090
148310
148443
148392
148273
148060
147617
146388
146377
147597
148054
148284
148418
148404
148277
148054
147596
146352
146345
147602
148066
148298
148434
148421
148292
148073
147616
146353
146343
147625
148087
148314
148450
148435
148306
148088
147626
146329
146309
147626
148096
148329
148463
148450
148311
148079
147606
146287
146258
147563
148046
148273
148397
148424
148284
148041
147550
146232
146224
147553
148044
148279
148411
148442
148301
148058
147563
146219
146215
147573
148064
148295
148429
148455
148316
148078
147585
146218
146205
147591
148079
148307
148441
148464
148326
148086
147589
146191
146131
147542
148056
148301
148448
148388
148255
148013
147497
146094
146069
147483
148006
148265
148413
148400
148260
148009
147486
146060
146048
147496
148025
148283
148432
148419
148278
148031
147506
146050
146042
147518
148047
148302
148449
148435
148296
148052
147525
146034
146012
147528
148064
148320
148465
148452
148301
148042
147504
145981
145952
147463
148006
148258
148393
148418
148269
147999
147442
145922
145915
147444
148001
148262
148405
148430
148281
148014
147456
145912
145897
147456
148013
148270
148416
148436
148285
148020
147457
145867
145858
147461
148018
148274
148421
148446
148296
148028
147462
145838
145792
147426
148005
148276
148434
148374
148233
147969
147389
145769
145747
147378
147965
148247
148403
148391
148241
147968
147378
145730
145703
147384
147983
148265
148422
148410
148260
147991
147402
145727
145732
147420
148011
148285
148439
148426
148278
148015
147426
145718
145710
147428
148026
148301
148451
148439
148281
148005
147406
145653
145616
147363
147964
148233
148375
148398
148242
147956
147341
145589
145581
147342
147957
148234
148386
148411
148254
147966
147341
145528
145535
147349
147967
148244
148398
148424
148267
147977
147344
145495
145452
147308
147952
148246
148413
148349
148199
147912
147262
145417
145385
147250
147911
148214
148377
148367
148209
147915
147255
145371
145375
147272
147936
148236
148398
148387
148230
147943
147286
145384
145338
147282
147955
148256
148414
148405
148237
147934
147262
145312
145254
147218
147892
148187
148337
148359
148198
147893
147215
145257
145229
147212
147892
148189
148348
148368
148205
147898
147207
145193
145161
147205
147894
148191
148354
148375
148212
147900
147202
145124
145086
147167
147875
148191
148367
148300
148143
147835
147128
145050
145017
147114
147834
148158
148328
148320
148155
147841
147118
145000
145013
147142
147866
148185
148352
148343
148181
147875
147153
145004
145001
147168
147896
148212
148372
148369
148195
147876
147144
144956
144890
147092
147831
148142
148296
148315
148152
147830
147087
144878
144851
147081
147827
148141
148305
148323
148159
147833
147070
144822
144704
147000
147787
148126
148311
148232
148061
147724
146932
144644
144601
146923
147720
148070
148253
148244
148067
147728
146935
144601
144635
146970
147760
148102
148278
148272
148102
147773
146984
144609
144614
146999
147795
148134
148301
148303
148122
147779
146978
144551
144525
146936
147742
148071
148229
148248
148080
147739
146918
144480
144455
146918
147740
148072
148239
148256
148093
147753
146929
144463
144360
146885
147719
148069
148255
148173
148007
147666
146834
144312
144293
146811
147658
148009
148184
148173
147996
147648
146792
144174
144159
146792
147656
148017
148191
148195
148002
147637
146760
144123
144051
146717
147594
147952
148122
148147
147970
147603
146718
144029
144029
146735
147617
147971
148144
148173
148006
147645
146755
144036
143949
146720
147624
147994
148182
148100
147936
147580
146686
143896
143889
146687
147583
147944
148113
148107
147937
147588
146695
143891
143902
146704
147601
147953
148114
148112
147919
147546
146626
143700
143609
146539
147469
147840
148017
148023
147841
147461
146530
143578
143574
146549
147474
147841
148020
148046
147878
147507
146574
143587
143509
146544
147494
147873
148064
147988
147824
147464
146521
143478
143436
146516
147472
147838
148002
148003
147839
147489
146554
143488
143513
146574
147512
147861
148009
148023
147840
147472
146514
143361
143322
146464
147409
147763
147924
147917
147754
147381
146416
143204
143175
146358
147349
147733
147925
147845
147678
147303
146294
143159
143028
146265
147290
147676
147846
147843
147665
147283
146258
142966
142991
146294
147312
147692
147854
147889
147701
147315
146301
142970
142907
146282
147291
147654
147808
147807
147664
147298
146267
142852
142819
146251
147286
147658
147833
147733
147584
147232
146216
142819
142590
146122
147174
147543
147695
147689
147484
147077
145995
142372
142323
145940
147005
147405
147586
147575
147405
147011
145948
142307
142339
145986
147037
147414
147585
147591
147444
147077
146029
142347
142291
146016
147068
147454
147636
147540
147391
147024
145978
142207
142175
145970
147028
147386
147519
147558
147388
147021
145969
142178
142237
145945
146979
147318
147456
147404
147269
146922
145843
141997
141797
145761
146830
147226
147416
147311
147148
146760
145682
141735
141699
145694
146779
147146
147285
147341
147170
146783