/*--------------------------------*- C++ -*----------------------------------*\
| =========                 |                                                 |
| \\      /  F ield         | OpenFOAM: The Open Source CFD Toolbox           |
|  \\    /   O peration     | Version:  v2006                                 |
|   \\  /    A nd           | Website:  www.openfoam.com                      |
|    \\/     M anipulation  |                                                 |
\*---------------------------------------------------------------------------*/
FoamFile
{
    version     2.0;
    format      ascii;
    class       volScalarField;
    location    "0.165";
    object      Ma;
}
// * * * * * * * * * * * * * * * * * * * * * * * * * * * * * * * * * * * * * //

dimensions      [0 0 0 0 0 0 0];


internalField   nonuniform List<scalar> 
38932
(
0.174231
0.174237
0.17423
0.174225
0.174213
0.174193
0.174163
0.174124
0.174075
0.174017
0.173951
0.173876
0.173792
0.1737
0.1736
0.173491
0.173373
0.173247
0.173113
0.17297
0.172819
0.17266
0.172492
0.172316
0.172133
0.171941
0.171741
0.171534
0.171319
0.171096
0.170866
0.170629
0.170384
0.170132
0.169873
0.169606
0.169333
0.169054
0.168767
0.168474
0.168175
0.16787
0.167558
0.167241
0.166918
0.166589
0.166255
0.165915
0.16557
0.165221
0.164866
0.164507
0.164144
0.163776
0.163404
0.163029
0.162649
0.162267
0.161881
0.161492
0.1611
0.160705
0.160308
0.159909
0.159508
0.159105
0.1587
0.158295
0.157888
0.157481
0.157073
0.156665
0.156256
0.155848
0.155441
0.155034
0.154628
0.154224
0.153821
0.15342
0.15302
0.152624
0.152229
0.151838
0.15145
0.151065
0.150684
0.150306
0.149933
0.149565
0.149201
0.148842
0.148488
0.14814
0.147798
0.147461
0.147131
0.146807
0.14649
0.14618
0.145877
0.145582
0.145294
0.145013
0.144741
0.144477
0.144222
0.143974
0.143736
0.143506
0.143286
0.143074
0.142871
0.142678
0.142494
0.14232
0.142155
0.142
0.141856
0.141722
0.141601
0.141494
0.141407
0.141353
0.141361
0.14145
0.142053
0.142241
0.147556
0.143584
0.15299
0.102442
0.144637
0.134341
0.142818
0.14252
0.136949
0.143103
0.139681
0.138961
0.141494
0.141108
0.139496
0.136843
0.13432
0.139381
0.140894
0.140636
0.138942
0.132081
0.130104
0.138344
0.140342
0.140032
0.13773
0.128362
0.126826
0.137093
0.139696
0.139325
0.136439
0.125436
0.124163
0.135773
0.138921
0.138497
0.135109
0.122993
0.121911
0.134452
0.138058
0.137606
0.133799
0.120899
0.119943
0.133151
0.137141
0.136666
0.132507
0.119033
0.118162
0.131866
0.136181
0.135689
0.131229
0.117322
0.116508
0.130594
0.135188
0.134679
0.12996
0.115714
0.114938
0.129325
0.134162
0.133636
0.128689
0.114174
0.113422
0.128049
0.1331
0.132556
0.127407
0.112676
0.111937
0.126759
0.132
0.131434
0.126105
0.111201
0.110466
0.125444
0.130856
0.130266
0.124775
0.109732
0.108996
0.124097
0.129663
0.129047
0.123409
0.108258
0.107515
0.12271
0.128416
0.12777
0.122
0.106768
0.106014
0.121276
0.127108
0.12643
0.120539
0.105252
0.104482
0.119788
0.125734
0.125021
0.119022
0.103703
0.102913
0.118239
0.124289
0.123537
0.117439
0.102111
0.101296
0.116621
0.122764
0.12197
0.115783
0.100467
0.0996229
0.114925
0.121153
0.120312
0.114045
0.0987623
0.0978839
0.113143
0.119446
0.118554
0.112216
0.0969865
0.0960687
0.111263
0.117634
0.116684
0.110283
0.0951293
0.094167
0.109276
0.115705
0.114694
0.108238
0.0931805
0.0921685
0.10717
0.113651
0.112573
0.10607
0.0911299
0.0900631
0.104936
0.111459
0.110308
0.103766
0.0889668
0.0878394
0.10256
0.109118
0.107887
0.101315
0.086679
0.0854838
0.100029
0.106613
0.105294
0.0986992
0.0842517
0.0829804
0.0973242
0.103927
0.102509
0.095901
0.0816677
0.0803111
0.094427
0.101039
0.0995129
0.0928995
0.0789081
0.0774561
0.0913158
0.0979281
0.0962817
0.0896728
0.0759526
0.0743948
0.0879675
0.0945705
0.0927913
0.0861969
0.0727799
0.071105
0.0843576
0.0909407
0.0890152
0.0824463
0.069367
0.0675627
0.0804592
0.0870109
0.0849238
0.0783926
0.0656887
0.0637415
0.0762424
0.0827497
0.0804842
0.0740046
0.0617175
0.0596127
0.0716746
0.0781227
0.0756604
0.0692482
0.0574233
0.0551458
0.066721
0.0730924
0.0704142
0.0640885
0.0527763
0.0503115
0.0613469
0.0676209
0.0647083
0.0584923
0.0477486
0.0450851
0.0555216
0.0616724
0.0585096
0.0524322
0.0423195
0.0394514
0.049223
0.0552177
0.0517954
0.0458941
0.0364822
0.0334154
0.0424483
0.0482438
0.0445664
0.0388909
0.0302578
0.0270199
0.0352317
0.0407706
0.0368685
0.0314853
0.0237173
0.0203725
0.0276733
0.0328784
0.0288261
0.0238245
0.0170147
0.0136837
0.0199788
0.0247478
0.0206869
0.0161826
0.0104255
0.00729957
0.0124959
0.0167009
0.0128419
0.00896711
0.00434328
0.00166552
0.00569195
0.00920113
0.00583106
0.00268047
0.00101942
0.00305185
0.00069377
0.00285178
0.00124562
0.00260419
0.00472586
0.00603919
0.00445883
0.00289424
0.00477933
0.00602485
0.00712401
0.00803713
0.00734924
0.00640036
0.00777887
0.00846997
0.00878725
0.00939035
0.00942286
0.00895519
0.0100027
0.0102779
0.00989957
0.0103548
0.011093
0.0109845
0.0119443
0.0119032
0.0107771
0.0111835
0.0127083
0.0128932
0.0138032
0.0134822
0.0116454
0.0121731
0.0142167
0.0146452
0.0154097
0.014914
0.0127404
0.0133139
0.0155603
0.0160897
0.016679
0.0161392
0.0138641
0.0143608
0.0166355
0.0171706
0.0175548
0.0170344
0.0147802
0.0151135
0.0173343
0.0178346
0.018011
0.0175338
0.0153591
0.0155075
0.0176296
0.0180828
0.0180517
0.0176229
0.0155607
0.0155199
0.017514
0.0179202
0.0176926
0.0173065
0.0153846
0.015156
0.0170057
0.017374
0.0169711
0.016618
0.0148393
0.0144421
0.0161503
0.0164898
0.0159387
0.0156106
0.0139716
0.013435
0.0150064
0.0153243
0.014654
0.0143451
0.012843
0.0121996
0.0136352
0.0139362
0.0131767
0.0128829
0.0115144
0.0107945
0.0120945
0.012382
0.0115593
0.0112773
0.0100446
0.00927019
0.0104347
0.0107116
0.00984479
0.00957207
0.00847689
0.00766315
0.00869027
0.00896038
0.00805988
0.00779085
0.00683425
0.0059807
0.00686888
0.00714031
0.00620191
0.00592446
0.00511234
0.00418501
0.00493721
0.00523372
0.00424409
0.00392902
0.0032455
0.00223974
0.0028746
0.00323274
0.00223151
0.00183164
0.00125942
0.000313921
0.000845099
0.00130338
0.00052536
0.000139909
0.0004121
0.000389133
0.00039088
0.000272244
0.000290423
0.000989726
0.00183941
0.00280848
0.00367485
0.0044653
0.00508635
0.00556086
0.0058668
0.00600258
0.00597002
0.00577417
0.00542186
0.00490398
0.00428507
0.00372821
0.00323678
0.00280226
0.00229238
0.00168407
0.00110876
0.000704591
0.000497143
0.000374627
0.000479759
0.000643963
0.000727652
0.000794735
0.000800659
0.000847307
0.000667539
0.000554095
0.00042013
0.000215342
0.000273119
0.000390748
0.000444182
0.000484149
0.000499866
0.000368406
0.000436253
0.000466131
0.000446254
0.000302301
0.000407275
0.000542442
0.000544508
0.000502471
0.000439365
0.000442322
0.000524224
0.000581466
0.000600542
0.000475648
0.000522232
0.000629111
0.00058633
0.000508717
0.000409961
0.000383665
0.000484512
0.000574066
0.000633221
0.000543157
0.000537182
0.00061048
0.000541896
0.000448622
0.000350427
0.000317327
0.00040332
0.000494226
0.000566569
0.000508374
0.00046465
0.000505535
0.000430369
0.000342904
0.000270339
0.000231133
0.000277492
0.000356104
0.000431749
0.000409407
0.000349254
0.000348195
0.000270366
0.000208086
0.000206974
0.000223417
0.000152038
0.000173037
0.000248526
0.000276271
0.000215108
0.000156517
9.87003e-05
0.000162262
0.000282289
0.000391311
0.000251703
0.000124435
6.36081e-05
0.000140982
7.2133e-05
7.67256e-05
0.000217542
0.000358294
0.000505725
0.000627609
0.00047396
0.000325428
0.000169386
6.53514e-06
6.58084e-05
0.000270151
0.000438592
0.000592538
0.000750236
0.000870736
0.000704355
0.000540546
0.000356761
0.000119
0.000161315
0.00043182
0.000628111
0.000799237
0.000977787
0.00107458
0.000876153
0.000662816
0.000429587
0.000150812
9.71525e-05
0.000327147
0.000615288
0.00085523
0.00108556
0.00109529
0.000828098
0.000615457
0.000369541
0.000124355
0.000136161
0.000456467
0.000736619
0.000938278
0.00113661
0.00135349
0.00119569
0.000943766
0.00138823
0.00118836
0.00176909
0.0016391
0.000666097
0.00117645
0.00140967
0.00166221
0.00140279
0.000930489
0.00160029
0.00169024
0.00163232
0.00166261
0.00106454
0.0014783
0.00175236
0.00206173
0.00170892
0.00135104
0.000990861
0.00054054
0.00105347
0.00110501
0.00115701
0.00169121
0.00218433
0.00250455
0.00226802
0.00186279
0.00275038
0.00250654
0.00241895
0.00245968
0.00154547
0.00224968
0.00261107
0.00280723
0.00246274
0.00174735
0.00235952
0.00215365
0.00281736
0.00256435
0.00161914
0.002537
0.00296257
0.00328024
0.00280578
0.00207229
0.00240346
0.00254085
0.00157046
0.00183812
0.00220478
0.00293497
0.00344942
0.00373213
0.00315801
0.0024028
0.00167304
0.00103673
0.000755661
0.00116682
0.0021372
0.00306718
0.00382298
0.00414062
0.00347736
0.00264178
0.00205998
0.00173009
0.000689159
0.00127288
0.00239188
0.00345637
0.00424897
0.00469812
0.00395316
0.00297293
0.00266902
0.00216551
0.00315036
0.00341565
0.00324196
0.00414832
0.00484012
0.00519416
0.00459822
0.00381642
0.00348522
0.00289987
0.00102822
0.00178669
0.00318698
0.00439789
0.00536286
0.00571169
0.00497425
0.00398409
0.00334361
0.00245149
0.00358751
0.00365092
0.00374
0.0050783
0.00587068
0.00615591
0.0052495
0.00404743
0.00267625
0.00144704
0.00258522
0.00296381
0.00390133
0.0053135
0.00634637
0.00680939
0.00581728
0.00448184
0.00355632
0.00300597
0.00205931
0.00303171
0.00447969
0.00586616
0.0069605
0.00742582
0.00636978
0.00504384
0.00355209
0.002179
0.00409089
0.00484831
0.00535539
0.00660149
0.0075751
0.0079988
0.00719608
0.00608211
0.00547749
0.00436715
0.00320397
0.00365712
0.00521884
0.00698561
0.00818937
0.0085215
0.00739522
0.00597523
0.00416461
0.00209013
0.00400461
0.00454082
0.00576236
0.00750544
0.00875441
0.00920796
0.00796588
0.00628551
0.00465768
0.00370593
0.00236166
0.00409121
0.0063136
0.00804769
0.00935398
0.00989547
0.00858953
0.00688326
0.00502396
0.0033147
0.00560604
0.00665339
0.00747534
0.00897531
0.0101134
0.0105507
0.00956858
0.00822146
0.00710147
0.00550567
0.003865
0.00476558
0.00713609
0.00926212
0.0107567
0.0111323
0.00976415
0.00807274
0.00579338
0.0030923
0.00498947
0.00604085
0.00786176
0.00992717
0.0114208
0.0118916
0.0104244
0.00841132
0.00621455
0.00472666
0.00357023
0.00586406
0.00857744
0.010578
0.0120887
0.0126795
0.0111649
0.00915396
0.0067402
0.00443162
0.00718737
0.00862687
0.00985927
0.0116305
0.0129237
0.0133727
0.0121843
0.0105503
0.00880068
0.00670508
0.00458588
0.00652743
0.00960818
0.0119341
0.0136477
0.0140929
0.0125875
0.0106975
0.00796422
0.00463075
0.00738627
0.00830999
0.0103207
0.0127482
0.0143672
0.0147945
0.0131007
0.0108118
0.00787614
0.00529728
0.00543586
0.00824
0.0111212
0.013417
0.0151352
0.0157003
0.0139851
0.0116063
0.00877122
0.00636003
0.0061633
0.00883517
0.0119858
0.014243
0.0160023
0.0165863
0.0148607
0.0125661
0.00932772
0.00602239
0.00923619
0.0113379
0.0132504
0.0153689
0.0168428
0.0173881
0.0159935
0.0140273
0.0116674
0.008951
0.00685426
0.00953066
0.0131912
0.0158197
0.0177638
0.018272
0.0165472
0.014273
0.0109046
0.00728958
0.0097274
0.0112139
0.0139325
0.0167637
0.018634
0.019145
0.0172373
0.0146627
0.0110111
0.00655637
0.00935184
0.0116791
0.0149577
0.017705
0.0196164
0.020244
0.0182828
0.0155085
0.0117115
0.00821141
0.00735253
0.0121061
0.015924
0.0186332
0.0205927
0.0212849
0.019361
0.0164646
0.0127434
0.00938953
0.010639
0.0139072
0.0174532
0.0199688
0.0218449
0.0226462
0.0208771
0.0185659
0.0156614
0.0124221
0.00927079
0.0126697
0.0174636
0.0209064
0.0231642
0.0240365
0.0222012
0.0197173
0.015604
0.0102646
0.0133887
0.0162182
0.02
0.0232514
0.024949
0.0261988
0.0245476
0.0215708
0.0174799
0.0136401
0.0123715
0.0202122
0.0246068
0.0262795
0.0273424
0.028707
0.0279035
0.0263092
0.0229871
0.0164852
0.0201701
0.0253777
0.0276644
0.0288474
0.0294766
0.0300484
0.0296442
0.028854
0.0271785
0.0230788
0.0251452
0.0285496
0.0297574
0.030291
0.0305228
0.0309408
0.0308322
0.03047
0.0295355
0.026569
0.0276983
0.0303635
0.0310883
0.0313178
0.0313284
0.0316995
0.0317713
0.031643
0.0310662
0.0286528
0.0294622
0.0316761
0.0321436
0.0321903
0.0320528
0.0323878
0.032577
0.0326
0.0322281
0.030169
0.0307961
0.0327308
0.0330142
0.0329267
0.0326804
0.0329559
0.033255
0.0334016
0.0331937
0.0313574
0.0318719
0.0336216
0.0337629
0.033554
0.0331943
0.0334054
0.0338256
0.0340984
0.0340322
0.0323983
0.0325976
0.0342856
0.0343338
0.034032
0.033588
0.0336972
0.0341542
0.0344762
0.0344486
0.0327076
0.0329819
0.0346445
0.0346077
0.0342441
0.033749
0.0337992
0.0343352
0.0347458
0.0348592
0.0333463
0.0336949
0.0350552
0.0348706
0.0344147
0.0338402
0.0338536
0.0344774
0.0349807
0.0352277
0.0340498
0.0343865
0.035384
0.0350906
0.0345477
0.0338723
0.0341105
0.0347041
0.0352282
0.0355458
0.034671
0.0348624
0.0356918
0.035362
0.0348552
0.0342942
0.0342297
0.0348647
0.0354196
0.0357835
0.0350462
0.0353173
0.0358673
0.0354447
0.0348523
0.0341819
0.0341216
0.0348283
0.0354492
0.0359214
0.0355547
0.0357361
0.0359229
0.0354455
0.0347995
0.034062
0.0339947
0.0347669
0.0354401
0.0359087
0.0358475
0.035935
0.0358923
0.0354333
0.0347481
0.0339393
0.0339368
0.0347685
0.0354435
0.0358835
0.0359561
0.0359285
0.0358965
0.0355134
0.0349202
0.0342595
0.0345523
0.0351074
0.0356212
0.0359515
0.0358811
0.0358444
0.0359673
0.0356639
0.0351509
0.0345309
0.0346426
0.0351949
0.0356804
0.0359732
0.0356443
0.0354859
0.0359684
0.0357012
0.0352579
0.0347632
0.0346532
0.0352063
0.0356692
0.0359448
0.0353063
0.0351985
0.0358931
0.0356083
0.0351248
0.034553
0.0344707
0.0350406
0.0355326
0.035829
0.0351471
0.0350998
0.0357138
0.035419
0.0349246
0.0343477
0.0342046
0.0347863
0.0352825
0.0355731
0.0349575
0.0348413
0.0354302
0.035137
0.0346273
0.0340296
0.033818
0.0344576
0.0349876
0.0353033
0.0348007
0.034756
0.0352126
0.0348809
0.0343792
0.0338153
0.0338058
0.0343132
0.0347934
0.035149
0.0346138
0.0345215
0.0350089
0.0346346
0.0341246
0.0335621
0.0333049
0.0338954
0.0344358
0.0348294
0.0344398
0.0343838
0.0346267
0.0342059
0.0336401
0.0330191
0.0327105
0.0333698
0.0339664
0.0344145
0.0343396
0.0342463
0.0342365
0.0337491
0.0331067
0.032376
0.0323261
0.0329873
0.0336151
0.0341294
0.0341216
0.0340331
0.0340809
0.0335238
0.0329035
0.0322957
0.0319705
0.0326612
0.0333471
0.0339779
0.0340108
0.0335261
0.0336878
0.0330549
0.0323343
0.0315921
0.0311443
0.0319133
0.0326522
0.0332749
0.0329783
0.0326223
0.0328508
0.0322018
0.0314327
0.030626
0.0300151
0.0309129
0.0317212
0.0323942
0.0322234
0.0317715
0.0319557
0.0313147
0.0305531
0.0297556
0.0295485
0.0302387
0.0309473
0.0315714
0.0314092
0.0312244
0.0312133
0.0305194
0.0297642
0.0290103
0.0284116
0.0292201
0.0300281
0.0307863
0.0308837
0.0304518
0.030289
0.029474
0.028614
0.0277494
0.0270147
0.0279363
0.0288518
0.0297081
0.0299433
0.0293873
0.0291093
0.0281973
0.0272077
0.0261496
0.0257367
0.0267028
0.0276686
0.028603
0.0290689
0.0286073
0.0280852
0.0271468
0.0262361
0.025408
0.0246543
0.0255619
0.0265246
0.0275389
0.0282037
0.0278021
0.0269149
0.0258026
0.0247711
0.0238066
0.0228266
0.0238639
0.0249634
0.0261199
0.0269943
0.0261785
0.0252662
0.0240628
0.0228763
0.0216639
0.0210255
0.0221287
0.0232736
0.024485
0.0254892
0.0248803
0.0237339
0.0225206
0.0214351
0.0205061
0.019484
0.0204884
0.0216167
0.0228975
0.0242198
0.0233284
0.0219164
0.0205681
0.0193743
0.0183054
0.0168898
0.0181528
0.0194497
0.0208625
0.0223637
0.0215259
0.0198786
0.0184485
0.0171868
0.0160328
0.0153295
0.0162713
0.0174464
0.0188682
0.0205886
0.0196529
0.0177486
0.0162607
0.0150592
0.0140879
0.0126861
0.0136615
0.0149093
0.0164718
0.0185551
0.0171967
0.0150541
0.0134396
0.0121083
0.0109941
0.00989511
0.0108301
0.0120663
0.0136705
0.0158885
0.0145666
0.0122618
0.0107128
0.00963946
0.00901686
0.00781565
0.00822986
0.00917787
0.0107395
0.0132507
0.0119121
0.00906871
0.00750559
0.00678503
0.00684354
0.00642316
0.00554431
0.00577224
0.00713255
0.00998122
0.00805189
0.00522079
0.00435335
0.00499715
0.00659085
0.00711362
0.00534839
0.00382435
0.00356621
0.00616678
0.00415147
0.0026574
0.00452966
0.00674121
0.00886585
0.011623
0.00894783
0.0063755
0.0036648
0.00209694
0.00127132
0.0057222
0.00851098
0.0110615
0.0136415
0.0154767
0.0133864
0.011026
0.0082334
0.00344501
0.00643808
0.0111034
0.0139136
0.0163376
0.0184931
0.0225465
0.0197861
0.0171788
0.0143768
0.0104109
0.0139548
0.0176246
0.0203417
0.0228857
0.0255451
0.0283093
0.0261169
0.0236406
0.020789
0.0163953
0.0192305
0.0241649
0.0272189
0.0299001
0.0326348
0.0362397
0.0335384
0.0308459
0.0277105
0.0223816
0.0258499
0.0316141
0.0348696
0.0375319
0.0397336
0.0450599
0.0422503
0.0393854
0.0359874
0.0297954
0.0341971
0.0407601
0.0442355
0.0470755
0.0498509
0.0546537
0.0524996
0.0497875
0.0462505
0.039182
0.0452875
0.0526452
0.0562535
0.0590567
0.0617085
0.0685881
0.0662086
0.0637029
0.0603144
0.0530415
0.0627113
0.0696041
0.0724803
0.0744461
0.0757703
0.0857428
0.0844091
0.0830005
0.0810567
0.0759177
0.0966267
0.095641
0.0953662
0.0956247
0.0961844
0.107416
0.107251
0.108484
0.112374
0.126207
0.142347
0.125698
0.120305
0.117876
0.116454
0.126306
0.127417
0.129826
0.133892
0.142138
0.145671
0.142579
0.139375
0.136872
0.134753
0.144882
0.147247
0.150379
0.154556
0.158253
0.18609
0.170748
0.163432
0.159133
0.155773
0.16749
0.17065
0.175583
0.184738
0.204403
0.204219
0.192129
0.184372
0.179724
0.176547
0.184138
0.187369
0.191661
0.19837
0.208616
0.226913
0.206317
0.1991
0.194534
0.191049
0.197113
0.200817
0.205673
0.214045
0.238805
0.236506
0.219183
0.210937
0.206054
0.202766
0.20671
0.209842
0.215102
0.222867
0.235281
0.239463
0.226493
0.218462
0.213117
0.209659
0.210213
0.213741
0.219332
0.227086
0.238947
0.229794
0.22385
0.21778
0.213111
0.209966
0.208405
0.21082
0.214565
0.218641
0.219095
0.206247
0.212313
0.210546
0.208109
0.206332
0.203755
0.204924
0.206641
0.206811
0.1971
0.197963
0.203846
0.203464
0.202051
0.201105
0.197792
0.198307
0.199452
0.199594
0.195624
0.180128
0.191985
0.193395
0.193508
0.193908
0.189379
0.18788
0.186172
0.182891
0.16597
0.157172
0.175074
0.179651
0.182433
0.184892
0.180042
0.177455
0.174203
0.168594
0.150131
0.145263
0.163377
0.169584
0.17326
0.17577
0.17288
0.169554
0.165609
0.159208
0.142672
0.140834
0.155587
0.16185
0.166015
0.169632
0.166656
0.162436
0.157749
0.151116
0.136044
0.128553
0.145756
0.15298
0.158154
0.162485
0.157973
0.153859
0.148346
0.14046
0.121915
0.117086
0.135706
0.144106
0.150106
0.155271
0.151967
0.146664
0.140414
0.131652
0.113016
0.109914
0.12811
0.137012
0.143341
0.148112
0.146278
0.140667
0.134082
0.124966
0.107428
0.105071
0.122344
0.131514
0.138138
0.143804
0.14047
0.135545
0.129082
0.120026
0.103114
0.102309
0.118228
0.12708
0.133641
0.13917
0.137383
0.131823
0.125318
0.116654
0.101246
0.0985581
0.114685
0.123526
0.130329
0.136212
0.134062
0.128163
0.121333
0.112412
0.0955965
0.0933618
0.110229
0.119087
0.125653
0.13084
0.129719
0.123913
0.117117
0.108324
0.0916384
0.0902886
0.106685
0.115408
0.122164
0.128044
0.125173
0.120084
0.113644
0.105078
0.0889116
0.0876732
0.103637
0.112155
0.118757
0.124398
0.123074
0.117304
0.110746
0.102286
0.0865655
0.0855969
0.101033
0.109294
0.115529
0.120529
0.119973
0.114479
0.108071
0.0998892
0.0847907
0.0838726
0.0987699
0.106941
0.113322
0.118926
0.116602
0.111751
0.105696
0.0976945
0.0829924
0.082192
0.0967203
0.104711
0.110901
0.116218
0.115377
0.109929
0.103776
0.0958875
0.0815892
0.0808592
0.0949716
0.10271
0.108576
0.113265
0.11302
0.107904
0.101943
0.0942594
0.080221
0.0796895
0.0935697
0.101163
0.107076
0.11235
0.110399
0.105876
0.100253
0.0928666
0.0792
0.07878
0.0922093
0.0996122
0.105328
0.110249
0.109648
0.104566
0.0988714
0.0915737
0.0782872
0.0777303
0.0907322
0.0978622
0.10324
0.107752
0.105959
0.101896
0.0967659
0.089872
0.0771341
0.0766739
0.0892348
0.0961191
0.101398
0.105895
0.105522
0.100831
0.0955699
0.0887312
0.0761853
0.0756987
0.0882287
0.0949094
0.0999269
0.103972
0.104019
0.0996488
0.0945364
0.0878672
0.0754743
0.0753194
0.0875271
0.0941258
0.0992039
0.103742
0.102296
0.0983921
0.093557
0.0871161
0.0750041
0.0746798
0.0867414
0.0932256
0.0981676
0.102388
0.102189
0.0977953
0.0928738
0.0864821
0.0745232
0.0742691
0.086106
0.0923856
0.0970687
0.100831
0.100964
0.0968999
0.0921311
0.0858722
0.0741602
0.0739317
0.0855971
0.0918195
0.096566
0.10081
0.0995372
0.0958936
0.0913715
0.0852875
0.0736909
0.073573
0.0850838
0.0911631
0.0957741
0.0996987
0.0996031
0.0955159
0.090922
0.0848938
0.073543
0.0733807
0.0846326
0.0905262
0.0948868
0.0984095
0.0985944
0.094794
0.0903256
0.0844211
0.073171
0.0730163
0.0842187
0.0901054
0.0945743
0.0985476
0.0974332
0.0940158
0.0897714
0.0840213
0.0729761
0.0730478
0.0839535
0.0896569
0.0939642
0.097645
0.097622
0.0937762
0.0894873
0.0838543
0.073016
0.0729437
0.0836669
0.0891728
0.0932649
0.096572
0.09679
0.0932357
0.0890612
0.0835665
0.0729124
0.0728328
0.0834552
0.0889007
0.0930803
0.0967905
0.0958023
0.0926113
0.0886551
0.0833325
0.072867
0.0730076
0.0833009
0.088606
0.0926319
0.0960517
0.0961028
0.0925194
0.0884991
0.0832603
0.0730966
0.0730389
0.0831317
0.0882845
0.092112
0.0951912
0.0954937
0.0921971
0.0882749
0.0831228
0.0731556
0.0732572
0.0831149
0.0882639
0.0921759
0.0956424
0.0948723
0.0918742
0.0881978
0.0830989
0.0734755
0.0737965
0.0832581
0.0883574
0.0921018
0.0952964
0.0956036
0.0922068
0.0884581
0.0835298
0.0741027
0.0748981
0.0837204
0.0885821
0.0921135
0.0950603
0.095654
0.0925709
0.0889122
0.0840466
0.0749538
0.0759752
0.0841302
0.0892028
0.0929399
0.0963565
0.0960756
0.0930623
0.0894519
0.0843018
0.0763591
0.0770528
0.0847696
0.0900552
0.0937395
0.0967769
0.0979586
0.0947562
0.0909337
0.0855266
0.0782887
0.0787275
0.0865313
0.0920709
0.0963035
0.0999791
0.101325
0.097083
0.0926529
0.0872516
0.0789229
0.0783109
0.0874041
0.0926491
0.0970102
0.101028
0.100214
0.0966252
0.0924938
0.0871684
0.0776133
0.0770846
0.0869978
0.0925993
0.0968944
0.100804
0.101037
0.0971012
0.0927442
0.0870252
0.0768058
0.0765756
0.0871548
0.0930636
0.0977133
0.10192
0.102302
0.0978124
0.0930608
0.087068
0.0761233
0.0755052
0.0868101
0.0928378
0.097437
0.101347
0.1019
0.0976938
0.0929217
0.0868064
0.0754465
0.0757237
0.0868888
0.0929691
0.0977682
0.10222
0.101253
0.0974106
0.0928304
0.0868571
0.0758083
0.0758332
0.0869156
0.092937
0.0976547
0.101772
0.102069
0.0977243
0.0929976
0.0870015
0.0759634
0.0760412
0.0870193
0.0928951
0.0973893
0.101148
0.101689
0.0976614
0.0930377
0.087125
0.0761415
0.0763128
0.0872415
0.0931347
0.0977801
0.10204
0.101204
0.0974966
0.0930652
0.0872436
0.0763663
0.0763671
0.0873722
0.0932549
0.0978323
0.101797
0.102228
0.0980372
0.0934456
0.087574
0.0765262
0.077002
0.0878084
0.0935327
0.0978725
0.101495
0.102151
0.0983014
0.0938522
0.0881256
0.077424
0.0776573
0.0883478
0.0940637
0.0985381
0.102621
0.101909
0.098369
0.0941006
0.0884468
0.0776459
0.0777938
0.0886665
0.0943916
0.0987844
0.10256
0.103028
0.0990573
0.0946865
0.0890359
0.0783907
0.078796
0.0893163
0.0948283
0.0989606
0.102379
0.103001
0.0993818
0.0951972
0.0896965
0.0791576
0.0797381
0.0902036
0.0956589
0.0997664
0.103336
0.104282
0.100566
0.0962972
0.0907778
0.0802946
0.0805413
0.0911337
0.0966593
0.100954
0.104875
0.104326
0.100908
0.0967932
0.0913031
0.0805045
0.0807317
0.0916274
0.0971891
0.101428
0.105055
0.105624
0.101813
0.097594
0.0920959
0.0814231
0.0820698
0.0925253
0.0978831
0.101871
0.105143
0.105853
0.102397
0.0983688
0.0930279
0.0826086
0.0830712
0.0935739
0.0989111
0.102865
0.106269
0.107273
0.10374
0.0996282
0.0942104
0.0836063
0.0840742
0.0947102
0.100114
0.10423
0.107947
0.107545
0.104313
0.100394
0.0950765
0.0844083
0.0848909
0.095527
0.100874
0.104895
0.108312
0.108887
0.105293
0.101285
0.0959758
0.0854619
0.0858355
0.096328
0.101545
0.105363
0.108466
0.109158
0.105877
0.102004
0.0967677
0.0862343
0.0867419
0.0973234
0.102549
0.106352
0.109582
0.11057
0.107229
0.103286
0.0979888
0.0873142
0.0878824
0.0985446
0.103814
0.107748
0.111253
0.110932
0.107891
0.104147
0.0989734
0.0883671
0.0887823
0.0994186
0.104631
0.108476
0.111691
0.112263
0.108883
0.105042
0.099853
0.0892671
0.0897188
0.100227
0.105336
0.108988
0.111921
0.112612
0.109519
0.105813
0.100696
0.0901697
0.0907005
0.101272
0.106358
0.109992
0.11304
0.113998
0.110842
0.107072
0.101914
0.0912684
0.091771
0.102446
0.107589
0.111342
0.114653
0.114385
0.111506
0.107929
0.102878
0.0922975
0.0927067
0.103345
0.108428
0.112069
0.115101
0.115556
0.112577
0.109005
0.103943
0.09324
0.0939268
0.104657
0.109758
0.113458
0.116535
0.117221
0.114004
0.110321
0.10526
0.0946158
0.0951332
0.105699
0.110695
0.114195
0.116987
0.117702
0.114754
0.111188
0.106154
0.0954669
0.095766
0.106659
0.111726
0.115243
0.118149
0.119108
0.11611
0.112461
0.107341
0.0963894
0.0972525
0.108016
0.113062
0.116671
0.119792
0.119598
0.116894
0.113472
0.108545
0.0978858
0.0982625
0.109031
0.113984
0.117464
0.120312
0.120761
0.117959
0.114549
0.109613
0.0987817
0.0995075
0.1103
0.115279
0.118807
0.121699
0.122349
0.119313
0.115787
0.110837
0.100088
0.100321
0.111147
0.116088
0.119481
0.122137
0.122823
0.119999
0.116515
0.111472
0.100358
0.100778
0.111995
0.117054
0.120493
0.123279
0.124249
0.121384
0.117836
0.11275
0.101513
0.102348
0.11346
0.11848
0.121994
0.124974
0.124863
0.122283
0.118952
0.114047
0.103113
0.10372
0.114637
0.119529
0.122893
0.125607
0.126086
0.123419
0.120127
0.115237
0.104294
0.104838
0.115879
0.120842
0.12427
0.127025
0.12768
0.124788
0.121355
0.11636
0.105241
0.105648
0.116737
0.121675
0.124979
0.127511
0.128186
0.125503
0.122141
0.117203
0.106116
0.106559
0.117729
0.122677
0.125975
0.12862
0.129507
0.126781
0.123397
0.118405
0.107048
0.107907
0.119193
0.124126
0.127405
0.130045
0.131061
0.128358
0.124979
0.120041
0.108832
0.109492
0.120687
0.1256
0.12896
0.131772
0.131664
0.129194
0.125965
0.121091
0.109909
0.110158
0.121519
0.126441
0.129749
0.132373
0.132836
0.130249
0.126998
0.12206
0.110606
0.111108
0.122691
0.127724
0.131102
0.13376
0.134427
0.131647
0.128274
0.123202
0.111565
0.112145
0.123694
0.128648
0.131884
0.13433
0.135036
0.132453
0.129173
0.1242
0.11262
0.113253
0.124829
0.129769
0.132973
0.135504
0.13641
0.133814
0.130537
0.125592
0.114054
0.11471
0.126326
0.131244
0.134429
0.136953
0.137936
0.135337
0.132024
0.127041
0.115337
0.115834
0.127595
0.132587
0.135897
0.138615
0.138515
0.13612
0.132921
0.127957
0.116306
0.116753
0.128402
0.133373
0.136639
0.139191
0.139623
0.137098
0.133879
0.128864
0.116915
0.117377
0.129463
0.134568
0.137894
0.140491
0.14103
0.138505
0.135271
0.130215
0.118117
0.118895
0.131021
0.136114
0.139456
0.142033
0.142747
0.140073
0.136748
0.131666
0.119568
0.120236
0.132184
0.137182
0.140356
0.142707
0.143419
0.140925
0.137705
0.132712
0.120817
0.121165
0.133252
0.138263
0.141424
0.143877
0.144759
0.142239
0.138977
0.133906
0.121676
0.122291
0.134614
0.139657
0.142833
0.145295
0.146277
0.143747
0.140438
0.135304
0.122766
0.123416
0.135881
0.141036
0.144347
0.146984
0.146949
0.144616
0.141433
0.136327
0.123975
0.124413
0.136823
0.14194
0.145185
0.14766
0.148128
0.145694
0.142512
0.137394
0.124896
0.125549
0.138131
0.143274
0.146536
0.149031
0.149584
0.147165
0.144004
0.138924
0.126349
0.126948
0.139668
0.144815
0.148096
0.150582
0.151271
0.148677
0.145396
0.140232
0.127545
0.128021
0.14064
0.145743
0.148916
0.151215
0.151887
0.149437
0.146175
0.141039
0.128382
0.128667
0.141513
0.146689
0.149899
0.152318
0.15318
0.150679
0.147388
0.142152
0.129152
0.129858
0.142881
0.148077
0.151273
0.153707
0.154674
0.152173
0.148892
0.143662
0.130619
0.131277
0.144448
0.149648
0.152831
0.155256
0.156282
0.153811
0.15051
0.14523
0.131992
0.132771
0.145898
0.151161
0.15445
0.157012
0.157006
0.154742
0.151583
0.146379
0.133468
0.133863
0.146849
0.152062
0.155302
0.157706
0.158153
0.155794
0.152616
0.147395
0.13424
0.134804
0.148078
0.153332
0.156578
0.159019
0.159526
0.157148
0.153988
0.148773
0.135541
0.136038
0.149436
0.154729
0.157989
0.160434
0.160971
0.15858
0.155377
0.150079
0.136386
0.136862
0.150732
0.156144
0.159482
0.161932
0.162624
0.160074
0.156726
0.15128
0.137466
0.138009
0.151737
0.157127
0.160355
0.162624
0.163339
0.160939
0.157658
0.152246
0.138578
0.139316
0.15294
0.158296
0.161484
0.163816
0.164721
0.162319
0.159063
0.1537
0.140067
0.140672
0.154411
0.159749
0.16291
0.165249
0.166177
0.163777
0.160522
0.155127
0.141222
0.141884
0.155866
0.161229
0.164401
0.166738
0.167725
0.165329
0.162022
0.156543
0.142317
0.142912
0.157075
0.162599
0.165926
0.168421
0.168414
0.166174
0.162961
0.157458
0.143494
0.143687
0.157811
0.163393
0.166721
0.169105
0.169555
0.167213
0.163945
0.158373
0.144149
0.144819
0.159119
0.164688
0.168027
0.170446
0.17099
0.168639
0.165403
0.159867
0.14539
0.146212
0.160701
0.166255
0.169554
0.171959
0.172555
0.170232
0.167036
0.16153
0.146936
0.147727
0.162362
0.167908
0.171211
0.173579
0.174295
0.171829
0.168504
0.16291
0.148382
0.148665
0.163251
0.168844
0.172072
0.174292
0.174977
0.172598
0.169272
0.163646
0.149018
0.149552
0.164226
0.169828
0.173089
0.175416
0.176286
0.17387
0.170511
0.164827
0.149895
0.150474
0.165457
0.171144
0.174428
0.176796
0.177722
0.175277
0.171899
0.166165
0.150993
0.151504
0.166896
0.172634
0.175917
0.178294
0.179303
0.176888
0.173541
0.16782
0.152598
0.153507
0.168734
0.17438
0.177618
0.179938
0.18101
0.17864
0.175277
0.169496
0.154037
0.154725
0.170099
0.175924
0.179302
0.181771
0.181821
0.179606
0.176343
0.170581
0.155381
0.155749
0.17103
0.176826
0.18019
0.182554
0.183018
0.180712
0.177408
0.171595
0.156071
0.156834
0.172337
0.178162
0.181533
0.183918
0.184457
0.182134
0.178859
0.173058
0.157432
0.157938
0.173758
0.179637
0.183014
0.185397
0.185973
0.183654
0.180358
0.174493
0.158532
0.158996
0.175199
0.181186
0.184613
0.186986
0.187711
0.185235
0.181795
0.17573
0.159628
0.160225
0.176147
0.182168
0.18552
0.187751
0.188486
0.186106
0.182655
0.176612
0.160513
0.161027
0.17725
0.183269
0.186647
0.188957
0.189871
0.187493
0.184057
0.178029
0.161858
0.162499
0.178784
0.184791
0.188114
0.190414
0.19137
0.189011
0.185612
0.179607
0.163222
0.163963
0.180403
0.186357
0.189653
0.191945
0.19292
0.190571
0.187185
0.181166
0.16454
0.165118
0.181876
0.187914
0.191229
0.193511
0.194543
0.192193
0.188717
0.182559
0.165571
0.166165
0.183036
0.189294
0.192807
0.195278
0.195317
0.19307
0.189638
0.183385
0.166773
0.167037
0.183769
0.190075
0.193625
0.196051
0.196507
0.194146
0.190632
0.18428
0.167266
0.1679
0.185041
0.191405