/*--------------------------------*- C++ -*----------------------------------*\
| =========                 |                                                 |
| \\      /  F ield         | OpenFOAM: The Open Source CFD Toolbox           |
|  \\    /   O peration     | Version:  v2006                                 |
|   \\  /    A nd           | Website:  www.openfoam.com                      |
|    \\/     M anipulation  |                                                 |
\*---------------------------------------------------------------------------*/
FoamFile
{
    version     2.0;
    format      ascii;
    class       volScalarField;
    location    "0.165";
    object      yPlus;
}
// * * * * * * * * * * * * * * * * * * * * * * * * * * * * * * * * * * * * * //

dimensions      [0 0 0 0 0 0 0];


internalField   uniform 0;

boundaryField
{
    bottomEmptyFaces
    {
        type            empty;
    }
    topEmptyFaces
    {
        type            empty;
    }
    inlet
    {
        type            calculated;
        value           uniform 0;
    }
    outlet
    {
        type            calculated;
        value           uniform 0;
    }
    walls
    {
        type            calculated;
        value           nonuniform List<scalar> 
1343
(
7.77091
7.7683
7.76566
7.76305
7.76038
7.75791
7.75536
7.75282
7.75039
7.74783
7.74553
7.74298
7.7407
7.73828
7.73602
7.73364
7.73138
7.72911
7.72681
7.72466
7.7223
7.72026
7.71794
7.71589
7.71362
7.71161
7.70937
7.70742
7.7052
7.7033
7.70112
7.69925
7.69709
7.69524
7.69314
7.69132
7.68926
7.68746
7.68541
7.68365
7.68162
7.67989
7.67789
7.67617
7.67422
7.67252
7.67062
7.66891
7.66708
7.66534
7.6636
7.66182
7.66016
7.65834
7.65675
7.65495
7.65331
7.65163
7.64997
7.64834
7.64666
7.64508
7.64342
7.64185
7.64012
7.63864
7.63697
7.63547
7.63382
7.63232
7.63071
7.6292
7.62765
7.62612
7.62464
7.62309
7.62162
7.62011
7.6186
7.61716
7.61565
7.61425
7.61278
7.61132
7.60988
7.6084
7.60699
7.60556
7.60412
7.60275
7.60134
7.60001
7.59851
7.59725
7.59578
7.59452
7.59306
7.59178
7.59035
7.58908
7.58767
7.5864
7.58504
7.58375
7.58243
7.58112
7.57987
7.5785
7.57732
7.57591
7.57479
7.57338
7.57222
7.57089
7.56971
7.56844
7.56722
7.56596
7.56477
7.56351
7.56226
7.56106
7.55983
7.55867
7.55737
7.55627
7.55499
7.55389
7.5526
7.55151
7.55023
7.54916
7.54789
7.54682
7.54558
7.54452
7.54327
7.54222
7.54099
7.53995
7.53872
7.53768
7.53647
7.53544
7.53423
7.53321
7.53201
7.531
7.5298
7.52879
7.52761
7.52661
7.52543
7.52444
7.52327
7.52229
7.52112
7.52014
7.51899
7.518
7.51688
7.51592
7.51479
7.51382
7.51266
7.51168
7.51059
7.50965
7.50856
7.5076
7.5065
7.50555
7.50445
7.50351
7.50243
7.50149
7.50042
7.49948
7.49842
7.49749
7.49643
7.49551
7.49445
7.49353
7.49248
7.49156
7.49052
7.48961
7.48857
7.48766
7.48663
7.48573
7.4847
7.48381
7.48279
7.4819
7.48089
7.48
7.479
7.47812
7.47713
7.47626
7.47527
7.47441
7.47343
7.47258
7.47161
7.47077
7.46981
7.46897
7.46802
7.4672
7.46626
7.46544
7.46452
7.46371
7.4628
7.46201
7.46111
7.46033
7.45945
7.45869
7.45782
7.45707
7.45621
7.45548
7.45464
7.45391
7.45308
7.45237
7.45155
7.45084
7.45003
7.44934
7.44854
7.44786
7.44707
7.4464
7.44564
7.44497
7.44424
7.44359
7.44289
7.44225
7.44158
7.44096
7.44035
7.43975
7.4392
7.4386
7.43812
7.43755
7.43713
7.43661
7.43625
7.43579
7.43549
7.43512
7.43491
7.43467
7.43452
7.43444
7.43446
7.43452
7.43471
7.43497
7.43545
7.43599
7.43677
7.43774
7.43899
7.44049
7.44239
7.4448
7.44787
7.45186
7.45711
7.46427
7.475
7.49107
7.52806
7.48831
7.65826
11.0139
16.1841
19.7782
22.6266
24.7936
26.5387
27.824
28.9359
30.2334
31.8885
33.8402
35.82
37.9189
39.9476
41.6362
42.7581
42.3482
40.897
35.5676
27.7213
27.5475
27.4473
26.2814
26.8002
26.291
25.8854
26.06
26.4015
26.2853
24.8534
24.7108
25.5932
25.2334
24.8637
25.3215
27.207
27.1213
26.7722
26.3154
26.0205
25.7547
25.434
25.1157
26.4813
26.1255
26.9415
25.8102
26.3035
25.7505
25.5988
27.2507
26.8804
26.4008
24.9523
24.8451
24.9883
25.573
26.7393
26.5757
25.9652
25.6867
25.7249
26.8813
27.0395
26.644
26.7789
26.5072
26.0268
26.2361
25.6891
25.63
25.4788
26.6127
26.0398
26.5038
26.1255
26.3042
26.649
26.8069
25.8514
25.9476
26.6534
26.2401
26.4824
25.7386
25.5728
25.865
25.8459
25.6177
25.6991
25.4821
25.4991
25.0036
24.4019
25.3781
25.1242
24.8504
24.1527
24.3367
24.602
24.2052
25.8419
25.1067
25.0959
25.1348
25.4199
25.8215
25.4347
25.7255
25.5282
25.561
24.9279
25.1863
24.987
25.122
24.9539
24.1377
24.463
25.4338
25.6226
25.562
25.3015
25.6621
25.442
25.4016
26.3769
25.6741
25.9447
26.1542
26.2979
25.9032
25.1541
25.2682
25.9749
26.0443
25.7433
25.4601
25.6197
25.4869
24.4216
24.9469
25.4954
25.9036
25.7289
25.3353
24.9316
24.5173
24.1995
24.3038
24.8226
25.3448
24.8433
25.8104
25.6783
24.4727
24.2811
25.0547
24.5961
25.0434
24.1868
24.5451
24.3263
24.1294
25.2405
25.0495
25.514
25.2287
24.7445
24.4241
25.3721
24.4748
24.8592
24.7049
24.4834
25.2711
24.9974
24.5858
24.216
24.9574
24.0636
24.4114
25.5362
24.5851
24.418
24.444
24.9002
25.8012
25.7068
25.3324
24.8521
25.7144
25.5036
26.5189
26.4169
26.1691
25.1114
25.5507
25.3091
24.8754
25.6523
24.6233
25.0638
24.5995
24.4577
26.049
25.723
25.9016
25.4542
25.1374
25.005
25.2815
24.3357
24.7679
33.3238
32.7883
32.5045
33.372
33.1361
33.2134
33.3155
32.9633
32.4639
31.8886
31.3672
31.0869
32.5776
32.9333
19.8339
19.8714
19.8065
19.2725
18.7556
18.9621
19.7879
19.4682
19.6363
18.1267
17.8077
17.971
39.8356
40.1849
40.2112
40.0043
15.6777
17.5129
39.1853
16.9693
15.9115
16.3139
39.3646
18.5252
18.1584
18.2204
40.5123
41.828
41.1079
40.3944
40.0278
40.1119
40.5519
40.397
40.903
40.4763
39.7394
40.8115
40.8427
15.1739
14.7628
14.9883
14.9924
15.112
14.8216
14.8531
14.002
13.1699
42.7618
13.6489
13.6977
13.8559
13.2883
13.4897
43.0243
42.7143
14.4788
14.5562
14.5872
14.0848
14.2438
15.4459
15.5294
15.5524
15.2546
15.2987
43.6765
43.4321
43.2591
43.7812
43.7248
43.8261
45.6322
47.4196
46.8022
47.5301
47.7357
47.2929
47.0491
47.0472
43.7949
44.5992
44.1238
42.2545
42.6109
42.3938
35.0228
34.9027
34.793
34.2751
34.4625
66.6297
37.6991
37.6556
69.6399
37.673
69.9298
37.1816
36.7287
36.4601
36.4355
37.0474
36.7068
37.6831
37.4523
37.1088
37.0161
36.325
35.7271
36.0128
36.4985
36.5462
36.2074
35.9899
36.3015
36.3693
35.9924
36.2051
35.774
35.103
34.6872
23.5228
23.8987
23.0609
20.9524
22.0008
22.4479
18.8944
18.3085
34.4473
20.1225
21.0253
21.8937
18.5031
19.2949
22.0414
21.3536
20.7405
22.6366
22.5712
26.693
31.6833
42.1942
45.3453
35.6056
38.5075
23.9825
23.7585
50.4672
58.8733
33.8409
33.8814
33.5015
33.6766
33.371
34.4737
34.0817
33.2843
33.5004
35.3943
35.3407
35.0279
34.4122
33.9969
33.8045
34.0431
34.8874
35.0755
32.9908
32.5814
32.4758
32.8068
38.7457
39.4515
39.0472
38.6736
38.5715
38.5316
38.0094
66.4896
57.5879
47.4199
45.3456
51.8314
49.8287
44.1073
49.6971
42.1038
41.206
43.9676
40.1786
42.6229
37.9475
33.5832
35.8175
31.5355
27.219
29.4523
25.3236
21.1832
23.2306
20.7943
22.4531
23.5225
23.0816
23.1104
22.1348
19.3743
19.7019
19.5891
20.0069
21.0385
18.9526
17.7472
17.4476
16.974
17.1716
16.7396
16.2326
15.6365
15.2387
15.2985
15.3621
14.8404
14.2319
14.2345
14.0412
49.6034
50.5421
51.7697
51.1831
50.9205
52.5967
51.3285
51.3754
52.5991
52.0556
49.9105
51.8314
50.8366
52.141
52.1977
52.6224
52.4179
52.8491
53.4158
53.0219
52.1377
51.3798
49.6162
46.9213
43.9528
40.7649
37.3199
33.6075
29.518
25.1078
20.3331
48.5311
47.6522
47.3059
48.9718
48.6775
48.63
14.2308
13.8101
13.1753
15.8569
12.8425
10.5705
9.33546
9.23405
8.97945
8.68527
8.42667
8.21355
8.04454
7.92386
7.85008
7.80992
7.79901
7.80097
7.81688
7.83506
7.85483
7.87149
7.88853
7.90414
7.92087
7.93496
7.94857
12.8153
12.9517
12.7223
7.96085
13.1331
7.97217
12.9883
7.98189
7.99086
7.99902
8.00623
8.01233
8.01741
12.5829
11.9834
11.6361
11.6755
11.5531
11.8285
11.7076
11.4194
10.9942
10.4901
11.2137
10.6495
8.02147
8.02447
11.6757
8.02639
11.8794
8.02699
8.02666
8.02542
8.02326
8.02025
8.01657
8.0124
8.00756
8.00247
7.99686
7.99115
7.98508
7.97903
7.97278
7.96665
7.9603
7.9542
7.94791
7.94195
7.93578
7.93003
7.9241
7.91856
7.91286
7.90755
7.90211
7.89705
7.89187
7.88706
7.88211
7.87755
7.87282
7.86851
7.86399
7.85989
7.85564
7.8517
7.8476
7.84386
7.83993
7.83633
7.83252
7.82909
7.82545
7.82212
7.81862
7.81543
7.81204
7.80892
7.80565
7.80261
7.79948
7.79653
7.79349
7.79056
7.78768
7.78475
7.78194
7.77912
7.77634
7.77366
13.6398
22.4832
15.2168
14.4429
13.9632
17.8582
16.2789
19.9358
24.0656
25.1565
27.9849
26.9308
25.9433
25.4161
29.0331
28.5041
29.7196
28.2512
27.7359
27.8563
27.7594
27.4428
27.6042
27.3354
27.047
27.1047
13.1169
13.0482
13.0938
13.398
13.0897
11.8317
11.5255
11.0815
11.39
10.9789
11.8276
11.8126
12.0383
11.8748
11.9458
11.8783
12.1016
13.1134
12.2251
13.9622
16.5002
15.2263
17.7206
17.975
18.4365
17.9238
17.8523
17.3965
17.1925
17.2545
16.8874
17.5926
17.4785
16.8889
15.9779
15.0808
14.1028
12.9046
11.7231
11.0126
10.4415
9.95323
9.39641
8.76855
8.11214
7.46015
6.64885
5.69929
4.68575
3.72721
2.89895
2.17777
2.02343
2.15481
2.16181
2.21122
2.23866
2.09354
1.81305
1.85069
1.78297
1.90349
1.71846
2.10897
1.67432
1.96679
1.79505
1.77761
1.65375
1.72118
1.52045
1.5652
1.53103
1.74862
1.44473
1.70089
1.56925
1.57083
1.39314
1.46433
1.35663
1.41336
1.3273
1.56815
1.3963
1.38447
1.24732
1.31052
1.22851
1.253
1.13974
1.39898
1.20843
1.18934
1.13526
1.20553
1.08587
1.06186
1.0266
1.18765
0.913765
1.14218
1.15945
1.08545
0.957105
1.01072
0.972234
0.756418
0.700303
1.03651
0.98924
0.988224
0.831116
1.01836
0.905959
0.804859
0.909386
0.82666
0.752991
0.739466
0.752501
0.411562
0.354198
0.333255
0.494709
0.785938
0.973918
1.08767
1.16686
1.24715
1.29899
1.3412
1.37555
1.41576
1.46375
1.51958
1.56454
1.59085
1.58254
1.51312
1.41363
1.21784
0.763188
0.962919
28.8125
28.3716
29.5492
29.3822
28.979
28.63
29.2196
28.0361
28.5697
28.0843
27.8927
29.2377
29.1348
28.8985
27.5695
28.1298
27.9092
27.5506
28.328
27.195
27.6927
27.2715
27.0722
28.7784
28.315
28.1973
27.7947
27.4449
27.3256
30.8962
30.3981
30.0083
29.7078
30.447
30.6609
30.4395
29.9541
29.6321
29.2529
28.9304
31.0055
30.9139
29.6006
29.3272
30.4227
29.9682
30.7584
29.701
30.1105
29.2922
29.8317
30.5002
30.1736
32.2342
31.9408
32.0769
31.1191
31.5276
31.4737
30.9193
31.3012
31.4959
31.2882
30.2534
30.7282
30.2
30.01
30.0832
29.1259
29.5637
29.6378
29.2587
27.0435
26.691
28.5704
28.4516
28.1228
27.6692
27.3079
26.9825
26.6572
26.5458
28.222
28.1026
27.8457
26.7139
27.1892
27.7957
27.4344
27.8891
27.8049
27.5873
27.1956
27.6213
26.4797
26.9682
26.4178
26.3522
26.7334
26.3433
26.1148
26.0468
72.3211
1.01028
43.211
42.5638
41.4266
40.2244
38.6932
37.4487
36.2057
35.203
34.4151
33.7606
33.2
32.7199
32.304
31.9394
31.6158
31.3246
31.0592
30.8145
30.5861
30.3711
30.1668
29.9713
29.783
29.6007
29.4235
29.2504
29.0809
28.9143
28.7501
28.5879
28.4274
28.2681
28.1097
27.9519
27.7944
27.6369
27.4793
27.3212
27.1623
27.0025
26.8416
26.6792
26.5152
26.3493
26.1813
26.0111
25.8382
25.6626
25.4839
25.302
25.1165
24.9273
24.734
24.5364
24.3342
24.1272
23.9151
23.6975
23.4741
23.2447
23.0089
22.7663
22.5166
22.2594
21.9944
21.7211
21.4394
21.1486
20.8486
20.539
20.2195
19.8898
19.5499
19.1996
18.839
18.4682
18.0878
17.6984
17.3011
16.8974
16.4895
16.0796
15.6711
15.2674
14.8732
14.4888
14.1183
13.7612
13.4147
13.0798
12.7203
12.511
12.4559
12.3224
12.0686
11.6668
11.134
10.4848
9.74824
8.99186
8.29128
7.68307
7.34246
7.24006
7.24339
7.3269
7.42021
7.5305
7.63307
7.72182
7.79582
7.84983
7.87819
7.88769
7.88541
7.86227
7.81337
7.74919
7.66514
7.56264
7.44645
7.30938
7.16
6.99525
6.81363
6.61847
6.41001
6.18355
5.94533
5.68384
5.41742
5.1173
4.77589
4.36525
3.9071
3.30366
2.57257
1.89714
1.21069
41.6952
3.95978
4.49136
4.87616
4.65847
4.27603
8.94301
13.2601
11.1431
8.96662
16.0529
25.3084
27.4315
28.6218
29.7847
26.8781
26.8274
26.4907
26.1997
25.5807
24.8727
24.0317
23.076
21.863
20.585
18.7457
16.8719
14.0208
11.2972
8.30706
1.01028
1.25319
1.57049
2.02968
3.46712
1.21069
5.82016
6.59118
)
;
    }
    symmetryLine
    {
        type            symmetryPlane;
    }
}


// ************************************************************************* //
