/*--------------------------------*- C++ -*----------------------------------*\
| =========                 |                                                 |
| \\      /  F ield         | OpenFOAM: The Open Source CFD Toolbox           |
|  \\    /   O peration     | Version:  v2006                                 |
|   \\  /    A nd           | Website:  www.openfoam.com                      |
|    \\/     M anipulation  |                                                 |
\*---------------------------------------------------------------------------*/
FoamFile
{
    version     2.0;
    format      ascii;
    class       surfaceScalarField;
    location    "0.005";
    object      phi;
}
// * * * * * * * * * * * * * * * * * * * * * * * * * * * * * * * * * * * * * //

dimensions      [1 0 -1 0 0 0 0];
oriented        oriented;


internalField   nonuniform List<scalar> 
25161
(
-2.75718e-05
-0.0015628
0.00153993
5.02926e-05
-0.00145717
0.00142943
1.11306e-05
9.12598e-05
-1.64919e-05
0.00166079
2.46919e-05
0.00182749
-6.27723e-05
0.00182649
-1.37932e-05
0.00186714
-2.92317e-05
0.00182802
-3.85259e-06
0.00182268
-5.71643e-06
0.00179967
-5.89655e-07
0.00179081
-1.85256e-06
0.00178175
-1.40598e-06
0.00177696
-1.65798e-06
0.0017729
-1.72486e-06
0.00176917
-1.78568e-06
0.00176549
-1.84103e-06
0.00176168
-1.89117e-06
0.00175772
-1.9362e-06
0.00175364
-1.97625e-06
0.00174943
-2.01428e-06
0.0017451
-2.04186e-06
0.00174065
-2.061e-06
0.00173611
-2.07519e-06
0.0017315
-2.08699e-06
0.00172683
-2.09676e-06
0.00172209
-2.10409e-06
0.00171726
-2.10842e-06
0.00171234
-2.10957e-06
0.00170734
-2.10769e-06
0.00170227
-2.10304e-06
0.00169712
-2.09588e-06
0.0016919
-2.0863e-06
0.00168662
-2.07431e-06
0.00168128
-2.05982e-06
0.00167588
-2.04266e-06
0.00167043
-2.02256e-06
0.00166494
-1.99924e-06
0.00165941
-1.97245e-06
0.00165385
-1.94201e-06
0.00164828
-1.90783e-06
0.00164271
-1.86983e-06
0.00163715
-1.82803e-06
0.00163161
-1.78247e-06
0.00162611
-1.73319e-06
0.00162066
-1.68024e-06
0.00161527
-1.62362e-06
0.00160996
-1.56336e-06
0.00160475
-1.4996e-06
0.00159964
-1.43274e-06
0.00159465
-1.36334e-06
0.0015898
-1.29219e-06
0.0015851
-1.21973e-06
0.00157975
-1.14422e-06
0.00157374
-3.41349e-06
0.00156629
-5.64977e-06
0.00155514
-1.48742e-05
0.00153668
-2.71599e-05
0.00151294
-5.88846e-05
0.00147792
-0.000110158
0.00144957
-0.00024412
0.00144662
-0.00048015
0.00146757
-0.000230535
0.00089322
-0.000133746
0.000905037
-7.29244e-05
0.000882126
-7.44141e-05
0.000767045
-2.27007e-05
0.000688101
-1.38327e-05
0.000248265
-7.45508e-06
0.00020576
0.00016713
1.02645e-05
0.000156897
2.04864e-05
0.000195576
0.000235498
3.32969e-05
-1.38388e-05
0.000228045
2.13229e-05
-6.8256e-06
0.000188589
0.000150094
3.96608e-06
0.000146144
7.20121e-06
0.000185372
0.000225173
1.00944e-05
-3.37457e-06
0.000224453
4.10204e-06
-2.30296e-06
0.000184307
0.000143848
2.26635e-06
0.000141577
2.65851e-06
0.000183909
0.000223626
3.47869e-06
-1.86807e-06
0.000222688
2.78238e-06
-1.41664e-06
0.000183437
0.000140143
1.3367e-06
0.000138776
1.85549e-06
0.000182882
0.000222427
2.07459e-06
-1.81563e-06
0.000222071
2.10934e-06
-1.24445e-06
0.000182258
0.000137487
1.16494e-06
0.000136264
2.53162e-06
0.000180821
0.000222401
2.11823e-06
-9.60105e-07
0.000221128
2.12922e-06
-1.08419e-06
0.000180856
0.000135106
1.02077e-06
0.000133996
2.41998e-06
0.00017935
0.000221313
2.10729e-06
-8.62503e-07
0.000219921
2.10496e-06
-9.57597e-07
0.000179318
0.000132933
9.15876e-07
0.000131897
2.32284e-06
0.000177766
0.000219994
2.07697e-06
-7.94952e-07
0.000218513
2.0811e-06
-8.75635e-07
0.000177684
0.000130886
8.58132e-07
0.000129879
2.26478e-06
0.000176097
0.000218499
2.06362e-06
-7.69127e-07
0.000216951
2.08176e-06
-8.37902e-07
0.000175969
0.000128879
8.35639e-07
0.000127868
2.24212e-06
0.00017435
0.000216862
2.07583e-06
-7.68358e-07
0.000215255
2.10298e-06
-8.21731e-07
0.000174176
0.00012686
8.21065e-07
0.00012584
2.23062e-06
0.000172525
0.000215095
2.10011e-06
-7.68719e-07
0.000213428
2.12852e-06
-8.02591e-07
0.000172304
0.000124827
7.97147e-07
0.000123808
2.21264e-06
0.00017062
0.000213195
2.12251e-06
-7.61984e-07
0.000211467
2.15e-06
-7.73571e-07
0.000170349
0.000122801
7.66862e-07
0.00012179
2.18902e-06
0.000168631
0.000211159
2.14191e-06
-7.56206e-07
0.000209372
2.17325e-06
-7.44724e-07
0.000168312
0.000120789
7.43209e-07
0.000119779
2.17306e-06
0.000166561
0.00020899
2.16962e-06
-7.67023e-07
0.000207144
2.21237e-06
-7.2906e-07
0.000166189
0.000118773
7.37621e-07
0.000117749
2.17925e-06
0.000164402
0.00020669
2.21944e-06
-8.04079e-07
0.000204789
2.2773e-06
-7.33843e-07
0.000163976
0.000116719
7.52283e-07
0.000115662
2.21175e-06
0.00016215
0.000204264
2.29735e-06
-8.66398e-07
0.000202309
2.36935e-06
-7.56359e-07
0.000161663
0.000114593
7.8125e-07
0.000113493
2.26546e-06
0.000159794
0.000201712
2.40071e-06
-9.44868e-07
0.000199704
2.48179e-06
-7.88328e-07
0.000159245
0.00011238
8.13838e-07
0.000111236
2.32706e-06
0.000157333
0.000199034
2.51796e-06
-1.02585e-06
0.00019697
2.60316e-06
-8.18754e-07
0.000156721
0.000110082
8.39596e-07
0.000108903
2.38448e-06
0.000154767
0.000196223
2.63934e-06
-1.09843e-06
0.000194102
2.72364e-06
-8.37881e-07
0.000154094
0.000107724
8.53004e-07
0.000106527
2.43495e-06
0.000152097
0.00019327
2.76791e-06
-1.17441e-06
0.000191072
2.86028e-06
-8.52793e-07
0.00015135
0.000105321
8.67706e-07
0.000104097
2.49728e-06
0.000149292
0.000190128
2.92617e-06
-1.26847e-06
0.000187833
3.04393e-06
-8.66953e-07
0.000148458
0.000102872
8.85961e-07
0.000101623
2.57478e-06
0.000146333
0.000186763
3.12063e-06
-1.37663e-06
0.000184358
3.25058e-06
-8.87331e-07
0.000145401
0.000100367
9.12233e-07
9.90833e-05
2.66427e-06
0.000143202
0.000183154
3.33281e-06
-1.5047e-06
0.000180641
3.48082e-06
-9.211e-07
0.000142171
9.77897e-05
9.56489e-07
9.646e-05
2.78238e-06
0.000139897
0.000179302
3.5835e-06
-1.66964e-06
0.000176678
3.75801e-06
-9.76403e-07
0.000138757
9.51114e-05
1.02523e-06
9.37162e-05
2.94252e-06
0.000136395
0.000175195
3.8916e-06
-1.88289e-06
0.000172446
4.1002e-06
-1.05814e-06
0.000135126
9.22893e-05
1.1197e-06
9.08008e-05
3.14938e-06
0.000132653
0.000170797
4.26676e-06
-2.14474e-06
0.0001679
4.51055e-06
-1.1649e-06
0.000131231
8.92675e-05
1.23875e-06
8.76617e-05
3.4027e-06
0.000128626
0.000166063
4.71092e-06
-2.45468e-06
0.000163004
4.98928e-06
-1.29573e-06
0.00012703
8.60018e-05
1.38045e-06
8.42614e-05
3.69929e-06
0.000124279
0.000160964
5.22046e-06
-2.80909e-06
0.00015773
5.53214e-06
-1.44798e-06
0.000122491
8.24582e-05
1.54195e-06
8.05654e-05
4.03579e-06
0.000119576
0.000155469
5.79254e-06
-3.20637e-06
0.000152037
6.13914e-06
-1.61903e-06
0.000117573
7.85998e-05
1.7221e-06
7.65356e-05
4.41265e-06
0.000114471
0.000149527
6.43003e-06
-3.65021e-06
0.000145877
6.81523e-06
-1.81017e-06
0.000112227
7.43889e-05
1.92992e-06
7.21293e-05
4.84751e-06
0.000108913
0.00014309
7.15921e-06
-4.17004e-06
0.000139192
7.60357e-06
-2.03663e-06
0.000106392
6.97706e-05
2.17746e-06
6.72791e-05
5.36299e-06
0.000102829
0.00013609
8.01224e-06
-4.78354e-06
0.000131903
8.52883e-06
-2.30695e-06
9.99845e-05
6.46663e-05
2.47398e-06
6.18944e-05
5.97849e-06
9.61216e-05
0.000128433
9.01852e-06
-5.51527e-06
0.000123901
9.62779e-06
-2.63195e-06
9.28892e-05
5.89723e-05
2.83534e-06
5.58552e-05
6.72713e-06
8.86583e-05
0.000119992
1.02289e-05
-6.4192e-06
0.000115037
1.09807e-05
-3.03624e-06
8.49469e-05
5.25464e-05
3.29937e-06
4.89834e-05
7.6947e-06
8.02345e-05
0.000110579
1.1771e-05
-7.6346e-06
0.000105069
1.27781e-05
-3.59353e-06
7.58874e-05
4.51355e-05
3.98107e-06
4.09096e-05
9.06362e-06
7.05095e-05
9.98907e-05
1.38868e-05
-9.31943e-06
9.36159e-05
1.52524e-05
-4.38675e-06
6.52928e-05
3.62874e-05
4.8746e-06
3.11851e-05
1.09279e-05
5.89656e-05
8.74214e-05
1.67932e-05
-1.15572e-05
7.99962e-05
1.86643e-05
-5.3817e-06
5.25253e-05
2.55841e-05
5.97056e-06
1.94105e-05
1.34159e-05
4.48282e-05
7.22644e-05
2.08428e-05
-1.47651e-05
6.31203e-05
2.36225e-05
-6.74732e-06
3.6589e-05
1.25395e-05
9.78741e-06
2.71912e-06
1.90633e-05
2.7165e-05
5.40139e-05
2.79173e-05
-2.14117e-05
4.41341e-05
3.11017e-05
-1.08477e-05
1.65073e-05
-8.30436e-06
7.53107e-06
-1.60213e-05
1.92109e-05
4.62711e-06
3.30901e-05
3.01061e-05
-1.58313e-05
2.00438e-05
2.86634e-05
-3.53111e-06
-7.88973e-06
-1.97297e-05
2.94778e-06
-2.28468e-05
1.31845e-05
-1.83323e-05
6.73687e-06
2.62424e-05
-9.28216e-06
-5.68062e-06
2.14641e-05
-2.52946e-06
-2.52784e-05
-2.55375e-05
2.3023e-06
-2.79938e-05
7.20218e-06
-3.03625e-05
-1.59439e-05
1.72465e-05
-5.36022e-06
-2.24862e-05
1.16988e-05
-1.88158e-06
-3.40171e-05
-3.00226e-05
1.41164e-06
-3.15757e-05
3.17222e-06
-3.59459e-05
-2.65413e-05
7.03447e-06
3.26148e-07
-2.72737e-05
2.22911e-07
-1.77288e-08
-3.57635e-05
-3.17294e-05
-9.98401e-07
-3.08618e-05
-2.88232e-06
-3.40357e-05
-2.6675e-05
-3.66164e-06
5.38003e-06
-2.55023e-05
-6.73116e-06
2.5939e-06
-3.14011e-05
-2.83946e-05
-2.19521e-06
-2.63206e-05
-4.24464e-06
-2.94972e-05
-2.58662e-05
-4.05445e-06
4.31825e-06
-2.53254e-05
-5.02765e-06
2.34424e-06
-2.76638e-05
-2.40933e-05
-1.46504e-06
-2.27414e-05
-2.74261e-06
-2.65223e-05
-2.55985e-05
-2.63264e-06
3.56048e-06
-2.44539e-05
-4.86457e-06
1.83592e-06
-2.49305e-05
-2.10158e-05
-1.49115e-06
-1.96326e-05
-3.12884e-06
-2.34227e-05
-2.35838e-05
-4.15451e-06
4.81102e-06
-2.12994e-05
-7.24884e-06
2.28072e-06
-2.10202e-05
-1.74581e-05
-2.11279e-06
-1.545e-05
-4.62956e-06
-1.86294e-05
-1.94422e-05
-6.63777e-06
5.88469e-06
-1.64923e-05
-8.98477e-06
2.73751e-06
-1.56075e-05
-1.28167e-05
-2.56912e-06
-1.03511e-05
-5.62417e-06
-1.26769e-05
-1.39221e-05
-8.3437e-06
6.42544e-06
-1.06563e-05
-9.84107e-06
2.95263e-06
-9.32902e-06
-7.50232e-06
-2.9847e-06
-4.62224e-06
-6.55364e-06
-5.88588e-06
-7.42517e-06
-9.93563e-06
6.34064e-06
-4.34179e-06
-9.57686e-06
2.90499e-06
-2.57767e-06
-1.82324e-06
-2.83088e-06
9.00016e-07
-6.20171e-06
6.63793e-07
-1.4982e-06
-9.20039e-06
5.55979e-06
9.32256e-07
-8.1482e-06
2.5096e-06
3.58222e-06
3.29999e-06
-2.21054e-06
5.3988e-06
-4.86361e-06
6.10101e-06
2.81886e-06
-6.91115e-06
4.49753e-06
4.33443e-06
-6.17707e-06
1.99142e-06
8.4702e-06
7.27625e-06
-1.5572e-06
8.71799e-06
-3.65582e-06
1.04301e-05
5.70913e-06
-5.1969e-06
2.52483e-06
6.35347e-06
-3.34059e-06
1.01248e-06
1.17993e-05
9.61131e-06
-5.45059e-07
1.00347e-05
-1.05985e-06
1.21678e-05
5.79694e-06
-6.78687e-07
-4.09231e-07
3.87753e-06
2.14973e-06
1.27309e-07
1.1482e-05
1.00379e-05
2.17496e-07
9.69362e-06
1.77973e-06
9.76737e-06
1.06963e-06
4.40493e-06
-2.81768e-06
-2.52447e-06
6.22536e-06
-5.55582e-07
7.34978e-06
9.00872e-06
8.2155e-07
8.05551e-06
3.63046e-06
4.38257e-06
-6.27449e-06
7.1907e-06
-4.26431e-06
-9.90963e-06
7.70656e-06
-1.12594e-06
1.08331e-06
6.79574e-06
1.34406e-06
5.31577e-06
4.49226e-06
-2.22829e-06
-1.33911e-05
7.77779e-06
-4.44219e-06
-1.6603e-05
7.45523e-06
-1.55967e-06
-5.27665e-06
3.61817e-06
1.6384e-06
1.83948e-06
4.14787e-06
-7.95477e-06
-1.96304e-05
6.97311e-06
-3.97273e-06
-2.22692e-05
6.4076e-06
-1.64532e-06
-1.04527e-05
5.23351e-08
1.52273e-06
-1.61386e-06
3.51256e-06
-1.26148e-05
-2.47724e-05
5.81035e-06
-3.24824e-06
-2.69001e-05
5.17028e-06
-1.3507e-06
-1.4686e-05
-3.10939e-06
1.19077e-06
-4.44597e-06
2.73747e-06
-1.64069e-05
-2.89614e-05
4.59509e-06
-2.58145e-06
-3.0631e-05
4.05297e-06
-1.06382e-06
-1.80978e-05
-5.65606e-06
9.21755e-07
-6.72401e-06
2.09402e-06
-1.94409e-05
-3.22939e-05
3.56926e-06
-2.0322e-06
-3.35646e-05
3.13146e-06
-8.31095e-07
-2.0808e-05
-7.70063e-06
7.16454e-07
-8.56082e-06
1.59484e-06
-2.18442e-05
-3.48755e-05
2.75681e-06
-1.61798e-06
-3.58011e-05
2.42227e-06
-6.56909e-07
-2.29509e-05
-9.35826e-06
5.67654e-07
-1.00615e-05
1.2243e-06
-2.37369e-05
-3.6804e-05
2.13533e-06
-1.32195e-06
-3.74518e-05
1.90138e-06
-5.31054e-07
-2.46389e-05
-1.07211e-05
4.85773e-07
-1.13263e-05
9.98011e-07
-2.5244e-05
-3.82499e-05
1.7373e-06
-1.14746e-06
-3.87379e-05
1.5619e-06
-4.69487e-07
-2.60023e-05
-1.19045e-05
4.19538e-07
-1.2421e-05
7.88588e-07
-2.64457e-05
-3.94053e-05
1.35576e-06
-9.25863e-07
-3.97827e-05
1.17655e-06
-3.90286e-07
-2.70592e-05
-1.28972e-05
3.45785e-07
-1.33191e-05
5.78313e-07
-2.73773e-05
-4.03764e-05
1.02752e-06
-7.45475e-07
-4.06953e-05
9.09269e-07
-3.1422e-07
-2.79041e-05
-1.37025e-05
2.62548e-07
-1.40296e-05
4.03197e-07
-2.81477e-05
-4.12449e-05
7.95118e-07
-5.95278e-07
-4.15182e-05
7.13434e-07
-2.27172e-07
-2.86224e-05
-1.43192e-05
1.83564e-07
-1.45638e-05
2.67088e-07
-2.88117e-05
-4.20238e-05
6.22389e-07
-4.91423e-07
-4.22485e-05
5.68561e-07
-1.639e-07
-2.92435e-05
-1.47878e-05
1.34351e-07
-1.49812e-05
1.7621e-07
-2.93889e-05
-4.27152e-05
4.96716e-07
-4.29674e-07
-4.29025e-05
4.73399e-07
-1.31207e-07
-2.97906e-05
-1.5171e-05
1.17102e-07
-1.53461e-05
1.35084e-07
-2.99108e-05
-4.33412e-05
4.32386e-07
-4.20056e-07
-4.35029e-05
4.43169e-07
-1.29838e-07
-3.03031e-05
-1.55342e-05
1.26671e-07
-1.57206e-05
1.40672e-07
-3.04215e-05
-4.39305e-05
4.32437e-07
-4.50215e-07
-4.40825e-05
4.70697e-07
-1.45703e-07
-3.08312e-05
-1.59311e-05
1.43334e-07
-1.61535e-05
1.80791e-07
-3.09729e-05
-4.45091e-05
4.81147e-07
-5.15123e-07
-4.46559e-05
5.41128e-07
-1.80689e-07
-3.1408e-05
-1.64163e-05
1.8897e-07
-1.66852e-05
2.50998e-07
-3.15663e-05
-4.50795e-05
5.59576e-07
-5.84791e-07
-4.52207e-05
6.16473e-07
-2.24066e-07
-3.20185e-05
-1.69858e-05
2.19648e-07
-1.72781e-05
2.97982e-07
-3.21837e-05
-4.56442e-05
6.17317e-07
-6.16771e-07
-4.57807e-05
6.54772e-07
-2.40572e-07
-3.26421e-05
-1.75873e-05
2.20636e-07
-1.78724e-05
3.02594e-07
-3.28015e-05
-4.61992e-05
6.28304e-07
-6.02657e-07
-4.63228e-05
6.38798e-07
-2.2595e-07
-3.3251e-05
-1.81588e-05
1.92953e-07
-1.84086e-05
2.61949e-07
-3.33886e-05
-4.67267e-05
5.83659e-07
-5.54257e-07
-4.68275e-05
5.7788e-07
-1.91914e-07
-3.38153e-05
-1.86541e-05
1.59514e-07
-1.88637e-05
2.05748e-07
-3.39218e-05
-4.72062e-05
5.12278e-07
-5.07018e-07
-4.72761e-05
5.09571e-07
-1.63407e-07
-3.43215e-05
-1.90737e-05
1.3837e-07
-1.92554e-05
1.63376e-07
-3.43987e-05
-4.76248e-05
4.49545e-07
-4.80712e-07
-4.76623e-05
4.60317e-07
-1.51396e-07
-3.47764e-05
-1.9447e-05
1.35813e-07
-1.96198e-05
1.46323e-07
-3.48314e-05
-4.79824e-05
4.13093e-07
-4.72252e-07
-4.79919e-05
4.33064e-07
-1.50334e-07
-3.51939e-05
-1.98038e-05
1.26124e-07
-1.99605e-05
1.27275e-07
-3.52318e-05
-4.82885e-05
3.79874e-07
-4.39333e-07
-4.82729e-05
3.84546e-07
-1.26282e-07
-3.55776e-05
-2.01141e-05
8.55893e-08
-2.02239e-05
6.64274e-08
-3.55876e-05
-4.85351e-05
2.93776e-07
-3.54907e-07
-4.84776e-05
2.66944e-07
-7.93483e-08
-3.58886e-05
-2.03244e-05
2.12777e-08
-2.03645e-05
9.59938e-08
-3.59858e-05
-4.85209e-05
1.12638e-07
-1.69252e-07
-4.89282e-05
5.54e-07
-1.1004e-07
-3.60637e-05
-2.049e-05
2.24597e-08
-2.05261e-05
3.55618e-07
-3.64131e-05
-4.9314e-05
7.22125e-07
-6.35101e-07
-5.00018e-05
1.30793e-06
-2.5302e-07
-3.68074e-05
-2.0789e-05
-1.03959e-07
-2.06931e-05
2.41268e-07
-3.71622e-05
-5.04743e-05
7.02315e-07
-2.32295e-07
-5.09338e-05
6.84729e-07
9.20878e-08
-3.74924e-05
-2.06057e-05
4.53385e-07
-2.1062e-05
1.3757e-06
-3.84182e-05
-5.23544e-05
2.79224e-06
-3.70101e-07
5.59652e-07
-2.21904e-08
8.70518e-06
0.000151613
-7.92157e-07
0.000166374
4.42587e-06
0.000183153
-4.08734e-06
0.000187793
-7.0741e-07
0.000189613
-2.47468e-06
0.000185118
-1.06996e-06
0.000182043
-1.26938e-06
0.00017785
-1.17716e-06
0.000175167
-1.59512e-06
0.000172295
-1.86084e-06
0.000170372
-2.10482e-06
0.000168384
-2.48413e-06
0.000167681
-3.01482e-06
0.000169048
-5.20169e-06
0.00017235
-6.59764e-06
0.000178985
-1.44255e-05
0.000183282
-2.2249e-05
0.000186241
-5.05885e-05
0.000189689
-0.00010638
0.000215066
-3.171e-05
5.83822e-05
9.97291e-06
9.25662e-05
4.28706e-06
0.000112991
-5.5756e-06
0.000120856
-3.08715e-06
3.68315e-05
-8.48257e-07
2.97769e-05
1.75718e-05
9.89068e-06
7.68101e-06
2.62419e-05
1.34255e-05
1.7068e-05
4.60052e-05
5.27829e-06
2.21285e-05
-1.03392e-05
1.50886e-06
1.71947e-05
9.18962e-06
-3.49469e-09
9.1926e-06
-9.67118e-07
1.81577e-05
2.39618e-05
-2.80117e-06
-1.68662e-07
2.47767e-05
-6.47298e-07
-3.47381e-07
1.83355e-05
8.84454e-06
9.20932e-07
7.92278e-06
1.79922e-06
1.74561e-05
2.40326e-05
2.54189e-06
-9.64501e-07
2.35348e-05
1.46063e-06
-4.14934e-07
1.69052e-05
7.5067e-06
6.8126e-07
6.82398e-06
1.65233e-06
1.59324e-05
2.29439e-05
2.24114e-06
-7.27865e-07
2.28582e-05
8.11189e-07
-2.42856e-07
1.54455e-05
6.57945e-06
5.08914e-07
6.0687e-06
1.07084e-06
1.48813e-05
2.20977e-05
1.82862e-06
-3.65653e-07
2.18049e-05
6.5546e-07
-1.26864e-07
1.464e-05
5.93979e-06
3.05202e-07
5.63229e-06
1.06425e-06
1.38781e-05
2.1407e-05
1.4587e-06
-2.28526e-07
2.13244e-05
3.0733e-07
-4.93914e-08
1.36959e-05
5.58035e-06
2.49365e-07
5.32817e-06
7.92797e-07
1.31491e-05
2.07714e-05
1.34171e-06
-1.6674e-07
2.06981e-05
2.35557e-07
-2.45609e-08
1.30032e-05
5.30051e-06
2.24214e-07
5.0729e-06
7.30646e-07
1.24928e-05
2.016e-05
1.26387e-06
-1.29431e-07
2.00954e-05
1.88793e-07
-5.92002e-09
1.23649e-05
5.0633e-06
2.05021e-07
4.85431e-06
6.91973e-07
1.18732e-05
1.95586e-05
1.22313e-06
-1.04816e-07
1.94867e-05
1.70579e-07
7.04312e-09
1.17562e-05
4.85709e-06
1.8319e-07
4.66935e-06
6.42346e-07
1.12916e-05
1.89432e-05
1.1793e-06
-5.85745e-08
1.88636e-05
1.31142e-07
2.43678e-08
1.12028e-05
4.68886e-06
1.65635e-07
4.51807e-06
5.78971e-07
1.07833e-05
1.83199e-05
1.11515e-06
3.61702e-09
1.82481e-05
6.02412e-08
3.97386e-08
1.07406e-05
4.55235e-06
1.42523e-07
4.40405e-06
4.83267e-07
1.03928e-05
1.77268e-05
9.96162e-07
8.6908e-08
1.76839e-05
-5.2866e-08
5.97572e-08
1.04126e-05
4.4577e-06
1.2804e-07
4.32323e-06
4.10707e-07
1.01222e-05
1.72153e-05
8.6986e-07
1.47812e-07
1.72241e-05
-1.66418e-07
7.2396e-08
1.01895e-05
4.38886e-06
1.14285e-07
4.26747e-06
3.52199e-07
9.94306e-06
1.68159e-05
7.5002e-07
1.91765e-07
1.68775e-05
-2.64164e-07
8.23293e-08
1.00436e-05
4.34237e-06
1.09945e-07
4.22466e-06
3.23878e-07
9.82028e-06
1.6517e-05
6.73074e-07
2.12674e-07
1.66178e-05
-3.25256e-07
8.57214e-08
9.93749e-06
4.30232e-06
1.03486e-07
4.19051e-06
3.00364e-07
9.73051e-06
1.62948e-05
6.11086e-07
2.28443e-07
1.64232e-05
-3.69659e-07
9.01925e-08
9.85826e-06
4.27213e-06
1.04971e-07
4.15842e-06
2.98631e-07
9.65385e-06
1.61184e-05
5.90297e-07
2.267e-07
1.62593e-05
-3.8133e-07
8.79114e-08
9.78153e-06
4.23739e-06
1.0204e-07
4.12636e-06
2.90142e-07
9.58214e-06
1.59696e-05
5.65779e-07
2.34639e-07
1.61223e-05
-4.01826e-07
9.07547e-08
9.71443e-06
4.20796e-06
1.04186e-07
4.09466e-06
2.92036e-07
9.51491e-06
1.58382e-05
5.61226e-07
2.3012e-07
1.59946e-05
-4.01765e-07
8.75795e-08
9.6455e-06
4.17298e-06
1.01252e-07
4.06255e-06
2.8395e-07
9.45084e-06
1.57206e-05
5.42475e-07
2.38797e-07
1.5886e-05
-4.20145e-07
9.07393e-08
9.58666e-06
4.14397e-06
1.02849e-07
4.03191e-06
2.84885e-07
9.39243e-06
1.56155e-05
5.39254e-07
2.33861e-07
1.57823e-05
-4.17309e-07
8.74293e-08
9.52637e-06
4.10995e-06
9.98175e-08
4.00085e-06
2.76566e-07
9.33715e-06
1.55209e-05
5.2123e-07
2.43377e-07
1.56964e-05
-4.36192e-07
9.08856e-08
9.47686e-06
4.08226e-06
1.01034e-07
3.97184e-06
2.76738e-07
9.28843e-06
1.54379e-05
5.17927e-07
2.38259e-07
1.56135e-05
-4.3179e-07
8.7426e-08
9.42618e-06
4.04963e-06
9.80623e-08
3.94198e-06
2.68617e-07
9.24254e-06
1.53626e-05
5.01511e-07
2.47561e-07
1.55455e-05
-4.49081e-07
9.08273e-08
9.38581e-06
4.02296e-06
9.93925e-08
3.91376e-06
2.69717e-07
9.20205e-06
1.52957e-05
5.00857e-07
2.40607e-07
1.54767e-05
-4.4093e-07
8.69485e-08
9.34189e-06
3.9906e-06
9.67178e-08
3.88375e-06
2.63352e-07
9.16139e-06
1.52328e-05
4.87911e-07
2.48823e-07
1.54199e-05
-4.55804e-07
9.02464e-08
9.30571e-06
3.96356e-06
9.76775e-08
3.8554e-06
2.64214e-07
9.12489e-06
1.5176e-05
4.88126e-07
2.4261e-07
1.53601e-05
-4.47338e-07
8.67389e-08
9.26606e-06
3.93128e-06
9.46648e-08
3.82566e-06
2.56927e-07
9.08896e-06
1.5121e-05
4.75437e-07
2.51579e-07
1.53102e-05
-4.62011e-07
9.02352e-08
9.23502e-06
3.90456e-06
9.52628e-08
3.79781e-06
2.56626e-07
9.05825e-06
1.50709e-05
4.74512e-07
2.46492e-07
1.52577e-05
-4.5521e-07
8.70556e-08
9.2018e-06
3.87295e-06
9.22296e-08
3.76861e-06
2.48993e-07
9.02891e-06
1.50236e-05
4.60899e-07
2.55253e-07
1.52158e-05
-4.70108e-07
9.03925e-08
9.17714e-06
3.84645e-06
9.26186e-08
3.74108e-06
2.48399e-07
9.00453e-06
1.49823e-05
4.58887e-07
2.50623e-07
1.51727e-05
-4.64556e-07
8.75564e-08
9.15026e-06
3.81543e-06
8.94471e-08
3.71254e-06
2.40918e-07
8.98117e-06
1.49447e-05
4.45067e-07
2.59191e-07
1.51405e-05
-4.79344e-07
9.10055e-08
9.13125e-06
3.78969e-06
8.9168e-08
3.68647e-06
2.39146e-07
8.96296e-06
1.49138e-05
4.41154e-07
2.57027e-07
1.51089e-05
-4.77238e-07
8.91959e-08
9.11202e-06
3.76118e-06
8.50624e-08
3.66146e-06
2.28829e-07
8.94922e-06
1.4889e-05
4.23368e-07
2.69208e-07
1.50912e-05
-4.97381e-07
9.36227e-08
9.10532e-06
3.74005e-06
8.32256e-08
3.64167e-06
2.22025e-07
8.94688e-06
1.48764e-05
4.10721e-07
2.73156e-07
1.50829e-05
-5.0624e-07
9.37752e-08
9.1062e-06
3.71989e-06
7.74521e-08
3.62678e-06
2.06337e-07
8.95704e-06
1.48799e-05
3.82495e-07
2.91477e-07
1.50988e-05
-5.37791e-07
1.00287e-07
9.12756e-06
3.71105e-06
7.35663e-08
3.6214e-06
1.93366e-07
8.987e-06
1.49066e-05
3.58069e-07
3.02878e-07
1.51359e-05
-5.60119e-07
1.02935e-07
9.16583e-06
3.7079e-06
6.52116e-08
3.62617e-06
1.70516e-07
9.0393e-06
1.49613e-05
3.17152e-07
3.31565e-07
1.52103e-05
-6.09092e-07
1.13285e-07
9.23601e-06
3.72262e-06
5.65189e-08
3.64922e-06
1.44535e-07
9.12644e-06
1.50558e-05
2.70639e-07
3.61364e-07
1.53277e-05
-6.6205e-07
1.22458e-07
9.34353e-06
3.75448e-06
3.93804e-08
3.69786e-06
9.86156e-08
9.26248e-06
1.52063e-05
1.91432e-07
4.26214e-07
1.5519e-05
-7.67837e-07
1.47483e-07
9.51916e-06
3.82787e-06
2.2092e-08
3.78832e-06
4.59372e-08
9.47346e-06
1.5312e-05
2.24409e-07
4.44731e-07
1.57963e-05
-9.57575e-07
1.4793e-07
9.74837e-06
3.91869e-06
4.47031e-08
3.85653e-06
4.766e-09
9.76666e-06
1.55549e-05
2.18301e-07
3.62224e-07
1.60113e-05
-8.46529e-07
1.94708e-07
9.91268e-06
4.03375e-06
1.12953e-07
3.90349e-06
7.3242e-08
9.93157e-06
1.59086e-05
1.49046e-07
4.11992e-07
1.63569e-05
-8.86953e-07
1.56634e-07
1.01663e-05
4.04275e-06
9.18089e-08
3.93335e-06
8.86905e-08
1.01494e-05
1.62318e-05
1.88355e-07
4.15136e-07
1.68186e-05
-1.02691e-06
1.57634e-07
1.03873e-05
4.07331e-06
-1.43691e-08
4.06909e-06
-8.61143e-08
1.04403e-05
1.67359e-05
-2.62093e-08
5.61493e-07
1.72335e-05
-1.08068e-06
1.52087e-07
1.08314e-05
4.20234e-06
-5.26527e-08
4.23517e-06
-1.56681e-07
1.09178e-05
1.74898e-05
-4.3092e-07
7.35956e-07
1.80457e-05
-1.3074e-06
2.43928e-07
1.13925e-05
4.459e-06
-1.78164e-07
4.61586e-06
-3.71815e-07
1.15689e-05
1.80736e-05
-4.09685e-07
7.70666e-07
1.88173e-05
-1.52172e-06
2.59638e-07
1.2063e-05
4.85358e-06
-1.14188e-07
4.94431e-06
-4.39115e-07
1.23688e-05
1.92013e-05
-8.28695e-07
9.4564e-07
2.00069e-05
-1.75693e-06
3.52771e-07
1.29418e-05
5.27314e-06
-2.16324e-07
5.46435e-06
-6.49827e-07
1.33528e-05
2.02958e-05
-9.48589e-07
1.06427e-06
2.11637e-05
-1.94316e-06
4.14791e-07
1.39789e-05
5.85362e-06
-3.27069e-07
6.15424e-06
-8.26509e-07
1.44527e-05
2.16764e-05
-1.35594e-06
1.23488e-06
2.2815e-05
-2.39151e-06
5.07898e-07
1.51533e-05
6.63526e-06
-4.41477e-07
7.0492e-06
-1.00839e-06
1.56924e-05
2.33712e-05
-1.58696e-06
1.51349e-06
2.44257e-05
-2.59188e-06
5.21842e-07
1.66556e-05
7.54345e-06
-5.92397e-07
8.10808e-06
-1.28275e-06
1.73167e-05
2.52722e-05
-2.1557e-06
2.00351e-06
2.62983e-05
-3.05726e-06
7.29682e-07
1.8561e-05
8.81037e-06
-8.06033e-07
9.58871e-06
-1.8323e-06
1.95571e-05
2.77156e-05
-3.27896e-06
3.29116e-06
2.95451e-05
-5.15272e-06
1.50433e-06
2.13128e-05
1.10656e-05
-2.2638e-06
1.33e-05
-4.62102e-06
2.36364e-05
3.23654e-05
-7.47749e-06
-1.9312e-05
1.56857e-05
3.59684e-05
-7.00447e-06
1.13062e-05
6.27483e-06
-2.33212e-06
8.59091e-06
-6.92156e-06
1.58789e-05
2.1166e-05
-1.24182e-05
4.32278e-06
2.46209e-05
-7.8033e-06
1.43446e-06
1.87446e-05
1.00058e-05
-1.04833e-06
1.10321e-05
-2.60237e-06
2.02732e-05
2.70231e-05
-5.03297e-06
2.49546e-06
2.92708e-05
-4.77373e-06
8.87504e-07
2.18551e-05
1.18971e-05
-1.36881e-06
1.32425e-05
-3.65083e-06
2.41096e-05
5.90217e-05
-3.34466e-05
2.81144e-05
4.81742e-05
-1.7318e-05
2.94309e-06
4.92417e-05
1.61622e-05
-2.18406e-05
3.79697e-05
-1.789e-05
4.52455e-05
5.49489e-05
-2.47098e-05
1.6555e-05
5.91288e-05
-2.07833e-05
8.0456e-06
5.37098e-05
4.59701e-05
-8.40561e-06
5.43258e-05
-1.41393e-05
5.93947e-05
6.33237e-05
-1.83832e-05
1.36688e-05
6.77828e-05
-1.81804e-05
7.32419e-06
6.56869e-05
6.15967e-05
-3.35815e-06
6.49003e-05
-7.1664e-06
6.94405e-05
8.2248e-05
-2.16972e-05
-1.27316e-05
5.25503e-05
4.2394e-05
-2.77824e-06
5.9446e-05
6.2074e-05
-3.38326e-06
6.54144e-05
-6.60579e-06
6.26357e-05
6.58667e-05
-1.99473e-05
1.36741e-05
7.0758e-05
-1.86032e-05
8.15001e-06
6.81219e-05
7.35208e-05
-8.23247e-06
8.17076e-05
-1.29834e-05
7.28318e-05
7.41321e-05
-1.63993e-05
1.28102e-05
7.85699e-05
-1.72905e-05
9.08364e-06
7.65171e-05
9.07454e-05
-9.70559e-06
0.000100406
-1.24164e-05
7.91888e-05
7.52395e-05
-9.12488e-06
2.11353e-05
8.72313e-05
-3.3164e-05
1.37124e-05
8.65744e-05
0.000114075
-1.42848e-05
0.000128316
-2.31788e-05
9.54314e-05
9.10931e-05
-2.70786e-05
2.12253e-05
0.000123356
-5.3533e-05
1.17507e-05
0.00010487
0.000140025
-2.10978e-06
0.000142097
1.23718e-05
9.0362e-05
7.5927e-05
5.97768e-05
4.5341e-06
9.70274e-05
-2.56508e-05
4.15754e-06
9.07193e-05
0.000146223
-6.98335e-06
0.000153178
-4.59201e-06
8.83105e-05
7.71392e-05
1.52788e-05
1.56914e-05
0.000123868
-6.24395e-05
7.48199e-06
9.65039e-05
0.000160634
-4.23446e-07
0.000161034
1.46595e-05
8.14087e-05
6.71506e-05
7.13652e-05
6.05761e-06
7.79999e-05
-1.69135e-05
4.21391e-06
8.32435e-05
0.000165229
-1.27382e-05
0.000177949
-2.15259e-05
9.20221e-05
9.02324e-05
-3.37671e-05
2.53171e-05
0.000100631
-3.57258e-05
1.59289e-05
0.000101401
0.00019386
-1.38899e-05
0.000207732
-2.02449e-05
0.000107746
0.000125246
-4.48714e-05
-9.70009e-07
7.98042e-05
4.64051e-05
8.99964e-06
9.77692e-05
0.000216716
-1.8675e-05
0.000235375
-2.50773e-05
0.000104165
9.78408e-05
-4.3119e-05
4.25916e-05
0.000113406
-5.81647e-05
2.84014e-05
0.000118348
0.000263761
-3.28952e-05
0.00029664
-4.33827e-05
0.000128827
0.000148872
-7.88588e-05
1.45975e-05
9.47443e-05
3.95237e-05
2.62612e-05
0.000117157
0.000322886
-4.31998e-05
0.00036607
-4.89906e-05
0.000122942
0.000113776
-6.80275e-05
6.93174e-05
0.000159758
-0.000115308
5.48679e-05
0.000137385
0.000420922
-4.8214e-05
0.00046912
-3.28835e-05
0.000122049
0.000103831
2.30376e-05
6.04688e-05
0.000152875
-0.000109518
4.82143e-05
0.000134299
0.000517319
-1.37786e-05
0.000531085
-4.75648e-06
0.000125273
0.000132637
1.54748e-05
-6.95436e-05
0.000129825
7.23526e-05
-6.42203e-05
0.000119947
0.000466854
0.000124424
0.000342424
0.000124624
0.000119745
0.00014062
0.000113827
-0.000190967
9.99429e-05
0.000231642
-0.000155208
8.39831e-05
0.000187215
0.000131978
5.52384e-05
0.000169857
4.61016e-05
5.95064e-05
0.000210289
-0.000107286
6.38127e-05
0.000102976
-7.82569e-05
1.70704e-05
-2.30135e-05
1.62387e-05
-3.92518e-05
4.72481e-05
-1.39371e-05
-6.40587e-07
0.000111699
1.39477e-05
-8.4971e-06
-6.09082e-06
1.61393e-05
-1.61286e-05
-2.31127e-05
-1.15246e-05
-1.15883e-05
-9.38464e-06
-1.82687e-05
-1.8783e-05
9.01232e-07
5.30269e-06
-2.19452e-05
-2.14174e-06
7.47273e-06
-2.0439e-05
-4.11616e-06
-2.4212e-07
-3.87411e-06
2.71192e-06
-2.33928e-05
-1.97637e-05
5.30107e-07
-1.40486e-05
-3.15813e-05
2.58655e-05
-6.87853e-06
-3.05628e-05
-1.07511e-05
9.80964e-06
-2.0561e-05
1.63639e-05
-3.7118e-05
-4.0823e-05
2.5604e-05
-1.08458e-05
-4.32997e-05
1.33211e-05
-8.07086e-06
-3.98942e-05
-2.86338e-05
8.02351e-06
-3.66579e-05
1.12832e-05
-4.31555e-05
-3.52668e-05
3.24907e-06
-2.32499e-05
-5.59416e-05
4.39227e-05
-1.15283e-05
-5.488e-05
-4.81862e-05
1.0153e-05
-5.83407e-05
1.74644e-05
-6.21957e-05
-6.39587e-05
2.54763e-05
-7.40401e-06
-6.56787e-05
9.12051e-06
-5.81977e-06
-6.37847e-05
-6.41603e-05
7.00597e-06
-7.11662e-05
9.33423e-06
-6.61169e-05
-5.30396e-05
-3.30671e-06
-2.61358e-05
-8.17149e-05
5.48089e-05
-1.33172e-05
-7.89396e-05
-8.44807e-05
1.75628e-05
-0.000102039
2.74824e-05
-8.88631e-05
-6.72072e-05
1.29722e-05
-4.89063e-05
-0.000111496
9.31941e-05
-2.19735e-05
-0.000115799
-0.000124004
1.58722e-05
-0.000139863
3.03611e-05
-0.000130287
-0.000125698
4.45668e-05
-7.436e-06
-0.000128505
1.02536e-05
-6.06677e-06
-0.000131652
-0.000145913
7.01337e-06
-0.000152905
8.14597e-06
-0.000132776
-0.000104128
-1.6221e-05
-4.03649e-05
-0.000164717
0.000100969
-1.54103e-05
-0.000157716
-0.000168288
5.82626e-06
-0.00017408
9.59309e-06
-0.000161455
-0.00015416
-9.24219e-07
1.60323e-05
-0.000145632
-2.45227e-05
6.76288e-06
-0.000152152
-0.00016728
-2.2951e-06
-0.000164945
-7.34032e-06
-0.000147073
-0.000117051
-3.5894e-05
-3.36206e-05
-0.000176187
9.27944e-05
-1.14174e-05
-0.000169233
-0.000176314
2.80482e-06
-0.000179063
5.0463e-06
-0.000171414
-0.000161023
-1.00442e-05
1.68273e-05
-0.000161403
-1.63836e-05
9.46953e-06
-0.000163996
-0.000169537
-1.46499e-05
-0.000154834
-2.62056e-05
-0.000152386
-0.000150676
-3.68763e-05
1.46418e-05
-0.000120414
-4.48663e-05
6.46536e-06
-0.000144163
-0.000148318
7.07638e-06
-0.000155338
2.76313e-05
-0.000164661
-0.000190276
9.75465e-05
3.18631e-05
-0.000153423
-6.86196e-05
1.53122e-05
-0.000148036
-0.000139965
-2.82796e-05
-0.000111633
-5.85496e-05
-0.000117709
-0.000140473
-7.14324e-05
3.87666e-05
-0.000119482
-5.97185e-05
6.86397e-05
-0.000147536
-4.29623e-05
3.68701e-05
-7.98062e-05
-1.04896e-05
-0.000100129
-0.00022783
9.79185e-05
1.91525e-05
-0.000104028
-0.000142859
8.74525e-06
-8.9674e-05
-7.10251e-05
-7.98051e-06
-6.30135e-05
-1.84521e-05
-7.91629e-05
-9.27803e-05
-2.96509e-05
2.23141e-05
-7.83343e-05
-3.67189e-05
9.84047e-06
-6.66555e-05
-5.31454e-05
-1.34913e-05
-3.96329e-05
-3.03214e-05
-4.98017e-05
-5.89002e-05
-4.97301e-05
-8.09181e-05
-0.000111541
0.000133594
-3.60572e-05
-9.46318e-05
-7.56635e-05
-7.53825e-06
-6.80897e-05
-1.69923e-05
-8.51297e-05
-9.92742e-05
-2.91959e-05
2.21627e-05
-8.49844e-05
-3.64049e-05
1.0059e-05
-7.29879e-05
-5.80009e-05
-1.10538e-05
-4.69223e-05
-2.49887e-05
-5.90225e-05
-6.90112e-05
-4.09247e-05
2.89913e-05
-5.08547e-05
-4.71256e-05
1.2848e-05
-4.28586e-05
-3.4056e-05
3.01909e-05
-6.4224e-05
6.80183e-05
-8.06596e-05
-9.51748e-05
0.000112369
1.85507e-05
-8.16733e-05
-3.19959e-05
8.13887e-06
-7.02057e-05
-5.60541e-05
-1.14031e-05
-4.46254e-05
-2.58346e-05