/*--------------------------------*- C++ -*----------------------------------*\
| =========                 |                                                 |
| \\      /  F ield         | OpenFOAM: The Open Source CFD Toolbox           |
|  \\    /   O peration     | Version:  v2006                                 |
|   \\  /    A nd           | Website:  www.openfoam.com                      |
|    \\/     M anipulation  |                                                 |
\*---------------------------------------------------------------------------*/
FoamFile
{
    version     2.0;
    format      ascii;
    class       volScalarField;
    location    "0.005";
    object      turbulenceProperties:I;
}
// * * * * * * * * * * * * * * * * * * * * * * * * * * * * * * * * * * * * * //

dimensions      [0 0 0 0 0 0 0];


internalField   nonuniform List<scalar> 
12716
(
0.150245
0.150221
0.150048
0.150053
0.150072
0.150131
0.15025
0.150371
0.150483
0.150554
0.150593
0.150601
0.150589
0.150561
0.150524
0.150481
0.150434
0.150383
0.150328
0.15027
0.150211
0.150148
0.150082
0.150014
0.149939
0.149851
0.149762
0.149677
0.149592
0.149509
0.149427
0.149346
0.149267
0.149191
0.149116
0.149044
0.148975
0.148909
0.148846
0.148786
0.14873
0.148677
0.148627
0.14858
0.148537
0.148498
0.148462
0.14843
0.148401
0.148377
0.148356
0.14834
0.148326
0.148315
0.14831
0.148315
0.148348
0.148436
0.148616
0.148922
0.149278
0.149538
0.149751
0.149865
0.149896
0.149765
0.149522
0.149356
0.149247
0.148704
0.144415
0.135926
0.142599
0.146184
0.141654
0.135207
0.128847
0.122666
0.127597
0.13627
0.131165
0.121249
0.117806
0.113821
0.11525
0.125972
0.121805
0.110833
0.111002
0.108765
0.106879
0.1179
0.115425
0.104674
0.107471
0.106317
0.102396
0.112989
0.111856
0.101621
0.105787
0.105176
0.100422
0.110457
0.110035
0.100299
0.104992
0.104624
0.0996234
0.10915
0.108969
0.0996842
0.104575
0.104273
0.0991868
0.108217
0.108019
0.0992176
0.104235
0.103918
0.0985664
0.107118
0.106797
0.0985038
0.103872
0.103581
0.0976811
0.10569
0.105294
0.0975981
0.103579
0.103378
0.0967753
0.104158
0.103787
0.0967614
0.103461
0.103375
0.0960982
0.102763
0.102529
0.0962002
0.103546
0.103558
0.0957537
0.101707
0.101642
0.0959712
0.103799
0.103872
0.0957113
0.101015
0.101066
0.0960033
0.104151
0.104246
0.0958395
0.100573
0.100681
0.096169
0.104535
0.104624
0.0960257
0.100237
0.100347
0.0963607
0.104902
0.104972
0.0961675
0.0998471
0.0999209
0.0964884
0.105237
0.105307
0.0962198
0.0993188
0.0993526
0.0965358
0.105577
0.105679
0.0962509
0.098749
0.0988239
0.0966257
0.106003
0.106199
0.0964425
0.0983499
0.0985368
0.0969178
0.106603
0.106891
0.0968892
0.0982621
0.0986355
0.0975015
0.107379
0.107761
0.0976913
0.0986519
0.0992651
0.0984614
0.108333
0.108792
0.0988754
0.0995984
0.100441
0.0998023
0.109437
0.109956
0.10042
0.101078
0.102133
0.101503
0.110672
0.111245
0.1023
0.103055
0.104303
0.103542
0.11204
0.112662
0.104482
0.105441
0.106859
0.105881
0.113539
0.114197
0.106916
0.108134
0.109686
0.10846
0.115151
0.115844
0.109516
0.110972
0.112642
0.111219
0.116897
0.117663
0.112319
0.11393
0.115805
0.114272
0.11887
0.119758
0.115547
0.117241
0.119425
0.117853
0.121169
0.122229
0.119399
0.121115
0.123678
0.122157
0.123893
0.125211
0.12403
0.125639
0.128653
0.127376
0.127198
0.128857
0.129697
0.1309
0.134451
0.133655
0.131329
0.133377
0.136546
0.136981
0.14099
0.141175
0.136226
0.141142
0.145156
0.144095
0.149081
0.151775
0.149101
0.159461
0.158402
0.153786
0.160938
0.168652
0.174925
0.199087
0.181675
0.16913
0.183365
0.206687
0.247767
0.35242
0.2345
0.203111
0.21757
0.260042
0.479809
0.169828
0.499892
0.249142
0.355875
1
0.150714
0.135538
0.365179
0.718977
1
0.234155
0.127664
0.119932
0.167974
0.793496
0.47092
0.139273
0.114675
0.110235
0.127536
0.370714
0.343282
0.127253
0.107712
0.107222
0.132486
0.332456
0.327517
0.140415
0.108392
0.10784
0.128483
0.276869
0.248216
0.118811
0.107084
0.104617
0.100206
0.201074
0.180642
0.0926846
0.102407
0.0982911
0.0778749
0.151713
0.143785
0.0748731
0.0953356
0.091693
0.0681175
0.126487
0.125738
0.0707083
0.088784
0.0859319
0.07292
0.124646
0.139262
0.086527
0.0840697
0.0956118
0.121786
0.180292
0.257997
0.207453
0.148871
1
0.667827
0.464004
0.832095
0.427729
0.318381
0.210954
0.207204
0.683322
0.583665
0.162431
0.180334
0.166321
0.125058
0.450647
0.419279
0.110094
0.161627
0.162207
0.104262
0.432897
0.624625
0.116565
0.165757
0.169144
0.15065
1
1
0.211561
0.175849
0.183886
0.333274
0.763484
0.438744
0.720363
0.19289
0.209053
1
0.311582
0.243984
0.599484
0.241584
0.330597
0.370018
0.20386
0.177574
0.282853
0.791217
0.834257
0.237755
0.159
0.145271
0.209287
0.325808
0.230981
0.190902
0.134698
0.126513
0.176796
0.192577
0.173
0.166916
0.119941
0.114641
0.158059
0.160384
0.152347
0.151901
0.11031
0.10676
0.145961
0.146235
0.142144
0.141744
0.104011
0.101842
0.137507
0.138437
0.135478
0.134503
0.100465
0.0992349
0.131285
0.132598
0.130352
0.12925
0.0985514
0.0977276
0.127033
0.128278
0.126765
0.125989
0.0972494
0.0964805
0.124619
0.125316
0.124217
0.123849
0.0958194
0.09511
0.122615
0.122923
0.121899
0.121951
0.0947185
0.0944341
0.12097
0.120754
0.119849
0.120518
0.094337
0.0943312
0.119722
0.118834
0.118014
0.119201
0.094333
0.0943406
0.11836
0.117102
0.116325
0.117495
0.0942096
0.0941071
0.116451
0.115474
0.114748
0.11541
0.0938861
0.0937893
0.114256
0.114016
0.113443
0.113218
0.0936797
0.0934207
0.112118
0.112905
0.112538
0.111147
0.0928694
0.0922955
0.110046
0.112117
0.11187
0.109168
0.0916894
0.0911214
0.108223
0.111539
0.111364
0.107647
0.0905949
0.0901428
0.10692
0.111084
0.110962
0.106653
0.0899054
0.0897266
0.106156
0.110732
0.110694
0.106217
0.0899195
0.090044
0.105932
0.110536
0.110632
0.106384
0.0906092
0.0909455
0.106446
0.110645
0.110928
0.107313
0.0917331
0.0922511
0.107731
0.111075
0.11142
0.108935
0.0933071
0.0941183
0.109693
0.111578
0.112032
0.111332
0.0955374
0.0963825
0.112433
0.112262
0.112638
0.114149
0.0967046
0.0963435
0.114783
0.112643
0.112454
0.114967
0.0945117
0.0919004
0.113664
0.11284
0.115985
0.109408
0.0883157
0.0834604
0.0992333
0.131945
0.0764566
0.0750426
0.0743098
0.0748595
0.0757203
0.0772618
0.0783632
0.0797312
0.0807267
0.0819033
0.082743
0.0834553
0.0835396
0.0823298
0.0797357
0.0755527
0.0717345
0.0693194
0.0685931
0.0685773
0.0693713
0.0683345
0.0682463
0.0660606
0.065159
0.0668778
0.104614
0.125828
0.0714977
0.0660653
0.0654416
0.0689369
0.138739
0.142792
0.0615008
0.0596263
0.0554121
0.0577928
0.140798
0.139929
0.0531004
0.0494003
0.0472163
0.0504776
0.138928
0.137786
0.0464505
0.0431254
0.0415105
0.0445461
0.136911
0.136171
0.0418278
0.0393809
0.0399218
0.0416132
0.135701
0.135079
0.0411935
0.0402475
0.0418501
0.0421168
0.134664
0.134109
0.0426248
0.0428284
0.0450727
0.0434273
0.133684
0.133047
0.0430366
0.0458477
0.0472686
0.0433291
0.132658
0.132051
0.0422074
0.0477045
0.0486668
0.0427496
0.13167
0.131178
0.0422718
0.0491653
0.0505248
0.0432832
0.13088
0.130552
0.0437247
0.0515073
0.0543223
0.0457486
0.130427
0.130263
0.0467939
0.0563852
0.0611662
0.0505868
0.1303
0.130455
0.0518557
0.0640368
0.0698524
0.0566357
0.130549
0.130805
0.0576138
0.072815
0.0782171
0.0623141
0.130891
0.131111
0.0628159
0.080661
0.0849154
0.0668718
0.131184
0.131355
0.0669573
0.0867661
0.089881
0.0703033
0.13136
0.131456
0.0699276
0.0911651
0.0931852
0.0723875
0.131388
0.131438
0.0717696
0.0940806
0.0953632
0.0738278
0.131334
0.13135
0.0729987
0.0960374
0.0969163
0.0747074
0.131237
0.131237
0.0738092
0.0974439
0.0980163
0.075449
0.131122
0.131112
0.0744017
0.0984258
0.0988571
0.0759436
0.131023
0.131014
0.0748795
0.0991906
0.0994597
0.07639
0.130926
0.130922
0.0752077
0.0996298
0.0998359
0.0766863
0.130883
0.1309
0.0755715
0.0999953
0.100176
0.0770971
0.130868
0.130897
0.0759089
0.100339
0.100539
0.0773961
0.130913
0.130957
0.0762196
0.10065
0.100745
0.0776945
0.130971
0.131031
0.0764182
0.100733
0.100831
0.0778598
0.1311
0.131194
0.0766422
0.100806
0.100839
0.0781244
0.13127
0.131393
0.0768672
0.100795
0.100853
0.0783667
0.131535
0.131701
0.0772012
0.1009
0.10093
0.0787612
0.131851
0.132049
0.0775626
0.101036
0.101108
0.0791168
0.132258
0.132492
0.0779515
0.101272
0.101305
0.0794854
0.132696
0.132958
0.0782013
0.101361
0.101313
0.0796485
0.133211
0.133518
0.078372
0.101243
0.101101
0.0798027
0.133767
0.134122
0.0784646
0.100949
0.100764
0.0798511
0.134424
0.134842
0.0785505
0.100601
0.10031
0.0799125
0.135135
0.135612
0.078531
0.100069
0.099691
0.0797831
0.13593
0.136476
0.0784028
0.0993419
0.098777
0.0795825
0.136764
0.137397
0.0781267
0.0982304
0.0974785
0.0791695
0.137681
0.138415
0.0777683
0.0967774
0.0957695
0.078785
0.138602
0.139401
0.0772709
0.0948126
0.0934816
0.0779993
0.139595
0.140644
0.0763101
0.0924684
0.091392
0.0769857
0.140485
0.141533
0.0752505
0.0903596
0.0893394
0.0758643
0.141681
0.142846
0.0744706
0.0884412
0.087432
0.0755754
0.142993
0.143962
0.0753268
0.0869867
0.0859436
0.0769317
0.143935
0.145089
0.076538
0.085169
0.0840696
0.0780302
0.144812
0.145256
0.0777427
0.0833806
0.0819956
0.0789409
0.146126
0.146932
0.0785292
0.0810531
0.0797817
0.0796406
0.146211
0.146506
0.0791637
0.0788081
0.0773435
0.0800041
0.146581
0.146387
0.0793511
0.0760776
0.0744838
0.0798553
0.146131
0.145791
0.0789741
0.0731664
0.0715137
0.0789506
0.145124
0.144352
0.0782877
0.0699784
0.0680362
0.0769427
0.142582
0.142288
0.0770679
0.0663487
0.0643944
0.0753001
0.139226
0.127611
0.0756313
0.0588894
0.0645231
0.0783637
0.141598
0.143766
0.0698564
0.0604351
0.0530759
0.0617223
0.140004
0.13932
0.05716
0.0496817
0.0450912
0.0553098
0.139164
0.134746
0.0521487
0.0425831
0.0405226
0.0464887
0.131801
0.0851866
0.0422289
0.0391889
0.0379206
0.0395754
0.0822941
0.0785629
0.0380199
0.0369011
0.0361255
0.0367485
0.0748592
0.0721218
0.0336122
0.0353489
0.0346749
0.0365301
0.0727424
0.073414
0.0355363
0.0340552
0.0333227
0.0343032
0.0696989
0.0667885
0.0329741
0.0324391
0.0318561
0.0320276
0.0634277
0.0605158
0.0311186
0.030754
0.0304017
0.0302168
0.056804
0.0534064
0.0285875
0.0294848
0.0295313
0.0278903
0.0504248
0.0490869
0.0263078
0.0277446
0.0274608
0.0259422
0.0478412
0.0465297
0.0245861
0.025991
0.0250965
0.0240451
0.0446232
0.0436019
0.0227123
0.0242867
0.0232683
0.0222384
0.042551
0.0402841
0.0214109
0.0222737
0.0213494
0.0200354
0.0373596
0.0345387
0.0195472
0.0208484
0.0197273
0.0184128
0.0324868
0.0302432
0.0179141
0.0191096
0.0183369
0.0171063
0.0274583
0.0247641
0.016612
0.0179831
0.0172437
0.0159796
0.0227173
0.0206781
0.0153038
0.0166846
0.0163919
0.0153738
0.0187634
0.0172675
0.0145517
0.0159862
0.0157947
0.0148756
0.0159676
0.0151173
0.0144264
0.0158098
0.0157133
0.0149437
0.0148238
0.0158779
0.01713
0.0167608
0.0189925
0.0198958
0.0190245
0.027678
0.027386
0.0221522
0.0369111
0.0548253
0.0712505
0.161547
0.364606
0.0899885
0.708638
0.272065
0.205451
0.264081
0.235384
0.347377
0.295064
0.212983
0.414958
1
0.189972
0.21521
0.205328
0.188254
0.305262
0.261819
0.183651
0.188196
0.170326
0.166445
0.212548
0.17588
0.153143
0.160987
0.15484
0.142625
0.155165
0.138988
0.134433
0.151986
0.14082
0.126167
0.128177
0.120167
0.121217
0.13338
0.130611
0.117733
0.114297
0.109816
0.116279
0.13585
0.139693
0.114414
0.10673
0.104557
0.116957
0.155596
0.15342
0.11416
0.102215
0.100235
0.112636
0.149272
0.14745
0.111713
0.0984318
0.0970667
0.116066
0.167556
0.153931
0.110405
0.0950646
0.0936056
0.105812
0.145973
0.140646
0.104959
0.0925341
0.0917226
0.11053
0.161198
0.15215
0.106114
0.0901258
0.0882653
0.100526
0.146319
0.136784
0.0951316
0.0866941
0.0860123
0.0938188
0.131062
0.14956
0.0981315
0.085159
0.0829824
0.086774
0.128081
0.113935
0.0758472
0.0824193
0.091276
0.0746005
0.110782
0.120964
0.0757495
0.0882049
0.0907412
0.0709366
0.0896347
0.0950126
0.0753246
0.0929655
0.0941528
0.0750956
0.0906398
0.0877516
0.0767988
0.0911484
0.0891
0.0824114
0.117163
0.100539
0.0739822
0.0917433
0.095178
0.0747202
0.0946441
0.0925399
0.0766829
0.0979865
0.0953277
0.0794533
0.0904736
0.121334
0.086431
0.0924684
0.0956575
0.077172
0.102698
0.0960962
0.078481
0.0988669
0.0970453
0.0806699
0.0927897
0.125258
0.08898
0.0941931
0.0989938
0.0790237
0.105919
0.0981735
0.0810402
0.104888
0.105568
0.0848258
0.0971198
0.132651
0.0939027
0.103758
0.110509
0.0837133
0.113996
0.112581
0.0870379
0.11568
0.119441
0.0903408
0.110849
0.108021
0.0949469
0.118078
0.114857
0.10477
0.145239
0.124924
0.092536
0.117414
0.120969
0.0945066
0.116504
0.111501
0.0977379
0.119659
0.11719
0.110592
0.151063
0.132919
0.0977342
0.120656
0.124506
0.100854
0.125461
0.121316
0.104323
0.122511
0.120114
0.121262
0.166584
0.144345
0.105324
0.123172
0.129662
0.108236
0.136209
0.132554
0.113782
0.130924
0.131325
0.136104
0.18336
0.164317
0.118907
0.134284
0.138634
0.122338
0.1563
0.151689
0.126784
0.138574
0.139799
0.154891
0.210397
0.183634
0.131286
0.139722
0.143334
0.131229
0.170689
0.162215
0.133866
0.14183
0.143399
0.168355
0.222969
0.190551
0.139022
0.139046
0.138777
0.134638
0.171113
0.243968
0.172344
0.14185
0.138851
0.136989
0.201605
0.183989
0.136598
0.145416
0.148005
0.140361
0.179824
0.263254
0.184568
0.152084
0.147418
0.151164
0.226858
0.2068
0.149233
0.150892
0.152914
0.151775
0.195304
0.289202
0.213933
0.164252
0.157008
0.175402
0.25031
0.234195
0.173948
0.162179
0.183364
0.262249
0.359182
0.329345
0.220472
0.170836
0.175124
0.222856
0.316663
0.312006
0.226633
0.188802
0.222457
0.353728
0.469479
0.442306
0.30499
0.197563
0.210575
0.302903
0.435052
0.690177
0.488812
0.27274
0.22064
0.405674
0.657047
0.58988
0.362816
0.212075
0.223107
0.337325
0.56515
1
0.670146
0.332376
0.250142
0.512045
0.881447
0.893188
0.501479
0.283417
0.484584
1
1
1
1
0.443214
0.507442
1
1
1
1
0.65306
1
1
1
1
1
1
1
1
1
0.836888
0.915778
0.824601
0.561459
0.729062
0.711377
0.594243
0.539997
0.401988
0.428474
0.579375
0.585891
0.48786
0.453731
0.305261
0.242904
0.318022
0.395746
0.421518
0.396733
0.294276
0.236242
0.334572
0.370574
0.297843
0.237675
0.204255
0.238068
0.307146
0.330107
0.299467
0.266422
0.200329
0.183405
0.19398
0.236287
0.280069
0.258648
0.207282
0.181713
0.222379
0.253646
0.234389
0.199055
0.165051
0.162584
0.150958
0.181192
0.221949
0.202737
0.17309
0.157128
0.182315
0.205728
0.158498
0.137386
0.154441
0.15528
0.172928
0.190814
0.176834
0.155884
0.143477
0.143891
0.122698
0.136869
0.162553
0.147131
0.140362
0.132814
0.134184
0.151756
0.117178
0.110569
0.135482
0.130188
0.12977
0.143225
0.132773
0.116485
0.124131
0.122889
0.108182
0.121986
0.0959148
0.0956099
0.130672
0.120098
0.107375
0.121204
0.113269
0.101234
0.117505
0.124063
0.0913895
0.0908676
0.108735
0.0975675
0.113041
0.111686
0.0924047
0.101461
0.084061
0.0857596
0.118805
0.106247
0.0881922
0.0959328
0.0897667
0.083933
0.106363
0.114385
0.0799117
0.0763152
0.0868265
0.0805063
0.0998971
0.100661
0.0768322
0.0813569
0.0709592
0.0752046
0.109337
0.095241
0.0742988
0.0796024
0.0748906
0.0722455
0.0967186
0.105467
0.0716525
0.0670404
0.0738874
0.069765
0.0918873
0.0933617
0.0672428
0.0681311
0.0653109
0.0671688
0.0968178
0.107595
0.0684525
0.061846
0.0629901
0.0625546
0.0902267
0.0930915
0.0605793
0.0596529
0.0574787
0.0672308
0.103016
0.0870647
0.0590413
0.0578838
0.0553491
0.0575237
0.0901423
0.0998516
0.0654685
0.0546358
0.0548464
0.0565212
0.0844068
0.0875526
0.0553949
0.0519974
0.0525044
0.0644518
0.0967587
0.082038
0.0538732
0.0519085
0.0492643
0.0528749
0.0851848
0.0942999
0.062957
0.0501459
0.0491972
0.0514648
0.0796747
0.0829235
0.0508285
0.0468806
0.0481945
0.0618277
0.0918933
0.0779587
0.049404
0.0468813
0.0448031
0.0488622
0.0812184
0.089809
0.0605522
0.046381
0.0448266
0.0475094
0.0757543
0.0789814
0.0471228
0.0429784
0.0449375
0.0594064
0.0875456
0.0741913
0.0459823
0.043159
0.0414492
0.0455831
0.0773806
0.0856963
0.0581349
0.0436121
0.0415821
0.0444546
0.0721968
0.0755683
0.0443263
0.0400495
0.042346
0.0569642
0.0836712
0.0704647
0.04319
0.0402948
0.0390516
0.0440309
0.0733259
0.0777838
0.0452168
0.038118
0.0422449
0.0591541
0.0873287
0.0729481
0.042521
0.0388424
0.0375591
0.0423156
0.0765829
0.0851655
0.0571199
0.0412664
0.0378091
0.0412216
0.0709973
0.0748484
0.0413709
0.0365932
0.0406813
0.0563759
0.0833289
0.0696229
0.0403746
0.0368033
0.0357198
0.0407335
0.0736473
0.0820229
0.055772
0.0400477
0.0359472
0.039647
0.0685502
0.0725815
0.0399335
0.0349229
0.0394976
0.0552225
0.0807786
0.0673794
0.0389589
0.0351352
0.0342482
0.0395237
0.0715877
0.079732
0.0547373
0.0390145
0.0344485
0.038419
0.0664646
0.0705975
0.0388182
0.0335882
0.0385384
0.0540568
0.0785019
0.065692
0.0378452
0.0337868
0.0329953
0.0383956
0.0699033
0.0776064
0.0535888
0.0381722
0.0332583
0.0374
0.0648463
0.0690379
0.0378571
0.0324961
0.0378874
0.0530352
0.07649
0.0638585
0.036884
0.0326646
0.0319424
0.0374475
0.0680109
0.0754191
0.0524906
0.0375083
0.0320552
0.0364877
0.0632008
0.0674606
0.0369156
0.0313814
0.0370142
0.0518835
0.0750132
0.062828
0.0358214
0.0313416
0.0308137
0.0376936
0.0665744
0.0718739
0.0400988
0.0308159
0.0391087
0.0558297
0.0798542
0.066277
0.0370629
0.0315762
0.0308607
0.0371862
0.0707011
0.0783607
0.0534781
0.0379184
0.0306448
0.0356468
0.0649508
0.0695704
0.0365463
0.0301422
0.0375223
0.0533101
0.0773365
0.0644795
0.0356124
0.0303353
0.0298265
0.0363126
0.0690974
0.0769004
0.0528311
0.0372886
0.0298609
0.0350639
0.0639468
0.0684851
0.0359163
0.0294066
0.0369519
0.0525164
0.0762867
0.0636529
0.0349134
0.0296194
0.0291133
0.0354901
0.068035
0.0759454
0.052203
0.0367294
0.0291713
0.0345284
0.0633337
0.0679629
0.0355632
0.0288395
0.0367079
0.0522783
0.0758279
0.0634321
0.0346983
0.0291189
0.028722
0.0353331
0.0678402
0.0756746
0.0517414
0.0363895
0.0285039
0.0340326
0.0630044
0.0666478
0.0361041
0.0282927
0.028647
0.038718
0.0719235
0.0796065
0.055489
0.0384987
0.0293342
0.0356066
0.0656865
0.0704151
0.0360741
0.0289314
0.0377352
0.0536856
0.0784248
0.0649442
0.0348565
0.0289861
0.0287764
0.035863
0.0695322
0.0773364
0.0533725
0.0375517
0.0288279
0.0347752
0.0642737
0.0686886
0.0355843
0.028573
0.037232
0.0527215
0.0764601
0.0635606
0.0343166
0.0285087
0.0283134
0.0352318
0.0678152
0.0757027
0.0524283
0.036969
0.0282608
0.0342874
0.0637798
0.0677159
0.0367096
0.0283752
0.0288073
0.0390911
0.0730724
0.080923
0.0561548
0.0391688
0.0289905
0.0357399
0.0666208
0.0711957
0.036366
0.0286901
0.0380828
0.0539942
0.0790442
0.0653956
0.0348483
0.0285619
0.0282542
0.0353341
0.0696537
0.0773776
0.0529354
0.0372124
0.0277722
0.0339685
0.0642413
0.0681091
0.0363547
0.0277937
0.0285008
0.039066
0.0735429
0.0813972
0.0566451
0.0393908
0.0288629
0.0357743
0.0670139
0.0715035
0.0362208
0.0285403
0.0381274
0.0541785
0.0793188
0.0654757
0.0346584
0.0283368
0.0282355
0.0357834
0.0699701
0.0774965
0.0533638
0.0376015
0.027952
0.0343044
0.0644362
0.0685582
0.0369325
0.0281717
0.0287026
0.0392571
0.0741088
0.0820683
0.0567985
0.0395924
0.0288345
0.0357949
0.0674087
0.0719896
0.0363929
0.0285983
0.0383755
0.0543791
0.0797674
0.0658547
0.03484
0.0283117
0.028058
0.0353346
0.070128
0.0777182
0.0528479
0.0371979
0.0273061
0.0336053
0.0639303
0.0674579
0.0358431
0.027302
0.0280845
0.0387203
0.0729461
0.0809722
0.0562868
0.0391962
0.0283487
0.0353661
0.0666519
0.0709797
0.0358757
0.0281021
0.0377265
0.0535787
0.0785866
0.0647813
0.0340537
0.027488
0.0275708
0.0365876
0.0683083
0.0731404
0.0389622
0.0283131
0.0394534
0.0563503
0.0805984
0.0666757
0.0353818
0.0284245
0.0281768
0.0356951
0.0712214
0.0791786
0.0536526
0.0378137
0.0274101
0.0340135
0.0651498
0.0687157
0.0362982
0.0274731
0.0282549
0.0389976
0.0737745
0.0811859
0.0564062
0.0393295
0.0280953
0.0352337
0.0667206
0.0704531
0.0376049
0.0282461
0.0284634
0.03885
0.0748826
0.0827451
0.0567486
0.0395482
0.0282944
0.035475
0.0679221
0.0723892
0.0360445
0.0281337
0.0379787
0.0540212
0.079932
0.0655707
0.034036
0.0273069
0.0272411
0.0359734
0.0688536
0.0735501
0.0381212
0.0277491
0.0383868
0.0554785
0.0806551
0.0651734
0.034097
0.027198
0.0272232
0.0362988
0.0686367
0.0739965
0.0388594
0.0279642
0.0391098
0.0563062
0.0818851
0.0670703
0.034847
0.0276336
0.0276114
0.0367244
0.0706031
0.0752072
0.0385877
0.0280372
0.0388414
0.0560879
0.0821236
0.0661838
0.0343842
0.0273274
0.0273108
0.0364038
0.0692567
0.0741144
0.0387142
0.0279293
0.0390805
0.0563249
0.0821262
0.0673858
0.0348624
0.0275637
0.0274203
0.0353618
0.0712724
0.0756079
0.0410953
0.0286219
0.0283046
0.0411782
0.0796037
0.0860761
0.0579003
0.0396718
0.0274657
0.0347219
0.0681103
0.0718832
0.0369269
0.0275023
0.0280169
0.0389982
0.077166
0.0847096
0.0570487
0.0392663
0.0273545
0.0348832
0.0684082
0.0715017
0.0345718
0.0268312
0.0276127
0.0398139
0.0758701
0.0781757
0.0385032
0.0271223
0.0386446
0.057164
0.0852575
0.0688903
0.0344488
0.0266961
0.0263507
0.0342377
0.0729155
0.0769754
0.0405716
0.0277983
0.0277858
0.0413198
0.0810058
0.0869806
0.0582657
0.0395067
0.0269051
0.0344471
0.0678229
0.0719043
0.0358002
0.0267149
0.0270656
0.0384294
0.0769007
0.0819385
0.0418168
0.027927
0.0272582
0.0410616
0.085481
0.0910318
0.0583682
0.0387841
0.0259433
0.0335157
0.0687565
0.072485
0.0347394
0.0255353
0.0255231
0.0356182
0.0772198
0.0817093
0.0393101
0.0260308
0.0256121
0.0388249
0.0846983
0.0870943
0.0436224
0.0273135
0.0267186
0.0434088
0.0900139
0.0972246
0.0620131
0.0403511
0.0265085
0.0354926
0.0736509
0.0754126
0.0348591
0.0261209
0.0265931
0.0395136
0.0795779
0.0845913
0.0399069
0.0264751
0.0264968
0.0407145
0.0883463
0.0914958
0.0417737
0.0264071
0.0269309
0.0442206
0.0953272
0.0984141
0.0440928
0.0267213
0.0279083
0.0477548
0.101696
0.105027
0.0492209
0.028285
0.0295123
0.0523491
0.106982
0.107904
0.0539055
0.0298766
0.0312657
0.0571834
0.108367
0.108502
0.0587943
0.0316237
0.0332744
0.0622262
0.108599
0.108575
0.0637563
0.0336807
0.0355933
0.0669567
0.108578
0.10853
0.068446
0.0361022
0.0382023
0.071225
0.108502
0.108501
0.0730476
0.0387799
0.0412319
0.0751205
0.108479
0.108523
0.0769607
0.0419061
0.0445703
0.078622
0.108512
0.108592
0.0802685
0.0452303
0.0479396
0.0817754
0.108597
0.108734
0.0832539
0.0486333
0.0513033
0.0846206
0.108732
0.10892
0.0859391
0.0519752
0.0546452
0.0871739
0.108892
0.109126
0.0883379
0.0553103
0.0579107
0.0894273
0.109087
0.109336
0.090392
0.0584975
0.0609806
0.0913617
0.1093
0.109521
0.0921819
0.0615124
0.0638404
0.0930309
0.109525
0.109701
0.0936833
0.0642721
0.066445
0.0944312
0.109731
0.109867
0.0949736
0.0668038
0.0688044
0.0956248
0.109933
0.110028
0.096051
0.0690571
0.0708867
0.0965946
0.110091
0.11015
0.0969573
0.0710629
0.0726949
0.0974065
0.110218
0.110252
0.0976757
0.0727891
0.0742665
0.0980553
0.110308
0.110318
0.098272
0.0742989
0.0756129
0.0985941
0.110374
0.11037
0.0987373
0.0755763
0.0767605
0.0990047
0.11041
0.110389
0.0991116
0.0766735
0.0777231
0.0993344
0.110426
0.110398
0.0993839
0.0775798
0.078527
0.0995651
0.11042
0.110379
0.0995901
0.0783465
0.0791881
0.0997409
0.110397
0.110352
0.099716
0.078965
0.0797289
0.0998379
0.110356
0.110301
0.0997928
0.07948
0.0801621
0.0998916
0.110301
0.110243
0.0998061
0.0798812
0.0805044
0.0998771
0.110231
0.110164
0.0997901
0.0802077
0.0807681
0.0998383
0.110149
0.11008
0.0997186
0.0804481
0.0809683
0.0997475
0.110057
0.109981
0.0996314
0.0806386
0.0811265
0.0996462
0.109959
0.109884
0.0995045
0.0807533
0.0812209
0.0995128
0.109861
0.109784
0.0993813
0.0808625
0.081296
0.0993811
0.109761
0.109684
0.0992261
0.0809211
0.0813372
0.0992187
0.109662
0.109585
0.0990771
0.0809604
0.0813527
0.0990654
0.109564
0.109485
0.0989025
0.0809645
0.0813443
0.0988858
0.109463
0.109383
0.0987372
0.0809581
0.0813197
0.0987205
0.109366
0.109288
0.098554
0.0809278
0.0812825
0.0985366
0.109272
0.109194
0.0983858
0.080897
0.0812367
0.0983704
0.109181
0.109104
0.0982039
0.0808488
0.0811851
0.0981902
0.109094
0.109019
0.098042
0.0808051
0.081129
0.0980301
0.109012
0.108939
0.0978718
0.0807459
0.0810677
0.0978593
0.108934
0.108863
0.0977204
0.0806914
0.081001
0.0977088
0.108861
0.108791
0.097559
0.0806218
0.0809306
0.0975482
0.108789
0.108719
0.0974142
0.0805584
0.0808561
0.0974032
0.10872
0.10865
0.0972583
0.0804819
0.0807801
0.0972491
0.108651
0.10858
0.0971175
0.0804127
0.0806998
0.0971069
0.108581
0.108509
0.0969629
0.0803291
0.0806133
0.0969534
0.108508
0.108431
0.0968187
0.0802457
0.0805149
0.0968047
0.108426
0.108343
0.096652
0.0801416
0.0804061
0.0966349
0.108333
0.108246
0.0964885
0.0800357
0.0802861
0.096468
0.108236
0.108152
0.0963094
0.0799136
0.0801628
0.0962889
0.108139
0.10805
0.0961368
0.079794
0.0800349
0.0961171
0.108041
0.107967
0.0959624
0.0796716
0.0799156
0.0959484
0.107962
0.107884
0.0958039
0.0795585
0.0797982
0.0957947
0.107888
0.107833
0.0956555
0.0794525
0.0797001
0.0956575
0.107846
0.107782
0.0955287
0.0793608
0.0796033
0.0955337
0.1078
0.107752
0.0954071
0.0792724
0.0795228
0.0954227
0.107779
0.10772
0.0953056
0.0791963
0.0794379
0.0953206
0.107746
0.107697
0.0952003
0.0791136
0.0793628
0.0952229
0.107729
0.107673
0.0951143
0.0790436
0.0792846
0.0951364
0.107704
0.107656
0.0950222
0.0789663
0.0792146
0.0950503
0.10769
0.107637
0.0949482
0.0789025
0.0791439
0.0949763
0.107672
0.107624
0.0948679
0.078832
0.0790805
0.0949008
0.10766
0.107609
0.0948043
0.078775
0.0790176
0.0948376
0.107646
0.107599
0.0947346
0.078713
0.0789626
0.0947718
0.107635
0.107584
0.0946798
0.0786633
0.0789063
0.094717
0.107621
0.107576
0.0946181
0.0786071
0.0788568
0.0946586
0.107611
0.107561
0.0945699
0.0785624
0.0788053
0.0946098
0.107598
0.107553
0.0945138
0.0785104
0.07876
0.0945566
0.107587
0.107537
0.0944702
0.0784698
0.0787124
0.0945119
0.107573
0.107528
0.094418
0.0784213
0.0786701
0.0944624
0.107562
0.107512
0.0943775
0.0783828
0.0786242
0.0944205
0.107547
0.107501
0.0943279
0.0783358
0.0785837
0.0943732
0.107534
0.107483
0.0942894
0.0782991
0.0785398
0.0943331
0.107517
0.107471
0.0942413
0.078254
0.0785009
0.0942872
0.107503
0.10745
0.0942037
0.0782182
0.0784574
0.0942476
0.107484
0.107436
0.0941561
0.078173
0.0784174
0.0942011
0.107466
0.107409
0.0941153
0.0781343
0.0783722
0.0941582
0.10744
0.107391
0.0940665
0.0780899
0.0783324
0.0941103
0.10742
0.107357
0.0940215
0.0780487
0.0782842
0.0940625
0.107387
0.107337
0.0939699
0.0780023
0.0782416
0.0940117
0.107363
0.107295
0.0939193
0.077956
0.0781883
0.0939574
0.107323
0.107269
0.0938627
0.0779063
0.0781423
0.0939016
0.107294
0.107218
0.093804
0.0778546
0.0780832
0.0938378
0.107243
0.107184
0.0937384
0.0777996
0.078031
0.0937729
0.107206
0.107123
0.0936696
0.0777398
0.0779624
0.0936978
0.107145
0.107079
0.0935922
0.0776747
0.0779003
0.0936211
0.1071
0.10701
0.0935119
0.0776056
0.0778232
0.0935353
0.107029
0.106959
0.0934238
0.0775323
0.0777529
0.0934484
0.106979
0.10689
0.0933353
0.0774557
0.0776694
0.0933562
0.10691
0.106841
0.0932415
0.0773769
0.0775937
0.0932636
0.106861
0.106775
0.0931473
0.0772946
0.0775041
0.0931652
0.106792
0.106723
0.0930456
0.0772079
0.0774189
0.0930634
0.10674
0.106653
0.0929412
0.0771147
0.0773173
0.0929542
0.106665
0.106594
0.0928272
0.0770148
0.0772187
0.0928391
0.106604
0.106514
0.0927089
0.0769085
0.0771045
0.0927157
0.10652
0.106445
0.0925791
0.0767949
0.0769908
0.0925836
0.106446
0.106356
0.0924443
0.0766757
0.0768559
0.0924444
0.106358
0.10627
0.0922972
0.0765377
0.0767099
0.0922869
0.106271
0.106142
0.092075
0.0763167
0.0764294
0.0920628
0.106145
0.105837
0.0916668
0.0757023
0.0751416
0.0913228
0.105662
0.104876
0.0901298
0.0738205
0.0712232
0.0884102
0.103898
0.102397
0.0863513
0.0689294
0.0655974
0.084344
0.100846
0.0436386
0.0263002
0.0193059
0.0143578
0.0114625
0.0119125
0.0117649
0.0114587
0.010112
0.00897801
0.00813689
0.00757941
0.00726576
0.00711335
0.00704661
0.00699884
0.00690813
0.00678617
0.00665738
0.00654047
0.00644553
0.00637033
0.00630594
0.0062549
0.0062125
0.00618421
0.00615978
0.00614823
0.00613723
0.00613562
0.00616085
0.00617181
0.00619433
0.00620798
0.00623323
0.00624963
0.00627806
0.00630019
0.00633598
0.00636904
0.00641852
0.00646942
0.00654036
0.00661826
0.0067225
0.0068433
0.00700169
0.00719322
0.00743978
0.00774102
0.00811889
0.00857246
0.00911789
0.00975081
0.010477
0.0112844
0.0121672
0.0131065
0.01409
0.0150983
0.0161201
0.0171439
0.0181722
0.0192128
0.0202834
0.0214
0.0225751
0.0238093
0.0250904
0.0263959
0.0277041
0.0289956
0.030256
0.0314767
0.0326656
0.0338091
0.0348767
0.0358675
0.0367924
0.0376538
0.0384517
0.039194
0.0398876
0.0405395
0.0411573
0.0417464
0.042311
0.0428507
0.043345
0.0437514
0.0441263
0.0444976
0.0448767
0.0452689
0.0456646
0.0460494
0.0464157
0.0467613
0.0470841
0.047379
0.0476407
0.0478657
0.0480528
0.0482014
0.0483123
0.0484063
0.0485539
0.0488
0.0491259
0.0494917
0.0498783
0.0502929
0.0507854
0.0513356
0.0519139
0.0525075
0.0531382
0.0538427
0.0546405
0.0555327
0.0565103
0.0575667
0.058703
0.0599222
0.0612249
0.0626108
0.0640805
0.0656351
0.0672741
0.0689946
0.0707931
0.072665
0.074603
0.0765977
0.0786376
0.0807099
0.0828002
0.0848937
0.0869756
0.0890323
0.091051
0.0930207
0.0949313
0.0967738
0.0985402
0.100224
0.101821
0.103327
0.104739
0.106057
0.107281
0.108378
0.109337
0.110232
0.111093
0.111889
0.112615
0.11328
0.113895
0.114475
0.115036
0.115592
0.116159
0.116755
0.117393
0.118087
0.118864
0.119755
0.12071
0.121708
0.122777
0.123909
0.125091
0.126314
0.127574
0.128871
0.130217
0.131628
0.133127
0.134736
0.136465
0.138312
0.140259
0.142271
0.144303
0.146263
0.148047
0.149606
0.150926
0.151966
0.152639
0.152965
0.152889
0.152481
0.151913
0.151317
0.150717
0.150758
0.150887
0.151113
0.151379
0.151668
0.151941
0.152172
0.152328
0.152394
0.15238
0.152307
0.152197
0.152062
0.151909
0.151739
0.151553
0.151351
0.151128
0.15089
0.150638
0.150368
0.150083
0.149783
0.149475
0.149153
0.148819
0.148475
0.148125
0.147768
0.147407
0.147043
0.146677
0.146312
0.145949
0.145589
0.145233
0.144884
0.144544
0.144213
0.143893
0.143586
0.143292
0.143014
0.142752
0.142509
0.142286
0.142085
0.141908
0.141755
0.14163
0.141536
0.141486
0.141515
0.141682
0.14206
0.142655
0.143343
0.143981
0.144499
0.14496
0.14515
0.142941
0.141486
0.138503
0.134669
0.131392
0.128292
0.126154
0.124227
0.123196
0.122165
0.12179
0.121174
0.121018
0.120464
0.120283
0.119553
0.119239
0.118271
0.117852
0.116763
0.116325
0.115258
0.114918
0.113981
0.113792
0.113014
0.112962
0.112299
0.112316
0.111702
0.111732
0.111074
0.111068
0.110311
0.110272
0.109509
0.109515
0.108866
0.108998
0.108555