/*--------------------------------*- C++ -*----------------------------------*\
| =========                 |                                                 |
| \\      /  F ield         | OpenFOAM: The Open Source CFD Toolbox           |
|  \\    /   O peration     | Version:  v2006                                 |
|   \\  /    A nd           | Website:  www.openfoam.com                      |
|    \\/     M anipulation  |                                                 |
\*---------------------------------------------------------------------------*/
FoamFile
{
    version     2.0;
    format      ascii;
    class       volVectorField;
    location    "0.005";
    object      U;
}
// * * * * * * * * * * * * * * * * * * * * * * * * * * * * * * * * * * * * * //

dimensions      [0 1 -1 0 0 0 0];


internalField   nonuniform List<vector> 
12716
(
(51.9919 -0.00945639 -9.55807e-19)
(51.988 -0.00321924 0)
(51.9907 -0.000955455 -1.07945e-19)
(51.9947 -0.00278872 1.05561e-19)
(52.0025 -0.00470432 -1.53469e-19)
(52.013 -0.00746754 2.47789e-19)
(52.0191 -0.013428 0)
(52.0103 -0.0223534 0)
(51.9778 -0.0331745 -1.2536e-19)
(51.9215 -0.0433121 6.48092e-20)
(51.8441 -0.0520434 -1.35004e-19)
(51.754 -0.0587426 4.27579e-21)
(51.6571 -0.0640081 1.7309e-20)
(51.5572 -0.068139 -8.69837e-21)
(51.4547 -0.0716348 -8.73823e-21)
(51.349 -0.0747186 0)
(51.2393 -0.0775197 0)
(51.1254 -0.0800736 0)
(51.0074 -0.0823945 0)
(50.8856 -0.0844876 0)
(50.7601 -0.0863589 0)
(50.631 -0.0880757 0)
(50.4982 -0.0895442 0)
(50.3628 -0.0905848 0)
(50.2256 -0.0912879 0)
(50.0864 -0.0918308 0)
(49.9451 -0.0922923 0)
(49.8013 -0.092665 0)
(49.6551 -0.0929204 0)
(49.5064 -0.0930378 0)
(49.3555 -0.0930161 0)
(49.2026 -0.0928643 0)
(49.0477 -0.0925964 0)
(48.891 -0.0922204 0)
(48.7326 -0.0917393 0)
(48.5726 -0.0911505 0)
(48.4112 -0.0904485 0)
(48.2485 -0.0896236 0)
(48.0849 -0.0886631 0)
(47.9206 -0.0875549 0)
(47.756 -0.0862897 0)
(47.5913 -0.0848611 0)
(47.4271 -0.083266 0)
(47.2636 -0.0815026 0)
(47.1013 -0.0795727 0)
(46.9405 -0.0774781 0)
(46.7817 -0.0752218 0)
(46.6252 -0.0728037 0)
(46.4714 -0.0702248 0)
(46.3209 -0.0674876 0)
(46.174 -0.0646039 0)
(46.0312 -0.0615952 0)
(45.8926 -0.0584944 0)
(45.7583 -0.0553355 0)
(45.6279 -0.0520984 0)
(45.5012 -0.0486673 -1.4259e-19)
(45.381 -0.0445954 1.46896e-19)
(45.2754 -0.0394091 1.78117e-20)
(45.197 -0.0325299 0)
(45.1541 -0.0230364 0)
(45.1435 -0.0137989 2.49227e-19)
(45.1487 -0.00706125 1.69545e-18)
(45.1496 0.000264501 -1.12898e-17)
(45.132 0.00480475 0)
(45.1016 0.00978562 0)
(45.0422 0.0132103 0)
(44.9486 0.00625715 0)
(44.7976 -0.0155385 0)
(44.5632 -0.0420309 4.02303e-19)
(44.3274 -0.0625649 0)
(43.5359 -0.117949 0)
(43.0958 -0.0996727 5.79919e-18)
(44.3757 -0.104061 -3.88333e-18)
(44.6469 -0.07424 -4.04316e-19)
(44.7462 -0.0959669 -6.38427e-18)
(44.4129 -0.129087 -4.90909e-19)
(42.6419 -0.105919 -1.20591e-18)
(42.167 -0.0984385 -1.05455e-18)
(44.4108 -0.128644 4.39857e-19)
(44.8198 -0.105935 7.31659e-19)
(44.8645 -0.110883 -7.12989e-19)
(44.3741 -0.119856 9.8364e-19)
(41.7186 -0.0855217 -1.33184e-19)
(41.2769 -0.0719009 1.86136e-19)
(44.3048 -0.113087 -1.0297e-19)
(44.8819 -0.112207 7.6969e-19)
(44.8756 -0.114721 -1.70922e-19)
(44.2179 -0.107991 1.02955e-19)
(40.8632 -0.0632895 -2.90791e-23)
(40.4687 -0.0561315 -6.1611e-20)
(44.1081 -0.103623 -8.91758e-20)
(44.8471 -0.116127 8.50689e-20)
(44.7988 -0.116902 0)
(43.9798 -0.0988773 -1.91361e-20)
(40.0987 -0.0512575 0)
(39.7444 -0.0465126 0)
(43.8344 -0.0946324 6.39581e-21)
(44.7302 -0.116355 0)
(44.6496 -0.115143 0)
(43.6778 -0.0892167 0)
(39.4123 -0.0430648 0)
(39.0923 -0.039264 0)
(43.5114 -0.0853874 0)
(44.5496 -0.113321 0)
(44.4422 -0.111636 0)
(43.3379 -0.0808817 0)
(38.7899 -0.0366586 0)
(38.494 -0.0340479 0)
(43.1574 -0.0782594 0)
(44.3179 -0.109788 0)
(44.1901 -0.108767 0)
(42.9715 -0.0752585 0)
(38.209 -0.0325749 0)
(37.9238 -0.0312227 0)
(42.7799 -0.0741643 0)
(44.0472 -0.107781 0)
(43.9034 -0.107786 0)
(42.5834 -0.0725291 0)
(37.6432 -0.0307392 0)
(37.357 -0.030178 0)
(42.3815 -0.0724038 0)
(43.7452 -0.107587 0)
(43.5872 -0.108169 0)
(42.1744 -0.0713101 0)
(37.0732 -0.029973 0)
(36.7825 -0.0295071 0)
(41.9617 -0.071265 0)
(43.4145 -0.108145 0)
(43.2424 -0.108744 0)
(41.7437 -0.070024 0)
(36.4953 -0.0289947 0)
(36.2029 -0.0283029 0)
(41.5196 -0.0696649 0)
(43.0546 -0.108492 0)
(42.8679 -0.108965 0)
(41.2904 -0.0682154 0)
(35.9156 -0.0274506 0)
(35.6248 -0.026741 0)
(41.0549 -0.0677326 0)
(42.6648 -0.108583 0)
(42.4635 -0.109236 0)
(40.8148 -0.0664527 0)
(35.3386 -0.0258859 0)
(35.0486 -0.0254717 0)
(40.5681 -0.0663107 0)
(42.2454 -0.109123 0)
(42.0299 -0.110416 0)
(40.3169 -0.0656702 0)
(34.761 -0.0249198 0)
(34.4675 -0.0250217 0)
(40.0586 -0.0662219 0)
(41.7975 -0.110947 0)
(41.5683 -0.11311 0)
(39.7955 -0.0663971 0)
(34.1733 -0.0248774 0)
(33.8707 -0.0254547 0)
(39.5248 -0.0676575 0)
(41.3219 -0.114385 0)
(41.0793 -0.11734 0)
(39.2486 -0.0685086 0)
(33.565 -0.0255763 0)
(33.249 -0.0264484 0)
(38.9644 -0.070244 0)
(40.8191 -0.119216 0)
(40.5628 -0.12265 0)
(38.6741 -0.0714072 0)
(32.9293 -0.0266193 0)
(32.5989 -0.0275395 0)
(38.3759 -0.0731632 0)
(40.2885 -0.124718 0)
(40.0182 -0.128301 0)
(38.0716 -0.0742435 0)
(32.2657 -0.0275307 0)
(31.9234 -0.0282591 0)
(37.7599 -0.0756384 0)
(39.7298 -0.130225 0)
(39.4472 -0.133647 0)
(37.4442 -0.0763291 0)
(31.5827 -0.027844 0)
(31.2353 -0.0282768 0)
(37.1214 -0.0773872 0)
(39.1458 -0.135717 0)
(38.844 -0.139512 0)
(36.7886 -0.0782441 0)
(30.8858 -0.0277693 0)
(30.5265 -0.0281604 0)
(36.4437 -0.0794337 0)
(38.5172 -0.142382 0)
(38.192 -0.14722 0)
(36.0907 -0.0805362 0)
(30.1681 -0.0275064 0)
(29.8025 -0.0280913 0)
(35.7272 -0.0819731 0)
(37.8425 -0.150482 0)
(37.4934 -0.155894 0)
(35.3542 -0.0833664 0)
(29.4363 -0.0274394 0)
(29.0616 -0.028375 0)
(34.9698 -0.0851455 0)
(37.1188 -0.159417 0)
(36.7451 -0.16578 0)
(34.5757 -0.0872213 0)
(28.6844 -0.0279511 0)
(28.2973 -0.0293652 0)
(34.1698 -0.0898099 0)
(36.3456 -0.170305 0)
(35.9468 -0.178062 0)
(33.7531 -0.0928779 0)
(27.9049 -0.0292901 0)
(27.5003 -0.031253 0)
(33.3232 -0.096569 0)
(35.5213 -0.184117 0)
(35.0954 -0.193629 0)
(32.8803 -0.100805 0)
(27.0869 -0.0315882 0)
(26.6573 -0.0340478 0)
(32.4215 -0.105573 0)
(34.6405 -0.201303 0)
(34.1828 -0.212597 0)
(31.9464 -0.110937 0)
(26.2148 -0.0347582 0)
(25.7528 -0.0376833 0)
(31.453 -0.11676 0)
(33.694 -0.221927 0)
(33.201 -0.234958 0)
(30.9411 -0.123203 0)
(25.2751 -0.0387493 0)
(24.7749 -0.0420861 0)
(30.4091 -0.129957 0)
(32.6757 -0.245791 0)
(32.1447 -0.26046 0)
(29.8566 -0.137383 0)
(24.2572 -0.0434567 0)
(23.7139 -0.0471312 0)
(29.2818 -0.144951 0)
(31.5795 -0.272691 0)
(31.0066 -0.289022 0)
(28.6838 -0.153328 0)
(23.151 -0.0487378 0)
(22.5592 -0.0527319 0)
(28.0606 -0.161724 0)
(30.3966 -0.302778 0)
(29.7772 -0.321243 0)
(27.4114 -0.171189 0)
(21.9456 -0.05461 0)
(21.2992 -0.0592032 0)
(26.7336 -0.181036 0)
(29.1177 -0.337699 0)
(28.4459 -0.359167 0)
(26.026 -0.192224 0)
(20.627 -0.061639 0)
(19.9163 -0.0669792 0)
(25.2849 -0.203925 0)
(27.7299 -0.378809 0)
(26.9978 -0.403897 0)
(24.5088 -0.21723 0)
(19.1741 -0.0701001 0)
(18.3858 -0.0763502 0)
(23.6925 -0.231244 0)
(26.2159 -0.427532 0)
(25.4131 -0.457255 0)
(22.8344 -0.247226 0)
(17.5591 -0.0803112 0)
(16.6762 -0.0878831 0)
(21.9272 -0.264377 0)
(24.5527 -0.486433 0)
(23.6646 -0.523306 0)
(20.9686 -0.284445 0)
(15.7442 -0.0930348 0)
(14.743 -0.102654 0)
(19.9466 -0.306922 0)
(22.707 -0.562006 0)
(21.7097 -0.612018 0)
(18.8557 -0.334645 0)
(13.6731 -0.111615 0)
(12.4956 -0.126669 0)
(17.6774 -0.366945 0)
(20.6248 -0.66715 0)
(19.4803 -0.734896 0)
(16.4019 -0.404916 0)
(11.2145 -0.138984 0)
(9.80228 -0.155973 0)
(15.0079 -0.447872 0)
(18.2189 -0.810766 0)
(16.8631 -0.901834 0)
(13.4753 -0.497194 0)
(8.2553 -0.169656 0)
(6.5291 -0.186764 0)
(11.7685 -0.553067 0)
(15.3357 -1.00747 0)
(13.6343 -1.14579 0)
(9.80655 -0.621121 0)
(4.56228 -0.196561 0)
(2.35787 -0.31161 0)
(7.5322 -0.810302 0)
(11.692 -1.38103 0)
(9.68121 -1.52987 0)
(5.02735 -0.906119 0)
(-0.980625 -0.318596 0)
(-3.84072 -0.12597 0)
(2.43407 -0.747152 0)
(7.54027 -1.39702 0)
(5.16078 -1.27386 0)
(-0.346576 -0.517009 0)
(-5.11065 0.0614026 0)
(-6.02318 0.0104491 0)
(-3.41857 -0.385468 0)
(2.48214 -1.1249 0)
(0.076556 -0.840959 0)
(-5.21165 -0.243425 0)
(-6.82514 -0.0514452 0)
(-7.54691 -0.0450849 0)
(-6.61486 -0.225173 0)
(-2.3441 -0.626661 0)
(-3.90774 -0.356241 0)
(-7.61894 -0.228056 0)
(-8.18559 -0.00831351 0)
(-8.7154 0.0247658 0)
(-8.28495 -0.208485 0)
(-4.92575 -0.140581 0)
(-5.36587 0.209749 0)
(-8.48573 -0.121274 0)
(-8.97262 0.0980102 0)
(-8.87371 0.11307 0)
(-8.21677 -0.0201018 0)
(-5.3148 0.389744 0)
(-4.95235 0.528428 0)
(-7.5972 0.149491 0)
(-8.34229 0.133562 0)
(-7.6663 0.097978 0)
(-7.10358 0.14758 0)
(-5.06167 0.350374 0)
(-4.92322 0.361414 0)
(-6.62195 0.168679 0)
(-7.03785 0.0947646 0)
(-6.55842 0.0473881 0)
(-6.33845 0.122867 0)
(-5.01891 0.182985 0)
(-4.85855 0.259351 0)
(-5.9955 0.165243 0)
(-6.13616 0.0502664 0)
(-5.72154 0.0251289 0)
(-5.68185 0.160031 0)
(-4.73337 0.169007 0)
(-4.35552 0.351973 0)
(-5.19533 0.210604 0)
(-5.22216 0.0612289 0)
(-4.63047 0.0552216 0)
(-4.65104 0.196897 0)
(-4.00053 0.321314 0)
(-3.49434 0.458035 0)
(-4.00204 0.240719 0)
(-3.98188 0.0783387 0)
(-3.24474 0.0701258 0)
(-3.30142 0.232347 0)
(-2.9659 0.414954 0)
(-2.41094 0.498077 0)
(-2.59373 0.259985 0)
(-2.5315 0.0848026 0)
(-1.67633 0.0800022 0)
(-1.74855 0.273631 0)
(-1.73514 0.482696 0)
(-1.15291 0.47361 0)
(-1.00406 0.265202 0)
(-0.91687 0.0792918 0)
(-0.104513 0.0737918 0)
(-0.193992 0.26383 0)
(-0.534326 0.449153 0)
(-0.0538436 0.409334 0)
(0.500003 0.234338 0)
(0.603963 0.0651158 0)
(1.24186 0.058854 0)
(1.16281 0.204683 0)
(0.416127 0.360687 0)
(0.676055 0.347329 0)
(1.69074 0.176993 0)
(1.78934 0.0572893 0)
(2.27967 0.0609948 0)
(2.24044 0.116224 0)
(1.00517 0.325631 0)
(1.19911 0.245713 0)
(2.62295 0.0599809 0)
(2.59912 0.0513673 0)
(2.78413 0.0358385 0)
(2.86113 0.0224999 0)
(1.27255 0.113888 0)
(0.975023 -0.0405793 0)
(2.82373 -0.0101995 0)
(2.84336 0.0213601 0)
(2.79506 0.0145727 0)
(2.53063 -0.0443807 0)
(0.540799 -0.160969 0)
(-0.123181 -0.257209 0)
(2.03774 -0.0794405 0)
(2.64744 0.00895429 0)
(2.41455 0.00750781 0)
(1.39194 -0.112097 0)
(-0.856397 -0.31344 0)
(-1.58285 -0.347334 0)
(0.657181 -0.145322 0)
(2.10297 0.00271922 0)
(1.71453 -0.00461684 0)
(-0.149859 -0.164052 0)
(-2.27625 -0.35599 0)
(-2.93187 -0.3411 0)
(-0.896485 -0.169429 0)
(1.26255 -0.021632 0)
(0.766187 -0.0327949 0)
(-1.56238 -0.16548 0)
(-3.54153 -0.320126 0)
(-4.08893 -0.29504 0)
(-2.16297 -0.157919 0)
(0.264141 -0.039555 0)
(-0.234636 -0.0382894 0)
(-2.70754 -0.144261 0)
(-4.59095 -0.267571 0)
(-5.03588 -0.23717 0)
(-3.1997 -0.12795 0)
(-0.674423 -0.0341067 0)
(-1.07215 -0.0297581 0)
(-3.64081 -0.113235 0)
(-5.44334 -0.209879 0)
(-5.79979 -0.184456 0)
(-4.03481 -0.100872 0)
(-1.42681 -0.026688 0)
(-1.74691 -0.0226003 0)
(-4.38704 -0.0879984 0)
(-6.12702 -0.161533 0)
(-6.40996 -0.141158 0)
(-4.69997 -0.0787063 0)
(-2.0298 -0.0202893 0)
(-2.28715 -0.0164437 0)
(-4.98064 -0.0683041 0)
(-6.67105 -0.124327 0)
(-6.89537 -0.108916 0)
(-5.23011 -0.0618175 0)
(-2.5172 -0.0150008 0)
(-2.72661 -0.0122969 0)
(-5.456 -0.0538724 0)
(-7.10489 -0.0970446 0)
(-7.28467 -0.0860599 0)
(-5.65859 -0.0499323 0)
(-2.91602 -0.0114816 0)
(-3.09394 -0.0101382 0)
(-5.84727 -0.0458979 -4.0512e-19)
(-7.45909 -0.0799262 3.40463e-19)
(-7.61243 -0.0723523 0)
(-6.02162 -0.0434643 0)
(-3.26116 -0.0102858 0)
(-3.41996 -0.00894898 0)
(-6.18372 -0.0390935 0)
(-7.76063 -0.0639498 0)
(-7.88367 -0.0551018 0)
(-6.32723 -0.0356911 0)
(-3.56386 -0.00878701 0)
(-3.6981 -0.00806448 0)
(-6.45799 -0.0314147 0)
(-8.00242 -0.0488514 0)
(-8.10204 -0.0425377 0)
(-6.57474 -0.0280117 0)
(-3.81973 -0.00779136 0)
(-3.93123 -0.0067 0)
(-6.6828 -0.0233758 0)
(-8.20251 -0.0378298 0)
(-8.28762 -0.0331473 0)
(-6.78018 -0.0204164 0)
(-4.02786 -0.00563283 0)
(-4.11472 -0.00460492 0)
(-6.87149 -0.0166169 0)
(-8.37583 -0.0296961 0)
(-8.45034 -0.0264599 0)
(-6.95483 -0.0152412 0)
(-4.19049 -0.00373125 0)
(-4.26063 -0.00324081 0)
(-7.03434 -0.0124528 0)
(-8.52892 -0.0239228 0)
(-8.59398 -0.0222119 0)
(-7.10737 -0.0125213 0)
(-4.324 -0.00281279 0)
(-4.3858 -0.00294782 0)
(-7.17827 -0.0108566 0)
(-8.66368 -0.0212562 0)
(-8.72134 -0.0215746 0)
(-7.24502 -0.012491 0)
(-4.44589 -0.00284742 0)
(-4.50823 -0.00356055 0)
(-7.31217 -0.0115092 0)
(-8.78519 -0.0219918 0)
(-8.83901 -0.0237397 0)
(-7.37793 -0.0139411 0)
(-4.57261 -0.00348265 0)
(-4.64216 -0.00427221 0)
(-7.44645 -0.0133536 0)
(-8.90065 -0.0252973 0)
(-8.95303 -0.0281505 0)
(-7.51479 -0.0170216 0)
(-4.71562 -0.00472977 0)
(-4.79458 -0.00611095 0)
(-7.5867 -0.0170462 0)
(-9.01349 -0.0301824 0)
(-9.06499 -0.0327338 0)
(-7.65844 -0.0203939 0)
(-4.87689 -0.00649577 0)
(-4.96342 -0.00744648 0)
(-7.73324 -0.0193629 0)
(-9.12488 -0.0337104 0)
(-9.17604 -0.0351072 0)
(-7.80643 -0.0215628 0)
(-5.0498 -0.00726511 0)
(-5.13638 -0.00760174 0)
(-7.88139 -0.0193163 0)
(-9.23499 -0.034614 0)
(-9.28456 -0.0344595 0)
(-7.95297 -0.0203248 0)
(-5.21807 -0.00675242 0)
(-5.29612 -0.00655763 0)
(-8.02428 -0.01701 0)
(-9.34071 -0.0324461 0)
(-9.38659 -0.0313144 0)
(-8.09033 -0.0175433 0)
(-5.36657 -0.00547087 0)
(-5.43249 -0.00530554 0)
(-8.15483 -0.0141899 0)
(-9.43776 -0.0288848 0)
(-9.47804 -0.0278139 0)
(-8.21372 -0.0152055 0)
(-5.49155 -0.0043961 0)
(-5.54804 -0.00447768 0)
(-8.2713 -0.0124349 0)
(-9.5228 -0.0257773 0)
(-9.55674 -0.0253266 0)
(-8.32381 -0.0142744 0)
(-5.60009 -0.00389538 0)
(-5.6531 -0.00436575 0)
(-8.37605 -0.0122132 0)
(-9.59524 -0.0240338 0)
(-9.62378 -0.0241165 0)
(-8.42431 -0.0141956 0)
(-5.70363 -0.00383954 0)
(-5.75396 -0.00396651 0)
(-8.47295 -0.0113984 4.15715e-19)
(-9.65712 -0.0226963 -3.46426e-19)
(-9.68115 -0.0223809 0)
(-8.51753 -0.0120718 0)
(-5.79789 -0.00298269 0)
(-5.83691 -0.00170603 6.20156e-20)
(-8.56134 -0.00839203 5.15801e-19)
(-9.70897 -0.0185482 -4.30469e-19)
(-9.72574 -0.0152993 8.57902e-20)
(-8.59718 -0.00882772 -1.03e-19)
(-5.86577 -0.000599764 -6.20094e-20)
(-5.88628 0.00262856 4.80918e-19)
(-8.62791 -0.00538071 0)
(-9.74206 -0.00622759 -6.74606e-19)
(-9.7497 0.00284948 -3.85219e-23)
(-8.6452 -0.00474982 -2.02273e-19)
(-5.89431 0.00630305 -2.43928e-19)
(-5.88901 0.0116501 -6.82364e-19)
(-8.66401 -0.00141634 5.73173e-19)
(-9.75903 0.0131089 0)
(-9.78126 0.0129598 0)
(-8.67256 0.00309749 -8.06564e-19)
(-5.87314 0.0113717 7.38278e-19)
(-5.84273 0.0133749 -2.24812e-19)
(-8.69437 0.0114292 7.57415e-19)
(-9.81434 0.0133883 -1.27269e-18)
(-9.8409 0.0147687 2.10497e-18)
(-8.70364 0.0161564 0)
(-5.78103 0.01062 -5.32847e-19)
(-5.74216 0.00741439 9.94709e-19)
(-8.7194 0.0105354 0)
(-9.86562 0.0177876 8.89456e-20)
(-9.89389 0.0220926 6.6318e-19)
(-8.75376 -0.0066295 -9.10566e-19)
(-5.72224 0.0182636 0)
(-10.6889 -0.0205213 0)
(-10.8476 0.0179087 -1.37031e-19)
(-10.9549 0.0150931 0)
(-10.8748 0.0205778 -1.92628e-18)
(-10.7479 0.0303188 1.82515e-18)
(-10.5357 0.0391341 0)
(-10.3865 0.052711 0)
(-10.2082 0.0667785 5.83106e-20)
(-10.0809 0.0818284 -5.84267e-20)
(-9.93575 0.100025 0)
(-9.83339 0.116115 0)
(-9.74898 0.135396 0)
(-9.73945 0.148481 0)
(-9.88986 0.165674 0)
(-10.2252 0.169723 9.71211e-19)
(-10.8063 0.168262 -2.963e-18)
(-11.3705 0.151493 2.072e-18)
(-11.747 0.121556 -8.46888e-18)
(-11.8666 0.115732 8.9736e-18)
(-11.865 0.190311 3.5237e-17)
(-11.742 0.202035 -8.20905e-17)
(-11.9394 0.290366 0)
(-11.9517 0.159178 0)
(-12.362 0.33604 1.31772e-17)
(-12.5587 0.0897633 0)
(-12.34 0.0917881 0)
(-8.45304 -0.149158 0)
(-8.1071 -0.104513 0)
(-11.2257 -0.0535513 -8.01408e-17)
(-11.9549 -0.0917061 7.19783e-17)
(-11.7805 0.211639 3.32838e-17)
(-11.0076 0.220924 4.16051e-17)
(-7.28399 0.0851813 -1.6234e-17)
(-6.7765 0.0814872 0)
(-11.0026 0.197064 1.42035e-17)
(-11.8687 0.2607 -2.35975e-17)
(-11.8945 0.235298 -1.39826e-17)
(-10.7969 0.146058 1.089e-18)
(-6.33399 0.06492 -2.6575e-18)
(-5.82332 0.058431 -6.06465e-19)
(-10.3751 0.10157 1.00409e-18)
(-11.7491 0.187053 -4.13249e-18)
(-11.6163 0.179065 8.44191e-19)
(-10.0514 0.0914359 1.1478e-18)
(-5.38877 0.0444683 -6.17624e-19)
(-5.03144 0.0321951 1.51977e-19)
(-9.65876 0.0734981 3.93117e-18)
(-11.4197 0.145593 -6.75758e-18)
(-11.2813 0.139787 8.49913e-19)
(-9.36987 0.0736362 -7.77672e-26)
(-4.74539 0.0165186 -1.3847e-18)
(-4.50232 0.0121105 1.54193e-19)
(-9.01223 0.0590669 -2.05675e-18)
(-11.0968 0.114449 -1.70192e-18)
(-10.9633 0.114021 0)
(-8.76577 0.0526438 0)
(-4.30393 0.0073868 -1.55487e-19)
(-4.14778 0.00419043 0)
(-8.48096 0.0443802 0)
(-10.7514 0.0941975 -1.7203e-18)
(-10.6229 0.0919671 1.71339e-18)
(-8.2745 0.0399437 0)
(-4.02578 -0.000486077 0)
(-3.91485 0.00162335 0)
(-8.02661 0.035586 0)
(-10.4318 0.0799725 -1.71321e-18)
(-10.3112 0.0812401 1.71361e-18)
(-7.8508 0.0332011 0)
(-3.81876 -0.00141102 0)
(-3.72295 0.00128539 0)
(-7.6251 0.0309264 0)
(-10.1248 0.0726554 -1.71342e-18)
(-10.0122 0.0745316 1.71381e-18)
(-7.4642 0.0282507 0)
(-3.64273 -0.00239971 0)
(-3.56036 0.0012185 0)
(-7.25026 0.0276311 0)
(-9.82738 0.0696047 -1.71362e-18)
(-9.71372 0.0709414 1.71402e-18)
(-7.09506 0.0236392 0)
(-3.49044 -0.00221874 0)
(-3.41834 0.00149577 -1.24305e-18)
(-6.89383 0.0226219 -1.03572e-18)
(-9.52405 0.0662257 1.71383e-18)
(-9.40672 0.0646465 1.71424e-18)
(-6.75275 0.0172418 0)
(-3.36595 -0.00129944 0)
(-3.3026 0.00270781 0)
(-6.57609 0.0172709 0)
(-9.21456 0.0597564 -1.71407e-18)
(-9.09817 0.0537987 1.71447e-18)
(-6.45997 0.0107763 0)
(-3.26396 -0.000222857 0)
(-3.20984 0.00381276 0)
(-6.31788 0.01041 0)
(-8.91509 0.0467454 -1.71429e-18)
(-8.80903 0.0385443 1.71461e-18)
(-6.24958 0.00455894 0)
(-3.19284 -2.80337e-05 0)
(-3.1458 0.00378422 0)
(-6.13727 0.0073742 0)
(-8.64607 0.0333068 -1.71445e-18)
(-8.57085 0.0241565 1.71466e-18)
(-6.10576 0.00177177 0)
(-3.14098 -0.000642463 0)
(-3.09995 0.00277943 0)
(-6.01604 0.00565274 0)
(-8.43072 0.0211347 -1.71453e-18)
(-8.38961 0.0125846 1.71465e-18)
(-6.01203 0.000378914 0)
(-3.1067 -0.00168983 0)
(-3.06816 0.00206265 0)
(-5.93642 0.00589212 0)
(-8.27003 0.0137345 -1.71455e-18)
(-8.254 0.00542308 1.71462e-18)
(-5.94494 0.000687342 0)
(-3.07726 -0.00246293 0)
(-3.04089 0.00134747 0)
(-5.87808 0.0056561 0)
(-8.15041 0.00832322 -1.71453e-18)
(-8.15348 0.000896142 1.71457e-18)
(-5.89615 0.000346235 0)
(-3.05553 -0.00311504 0)
(-3.01934 0.00130098 0)
(-5.83268 0.00646212 0)
(-8.05934 0.00745161 -1.71448e-18)
(-8.07012 -5.73763e-05 1.71451e-18)
(-5.8499 0.000914037 0)
(-3.03064 -0.00317091 0)
(-2.99415 0.00114978 0)
(-5.78757 0.00605416 0)
(-7.98182 0.00645604 -1.71439e-18)
(-8.00047 -0.00146542 1.71439e-18)
(-5.80866 1.9837e-05 0)
(-3.00884 -0.00314206 0)
(-2.97231 0.00149061 0)
(-5.7475 0.00631923 0)
(-7.9158 0.00746291 -1.71423e-18)
(-7.93596 -0.00096483 1.71421e-18)
(-5.76652 0.000213719 0)
(-2.98318 -0.00277178 0)
(-2.94601 0.00151224 0)
(-5.70564 0.00560718 0)
(-7.85405 0.0070515 -1.71397e-18)
(-7.87987 -0.00208945 1.71391e-18)
(-5.72877 -0.000934964 0)
(-2.96057 -0.0026178 0)
(-2.92379 0.00188443 0)
(-5.66934 0.0055685 0)
(-7.80064 0.0079653 -1.71357e-18)
(-7.8266 -0.0013801 1.71348e-18)
(-5.6906 -0.000732138 0)
(-2.93487 -0.00221961 0)
(-2.89728 0.00184857 0)
(-5.63119 0.00473634 0)
(-7.74929 0.00733681 -1.71303e-18)
(-7.78059 -0.00268959 1.7129e-18)
(-5.65688 -0.00183984 0)
(-2.91223 -0.00213331 0)
(-2.87533 0.00217432 0)
(-5.59922 0.00467976 0)
(-7.70583 0.00786102 -1.71233e-18)
(-7.73666 -0.00204213 1.71218e-18)
(-5.62322 -0.0014996 0)
(-2.88693 -0.00178537 0)
(-2.84909 0.00216897 0)
(-5.56554 0.00395795 0)
(-7.66319 0.00701707 -1.71148e-18)
(-7.69851 -0.00338729 1.71129e-18)
(-5.5938 -0.00247378 0)
(-2.86443 -0.00176502 0)
(-2.82729 0.00242978 0)
(-5.53779 0.00402287 0)
(-7.627 0.00750131 -1.71048e-18)
(-7.66086 -0.00250725 1.71028e-18)
(-5.56359 -0.00190569 0)
(-2.83905 -0.00149913 0)
(-2.80069 0.00235854 0)
(-5.50675 0.00349078 0)
(-7.58984 0.00677083 -1.70935e-18)
(-7.62742 -0.0037293 1.70914e-18)
(-5.53599 -0.00272455 0)
(-2.81595 -0.00155923 0)
(-2.77838 0.00255443 0)
(-5.48055 0.00355701 0)
(-7.55786 0.00710773 -1.70812e-18)
(-7.59359 -0.00298744 1.7079e-18)
(-5.50758 -0.00218588 0)
(-2.79045 -0.00134044 0)
(-2.75186 0.00245145 0)
(-5.45171 0.0029885 0)
(-7.52406 0.00614833 -1.70678e-18)
(-7.56294 -0.00435878 1.70656e-18)
(-5.4825 -0.00298122 0)
(-2.76756 -0.00145682 0)
(-2.72984 0.00257821 0)
(-5.42846 0.00304681 0)
(-7.49464 0.00615698 -1.70538e-18)
(-7.532 -0.00394324 1.70517e-18)
(-5.45759 -0.00241452 0)
(-2.74268 -0.00132251 0)
(-2.70397 0.0024065 0)
(-5.40355 0.00257092 0)
(-7.46406 0.00492117 -1.70392e-18)
(-7.50483 -0.0054169 1.70372e-18)
(-5.43636 -0.00306385 0)
(-2.72025 -0.0015119 0)
(-2.68226 0.00247268 0)
(-5.38415 0.00265632 0)
(-7.43846 0.00474872 -1.70244e-18)
(-7.47817 -0.00511905 1.70225e-18)
(-5.41544 -0.00251868 0)
(-2.69604 -0.00141934 0)
(-2.65709 0.00228452 0)
(-5.36312 0.00217578 0)
(-7.41255 0.00348914 -1.70093e-18)
(-7.45571 -0.00648274 1.70077e-18)
(-5.39789 -0.00318013 0)
(-2.67443 -0.00160959 0)
(-2.63623 0.00234605 0)
(-5.34725 0.0020978 0)
(-7.39187 0.00320321 -1.69944e-18)
(-7.43456 -0.00639474 1.6993e-18)
(-5.38138 -0.00288722 0)
(-2.65203 -0.00151464 0)
(-2.61332 0.00216458 0)
(-5.33143 0.00135994 0)
(-7.3719 0.0016125 -1.69795e-18)
(-7.41887 -0.00813528 1.69783e-18)
(-5.37063 -0.00376116 0)
(-2.63368 -0.00170807 0)
(-2.59613 0.00216904 0)
(-5.3239 0.00093842 0)
(-7.3591 0.000491192 -1.69649e-18)
(-7.40819 -0.00902474 1.69638e-18)
(-5.36521 -0.00380643 0)
(-2.61699 -0.00169798 0)
(-2.57958 0.00190266 0)
(-5.32118 -0.000125823 0)
(-7.3518 -0.00216972 -1.69503e-18)
(-7.40805 -0.0117443 1.69493e-18)
(-5.3702 -0.00501236 0)
(-2.60699 -0.00197008 0)
(-2.57161 0.00183356 0)
(-5.33142 -0.000998351 0)
(-7.35698 -0.00443976 -1.6936e-18)
(-7.41851 -0.0137058 1.6935e-18)
(-5.38568 -0.00551571 0)
(-2.60184 -0.00201707 0)
(-2.56742 0.00148415 0)
(-5.35188 -0.00265695 0)
(-7.37336 -0.00832722 -1.69216e-18)
(-7.44533 -0.0178426 1.69206e-18)
(-5.4176 -0.0074716 0)
(-2.60759 -0.00236774 0)
(-2.57681 0.00130594 0)
(-5.39266 -0.00463376 0)
(-7.40905 -0.012775 -1.69074e-18)
(-7.4922 -0.0224687 1.69061e-18)
(-5.4705 -0.00920801 0)
(-2.6257 -0.00258753 0)
(-2.59834 0.000727155 0)
(-5.4569 -0.00816368 0)
(-7.4677 -0.0206326 -1.68931e-18)
(-7.5719 -0.0320493 1.68917e-18)
(-5.55836 -0.0137219 0)
(-2.66856 -0.0035685 0)
(-2.65338 -0.000161195 0)
(-5.56639 -0.0115665 0)
(-7.56485 -0.0311358 0)
(-7.69916 -0.0507087 8.4751e-19)
(-5.68824 -0.024725 -1.01351e-18)
(-2.73605 -0.00893653 -1.21084e-18)
(-2.70375 -0.015227 0)
(-5.6916 -0.0414454 0)
(-7.69602 -0.0651083 -3.38736e-18)
(-7.80214 -0.0845212 0)
(-5.78588 -0.0534167 0)
(-2.78161 -0.0251021 0)
(-2.74512 -0.0240743 0)
(-5.77569 -0.0691364 0)
(-7.79271 -0.103961 0)
(-7.90152 -0.137489 -5.24691e-18)
(-5.87556 -0.0959925 4.00725e-18)
(-2.79565 -0.0433264 0)
(-2.73837 -0.0502995 0)
(-5.84985 -0.116718 0)
(-7.87923 -0.165666 2.08759e-19)
(-7.98139 -0.201091 -6.61678e-18)
(-5.92248 -0.144357 7.92186e-18)
(-2.7692 -0.0653204 0)
(-2.73971 -0.0681734 1.87063e-17)
(-5.92931 -0.160894 -7.87293e-18)
(-7.96887 -0.221724 -6.56033e-18)
(-8.08016 -0.256582 6.53118e-18)
(-6.03661 -0.183951 0)
(-2.80963 -0.0806185 -9.31291e-18)
(-2.79881 -0.0898424 0)
(-6.05921 -0.205607 0)
(-8.1105 -0.285285 1.2899e-17)
(-8.23623 -0.316522 -1.98784e-19)
(-6.19434 -0.226956 1.52704e-17)
(-2.9051 -0.101871 -1.83796e-17)
(-2.97341 -0.111973 -1.81534e-17)
(-6.27606 -0.243445 0)
(-8.27983 -0.337945 1.9784e-19)
(-8.42826 -0.37795 0)
(-6.42708 -0.273128 -1.48196e-17)
(-3.08343 -0.128369 1.78356e-17)
(-3.09629 -0.134495 -1.37685e-19)
(-6.50838 -0.295687 1.46223e-17)
(-8.5003 -0.408014 -1.23438e-17)
(-8.65357 -0.443294 1.21285e-17)
(-6.67526 -0.326226 1.46378e-17)
(-3.24308 -0.152054 -1.73074e-17)
(-3.32696 -0.154394 -1.72439e-17)
(-6.80594 -0.342192 -1.11679e-19)
(-8.74599 -0.462931 0)
(-8.91681 -0.505957 2.36924e-17)
(-7.00118 -0.379227 -2.82442e-17)
(-3.50855 -0.179715 1.70637e-17)
(-3.6235 -0.191735 -1.6816e-17)
(-7.15644 -0.404175 -2.17719e-19)
(-9.03882 -0.53625 -1.16526e-17)
(-9.23107 -0.582711 0)
(-7.37193 -0.442066 1.40152e-17)
(-3.82923 -0.216665 -1.65902e-17)
(-3.98793 -0.236917 0)
(-7.55492 -0.474035 -2.13544e-19)
(-9.37188 -0.617888 -1.12966e-17)
(-9.57202 -0.664325 1.12531e-17)
(-7.7985 -0.510118 -1.42349e-17)
(-4.19098 -0.254809 -1.6308e-17)
(-4.41866 -0.284113 -1.66394e-17)
(-8.01961 -0.551698 2.774e-17)
(-9.75128 -0.708735 -2.29655e-17)
(-9.97175 -0.770801 7.00576e-19)
(-8.30401 -0.606333 -1.18286e-17)
(-4.68402 -0.319872 1.78646e-17)
(-4.97427 -0.355684 1.69829e-17)
(-8.57114 -0.65326 -1.64951e-18)
(-10.1933 -0.82926 0)
(-10.4143 -0.916231 -1.05109e-17)
(-8.8346 -0.736454 3.25154e-18)
(-5.24 -0.409035 -2.00827e-18)
(-6.27732 -0.596754 0)
(-9.65332 -0.859505 -2.77514e-18)
(-10.998 -0.995822 0)
(-10.2005 -1.14024 0)
(-8.95392 -0.829079 2.25964e-18)
(-6.1717 -0.485777 2.58601e-18)
(-5.98382 -0.430296 -6.50937e-18)
(-9.31853 -0.67365 -2.97265e-18)
(-10.4447 -0.831212 -2.19843e-17)
(-10.9666 -0.896441 0)
(-9.93089 -0.777015 0)
(-6.3965 -0.487207 2.64996e-18)
(-6.65407 -0.520823 -1.86173e-17)
(-10.3348 -0.860358 1.63957e-17)
(-11.3845 -1.00826 -1.11205e-17)
(-11.7482 -1.13182 1.05774e-17)
(-10.6829 -0.956717 -3.06364e-17)
(-6.86928 -0.575583 3.56573e-17)
(-7.25711 -0.650122 -6.71341e-17)
(-11.1016 -1.10292 5.59909e-17)
(-12.3284 -1.41153 -4.82466e-17)
(-12.6204 -1.56166 -1.27363e-18)
(-11.9871 -1.49058 5.90353e-19)
(-7.8182 -0.915247 -3.34304e-17)
(-10.5848 -1.23515 -4.15492e-17)
(-12.4806 -1.5114 1.51465e-17)
(-13.0654 -1.66548 1.85895e-17)
(-13.5316 -1.90887 -5.12022e-18)
(-13.1158 -1.73152 0)
(-11.3548 -1.38109 -2.02393e-18)
(-11.9614 -1.51 7.18879e-18)
(-13.6122 -1.88852 -3.45392e-18)
(-13.9643 -2.13505 1.62385e-18)
(-14.4258 -2.35515 -6.07583e-18)
(-14.135 -2.0461 1.60412e-17)
(-12.5515 -1.6518 -1.98808e-17)
(-13.1248 -1.84697 2.5228e-17)
(-14.7715 -2.24478 1.18276e-17)
(-15.1059 -2.73519 0)
(-15.4535 -2.7773 -8.65396e-18)
(-15.1894 -2.3369 -1.5739e-17)
(-13.5825 -2.01647 -2.81591e-17)
(-14.1246 -2.20581 0)
(-15.6815 -2.4666 9.69152e-18)
(-15.8531 -3.0246 3.85513e-22)
(-16.3653 -3.28523 7.87068e-18)
(-16.3043 -2.72215 -1.01966e-17)
(-14.8302 -2.50091 -1.47815e-17)
(-15.5635 -2.84387 1.37432e-17)
(-16.9934 -3.00899 2.7794e-18)
(-16.9337 -3.62194 1.23458e-17)
(-17.6085 -4.11719 1.68167e-18)
(-17.7553 -3.39327 -1.4742e-17)
(-16.3239 -3.29045 1.33488e-17)
(-17.1033 -3.77906 3.96099e-17)
(-18.5803 -3.75725 1.43424e-17)
(-18.3223 -4.62259 -3.07901e-17)
(-19.1524 -5.3076 1.83014e-18)
(-19.539 -4.25932 0)
(-17.9743 -4.35869 -1.32798e-17)
(-18.8992 -4.97866 -8.40351e-21)
(-20.6375 -4.76277 2.17948e-17)
(-20.0824 -6.05653 -4.13816e-17)
(-21.3467 -7.29193 2.22737e-17)
(-22.0466 -5.46893 7.0894e-18)
(-19.8698 -5.71447 -5.18333e-17)
(-20.7482 -6.44092 7.04816e-17)
(-23.2818 -5.67828 -1.90911e-17)
(-22.4 -7.60933 0)
(-23.2757 -8.55234 -2.879e-17)
(-24.4528 -6.0596 1.26692e-17)
(-21.6371 -7.22067 -8.23593e-17)
(-22.6218 -8.07872 0)
(-25.7249 -6.56054 -1.35849e-17)
(-24.6112 -9.28894 7.91584e-17)
(-26.1596 -11.0339 0)
(-27.4286 -7.33423 2.89875e-17)
(-23.7211 -9.08665 -1.92342e-17)
(-24.8152 -10.2163 4.14558e-17)
(-28.9939 -7.58411 3.71181e-17)
(-27.4644 -11.3972 3.70317e-17)
(-28.7656 -12.6963 -1.62517e-17)
(-30.5617 -8.20185 2.51106e-17)
(-26.0581 -11.4373 -9.76855e-17)
(-27.7761 -12.8474 1.27608e-17)
(-32.4226 -9.60138 -2.60295e-21)
(-30.5756 -13.928 -2.38641e-17)
(-32.2195 -15.496 -3.32248e-21)
(-34.4538 -11.2948 1.1115e-17)
(-29.8803 -14.4955 1.26511e-17)
(-32.1845 -16.4751 0)
(-36.5856 -13.2967 -1.09825e-17)
(-33.7482 -17.8259 -4.28389e-17)
(-35.5017 -19.4045 7.2506e-17)
(-38.5068 -14.8495 -1.35134e-17)
(-34.5673 -18.6874 1.30781e-17)
(-37.2197 -21.1564 0)
(-40.147 -17.3989 -1.55562e-17)
(-37.1743 -21.6577 9.60358e-18)
(-38.5864 -24.478 6.21569e-18)
(-41.8351 -20.9822 0)
(-40.3219 -24.1746 1.32883e-17)
(-43.4438 -28.0864 -1.259e-17)
(-43.2416 -25.6814 2.38952e-17)
(-39.1069 -29.0149 1.7805e-17)
(-40.5567 -31.8164 -2.96941e-17)
(-44.6693 -30.0799 0)
(-46.6708 -32.7028 3.81841e-17)
(-49.2941 -37.943 -7.71767e-17)
(-44.8636 -35.7791 -1.60877e-17)
(-40.8323 -36.4792 1.83099e-17)
(-38.6359 -43.117 4.74431e-17)
(-43.367 -42.9527 -9.25089e-17)
(-51.56 -44.6297 3.51398e-17)
(-52.2708 -52.3391 0)
(-40.8115 -50.5312 3.05167e-17)
(-37.986 -47.8238 0)
(-33.3195 -55.086 -1.96848e-19)
(-36.1468 -58.1257 -6.30839e-17)
(-51.8026 -61.039 0)
(-48.6549 -70.0783 4.47152e-17)
(-27.0379 -65.8074 0)
(-27.1851 -60.5749 0)
(-21.3105 -65.9166 6.91225e-18)
(-23.6653 -72.1863 -8.62731e-18)
(-42.8562 -77.8031 -6.14644e-17)
(-32.8019 -78.7614 3.61778e-17)
(-17.9643 -73.8875 -2.42631e-17)
(-15.7656 -70.2291 -2.66075e-17)
(-10.3023 -69.3918 -1.84188e-17)
(-12.2202 -67.5157 -2.06179e-17)
(-23.1729 -69.4479 -3.2908e-17)
(-17.6865 -50.116 3.73557e-17)
(-7.88988 -52.7151 7.59426e-17)
(-6.68142 -62.3549 -2.60128e-17)
(-3.34069 -43.4933 1.33639e-16)
(-8.60243 -29.2374 -1.22097e-16)
(-19.3952 -12.922 6.09397e-17)
(-9.64281 6.91075 0)
(-3.44117 -6.36022 0)
(-0.0929526 -25.9365 -1.0937e-16)
(-2.97503 4.76873 4.05353e-17)
(-6.10035 9.54778 0)
(-4.26978 8.5039 2.04808e-17)
(-1.03332 4.53303 -3.96397e-17)
(-3.93868 6.91821 0)
(-3.38459 4.93286 3.2912e-17)
(-6.66741 3.77141 -3.172e-17)
(-6.58583 5.55483 1.41753e-17)
(-0.176836 2.65176 -3.83752e-17)
(-0.0382842 0.0307343 0)
(-9.03443 4.16868 -1.995e-21)
(-10.1433 2.10356 1.91847e-17)
(-11.9887 0.719859 -2.97535e-17)
(-10.7708 3.07244 4.30695e-17)
(-4.74617 -1.26408 -3.66689e-17)
(-8.48703 -1.25488 0)
(-13.1034 2.98656 1.18324e-17)
(-14.5397 -0.381584 -3.55327e-17)
(-17.0501 0.0480224 0)
(-15.2889 3.77393 -1.31344e-17)
(-12.1588 -0.49246 -1.06594e-16)
(-15.7775 0.3934 1.26899e-16)
(-17.3918 4.7227 -3.02695e-17)
(-18.9258 0.836714 0)
(-20.4415 1.6219 0)
(-19.4592 5.50635 0)
(-19.0938 1.34596 -4.36773e-20)
(-22.0865 2.38628 -6.23468e-17)
(-21.4817 6.18166 0)
(-22.3554 1.52072 -3.19404e-17)
(-24.7417 2.83968 0)
(-23.5485 6.95335 0)
(-24.6262 3.54188 -6.35515e-17)
(-26.7769 4.61028 6.36587e-17)
(-25.4224 7.43055 -2.55433e-17)
(-26.3427 4.04499 3.27647e-17)
(-27.3007 5.0909 -2.03319e-20)
(-27.0644 7.68785 4.47126e-17)
(-28.5696 5.517 -2.81788e-17)