/*--------------------------------*- C++ -*----------------------------------*\
| =========                 |                                                 |
| \\      /  F ield         | OpenFOAM: The Open Source CFD Toolbox           |
|  \\    /   O peration     | Version:  v2006                                 |
|   \\  /    A nd           | Website:  www.openfoam.com                      |
|    \\/     M anipulation  |                                                 |
\*---------------------------------------------------------------------------*/
FoamFile
{
    version     2.0;
    format      ascii;
    class       volScalarField;
    location    "0.033";
    object      alphat;
}
// * * * * * * * * * * * * * * * * * * * * * * * * * * * * * * * * * * * * * //

dimensions      [1 -1 -1 0 0 0 0];


internalField   nonuniform List<scalar> 
16277
(
39.8474
27.936
91.047
20.0182
29.3133
16.0474
6.46026
2.6323
1.4176
0.955979
0.751227
0.647338
0.585196
0.540152
0.502341
0.468386
0.437504
0.40972
0.385064
0.363371
0.344311
0.327487
0.31252
0.299087
0.286929
0.27585
0.2657
0.256361
0.247743
0.239768
0.232374
0.225507
0.219119
0.213171
0.207629
0.202463
0.197647
0.193159
0.188978
0.185085
0.181464
0.178102
0.174986
0.172106
0.169452
0.167016
0.164791
0.162771
0.160952
0.15933
0.157904
0.15667
0.155631
0.154784
0.154134
0.153684
0.153436
0.153398
0.153576
0.15398
0.15462
0.15551
0.156664
0.158101
0.159843
0.161915
0.164348
0.16718
0.170457
0.174241
0.178612
0.183675
0.189568
0.196449
0.204476
0.213757
0.224296
0.236011
0.249007
0.264432
0.286296
0.325972
0.412636
0.622122
1.15815
2.43073
4.28383
4.58017
2.71573
1.79213
0.884493
0.403561
0.21945
0.103576
0.0245501
0.00441734
0.000146364
0.00012702
0.00207616
0.00956168
0.00526864
0.00134528
0.000111249
9.96078e-05
0.00122652
0.00443049
0.00353514
0.00105421
9.20408e-05
8.61069e-05
0.00102165
0.00335244
0.00290067
0.000920231
8.10535e-05
7.76469e-05
0.000904393
0.00282544
0.00257161
0.000842781
7.4289e-05
7.24734e-05
0.000847857
0.00254542
0.00238102
0.000802751
7.02554e-05
6.90629e-05
0.000809953
0.00236642
0.00224163
0.000773635
6.74268e-05
6.66026e-05
0.000780785
0.0022351
0.00213194
0.000749978
6.53243e-05
6.4726e-05
0.000756914
0.0021299
0.00204053
0.000729806
6.36874e-05
6.32382e-05
0.000736725
0.00204138
0.00196186
0.000712109
6.2361e-05
6.2007e-05
0.000719059
0.00196462
0.00189249
0.000696139
6.12361e-05
6.09476e-05
0.000703008
0.00189651
0.0018302
0.000681415
6.0255e-05
6.00127e-05
0.000688201
0.00183512
0.00177364
0.000667717
5.93769e-05
5.91671e-05
0.000674433
0.00177924
0.00172181
0.000654915
5.85745e-05
5.83886e-05
0.000661571
0.00172799
0.00167398
0.000642899
5.78297e-05
5.7662e-05
0.000649492
0.00168068
0.00162969
0.000631569
5.71303e-05
5.69767e-05
0.000638097
0.00163684
0.00158853
0.000620844
5.64671e-05
5.63247e-05
0.000627307
0.00159607
0.00155021
0.000610669
5.58335e-05
5.57e-05
0.000617082
0.0015581
0.00151447
0.000601018
5.52246e-05
5.50987e-05
0.000607384
0.00152264
0.00148102
0.000591853
5.46368e-05
5.45176e-05
0.000598167
0.00148941
0.00144958
0.000583118
5.40672e-05
5.39538e-05
0.000589378
0.00145813
0.00141991
0.000574767
5.35131e-05
5.34045e-05
0.000580966
0.00142856
0.00139179
0.000566751
5.29717e-05
5.28672e-05
0.000572886
0.00140051
0.00136505
0.000559025
5.24404e-05
5.23391e-05
0.000565089
0.0013738
0.00133951
0.000551545
5.19169e-05
5.18181e-05
0.000557532
0.00134825
0.00131503
0.000544269
5.13989e-05
5.13018e-05
0.000550174
0.00132374
0.00129149
0.000537163
5.08841e-05
5.0788e-05
0.000542982
0.00130015
0.00126879
0.000530197
5.03704e-05
5.02748e-05
0.000535928
0.00127736
0.00124681
0.000523345
4.9856e-05
4.97601e-05
0.000528986
0.0012553
0.00122549
0.000516585
4.93389e-05
4.92424e-05
0.000522135
0.00123389
0.00120477
0.000509901
4.88177e-05
4.872e-05
0.000515362
0.00121307
0.0011846
0.000503282
4.82907e-05
4.81915e-05
0.000508657
0.00119281
0.00116496
0.000496722
4.77566e-05
4.76558e-05
0.00050203
0.00117308
0.00114582
0.000490225
4.72143e-05
4.7112e-05
0.000495524
0.00115387
0.00112718
0.000483814
4.66633e-05
4.65594e-05
0.000489085
0.00113517
0.00110904
0.000477464
4.61028e-05
4.59974e-05
0.00048273
0.00111698
0.0010914
0.000471198
4.55324e-05
4.54258e-05
0.00047648
0.00109933
0.00107429
0.000465043
4.49522e-05
4.48447e-05
0.000470369
0.00108224
0.00105778
0.000459036
4.43627e-05
4.42551e-05
0.000464439
0.0010658
0.00104194
0.000453226
4.37651e-05
4.36582e-05
0.000458749
0.00105024
0.00102694
0.000447681
4.31612e-05
4.30565e-05
0.000453379
0.0010357
0.00101293
0.00044249
4.25542e-05
4.24536e-05
0.000448415
0.0010222
0.00100001
0.000437741
4.19481e-05
4.18542e-05
0.000443962
0.00100998
0.000988441
0.000433551
4.13485e-05
4.12644e-05
0.000440149
0.000999297
0.000978528
0.00043006
4.0762e-05
4.06926e-05
0.000437123
0.000990483
0.0009706
0.000427447
4.01968e-05
4.01501e-05
0.000434954
0.000983871
0.000965044
0.000425837
3.96705e-05
3.96398e-05
0.000433469
0.00097971
0.000961977
0.000424835
3.9204e-05
3.9178e-05
0.000432704
0.00097849
0.000961877
0.000424677
3.87962e-05
3.87739e-05
0.00043278
0.000980231
0.000964703
0.000425427
3.84806e-05
3.84421e-05
0.000433669
0.000984746
0.000970351
0.000427064
3.82541e-05
3.82035e-05
0.000435255
0.000991655
0.000978274
0.000429177
3.80366e-05
3.80594e-05
0.000437231
0.00100077
0.000988365
0.000431406
3.78948e-05
3.79805e-05
0.000439173
0.00101173
0.00100013
0.000433664
3.78342e-05
3.79957e-05
0.000440795
0.00102326
0.00101209
0.000435609
3.78745e-05
3.80886e-05
0.000442127
0.0010343
0.00102335
0.000437011
3.79921e-05
3.82474e-05
0.000443393
0.00104435
0.0010336
0.000438123
3.81763e-05
3.84678e-05
0.000444395
0.00105318
0.00104268
0.000439138
3.84211e-05
3.87415e-05
0.000445296
0.00106071
0.00105039
0.000439684
3.87154e-05
3.9053e-05
0.000445953
0.00106706
0.00105652
0.000440023
3.90458e-05
3.93918e-05
0.000446384
0.00107198
0.00106079
0.00044018
3.94009e-05
3.97461e-05
0.000446583
0.0010761
0.00106372
0.000440213
3.97684e-05
4.01043e-05
0.000446643
0.00107857
0.00106498
0.000439902
4.01372e-05
4.0457e-05
0.000446558
0.00107928
0.00106371
0.000439132
4.04975e-05
4.07946e-05
0.000445818
0.00107781
0.0010611
0.000438133
4.08374e-05
4.11051e-05
0.000444833
0.00107492
0.00105744
0.000437022
4.11471e-05
4.1382e-05
0.000443708
0.0010708
0.00105275
0.000435872
4.14204e-05
4.16204e-05
0.000442474
0.00106554
0.00104716
0.000434717
4.16533e-05
4.18197e-05
0.000441203
0.0010593
0.00104089
0.000433659
4.18496e-05
4.19878e-05
0.000439978
0.00105228
0.00103403
0.000432684
4.20113e-05
4.21209e-05
0.000438774
0.00104466
0.00102664
0.000431689
4.21352e-05
4.22113e-05
0.00043753
0.00103663
0.00101879
0.000430643
4.22215e-05
4.22671e-05
0.000436222
0.00102841
0.00101071
0.000429366
4.22652e-05
4.2279e-05
0.000434709
0.00102002
0.00100252
0.000428015
4.22762e-05
4.22895e-05
0.000433223
0.00101156
0.00099438
0.00042675
4.22791e-05
4.22897e-05
0.000431812
0.00100324
0.000986196
0.000425369
4.22651e-05
4.2273e-05
0.000430372
0.000994904
0.000978057
0.00042397
4.22382e-05
4.22449e-05
0.000428925
0.000986631
0.000969962
0.00042255
4.22013e-05
4.22061e-05
0.000427437
0.000978395
0.000961893
0.000421083
4.21557e-05
4.21581e-05
0.000425897
0.000970182
0.000953784
0.000419559
4.21016e-05
4.21026e-05
0.0004243
0.000961967
0.000945617
0.000417974
4.20401e-05
4.20402e-05
0.000422642
0.000953767
0.0009375
0.000416321
4.19737e-05
4.19709e-05
0.000420929
0.000945588
0.000929427
0.000414598
4.19003e-05
4.18973e-05
0.000419165
0.000937449
0.000921406
0.000412833
4.18033e-05
4.18377e-05
0.000417434
0.000929482
0.000912841
0.00041102
4.17065e-05
4.17498e-05
0.000415214
0.000921876
0.000905653
0.000408066
4.15462e-05
4.18017e-05
0.000415456
0.000919395
0.000908301
0.000415026
4.17064e-05
4.23982e-05
0.000415761
0.000918149
0.000961846
0.000437123
4.27041e-05
4.54741e-05
0.000409914
0.000935068
0.00142803
0.000595185
5.13128e-05
5.54037e-05
0.000309089
0.000709306
0.00174913
0.00400836
0.00749407
0.0106846
0.0128677
0.0169163
0.0195004
0.0218199
0.0231258
0.0237507
0.0235756
0.0225269
0.0210339
0.0186385
0.0162902
0.0127289
0.0111221
0.00809253
0.0060546
0.00411237
0.0023375
0.00107339
0.000390629
0.000162844
3.14107e-05
2.06204e-05
0.000151191
0.000355295
0.000335616
0.000143626
1.98107e-05
1.89247e-05
0.000138263
0.0003184
0.000317684
0.000136046
1.8693e-05
1.85754e-05
0.000135266
0.000314215
0.000313706
0.00013398
1.84145e-05
1.84049e-05
0.000133952
0.000313541
0.000314422
0.000134012
1.84262e-05
1.84283e-05
0.000134202
0.000315055
0.000315569
0.000134438
1.84585e-05
1.84724e-05
0.000134643
0.000316515
0.000316957
0.000134863
1.84885e-05
1.85191e-05
0.000135112
0.000317962
0.000318501
0.000135341
1.85088e-05
1.85416e-05
0.000135635
0.000319532
0.000320088
0.00013582
1.85565e-05
1.85895e-05
0.000136126
0.000321163
0.000321672
0.000136276
1.85903e-05
1.85984e-05
0.000136714
0.000322826
0.000323355
0.000136815
1.86396e-05
1.86481e-05
0.000137226
0.000324525
0.000325069
0.000137395
1.86654e-05
1.86718e-05
0.000137797
0.000326281
0.000326837
0.000137949
1.87158e-05
1.8724e-05
0.000138357
0.000328057
0.000328626
0.000138543
1.87417e-05
1.87492e-05
0.000138968
0.0003299
0.000330485
0.000139134
1.87943e-05
1.88027e-05
0.000139559
0.000331768
0.000332368
0.00013977
1.88222e-05
1.88305e-05
0.000140209
0.000333698
0.00033431
0.000140387
1.88761e-05
1.88857e-05
0.000140834
0.000335643
0.000336267
0.000141053
1.8905e-05
1.89141e-05
0.000141518
0.000337652
0.000338288
0.000141786
1.89487e-05
1.89843e-05
0.000142144
0.000339676
0.000340326
0.0001424
1.89913e-05
1.90028e-05
0.000142917
0.000341748
0.000342408
0.000143171
1.90367e-05
1.90759e-05
0.000143573
0.00034385
0.000344525
0.000143822
1.90828e-05
1.90954e-05
0.000144376
0.000345977
0.000346642
0.000144628
1.91282e-05
1.91659e-05
0.00014504
0.000348089
0.000348769
0.000145298
1.91727e-05
1.91861e-05
0.000145872
0.000350243
0.000350919
0.000146127
1.922e-05
1.926e-05
0.000146556
0.000352378
0.000353059
0.00014681
1.92673e-05
1.92811e-05
0.000147402
0.000354561
0.000355215
0.000147645
1.93124e-05
1.93494e-05
0.000148073
0.000356656
0.000357316
0.000148303
1.9354e-05
1.93686e-05
0.000148881
0.000358733
0.000359366
0.000149104
1.94038e-05
1.9442e-05
0.00014949
0.000360718
0.000361256
0.000149644
1.94428e-05
1.94514e-05
0.00015015
0.000362589
0.000363064
0.000150296
1.94783e-05
1.951e-05
0.000150621
0.000364277
0.000364679
0.000150691
1.9505e-05
1.95075e-05
0.000151086
0.000365776
0.000366158
0.000151049
1.95456e-05
1.95451e-05
0.000151314
0.000367113
0.000367402
0.000151251
1.95514e-05
1.95457e-05
0.00015141
0.00036819
0.000368363
0.000151211
1.95762e-05
1.95647e-05
0.000151198
0.000368876
0.000368914
0.000150892
1.95629e-05
1.95438e-05
0.000150714
0.000369134
0.000369004
0.000150243
1.95487e-05
1.95507e-05
0.000149746
0.000369017
0.000368554
0.000149082
1.95203e-05
1.94893e-05
0.000148519
0.000368395
0.000367532
0.000147658
1.94819e-05
1.94735e-05
0.00014675
0.000367199
0.000365937
0.000145621
1.94353e-05
1.94001e-05
0.000144676
0.000365595
0.000364055
0.000143284
1.94024e-05
1.93723e-05
0.000142168
0.000363718
0.000361959
0.000140652
1.9353e-05
1.93288e-05
0.000139415
0.00036165
0.000359997
0.000137912
1.93405e-05
1.93641e-05
0.00013654
0.000359853
0.000358112
0.000134984
1.93724e-05
1.94164e-05
0.000133642
0.000358115
0.000356333
0.00013204
1.94769e-05
1.95804e-05
0.000130943
0.000357162
0.000357736
0.000129867
1.97175e-05
1.98771e-05
0.000129257
0.00035956
0.000360127
0.00012745
2.00189e-05
2.0206e-05
0.000126692
0.000364354
0.000370141
0.000128377
2.04273e-05
2.06256e-05
0.000128797
0.000374572
0.000377145
0.000127915
2.06739e-05
2.08202e-05
0.000125515
0.000382592
0.000388935
0.000132207
2.11189e-05
2.13272e-05
0.000128452
0.000394645
0.000400322
0.000131717
2.16799e-05
2.19399e-05
0.000133593
0.000410601
0.000413547
0.000136844
2.23176e-05
2.28465e-05
0.00014389
0.000426282
0.000428069
0.000147354
2.33352e-05
2.37793e-05
0.000153468
0.000438382
0.000441569
0.000158779
2.46544e-05
2.65148e-05
0.00018468
0.000461099
0.000458898
0.00019509
1.99214e-05
1.52835e-05
4.77135e-05
0.000128954
0.000359051
0.000110761
1.79538e-05
1.88895e-05
0.000100028
0.000329973
0.000348431
0.000103934
1.93544e-05
1.96687e-05
9.80519e-05
0.000332661
0.000357944
0.000105386
2.02139e-05
2.07819e-05
0.000103754
0.000352935
0.000387189
0.000117871
2.1429e-05
2.22393e-05
0.000117666
0.000380293
0.000419928
0.000138561
2.32532e-05
2.45123e-05
0.000142168
0.000423863
0.000468825
0.000171393
2.69166e-05
2.07018e-05
0.000192095
0.000484423
0.00013099
4.53457e-05
1.6497e-05
1.96018e-05
0.000121431
0.000404253
0.000394599
0.000112455
2.13387e-05
2.26584e-05
0.000147328
0.000487145
0.000497245
0.000149237
2.36895e-05
2.49851e-05
0.000173942
0.000554061
0.00056982
0.000185709
2.67364e-05
2.98048e-05
0.000220987
0.000621885
0.000604322
0.000238837
2.32011e-05
1.75785e-05
5.41837e-05
0.000159246
0.000491397
0.000145403
2.09434e-05
2.26434e-05
0.000135203
0.000481482
0.000553118
0.000167436
2.42463e-05
2.58752e-05
0.000167112
0.000545782
0.000618678
0.000212567
2.9764e-05
2.39286e-05
0.000249798
0.000625348
0.00016989
5.43567e-05
1.75673e-05
2.18949e-05
0.000153432
0.000558255
0.000575869
0.000162035
2.49173e-05
2.8751e-05
0.000228201
0.000742476
0.000777195
0.000269524
3.36806e-05
2.77906e-05
0.000314121
0.00078781
0.000219701
6.43573e-05
1.86031e-05
2.38649e-05
0.000204821
0.000695068
0.000690861
0.000198745
2.80557e-05
3.52437e-05
0.000298602
0.000878432
0.000895882
0.000350907
2.94761e-05
1.95448e-05
7.30658e-05
0.00027457
0.000900855
0.000265163
2.78804e-05
3.52874e-05
0.000279998
0.000968655
0.00134385
0.000473381
4.83281e-05
4.02127e-05
0.000504142
0.00129122
0.000455805
0.000119798
2.62482e-05
4.66979e-05
0.000487246
0.00140309
0.00140153
0.000520763
4.35312e-05
2.97327e-05
0.000134004
0.000549076
0.00194833
0.000647438
6.5057e-05
6.41144e-05
0.000747649
0.0021182
0.000965112
0.000266582
4.07584e-05
6.49227e-05
0.000867474
0.00252777
0.00167067
0.000554081
4.32401e-05
8.02912e-05
0.000976888
0.00197037
0.0016901
0.000817258
6.60222e-05
6.67889e-05
0.00077828
0.00185227
0.00237299
0.000857759
7.64899e-05
0.00010555
0.00159914
0.00394925
0.000879203
0.000273309
5.99391e-05
6.13653e-05
0.000766065
0.00175574
0.000542729
0.000193919
4.27631e-05
4.65798e-05
0.000473049
0.00113752
0.000971962
0.000348055
4.63525e-05
2.5228e-05
8.91944e-05
0.000279631
0.000658962
0.000361679
3.10142e-05
2.9238e-05
0.000117512
0.000301966
0.000729841
0.000322251
3.339e-05
3.53801e-05
0.000259935
0.000658617
0.000213191
7.96685e-05
2.33499e-05
2.78193e-05
0.000251467
0.000567514
0.000520413
0.000210145
3.11553e-05
2.17552e-05
6.81808e-05
0.000173471
0.000480333
0.000213992
2.52666e-05
2.8975e-05
0.000185484
0.00044151
0.000152849
6.36515e-05
2.10992e-05
2.37952e-05
0.00018993
0.000424217
0.00038484
0.000168209
2.81743e-05
2.09042e-05
5.95483e-05
0.000137227
0.000375693
0.000171994
2.26312e-05
2.66693e-05
0.000150401
0.000341271
0.000123274
5.50885e-05
2.02793e-05
2.18249e-05
0.000158452
0.000336199
0.000304275
0.000139856
2.63143e-05
2.01526e-05
5.27051e-05
0.000114373
0.000308758
0.000147678
2.09993e-05
2.54365e-05
0.000130337
0.000280805
0.000109973
5.17126e-05
2.00213e-05
2.10382e-05
0.000148899
0.000299639
0.00025495
0.0001206
2.65269e-05
2.20878e-05
9.57501e-05
0.00020814
8.33637e-05
3.78411e-05
1.78977e-05
1.77616e-05
0.000102157
0.000206762
0.000195631
9.60041e-05
2.30077e-05
1.85307e-05
3.8329e-05
7.93825e-05
0.000190656
9.64928e-05
1.73368e-05
2.18257e-05
8.71466e-05
0.000175949
7.39762e-05
3.66512e-05
1.76e-05
1.68763e-05
9.02636e-05
0.000168033
0.00016157
8.69282e-05
2.2057e-05
1.81873e-05
3.58238e-05
7.02886e-05
0.000160827
8.65693e-05
1.68201e-05
2.13486e-05
8.05951e-05
0.000150632
6.65645e-05
3.43994e-05
1.74192e-05
1.61832e-05
7.90323e-05
0.000145792
0.000139692
7.67678e-05
2.0994e-05
1.74349e-05
3.35197e-05
6.3461e-05
0.000137813
7.68274e-05
1.60582e-05
2.12341e-05
7.53135e-05
0.000132355
6.2281e-05
3.35042e-05
1.74301e-05
1.56801e-05
7.15374e-05
0.000127531
0.000123683
7.05649e-05
2.06333e-05
1.68551e-05
3.0073e-05
5.55822e-05
0.000109379
7.92754e-05
1.49872e-05
1.95828e-05
3.88221e-05
6.34548e-05
0.000142724
8.21847e-05
1.75111e-05
2.20356e-05
7.57558e-05
0.000133012
6.40352e-05
3.6944e-05
1.78989e-05
1.62957e-05
7.94369e-05
0.000133551
0.000126075
7.39431e-05
2.15545e-05
1.80251e-05
3.71334e-05
6.29325e-05
0.000131323
7.91076e-05
1.63775e-05
2.12163e-05
7.31891e-05
0.000124363
6.06135e-05
3.66088e-05
1.75539e-05
1.60238e-05
7.38886e-05
0.000117761
0.000111756
6.66134e-05
2.11501e-05
1.75513e-05
3.56554e-05
5.65041e-05
0.000109215
6.90606e-05
1.56144e-05
2.0537e-05
6.37439e-05
0.000103514
5.1125e-05
3.31529e-05
1.68201e-05
1.4706e-05
6.84181e-05
9.2343e-05
5.59587e-05
3.85009e-05
1.93198e-05
1.7094e-05
6.81269e-05
0.000109014
0.000100043
6.12506e-05
2.16799e-05
1.75353e-05
3.6577e-05
5.31095e-05
9.8973e-05
6.45909e-05
1.55423e-05
2.06224e-05
5.97204e-05
8.9998e-05
4.86593e-05
3.46392e-05
1.71481e-05
1.47022e-05
6.48567e-05
8.34067e-05
5.27199e-05
3.81547e-05
1.93951e-05
1.68799e-05
6.56406e-05
0.000101057
9.11517e-05
5.9129e-05
2.14276e-05
1.75618e-05
3.72605e-05
5.08804e-05
9.41644e-05
6.26461e-05
1.55762e-05
2.06969e-05
5.70036e-05
8.52841e-05
4.67816e-05
3.48135e-05
1.71062e-05
1.46806e-05
6.0401e-05
7.60217e-05
4.92305e-05
3.7492e-05
1.93973e-05
1.66316e-05
6.08468e-05
9.25511e-05
8.3294e-05
5.53035e-05
2.12106e-05
1.74188e-05
3.69634e-05
4.71692e-05
8.42976e-05
5.75707e-05
1.55094e-05
2.0597e-05
5.26983e-05
7.65099e-05
4.28393e-05
3.41661e-05
1.7204e-05
1.44816e-05
5.48956e-05
6.72485e-05
4.45756e-05
3.57508e-05
1.89456e-05
1.60132e-05
5.45663e-05
8.24055e-05
7.36162e-05
5.03736e-05
2.05894e-05
1.68638e-05
3.4943e-05
4.27475e-05
6.65279e-05
5.53963e-05
1.42366e-05
1.90236e-05
3.72246e-05
4.49653e-05
8.17287e-05
5.42134e-05
1.60668e-05
2.11478e-05
4.97765e-05
7.28097e-05
4.2517e-05
3.59077e-05
1.73741e-05
1.45647e-05
5.36507e-05
6.53491e-05
4.4783e-05
3.77421e-05
1.90561e-05
1.58979e-05
5.41606e-05
8.01127e-05
7.1709e-05
4.98934e-05
2.07866e-05
1.70485e-05
3.58669e-05
4.20789e-05
6.46447e-05
5.45844e-05
1.41488e-05
1.90919e-05
3.78918e-05
4.43488e-05
7.89056e-05
5.27743e-05
1.61304e-05
2.10965e-05
4.93053e-05
7.08346e-05
4.2437e-05
3.69213e-05
1.73577e-05
1.45503e-05
5.46632e-05
6.38528e-05
4.44476e-05
3.89165e-05
1.92509e-05
1.61566e-05
5.28716e-05
7.78805e-05
6.91358e-05
4.85411e-05
2.09777e-05
1.74132e-05
3.64532e-05
4.11089e-05
6.14247e-05
5.39876e-05
1.43336e-05
1.88109e-05
3.94552e-05
4.39792e-05
6.69688e-05
5.09131e-05
1.51227e-05
1.95853e-05
3.9519e-05
4.62902e-05
7.89422e-05
5.2735e-05
1.64361e-05
2.08951e-05
4.9085e-05
7.04229e-05
4.2666e-05
3.76712e-05
1.70562e-05
1.42187e-05
5.41002e-05
6.30241e-05
4.45366e-05
4.02353e-05
1.92913e-05
1.62009e-05
5.23158e-05
7.63409e-05
6.82776e-05
4.87463e-05
2.11159e-05
1.74418e-05
3.7538e-05
4.14026e-05
6.06212e-05
5.35078e-05
1.45157e-05
1.91233e-05
4.02887e-05
4.41379e-05
6.58193e-05
5.03827e-05
1.54845e-05
1.95564e-05
4.05442e-05
4.62412e-05
7.74038e-05
5.2252e-05
1.62001e-05
2.09686e-05
4.89579e-05
6.92169e-05
4.28257e-05
3.90097e-05
1.72639e-05
1.43509e-05
5.41231e-05
6.17641e-05
4.58396e-05
4.23844e-05
1.93351e-05
1.55044e-05
5.29663e-05
6.75744e-05
4.79271e-05
4.34226e-05
1.98345e-05
1.65516e-05
5.29906e-05
7.93156e-05
7.0645e-05
4.99208e-05
2.14187e-05
1.74307e-05
4.00214e-05
4.37321e-05
6.27555e-05
5.61998e-05
1.44153e-05
1.92103e-05
4.28957e-05
4.65242e-05
6.77524e-05
5.32556e-05
1.54765e-05
1.98332e-05
4.35621e-05
4.83089e-05
7.92811e-05
5.36256e-05
1.65289e-05
2.1276e-05
5.05929e-05
7.08615e-05
4.4629e-05
4.13818e-05
1.75345e-05
1.46794e-05
5.63848e-05
6.37011e-05
4.77723e-05
4.44902e-05
1.96298e-05
1.58734e-05
5.47399e-05
6.9028e-05
4.96176e-05
4.52356e-05
1.99063e-05
1.64695e-05
5.40074e-05
8.01001e-05
7.13794e-05
5.09039e-05
2.11433e-05
1.7418e-05
4.1033e-05
4.46983e-05
6.239e-05
5.57938e-05
1.47253e-05
1.9605e-05
4.39391e-05
4.68249e-05
6.69287e-05
5.36629e-05
1.57775e-05
2.00193e-05
4.49637e-05
4.85377e-05
7.73439e-05
5.28627e-05
1.65903e-05
2.14197e-05
5.02451e-05
6.9149e-05
4.43967e-05
4.16186e-05
1.7679e-05
1.47955e-05
5.57625e-05
6.20457e-05
4.70209e-05
4.42875e-05
1.95238e-05
1.54212e-05
5.28606e-05
6.63604e-05
4.94557e-05
4.51804e-05
1.9655e-05
1.56574e-05
5.41459e-05
6.92103e-05
5.09204e-05
4.798e-05
1.99583e-05
1.66462e-05
5.51819e-05
7.95334e-05
7.09335e-05
5.2329e-05
2.13461e-05
1.75631e-05
4.32099e-05
4.55194e-05
6.36105e-05
5.81816e-05
1.46775e-05
1.95345e-05
4.53246e-05
4.82782e-05
6.71219e-05
5.33779e-05
1.57969e-05
1.99064e-05
4.58973e-05
5.03841e-05
6.94424e-05
5.46375e-05
1.57679e-05
2.00004e-05
4.85315e-05
5.14911e-05
7.93209e-05
5.53643e-05
1.66045e-05
2.13297e-05
5.27196e-05
7.10979e-05
4.67024e-05
4.42872e-05
1.7686e-05
1.47564e-05
5.85416e-05
6.41488e-05
4.92878e-05
4.68571e-05
1.98163e-05
1.58586e-05
5.46735e-05
6.83902e-05
5.16638e-05
4.76675e-05
2.00592e-05
1.60242e-05
5.62391e-05
7.09183e-05
5.3092e-05
5.05393e-05
2.02714e-05
1.68845e-05
5.71572e-05
8.08757e-05
7.25477e-05
5.43194e-05
2.15552e-05
1.76752e-05
4.53333e-05
4.80965e-05
6.50227e-05
5.97726e-05
1.48633e-05
1.98977e-05
4.76994e-05
5.04703e-05
6.86083e-05
5.54069e-05
1.57824e-05
2.00437e-05
4.78535e-05
5.2039e-05
7.04198e-05
5.59217e-05
1.59399e-05
2.03657e-05
5.06867e-05
5.31732e-05
7.95531e-05
5.65569e-05
1.68542e-05
2.16976e-05
5.427e-05
7.19216e-05
4.81597e-05
4.63414e-05
1.80381e-05
1.5127e-05
5.94902e-05
6.45115e-05
5.06194e-05
4.844e-05
1.99083e-05
1.58492e-05
5.55746e-05
6.86828e-05
5.26835e-05
4.8833e-05
2.00232e-05
1.57652e-05
5.60487e-05
7.05567e-05
5.41296e-05
5.01383e-05
2.00296e-05
1.60595e-05
5.84045e-05
7.23831e-05
5.50218e-05
5.30762e-05
2.02698e-05
1.68441e-05
5.89193e-05
8.15278e-05
7.38599e-05
5.62681e-05
2.15633e-05
1.77421e-05
4.68121e-05
5.007e-05
6.56073e-05
6.08044e-05
1.49897e-05
2.01482e-05
4.93944e-05
5.21809e-05
6.88558e-05
5.63873e-05
1.6074e-05
2.03144e-05
4.97673e-05
5.35567e-05
7.05033e-05
5.63206e-05
1.59695e-05
2.01806e-05
5.15635e-05
5.47724e-05
7.29117e-05
5.93864e-05
1.615e-05
2.04115e-05
5.429e-05
5.59247e-05
8.27892e-05
6.00641e-05
1.69531e-05
2.18106e-05
5.77532e-05
7.51203e-05
5.1818e-05
4.95261e-05
1.8043e-05
1.49745e-05
6.36638e-05
6.78368e-05
5.40152e-05
5.189e-05
2.00923e-05
1.58535e-05
5.90619e-05
7.19839e-05
5.59417e-05
5.19361e-05
2.02575e-05
1.61226e-05
5.91102e-05
7.36896e-05
5.72955e-05
5.37743e-05
2.02737e-05
1.61551e-05
6.21815e-05
7.58288e-05
5.83918e-05
5.64762e-05
2.04888e-05
1.71524e-05
6.21223e-05
8.49362e-05
7.72603e-05
5.95698e-05
2.18357e-05
1.80317e-05
5.05485e-05
5.36158e-05
6.87997e-05
6.42224e-05
1.53105e-05
2.04029e-05
5.29393e-05
5.57554e-05
7.22162e-05
5.99886e-05
1.62362e-05
2.0583e-05
5.27111e-05
5.71867e-05
7.33475e-05
5.87086e-05
1.62908e-05
2.05577e-05
5.45844e-05
5.79842e-05
7.55416e-05
6.20951e-05
1.64838e-05
2.07132e-05
5.77672e-05
5.89185e-05
8.48347e-05
6.31156e-05
1.71666e-05
2.21098e-05
6.09221e-05
7.77682e-05
5.48389e-05
5.24779e-05
1.82558e-05
1.52678e-05
6.64546e-05
7.03448e-05
5.71646e-05
5.47376e-05
2.04456e-05
1.62294e-05
6.14834e-05
7.39983e-05
5.901e-05
5.47121e-05
2.06279e-05
1.63627e-05
6.10126e-05
7.58374e-05
6.03015e-05
5.64092e-05
2.05348e-05
1.64586e-05
6.4322e-05
7.76991e-05
6.0922e-05
5.92318e-05
2.06826e-05
1.71822e-05
6.43184e-05
8.64104e-05
7.90978e-05
6.20649e-05
2.2175e-05
1.82503e-05
5.3025e-05
5.60388e-05
7.01863e-05
6.6719e-05
1.54309e-05
2.06409e-05
5.54341e-05
5.80365e-05
7.27038e-05
6.12578e-05
1.63177e-05
2.07529e-05
5.52118e-05
5.91597e-05
7.41909e-05
6.04039e-05
1.6442e-05
2.06316e-05
5.68825e-05
6.01969e-05
7.61714e-05
6.33817e-05
1.64289e-05
2.05448e-05
5.87508e-05
6.17062e-05
7.89642e-05
6.61482e-05
1.64139e-05
2.07655e-05
6.16603e-05
6.27089e-05
8.88414e-05
6.6845e-05
1.73e-05
2.24591e-05
6.47346e-05
8.17685e-05
5.86999e-05
5.69605e-05
1.86187e-05
1.54847e-05
7.03512e-05
7.38303e-05
6.1216e-05
5.91274e-05
2.06198e-05
1.64607e-05
6.53642e-05
7.76827e-05
6.31187e-05
5.93693e-05
2.08299e-05
1.65085e-05
6.60607e-05
7.99616e-05
6.47005e-05
6.09945e-05
2.06664e-05
1.65252e-05
6.90184e-05
8.28121e-05
6.60793e-05
6.41076e-05
2.09126e-05
1.74979e-05
6.94064e-05
9.17799e-05
8.41393e-05
6.70718e-05
2.26366e-05
1.86887e-05
5.85343e-05
6.08766e-05
7.56786e-05
7.26045e-05
1.55803e-05
2.08679e-05
6.08428e-05
6.3534e-05
7.82882e-05
6.71024e-05
1.66567e-05
2.09686e-05
6.02636e-05
6.44986e-05
7.92845e-05
6.58836e-05
1.6747e-05
2.08724e-05
6.18341e-05
6.53904e-05
8.13115e-05
6.86814e-05
1.66773e-05
2.11242e-05
6.49994e-05
6.6057e-05
9.03812e-05
6.92461e-05
1.75871e-05
2.30389e-05
6.75804e-05
8.34879e-05
6.18141e-05
6.05629e-05
1.90185e-05
1.56973e-05
7.33107e-05
7.58565e-05
6.43491e-05
6.26721e-05
2.09341e-05
1.6739e-05
6.84283e-05
7.94482e-05
6.62052e-05
6.28246e-05
2.1091e-05
1.66948e-05
6.86391e-05
8.13515e-05
6.73912e-05
6.43399e-05
2.09663e-05
1.68421e-05
7.08882e-05
8.41235e-05
6.88476e-05
6.77885e-05
2.14232e-05
1.7826e-05
7.20743e-05
9.3264e-05
8.5859e-05
7.0278e-05
2.31512e-05
1.90906e-05
6.26414e-05
6.4185e-05
7.82916e-05
7.64595e-05
1.58059e-05
2.10498e-05
6.44166e-05
6.67595e-05
8.07762e-05
7.01112e-05
1.68092e-05
2.13205e-05
6.42657e-05
6.79409e-05
8.19574e-05
6.95805e-05
1.68801e-05
2.13709e-05
6.61459e-05
6.90243e-05
8.416e-05
7.20219e-05
1.70165e-05
2.18344e-05
6.98161e-05
6.99138e-05
9.34164e-05
7.31868e-05
1.8288e-05
2.38381e-05
7.19217e-05
8.66801e-05
6.63953e-05
6.58815e-05
1.96217e-05
1.63371e-05
7.84824e-05
8.03729e-05
6.91759e-05
6.79441e-05
2.14114e-05
1.70633e-05
7.43976e-05
8.42155e-05
7.10999e-05
6.8203e-05
2.16873e-05
1.70458e-05
7.40709e-05
8.65837e-05
7.19606e-05
7.08681e-05
2.20195e-05
1.84942e-05
7.40888e-05
9.48086e-05
8.75881e-05
7.28353e-05
2.42456e-05
1.97829e-05
6.60308e-05
6.73457e-05
7.95819e-05
7.85906e-05
1.64219e-05
2.18797e-05
6.85887e-05
6.99951e-05
8.27415e-05
7.39934e-05
1.74414e-05
2.21222e-05
6.85966e-05
7.1137e-05
8.46364e-05
7.29351e-05
1.74307e-05
2.2557e-05
7.19327e-05
7.18423e-05
9.2944e-05
7.41125e-05
1.86882e-05
2.46037e-05
7.34112e-05
8.64836e-05
6.8102e-05
6.8571e-05
2.01493e-05
1.65909e-05
7.95963e-05
8.03346e-05
7.05202e-05
7.01189e-05
2.1868e-05
1.72432e-05
7.39681e-05
8.40303e-05
7.27292e-05
7.10027e-05
2.23591e-05
1.77636e-05
7.5334e-05
8.65952e-05
7.39686e-05
7.41534e-05
2.28123e-05
1.8884e-05
7.59352e-05
9.43673e-05
8.79854e-05
7.53226e-05
2.50326e-05
2.02552e-05
6.91888e-05
7.03589e-05
8.029e-05
8.10182e-05
1.66384e-05
2.25612e-05
7.22753e-05
7.29049e-05
8.42902e-05
7.64005e-05
1.78982e-05
2.27774e-05
7.25586e-05
7.39632e-05
8.65751e-05
7.55608e-05
1.79418e-05
2.33789e-05
7.62104e-05
7.49304e-05
9.52888e-05
7.73159e-05
1.94675e-05
2.55835e-05
7.70206e-05
8.90664e-05
7.21338e-05
7.29015e-05
2.07203e-05
1.69953e-05
8.38192e-05
8.33526e-05
7.51434e-05
7.5765e-05
2.29777e-05
1.82669e-05
7.9846e-05
8.81569e-05
7.74312e-05
7.65315e-05
2.35152e-05
1.86983e-05
7.93646e-05
9.11827e-05
7.9156e-05
8.04688e-05
2.42342e-05
2.01347e-05
8.15037e-05
9.97441e-05
9.3409e-05
8.13915e-05
2.65696e-05
2.15829e-05
7.66722e-05
7.64712e-05
8.68822e-05
8.78801e-05
1.76473e-05
2.35313e-05
7.91731e-05
7.88014e-05
9.12574e-05
8.25498e-05
1.87525e-05
2.46797e-05
8.18066e-05
8.03623e-05
9.93529e-05
8.18194e-05
2.05188e-05
2.6931e-05
8.12093e-05
9.35409e-05
7.71079e-05
7.80455e-05
2.20695e-05
1.79031e-05
8.81854e-05
8.7085e-05
8.04889e-05
8.15192e-05
2.42372e-05
1.93417e-05
8.46824e-05
9.27717e-05
8.27238e-05
8.29057e-05
2.49787e-05
1.98409e-05
8.46699e-05
9.6499e-05
8.50625e-05
8.7575e-05
2.58155e-05
2.14776e-05
8.79657e-05
0.00010604
9.94464e-05
8.81553e-05
2.83866e-05
2.31623e-05
8.50732e-05
8.32388e-05
9.42139e-05
9.56512e-05
1.87719e-05
2.507e-05
8.72611e-05
8.60247e-05
9.91257e-05
8.98367e-05
2.00597e-05
2.63808e-05
9.03611e-05
8.80418e-05
0.000108356
8.98842e-05
2.15735e-05
2.88092e-05
9.01531e-05
0.00010237
8.64788e-05
8.8738e-05
2.42609e-05
1.99399e-05
9.7785e-05
9.72011e-05
8.93793e-05
9.18727e-05
2.64972e-05
2.12352e-05
9.37316e-05
0.000103142
9.22265e-05
9.55684e-05
2.78789e-05
2.32511e-05
9.44095e-05
0.00011291
0.000106646
9.48967e-05
3.07269e-05
2.51005e-05
9.28982e-05
9.06712e-05
0.000101844
0.000102497
2.03453e-05
2.76928e-05
9.75644e-05
9.34289e-05
0.000112328
9.56997e-05
2.30956e-05
3.08317e-05
9.55997e-05
0.000106889
9.09073e-05
9.21988e-05
2.5068e-05
2.00082e-05
0.000103217
0.000101234
9.35263e-05
9.51595e-05
2.72417e-05
2.18474e-05
9.62164e-05
0.000105702
9.56096e-05
9.89832e-05
2.90056e-05
2.41659e-05
9.67832e-05
0.000114678
0.00010912
9.80828e-05
3.21071e-05
2.62795e-05
9.70709e-05
9.4708e-05
0.000104262
0.00010514
2.15689e-05
2.92465e-05
0.000102577
9.72939e-05
0.000114568
9.94571e-05
2.45391e-05
3.27402e-05
9.96857e-05
0.000109491
9.59826e-05
9.88628e-05
2.69491e-05
2.17794e-05
0.000106794
0.000105233
9.7877e-05
0.000103479
2.93674e-05
2.39697e-05
9.94048e-05
0.000114913
0.000110024
0.000100249
3.26775e-05
2.72951e-05
9.92051e-05
9.65595e-05
0.000105637
0.000106226
2.23815e-05
3.0465e-05
0.000105293
9.92673e-05
0.000115013
0.000100822
2.52837e-05
3.40269e-05
0.000101646
0.000110325
9.8455e-05
0.000101934
2.79567e-05
2.26349e-05
0.000108337
0.00010644
0.000100909
0.000107352
3.07496e-05
2.54075e-05
0.000102589
0.000116743
0.000112017
0.000103118
3.41716e-05
2.80148e-05
0.000103044
9.96974e-05
0.000108078
0.000111551
2.18472e-05
3.05553e-05
0.000108312
0.000101943
0.000117369
0.000102527
2.58019e-05
3.51474e-05
0.000103734
0.000112836
0.00010204
0.000107765
2.94252e-05
2.40511e-05
0.000111751
0.000110591
0.000105098
0.000114018
3.25108e-05
2.70487e-05
0.000107729
0.000121497
0.000116923
0.000109029
3.62176e-05
2.98874e-05
0.000111474
0.000106365
0.000114583
0.000116473
2.42141e-05
3.30607e-05
0.000118607
0.000109572
0.000126854
0.000113053
2.72496e-05
3.61758e-05
0.000112643
0.000122087
0.000110524
0.000119973
3.14177e-05
2.71609e-05
0.000119437
0.000124918
0.000120977
0.000119036
3.77407e-05
3.20124e-05
0.000119087
0.000112495
0.000121993
0.000122733
2.62808e-05
3.54678e-05
0.000125399
0.000116472
0.000132618
0.000117933
2.9585e-05
3.9422e-05
0.000119625
0.000127793
0.000117453
0.000127578
3.32057e-05
2.82195e-05
0.000127002