/*--------------------------------*- C++ -*----------------------------------*\
| =========                 |                                                 |
| \\      /  F ield         | OpenFOAM: The Open Source CFD Toolbox           |
|  \\    /   O peration     | Version:  v2006                                 |
|   \\  /    A nd           | Website:  www.openfoam.com                      |
|    \\/     M anipulation  |                                                 |
\*---------------------------------------------------------------------------*/
FoamFile
{
    version     2.0;
    format      ascii;
    class       volScalarField;
    location    "0.033";
    object      p;
}
// * * * * * * * * * * * * * * * * * * * * * * * * * * * * * * * * * * * * * //

dimensions      [1 -1 -2 0 0 0 0];


internalField   nonuniform List<scalar> 
16277
(
147986
147992
147995
147981
147991
147988
147989
147992
147996
148001
148006
148012
148018
148024
148031
148037
148044
148051
148059
148067
148075
148083
148092
148101
148110
148119
148129
148139
148149
148160
148171
148182
148193
148204
148216
148228
148240
148252
148264
148276
148289
148301
148314
148327
148339
148352
148365
148378
148391
148404
148416
148429
148442
148454
148467
148479
148492
148504
148516
148528
148539
148551
148562
148573
148584
148595
148605
148615
148625
148634
148643
148652
148661
148669
148677
148685
148692
148699
148705
148712
148718
148723
148728
148732
148735
148737
148737
148737
148736
148737
148736
148741
148745
148755
148772
148783
148790
148779
148778
148775
148772
148773
148773
148768
148767
148767
148762
148762
148762
148758
148758
148759
148755
148755
148754
148752
148752
148752
148750
148750
148750
148748
148748
148749
148747
148747
148746
148746
148746
148746
148745
148745
148745
148745
148745
148745
148745
148745
148745
148745
148745
148745
148746
148745
148745
148746
148746
148747
148747
148747
148747
148749
148749
148749
148750
148750
148750
148752
148752
148752
148753
148753
148753
148755
148756
148756
148757
148757
148757
148760
148760
148760
148762
148762
148762
148765
148765
148765
148768
148768
148767
148771
148771
148771
148774
148774
148774
148777
148777
148778
148781
148780
148780
148784
148785
148785
148788
148788
148788
148792
148792
148792
148796
148796
148796
148800
148801
148801
148805
148805
148804
148809
148810
148810
148814
148814
148814
148819
148819
148819
148824
148824
148824
148829
148829
148830
148834
148834
148834
148840
148840
148840
148845
148845
148845
148851
148852
148852
148857
148857
148857
148863
148864
148864
148870
148869
148869
148876
148876
148876
148883
148882
148882
148889
148890
148890
148896
148896
148896
148903
148904
148904
148910
148910
148910
148918
148918
148918
148925
148925
148925
148933
148933
148933
148941
148941
148940
148949
148949
148949
148957
148957
148957
148965
148966
148966
148974
148973
148973
148982
148983
148983
148991
148991
148991
149000
149000
149000
149009
149009
149009
149018
149018
149019
149027
149027
149027
149037
149037
149037
149046
149046
149046
149056
149056
149056
149065
149065
149065
149075
149075
149075
149085
149084
149084
149094
149095
149095
149104
149104
149104
149114
149114
149114
149124
149123
149123
149133
149134
149134
149143
149143
149143
149152
149153
149153
149162
149161
149161
149171
149171
149171
149180
149180
149180
149189
149189
149189
149197
149197
149197
149205
149205
149205
149213
149212
149212
149220
149220
149220
149227
149226
149226
149233
149233
149233
149239
149238
149238
149244
149244
149244
149248
149248
149248
149252
149252
149252
149254
149254
149254
149257
149257
149257
149258
149258
149258
149258
149258
149259
149258
149258
149258
149257
149257
149257
149255
149255
149255
149252
149252
149252
149247
149247
149248
149243
149243
149243
149237
149237
149238
149232
149232
149232
149225
149225
149225
149219
149219
149218
149210
149211
149211
149204
149204
149203
149195
149195
149195
149187
149187
149187
149178
149178
149179
149171
149170
149170
149161
149161
149162
149154
149153
149153
149144
149144
149145
149137
149137
149136
149128
149128
149128
149121
149121
149120
149112
149113
149113
149106
149106
149105
149098
149098
149098
149092
149092
149092
149085
149085
149085
149080
149080
149079
149073
149074
149074
149069
149069
149069
149063
149063
149064
149059
149059
149060
149055
149055
149055
149051
149052
149052
149047
149048
149048
149046
149045
149044
149040
149042
149043
149041
149039
149037
149034
149036
149039
149037
149035
149032
149029
149032
149034
149032
149031
149028
149028
149028
149028
149025
149027
149028
149027
149025
149022
149021
149024
149027
149025
149022
149019
149019
149021
149024
149023
149020
149017
149016
149019
149022
149021
149018
149015
149015
149017
149020
149019
149015
149013
149013
149015
149018
149017
149014
149011
149011
149013
149016
149015
149012
149010
149009
149012
149015
149014
149010
149008
149008
149010
149013
149012
149009
149007
149006
149008
149011
149011
149008
149005
149005
149007
149010
149009
149006
149003
149004
149006
149009
149007
149004
149002
149001
149004
149007
149007
149004
149002
149000
149002
149005
149002
149001
149000
149000
149001
149002
149002
148998
148995
148992
148999
149007
149011
149008
149003
148981
148978
148979
148986
148996
149000
149001
149000
149001
149000
149000
149000
149000
149000
149000
149000
149000
149001
149000
149001
149001
149001
149002
149002
149003
149005
149007
149008
148988
149002
149023
149018
148997
148985
148995
148997
149001
148994
148997
149000
149000
148998
148995
148998
148999
148999
148999
148999
149000
148999
148999
148999
149000
149000
149000
149001
149001
149001
149002
149001
149001
149001
149002
149002
149002
149002
149002
149002
149002
149003
149003
149003
149003
149003
149003
149003
149004
149003
149003
149003
149004
149004
149004
149004
149004
149004
149004
149005
149005
149005
149004
149005
149005
149005
149006
149005
149005
149005
149005
149006
149006
149006
149006
149006
149006
149006
149007
149006
149006
149006
149007
149007
149007
149007
149007
149007
149007
149008
149008
149008
149007
149007
149008
149008
149008
149008
149008
149008
149008
149008
149009
149009
149008
149008
149009
149009
149009
149009
149009
149009
149009
149010
149010
149010
149009
149009
149010
149010
149010
149010
149010
149010
149010
149010
149010
149010
149010
149010
149011
149011
149011
149011
149011
149011
149011
149011
149011
149011
149011
149011
149011
149012
149012
149012
149012
149012
149012
149012
149012
149012
149012
149012
149012
149012
149013
149012
149012
149012
149012
149013
149012
149012
149012
149013
149013
149012
149012
149012
149013
149013
149012
149012
149012
149013
149013
149013
149012
149012
149012
149012
149012
149012
149012
149012
149012
149012
149011
149011
149012
149012
149012
149012
149011
149011
149011
149012
149011
149011
149011
149010
149011
149011
149011
149011
149010
149010
149010
149011
149010
149010
149009
149008
149009
149010
149009
149009
149008
149007
149008
149008
149008
149007
149006
149005
149006
149007
149006
149005
149004
149003
149004
149005
149003
149002
149001
149000
149001
149002
149001
149000
148999
148997
148998
148999
148998
148997
148995
148993
148995
148996
148995
148993
148991
148988
148990
148992
148990
148988
148985
148983
148986
148987
148979
148981
148982
148982
148976
148973
148970
148972
148976
148964
148965
148965
148957
148958
148958
148954
148953
148952
148945
148947
148950
148948
148946
148943
148945
148947
148949
148951
148949
148947
148951
148953
148954
148956
148955
148953
148956
148958
148959
148965
148964
148963
148969
148971
148974
148976
148976
148974
148976
148978
148982
148986
148983
148980
149001
148999
148998
149012
149023
149016
149008
148894
148990
148989
148992
148986
149001
149002
149005
149012
149009
149008
149016
149016
149016
149021
149023
149024
149032
149029
149024
149033
149042
149048
149049
149047
149043
149067
149048
149038
149039
149053
149073
149046
149071
149085
149094
149100
149075
149091
148957
149127
149082
149091
149077
149092
149098
149101
149100
149104
149107
149122
149114
149109
149118
149119
149121
149140
149126
149117
149152
149149
149143
149158
149161
149165
149063
149216
149099
149160
149155
149165
149167
149173
149180
149199
149183
149173
149186
149195
149206
149200
149213
149218
149235
149242
149226
149254
149115
149293
149224
149240
149238
149267
149261
149258
149278
149276
149270
149298
149294
149292
149312
149324
149314
149339
149202
149386
149336
149346
149333
149355
149361
149364
149388
149386
149378
149409
149421
149420
149502
149304
149460
149447
149464
149456
149479
149485
149483
149529
149525
149519
149554
149560
149560
149590
149581
149575
149637
149646
149650
149697
149688
149693
149659
149850
149705
149818
149818
149824
149897
149900
149886
149993
150001
149995
150145
150122
150085
150117
150168
150186
150271
150216
150161
150120
150176
150224
149988
149986
149954
149680
149685
149630
149306
149377
149391
149218
149166
149078
149057
149083
149093
149009
148971
148910
148934
148954
148967
148916
148915
148859
149061
148674
148944
148837
148930
148780
148845
148838
148854
148850
148853
148843
148834
148835
148827
148813
148809
148810
148817
148826
148826
148815
148822
148827
148800
148805
148802
148815
148823
148818
148833
148818
148791
148794
148797
148800
148817
148829
148840
148855
148810
148783
148785
148792
148807
148816
148839
148841
148854
148823
148767
148787
148790
148803
148835
148841
148840
148846
148823
148810
148789
148796
148805
148819
148838
148843
148868
148834
148781
148796
148804
148815
148851
148852
148842
148833
148833
148832
148808
148825
148805
148883
148636
148960
148844
148880
148861
148864
148822
148829
148667
148970
148756
148846
148846
148871
148866
148865
148809
148873
148666
148971
148862
148883
148863
148859
148830
148839
148679
148956
148762
148848
148849
148857
148865
148832
148829
148750
148979
148684
148862
148845
148849
148820
148841
148826
148945
148641
148862
148848
148866
148852
148832
148851
148839
148882
148636
148960
148848
148865
148833
148793
148832
148821
148979
148604
148863
148812
148930
148788
148829
148809
148815
148855
148841
148825
148781
148807
148858
148800
148785
148780
148814
148832
148849
148872
148809
148774
148795
148798
148814
148816
148838
148840
148852
148816
148763
148767
148773
148786
148823
148814
148783
148739
148807
148848
148800
148789
148766
148810
148833
148842
148812
148820
148768
148830
148573
148965
148756
148885
148773
148768
148765
148781
148799
148798
148784
148771
148784
148797
148751
148746
148744
148776
148779
148779
148735
148764
148756
148800
148521
148890
148734
148806
148744
148733
148727
148735
148765
148774
148782
148785
148742
148724
148703
148708
148722
148748
148746
148742
148692
148726
148731
148767
148484
148856
148691
148778
148706
148697
148692
148699
148741
148742
148737
148724
148709
148704
148665
148663
148672
148697
148702
148696
148690
148660
148682
148550
148872
148453
148720
148612
148695
148645
148642
148632
148701
148693
148676
148642
148673
148670
148782
148443
148677
148626
148703
148612
148616
148609
148616
148655
148638
148619
148586
148604
148666
148565
148703
148475
148644
148609
148635
148596
148599
148603
148616
148619
148613
148587
148578
148597
148411
148707
148503
148590
148536
148608
148537
148542
148542
148577
148573
148566
148518
148553
148569
148580
148346
148665
148540
148624
148544
148525
148516
148523
148530
148544
148554
148549
148490
148500
148245
148718
148393
148556
148344
148623
148449
148481
148456
148481
148486
148483
148454
148454
148455
148481
148503
148512
148481
148472
148449
148434
148366
148478
148432
148467
148434
148410
148401
148410
148423
148435
148437
148427
148388
148411
148142
148628
148285
148459
148230
148533
148350
148383
148355
148394
148405
148409
148364
148361
148360
148366
148376
148379
148337
148354
148329
148369
148102
148487
148279
148394
148301
148296
148288
148296
148318
148320
148312
148279
148275
148275
148304
148310
148308
148291
148275
148291
148115
148418
148207
148302
148211
148334
148224
148234
148229
148240
148246
148245
148204
148204
148206
148224
148229
148226
148183
148199
148198
148204
148012
148287
148160
148239
148172
148157
148151
148153
148192
148191
148180
148146
148146
148150
148165
148166
148161
148128
148137
148102
148309
147836
148172
148048
148283
147992
148074
148048
148080
148081
148089
148085
148045
148043
148048
148073
148075
148072
148011
148053
148048
148102
147740
148235
147939
148228
147988
148017
147999
148014
148014
148020
148010
147967
147962
147968
147978
147981
147975
147938
147935
147936
147956
147963
147960
147941
147914
147941
147652
148148
147816
147975
147746
148046
147863
147886
147864
147894
147900
147898
147869
147864
147861
147871
147879
147877
147829
147828
147829
147841
147846
147845
147777
147815
147808
147849
147507
147990
147690
147928
147737
147754
147735
147746
147762
147768
147759
147722
147718
147722
147742
147744
147737
147699
147697
147695
147736
147735
147727
147696
147707
147673
147898
147381
147739
147597
147873
147533
147632
147604
147637
147632
147643
147637
147583
147578
147588
147601
147608
147606
147560
147559
147562
147585
147590
147584
147559
147530
147562
147417
147818
147239
147701
147322
147611
147479
147498
147495
147508
147512
147500
147454
147452
147450
147463
147466
147460
147415
147412
147411
147429
147433
147426
147386
147385
147387
147402
147404
147400
147364
147377
147335
147619
147002
147428
147235
147646
147136
147306
147263
147315
147311
147325
147315
147279
147267
147275
147290
147301
147301
147234
147234
147238
147242
147250
147249
147195
147194
147197
147205
147213
147212
147146
147175
147165
147191
146901
147330
147067
147271
147102
147110
147094
147106
147107
147117
147105
147061
147053
147060
147076
147080
147073
147030
147028
147031
147051
147052
147041
146995
146994
146995
147011
147012
147006
146966
146978
146939
147203
146600
147021
146845
147205
146767
146894
146871
146904
146890
146910
146891
146843
146828
146845
146859
146869
146866
146797
146800
146806
146815
146824
146822
146773
146771
146771
146783
146790
146788
146721
146751
146741
146771
146431
146922
146617
146860
146659
146671
146652
146666
146659
146678
146659
146612
146599
146612
146633
146634
146623
146568
146562
146559
146580
146582
146573
146524
146522
146522
146541
146540
146535
146490
146502
146454
146770
146087
146555
146336
146805
146232
146405
146380
146421
146403
146424
146399
146363
146340
146357
146363
146375
146367
146304
146301
146307
146310
146317
146313
146258
146255
146256
146259
146268
146265
146204
146204
146207
146217
146225
146221
146173
146163
146174
146080
146207
146022
146186
146075
146151
146065
146079
146061
146084
146071
146073
146011
146012
146003
146022
146026
146018
145962
145959
145960
145967
145972
145965
145914
145913
145914
145929
145930
145921
145872
145883
145866
146000
145627
145871
145784
145955
145744
145780
145765
145785
145778
145796
145790
145711
145706
145717
145720
145729
145727
145659
145656
145659
145652
145659
145655
145587
145586
145590
145590
145596
145587
145549
145536
145544
145446
145613
145377
145550
145433
145521
145431
145444
145432
145455
145442
145442
145376
145377
145370
145391
145391
145380
145312
145308
145305
145318
145321
145311
145250
145249
145251
145260
145261
145250
145190
145195
145179
145242
144986
145150
145080
145227
145047
145048
145031
145059
145045
145070
145037
144990
144972
144989
144995
145005
144999
144936
144931
144933
144928
144938
144935
144857
144858
144861
144865
144877
144876
144804
144813
144806
144738
144636
144789
144723
144805
144721
144671
144648
144671
144660
144678
144658
144581
144569
144583
144562
144572
144561
144475
144457
144447
144481
144485
144480
144428
144443
144415
144654
144062
144460
144316
144561
144273
144313
144308
144326
144305
144339
144303
144239
144212
144234
144230
144248
144235
144156
144149
144157
144152
144170
144170
144092
144072
144075
143915
144212
143781
144075
143875
144019
143893
143908
143896
143864
143841
143861
143754
143753
143721
143776
143782
143774
143713
143709
143707
143731
143731
143721
143652
143668
143635
143932
143217
143690
143499
143793
143443
143485
143488
143506
143485
143525
143494
143403
143380
143400
143377
143398
143378
143286
143272
143285
143269
143289
143287
143153
143179
143171
143108
142831
143236
142943
143072
142988
142943
142918
142925
142965
142976
142956
142884
142878
142875
142890
142896
142884
142803
142799
142801
142815
142816
142800
142718
142725
142707
142754
142472
142648
142582
142719
142577
142535
142504
142533
142483
142516
142476
142380
142354
142373
142349
142368
142363
142183
142226
142225
142158
141753
142278
142040
142144
142052
142013
142001
142000
142027
142043
142020
141936
141928
141930
141931
141936
141923
141820
141814
141816
141812
141818
141802
141711
141712
141729
141523
141606
141542
141591
141543
141643
141440
141469
141456
141414
141407
141428
141249
141270
141266
141197
141201
141207
140947
141009
141043
140914
140887
140868
140994
141002
140985
140910
140908
140909
140901
140910
140897
140789
140785
140788
140773
140780
140766
140665
140674
140679
140507
140487
140491
140504
140530
140518
140386
140385
140394
140337
140355
140352
140210
140197
140185
139937
139928
139943
139833
139864
139877
139726
139681
139645
139735
139758
139758
139687
139684
139685
139708
139714
139695
139602
139615
139607
139492
139370
139446
139425
139507
139434
139309
139281
139310
139258
139282
139272
139123
139112
139106
138864
138846
138890
138837
138920
138850
138691
138663
138684
138443
138491
138517
138342
138288
138226
138130
138173
138196
138295
138317
138310
138192
138198
138202
138187
138209
138210
138048
138065
138051
137850
137727
137932
137787
137887
137794
137667
137635
137682
137578
137603
137568
137362
137365
137385
137057
137031
137039
136906
137016
136798
136512
136561
136686
136663
136650
136600
136577
136564
136590
136415
136583
136358
136560
136479
136507
136344
136360
136320
136330
136317
136309
136129
136155
136135
135879
135768
135836
135774
135872
135762
135569
135524
135564
135349
135371
135357
134907
134956
135020
134580
134448
134315
134641
134684
134688
134659
134642
134668
134384
134640
134460
134525
134493
134581
134275
134340
134327
134250
134261
134272
134020
134029
134007
133608
133588
133612
133556
133571
133536
133269
133233
133300
132437
132733
132674
132519
132429
132290
132343
132366
132427
132241
132376
132163
132393
132401
132380
132217
132205
132190
132162
132164
132141
131885
131902
131906
131426
131406
131420
131292
131324
131313
130963
130909
130951
130219
130191
129932
129718
129885
130026
129945
129866
129792
129776
129790
129814
129913
129947
129937
129795
129792
129783
129403
129397
129395
129297
129279
129254
128870
128886
128879
128123
128098
128173
127642
127460
127267
126860
127125
127322
127194
127110
126975
127084
126965
127118
127197
127292
127253
127083
127036
127047
126486
126603
126428
126186
126154
126167
125591
125502
125414
123744
124135
124453
124027
123835
123619
124325
124373
124363
124448
124439
124443
124223
124317
124251
123936
123480
124061
123289
123466
123397
122624
122378
122168
120533
121073
121464
121268
120919
120889
121747
121836
121679
121764
121746
121752
121437
121466
121454
120678
120428
120768
117778
118995
118966
119228
118932
118815
119378
119389
119468
119477
119410
119412
119138
119164
119274
118511
118148
117611
117282
117627
117938
117848
118211
117458
118843
118742
118804
119002
118759
118316
118073
118639
118954
119147
118989
118734
119639
119786
119788
120651
120544
120256
121395
121519
121543
122414
122442
122407
123123
123142
123120
123668
123678
123664
124117
124127
124122
124520
124522
124515
124869
124875
124874
125193
125192
125187
125476
125480
125482
125746
125744
125740
125983
125987
125989
126213
126210
126207
126414
126417
126420
126611
126608
126605
126782
126784
126787
126952
126949
126947
127100
127102
127105
127247
127244
127243
127376
127377
127380
127506
127502
127501
127618
127620
127623
127734
127731
127729
127834
127835
127839
127938
127935
127933
128026
128028
128030
128119
128116
128115
128198
128199
128201
128281
128279
128277
128352
128353
128355
128426
128424
128423
128491
128492
128494
128559
128557
128556
128617
128618
128620
128679
128678
128677
128733
128734
128735
128789
128788
128787
128838
128839
128839
128889
128888
128887
128933
128934
128935
128980
128979
128978
129020
129021
129021
129063
129062
129061
129100
129100
129101
129139
129138
129137
129173
129173
129173
129208
129207
129207
129239
129240
129240
129272
129272
129271
129301
129301
129301
129331
129330
129330
129357
129357
129357
129385
129384
129384
129409
129409
129409
129434
129434
129434
129457
129457
129457
129480
129480
129480
129501
129501
129501
129522
129522
129522
129541
129541
129541
129561
129561
129561
129579
129579
129578
129596
129596
129596
129613
129613
129612
129629
129629
129629
129644
129644
129644
129659
129660
129659
129673
129674
129673
129688
129688
129688
129701
129701
129700
129714
129714
129714
129726
129726
129725
129738
129738
129738
129749
129749
129748
129760
129760
129760
129770
129770
129769
129780
129780
129780
129790
129790
129789
129799
129799
129799
129808
129808
129807
129816
129817
129816
129824
129825
129824
129832
129833
129833
129840
129840
129840
129847
129848
129848
129854
129854
129854
129861
129861
129861
129867
129867
129867
129874
129874
129874
129880
129880
129879
129886
129886
129886
129891
129891
129891
129897
129897
129897
129902
129902
129901
129907
129907
129907
129911
129911
129911
129916
129916
129916
129920
129920
129920
129925
129925
129925
129929
129929
129928
129933
129933
129933
129936
129936
129936
129940
129940
129940
129944
129944
129943
129947
129947
129947
129950
129950
129950
129954
129954
129954
129956
129956
129956
129960
129960
129960
129962
129962
129962
129965
129965
129965
129967
129967
129967
129970
129970
129970
129972
129972
129972
129975
129975
129975
129977
129977
129976
129979
129979
129979
129981
129981
129981
129983
129983
129983
129984
129984
129984
129987
129986
129986
129988
129988
129988
129990
129990
129990
129991
129991
129991
129993
129993
129993
129994
129994
129994
129996
129995
129995
129997
129997
129996
129998
129998
129998
129999
129999
129999
130000
130000
130000
130001
130001
130001
130002
130002
130002
130003
130003
130003
130004
130004
130004
130005
130005
130005
130006
130006
130006
130007
130006
130006
130007
130007
130007
130008
130008
130008
130009
130009
130009
130009
130009
130009
130010
130010
130010
130010
130010
130010
130011
130011
130011
130011
130011
130011
130011
130011
130011
130011
130011
130011
130012
130012
130012
130012
130012
130012
130012
130012
130012
130012
130012
130012
130012
130012
130012
130012
130012
130012
130013
130013
130013
130013
130012
130012
130013
130013
130013
130012
130012
130012
130012
130012
130012
130012
130012
130012
130012
130012
130012
130012
130012
130012
130012
130012
130012
130012
130011
130011
130011
130011
130011
130011
130011
130011
130011
130011
130011
130010
130010
130010
130010
130010
130010
130009
130009
130009
130009
130009
130009
130008
130008
130008
130008
130008
130008
130007
130007
130007
130006
130006
130006
130005
130005
130005
130004
130004
130004
130003
130003
130003
130002
130002
130002
130001
130001
130001
130000
130000
130000
129999
129999
129999
129998
129998
129998
129996
129996
129996
129995
129995
129995
129994
129994
129994
129993
129993
129993
129991
129991
129991
129990
129990
129990
129988
129988
129988
129987
129987
129987
129986
129986
129985
129984
129984
129984
129983
129983
129982
129982
129982
129982
129980
129980
129980
129979
129979
129979
129978
129978
129978
129977
129977
129976
129973
129973
129973
129967
129967
129967
129964
129964
129963
129972
129973
129973
130003
130006
130007
130031
130026
130024
130040
130067
130036
130014
129986
130035
130070
130028
130003
130028
130055
130044
130028
130019
130014
130012
130011
130011
130012
130012
130012
130012
130012
130012
130012
130012
130012
130011
130010
130010
130010
130010
130010
130008
130010
130016
130020
130028
130036
130046
130057
130069
130081
130092
130100
130104
130107
130111
130116
130122
130130
130138
130148
130159
130170
130184
130198
130214
130233
130254
130277
130304
130335
130369
130409
130453
130504
130561
130625
130698
130779
130870
130972
131086
131212
131351
131505
131674
131859
132060
132278
132512
132763
133029
133312
133608
133918
134240
134573
134914
135263
135618
135976
136337
136699
137060
137420
137775
138127
138473
138813
139147
139472
139790
140099
140400
140692
140974
141248
141513
141769
142015
142253
142483
142704
142917
143121
143318
143508
143690
143865
144033
144194
144349
144498
144642
144779
144911
145038
145160
145277
145389
145497
145601
145701
145797
145889
145977
146062
146144
146222
146298
146370
146440
146507
146572
146634
146694
146751
146806
146859
146911
146960
147007
147053
147097
147139
147179
147218
147256
147292
147327
147360
147393
147423
147453
147482
147509
147536
147561
147586
147609
147632
147653
147674
147694
147713
147731
147749
147765
147781
147796
147811
147825
147838
147851
147863
147874
147885
147895
147904
147913
147921
147929
147936
147943
147949
147954
147959
147964
147967
147971
147977
147984
147990
147993
147993
147995
147983
147990
147990
147998
148006
148010
148014
148019
148024
148029
148034
148039
148045
148051
148058
148064
148072
148079
148087
148095
148104
148113
148122
148132
148141
148152
148162
148173
148183
148194
148206
148217
148229
148241
148253
148265
148277
148290
148302
148315
148327
148340
148353
148365
148378
148391
148404
148417
148429
148442
148454
148467
148479
148492
148504
148516
148527
148539
148550
148562
148573
148583
148594
148604
148614
148624
148633
148642
148651
148659
148667
148675
148682
148689
148696
148702
148708
148713
148719
148723
148728
148731
148733
148733
148735
148740
148750
148756
148758
148755
148752
148750
148749
148747
148746
148746
148746
148745
148746
148746
148747
148748
148749
148750
148752
148754
148756
148758
148761
148763
148766
148768
148772
148774
148778
148781
148785
148788
148793
148796
148801
148805
148810
148814
148820
148824
148830
148835
148841
148846
148852
148858
148864
148870
148877
148883
148890
148896
148904
148911
148919
148926
148934
148941
148950
148957
148966
148974
148983
148991
149001
149009
149019
149028
149038
149046
149057
149066
149076
149085
149095
149104
149115
149124
149134
149143
149153
149162
149172
149180
149190
149197
149206
149213
149221
149227
149234
149239
149245
149248
149253
149255
149257
149258
149259
149258
149257
149255
149252
149247
149243
149237
149232
149224
149218
149210
149203
149194
149187
149177
149170
149160
149153
149143
149136
149127
149120
149111
149105
149097
149091
149084
149079
149073
149068
149063
149059
149054
149051
149047
149045
149041
149039
149036
149035
149032
149031
149028
149026
149024
149023
149021
149021
149019
149018
149017
149016
149015
149015
149013
149013
149011
149011
149010
149010
149008
149008
149007
149007
149005
149006
149004
149003
149003
149002
149001
149001
149000
149002
149004
149007
149002
149004
149002
149001
149000
149002
149002
149002
149003
149003
149004
149005
149004
149005
149006
149006
149006
149008
149007
149008
149009
149008
149009
149011
149010
149011
149012
149011
149012
149014
149013
149014
149015
149014
149016
149017
149016
149018
149019
149018
149020
149021
149020
149022
149024
149023
149024
149027
149025
149027
149030
149028
149031
149034
149032
149035
149038
149037
149040
149044
149042
149046
149050
149048
149052
149058
149055
149061
149067
149064
149070
149077
149075
149082
149089
149087
149094
149103
149100
149109
149117
149116
149124
149133
149132
149140
149150
149149
149157
149167
149167
149175
149185
149184
149192
149201
149202
149208
149217
149218
149223
149231
149232
149236
149243
149246
149247
149253
149256
149255
149259
149261
149259
149260
149263
149259
149260
149262
149256
149255
149257
149250
149248
149249
149241
149237
149238
149229
149224
149224
149215
149210
149209
149199
149193
149192
149182
149176
149174
149164
149157
149155
149145
149138
149136
149126
149119
149116
149106
149099
149096
149087
149079
149077
149067
149060
149057
149048
149041
149038
149029
149022
149020
149011
149004
149002
148993
148986
148984
148976
148969
148967
148959
148953
148950
148943
148937
148935
148927
148922
148920
148912
148907
148905
148898
148893
148891
148884
148880
148878
148871
148867
148865
148859
148855
148853
148847
148843
148842
148836
148832
148831
148825
148822
148821
148815
148812
148812
148806
148803
148803
148797
148795
148794
148789
148787
148787
148782
148780
148780
148775
148773
148773
148769
148767
148767
148764
148762
148762
148759
148758
148758
148755
148754
148754
148751
148751
148751
148749
148748
148748
148747
148747
148747
148746
148746
148747
148746
148747
148747
148747
148749
148748
148750
148752
148749
148754
148744
148745
148746
148747
148748
148750
148752
148756
148760
148764
148769
148775
148781
148788
148796
148804
148813
148823
148833
148843
148855
148867
148879
148892
148906
148920
148936
148951
148968
148984
149002
149020
149039
149058
149078
149097
149117
149137
149157
149176
149195
149213
149229
149244
149256
149265
149271
149272
149270
149264
149252
149237
149220
149203
149184
149165
149146
149128
149112
149096
149083
149071
149060
149052
149045
149039
149035
149031
149027
149025
149022
149020
149018
149016
149015
149013
149012
149010
149009
149007
149006
149005
149004
149003
149002
149002
149000
149002
149002
149000
149001
149000
149001
149001
149001
149000
149001
149002
149003
149004
149005
149006
149007
149008
149009
149011
149012
149014
149015
149016
149018
149020
149018
149017
149016
149014
149013
149012
149011
149009
149008
149007
149006
149005
149003
149003
149002
149001
149000
149000
149001
149001
149000
149000
149001
149002
149002
149003
149003
149002
149002
149001
149000
149001
149002
149000
149000
149001
149001
149001
149002
149003
149004
149004
149004