/*--------------------------------*- C++ -*----------------------------------*\
| =========                 |                                                 |
| \\      /  F ield         | OpenFOAM: The Open Source CFD Toolbox           |
|  \\    /   O peration     | Version:  v2006                                 |
|   \\  /    A nd           | Website:  www.openfoam.com                      |
|    \\/     M anipulation  |                                                 |
\*---------------------------------------------------------------------------*/
FoamFile
{
    version     2.0;
    format      ascii;
    class       volScalarField;
    location    "0.065";
    object      isentropic(p);
}
// * * * * * * * * * * * * * * * * * * * * * * * * * * * * * * * * * * * * * //

dimensions      [1 -1 -2 0 0 0 0];


internalField   nonuniform List<scalar> 
23013
(
150004
150005
150008
149999
150006
150003
150004
150005
150006
150006
150006
150006
150005
150005
150005
150005
150005
150004
150004
150004
150004
150004
150004
150004
150004
150004
150004
150004
150004
150004
150004
150004
150004
150004
150004
150003
150003
150003
150003
150003
150003
150003
150003
150003
150003
150003
150003
150003
150003
150003
150003
150003
150003
150003
150003
150003
150003
150002
150002
150002
150002
150002
150002
150002
150002
150002
150002
150002
150002
150002
150002
150002
150002
150002
150002
150002
150002
150002
150002
150002
150002
150001
150001
150001
150001
150001
150001
150001
150001
150001
150001
150001
150001
150001
150001
150001
150001
150001
150001
150001
150001
150001
150001
150001
150000
150000
150000
149999
149999
149999
150000
150001
150001
150002
150001
150002
150002
150003
150004
150006
150009
150007
149982
149957
150003
150011
150009
149996
149931
149908
149990
150007
150003
149982
149885
149865
149975
150001
149997
149967
149847
149833
149961
149993
149988
149953
149819
149808
149948
149985
149983
149941
149795
149788
149937
149979
149976
149930
149777
149772
149926
149973
149966
149920
149766
149760
149916
149965
149958
149911
149757
149750
149908
149958
149952
149902
149746
149741
149900
149952
149952
149894
149732
149730
149892
149949
149948
149887
149723
149723
149886
149944
149942
149881
149717
149716
149879
149940
149934
149875
149715
149713
149874
149933
149927
149870
149712
149708
149869
149929
149928
149864
149702
149702
149864
149927
149927
149860
149696
149699
149859
149923
149921
149855
149694
149695
149855
149919
149918
149852
149692
149692
149851
149917
149915
149848
149688
149690
149848
149913
149909
149845
149689
149688
149845
149909
149905
149842
149687
149685
149842
149907
149905
149838
149683
149682
149839
149906
149905
149835
149678
149680
149835
149903
149902
149832
149676
149678
149833
149901
149897
149830
149677
149677
149830
149897
149898
149827
149673
149675
149827
149896
149896
149824
149671
149674
149825
149894
149889
149822
149675
149674
149823
149890
149887
149820
149673
149673
149821
149889
149887
149818
149671
149673
149819
149887
149888
149816
149669
149672
149817
149886
149883
149814
149671
149673
149815
149883
149880
149812
149672
149673
149813
149882
149880
149811
149672
149673
149812
149880
149878
149810
149672
149674
149811
149879
149875
149809
149675
149675
149810
149877
149875
149808
149674
149676
149809
149876
149874
149807
149675
149678
149808
149875
149872
149806
149678
149679
149808
149874
149873
149806
149678
149681
149808
149873
149871
149806
149681
149684
149808
149872
149869
149807
149685
149686
149808
149871
149868
149807
149687
149687
149809
149873
149869
149808
149689
149688
149810
149875
149870
149809
149691
149689
149811
149876
149871
149811
149692
149690
149813
149878
149874
149812
149693
149692
149815
149880
149876
149815
149694
149695
149817
149881
149878
149817
149696
149700
149820
149879
149879
149820
149697
149699
149823
149882
149882
149822
149697
149700
149825
149885
149884
149825
149697
149700
149828
149886
149886
149827
149695
149696
149830
149890
149889
149829
149693
149694
149831
149892
149891
149830
149690
149691
149833
149893
149893
149831
149686
149686
149833
149896
149894
149831
149681
149680
149833
149897
149895
149831
149675
149675
149833
149897
149896
149830
149668
149667
149832
149899
149896
149829
149661
149660
149830
149899
149896
149827
149653
149652
149828
149898
149896
149824
149645
149643
149825
149898
149895
149821
149636
149634
149822
149897
149894
149818
149627
149625
149819
149896
149893
149814
149617
149614
149815
149894
149892
149810
149606
149603
149810
149893
149891
149805
149594
149591
149805
149891
149886
149800
149585
149584
149800
149885
149881
149795
149576
149573
149794
149882
149879
149789
149564
149559
149788
149883
149880
149782
149550
149546
149782
149881
149877
149775
149539
149537
149775
149877
149868
149769
149533
149533
149769
149867
149861
149763
149527
149524
149763
149862
149858
149756
149518
149514
149756
149860
149859
149750
149505
149505
149750
149857
149855
149744
149498
149500
149744
149851
149845
149738
149496
149492
149738
149848
149840
149732
149490
149485
149732
149844
149842
149726
149479
149480
149726
149839
149838
149721
149473
149476
149721
149834
149827
149716
149474
149472
149716
149829
149824
149711
149468
149468
149712
149824
149824
149706
149460
149463
149707
149821
149815
149702
149460
149459
149702
149817
149811
149698
149457
149457
149698
149812
149810
149693
149451
149449
149694
149813
149807
149689
149447
149444
149690
149810
149806
149685
149441
149444
149686
149803
149802
149682
149438
149438
149682
149804
149800
149678
149434
149434
149679
149801
149797
149674
149431
149432
149675
149797
149793
149671
149428
149428
149672
149794
149787
149668
149428
149426
149669
149791
149785
149664
149424
149424
149665
149787
149782
149661
149421
149420
149662
149785
149778
149658
149419
149418
149659
149782
149779
149655
149413
149417
149656
149776
149776
149652
149411
149414
149653
149774
149767
149649
149413
149410
149650
149772
149767
149646
149408
149411
149647
149766
149767
149643
149403
149408
149645
149764
149761
149640
149404
149400
149642
149766
149762
149639
149398
149396
149641
149770
149767
149640
149395
149414
149651
149766
149772
149660
149420
149408
149660
149788
149780
149665
149425
149421
149666
149785
149888
149927
149939
149945
149956
149960
149962
149962
149959
149955
149948
149941
149923
149913
149902
149889
149885
149868
149797
149643
149482
149235
149228
149476
149638
149623
149461
149214
149205
149449
149611
149611
149450
149204
149200
149445
149605
149606
149444
149198
149196
149442
149602
149602
149442
149196
149192
149439
149599
149602
149442
149195
149196
149443
149600
149603
149444
149196
149194
149440
149601
149604
149445
149197
149198
149445
149602
149606
149447
149198
149197
149444
149604
149607
149447
149199
149200
149447
149605
149608
149449
149200
149201
149448
149607
149609
149450
149202
149201
149449
149608
149611
149452
149202
149203
149451
149610
149612
149454
149205
149203
149452
149610
149614
149454
149204
149205
149454
149612
149615
149456
149207
149206
149455
149613
149617
149457
149206
149208
149456
149615
149618
149459
149209
149208
149458
149616
149620
149460
149209
149211
149460
149618
149621
149461
149211
149209
149460
149619
149623
149463
149212
149214
149463
149621
149624
149464
149213
149212
149463
149622
149626
149466
149214
149216
149466
149624
149626
149467
149216
149215
149466
149625
149628
149469
149216
149218
149469
149627
149629
149470
149218
149218
149470
149628
149631
149472
149219
149220
149471
149629
149632
149473
149220
149221
149473
149630
149634
149475
149222
149222
149474
149632
149635
149475
149222
149223
149476
149633
149637
149478
149224
149224
149476
149635
149638
149478
149225
149226
149479
149636
149640
149481
149227
149226
149479
149638
149641
149481
149227
149228
149482
149639
149642
149483
149228
149229
149482
149641
149643
149484
149230
149231
149485
149642
149645
149486
149231
149231
149484
149643
149646
149487
149232
149233
149487
149644
149648
149489
149233
149233
149487
149646
149649
149490
149235
149234
149489
149647
149650
149491
149235
149236
149490
149648
149651
149492
149237
149236
149491
149649
149653
149494
149237
149238
149493
149651
149654
149494
149239
149238
149493
149652
149655
149496
149239
149240
149495
149654
149656
149496
149240
149239
149495
149654
149658
149498
149240
149241
149497
149656
149659
149498
149241
149241
149497
149657
149660
149499
149241
149242
149498
149659
149661
149499
149241
149241
149499
149659
149663
149501
149242
149242
149499
149661
149664
149500
149241
149241
149500
149662
149666
149502
149242
149241
149500
149664
149666
149501
149240
149240
149501
149665
149669
149502
149240
149238
149500
149667
149670
149501
149238
149237
149501
149668
149672
149503
149236
149234
149500
149670
149674
149502
149233
149233
149502
149673
149677
149503
149231
149228
149500
149675
149679
149502
149227
149226
149503
149678
149682
149505
149225
149222
149502
149681
149685
149505
149221
149220
149505
149684
149689
149507
149220
149218
149505
149688
149692
149509
149220
149220
149511
149692
149697
149513
149220
149222
149514
149697
149701
149519
149225
149228
149522
149702
149707
149527
149231
149235
149530
149707
149712
149537
149241
149246
149542
149714
149720
149550
149255
149263
149556
149720
149725
149564
149271
149284
149573
149729
149734
149583
149297
149311
149590
149736
149742
149603
149329
149348
149614
149745
149748
149621
149362
149382
149632
149752
149762
149650
149409
149422
149664
149769
149616
149451
149152
149225
149523
149704
149719
149543
149238
149249
149556
149730
149739
149570
149262
149279
149581
149747
149754
149593
149292
149307
149605
149760
149767
149617
149324
149342
149631
149775
149781
149642
149360
149380
149655
149788
149796
149670
149402
149416
149678
149799
149806
149689
149437
149455
149699
149810
149816
149710
149476
149499
149728
149823
149824
149749
149526
149288
149542
149719
149778
149628
149341
149352
149644
149791
149799
149659
149377
149392
149663
149797
149808
149683
149422
149448
149694
149813
149820
149709
149471
149487
149717
149821
149833
149739
149524
149548
149761
149840
149848
149773
149568
149337
149612
149739
149812
149683
149437
149464
149713
149828
149837
149731
149487
149513
149744
149846
149854
149760
149538
149563
149770
149860
149862
149785
149582
149607
149799
149871
149878
149815
149630
149424
149677
149784
149846
149737
149504
149527
149760
149860
149868
149773
149556
149575
149781
149869
149876
149796
149603
149631
149816
149884
149894
149832
149654
149461
149707
149806
149863
149761
149557
149597
149793
149884
149892
149812
149619
149649
149828
149902
149908
149848
149664
149682
149855
149915
149827
149734
149491
149595
149796
149891
149904
149826
149632
149655
149835
149906
149918
149856
149692
149718
149870
149927
149930
149890
149742
149597
149803
149866
149918
149852
149688
149718
149878
149933
149939
149889
149739
149773
149915
149942
149929
149811
149679
149735
149894
149945
149939
149884
149729
149767
149908
149954
149959
149932
149805
149725
149841
149951
149954
149906
149771
149783
149914
149961
149981
149944
149830
149846
149957
149981
149952
149866
149772
149833
149944
149982
149996
149961
149862
149869
149966
149992
149966
149944
149799
149895
149987
150012
150007
149995
149903
149876
149925
150023
150033
150020
149948
149933
150004
150026
150032
150025
149973
149965
150025
150041
150043
150059
149981
150027
150024
150088
150083
150087
150056
150094
150095
150081
150094
150092
150081
150154
150132
150109
150105
150128
150140
150136
150121
150100
150110
150131
150146
150146
150140
150120
150118
150138
150139
150068
150093
150085
150072
150067
150045
149986
150036
150044
150031
150014
149962
149961
150017
150025
150003
149977
149905
149958
150011
150018
150007
149981
149912
149824
149957
149965
149998
149973
149907
149844
149938
149971
149987
149963
149871
149852
149949
149979
149954
149909
149813
149837
149947
149973
149961
149930
149807
149748
149901
149929
149971
149946
149840
149793
149909
149955
149903
149873
149690
149803
149922
149960
149948
149900
149783
149671
149865
149906
149951
149882
149757
149710
149844
149900
149960
149922
149805
149780
149917
149946
149930
149880
149748
149709
149787
149913
149948
149937
149810
149760
149895
149927
149883
149851
149659
149772
149900
149935
149926
149891
149746
149706
149801
149900
149928
149895
149758
149728
149876
149918
149869
149833
149647
149752
149884
149925
149917
149878
149729
149696
149800
149883
149922
149888
149754
149725
149871
149911
149866
149828
149656
149756
149886
149923
149912
149870
149727
149671
149802
149867
149923
149888
149757
149737
149856
149913
149865
149806
149673
149751
149883
149919
149911
149863
149732
149674
149806
149866
149920
149886
149755
149726
149869
149909
149863
149803
149669
149753
149883
149918
149907
149867
149725
149670
149802
149863
149918
149883
149756
149731
149865
149909
149863
149803
149671
149754
149882
149917
149907
149865
149728
149670
149800
149862
149917
149880
149751
149732
149859
149908
149863
149804
149674
149751
149881
149917
149908
149860
149730
149668
149801
149861
149916
149880
149750
149729
149856
149907
149859
149798
149667
149749
149879
149916
149908
149860
149729
149669
149799
149861
149915
149878
149749
149728
149857
149906
149859
149797
149665
149745
149877
149914
149904
149855
149721
149656
149792
149855
149915
149879
149748
149721
149857
149905
149858
149795
149660
149740
149875
149912
149903
149849
149716
149653
149791
149854
149911
149872
149735
149718
149837
149903
149844
149794
149632
149733
149869
149908
149899
149848
149710
149628
149808
149850
149913
149873
149735
149683
149833
149887
149833
149791
149575
149711
149852
149912
149858
149796
149651
149742
149867
149918
149906
149849
149725
149665
149798
149857
149913
149876
149744
149728
149848
149907
149855
149793
149660
149727
149866
149904
149899
149863
149711
149677
149759
149876
149907
149883
149722
149674
149818
149871
149916
149879
149744
149712
149845
149902
149851
149788
149650
149742
149880
149917
149904
149840
149714
149640
149781
149849
149906
149866
149721
149695
149862
149895
149880
149754
149667
149717
149886
149907
149868
149813
149664
149731
149875
149913
149899
149843
149702
149643
149785
149851
149911
149872
149728
149694
149864
149898
149875
149742
149658
149719
149894
149909
149872
149816
149665
149726
149876
149911
149893
149844
149687
149599
149799
149839
149906
149859
149710
149653
149805
149860
149918
149890
149753
149717
149860
149904
149851
149785
149640
149725
149873
149911
149897
149868
149695
149660
149752
149868
149906
149883
149709
149654
149810
149867
149911
149873
149725
149698
149837
149897
149840
149790
149617
149707
149862
149905
149865
149807
149653
149741
149887
149918
149904
149856
149708
149635
149783
149851
149905
149864
149715
149692
149856
149895
149884
149746
149663
149708
149900
149901
149869
149810
149650
149701
149863
149902
149888
149853
149664
149628
149719
149855
149898
149883
149689
149644
149807
149867
149907
149872
149714
149674
149834
149888
149829
149795
149560
149695
149841
149906
149852
149789
149620
149696
149859
149899
149887
149860
149669
149627
149718
149867
149876
149907
149681
149631
149794
149862
149896
149857
149685
149621
149784
149848
149910
149868
149707
149687
149840
149895
149839
149771
149613
149702
149866
149905
149861
149799
149634
149709
149869
149907
149894
149837
149687
149595
149787
149837
149900
149855
149691
149622
149793
149856
149902
149862
149697
149667
149843
149889
149840
149729
149618
149674
149859
149890
149850
149785
149613
149707
149871
149906
149884
149828
149663
149542
149794
149826
149909
149823
149694
149603
149782
149842
149896
149858
149683
149618
149789
149852
149898
149857
149692
149663
149837
149884
149836
149718
149611
149659
149860
149883
149843
149776
149599
149670
149850
149893
149849
149785
149613
149689
149861
149903
149889
149830
149670
149585
149755
149827
149893
149849
149673
149603
149779
149847
149899
149857
149686
149652
149818
149878
149817
149784
149528
149664
149820
149894
149833
149767
149583
149661
149846
149889
149840
149773
149593
149669
149847
149889
149873
149835
149633
149589
149689
149833
149867
149860
149629
149576
149758
149833
149885
149842
149657
149594
149770
149838
149893
149848
149674
149647
149808
149873
149810
149776
149530
149653
149818
149887
149826
149757
149568
149648
149838
149882
149833
149763
149579
149656
149839
149884
149867
149827
149621
149580
149678
149827
149855
149855
149609
149557
149749
149825
149875
149828
149627
149557
149750
149823
149886
149843
149659
149626
149798
149866
149798
149762
149492
149644
149799
149885
149814
149742
149543
149624
149826
149872
149821
149748
149554
149633
149831
149877
149828
149758
149570
149651
149836
149882
149861
149803
149617
149559
149687
149806
149860
149829
149604
149530
149729
149810
149871
149822
149617
149549
149745
149819
149875
149826
149631
149606
149782
149855
149789
149750
149478
149614
149790
149873
149807
149733
149526
149607
149819
149865
149811
149737
149534
149616
149822
149868
149817
149742
149544
149631
149823
149871
149852
149802
149590
149535
149647
149799
149835
149836
149569
149509
149717
149802
149856
149808
149588
149510
149720
149799
149860
149811
149599
149529
149732
149808
149866
149818
149616
149586
149776
149846
149780
149723
149478
149587
149789
149857
149794
149715
149503
149588
149803
149853
149798
149719
149513
149601
149811
149858
149806
149730
149527
149614
149813
149861
149839
149779
149572
149516
149637
149783
149827
149819
149549
149478
149695
149783
149845
149794
149563
149486
149706
149788
149847
149796
149572
149502
149715
149793
149852
149802
149591
149553
149765
149830
149770
149643
149494
149550
149797
149834
149776
149689
149469
149557
149788
149841
149781
149698
149476
149570
149795
149846
149789
149707
149489
149577
149791
149845
149826
149777
149540
149486
149596
149778
149796
149816
149504
149443
149671
149765
149830
149776
149531
149445
149676
149766
149831
149775
149538
149460
149688
149773
149838
149784
149563
149517
149725
149808
149736
149693
149363
149544
149727
149839
149756
149669
149425
149518
149767
149820
149758
149669
149430
149520
149766
149822
149760
149673
149435
149537
149776
149828
149768
149682
149449
149550
149773
149828
149808
149749
149510
149444
149570
149748
149782
149789
149471
149399
149645
149742
149813
149756
149495
149399
149650
149744
149810
149754
149500
149413
149655
149746
149813
149757
149510
149428
149667
149753
149816
149761
149526
149485
149725
149794
149725
149572
149413
149469
149759
149792
149730
149633
149379
149481
149745
149803
149737
149644
149390
149486
149745
149803
149739
149647
149401
149501
149750
149807
149748
149660
149420
149522
149758
149812
149784
149698
149477
149323
149638
149702
149803
149699
149483
149363
149624
149719
149788
149727
149460
149364
149624
149720
149788
149727
149461
149374
149627
149722
149792
149732
149473
149388
149638
149730
149798
149742
149497
149458
149687
149772
149688
149620
149300
149451
149695
149786
149706
149607
149332
149439
149718
149779
149709
149609
149344
149445
149718
149780
149712
149615
149354
149460
149723
149782
149718
149624
149367
149481
149729
149787
149760
149684
149426
149349
149517
149685
149746
149730
149396
149307
149583
149690
149764
149697
149407
149313
149587
149692
149765
149702
149419
149313
149589
149692
149766
149704
149425
149337
149607
149703
149773
149714
149450
149402
149648
149743
149654
149591
149228
149400
149649
149761
149673
149567
149279
149383
149683
149750
149676
149570
149283
149393
149686
149753
149680
149575
149295
149401
149687
149754
149687
149584
149312
149425
149693
149758
149731
149654
149369
149295
149454
149655
149703
149719
149330
149240
149536
149652
149735
149664
149347
149246
149546
149659
149735
149666
149353
149249
149548
149658
149734
149665
149359
149265
149555
149662
149735
149667
149371
149273
149561
149666
149741
149677
149397
149337
149625
149714
149626
149470
149254
149314
149648
149707
149637
149520
149213
149330
149650
149722
149643
149527
149222
149338
149652
149723
149645
149534
149234
149352
149654
149725
149654
149546
149255
149371
149659
149727
149699
149617
149311
149224
149408
149614
149678
149665
149275
149174
149498
149619
149702
149627
149291
149184
149502
149622
149703
149628
149297
149187
149504
149621
149705
149633
149313
149208
149519
149632
149710
149638
149338
149275
149586
149680
149589
149396
149184
149250
149628
149673
149598
149476
149139
149263
149614
149687
149606
149487
149153
149273
149614
149691
149607
149487
149161
149292
149620
149693
149615
149496
149177
149315
149622
149695
149665
149578
149246
149160
149347
149576
149636
149640
149198
149092
149446
149574
149667
149591
149224
149098
149453
149581
149670
149595
149240
149115
149456
149582
149665
149587
149242
149123
149462
149585
149672
149598
149273
149207
149544
149643
149543
149339
149102
149184
149588
149635
149553
149422
149065
149191
149563
149646
149560
149429
149072
149204
149571
149653
149563
149433
149081
149217
149574
149654
149574
149448
149105
149246
149579
149657
149624
149526
149168
149073
149292
149524
149600
149588
149136
149010
149390
149528
149629
149547
149160
149030
149402
149539
149630
149544
149162
149048
149411
149543
149627
149542
149164
149048
149412
149542
149634
149552
149202
149134
149491
149603
149490
149293
149013
149114
149528
149594
149508
149364
148977
149134
149529
149614
149515
149374
148990
149144
149529
149614
149523
149386
149018
149155
149529
149616
149532
149399
149039
149182
149538
149622
149589
149459
149126
148908
149358
149465
149595
149466
149094
148940
149339
149487
149590
149502
149098
148957
149351
149493
149593
149505
149111
148986
149370
149507
149598
149515
149150
149049
149439
149558
149442
149218
148939
149030
149476
149547
149453
149301
148890
149040
149466
149562
149465
149317
148909
149060
149478
149571
149473
149326
148927
149080
149482
149574
149484
149342
148952
149119
149495
149582
149552
149415
149051
148849
149266
149406
149549
149433
149024
148863
149290
149444
149549
149453
149022
148878
149298
149449
149550
149458
149037
148906
149314
149459
149561
149473
149082
148996
149400
149531
149391
149190
148841
148984
149436
149506
149404
149239
148810
148961
149411
149516
149412
149255
148823
148986
149424
149523
149428
149276
148854
149035
149441
149536
149500
149362
148947
148780
149149
149356
149483
149392
148917
148767
149216
149384
149501
149399
148933
148784
149232
149395
149502
149401
148946
148807
149249
149405
149513
149419
148993
148916
149332
149483
149322
149165
148693
148893
149352
149476
149363
149193
148717
148910
149382
149484
149372
149207
148739
148928
149389
149486
149396
149241
148792
148929
149378
149484
149431
149278
148832
148648
149098
149289
149434
149319
148830
148667
149148
149325
149451
149343
148855
148688
149173
149344
149459
149356
148894
148805
149258
149422
149258
149102
148565
148796
149286
149429
149300
149114
148603
148803
149311
149427
149308
149127
148630
148818
149319
149434
149328
149153
148668
148861
149332
149442
149406
149248
148758
148573
149010
149238
149379
149275
148730
148568
149084
149275
149404
149301
148781
148601
149108
149287
149397
149280
148774
148669
149164
149343
149176
148997
148419
148674
149212
149353
149224
149025
148469
148694
149245
149367
149248
149055
148514
148740
149255
149377
149333
149168
148613
148458
148868
149164
149309
149207
148600
148416
148982
149192
149336
149212
148633
148441
149004
149207
149346
149222
148664
148486
149034
149230
149360
149240
148713
148613
149148
149327
149132
148906
148373
148612
149173
149305
149186
148977
148409
148696
149218
149325
149170
148965
148409
148636
149173
149302
149255
149071
148523
148306
148848
149084
149259
149121
148540
148332
148923
149137
149285
149155
148588
148458
149058
149249
149047
148762
148247
148453
149092
149220
149084
148853
148227
148494
149115
149253
149123
148904
148288
148537
149131
149264
149224
149023
148401
148175
148733
149013
149191
149056
148395
148174
148815
149055
149221
149088
148448
148233
148867
149093
149240
149115
148523
148410
149016
149209
148929
148652
148011
148301
148956
149125
148986
148743
148076
148378
149019
149171
149129
148913
148233
147983
148590
148901
149101
148945
148238
147999
148694
148954
149139
148985
148283
148054
148750
148997
149156
149007
148344
148225
148890
149119
148872
148598
147900
148220
148924
149092
148953
148695
147981
148281
148974
149129
149090
148854
148139
147793
148522
148823
149047
148880
148142
147900
148660
148927
149073
148945
148281
147949
148700
148956
148708
148400
147642
147981
148767
148958
148803
148521
147726
148066
148834
149008
148961
148672
147903
147538
148409
148680
148949
148721
147925
147622
148455
148759
148971
148783
147979
147703
148515
148802
149001
148827
148067
147905
148695
148959
148683
148357
147556
147938
148737
148924
148913
148600
147788
147362
148332
148596
148878
148640
147787
147485
148399
148712
148905
148752
147994
147578
148466
148762
148449
148082
147189
147603
148523
148747
148575
148247
147319
147707
148606
148813
148762
148436
147530
147108
148094
148445
148746
148505
147587
147236
148207
148555
148794
148589
147685
147497
148444
148753
148411
148014
147077
147531
148479
148709
148527
148170
147193
147645
148565
148771
148748
148438
147481
147021
147999
148398
148672
148471
147539
147444
148374
148711
148191
147826
146610
147100
148186
148475
148259
147869
146771
147284
148329
148586
148519
148160
147088
146668
147746
148201
148527
148260
147205
146977
148114
148489
148116
147613
146553
147055
148191
148454
148242
147816
146679
147217
148296
148537
148497
148124
146997
146506
147646
148108
148439
148181
147079
146881
148057
148447
148057
147595
146374
147104
148128
148357
148162
147726
146454
145906
147196
147721
148143
147828
146546
146150
147457
147917
148266
147977
146753
146540
147807
148219
147837
147313
146035
146676
147907
148220
148196
147762
146461
145904
147226
147778
148166
147849
146584
146364
147710
148162
147715
147155
145780
146530
147807
148119
148141
147690
146273
145775
147154
147703
147893
147491
146035
145583
147150
147699
147279
146657
145042
145939
147417
147809
147731
147212
145625
145107
146642
147336
147801
147430
145926
145637
147205
147775
147272
146638
145014
145871
147371
147764
147752
147199
145563
144936
146536
147223
147702
147361
145830
145603
147207
147772
147281
146710
145073
145113
146895
147420
147159
146492
144642
144062
145970
146721
147349
146895
145175
144855
146731
147317
147181
146411
144480
143744
145854
146624
147274
146762
144894
144539
146579
147248
146658
145800
143844
144926
146796
147236
147318
146653
144701
144113
146080
146784
146977
146387
144379
143752
145988
146720
146444
145590
143301
142634
145031
145973
146764
146193
144066
143714
146050
146754
146628
145709
143282
142428
144948
145962
146724
146135
143969
143666
146129
146875
146702
145815
143354
142014
144653
145679
146153
145271
142522
141944
144902
145895
145763
144685
141633
140861
143906
145184
146159
145421
142777
142432
145343
146220
146157
145114
142033
141576
144768
145969
145224
143936
140797
141418
144610
145688
145344
144122
140572
140000
143809
145119
145131
143773
139690
139176
143381
144962
144247
142485
138367
141270
144519
145466
145858
144946
141524
139208
143469
144991
144537
142973
138255
137852
142680
144268
144456
142724
137517
137061
142601
144460
144509
142538
136711
135005
141320
143820
143394
140800
134199
133839
140510
143193
143316
140499
133718
132994
139825
142968
142582
139250
132392
132166
138915
142376
142277
138701
132070
131966
138450
142131
141959
138201
131868
131790
137954
141763
141577
137740
131743
131714
137537
141386
141208
137365
131709
131716
137202
141020
140850
137069
131742
131775
136944
140678
140524
136847
131824
131873
136751
140360
140215
136680
131933
131994
136609
140068
139942
136561
132063
132128
136509
139806
139691
136475
132201
132269
136437
139573
139475
136417
132343
132411
136388
139369
139282
136376
132484
132550
136357
139192
139122
136352
132623
132685
136338
139042
138980
136336
132754
132812
136328
138914
138866
136332
132878
132931
136327
138808
138767
136333
132991
133039
136331
138721
138691
136341
133096
133138
136341
138650
138625
136351
133189
133227
136353
138593
138575
136366
133274
133308
136370
138548
138533
136382
133349
133379
136386
138512
138503
136402
133418
133445
136407
138485
138477
136420
133479
133502
136425
138462
138462
136442
133535
133556
136448
138450
138447
136462
133584
133603
136466
138436
138442
136484
133631
133648
136490
138433
138432
136503
133672
133686
136507
138424
138433
136524
133710
133724
136529
138425
138427
136542
133744
133756
136545
138420
138431
136562
133777
133788
136566
138425
138428
136579
133806
133815
136581
138423
138435
136597
133833
133843
136602
138430
138434
136613
133858
133866
136616
138430
138442
136631
133882
133890
136635
138438
138444
136647
133905
133911
136649
138440
138454
136664
133926
133933
136668
138450
138457
136679
133947
133952
136682
138454
138468
136697
133967
133973
136700
138465
138472
136712
133986
133991
136714
138470
138484
136729
134005
134010
136732
138482
138491
136744
134023
134027
136747
138489
138503
136761
134041
134046
136764
138502
138511
136776
134058
134062
136779
138510
138525
136793
134075
134080
136797
138524
138534
136809
134092
134096
136812
138533
138549
136826
134108
134113
136830
138548
138558
136841
134125
134128
136844
138559
138574
136859
134140
134145
136863
138574
138585
136874
134156
134160
136877
138586
138601
136892
134171
134175
136896
138602
138613
136907
134186
134190
136911
138614
138630
136924
134201
134205
136929
138631
138642
136940
134216
134219
136944
138644
138659
136957
134230
134233
136961
138660
138672
136973
134244
134247
136976
138674
138689
136990
134257
134261
136994
138691
138702
137005
134271
134274
137009
138704
138720
137022
134284
134287
137026
138721
138733
137037
134296
134299
137040
138735
138751
137053
134309
134312
137057
138752
138763
137068