/*--------------------------------*- C++ -*----------------------------------*\
| =========                 |                                                 |
| \\      /  F ield         | OpenFOAM: The Open Source CFD Toolbox           |
|  \\    /   O peration     | Version:  v2006                                 |
|   \\  /    A nd           | Website:  www.openfoam.com                      |
|    \\/     M anipulation  |                                                 |
\*---------------------------------------------------------------------------*/
FoamFile
{
    version     2.0;
    format      ascii;
    class       volScalarField;
    location    "0.02";
    object      isentropic(p);
}
// * * * * * * * * * * * * * * * * * * * * * * * * * * * * * * * * * * * * * //

dimensions      [1 -1 -2 0 0 0 0];


internalField   nonuniform List<scalar> 
9148
(
150027
150027
150026
150027
150028
150032
150033
150033
150032
150030
150029
150029
150028
150027
150027
150026
150026
150025
150025
150025
150024
150024
150023
150023
150022
150022
150021
150020
150020
150019
150019
150018
150018
150017
150017
150016
150016
150015
150015
150014
150014
150013
150013
150013
150012
150012
150011
150011
150010
150010
150010
150009
150009
150009
150008
150007
150007
150005
150003
150002
150002
150005
150009
150012
150010
150011
150013
150015
150023
150033
150028
149961
149892
150018
150038
150034
150003
149832
149772
149985
150026
150016
149966
149720
149671
149946
150005
149994
149927
149629
149590
149908
149983
149973
149891
149556
149525
149874
149963
149952
149858
149496
149471
149842
149943
149932
149827
149447
149425
149813
149923
149913
149799
149404
149386
149785
149904
149895
149772
149368
149352
149760
149886
149877
149748
149336
149322
149736
149869
149860
149725
149309
149297
149714
149853
149844
149704
149285
149275
149694
149837
149829
149684
149264
149255
149675
149822
149815
149666
149246
149239
149657
149808
149801
149649
149231
149224
149641
149795
149789
149634
149218
149212
149627
149783
149777
149619
149207
149203
149613
149771
149765
149606
149198
149195
149600
149760
149755
149595
149192
149189
149589
149750
149745
149584
149187
149185
149579
149741
149736
149574
149184
149184
149570
149732
149727
149565
149183
149184
149562
149724
149719
149558
149184
149185
149554
149716
149712
149551
149187
149189
149548
149709
149705
149545
149191
149194
149543
149702
149698
149540
149198
149202
149538
149696
149692
149536
149206
149211
149534
149690
149687
149533
149216
149221
149532
149684
149681
149530
149227
149234
149529
149679
149676
149529
149241
149249
149528
149675
149672
149528
149257
149266
149528
149670
149667
149527
149274
149284
149527
149665
149662
149527
149294
149304
149528
149660
149657
149528
149315
149327
149528
149655
149651
149528
149339
149351
149527
149647
149642
149526
149364
149377
149525
149636
149629
149522
149392
149408
149519
149621
149608
149514
149423
149450
149512
149594
149558
149480
149456
149474
149457
149514
149470
149467
149488
149500
149479
149457
149471
149503
149519
149542
149531
149500
149539
149558
149563
149568
149575
149573
149571
149563
149552
149557
149569
149581
149570
149558
149544
149550
149566
149579
149575
149562
149543
149550
149572
149585
149587
149575
149552
149561
149586
149598
149600
149588
149564
149566
149590
149602
149601
149588
149565
149562
149586
149601
149598
149583
149558
149558
149584
149599
149601
149585
149558
149559
149587
149603
149605
149591
149560
149563
149595
149609
149614
149601
149567
149569
149604
149616
149617
149606
149570
149573
149610
149620
149627
149619
149581
149590
149627
149635
149641
149634
149597
149600
149636
149642
149641
149636
149601
149600
149634
149638
149639
149636
149604
149611
149640
149643
149646
149644
149616
149620
149645
149646
149654
149653
149631
149641
149661
149661
149661
149661
149645
149648
149662
149662
149665
149664
149653
149657
149666
149666
149668
149668
149662
149664
149669
149669
149669
149669
149667
149667
149668
149668
149667
149667
149667
149666
149666
149665
149663
149661
149661
149660
149655
149658
149663
149664
149664
149669
149671
149670
149672
149674
149672
149671
149672
149672
149671
149670
149668
149667
149667
149662
149663
149664
149664
149661
149664
149663
149669
149653
149664
149655
149663
149660
149657
149658
149655
149653
149657
149657
149654
149651
149650
149650
149653
149654
149650
149647
149647
149643
149653
149645
149638
149641
149639
149635
149638
149633
149629
149629
149631
149627
149630
149626
149630
149622
149626
149622
149623
149635
149641
149614
149617
149605
149626
149642
149654
149613
149606
149593
149632
149654
149666
149621
149597
149586
149639
149666
149676
149630
149590
149582
149647
149675
149683
149640
149586
149587
149647
149686
149690
149650
149587
149590
149658
149695
149700
149662
149593
149600
149672
149705
149711
149677
149606
149609
149697
149713
149718
149707
149620
149637
149715
149729
149740
149727
149655
149675
149740
149750
149758
149751
149692
149711
149761
149766
149774
149771
149728
149745
149779
149780
149786
149786
149759
149772
149793
149791
149796
149800
149783
149790
149803
149798
149827
149783
149809
149808
149826
149818
149821
149828
149827
149836
149833
149824
149826
149836
149841
149840
149838
149824
149855
149814
149878
149850
149853
149832
149853
149872
149897
149863
149855
149855
149867
149986
149881
150036
149945
149868
149984
149959
149982
150076
149805
149898
149371
149800
149642
149369
149683
149559
148469
148857
147440
145586
147166
147622
147461
147021
145699
146170
147288
147738
147459
146983
146074
145909
146639
147048
147525
147160
146439
146365
146920
147260
147701
147380
146787
146695
147158
147464
147853
147574
147044
147018
147469
147761
147622
147111
147119
147236
147735
147861
147763
147490
147190
147442
147844
148018
147955
147762
147427
147343
147631
147811
148062
147947
147528
147454
147819
147928
148176
148023
147697
147618
147907
148048
148265
148128
147824
147794
148065
148209
148095
147947
147707
147866
148178
148293
148190
148070
147800
147955
148259
148361
148254
148140
147872
148045
148319
148421
148316
148200
147953
148114
148379
148481
148391
148277
148044
148182
148443
148545
148507
148392
148155
148090
148269
148404
148542
148549
148125
148050
148420
148459
148613
148586
148231
148103
148491
148497
148658
148622
148259
148206
148488
148573
148711
148631
148351
148236
148517
148605
148752
148674
148400
148315
148561
148664
148784
148698
148424
148332
148581
148689
148825
148747
148481
148386
148629
148736
148852
148768
148494
148397
148650
148759
148889
148811
148540
148443
148692
148800
148914
148831
148549
148448
148708
148818
148947
148871
148590
148488
148748
148857
148967
148887
148594
148484
148752
148866
148979
148963
148587
148495
148805
148896
148989
149017
148583
148397
148867
148871
148968
149014
148457
148702
149023
149105
148978
148883
148572
148697
149004
149096
148993
148877
148588
148731
149040
149122
149028
148912
148630
148745
149061
149142
149037
148915
148620
148734
149067
149153
149057
148936
148633
148765
149097
149182
149072
148947
148626
148745
149083
149186
149054
148933
148575
148658
149073
149162
149274
149189
148804
148663
149019
149139
149263
149166
148811
148680
149018
149148
149282
149187
148833
148707
149041
149172
149295
149205
148851
148695
149038
149174
149292
149210
148813
148671
149028
149170
149256
149179
148722
148874
149283
149373
149226
149104
148715
148861
149242
149342
149221
149088
148712
148861
149249
149347
149233
149097
148719
148852
149257
149352
149222
149080
148683
148833
149255
149353
149207
149065
148633
148736
149164
149315
149422
149358
148849
148695
149108
149276
149402
149316
148853
148688
149103
149271
149404
149305
148848
148670
149103
149266
149401
149305
148830
148615
149084
149241
149354
149207
148727
148853
149393
149468
149308
149137
148686
148836
149338
149423
149282
149104
148652
148823
149328
149413
149271
149085
148626
148787
149319
149401
149259
149069
148598
148758
149319
149392
149221
149019
148518
148639
149164
149331
149466
149392
148768
148587
149097
149292
149418
149331
148754
148557
149064
149264
149391
149308
148720
148487
149013
149226
149374
149288
148668
148464
149002
149218
149359
149282
148620
148381
148947
149177
149287
149137
148471
148641
149337
149432
149207
148996
148365
148585
149238
149357
149190
148972
148352
148581
149236
149352
149182
148961
148331
148481
149172
149297
149075
148834
148153
148429
149152
149280
149083
148835
148126
148248
149032
149211
149403
149315
148542
148163
148886
149133
149276
149145
148398
148107
148821
149069
149263
149132
148382
148114
148830
149081
149244
149135
148408
148036
148763
149024
149159
149015
148216
147867
148654
148926
149144
149009
148183
147858
148675
148950
149142
149028
148208
147805
148631
148917
149030
148877
147969
147547
148453
148760
149009
148860
147914
147548
148489
148801
149003
148899
147955
147450
148403
148733
148846
148655
147585
147107
148150
148516
148737
148418
147398
147742
148954
149018
148761
148404
147414
147656
148682
148793
148452
148083
147004
147507
148532
148691
148718
148395
147311
146765
147771
148243
148520
148468
147460
146419
147589
148065
148323
148117
146886
146369
147636
148055
148387
148181
147064
146531
147856
148203
148129
147883
146437
145699
147154
147648
148009
147801
146432
146006
147432
147870
147993
148011
146943
145390
146867
147421
147523
147330
145989
145759
147227
147699
147215
146795
145240
145238
146864
147085
146476
145819
143948
144985
146714
146811
146987
146338
144857
144684
146493
146512
146511
145889
143802
143062
145105
145769
145687
145765
144506
142592
144952
145647
144760
144008
141656
143184
144599
144515
144604
143874
140931
141382
144029
144432
141928
140540
136571
139513
141631
142087
141512
140342
136246
133938
139128
140384
138845
137319
130662
127937
135217
136801
136967
135393
128136
128545
135701
137714
137974
135619
128506
128282
135192
137849
137725
134845
128096
127964
134452
137515
137391
134187
127910
127864
133854
137148
136992
133629
127867
127864
133341
136727
136573
133169
127905
127935
132938
136312
136172
132820
128006
128062
132642
135933
135818
132571
128155
128229
132437
135601
135508
132404
128338
128425
132307
135322
135255
132303
128545
128641
132233
135090
135044
132251
128768
128870
132204
134906
134883
132241
129002
129106
132213
134767
134762
132258
129246
129350
132248
134668
134681
132309
129495
129596
132311
134607
134646
132383
129740
129836
132396
134590
134655
132483
129978
130069
132505
134613
134695
132598
130206
130293
132628
134666
134765
132731
130426
130508
132767
134745
134853
132872
130635
130712
132912
134841
134960
133024
130836
130910
133069
134954
135077
133180
131028
131097
133226
135075
135204
133342
131213
131280
133391
135206
135334
133504
131391
131454
133552
135339
135470
133668
131562
131623
133717
135476
135604
133830
131727
131784
133877
135611
135740
133990
131885
131940
134038
135748
135872
134146
132037
132088
134191
135880
136003
134299
132182
132231
134344
136012
136130
134446
132320
132366
134488
136138
136255
134590
132453
132496
134631
136263
136374
134728
132578
132618
134765
136381
136491
134862
132698
132736
134898
136498
136602
134988
132811
132846
135022
136608
136711
135112
132919
132951
135144
136716
136814
135228
133020
133050
135257
136818
136914
135340
133116
133144
135367
136916
137008
135445
133206
133231
135468
137009
137101
135545
133291
133314
135567
137101
137186
135639
133371
133391
135658
137185
137268
135729
133445
133464
135746
137266
137346
135813
133515
133531
135827
137343
137421
135893
133580
133595
135906
137416
137491
135967
133641
133653
135978
137486
137559
136038
133697
133708
136048
137553
137623
136105
133750
133759
136112
137616
137685
136169
133799
133807
136175
137676
137743
136228
133844
133851
136232
137734
137799
136285
133887
133892
136288
137789
137852
136338
133927
133931
136339
137841
137903
136389
133964
133967
136390
137891
137951
136437
133999
134000
136436
137939
137998
136483
134031
134032
136482
137984
138042
136526
134062
134062
136523
138028
138084
136568
134091
134090
136564
138069
138124
136606
134118
134116
136601
138109
138163
136644
134143
134141
136638
138147
138200
136678
134167
134164
136672
138183
138235
136713
134190
134187
136705
138218
138268
136744
134211
134207
136736
138251
138301
136775
134231
134227
136766
138282
138331
136803
134250
134245
136794
138313
138361
136831
134268
134263
136821
138341
138389
136857
134285
134279
136846
138369
138417
136883
134301
134295
136872
138396
138442
136906
134317
134310
136894
138421
138467
136930
134331
134324
136917
138446
138491
136951
134345
134337
136938
138469
138514
136972
134358
134350
136959
138491
138535
136991
134370
134362
136977
138513
138557
137011
134381
134373
136997
138534
138577
137028
134393
134384
137014
138554
138596
137046
134403
134394
137031
138572
138615
137062
134413
134403
137047
138591
138633
137079
134422
134413
137063
138608
138650
137093
134431
134421
137077
138625
138667
137109
134439
134429
137092
138641
138682
137122
134447
134437
137105
138657
138698
137136
134455
134445
137119
138672
138712
137148
134462
134451
137130
138687
138726
137161
134469
134458
137143
138700
138739
137172
134475
134464
137154
138714
138753
137184
134481
134470
137166
138726
138765
137194
134487
134476
137175
138739
138778
137205
134492
134481
137186
138750
138789
137214
134497
134486
137195
138762
138801
137224
134502
134490
137205
138773
138811
137233
134507
134495
137213
138784
138822
137242
134511
134499
137223
138794
138832
137250
134515
134502
137230
138804
138842
137258
134518
134506
137239
138814
138851
137265
134522
134509
137245
138823
138860
137273
134525
134512
137253
138831
138868
137279
134527
134514
137259
138840
138877
137287
134529
134516
137266
138848
138884
137293
134531
134517
137272
138855
138893
137298
134535
134521
137277
138865
138903
137304
134535
134521
137284
138874
138919
137315
134540
134526
137299
138894
138955
137341
134555
134542
137334
138940
139017
137387
134580
134588
137403
139041
139240
137532
134691
134876
137762
139533
139713
137939
135024
141752
143158
143619
143814
144764
145402
145698
145951
146842
147437
148050
148535
148909
149201
149414
149563
149665
149737
149788
149824
149851
149871
149886
149898
149907
149913
149917
149920
149922
149923
149923
149924
149936
149940
149944
149950
149957
149966
149977
149990
150005
150021
150039
150056
150070
150078
150079
150075
150070
150065
150061
150057
150053
150049
150045
150041
150037
150033
150030
150026
150022
150019
150016
150014
150012
150010
150010
150009
150010
150011
150012
150015
150018
150022
150026
150031
150036
150042
150047
150053
150058
150063
150068
150071
150074
150076
150077
150077
150076
150074
150072
150069
150065
150061
150056
150051
150046
150041
150036
150031
150026
150021
150016
150012
150008
150004
150000
149997
149994
149991
149989
149987
149985
149984
149982
149981
149981
149981
149980
149981
149981
149981
149982
149983
149984
149985
149987
149988
149989
149991
149992
149994
149995
149996
149998
149999
150000
150001
150002
150003
150003
150004
150005
150005
150006
150007
150008
150009
150011
150012
150014
150017
150021
150026
150028
150028
150027
150028
150044
150065
150069
150067
150064
150060
150056
150052
150049
150047
150044
150042
150040
150038
150037
150035
150034
150032
150031
150030
150029
150027
150026
150025
150024
150023
150022
150021
150020
150019
150018
150017
150016
150015
150014
150013
150012
150012
150011
150010
150009
150008
150007
150006
150005
150004
150002
150001
150000
149999
149997
149995
149993
149990
149988
149988
149993
150000
150006
150017
150027
150030
150029
150023
150018
150013
150008
150003
149997
149992
149987
149982
149977
149972
149967
149962
149958
149953
149948
149944
149939
149935
149930
149926
149922
149918
149914
149910
149906
149902
149898
149895
149891
149888
149885
149881
149878
149875
149872
149869
149866
149864
149861
149858
149856
149853
149851
149848
149846
149843
149841
149839
149836
149834
149832
149830
149827
149825
149823
149820
149818
149815
149812
149810
149806
149803
149798
149793
149787
149781
149773
149763
149750
149723
149684
149633
149580
149542
149535
149549
149567
149564
149584
149577
149590
149580
149591
149588
149601
149602
149607
149607
149607
149605
149606
149607
149608
149610
149612
149616
149617
149618
149620
149626
149632
149637
149638
149637
149634
149634
149637
149641
149643
149650
149656
149656
149658
149662
149663
149665
149666
149667
149666
149665
149664
149663
149662
149665
149664
149659
149656
149662
149660
149650
149640
149654
149659
149662
149657
149654
149647
149643
149652
149658
149663
149655
149644
149629
149617
149632
149648
149657
149657
149645
149641
149651
149646
149631
149621
149616
149632
149645
149641
149627
149625
149636
149630
149615
149603
149598
149612
149626
149621
149606
149609
149623
149625
149608
149590
149588
149610
149626
149622
149604
149603
149618
149614
149599
149585
149587
149601
149611
149609
149597
149598
149608
149607
149595
149586
149587
149597
149605
149604
149595
149597
149603
149601
149593
149585
149578
149596
149600
149598
149590
149598
149601
149600
149581
149585
149583
149591
149601
149593
149547
149563
149590
149574
149513
149586
149650
149565
149579
149563
149522
149594
149571
149565
149564
149752
149845
149651
149579
149563
149651
149726
149605
149623
149735
149911
149956
149790
149658
149693
149812
149859
149740
149780
149883
149991
150009
149919
149818
149843
149928
149950
149862
149869
149944
150011
150007
149959
149877
149880
149949
149962
149886
149888
149953
150004
150002
149964
149892
149894
149955
149965
149897
149898
149956
150000
149998
149965
149900
149901
149957
149965
149903
149904
149958
149997
149996
149966
149906
149907
149958
149966
149908
149909
149959
149996
149995
149966
149911
149912
149959
149967
149913
149915
149960
149995
149994
149967
149916
149917
149961
149967
149919
149920
149961
149994
149994
149968
149922
149923
149962
149968
149925
149926
149963
149994
149994
149969
149928
149929
149965
149971
149931
149932
149966
149994
149995
149972
149935
149936
149968
149973
149938
149939
149970
149995
149996
149975
149942
149943
149972
149977
149946
149947
149974
149997
149998
149979
149950
149952
149977
149982
149955
149956
149980
149999
150001
149984
149959
149961
149982
149987
149964
149966
149985
150002
150004
149990
149969
149972
149989
149993
149975
149977
149992
150005
150007
149996
149980
149983
149996
149999
149986
149989
150000
150009
150011
150003
149992
149995
150004
150007
149998
150001
150008
150013
150016
150011
150004
150007
150012
150015
150010
150014
150017
150018
150019
150019
150017
150020
150021
150024
150024
150027
150025
150020
150011
150016
150018
150018
150018
150018
150017
150017
150017
150016
150016
150016
150016
150015
150015
150015
150015
150015
150016
150016
150017
150018
150019
150021
150022
150024
150025
150027
150029
150031
150034
150037
150041
150044
150049
150053
150050
150037
150017
149983
149925
149843
149753
149671
149615
149590
149566
149566
149566
149559
149551
149554
149557
149566
149572
149586
149597
149578
149604
149626
149642
149654
149662
149663
149656
149644
149644
149658
149667
149668
149659
149645
149625
149596
149597
149629
149645
149658
149667
149669
149663
149651
149652
149665
149671
149669
149664
149653
149636
149606
149577
149564
149567
149542
149558
149543
149537
149517
149525
149523
149540
149555
149539
149524
149512
149506
149512
149531
149529
149511
149515
149529
149536
149527
149543
149517
149506
149522
149517
149556
149560
149572
149586
149603
149626
149648
149657
149666
149669
149670
149671
149665
149673
149675
149671
149668
149672
149672
149663
149651
149674
149677
149676
149675
149672
149666
149663
149664
149665
149660
149661
149659
149657
149652
149656
149655
149654
149661
149668
149654
149648
149651
149651
149646
149650
149656
149673
149679
149684
149687
149673
149668
149640
149633
149626
149620
149655
149661
149658
149665
149663
149668
149690
149687
149689
149685
149684
149677
149674
149665
149662
149654
149640
149646
149641
149643
149652
149659
149668
149672
149678
149682
149690
149693
149694
149690
149687
149693
149696
149690
149692
149698
149698
149696
149698
149700
149699
149698
149690
149693
149695
149701
149665
149662
149619
149624
149565
149592
149543
149584
149648
149589
149549
149546
149559
149592
149664
149590
149651
149747
149839
149750
149659
149734
149830
149916
149979
149900
149804
149709
149637
149686
149642
149695
149690
149677
149677
149718
149708
149718
149716
149710
149709
149704
149704
149701
149701
149704
149701
149706
149709
149712
149716
149719
149725
149730
149739
149728
149730
149740
149754
149746
149760
149741
149725
149733
149751
149751
149767
149771
149777
149759
149760
149739
149745
149708
149728
149734
149761
149753
149775
149768
149769
149767
149787
149782
149787
149787
149802
149801
149805
149791
149792
149775
149787
149783
149800
149798
149810
149807
149804
149824
149813
149818
149824
149826
149818
149787
149782
149866
149961
150031
150082
150053
149945
149712
149858
149895
149784
149840
149845
149838
149860
149904
149862
149859
150003
150015
150015
149935
150029
149882
149963
150025
149927
149872
149907
150065
150095
150040
149964
149883
150154
149953
150018
150149
150111
150023
149888
150128
149951
150215
150082
150120
150054
149992
150024
150067
150163
150203
150179
150088
150175
149943
149895
149674
149389
148413
148465
149322
149459
148829
148157
147723
148198
147865
148228
147981
148273
148130
147983
148215
148094
148317
148237
148129
148320
148226
148397
148316
148470
148421
148339
148475
148409
148522
148456
148584
148518
148634
148584
148705
148674
148604
148713
148657
148762
148703
148798
148746
148837
148782
148868
148822
148905
148854
148933
148888
148967
148918
148994
148950
149025
148976
149049
149004
149076
149024
149096
149045
149114
149041
149126
149193
149271
149188
149265
149164
149239
149147
149226
149117
149193
149097
149178
149064
149144
149042
149128
149007
149091
148983
149073
148947
149035
148921
149015
148880
148970
148848
148939
148792
148857
149033
149186
149143
149262
149061
149116
149213
149311
149170
149260
149364
149178
149222
149306
149399
149267
149342
149442
149271
149312
149380
149467
149347
149406
149500
149343
149373
149287
149194
149135
149201
149153
149227
149183
149243
149191
149267
149218
149281
149225
149294
149215
149298
149370
149434
149372
149446
149350
149414
149343
149420
149312
149381
149302
149385
149281
149363
149509
149441
149534
149465
149547
149481
149570
149462
149371
149306
149374
149322
149384
149337
149389
149333
149392
149322
149394
149443
149382
149434
149383
149447
149398
149451
149390
149456
149375
149452
149518
149571
149532
149600
149516
149569
149520
149594
149506
149563
149523
149453
149517
149458
149522
149447
149507
149449
149517
149447
149504
149572
149644
149573
149674
149552
149585
149596
149672
149565
149588
149592
149697
149608
149686
149597
149720
149610
149522
149452
149509
149453
149508
149448
149497
149417
149495
149556
149604
149531
149469
149524
149463
149511
149450
149515
149449
149499
149403
149499
149533
149472
149518
149457
149502
149429
149492
149426
149477
149379
149466
149541
149587
149501
149414
149484
149418
149465
149394
149464
149346
149428
149326
149437
149447
149360
149416
149336
149395
149339
149385
149288
149342
149227
149320
149248
149296
149193
149264
149110
149217
149132
149205
149055
149132
148904
149073
149223
149265
149119
149027
149092
148858
149014
149004
148727
148882
148562
148775
148584
148749
148613
148670
148238
148542
148393
148480
147991
148315
148249
147808
148122
147402
147876
147572
147949
147385
146663
147381
146705
145851
146974
145990
145285
143727
145057
143309
142177
141163
139589
139475
140114
140488
140511
140550
140487
140538
140451
140480
140360
140390
140255
140290
140146
140190
140039
140093
139937
140003
139846
139921
139764
139851
139696
139790
139636
139739
139588
139691
139542
139649
139505
139611
139471
139581
139449
139555
139427
139538
139418
139525
139408
139520
139411
139519
139412
139525
139424
139533
139434
139547
139455
139563
139472
139585
139500
139607
139523
139634
139555
139661
139582
139692
139618
139722
139649
139756
139687
139789
139720
139825
139760
139860
139795
139898
139835
139933
139872
139971
139912
140007
139949
140045
139989
140081
140025
140118
140064
140154
140099
140190
140137
140224
140170
140258
140206
140291
140239
140324
140273
140355
140304
140387
140336
140416
140365
140446
140396
140474
140423
140502
140453
140528
140478
140555
140506
140579
140530
140605
140556
140628
140579
140651
140603
140674
140625
140696
140648
140716
140668
140737
140689
140757
140708
140777
140729
140795
140746
140813
140766
140831
140782
140848
140800
140864
140816
140881
140833
140896
140847
140912
140864
140926
140877
140940
140893
140954
140905
140968
140920
140980
140932
140993
140946
141005
140957
141018
140970
141029
140980
141041
140993
141051
141002
141062
141014
141072
141023
141083
141035
141092
141043
141102
141054
141111
141062
141121
141072
141129
141080
141140
141092
141151
141102
141170
141127
141208
141171
141270
141229
141418
141608
143111
143021
143586
142733
142795
143273
142571
142656
142995
142502
142590
142919
142450
142543
142802
142443
142538
142829
142422
142517
142772
142421
142517
142798
142407
142502
142756
142406
142502
142783
142393
142489
142744
142392
142488
142770
142379
142475
142731
142378
142475
142758
142364
142461
142719
142363
142461
142746
142349
142447
142707
142348
142446
142734
142334
142432
142694
142333
142432
142721
142319
142417
142681
142317
142417
142709
142303
142402
142668
142301
142401
142696
142286
142386
142655
142284
142385
142683
142269
142370
142642
142267
142369
142670
142252
142354
142628
142250
142353
142657
142234
142337
142614
142232
142336
142643
142216
142321
142600
142214
142319
142630
142198
142304
142587
142196
142303
142617
142179
142287
142573
142177
142286
142605
142161
142270
142560
142159
142269
142593
142142
142253
142548
142141
142253
142581
142124
142237
142536
142123
142238
142571
142107
142222
142525
142106
142223
142561
142090
142208
142515
142090
142209
142553
142074
142194
142507
142075
142197
142546
142059
142183
142500
142061
142186
142541
142046
142173
142495
142049
142177
142538
142035
142165
142493
142039
142171
142537
142025
142159
142492
142031
142167
142539
142019
142157
142494
142026
142166
142543
142015
142157
142499
142024
142169
142551
142015
142161
142506
142025
142175
142561
142019
142169
142517
142032
142185
142573
142027
142182
142531
142042
142200
142589
142039
142198
142549
142057
142219
142607
142055
142219
142568
142077
142243
142628
142076
142245
142592
142101
142272
142653
142103
142276
142618
142130
142305
142680
142134
142312
142649
142163
142342
142710
142170
142352
142682
142201
142385
142744
142212
142398
142720
142244
142433
142781
142258
142450
142761
142292
142485
142822
142310
142506
142807
142343
142541
142867
142365
142564
142859
142396
142597
142918
142422
142622
142917
142450
142652
142973
142475
142674
142980
142492
142691
143032
142503
142698
143045
142495
142684
143089
142474
142656
143088
142414
142592
143136
142321
142492
143198
142171
142331
143230
141940
142062
143041
141659
141612
142556
141134
141050
143370
141254
142753
144968
143813
144824
145761
145927
146625
145947
146364
146807
146955
147698
147217
146853
146982
147580
147734
148677
147510
147934
147760
148073
148165
148138
148241
148325
148549
148501
148561
149357
148687
148622
148841
148698
148881
148811
148969
148844
148997
148946
149105
148968
149093
149092
149149
149255
149155
149196
149242
149360
149532
149285
149344
149256
149345
149317
149416
149324
149396
149370
149455
149381
149452
149424
149503
149430
149493
149469
149547
149479
149548
149504
149574
149511
149525
149603
149524
149572
149559
149642
149541
149584
149579
149654
149720
149622
149616
149544
149602
149564
149626
149564
149619
149583
149637
149594
149578
149637
149570
149608
149592
149653
149578
149616
149599
149659
149699
149614
149707
149609
149694
149601
149679
149777
149641
149734
149645
149680
149606
149766
149625
149682
149620
149801
149839
149720
149654
149810
149727
149732
149757
149804
149727
149708
149640
149632
149576
149623
149676
149713
149636
149691
149751
149801
149698
149684
149745
149800
149692
149688
149726
149795
149680
149637
149706
149613
149669
149609
149689
149590
149656
149580
149666
149552
149628
149533
149629
149495
149585
149466
149570
149414
149516
149368
149487
149307
149118
148859
148698
148820
148619
148722
148576
148661
148840
149025
148980
149224
148974
148799
148599
148742
148539
148681
148459
148578
148750
148489
148676
148387
148555
149035
148946
149096
148828
149049
149158
148889
148941
149112
149323
149652
149308
149609
149455
149074
148864
148600
148977
148664
149170
149572
149837
149700
149709
149703
149781
149814
150030
149751
149943
149982
149963
149923
150017
149913
149875
149613
149144
149380
149311
149620
149758
149767
149911
149865
149993
149828
149652
149368
149537
149423
149257
149438
149685
149577
149616
149723
149660
149753
149685
149772
149696
149785
149699
149792
149695
149824
149872
149823
149875
149820
149881
149817
149892
149810
149903
149798
149925
150040
150075
149993
150036
149967
149999
149940
149975
149927
149961
149919
149952
149913
149870
149824
149867
149822
149864
149822
149860
149843
149775
149742
149727
149829
149686
149676
149841
149844
149891
149856
149895
149927
149953
149925
149885
149844
149884
149841
149838
149788
149748
149569
149573
149688
149512
149647
149799
149613
149618
149599
149446
149621
149510
149562
149413
149586
149518
149346
149592
149407
149485
149314
149544
149423
149225
149367
149582
149555
149659
149714
149610
149586
149641
149677
149546
149824
149665
149575
149904
149504
149848
149436
149851
149664
149615
149470
149859
149333
149564
149521
149464
149046
149460
149080
149185
148961
149388
149048
148808
149303
148866
148925
148676
149023
148763
149965
149240
149195