/*--------------------------------*- C++ -*----------------------------------*\
| =========                 |                                                 |
| \\      /  F ield         | OpenFOAM: The Open Source CFD Toolbox           |
|  \\    /   O peration     | Version:  v2006                                 |
|   \\  /    A nd           | Website:  www.openfoam.com                      |
|    \\/     M anipulation  |                                                 |
\*---------------------------------------------------------------------------*/
FoamFile
{
    version     2.0;
    format      ascii;
    class       volScalarField;
    location    "0.02";
    object      T;
}
// * * * * * * * * * * * * * * * * * * * * * * * * * * * * * * * * * * * * * //

dimensions      [0 0 0 1 0 0 0];


internalField   nonuniform List<scalar> 
9148
(
298.083
298.083
298.083
298.083
298.083
298.085
298.089
298.096
298.105
298.114
298.124
298.134
298.145
298.156
298.167
298.179
298.192
298.205
298.219
298.233
298.248
298.264
298.279
298.296
298.312
298.329
298.347
298.364
298.382
298.4
298.418
298.437
298.455
298.474
298.492
298.511
298.529
298.547
298.565
298.583
298.601
298.618
298.635
298.651
298.668
298.683
298.699
298.714
298.728
298.742
298.755
298.767
298.779
298.791
298.801
298.812
298.821
298.83
298.838
298.845
298.848
298.85
298.85
298.85
298.85
298.85
298.851
298.853
298.857
298.865
298.874
298.915
298.922
298.873
298.859
298.86
298.876
298.936
298.948
298.879
298.86
298.862
298.885
298.956
298.963
298.89
298.865
298.868
298.895
298.969
298.972
298.9
298.872
298.875
298.905
298.976
298.978
298.908
298.878
298.881
298.912
298.979
298.981
298.916
298.885
298.888
298.919
298.982
298.984
298.923
298.892
298.895
298.926
298.985
298.986
298.931
298.899
298.903
298.933
298.987
298.989
298.938
298.908
298.911
298.941
298.99
298.993
298.946
298.917
298.921
298.949
298.994
298.997
298.954
298.926
298.93
298.958
298.999
299.002
298.963
298.936
298.941
298.967
299.004
299.008
298.973
298.947
298.952
298.976
299.01
299.015
298.983
298.958
298.963
298.987
299.018
299.023
298.994
298.97
298.976
298.998
299.025
299.031
299.005
298.983
298.989
299.01
299.034
299.041
299.018
298.998
299.004
299.023
299.045
299.053
299.032
299.013
299.02
299.038
299.058
299.067
299.048
299.03
299.038
299.055
299.073
299.082
299.066
299.049
299.058
299.073
299.089
299.099
299.085
299.07
299.079
299.093
299.106
299.116
299.105
299.091
299.101
299.114
299.124
299.135
299.126
299.114
299.125
299.136
299.143
299.154
299.149
299.138
299.15
299.159
299.163
299.174
299.172
299.164
299.176
299.183
299.185
299.197
299.197
299.191
299.204
299.209
299.209
299.223
299.225
299.22
299.234
299.238
299.236
299.251
299.255
299.251
299.267
299.269
299.266
299.282
299.287
299.285
299.302
299.303
299.298
299.315
299.322
299.321
299.339
299.339
299.333
299.351
299.359
299.359
299.379
299.379
299.371
299.39
299.399
299.401
299.423
299.421
299.411
299.43
299.442
299.445
299.468
299.464
299.453
299.472
299.486
299.491
299.516
299.51
299.495
299.514
299.532
299.539
299.565
299.556
299.538
299.557
299.575
299.586
299.613
299.602
299.584
299.598
299.618
299.63
299.658
299.644
299.62
299.578
299.601
299.643
299.687
299.919
300.682
301.096
300.794
299.952
300.604
300.994
301.078
301.095
300.969
300.805
300.763
300.957
301.124
301.204
301.02
300.791
300.993
301.172
301.277
301.305
301.246
301.172
301.18
301.262
301.322
301.311
301.25
301.146
301.137
301.251
301.313
301.275
301.206
301.077
301.058
301.191
301.271
301.249
301.135
300.993
300.974
301.116
301.239
301.237
301.098
300.946
300.931
301.091
301.248
301.228
301.056
300.885
300.866
301.032
301.209
301.203
301.018
300.855
300.85
301.006
301.196
301.132
300.964
300.828
300.832
300.954
301.08
301.055
300.936
300.819
300.733
300.838
300.971
300.863
300.766
300.678
300.672
300.758
300.845
300.841
300.741
300.654
300.629
300.706
300.814
300.795
300.702
300.638
300.662
300.722
300.815
300.825
300.729
300.668
300.642
300.702
300.801
300.78
300.675
300.617
300.536
300.581
300.687
300.624
300.536
300.496
300.51
300.551
300.63
300.735
300.641
300.588
300.602
300.656
300.764
300.748
300.637
300.59
300.58
300.616
300.718
300.721
300.621
300.588
300.575
300.612
300.713
300.716
300.613
300.571
300.595
300.634
300.739
300.737
300.631
300.6
300.554
300.565
300.668
300.652
300.551
300.542
300.615
300.636
300.755
300.849
300.702
300.667
300.62
300.661
300.821
300.748
300.589
300.548
300.563
300.575
300.573
300.605
300.546
300.456
300.539
300.607
300.565
300.52
300.561
300.6
300.577
300.541
300.536
300.523
300.514
300.534
300.572
300.594
300.611
300.646
300.709
300.739
300.757
300.754
300.716
300.795
300.643
300.774
300.321
300.851
301.232
300.822
300.639
300.663
300.679
300.581
300.693
300.687
300.631
300.702
300.669
300.801
300.681
300.735
300.74
300.714
300.77
300.816
300.672
300.932
300.562
300.774
300.722
300.722
300.808
300.799
300.741
300.695
300.602
300.917
300.766
300.831
300.801
300.692
300.412
300.965
300.963
300.748
300.578
300.407
300.262
300.589
300.658
300.762
300.177
300.489
300.254
300.656
300.48
300.705
300.238
300.47
300.297
300.625
300.433
300.645
300.277
300.425
300.291
300.545
300.38
300.502
300.298
300.373
300.266
300.606
300.193
300.214
300.529
300.289
300.265
300.555
300.192
300.239
300.509
300.276
300.257
300.544
300.209
300.213
300.403
300.257
300.235
300.276
300.244
300.449
300.07
300.283
300.281
300.129
300.355
300.213
300.241
300.256
300.253
300.234
300.214
300.213
300.237
300.256
300.258
300.241
300.218
300.238
300.257
300.269
300.275
300.272
300.271
300.316
300.28
300.277
300.27
300.281
300.354
300.363
300.273
300.257
300.232
300.25
300.358
300.378
300.211
300.207
300.188
300.018
300.779
300.208
300.239
300.222
300.23
300.223
300.209
300.223
300.225
300.23
300.23
300.227
300.231
300.281
300.228
300.221
300.269
300.149
300.366
300.275
300.24
300.217
300.17
300.164
300.167
300.205
300.173
300.149
300.004
300.198
299.877
299.953
299.88
299.939
299.605
299.506
299.595
300.049
298.992
299.137
298.775
299.032
298.002
297.993
297.79
298.24
297.632
297.324
297.524
298.337
297.764
297.894
298.011
298.172
298.379
298.598
298.204
298.007
298.375
298.6
298.846
299.004
298.862
298.71
298.688
298.903
299.223
299.263
299.114
298.933
298.85
299.028
299.268
299.326
299.191
299.04
298.918
299.1
299.264
299.316
299.119
299.117
299.448
298.592
299.73
299.154
299.39
298.971
299.293
299.172
299.258
299.174
299.275
299.108
299.208
299.273
299.234
299.318
299.272
299.228
299.159
299.405
299.168
299.339
299.372
299.177
299.207
299.229
299.364
299.449
299.288
299.217
299.188
299.218
299.373
299.38
299.246
299.2
299.245
299.3
299.389
299.308
299.284
299.194
299.209
299.312
299.342
299.29
299.269
299.199
299.216
299.267
299.377
299.318
299.189
299.179
299.177
299.215
299.351
299.255
299.142
299.126
299.127
299.166
299.251
299.187
299.116
299.088
299.102
299.128
299.171
299.258
299.095
299.112
298.981
299.369
298.948
299.16
299.317
299.003
299.096
299.209
299.118
299.492
299.229
298.96
299.068
298.97
299.296
299.809
299.01
298.957
298.947
298.783
299.49
299.657
299.038
298.934
298.935
298.887
299.319
299.35
299.009
298.942
298.926
298.934
299.138
299.156
299.014
298.951
298.896
298.93
299.058
299.058
298.971
298.911
298.862
298.899
298.995
299
298.931
298.882
298.819
298.853
298.947
298.931
298.873
298.826
298.771
298.804
298.888
298.891
298.829
298.786
298.729
298.76
298.841
298.848
298.783
298.737
298.696
298.723
298.82
298.847
298.775
298.719
298.649
298.817
298.661
298.865
298.78
298.691
298.546
298.768
298.663
298.703
298.893
298.522
298.413
298.875
298.636
298.78
298.364
298.448
298.44
298.569
298.853
298.709
298.391
298.392
298.416
298.514
298.726
298.586
298.395
298.356
298.381
298.457
298.594
298.501
298.36
298.314
298.341
298.396
298.495
298.431
298.318
298.275
298.296
298.35
298.448
298.374
298.24
298.208
298.228
298.289
298.381
298.355
298.163
298.163
298.174
298.278
298.32
298.245
298.227
298.112
298.039
298.062
298.244
298.225
298.127
298.05
297.969
297.997
298.125
298.099
298.04
297.986
297.891
297.919
298.042
298.046
297.958
297.903
297.821
297.843
297.982
297.986
297.888
297.835
297.747
297.804
297.9
297.948
297.829
297.773
297.706
297.842
297.825
297.86
297.647
297.637
297.647
297.752
297.839
297.764
297.575
297.56
297.582
297.676
297.773
297.688
297.508
297.477
297.486
297.567
297.683
297.598
297.426
297.393
297.404
297.477
297.588
297.504
297.318
297.294
297.284
297.383
297.5
297.503
297.204
297.268
297.143
297.226
297.356
297.408
297.208
297.182
297.053
297.108
297.232
297.289
297.118
297.087
296.95
297.004
297.184
297.204
297.049
296.966
296.848
296.915
297.071
297.077
296.966
296.852
296.799
296.8
296.995
296.937
296.743
296.676
296.702
296.756
296.971
296.805
296.638
296.578
296.607
296.668
296.864
296.719
296.553
296.494
296.528
296.576
296.773
296.605
296.479
296.381
296.413
296.459
296.688
296.462
296.388
296.275
296.32
296.329
296.564
296.464
296.207
296.225
296.073
296.145
296.368
296.429
296.17
296.104
295.964
296.064
296.226
296.281
296.047
295.988
295.843
295.959
296.092
296.159
295.935
295.884
295.708
295.79
295.927
296.046
295.791
295.747
295.578
295.699
295.824
295.944
295.63
295.614
295.483
295.582
295.776
295.7
295.388
295.341
295.35
295.453
295.718
295.535
295.26
295.195
295.198
295.327
295.564
295.371
295.124
295.064
295.029
295.147
295.365
295.21
294.951
294.869
294.884
294.997
295.227
295.011
294.765
294.71
294.722
294.83
295.057
294.927
294.694
294.592
294.374
294.415
294.74
294.734
294.468
294.339
294.189
294.267
294.539
294.562
294.315
294.18
293.998
294.065
294.344
294.358
294.097
293.975
293.756
293.83
294.096
294.077
293.82
293.704
293.499
293.595
293.874
293.897
293.634
293.504
293.297
293.355
293.677
293.686
293.399
293.269
293.035
293.103
293.426
293.404
293.096
292.957
292.716
292.816
293.163
293.171
292.861
292.723
292.489
292.549
292.913
292.94
292.605
292.432
292.174
292.25
292.619
292.559
292.207
292.068
291.804
291.887
292.338
292.383
291.96
291.776
291.655
291.524
292.063
291.72
291.358
291.273
291.19
291.246
291.822
291.256
290.903
290.78
290.763
290.904
291.225
290.919
290.611
290.493
290.236
290.498
290.925
290.799
290.332
290.227
289.684
289.818
290.145
290.109
289.617
289.655
289.22
289.326
289.837
289.833
289.356
289.158
288.72
288.449
289.304
289.132
288.788
288.34
287.821
287.901
288.478
288.494
287.993
287.832
287.36
287.431
288.044
287.981
287.436
287.189
286.447
286.451
287.194
286.755
286.281
286.106
285.864
285.913
286.479
286.313
285.767
285.18
285.039
285.577
286.016
284.793
284.107
284.215
283.906
284.078
284.687
283.691
283.55
283.392
282.8
282.402
284.159
282.042
281.892
281.735
281.116
281.275
282.141
281.164
280.97
280.565
279.631
279.39
280.303
279.352
278.602
278.798
277.873
278.112
279.015
277.086
276.696
277.181
276.102
275.93
276.82
274.614
274.467
274.885
274.272
274.261
275.387
273.866
273.673
274.014
273.948
273.603
274.447
275.931
274.406
274.446
276.077
276.832
279.59
282.573
279.121
278.629
281.628
282.851
286.699
288.729
285.24
283.828
285.287
286.934
290.158
290.835
288.041
286.27
287.267
289.197
291.689
292.077
289.973
288.033
288.841
290.84
292.646
292.845
291.333
289.419
290.072
291.974
293.228
293.365
292.3
290.533
291.091
292.797
293.646
293.744
293.016
291.47
291.942
293.391
293.955
294.024
293.537
292.238
292.622
293.807
294.18
294.227
293.904
292.844
293.148
294.096
294.343
294.374
294.159
293.303
293.533
294.299
294.458
294.476
294.341
293.647
293.815
294.442
294.538
294.548
294.467
293.894
294.006
294.539
294.593
294.595
294.55
294.058
294.13
294.601
294.626
294.624
294.598
294.161
294.211
294.629
294.645
294.638
294.614
294.211
294.24
294.631
294.652
294.641
294.605
294.224
294.242
294.61
294.646
294.634
294.579
294.214
294.225
294.574
294.63
294.612
294.537
294.19
294.196
294.528
294.605
294.579
294.485
294.157
294.158
294.472
294.571
294.539
294.431
294.123
294.116
294.413
294.529
294.492
294.366
294.087
294.072
294.349
294.479
294.438
294.301
294.045
294.028
294.285
294.422
294.377
294.236
293.999
293.98
294.219
294.359
294.311
294.17
293.952
293.934
294.154
294.293
294.242
294.103
293.906
293.888
294.088
294.223
294.173
294.038
293.861
293.846
294.023
294.154
294.103
293.975
293.816
293.803
293.961
294.084
294.035
293.914
293.773
293.762
293.902
294.017
293.968
293.856
293.73
293.72
293.844
293.951
293.904
293.8
293.689
293.68
293.789
293.888
293.843
293.746
293.647
293.638
293.736
293.828
293.785
293.695
293.607
293.599
293.686
293.771
293.73
293.646
293.567
293.559
293.637
293.717
293.678
293.6
293.528
293.521
293.592
293.666
293.63
293.555
293.491
293.484
293.548
293.619
293.584
293.515
293.455
293.449
293.508
293.575
293.542
293.476
293.421
293.415
293.47
293.533
293.503
293.44
293.388
293.382
293.434
293.495
293.466
293.405
293.356
293.351
293.4
293.458
293.432
293.373
293.327
293.321
293.368
293.424
293.399
293.342
293.298
293.293
293.338
293.392
293.368
293.313
293.27
293.265
293.309
293.361
293.338
293.285
293.243
293.239
293.281
293.332
293.311
293.259
293.218
293.213
293.255
293.305
293.285
293.233
293.193
293.188
293.23
293.279
293.26
293.209
293.169
293.165
293.206
293.255
293.236
293.185
293.146
293.142
293.183
293.232
293.214
293.163
293.124
293.12
293.161
293.21
293.193
293.142
293.103
293.099
293.14
293.189
293.173
293.122
293.083
293.079
293.12
293.169
293.153
293.102
293.063
293.059
293.1
293.149
293.135
293.084
293.044
293.041
293.082
293.131
293.116
293.066
293.026
293.023
293.064
293.113
293.099
293.049
293.009
293.006
293.047
293.096
293.082
293.032
292.993
292.99
293.03
293.079
293.066
293.016
292.977
292.974
293.014
293.063
293.05
293
292.961
292.959
292.999
293.047
293.035
292.985
292.946
292.944
292.984
293.031
293.02
292.971
292.932
292.929
292.97
293.016
293.005
292.956
292.918
292.915
292.956
293.002
292.991
292.942
292.904
292.901
292.942
292.987
292.976
292.928
292.89
292.888
292.929
292.973
292.962
292.915
292.877
292.874
292.915
292.959
292.948
292.901
292.863
292.862
292.902
292.945
292.934
292.888
292.85
292.848
292.889
292.931
292.92
292.875
292.837
292.836
292.876
292.917
292.906
292.861
292.825
292.823
292.863
292.903
292.892
292.848
292.811
292.811
292.85
292.89
292.879
292.835
292.799
292.798
292.837
292.876
292.865
292.823
292.786
292.786
292.824
292.863
292.852
292.81
292.774
292.773
292.811
292.849
292.838
292.797
292.761
292.761
292.798
292.836
292.825
292.784
292.749
292.748
292.786
292.823
292.812
292.771
292.736
292.737
292.773
292.81
292.799
292.759
292.723
292.723
292.761
292.797
292.786
292.746
292.711
292.712
292.748
292.784
292.773
292.734
292.699
292.699
292.736
292.771
292.76
292.722
292.686
292.688
292.723
292.759
292.748
292.709
292.674
292.674
292.711
292.746
292.735
292.697
292.662
292.663
292.699
292.733
292.722
292.685
292.65
292.65
292.687
292.721
292.71
292.672
292.637
292.639
292.675
292.708
292.697
292.66
292.625
292.626
292.662
292.696
292.685
292.648
292.613
292.615
292.65
292.683
292.672
292.636
292.601
292.602
292.638
292.671
292.66
292.624
292.589
292.591
292.626
292.659
292.647
292.611
292.576
292.577
292.613
292.646
292.635
292.599
292.564
292.566
292.601
292.633
292.622
292.586
292.551
292.552
292.588
292.621
292.609
292.574
292.539
292.541
292.576
292.608
292.597
292.561
292.526
292.527
292.563
292.595
292.584
292.548
292.513
292.516
292.55
292.583
292.571
292.536
292.501
292.502
292.538
292.57
292.559
292.523
292.488
292.491
292.526
292.558
292.547
292.511
292.476
292.478
292.513
292.546
292.535
292.5
292.464
292.465
292.503
292.533
292.525
292.489
292.452
292.452
292.491
292.523
292.516
292.478
292.441
292.441
292.481
292.514
292.509
292.469
292.43
292.433
292.471
292.507
292.501
292.46
292.421
292.418
292.46
292.499
292.492
292.452
292.402
292.348
292.429
292.472
292.432
292.398
292.318
292.318
292.383
292.402
292.228
291.667
291.39
291.301
290.862
290.481
290.208
290.087
289.795
289.608
289.272
288.993
288.764
288.569
288.414
288.299
288.219
288.166
288.131
288.107
288.091
288.079
288.071
288.065
288.061
288.058
288.056
288.054
288.053
288.052
288.052
288.051
288.051
288.05
288.049
288.048
288.047
288.045
288.044
288.043
288.042
288.041
288.04
288.039
288.038
288.038
288.036
288.035
288.033
288.032
288.033
288.037
288.043
288.053
288.065
288.081
288.099
288.12
288.144
288.171
288.202
288.237
288.276
288.32
288.37
288.425
288.486
288.555
288.631
288.715
288.809
288.911
289.024
289.148
289.283
289.429
289.587
289.757
289.939
290.131
290.335
290.548
290.771
291.001
291.238
291.481
291.727
291.975
292.224
292.473
292.72
292.963
293.203
293.439
293.668
293.891
294.108
294.317
294.518
294.713
294.899
295.078
295.249
295.412
295.568
295.717
295.858
295.993
296.121
296.242
296.357
296.467
296.571
296.669
296.762
296.851
296.934
297.014
297.089
297.16
297.227
297.291
297.351
297.408
297.462
297.513
297.561
297.606
297.648
297.688
297.725
297.76
297.792
297.823
297.851
297.877
297.902
297.924
297.945
297.965
297.983
298
298.015
298.029
298.041
298.052
298.061
298.068
298.074
298.079
298.081
298.083
298.084
298.084
298.083
298.083
298.083
298.083
298.083
298.085
298.088
298.093
298.101
298.11
298.119
298.129
298.14
298.151
298.162
298.175
298.188
298.201
298.215
298.23
298.245
298.26
298.276
298.293
298.309
298.326
298.344
298.362
298.379
298.398
298.416
298.434
298.453
298.471
298.49
298.509
298.527
298.545
298.564
298.582
298.599
298.617
298.634
298.651
298.667
298.683
298.698
298.713
298.728
298.742
298.755
298.768
298.78
298.792
298.803
298.813
298.823
298.831
298.839
298.844
298.846
298.848
298.848
298.848
298.848
298.849
298.851
298.852
298.853
298.855
298.856
298.858
298.86
298.863
298.865
298.868
298.871
298.875
298.878
298.882
298.887
298.891
298.896
298.901
298.906
298.911
298.917
298.923
298.929
298.935
298.942
298.949
298.956
298.963
298.971
298.979
298.988
298.996
299.006
299.015
299.025
299.036
299.047
299.058
299.07
299.081
299.094
299.106
299.12
299.133
299.147
299.161
299.176
299.191
299.207
299.223
299.24
299.257
299.275
299.293
299.312
299.331
299.352
299.373
299.396
299.418
299.441
299.465
299.489
299.515
299.54
299.566
299.59
299.616
299.636
299.662
299.672
299.675
299.702
299.802
299.987
300.157
300.26
300.492
301.034
301.093
301.001
300.979
300.918
300.902
300.842
300.828
300.796
300.778
300.732
300.718
300.712
300.711
300.702
300.713
300.708
300.654
300.603
300.592
300.573
300.562
300.59
300.616
300.617
300.585
300.564
300.512
300.478
300.483
300.536
300.553
300.555
300.564
300.577
300.55
300.532
300.551
300.585
300.589
300.593
300.631
300.658
300.615
300.582
300.539
300.502
300.594
300.616
300.517
300.603
300.647
300.629
300.594
300.563
300.518
300.52
300.562
300.555
300.576
300.594
300.581
300.544
300.495
300.527
300.526
300.527
300.559
300.548
300.535
300.546
300.569
300.501
300.495
300.482
300.495
300.537
300.522
300.51
300.539
300.582
300.588
300.577
300.572
300.541
300.541
300.525
300.531
300.561
300.537
300.513
300.508
300.491
300.511
300.511
300.496
300.517
300.522
300.527
300.537
300.521
300.533
300.55
300.536
300.575
300.592
300.598
300.576
300.543
300.539
300.563
300.576
300.532
300.527
300.526
300.535
300.556
300.553
300.564
300.589
300.584
300.586
300.636
300.617
300.626
300.656
300.647
300.604
300.576
300.567
300.605
300.642
300.648
300.606
300.608
300.651
300.656
300.626
300.613
300.722
300.636
300.665
300.711
300.714
300.721
300.731
300.763
300.775
300.624
300.323
300.777
300.774
300.822
300.849
300.786
300.859
300.966
300.655
299.973
299.786
300.205
300.883
300.659
300.069
299.852
300.204
299.993
299.825
299.715
299.68
299.753
299.886
299.819
299.733
299.698
299.737
299.7
299.685
299.656
299.631
299.676
299.682
299.674
299.661
299.649
299.667
299.647
299.626
299.595
299.558
299.609
299.627
299.603
299.583
299.563
299.58
299.554
299.536
299.517
299.471
299.513
299.528
299.501
299.485
299.463
299.477
299.451
299.436
299.424
299.379
299.415
299.428
299.404
299.39
299.37
299.383
299.36
299.346
299.336
299.295
299.326
299.339
299.318
299.305
299.286
299.299
299.279
299.266
299.256
299.219
299.248
299.261
299.242
299.23
299.213
299.225
299.208
299.195
299.185
299.152
299.179
299.192
299.176
299.163
299.148
299.16
299.145
299.133
299.122
299.093
299.118
299.131
299.117
299.104
299.09
299.103
299.089
299.077
299.066
299.041
299.064
299.077
299.064
299.052
299.039
299.052
299.04
299.028
299.018
298.996
299.017
299.029
299.018
299.006
298.995
299.007
298.997
298.986
298.976
298.957
298.976
298.988
298.979
298.967
298.958
298.97
298.961
298.95
298.941
298.925
298.942
298.953
298.946
298.935
298.927
298.938
298.931
298.921
298.911
298.899
298.914
298.924
298.918
298.908
298.902
298.912
298.906
298.896
298.888
298.878
298.891
298.9
298.895
298.886
298.881
298.89
298.885
298.877
298.87
298.863
298.872
298.88
298.876
298.869
298.865
298.872
298.869
298.862
298.857
298.853
298.859
298.865
298.862
298.857
298.855
298.86
298.857
298.853
298.849
298.848
298.851
298.855
298.854
298.85
298.849
298.852
298.851
298.849
298.847
298.847
298.848
298.85
298.849
298.848
298.848
298.849
298.849
298.848
298.847
298.847
298.846
298.846
298.846
298.848
298.85
298.854
298.859
298.865
298.872
298.881
298.891
298.903
298.916
298.931
298.947
298.965
298.984
299.005
299.027
299.052
299.077
299.105
299.134
299.166
299.199
299.234
299.271
299.31
299.351
299.393
299.436
299.479
299.517
299.551
299.586
299.617
299.639
299.663
299.693
299.741
299.841
300.032
300.426
300.571
300.591
300.538
300.563
300.566
300.548
300.542
300.547
300.552
300.557
300.554
300.534
300.532
300.568
300.562
300.531
300.516
300.526
300.56
300.53
300.513
300.509
300.524
300.52
300.512
300.542
300.536
300.535
300.514
300.561
300.55
300.508
300.514
300.53
300.557
300.53
300.51
300.501
300.523
300.515
300.518
300.52
300.532
300.543
300.533
300.537
300.543
300.574
300.588
300.57
300.553
300.545
300.562
300.566
300.559
300.566
300.572
300.548
300.56
300.561
300.57
300.562
300.57
300.569
300.56
300.559
300.553
300.551
300.552
300.547
300.527
300.541
300.548
300.528
300.547
300.515
300.526
300.528
300.526
300.518
300.525
300.534
300.527
300.513
300.5
300.48
300.489
300.51
300.509
300.495
300.492
300.534
300.523
300.52
300.511
300.493
300.451
300.462
300.479
300.508
300.535
300.566
300.637
300.657
300.692
300.743
300.843
300.812
300.74
300.73
300.778
300.761
300.718
300.592
300.515
300.677
300.715
300.744
300.728
300.725
300.591
300.513
300.472
300.455
300.42
300.42
300.444
300.458
300.49
300.484
300.462
300.448
300.388
300.39
300.414
300.418
300.44
300.454
300.428
300.434
300.428
300.415
300.405
300.403
300.414
300.465
300.491
300.514
300.583
300.65
300.558
300.546
300.463
300.41
300.392
300.394
300.413
300.412
300.425
300.418
300.398
300.393
300.409
300.39
300.397
300.409
300.398
300.392
300.393
300.384
300.381
300.366
300.384
300.374
300.381
300.353
300.338
300.331
300.376
300.381
300.446
300.448
300.503
300.486
300.517
300.5
300.437
300.494
300.527
300.549
300.537
300.499
300.443
300.522
300.502
300.271
299.977
300.262
300.428
300.286
300.032
299.779
299.66
299.843
300.094
300.325
300.44
300.367
300.433
300.375
300.367
300.373
300.368
300.326
300.332
300.301
300.296
300.304
300.3
300.311
300.314
300.335
300.35
300.331
300.353
300.311
300.293
300.287
300.282
300.287
300.281
300.277
300.274
300.293
300.298
300.295
300.278
300.278
300.284
300.301
300.326
300.327
300.301
300.3
300.286
300.286
300.279
300.296
300.295
300.329
300.327
300.366
300.34
300.3
300.288
300.315
300.282
300.284
300.29
300.289
300.263
300.272
300.262
300.262
300.239
300.228
300.242
300.259
300.257
300.278
300.275
300.266
300.253
300.257
300.24
300.241
300.241
300.224
300.223
300.224
300.231
300.24
300.221
300.235
300.212
299.996
299.715
299.565
299.454
299.544
299.805
300.245
300.133
300.024
300.227
300.177
300.167
300.176
300.065
300.037
299.988
299.949
299.658
299.699
299.7
299.734
299.57
299.73
299.65
299.479
299.622
299.906
300.046
299.293
299.223
299.248
299.466
299.414
299.165
299.25
298.943
298.903
298.619
298.632
298.296
298.467
298.794
298.803
298.992
299.13
299.351
299.467
299.51
299.38
299.279
298.999
298.688
298.713
298.431
298.503
298.206
297.662
297.65
297.73
297.838
297.804
297.884
297.937
298.167
298.552
298.416
298.764
298.584
298.885
298.736
298.861
299.078
298.921
299.092
298.987
299.046
299.192
299.068
299.179
299.057
299.18
299.057
299.108
299.206
299.114
299.168
299.081
299.159
299.067
299.132
299.037
299.092
298.991
299.036
299.085
299.039
299.05
299.017
299.011
298.977
298.964
298.936
298.947
298.911
298.93
298.871
298.915
298.835
298.869
298.788
298.836
298.747
298.78
298.695
298.747
298.664
298.706
298.635
298.655
298.578
298.622
298.541
298.555
298.488
298.43
298.349
298.447
298.394
298.504
298.444
298.536
298.482
298.579
298.53
298.629
298.567
298.668
298.613
298.714
298.647
298.747
298.695
298.803
298.728
298.834
298.757
298.867
298.785
298.889
298.819
298.923
298.844
298.927
298.884
298.776
298.613
298.67
298.568
298.752
298.72
298.625
298.523
298.66
298.571
298.468
298.639
298.596
298.508
298.406
298.516
298.438
298.334
298.485
298.434
298.36
298.262
298.35
298.282
298.185
298.317
298.254
298.295
298.408
298.408
298.335
298.379
298.273
298.331
298.218
298.286
298.158
298.225
298.11
298.162
298.071
298.11
298.05
297.942
297.888
297.984
297.935
298.042
298.004
298.09
298.046
298.157
298.117
298.204
298.164
298.285
298.215
298.092
298.098
298
297.988
297.888
297.87
297.783
297.824
297.904
297.982
297.837
297.901
297.776
297.827
297.705
297.76
297.646
297.695
297.608
297.507
297.566
297.443
297.483
297.371
297.393
297.283
297.296
297.216
297.225
297.145
297.095
297.074
297.19
297.155
297.254
297.238
297.331
297.306
297.392
297.368
297.458
297.539
297.514
297.597
297.575
297.658
297.638
297.725
297.703
297.777
297.753
297.69
297.675
297.634
297.55
297.63
297.562
297.507
297.409
297.503
297.435
297.366
297.279
297.24
297.123
297.073
296.968
296.989
297.029
297.063
296.939
296.947
296.851
296.859
296.754
296.757
296.684
296.671
296.581
296.579
296.577
296.495
296.504
296.389
296.392
296.29
296.295
296.177
296.176
296.093
295.972
295.972
295.853
295.857
295.723
295.72
295.616
295.591
295.473
295.46
295.353
295.355
295.218
295.214
295.197
295.088
295.06
294.912
294.875
294.729
294.731
294.573
294.572
294.368
294.225
294.19
294.027
294.007
293.824
293.758
293.584
293.506
293.366
293.303
293.145
293.041
292.863
292.745
292.588
292.478
292.324
292.206
291.948
291.821
291.621
291.601
291.319
291.441
291.293
291.101
290.896
290.682
290.466
290.281
290.081
289.834
289.571
289.209
289.146
288.769
288.584
287.988
287.949
287.378
287.358
286.678
286.67
285.87
285.863
285.287
284.381
284.432
283.351
283.459
282.169
282.098
281.098
280.293
279.882
279.004
277.806
277.672
276.314
275.446
274.572
275.483
274.892
275.51
276.548
278.493
280.823
282.617
283.959
284.749
285.59
286.183
286.822
287.27
287.753
288.127
288.522
288.857
289.188
289.49
289.762
290.033
290.259
290.502
290.69
290.908
291.066
291.263
291.397
291.573
291.688
291.846
291.942
292.086
292.169
292.303
292.37
292.495
292.546
292.662
292.697
292.804
292.826
292.925
292.941
293.025
293.036
293.115
293.122
293.184
293.192
293.242
293.251
293.286
293.296
293.323
293.335
293.347
293.363
293.364
293.378
293.371
293.385
293.373
293.385
293.367
293.379
293.359
293.37
293.345
293.356
293.33
293.34
293.31
293.322
293.291
293.302
293.269
293.281
293.247
293.259
293.223
293.236
293.202
293.214
293.177
293.191
293.155
293.169
293.132
293.147
293.111
293.125
293.088
293.104
293.068
293.083
293.046
293.062
293.027
293.043
293.007
293.023
292.989
293.004
292.97
292.986
292.952
292.968
292.934
292.951
292.918
292.934
292.901
292.917
292.885
292.901
292.869
292.885
292.854
292.869
292.838
292.854
292.824
292.839
292.809
292.825
292.795
292.811
292.781
292.796
292.768
292.783
292.754
292.769
292.741
292.756
292.727
292.743
292.715
292.73
292.702
292.717
292.69
292.704
292.677
292.691
292.664
292.679
292.651
292.666
292.639
292.653
292.626
292.64
292.614
292.628
292.601
292.615
292.589
292.602
292.576
292.589
292.564
292.577
292.551
292.565
292.539
292.552
292.526
292.54
292.514
292.527
292.501
292.515
292.489
292.502
292.476
292.49
292.464
292.477
292.451
292.464
292.439
292.451
292.425
292.438
292.413
292.425
292.399
292.412
292.386
292.398
292.373
292.386
292.36
292.373
292.347
292.36
292.335
292.348
292.321
292.334
292.314
292.306
292.309
292.283
292.253
291.706
291.728
291.41
291.855
291.809
291.555
291.919
291.889
291.634
291.966
291.926
291.693
291.994
291.954
291.726
292.013
291.969
291.746
292.029
291.986
291.764
292.042
291.997
291.77
292.057
292.012
291.794
292.068
292.022
291.79
292.084
292.037
291.821
292.093
292.047
291.811
292.109
292.062
291.842
292.117
292.071
291.832
292.133
292.085
291.863
292.141
292.093
291.851
292.156
292.107
291.881
292.163
292.115
291.869
292.178
292.129
291.899
292.185
292.137
291.886
292.2
292.15
291.916
292.207
292.157
291.903
292.222
292.17
291.932
292.229
292.178
291.919
292.244
292.191
291.948
292.251
292.198
291.934
292.265
292.211
291.962
292.272
292.218
291.948
292.286
292.23
291.975
292.292
292.237
291.961
292.305
292.248
291.987
292.311
292.254
291.972
292.324
292.265
291.997
292.33
292.27
291.982
292.342
292.281
292.006
292.348
292.287
291.992
292.36
292.297
292.014
292.366
292.303
292
292.378
292.314
292.021
292.384
292.319
292.007
292.396
292.329
292.027
292.402
292.334
292.014
292.414
292.344
292.031
292.419
292.348
292.019
292.43
292.357
292.033
292.435
292.361
292.021
292.445
292.369
292.033
292.449
292.371
292.021
292.458
292.378
292.03
292.46
292.379
292.017
292.468
292.384
292.025
292.469
292.383
292.01
292.475
292.386
292.015
292.474
292.383
291.999
292.478
292.384
292.001
292.474
292.377
291.982
292.475
292.375
291.983
292.469
292.366
291.961
292.466
292.36
291.96
292.457
292.346
291.933
292.451
292.337
291.929
292.437
292.318
291.898
292.427
292.303
291.889
292.407
292.278
291.854
292.39
292.257
291.841
292.363
292.225
291.801
292.34
292.196
291.782
292.304
292.156
291.737
292.272
292.117
291.716
292.226
292.067
291.658
292.184
292.018
291.632
292.127
291.958
291.562
292.075
291.898
291.528
292.007
291.828
291.448