/*--------------------------------*- C++ -*----------------------------------*\
| =========                 |                                                 |
| \\      /  F ield         | OpenFOAM: The Open Source CFD Toolbox           |
|  \\    /   O peration     | Version:  v2006                                 |
|   \\  /    A nd           | Website:  www.openfoam.com                      |
|    \\/     M anipulation  |                                                 |
\*---------------------------------------------------------------------------*/
FoamFile
{
    version     2.0;
    format      ascii;
    class       volScalarField;
    location    "0.074";
    object      k;
}
// * * * * * * * * * * * * * * * * * * * * * * * * * * * * * * * * * * * * * //

dimensions      [0 2 -2 0 0 0 0];


internalField   nonuniform List<scalar> 
9148
(
129.857
129.858
129.859
129.859
129.855
129.809
129.61
129.211
128.643
127.993
127.309
126.614
125.901
125.161
124.385
123.569
122.712
121.815
120.879
119.907
118.9
117.86
116.788
115.687
114.559
113.407
112.232
111.037
109.826
108.6
107.363
106.118
104.867
103.613
102.36
101.111
99.8672
98.6327
97.41
96.2017
95.0104
93.8387
92.689
91.5641
90.4661
89.3974
88.3602
87.3566
86.3886
85.4581
84.5671
83.7175
82.9108
82.1474
81.4264
80.7443
80.0967
79.4872
78.9369
78.5024
78.2337
78.1269
78.109
78.1199
78.1401
78.1211
78.0497
77.8859
77.5776
76.801
75.3457
67.8662
59.787
71.1944
75.5751
73.1081
65.9285
53.7109
48.8629
61.1408
70.416
67.428
56.9072
45.1406
42.2514
53.4471
64.8844
62.0262
50.2223
39.8317
38.044
47.9709
60.0562
57.7021
45.5858
36.3566
35.1819
44.2592
56.2018
54.1886
42.406
33.9478
33.1075
41.5577
53.0566
51.3405
40.0958
32.1481
31.4997
39.5039
50.4419
48.9538
38.3112
30.7207
30.1913
37.8606
48.2206
46.9088
36.8694
29.5352
29.0826
36.4988
46.297
45.1228
35.6553
28.5107
28.1107
35.3394
44.603
43.5385
34.6005
27.5978
27.2344
34.3229
43.0865
42.1157
33.6608
26.7638
26.426
33.4099
41.7078
40.8203
32.8046
25.9858
25.6663
32.5738
40.4472
39.6272
32.012
25.2482
24.9415
31.7962
39.2818
38.5174
31.2678
24.5393
24.2414
31.0631
38.1948
37.4764
30.5603
23.8504
23.558
30.3635
37.1724
36.4921
29.8798
23.1743
22.8848
29.6884
36.2034
35.5549
29.2188
22.5051
22.2163
29.0308
35.2787
34.6564
28.5708
21.8381
21.5483
28.3845
34.3905
33.79
27.9307
21.1693
20.8769
27.7447
33.5324
32.9497
27.294
20.4952
20.1988
27.107
32.6987
32.1304
26.6566
19.8124
19.5105
26.4675
31.8845
31.3272
26.0148
19.1175
18.8086
25.8221
31.0849
30.5356
25.3644
18.4067
18.0889
25.1669
30.2952
29.7508
24.7015
17.676
17.3475
24.4977
29.5108
28.9681
24.0217
16.9215
16.5806
23.8102
28.727
28.1827
23.3208
16.1397
15.785
23.1001
27.9388
27.3897
22.5942
15.3272
14.9569
22.3623
27.1411
26.5828
21.8358
14.4799
14.0923
21.591
26.3279
25.7571
21.0403
13.5941
13.1869
20.7797
25.4938
24.9059
20.1992
12.6642
12.2337
19.9192
24.6318
24.021
19.3017
11.6826
11.2226
18.9967
23.7327
23.0923
18.3327
10.6393
10.1382
17.9932
22.7848
22.1069
17.282
9.52139
8.95808
16.8545
21.7691
21.0476
16.1072
8.29948
7.65104
15.5379
20.6301
19.8823
14.7336
6.93074
6.1626
13.9261
19.2968
18.543
13.0251
5.33477
4.41666
11.7194
17.6174
16.7934
10.6014
3.54394
2.20091
7.79978
15.1647
11.7581
3.79564
0.839836
1.47084
3.09298
7.22548
8.21348
6.3041
2.28833
2.64113
7.21776
13.7646
15.6029
7.64841
2.7291
2.18252
6.72947
14.1543
9.68554
2.9339
0.877268
0.340649
0.579611
1.52233
0.66771
0.401493
0.199342
0.15524
0.387924
0.647611
0.674867
0.383064
0.144128
0.302004
0.522204
0.857778
0.946563
0.654309
0.465577
0.631378
0.810228
1.07744
1.11882
0.869238
0.704024
0.728534
0.89857
1.14305
1.11169
0.870358
0.67684
0.601974
0.841836
1.07367
1.01838
0.796627
0.508346
0.462503
0.777554
1.00138
0.996724
0.757262
0.444102
0.480149
0.753438
1.04619
1.10072
0.797172
0.557308
0.656915
0.853106
1.18073
1.27117
0.933934
0.776524
0.905572
1.01627
1.35989
1.46574
1.10819
1.03944
1.17024
1.18517
1.55308
1.6672
1.26637
1.29584
1.41017
1.32769
1.74347
1.85043
1.39896
1.5134
1.59917
1.43967
1.90638
1.9956
1.49091
1.6704
1.72207
1.51217
2.03573
2.0976
1.53065
1.75082
1.76134
1.53265
2.1225
2.14886
1.52902
1.75951
1.72588
1.49562
2.15373
2.15723
1.47456
1.67656
1.60047
1.41311
2.12755
2.0994
1.37071
1.50883
1.39204
1.27661
2.01792
1.9562
1.21404
1.26493
1.11238
1.08578
1.80791
1.71321
1.01557
0.959885
0.781822
0.872804
1.49217
1.387
0.807203
0.626939
0.452587
0.683231
1.14569
1.0502
0.637616
0.332359
0.182785
0.498124
0.771548
0.659636
0.442885
0.110106
0.0843206
0.34107
0.490279
0.752512
1.08138
1.36267
1.6226
1.82999
2.01407
2.15155
2.27155
2.35588
2.42881
2.47609
2.50933
2.51945
2.49984
2.42596
2.32273
2.12904
1.91943
1.74695
1.69774
0.991839
0.299827
0.33143
0.256697
0.196679
0.154186
0.0451758
0.0223656
0.035867
0.088042
0.163854
0.0446846
0.0347626
0.0562312
0.044401
0.186033
0.213564
0.040224
0.0467986
0.0479574
0.0418024
0.242507
0.210541
0.0354466
0.0358355
0.0308495
0.0357987
0.229739
0.279279
0.0459619
0.0352999
0.0783128
0.203793
1.01617
1.50178
0.374033
0.146584
0.151838
0.37633
1.69613
1.38077
0.290967
0.131082
0.0798488
0.121965
0.629072
0.65581
0.09046
0.0539429
0.0429828
0.187194
1.15429
1.4956
0.291922
0.0403489
0.0245338
0.435924
1.98714
2.27078
0.608006
0.0375386
0.111265
0.984379
2.85546
3.02954
1.19308
0.210318
0.366601
1.64199
3.63278
3.79185
1.80175
0.515186
0.717771
2.24345
4.40855
4.56613
2.36213
0.898853
1.1384
2.79929
5.23694
5.40708
2.89649
1.34484
1.61754
3.34667
6.17036
6.36918
3.43221
1.85685
2.18644
3.96807
7.29366
7.55573
4.08478
2.48429
2.91745
4.80251
8.70138
9.05571
4.9929
3.32783
3.82923
6.04816
10.5032
10.8315
6.23054
4.11114
4.48254
7.51509
12.6003
12.926
7.63209
4.60797
4.98396
9.19308
14.9941
15.5159
9.51386
5.07226
5.46716
11.3982
17.8365
18.7115
11.9345
5.56772
6.17682
14.2332
21.4267
23.3099
15.566
6.65025
8.10708
19.4462
25.8635
18.0073
9.96119
4.14584
6.34876
19.2097
27.5793
30.1951
20.7558
6.89632
8.64473
25.1671
34.8215
39.3868
28.9029
9.70743
9.61309
31.0597
41.2112
39.0357
26.6715
5.85028
12.5441
37.8871
49.1193
58.9187
49.714
21.6457
13.9728
33.1813
51.1907
60.8353
47.2428
21.2887
38.4595
68.2288
72.7543
81.0525
70.7
37.8339
36.0583
53.3526
70.8662
89.742
83.1944
64.4521
71.2822
93.6864
91.0023
102.867
104.349
76.7391
76.9926
79.2525
90.7103
85.9185
70.4521
70.6875
69.7925
76.4701
88.513
77.1105
66.5808
65.3618
54.533
48.364
52.7609
59.0686
53.3797
50.2998
40.4733
40.4694
44.6293
49.0144
44.7038
40.0494
34.2022
34.2915
37.6524
41.5678
36.6676
32.9058
31.1301
32.3545
36.8409
25.5318
23.3796
27.9216
26.4828
25.9283
29.1918
22.8695
21.2522
24.5597
23.1724
22.5194
26.0702
23.1434
20.5352
21.7985
22.2728
16.5553
17.0857
19.2571
17.245
20.3955
20.866
15.3954
15.7261
17.8346
15.9259
18.955
19.6056
14.4126
14.6779
16.4089
14.5535
17.4897
17.679
13.5899
14.7765
11.883
12.6072
19.3831
17.2913
12.2785
13.0455
11.2433
12.1996
18.9375
16.68
11.3295
12.1951
10.675
11.8196
18.3749
16.1163
10.6721
11.7344
10.3083
11.364
17.873
15.7013
10.3181
11.4437
10.0307
10.8979
17.3884
15.1535
10.0827
11.2152
10.1569
9.82257
16.2808
18.7343
11.4458
9.29022
9.43944
9.02136
16.1051
18.882
11.2408
8.85529
9.18531
8.60526
16.0103
18.6353
11.1121
8.72479
9.04315
8.46375
15.9498
18.6357
10.8998
8.66764
9.03949
8.30223
15.916
18.8449
10.8701
8.67253
8.95725
8.23103
16.0752
19.0619
10.9286
8.66823
8.92262
8.21695
16.2173
19.3155
11.0512
8.69694
8.88626
8.20394
16.4016
19.6176
11.1559
8.72312
8.8131
8.23935
16.7305
20.1127
11.3524
8.74753
8.77623
8.23546
17.0337
20.5052
11.4974
8.78751
8.77212
8.30002
17.4196
21.0862
11.7965
8.86398
8.78523
8.36312
17.7978
21.6272
12.0017
8.9287
8.79157
8.41942
18.2471
22.318
12.3283
9.03158
8.78983
8.47655
18.8055
23.1067
12.4755
9.1164
8.69645
8.38806
19.6747
24.8827
13.334
9.242
9.09088
10.1208
24.1885
20.1323
7.64148
9.85817
9.69263
11.7355
22.9992
19.3271
8.99505
9.78981
9.96306
13.02
22.8151
19.5924
9.63928
9.87115
10.1974
13.712
23.7361
20.3702
9.81115
9.8962
10.3117
14.1643
24.9952
21.2328
9.9017
9.93674
10.439
14.5019
25.8823
21.9923
9.89537
9.91972
10.5609
14.9404
27.3574
23.2305
9.90051
9.88885
10.7844
15.9983
29.487
28.6863
12.2207
10.2507
10.893
8.61957
24.2089
28.1278
14.0744
11.0604
10.9623
10.2757
23.4063
27.6455
15.5834
11.4652
11.0542
11.0992
23.4525
28.4306
16.3548
11.723
11.1589
11.2907
24.1184
29.872
16.8453
11.9469
11.1554
11.3231
25.4408
32.151
17.9018
12.2096
11.6123
13.9708
31.6564
27.0422
9.77061
12.1281
12.4946
16.0951
31.8276
26.6705
11.6626
12.1728
12.9487
18.0023
32.0607
27.1831
12.6098
12.3079
13.2531
18.8432
33.1827
28.0826
12.7597
12.4008
13.4697
19.3013
34.7093
29.6203
12.7093
12.4059
13.7719
20.4798
37.3358
36.7098
15.6245
12.8586
13.1352
10.7395
31.1062
37.1646
18.2671
13.7993
13.2148
12.8021
30.8288
37.618
20.5339
14.3339
13.5363
13.9773
31.4697
38.9134
21.6863
14.8978
13.7853
14.3682
32.689
40.9778
22.9939
15.3792
14.4504
18.0544
39.7092
34.1944
12.3116
14.7741
15.586
20.723
41.0247
34.5922
14.5781
14.9061
16.2992
23.496
42.4869
35.6473
15.8596
15.2505
16.8444
24.8975
44.2889
37.0631
16.3597
15.5852
17.3288
25.5446
46.2939
38.6006
16.3891
15.7357
17.8104
26.9358
48.7948
47.2429
20.7333
16.3592
16.4049
13.7429
40.1502
48.3184
24.0801
17.6345
16.5238
16.4581
40.2942
49.7928
27.2464
18.3628
17.107
18.0102
41.6534
52.142
28.9987
19.1779
17.663
18.7278
43.505
54.5989
29.8848
19.9053
18.0128
18.953
45.5229
57.6611
31.8108
20.5967
19.0536
24.5392
56.4448
48.0162
15.9156
18.6182
20.3944
28.6024
58.0662
48.1723
19.1268
18.8633
21.3326
32.3918
59.59
49.6855
20.9843
19.5694
22.213
34.0799
62.3155
51.6801
21.6008
20.1922
23.1057
35.361
65.4071
54.3282
22.0332
20.7537
24.1244
37.5498
68.9359
67.1513
28.8812
22.228
21.1749
18.3184
56.297
67.9853
33.6248
23.4673
21.7066
22.2974
56.4902
69.9749
38.1064
24.7332
22.8208
24.5992
58.1066
72.5004
40.3524
26.0797
23.8616
25.6649
59.8237
75.4494
41.6797
27.2182
24.7147
26.4974
62.5207
78.9441
43.205
28.2194
25.5244
27.1852
65.2186
82.079
44.5334
29.2224
26.2228
27.8069
67.2051
85.2512
45.8281
30.2017
26.8394
28.5737
70.068
89.2772
47.6965
31.2194
27.5526
29.3532
73.2534
92.8417
49.1137
32.2668
28.2401
29.8681
75.7216
97.1609
50.5683
33.4744
28.8522
30.7208
79.9293
103.251
55.3062
35.311
30.6909
42.859
100.254
84.1876
25.3495
28.1333
32.2834
49.0776
100.808
82.3889
30.9081
29.5228
34.4011
55.6562
103.093
84.4454
36.5158
31.6216
31.4126
41.277
99.1416
124.794
73.6609
42.8245
34.8565
40.1027
97.5115
128.133
67.823
43.0445
35.2229
38.67
101.684
129.923
66.8319
42.925
35.7191
38.9559
103.602
133.12
67.0011
43.4474
36.4518
39.3453
106.056
136.901
71.1594
44.7615
37.7017
41.577
109.528
139.472
72.4894
46.0573
38.9396
41.8867
109.428
142.379
75.8244
47.2722
40.2848
47.7583
115.1
136.156
53.2168
39.9152
56.4301
95.4212
180.087
136.666
50.4461
43.6983
56.1453
92.7665
180.547
140.48
49.4381
44.4991
53.7723
91.1165
174.482
139.751
53.7603
45.2883
44.3452
59.2996
164.892
215.308
118.71
63.2703
48.889
61.3984
164.404
192.299
64.9095
47.7594
69.9059
135.52
254.4
181.779
62.9935
51.7138
51.8933
81.1005
220.869
247.918
72.3734
50.9312
85.688
180.698
337.985
239.3
75.9847
58.2915
55.7902
85.2321
272.457
324.147
108.314
59.4126
59.2031
111.914
368.508
409.482
123.427
61.778
61.6925
126.486
405.191
390.079
139.024
63.5353
62.9714
139.317
355.84
319.715
144.38
63.868
63.32
144.176
285.512
254.948
147.054
64.6998
64.4675
148.719
227.966
204.991
151.655
66.9902
67.5583
155.167
185.574
169.22
156.716
72.5247
74.0563
157.981
155.326
143.42
158.224
80.8893
82.6578
159.036
133.283
124.513
159.04
89.6912
91.5561
159.98
117.136
110.71
159.945
98.7864
100.77
161.021
105.428
100.777
160.995
107.997
109.734
162.219
97.1306
93.8266
162.145
116.421
118.007
163.364
91.4578
89.0948
163.166
124.127
125.481
164.323
87.7689
85.9209
163.969
131.027
132.215
164.747
85.6572
84.3207
164.173
137.168
138.095
164.521
84.4534
83.6241
163.73
142.409
143.045
163.881
83.9216
83.3387
162.858
146.592
146.941
162.931
83.7412
83.3017
161.733
149.72
149.881
161.776
83.7714
83.3815
160.466
152.03
152.023
160.501
83.9488
83.5767
159.184
153.591
153.513
159.224
84.1927
83.8391
157.898
154.637
154.613
157.968
84.5004
84.1692
156.718
155.199
155.235
156.808
84.8746
84.5668
155.596
155.477
155.389
155.705
85.3145
85.0301
154.573
155.471
155.162
154.68
85.809
85.5454
153.553
155.136
154.649
153.664
86.3468
86.1023
152.573
154.476
153.938
152.669
86.9171
86.6876
151.552
153.614
153.027
151.643
87.5059
87.2898
150.546
152.565
151.951
150.614
88.1035
87.8975
149.485
151.394
150.751
149.544
88.697
88.5003
148.436
150.105
149.452
148.474
89.2828
89.0933
147.343
148.75
148.082
147.374
89.8517
89.669
146.273
147.327
146.661
146.287
90.4051
90.2281
145.177
145.88
145.209
145.187
90.9371
90.7656
144.117
144.408
143.737
144.12
91.4493
91.2843
143.06
142.946
142.271
143.062
91.9392
91.7795
142.043
141.472
140.822
142.04
92.4088
92.2534
141.027
139.97
139.333
141.02
92.8522
92.7002
140.037
138.453
137.843
140.021
93.2701
93.1201
139.039
136.966
136.366
139.027
93.6576
93.5094
138.096
135.507
134.924
138.078
94.0186
93.8724
137.158
134.078
133.485
137.134
94.3535
94.2081
136.247
132.65
132.069
136.221
94.6612
94.517
135.35
131.272
130.692
135.324
94.9425
94.7987
134.496
129.924
129.364
134.476
95.199
95.0565
133.674
128.642
128.088
133.657
95.4335
95.292
132.903
127.398
126.868
132.895
95.6494
95.5101
132.172
126.23
125.707
132.169
95.8497
95.7122
131.499
125.105
124.607
131.505
96.0375
95.9026
130.867
124.057
123.565
130.877
96.2143
96.0816
130.29
123.062
122.569
130.308
96.3825
96.2524
129.75
122.139
121.631
129.769
96.5426
96.4145
129.26
121.264
120.753
129.288
96.6969
96.5714
128.804
120.449
119.923
128.832
96.8451
96.7216
128.393
119.678
119.148
128.429
96.9892
96.8678
128.011
118.959
118.416
128.045
97.1281
97.0085
127.667
118.277
117.734
127.709
97.2643
97.1467
127.347
117.641
117.089
127.387
97.3969
97.2809
127.06
117.036
116.492
127.108
97.528
97.4136
126.793
116.47
115.93
126.839
97.6545
97.5415
126.555
115.928
115.416
126.612
97.7802
97.6686
126.333
115.423
114.929
126.396
97.9027
97.7921
126.135
114.944
114.478
126.209
98.0242
97.9148
125.952
114.499
114.047
126.031
98.1427
98.0342
125.789
114.077
113.649
125.877
98.2605
98.1531
125.638
113.684
113.269
125.73
98.3754
98.2686
125.505
113.312
112.917
125.606
98.4896
98.3838
125.382
112.965
112.581
125.485
98.601
98.4956
125.274
112.637
112.271
125.385
98.7116
98.6069
125.175
112.331
111.973
125.287
98.8193
98.715
125.088
112.041
111.7
125.208
98.9264
98.8228
125.01
111.771
111.437
125.13
99.0308
98.9275
124.942
111.516
111.198
125.07
99.1348
99.0322
124.882
111.281
110.963
125.008
99.2363
99.1339
124.831
111.058
110.75
124.964
99.3375
99.2356
124.785
110.854
110.539
124.917
99.4362
99.3345
124.748
110.657
110.352
124.886
99.5346
99.4334
124.716
110.477
110.165
124.851
99.6307
99.5296
124.69
110.304
110.002
124.832
99.7265
99.6259
124.669
110.146
109.836
124.808
99.8203
99.7197
124.653
109.993
109.692
124.798
99.9139
99.8138
124.642
109.854
109.545
124.783
100.005
99.9054
124.635
109.718
109.418
124.782
100.097
99.9973
124.63
109.591
109.285
124.774
100.186
100.087
124.63
109.47
109.175
124.78
100.276
100.177
124.633
109.36
109.057
124.778
100.365
100.265
124.639
109.253
108.96
124.79
100.454
100.355
124.647
109.154
108.853
124.794
100.543
100.445
124.659
109.057
108.768
124.812
100.634
100.536
124.674
108.972
108.675
124.823
100.725
100.628
124.692
108.889
108.601
124.846
100.819
100.723
124.711
108.811
108.512
124.861
100.913
100.818
124.733
108.732
108.444
124.888
101.011
100.917
124.757
108.662
108.368
124.909
101.108
101.013
124.785
108.598
108.314
124.942
101.204
101.11
124.813
108.541
108.247
124.966
101.297
101.202
124.839
108.484
108.192
124.992
101.384
101.285
124.868
108.42
108.136
125.023
101.494
101.396
124.895
108.375
108.099
125.049
101.557
101.452
124.946
108.333
108.028
125.098
101.646
101.533
125.034
108.157
107.816
125.182
101.783
101.67
125.226
107.855
107.401
125.343
102.01
102.068
125.504
107.41
106.535
125.202
102.963
104.179
124.886
105.014
103.705
125.013
105.584
78.3297
60.3297
59.2695
61.7692
71.4027
81.8181
90.2394
95.2523
110.673
118.324
120.15
120.053
117.507
114.537
112.176
110.85
110.347
110.33
110.539
110.827
111.124
111.399
111.643
111.854
112.033
112.182
112.304
112.398
112.469
112.516
112.544
112.557
112.571
112.599
112.639
112.69
112.75
112.817
112.89
112.97
113.056
113.151
113.255
113.37
113.498
113.642
113.838
114.161
114.639
115.209
115.787
116.329
116.82
117.26
117.655
118.008
118.325
118.608
118.86
119.085
119.285
119.466
119.629
119.779
119.917
120.048
120.172
120.293
120.411
120.528
120.645
120.764
120.886
121.012
121.143
121.279
121.42
121.568
121.723
121.883
122.05
122.222
122.399
122.581
122.766
122.954
123.143
123.334
123.524
123.713
123.9
124.084
124.265
124.443
124.616
124.784
124.948
125.106
125.259
125.407
125.549
125.686
125.817
125.944
126.065
126.182
126.294
126.401
126.504
126.603
126.699
126.79
126.879
126.964
127.046
127.126
127.203
127.278
127.35
127.421
127.489
127.556
127.622
127.685
127.748
127.809
127.868
127.927
127.985
128.043
128.099
128.156
128.213
128.27
128.327
128.385
128.444
128.504
128.564
128.626
128.689
128.754
128.82
128.888
128.959
129.033
129.109
129.189
129.272
129.358
129.445
129.533
129.621
129.713
129.796
129.845
129.857
129.851
129.828
129.751
129.555
129.196
128.681
128.059
127.387
126.689
125.969
125.22
124.436
123.613
122.75
121.847
120.907
119.93
118.919
117.874
116.799
115.695
114.565
113.41
112.233
111.038
109.826
108.599
107.362
106.116
104.865
103.611
102.358
101.108
99.8635
98.6284
97.4049
96.196
95.0042
93.8321
92.6822
91.5572
90.4592
89.3907
88.3538
87.3506
86.383
85.4532
84.563
83.7145
82.9095
82.1486
81.4309
80.7543
80.1182
79.5292
79.0105
78.5996
78.3199
78.1626
78.0512
77.8709
77.1468
76.2117
73.6399
72.2201
71.1086
69.6663
68.633
67.2224
66.2848
64.9196
64.0789
62.7667
62.0177
60.7624
60.0933
58.8982
58.2962
57.1586
56.6155
55.5316
55.038
54.0051
53.5498
52.5675
52.1405
51.2065
50.8037
49.9112
49.5296
48.6738
48.3106
47.4873
47.1403
46.3453
46.0122
45.242
44.9208
44.1719
43.8611
43.1307
42.8287
42.1141
41.8192
41.1176
40.8283
40.137
39.8516
39.1676
38.8841
38.204
37.9204
37.2405
36.9544
36.2694
35.9794
35.2873
34.9918
34.2891
33.9861
33.2685
32.9555
32.2181
31.8922
31.1296
30.7874
29.9934
29.6289
28.7941
28.3984
27.5337
27.0131
26.1222
25.2079
23.1307
21.0242
17.4673
17.3852
18.0931
20.2291
21.3276
6.04813
2.24497
1.54961
1.33152
1.5077
1.58057
1.83513
1.92655
2.00344
1.97498
1.95445
1.88713
1.86957
1.87313
1.94827
2.04223
2.14787
2.28574
2.39171
2.53783
2.63085
2.76875
2.84407
2.96791
3.02551
3.13072
3.17675
3.25862
3.29153
3.34552
3.36189
3.37965
3.36712
3.35198
3.26202
3.20261
3.00162
2.87755
2.51327
2.33441
1.85378
1.66253
1.11842
0.906395
1.27165
1.65922
2.49924
1.7153
2.67669
3.64194
3.9019
2.93695
3.73338
4.7443
5.48369
4.21696
3.24477
2.08042
2.48559
3.70886
4.69093
5.07682
4.18484
2.90279
3.23872
4.45578
5.35424
6.27868
7.09193
6.18476
4.7439
3.88159
4.32713
5.28935
5.21018
4.37423
4.60133
5.55813
6.56864
6.63194
5.4286
4.58994
4.67936
5.64049
5.46042
4.63604
4.65905
5.59195
6.56201
6.43118
5.34183
4.56698
4.56804
5.44606
5.17589
4.4463
4.4308
5.25553
6.22824
5.99895
4.99143
4.2921
4.26672
5.05406
4.80558
4.11862
4.0886
4.8594
5.78974
5.62245
4.62893
3.9352
3.90166
4.68489
4.45396
3.73995
3.70096
4.51187
5.47814
5.27095
4.26778
3.52658
3.48486
4.32181
4.06672
3.30565
3.27911
4.13446
5.22562
5.35393
3.92406
3.13391
3.16007
4.1142
3.94036
3.12695
3.2417
4.51331
6.34727
13.1541
4.43582
3.27423
3.57097
6.35754
6.47487
3.71516
3.65267
6.80122
17.2757
19.0481
6.76358
3.61871
3.27759
6.93335
11.7627
3.59567
3.46489
14.2331
25.9779
31.7825
22.1108
8.35269
16.2919
22.1012
26.3677
20.4729
21.7873
25.6151
37.0442
41.523
30.2172
21.358
21.2772
29.8194
35.1511
24.7464
26.2873
34.6024
45.2153
48.6797
39.1357
30.128
31.4093
38.5324
41.9706
33.7117
34.2682
41.1309
51.1442
52.9916
43.8292
35.6894
35.8931
42.819
45.2071
37.1453
37.2466
44.1931
54.4235
55.687
46.4216
38.4385
38.5146
45.4488
47.5755
39.661
39.7224
46.639
56.8062
57.8534
48.6856
40.8329
40.8829
47.779
49.7564
41.9635
42.005
48.8784
58.8399
59.7828
50.7947
43.0599
43.0945
49.9433
51.8036
44.1278
44.157
50.9778
60.6869
61.557
52.7857
45.1722
45.1979
51.9856
53.7444
46.1986
46.2231
52.9716
62.3956
63.2056
54.6856
47.2124
47.2363
53.9398
55.6097
48.2168
48.2426
54.8933
63.9899
64.7489
56.5215
49.2179
49.2482
55.8369
57.4252
50.222
50.2596
56.7766
65.481
66.1903
58.3275
51.2349
51.2823
57.7199
59.2364
52.2603
52.3184
58.6697
66.9017
67.6079
60.1506
53.3001
53.3703
59.6266
61.0715
54.3567
54.4402
60.5914
68.3099
69.0055
61.9991
55.4322
55.5305
61.5647
62.9345
56.5293
56.6441
62.5477
69.6936
70.3729
63.8787
57.6512
57.7847
63.5424
64.8342
58.8016
58.9562
64.5521
71.042
71.6983
65.8053
59.984
60.1617
65.5799
66.7968
61.1982
61.3979
66.6162
72.3381
72.9682
67.7927
62.4441
62.6683
67.6598
68.7928
63.7247
63.9762
68.7104
73.5845
74.1842
69.7961
65.042
65.3235
69.766
70.7988
66.3977
66.713
70.83
74.7667
75.3272
71.7962
67.7929
68.1466
71.8979
72.7814
69.2085
69.6181
72.9532
75.8599
76.3598
73.7472
70.6403
71.1136
73.984
74.6848
72.0851
72.611
74.9765
76.8214
77.2378
75.5786
73.5163
74.0845
75.9087
76.4109
74.9105
75.4953
76.754
77.596
77.9615
77.8224
77.6479
77.4456
77.2178
76.9661
76.6926
76.4001
76.0902
75.7591
75.4121
75.0535
74.6842
74.305
73.9169
73.5207
73.1175
72.7087
72.2961
71.8802
71.465
71.0482
70.6263
70.1954
69.7512
69.2894
68.8053
68.2932
67.7445
67.1477
66.4794
65.7108
64.7739
63.5919
62.0135
59.8851
57.1705
53.6451
49.8208
44.2563
38.3094
30.1578
23.2437
20.7358
17.1624
9.72073
7.31679
6.95623
6.86935
6.88526
7.04342
7.17655
7.35357
7.53095
7.6189
7.64494
7.50465
8.22796
7.83079
6.93585
5.73338
4.84292
3.57932
3.86926
5.09545
6.00681
6.47656
5.47511
4.17464
4.43247
5.71494
6.68737
7.80842
8.74876
9.7761
8.76945
7.25552
6.09991
4.69516
4.89594
6.25763
7.28909
7.82895
6.50902
5.06696
5.12837
6.53703
7.67936
9.47067
10.923
11.1698
10.0428
9.09444
9.17276
8.35543
8.32851
8.23024
8.89875
9.08771
9.75921
10.0296
11.0544
10.4898
9.95139
9.44956
9.21372
8.68853
8.0566
7.91004
8.54655
8.55354
7.81796
7.8238
8.8298
10.9884
9.63499
9.15319
9.67011
9.67406
10.923
11.1847
11.7889
12.5661
12.5154
11.7164
9.77273
7.92529
6.58424
5.13873
4.7815
6.10551
7.38291
7.41086
5.7666
4.3652
3.2519
4.1118
5.72496
9.43522
11.856
9.53528
7.99242
6.32095
4.7164
3.37901
2.72388
1.78615
0.742163
0.89773
0.621505
0.366864
0.483149
0.874134
1.20636
0.668926
0.835404
1.52961
2.15327
2.99827
2.46484
1.84711
0.914761
1.05525
1.26775
2.67461
3.27219
3.96474
5.27077
6.93948
8.37324
10.8036
12.1863
13.4749
14.563
15.1511
15.2456
18.2494
17.4216
16.2238
15.3232
14.2951
13.2433
11.2822
10.0162
7.51959
6.06227
6.19612
4.78052
4.88874
3.70632
3.77277
3.18424
2.82782
2.76511
2.75895
2.6498
2.74976
3.06793
3.79627
3.94021
4.79312
4.92177
7.31366
8.78748
8.60458
5.974
5.83884
6.9464
10.1249
12.7982
14.0579
11.4603
9.90479
7.07497
8.11617
8.27191
11.2994
12.9424
15.5726
16.9659
18.5596
20.332
19.8359
20.3802
15.444
15.9631
11.1073
12.9529
10.7772
13.4272
17.7647
13.9033
10.1154
7.9695
9.00873
13.6881
18.643
12.6998
18.2271
24.4997
32.9607
25.1307
18.5783
24.5101
32.9371
42.2298
51.3191
41.1687
31.593
23.1185
16.7846
22.5076
18.0588
25.4448
24.8713
22.8118
22.3445
24.364
22.1401
20.4359
18.4247
18.2926
16.3265
16.3466
14.5216
14.5379
12.8142
9.58821
9.41394
10.8602
11.0901
12.5151
12.7901
14.4152
14.7693
16.5916
16.9533
20.602
22.7427
23.0609
19.4676
19.0194
21.8006
25.2327
26.5886
29.2117
28.1494
25.9677
22.506
25.0226
26.2601
29.3687
31.5666
31.646
33.6212
27.3807
27.9783
30.7527
35.0488
33.9561
39.4799
38.5292
36.1061
33.6737
31.4305
29.113
35.0171
38.9373
35.7715
30.92
39.1104
41.434
44.011
41.0667
41.2226
41.5633
46.7657
45.9313
47.12
42.9353
51.4979
49.7644
55.8025
53.0268
45.1137
40.5619
36.6173
33.0558
30.3693
38.5922
49.4178
61.3079
70.6665
60.6072
46.9055
34.5923
39.476
45.9096
40.7837
44.773
52.1896
62.4619
62.14
52.519
53.7644
59.9294
60.2745
56.3083
53.3733
57.585
64.7103
56.5648
60.0532
66.8443
68.9919
73.0091
66.7581
79.1486
72.4367
73.3289
68.5772
67.7564
75.0176
72.6081
76.8157
79.5926
83.0367
88.3602
90.03
86.6187
82.1898
83.7333
86.2033
78.2707
73.8559
65.9481
64.2674
70.1109
81.3349
92.2308
102.542
92.8346
90.0739
87.2308
89.2581
99.8912
99.3612
93.7057
92.7048
98.8941
99.2942
95.7708
88.3952
66.1624
80.9412
55.1589
74.9087
50.9513
64.3709
55.0078
33.2263
51.5261
32.288
48.3213
39.12
21.7072
39.0801
20.5448
38.3529
20.1685
37.4909
27.4565
15.2448
27.0825
14.4755
27.4681
14.0106
26.9334
13.6072
27.5688
13.7513
29.483
17.8141
10.8387
20.3515
11.1766
20.8756
11.0601
21.1604
11.0992
20.5326
10.9131
20.5555
10.9434
20.1739
10.8555
19.9972
10.8424
19.7475
10.7859
19.5718
10.7863
19.2386
10.7586
19.0497
10.7765
18.5893
10.737
18.0699
10.5964
16.742
11.4643
13.6891
30.3296
52.6649
34.1886
52.762
37.0575
54.7406
37.7041
54.0799
39.1588
55.5236
39.3003
54.7419
40.4175
55.9288
40.4734
55.1056
41.3333
56.002
41.1709
55.0817
41.9022
55.7029
41.5734
54.5216
41.8442
54.6236
40.4992
52.5922
39.5725
50.0865
62.5823
82.2562
72.6748
82.1565
64.6612
64.4645
73.2395
82.0144
64.9164
73.3921
81.6013
65.7554
65.0273
73.2723
81.5952
64.8803
73.2137
81.0822
65.5134
64.3522
72.7081
80.9203
63.3623
72.1528
79.5094
63.6189
61.6531
47.6736
23.1666
12.0639
21.4785
12.1329
20.5167
12.0816
20.3525
12.1408
19.4995
12.0125
19.384
12.0015
17.4607
12.4418
14.7761
30.9279
51.6817
32.6189
51.6028
37.6712
55.0945
37.4463
54.4362
40.9538
57.5432
40.4675
57.5487
45.1079
61.1392
78.9273
68.1571
77.5044
66.0052
76.3754
63.9321
73.1364
45.9348
23.1645
13.0604
22.0707
13.3804
21.3368
13.3958
20.4754
13.2711
18.8946
13.9986
15.861
24.4
14.4622
22.5041
14.5744
21.2627
14.509
20.6423
14.4572
18.9578
14.9582
16.3746
30.8633
55.2653
32.7547
55.7835
38.2057
59.572
38.8937
59.7838
44.9152
64.6005
48.2454
31.6129
55.6008
35.6318
56.8682
39.6973
60.0927
41.4503
60.1526
45.0552
60.4077
70.1111
89.1499
79.8153
86.2609
70.9635
68.6879
77.6406
85.4196
68.7174
65.6174
75.3684
82.6465
71.2237
81.4851
68.6055
77.4626
48.667
24.3745
15.3647
23.6285
15.8488
22.6455
15.9514
21.3151
16.9492
18.2783
32.0527
52.8349
27.0012
17.3829
24.3741
17.4807
23.6777
17.7264
22.5841
17.7422
21.8351
18.5708
19.3214
27.5799
19.0152
26.1341
19.3973
25.3845
19.8389
24.3873
20.0422
23.5366
20.9112
21.5004
32.2957
52.2699
28.2342
21.2727
26.4198
21.6518
26.2263
22.2551
25.7572
22.7042
25.6535
23.2511
23.6736
31.0491
24.1809
30.3176
25.073
30.1796
26.0329
30.1955
26.8306
30.3662
27.5837
30.6314
28.137
30.9106
28.4817
31.058
28.6943
31.1808
28.8831
31.1276
29.0472
30.8674
29.8209
29.9632
38.4335
58.8072
35.444
31.804
35.9977
33.4725
39.1744
33.0955
33.2638
34.6364
34.1072
35.8667
34.9891
36.9667
35.912
38.1207
36.9958
39.404
38.2769
41.0106
39.7058
43.5229
40.0826
40.7224
41.8169
41.8009
44.2626
43.4574
49.1983
45.0345
45.5727
48.8129
46.4767
47.0876
51.9382
49.7492
48.8622
50.0196
52.5811
52.2343
51.9347
52.209
51.2004
51.0903
50.0145
49.4212
47.739
46.9346
45.298
44.7433
43.5488
43.2138
42.6003
42.6318
42.5556
43.1672
43.5945
44.3878
45.6571
46.5529
48.7067
49.566
52.2604
53.0578
56.2881
56.981
60.7278
61.2408
65.4332
65.7435
70.3208
70.4094
75.2512
75.1264
80.1302
79.7869
84.8758
84.2922
89.3683
88.5545
93.5661
92.5063
97.3833
96.1239
100.852
99.363
103.89
102.263
106.632
104.819
108.971
107.05
111.021
108.943
112.692
110.538
114.106
111.826
115.18
112.855
116.035
113.616
116.598
114.162
116.981
114.481
117.186
114.657
117.26
114.651
117.136
114.511
116.893
114.214
116.487
113.816
116.001
113.277
115.371
112.701
114.705
112.025
113.95
111.297
113.164
110.496
112.315
109.711
111.478
108.875
110.6
108.07
109.75
107.229
108.872
106.428
108.032
105.603
107.176
104.825
106.364
104.032
105.545
103.292
104.776
102.543
104.005
101.848
103.284
101.146
102.563
100.497
101.893
99.8438
101.223
99.2427
100.604
98.6381
99.9848
98.0843
99.4151
97.5267
98.8453
97.0174
98.3224
96.5039
97.7985
96.03
97.3169
95.56
96.8376
95.1191
96.3944
94.6868
95.9549
94.2832
95.5508
93.8878
95.1493
93.5189
94.7804
93.1557
94.4117
92.8173
94.0751
92.4854
93.7392
92.1771
93.4323
91.8716
93.1221
91.5864
92.8395
91.3046
92.5547
91.0432
92.2959
90.783
92.0325
90.5414
91.7946
90.3011
91.5517
90.0778
91.3311
89.8528
91.1037
89.6448
90.9007
89.4375
90.6911
89.2441
90.4994
89.0446
90.2973
88.86
90.1194
88.6782
89.9377
88.5114
89.772
88.334
89.5893
88.1651
89.4264
87.9983
89.263
87.8524
89.1239
87.6967
88.9612
87.5583
88.8343
87.3909
88.6647
87.2515
88.5179
87.0347
88.2391
86.4699
87.6148
85.6631
86.9177
84.0907
80.9281
60.4357
60.5406
60.2471
60.3971
59.989
59.1872
60.745
59.5469
57.9874
61.0256
59.609
57.9733
61.0901
59.6605
57.6181
61.2819
59.7978
58.1776
61.279
59.8648
57.826
61.4928
60.0115
58.3558
61.5203
60.0988
58.0618
61.7316
60.2533
58.5884
61.7655
60.3471
58.3072
61.9871
60.5064
58.8416
62.0209
60.5977
58.5565
62.2393
60.7549
59.098
62.271
60.8467
58.8053
62.494
61.0065
59.3527
62.5258
61.0966
59.0522
62.7486
61.254
59.6043
62.7765
61.342
59.2941
63.0012
61.4997
59.851
63.0275
61.5853
59.5301
63.2525
61.7407
60.0908
63.2752
61.8236
59.7587
63.5013
61.9777
60.3227
63.5212
62.057
59.9783
63.7471
62.2083
60.5447
63.7635
62.2844
60.1876
63.9903
62.4334
60.7555
64.0024
62.5035
60.3839
64.2263
62.647
60.9511
64.2332
62.7123
60.5652
64.4571
62.8526
61.1311
64.46
62.9113
60.7291
64.6801
63.0439
61.2915
64.6756
63.0948
60.8713
64.8931
63.2214
61.4286
64.883
63.2637
60.9911
65.0948
63.3805
61.5402
65.0759
63.4124
61.0837
65.2817
63.52
61.6232
65.2548
63.5404
61.1457
65.4521
63.6347
61.6723
65.4133
63.6404
61.1728
65.5999
63.7208
61.6842
65.5501
63.7119
61.161
65.7255
63.7761
61.6542
65.6617
63.7487
61.1061
65.8212
63.7928
61.5776
65.74
63.7438
61.0016
65.8805
63.7642
61.4474
65.7784
63.6897
60.8425
65.8955
63.6834
61.2603
65.7704
63.5815
60.6243
65.8613
63.5445
61.0126
65.707
63.409
60.3439
65.7638
63.3356
60.7013
65.5741
63.162
59.9979
65.5918
63.0478
60.3252
65.3602
62.8316
59.5865
65.3326
62.673
59.8887
65.0528
62.4111
59.1139
64.9769
62.2025
59.3989
64.6369
61.896
58.5852
64.5219
61.629
58.8607
64.1124
61.2893
58.0119
63.9533
60.9907
58.2963
63.4862
60.6078
57.4165
63.2882
60.2787