/*--------------------------------*- C++ -*----------------------------------*\
| =========                 |                                                 |
| \\      /  F ield         | OpenFOAM: The Open Source CFD Toolbox           |
|  \\    /   O peration     | Version:  v2006                                 |
|   \\  /    A nd           | Website:  www.openfoam.com                      |
|    \\/     M anipulation  |                                                 |
\*---------------------------------------------------------------------------*/
FoamFile
{
    version     2.0;
    format      ascii;
    class       volScalarField;
    location    "0.074";
    object      turbulenceProperties:L;
}
// * * * * * * * * * * * * * * * * * * * * * * * * * * * * * * * * * * * * * //

dimensions      [0 1 0 0 0 0 0];


internalField   nonuniform List<scalar> 
9148
(
1999.92
1999.95
1999.99
1999.98
1999.95
1999.65
1998.66
1997.15
1995.49
1994.08
1992.9
1991.91
1991.01
1990.15
1989.3
1988.47
1987.66
1986.88
1986.13
1985.4
1984.7
1984.02
1983.37
1982.73
1982.12
1981.54
1980.98
1980.45
1979.95
1979.49
1979.07
1978.68
1978.34
1978.05
1977.8
1977.6
1977.45
1977.36
1977.32
1977.33
1977.4
1977.54
1977.73
1977.98
1978.3
1978.68
1979.09
1979.17
1976.44
1956.01
1893.78
1726.06
1365.8
850.828
412.335
171.109
66.8418
25.957
10.6078
4.96245
3.20236
2.09506
1.57794
1.30128
1.59665
0.618629
0.255686
0.0968713
0.025481
0.00317747
0.000591101
4.25352e-05
4.158e-05
0.000295185
0.00125479
0.000823969
0.000227397
4.07466e-05
4.00171e-05
0.000201564
0.000665738
0.000578267
0.000190322
3.99555e-05
3.95959e-05
0.000179378
0.000525384
0.000482699
0.000174015
3.94629e-05
3.92318e-05
0.000168475
0.000461565
0.000438944
0.000164979
3.90738e-05
3.90054e-05
0.000163946
0.000428978
0.000412483
0.000160782
3.89451e-05
3.88953e-05
0.000160438
0.000407702
0.00039573
0.000157777
3.88374e-05
3.87964e-05
0.000157647
0.000392438
0.000382798
0.000155316
3.87451e-05
3.87088e-05
0.000155218
0.000380333
0.000372083
0.000153155
3.86623e-05
3.86291e-05
0.000153026
0.000370176
0.000362878
0.000151183
3.85857e-05
3.85545e-05
0.000151041
0.000361372
0.000354771
0.000149358
3.85132e-05
3.84832e-05
0.00014921
0.000353549
0.000347499
0.00014765
3.84431e-05
3.84136e-05
0.000147503
0.000346458
0.000340877
0.000146038
3.83742e-05
3.83447e-05
0.000145902
0.000339974
0.000334771
0.000144514
3.83053e-05
3.82755e-05
0.000144393
0.000333976
0.000329087
0.000143066
3.82356e-05
3.82052e-05
0.000142963
0.000328379
0.000323752
0.000141684
3.81643e-05
3.81329e-05
0.000141599
0.000323112
0.000318705
0.000140358
3.80907e-05
3.8058e-05
0.000140292
0.00031812
0.0003139
0.000139078
3.80141e-05
3.79797e-05
0.00013903
0.000313356
0.000309293
0.000137836
3.79335e-05
3.78972e-05
0.000137807
0.00030878
0.000304848
0.000136624
3.78483e-05
3.78096e-05
0.000136611
0.000304355
0.00030053
0.000135434
3.77575e-05
3.77159e-05
0.000135435
0.000300045
0.000296296
0.000134254
3.766e-05
3.7615e-05
0.000134266
0.000295814
0.000292119
0.000133074
3.75545e-05
3.75054e-05
0.000133092
0.000291624
0.00028796
0.000131882
3.74394e-05
3.73854e-05
0.000131902
0.000287438
0.000283786
0.000130666
3.73126e-05
3.72527e-05
0.000130685
0.000283225
0.000279557
0.000129417
3.71718e-05
3.71046e-05
0.000129429
0.000278951
0.000275242
0.000128124
3.7014e-05
3.6938e-05
0.000128126
0.000274575
0.000270796
0.00012677
3.68353e-05
3.67485e-05
0.000126751
0.000270048
0.000266152
0.000125327
3.6631e-05
3.65307e-05
0.000125281
0.000265303
0.000261237
0.000123769
3.63944e-05
3.62769e-05
0.000123672
0.000260251
0.000255925
0.000122038
3.61166e-05
3.59763e-05
0.000121857
0.000254753
0.000250045
0.000120057
3.57839e-05
3.56118e-05
0.000119744
0.000248617
0.000243426
0.000117714
3.53758e-05
3.5156e-05
0.000117188
0.00024157
0.000235675
0.000114882
3.48598e-05
3.45617e-05
0.000113839
0.000233117
0.00022615
0.000111229
3.4173e-05
3.37412e-05
0.000109334
0.000222301
0.000213852
0.000106143
3.31909e-05
3.25025e-05
0.000102899
0.000207507
0.000196878
9.85741e-05
3.16065e-05
3.03558e-05
9.23703e-05
0.000185588
0.00017046
8.56263e-05
2.87996e-05
2.51774e-05
7.03943e-05
0.000149056
0.000111952
4.49717e-05
1.77353e-05
2.1968e-05
4.265e-05
8.2851e-05
8.67426e-05
7.64202e-05
2.54483e-05
2.65625e-05
0.000105587
0.000127693
0.000171552
0.000132596
2.68158e-05
2.508e-05
0.000158734
0.000215012
0.000256287
0.000149122
1.80497e-05
1.19814e-05
8.02932e-05
0.00016926
0.000128961
5.07438e-05
9.33067e-06
8.28268e-06
4.14337e-05
0.000110819
0.00010183
3.44567e-05
7.99179e-06
1.1336e-05
3.89336e-05
0.000114577
0.000128836
4.345e-05
1.37913e-05
1.57465e-05
5.62689e-05
0.00016641
0.000183595
6.27428e-05
1.64877e-05
1.67258e-05
7.23345e-05
0.0002005
0.000200126
7.30664e-05
1.62177e-05
1.54291e-05
7.14284e-05
0.000189021
0.000166058
6.38917e-05
1.43376e-05
1.37523e-05
5.91078e-05
0.000153574
0.00014029
5.36564e-05
1.35066e-05
1.39838e-05
5.06728e-05
0.000137549
0.000138728
5.06891e-05
1.49284e-05
1.6021e-05
5.17615e-05
0.000142444
0.0001497
5.40793e-05
1.71831e-05
1.8292e-05
5.68647e-05
0.000157868
0.00017003
6.04659e-05
1.93154e-05
2.0214e-05
6.38907e-05
0.000180166
0.00019604
6.81008e-05
2.09984e-05
2.16551e-05
7.19407e-05
0.000207168
0.000225465
7.68934e-05
2.2207e-05
2.26394e-05
8.10563e-05
0.000236454
0.000256076
8.66076e-05
2.29821e-05
2.32219e-05
9.10868e-05
0.000266354
0.000285614
9.67998e-05
2.33523e-05
2.33996e-05
0.000101422
0.0002943
0.000309979
0.000107011
2.33916e-05
2.32399e-05
0.000109411
0.000315726
0.000326915
0.000113213
2.3012e-05
2.26469e-05
0.000114376
0.000329769
0.000336256
0.000117625
2.21845e-05
2.15551e-05
0.000117166
0.000333156
0.000332951
0.000119308
2.08066e-05
1.98344e-05
0.000116606
0.000320815
0.000312959
0.000117495
1.8696e-05
1.73236e-05
0.000112851
0.000290059
0.000275907
0.000112882
1.58855e-05
1.41562e-05
0.000108145
0.000245552
0.000227706
0.000109417
1.24555e-05
9.60502e-06
0.00010153
0.000189098
0.00017338
0.00010388
7.66233e-06
1.29773e-05
0.000141002
0.000149576
0.000154673
0.000161767
0.000161978
0.000166607
0.000165885
0.00016747
0.000167414
0.000168058
0.00016824
0.000168528
0.00016862
0.000168703
0.000168759
0.000168636
0.000168549
0.000167796
0.000167662
0.000165883
0.000166657
0.000158544
8.82023e-05
2.30336e-05
3.60909e-05
4.84757e-05
4.51679e-05
3.26393e-05
3.19701e-06
6.86247e-07
4.33803e-06
1.9321e-05
2.99256e-05
3.89827e-06
4.37904e-07
7.65957e-07
4.50313e-06
3.57738e-05
3.81401e-05
4.55918e-06
7.96627e-07
8.1199e-07
4.67616e-06
3.91471e-05
3.16807e-05
3.98972e-06
6.93454e-07
6.34883e-07
4.24801e-06
3.37905e-05
3.65335e-05
4.95187e-06
6.70828e-07
9.84591e-07
1.10785e-05
5.87086e-05
5.6556e-05
1.42846e-05
1.33019e-06
1.35265e-06
1.33043e-05
4.93047e-05
3.65438e-05
1.02223e-05
1.25755e-06
9.82515e-07
6.32268e-06
2.0071e-05
1.87511e-05
5.1979e-06
8.0753e-07
7.21027e-07
6.81219e-06
2.61266e-05
2.96496e-05
7.25109e-06
6.98662e-07
5.43937e-07
8.23188e-06
3.50153e-05
3.82546e-05
9.27456e-06
6.73767e-07
1.15696e-06
1.19815e-05
4.55927e-05
4.71577e-05
1.28648e-05
1.58928e-06
2.09001e-06
1.56004e-05
5.48094e-05
5.5779e-05
1.60264e-05
2.47149e-06
2.90402e-06
1.85013e-05
6.32559e-05
6.35932e-05
1.86734e-05
3.23705e-06
3.62414e-06
2.10803e-05
7.08163e-05
7.06186e-05
2.10484e-05
3.92192e-06
4.27655e-06
2.34914e-05
7.77964e-05
7.71231e-05
2.32073e-05
4.55932e-06
4.91385e-06
2.58782e-05
8.48774e-05
8.43641e-05
2.55517e-05
5.20637e-06
5.59323e-06
2.87681e-05
9.3372e-05
9.3469e-05
2.88641e-05
5.92555e-06
6.2953e-06
3.39049e-05
0.000106018
0.000106342
3.4312e-05
6.48843e-06
6.87012e-06
4.05524e-05
0.00012168
0.00012194
4.10535e-05
7.18294e-06
7.74286e-06
4.79337e-05
0.00013955
0.000141659
5.00861e-05
8.29863e-06
9.19165e-06
5.9488e-05
0.000161601
0.00016497
6.27484e-05
1.00467e-05
1.14528e-05
7.36556e-05
0.000184746
0.000189767
7.59697e-05
1.33769e-05
9.89985e-06
8.57346e-05
0.000194707
8.13839e-05
2.67448e-05
4.65636e-06
8.33635e-06
7.2894e-05
0.00018535
0.000204124
8.14075e-05
1.07389e-05
1.3721e-05
9.942e-05
0.000241017
0.000262844
0.000111224
1.62114e-05
1.12613e-05
9.78443e-05
0.000233628
0.000162022
6.22505e-05
5.97582e-06
1.2106e-05
9.63863e-05
0.000228641
0.000344113
0.000143512
1.74627e-05
1.1898e-05
5.44582e-05
0.000134563
0.000185411
7.87027e-05
9.94898e-06
1.8425e-05
0.000143137
0.000331925
0.000253692
0.00016225
1.72233e-05
8.655e-06
3.21415e-05
8.81488e-05
0.000176894
9.14564e-05
1.19943e-05
1.61043e-05
9.08794e-05
0.000192444
0.000349702
0.000119236
1.70471e-05
1.33366e-05
2.31856e-05
5.07974e-05
6.31293e-05
3.05568e-05
1.11053e-05
1.92083e-05
6.03758e-05
0.000107161
8.21671e-05
4.52004e-05
1.94643e-05
1.10266e-05
1.99021e-05
3.56944e-05
5.84323e-05
4.29937e-05
1.19281e-05
1.20937e-05
2.25121e-05
3.81968e-05
6.1011e-05
4.62024e-05
1.31611e-05
1.35793e-05
2.46546e-05
4.10657e-05
6.53883e-05
4.4589e-05
1.53937e-05
1.71039e-05
3.91063e-05
6.07693e-05
3.29514e-05
1.80175e-05
9.94384e-06
1.12269e-05
4.3302e-05
5.31684e-05
3.65485e-05
2.21592e-05
1.2082e-05
1.41734e-05
4.20613e-05
5.97473e-05
5.58871e-05
3.71478e-05
1.60464e-05
9.39234e-06
1.65981e-05
3.07839e-05
4.91277e-05
4.1164e-05
1.03088e-05
1.10994e-05
2.01557e-05
3.33062e-05
5.32723e-05
4.35387e-05
1.19636e-05
1.27444e-05
2.15737e-05
3.59938e-05
5.72708e-05
3.92342e-05
1.40794e-05
1.58665e-05
3.35536e-05
5.26587e-05
2.8013e-05
1.51818e-05
9.08577e-06
9.78218e-06
3.7887e-05
4.50733e-05
3.00901e-05
1.84675e-05
1.06122e-05
1.09115e-05
4.01567e-05
4.67719e-05
3.1203e-05
1.9398e-05
1.16066e-05
1.16692e-05
3.90756e-05
4.86023e-05
3.20511e-05
1.95551e-05
1.22093e-05
1.23465e-05
3.86602e-05
4.98985e-05
3.32238e-05
2.02926e-05
1.30914e-05
1.41052e-05
3.52758e-05
5.35416e-05
4.87882e-05
3.03634e-05
1.59717e-05
9.15944e-06
1.5058e-05
2.60927e-05
4.04587e-05
3.43835e-05
9.62225e-06
1.05519e-05
1.76018e-05
2.73456e-05
4.19637e-05
3.60741e-05
1.06633e-05
1.13492e-05
1.81991e-05
2.80596e-05
4.32759e-05
3.43011e-05
1.11726e-05
1.17478e-05
1.83296e-05
2.87278e-05
4.38414e-05
3.46788e-05
1.12738e-05
1.18908e-05
1.8324e-05
2.88397e-05
4.35735e-05
3.4554e-05
1.14849e-05
1.1943e-05
1.84896e-05
2.87934e-05
4.34592e-05
3.40299e-05
1.14971e-05
1.2193e-05
1.85433e-05
2.88621e-05
4.31593e-05
3.44228e-05
1.17219e-05
1.22003e-05
1.84966e-05
2.86876e-05
4.264e-05
3.37412e-05
1.15701e-05
1.22033e-05
1.84748e-05
2.85319e-05
4.21384e-05
3.37273e-05
1.17125e-05
1.21973e-05
1.83042e-05
2.81246e-05
4.14886e-05
3.31033e-05
1.15428e-05
1.21188e-05
1.81911e-05
2.77272e-05
4.07423e-05
3.28111e-05
1.15134e-05
1.20059e-05
1.78827e-05
2.72271e-05
3.99536e-05
3.20627e-05
1.13292e-05
1.19067e-05
1.76799e-05
2.66973e-05
3.88011e-05
3.1689e-05
1.12006e-05
1.16206e-05
1.70139e-05
2.58171e-05
3.64452e-05
3.11245e-05
1.04929e-05
1.06301e-05
1.55601e-05
2.3619e-05
3.11044e-05
1.90391e-05
9.73491e-06
1.65086e-05
3.02123e-05
4.76267e-05
3.19874e-05
2.13103e-05
1.52892e-05
1.33262e-05
3.81686e-05
4.45317e-05
3.04564e-05
2.05682e-05
1.35233e-05
1.26902e-05
3.66528e-05
4.36527e-05
2.94853e-05
1.96231e-05
1.30506e-05
1.21662e-05
3.50418e-05
4.21114e-05
2.8382e-05
1.89336e-05
1.26521e-05
1.20615e-05
3.30241e-05
4.05379e-05
2.74257e-05
1.84222e-05
1.25111e-05
1.15319e-05
3.26212e-05
3.88655e-05
2.58882e-05
1.72328e-05
1.18111e-05
1.0665e-05
3.09231e-05
3.60054e-05
2.34913e-05
1.56926e-05
1.08421e-05
9.88849e-06
1.88496e-05
3.04322e-05
4.57725e-05
2.92549e-05
1.66518e-05
1.55284e-05
2.12588e-05
3.11084e-05
4.31552e-05
3.71864e-05
1.36775e-05
1.37637e-05
2.05049e-05
2.96282e-05
4.21258e-05
3.5914e-05
1.28593e-05
1.31746e-05
1.94556e-05
2.85115e-05
4.02822e-05
3.44438e-05
1.22406e-05
1.25611e-05
1.82381e-05
2.70548e-05
3.73607e-05
3.23044e-05
1.13993e-05
1.14884e-05
1.65187e-05
2.44424e-05
3.15259e-05
1.98267e-05
1.03869e-05
1.72586e-05
3.05025e-05
4.61344e-05
3.17517e-05
2.19559e-05
1.6002e-05
1.39403e-05
3.74893e-05
4.28582e-05
2.97249e-05
2.06728e-05
1.40237e-05
1.30139e-05
3.51903e-05
4.12818e-05
2.83455e-05
1.95127e-05
1.32947e-05
1.23888e-05
3.34473e-05
3.92151e-05
2.67275e-05
1.82596e-05
1.26577e-05
1.13573e-05
3.18193e-05
3.60864e-05
2.39091e-05
1.63476e-05
1.13104e-05
1.03896e-05
1.96105e-05
3.03572e-05
4.42643e-05
2.93353e-05
1.71329e-05
1.59947e-05
2.17519e-05
3.07348e-05
4.17172e-05
3.63792e-05
1.41859e-05
1.42731e-05
2.07301e-05
2.90684e-05
4.05963e-05
3.50278e-05
1.3272e-05
1.34315e-05
1.93115e-05
2.77532e-05
3.76365e-05
3.32841e-05
1.21444e-05
1.21303e-05
1.73984e-05
2.51075e-05
3.21333e-05
2.05668e-05
1.10089e-05
1.79937e-05
3.09863e-05
4.61455e-05
3.2215e-05
2.28234e-05
1.67907e-05
1.46967e-05
3.78586e-05
4.27933e-05
2.99288e-05
2.13507e-05
1.4694e-05
1.37147e-05
3.5638e-05
4.10526e-05
2.85876e-05
2.01499e-05
1.39866e-05
1.31141e-05
3.34917e-05
3.91552e-05
2.70657e-05
1.89714e-05
1.3359e-05
1.21705e-05
3.21856e-05
3.62311e-05
2.45355e-05
1.71955e-05
1.21518e-05
1.11218e-05
2.02713e-05
3.06986e-05
4.42837e-05
2.98519e-05
1.81506e-05
1.69903e-05
2.27423e-05
3.12333e-05
4.16965e-05
3.67905e-05
1.50407e-05
1.51046e-05
2.15959e-05
2.95196e-05
4.08315e-05
3.5279e-05
1.41599e-05
1.44216e-05
2.05317e-05
2.86336e-05
3.92907e-05
3.3512e-05
1.3583e-05
1.37932e-05
1.93906e-05
2.73298e-05
3.65615e-05
3.21139e-05
1.26854e-05
1.26144e-05
1.76756e-05
2.49291e-05
3.13388e-05
2.08196e-05
1.1483e-05
1.8333e-05
3.02361e-05
4.38867e-05
3.12875e-05
2.29691e-05
1.70771e-05
1.52493e-05
3.6378e-05
4.12945e-05
2.95613e-05
2.1677e-05
1.52861e-05
1.43687e-05
3.45331e-05
3.99532e-05
2.84201e-05
2.06074e-05
1.45813e-05
1.37812e-05
3.30689e-05
3.84295e-05
2.72608e-05
1.96542e-05
1.40795e-05
1.30857e-05
3.17512e-05
3.62933e-05
2.5269e-05
1.81481e-05
1.30099e-05
1.20895e-05
2.12447e-05
3.15444e-05
4.41931e-05
3.05099e-05
1.92074e-05
1.79876e-05
2.39155e-05
3.17207e-05
4.26212e-05
3.70742e-05
1.62744e-05
1.62938e-05
2.29466e-05
3.06801e-05
4.20925e-05
3.59136e-05
1.56173e-05
1.58305e-05
2.2187e-05
3.00743e-05
4.11911e-05
3.51215e-05
1.51429e-05
1.54649e-05
2.14776e-05
2.93505e-05
4.01638e-05
3.37055e-05
1.48682e-05
1.52762e-05
2.12891e-05
2.88839e-05
3.93561e-05
3.31444e-05
1.47977e-05
1.50986e-05
2.09944e-05
2.84722e-05
3.86043e-05
3.28917e-05
1.45968e-05
1.48918e-05
2.04807e-05
2.78758e-05
3.76672e-05
3.1975e-05
1.43348e-05
1.47301e-05
2.03616e-05
2.74921e-05
3.7036e-05
3.14818e-05
1.42942e-05
1.45736e-05
2.00731e-05
2.71477e-05
3.62597e-05
3.15093e-05
1.39868e-05
1.41535e-05
1.91918e-05
2.63662e-05
3.44948e-05
3.03023e-05
1.33221e-05
1.32972e-05
1.81894e-05
2.49595e-05
3.04651e-05
2.11982e-05
1.24901e-05
1.97734e-05
2.93089e-05
4.1982e-05
3.09813e-05
2.42622e-05
1.85885e-05
1.71969e-05
3.62775e-05
4.16573e-05
3.07976e-05
2.45479e-05
1.75667e-05
1.83585e-05
3.34069e-05
4.54135e-05
4.17452e-05
3.00938e-05
1.98969e-05
1.2708e-05
1.90435e-05
2.62313e-05
3.52042e-05
3.30172e-05
1.30583e-05
1.38912e-05
2.00608e-05
2.62393e-05
3.64111e-05
3.05057e-05
1.42261e-05
1.48312e-05
2.01238e-05
2.69134e-05
3.66212e-05
3.01979e-05
1.47991e-05
1.51215e-05
2.02676e-05
2.70064e-05
3.65298e-05
3.06796e-05
1.49446e-05
1.54774e-05
2.08658e-05
2.73833e-05
3.70451e-05
3.09368e-05
1.54932e-05
1.59238e-05
2.14166e-05
2.78264e-05
3.77236e-05
3.21395e-05
1.57867e-05
1.65041e-05
2.22113e-05
2.81581e-05
4.12135e-05
3.00108e-05
1.77613e-05
1.94742e-05
2.79067e-05
3.83697e-05
2.50009e-05
1.91488e-05
1.28287e-05
1.34786e-05
3.11866e-05
3.39565e-05
2.60131e-05
2.03152e-05
1.44795e-05
1.54967e-05
2.99522e-05
3.61059e-05
2.75271e-05
2.18032e-05
1.63435e-05
1.81362e-05
2.98509e-05
4.10641e-05
3.88646e-05
2.8428e-05
2.04364e-05
1.41825e-05
2.01176e-05
2.56657e-05
3.83498e-05
3.00123e-05
1.63089e-05
1.9092e-05
2.89334e-05
3.76524e-05
2.56548e-05
1.98669e-05
1.39124e-05
1.67221e-05
3.09846e-05
3.86762e-05
3.72389e-05
2.83408e-05
2.06082e-05
1.67221e-05
2.84036e-05
3.56653e-05
2.35703e-05
1.75985e-05
1.25824e-05
1.61424e-05
2.77879e-05
3.63862e-05
3.6166e-05
2.69299e-05
2.00977e-05
1.89543e-05
2.64777e-05
3.40665e-05
3.35352e-05
2.56152e-05
1.84118e-05
1.86047e-05
2.53924e-05
3.35775e-05
3.37981e-05
2.52768e-05
1.88355e-05
1.88999e-05
2.62057e-05
3.39482e-05
3.44322e-05
2.68214e-05
1.88826e-05
1.88426e-05
2.74518e-05
3.46307e-05
3.57154e-05
2.86421e-05
1.87656e-05
1.86838e-05
2.90802e-05
3.61028e-05
3.73592e-05
3.03887e-05
1.8613e-05
1.85204e-05
3.07666e-05
3.80096e-05
3.92862e-05
3.20883e-05
1.84305e-05
1.83427e-05
3.22696e-05
4.05303e-05
4.18703e-05
3.3258e-05
1.82537e-05
1.81671e-05
3.32982e-05
4.34824e-05
4.47111e-05
3.42031e-05
1.80817e-05
1.79992e-05
3.42489e-05
4.62447e-05
4.73948e-05
3.52239e-05
1.79206e-05
1.78458e-05
3.53093e-05
4.88535e-05
4.99663e-05
3.63673e-05
1.77782e-05
1.77146e-05
3.64998e-05
5.13525e-05
5.24043e-05
3.76767e-05
1.76615e-05
1.76107e-05
3.78432e-05
5.36044e-05
5.46433e-05
3.91084e-05
1.75732e-05
1.75341e-05
3.92938e-05
5.5712e-05
5.67762e-05
4.06591e-05
1.75131e-05
1.74809e-05
4.08483e-05
5.77217e-05
5.88185e-05
4.22378e-05
1.74798e-05
1.74565e-05
4.24081e-05
5.96694e-05
6.08197e-05
4.38228e-05
1.74632e-05
1.74497e-05
4.39539e-05
6.15631e-05
6.27408e-05
4.53335e-05
1.74596e-05
1.74508e-05
4.53856e-05
6.33638e-05
6.4575e-05
4.67224e-05
1.74628e-05
1.74567e-05
4.66963e-05
6.50602e-05
6.62783e-05
4.79424e-05
1.74699e-05
1.74646e-05
4.78259e-05
6.66637e-05
6.79137e-05
4.89998e-05
1.74796e-05
1.74747e-05
4.88264e-05
6.81907e-05
6.94607e-05
4.98924e-05
1.74904e-05
1.74858e-05
4.96534e-05
6.9662e-05
7.1003e-05
5.06576e-05
1.75021e-05
1.7498e-05
5.03965e-05
7.10888e-05
7.2466e-05
5.13145e-05
1.75149e-05
1.75112e-05
5.10089e-05
7.24839e-05
7.38811e-05
5.18928e-05
1.75287e-05
1.75255e-05
5.15758e-05
7.38563e-05
7.52157e-05
5.23895e-05
1.75432e-05
1.75403e-05
5.20297e-05
7.5167e-05
7.65224e-05
5.28304e-05
1.75582e-05
1.75556e-05
5.24602e-05
7.64229e-05
7.77664e-05
5.32054e-05
1.75734e-05
1.75711e-05
5.27916e-05
7.76227e-05
7.89804e-05
5.35389e-05
1.75886e-05
1.75865e-05
5.31171e-05
7.87772e-05
8.01162e-05
5.38164e-05
1.76035e-05
1.76015e-05
5.33526e-05
7.98746e-05
8.12209e-05
5.40623e-05
1.7618e-05
1.76161e-05
5.35943e-05
8.09234e-05
8.22433e-05
5.42595e-05
1.76319e-05
1.76301e-05
5.37529e-05
8.19123e-05
8.32327e-05
5.44335e-05
1.76453e-05
1.76435e-05
5.39263e-05
8.28484e-05
8.41368e-05
5.4566e-05
1.76579e-05
1.76562e-05
5.40237e-05
8.3724e-05
8.50076e-05
5.46844e-05
1.76699e-05
1.76682e-05
5.41422e-05
8.45465e-05
8.57936e-05
5.47749e-05
1.76813e-05
1.76796e-05
5.41942e-05
8.53133e-05
8.65491e-05
5.48453e-05
1.7692e-05
1.76903e-05
5.4265e-05
8.602e-05
8.72284e-05
5.48876e-05
1.77021e-05
1.77005e-05
5.42695e-05
8.66608e-05
8.78655e-05
5.49116e-05
1.77115e-05
1.77099e-05
5.4295e-05
8.72397e-05
8.84113e-05
5.49079e-05
1.77203e-05
1.77187e-05
5.42542e-05
8.77566e-05
8.8935e-05
5.48879e-05
1.77284e-05
1.77268e-05
5.4242e-05
8.82383e-05
8.93568e-05
5.48459e-05
1.77359e-05
1.77343e-05
5.4169e-05
8.86463e-05
8.97525e-05
5.47937e-05
1.77429e-05
1.77412e-05
5.41259e-05
8.89956e-05
9.00634e-05
5.47217e-05
1.77492e-05
1.77475e-05
5.40267e-05
8.93012e-05
9.03557e-05
5.4644e-05
1.7755e-05
1.77533e-05
5.39611e-05
8.95555e-05
9.05753e-05
5.45499e-05
1.77603e-05
1.77586e-05
5.38441e-05
8.97763e-05
9.0787e-05
5.44551e-05
1.77652e-05
1.77634e-05
5.37646e-05
8.99544e-05
9.09346e-05
5.43477e-05
1.77696e-05
1.77679e-05
5.36377e-05
9.01099e-05
9.10845e-05
5.42439e-05
1.77738e-05
1.77721e-05
5.35522e-05
9.02306e-05
9.1178e-05
5.41308e-05
1.77776e-05
1.77759e-05
5.3422e-05
9.03364e-05
9.12812e-05
5.4024e-05
1.77813e-05
1.77796e-05
5.33352e-05
9.04167e-05
9.13282e-05
5.39097e-05
1.77847e-05
1.77831e-05
5.32054e-05
9.04877e-05
9.14136e-05
5.3804e-05
1.7788e-05
1.77863e-05
5.31206e-05
9.05439e-05
9.14246e-05
5.36923e-05
1.77911e-05
1.77895e-05
5.29945e-05
9.05811e-05
9.14859e-05
5.35908e-05
1.77941e-05
1.77925e-05
5.2914e-05
9.06108e-05
9.14696e-05
5.34836e-05
1.7797e-05
1.77954e-05
5.27929e-05
9.06224e-05
9.15078e-05
5.33873e-05
1.77997e-05
1.77982e-05
5.27175e-05
9.06297e-05
9.14712e-05
5.32856e-05
1.78024e-05
1.78008e-05
5.26021e-05
9.06217e-05
9.14934e-05
5.31953e-05
1.7805e-05
1.78035e-05
5.25327e-05
9.06119e-05
9.14437e-05
5.31002e-05
1.78075e-05
1.7806e-05
5.24244e-05
9.05887e-05
9.1457e-05
5.30169e-05
1.781e-05
1.78085e-05
5.23611e-05
9.05643e-05
9.14011e-05
5.29287e-05
1.78124e-05
1.78109e-05
5.22589e-05
9.05291e-05
9.14092e-05
5.28536e-05
1.78147e-05
1.78132e-05
5.22015e-05
9.04968e-05
9.13455e-05
5.27714e-05
1.7817e-05
1.78155e-05
5.21054e-05
9.04552e-05
9.13471e-05
5.27024e-05
1.78192e-05
1.78177e-05
5.20539e-05
9.04179e-05
9.12773e-05
5.2626e-05
1.78213e-05
1.78199e-05
5.19638e-05
9.0372e-05
9.12746e-05
5.25627e-05
1.78234e-05
1.7822e-05
5.19178e-05
9.03315e-05
9.12006e-05
5.24918e-05
1.78255e-05
1.7824e-05
5.18333e-05
9.02826e-05
9.11945e-05
5.24339e-05
1.78275e-05
1.78261e-05
5.17923e-05
9.02396e-05
9.11176e-05
5.2368e-05
1.78295e-05
1.78281e-05
5.1713e-05
9.01891e-05
9.11098e-05
5.23152e-05
1.78314e-05
1.783e-05
5.16769e-05
9.01452e-05
9.10312e-05
5.22541e-05
1.78333e-05
1.78319e-05
5.16025e-05
9.00939e-05
9.10224e-05
5.2206e-05
1.78352e-05
1.78337e-05
5.15709e-05
9.00496e-05
9.09432e-05
5.21495e-05
1.7837e-05
1.78356e-05
5.15012e-05
8.99997e-05
9.09337e-05
5.21059e-05
1.78387e-05
1.78373e-05
5.14739e-05
8.9957e-05
9.08539e-05
5.20534e-05
1.78405e-05
1.78391e-05
5.14083e-05
8.99087e-05
9.0843e-05
5.20138e-05
1.78422e-05
1.78408e-05
5.13847e-05
8.98663e-05
9.07634e-05
5.19651e-05
1.78439e-05
1.78425e-05
5.13229e-05
8.98187e-05
9.07536e-05
5.19292e-05
1.78455e-05
1.78441e-05
5.13029e-05
8.97776e-05
9.06751e-05
5.1884e-05
1.78472e-05
1.78458e-05
5.12447e-05
8.97311e-05
9.06664e-05
5.18516e-05
1.78487e-05
1.78474e-05
5.12278e-05
8.96911e-05
9.05889e-05
5.18096e-05
1.78503e-05
1.78489e-05
5.11728e-05
8.96459e-05
9.05815e-05
5.17802e-05
1.78519e-05
1.78505e-05
5.11589e-05
8.96067e-05
9.0505e-05
5.17411e-05
1.78534e-05
1.7852e-05
5.11066e-05
8.95609e-05
9.04979e-05
5.17144e-05
1.78549e-05
1.78535e-05
5.10952e-05
8.9523e-05
9.04232e-05
5.1678e-05
1.78564e-05
1.7855e-05
5.10458e-05
8.94797e-05
9.04189e-05
5.16542e-05
1.78578e-05
1.78565e-05
5.10371e-05
8.94444e-05
9.03461e-05
5.16205e-05
1.78593e-05
1.78579e-05
5.09904e-05
8.94026e-05
9.03429e-05
5.15993e-05
1.78607e-05
1.78594e-05
5.09845e-05
8.93689e-05
9.02726e-05
5.15685e-05
1.78622e-05
1.78609e-05
5.09407e-05
8.93309e-05
9.02742e-05
5.15501e-05
1.78637e-05
1.78623e-05
5.09372e-05
8.93019e-05
9.02075e-05
5.15215e-05
1.78652e-05
1.78638e-05
5.08953e-05
8.92656e-05
9.02088e-05
5.15048e-05
1.78667e-05
1.78653e-05
5.08933e-05
8.92356e-05
9.01411e-05
5.14775e-05
1.78682e-05
1.78669e-05
5.08524e-05
8.91996e-05
9.0144e-05
5.14617e-05
1.78697e-05
1.78684e-05
5.08508e-05
8.91717e-05
9.00777e-05
5.14344e-05
1.78712e-05
1.78699e-05
5.08091e-05
8.91349e-05
9.00768e-05
5.14174e-05
1.78726e-05
1.78713e-05
5.07951e-05
8.90918e-05
9.00148e-05
5.13895e-05
1.7874e-05
1.78726e-05
5.07763e-05
8.90711e-05
8.99801e-05
5.13937e-05
1.78866e-05
1.78961e-05
5.07739e-05
8.90614e-05
8.99701e-05
5.13417e-05
1.78985e-05
1.79078e-05
5.07562e-05
8.90324e-05
9.00295e-05
5.13969e-05
1.79504e-05
1.79827e-05
5.08548e-05
8.90997e-05
9.07448e-05
5.18258e-05
1.80944e-05
1.81986e-05
5.1378e-05
8.98706e-05
9.21826e-05
5.26594e-05
1.84074e-05
1.85992e-05
5.24502e-05
9.15722e-05
9.47393e-05
5.39739e-05
1.92343e-05
2.01991e-05
5.68392e-05
0.000101173
0.000106644
5.97757e-05
2.11641e-05
0.00020487
0.000360106
0.000525237
0.000567434
0.000823502
0.00116732
0.00143845
0.0015362
0.00201809
0.00264432
0.00321752
0.0039256
0.00489392
0.00634708
0.00864556
0.0121654
0.017299
0.0243139
0.0333929
0.0445927
0.0578601
0.0730191
0.0897996
0.107789
0.126548
0.145278
0.163344
0.179365
0.192666
0.202318
0.208379
0.211246
0.21377
0.218296
0.224645
0.232594
0.241837
0.252355
0.263991
0.276989
0.291514
0.30799
0.326901
0.348969
0.375229
0.407325
0.457238
0.557707
0.767564
1.18536
2.00471
3.65016
7.11286
14.5156
29.1266
52.6819
78.6531
96.6906
105.451
109.183
110.935
112.111
113.281
114.436
115.612
116.825
118.098
119.45
120.9
122.472
124.188
126.072
128.15
130.452
133.006
135.845
139.003
142.516
146.423
150.761
155.572
160.898
166.78
173.261
180.384
188.192
196.725
206.027
216.136
227.092
238.934
251.696
265.413
280.116
295.835
312.594
330.417
349.324
369.328
390.442
412.673
436.022
460.489
486.064
512.737
540.489
569.3
599.14
629.979
661.776
694.494
728.078
762.484
797.647
833.516
870.015
907.086
944.647
982.631
1020.95
1059.54
1098.31
1137.18
1176.06
1214.89
1253.56
1292
1330.13
1367.87
1405.13
1441.84
1477.92
1513.29
1547.87
1581.61
1614.43
1646.27
1677.06
1706.77
1735.32
1762.69
1788.81
1813.66
1837.19
1859.36
1880.14
1899.49
1917.38
1933.78
1948.68
1961.94
1973.39
1982.8
1990.53
1996.27
1999.25
1999.87
1999.67
1998.94
1996.94
1993.03
1987.41
1981.03
1975.09
1970.06
1965.74
1961.81
1958.03
1954.32
1950.66
1947.08
1943.59
1940.23
1936.99
1933.87
1930.87
1927.99
1925.24
1922.62
1920.13
1917.78
1915.58
1913.52
1911.61
1909.87
1908.29
1906.89
1905.68
1904.66
1903.85
1903.24
1902.85
1902.68
1902.74
1903.04
1903.58
1904.33
1905.17
1905.55
1903.18
1890.32
1841.18
1694.31
1366.77
871.992
428.814
177.832
69.1594
26.6097
10.4353
4.22937
1.78909
0.809754
0.4135
0.249026
0.172151
0.116745
0.05371
0.0146163
0.00651064
0.00225776
0.00194129
0.00179664
0.00162436
0.00154885
0.001439
0.00139344
0.001315
0.00128478
0.00122537
0.00120315
0.00115656
0.00113952
0.00110157
0.00108805
0.00105611
0.00104509
0.00101748
0.0010083
0.000983958
0.000976121
0.000954334
0.000947484
0.000927729
0.00092164
0.000903487
0.000897991
0.000881128
0.000876101
0.000860288
0.00085563
0.000840671
0.000836298
0.000822029
0.000817869
0.00080415
0.000800138
0.00078684
0.000782917
0.000769924
0.000766031
0.000753234
0.000749325
0.000736634
0.000732665
0.000719995
0.000715917
0.000703175
0.00069893
0.000686005
0.000681518
0.000668277
0.000663488
0.000649798
0.000644591
0.000630242
0.000624469
0.00060919
0.000602644
0.000586074
0.00057845
0.000560057
0.000550868
0.000529817
0.000518241
0.000493184
0.000477743
0.000446693
0.000424
0.000383673
0.000346901
0.000283665
0.000241999
0.000189109
0.000171864
0.000180257
0.000202642
0.000239713
0.000186912
0.000215815
0.000270752
0.000308518
0.000359939
0.000393075
0.000475727
0.000503354
0.000529514
0.000515989
0.000499848
0.000464072
0.000445159
0.000424091
0.000422565
0.000429038
0.000439897
0.00046504
0.000486313
0.000518882
0.000543713
0.000578723
0.000602341
0.000635416
0.000653835
0.000680312
0.000692197
0.0007066
0.000710975
0.00071517
0.000708354
0.000704374
0.000688322
0.000676073
0.00064633
0.000624681
0.000579165
0.000546764
0.000481972
0.000441179
0.000362095
0.000318011
0.000233747
0.000187424
0.00020926
0.000236321
0.000384714
0.000296934
0.000429918
0.00057039
0.000667644
0.000496373
0.000633208
0.000834494
0.00100378
0.000713676
0.000495819
0.000278904
0.000326896
0.000598703
0.000833848
0.000948187
0.000700811
0.000386046
0.000440465
0.000764408
0.000981026
0.00119536
0.00143729
0.00122298
0.000866645
0.000680998
0.00077992
0.000998404
0.0010018
0.000810819
0.000884933
0.0011149
0.00137646
0.0014784
0.00110321
0.000903789
0.000959192
0.00120197
0.00118002
0.000969219
0.00101134
0.00126427
0.00154992
0.00160184
0.00122921
0.00101078
0.00104168
0.00130291
0.00125947
0.00103207
0.00105075
0.00132056
0.00162805
0.00163917
0.00127138
0.00103388
0.00103768
0.00132167
0.00126667
0.00101366
0.0010107
0.00130673
0.00161995
0.00158381
0.00124365
0.000974457
0.000965742
0.00127333
0.0011948
0.000919329
0.00090747
0.00122423
0.00153606
0.00145579
0.00114041
0.000856835
0.000844804
0.0011708
0.00109145
0.000799978
0.000792252
0.00111455
0.00134916
0.0011288
0.00104962
0.000767964
0.000772094
0.0010508
0.000988498
0.000774433
0.000783025
0.000933827
0.000803165
0.00054896
0.000827431
0.000782447
0.000770791
0.00065706
0.000566169
0.000771427
0.000692974
0.000529234
0.000504895
0.000481683
0.000436439
0.000631755
0.000494876
0.000358922
0.0003154
0.000369335
0.000261424
0.000327998
0.000522891
0.00063563
0.000372221
0.000222939
0.000294573
0.00036346
0.00040048
0.000282097
0.000274966
0.000427868
0.000847312
0.00111353
0.000543888
0.000275729
0.00029395
0.000552699
0.000745215
0.000371718
0.000410287
0.000731127
0.00138045
0.00166282
0.000952676
0.000519591
0.000569694
0.000932048
0.00115028
0.000676593
0.000717358
0.00111566
0.00191067
0.00214455
0.00131672
0.000801487
0.000826771
0.00126491
0.0014535
0.000897648
0.000911876
0.00138806
0.00235045
0.00254838
0.00157027
0.000974471
0.000981733
0.00149298
0.00167337
0.00103887
0.00104125
0.00158592
0.00273315
0.00291057
0.00176746
0.00109531
0.00109457
0.00167096
0.0018535
0.00114632
0.00114354
0.00175036
0.00308441
0.00325656
0.00193534
0.00119346
0.00118903
0.00182582
0.00201426
0.00123784
0.00123206
0.00189857
0.00342854
0.00360171
0.00209116
0.0012803
0.00127339
0.0019695
0.00216674
0.00132154
0.0013137
0.00203938
0.00377713
0.0039557
0.00224175
0.00136202
0.00135324
0.0021091
0.00231717
0.00140205
0.00139248
0.00217874
0.00413768
0.00432362
0.00239389
0.0014421
0.00143184
0.00224917
0.0024724
0.00148259
0.00147176
0.00232181
0.0045145
0.004712
0.00255372
0.00152396
0.00151267
0.00239815
0.00263971
0.00156657
0.00155485
0.00247867
0.00491995
0.0051415
0.00273073
0.00161078
0.00159871
0.00256374
0.00282726
0.00165706
0.00164474
0.0026544
0.00538059
0.00564093
0.00293056
0.00170597
0.00169352
0.00275191
0.00304215
0.00175816
0.0017457
0.00285774
0.00592718
0.00624511
0.00316381
0.00181438
0.00180207
0.0029737
0.00329773
0.00187558
0.00186359
0.00310202
0.00660192
0.0070065
0.00344664
0.00194288
0.00193147
0.00324546
0.00361395
0.00201773
0.00200717
0.00340707
0.00746911
0.00800036
0.00380358
0.00210202
0.00209282
0.00359057
0.00402259
0.00219862
0.00219144
0.00380425
0.00862264
0.00936929
0.00428015
0.00231129
0.00230707
0.00405783
0.00458903
0.00244524
0.00244546
0.00436566
0.0102874
0.011447
0.00496854
0.00260807
0.00261493
0.00474981
0.00545011
0.00281322
0.00283386
0.0052461
0.0129622
0.0150309
0.0060815
0.00308082
0.00312427
0.00591197
0.00695494
0.00344875
0.00353126
0.0068645
0.0180426
0.0228948
0.00824443
0.00398793
0.00416093
0.00836296
0.0103581
0.00484426
0.00528432
0.0111724
0.0320162
0.0702253
0.0492694
0.0381269
0.0313007
0.0266541
0.0232622
0.0206645
0.018608
0.0169334
0.0155181
0.0143112
0.0132704
0.0123641