/*--------------------------------*- C++ -*----------------------------------*\
| =========                 |                                                 |
| \\      /  F ield         | OpenFOAM: The Open Source CFD Toolbox           |
|  \\    /   O peration     | Version:  v2006                                 |
|   \\  /    A nd           | Website:  www.openfoam.com                      |
|    \\/     M anipulation  |                                                 |
\*---------------------------------------------------------------------------*/
FoamFile
{
    version     2.0;
    format      ascii;
    class       volScalarField;
    location    "0.089";
    object      isentropic(p);
}
// * * * * * * * * * * * * * * * * * * * * * * * * * * * * * * * * * * * * * //

dimensions      [1 -1 -2 0 0 0 0];


internalField   nonuniform List<scalar> 
16277
(
150008
150014
150017
150003
150012
150010
150011
150012
150013
150013
150013
150012
150012
150011
150011
150011
150010
150010
150010
150010
150010
150010
150010
150009
150009
150009
150009
150009
150009
150009
150009
150009
150008
150008
150008
150008
150008
150008
150008
150008
150007
150007
150007
150007
150007
150007
150007
150007
150006
150006
150006
150006
150006
150006
150006
150006
150005
150005
150005
150005
150005
150005
150005
150005
150005
150004
150004
150004
150004
150004
150004
150004
150004
150004
150004
150003
150003
150003
150003
150002
150002
150001
150001
150000
150001
150003
150004
150005
150004
150006
150005
150007
150008
150011
150017
150015
149976
149936
150011
150022
150021
150002
149897
149860
149993
150018
150013
149981
149826
149796
149971
150008
150002
149959
149768
149744
149949
149997
149991
149938
149721
149703
149929
149986
149979
149919
149684
149669
149911
149975
149968
149901
149653
149640
149893
149964
149958
149884
149627
149616
149877
149953
149947
149868
149605
149595
149862
149943
149937
149854
149585
149577
149849
149934
149928
149841
149568
149561
149836
149925
149919
149829
149553
149547
149824
149916
149911
149817
149540
149534
149813
149908
149903
149807
149528
149523
149803
149901
149896
149797
149517
149513
149794
149893
149889
149788
149508
149504
149785
149887
149882
149779
149499
149496
149776
149880
149876
149771
149492
149489
149769
149874
149870
149763
149485
149483
149761
149868
149864
149756
149479
149477
149755
149863
149859
149750
149474
149473
149748
149857
149853
149744
149470
149469
149743
149852
149848
149738
149466
149465
149737
149847
149844
149733
149463
149463
149732
149843
149839
149728
149461
149461
149727
149839
149835
149724
149459
149459
149723
149835
149831
149720
149458
149458
149719
149831
149827
149716
149457
149458
149715
149827
149824
149712
149457
149458
149712
149824
149821
149709
149458
149459
149709
149820
149817
149706
149459
149460
149706
149817
149814
149704
149460
149462
149704
149814
149811
149702
149462
149464
149702
149811
149809
149700
149465
149467
149700
149809
149806
149698
149468
149470
149699
149806
149804
149697
149471
149474
149698
149804
149802
149696
149475
149478
149697
149802
149800
149695
149480
149483
149696
149801
149799
149695
149485
149488
149696
149799
149797
149695
149490
149493
149697
149798
149796
149696
149496
149499
149697
149797
149795
149697
149502
149506
149698
149796
149795
149698
149508
149512
149700
149796
149795
149700
149515
149519
149702
149796
149795
149702
149522
149526
149704
149796
149796
149704
149530
149534
149707
149797
149797
149708
149537
149542
149711
149799
149799
149711
149545
149549
149715
149801
149801
149716
149552
149557
149719
149804
149804
149721
149560
149564
149724
149807
149807
149726
149567
149571
149730
149810
149811
149731
149573
149578
149735
149814
149815
149737
149580
149584
149741
149819
149820
149742
149585
149588
149746
149823
149824
149748
149589
149591
149751
149828
149828
149753
149591
149593
149756
149832
149832
149757
149593
149594
149760
149835
149836
149760
149592
149593
149763
149839
149839
149763
149591
149591
149766
149842
149842
149765
149589
149588
149767
149844
149844
149767
149585
149584
149768
149846
149846
149767
149581
149580
149769
149848
149847
149767
149575
149574
149768
149849
149848
149767
149570
149568
149767
149850
149849
149765
149564
149562
149766
149850
149849
149764
149558
149556
149764
149850
149848
149762
149552
149550
149762
149850
149848
149760
149546
149545
149760
149849
149847
149757
149541
149539
149757
149848
149846
149754
149535
149534
149754
149847
149845
149752
149530
149529
149752
149845
149843
149749
149525
149524
149749
149844
149842
149746
149521
149520
149746
149842
149840
149743
149516
149515
149743
149840
149838
149741
149512
149512
149741
149839
149836
149738
149509
149508
149738
149836
149835
149736
149506
149505
149735
149835
149832
149733
149502
149501
149732
149833
149831
149730
149499
149497
149729
149831
149829
149727
149495
149495
149727
149829
149826
149724
149492
149492
149724
149827
149824
149721
149489
149489
149721
149824
149822
149719
149486
149486
149719
149823
149820
149717
149484
149483
149716
149821
149819
149715
149482
149480
149714
149818
149817
149711
149478
149479
149713
149818
149816
149711
149477
149479
149714
149819
149822
149717
149484
149496
149728
149832
149868
149776
149551
149515
149697
149792
149864
149922
149955
149966
149972
149984
149989
149994
149997
149999
149999
149998
149997
149993
149989
149979
149974
149967
149959
149946
149914
149842
149702
149542
149279
149259
149525
149687
149669
149508
149244
149235
149498
149658
149655
149493
149228
149227
149492
149654
149652
149491
149225
149225
149491
149653
149654
149492
149226
149227
149492
149655
149656
149494
149228
149229
149495
149657
149658
149496
149230
149231
149497
149659
149660
149498
149232
149232
149499
149661
149662
149500
149233
149234
149501
149663
149664
149502
149235
149236
149503
149665
149667
149505
149238
149238
149506
149667
149668
149507
149239
149240
149508
149670
149670
149509
149240
149242
149510
149672
149673
149512
149243
149243
149513
149674
149675
149514
149245
149246
149515
149677
149677
149516
149246
149248
149518
149679
149680
149519
149248
149249
149520
149681
149682
149521
149251
149251
149522
149683
149685
149524
149253
149254
149525
149686
149687
149526
149255
149256
149528
149688
149690
149529
149257
149258
149530
149690
149692
149531
149259
149260
149533
149693
149694
149534
149260
149261
149535
149695
149697
149536
149263
149264
149538
149698
149699
149539
149265
149266
149540
149701
149702
149542
149267
149267
149543
149703
149705
149544
149268
149269
149545
149706
149707
149546
149270
149271
149548
149709
149710
149549
149272
149272
149550
149711
149713
149552
149273
149274
149553
149714
149715
149554
149275
149276
149556
149717
149719
149558
149276
149277
149559
149720
149722
149560
149277
149278
149562
149724
149726
149563
149278
149278
149565
149728
149729
149566
149279
149279
149568
149731
149733
149569
149279
149280
149571
149736
149737
149572
149279
149279
149574
149740
149743
149577
149280
149279
149578
149744
149746
149579
149278
149280
149583
149751
149753
149585
149279
149279
149587
149755
149759
149591
149280
149280
149593
149762
149765
149596
149280
149281
149600
149769
149772
149602
149281
149284
149608
149777
149781
149612
149286
149288
149616
149783
149789
149623
149292
149295
149628
149793
149798
149634
149299
149304
149641
149802
149808
149648
149309
149315
149655
149813
149820
149667
149327
149337
149678
149827
149835
149690
149350
149366
149698
149841
149848
149712
149381
149398
149722
149856
149861
149732
149416
149435
149743
149868
149875
149755
149457
149479
149767
149881
149886
149777
149497
149517
149786
149889
149894
149793
149536
149563
149813
149905
149907
149827
149580
149332
149630
149796
149875
149732
149395
149412
149752
149890
149896
149762
149428
149452
149770
149900
149907
149784
149479
149509
149797
149910
149921
149818
149546
149569
149827
149925
149937
149843
149598
149625
149854
149941
149952
149875
149659
149689
149894
149956
149868
149736
149518
149577
149838
149939
149952
149857
149606
149635
149875
149959
149972
149889
149660
149684
149900
149978
149983
149914
149711
149742
149933
149996
149994
149945
149762
149588
149844
149934
149984
149899
149671
149698
149920
149996
150007
149936
149731
149760
149945
150007
150021
149964
149791
149825
149981
150024
149965
149870
149713
149764
149950
150015
150033
149977
149809
149834
149988
150040
150052
150009
149866
149890
150018
150053
150006
149926
149798
149862
150011
150054
150063
150023
149886
149921
150043
150078
150079
150055
149954
149897
149981
150044
150089
150062
149957
149973
150071
150100
150115
150095
150016
150035
150100
150111
150108
150081
149996
150069
150128
150142
150137
150137
150092
150068
150148
150148
150177
150178
150149
150183
150194
150178
150210
150215
150198
150275
150251
150217
150180
150221
150233
150277
150227
150187
150214
150260
150311
150293
150272
150233
150187
150213
150180
150035
150104
150103
150007
149952
149842
149888
149965
149977
149923
149868
149742
149798
149904
149930
149911
149866
149725
149708
149760
149853
149877
149844
149674
149633
149790
149845
149894
149849
149692
149656
149816
149878
149825
149754
149587
149661
149829
149875
149855
149804
149643
149560
149737
149813
149871
149818
149637
149604
149787
149860
149800
149720
149533
149637
149817
149865
149847
149788
149610
149518
149708
149793
149863
149816
149641
149617
149787
149838
149790
149708
149518
149632
149811
149858
149834
149789
149621
149520
149709
149791
149861
149809
149627
149595
149781
149855
149792
149709
149518
149639
149818
149868
149852
149787
149602
149557
149752
149825
149758
149639
149520
149603
149795
149842
149843
149753
149543
149440
149693
149770
149854
149794
149587
149556
149759
149825
149764
149651
149491
149588
149792
149846
149841
149756
149546
149443
149691
149770
149855
149796
149587
149561
149757
149828
149764
149695
149449
149585
149791
149851
149830
149760
149552
149485
149648
149768
149851
149794
149591
149554
149764
149841
149771
149647
149495
149589
149793
149848
149840
149758
149538
149498
149627
149762
149849
149798
149577
149506
149717
149798
149877
149823
149623
149592
149787
149860
149794
149706
149510
149621
149819
149878
149870
149780
149576
149511
149708
149797
149878
149825
149628
149603
149794
149858
149795
149702
149501
149618
149820
149878
149855
149787
149587
149506
149709
149800
149882
149828
149629
149589
149794
149860
149786
149660
149533
149599
149821
149872
149816
149736
149523
149624
149836
149893
149881
149802
149596
149514
149719
149810
149891
149833
149625
149581
149798
149875
149800
149673
149521
149603
149828
149882
149826
149741
149522
149648
149853
149906
149891
149820
149621
149524
149728
149819
149899
149842
149637
149591
149805
149880
149807
149682
149530
149606
149835
149889
149832
149746
149523
149652
149860
149913
149903
149821
149612
149517
149730
149822
149900
149845
149632
149596
149802
149882
149803
149740
149459
149606
149829
149896
149834
149740
149506
149645
149860
149911
149886
149822
149610
149524
149700
149817
149902
149849
149613
149531
149760
149846
149914
149854
149630
149579
149804
149900
149813
149726
149482
149606
149837
149902
149848
149759
149533
149645
149862
149918
149887
149816
149610
149494
149742
149820
149909
149845
149616
149524
149757
149849
149915
149860
149637
149600
149819
149883
149816
149699
149510
149621
149861
149909
149852
149765
149529
149635
149864
149918
149895
149813
149594
149452
149750
149813
149908
149828
149605
149498
149746
149843
149911
149850
149603
149516
149755
149845
149923
149870
149643
149604
149827
149907
149824
149722
149496
149600
149846
149908
149849
149757
149514
149618
149859
149917
149892
149806
149581
149435
149747
149810
149906
149820
149584
149467
149733
149836
149915
149856
149595
149513
149764
149855
149921
149861
149618
149568
149815
149898
149818
149687
149491
149567
149841
149900
149835
149740
149481
149592
149855
149914
149849
149754
149498
149609
149859
149920
149894
149805
149565
149451
149730
149814
149908
149837
149580
149473
149740
149839
149911
149851
149585
149494
149754
149849
149919
149859
149609
149560
149811
149895
149812
149684
149460
149555
149834
149897
149827
149725
149455
149576
149850
149912
149850
149752
149487
149601
149858
149919
149893
149808
149545
149468
149658
149807
149887
149847
149532
149435
149722
149821
149898
149839
149549
149447
149730
149830
149905
149841
149573
149514
149789
149876
149788
149629
149437
149522
149839
149880
149816
149711
149428
149541
149832
149896
149824
149719
149440
149546
149832
149897
149831
149732
149454
149572
149842
149904
149876
149780
149528
149370
149703
149782
149883
149791
149517
149391
149693
149806
149885
149812
149501
149412
149706
149813
149891
149823
149527
149433
149718
149823
149897
149832
149556
149491
149777
149867
149777
149619
149405
149480
149811
149862
149791
149682
149375
149490
149806
149876
149799
149689
149386
149505
149810
149878
149805
149696
149401
149537
149822
149889
149859
149770
149479
149390
149602
149767
149853
149809
149456
149350
149666
149781
149865
149798
149472
149350
149667
149783
149861
149790
149473
149369
149678
149790
149870
149802
149506
149450
149729
149838
149735
149657
149271
149441
149741
149848
149767
149642
149307
149443
149782
149855
149771
149651
149327
149442
149775
149850
149770
149652
149331
149451
149778
149852
149779
149666
149353
149476
149786
149857
149824
149729
149410
149328
149533
149723
149812
149781
149377
149265
149610
149735
149828
149753
149394
149275
149616
149742
149833
149757
149413
149293
149627
149751
149836
149760
149421
149313
149641
149760
149842
149768
149451
149374
149702
149806
149705
149537
149265
149365
149738
149803
149722
149594
149248
149375
149736
149815
149727
149598
149251
149374
149732
149814
149728
149602
149260
149396
149742
149820
149743
149621
149284
149417
149748
149824
149790
149688
149347
149243
149483
149680
149777
149735
149311
149193
149565
149698
149792
149712
149322
149183
149562
149698
149792
149712
149331
149197
149568
149701
149793
149711
149339
149229
149585
149712
149799
149720
149373
149300
149654
149764
149652
149463
149172
149282
149692
149758
149673
149534
149149
149284
149686
149771
149675
149535
149147
149298
149689
149772
149678
149540
149159
149303
149688
149773
149688
149554
149182
149333
149694
149776
149737
149626
149246
149148
149397
149619
149721
149689
149209
149082
149488
149635
149738
149648
149221
149084
149493
149640
149741
149651
149228
149091
149497
149643
149741
149649
149232
149108
149504
149647
149744
149655
149253
149126
149516
149656
149749
149663
149288
149215
149584
149716
149583
149434
149029
149196
149606
149712
149614
149462
149045
149198
149625
149719
149615
149465
149049
149199
149622
149717
149619
149470
149068
149210
149623
149718
149629
149486
149087
149244
149636
149726
149687
149560
149159
149004
149362
149558
149673
149591
149126
148974
149414
149574
149688
149594
149140
148977
149421
149581
149684
149588
149137
148999
149430
149584
149686
149590
149150
149016
149442
149592
149687
149592
149176
149091
149503
149648
149507
149348
148898
149071
149524
149645
149538
149368
148908
149078
149549
149655
149543
149376
148919
149095
149556
149657
149549
149386
148937
149103
149556
149657
149561
149403
148962
149141
149568
149665
149626
149484
149044
148860
149272
149477
149607
149515
149015
148836
149319
149496
149613
149503
149001
148839
149320
149497
149611
149501
149009
148857
149330
149502
149618
149511
149031
148873
149346
149513
149624
149523
149067
148976
149438
149590
149428
149221
148765
148953
149468
149575
149462
149275
148771
148962
149477
149587
149470
149290
148790
148987
149482
149587
149465
149287
148788
148977
149466
149577
149531
149382
148871
148697
149115
149378
149517
149425
148841
148661
149208
149403
149534
149419
148857
148669
149214
149408
149540
149422
148880
148698
149232
149422
149548
149438
148929
148820
149326
149509
149320
149137
148550
148796
149343
149492
149365
149160
148587
148795
149367
149496
149346
149143
148571
148786
149358
149485
149365
149165
148602
148825
149371
149496
149440
149270
148687
148532
148967
149271
149424
149326
148676
148462
149075
149294
149446
149325
148709
148494
149093
149310
149454
149323
148718
148515
149113
149323
149462
149342
148771
148638
149237
149421
149220
148946
148409
148563
149229
149373
149221
148987
148336
148602
149251
149390
149249
149023
148383
148619
149260
149402
149264
149041
148410
148662
149273
149408
149360
149152
148523
148274
148868
149151
149333
149195
148512
148284
148954
149196
149355
149213
148538
148311
148981
149212
149366
149235
148597
148468
149133
149326
149065
148729
148134
148364
149089
149247
149096
148839
148127
148410
149128
149286
149131
148877
148170
148438
149144
149298
149148
148902
148206
148486
149160
149312
149268
149038
148357
148039
148739
149020
149236
149057
148350
148076
148813
149078
149256
149099
148368
148116
148852
149103
149255
149129
148480
148204
148927
149167
148907
148608
147876
148195
148964
149141
148986
148710
147934
148225
149008
149181
149023
148753
147973
148281
149036
149202
149155
148902
148130
147787
148556
148879
149110
148921
148130
147841
148659
148956
149151
148982
148199
148042
148856
149119
148813
148479
147662
147968
148823
149018
148780
148454
147578
147904
148793
149003
148833
148522
147646
147999
148850
149043
148993
148701
147830
147460
148325
148700
148960
148760
147841
147512
148449
148783
149006
148817
147923
147727
148660
148961
148621
148240
147309
147735
148697
148902
148749
148409
147441
147778
148706
148905
148778
148439
147450
147011
148039
148445
148763
148522
147503
147150
148197
148570
148829
148607
147620
147399
148440
148780
148425
147980
146974
147395
148484
148729
148527
148138
147048
147519
148564
148784
148743
148387
147300
146813
147906
148348
148627
148437
147378
146782
147907
148330
148595
148330
147228
146987
148120
148504
148177
147745
146548
147082
148244
148541
148310
147883
146676
147203
148340
148599
148550
148160
146970
146455
147624
148129
148472
148215
147007
146616
147848
148281
148524
148332
147258
146990
148145
148496
147912
147379
146112
146721
147957
148275
148204
147762
146479
145958
147344
147844
148252
147922
146598
146120
147512
147998
148334
148053
146768
146514
147863
148294
147824
147274
145910
146623
147923
148204
148261
147823
146447
145633
147136
147693
147954
147542
146015
145686
147267
147824
147371
146756
145107
145921
147493
147881
147606
147026
145415
146204
147681
148019
147998
147495
145954
145283
146828
147462
147875
147561
146134
145994
147507
147973
147296
146660
145010
145405
147091
147564
147413
146809
145034
144481
146261
146978
147522
147104
145429
145141
146924
147517
147013
146273
144457
145455
147132
147520
147585
147010
145188
144508
146320
147012
147246
146789
145035
144281
146351
147027
146765
145983
143797
143115
145343
146278
146954
146468
144381
144038
146267
146998
146434
145580
143258
144621
146560
146979
147250
146739
144622
142995
145533
146473
145571
144487
141855
143356
145720
146351
146360
145574
142966
142485
145292
146230
145650
144343
141712
143531
145829
146327
146575
145871
143244
141278
144465
145610
144717
143374
140227
142280
145030
145699
145794
144953
141900
141441
144842
145847
145928
144752
141525
138367
142606
144056
144988
143810
140368
139959
143678
144946
144920
143547
139455
139384
143808
145161
144761
142936
137719
136446
141827
143966
142809
140775
135299
139385
143271
144442
144429
142978
138581
137385
142328
144100
143705
141894
136609
136187
141693
143484
143339
141250
135316
134893
141010
143243
143229
140855
134621
134341
140666
143204
143140
140445
134057
133801
140214
143053
142957
139986
133580
133394
139763
142853
142743
139548
133235
133099
139341
142628
142511
139144
132986
132892
138957
142390
142270
138781
132816
132756
138615
142147
142024
138460
132710
132675
138315
141900
141777
138180
132651
132636
138056
141655
141535
137941
132630
132631
137836
141415
141299
137740
132639
132653
137652
141184
141072
137571
132672
132695
137498
140961
140854
137432
132723
132754
137372
140749
140648
137319
132788
132824
137271
140549
140454
137228
132862
132902
137190
140361
140273
137156
132943
132985
137125
140187
140106
137098
133028
133071
137074
140028
139954
137053
133114
133157
137034
139883
139816
137019
133201
133243
137004
139752
139692
136993
133286
133328
136982
139634
139581
136974
133369
133409
136966
139530
139484
136960
133449
133487
136955
139439
139398
136952
133525
133562
136948
139359
139323
136946
133598
133632
136944
139289
139259
136944
133666
133698
136944
139229
139202
136944
133730
133759
136945
139177
139154
136947
133789
133816
136949
139132
139113
136952
133843
133867
136954
139093
139077
136958
133892
133915
136961
139061
139047
136965
133938
133958
136969
139033
139021
136974
133979
133998
136978
139010
139000
136983
134017
134034
136987
138990
138982
136992
134052
134068
136997
138974
138967
137003
134084
134098
137007
138960
138954
137013
134113
134126
137017
138948
138943
137022
134139
134152
137027
138938
138934
137032
134164
134175
137036
138929
138926
137041
134186
134196
137045
138922
138919
137049
134206
134216
137053
138915
138913
137058
134225
134233
137061
138910
138908
137066
134242
134250
137069
138905
138903
137073
134258
134264
137076
138901
138900
137080
134272
134278
137084
138897
138897
137088
134285
134291
137091
138895
138894
137094
134297
134302
137097
138893
138893
137101
134308
134313
137104
138891
138891
137108
134319
134324
137111
138890
138891
137114
134329
134333
137117
138889
138890
137121
134338
134342
137124
138889
138890
137127
134347
134351
137130
138889
138890
137133
134356
134360
137136
138890
138891
137140
134365
134369
137143
138891
138892
137147
134373
134377
137150
138892
138894
137153
134381
134385
137156
138894
138896
137160
134390
134393
137163
138896
138898
137167
134398
134401
137170
138898
138901
137174
134406
134409
137177
138901
138904
137181
134414
134417
137184
138904
138908
137188
134422
134425
137191
138908
138911
137195
134430
134433
137199
138912
138915
137203
134437
134441
137206
138916
138920
137210
134445
134449
137214
138920
138924
137218
134453
134457
137221
138925
138929
137226
134461
134465
137229
138930
138935
137233
134469
134472
137237
138936
138940
137241
134476
134480
137245
138941
138946
137249
134484
134487
137253
138947
138952
137257
134491
134495
137261
138953
138958
137266
134499
134503
137269
138960
138965
137274
134506
134510
137278
138966
138971
137282
134514
134517
137286
138973
138978
137290
134521
134525
137294
138980
138985
137299
134528
134532
137303
138987
138992
137307
134536
134539
137311
138994
139000
137316
134543
134546
137320
139002
139007
137324
134550
134553
137328
139009
139015
137332
134556
134560
137337
139017
139022
137341
134563
134566
137345
139024
139030
137349
134570
134573
137353
139032
139038
137358
134576
134579
137362
139040
139045
137366
134583
134586
137370
139048
139053
137374
134589
134592
137378
139055
139061
137382
134595
134598
137386
139063
139069
137390
134601
134604
137394
139071
139077
137399
134607
134610
137402
139079
139084
137407
134613
134615
137410
139087
139092
137415
134618
134621
137418
139095
139100
137422
134624
134626
137426
139103
139108
137430
134629
134631
137434
139110
139116
137438
134634
134636
137442
139118
139124
137446
134639
134641
137449
139126
139132
137453
134644
134646
137457
139134
139139
137461
134648
134650
137464
139142
139147
137468
134652
134654
137471
139149
139154
137475
134656
134658
137478
139156
139162
137482
134660
134662
137485
139164
139169
137489
134664
134665
137491
139171
139177
137495
134667
134668
137498
139179
139185
137503
134673
134675
137506
139188
139192
137511
134678
134680
137509
139189
139176
137498
134678
134670
137482
139159
139203
137502
134685
134760
137599
139355
139448
137673
134818
142055
144691
146368
146740
146890
147546
147883
148029
148174
148587
148855
149138
149349
149505
149620
149703
149763
149805
149836
149859
149877
149890
149901
149909
149916
149922
149926
149929
149931
149933
149934
149936
149936
149932
149934
149941
149946
149954
149962
149972
149983
149994
150005
150015
150021
150023
150022
150020
150017
150015
150013
150012
150010
150009
150007
150005
150003
150000
149998
149996
149994
149992
149990
149989
149988
149987
149986
149986
149986
149986
149987
149989
149991
149993
149997
150001
150005
150010
150015
150021
150027
150034
150040
150046
150052
150058
150063
150068
150072
150075
150078
150080
150081
150081
150081
150080
150079
150077
150074
150071
150068
150064
150061
150057
150053
150048
150044
150040
150036
150032
150028
150024
150020
150016
150012
150009
150006
150002
149999
149997
149994
149991
149989
149986
149984
149982
149980
149978
149977
149975
149974
149972
149971
149970
149969
149968
149967
149966
149965
149965
149964
149964
149963
149963
149962
149962
149962
149962
149962
149962
149962
149962
149962
149962
149962
149962
149962
149963
149963
149963
149963
149964
149964
149965
149965
149966
149966
149966
149967
149968
149968
149969
149969
149970
149971
149971
149972
149973
149973
149974
149975
149976
149976
149977
149978
149979
149980
149980
149981
149982
149983
149984
149985
149986
149987
149988
149989
149990
149991
149993
149994
149996
150000
150007
150012
150015
150015
150017
150004
150012
150012
150020
150026
150029
150029
150027
150026
150024
150022
150021
150020
150019
150018
150017
150016
150016
150015
150015
150014
150014
150013
150013
150012
150012
150012
150011
150011
150011
150011
150010
150010
150010
150010
150009
150009
150009
150009
150008
150008
150008
150008
150008
150007
150007
150007
150007
150006
150006
150006
150006
150006
150005
150005
150005
150005
150005
150004
150004
150004
150004
150003
150003
150003
150003
150002
150002
150002
150001
150001
150000
150000
149999
149999
149998
149997
149995
149994
149994
149995
149997
149999
150000
150004
150010
150019
150024
150024
150021
150019
150016
150013
150010
150008
150005
150003
150000
149998
149995
149993
149990
149988
149985
149983
149980
149979
149976
149975
149971
149971
149967
149966
149963
149963
149959
149959
149956
149955
149952
149952
149949
149949
149945
149945
149942
149942
149939
149939
149936
149936
149933
149934
149930
149931
149928
149928
149925
149926
149923
149923
149920
149921
149918
149918
149915
149916
149913
149913
149911
149911
149908
149909
149906
149907
149904
149905
149902
149903
149900
149901
149899
149899
149897
149898
149895
149896
149894
149895
149893
149894
149892
149893
149891
149893
149891
149893
149891
149893
149891
149894
149892
149895
149893
149896
149895
149898
149897
149900
149899
149902
149901
149905
149903
149907
149906
149910
149909
149912
149911
149915
149914
149917
149916
149920
149918
149921
149920
149923
149922
149925
149923
149926
149924
149927
149925
149927
149925
149927
149925
149927
149925
149927
149925
149927
149925
149926
149924
149926
149924
149925
149923
149924
149922
149923
149922
149923
149920
149922
149919
149920
149918
149919
149917
149918
149916
149915
149915
149915
149913
149914
149912
149913
149910
149912
149910
149911
149911
149915
149921
149931
149956
149955
149954
149966
149949
149952
149965
149949
149952
149965
149950
149953
149967
149951
149954
149968
149951
149955
149969
149952
149956
149969
149953
149957
149971
149954
149958
149971
149955
149959
149972
149956
149960
149973
149957
149960
149974
149958
149961
149975
149958
149962
149975
149959
149962
149976
149959
149963
149977
149960
149963
149977
149960
149964
149977
149960
149964
149978
149960
149964
149978
149960
149964
149978
149960
149964
149978
149960
149964
149977
149959
149963
149977
149958
149962
149976
149957
149961
149976
149956
149960
149974
149954
149958
149973
149952
149956
149972
149951
149955
149970
149949
149953
149968
149947
149951
149967
149945
149949
149966
149943
149947
149965
149941
149945
149964
149940
149944
149964
149939
149943
149962
149938
149942
149962
149938
149942
149963
149938
149943
149964
149938
149943
149964
149939
149944
149965
149939
149945
149966
149940
149946
149967
149941
149947
149969
149942
149948
149970
149944
149950
149971
149945
149951
149972
149946
149953
149974
149948
149954
149975
149949
149955
149976
149951
149957
149977
149952
149958
149979
149954
149960
149980
149955
149961
149981
149957
149963
149982
149958
149964
149983
149960
149965
149985
149961
149967
149986
149963
149968
149987
149965
149970
149988
149966
149972
149989
149968
149973
149990
149970
149975
149992
149971
149976
149993
149973
149978
149994
149975
149980
149995
149977
149981
149996
149979
149983
149998
149981
149985
149999
149983
149987
150000
149985
149989
150002
149987
149991
150003
149989
149993
150004
149991
149995
150006
149994
149997
150007
149996
150000
150008
149999
150002
150010
150002
150004
150011
150004
150007
150013
150007
150010
150014
150010
150013
150016
150013
150015
150017
150017
150018
150019
150020
150022
150020
150023
150013
150015
150015
150015
150015
150014
150014
150013
150013
150013
150012
150012
150011
150011
150011
150011
150010
150010
150010
150009
150009
150009
150008
150008
150008
150007
150007
150006
150006
150005
150005
150004
150004
150003
150002
150002
150001
150000
149999
149997
149996
149995
149994
149993
149992
149991
149991
149990
149992
149995
149996
149997
150000
150002
150005
150007
150009
150011
150012
150012
150012
150011
150011
150010
150008
150007
150006
150005
150004
150003
150001
150000
149999
149998
149997
149996
149995
149994
149993
149992
149991
149990
149989
149989
149988
149986
149969
149966
149966
149970
149985
149989
149989
149996
149995
149997
149997
149997
149998
149999
150000
150001
150002
150003
150004
150005
150006
150007
150008
150009
150010
150011
150015
150013
150012
150011
150010
150009
150008
150007
150006
150005
150004
150003
150002
150002
150001
150000
149999
149999
150000
149999
149999
149997
149998
150000
150000
150001
149994
149993
149993
149993
149993
149990
149990
149975
149977
149972
149972
149972
149973
149974
149976
149996