/*--------------------------------*- C++ -*----------------------------------*\
| =========                 |                                                 |
| \\      /  F ield         | OpenFOAM: The Open Source CFD Toolbox           |
|  \\    /   O peration     | Version:  v2006                                 |
|   \\  /    A nd           | Website:  www.openfoam.com                      |
|    \\/     M anipulation  |                                                 |
\*---------------------------------------------------------------------------*/
FoamFile
{
    version     2.0;
    format      ascii;
    class       volVectorField;
    location    "0.042";
    object      U;
}
// * * * * * * * * * * * * * * * * * * * * * * * * * * * * * * * * * * * * * //

dimensions      [0 1 -1 0 0 0 0];


internalField   nonuniform List<vector> 
12716
(
(65.3808 -0.000113898 -8.05276e-21)
(65.3807 -3.80042e-05 0)
(65.3807 -1.23863e-05 -9.14245e-22)
(65.3808 -3.7254e-05 7.41329e-22)
(65.3809 -5.94461e-05 -4.7987e-22)
(65.3811 -7.01339e-05 2.14137e-22)
(65.3813 -7.37377e-05 0)
(65.3816 -5.67405e-05 0)
(65.3813 -3.77635e-05 -8.24926e-21)
(65.3741 -0.000775157 3.0103e-20)
(65.3425 -0.00474364 -1.44621e-19)
(65.2785 -0.0118927 6.3616e-21)
(65.1889 -0.0202242 2.96481e-20)
(65.085 -0.0282236 -1.595e-20)
(64.9753 -0.0351267 -1.66217e-20)
(64.8644 -0.0408246 0)
(64.7531 -0.0455526 0)
(64.6408 -0.049617 0)
(64.5262 -0.0532557 0)
(64.4085 -0.0566009 0)
(64.2869 -0.0597125 0)
(64.1612 -0.0626114 0)
(64.0313 -0.0653038 0)
(63.8974 -0.0677965 0)
(63.7598 -0.0700981 0)
(63.6186 -0.0722175 0)
(63.474 -0.074168 0)
(63.3263 -0.0759612 0)
(63.1757 -0.0776049 0)
(63.0223 -0.0791025 0)
(62.8664 -0.0804551 0)
(62.7082 -0.0816596 0)
(62.548 -0.0827117 0)
(62.386 -0.083605 0)
(62.2225 -0.084333 0)
(62.0579 -0.0848878 0)
(61.8924 -0.0852623 0)
(61.7264 -0.0854478 0)
(61.5603 -0.0854341 0)
(61.3943 -0.0852291 0)
(61.2288 -0.0848225 0)
(61.0643 -0.0841832 0)
(60.901 -0.0833063 0)
(60.7395 -0.0821868 0)
(60.58 -0.0808116 0)
(60.423 -0.0791688 0)
(60.2689 -0.0772509 0)
(60.1183 -0.0750548 0)
(59.9712 -0.0725809 0)
(59.828 -0.0698185 0)
(59.6881 -0.0667168 0)
(59.5507 -0.0631323 0)
(59.4145 -0.0587645 0)
(59.2782 -0.0531124 0)
(59.1427 -0.0455636 0)
(59.0134 -0.0358903 -2.89174e-19)
(58.9041 -0.0251703 2.73128e-19)
(58.8334 -0.0161289 2.70527e-20)
(58.8088 -0.0109697 0)
(58.8161 -0.00928488 0)
(58.8348 -0.00893429 7.30963e-20)
(58.8547 -0.00890112 6.42416e-19)
(58.8707 -0.0079449 -8.84238e-18)
(58.8747 -0.00637445 0)
(58.8635 -0.00870345 0)
(58.8209 -0.0157662 0)
(58.7292 -0.0298717 0)
(58.5748 -0.0576266 0)
(58.3178 -0.0844233 8.81951e-19)
(58.0319 -0.0931232 0)
(57.0255 -0.146003 0)
(56.3939 -0.133591 1.47195e-17)
(58.0356 -0.168105 -9.58887e-18)
(58.3692 -0.143901 -9.53971e-19)
(58.4046 -0.170757 -1.55653e-17)
(57.9696 -0.196497 -1.22632e-18)
(55.68 -0.13019 -3.06711e-18)
(54.95 -0.118866 -2.69759e-18)
(57.8774 -0.195871 1.1074e-18)
(58.4338 -0.176675 1.8122e-18)
(58.4447 -0.173641 -1.77681e-18)
(57.7651 -0.181593 2.48425e-18)
(54.2866 -0.104737 -3.4105e-19)
(53.652 -0.0908386 4.77698e-19)
(57.6183 -0.164827 -2.60886e-19)
(58.4259 -0.166897 1.928e-18)
(58.3851 -0.160816 -4.29075e-19)
(57.4631 -0.15076 2.61238e-19)
(53.078 -0.0802198 -7.84707e-24)
(52.5525 -0.0714771 -1.58309e-19)
(57.2943 -0.138964 -2.26442e-19)
(58.3258 -0.15566 2.13967e-19)
(58.2537 -0.150384 0)
(57.1186 -0.128507 -4.86275e-20)
(52.0792 -0.0645219 0)
(51.6371 -0.0590823 0)
(56.9368 -0.120343 1.62627e-20)
(58.168 -0.145779 0)
(58.0789 -0.141903 0)
(56.7536 -0.112751 0)
(51.2338 -0.0542579 0)
(50.8489 -0.0506698 0)
(56.5695 -0.106903 0)
(57.976 -0.137848 0)
(57.8738 -0.134774 0)
(56.3852 -0.101281 0)
(50.4943 -0.0470964 0)
(50.1509 -0.0446184 0)
(56.2008 -0.0970022 0)
(57.7591 -0.131377 0)
(57.6479 -0.129033 0)
(56.0169 -0.092753 0)
(49.8315 -0.0418185 0)
(49.5199 -0.0400723 0)
(55.8338 -0.0894912 0)
(57.5255 -0.126118 0)
(57.4083 -0.124532 0)
(55.6517 -0.0863771 0)
(49.2273 -0.0379273 0)
(48.9373 -0.036691 0)
(55.4677 -0.0839454 0)
(57.2778 -0.122308 0)
(57.1541 -0.121203 0)
(55.2853 -0.0814415 0)
(48.6628 -0.0348296 0)
(48.3909 -0.0341039 0)
(55.1022 -0.0797155 0)
(57.0184 -0.119332 0)
(56.8907 -0.118589 0)
(54.921 -0.0776866 0)
(48.1321 -0.0324972 0)
(47.8739 -0.0320632 0)
(54.7382 -0.0764053 0)
(56.7502 -0.117075 0)
(56.6182 -0.116744 0)
(54.557 -0.0747999 0)
(47.6265 -0.0306635 0)
(47.3784 -0.0304841 0)
(54.3736 -0.0739228 0)
(56.4728 -0.115609 0)
(56.3366 -0.115638 0)
(54.1918 -0.0726611 0)
(47.1395 -0.0292442 0)
(46.8991 -0.0292652 0)
(54.0073 -0.0721042 0)
(56.1863 -0.114821 0)
(56.0456 -0.11515 0)
(53.8241 -0.0711103 0)
(46.6665 -0.0281412 0)
(46.4316 -0.0283239 0)
(53.6379 -0.0708143 0)
(55.8903 -0.114607 0)
(55.745 -0.115197 0)
(53.4527 -0.0700377 0)
(46.2036 -0.027287 0)
(45.9726 -0.0276073 0)
(53.2641 -0.0699668 0)
(55.5844 -0.114906 0)
(55.4342 -0.115748 0)
(53.0763 -0.0693827 0)
(45.7476 -0.0266424 0)
(45.5191 -0.0270851 0)
(52.8848 -0.0695154 0)
(55.2682 -0.115696 0)
(55.1128 -0.116779 0)
(52.6939 -0.0691038 0)
(45.296 -0.0261806 0)
(45.0689 -0.0267316 0)
(52.499 -0.069419 0)
(54.9411 -0.116952 0)
(54.7802 -0.118257 0)
(52.3044 -0.0691588 0)
(44.8465 -0.025876 0)
(44.6198 -0.0265224 0)
(52.1056 -0.0696352 0)
(54.6026 -0.118635 0)
(54.436 -0.120146 0)
(51.9069 -0.0695084 0)
(44.3972 -0.025707 0)
(44.17 -0.0264398 0)
(51.7037 -0.0701329 0)
(54.2522 -0.120719 0)
(54.0796 -0.122427 0)
(51.5005 -0.0701293 0)
(43.9466 -0.0256587 0)
(43.7181 -0.026475 0)
(51.2924 -0.0709019 0)
(53.8893 -0.123205 0)
(53.7103 -0.125133 0)
(51.0841 -0.0710287 0)
(43.4928 -0.0257295 0)
(43.2621 -0.0266293 0)
(50.8706 -0.0719554 0)
(53.513 -0.126135 0)
(53.327 -0.12831 0)
(50.6564 -0.0722233 0)
(43.0342 -0.0259223 0)
(42.8004 -0.0269068 0)
(50.4367 -0.0733115 0)
(53.122 -0.129558 0)
(52.9283 -0.132013 0)
(50.2158 -0.0737339 0)
(42.5687 -0.0262416 0)
(42.3305 -0.0273113 0)
(49.9889 -0.0749874 0)
(52.7149 -0.13352 0)
(52.5125 -0.136268 0)
(49.7603 -0.0755699 0)
(42.0939 -0.0266883 0)
(41.8502 -0.0278424 0)
(49.5251 -0.0769878 0)
(52.2896 -0.138037 0)
(52.0774 -0.141088 0)
(49.2876 -0.0777326 0)
(41.6075 -0.0272603 0)
(41.357 -0.0284967 0)
(49.0429 -0.0793102 0)
(51.844 -0.143115 0)
(51.6209 -0.146476 0)
(48.7954 -0.0802193 0)
(41.1067 -0.0279537 0)
(40.8481 -0.0292732 0)
(48.54 -0.0819592 0)
(51.3758 -0.148771 0)
(51.1407 -0.152466 0)
(48.2812 -0.0830456 0)
(40.5891 -0.0287718 0)
(40.3211 -0.0301794 0)
(48.0139 -0.084961 0)
(50.8827 -0.155058 0)
(50.6344 -0.159132 0)
(47.7424 -0.0862462 0)
(40.052 -0.0297255 0)
(39.7732 -0.0312273 0)
(47.4618 -0.0883532 0)
(50.3623 -0.162056 0)
(50.0994 -0.166552 0)
(47.1764 -0.0898586 0)
(39.4928 -0.0308265 0)
(39.2019 -0.0324272 0)
(46.8812 -0.0921706 0)
(49.8119 -0.169838 0)
(49.5332 -0.174792 0)
(46.5805 -0.0939133 0)
(38.9088 -0.0320837 0)
(38.6045 -0.0337858 0)
(46.2694 -0.0964385 0)
(49.229 -0.178459 0)
(48.9332 -0.183897 0)
(45.952 -0.0984303 0)
(38.2974 -0.0335023 0)
(37.9785 -0.0353059 0)
(45.6237 -0.101169 0)
(48.6111 -0.187947 0)
(48.297 -0.193876 0)
(45.2884 -0.103413 0)
(37.6562 -0.0350822 0)
(37.3215 -0.0369825 0)
(44.9416 -0.106355 0)
(47.9558 -0.198287 0)
(47.6222 -0.204686 0)
(44.5873 -0.108838 0)
(36.9831 -0.0368122 0)
(36.6315 -0.0387992 0)
(44.221 -0.111958 0)
(47.2608 -0.209415 0)
(46.9068 -0.21626 0)
(43.8467 -0.114665 0)
(36.276 -0.0386745 0)
(35.9069 -0.040743 0)
(43.46 -0.117953 0)
(46.5244 -0.221288 0)
(46.1489 -0.228582 0)
(43.0646 -0.120884 0)
(35.5335 -0.0406631 0)
(35.1458 -0.0428167 0)
(42.6565 -0.12434 0)
(45.7445 -0.233906 0)
(45.3466 -0.241654 0)
(42.2391 -0.1275 0)
(34.7536 -0.0427839 0)
(34.3465 -0.0450175 0)
(41.8085 -0.131114 0)
(44.919 -0.247253 0)
(44.4976 -0.255438 0)
(41.368 -0.134491 0)
(33.9344 -0.0450258 0)
(33.5068 -0.0473285 0)
(40.9136 -0.138235 0)
(44.0456 -0.261259 0)
(43.5995 -0.269826 0)
(40.4488 -0.141796 0)
(33.0739 -0.0473644 0)
(32.6249 -0.0497179 0)
(39.9697 -0.145618 0)
(43.1221 -0.275778 0)
(42.6501 -0.28463 0)
(39.4796 -0.149307 0)
(32.1704 -0.0497592 0)
(31.6991 -0.0521366 0)
(38.9748 -0.153132 0)
(42.1463 -0.290572 0)
(41.6476 -0.299568 0)
(38.4585 -0.156868 0)
(31.2224 -0.0521531 0)
(30.7285 -0.0545168 0)
(37.9274 -0.160592 0)
(41.1167 -0.305306 0)
(40.5908 -0.31425 0)
(37.3846 -0.164268 0)
(30.2295 -0.0544686 0)
(29.7132 -0.0567679 0)
(36.8272 -0.167751 0)
(40.0326 -0.319522 0)
(39.4796 -0.328143 0)
(36.2584 -0.171212 0)
(29.1926 -0.0565991 0)
(28.6551 -0.0587612 0)
(35.6757 -0.174242 0)
(38.8948 -0.332566 0)
(38.316 -0.34056 0)
(35.0824 -0.177313 0)
(28.1148 -0.0584112 0)
(27.559 -0.0602796 0)
(34.4768 -0.179476 0)
(37.7066 -0.343301 0)
(37.1058 -0.349535 0)
(33.8635 -0.181577 0)
(27.0035 -0.0594742 0)
(26.4355 -0.061034 0)
(33.2404 -0.182913 0)
(36.4768 -0.350898 0)
(35.8589 -0.355173 0)
(32.6128 -0.183905 0)
(25.871 -0.0597714 0)
(25.2974 -0.0608521 0)
(31.9785 -0.183883 0)
(35.2159 -0.354177 0)
(34.5879 -0.355527 0)
(31.3443 -0.183249 0)
(24.7319 -0.0589562 0)
(24.1627 -0.0593962 0)
(30.7085 -0.181434 0)
(33.9396 -0.351317 0)
(33.3116 -0.348934 0)
(30.0789 -0.178736 0)
(23.6078 -0.0567269 0)
(23.0558 -0.0563957 0)
(29.4539 -0.174747 0)
(32.6695 -0.340804 0)
(32.0541 -0.33398 0)
(28.843 -0.169609 0)
(22.5257 -0.0528326 0)
(22.0062 -0.0516382 0)
(28.244 -0.163191 0)
(31.4321 -0.321415 0)
(30.8443 -0.30974 0)
(27.668 -0.155393 0)
(21.5171 -0.0471248 0)
(21.0468 -0.0450445 0)
(27.1119 -0.146491 0)
(30.258 -0.292557 0)
(29.7137 -0.276061 0)
(26.5877 -0.1361 0)
(20.6154 -0.0396561 0)
(20.2107 -0.0367883 0)
(26.0913 -0.124945 0)
(29.1791 -0.254591 0)
(28.694 -0.233899 0)
(25.6351 -0.112366 0)
(19.8521 -0.0307306 0)
(19.5268 -0.0272529 0)
(25.2132 -0.0994411 0)
(28.2258 -0.208878 0)
(27.8141 -0.184701 0)
(24.8391 -0.0850888 0)
(19.2534 -0.0206705 0)
(19.0175 -0.017057 0)
(24.5037 -0.0716598 0)
(27.4252 -0.158518 0)
(27.0961 -0.133138 0)
(24.2196 -0.0568654 0)
(18.8348 -0.0105212 0)
(18.6896 -0.0071467 0)
(23.975 -0.043961 0)
(26.7924 -0.107533 0)
(26.5491 -0.0826483 0)
(23.7819 -0.0297693 0)
(18.5956 -0.00102356 0)
(18.5359 0.00200284 0)
(23.6264 -0.0180894 0)
(26.3313 -0.0591285 0)
(26.1704 -0.0363926 0)
(23.52 -0.00527004 0)
(18.5248 0.0078864 0)
(18.5455 0.0102261 0)
(23.4428 0.00507063 0)
(26.0332 -0.0157516 0)
(25.943 0.00452482 0)
(23.4148 0.0161028 0)
(18.6103 0.0149463 0)
(18.6913 0.0159203 0)
(23.4024 0.0214959 0)
(25.8801 0.0196263 0)
(25.8574 0.0357217 0)
(23.4405 0.0310882 0)
(18.8053 0.018875 0)
(18.9275 0.0184935 0)
(23.4859 0.0352781 0)
(25.8589 0.0463303 0)
(25.8906 0.0578146 0)
(23.5749 0.0419734 0)
(19.0752 0.0205142 0)
(19.2251 0.0196123 0)
(23.6638 0.0440467 0)
(25.9388 0.0646488 0)
(26.0102 0.072173 0)
(23.7878 0.0482995 0)
(19.3933 0.0210316 0)
(19.5583 0.0197301 0)
(23.9052 0.0485496 0)
(26.0913 0.0756484 0)
(26.1896 0.0800194 0)
(24.0505 0.0509314 0)
(19.7352 0.0206033 0)
(19.9047 0.0190454 0)
(24.1841 0.049829 0)
(26.2922 0.0808095 0)
(26.4061 0.0832184 0)
(24.3391 0.0510753 0)
(20.0804 0.0195555 0)
(20.2461 0.0180628 0)
(24.4789 0.0495193 0)
(26.5203 0.0828089 0)
(26.6427 0.0840307 0)
(24.6368 0.0500283 0)
(20.4155 0.0183111 0)
(20.5733 0.0167322 0)
(24.7768 0.0478646 0)
(26.7621 0.082333 0)
(26.8862 0.0826203 0)
(24.9312 0.0480253 0)
(20.7317 0.0169561 0)
(20.8771 0.0151717 0)
(25.0656 0.0451589 -1.0757e-18)
(27.0047 0.0795301 8.93841e-19)
(27.1252 0.0789617 0)
(25.2118 0.0449409 0)
(21.0211 0.0153252 0)
(21.152 0.0135788 0)
(25.3372 0.0419265 0)
(27.2388 0.0753409 0)
(27.3531 0.074312 0)
(25.4732 0.0415436 0)
(21.2809 0.0137385 0)
(21.3971 0.0120601 0)
(25.5881 0.0385097 0)
(27.4596 0.0704798 0)
(27.5661 0.0693495 0)
(25.7128 0.0381588 0)
(21.5111 0.0122822 0)
(21.6131 0.010699 0)
(25.8166 0.0352244 0)
(27.6645 0.065537 0)
(27.7627 0.0644144 0)
(25.9301 0.0349642 0)
(21.7134 0.0109948 0)
(21.8029 0.0095279 0)
(26.0235 0.0322304 0)
(27.8532 0.0608336 0)
(27.9435 0.0597973 0)
(26.1268 0.0320929 0)
(21.8912 0.00989865 0)
(21.9698 0.00854172 0)
(26.2107 0.0295561 0)
(28.0265 0.0564691 0)
(28.1093 0.0554732 0)
(26.3047 0.0294746 0)
(22.0477 0.00894781 0)
(22.117 0.00771577 0)
(26.3802 0.0271673 0)
(28.1854 0.0524205 0)
(28.2616 0.0515178 0)
(26.4661 0.0271808 0)
(22.1864 0.008175 0)
(22.2487 0.0070615 0)
(26.5348 0.0250798 0)
(28.3321 0.0486754 0)
(28.4035 0.0478247 0)
(26.6148 0.0250779 0)
(22.3119 0.00748608 0)
(22.3685 0.00639469 0)
(26.678 0.0230227 0)
(28.4696 0.0450577 0)
(28.5371 0.0441999 0)
(26.7533 0.0230162 0)
(22.4269 0.00679152 0)
(22.4795 0.00570546 0)
(26.8126 0.0209867 0)
(28.6 0.0415141 0)
(28.6645 0.0408322 0)
(26.8841 0.0211612 0)
(22.5344 0.00619558 0)
(22.584 0.00509134 0)
(26.9403 0.0191398 0)
(28.7249 0.038167 0)
(28.7868 0.0376003 0)
(27.0088 0.0193823 0)
(22.636 0.0055911 0)
(22.6825 0.00453901 0)
(27.0621 0.0174684 0)
(28.8442 0.0350936 0)
(28.9033 0.0347472 0)
(27.127 0.0178246 0)
(22.7313 0.00507495 0)
(22.775 0.0040684 0)
(27.1774 0.0160249 0)
(28.9579 0.0324344 0)
(29.0147 0.0321091 0)
(27.2392 0.0163657 0)
(22.821 0.00458716 0)
(22.8621 0.00359094 0)
(27.2871 0.014574 0)
(29.0668 0.0298026 0)
(29.1216 0.0294678 0)
(27.3462 0.014918 0)
(22.9058 0.00411993 0)
(22.9447 0.00312996 0)
(27.392 0.0131764 0)
(29.1717 0.0272867 0)
(29.2244 0.027102 0)
(27.4484 0.0136176 0)
(22.986 0.00369012 0)
(23.0219 0.00272525 0)
(27.4913 0.0119557 0)
(29.2716 0.0250562 0)
(29.3209 0.0249627 0)
(27.5436 0.0124384 0)
(23.0594 0.00330388 0)
(23.0907 0.00235787 0)
(27.582 0.0108511 1.07273e-18)
(29.3637 0.02307 -8.91503e-19)
(29.4083 0.0230779 0)
(27.6289 0.0113625 0)
(23.1231 0.00294152 0)
(23.1497 0.00200739 1.60924e-19)
(27.6626 0.00993547 1.33091e-18)
(29.4464 0.0214519 -1.10773e-18)
(29.487 0.0216747 2.20768e-19)
(27.705 0.0105353 -2.65759e-19)
(23.1771 0.00255542 -1.60907e-19)
(23.2012 0.0029023 1.24817e-18)
(27.7392 0.0103532 0)
(29.5236 0.0209156 -1.73631e-18)
(29.572 0.0224956 -2.57022e-24)
(27.7787 0.011146 -5.21941e-19)
(23.2446 0.00357981 -6.32932e-19)
(23.285 0.00535013 -1.77151e-18)
(27.8301 0.0126816 1.47977e-18)
(29.6233 0.0226126 0)
(29.6886 0.0219282 0)
(27.8956 0.0123498 -2.08023e-18)
(23.3682 0.00640239 1.9145e-18)
(23.426 0.00586962 -5.83359e-19)
(27.9601 0.0139123 1.95494e-18)
(29.745 0.0258334 -3.27604e-18)
(29.7935 0.0299647 5.40941e-18)
(28.0072 0.0169661 0)
(23.4575 0.00730516 -1.37943e-18)
(23.6016 0.0104408 2.57677e-18)
(28.1126 0.0174675 0)
(29.8927 0.0269499 2.28273e-19)
(29.9661 0.0250533 1.69715e-18)
(28.2026 0.0231101 -2.33657e-18)
(23.6848 -0.00633219 0)
(31.6049 0.0469828 0)
(32.5006 0.0607918 -3.49396e-19)
(33.0847 0.0656163 0)
(33.4566 0.0754423 -4.86951e-18)
(33.7549 0.107598 4.59961e-18)
(34.1295 0.126004 0)
(34.4052 0.132331 0)
(34.6889 0.139961 1.45232e-19)
(34.9109 0.140203 -1.45153e-19)
(35.13 0.141293 0)
(35.3077 0.138986 0)
(35.4823 0.136058 0)
(35.6231 0.131338 0)
(35.7608 0.125623 0)
(35.865 0.116964 2.41469e-18)
(35.9571 0.10833 -7.38367e-18)
(36.0122 0.0969449 5.17201e-18)
(36.0387 0.0862017 -2.11955e-17)
(36.025 0.0674899 2.24642e-17)
(35.938 0.0222598 8.79891e-17)
(35.7387 -0.0121087 -2.00383e-16)
(35.4815 -0.0345485 0)
(35.2425 -0.0500055 0)
(34.4018 -0.0680212 3.29609e-17)
(32.4181 -0.0440943 0)
(30.4738 -0.0217758 0)
(25.6178 -0.116769 0)
(24.9734 -0.24256 0)
(29.9016 -0.225536 -1.9322e-16)
(31.8816 -0.277687 1.68245e-16)
(29.9254 -0.90708 8.15283e-17)
(26.5588 -0.478122 1.03252e-16)
(19.1838 -0.00905468 -4.13544e-17)
(20.2715 -0.165182 0)
(27.7848 -0.231672 3.58766e-17)
(30.9637 -0.209009 -5.89564e-17)
(31.0007 -0.0358867 -3.51289e-17)
(27.6424 -0.0277749 2.75669e-18)
(19.9119 -0.0496562 -6.81567e-18)
(19.8997 -0.0388827 -1.55792e-18)
(27.7013 -0.0254168 2.54615e-18)
(31.1053 -0.0101431 -1.04073e-17)
(30.974 -0.00444446 2.12882e-18)
(27.5475 -0.0066057 2.9117e-18)
(19.6426 -0.0101138 -1.58711e-18)
(19.739 -0.0239544 3.90427e-19)
(27.6132 -0.00459171 9.96728e-18)
(31.0257 0.0126607 -1.70144e-17)
(30.9379 -0.0020141 2.14232e-18)
(27.4782 0.00386052 1.95212e-24)
(19.5686 0.007813 -3.55824e-18)
(19.669 0.0116446 3.96181e-19)
(27.5753 0.0113875 -5.21054e-18)
(31.0042 0.00418451 -4.28576e-18)
(30.9384 0.0044602 0)
(27.5244 0.0098028 0)
(19.5175 0.0124328 -3.99385e-19)
(19.631 0.00495177 0)
(27.6293 0.00818394 0)
(31.0252 0.0109304 -4.32977e-18)
(30.9817 0.00646415 4.31381e-18)
(27.5495 0.0104549 0)
(19.592 0.0162893 0)
(19.6982 0.0106408 0)
(27.6618 0.00886745 0)
(31.0732 0.0101039 -4.31116e-18)
(31.0338 0.0133054 4.31264e-18)
(27.6184 0.0100347 0)
(19.6598 0.013182 0)
(19.7731 -0.000320155 0)
(27.7313 0.00586426 0)
(31.1263 0.0200899 -4.31017e-18)
(31.0889 0.0281956 4.31102e-18)
(27.6937 0.0136501 0)
(19.742 -0.000802359 0)
(19.8632 -0.00744946 0)
(27.8063 0.00747091 0)
(31.1852 0.02627 -4.30855e-18)
(31.1508 0.0283056 4.30903e-18)
(27.7743 0.01478 0)
(19.8403 0.000197428 0)
(19.9604 -0.00929412 -3.18777e-18)
(27.8899 0.00688106 -2.61961e-18)
(31.2486 0.0275053 4.30717e-18)
(31.2162 0.0291966 4.30796e-18)
(27.8595 0.0140179 0)
(19.9325 -0.00183397 0)
(20.0535 -0.00890151 0)
(27.9749 0.00708886 0)
(31.3145 0.0275605 -4.30583e-18)
(31.2844 0.030005 4.30662e-18)
(27.947 0.0149812 0)
(20.0298 -0.00116862 0)
(20.1539 -0.00822347 0)
(28.0642 0.00867998 0)
(31.3835 0.0286791 -4.30459e-18)
(31.3532 0.030662 4.30534e-18)
(28.0369 0.0166758 0)
(20.1364 -0.00103679 0)
(20.2653 -0.00827778 0)
(28.1546 0.0108681 0)
(31.4511 0.0291024 -4.30331e-18)
(31.4229 0.0298183 4.3041e-18)
(28.1293 0.0187836 0)
(20.254 -0.000451588 0)
(20.383 -0.0034729 0)
(28.2475 0.0129962 0)
(31.5238 0.024751 -4.30199e-18)
(31.4973 0.0140424 4.30341e-18)
(28.2218 0.0167023 0)
(20.3702 0.0163096 0)
(20.49 0.00982675 0)
(28.3459 0.0154483 0)
(31.5955 0.0167626 -4.30095e-18)
(31.5717 0.0150768 4.30253e-18)
(28.3188 0.0159055 0)
(20.4744 0.0157489 0)
(20.5971 0.0110834 0)
(28.4415 0.0155092 0)
(31.671 0.0176632 -4.30008e-18)
(31.6476 0.0166885 4.3017e-18)
(28.4154 0.0164622 0)
(20.5847 0.0151238 0)
(20.709 0.0116023 0)
(28.5386 0.0159912 0)
(31.7462 0.0183634 -4.29882e-18)
(31.7242 0.0184737 4.30029e-18)
(28.5146 0.0175305 0)
(20.7003 0.0147164 0)
(20.8264 0.0127457 0)
(28.6388 0.016864 0)
(31.8242 0.018978 -4.29728e-18)
(31.803 0.0170789 4.29872e-18)
(28.6156 0.0172893 0)
(20.8205 0.0168762 0)
(20.9456 0.0120017 0)
(28.7401 0.0167974 0)
(31.9024 0.0196319 -4.29594e-18)
(31.8835 0.0178707 4.29739e-18)
(28.7183 0.0171406 0)
(20.9382 0.0163707 0)
(21.0645 0.0123294 0)
(28.8437 0.016845 0)
(31.9839 0.0201377 -4.29446e-18)
(31.9658 0.0183177 4.296e-18)
(28.823 0.0173642 0)
(21.0587 0.0165191 0)
(21.1863 0.0128278 0)
(28.9485 0.0176022 0)
(32.0657 0.0211518 -4.2931e-18)
(32.049 0.0198001 4.29452e-18)
(28.9295 0.0183666 0)
(21.1848 0.0170459 0)
(21.3152 0.013268 0)
(29.0563 0.0184013 0)
(32.1496 0.0225758 -4.29149e-18)
(32.1342 0.0204027 4.29293e-18)
(29.0389 0.0186813 0)
(21.3166 0.0174126 0)
(21.4473 0.0134337 0)
(29.1669 0.0184849 0)
(32.2353 0.0233816 -4.28991e-18)
(32.2228 0.0212071 4.29136e-18)
(29.1523 0.0182418 0)
(21.4482 0.017808 0)
(21.5768 0.0137147 0)
(29.2818 0.0176847 0)
(32.3252 0.0248607 -4.2883e-18)
(32.3135 0.0248672 4.2898e-18)
(29.2685 0.0168493 0)
(21.5768 0.015312 0)
(21.7112 0.00268137 0)
(29.3984 0.0145047 0)
(32.4149 0.0336035 -4.28676e-18)
(32.4057 0.0399832 4.28771e-18)
(29.389 0.0195442 0)
(21.7142 4.94592e-05 0)
(21.8558 -0.00402836 0)
(29.5165 0.0148962 0)
(32.51 0.0395148 -4.28493e-18)
(32.5016 0.0408349 4.28589e-18)
(29.5116 0.0209911 0)
(21.8653 0.000827798 0)
(22.0091 -0.00356411 0)
(29.6422 0.0167221 0)
(32.6062 0.0408157 -4.28293e-18)
(32.6006 0.0420805 4.28361e-18)
(29.6401 0.0223603 0)
(22.0234 0.000866464 0)
(22.1681 -0.00414237 0)
(29.7723 0.017404 0)
(32.7066 0.0420206 -4.28088e-18)
(32.7035 0.0427015 4.28176e-18)
(29.7728 0.0225 0)
(22.1817 0.000437248 0)
(22.3267 -0.0034951 0)
(29.9062 0.0179609 0)
(32.8109 0.043012 -4.27896e-18)
(32.8111 0.0438405 4.27973e-18)
(29.9096 0.0228733 0)
(22.3431 0.00137281 0)
(22.4918 -0.00364421 0)
(30.045 0.0188395 0)
(32.9199 0.0452371 -4.2771e-18)
(32.9234 0.0459555 4.27782e-18)
(30.052 0.0240723 0)
(22.5128 0.00106295 0)
(22.6655 -0.00250385 0)
(30.1912 0.0205488 0)
(33.0345 0.046954 -4.27502e-18)
(33.0427 0.0477149 4.27562e-18)
(30.2036 0.0253675 0)
(22.6931 0.00147739 0)
(22.8489 -0.00230316 0)
(30.3468 0.0215252 0)
(33.1573 0.048706 -4.27279e-18)
(33.1702 0.0492914 4.2735e-18)
(30.3641 0.0260928 0)
(22.8807 0.00171007 0)
(23.0412 -0.00202175 0)
(30.5117 0.0229362 0)
(33.2882 0.0512009 -4.27076e-18)
(33.3075 0.0518837 4.2713e-18)
(30.5354 0.0275161 0)
(23.0792 0.00165761 0)
(23.2438 -0.0014726 0)
(30.6886 0.0244976 0)
(33.4301 0.0535461 -4.26846e-18)
(33.456 0.0543067 4.26902e-18)
(30.7198 0.0290052 0)
(23.288 0.00192603 0)
(23.4584 -0.000612267 0)
(30.88 0.0268958 0)
(33.5841 0.0569639 -4.26624e-18)
(33.6182 0.0579137 4.26659e-18)
(30.92 0.0314639 0)
(23.5123 0.00279824 0)
(23.6911 0.00045752 0)
(31.0884 0.0302532 0)
(33.7525 0.0614412 -4.26376e-18)
(33.7956 0.0623269 4.26392e-18)
(31.1388 0.0352253 0)
(23.7589 0.0045124 0)
(23.9506 0.0065917 0)
(31.3171 0.0358299 0)
(33.9389 0.0649182 -4.26113e-18)
(33.9934 0.0561444 4.26119e-18)
(31.3818 0.039093 0)
(24.0387 0.0223845 0)
(24.2418 0.0194035 0)
(31.5805 0.0437086 0)
(34.1449 0.0667043 -4.25829e-18)
(34.214 0.0627364 4.25795e-18)
(31.6618 0.0437879 0)
(24.3551 0.0261785 0)
(24.5799 0.0214582 0)
(31.879 0.0505201 0)
(34.3795 0.0786945 -4.25563e-18)
(34.4664 0.0759167 4.2553e-18)
(31.9823 0.0507234 0)
(24.7265 0.032332 0)
(24.988 0.0272567 0)
(32.2254 0.0594923 0)
(34.6484 0.0981235 -4.25234e-18)
(34.7693 0.100325 4.25116e-18)
(32.3721 0.0612698 0)
(25.2128 0.0409838 0)
(25.5833 0.0436062 0)
(32.6792 0.0777274 0)
(34.9968 0.139666 0)
(35.1347 0.201077 2.13117e-18)
(32.8591 0.147643 -2.58771e-18)
(25.9182 0.116403 -3.16161e-18)
(26.2526 0.197704 0)
(33.1171 0.252273 0)
(35.3278 0.307027 -8.51924e-18)
(35.4309 0.369826 0)
(33.2422 0.322619 0)
(26.5095 0.281632 0)
(26.8908 0.332592 0)
(33.5321 0.411764 0)
(35.609 0.493881 0)
(35.684 0.625093 -1.31899e-17)
(33.6243 0.56809 1.02346e-17)
(27.0667 0.482614 0)
(27.3174 0.587153 0)
(33.7953 0.709584 0)
(35.7794 0.773858 5.24989e-19)
(35.7788 0.877021 -1.66448e-17)
(33.8058 0.830851 2.02463e-17)
(27.4212 0.704444 0)
(27.6509 0.755519 4.89567e-17)
(33.9515 0.912069 -2.01433e-17)
(35.8416 0.982966 -1.65158e-17)
(35.8547 1.06874 1.64406e-17)
(34.0132 1 0)
(27.8298 0.836796 -2.43744e-17)
(28.0368 0.924295 0)
(34.1221 1.10299 0)
(35.9093 1.17103 3.25097e-17)
(35.9279 1.22812 -5.01168e-19)
(34.1811 1.14805 3.91338e-17)
(28.2544 0.978187 -4.81402e-17)
(28.546 1.08608 -4.75557e-17)
(34.3091 1.26814 0)
(35.9881 1.34359 4.9933e-19)
(35.9746 1.45551 0)
(34.3539 1.39128 -3.80095e-17)
(28.7215 1.19049 4.67254e-17)
(28.8885 1.25465 -3.60841e-19)
(34.4206 1.47125 3.75392e-17)
(35.9763 1.54165 -3.12164e-17)
(35.9516 1.6019 3.0702e-17)
(34.4261 1.53213 3.75966e-17)
(29.04 1.31717 -4.53473e-17)
(29.2957 1.36449 -4.51841e-17)
(34.5308 1.57502 -2.87051e-19)
(35.9771 1.65975 0)
(35.9635 1.75002 6.01168e-17)
(34.5626 1.68391 -7.26313e-17)
(29.5135 1.47679 4.47057e-17)
(29.7406 1.55533 -4.40605e-17)
(34.6185 1.764 -5.60176e-19)
(35.9548 1.83284 -2.96069e-17)
(35.9115 1.91583 0)
(34.624 1.85272 3.60763e-17)
(29.9432 1.64623 -4.3463e-17)
(30.1257 1.74032 0)
(34.6326 1.95182 -5.49894e-19)
(35.8618 2.00445 -2.87617e-17)
(35.8 2.04665 2.86677e-17)
(34.6382 1.97764 -3.66693e-17)
(30.3196 1.78055 -4.27008e-17)
(30.5404 1.89893 -4.35477e-17)
(34.6317 2.08717 7.1484e-17)
(35.7447 2.13724 -5.85511e-17)
(35.6428 2.21002 1.78636e-18)
(34.5845 2.16474 -3.04714e-17)
(30.71 1.98764 4.67063e-17)
(30.9154 2.06835 4.44086e-17)
(34.5488 2.22975 -4.25239e-18)
(35.5544 2.27433 0)
(35.4376 2.36608 -2.68578e-17)
(34.5038 2.32734 8.38236e-18)
(31.1577 2.15773 -5.24194e-18)
(31.3277 2.18857 0)
(34.4598 2.46331 -7.18333e-18)
(35.3017 2.51499 0)
(35.0463 2.50555 0)
(34.3404 2.31438 5.58122e-18)
(31.5514 1.99102 6.61257e-18)
(28.9828 1.71681 -1.68589e-17)
(33.1576 2.09257 -7.63023e-18)
(34.4422 2.45485 -5.47111e-17)
(34.7542 2.68723 0)
(33.6762 2.60803 0)
(29.9489 2.2422 6.90997e-18)
(30.1674 2.45541 -4.87534e-17)
(33.7004 2.67947 4.22222e-17)
(34.6751 2.70552 -2.83872e-17)
(34.5145 2.80868 2.70224e-17)
(33.6854 2.78467 -7.8915e-17)
(30.495 2.58585 9.33196e-17)
(30.7465 2.7167 -1.75869e-16)
(33.5774 2.85908 1.451e-16)
(34.359 2.8687 -1.23241e-16)
(34.199 2.87713 -3.23457e-18)
(33.5443 2.93302 1.52212e-18)
(31.1328 2.90531 -8.77073e-17)
(31.8864 3.09297 -1.07968e-16)
(33.4386 2.94864 3.88432e-17)
(34.1522 2.93892 4.66173e-17)
(33.9826 3.19372 -1.27469e-17)
(33.5861 3.28683 0)
(31.8414 3.40411 -5.2892e-18)
(31.4412 3.57178 1.88302e-17)
(33.2491 3.34795 -8.86913e-18)
(33.601 3.27154 4.05003e-18)
(33.1906 3.34064 -1.50937e-17)
(32.9403 3.41291 4.10887e-17)
(31.2092 3.70836 -5.20515e-17)
(30.893 3.84013 6.61829e-17)
(32.5721 3.48109 3.0433e-17)
(32.73 3.4346 0)
(32.2502 3.45942 -2.08207e-17)
(32.1076 3.54506 -3.97958e-17)
(30.4884 3.9758 -7.35717e-17)
(29.9274 4.07006 0)
(31.6737 3.51934 2.46192e-17)
(31.8769 3.60624 -3.62823e-21)
(31.4911 3.60784 1.92945e-17)
(31.2509 3.59207 -2.59775e-17)
(29.5137 4.33956 -3.86994e-17)
(29.0445 4.54827 3.60091e-17)
(30.7586 3.67132 7.10305e-18)
(30.9382 3.68464 3.04046e-17)
(30.2729 3.76849 4.14815e-18)
(30.0584 3.76897 -3.77011e-17)
(28.4514 4.79109 3.49916e-17)
(27.7702 5.03884 1.03834e-16)
(29.1857 3.69667 3.65714e-17)
(29.4434 3.68987 -7.46958e-17)
(28.4148 3.69745 4.45754e-18)
(28.2199 3.71876 0)
(27.0453 5.26915 -3.46783e-17)
(26.3941 5.39039 3.715e-20)
(27.161 3.63891 5.54157e-17)
(27.3811 3.50136 -1.00049e-16)
(26.1342 3.36879 5.41589e-17)
(26.0208 3.56857 1.8029e-17)
(25.7375 5.60442 -1.35301e-16)
(25.0303 5.72895 1.83342e-16)
(24.9911 3.34194 -4.74722e-17)
(24.9827 2.99916 0)
(24.125 3.00746 -6.58716e-17)
(24.0782 3.1909 3.12784e-17)
(24.1347 5.73016 -2.13636e-16)
(23.3072 5.71438 0)
(23.0515 3.0256 -3.33804e-17)
(23.1681 2.6422 1.81982e-16)
(21.9557 2.67351 0)
(21.9686 3.01609 7.14964e-17)
(22.5023 5.77318 -4.99702e-17)
(21.6659 5.74546 1.07735e-16)
(20.9819 2.77562 8.93665e-17)
(20.8758 2.23342 8.07716e-17)
(19.9594 2.22999 -3.37944e-17)
(19.9729 2.6172 5.96882e-17)
(20.6447 5.67383 -2.54073e-16)
(19.6215 5.60546 3.34427e-17)
(18.8296 2.39515 -1.7806e-21)
(18.8676 1.9404 -5.15095e-17)
(17.7117 1.0925 -1.57103e-20)
(17.5415 1.79921 2.6779e-17)
(18.512 5.35263 3.33591e-17)
(17.1493 4.93692 0)
(16.0738 1.06707 -2.62742e-17)
(16.2229 0.0550549 -9.42536e-17)
(14.6436 -1.09386 1.48306e-16)
(14.5065 0.11362 -3.14237e-17)
(15.5307 4.15335 3.49438e-17)
(13.5844 2.96699 0)
(12.8455 -0.883935 -3.60268e-17)
(13.351 -1.92005 1.92978e-17)
(11.9623 -3.57851 1.37235e-17)
(10.9656 -2.44683 0)
(11.3758 1.23409 3.64245e-17)
(8.888 -1.05067 -3.49732e-17)
(8.92568 -4.77934 5.76106e-17)
(10.15 -6.48052 4.17843e-17)
(7.80693 -10.3412 -6.86029e-17)
(6.53048 -8.40177 0)
(5.5422 -4.68435 1.07775e-16)
(1.64014 -9.39353 -2.16754e-16)
(4.32156 -12.3272 -3.89454e-17)
(6.41076 -13.5538 4.2347e-17)
(6.2216 -19.0126 1.12877e-16)
(3.15706 -18.0516 -2.25593e-16)
(-2.12519 -15.9992 9.66145e-17)
(-5.23765 -24.9043 0)
(2.08027 -25.6753 7.18778e-17)
(5.2323 -25.9455 0)
(6.97599 -32.2133 -1.06926e-19)
(2.95311 -33.0794 -1.45376e-16)
(-7.58392 -35.5617 0)
(-6.14665 -48.5672 1.11879e-16)
(7.91205 -42.7924 0)
(11.5072 -40.8991 0)
(16.648 -48.7372 1.55228e-17)
(13.6852 -51.7185 -1.97053e-17)
(-2.57076 -62.9281 -1.48893e-16)
(5.068 -75.3758 8.39085e-17)
(24.5623 -58.6311 -5.90804e-17)
(24.5745 -55.4508 -6.14394e-17)
(35.9808 -60.3927 -4.41022e-17)
(35.2678 -66.0626 -4.94049e-17)
(17.208 -83.6226 -7.16796e-17)
(30.8743 -82.0598 7.94671e-17)
(46.9295 -63.8812 1.63954e-16)
(44.3168 -61.8343 -5.49723e-17)
(54.13 -58.6374 2.74998e-16)
(55.5737 -58.1567 -2.55952e-16)
(39.5612 -71.9936 1.28864e-16)
(43.5792 -58.5095 0)
(60.1649 -49.9551 0)
(59.0895 -53.6006 -2.20881e-16)
(61.1456 -48.7953 7.28675e-17)
(60.5255 -43.2198 0)
(42.649 -45.4949 4.61524e-17)
(40.696 -34.7426 -9.08938e-17)
(59.8666 -38.1405 0)
(62.7373 -45.4821 6.26589e-17)
(62.7713 -40.5039 -6.54201e-17)
(58.4447 -34.0972 3.05824e-17)
(38.8687 -27.5523 -8.96269e-17)
(37.4562 -22.7579 0)
(56.3839 -31.0354 2.68374e-20)
(61.9485 -36.957 3.68864e-17)
(62.6643 -35.1347 -5.94851e-17)
(55.4289 -28.868 9.61964e-17)
(36.2738 -18.7581 -8.83797e-17)
(35.3622 -15.7809 0)
(54.1733 -26.4281 2.71626e-17)
(62.1511 -31.8064 -7.87092e-17)
(60.7444 -28.8293 0)
(52.274 -24.4738 -2.98141e-17)
(34.2526 -13.6657 -2.62699e-16)
(32.8628 -11.9138 3.16184e-16)
(50.1197 -22.9657 -6.9115e-17)
(59.1509 -26.5736 0)
(60.0725 -26.0351 0)
(50.6901 -22.3027 0)
(31.944 -10.4125 1.36744e-19)
(31.4623 -9.49352 -1.59167e-16)
(49.7979 -20.9376 0)
(59.634 -24.2122 -7.42339e-17)
(58.3625 -22.4194 0)
(48.4359 -19.7955 0)
(30.8144 -8.80251 -1.62992e-16)
(29.9439 -8.08068 1.64532e-16)
(47.0805 -19.02 -6.09166e-17)
(57.1488 -20.948 7.09619e-17)
(58.3221 -20.9944 7.27356e-20)
(48.5464 -18.5739 1.06864e-16)
(30.5503 -7.40332 -7.35981e-17)
(32.1406 -7.29084 1.26489e-16)
(49.3119 -18.1241 4.90706e-21)
(58.1675 -19.9644 -1.7499e-16)
(59.8572 -20.7431 2.38467e-16)
(51.8989 -18.2514 -6.19565e-17)
(34.6927 -7.49386 0)
(35.3998 -7.57356 0)
(52.2943 -17.8932 4.53227e-17)
(60.1394 -19.6292 -6.45264e-17)
(59.3263 -18.2971 0)
(51.5152 -17.4498 -6.99325e-17)
(34.6352 -7.69999 0)
(33.9918 -7.75109 -4.60953e-17)
(50.2703 -16.8358 1.80738e-16)
(58.286 -17.2334 -2.9777e-17)
(59.0402 -17.7937 -1.95167e-16)
(51.2252 -16.19 8.67604e-17)
(35.1431 -7.6954 0)
(35.1459 -7.81963 0)
(50.7852 -15.5407 6.92237e-17)
(58.6222 -17.0006 9.83174e-21)
(57.2036 -16.0936 -3.56268e-17)
(49.5784 -14.9455 5.83104e-17)
(34.7648 -8.05112 -8.23982e-17)
(34.1681 -8.09594 1.76096e-16)
(48.3151 -14.5114 -1.17603e-16)
(55.8114 -15.3839 -2.77175e-17)
(56.3302 -15.9144 2.15421e-17)
(49.1552 -14.1919 4.12807e-17)
(35.2349 -8.19655 -8.12973e-17)
(35.6115 -8.55409 0)
(48.9424 -13.8315 -3.2436e-17)
(56.0853 -15.5939 6.29244e-17)
(55.0695 -15.0313 -1.9891e-17)
(48.2643 -13.4386 8.78642e-18)
(35.7058 -8.91 0)
(35.5918 -9.17057 1.74553e-16)
(47.2093 -13.0357 -1.02111e-16)
(53.8096 -14.4451 -3.27814e-17)
(52.6347 -13.9701 -5.84304e-17)
(46.2716 -12.7977 6.35472e-17)
(35.1205 -9.25767 -4.82792e-17)