/*--------------------------------*- C++ -*----------------------------------*\
| =========                 |                                                 |
| \\      /  F ield         | OpenFOAM: The Open Source CFD Toolbox           |
|  \\    /   O peration     | Version:  v2006                                 |
|   \\  /    A nd           | Website:  www.openfoam.com                      |
|    \\/     M anipulation  |                                                 |
\*---------------------------------------------------------------------------*/
FoamFile
{
    version     2.0;
    format      ascii;
    class       volScalarField;
    location    "0.012";
    object      Co;
}
// * * * * * * * * * * * * * * * * * * * * * * * * * * * * * * * * * * * * * //

dimensions      [0 0 0 0 0 0 0];


internalField   nonuniform List<scalar> 
24416
(
0.0135361
0.0129532
0.0140142
0.0145531
0.0147886
0.014464
0.0145628
0.014478
0.0144021
0.014438
0.0143999
0.0144756
0.0145513
0.0146164
0.0146904
0.0147661
0.0148454
0.0149271
0.0150109
0.0150963
0.0151829
0.0152702
0.0153577
0.0154451
0.0155318
0.0156176
0.015702
0.0157847
0.0158654
0.0159438
0.0160197
0.0160928
0.0161629
0.01623
0.0162939
0.0163546
0.016412
0.0164661
0.016517
0.0165645
0.016609
0.0166508
0.0166905
0.0167285
0.0167645
0.0167977
0.0168264
0.016849
0.0168654
0.0168758
0.0168812
0.0168842
0.0168859
0.0168867
0.0168869
0.0168862
0.0168836
0.016877
0.0168642
0.0168452
0.0168218
0.0167965
0.016771
0.0167455
0.0167199
0.0166938
0.0166671
0.0166398
0.016612
0.0165837
0.016555
0.016526
0.0164967
0.0164671
0.0164375
0.0164077
0.016378
0.0163484
0.0163188
0.0162896
0.0162606
0.016232
0.0162038
0.0161761
0.0161489
0.016122
0.0160951
0.0160679
0.0160404
0.0160131
0.015987
0.0159656
0.0159533
0.0159642
0.0159937
0.0161167
0.0163132
0.0168229
0.0177018
0.0197821
0.0244706
0.0348762
0.0535436
0.0431483
0.0380536
0.0379268
0.0368937
0.0353104
0.0347826
0.0333922
0.0302299
0.0328108
0.0342462
0.0311261
0.0311321
0.0294479
0.024589
0.0264098
0.02688
0.0258955
0.0260577
0.0244119
0.0221766
0.0244275
0.0249913
0.0249386
0.0245446
0.0222178
0.0216528
0.0242009
0.0247649
0.0247803
0.0242793
0.0216262
0.0212979
0.0241144
0.0247647
0.024832
0.0240545
0.0211142
0.0209188
0.0239676
0.0246267
0.0247505
0.0238821
0.0207395
0.0205688
0.0237945
0.0245377
0.0246575
0.023711
0.020408
0.0202526
0.0236269
0.0244445
0.0245623
0.0235453
0.0201029
0.0199571
0.0234621
0.0243479
0.0244634
0.0233815
0.0198168
0.0196799
0.0232994
0.0242481
0.0243621
0.0232202
0.019548
0.0194188
0.0231393
0.0241467
0.0242596
0.0230616
0.0192937
0.0191703
0.0229821
0.0240445
0.0241568
0.0229058
0.0190501
0.0189306
0.0228273
0.0239421
0.0240538
0.0227518
0.0188134
0.0186959
0.0226737
0.0238395
0.0239505
0.0225985
0.01858
0.0184631
0.02252
0.0237363
0.0238462
0.0224444
0.0183473
0.0182301
0.022365
0.0236318
0.0237401
0.0222883
0.0181138
0.017996
0.0222075
0.0235251
0.0236314
0.0221294
0.0178793
0.0177612
0.0220469
0.0234155
0.0235195
0.0219672
0.0176445
0.0175266
0.021883
0.0233024
0.023404
0.0218018
0.0174107
0.0172939
0.021716
0.0231856
0.0232847
0.0216336
0.0171793
0.0170642
0.0215465
0.0230652
0.0231619
0.021463
0.0169516
0.0168384
0.0213749
0.0229414
0.0230357
0.0212906
0.0167279
0.0166168
0.0212015
0.0228142
0.0229061
0.0211165
0.0165084
0.0163991
0.0210264
0.0226837
0.0227732
0.0209406
0.0162924
0.0161846
0.0208495
0.0225498
0.0226369
0.0207627
0.0160793
0.0159725
0.0206704
0.0224125
0.0224969
0.0205825
0.0158681
0.0157619
0.0204888
0.0222715
0.0223533
0.0203997
0.0156579
0.0155518
0.0203043
0.0221267
0.0222057
0.0202137
0.0154476
0.0153411
0.0201165
0.0219778
0.0220538
0.020024
0.0152362
0.0151286
0.0199248
0.0218248
0.0218978
0.0198303
0.0150224
0.0149128
0.0197287
0.0216675
0.0217375
0.019632
0.0148042
0.0146915
0.0195278
0.021506
0.0215729
0.019429
0.0145789
0.0144611
0.0193224
0.0213402
0.0214035
0.0192209
0.0143429
0.0142199
0.0191114
0.0211689
0.0212284
0.0190074
0.0140977
0.0139718
0.0188955
0.0209923
0.0210483
0.0187896
0.013848
0.0137213
0.0186758
0.0208108
0.0208635
0.0185685
0.0135974
0.013471
0.0184531
0.0206249
0.0206741
0.0183443
0.0133476
0.0132216
0.0182269
0.020434
0.0204794
0.0181162
0.0130989
0.0129738
0.0179967
0.0202374
0.0202784
0.0178838
0.0128522
0.0127282
0.0177618
0.0200343
0.0200706
0.0176468
0.012608
0.0124854
0.0175224
0.019824
0.0198554
0.0174052
0.0123666
0.012245
0.0172784
0.0196065
0.0196329
0.0171591
0.0121271
0.0120061
0.0170301
0.0193817
0.0194034
0.0169088
0.0118885
0.0117673
0.0167775
0.0191501
0.0191671
0.016654
0.0116492
0.011527
0.0165203
0.018912
0.0189242
0.0163945
0.0114076
0.0112835
0.016258
0.0186673
0.0186747
0.0161294
0.011162
0.0110355
0.0159897
0.0184159
0.018418
0.0158579
0.0109112
0.0107817
0.0157144
0.0181568
0.0181531
0.0155787
0.0106544
0.0105217
0.0154311
0.0178892
0.0178793
0.0152914
0.0103913
0.0102553
0.0151392
0.0176124
0.0175957
0.014995
0.0101217
0.00998248
0.0148381
0.0173255
0.0173011
0.0146889
0.00984569
0.00970367
0.0145278
0.0170279
0.0169958
0.0143738
0.00956379
0.00941876
0.0142084
0.0167194
0.01668
0.0140499
0.00927537
0.00912642
0.0138794
0.0163998
0.0163531
0.0137164
0.00897919
0.00882594
0.0135404
0.0160688
0.0160152
0.0133733
0.00867512
0.00851804
0.0131923
0.0157275
0.0156671
0.0130213
0.00836419
0.00820426
0.0128362
0.0153768
0.0153099
0.0126618
0.00804822
0.00788644
0.0124731
0.0150174
0.0149442
0.0122958
0.00772925
0.00756676
0.0121041
0.0146498
0.0145704
0.0119244
0.00740962
0.00724759
0.0117305
0.0142746
0.0141893
0.0115492
0.00709159
0.00693101
0.0113537
0.0138925
0.0138018
0.0111716
0.00677696
0.00661847
0.0109753
0.0135046
0.0134093
0.0107931
0.00646684
0.00631071
0.0105968
0.0131126
0.0130137
0.0104153
0.00616161
0.00600781
0.0102197
0.0127188
0.0126174
0.0100394
0.00586089
0.00570884
0.00984488
0.0123254
0.0122225
0.00966618
0.00556345
0.00541224
0.00947326
0.0119341
0.0118301
0.00929688
0.00526735
0.00511621
0.00910626
0.0115456
0.0114408
0.00893251
0.00497183
0.00482217
0.0087444
0.0111607
0.0110558
0.00857363
0.00468056
0.00453439
0.00838842
0.0107805
0.0106757
0.00822084
0.00439699
0.00425547
0.0080387
0.0104052
0.0103005
0.00787459
0.00412343
0.00398781
0.00769608
0.0100348
0.00993039
0.0075362
0.00386236
0.00373381
0.00736254
0.00967047
0.00956683
0.0072076
0.00361567
0.0034948
0.00703935
0.00931284
0.00921104
0.00689046
0.00338478
0.00327214
0.00672829
0.00896322
0.00886375
0.00658623
0.00317066
0.00306651
0.00643164
0.00862311
0.00852691
0.0062979
0.00297281
0.00287538
0.00615178
0.00829451
0.00820255
0.00602649
0.00278797
0.00269695
0.00588913
0.00797941
0.00789308
0.00577273
0.00261609
0.00253171
0.0056445
0.00768051
0.00760107
0.00553704
0.00245736
0.00237933
0.0054177
0.0073998
0.00732773
0.00531857
0.00231098
0.00223878
0.00520764
0.00713822
0.00707296
0.00511563
0.00217556
0.00210843
0.00501148
0.00689345
0.00683498
0.0049262
0.00205032
0.00198806
0.00482837
0.00666484
0.00661134
0.00474856
0.00193448
0.00187694
0.00465647
0.0064494
0.00640052
0.00458208
0.00182802
0.00177527
0.00449575
0.00624639
0.00620186
0.00442672
0.00173095
0.00168296
0.00434611
0.00605522
0.00601493
0.00428241
0.00164328
0.0016002
0.00420775
0.00587603
0.00583995
0.00414927
0.00156514
0.00152694
0.00408037
0.0057085
0.00567702
0.00402733
0.00149667
0.00146342
0.00396428
0.00555275
0.00552609
0.00391699
0.00143807
0.00141009
0.0038606
0.0054098
0.00538835
0.00381953
0.00138971
0.00136704
0.00377032
0.00528049
0.00526522
0.00373611
0.0013517
0.0013341
0.00369411
0.00516587
0.00515686
0.0036666
0.00132354
0.00131092
0.00363183
0.00506612
0.00506309
0.00361055
0.00130501
0.00130148
0.00358613
0.00498209
0.00498451
0.00357014
0.00129917
0.00130332
0.0035569
0.0049309
0.00492341
0.0035457
0.0013053
0.00131401
0.00354806
0.00490046
0.00488419
0.00354291
0.00132004
0.00133248
0.00355138
0.00488222
0.00485787
0.0035515
0.00134176
0.00135715
0.00356487
0.00487284
0.00484206
0.003569
0.00136893
0.00138626
0.0035856
0.00487008
0.00483481
0.00359277
0.00139969
0.00141808
0.00361158
0.00487342
0.00483671
0.00362121
0.00143251
0.00145143
0.00364175
0.00488299
0.00484504
0.00364996
0.00146512
0.00148566
0.00367528
0.00489829
0.00486772
0.00368852
0.00150093
0.0015197
0.00371088
0.00491786
0.00489425
0.00372505
0.00153466
0.00155258
0.00374744
0.00493577
0.00491809
0.00376153
0.00156646
0.00158276
0.00378304
0.0049598
0.00494228
0.00379615
0.0015948
0.0016087
0.00381584
0.00498328
0.00496472
0.00382685
0.00161803
0.00162868
0.00384361
0.00500399
0.00498317
0.00385135
0.00163451
0.00164142
0.00386405
0.0050196
0.00500406
0.00386711
0.00164332
0.00164584
0.00387398
0.00502646
0.0050191
0.00387054
0.00164286
0.00163983
0.00386997
0.00502002
0.00502409
0.00387016
0.00163608
0.00162679
0.00386495
0.00501
0.00502678
0.003862
0.00161613
0.0015984
0.00384777
0.00498369
0.00501488
0.00383511
0.00157895
0.00155201
0.00381041
0.00496458
0.00498667
0.00378646
0.00152286
0.00148564
0.0037496
0.00492697
0.00493747
0.00371218
0.00144548
0.00139668
0.00366082
0.00486622
0.00486281
0.00360772
0.00134436
0.00128288
0.00353959
0.00477802
0.00475846
0.00346849
0.00121725
0.00114165
0.00338101
0.00465816
0.00461971
0.00328869
0.00106086
0.000969209
0.00317771
0.00450093
0.0044575
0.00308153
0.00087249
0.000757857
0.00290741
0.00430677
0.0042516
0.00281795
0.000648692
0.000512697
0.00263943
0.00413467
0.00420818
0.00261205
0.00039377
0.000224247
0.00242605
0.00414396
0.00430833
0.00240642
0.000113882
0.000293368
0.00229244
0.00437112
0.00460114
0.00226819
0.000574871
0.00700419
0.00869511
0.00964105
0.010508
0.0108756
0.0108651
0.0108029
0.0104862
0.0101943
0.00964635
0.00915206
0.00836445
0.00769044
0.00674453
0.00593112
0.00490381
0.0040157
0.0029936
0.00395007
0.0053034
0.0064709
0.00765143
0.00868967
0.00977644
0.0107926
0.0119375
0.013086
0.0145299
0.0161065
0.0183113
0.0207769
0.024416
0.0281978
0.0338451
0.038964
0.0467797
0.0527447
0.062645
0.06898
0.0840723
0.0936755
0.100211
0.10083
0.1062
0.136348
0.195647
0.205702
0.186279
0.165456
0.138644
0.11894
0.0880136
0.0793381
0.110521
0.132656
0.12034
0.10376
0.0760673
0.0625977
0.0873396
0.102551
0.0917616
0.0810791
0.0594578
0.0535095
0.0756028
0.0878528
0.0835425
0.0728634
0.0514366
0.0498167
0.0726472
0.0845195
0.0825946
0.0705314
0.0481389
0.0476361
0.0715798
0.0843921
0.0827949
0.0698631
0.0462529
0.0458943
0.0706223
0.0841772
0.0836383
0.069331
0.0446925
0.0446571
0.0701874
0.0846651
0.0838467
0.0689961
0.0437138
0.043717
0.0695761
0.0845112
0.0849811
0.0692936
0.0433544
0.0432702
0.0691995
0.0848084
0.0856038
0.0695725
0.0433092
0.0432248
0.0692461
0.0851163
0.0864845
0.069907
0.0435655
0.0434804
0.069256
0.0855404
0.0872172
0.0705277
0.0441521
0.0440659
0.0697147
0.0860152
0.0882175
0.0711978
0.0449452
0.0448576
0.0701175
0.0866058
0.0891062
0.0721985
0.0460495
0.0460936
0.0712547
0.0873905
0.0902663
0.0732148
0.0473137
0.0473664
0.0720246
0.0881524
0.091404
0.0745948
0.0488401
0.0490562
0.0738045
0.0896932
0.0928595
0.0760327
0.0505017
0.0507065
0.0749803
0.0904476
0.09436
0.0778465
0.052402
0.0527912
0.0772495
0.0928238
0.096353
0.0798181
0.054487
0.0548801
0.0789516
0.0941043
0.0984509
0.0822211
0.0568714
0.0575268
0.0819266
0.0972153
0.101291
0.0849891
0.0596087
0.0604667
0.0848031
0.0997561
0.104042
0.0880742
0.0627532
0.064077
0.0887077
0.103784
0.10879
0.0926951
0.0669428
0.0689627
0.0935606
0.108207
0.114334
0.0983732
0.0724355
0.0752329
0.100194
0.114731
0.121624
0.105838
0.079445
0.0818239
0.106859
0.121181
0.128564
0.113
0.086287
0.0886215
0.114827
0.129912
0.139436
0.123294
0.094553
0.097083
0.125811
0.141601
0.149397
0.135258
0.105507
0.110432
0.13231
0.136141
0.378099
0.266347
0.156414
0.136209
0.209728
0.28519
0.186227
0.165389
0.128822
0.124834
0.154715
0.169707
0.218048
0.161484
0.130996
0.138545
0.219137
0.234312
0.226533
0.236888
0.213312
0.17889
0.208863
0.220692
0.210279
0.204058
0.182622
0.183659
0.185908
0.175243
0.311928
0.220216
0.194549
0.225707
0.27414
0.358614
0.279246
0.268452
0.233499
0.246144
0.262583
0.260589
0.258593
0.26615
0.255106
0.275764
0.278532
0.26344
0.261582
0.281267
0.285576
0.317522
0.308012
0.338377
0.451234
0.382179
0.349185
0.366165
0.362936
0.342135
0.282166
0.331458
0.356882
0.379235
0.345396
0.333708
0.439195
0.39556
0.390204
0.370632
0.33394
0.27219
0.268494
0.297188
0.348665
0.331066
0.286111
0.297185
0.243106
0.281562
0.279261
0.279548
0.472438
0.409224
0.440502
0.493808
0.266514
0.230465
0.374776
0.335333
0.272813
0.297796
0.204233
0.165614
0.301554
0.316167
0.236532
0.261404
0.110451
0.0541656
0.175106
0.117484
0.0545048
0.0664021
0.0208816
0.0283464
0.050535
0.0645468
0.0304718
0.0336044
0.0329208
0.038975
0.0443593
0.0577873
0.0523517
0.040924
0.0409478
0.0417832
0.0421478
0.0384927
0.0647185
0.0515891
0.0441877
0.0406424
0.0421032
0.0513901
0.0458855
0.0470691
0.0408636
0.053927
0.064208
0.0736266
0.0575803
0.0482931
0.0354751
0.0284322
0.0392496
0.0468135
0.0695121
0.0518519
0.030105
0.0319411
0.0556461
0.0758737
0.0382836
0.0358285
0.0260497
0.0274824
0.0481793
0.0651319
0.0719155
0.0528599
0.0296268
0.0241086
0.033508
0.0357845
0.0621589
0.0458743
0.0258109
0.028386
0.0514605
0.0703832
0.035355
0.0329369
0.0232749
0.0248017
0.045045
0.0615094
0.0695613
0.0504871
0.0274524
0.0226721
0.0323626
0.0347131
0.06254
0.0452473
0.024581
0.0273664
0.0495765
0.0681393
0.0498068
0.0397949
0.0247479
0.0281935
0.0481075
0.062601
0.0358573
0.0332967
0.0236903
0.0250842
0.0444973
0.0604552
0.0686293
0.0507082
0.0280496
0.0231139
0.0328828
0.0354188
0.0609433
0.0445001
0.0243275
0.0277926
0.0511085
0.0696443
0.0356242
0.0331284
0.0232134
0.0248711
0.0461564
0.0640543
0.0687014
0.0503122
0.0276098
0.0254313
0.0414812
0.0522293
0.064246
0.0491383
0.0285112
0.0245184
0.0348569
0.0375866
0.0657473
0.0478201
0.0263348
0.0290786
0.0523129
0.0708271
0.05341
0.0427162
0.0266389
0.0296708
0.0506764
0.0659003
0.0388717
0.0359946
0.0255643
0.0272243
0.0487258
0.066236
0.0731599
0.0540679
0.0298703
0.0250983
0.0360313
0.0389477
0.0696436
0.0502392
0.0268974
0.0298657
0.0543805
0.0736232
0.0584293
0.0460203
0.0281085
0.030871
0.0519361
0.0680363
0.0573351
0.04595
0.0288731
0.0319292
0.0531194
0.0682042
0.0423084
0.0390924
0.0279419
0.029716
0.0531139
0.0726032
0.075242
0.0561794
0.0316109
0.0294101
0.0470955
0.059216
0.07048
0.0548219
0.032888
0.0285791
0.0398026
0.0428814
0.0748918
0.0547551
0.0306754
0.0327884
0.0576141
0.0774089
0.0629738
0.0497999
0.0310385
0.0340273
0.0557223
0.0719489
0.0617491
0.0497792
0.0320956
0.0350066
0.0568324
0.0724685
0.0453044
0.0419723
0.0304131
0.0326823
0.0569858
0.0775058
0.0797114
0.0596514
0.0347254
0.0327194
0.0521146
0.0657207
0.073545
0.0571475
0.0351182
0.0333002
0.0518839
0.0643844
0.0734964
0.057644
0.0354534
0.03135
0.0431932
0.0466619
0.08013
0.0589876
0.0336721
0.0358264
0.0616897
0.0807075
0.0673124
0.0536248
0.0340715
0.0365138
0.058796
0.0748528
0.0652864
0.0528064
0.034352
0.0372174
0.0597693
0.0752995
0.0477819
0.0443807
0.03273
0.0350603
0.0605838
0.082426
0.0827666
0.0626908
0.0371221
0.0351026
0.0549931
0.0691417
0.0762255
0.0599068
0.0375699
0.0360133
0.0556567
0.0696396
0.0755904
0.0596601
0.038292
0.0362013
0.0549163
0.0680078
0.076323
0.0608535
0.0387599
0.0339457
0.0460075
0.049528
0.084154
0.0622068
0.0363226
0.0374948
0.0633401
0.0841674
0.0705584
0.0561616
0.0355301
0.0376705
0.0603146
0.0767752
0.0712544
0.0570284
0.036866
0.0386597
0.0599298
0.0759746
0.0709396
0.0568186
0.0370327
0.0393486
0.0606976
0.0757511
0.0686424
0.0556208
0.0370724
0.0399033
0.0619021
0.0770596
0.0496776
0.0462895
0.0347855
0.037722
0.0632019
0.0845572
0.0844935
0.0641071
0.0385491
0.0364545
0.0565365
0.070807
0.0758534
0.0605372
0.0387128
0.0376289
0.0572801
0.0710205
0.0748895
0.0601134
0.039222
0.0377242
0.0570252
0.0709765
0.0752221
0.0602578
0.0398463
0.0378644
0.0559136
0.0685264
0.075405
0.0609584
0.0401277
0.0349739
0.0462647
0.0497123
0.083633
0.0626129
0.0375176
0.038341
0.0632086
0.082271
0.070047
0.0561435
0.0365565
0.0380502
0.058832
0.0743369
0.0696162
0.0562228
0.0371432
0.0386401
0.0587305
0.0723468
0.0689261
0.0556054
0.0369357
0.0387089
0.0585569
0.0724077
0.0663802
0.0543261
0.0369749
0.0390343
0.0591811
0.0730259
0.0474609
0.0444964
0.0340641
0.0364346
0.0602123
0.0801413
0.0792463
0.0604119
0.0368788
0.0351509
0.0537752
0.0669315
0.0707514
0.0563663
0.0366517
0.0355254
0.0536664
0.066458
0.0691124
0.0558744
0.0369586
0.0355893
0.0532226
0.0658468
0.0690365
0.0556732
0.0370469
0.0353818
0.0517423
0.063098
0.0680442
0.0558146
0.0371212
0.0326082
0.0424311
0.0452075
0.0755888
0.0568069
0.0344187
0.0348085
0.0565687
0.0733377
0.0628176
0.0505613
0.0333752
0.0347938
0.0530775
0.0658673
0.0619483
0.0501264
0.0334526
0.0345327
0.0516209
0.0639486
0.0609313
0.0495148
0.0333995
0.034603
0.0514344
0.063073
0.0576651
0.0474086
0.0326529
0.0340828
0.0507124
0.06222
0.04087
0.0383408
0.0296524
0.0321806
0.0522751
0.0688874
0.0662061
0.0518226
0.032266
0.0306175
0.0460749
0.0568432
0.0591539
0.0479523
0.0316893
0.0305049
0.0453815
0.0557265
0.0570994
0.0470569
0.031523
0.03034
0.0446132
0.054578
0.0562981
0.0462935
0.0314228
0.0295745
0.0423957
0.0514151
0.0546691
0.0449541
0.0308275
0.0270998
0.034525
0.0365773
0.0603851
0.0459633
0.0284056
0.0278526
0.0444732
0.0572324
0.0494854
0.0400446
0.0266619
0.0274786
0.0413901
0.0511523
0.0478142
0.0391234
0.026618
0.0272839
0.0399863
0.0489479
0.0446833
0.0370134
0.0256914
0.0265002
0.0388373
0.0475499
0.031165
0.0294201
0.0231801
0.0245938
0.0394607
0.0516248
0.0491842
0.0380292
0.0239686
0.0226599
0.034016
0.0420002
0.0430397
0.0350034
0.0234062
0.0225801
0.0331859
0.0403115
0.0405155
0.0335824
0.0229489
0.0216857
0.0309071
0.0372686
0.0386256
0.0321268
0.0222994
0.0195114
0.0245078
0.0258089
0.0420925
0.0325343
0.0205519
0.0196846
0.0311795
0.0391602
0.0338162
0.0276784
0.0186644
0.0189103
0.0278694
0.0341205
0.0308082
0.0257837
0.0180573
0.0181098
0.0262799
0.0313913
0.0206579
0.0197403
0.0158754
0.0167506
0.0262378
0.0336849
0.0312677
0.0246463
0.0157033
0.0148938
0.0219901
0.0267725
0.0263679
0.0218403
0.0150102
0.0142415
0.0201497
0.0239354
0.0235266
0.0198075
0.013972
0.0122782
0.0151502
0.0158326
0.02503
0.0196829
0.0127496
0.0115672
0.0176772
0.0218735
0.0191979
0.0159187
0.0109178
0.010493
0.0147627
0.0174536
0.0162806
0.0138174
0.00996097
0.0093295
0.0126478
0.0145223
0.00999092
0.00967432
0.00805313
0.00842117
0.0122901
0.0150987
0.0119904
0.0100921
0.00709629
0.00658484
0.00908098
0.0106752
0.00799249
0.00733143
0.00573991
0.00502741
0.00583088
0.00593893
0.00801704
0.00690772
0.00502964
0.0035654
0.00434748
0.00458599
0.00477552
0.00424014
0.00328109
0.00197166
0.001569
0.00120871
0.00177301
0.00167243
0.00170629
0.00150272
0.00130722
0.00153067
0.00343954
0.00178989
0.000686543
0.000359855
0.00134724
0.00189748
0.00667893
0.004383
0.00190372
0.00163862
0.00252576
0.00280971
0.00696698
0.00444688
0.00209508
0.00424628
0.00851986
0.012328
0.00775922
0.00613866
0.00387894
0.00647736
0.0113475
0.0154232
0.00752766
0.00708769
0.00541378
0.00623666
0.01057
0.0147502
0.022191
0.015989
0.00905042
0.00752616
0.00956004
0.0100143
0.0196884
0.0143431
0.0087488
0.0121537
0.0209036
0.02856
0.012778
0.012345
0.0098792
0.011127
0.0181683
0.0247076
0.034641
0.0257151
0.0150565
0.0123972
0.0152081
0.0156853
0.0304057
0.0227551
0.0143423
0.0183432
0.0309304
0.0417164
0.0186462
0.0181756
0.0148207
0.0168795
0.0265997
0.035579
0.0492754
0.0372966
0.0226127
0.0184651
0.0219219
0.0220938
0.0412578
0.0313348
0.0203792
0.0257677
0.0422043
0.0557528
0.0247484
0.024471
0.0208588
0.023791
0.0352821
0.045909
0.0641496
0.0482683
0.029855
0.0223695
0.0245724
0.0237974
0.0339619
0.0309272
0.0245711
0.0263172
0.0391023
0.0514947
0.0722943
0.054066
0.0333123
0.0237163
0.0252845
0.0242789
0.0297499
0.0291947
0.0259286
0.0249909
0.0291625
0.0302381
0.0296762
0.0291571
0.0258152
0.0255388
0.0298057
0.0305435
0.0367533
0.0340759
0.0271408
0.0284534
0.0430379
0.0564649
0.0813343
0.0597522
0.0361045
0.0246389
0.0268034
0.0259414
0.0286614
0.0278595
0.0239837
0.0220114
0.0261352
0.0275244
0.0266905
0.0252715
0.0212207
0.0200909
0.0240466
0.0255818
0.0250716
0.023584
0.0195867
0.0189796
0.0228418
0.0244743
0.0241601
0.0226345
0.0187417
0.0184143
0.0222571
0.0238086
0.0236534
0.0221075
0.0182731
0.018153
0.0219799
0.02352
0.0234171
0.0218808
0.0180547
0.0179679
0.0217888
0.0233194
0.0232529
0.0217244
0.0179001
0.0178382
0.0216637
0.0231895
0.0231911
0.02162
0.0177872
0.0177382
0.0215714
0.0230471
0.0230662
0.0215438
0.0177021
0.0176661
0.021513
0.0230343
0.0230168
0.0214944
0.0176371
0.0176063
0.0214665
0.0229867
0.022979
0.0214568
0.017586
0.0175633
0.0214405
0.0229625
0.0230053
0.0214351
0.0175459
0.0175248
0.0214176
0.0228947
0.0229429
0.0214172
0.0175131
0.0174978
0.0214084
0.0229343
0.0229848
0.0214102
0.0174871
0.0174716
0.0213981
0.0228797
0.0229337
0.0214029
0.017465
0.0174541
0.0213981
0.022929
0.0229838
0.0214039
0.0174474
0.0174352
0.0213946
0.0228821
0.0229387
0.0214023
0.0174318
0.0174236
0.0213996
0.0229359
0.0229931
0.0214076
0.0174195
0.0174096
0.0214
0.022896
0.022951
0.021409
0.0174081
0.0174017
0.0214074
0.0229497
0.0230077
0.0214167
0.0173996
0.0173913
0.0214107
0.0229136
0.0229672
0.02142
0.0173912
0.0173862
0.0214191
0.0229678
0.0230251
0.021429
0.0173854
0.0173784
0.0214248
0.0229335
0.0229855
0.0214335
0.0173795
0.0173756
0.0214332
0.0229874
0.0230441
0.0214434
0.0173758
0.0173699
0.0214406
0.0229543
0.0230052
0.0214488
0.017372
0.0173691
0.0214495
0.0230086
0.0230644
0.0214595
0.0173702
0.0173653
0.021458
0.0229763
0.0230262
0.0214659
0.0173683
0.0173663
0.0214675
0.0230311
0.0230396
0.0214769
0.0173681
0.0173649
0.0214779
0.023046
0.0230485
0.0214849
0.0173685
0.0173673
0.0214876
0.0230552
0.0230626
0.0214967
0.0173699
0.0173682
0.0214995
0.0230711
0.0230725
0.0215056
0.0173719
0.0173716
0.0215097
0.0230812
0.0230874
0.0215184
0.0173751
0.017375
0.0215233
0.0230983
0.0230989
0.0215285
0.0173789
0.0173797
0.0215344
0.0231095
0.0231144
0.0215426
0.0173838
0.0173852
0.0215494
0.0231277
0.0231283
0.0215537
0.0173894
0.0173921
0.0215623
0.0231406
0.0231905
0.0215697
0.0173963
0.0173987
0.0215779
0.0231133
0.0231614
0.0215825
0.0174031
0.0174076
0.0215929
0.0231745
0.0232228
0.0215992
0.0174121
0.017416
0.0216097
0.0231484
0.0231973
0.0216145
0.0174206
0.0174264
0.0216257
0.0232108
0.0232124
0.0216311
0.0174311
0.0174371
0.021645
0.0232331
0.0232361
0.0216497
0.0174419
0.0174491
0.0216623
0.0232505
0.0232986
0.0216671
0.017454
0.0174609
0.0216824
0.0232276
0.0232785
0.0216879
0.0174661
0.0174746
0.0217015
0.0232935
0.0232962
0.0217065
0.0174797
0.0174887
0.0217239
0.0233191
0.0233239
0.0217299
0.0174947
0.0175038
0.0217441
0.0233396
0.0233434
0.0217496
0.0175091
0.0175195
0.0217683
0.0233671
0.0233729
0.0217751
0.0175263
0.0175363
0.0217902
0.0233895
0.0233943
0.021796
0.0175418
0.0175537
0.021816
0.0234187
0.0234254
0.0218237
0.0175613
0.017572
0.0218395
0.0234429
0.0234486
0.0218459
0.017578
0.0175911
0.0218671
0.0234739
0.0234816
0.0218757
0.0175996
0.0176111
0.0218923
0.0234998
0.0235065
0.0218996
0.0176179
0.0176318
0.0219216
0.0235326
0.0235412
0.021931
0.017641
0.0176533
0.0219484
0.0235602
0.0235679
0.0219565
0.0176608
0.0176755
0.0219793
0.0235948
0.0236043
0.0219896
0.0176855
0.0176988
0.0220082
0.0236243
0.0236797
0.0220167
0.017707
0.017722
0.02204
0.023613
0.0236711
0.0220515
0.0177329
0.017747
0.022071
0.023692
0.0237484
0.0220804
0.0177561
0.0177719
0.0221044
0.0236821
0.0237411
0.0221167
0.0177835
0.0177981
0.0221366
0.0237627
0.0237728
0.0221472
0.0178079
0.0178247
0.0221723
0.0238021
0.0238141
0.0221849
0.0178368
0.017852
0.0222054
0.0238364
0.0238475
0.0222167
0.0178624
0.0178799
0.0222425
0.0238775
0.0238904
0.0222559
0.0178927
0.0179086
0.0222775
0.0239135
0.0239729
0.0222892
0.0179197
0.0179374
0.0223153
0.0239079
0.0239699
0.0223299
0.0179509
0.0179677
0.0223523
0.0239938
0.0240541
0.0223648
0.0179794
0.0179978
0.0223915
0.0239896
0.0240524
0.0224068
0.018012
0.0180292
0.0224296
0.0240769
0.0240903
0.0224431
0.0180417
0.018061
0.022471
0.0241224
0.0241375
0.0224864
0.0180757
0.0180933
0.0225097
0.0241626
0.0241767
0.0225238
0.0181062
0.018126
0.0225522
0.0242094
0.0242252
0.0225684
0.0181412
0.0181594
0.0225925
0.024251
0.0243139
0.0226069
0.0181727
0.0181927
0.0226354
0.0242502
0.0243155
0.0226525
0.0182084
0.0182273
0.0226773
0.024342
0.0244055
0.0226922
0.0182412
0.0182616
0.0227213
0.0243419
0.0244079
0.0227389
0.0182778
0.0182972
0.0227642
0.0244349
0.0244993
0.02278
0.0183117
0.0183327
0.0228094
0.0244843
0.0245018
0.0228271
0.0183491
0.0183684
0.0228523
0.0245293
0.0245456
0.0228686
0.0183832
0.0184046
0.0228989
0.0245804
0.0245984
0.0229169
0.0184216
0.0184414
0.0229428
0.0245772
0.0246924
0.0229596
0.0184566
0.0184784
0.02299
0.0246288
0.0246966
0.0230087
0.0184957
0.0185159
0.0230349
0.0247246
0.0247415
0.0230518
0.0185314
0.0185535
0.0230828
0.0247769
0.0247955
0.0231016
0.0185711
0.0185916
0.0231282
0.0248239
0.0248906
0.0231451
0.0186072
0.0186293
0.0231759
0.024827
0.0248959
0.0231953
0.018647
0.0186677
0.023222
0.0249246
0.0249421
0.0232395
0.0186836
0.0187063
0.023271
0.024978
0.0249971
0.0232902
0.0187242
0.018745
0.023317
0.0250259
0.0250437
0.0233347
0.0187611
0.0187838
0.0233663
0.0250798
0.025099
0.0233857
0.0188019
0.0188231
0.0234127
0.0251279
0.0252463
0.0234771
0.0188394
0.0188619
0.0234617
0.0251818
0.0252008
0.0234808
0.0188795
0.0189005
0.0234619
0.0251303
0.025299
0.0235267
0.0189171
0.0189399
0.023558
0.0252341
0.0253043
0.0235778
0.0189583
0.0189796
0.0236051
0.0253333
0.0254015
0.0236227
0.0189959
0.0190185
0.0236539
0.0253362
0.0254067
0.0236738
0.0190368
0.019058
0.0237011
0.0254357
0.0255041
0.0237186
0.0190743
0.0190968
0.0237498
0.0254383
0.0255089
0.0237697
0.0191152
0.0191363
0.0237969
0.0255379
0.0256063
0.0238143
0.0191525
0.019175
0.0238453
0.02554
0.0256107
0.0238651
0.0191932
0.0192143
0.0238921
0.0256394
0.0257079
0.0239093
0.0192304
0.0192527
0.0239401
0.0256408
0.0257115
0.0239597
0.0192708
0.0192917
0.0239865
0.0257401
0.0258085
0.0240035
0.0193076
0.0193297
0.024034
0.0257408
0.0258114
0.0240534
0.0193476
0.0193683
0.0240799
0.0258396
0.0259079
0.0240965
0.019384
0.0194058
0.0241267
0.0258394
0.0259098
0.0241457
0.0194235
0.019444
0.024172
0.0259377
0.0260058
0.0241886
0.0194595
0.0194811
0.0242182
0.025988
0.0260062
0.0242363
0.0194982
0.019518
0.0242619
0.0259819
0.0261021
0.0242782
0.0195331
0.0195544
0.0243076
0.0260318
0.0261018
0.0243258
0.0195715
0.0195913
0.0243511
0.0261286
0.026196
0.0243667
0.0196062
0.0196269
0.0243954
0.0261767
0.0261938
0.0244124
0.0196432
0.0196622
0.0244371
0.0261682
0.026288
0.0244526
0.0196767
0.0196972
0.0244809
0.0262679
0.0262844
0.0244976
0.0197133
0.0197318
0.0245213
0.0263101
0.0263243
0.0245359
0.0197455
0.0197655
0.0245637
0.0263565
0.0263723
0.0245798
0.019781
0.0197991
0.0246031
0.0263448
0.0264637
0.0246169
0.0198124
0.0198317
0.0246439
0.0263893
0.0264574
0.0246596
0.0198468
0.0198646
0.0246824
0.0264815
0.0265467
0.024695
0.0198771
0.0198957
0.024721
0.0264712
0.0265387
0.0247359
0.01991
0.0199269
0.0247576
0.026562
0.0265736
0.0247697
0.0199388
0.0199569
0.0247953
0.0266032
0.0266164
0.0248091
0.0199706
0.0199869
0.0248301
0.0266389
0.0267026
0.024841
0.019998
0.0200153
0.0248657
0.0266248
0.0267439
0.0248788
0.0200283
0.0200436
0.0248984
0.0267117
0.0267212
0.0249086
0.020054
0.0200704
0.0249323
0.0267493
0.0267605
0.0249443
0.0200825
0.0200971
0.0249632
0.0267812
0.0267894
0.0249729
0.0201075
0.0201224
0.0249951
0.0268164
0.0268263
0.0250057
0.0201335
0.0201475
0.025024
0.0267927
0.0269072
0.0250334
0.0201578
0.0201713
0.0250537
0.0268788
0.0268874
0.0250631
0.0201814
0.0201944
0.0250802
0.0268527
0.0269666
0.02509
0.0202045
0.0202158
0.0251073
0.0268828
0.0269443
0.0251166
0.0202258
0.0202376
0.0251323
0.0269618
0.0270234
0.0251431
0.0202476
0.0202568
0.0251563
0.026935
0.0269952
0.0251652
0.0202667
0.0202763
0.0251788
0.0270115
0.027076
0.0251909
0.0202861
0.0202935
0.0252003
0.026982
0.0270435
0.0252106
0.0203031
0.0203108
0.0252202
0.027056
0.0271235
0.0252336
0.0203204
0.0203256
0.0252389
0.0270233
0.0270881
0.0252505
0.0203352
0.0203412
0.0252564
0.0270946
0.0271654
0.0252709
0.0203502
0.0203534
0.0252721
0.0270589
0.0271268
0.025285
0.0203626
0.0203674
0.0252895
0.027131
0.0272011
0.0253023
0.020375
0.020377
0.0253016
0.0270902
0.0271594
0.0253134
0.0203848
0.0203884
0.0253166
0.0271623
0.0272304
0.0253276
0.0203945
0.0203953
0.0253256
0.0271183
0.0271854
0.0253355
0.0204017
0.020404
0.0253372
0.0271869
0.0272531
0.0253464
0.0204086
0.0204081
0.0253429
0.0271395
0.0272047
0.0253511
0.020413
0.0204138
0.0253513
0.0272049
0.0272144
0.0253583
0.0204169
0.020415
0.0253532
0.0272076
0.0272169
0.0253599
0.0204186
0.0204181
0.0253584
0.0272153
0.0272775
0.0253638
0.0204196
0.0204162
0.0253569
0.0271604
0.0272763
0.0253616
0.0204181
0.020416
0.0253583
0.0271643
0.0272784
0.0253614
0.0204159
0.0204111
0.0253532
0.0272141
0.0272195
0.0253561
0.0204115
0.0204077
0.0253507
0.02716
0.0272722
0.0253521
0.020406
0.0203996
0.0253419
0.0271518
0.0272088
0.0253425
0.0203983
0.0203932
0.0253358
0.027202
0.0272033
0.0253352
0.02039
0.020382
0.0253231
0.0271896
0.0271904
0.0253219
0.0203791
0.0203723
0.0253132
0.0271818
0.0271809
0.0253104
0.0203672
0.0203575
0.0252963
0.0271651
0.0271637
0.0252929
0.0203527
0.0203442
0.0252822
0.027153
0.0271499
0.0252772
0.0203373
0.0203259
0.0252612
0.0271321
0.0271285
0.0252557
0.0203195
0.0203093
0.025243
0.0271157
0.0271104
0.025236
0.0203007
0.0202876
0.0252179
0.0270906
0.0270847
0.0252102
0.0202793
0.0202673
0.0251954
0.0270698
0.0270622
0.0251863
0.020257
0.0202421
0.0251661
0.0270403
0.0270321
0.0251563
0.0202321
0.0202185
0.0251395
0.0270151
0.0270055
0.0251282
0.0202064
0.0201897
0.0251059
0.0269813
0.0269709
0.025094
0.0201779
0.0201625
0.025075
0.0269516
0.0269397
0.0250615
0.0201486
0.0201301
0.0250371
0.0269134
0.0269007
0.025023
0.0201166
0.0200994
0.0250019
0.0268793
0.026865
0.0249863
0.0200839
0.0200638
0.0249599
0.0268366
0.0268218
0.0249437
0.0200485
0.0200297
0.0249205
0.0267982
0.0267819
0.0249029
0.0200125
0.0199907
0.0248744