/*--------------------------------*- C++ -*----------------------------------*\
| =========                 |                                                 |
| \\      /  F ield         | OpenFOAM: The Open Source CFD Toolbox           |
|  \\    /   O peration     | Version:  v2006                                 |
|   \\  /    A nd           | Website:  www.openfoam.com                      |
|    \\/     M anipulation  |                                                 |
\*---------------------------------------------------------------------------*/
FoamFile
{
    version     2.0;
    format      ascii;
    class       volScalarField;
    location    "0.012";
    object      omega;
}
// * * * * * * * * * * * * * * * * * * * * * * * * * * * * * * * * * * * * * //

dimensions      [0 0 -1 0 0 0 0];


internalField   nonuniform List<scalar> 
31566
(
9383.85
9378.95
9361.68
9367.46
9380.3
9400.95
9430.87
9468.98
9516.41
9572.43
9639.51
9720.3
9820.88
9950.53
10125.4
10374.2
10751.4
11370.1
12492.8
14847.3
21118.5
48100.1
63231
65396
60206.5
49491.2
35886.8
19165.7
5245.53
1074.53
231.468
15.1266
1.03707
0.167831
0.290693
0.393886
0.438307
0.183143
0.263248
0.157182
0.117389
0.099062
0.0258303
0.0109538
0.00716579
0.00623233
0.00601318
0.00597214
0.00598303
0.00599764
0.0060091
0.00601677
0.00602129
0.00602321
0.00602341
0.00602313
0.00602267
0.00602181
0.00601841
0.00601084
0.00600011
0.00598844
0.00597688
0.00596537
0.00595364
0.00594158
0.00592923
0.00591677
0.00590451
0.00589297
0.005883
0.00587615
0.0058752
0.00588524
0.0059156
0.00598345
0.00612033
0.0063843
0.00688187
0.00780728
0.00951147
0.0126197
0.0182254
0.0281961
0.0456461
0.0756943
0.126823
0.213533
0.361295
0.614021
1.03952
1.7164
2.66955
3.75074
4.62081
5.0727
5.29588
5.93155
7.6153
11.3921
19.9172
22.0078
16.8087
38.1925
97.6201
237.988
782.457
6879.08
37828.3
549901
542602
80486.8
17920.1
27453.8
100680
533910
520761
108088
32955.9
37196.4
112557
502047
487547
111576
39837.6
42443.2
113731
474164
468292
113861
43712.1
45500.6
116855
465958
465370
116647
46201.3
47406
116660
461558
458627
116719
47685
48512.2
116937
455629
453290
117161
48688.9
49358.8
117630
450832
448897
117946
49503.7
50120.8
118528
446858
445227
118891
50251.3
50840.6
119514
443510
442101
119886
50957.9
51522.6
120516
440625
439384
120882
51629.1
52176.4
121503
438083
436967
121859
52276.7
52814.3
122469
435790
434764
122818
52910.1
53439.6
123420
433671
432705
123766
53529.7
54047.8
124363
431661
430728
124707
54130.8
54635.8
125299
429705
428787
125642
54711.8
55204.2
126227
427770
426857
126566
55274
55755.7
127142
425839
424927
127475
55819.7
56292
128035
423906
422995
128361
56349.7
56810.3
128895
421975
421068
129201
56859.1
57306
129713
420049
419147
129983
57343
57769.4
130459
418132
417240
130685
57793
58197.6
131120
416237
415360
131311
58209.3
58593
131697
414372
413512
131857
58593.1
58954.8
132185
412544
411702
132316
58947.9
59294.7
132591
410756
409940
132701
59282.9
59620.8
132949
409012
408192
133044
59603.4
59924.9
133254
407253
406432
133325
59900.7
60211
133502
405511
404706
133556
60183.5
60486.5
133704
403816
403039
133740
60455.6
60750.1
133856
402187
401442
133876
60715.7
61001.6
133964
400628
399911
133972
60964
61242.2
134040
399126
398429
134039
61201.6
61471.1
134087
397664
396982
134073
61426.7
61685.2
134107
396231
395560
134076
61636.4
61882.8
134094
394817
394155
134046
61829.5
62063.4
134045
393419
392764
133980
62005.4
62226.8
133958
392037
391391
133857
62163.7
62371.9
133816
390675
390043
133681
62303.9
62499.7
133621
389341
388722
133454
62427.4
62612.4
133380
388034
387429
133188
62536.4
62712.1
133103
386755
386161
132894
62633.4
62801.7
132803
385497
384911
132586
62720.9
62883.2
132494
384254
383671
132275
62800.8
62958.4
132184
383015
382433
131970
62874.9
63028
131883
381775
381191
131674
62943.2
63090.6
131589
380530
379944
131385
63004
63144.7
131303
379278
378689
131101
63055.8
63189.7
131019
378018
377429
130817
63097.5
63226.8
130734
376753
376162
130532
63130.3
63254.6
130448
375484
374894
130244
63153.3
63272
130158
374215
373630
129948
63165.3
63276.8
129857
372951
372371
129637
63162.3
63264.6
129539
371696
371123
129305
63141
63234
129201
370453
369888
128954
63102.1
63186.3
128839
369223
368668
128570
63043.3
63123
128439
368013
367469
128140
62979.1
63057.4
127995
366826
366297
127670
62912.5
62989.3
127512
365676
365168
127165
62837.9
62910.8
126998
364576
364090
126636
62751.2
62821.1
126466
363526
363061
126103
62657.5
62725.4
125930
362521
362073
125571
62561.2
62628
125400
361556
361124
125050
62466
62533.7
124887
360626
360205
124555
62379.3
62450.7
124405
359718
359300
124098
62308.8
62385.2
123962
358814
358395
123673
62255.2
62337.4
123546
357909
357491
123269
62219
62314
123151
357003
356577
122881
62207.4
62310.2
122769
356079
355644
122503
62209.8
62317.8
122394
355133
354684
122135
62225.6
62341.6
122022
354162
353706
121756
62256.3
62374.7
121637
353171
352706
121355
62289.8
62406.7
121231
352164
351695
120939
62321.6
62439.1
120815
351140
350663
120523
62358.3
62480.6
120399
350098
349607
120106
62405.5
62535
119990
349023
348513
119707
62461.4
62591.3
119590
347909
347385
119298
62516.9
62641.4
119168
346766
346233
118850
62564
62680.6
118707
345602
345063
118364
62597.8
62703.8
118200
344422
343881
117816
62608.5
62697.9
117621
343230
342689
117176
62583
62647.3
116938
342034
341501
116425
62485.6
62531.8
116137
340858
340346
115544
62319.5
62341.2
115189
339729
339251
114520
62071.6
62058.8
114103
338670
338221
113375
61720.4
61660.2
112901
337680
337273
112119
61242.3
61135
111597
336785
336425
110772
60639.9
60491.3
110226
335990
335674
109380
59932.5
59746.6
108817
335293
335024
107959
59127.7
58905
107376
334697
334484
106520
58229.1
57976.4
105929
334218
334023
105086
57255.4
56972
104468
333800
333698
103643
56196.3
55877.6
102968
333539
333501
102175
55046
54701.7
101513
333463
333464
100785
53831.8
53470.6
100146
333443
333531
99474.6
52565.8
52191.3
98871
333542
333616
98283.4
51268.9
50894.4
97738.5
333712
333896
97221.7
49963.7
49603.1
96752.3
333965
334171
96325.2
48689.7
48345.7
95936.3
334377
334643
95586.3
47463.7
47151.6
95289.6
334833
335178
95010.7
46313.5
46033.3
94798
335488
335778
94605.1
45255.4
45021.5
94499.5
336077
336539
94377.8
44298.9
44117.1
94344.6
336929
337242
94334.7
43460.8
43329.4
94371.1
337573
338067
94415.3
42741
42654.2
94537.6
338517
338830
94666.4
42154.4
42129.3
94898.2
339107
339552
95109.3
41729.5
41742.5
95389.9
340004
340396
95687.3
41447.9
41509.6
96051
340637
340892
96431.8
41319.7
41423.2
96854.1
341148
341462
97290.3
41323.5
41495.4
97774.5
341691
341920
98269.1
41445.1
41713.9
98807.8
342067
342217
99351.3
41701.8
42062.2
99952.5
342322
342430
100523
42089.3
42519
101175
342471
342512
101687
42577.2
43057.3
102343
342511
342520
102823
43159.9
43715.4
103536
342484
342385
103973
43875.8
44503.4
104690
342228
342047
105127
44707.6
45407.6
105897
341778
341457
106020
45540.1
46518.8
107244
341294
340687
107279
46487.1
47418.3
108133
340014
339732
108577
47552.2
48458.2
109089
338078
339305
110135
48937.9
49117.7
109711
333956
324496
106575
47423
46175.9
103562
309275
17264
8037.11
5064.68
3922.94
3639.9
3326.95
3343.82
3660.03
4051.61
4729.38
5294.04
5962.83
6480.93
7008.3
7411.31
7766.89
8036.47
8243.56
8395.88
8478.42
8501.22
8465.24
8322.53
7882.1
6469.29
4109.01
2717.73
2459.4
2471.08
2285.54
2350.02
2275.1
2362.21
2075.06
2584.82
2886.78
2319.14
2169.44
2000.81
2000.05
1999.94
1999.95
1999.97
2000.12
2001.66
2002.03
2000.9
2001.71
2004.16
2003.66
2029.46
2150.93
2495.47
3331.38
7733.14
50700.8
1.15897e+06
1.20027e+06
288105
162066
353025
474248
1.22306e+06
1.21844e+06
628150
558257
654177
729511
1.18679e+06
1.20087e+06
974005
869697
864634
1.26035e+06
1.26758e+06
1.34005e+06
1.33586e+06
853424
851887
1.36082e+06
1.40758e+06
1.4775e+06
1.34371e+06
853625
857547
1.32221e+06
1.51783e+06
1.55889e+06
1.2995e+06
857201
853941
1.27612e+06
1.59431e+06
1.62824e+06
1.25541e+06
847904
840894
1.23671e+06
1.65714e+06
1.68672e+06
1.21895e+06
834884
825706
1.19933e+06
1.71733e+06
1.74576e+06
1.18165e+06
817139
809022
1.16513e+06
1.77602e+06
1.81022e+06
1.15151e+06
801460
794572
1.13944e+06
1.84352e+06
1.87895e+06
1.12945e+06
788148
782237
1.12035e+06
1.91282e+06
1.94809e+06
1.11296e+06
776641
771370
1.10618e+06
1.98157e+06
2.0159e+06
1.10082e+06
766336
761502
1.09608e+06
2.04848e+06
2.08169e+06
1.09218e+06
757038
752431
1.08912e+06
2.11332e+06
2.14561e+06
1.08672e+06
748273
743931
1.08451e+06
2.17642e+06
2.20808e+06
1.08347e+06
739816
735551
1.08223e+06
2.23856e+06
2.2699e+06
1.08185e+06
731626
727267
1.08167e+06
2.30055e+06
2.33207e+06
1.08179e+06
723441
719137
1.08206e+06
2.36343e+06
2.39573e+06
1.08262e+06
715254
710964
1.08336e+06
2.42857e+06
2.46226e+06
1.08406e+06
706978
702572
1.08505e+06
2.49755e+06
2.53337e+06
1.08569e+06
698348
693648
1.08666e+06
2.57242e+06
2.61131e+06
1.08683e+06
688990
683711
1.08725e+06
2.65602e+06
2.69919e+06
1.08576e+06
678494
671496
1.08286e+06
2.75331e+06
2.81109e+06
1.07858e+06
663260
653391
1.07338e+06
2.87378e+06
2.92355e+06
1.06934e+06
644462
636191
1.06673e+06
2.96498e+06
2.97146e+06
1.06526e+06
628788
620764
1.06498e+06
2.98339e+06
2.95139e+06
1.06488e+06
612019
602623
1.05584e+06
2.92597e+06
2.78164e+06
646966
527313
1.04966e+06
2.00182e+06
3.83098e+06
5.59408e+06
1.64266e+06
915837
837434
1.42816e+06
4.48292e+06
4.11024e+06
1.34848e+06
788635
750420
1.30335e+06
3.93758e+06
3.81803e+06
1.25732e+06
715022
682063
1.2142e+06
3.70153e+06
3.58369e+06
1.17086e+06
648827
620430
1.12734e+06
3.44942e+06
3.17732e+06
658991
520169
1.13971e+06
2.25867e+06
4.38134e+06
6.21145e+06
1.79109e+06
954586
862216
1.51874e+06
4.86835e+06
4.34376e+06
1.39983e+06
785022
731414
1.33043e+06
4.02555e+06
3.77971e+06
1.2386e+06
673628
553466
698175
3.4022e+06
4.73649e+06
2.4453e+06
1.21778e+06
1.03008e+06
1.94776e+06
6.50195e+06
4.88169e+06
1.63202e+06
886677
726056
815972
3.9154e+06
5.40646e+06
2.79245e+06
1.47988e+06
1.16712e+06
2.13969e+06
7.1445e+06
4.64521e+06
922011
986844
1.80793e+06
3.38262e+06
6.09958e+06
6.75171e+06
1.77383e+06
1.22054e+06
2.90178e+06
4.43886e+06
6.57058e+06
5.13236e+06
3.72181e+06
2.65603e+06
262602
105183
3.24974e+06
1.77289e+06
599507
293689
230149
338748
1.76762e+06
3.66376e+06
775813
384225
516807
1.09764e+06
2.82222e+06
2.21384e+06
273609
281065
389381
842677
3.87075e+06
2.80351e+06
1.0986e+06
516159
280354
302509
2.1719e+06
3.79812e+06
832054
386673
507200
1.08049e+06
2.76983e+06
2.1388e+06
313420
277059
382871
817415
3.73572e+06
2.67268e+06
1.06003e+06
499142
273875
314897
2.06632e+06
3.64815e+06
800095
377156
488754
1.03684e+06
2.6423e+06
2.03594e+06
315761
272221
375200
783160
3.54122e+06
2.57686e+06
1.02713e+06
486885
272146
317892
1.99765e+06
3.53866e+06
778036
374773
486932
1.02302e+06
2.54559e+06
1.96135e+06
316863
273374
375949
769981
3.48698e+06
2.57971e+06
1.03193e+06
490014
279662
323266
1.99513e+06
3.53642e+06
781357
386218
507963
1.07469e+06
2.63293e+06
2.07424e+06
359328
288692
408123
870940
3.86589e+06
3.10409e+06
1.24185e+06
553515
297635
360585
2.72675e+06
2.11599e+06
847884
427606
259039
318292
1.73411e+06
3.11098e+06
722389
362542
469397
958780
2.36514e+06
1.8839e+06
325521
277995
383942
766739
3.38662e+06
2.56958e+06
1.0489e+06
505455
294671
364470
2.02875e+06
3.78198e+06
865674
417233
570768
1.25615e+06
3.1582e+06
2.81936e+06
372465
313813
456773
909982
2.18546e+06
1.81951e+06
369849
279782
405716
837946
3.54056e+06
3.00886e+06
1.21118e+06
549793
308706
363236
2.68991e+06
2.11933e+06
863813
445004
278320
340137
1.77358e+06
3.30606e+06
758546
392401
517315
1.06244e+06
2.5591e+06
2.04955e+06
396752
312002
447586
913463
3.93768e+06
3.35993e+06
1.37167e+06
622021
343657
443822
3.0883e+06
2.72291e+06
1.09074e+06
521918
312672
384464
2.52259e+06
2.10063e+06
891321
459695
288302
372571
1.80855e+06
3.52153e+06
842050
418723
568707
1.22681e+06
3.03806e+06
2.74114e+06
392430
331069
483167
931023
2.20815e+06
1.89778e+06
393502
305671
445877
888594
3.77025e+06
3.27366e+06
1.34508e+06
615176
353590
459088
3.02638e+06
2.70181e+06
1.11187e+06
536377
325307
399558
2.54478e+06
2.15763e+06
917181
480307
307143
398472
1.86239e+06
3.6703e+06
886356
451467
623844
1.35287e+06
3.24915e+06
3.05333e+06
460560
359005
542337
1.12026e+06
2.72723e+06
2.5501e+06
392022
329256
486853
927674
2.13626e+06
1.86213e+06
417102
313171
462424
902421
3.70164e+06
3.32624e+06
1.36961e+06
639096
370381
476958
3.12816e+06
2.79644e+06
1.14455e+06
560417
343039
411079
2.61398e+06
2.20412e+06
960417
509385
327845
425104
1.93473e+06
3.88056e+06
940726
482967
669992
1.42722e+06
3.4439e+06
3.23709e+06
496772
395056
603310
1.23539e+06
2.95095e+06
2.86961e+06
483271
367157
561131
1.13784e+06
2.72869e+06
2.60557e+06
415118
348849
518250
967049
2.21473e+06
1.93822e+06
439568
336302
497986
959009
3.90564e+06
3.52882e+06
1.47724e+06
692654
408164
506332
3.28388e+06
3.01199e+06
1.27753e+06
623106
384732
512282
2.96342e+06
2.87277e+06
1.21995e+06
595757
369757
476119
2.78704e+06
2.63059e+06
1.11682e+06
561894
352706
421592
2.53138e+06
2.16592e+06
964753
522018
339685
448789
1.92961e+06
3.87855e+06
971499
502144
692547
1.46588e+06
3.43412e+06
3.23317e+06
524037
416219
635744
1.28683e+06
3.01756e+06
2.94746e+06
517201
393939
606222
1.21697e+06
2.81973e+06
2.74978e+06
486613
376689
568755
1.11501e+06
2.58784e+06
2.51378e+06
432525
359575
532004
979070
2.21248e+06
1.96464e+06
464911
348476
515894
990085
3.85987e+06
3.47989e+06
1.49344e+06
710951
428697
537130
3.2731e+06
3.06015e+06
1.31414e+06
653193
405299
528249
2.9907e+06
2.85937e+06
1.24463e+06
622174
386442
508754
2.81708e+06
2.66151e+06
1.15966e+06
589328
371557
447915
2.58704e+06
2.27852e+06
1.01373e+06
550888
358165
468318
2.02093e+06
3.93351e+06
1.0103e+06
527447
723817
1.51116e+06
3.48496e+06
3.32888e+06
561048
439173
668800
1.3404e+06
3.11038e+06
3.04233e+06
544038
413297
637500
1.28312e+06
2.90674e+06
2.86659e+06
523390
396137
604285
1.18695e+06
2.70117e+06
2.6284e+06
464374
382105
565505
1.03882e+06
2.31697e+06
2.05483e+06
484859
368509
543065
1.03529e+06
4.0194e+06
3.63776e+06
1.56176e+06
747444
451174
570900
3.43357e+06
3.14721e+06
1.35775e+06
685718
425735
566067
3.08646e+06
2.94147e+06
1.31104e+06
657133
407196
539196
2.92965e+06
2.80472e+06
1.21408e+06
621371
390725
466145
2.67608e+06
2.31337e+06
1.04286e+06
575917
377840
503962
2.06412e+06
4.02134e+06
1.06001e+06
558830
769528
1.61322e+06
3.70474e+06
3.46198e+06
576811
461536
700831
1.37592e+06
3.2107e+06
3.14596e+06
575418
433827
667722
1.30562e+06
2.94953e+06
2.94295e+06
556192
414674
634975
1.23275e+06
2.81136e+06
2.69146e+06
479252
398307
586641
1.05138e+06
2.2967e+06
2.06982e+06
500077
383617
563504
1.0647e+06
4.00572e+06
3.61502e+06
1.59796e+06
772341
461719
598723
3.46452e+06
3.17287e+06
1.39263e+06
701035
426766
573806
3.07651e+06
2.86883e+06
1.26372e+06
654395
409608
500364
2.76818e+06
2.41245e+06
1.08734e+06
602277
393345
513741
2.16397e+06
4.10479e+06
1.09287e+06
576936
790568
1.61603e+06
3.64395e+06
3.45533e+06
601233
471832
712276
1.3919e+06
3.1461e+06
3.09596e+06
582288
431440
660391
1.27156e+06
2.9148e+06
2.81005e+06
509881
414788
607311
1.08943e+06
2.37497e+06
2.13805e+06
522273
395896
579154
1.09679e+06
4.05555e+06
3.61499e+06
1.60437e+06
788107
464709
606928
3.43949e+06
3.0769e+06
1.35823e+06
700265
428419
523367
2.93951e+06
2.48486e+06
1.13052e+06
626057
406656
538463
2.21942e+06
4.20299e+06
1.13037e+06
594966
808890
1.64517e+06
3.68689e+06
3.46836e+06
611909
474632
714105
1.38065e+06
3.09852e+06
2.97001e+06
543310
437001
634443
1.14391e+06
2.51069e+06
2.2388e+06
536383
412286
597868
1.12943e+06
4.13832e+06
3.67997e+06
1.62101e+06
806756
473290
626563
3.51155e+06
3.11579e+06
1.38197e+06
713834
430094
549338
2.99192e+06
2.48481e+06
1.12299e+06
626292
406456
533244
2.2161e+06
4.02119e+06
1.1087e+06
585317
779069
1.55612e+06
3.5121e+06
3.26322e+06
567861
463934
662705
1.19548e+06
2.63551e+06
2.33518e+06
534990
422776
601802
1.14599e+06
4.19311e+06
3.59326e+06
1.60498e+06
801068
475476
576459
3.3006e+06
2.65164e+06
1.21535e+06
676729
435759
572046
2.3481e+06
4.28118e+06
1.19064e+06
623777
829462
1.67107e+06
3.69552e+06
3.36786e+06
576969
481307
682453
1.23241e+06
2.67381e+06
2.35855e+06
566836
435041
618618
1.17707e+06
4.18724e+06
3.56844e+06
1.63615e+06
816541
466580
579592
3.33107e+06
2.63918e+06
1.21022e+06
665449
417304
508439
2.28575e+06
3.76858e+06
1.05289e+06
573705
725140
1.35361e+06
2.95347e+06
2.49756e+06
527210
441731
598499
1.11332e+06
4.07315e+06
3.1113e+06
1.40826e+06
751648
457668
552058
2.5875e+06
4.1615e+06
1.15136e+06
620453
784658
1.47902e+06
3.22638e+06
2.7185e+06
554320
470845
637400
1.18412e+06
4.36107e+06
3.30939e+06
1.50851e+06
802315
480811
592246
2.74229e+06
4.32121e+06
1.22932e+06
654271
825384
1.58814e+06
3.36956e+06
2.82546e+06
520410
467310
629644
1.20372e+06
4.28126e+06
3.23018e+06
1.51327e+06
779732
436791
533512
2.74845e+06
4.13294e+06
1.14613e+06
589388
699514
1.39468e+06
2.99588e+06
2.36508e+06
456236
355767
474052
924959
2.92054e+06
4.41764e+06
1.08025e+06
559909
662159
1.42338e+06
2.98437e+06
2.24429e+06
331822
264242
323934
609533
2.35793e+06
2.58671e+06
674733
357977
397449
776903
2.86774e+06
3.19528e+06
814557
435209
489204
959970
3.72623e+06
5.04162e+06
1.10631e+06
544661
647084
1.4797e+06
3.07694e+06
2.24047e+06
268928
219579
253083
510226
2.04578e+06
2.03646e+06
515056
258397
258023
512860
2.01395e+06
1.99081e+06
509576
257545
257250
508406
1.97827e+06
1.96022e+06
505928
256818
256612
505021
1.94888e+06
1.9383e+06
503023
256334
256196
502130
1.92918e+06
1.92212e+06
500929
255935
255739
499994
1.91511e+06
1.90911e+06
499012
255527
255342
498476
1.9038e+06
1.89958e+06
497468
255120
254980
497096
1.89563e+06
1.89196e+06
496237
254766
254625
495884
1.88853e+06
1.88541e+06
495144
254431
254288
494757
1.88241e+06
1.87977e+06
494116
254104
253986
493815
1.87716e+06
1.87476e+06
493224
253817
253692
492948
1.87253e+06
1.8704e+06
492416
253544
253433
492157
1.86841e+06
1.8666e+06
491659
253273
253193
491439
1.86481e+06
1.86311e+06
490995
253050
252953
490766
1.86155e+06
1.86013e+06
490492
252837
252732
490116
1.85858e+06
1.85732e+06
489924
252655
252519
489561
1.85603e+06
1.85484e+06
489401
252476
252359
489092
1.85362e+06
1.85258e+06
488917
252286
252178
488638
1.85146e+06
1.85046e+06
488469
252114
252041
488237
1.84945e+06
1.84853e+06
488071
251989
251877
487807
1.84766e+06
1.84681e+06
487685
251853
251768
487477
1.84593e+06
1.84522e+06
487330
251712
251638
487147
1.84442e+06
1.84364e+06
486981
251575
251520
486834
1.84294e+06
1.84217e+06
486664
251454
251413
486534
1.84159e+06
1.84085e+06
486386
251370
251305
486252
1.84029e+06
1.83958e+06
486135
251274
251205
486007
1.83901e+06
1.83846e+06
485833
251177
251112
485712
1.83789e+06
1.83733e+06
485576
251086
251019
485479
1.83675e+06
1.83626e+06
485317
250999
250938
485219
1.83569e+06
1.83525e+06
485126
250922
250878
485019
1.83465e+06
1.83427e+06
484901
250834
250787
484812
1.8337e+06
1.83319e+06
484717
250765
250735
484608
1.83277e+06
1.83229e+06
484487
250670
250653
484372
1.83186e+06
1.83141e+06
484255
250623
250573
484171
1.83093e+06
1.83054e+06
484090
250560
250527
484021
1.82999e+06
1.82964e+06
483921
250480
250445
483781
1.82921e+06
1.82878e+06
483693
250413
250379
483577
1.82838e+06
1.82796e+06
483515
250352
250330
483457
1.82745e+06
1.82712e+06
483352
250302
250247
483244
1.82668e+06
1.82629e+06
483120
250234
250188
483049
1.82585e+06
1.82549e+06
482965
250174
250142
482893
1.825e+06
1.82469e+06
482782
250104
250090
482723
1.8242e+06
1.82377e+06
482623
250053
250020
482523
1.82346e+06
1.82298e+06
482461
250007
249963
482347
1.82268e+06
1.82223e+06
482283
249934
249895
482181
1.82181e+06
1.82139e+06
482102
249867
249828
482010
1.82094e+06
1.82062e+06
481912
249809
249776
481855
1.82011e+06
1.81976e+06
481751
249771
249675
481641
1.81934e+06
1.81892e+06
481547
249702
249653
481434
1.81854e+06
1.81815e+06
481373
249646
249582
481308
1.81769e+06
1.8172e+06
481221
249550
249541
481133
1.81684e+06
1.81643e+06
480998
249491
249479
480920
1.81601e+06
1.81562e+06
480795
249423
249398
480733
1.81519e+06
1.81467e+06
480674
249375
249345
480561
1.81433e+06
1.81387e+06
480433
249288
249276
480360
1.81349e+06
1.81297e+06
480294
249243
249207
480200
1.81252e+06
1.81215e+06
480094
249180
249122
479961
1.81169e+06
1.81131e+06
479887
249110
249074
479816
1.81077e+06
1.81031e+06
479718
249042
249001
479610
1.80995e+06
1.80939e+06
479552
248983
248925
479443
1.80902e+06
1.80857e+06
479307
248891
248852
479215
1.80811e+06
1.80766e+06
479107
248832
248778
479040
1.80718e+06
1.80675e+06
478904
248760
248705
478841
1.80625e+06
1.80582e+06
478703
248686
248630
478639
1.80531e+06
1.80488e+06
478500
248629
248531
478429
1.80439e+06
1.80391e+06
478298
248559
248453
478227
1.80344e+06
1.80297e+06
478109
248477
248403
477997
1.80252e+06
1.80203e+06
477882
248368
248325
477757
1.80157e+06
1.8011e+06
477680
248291
248263
477597
1.80053e+06
1.80014e+06
477471
248209
248186
477387
1.79956e+06
1.79917e+06
477258
248130
248108
477183
1.79861e+06
1.7981e+06
477066
248060
248010
476948
1.79769e+06
1.79707e+06
476876
247986
247922
476759
1.79665e+06
1.79614e+06
476613
247897
247857
476520
1.79564e+06
1.79515e+06
476410
247819
247785
476304
1.79466e+06
1.79418e+06
476188
247721
247680
476075
1.79365e+06
1.79315e+06
475966
247633
247612
475860
1.79262e+06
1.79215e+06
475753
247574
247509
475629
1.79166e+06
1.79114e+06
475510
247468
247423
475376
1.79065e+06
1.79016e+06
475295
247385
247353
475205
1.78957e+06
1.78915e+06
475072
247295
247269
474984
1.78855e+06
1.78813e+06
474852
247207
247179
474770
1.78751e+06
1.78707e+06
474641
247140
247070
474489
1.78655e+06
1.78607e+06
474402
247054
247011
474310
1.78549e+06
1.78508e+06
474176
246959
246915
474086
1.78453e+06
1.78399e+06
473955
246861
246825
473858
1.7835e+06
1.78297e+06
473738
246774
246727
473625
1.78242e+06
1.78199e+06
473501
246693
246637
473400
1.7814e+06
1.78095e+06
473269
246600
246546
473172
1.78037e+06
1.77992e+06
473038
246507
246453
472956
1.77937e+06
1.77878e+06
472842
246420
246386
472727
1.77834e+06
1.7778e+06
472592
246310
246291
472458
1.7773e+06
1.77675e+06
472377
246224
246202
472229
1.77627e+06
1.7757e+06
472153
246137
246115
472009
1.77523e+06
1.77466e+06
471924
246054
246036
471839
1.77422e+06
1.7736e+06
471772
245993
245930
471650
1.77313e+06
1.77266e+06
471497
245888
245846
471425
1.77214e+06
1.77156e+06
471374
245816
245776
471252
1.77108e+06
1.77058e+06
471143
245703
245677
471020
1.77008e+06
1.76959e+06
470908
245638
245570
470812
1.76904e+06
1.76861e+06
470732
245550
245498
470667
1.768e+06
1.76754e+06
470550
245461
245385
470442
1.76704e+06
1.76655e+06
470318
245357
245316
470206
1.76606e+06
1.76552e+06
470104
245243
245222
470018
1.7651e+06
1.76451e+06
469941
245167
245119
469835
1.764e+06
1.76359e+06
469720
245057
245025
469644
1.76302e+06
1.7626e+06
469513
244955
244925
469454
1.76205e+06
1.76149e+06
469340
244842
244811
469244
1.76103e+06
1.7606e+06
469097
244736
244711
468991
1.76004e+06
1.75957e+06
468914
244613
244573
468772
1.75909e+06
1.75859e+06
468653
244522
244428
468542
1.75806e+06
1.75762e+06
468453
244400
244321
468353
1.75704e+06
1.75659e+06
468225
244245
244197
468148
1.75602e+06
1.75554e+06
468017
244098
244025
467852
1.75506e+06
1.75452e+06
467731
243969
243870
467575
1.75407e+06
1.75352e+06
467484
243793
243725
467379
1.75293e+06
1.75244e+06
467239
243612
243546
467035
1.75194e+06
1.75144e+06
466937
243439
243353
466804
1.75082e+06
1.75026e+06
466652
243254
243142
466510
1.74979e+06
1.74914e+06
466366
243051
242919
466221
1.74862e+06
1.74808e+06
465991
242798
242675
465830
1.74746e+06
1.74688e+06
465647
242540
242428
465466
1.74624e+06
1.74566e+06
465279
242289
242147
465078
1.74502e+06
1.7444e+06
464879
242001
241847
464667
1.74375e+06
1.74309e+06
464452
241689
241525
464227
1.74243e+06
1.74176e+06
463991
241357
241151
463733
1.74108e+06
1.74034e+06
463462
240961
240760
463167
1.73961e+06
1.73885e+06
462995
240597
240356
462644
1.73806e+06
1.73729e+06
462420
240137
239909
462046
1.73644e+06
1.73564e+06
461808
239664
239418
461401
1.73474e+06
1.73387e+06
461145
239161
238849
460655
1.73302e+06
1.73202e+06
460433
238586
238269
459941
1.73112e+06
1.73002e+06
459560
237961
237629
459129
1.72903e+06
1.72786e+06
458654
237284
236955
458339
1.72683e+06
1.72564e+06
457729
236567
236190
457337
1.72445e+06
1.72327e+06
456720
235759
235351
456163
1.72198e+06
1.72064e+06
455597
234906
234462
455103
1.71931e+06
1.71782e+06
454429
233976
233463
453820
1.71639e+06
1.7149e+06
453057
232961
232406
452416
1.71334e+06
1.71159e+06
451624
231854
231280
451111
1.70995e+06
1.70819e+06
450045
230637
230039
449517
1.70634e+06
1.70454e+06
448418
229302
228633
447587
1.70238e+06
1.70038e+06
446597
227888
227163
445845
1.6982e+06
1.69601e+06
444638
226332
225505
443554
1.69364e+06
1.69124e+06
442468
224638
223730
441231
1.68872e+06
1.68597e+06
440069
222819
221830
438895
1.68329e+06
1.68035e+06
437427
220782
219755
436177
1.67733e+06
1.6742e+06
434641
218618
217484
433171
1.67075e+06
1.6673e+06
431617
216293
215087
430132
1.66366e+06
1.65984e+06
428479
213788
212491
426898
1.65586e+06
1.6517e+06
425162
211096
209690
423410
1.64736e+06
1.6428e+06
421572
208198
206669
419645
1.63805e+06
1.63303e+06
417705
205056
203389
415606
1.62783e+06
1.62228e+06
413567
201659
199861
411301
1.61656e+06
1.6104e+06
409164
198007
196105
406771
1.60406e+06
1.59732e+06
404479
194080
192077
402024
1.59016e+06
1.58264e+06
399614
189904
187775
397088
1.57454e+06
1.566e+06
394613
185466
183206
392054
1.5567e+06
1.54678e+06
389579
180767
178348
387073
1.53584e+06
1.52385e+06
384730
175844
173249
382403
1.51064e+06
1.49572e+06
380352
170645
167969
378597
1.47891e+06
1.45992e+06
377378
165270
162512
376877
1.43839e+06
1.41438e+06
376954
159755
157014
378245
1.38793e+06
1.36007e+06
380600
154255
151965
385580
1.33442e+06
1.31196e+06
392163
150048
148450
400167
1.29307e+06
1.27793e+06
408828
147124
146111
417349
1.26619e+06
1.25739e+06
425633
145792
145573
432873
1.25087e+06
1.24608e+06
439141
145965
147359
442238
1.24238e+06
1.23936e+06
444406
149476
151912
444721
1.23682e+06
1.23456e+06
443570
154689
157335
441417
1.23251e+06
1.23051e+06
438902
159974
162343
435933
1.22863e+06
1.22677e+06
432957
164108
165111
429598
1.22498e+06
1.22321e+06
426760
165817
164877
423708
1.22147e+06
1.21976e+06
421195
163171
160917
418032
1.21805e+06
1.21638e+06
415077
158382
155628
411793
1.21469e+06
1.21304e+06
408258
152841
149849
405010
1.21138e+06
1.20976e+06
400954
146972
143903
397536
1.20812e+06
1.2065e+06
393064
140993
138090
389215
1.20488e+06
1.20325e+06
384695
135111
132189
380623
1.20163e+06
1.19999e+06
375756
129233
126252
371693
1.19835e+06
1.19669e+06
366746
123270
120288
362827
1.19503e+06
1.19334e+06
357950
117217
114227
354132
1.19165e+06
1.18989e+06
349296
111018
107930
345388
1.18814e+06
1.18632e+06
340459
104632
101404
336130
1.18446e+06
1.18254e+06
331426
97999.8
94682.3
326403
1.18054e+06
1.17845e+06
321674
91212
87876
316228
1.17627e+06
1.17396e+06
311339
84460.8
81289.9
305579
1.17153e+06
1.16896e+06
300388
78316.2
75836.7
294122
1.16624e+06
1.16334e+06
288174
73912
72180.5
281056
1.16023e+06
1.1569e+06
274212
70462.9
68863.9
266728
1.15331e+06
1.14946e+06
259065
67230.3
65721.8
250938
1.14532e+06
1.14089e+06
242589
64207.7
62769
233376
1.13615e+06
1.13111e+06
224251
61388.6
60026.7
214007
1.12577e+06
1.12016e+06
203728
58769.6
57535.4
192157
1.11427e+06
1.10816e+06
180296
56464
55583
167592
1.10188e+06
1.09553e+06
158802
55165.8
55036.3
154402
1.08923e+06
1.08311e+06
149431
54981
54997.5
145391
1.07722e+06
1.07184e+06
141559
55169.5
55282.8
137828
1.06735e+06
1.06397e+06
133905
55374.6
55379.9
130793
1.06226e+06
1.0661e+06
134657
60123.4
62813.2
135612
1.07108e+06
1.08972e+06
136984
65519.3
66754.5
137441
1.113e+06
1.15869e+06
142550
71257
74075.5
154201
1.18921e+06
1.20288e+06
160990
79825.6
84683.1
179889
1.22199e+06
58518.2
38540.8
19361.1
8415.69
4436.2
2980.4
2514.33
2314.22
2177.86
2112.32
2085.2
2101.42
2060.27
2026.52
2010.73
2002.25
1992.38
2265.8
2778.38
8104.79
27342.5
50044.5
70322.9
87883.4
93629.4
61304.1
35015.6
24990
21062.5
19260.4
18352.7
17902.5
17719.1
17697.6
17792.4
17970.4
18208
18487.6
18796.4
19125
19462.5
19794.8
20101.2
20355.9
20532.7
20611.5
20590.8
20466.9
20249.1
19954.2
19604.8
19223.5
18824.6
18405.3
17962.3
17498.1
17003
16481.1
15936.9
15411.2
14932.8
14551.4
14300.5
14176.6
14168.7
14167.9
14171.2
14175.4
14178.6
14183.4
14188.3
14194.4
14201.2
14209
14217.8
14227.8
14239.1
14251.7
14265.7
14281.2
14298.3
14317
14337.4
14359.5
14383.4
14409.1
14436.7
14466.2
14497.6
14531
14566.5
14604
14643.5
14685.1
14728.8
14774.6
14822.5
14872.5
14924.6
14978.8
15035.1
15093.5
15153.9
15216.5
15281.1
15347.7
15416.4
15487
15559.7
15634.3
15710.9
15789.4
15869.9
15952.2
16036.4
16122.5
16210.3
16300.1
16391.6
16484.8
16579.9
16676.7
16775.2
16875.4
16977.3
17080.9
17186.2
17293.2
17401.8
17512.1
17624
17737.5
17852.6
17969.4
18087.9
18207.9
18329.6
18452.9
18577.9
18704.4
18832.7
18962.5
19094
19227.2
19362
19498.4
19636.6
19776.4
19917.8
20061
20205.9
20352.5
20500.8
20650.8
20802.6
20956.1
21111.4
21268.4
21427.1
21587.9
21750.8
21916
22083
22251.8
22422.7
22595.7
22771.1
22948.9
23129.1
23311.7
23496.8
23684.5
23875
24068.2
24264.2
24463.1
24665
24869.8
25077.6
25288.5
25502.3
25719.1
25938.7
26160.9
26385.6
26612.4
26841.1
27071
27301.7
27532.3
27762
27989.9
28214.8
28435.5
28650.6
28858.4
29057.4
29245.6
29421.1
29581.9
29725.9
29851
29954.8
30035.5
30088.4
30111.4
30113.8
30085
30023.3
29928.8
29801.6
29641.7
29449.5
29225.8
28971.6
28686.5
28370.1
28026.5
27662.4
27281.3
26882.8
26467.6
26038
25596.5
25145.1
24686
24220.6
23750.6
23279.7
22811.3
22347.8
21891.3
21443.5
21006.1
20580.2
20166.8
19766.6
19379.9
19007.1
18648.2
18303
17971.4
17652.9
17347.2
17053.6
16771.8
16501.2
16241.1
15991.1
15750.7
15519.2
15296.2
15081.2
14873.8
14673.5
14480
14292.7
14111.5
13935.9
13765.7
13600.6
13440.2
13284.4
13132.9
12985.5
12841.8
12701.8
12565.3
12432.1
12302.1
12175.2
12051.2
11930
11811.5
11695.7