/*--------------------------------*- C++ -*----------------------------------*\
| =========                 |                                                 |
| \\      /  F ield         | OpenFOAM: The Open Source CFD Toolbox           |
|  \\    /   O peration     | Version:  v2006                                 |
|   \\  /    A nd           | Website:  www.openfoam.com                      |
|    \\/     M anipulation  |                                                 |
\*---------------------------------------------------------------------------*/
FoamFile
{
    version     2.0;
    format      ascii;
    class       volScalarField;
    location    "0.012";
    object      p;
}
// * * * * * * * * * * * * * * * * * * * * * * * * * * * * * * * * * * * * * //

dimensions      [1 -1 -2 0 0 0 0];


internalField   nonuniform List<scalar> 
24416
(
148873
148881
148899
148896
148892
148886
148880
148874
148867
148858
148850
148841
148831
148821
148810
148798
148786
148773
148760
148747
148733
148719
148705
148691
148677
148663
148648
148635
148621
148607
148594
148582
148569
148558
148546
148535
148525
148515
148506
148497
148489
148482
148474
148467
148461
148455
148449
148445
148443
148441
148441
148442
148442
148441
148441
148440
148440
148440
148442
148445
148449
148454
148458
148463
148467
148472
148476
148481
148486
148491
148496
148501
148506
148512
148517
148522
148527
148533
148538
148543
148548
148553
148558
148562
148567
148572
148576
148581
148585
148590
148594
148597
148600
148602
148604
148604
148604
148605
148604
148604
148600
148606
148608
148613
148619
148625
148636
148656
148669
148677
148656
148655
148651
148641
148642
148643
148628
148628
148628
148614
148614
148614
148600
148600
148600
148587
148587
148586
148574
148574
148574
148561
148561
148561
148549
148549
148549
148538
148537
148537
148526
148526
148526
148515
148515
148515
148504
148504
148504
148493
148493
148493
148482
148483
148483
148472
148472
148472
148462
148462
148462
148452
148452
148451
148441
148442
148442
148432
148432
148432
148422
148422
148422
148412
148412
148412
148402
148403
148403
148393
148393
148393
148384
148384
148384
148374
148374
148374
148365
148365
148365
148356
148356
148356
148347
148347
148347
148338
148338
148338
148329
148329
148329
148320
148320
148320
148311
148311
148311
148302
148302
148302
148293
148294
148294
148285
148285
148285
148276
148276
148277
148268
148268
148268
148259
148259
148260
148251
148251
148251
148243
148243
148243
148234
148234
148234
148226
148226
148226
148218
148218
148218
148210
148210
148210
148202
148202
148202
148194
148194
148194
148186
148186
148186
148178
148178
148179
148171
148171
148171
148163
148163
148163
148156
148155
148155
148148
148148
148148
148141
148140
148140
148133
148133
148133
148126
148126
148126
148119
148119
148119
148112
148111
148111
148104
148104
148105
148098
148097
148097
148090
148091
148091
148084
148084
148084
148077
148077
148077
148070
148070
148070
148064
148064
148064
148057
148057
148057
148051
148051
148051
148045
148044
148044
148038
148038
148039
148032
148032
148032
148026
148026
148027
148021
148021
148020
148015
148015
148015
148010
148009
148009
148004
148004
148004
147999
147999
147999
147994
147994
147994
147989
147989
147989
147984
147984
147985
147980
147980
147980
147975
147975
147976
147971
147971
147971
147967
147967
147967
147963
147963
147963
147960
147960
147960
147956
147956
147956
147953
147953
147953
147950
147950
147950
147947
147947
147947
147945
147944
147944
147942
147942
147942
147940
147940
147940
147938
147938
147938
147936
147936
147936
147934
147934
147934
147933
147933
147933
147931
147932
147932
147931
147930
147930
147930
147930
147930
147929
147929
147929
147929
147929
147929
147929
147929
147929
147929
147929
147929
147930
147930
147930
147930
147930
147931
147931
147931
147931
147932
147933
147933
147934
147934
147934
147936
147936
147936
147938
147938
147938
147940
147940
147940
147943
147943
147943
147946
147946
147946
147949
147949
147949
147952
147952
147952
147956
147956
147956
147960
147960
147960
147964
147964
147964
147968
147968
147969
147973
147973
147973
147978
147978
147978
147984
147984
147983
147989
147989
147989
147995
147995
147995
148001
148001
148001
148008
148008
148008
148014
148014
148015
148021
148021
148021
148028
148029
148029
148036
148036
148036
148044
148044
148044
148051
148051
148051
148059
148060
148060
148068
148068
148068
148076
148076
148076
148085
148085
148085
148094
148094
148094
148103
148103
148103
148112
148112
148112
148121
148121
148121
148131
148131
148131
148141
148141
148141
148151
148151
148151
148161
148161
148161
148171
148171
148171
148182
148182
148181
148192
148192
148192
148203
148203
148203
148214
148214
148214
148225
148225
148225
148237
148237
148237
148248
148248
148248
148260
148260
148260
148271
148271
148271
148283
148283
148283
148295
148295
148295
148307
148307
148307
148319
148319
148319
148331
148331
148331
148343
148343
148343
148355
148355
148355
148367
148367
148367
148379
148379
148379
148391
148391
148391
148403
148403
148403
148415
148415
148415
148427
148427
148428
148439
148439
148439
148451
148451
148451
148463
148463
148463
148475
148475
148475
148487
148487
148487
148498
148498
148498
148510
148510
148510
148521
148521
148521
148533
148533
148532
148544
148544
148544
148555
148555
148555
148566
148566
148566
148577
148577
148577
148587
148587
148587
148598
148598
148598
148609
148609
148609
148619
148619
148619
148629
148629
148629
148639
148639
148639
148649
148649
148649
148659
148659
148659
148668
148668
148668
148678
148678
148678
148687
148687
148687
148696
148696
148696
148705
148705
148705
148714
148714
148714
148722
148722
148722
148730
148730
148730
148739
148739
148739
148747
148747
148747
148755
148755
148755
148762
148762
148762
148770
148770
148770
148777
148777
148777
148784
148784
148784
148792
148792
148792
148798
148798
148798
148805
148805
148805
148812
148812
148812
148818
148818
148818
148825
148825
148825
148831
148831
148831
148837
148837
148837
148843
148843
148843
148849
148849
148849
148855
148855
148855
148860
148860
148860
148866
148866
148866
148872
148872
148872
148877
148877
148877
148882
148882
148882
148888
148888
148888
148893
148893
148893
148898
148898
148898
148904
148904
148904
148909
148909
148909
148914
148914
148914
148919
148919
148919
148924
148924
148924
148930
148930
148930
148935
148935
148935
148940
148940
148940
148945
148945
148945
148951
148950
148950
148956
148956
148956
148961
148961
148961
148966
148966
148966
148972
148972
148972
148977
148977
148977
148982
148982
148982
148986
148987
148987
148991
148991
148991
148995
148995
148995
148997
148997
148997
148998
148998
148997
148997
148997
148996
148996
148995
148995
148994
148994
148993
148993
148992
148992
148991
148989
148985
148986
148992
148995
148997
148998
148998
148998
148999
148999
148999
149000
149001
149002
149002
149004
149005
149007
149008
149011
149011
149016
149014
149020
149017
149015
149006
148988
148978
148971
148962
148958
148957
148957
148956
148937
148937
148933
148958
148963
148963
148993
148994
148989
149012
149012
149010
149003
149004
149002
148997
148997
148996
148983
148983
148982
148981
148980
148979
148965
148965
148965
148960
148959
148958
148943
148943
148942
148940
148939
148938
148922
148921
148921
148915
148914
148913
148896
148896
148896
148893
148892
148891
148874
148874
148874
148866
148865
148865
148845
148845
148845
148841
148839
148838
148819
148819
148819
148809
148808
148807
148784
148784
148784
148776
148775
148774
148750
148749
148749
148735
148734
148733
148705
148705
148705
148692
148691
148690
148659
148658
148658
148637
148636
148635
148599
148599
148598
148578
148576
148575
148533
148533
148532
148500
148499
148499
148450
148449
148448
148414
148413
148412
148353
148352
148351
148301
148300
148299
148230
148229
148228
148171
148169
148169
148080
148079
148078
147995
147993
147993
147884
147883
147883
147778
147775
147775
147625
147624
147625
147465
147461
147461
147236
147240
147250
147030
147011
146999
146717
146741
146770
146553
146522
146495
146280
146311
146344
146181
146148
146120
145960
145981
146007
145831
145807
145790
145634
145643
145646
145055
145037
145097
145233
145238
145216
145075
145060
145028
144574
144625
144670
144163
144118
144060
143511
143620
143767
143316
143229
143095
142048
142401
142692
142183
141927
141654
141070
141398
141635
140947
140671
140387
139316
139833
140251
139733
139181
138600
137416
138377
139103
138318
137524
136481
135013
136531
137510
136590
135608
133889
132293
134753
136076
135409
134096
131235
130041
133803
135174
135195
133829
129516
128842
134023
135524
135754
134557
128870
129047
135303
136447
137204
136104
129622
130265
137208
138096
139568
138557
131313
131695
139865
141625
142373
140076
132113
132668
139528
141592
139798
138612
133264
133647
137665
138463
136964
136793
134331
134868
135432
135466
134767
134736
135012
134919
134852
134791
134815
134843
134855
134809
134812
134799
134786
134791
134775
134774
134785
134786
134794
134790
134775
134791
134803
134809
134827
134821
134807
134856
134860
134861
134879
134867
134868
134915
134914
134906
134930
134933
134932
134929
134925
134926
134959
134963
134962
134970
134971
134969
134958
134957
134961
134989
134990
134987
134993
134996
134995
134979
134976
134978
135004
135006
135005
135009
135009
135007
134989
134987
134990
135014
135015
135013
135016
135018
135017
135003
135000
135002
135023
135027
135027
135006
135003
135004
135025
135027
135026
135023
135024
135022
135005
135003
135006
135030
135030
135028
135025
135027
135026
135007
135004
135006
135029
135031
135030
135032
135033
135030
135012
135010
135011
135037
135037
135034
135013
135011
135014
135035
135036
135034
135032
135033
135032
135017
135015
135017
135039
135044
135044
135019
135016
135018
135038
135039
135038
135037
135038
135036
135016
135014
135016
135043
135044
135041
135039
135041
135040
135022
135020
135023
135047
135051
135050
135031
135029
135031
135052
135056
135056
135027
135025
135028
135051
135052
135050
135051
135052
135051
135037
135036
135039
135061
135062
135058
135035
135032
135034
135057
135060
135059
135061
135062
135061
135047
135044
135046
135069
135073
135072
135049
135048
135051
135073
135077
135076
135053
135051
135054
135079
135081
135080
135079
135081
135079
135062
135059
135060
135090
135091
135087
135071
135068
135069
135099
135099
135095
135075
135073
135076
135098
135100
135099
135099
135101
135099
135085
135083
135086
135113
135117
135116
135098
135096
135099
135123
135128
135128
135101
135099
135102
135128
135129
135126
135130
135132
135131
135118
135115
135117
135151
135151
135147
135132
135129
135131
135159
135160
135156
135141
135138
135138
135169
135170
135165
135150
135147
135150
135178
135180
135177
135180
135181
135179
135167
135165
135168
135196
135201
135199
135182
135181
135183
135208
135212
135210
135197
135196
135198
135225
135230
135229
135211
135210
135212
135236
135240
135240
135222
135220
135223
135249
135251
135248
135253
135256
135255
135247
135245
135247
135280
135281
135276
135265
135263
135264
135292
135294
135290
135282
135280
135281
135312
135313
135308
135300
135298
135300
135328
135329
135324
135315
135312
135314
135343
135345
135342
135350
135350
135347
135345
135343
135345
135374
135378
135377
135365
135364
135366
135394
135398
135397
135389
135387
135389
135415
135419
135419
135411
135409
135410
135434
135438
135437
135428
135426
135428
135455
135457
135454
135464
135467
135466
135461
135459
135461
135494
135494
135490
135485
135483
135484
135516
135516
135512
135508
135507
135508
135538
135538
135534
135532
135531
135533
135558
135558
135555
135552
135551
135553
135578
135581
135578
135591
135592
135589
135589
135587
135589
135617
135621
135621
135616
135615
135616
135641
135645
135645
135639
135638
135640
135664
135668
135668
135668
135666
135667
135689
135693
135693
135689
135688
135688
135712
135714
135713
135721
135724
135724
135725
135723
135725
135755
135754
135750
135752
135751
135752
135779
135779
135775
135778
135777
135779
135802
135802
135798
135802
135801
135803
135826
135825
135821
135825
135824
135826
135846
135847
135845
135861
135862
135860
135863
135862
135863
135885
135889
135890
135891
135889
135889
135908
135912
135912
135914
135913
135913
135930
135934
135936
135938
135936
135936
135953
135956
135956
135967
135969
135968
135971
135970
135971
135995
135993
135989
135993
135993
135995
136013
136012
136008
136016
136016
136017
136036
136034
136030
136037
136038
136040
136052
136052
136048
136062
136064
136063
136069
136068
136067
136081
136085
136086
136089
136088
136087
136099
136104
136106
136111
136109
136107
136115
136119
136120
136129
136130
136128
136134
136134
136135
136148
136147
136143
136150
136151
136152
136163
136161
136158
136166
136168
136169
136175
136174
136170
136182
136184
136184
136189
136188
136187
136193
136196
136198
136202
136201
136199
136202
136206
136208
136215
136213
136210
136210
136214
136216
136222
136221
136219
136224
136227
136228
136230
136228
136225
136230
136233
136234
136233
136231
136227
136234
136236
136237
136242
136241
136238
136236
136239
136241
136247
136246
136241
136235
136239
136241
136241
136240
136238
136243
136247
136248
136238
136236
136233
136241
136245
136247
136238
136236
136231
136231
136234
136236
136240
136239
136235
136223
136226
136228
136231
136230
136225
136212
136218
136221
136213
136211
136208
136209
136215
136216
136204
136200
136195
136185
136188
136191
136188
136187
136182
136165
136170
136174
136157
136155
136152
136151
136157
136159
136141
136136
136130
136108
136110
136112
136109
136108
136103
136079
136085
136089
136063
136060
136057
136049
136056
136058
136021
136019
136014
135983
135984
135986
135982
135982
135975
135941
135948
135954
135905
135903
135901
135876
135879
135875
135848
135845
135840
135801
135809
135817
135752
135752
135752
135719
135720
135714
135680
135680
135678
135620
135622
135622
135554
135557
135557
135512
135516
135520
135435
135439
135442
135394
135395
135397
135317
135322
135331
135331
135323
135311
135284
135294
135304
135286
135280
135275
135271
135273
135277
135267
135264
135263
135252
135253
135255
135243
135242
135241
135230
135230
135232
135219
135218
135218
135206
135206
135207
135194
135193
135193
135181
135181
135181
135168
135168
135168
135155
135155
135155
135142
135142
135142
135128
135128
135129
135115
135115
135115
135101
135101
135102
135088
135088
135088
135074
135074
135074
135060
135060
135060
135046
135046
135046
135031
135031
135031
135017
135017
135017
135002
135002
135002
134988
134988
134988
134973
134973
134973
134958
134958
134958
134943
134943
134943
134928
134928
134928
134913
134913
134913
134897
134897
134897
134882
134882
134882
134866
134866
134867
134851
134851
134851
134835
134835
134835
134819
134819
134819
134803
134803
134803
134787
134787
134787
134771
134771
134771
134755
134755
134755
134739
134739
134739
134722
134722
134722
134706
134706
134706
134689
134689
134689
134673
134673
134673
134656
134656
134656
134639
134639
134639
134622
134622
134622
134606
134606
134606
134588
134589
134589
134572
134572
134571
134554
134554
134554
134537
134537
134537
134520
134520
134520
134503
134503
134503
134485
134485
134485
134468
134468
134468
134450
134450
134451
134433
134433
134433
134415
134415
134415
134398
134398
134398
134380
134380
134380
134362
134362
134362
134345
134345
134345
134327
134327
134327
134309
134309
134309
134291
134291
134291
134273
134273
134273
134255
134255
134255
134237
134237
134237
134219
134219
134219
134201
134201
134201
134183
134183
134183
134165
134165
134165
134147
134147
134147
134129
134129
134129
134111
134111
134111
134092
134092
134092
134074
134074
134074
134056
134056
134056
134038
134038
134038
134019
134019
134019
134001
134001
134001
133983
133983
133983
133964
133964
133964
133946
133946
133946
133928
133928
133928
133909
133909
133909
133891
133891
133891
133872
133872
133872
133854
133854
133854
133835
133835
133835
133817
133817
133817
133798
133798
133798
133780
133780
133780
133761
133762
133762
133743
133743
133743
133725
133725
133725
133706
133706
133706
133688
133688
133688
133669
133669
133669
133651
133651
133651
133632
133632
133632
133614
133614
133614
133595
133595
133595
133577
133577
133577
133558
133558
133558
133540
133540
133540
133521
133521
133521
133503
133503
133503
133485
133485
133484
133466
133466
133466
133448
133448
133448
133429
133429
133429
133411
133411
133411
133392
133393
133393
133374
133374
133374
133356
133356
133356
133338
133338
133337
133319
133319
133319
133301
133301
133301
133283
133283
133283
133264
133264
133264
133246
133246
133246
133228
133228
133228
133210
133210
133210
133192
133192
133192
133173
133173
133173
133155
133155
133155
133137
133137
133137
133119
133119
133119
133101
133101
133101
133083
133083
133083
133065
133065
133065
133047
133047
133047
133029
133029
133029
133011
133011
133011
132993
132993
132993
132975
132975
132975
132958
132958
132958
132940
132940
132940
132922
132922
132922
132904
132904
132904
132887
132887
132887
132869
132869
132869
132851
132851
132851
132834
132834
132834
132816
132816
132816
132799
132799
132799
132781
132781
132781
132764
132764
132764
132746
132746
132746
132729
132729
132729
132711
132711
132711
132694
132694
132694
132677
132677
132677
132660
132660
132659
132642
132642
132642
132625
132625
132625
132608
132608
132608
132591
132591
132591
132574
132574
132574
132557
132557
132557
132540
132540
132540
132523
132523
132523
132506
132506
132506
132489
132489
132489
132472
132472
132472
132456
132456
132455
132439
132439
132439
132422
132422
132422
132405
132405
132405
132389
132389
132389
132372
132372
132372
132356
132356
132356
132339
132339
132339
132323
132323
132323
132306
132306
132306
132290
132290
132290
132274
132274
132274
132258
132258
132258
132241
132241
132241
132225
132225
132225
132209
132209
132209
132193
132193
132193
132177
132177
132177
132161
132161
132161
132145
132145
132145
132129
132129
132129
132113
132114
132114
132098
132098
132098
132082
132082
132082
132066
132066
132066
132051
132051
132051
132035
132035
132035
132020
132020
132020
132004
132004
132004
131989
131989
131989
131974
131973
131973
131958
131958
131958
131943
131943
131943
131928
131928
131928
131913
131913
131912
131897
131897
131897
131882
131882
131882
131867
131867
131867
131853
131853
131852
131838
131838
131838
131823
131823
131823
131808
131808
131808
131793
131793
131793
131779
131779
131779
131764
131764
131764
131749
131749
131749
131735
131735
131735
131720
131720
131720
131706
131706
131706
131692
131692
131692
131678
131677
131677
131663
131663
131663
131649
131649
131649
131635
131635
131635
131621
131621
131621
131607
131607
131607
131593
131593
131593
131579
131579
131579
131565
131565
131565
131551
131551
131551
131538
131538
131538
131524
131524
131524
131511
131511
131510
131497
131497
131497
131484
131484
131484
131470
131470
131470
131457
131457
131457
131443
131443
131443
131430
131430
131430
131417
131417
131417
131404
131404
131404
131391
131391
131391
131378
131378
131378
131365
131365
131365
131352
131352
131352
131339
131339
131339
131327
131326
131326
131314
131314
131314
131301
131301
131301
131288
131289
131289
131276
131276
131276
131264
131264
131264
131251
131251
131251
131239
131239
131239
131227
131227
131227
131214
131214
131214
131202
131202
131202
131190
131190
131190
131178
131178
131178
131166
131166
131166
131154
131154
131154
131142
131142
131142
131131
131131
131131
131119
131119
131119
131107
131107
131107
131096
131096
131096
131084
131084
131084
131073
131073
131073
131061
131061
131061
131050
131050
131050
131039
131039
131039
131028
131028
131028
131016
131016
131016
131005
131005
131005
130994
130994
130994
130983
130983
130983
130972
130972
130972
130962
130962
130962
130951
130951
130951
130940
130940
130940
130929
130929
130929
130919
130919
130919
130908
130908
130908
130898
130898
130898
130887
130887
130887
130877
130877
130877
130867
130867
130867
130857
130857
130857
130846
130846
130846
130836
130836
130836
130826
130826
130826
130816
130816
130816
130806
130806
130806
130796
130796
130796
130787
130787
130787
130777
130777
130777
130767
130767
130767
130757
130757
130757
130748
130748
130748
130738
130738
130738
130729
130729
130729
130720
130720
130719
130710
130710
130710
130701
130701
130701
130692
130692
130692
130683
130682
130682
130673
130673
130673
130664
130664
130664
130655
130655
130655
130646
130646
130646
130638
130638
130638
130629
130629
130629
130620
130620
130620
130611
130611
130611
130603
130603
130603
130594
130594
130594
130585
130585
130585
130577
130577
130577
130568
130568
130569
130560
130560
130560
130552
130552
130552
130543
130543
130543
130535
130535
130535
130527
130527
130527
130519
130519
130519
130511
130511
130511
130503
130503
130503
130495
130495
130495
130487
130487
130487
130479
130479
130479
130471
130471
130471
130463
130463
130463
130456
130456
130456
130448
130448
130448
130440
130440
130440
130433
130433
130433
130425
130425
130425
130418
130418
130418
130410
130410
130410
130403
130403
130403
130395
130395
130396
130388
130388
130388
130381
130381
130381
130374
130374
130374
130366
130366
130367
130359
130359
130359
130352
130352
130352
130345
130345
130345
130338
130338
130338
130331
130331
130331
130324
130324
130324
130318
130317
130317
130310
130311
130311
130304
130304
130304
130297
130297
130297
130290
130290
130290
130284
130284
130284
130277
130277
130277
130270
130270
130271
130264
130264
130264
130257
130257
130257
130251
130251
130251
130244
130244
130245
130238
130238
130238
130231
130232
130232
130225
130225
130225
130219
130219
130219
130213
130213
130213
130206
130206
130207
130200
130200
130200
130194
130194
130194
130188
130188
130188
130182
130182
130182
130176
130176
130176
130170
130170
130170
130164
130164
130164
130158
130158
130158
130152
130152
130152
130146
130146
130147
130141
130141
130140
130135
130135
130135
130129
130129
130129
130123
130123
130124
130118
130118
130118
130112
130112
130112
130107
130107
130106
130101
130101
130101
130096
130096
130096
130090
130090
130090
130085
130085
130085
130080
130080
130080
130074
130074
130074
130069
130069
130069
130064
130064
130064
130059
130059
130059
130054
130054
130054
130049
130049
130049
130045
130045
130045
130040
130040
130040
130036
130036
130036
130031
130031
130031
130027
130027
130027
130023
130023
130023
130019
130019
130019
130015
130015
130015
130012
130012
130012
130008
130009
130008
130006
130006
130006
130005
130005
130005
130003
130003
130003
130003
130005
130007
130014
130023
130025
130018
130011
130050
130078
130051
130028
130017
130010
130007
130006
130006
130006
130007
130007
130008
130009
130010
130010
130011
130011
130011
130011
130011
130010
130008
130006
130002
129999
129998
129995
129993
129990
129988
129986
129986
129986
129989
129994
130001
130011
130023
130038
130055
130074
130092
130107
130120
130129
130137
130144
130148
130147
130165
130201
130235
130269
130302
130336
130369
130402
130434
130466
130497
130528
130559
130589
130620
130650
130680
130710
130741
130772
130803
130835
130868
130901
130936
130971
131008
131046
131086
131126
131169
131213
131258
131305
131354
131405
131458
131512
131568
131627
131687
131749
131814
131881
131950
132021
132095
132171
132249
132330
132414
132500
132589
132681
132776
132874
132975
133079
133185
133295
133408
133524
133643
133765
133890
134018
134148
134281
134417
134555
134695
134838
134982
135128
135275
135424
135574
135725
135876
136028
136180
136332
136484
136636
136787
136937
137087
137236
137385
137532
137679
137825
137970
138114
138258
138401
138543
138685
138826
138967
139108
139248
139389
139529
139669
139809
139948
140088
140228
140368
140508
140648
140788
140927
141067
141207
141346
141485
141624
141762
141900
142037
142174
142309
142444
142577
142709
142840
142970
143098
143224
143349
143472
143592
143711
143828
143942
144054
144164
144271
144375
144477
144576
144673
144766
144857
144945
145029
145111
145190
145266
145339
145410
145477
145542
145603
145663
145719
145773
145825
145875
145922
145967
146011
146052
146092
146131
146168
146204
146239
146273
146306
146339
146371
146403
146434
146465
146497
146528
146560
146592
146624
146657
146690
146724
146759
146794
146830
146867
146904
146942
146981
147020
147060
147100
147141
147182
147223
147265
147307
147349
147391
147434
147476
147519
147561
147603
147646
147688
147731
147773
147815
147858
147900
147943
147986
148029
148072
148115
148158
148202
148245
148288
148331
148373
148415
148456
148494
148528
148557
148588
148621
148656
148690
148725
148761
148797
148838
148834
148827
148819
148812
148806
148800
148793
148787
148779
148771
148762
148753
148743
148732
148722
148710
148699
148687
148674
148662
148649
148637
148624
148612
148599
148587
148575
148564
148552
148541
148531
148521
148511
148502
148493
148485
148477
148470
148463
148457
148451
148446
148441
148437
148433
148430
148428
148428
148428
148428
148427
148425
148424
148424
148425
148427
148429
148432
148435
148438
148442
148445
148449
148453
148457
148461
148465
148469
148474
148478
148483
148488
148492
148497
148502
148507
148511
148516
148521
148525
148530
148534
148538
148542
148546
148550
148554
148558
148561
148564
148567
148570
148571
148572
148573
148574
148575
148580
148589
148593
148597
148600
148586
148574
148561
148549
148538
148526
148515
148504
148493
148483
148472
148462
148452
148442
148432
148422
148413
148403
148393
148384
148375
148366
148356
148347
148338
148329
148320
148312
148303
148294
148285
148277
148268
148260
148251
148243
148235
148227
148218
148210
148202
148194
148186
148179
148171
148163
148156
148148
148141
148134
148126
148119
148112
148105
148098
148091
148084
148077
148071
148064
148057
148051
148045
148039
148033
148027
148021
148015
148010
148005
147999
147994
147989
147985
147980
147976
147971
147968
147964
147960
147957
147954
147950
147948
147945
147943
147940
147938
147936
147935
147933
147932
147931
147930
147930
147930
147929
147930
147930
147931
147932
147933
147934
147936
147938
147941
147943
147946
147949
147953
147956
147960
147964
147969
147973
147979
147984
147990
147995
148002
148008
148015
148022
148029
148036
148044
148052
148060
148068
148077
148085
148094
148103
148112
148122
148131
148141
148151
148161
148172
148182
148193
148203
148215
148226
148237
148248
148260
148272
148284
148295
148307
148319
148332
148343
148356
148368
148380
148392
148404
148416
148428
148440
148452
148464
148476
148487
148499
148510
148522
148533
148544
148555
148566
148577
148588
148598
148609
148619
148630
148639
148649
148659
148669
148678
148687
148696
148705
148714
148722
148731
148739
148747
148755
148762
148770
148777
148785
148792
148799
148805
148812
148818
148825
148831
148837
148843
148849
148855
148860
148866
148872
148877
148883
148888
148893
148898
148904
148909
148914
148919
148925
148930
148935
148940
148945
148951
148956
148961
148966
148972
148977
148982
148987
148991
148995
148995
148991
148991
148994
148995
148991
148983
148987
148986
148982
148981
148977
148977
148971
148971
148973
148963
148967
148966
148961
148960
148956
148956
148950
148950
148953
148942
148946
148945
148940
148940
148935
148935
148930
148929
148932
148922
148925
148924
148919
148919
148915
148914
148909
148909
148911
148901
148904
148904
148898
148898
148894
148893
148888
148888
148891
148880
148883
148883
148877
148877
148872
148872
148866
148866
148869
148858
148861
148861
148855
148855
148850
148849
148843
148843
148847
148835
148838
148837
148831
148831
148826
148825
148818
148819
148823
148810
148813
148812
148805
148806
148800
148799
148792
148792
148797
148783
148786
148785
148777
148778
148772
148770
148763
148763
148768
148753
148756
148755
148747
148748
148741
148739
148731
148731
148737
148721
148724
148723
148714
148715
148707
148705
148696
148697
148703
148685
148689
148687
148678
148679
148671
148669
148659
148660
148667
148647
148652
148649
148639
148640
148632
148629
148619
148620
148627
148607
148611
148609
148598
148599
148590
148588
148577
148578
148586
148564
148569
148566
148555
148556
148547
148544
148533
148534
148542
148519
148524
148521
148510
148511
148501
148498
148487
148488
148496
148472
148478
148475
148463
148464
148454
148452
148439
148440
148449
148425
148430
148428
148415
148416
148406
148404
148391
148392
148401
148376
148382
148379
148367
148368
148358
148355
148343
148344
148352
148328
148334
148331
148319
148319
148310
148307
148295
148296
148304
148280
148286
148283
148271
148272
148263
148260
148248
148249
148257
148234
148240
148237
148225
148226
148217
148214
148203
148204
148212
148190
148196
148192
148181
148182
148174
148171
148160
148161
148169
148149
148154
148151
148140
148141
148134
148131
148121
148122
148129
148111
148115
148112
148102
148103
148097
148094
148085
148085
148092
148075
148079
148077
148067
148068
148062
148060
148051
148052
148059
148043
148047
148044
148036
148036
148031
148029
148021
148022
148028
148014
148017
148015
148007
148008
148004
148002
147995
147996
148001
147990
147992
147990
147983
147984
147981
147979
147973
147974
147979
147970
147971
147969
147964
147965
147963
147960
147956
147957
147961
147954
147955
147953
147949
147950
147948
147946
147943
147944
147948
147943
147943
147941
147938
147939
147939
147936
147934
147935
147938
147935
147935
147933
147931
147932
147933
147931
147930
147931
147933
147933
147932
147930
147929
147930
147932
147930
147930
147931
147933
147934
147932
147931
147931
147932
147934
147932
147933
147934
147936
147939
147937
147935
147936
147937
147940
147938
147940
147941
147942
147947
147945
147943
147945
147946
147950
147948
147950
147951
147952
147958
147956
147954
147957
147958
147962
147961
147964
147965
147965
147973
147970
147968
147972
147973
147978
147976
147980
147981
147981
147990
147987