/*--------------------------------*- C++ -*----------------------------------*\
| =========                 |                                                 |
| \\      /  F ield         | OpenFOAM: The Open Source CFD Toolbox           |
|  \\    /   O peration     | Version:  v2006                                 |
|   \\  /    A nd           | Website:  www.openfoam.com                      |
|    \\/     M anipulation  |                                                 |
\*---------------------------------------------------------------------------*/
FoamFile
{
    version     2.0;
    format      ascii;
    class       volVectorField;
    location    "0.018";
    object      U;
}
// * * * * * * * * * * * * * * * * * * * * * * * * * * * * * * * * * * * * * //

dimensions      [0 1 -1 0 0 0 0];


internalField   nonuniform List<vector> 
41981
(
(55.9376 0.00461299 4.38631e-19)
(55.9379 -0.00876745 4.14395e-19)
(55.9375 0.00757326 6.63169e-20)
(55.9373 -0.00462952 -4.24796e-19)
(55.9377 0.000713117 2.67944e-19)
(55.9378 -0.000652761 0)
(55.9382 9.90612e-06 4.32307e-21)
(55.9384 -0.00025889 -3.15848e-21)
(55.9386 -7.24808e-06 2.50493e-21)
(55.9385 -3.19061e-05 -3.30837e-21)
(55.9382 8.43993e-05 -1.79638e-22)
(55.9378 0.000122419 2.14944e-22)
(55.9372 0.000185557 -1.9013e-24)
(55.9365 0.000230798 0)
(55.9352 0.000254504 0)
(55.932 0.000125358 0)
(55.9245 -0.000465277 0)
(55.9096 -0.00181994 0)
(55.8862 -0.00390036 0)
(55.8545 -0.00649268 0)
(55.8155 -0.0093855 0)
(55.7707 -0.0123752 0)
(55.7217 -0.0152753 0)
(55.6701 -0.0179649 0)
(55.617 -0.0203974 0)
(55.5632 -0.0225704 0)
(55.5089 -0.0245114 0)
(55.454 -0.0262694 0)
(55.3985 -0.0278885 0)
(55.342 -0.0294018 0)
(55.2843 -0.0308306 0)
(55.2253 -0.0321866 0)
(55.1649 -0.0334753 0)
(55.1031 -0.0346998 0)
(55.0398 -0.0358627 0)
(54.9752 -0.0369679 0)
(54.9092 -0.0380208 0)
(54.8419 -0.039028 0)
(54.7733 -0.0399962 0)
(54.7035 -0.0409294 -9.67504e-23)
(54.6323 -0.0418316 0)
(54.5599 -0.0427075 0)
(54.4863 -0.0435605 0)
(54.4114 -0.0443929 0)
(54.3352 -0.0452066 0)
(54.2579 -0.0460027 0)
(54.1794 -0.0467823 0)
(54.0997 -0.0475461 9.96977e-23)
(54.0188 -0.0482944 0)
(53.9368 -0.0490276 0)
(53.8538 -0.0497458 0)
(53.7696 -0.0504488 0)
(53.6844 -0.0511365 0)
(53.5981 -0.0518086 0)
(53.5108 -0.0524649 0)
(53.4226 -0.0531049 0)
(53.3334 -0.053728 0)
(53.2433 -0.0543338 0)
(53.1523 -0.0549218 0)
(53.0604 -0.0554914 0)
(52.9676 -0.0560419 0)
(52.8741 -0.0565726 0)
(52.7798 -0.0570821 0)
(52.6847 -0.0575708 0)
(52.5889 -0.0580396 0)
(52.4924 -0.0584888 0)
(52.3953 -0.0589191 0)
(52.2976 -0.0593298 0)
(52.1992 -0.05972 0)
(52.1004 -0.0600904 0)
(52.0009 -0.0604428 0)
(51.9011 -0.0607731 0)
(51.8007 -0.0610754 0)
(51.7 -0.061351 0)
(51.5989 -0.0616025 0)
(51.4974 -0.0618304 0)
(51.3956 -0.0620342 0)
(51.2936 -0.0622136 0)
(51.1913 -0.0623682 0)
(51.0888 -0.0624978 0)
(50.9862 -0.0626024 0)
(50.8834 -0.0626815 0)
(50.7806 -0.062735 0)
(50.6777 -0.0627629 0)
(50.5748 -0.0627649 0)
(50.472 -0.0627408 0)
(50.3692 -0.0626905 0)
(50.2665 -0.062614 0)
(50.164 -0.062511 0)
(50.0617 -0.0623813 0)
(49.9596 -0.062225 0)
(49.8578 -0.0620423 0)
(49.7562 -0.0618328 0)
(49.6551 -0.0615966 0)
(49.5543 -0.0613331 0)
(49.454 -0.0610432 0)
(49.3541 -0.0607276 0)
(49.2547 -0.060386 0)
(49.1559 -0.0600186 -2.11604e-22)
(49.0576 -0.0596254 0)
(48.96 -0.0592062 0)
(48.8631 -0.0587615 0)
(48.7668 -0.0582916 0)
(48.6713 -0.0577967 0)
(48.5766 -0.0572771 0)
(48.4827 -0.0567332 0)
(48.3896 -0.0561651 0)
(48.2975 -0.0555734 0)
(48.2062 -0.0549586 0)
(48.1159 -0.0543209 0)
(48.0266 -0.0536607 0)
(47.9384 -0.0529787 0)
(47.8512 -0.052275 0)
(47.7651 -0.0515501 0)
(47.6802 -0.0508046 0)
(47.5964 -0.0500384 0)
(47.5138 -0.0492517 0)
(47.4325 -0.0484449 0)
(47.3523 -0.0476175 0)
(47.2735 -0.0467693 0)
(47.196 -0.0458995 0)
(47.1198 -0.0450064 0)
(47.045 -0.0440871 0)
(46.9715 -0.043138 0)
(46.8994 -0.0421547 0)
(46.8287 -0.041132 0)
(46.7595 -0.0400651 0)
(46.6919 -0.0389501 0)
(46.6259 -0.0377852 0)
(46.5615 -0.0365713 0)
(46.4988 -0.0353105 0)
(46.4377 -0.0340056 0)
(46.3781 -0.0326561 -1.98119e-22)
(46.3195 -0.0312433 0)
(46.2614 -0.029714 0)
(46.2031 -0.0279763 0)
(46.144 -0.0259078 0)
(46.084 -0.0233579 0)
(46.0241 -0.0201981 0)
(45.9671 -0.0164631 0)
(45.9185 -0.0125266 0)
(45.8844 -0.00908455 0)
(45.8683 -0.00671588 0)
(45.8675 -0.00552362 0)
(45.8756 -0.00511832 -4.26892e-22)
(45.8869 -0.00500014 -6.56586e-22)
(45.8991 -0.00492764 0)
(45.9109 -0.0048565 -1.76441e-21)
(45.922 -0.00480261 0)
(45.9309 -0.00492926 6.1669e-19)
(45.9354 -0.00546005 1.45139e-18)
(45.9318 -0.00711177 -4.38056e-18)
(45.9161 -0.0105775 0)
(45.8829 -0.0132745 0)
(45.8391 -0.0102378 3.23812e-19)
(45.7731 -0.0245848 0)
(45.6613 -0.0458034 3.7529e-18)
(45.5124 -0.0734366 0)
(45.2972 -0.0965367 0)
(45.0516 -0.105276 -1.96805e-18)
(44.1049 -0.137748 2.47028e-18)
(43.4335 -0.128265 -4.6728e-18)
(45.0313 -0.164411 3.88138e-18)
(45.3434 -0.152785 0)
(45.3471 -0.181441 5.69849e-18)
(44.907 -0.192215 -5.02825e-19)
(42.6431 -0.127985 0)
(41.8431 -0.118061 0)
(44.7854 -0.192297 1.34872e-18)
(45.3579 -0.184313 7.45394e-19)
(45.3373 -0.173512 0)
(44.6248 -0.17474 -9.06025e-19)
(41.1077 -0.101567 0)
(40.4466 -0.0859061 1.29818e-19)
(44.4702 -0.153617 2.14002e-19)
(45.3192 -0.160839 1.77624e-19)
(45.2574 -0.14653 -1.60927e-18)
(44.2731 -0.13718 1.51495e-18)
(39.8293 -0.0736232 -9.89479e-20)
(39.3114 -0.0630771 1.00931e-18)
(44.1293 -0.125411 -1.73153e-18)
(45.2169 -0.140662 -7.11987e-19)
(45.1446 -0.129369 -1.12128e-20)
(43.9268 -0.111721 8.69762e-19)
(38.8297 -0.0554156 -1.04749e-18)
(38.4022 -0.0492613 0)
(43.7675 -0.0998456 0)
(45.085 -0.120049 -1.43193e-18)
(44.9933 -0.114726 -1.44054e-18)
(43.599 -0.0952863 1.74804e-18)
(38.0053 -0.0461043 0)
(37.6639 -0.0394719 0)
(43.4494 -0.0856513 -6.76434e-26)
(44.9321 -0.109162 1.40757e-21)
(44.8321 -0.105093 -2.4764e-26)
(43.283 -0.0831645 -3.41074e-21)
(37.3327 -0.0387807 0)
(37.0349 -0.0345411 0)
(43.1398 -0.0762882 0)
(44.7679 -0.101656 -1.40914e-21)
(44.6628 -0.0990727 0)
(42.9762 -0.0758405 0)
(36.734 -0.035829 0)
(36.4633 -0.0315623 0)
(42.8394 -0.0696031 0)
(44.5982 -0.0962231 0)
(44.4897 -0.0939619 2.88964e-18)
(42.6786 -0.0699558 -1.74792e-18)
(36.1878 -0.0331695 0)
(35.9392 -0.0288347 0)
(42.5469 -0.06441 0)
(44.425 -0.0916372 0)
(44.3139 -0.0893661 2.89134e-18)
(42.389 -0.0650382 -1.74858e-18)
(35.684 -0.0306296 0)
(35.4539 -0.0265349 0)
(42.2624 -0.0601087 0)
(44.2501 -0.0874397 0)
(44.1371 -0.0854891 0)
(42.1073 -0.0610918 0)
(35.2155 -0.0284278 0)
(35.0007 -0.0244905 0)
(41.9856 -0.0565475 -1.74939e-18)
(44.0746 -0.0838117 -2.14803e-24)
(43.9602 -0.0820761 0)
(41.833 -0.0577853 0)
(34.7768 -0.0265006 0)
(34.575 -0.0225954 0)
(41.7158 -0.0533902 0)
(43.8991 -0.080553 0)
(43.7835 -0.0790288 0)
(41.5656 -0.0548931 0)
(34.3636 -0.0248207 0)
(34.1738 -0.0209111 0)
(41.4531 -0.0505243 -1.75047e-18)
(43.7243 -0.0775627 -2.07845e-24)
(43.6079 -0.0765782 0)
(41.3053 -0.0525871 0)
(33.9736 -0.023428 0)
(33.7942 -0.01937 0)
(41.1971 -0.0480223 0)
(43.5503 -0.0749431 0)
(43.433 -0.0742904 2.89778e-18)
(41.0512 -0.0505733 -1.75124e-18)
(33.6038 -0.022288 0)
(33.4337 -0.0180691 0)
(40.947 -0.0457828 0)
(43.3769 -0.0724739 0)
(43.2588 -0.0720374 0)
(40.8031 -0.0485672 0)
(33.252 -0.0211512 0)
(33.0902 -0.0168513 0)
(40.7025 -0.0436768 0)
(43.2042 -0.0701379 0)
(43.0853 -0.0699363 2.89975e-18)
(40.5604 -0.0467092 -1.75211e-18)
(32.9166 -0.0201007 0)
(32.7624 -0.0156654 0)
(40.4634 -0.0416553 0)
(43.0321 -0.0679079 0)
(42.9126 -0.0679149 0)
(40.323 -0.0449115 0)
(32.5962 -0.0190606 0)
(32.4489 -0.0146286 0)
(40.2292 -0.0398044 0)
(42.8607 -0.0657882 0)
(42.7405 -0.0659975 0)
(40.0906 -0.0432255 0)
(32.2895 -0.0181301 0)
(32.1487 -0.0138083 0)
(39.9998 -0.0382008 0)
(42.6899 -0.0638725 0)
(42.5692 -0.0642516 -2.90226e-18)
(39.8627 -0.041731 1.75323e-18)
(31.9955 -0.0173817 0)
(31.8604 -0.0130264 0)
(39.7747 -0.0368139 0)
(42.5198 -0.0622318 0)
(42.3984 -0.0627771 0)
(39.6389 -0.0405052 0)
(31.7126 -0.0167277 0)
(31.5824 -0.0123104 0)
(39.5533 -0.0355868 0)
(42.3499 -0.0609365 0)
(42.2278 -0.0616456 0)
(39.4185 -0.0394931 0)
(31.4392 -0.0161776 0)
(31.3133 -0.0116801 0)
(39.3349 -0.0344823 0)
(42.1802 -0.0597631 0)
(42.0573 -0.0606706 0)
(39.2009 -0.0386176 0)
(31.1741 -0.0157116 0)
(31.0518 -0.0111423 0)
(39.1192 -0.0335327 0)
(42.0104 -0.0587603 0)
(41.8867 -0.0598801 -2.90503e-18)
(38.9857 -0.0378954 1.75452e-18)
(30.9161 -0.0153309 0)
(30.7969 -0.0106777 0)
(38.9055 -0.0327256 0)
(41.8404 -0.0579352 0)
(41.7158 -0.0592502 0)
(38.7724 -0.0373001 0)
(30.664 -0.0150138 0)
(30.5473 -0.0102728 0)
(38.6934 -0.0320362 0)
(41.67 -0.0572596 0)
(41.5445 -0.0587534 0)
(38.5606 -0.036808 0)
(30.4169 -0.0147486 0)
(30.3024 -0.0099175 0)
(38.4826 -0.0314437 0)
(41.499 -0.0567076 0)
(41.3725 -0.0583721 0)
(38.3498 -0.0364186 0)
(30.1741 -0.0145468 0)
(30.0615 -0.00958071 0)
(38.2727 -0.0309018 0)
(41.3273 -0.0562358 0)
(41.1997 -0.0580707 -2.90739e-18)
(38.1398 -0.0361021 1.75566e-18)
(29.935 -0.0143868 0)
(29.8241 -0.00925146 0)
(38.0635 -0.0303958 0)
(41.1547 -0.0558285 0)
(41.026 -0.0578491 0)
(37.9304 -0.035837 0)
(29.6991 -0.0142483 0)
(29.5897 -0.00894145 0)
(37.8548 -0.0299293 0)
(40.981 -0.0554725 0)
(40.8512 -0.0576748 0)
(37.7215 -0.0356058 0)
(29.4662 -0.0141272 0)
(29.3582 -0.00864942 0)
(37.6464 -0.0294998 0)
(40.8063 -0.05517 0)
(40.6754 -0.0575259 0)
(37.5129 -0.0353969 0)
(29.236 -0.0140194 0)
(29.1293 -0.00836555 0)
(37.4383 -0.0290838 0)
(40.6305 -0.0548835 0)
(40.4984 -0.0574003 -2.90953e-18)
(37.3045 -0.0352042 1.75672e-18)
(29.0083 -0.0139203 0)
(28.9028 -0.00809531 0)
(37.2304 -0.0286954 0)
(40.4534 -0.0546365 0)
(40.3202 -0.0573158 0)
(37.0962 -0.0350383 0)
(28.783 -0.0138343 0)
(28.6786 -0.00783771 0)
(37.0225 -0.0283335 0)
(40.275 -0.0544299 0)
(40.1406 -0.0572735 0)
(36.888 -0.0349002 0)
(28.5599 -0.0137617 0)
(28.4565 -0.00759403 0)
(36.8146 -0.0280023 0)
(40.0952 -0.0542697 0)
(39.9596 -0.0572808 0)
(36.6796 -0.0347947 0)
(28.3387 -0.0137041 0)
(28.2362 -0.00736568 0)
(36.6064 -0.0277062 0)
(39.9139 -0.054163 0)
(39.7771 -0.0573479 0)
(36.4709 -0.0347269 0)
(28.1191 -0.0136592 0)
(28.0174 -0.0071553 0)
(36.3978 -0.0274435 0)
(39.731 -0.0541018 0)
(39.5928 -0.0574911 0)
(36.2618 -0.0346988 0)
(27.9011 -0.0136064 0)
(27.8 -0.00698139 0)
(36.1886 -0.0272126 0)
(39.5463 -0.0540631 0)
(39.4068 -0.057672 0)
(36.0521 -0.0346989 0)
(27.6842 -0.0135755 0)
(27.5836 -0.00682606 0)
(35.9788 -0.0270145 0)
(39.3598 -0.0540802 0)
(39.219 -0.0579161 0)
(35.8415 -0.0347381 0)
(27.4682 -0.0135638 0)
(27.3679 -0.00668995 0)
(35.768 -0.0268553 0)
(39.1713 -0.0541576 0)
(39.029 -0.0582228 0)
(35.6299 -0.0348172 0)
(27.2528 -0.0135699 0)
(27.1527 -0.00657308 0)
(35.5561 -0.0267371 0)
(38.9807 -0.0542982 0)
(38.837 -0.0585931 0)
(35.4172 -0.0349371 0)
(27.0377 -0.0135935 0)
(26.9376 -0.00647293 0)
(35.3428 -0.0266573 0)
(38.7878 -0.0545002 0)
(38.6425 -0.0590238 0)
(35.203 -0.0350942 0)
(26.8225 -0.0136322 0)
(26.7224 -0.00638867 0)
(35.1281 -0.0266148 0)
(38.5925 -0.0547635 0)
(38.4457 -0.0595158 0)
(34.9872 -0.0352877 0)
(26.6071 -0.0136849 0)
(26.5068 -0.00632022 0)
(34.9116 -0.026608 0)
(38.3947 -0.0550859 0)
(38.2462 -0.0600657 0)
(34.7696 -0.035515 0)
(26.3912 -0.0137514 0)
(26.2906 -0.00626635 0)
(34.6932 -0.0266369 0)
(38.1941 -0.0554691 0)
(38.0438 -0.0606789 0)
(34.55 -0.0357782 0)
(26.1746 -0.0138315 0)
(26.0734 -0.00623028 0)
(34.4726 -0.0267061 0)
(37.9906 -0.0559208 0)
(37.8386 -0.0613787 0)
(34.3282 -0.0360616 0)
(25.9569 -0.013956 0)
(25.8548 -0.00627517 0)
(34.2498 -0.0268738 0)
(37.7842 -0.056448 0)
(37.6304 -0.0621385 0)
(34.1041 -0.0364117 0)
(25.7376 -0.0141208 0)
(25.6339 -0.00634521 0)
(34.0247 -0.0270921 0)
(37.5747 -0.0570299 0)
(37.419 -0.0629403 0)
(33.8775 -0.0367979 0)
(25.5162 -0.0142768 0)
(25.411 -0.00639987 0)
(33.797 -0.0273298 0)
(37.3621 -0.0576505 0)
(37.2044 -0.0637808 0)
(33.6482 -0.0371995 0)
(25.2927 -0.0144183 0)
(25.1859 -0.00644297 0)
(33.5665 -0.0275805 0)
(37.146 -0.0583096 0)
(36.9862 -0.0646609 0)
(33.416 -0.0376135 0)
(25.067 -0.0145501 0)
(24.9588 -0.00647847 0)
(33.3329 -0.0278419 0)
(36.9264 -0.0590052 0)
(36.7643 -0.0655801 0)
(33.1808 -0.0380393 0)
(24.8392 -0.014676 0)
(24.7296 -0.00651029 0)
(33.0962 -0.0281155 0)
(36.7029 -0.0597394 0)
(36.5386 -0.0665412 0)
(32.9422 -0.038479 0)
(24.6093 -0.0147998 0)
(24.4982 -0.00654232 0)
(32.856 -0.0284041 0)
(36.4754 -0.0605137 0)
(36.3088 -0.0675475 0)
(32.7002 -0.0389364 0)
(24.3772 -0.0149257 0)
(24.2646 -0.00657715 0)
(32.6123 -0.0287106 0)
(36.2437 -0.0613311 0)
(36.0748 -0.0686008 0)
(32.4546 -0.039414 0)
(24.1427 -0.0150556 0)
(24.0287 -0.00661982 0)
(32.3649 -0.0290393 0)
(36.0077 -0.0621973 0)
(35.8364 -0.0697089 0)
(32.2051 -0.0399185 0)
(23.9057 -0.015196 0)
(23.7901 -0.00667331 0)
(32.1134 -0.0293947 0)
(35.7672 -0.0631156 0)
(35.5934 -0.0708732 0)
(31.9517 -0.0404519 0)
(23.6661 -0.0153475 0)
(23.5488 -0.00673782 0)
(31.8579 -0.0297788 0)
(35.522 -0.0640892 0)
(35.3456 -0.0720957 0)
(31.694 -0.0410153 0)
(23.4235 -0.01551 0)
(23.3045 -0.00681385 0)
(31.598 -0.0301927 0)
(35.272 -0.065119 0)
(35.093 -0.0733775 0)
(31.4319 -0.0416099 0)
(23.1778 -0.0156843 0)
(23.057 -0.0069011 0)
(31.3336 -0.030635 0)
(35.0169 -0.0662045 0)
(34.8351 -0.0747165 0)
(31.1652 -0.0422338 0)
(22.9287 -0.0158699 0)
(22.8061 -0.00699893 0)
(31.0644 -0.0311029 0)
(34.7565 -0.06734 0)
(34.572 -0.0760976 0)
(30.8937 -0.0428771 0)
(22.6762 -0.0160623 0)
(22.5516 -0.00710763 0)
(30.7903 -0.0315959 0)
(34.4908 -0.0685272 0)
(34.3035 -0.0774911 0)
(30.6172 -0.0435244 0)
(22.4199 -0.0162584 0)
(22.2934 -0.00723908 0)
(30.511 -0.0321449 0)
(34.2195 -0.0698363 0)
(34.0293 -0.0789549 0)
(30.3355 -0.044204 0)
(22.1598 -0.0164693 0)
(22.0312 -0.00737955 0)
(30.2264 -0.0327123 0)
(33.9424 -0.0711929 0)
(33.7492 -0.0804568 0)
(30.0484 -0.0449 0)
(21.8956 -0.0166881 0)
(21.7649 -0.00752658 0)
(29.9364 -0.0332933 0)
(33.6593 -0.0725857 0)
(33.4632 -0.0819963 0)
(29.7558 -0.0456129 0)
(21.6271 -0.0169145 0)
(21.4943 -0.00767923 0)
(29.6407 -0.0338856 0)
(33.3702 -0.0740112 0)
(33.171 -0.0835677 0)
(29.4576 -0.0463388 0)
(21.3543 -0.0171468 0)
(21.2194 -0.00783686 0)
(29.3393 -0.0344858 0)
(33.075 -0.0754645 0)
(32.8727 -0.0851649 0)
(29.1536 -0.0470742 0)
(21.0771 -0.0173844 0)
(20.94 -0.00799828 0)
(29.0322 -0.0350899 0)
(32.7734 -0.0769399 0)
(32.5681 -0.0867846 0)
(28.8438 -0.047817 0)
(20.7955 -0.0176265 0)
(20.6562 -0.00816178 0)
(28.7192 -0.0356931 0)
(32.4656 -0.0784308 0)
(32.2572 -0.0884176 0)
(28.5282 -0.0485613 0)
(20.5093 -0.017871 0)
(20.3679 -0.00832608 0)
(28.4004 -0.0362901 0)
(32.1514 -0.0799299 0)
(31.94 -0.0900575 0)
(28.2068 -0.0493033 0)
(20.2187 -0.0181169 0)
(20.0752 -0.0084906 0)
(28.0756 -0.0368771 0)
(31.8309 -0.0814303 0)
(31.6164 -0.0916969 0)
(27.8795 -0.0500388 0)
(19.9236 -0.0183632 0)
(19.7781 -0.00865429 0)
(27.7451 -0.0374494 0)
(31.504 -0.0829237 0)
(31.2864 -0.0933271 0)
(27.5464 -0.0507631 0)
(19.6242 -0.0186085 0)
(19.4767 -0.00881561 0)
(27.4088 -0.0380007 0)
(31.1707 -0.0844017 0)
(30.9502 -0.094935 0)
(27.2077 -0.0514672 0)
(19.3205 -0.0188499 0)
(19.1712 -0.00897076 0)
(27.0669 -0.0385222 0)
(30.8312 -0.0858523 0)
(30.6079 -0.0965094 0)
(26.8634 -0.0521436 0)
(19.0127 -0.0190842 0)
(18.8618 -0.00911998 0)
(26.7195 -0.0390063 0)
(30.4856 -0.0872626 0)
(30.2595 -0.0980389 0)
(26.5137 -0.0527871 0)
(18.7011 -0.0193124 0)
(18.5486 -0.00926027 0)
(26.3669 -0.0394449 0)
(30.134 -0.0886176 0)
(29.9052 -0.0995061 0)
(26.159 -0.0533875 0)
(18.386 -0.0195301 0)
(18.2321 -0.00938847 0)
(26.0092 -0.0398278 0)
(29.7767 -0.0899012 0)
(29.5453 -0.100894 0)
(25.7993 -0.0539347 0)
(18.0675 -0.0197339 0)
(17.9125 -0.00950127 0)
(25.6469 -0.0401428 0)
(29.4138 -0.0910954 0)
(29.1801 -0.102183 0)
(25.4353 -0.0544168 0)
(17.7462 -0.0199202 0)
(17.5903 -0.00959533 0)
(25.2804 -0.0403762 0)
(29.0458 -0.0921788 0)
(28.8099 -0.103349 0)
(25.0672 -0.0548206 0)
(17.4225 -0.0200855 0)
(17.2661 -0.00966748 0)
(24.9102 -0.0405126 0)
(28.6731 -0.0931291 0)
(28.4353 -0.104369 0)
(24.6956 -0.0551321 0)
(17.097 -0.0202263 0)
(16.9403 -0.00971421 0)
(24.5368 -0.040531 0)
(28.2962 -0.0939256 0)
(28.0568 -0.105218 0)
(24.3213 -0.055333 0)
(16.7702 -0.0203397 0)
(16.6137 -0.00972976 0)
(24.1611 -0.0403824 0)
(27.9157 -0.0945382 0)
(27.6751 -0.105794 0)
(23.945 -0.0553771 0)
(16.4431 -0.0204185 0)
(16.2871 -0.0096969 0)
(23.7838 -0.0402648 0)
(27.5327 -0.0947308 0)
(27.2912 -0.105975 0)
(23.5675 -0.0553185 0)
(16.1164 -0.0204047 0)
(15.9613 -0.00958391 0)
(23.4059 -0.0401335 0)
(27.1481 -0.0945181 0)
(26.906 -0.105829 0)
(23.1899 -0.0551544 0)
(15.7909 -0.0202906 0)
(15.6375 -0.00939499 0)
(23.0286 -0.0397862 0)
(26.7626 -0.0940443 0)
(26.5205 -0.105397 0)
(22.8136 -0.0547982 0)
(15.4679 -0.0201126 0)
(15.3168 -0.00914854 0)
(22.6533 -0.0392281 0)
(26.3772 -0.0932591 0)
(26.1358 -0.104626 0)
(22.4398 -0.0542332 0)
(15.1488 -0.01987 0)
(15.0008 -0.00884097 0)
(22.2812 -0.0384595 0)
(25.9932 -0.0921318 0)
(25.7531 -0.103507 0)
(22.0698 -0.0534676 0)
(14.8351 -0.0195963 0)
(14.6902 -0.00851624 0)
(21.914 -0.0375073 0)
(25.612 -0.0906497 0)
(25.3741 -0.101994 0)
(21.7054 -0.0525067 0)
(14.5275 -0.0192796 0)
(14.3865 -0.00813793 0)
(21.5534 -0.0363301 0)
(25.2351 -0.0887577 0)
(25.0004 -0.10003 0)
(21.3483 -0.0513055 0)
(14.2276 -0.0188782 0)
(14.0913 -0.00767153 0)
(21.201 -0.0348682 0)
(24.8644 -0.0864152 0)
(24.6337 -0.097587 0)
(21.0003 -0.0498214 0)
(13.9372 -0.0183889 0)
(13.8066 -0.00711116 0)
(20.8591 -0.0329722 0)
(24.5016 -0.0836115 0)
(24.2763 -0.0944417 0)
(20.6638 -0.0479588 0)
(13.6585 -0.0178192 0)
(13.5345 -0.00644159 0)
(20.5296 -0.031242 0)
(24.1497 -0.0797803 0)
(23.9305 -0.0904672 0)
(20.3406 -0.0459132 0)
(13.3932 -0.0170343 0)
(13.2769 -0.00562567 0)
(20.215 -0.0292157 0)
(23.8108 -0.0753733 0)
(23.5985 -0.0859259 0)
(20.0333 -0.0435819 0)
(13.1434 -0.0161362 0)
(13.0359 -0.00471906 0)
(19.9176 -0.0268706 0)
(23.4868 -0.0704074 0)
(23.2824 -0.0808165 0)
(19.7442 -0.0409443 0)
(12.9113 -0.0151576 0)
(12.8134 -0.00374545 0)
(19.6396 -0.0242384 0)
(23.1798 -0.0649089 0)
(22.9843 -0.0751721 0)
(19.4753 -0.038032 0)
(12.6986 -0.0141156 0)
(12.6113 -0.00272046 0)
(19.3829 -0.0213528 0)
(22.8919 -0.058918 0)
(22.7063 -0.0690405 0)
(19.2287 -0.0348816 0)
(12.507 -0.0130262 0)
(12.4309 -0.00165905 0)
(19.1496 -0.0182472 0)
(22.6253 -0.0524871 0)
(22.4504 -0.062481 0)
(19.0062 -0.0315284 0)
(12.3379 -0.0119057 0)
(12.2736 -0.000576695 0)
(18.9413 -0.0149562 0)
(22.3817 -0.0456833 0)
(22.2184 -0.0555724 0)
(18.8093 -0.0280176 0)
(12.1922 -0.0107687 0)
(12.1402 0.000514412 0)
(18.7594 -0.0115292 0)
(22.1629 -0.0386031 0)
(22.0119 -0.0484112 0)
(18.6394 -0.0244039 0)
(12.0709 -0.00962973 0)
(12.0312 0.00161004 0)
(18.605 -0.00799875 0)
(21.9702 -0.0313164 0)
(21.8322 -0.0410648 0)
(18.4974 -0.0207211 0)
(11.9742 -0.00850312 0)
(11.9471 0.00273839 0)
(18.4788 -0.00435961 0)
(21.805 -0.0238473 0)
(21.6806 -0.0333495 0)
(18.3844 -0.0166726 0)
(11.9026 -0.0071081 0)
(11.8914 0.00374924 0)
(18.3799 -0.000768512 0)
(21.6679 -0.0166257 0)
(21.5573 -0.0258363 0)
(18.299 -0.012824 0)
(11.8575 -0.00596586 0)
(11.861 0.00455608 0)
(18.3084 0.00259328 0)
(21.5591 -0.00968485 0)
(21.4623 -0.0185925 0)
(18.2411 -0.00926462 0)
(11.8365 -0.00505858 0)
(11.853 0.00520029 0)
(18.2643 0.00570002 0)
(21.4786 -0.00305127 0)
(21.3955 -0.0116528 0)
(18.2102 -0.00595254 0)
(11.8372 -0.00428623 0)
(11.8654 0.00573813 0)
(18.2465 0.008532 0)
(21.4257 0.00316732 0)
(21.356 -0.00511812 0)
(18.2051 -0.0028972 0)
(11.8576 -0.00360094 0)
(11.8964 0.00617784 0)
(18.2536 0.011073 0)
(21.3995 0.0089151 0)
(21.3426 0.000848118 0)
(18.2242 -4.22954e-05 0)
(11.896 -0.00299029 0)
(11.9441 0.00650143 0)
(18.284 0.0133046 0)
(21.3987 0.0143248 0)
(21.3539 0.00639709 0)
(18.2659 0.00256557 0)
(11.9507 -0.0023948 0)
(12.0073 0.00684203 0)
(18.3357 0.015331 0)
(21.4215 0.019009 0)
(21.3874 0.0109654 0)
(18.3264 0.00491725 0)
(12.022 -0.00150473 0)
(12.0842 0.00697599 0)
(18.4057 0.017032 0)
(21.4656 0.0234625 0)
(21.4412 0.0149296 0)
(18.4042 0.00660563 0)
(12.105 -0.00105583 0)
(12.1715 0.00712814 0)
(18.4917 0.0186907 0)
(21.5286 0.0275125 0)
(21.5123 0.0183631 0)
(18.4962 0.00798682 0)
(12.1959 -0.000797218 0)
(12.2659 0.00736409 0)
(18.5905 0.0199203 0)
(21.6074 0.0305026 0)
(21.5986 0.0211907 0)
(18.6005 0.0090715 0)
(12.2936 -0.000567248 0)
(12.3662 0.00742423 0)
(18.7005 0.0208168 0)
(21.7006 0.0330621 0)
(21.6991 0.0234456 0)
(18.716 0.0098407 0)
(12.3974 -0.000406595 0)
(12.4731 0.00743526 0)
(18.8217 0.0213683 0)
(21.8079 0.0349384 0)
(21.8129 0.0254146 0)
(18.8418 0.0106988 0)
(12.5074 -0.000165347 0)
(12.5843 0.0073626 0)
(18.9514 0.0216245 0)
(21.9268 0.0360156 0)
(21.9365 0.0265144 0)
(18.9745 0.0108311 0)
(12.6194 -0.000357951 0)
(12.6947 0.00708467 0)
(19.0858 0.0214352 0)
(22.0535 0.0364176 0)
(22.0659 0.0266307 0)
(19.1101 0.0103862 0)
(12.7286 -0.00079498 0)
(12.8007 0.00681761 0)
(19.2218 0.0210767 0)
(22.1848 0.0364084 0)
(22.1991 0.0265206 0)
(19.2465 0.00985696 0)
(12.8333 -0.00119029 0)
(12.9026 0.00662911 0)
(19.3582 0.0206601 0)
(22.3196 0.0361732 0)
(22.3352 0.026113 0)
(19.3826 0.00922751 0)
(12.9341 -0.00154488 0)
(13.0003 0.00644103 0)
(19.4935 0.0201135 0)
(22.4561 0.0355858 0)
(22.4719 0.0253403 0)
(19.5168 0.00849935 0)
(13.0305 -0.00183838 0)
(13.0933 0.00622569 0)
(19.626 0.0194366 0)
(22.5925 0.0346632 0)
(22.6077 0.0242492 0)
(19.6476 0.00765617 0)
(13.1219 -0.00213404 0)
(13.1809 0.00583431 0)
(19.7545 0.0185478 0)
(22.7271 0.0333468 0)
(22.7413 0.0228684 0)
(19.7743 0.0066436 0)
(13.2062 -0.0025978 0)
(13.2612 0.0054412 0)
(19.8783 0.0175459 0)
(22.859 0.0318071 0)
(22.8717 0.0213536 0)
(19.8959 0.00560811 0)
(13.2829 -0.00302819 0)
(13.3344 0.00512355 0)
(19.9967 0.0165362 0)
(22.9871 0.0301507 0)
(22.9978 0.0197809 0)
(20.0116 0.00460799 0)
(13.3528 -0.00339949 0)
(13.4011 0.00491355 0)
(20.1088 0.0155901 0)
(23.1104 0.028427 0)
(23.1186 0.01815 0)
(20.1205 0.00374557 0)
(13.417 -0.00355419 0)
(13.462 0.00478056 0)
(20.214 0.0146712 0)
(23.2281 0.0266411 0)
(23.2333 0.016489 0)
(20.2221 0.0029321 0)
(13.4758 -0.00362114 0)
(13.5175 0.00467124 0)
(20.3118 0.0137453 0)
(23.3395 0.0248108 0)
(23.3415 0.0148169 0)
(20.3164 0.00212198 0)
(13.5294 -0.00369968 0)
(13.5679 0.00455925 0)
(20.4024 0.0128281 0)
(23.4442 0.0229725 0)
(23.4429 0.0131572 0)
(20.4032 0.00133505 0)
(13.5777 -0.00378258 0)
(13.613 0.00444736 0)
(20.4855 0.0119337 0)
(23.5419 0.0211558 0)
(23.5373 0.0115493 2.94665e-18)
(20.4828 0.000593296 -1.77694e-18)
(13.621 -0.00386093 0)
(13.6533 0.0043438 0)
(20.5615 0.0110865 0)
(23.6327 0.0193999 0)
(23.6248 0.0100108 0)
(20.5554 -9.64612e-05 0)
(13.6594 -0.00393076 0)
(13.689 0.00425136 0)
(20.6306 0.0102975 1.77681e-18)
(23.7168 0.0177331 6.23203e-25)
(23.7055 0.00857374 0)
(20.6213 -0.000721593 0)
(13.6936 -0.00398805 0)
(13.7207 0.00417734 0)
(20.6933 0.0095812 0)
(23.7941 0.0161825 0)
(23.7796 0.0072499 0)
(20.6808 -0.00127542 0)
(13.7237 -0.00402806 0)
(13.7486 0.00411146 0)
(20.7498 0.0089402 0)
(23.865 0.0147664 0)
(23.8475 0.00603954 0)
(20.7345 -0.00175737 0)
(13.7504 -0.00404546 0)
(13.7733 0.00404581 0)
(20.8006 0.00837471 0)
(23.9299 0.0134954 0)
(23.9094 0.00494457 0)
(20.7827 -0.00217016 0)
(13.7741 -0.00403303 0)
(13.7953 0.00399128 0)
(20.8463 0.00787144 0)
(23.989 0.0123351 0)
(23.9658 0.00395897 0)
(20.8261 -0.00252064 0)
(13.7951 -0.0040049 0)
(13.8149 0.00394863 0)
(20.8873 0.00743561 0)
(24.0428 0.0113014 0)
(24.0171 0.00308489 0)
(20.865 -0.00281147 0)
(13.814 -0.00396611 0)
(13.8327 0.00391714 0)
(20.9243 0.00706643 0)
(24.0917 0.0103995 0)
(24.0637 0.00229786 0)
(20.9001 -0.00306134 0)
(13.8313 -0.00392509 0)
(13.849 0.00389413 0)
(20.9575 0.00674867 0)
(24.1363 0.00960011 0)
(24.1062 0.00161069 0)
(20.9317 -0.00326284 0)
(13.8471 -0.00387838 0)
(13.864 0.00388079 0)
(20.9876 0.00648597 0)
(24.1768 0.00890506 0)
(24.1448 0.00101388 0)
(20.9602 -0.00342711 0)
(13.8616 -0.00383262 0)
(13.8779 0.0038832 0)
(21.0147 0.00628023 0)
(24.2137 0.00830994 0)
(24.1799 0.000502003 0)
(20.986 -0.00356795 0)
(13.8752 -0.00379846 0)
(13.8909 0.00389404 0)
(21.0392 0.00611383 0)
(24.2472 0.00779551 0)
(24.2118 7.65967e-05 0)
(21.0094 -0.00367773 0)
(13.8878 -0.00376902 0)
(13.903 0.00390544 0)
(21.0614 0.00597613 0)
(24.2777 0.00735702 0)
(24.2408 -0.000314791 0)
(21.0305 -0.00377902 0)
(13.8996 -0.00374513 0)
(13.9144 0.00391747 0)
(21.0816 0.00586741 0)
(24.3055 0.00699358 0)
(24.2673 -0.000694845 0)
(21.0497 -0.00388561 0)
(13.9107 -0.00373253 0)
(13.9251 0.00392532 0)
(21.1 0.00576955 0)
(24.3308 0.00666563 0)
(24.2914 -0.00104349 0)
(21.0672 -0.00398576 0)
(13.9211 -0.00372658 0)
(13.935 0.00392827 0)
(21.1166 0.0056779 0)
(24.3539 0.006368 0)
(24.3134 -0.00138109 0)
(21.083 -0.00408638 0)
(13.9308 -0.00372854 0)
(13.9442 0.00392366 0)
(21.1317 0.00558712 0)
(24.3749 0.00608433 0)
(24.3334 -0.0016974 0)
(21.0974 -0.00419474 0)
(13.9396 -0.00374016 0)
(13.9526 0.00391638 0)
(21.1454 0.00550221 0)
(24.3941 0.00582115 0)
(24.3516 -0.00199155 0)
(21.1103 -0.0043068 0)
(13.9477 -0.00375737 0)
(13.9602 0.00390609 0)
(21.1577 0.0054199 0)
(24.4115 0.00557653 0)
(24.3681 -0.00227674 0)
(21.1219 -0.00442075 0)
(13.9549 -0.00377764 0)
(13.9669 0.00389208 0)
(21.1686 0.00533812 0)
(24.4273 0.00534299 0)
(24.383 -0.00254184 0)
(21.1322 -0.00453361 0)
(13.9612 -0.00380289 0)
(13.9727 0.0038774 0)
(21.1784 0.00525823 0)
(24.4416 0.0051244 0)
(24.3966 -0.00278357 0)
(21.1413 -0.00464168 0)
(13.9666 -0.00383024 0)
(13.9776 0.00386248 0)
(21.187 0.00518138 0)
(24.4545 0.0049237 0)
(24.4088 -0.00299675 0)
(21.1493 -0.00474114 0)
(13.9712 -0.0038587 0)
(13.9817 0.00385074 0)
(21.1946 0.00511632 0)
(24.4663 0.00474941 0)
(24.42 -0.00317046 0)
(21.1564 -0.00482379 0)
(13.9749 -0.00388739 0)
(13.985 0.00384159 0)
(21.2012 0.00506976 0)
(24.477 0.00461644 0)
(24.4301 -0.00329528 0)
(21.1626 -0.00488389 0)
(13.9778 -0.0039112 0)
(13.9876 0.00383752 0)
(21.2071 0.00505004 0)
(24.4868 0.00454298 0)
(24.4395 -0.00334097 0)
(21.1682 -0.00490157 0)
(13.9802 -0.00392268 0)
(13.9899 0.00384919 0)
(21.2127 0.00508425 0)
(24.496 0.00457213 0)
(24.4485 -0.00324969 0)
(21.1736 -0.0048441 0)
(13.9825 -0.00391003 0)
(13.9925 0.00388696 0)
(21.2183 0.0052124 0)
(24.5052 0.00477701 0)
(24.4578 -0.00289671 0)
(21.1795 -0.00463856 0)
(13.9854 -0.00385009 0)
(13.9965 0.00400008 0)
(21.225 0.00559521 0)
(24.515 0.00542847 0)
(24.4685 -0.00171971 0)
(21.1876 -0.00386248 0)
(13.9904 -0.00354914 0)
(14.0071 0.00477225 0)
(21.2355 0.0073039 1.77384e-18)
(24.5272 0.00777041 1.17838e-24)
(24.4798 0.00366548 1.2806e-18)
(21.1984 0.00245143 -1.76345e-18)
(14.0002 0.00240913 0)
(14.1181 0.0099695 0)
(21.2513 0.00836531 0)
(24.5584 0.00806125 1.81501e-19)
(24.5248 0.0111556 3.56122e-19)
(21.1905 0.00603071 0)
(14.0925 0.0034063 0)
(14.1871 0.0115287 0)
(21.2969 0.0210251 -1.82032e-18)
(24.6369 0.0296422 1.06274e-18)
(24.6476 0.0389563 1.35588e-18)
(21.3383 0.0268828 1.00312e-19)
(14.2571 0.0167851 9.64317e-19)
(14.6145 0.0320386 -1.28143e-18)
(21.6133 0.0425802 0)
(24.9131 0.0497471 1.06152e-17)
(25.0835 0.0473088 6.39574e-19)
(21.8322 0.0413085 0)
(14.9222 0.0315368 2.28069e-19)
(15.1435 0.0268442 0)
(21.9744 0.0331273 0)
(25.1635 0.0378861 -3.13236e-18)
(25.2853 0.0244481 1.75202e-19)
(22.1444 0.0352443 -2.06919e-19)
(15.3569 0.0133938 0)
(15.5518 0.026913 -5.38208e-19)
(22.2207 0.0171944 6.68826e-19)
(25.3261 0.0147581 1.29999e-18)
(27.9758 0.0137517 5.44582e-19)
(29.0961 -0.0102868 0)
(29.5849 -0.0259405 0)
(29.9378 0.0283508 0)
(30.5383 0.0395603 0)
(30.8722 0.0411232 0)
(31.2221 0.0514485 1.08589e-19)
(31.4581 0.0504255 -1.08973e-19)
(31.6944 0.0557023 0)
(31.8699 0.0548637 0)
(32.0411 0.0579041 0)
(32.1777 0.058281 0)
(32.3088 0.060083 0)
(32.4175 0.0607309 0)
(32.5211 0.0619951 0)
(32.6087 0.0625913 0)
(32.692 0.0634733 0)
(32.7631 0.0639073 0)
(32.8303 0.0644707 0)
(32.8879 0.0646945 0)
(32.9419 0.0649662 0)
(32.9879 0.0649517 0)
(33.0302 0.0649379 0)
(33.0655 0.0646585 0)
(33.097 0.0643471 0)
(33.1217 0.0637613 0)
(33.1419 0.0631283 0)
(33.1551 0.0621818 0)
(33.1623 0.0611769 0)
(33.1615 0.0597759 0)
(33.1518 0.0583654 0)
(33.132 0.0563896 1.08942e-19)
(33.0975 0.054685 -1.10128e-19)
(33.0496 0.0523822 -9.02352e-19)
(32.9773 0.0512458 9.22835e-19)
(32.8896 0.0485046 0)
(32.7624 0.0500284 -8.07896e-18)
(32.6368 0.0482429 8.67667e-18)
(32.4756 0.0184233 2.58362e-17)
(32.2732 0.00376943 -6.86894e-17)
(32.0033 0.00632699 -1.97013e-17)
(31.8745 0.0230087 0)
(31.479 0.0197953 6.89885e-18)
(30.5346 -0.0135279 -2.01764e-18)
(28.6936 -0.0288263 4.10316e-18)
(24.6476 -0.0195814 0)
(20.1288 -0.0178305 -4.29364e-19)
(10.8655 -0.00833194 0)
(10.7768 -0.0193873 0)
(20.0654 -0.0270901 3.9882e-19)
(24.6258 -0.0245912 0)
(24.4144 -0.0291808 1.33461e-18)
(19.8153 -0.0204855 2.46291e-18)
(10.5336 -0.0125438 -1.27768e-18)
(10.3604 -0.0126192 4.33995e-19)
(19.7694 -0.0211255 1.43735e-18)
(24.3036 -0.0245661 -1.20818e-18)
(24.3197 -0.0178242 -1.23775e-18)
(19.703 -0.0100557 1.53059e-18)
(10.336 -0.00117638 -2.34614e-19)
(10.326 -0.00186666 -2.15045e-19)
(19.6855 -0.000712092 -1.45048e-18)
(24.2711 -0.00541243 -1.15597e-24)
(24.231 -0.00194332 0)
(19.6004 0.000714056 0)
(10.3281 -0.00926473 7.04029e-25)
(10.1286 -0.0143597 2.30202e-19)
(19.6053 -0.011631 0)
(24.1965 -0.00714665 0)
(24.2061 -0.00582213 1.29133e-18)
(19.6173 -0.0110353 -1.55814e-18)
(10.1142 -0.00522935 0)
(10.0837 0.00379719 2.37449e-19)
(19.5465 -0.00294253 0)
(24.2084 -0.00278605 0)
(24.22 0.00316489 0)
(19.5572 0.00146224 0)
(10.1022 0.000594684 -2.39323e-19)
(10.1064 0.000698582 0)
(19.5649 0.00309711 0)
(24.2281 0.00626443 0)
(24.2386 0.0051833 0)
(19.5757 0.00266845 0)
(10.1156 0.000531129 0)
(10.1245 0.0010036 0)
(19.5861 0.00373474 0)
(24.2476 0.00729434 0)
(24.259 0.00576341 0)
(19.5982 0.00298158 0)
(10.1346 0.000619734 0)
(10.1441 0.00102707 0)
(19.6092 0.00387784 0)
(24.2685 0.00755636 0)
(24.2803 0.00612113 0)
(19.6219 0.00319587 0)
(10.1547 0.000687873 0)
(10.165 0.00112124 0)
(19.6336 0.00414029 0)
(24.2904 0.00801144 0)
(24.3027 0.00639672 0)
(19.6469 0.00334185 0)
(10.1761 0.000731444 0)