/*--------------------------------*- C++ -*----------------------------------*\
| =========                 |                                                 |
| \\      /  F ield         | OpenFOAM: The Open Source CFD Toolbox           |
|  \\    /   O peration     | Version:  v2006                                 |
|   \\  /    A nd           | Website:  www.openfoam.com                      |
|    \\/     M anipulation  |                                                 |
\*---------------------------------------------------------------------------*/
FoamFile
{
    version     2.0;
    format      ascii;
    class       volScalarField;
    location    "0.018";
    object      yPlus;
}
// * * * * * * * * * * * * * * * * * * * * * * * * * * * * * * * * * * * * * //

dimensions      [0 0 0 0 0 0 0];


internalField   uniform 0;

boundaryField
{
    bottomEmptyFaces
    {
        type            empty;
    }
    topEmptyFaces
    {
        type            empty;
    }
    inlet
    {
        type            calculated;
        value           uniform 0;
    }
    outlet
    {
        type            calculated;
        value           uniform 0;
    }
    walls
    {
        type            calculated;
        value           nonuniform List<scalar> 
1732
(
9.82821
9.84957
9.82228
9.84559
9.82012
9.8447
9.8208
9.84637
9.82368
9.84977
9.82795
9.85436
9.83343
9.85997
9.83998
9.86661
9.84767
9.87429
9.85622
9.8829
9.86555
9.89227
9.87548
9.90205
9.88566
9.91185
9.8957
9.92149
9.90558
9.93084
9.91513
9.93986
9.92434
9.9485
9.93313
9.95673
9.94151
9.96452
9.94944
9.97188
9.95692
9.9788
9.96396
9.98541
9.97074
9.99156
9.97693
9.99739
9.98292
10.0027
9.98821
10.0076
9.99325
10.012
9.99762
10.016
10.0017
10.0195
10.0051
10.0224
10.008
10.0246
10.0101
10.0263
10.0117
10.0273
10.0126
10.0278
10.0132
10.0278
10.0131
10.0274
10.0127
10.0266
10.0118
10.0254
10.0106
10.0239
10.0091
10.0221
10.0074
10.0201
10.0054
10.0179
10.0032
10.0156
10.0009
10.0131
9.99851
10.0105
9.99596
10.0079
9.99343
10.0052
9.99081
10.0025
9.98823
9.9998
9.98557
9.9971
9.98295
9.99436
9.98028
9.99167
9.97768
9.98895
9.97501
9.98629
9.97247
9.98365
9.9699
9.98109
9.96744
9.97855
9.96497
9.97608
9.9626
9.97366
9.96026
9.97128
9.95794
9.96891
9.95565
9.96659
9.9534
9.96431
9.95121
9.96209
9.94906
9.95993
9.94695
9.95782
9.94492
9.95579
9.94294
9.95381
9.94102
9.95189
9.93914
9.95002
9.93733
9.94821
9.93557
9.94647
9.93388
9.94479
9.93225
9.94317
9.93068
9.94161
9.92917
9.94011
9.92773
9.93868
9.92634
9.93731
9.92502
9.93601
9.92376
9.93476
9.92255
9.93357
9.9214
9.93243
9.92031
9.93135
9.91926
9.93031
9.91827
9.92933
9.91732
9.92839
9.91642
9.9275
9.91556
9.92665
9.91474
9.92586
9.91398
9.92509
9.91324
9.92437
9.91255
9.92368
9.91189
9.92304
9.91127
9.92243
9.91069
9.92186
9.91014
9.92131
9.90962
9.9208
9.90914
9.92033
9.90869
9.91989
9.90828
9.91948
9.90789
9.91909
9.90752
9.91873
9.90718
9.91841
9.90689
9.91811
9.9066
9.91784
9.90635
9.91757
9.90609
9.91733
9.90588
9.91711
9.90567
9.91692
9.9055
9.91673
9.90531
9.91655
9.90515
9.91638
9.90499
9.91624
9.90488
9.91612
9.90476
9.916
9.90464
9.91586
9.90451
9.91575
9.90442
9.91566
9.90435
9.9156
9.90428
9.9155
9.90418
9.91539
9.90407
9.91528
9.904
9.91523
9.90396
9.91518
9.9039
9.9151
9.9038
9.91498
9.90369
9.91489
9.90365
9.91486
9.90363
9.91483
9.90357
9.91473
9.90344
9.91459
9.90331
9.91446
9.90321
9.91439
9.90317
9.91434
9.9031
9.91425
9.90299
9.9141
9.90284
9.91398
9.90277
9.91395
9.90277
9.91396
9.90277
9.9139
9.90265
9.91375
9.90251
9.91364
9.90246
9.91365
9.90252
9.91369
9.9025
9.91361
9.90235
9.91342
9.90218
9.91331
9.90216
9.91335
9.90224
9.91342
9.90225
9.91333
9.90208
9.91313
9.90191
9.91301
9.9019
9.9131
9.90204
9.91321
9.90205
9.91311
9.90188
9.91292
9.90175
9.9129
9.90187
9.91311
9.90208
9.91324
9.90209
9.91314
9.90197
9.9131
9.90208
9.91335
9.90245
9.91375
9.90275
9.91388
9.90276
9.91386
9.90281
9.91404
9.90318
9.91456
9.90375
9.91506
9.9041
9.91527
9.90424
9.91543
9.90454
9.91592
9.90522
9.91672
9.90602
9.91744
9.90663
9.91799
9.90722
9.9187
9.90815
9.91983
9.90942
9.92114
9.91066
9.92225
9.91168
9.92329
9.91286
9.92463
9.91443
9.92637
9.91623
9.92813
9.91785
9.92956
9.91922
9.93112
9.92125
9.93459
9.92443
9.97074
9.98365
10.1062
10.3045
10.7129
11.5387
12.5407
6.71933
7.4552
8.55479
6.47807
7.1075
6.12915
6.48958
7.36707
7.71486
7.04644
7.35449
6.24081
6.91606
6.41624
7.09043
7.95819
5.71997
5.98067
6.90017
7.28931
6.37718
7.02643
6.08982
6.63041
8.41766
7.26281
7.66719
6.4463
7.09853
6.19789
6.80466
6.74279
7.40626
6.53877
7.24843
6.42493
7.0158
6.57848
7.25026
6.0352
6.38092
8.15611
5.89023
6.19235
6.51087
4.83996
4.98069
5.55719
5.67055
6.6111
5.65381
5.80791
4.87401
5.02363
6.44427
5.00046
5.38394
4.72736
4.86041
5.52478
5.57384
5.35518
5.75635
6.96378
5.98402
6.20187
4.98617
5.22943
5.29992
5.7408
7.2848
6.30791
6.55359
5.71201
6.28461
5.5148
5.97507
6.17586
6.3979
7.17719
5.21208
5.43728
5.53363
6.04169
6.98308
5.43689
5.85664
5.01351
5.2254
7.05929
6.0698
6.24895
4.99131
5.2583
6.00554
6.21592
5.74499
5.9024
5.67142
5.90344
5.09438
5.45242
6.59938
4.7419
4.9497
5.17494
5.51754
5.43314
5.90111
5.19061
5.56486
6.70604
4.84624
5.07698
6.53878
4.80108
4.95178
7.75286
5.52541
5.83558
6.07536
6.69968
5.82086
6.32336
5.9021
6.54443
7.79971
5.99052
6.49434
5.61202
5.90057
6.6575
6.9881
6.15162
6.78337
6.70923
6.97442
5.75428
6.22178
6.50438
6.80483
7.5585
5.443
5.75702
5.93582
6.5076
5.93902
6.49461
5.73219
6.30564
7.21489
5.67421
6.09206
6.14724
6.42833
5.51508
6.02564
5.20532
5.4341
7.48532
6.50453
6.79411
5.3447
5.59732
7.62947
6.59699
6.8727
6.04922
6.63419
5.77642
6.28011
5.48617
5.73866
6.82225
7.11623
6.25044
6.88783
6.06777
6.62269
7.89541
5.67001
5.96355
6.10582
6.7238
6.1929
6.86116
5.89592
6.39941
5.25214
5.42324
7.16561
5.94756
5.37254
6.24558
5.24265
4.82016
6.55074
5.42645
4.99473
6.74978
5.55419
5.02041
6.34079
5.33362
4.90632
5.4329
5.49193
5.45702
5.44931
4.52485
4.27991
4.48171
4.22415
5.49032
4.5334
4.31073
4.53329
4.32455
6.52611
5.50652
6.18169
5.34158
4.83387
5.46442
4.46733
4.18409
4.50312
4.3101
5.97037
5.55099
5.40534
4.49817
4.34394
5.83351
5.45948
4.10696
4.16263
4.90502
4.821
4.83185
4.76417
5.74289
4.51869
4.39154
4.09779
4.14397
4.85306
4.87036
5.94865
5.02097
5.05706
5.75766
4.26818
4.37021
5.2069
5.16237
6.16496
4.75702
4.68182
5.72297
4.31389
4.41424
5.06286
5.0337
4.42856
4.54513
5.55711
4.60723
4.50568
4.16971
4.26817
5.48798
5.53098
5.58139
5.57195
4.60179
4.36229
4.61963
4.41024
5.51036
4.58271
4.40108
4.53712
4.3195
5.31968
5.42114
4.38863
4.23929
5.63641
4.61331
4.40276
4.7365
4.59967
3.9344
4.03708
5.51618
4.45798
4.29519
5.42509
5.46492
4.5163
4.37345
4.46545
4.26988
5.36081
4.45295
4.31042
4.39328
4.19436
5.52352
5.53009
4.56041
4.31946
4.58144
4.35629
5.52231
4.60319
4.34689
4.5507
4.35753
5.78445
4.85569
4.75365
5.31477
4.00168
4.07411
4.6362
4.56761
7.33926
6.91119
7.39284
7.02906
7.72291
7.33851
8.41938
8.45728
10.9817
7.61646
6.55004
6.16586
6.79828
8.05892
5.25219
6.52006
6.50627
4.10268
6.40718
5.20492
3.05981
7.05215
8.37071
7.88346
7.07143
6.40445
5.80452
6.34573
5.80078
5.43818
5.04116
5.50505
4.90705
3.07122
5.35566
5.38604
3.26748
5.92924
4.61276
4.83403
2.96328
5.52095
4.54224
5.06015
3.17531
6.02032
5.07447
4.19365
4.63057
2.97629
5.55311
4.72973
4.05883
4.89208
3.05931
5.98368
5.33377
4.81298
4.27387
3.69653
4.30503
2.72711
5.23354
4.74052
4.28208
3.81377
4.59921
2.92776
5.77577
5.34231
4.91155
4.52247
4.07837
3.59043
4.1913
2.67968
5.22349
4.80481
4.43935
4.17382
3.85535
3.53114
3.31543
4.23647
2.56696
5.40599
5.11613
4.86081
4.61932
4.32528
4.07013
3.85439
3.50048
3.15691
3.94828
2.39319
4.97958
4.62443
4.36994
4.14543
3.86329
3.65886
3.44443
3.22982
3.0718
2.90588
2.74985
2.66472
2.60999
4.04806
2.03669
5.26011
5.07617
4.87522
4.71136
4.61389
4.45858
4.2802
4.11204
3.98381
3.842
3.72247
3.60526
3.52891
3.4815
3.42837
3.34262
3.25079
3.18171
3.12187
3.08302
3.05554
3.04098
3.03119
3.02994
3.0309
3.03515
3.04241
3.05276
6.11709
6.4132
5.4666
5.61226
4.81609
5.15362
4.46537
4.65518
6.03531
5.1498
5.20726
4.47227
4.59258
6.00463
4.34719
4.50095
5.1233
5.13143
4.38284
4.53028
5.10515
5.10376
6.05445
4.48158
4.57687
5.15924
5.19512
5.41463
5.48819
6.3912
4.59612
4.82707
5.60712
5.81264
5.0229
5.33773
4.70671
4.81746
3.06057
3.0675
3.07047
3.07212
3.07205
3.07132
3.06864
3.0659
3.0605
3.05654
3.04991
3.04512
3.03787
3.03265
3.02516
3.0197
3.01216
3.00666
2.99919
2.99369
2.98639
2.98103
2.97398
2.96874
2.9619
2.95682
2.9502
2.94523
2.93879
2.93397
2.92769
2.92294
2.91681
2.91219
2.90622
2.90168
2.89585
2.89144
2.88575
2.88139
2.87579
2.87154
2.86609
2.8619
2.85655
2.85248
2.84726
2.84325
2.83814
2.83425
2.82926
2.82541
2.8205
2.81675
2.81197
2.80826
2.80355
2.79995
2.79535
2.79178
2.78724
2.78377
2.77933
2.77588
2.77151
2.76815
2.76387
2.76054
2.75633
2.75309
2.74896
2.74574
2.74167
2.73854
2.73454
2.73143
2.7275
2.72447
2.7206
2.71759
2.71377
2.71084
2.70708
2.70415
2.70044
2.69759
2.69394
2.69109
2.68749
2.68472
2.68117
2.6784
2.6749
2.67221
2.66876
2.66608
2.66268
2.66008
2.65674
2.65414
2.65085
2.64832
2.64509
2.64256
2.63937
2.63692
2.63379
2.63135
2.62828
2.62594
2.62295
2.62064
2.61774
2.61558
2.61281
2.61082
2.60792
2.60917
2.60034
2.60816
2.60691
2.67981
2.70246
2.71038
2.70314
2.78548
2.8726
10.0329
7.26885
7.62801
8.55892
8.93399
7.50315
8.18696
7.83337
8.60808
7.86073
8.64925
7.57588
8.29867
8.73173
9.16257
8.00165
8.8146
9.87923
7.07691
7.49358
11.1039
8.72113
9.35047
9.55493
9.96702
12.1053
10.2141
10.4759
8.92537
9.31486
11.3446
8.40808
8.74811
10.1372
10.4481
11.8511
8.73258
9.12668
9.0446
9.80464
9.3293
10.0436
11.6869
10.0596
10.3101
8.56332
8.92623
10.3327
10.6748
11.2276
11.6168
9.04694
9.74445
9.99108
10.3479
11.4391
9.8911
10.2689
9.01466
9.6533
8.20268
8.6268
8.29249
8.68909
11.1507
9.61035
10.0489
8.81668
9.48874
9.69286
10.0768
8.13047
8.54866
8.79777
9.44064
8.03925
8.47347
9.76195
10.011
8.51067
8.93915
10.525
8.25088
8.88683
7.55906
8.08626
8.29492
9.13889
10.2828
7.38212
7.83164
8.0099
8.64988
9.09371
9.4672
10.7031
7.77284
8.14725
9.31425
9.68839
10.76
7.83589
8.25208
8.36433
9.02163
10.8825
9.44729
9.93879
8.70952
9.54037
8.35695
9.09194
8.02334
8.41416
9.28232
9.66422
8.50696
9.31971
10.2396
8.92141
9.33199
8.1892
9.04501
7.95135
8.58124
7.33394
7.78343
8.01436
8.79308
8.87342
9.23873
7.72358
8.46321
12.7713
12.2722
10.4602
10.7181
9.14099
9.50697
12.2611
9.19788
9.48465
10.7963
10.9425
13.1582
12.6145
10.4626
10.3918
13.6327
12.8167
9.86519
10.1492
11.4757
11.5686
11.2326
11.3166
13.3738
10.6151
10.5374
9.47274
9.92525
12.7648
9.5428
9.87697
10.8213
11.0583
9.3973
9.87869
11.0476
11.2645
11.4664
11.7938
13.8044
11.2588
11.1227
13.8127
11.3367
11.1385
13.7392
11.1091
11.0461
13.3291
11.2471
10.9128
13.6045
11.0603
10.946
13.7223
11.2481
11.0461
13.9676
11.4764
11.2676
14.0935
11.5991
11.4135
14.0126
11.4801
11.2786
14.8559
12.9341
12.3928
15.1867
16.3523
14.3471
12.1932
11.6006
13.9917
12.005
11.5259
13.8571
11.4061
11.1937
13.0625
10.8365
10.7705
10.0334
10.4114
15.7261
13.7803
13.047
17.4689
15.4771
17.1789
15.2669
14.4614
13.1371
13.4101
12.7443
18.9896
17.8802
16.0048
14.1931
13.279
18.0246
16.894
15.5164
15.3163
13.7788
20.1114
19.6614
18.7575
17.7765
19.5547
18.8163
15.7167
15.0155
13.4394
18.4251
17.8816
17.7893
17.8047
17.5791
16.9167
16.4079
16.0264
15.5185
14.8717
14.2466
13.617
13.0815
12.5602
12.1106
11.6781
11.3294
11.071
10.869
10.7046
10.5639
10.4473
7.77124
8.15342
7.14882
7.9077
10.3409
10.2565
10.1737
10.1151
10.0469
10.0166
9.95581
9.95239
9.89787
9.90694
9.86353
9.87739
9.84079
9.85904
16.1522
12.8163
12.5131
14.2512
12.6481
11.894
7.21423
8.04609
9.2121
6.61516
7.03015
7.14678
7.70551
7.94321
8.35516
7.30796
8.0689
12.2575
7.1677
7.96872
6.9689
7.60079
12.1621
8.96358
9.42249
10.3156
10.6258
9.06612
9.43702
7.11177
7.79665
11.8667
7.86562
8.23931
9.12324
6.53358
6.93925
7.2089
7.98085
8.96679
9.24032
10.3806
8.92903
6.44492
6.76287
6.89507
7.50977
10.5834
10.4286
10.6324
7.60759
8.37489
9.58146
7.4402
8.04702
6.83719
7.26055
8.24502
8.63573
8.28893
8.68657
7.63729
8.41498
8.09658
8.49941
9.36674
6.70332
7.06292
7.44625
8.24457
7.28455
7.89898
9.53242
6.8184
7.23169
7.3949
8.02339
9.79481
8.45638
8.87669
7.75532
8.5395
7.53328
8.36318
6.96399
7.41636
7.4359
8.17218
6.89351
7.61942
6.58293
7.17446
6.71895
7.48831
8.7952
6.6441
7.29511
6.28715
6.66793
7.03985
7.77752
6.8268
7.5692
7.57618
7.88899
8.64872
7.45951
7.88188
6.87702
7.58577
6.68485
7.37033
6.18864
6.55263
13.5257
2.92171
19.1928
17.1012
15.6566
14.6588
13.9797
13.2988
12.911
12.5077
12.1775
11.8803
11.7026
11.4871
11.3786
11.2551
11.1933
11.1017
11.0563
10.9787
10.9407
10.8709
10.8369
10.7726
10.7414
10.6813
10.6523
10.5958
10.5687
10.5154
10.4899
10.4393
10.4153
10.3673
10.3446
10.2988
10.2772
10.2337
10.2131
10.1715
10.1518
10.1119
10.093
10.0546
10.0363
9.99911
9.98139
9.94529
9.92801
9.89277
9.87587
9.84135
9.82475
9.79083
9.77448
9.74104
9.7249
9.69189
9.67593
9.64327
9.62748
9.59512
9.57947
9.54739
9.53187
9.50005
9.48466
9.45308
9.4378
9.40643
9.39124
9.36006
9.34493
9.3139
9.29883
9.26791
9.25287
9.22201
9.20696
9.17613
9.16104
9.13018
9.11503
9.08409
9.06886
9.0378
9.02247
8.99125
8.9758
8.94439
8.9288
8.89723
8.88129
8.84957
8.83293
8.80124
8.78391
8.75227
8.73429
8.70269
8.68409
8.65253
8.63333
8.60175
8.58197
8.55035
8.52998
8.49827
8.47732
8.44545
8.42391
8.39181
8.36969
8.3373
8.31459
8.28184
8.25855
8.22539
8.20151
8.16788
8.14344
8.10928
8.08429
8.04953
8.02398
7.98857
7.96245
7.92633
7.89966
7.86277
7.83553
7.7978
7.76998
7.73136
7.70298
7.66342
7.63446
7.59391
7.5644
7.5228
7.49275
7.45008
7.41952
7.37573
7.34469
7.29977
7.2683
7.22221
7.19037
7.14308
7.11092
7.06242
7.02999
6.98027
6.94765
6.89673
6.86399
6.81187
6.77911
6.72582
6.69314
6.63876
6.60625
6.55085
6.51865
6.46232
6.43059
6.37348
6.34241
6.28467
6.2544
6.19634
6.1667
6.10853
6.0795
6.02151
5.99321
5.93589
5.90842
5.85235
5.82589
5.77138
5.74618
5.69365
5.66997
5.61981
5.59787
5.55044
5.53044
5.48603
5.46813
5.42703
5.41137
5.37382
5.36047
5.32667
5.3157
5.28578
5.27719
5.25113
5.24596
5.2237
5.22136
5.20223
5.2024
5.18667
5.18943
5.17581
5.18135
5.17006
5.17823
5.16931
5.17996
5.17387
5.18612
5.18226
5.19584
5.19374
5.20847
5.20799
5.22339
5.22436
5.24101
5.24329
5.26111
5.26413
5.28231
5.28561
5.30329
5.30683
5.32404
5.32785
5.34463
5.34867
5.36498
5.36915
5.3849
5.38854
5.40329
5.40644
5.42034
5.4231
5.43629
5.43884
5.4514
5.4538
5.46573
5.4679
5.47911
5.48103
5.49151
5.49317
5.50291
5.50432
5.51338
5.51456
5.52298
5.52395
5.53181
5.53258
5.53994
5.54056
5.54749
5.54798
5.55454
5.55492
5.56117
5.56145
5.56743
5.56763
5.57338
5.5735
5.57905
5.5791
5.58446
5.58443
5.58962
5.58949
5.59448
5.59426
5.5991
5.59875
5.60343
5.60296
5.60746
5.60685
5.61119
5.61042
5.61458
5.61366
5.61762
5.61653
5.62029
5.61903
5.62258
5.62113
5.62447
5.62284
5.626
5.62421
5.62721
5.62529
5.6282
5.62619
5.6291
5.62709
5.63023
5.62834
5.6327
5.62831
5.69629
5.67526
5.71394
5.77386
6.0403
6.30776
6.53397
6.65624
21.3308
6.8046
)
;
    }
    rightWall
    {
        type            calculated;
        value           uniform 0;
    }
    symmetryLine
    {
        type            symmetryPlane;
    }
}


// ************************************************************************* //
