/*--------------------------------*- C++ -*----------------------------------*\
| =========                 |                                                 |
| \\      /  F ield         | OpenFOAM: The Open Source CFD Toolbox           |
|  \\    /   O peration     | Version:  v2006                                 |
|   \\  /    A nd           | Website:  www.openfoam.com                      |
|    \\/     M anipulation  |                                                 |
\*---------------------------------------------------------------------------*/
FoamFile
{
    version     2.0;
    format      ascii;
    class       volScalarField;
    location    "0.034";
    object      Co;
}
// * * * * * * * * * * * * * * * * * * * * * * * * * * * * * * * * * * * * * //

dimensions      [0 0 0 0 0 0 0];


internalField   nonuniform List<scalar> 
11076
(
0.021587
0.0206306
0.0223345
0.0232334
0.0235918
0.0230801
0.0232217
0.0230277
0.0228445
0.0227974
0.0226379
0.0225994
0.0225399
0.0225005
0.0224587
0.0224185
0.0223762
0.022334
0.0222902
0.022244
0.0221961
0.0221463
0.0220948
0.0220417
0.0219871
0.0219311
0.0218737
0.021815
0.0217552
0.0216944
0.0216326
0.0215699
0.0215066
0.0214426
0.0213782
0.0213135
0.0212485
0.0211835
0.0211185
0.0210537
0.0209893
0.0209253
0.020862
0.0207994
0.0207377
0.0206771
0.0206176
0.0205595
0.0205029
0.0204478
0.0203943
0.0203415
0.0202849
0.0202342
0.0201882
0.0201603
0.0201571
0.0202706
0.0204948
0.0211392
0.0222525
0.0248699
0.0307258
0.0436861
0.0673463
0.0548205
0.0488789
0.0488286
0.0473429
0.0453706
0.0446168
0.0428653
0.0387092
0.0419358
0.0438778
0.0395452
0.0394625
0.0377273
0.0315157
0.0334759
0.0339901
0.0325832
0.0328222
0.0311371
0.028435
0.030737
0.0312826
0.0310918
0.0307488
0.0283919
0.0276436
0.0302491
0.0308292
0.030855
0.0301915
0.0274522
0.0272198
0.0300936
0.0307629
0.0307724
0.0300668
0.0270155
0.0268067
0.0298361
0.030614
0.0306572
0.0298569
0.0266121
0.0264239
0.0296255
0.0304898
0.0305249
0.0296443
0.026246
0.0260747
0.0294156
0.030355
0.0303864
0.029435
0.0259112
0.0257527
0.0292081
0.0302138
0.0302421
0.0292283
0.0256006
0.0254515
0.0290029
0.030068
0.0300932
0.0290232
0.0253082
0.0251667
0.0287993
0.0299178
0.0299405
0.0288195
0.0250301
0.0248943
0.0285966
0.0297638
0.0297838
0.0286162
0.0247628
0.0246314
0.0283939
0.0296058
0.0296231
0.0284126
0.0245038
0.0243756
0.0281905
0.0294435
0.029458
0.0282078
0.0242508
0.0241251
0.0279857
0.0292769
0.0292884
0.0280013
0.0240024
0.0238783
0.0277788
0.0291057
0.0291141
0.0277924
0.0237569
0.0236338
0.0275692
0.0289295
0.0289344
0.0275803
0.023513
0.0233901
0.027356
0.0287477
0.028749
0.0273642
0.0232693
0.023146
0.0271385
0.0285599
0.0285573
0.0271435
0.0230246
0.0229005
0.0269161
0.0283657
0.028359
0.0269176
0.0227782
0.0226529
0.0266883
0.0281647
0.0281536
0.0266858
0.0225291
0.022402
0.0264542
0.0279564
0.0279404
0.0264473
0.0222762
0.0221467
0.0262129
0.0277397
0.0277184
0.0262009
0.0220181
0.0218856
0.0259632
0.0275138
0.0274868
0.0259459
0.021754
0.0216184
0.0257047
0.0272783
0.0272453
0.0256817
0.0214835
0.0213444
0.0254369
0.0270326
0.0269932
0.0254077
0.0212056
0.0210621
0.0251585
0.0267756
0.0267288
0.0251221
0.0209184
0.0207694
0.0248675
0.0265056
0.0264507
0.024823
0.0206199
0.020465
0.0245626
0.0262214
0.0261582
0.0245098
0.0203097
0.0201491
0.0242439
0.0259231
0.0258518
0.024183
0.0199882
0.019822
0.0239117
0.0256109
0.0255309
0.0238422
0.0196551
0.019482
0.0235644
0.0252832
0.0251928
0.0234845
0.0193072
0.0191252
0.0231981
0.0249363
0.0248334
0.0231055
0.0189406
0.0187486
0.0228095
0.024567
0.0244518
0.0227045
0.0185546
0.0183543
0.0224005
0.0241771
0.0240512
0.0222849
0.0181531
0.0179459
0.0219741
0.0237692
0.0236323
0.0218476
0.0177373
0.0175214
0.0215287
0.0233415
0.0231913
0.0213888
0.0173024
0.0170745
0.0210584
0.0228889
0.0227219
0.0209014
0.0168422
0.0166005
0.0205575
0.0224056
0.0222213
0.0203834
0.0163551
0.0161024
0.0200288
0.0218936
0.0216966
0.0198424
0.0158493
0.0155923
0.019483
0.0213626
0.0211556
0.0192881
0.0153367
0.0150772
0.018925
0.0208155
0.0205965
0.0187196
0.0148167
0.0145487
0.0183477
0.0202456
0.0200093
0.0181261
0.0142768
0.0139964
0.0177405
0.0196432
0.019388
0.0175016
0.0137138
0.0134279
0.0171094
0.0190122
0.0187492
0.016865
0.0131469
0.0128691
0.0164788
0.0183751
0.0181158
0.0162419
0.0126029
0.0123444
0.0158712
0.0177514
0.017497
0.0156449
0.012099
0.0118607
0.0152908
0.0171425
0.0168936
0.0150754
0.0116333
0.0114114
0.014735
0.0165467
0.0163034
0.0145304
0.0112015
0.0110009
0.0142078
0.0159683
0.0157511
0.014026
0.0108154
0.0106596
0.0137333
0.0154233
0.0152667
0.0136079
0.010527
0.010416
0.0133587
0.0149761
0.0148622
0.01328
0.0103311
0.0102644
0.0130787
0.0146168
0.014528
0.0130351
0.0102213
0.0101918
0.0128858
0.0143483
0.0142802
0.0128762
0.0101889
0.0102109
0.0128366
0.0141839
0.0141026
0.0128042
0.0102394
0.0102839
0.0128495
0.0141216
0.0140923
0.0128183
0.0103378
0.0104032
0.0129092
0.0141409
0.0141369
0.0128984
0.0104745
0.0105507
0.0130092
0.0142056
0.0142027
0.0130055
0.0106225
0.0106968
0.0131191
0.0142895
0.0142747
0.0131118
0.0107693
0.0108555
0.0132392
0.0143749
0.0143943
0.0132627
0.0109399
0.0110218
0.0133987
0.0145123
0.0145265
0.0134125
0.0110899
0.0111428
0.013499
0.0145909
0.0146194
0.0135219
0.0112173
0.0112671
0.0136154
0.0146779
0.0146958
0.0136185
0.0113279
0.0113683
0.013711
0.0147507
0.0147531
0.0136951
0.0114084
0.0114493
0.0137803
0.0147991
0.0148158
0.0137812
0.0115036
0.0115781
0.013912
0.0149141
0.0149485
0.0139228
0.0116414
0.011716
0.0140561
0.0150497
0.0150767
0.0140553
0.0117624
0.0118179
0.0141751
0.01517
0.0151688
0.0141476
0.0118398
0.0118517
0.0142341
0.0152304
0.0151649
0.0141557
0.0118394
0.0118434
0.0142283
0.0152218
0.0151484
0.014155
0.0118362
0.0118839
0.0142474
0.0152168
0.0152702
0.0142959
0.0119578
0.0120267
0.0143911
0.0153504
0.0155504
0.0146287
0.012284
0.0123378
0.0147302
0.0157296
0.016573
0.0157582
0.0133445
0.0134525
0.0162055
0.0174527
0.0202227
0.0190264
0.0159358
0.016411
0.0203524
0.0225606
0.0238305
0.021948
0.0180688
0.0259487
0.0275372
0.0282926
0.029717
0.0302366
0.0308669
0.0312178
0.0315797
0.0317988
0.0320657
0.0322272
0.0324124
0.0325014
0.0326193
0.0328298
0.033188
0.0337788
0.0346459
0.0370422
0.0465877
0.0702071
0.0745265
0.0696468
0.0625971
0.0589245
0.0519656
0.0387269
0.0347753
0.0487118
0.056877
0.0513237
0.0454512
0.0332522
0.0270323
0.0379375
0.0435375
0.0376463
0.0344709
0.025525
0.0233347
0.0323384
0.0363117
0.035204
0.0317439
0.023083
0.0228084
0.0314104
0.034968
0.035074
0.0315551
0.0229659
0.0229284
0.0313312
0.0347544
0.0350277
0.0315464
0.0230525
0.0230719
0.0314734
0.0348754
0.0350727
0.0316247
0.0231676
0.023189
0.0315714
0.0349518
0.0351383
0.0317141
0.0232821
0.0232962
0.0316566
0.0350305
0.0352364
0.0318233
0.0233996
0.0234106
0.0317285
0.0350766
0.0353935
0.031992
0.0235658
0.023566
0.0318281
0.0350837
0.0355824
0.0321765
0.0237778
0.0237673
0.0319879
0.03524
0.0356242
0.0323169
0.0239824
0.0240127
0.032213
0.0353782
0.0357007
0.032404
0.0241378
0.0241865
0.0323783
0.0355694
0.0357418
0.032525
0.0242953
0.0243497
0.0324769
0.0356132
0.0359531
0.0327136
0.0244763
0.0245124
0.032623
0.035768
0.0360703
0.0328876
0.0246922
0.0247161
0.0327295
0.0357874
0.0363162
0.0331245
0.0249172
0.0249374
0.0329287
0.0359755
0.0363935
0.0332806
0.0251561
0.0251588
0.0331033
0.0360682
0.0365791
0.03346
0.0253769
0.0253638
0.0332721
0.0362318
0.0366854
0.0336437
0.0255994
0.0255879
0.0334363
0.0363556
0.0368527
0.0338466
0.0258412
0.0258184
0.0336153
0.036488
0.0370421
0.0340664
0.0260838
0.0260819
0.0338253
0.0366136
0.0372573
0.0342874
0.026347
0.0263659
0.0340788
0.0368491
0.0374108
0.0345257
0.0266333
0.026643
0.0343016
0.0369871
0.0377104
0.0348287
0.0269489
0.0269541
0.0345439
0.0371925
0.0379618
0.0351682
0.0273206
0.0273115
0.0348235
0.0373828
0.0382858
0.0355627
0.0277503
0.027744
0.0351548
0.0376227
0.038671
0.0360304
0.0282765
0.0282832
0.0355442
0.0378847
0.0391956
0.0366432
0.0289643
0.0290207
0.0360061
0.0382825
0.0399473
0.0373659
0.0298617
0.0299934
0.0367123
0.038741
0.0405212
0.0381858
0.0308251
0.0309388
0.037367
0.0390418
0.0406677
0.0384336
0.0317208
0.031562
0.0376754
0.0392196
0.0411128
0.0389936
0.0322026
0.0319145
0.037599
0.0393195
0.0407685
0.0389295
0.0326599
0.0325874
0.0380916
0.0395737
0.0409078
0.0391147
0.0332608
0.0331543
0.0382362
0.0396377
0.0408531
0.0392153
0.0338282
0.0341516
0.0387437
0.0399034
0.0411211
0.0396893
0.0349259
0.0353819
0.0393795
0.0404495
0.0540782
0.0413199
0.0371719
0.0374649
0.0521443
0.0518593
0.0506736
0.0551171
0.0519658
0.0391383
0.040526
0.0412167
0.0725064
0.0508301
0.0417545
0.0433804
0.0538153
0.0728938
0.0514299
0.0485604
0.0424133
0.041095
0.0432631
0.0446764
0.041622
0.0410851
0.0403246
0.0406594
0.0398822
0.0400487
0.0382514
0.0387738
0.0405159
0.0407946
0.0372675
0.0360614
0.0293712
0.0351702
0.0399734
0.0433935
0.0475109
0.0658811
0.05829
0.0461735
0.0457239
0.0466248
0.0416149
0.0409929
0.0389067
0.0401019
0.0457104
0.0464534
0.0431092
0.0362537
0.072025
0.0569523
0.0483879
0.0522566
0.0618453
0.0610365
0.0951426
0.0683157
0.054072
0.0555925
0.0631896
0.0754393
0.0553475
0.0536079
0.0532284
0.0500037
0.049884
0.0513751
0.0443459
0.0503958
0.0457452
0.0427204
0.0614743
0.0794897
0.0699589
0.0609449
0.0367598
0.0268369
0.0561915
0.0607804
0.0545598
0.0575574
0.0151127
0.0188257
0.0698759
0.0780651
0.0964551
0.079742
0.040234
0.0614884
0.0862674
0.0862734
0.106975
0.107206
0.0863772
0.109758
0.126522
0.141851
0.12708
0.142792
0.122507
0.134128
0.17908
0.150683
0.197266
0.220595
0.152303
0.168399
0.22658
0.203911
0.184946
0.19485
0.175788
0.187207
0.146301
0.136125
0.17447
0.157144
0.208597
0.231265
0.182986
0.179376
0.224282
0.21619
0.230319
0.232944
0.206984
0.194545
0.1925
0.221875
0.225528
0.234682
0.261307
0.308928
0.243685
0.225008
0.215069
0.209418
0.22493
0.210723
0.304401
0.241461
0.199453
0.185384
0.195083
0.248501
0.17949
0.190421
0.171818
0.167522
0.201384
0.259679
0.233468
0.170359
0.151433
0.145694
0.168104
0.172008
0.22007
0.167382
0.133611
0.120011
0.157021
0.237421
0.140799
0.13261
0.107764
0.0987026
0.118327
0.154691
0.0898191
0.0989802
0.0926375
0.0936887
0.108102
0.115961
0.151901
0.109425
0.0857921
0.0759284
0.0957787
0.141791
0.0815293
0.0815331
0.0717551
0.0723854
0.0922805
0.129861
0.123945
0.0846712
0.0661726
0.0641786
0.0709243
0.0712965
0.0957645
0.0848181
0.0672738
0.0675618
0.0928381
0.133703
0.122529
0.0810693
0.0617274
0.0623781
0.0780031
0.0831209
0.136516
0.109615
0.0893833
0.0789119
0.0864594
0.11747
0.0870126
0.0665459
0.0600671
0.0643959
0.0798831
0.0947017
0.136747
0.09954
0.067484
0.0801613
0.128048
0.173656
0.0774728
0.0735852
0.0633085
0.071465
0.102834
0.135026
0.172807
0.129097
0.0826371
0.0634788
0.0702651
0.070995
0.095294
0.0843932
0.0676818
0.0726008
0.106151
0.1418
0.175314
0.130803
0.0834839
0.0671274
0.0769811
0.0800183
0.141476
0.108033
0.0750441
0.0861563
0.132246
0.17419
0.0839714
0.0804371
0.0699686
0.0782435
0.111007
0.143772
0.176087
0.134514
0.0881379
0.0713012
0.0813971
0.0845413
0.143435
0.111465
0.0793356
0.0885411
0.134939
0.176606
0.0752439
0.0750148
0.0689023
0.0737997
0.0902488
0.101176
0.150799
0.114931
0.0796572
0.0885281
0.136411
0.18161
0.083243
0.0810673
0.0715375
0.0817593
0.115712
0.150744
0.180856
0.1385
0.09152
0.0742737
0.0850593
0.0881484
0.154183
0.11813
0.0826287
0.0930913
0.140884
0.184426
0.0884808
0.0857532
0.0758233
0.0852671
0.121382
0.157036
0.186478
0.142756
0.0940077
0.0776049
0.0883679
0.0915805
0.161586
0.124316
0.0870637
0.097012
0.146137
0.190377
0.0931327
0.0906044
0.0797581
0.0902996
0.129253
0.168986
0.190516
0.14625
0.0978646
0.0888773
0.116426
0.138676
0.177204
0.14204
0.099193
0.0831927
0.0948641
0.0984234
0.166018
0.129467
0.0923314
0.1012
0.150333
0.19456
0.0982691
0.0949233
0.0837059
0.0937843
0.131169
0.16882
0.198456
0.153488
0.103121
0.0850949
0.0959673
0.0989964
0.172866
0.134142
0.095099
0.104954
0.1564
0.201575
0.102393
0.0992483
0.0872852
0.0992379
0.1411
0.183651
0.203131
0.156277
0.10583
0.0964837
0.126601
0.1503
0.187866
0.151436
0.105943
0.0908542
0.104007
0.107858
0.182857
0.14194
0.101264
0.11
0.161992
0.20915
0.106567
0.103361
0.0913888
0.103434
0.146942
0.190691
0.209627
0.162599
0.110652
0.10066
0.132066
0.156285
0.195402
0.158087
0.111239
0.0950763
0.107863
0.111682
0.190027
0.147965
0.105788
0.114222
0.167921
0.216709
0.112611
0.108668
0.0955264
0.108612
0.153917
0.199744
0.218427
0.170634
0.116097
0.106063
0.139163
0.164357
0.202645
0.163787
0.115824
0.0998675
0.113766
0.117882
0.204971
0.158695
0.112178
0.119047
0.173938
0.223605
0.169362
0.143283
0.109806
0.12
0.169446
0.208384
0.121468
0.117235
0.103056
0.114453
0.159195
0.203705
0.230872
0.180385
0.123492
0.103076
0.116306
0.120111
0.214132
0.164955
0.115849
0.123237
0.180434
0.231362
0.17742
0.149985
0.114153
0.123446
0.173693
0.21402
0.125212
0.121176
0.106628
0.120409
0.170142
0.219825
0.237073
0.183797
0.126125
0.116309
0.151907
0.180202
0.220118
0.178449
0.126989
0.109549
0.124731
0.129048
0.225511
0.174296
0.123521
0.130463
0.18861
0.241309
0.186597
0.157341
0.120284
0.129716
0.181324
0.224779
0.132164
0.12753
0.112002
0.126053
0.177977
0.230072
0.248431
0.193146
0.133148
0.122983
0.160326
0.189659
0.230018
0.187464
0.133979
0.115712
0.131481
0.136145
0.236424
0.182982
0.12968
0.136098
0.196984
0.253051
0.195831
0.165271
0.126381
0.136989
0.191535
0.234797
0.139096
0.134363
0.118125
0.132994
0.187407
0.241689
0.258783
0.202315
0.139742
0.128709
0.16776
0.198548
0.240373
0.195159
0.139559
0.120745
0.137534
0.142417
0.247657
0.191955
0.136338
0.142919
0.206436
0.264905
0.20514
0.173059
0.132245
0.142908
0.199621
0.245872
0.145592
0.140686
0.123797
0.139667
0.196435
0.253174
0.271155
0.212394
0.146996
0.135359
0.176151
0.208088
0.251924
0.205689
0.146909
0.126963
0.144146
0.149115
0.259707
0.201204
0.142783
0.149426
0.215793
0.27679
0.214974
0.181539
0.138936
0.150129
0.20942
0.256789
0.152077
0.147083
0.129392
0.145747
0.205386
0.265026
0.283039
0.221331
0.152939
0.141544
0.184376
0.217818
0.264289
0.21495
0.153177
0.132539
0.15051
0.15566
0.271746
0.210536
0.149324
0.156472
0.226195
0.28924
0.224688
0.189622
0.145081
0.157098
0.219178
0.268598
0.159004
0.15409
0.135984
0.152318
0.214784
0.277471
0.296616
0.231836
0.160349
0.148108
0.192931
0.227766
0.275566
0.224776
0.160696
0.138604
0.157417
0.162747
0.284628
0.220535
0.156822
0.164818
0.237433
0.303292
0.235672
0.199156
0.152879
0.164657
0.22896
0.281815
0.166101
0.160983
0.142159
0.159646
0.224734
0.290336
0.3115
0.24269
0.167744
0.154732
0.201497
0.237975
0.289122
0.236034
0.168374
0.145268
0.164775
0.170148
0.297958
0.23101
0.164018
0.172132
0.248539
0.319067
0.246353
0.208324
0.159561
0.171602
0.239612
0.29505
0.173688
0.168282
0.148449
0.167435
0.23528
0.303438
0.327449
0.25517
0.176499
0.162432
0.211146
0.24897
0.303183
0.247682
0.17679
0.153266
0.173369
0.178666
0.312111
0.242612
0.172773
0.180976
0.261283
0.333437
0.257356
0.217694
0.167043
0.180115
0.251537
0.309486
0.182233
0.176581
0.156015
0.174645
0.245289
0.316245
0.341981
0.267789
0.185389
0.169331
0.21925
0.258896
0.319568
0.260875
0.187658
0.158718
0.178537
0.18378
0.313238
0.245779
0.177849
0.189821
0.274669
0.351946
0.184863
0.179655
0.160064
0.180334
0.253823
0.32833
0.356201
0.277357
0.191552
0.176004
0.228363
0.269227
0.330816
0.26887
0.192239
0.16609
0.187209
0.192344
0.338413
0.262995
0.187724
0.197927
0.28542
0.365711
0.276552
0.234675
0.18109
0.197519
0.277103
0.339994
0.196814
0.190762
0.168944
0.188979
0.26108
0.33286
0.3784
0.295077
0.203612
0.170291
0.190487
0.195337
0.352566
0.273419
0.194805
0.204931
0.296937
0.382727
0.287315
0.243491
0.187265
0.204353
0.287135
0.353229
0.200432
0.195323
0.174401
0.195063
0.269959
0.345218
0.393429
0.307598
0.211669
0.176479
0.19682
0.201282
0.366135
0.283697
0.202001
0.214376
0.31163
0.400079
0.297352
0.252814
0.195395
0.213631
0.300135
0.370497
0.211067
0.205211
0.182569
0.203697
0.281287
0.359397
0.413008
0.322013
0.221143
0.184866
0.20616
0.21076
0.381801
0.295745
0.210743
0.223528
0.325682
0.419745
0.310104
0.263687
0.203864
0.222521
0.31242
0.385677
0.216157
0.210651
0.188357
0.210746
0.28976
0.36869
0.427169
0.334473
0.229253
0.189458
0.210791
0.215451
0.377601
0.295247
0.214424
0.234226
0.342213
0.438488
0.213134
0.209848
0.190191
0.214524
0.296367
0.378837
0.445279
0.345842
0.235183
0.193508
0.214989
0.219118
0.388441
0.303021
0.219403
0.242486
0.355128
0.455911
0.219804
0.217641
0.198233
0.225406
0.311543
0.39726
0.466814
0.362164
0.2453
0.199789
0.221139
0.225279
0.401606
0.313359
0.226316
0.249505
0.368315
0.474481
0.225945
0.223714
0.203353
0.23265
0.321215
0.41201
0.491333
0.378315
0.256713
0.207939
0.229529
0.233018
0.415555
0.325053
0.235176
0.259163
0.383501
0.494352
0.234111
0.23128
0.210395
0.240194
0.330346
0.421562
0.510329
0.397795
0.270855
0.22213
0.242343
0.2433
0.427516
0.33607
0.245166
0.271581
0.400146
0.516233
0.239123
0.236979
0.217165
0.244682
0.331969
0.420614
0.527637
0.410894
0.279179
0.216079
0.222037
0.213864
0.293349
0.270152
0.2297
0.245203
0.338388
0.436879
0.545681
0.415143
0.277008
0.210564
0.216195
0.207489
0.288428
0.265853
0.228677
0.255105
0.351281
0.450633
0.568078
0.431333
0.284665
0.21368
0.220255
0.212027
0.297448
0.273394
0.232101
0.255952
0.354514
0.460803
0.583503
0.442248
0.293712
0.217224
0.221424
0.210618
0.287026
0.267129
0.230342
0.249956
0.342752
0.442462
0.599435
0.456028
0.301564
0.217071
0.21658
0.202362
0.247859
0.243482
0.223654
0.217419
0.244446
0.257394
0.295276
0.274691
0.234886
0.243405
0.339635
0.439554
0.599915
0.450083
0.291349
0.206528
0.210268
0.201779
0.237616
0.234648
0.214197
0.192935
0.214114
0.223167
0.223905
0.217514
0.193167
0.174284
0.197917
0.205756
0.204217
0.196363
0.168071
0.153292
0.182259
0.190698
0.188856
0.177725
0.145418
0.136559
0.168685
0.179341
0.17956
0.166437
0.131439
0.124811
0.158715
0.170988
0.171952
0.157341
0.121062
0.116126
0.151149
0.164832
0.166154
0.150208
0.113326
0.10921
0.144636
0.159575
0.161236
0.144211
0.107061
0.10355
0.139093
0.155
0.156707
0.138846
0.101911
0.0989016
0.134116
0.150772
0.152687
0.134267
0.0976905
0.095099
0.12989
0.146992
0.148936
0.130182
0.0942462
0.0920114
0.126127
0.143491
0.145634
0.126766
0.091461
0.0895217
0.122991
0.140384
0.142545
0.123718
0.0892214
0.087534
0.120194
0.137495
0.139838
0.12119
0.0874456
0.0861663
0.118132
0.135193
0.137301
0.11891
0.0861032
0.0851666
0.116534
0.133424
0.135115
0.117071
0.0851104
0.0844382
0.115039
0.131737
0.133092
0.115394
0.0843872
0.0839246
0.113868
0.130323
0.131388
0.114076
0.0838785
0.0835723
0.112753
0.128984
0.130069
0.113082
0.0836139
0.0833479
0.111921
0.127962
0.12832
0.111712
0.0832277
0.0832177
0.111107
0.126875
0.12734
0.11107
0.0831827
0.083163
0.110544
0.126078
0.126387
0.110449
0.08313
0.0831661
0.109974
0.125305
0.125516
0.109855
0.0831353
0.0832106
0.109619
0.124742
0.124839
0.109465
0.0831819
0.0832891
0.109233
0.124178
0.124212
0.109072
0.0832622
0.0833925
0.109043
0.123803
0.123752
0.108856
0.083367
0.083518
0.108803
0.123405
0.123319
0.108616
0.0834937
0.0836582
0.108737
0.123177
0.123023
0.108531
0.083635
0.0838137
0.108606
0.122906
0.122735
0.108406
0.0837915
0.083978
0.108635
0.122789
0.12256
0.108419
0.0839568
0.0841534
0.108586
0.122611
0.12238
0.108383
0.0841333
0.0843328
0.108685
0.122573
0.122295
0.108465
0.0843134
0.0845212
0.108695
0.122465
0.122189
0.108486
0.0845029
0.0847129
0.108843
0.122484
0.122174
0.108623
0.0846953
0.0849088
0.108894
0.122426
0.122122
0.108685
0.0848922
0.0851055
0.109073
0.122483
0.122158
0.108857
0.0850896
0.085304
0.109151
0.122462
0.122146
0.108946
0.0852891
0.0855023
0.109351
0.122548
0.122217
0.10914
0.0854881
0.0856998
0.109441
0.122548
0.122234
0.109243
0.0856865
0.0858934
0.109646
0.12265
0.122328
0.109446
0.0858809
0.086083
0.109739
0.122663
0.122361
0.109553
0.0860715
0.0862662
0.109943
0.122775
0.122469
0.109757
0.0862554
0.0864429
0.110032
0.122796
0.122515
0.109861
0.0864329
0.0866113
0.110229
0.122915
0.122634
0.11006
0.0866021
0.0867731
0.11031
0.122942
0.122684
0.110157
0.0867646
0.0869251
0.110498
0.123062
0.122804
0.110347
0.0869172
0.0870694
0.110571
0.123089
0.122854
0.110436
0.0870623
0.0872038
0.110751
0.123207
0.122974
0.110618
0.0871973
0.0873316
0.110815
0.123232
0.123021
0.110696
0.0873258
0.0874508
0.110985
0.123348
0.123138
0.110867
0.0874454
0.0875636
0.111039
0.12337
0.123181
0.110934
0.0875587
0.0876674
0.111198
0.123482
0.123294
0.111094
0.0876629
0.0877653
0.111241
0.1235
0.123333
0.11115
0.0877613
0.0878555
0.111391
0.123609
0.123441
0.111301
0.0878517
0.0879408
0.111425
0.123623
0.123475
0.111346
0.0879374
0.0880191
0.111566
0.123727
0.123578
0.111487
0.0880159
0.0880934
0.111591
0.123736
0.123606
0.111522
0.0880906
0.0881616
0.111723
0.123836
0.123703
0.111654
0.0881589
0.0882268
0.111741
0.123842
0.123726
0.111681
0.0882245
0.0882868
0.111866
0.123937
0.123818
0.111805
0.0882846
0.0883443
0.111877
0.123939
0.123836
0.111824
0.0883424
0.0883969
0.111995
0.124031
0.123924
0.111941
0.0883951
0.0884478
0.111999
0.124029
0.123938
0.111953
0.0884462
0.0884942
0.112111
0.124117
0.124022
0.112063
0.0884927
0.0885391
0.11211
0.124112
0.12403
0.11207
0.0885379
0.0885798
0.112216
0.124195
0.12411
0.112174
0.0885788
0.0886195
0.112209
0.124187
0.124115
0.112174
0.0886187
0.0886553
0.11231
0.124267
0.124191
0.112273
0.0886546
0.0886905
0.112299
0.124256
0.124192
0.112268
0.0886899
0.0887219
0.112395
0.124332
0.124264
0.112361
0.0887215
0.088753
0.112379
0.124318
0.124262
0.112352
0.0887528
0.0887806
0.112471
0.124392
0.124331
0.112441
0.0887805
0.0888081
0.112451
0.124374
0.124325
0.112427
0.0888082
0.0888324
0.112539
0.124445
0.124391
0.112513
0.0888324
0.0888566
0.112515
0.124425
0.124382
0.112495
0.0888569
0.0888776
0.112599
0.124493
0.124445
0.112576
0.0888779
0.0888987
0.112572
0.12447
0.124433
0.112555
0.0888992
0.088917
0.112653
0.124536
0.124493
0.112633
0.0889174
0.0889354
0.112622
0.124511
0.124478
0.112608
0.0889361
0.0889515
0.112701
0.124574
0.124536
0.112683
0.0889521
0.0889681
0.112668
0.124548
0.124519
0.112655
0.0889689
0.0889826
0.112744
0.12461
0.124575
0.112728
0.0889834
0.0889983
0.11271
0.124582
0.124556
0.112698
0.0889993
0.0890123
0.112785
0.124644
0.124611
0.11277
0.0890132
0.0890278
0.112751
0.124616
0.124591
0.112739
0.089029
0.0890421
0.112826
0.124679
0.124646
0.112811
0.0890433
0.0890583
0.112792
0.124652
0.124626
0.11278
0.0890596
0.0890735
0.112868
0.124715
0.124682
0.112852
0.0890748
0.0890909
0.112834
0.124689
0.124663
0.112822
0.0890924
0.0891075
0.112911
0.124754
0.12472
0.112895
0.089109
0.0891263
0.112879
0.12473
0.124703
0.112867
0.089128
0.089144
0.112957
0.124796
0.124761
0.112941
0.0891458
0.0891637
0.112926
0.124772
0.124745
0.112913
0.0891656
0.0891819
0.113004
0.124839
0.124804
0.112988
0.0891838
0.089202
0.112973
0.124816
0.124789
0.112961
0.089204
0.0892211
0.113053
0.124884
0.124848
0.113036
0.0892232
0.0892433
0.113025
0.124865
0.124834
0.113011
0.0892456
0.0892673
0.113111
0.124941
0.124893
0.11309
0.0892697
0.0892995
0.113154
0.124979
0.12484
0.11307
0.0893021
0.0894136
0.113196
0.124993
0.124871
0.113113
0.0893701
0.0892557
0.113065
0.124883
0.124539
0.112897
0.0892594
0.0890546
0.113152
0.125218
0.124494
0.113326
0.0900797
0.0900817
0.11532
0.128814
0.13545
0.123321
0.0979547
0.100121
0.131414
0.150828
0.177526
0.156774
0.120637
0.122973
0.164902
0.194042
0.200425
0.176215
0.136068
0.221319
0.248005
0.268782
0.253134
0.176255
0.147056
0.171478
0.115348
0.0805608
0.065374
0.0583846
0.0555775
0.0539688
0.0534541
0.0531388
0.0531212
0.0531326
0.0531764
0.0532116
0.0532461
0.0532809
0.0533379
0.0533464
0.0536851
0.0537779
0.0542156
0.0546846
0.0543544
0.055561
0.0547179
0.0525993
0.0485928
0.0472826
0.0417216
0.0420655
0.0397958
0.040584
0.040346
0.0408052
0.0408958
0.0410372
0.0410462
0.0410645
0.0410611
0.0410465
0.0410617
0.0410455
0.0410408
0.0410365
0.0410309
0.0410223
0.0410098
0.0409944
0.0409769
0.0409577
0.0409266
0.0409242
0.0408787
0.0408714
0.0408202
0.0408064
0.0407478
0.0407254
0.0406571
0.0406235
0.0405426
0.0404948
0.0403984
0.0403333
0.0402175
0.0401312
0.0400028
0.0398712
0.0397254
0.0395547
0.0393969
0.0391831
0.0389903
0.03874
0.0385092
0.0382206
0.0379507
0.0376238
0.0373062
0.0369613
0.0365993
0.0362214
0.0358288
0.0354321
0.0349975
0.0345877
0.0341357
0.0337108
0.0332561
0.0327985
0.0323635
0.0318964
0.0314542
0.0310142
0.030555
0.0301304
0.0296817
0.0292686
0.0288405
0.0284203
0.028029
0.0276254
0.0272307
0.0268652
0.0264825
0.0261354
0.0257719
0.0254436
0.0251057
0.0247777
0.0244774
0.0241624
0.0238805
0.0235843
0.0233204
0.0230481
0.0227847
0.0225468
0.0222949
0.0220734
0.0218381
0.021627
0.0214181
0.0212168
0.0210229
0.0208361
0.0206562
0.0204832
0.0203168
0.0201567
0.0200028
0.0198552
0.0197134
0.0195774
0.019447
0.0193219
0.0192022
0.0190876
0.018978
0.0188732
0.0187731
0.0186776
0.0185865
0.0184997
0.0184171
0.0183385
0.0182643
0.018193
0.0181254
0.0180624
0.0180024
0.0179458
0.0178926
0.0178426
0.0177958
0.017752
0.0177112
0.0176735
0.0176392
0.0176067
0.0175772
0.0175513
0.0175265
0.0174992
0.0174717
0.0174007
0.017348
0.0171453
0.0172433
0.0168981
0.0178622
0.0177131
0.0200769
0.0193834
0.0192963
0.0193397
0.0193737
0.0193531
0.0192789
0.0191968
0.0191231
0.0190687
0.0190272
0.0189934
0.0189633
0.0189347
0.0189053
0.0188736
0.0188408
0.0188057
0.0187693
0.0187315
0.018691
0.0186498
0.0186065
0.0185618
0.0185152
0.0184677
0.0184195
0.0183692
0.0183184
0.0182666
0.0182139
0.0181606
0.0181065
0.018052
0.017997
0.0179417
0.0178867
0.0178311
0.0177751
0.0177197
0.0176649
0.01761
0.0175551
0.0175016
0.0174478
0.0173948
0.0173436
0.0172928
0.0172427
0.0171931
0.0171433
0.017097
0.0170581
0.0170324
0.0170331
0.017105
0.0172843
0.0175986
0.0180404
0.0184042
0.0180801
0.017586
0.0368382
0.0314673
0.0311779
0.031083
0.0308964
0.0310045
0.030894
0.0309937
0.0308611
0.0309605
0.0308146
0.0309052
0.030752
0.0308364
0.030678
0.030757
0.0305941
0.0306683
0.0305016
0.0305715
0.0304013
0.0304669
0.0302933
0.0303548
0.030178
0.0302354
0.0300554
0.0301088
0.0299257
0.0299749
0.0297887
0.0298336
0.0296441
0.0296845
0.0294916
0.0295274
0.029331
0.029362
0.0291621
0.0291881
0.0289844
0.029005
0.0287971
0.0288118
0.0285994
0.028608
0.028391
0.0283932
0.0281716
0.028167
0.02794
0.0279276
0.0276945
0.0276737
0.0274342
0.0274048
0.0271591
0.0271213
0.0268695
0.0268227
0.0265638
0.0265063
0.0262385
0.0261686
0.025891
0.0258087
0.0255226
0.0254295
0.0251361
0.0250319
0.02473
0.0246121
0.0242985
0.0241641
0.0238373
0.0236859
0.0233477
0.0231831
0.0228384
0.0226645
0.022315
0.0221294
0.0217698
0.0215664
0.0211924
0.0209714
0.0205879
0.0203582
0.0199751
0.0197465
0.0193724
0.0191499
0.018786
0.0185671
0.0182087
0.0179922
0.0176438
0.0174512
0.0171046
0.016969
0.0166523
0.0165526
0.0162741
0.0162004
0.0159734
0.0159238
0.0157275
0.0157085
0.0155877
0.0155945
0.0155345
0.0155367
0.0155277
0.0155107
0.0155507
0.0155128
0.0156002
0.0155658
0.0156677
0.0156367
0.015721
0.0157104
0.0157646
0.0157654
0.0158097
0.0157967
0.0158472
0.0158455
0.0159321
0.0159533
0.0160488
0.0160601
0.0161413
0.0161314
0.0161758
0.0161135
0.0161762
0.0161046
0.0161883
0.016219
0.0163197
0.0164529
0.0166891
0.0172691
0.0185995
0.0211245
0.0239594
0.0254862
0.0224905
0.0230838
0.0265083
0.0279792
0.0262778
0.00956578
0.0238347
0.0199214
0.0177852
0.021026
0.0209659
0.017544
0.0172835
0.0206873
0.00945674
0.00936824
0.0207283
0.017263
0.0171394
0.0205965
0.0206956
0.0171952
0.017043
0.0205338
0.00935212
0.00935784
0.0206955
0.0171839
0.0170308
0.0204936
0.0207452
0.0172123
0.017041
0.0204835
0.0093683
0.00935266
0.0207152
0.0171851
0.0170033
0.0204676
0.0206413
0.0171107
0.0169332
0.0204219
0.00933193
0.00930594
0.0205601
0.017015
0.0168514
0.0203581
0.0205235
0.016963
0.0168159
0.0203198
0.00929953
0.0092963
0.0205298
0.0169536
0.0167962
0.0202971
0.0205189
0.0169322
0.0167614
0.0202711
0.00929058
0.00928034
0.0204895
0.0169063
0.0167272
0.0202661
0.0204576
0.0168693
0.0167094
0.0202873
0.0092724
0.00926968
0.020425
0.0168345
0.0167097
0.0203254
0.0204167
0.0168052
0.0167547
0.0203959
0.00927834
0.0093241
0.0204377
0.0168124
0.0168229
0.0205012
0.0204631
0.0168314
0.016938
0.0206594
0.00938718
0.00947121
0.0205193
0.0168794
0.0171225
0.020894
0.0206131
0.0169934
0.0173797
0.021214
0.00959387
0.00974747
0.0207418
0.0171807
0.0176998
0.0216131
0.020935
0.0174252
0.0180842
0.0220862
0.00993583
0.0101564
0.021208
0.0177373
0.0185331
0.0226297
0.0215719
0.0181244
0.0190471
0.0232506
0.0104093
0.0106813
0.0220199
0.0185906
0.0196045
0.0239019
0.0225574
0.0191236
0.0201909
0.0245811
0.0109689
0.0112601
0.023147
0.0196889
0.0207785
0.0252626
0.0237641
0.0202551
0.0213705
0.0259448
0.0115555
0.0118531
0.0244112
0.0208279
0.0219692
0.0266266
0.0250743
0.0214024
0.0225622
0.027295
0.012147
0.012431
0.0257287
0.021965
0.0231355
0.0279356
0.0263769
0.0225223
0.0236776
0.0285421
0.0127005
0.0129575
0.0270159
0.0230671
0.0241904
0.0291171
0.0276444
0.0235956
0.0246845
0.0296689
0.0132033
0.0134412
0.0282652
0.0241137
0.0251608
0.0301979
0.0288644
0.0246127
0.025612
0.0306975
0.0136663
0.0138778
0.0294291
0.0250827
0.026034
0.0311645
0.0299574
0.0255221
0.0264288
0.0316015
0.0140751
0.0142617
0.0304556
0.0259356
0.0268019
0.0320142
0.0309305
0.0263293
0.0271569
0.032406
0.0144377
0.0146045
0.0313826
0.0267041
0.0274927
0.0327758
0.0318078
0.0270568
0.0278071
0.0331217
0.0147606
0.0149072
0.032205
0.0273864
0.0281008
0.0334445
0.0325775
0.0276955
0.028377
0.0337475
0.0150432
0.015172
0.0329285
0.0279873
0.0286383
0.0340333
0.0332592
0.0282631
0.0288852
0.0343026
0.0152932
0.0154062
0.0335692
0.0285226
0.0291175
0.0345554
0.0338588
0.0287659
0.0293356
0.0347922
0.0155118
0.0156116
0.0341296
0.0289941
0.0295407
0.0350141
0.0343839
0.029209
0.0297341
0.0352226
0.015704
0.0157909
0.0346229
0.0294118
0.0299166
0.0354184
0.034847
0.0296028
0.0300883
0.0356018
0.0158717
0.0159481
0.0350567
0.0297822
0.0302498
0.0357732
0.0352528
0.0299508
0.0304018
0.0359336
0.0160181
0.0160836
0.0354359
0.0301095
0.0305449
0.0360835
0.035607
0.0302586
0.0306794
0.0362234