/*--------------------------------*- C++ -*----------------------------------*\
| =========                 |                                                 |
| \\      /  F ield         | OpenFOAM: The Open Source CFD Toolbox           |
|  \\    /   O peration     | Version:  v2006                                 |
|   \\  /    A nd           | Website:  www.openfoam.com                      |
|    \\/     M anipulation  |                                                 |
\*---------------------------------------------------------------------------*/
FoamFile
{
    version     2.0;
    format      ascii;
    class       volScalarField;
    location    "0.034";
    object      k;
}
// * * * * * * * * * * * * * * * * * * * * * * * * * * * * * * * * * * * * * //

dimensions      [0 2 -2 0 0 0 0];


internalField   nonuniform List<scalar> 
11076
(
146.247
146.247
146.247
146.247
146.248
146.249
146.249
146.246
146.214
146.075
145.776
145.348
144.844
144.31
143.765
143.217
142.662
142.095
141.511
140.908
140.285
139.642
138.98
138.301
137.605
136.893
136.168
135.43
134.681
133.921
133.153
132.377
131.596
130.81
130.022
129.233
128.445
127.659
126.878
126.102
125.333
124.574
123.825
123.088
122.365
121.658
120.968
120.296
119.645
119.014
118.404
117.811
117.231
116.659
116.094
115.553
115.079
114.741
114.579
114.555
114.59
114.643
114.69
114.711
114.728
114.659
114.462
114.107
113.545
112.363
110.431
100.224
88.9723
105.196
110.936
107.817
97.7567
79.8657
72.9031
91.6495
104.364
100.359
85.2752
67.0825
62.8744
80.809
96.9146
93.0395
75.8772
59.1675
56.4558
72.5778
90.1537
86.7407
69.0092
53.9319
52.1831
66.9395
84.5126
81.5623
64.1284
50.359
49.1419
62.7994
79.8817
77.3632
60.585
47.7538
46.8485
59.6678
76.0305
73.8524
57.8725
45.747
45.0346
57.196
72.7712
70.8583
55.7145
44.131
43.5411
55.1679
69.9611
68.2569
53.924
42.7736
42.2689
53.4669
67.5002
65.9625
52.3923
41.599
41.155
51.9991
65.3112
63.9152
51.051
40.5565
40.1566
50.7036
63.3343
62.0656
49.8513
39.6115
39.2442
49.5393
61.5393
60.3765
48.7624
38.7401
38.3975
48.4779
59.8941
58.8193
47.7612
37.9252
37.6018
47.4986
58.374
57.374
46.8309
37.1548
36.8462
46.5859
56.9602
56.0242
45.9586
36.4194
36.1226
45.7281
55.6373
54.7565
45.1343
35.7119
35.4241
44.9155
54.3928
53.5601
44.3496
35.0262
34.7452
44.1403
53.2166
52.4265
43.5978
34.3572
34.0811
43.3964
52.1009
51.3486
42.8737
33.7009
33.4281
42.6788
51.0389
50.3205
42.173
33.0538
32.7833
41.9836
50.025
49.337
41.4922
32.4131
32.1434
41.307
49.0539
48.3926
40.8273
31.7755
31.5053
40.6452
48.1202
47.4818
40.1743
31.1378
30.8659
39.9939
47.2183
46.5996
39.5293
30.4975
30.2233
39.3499
46.344
45.7431
38.8904
29.8533
29.5762
38.7118
45.4949
44.9103
38.2561
29.2034
28.9222
38.0773
44.6682
44.0971
37.6232
28.5446
28.2578
37.4427
43.8594
43.2983
36.9872
27.8736
27.58
36.8036
43.0632
42.5088
36.3441
27.1883
26.8875
36.157
42.2754
41.7263
35.6926
26.4881
26.1804
35.5026
41.4954
40.9522
35.0339
25.7728
25.4574
34.8407
40.7233
40.1843
34.3658
25.0394
24.7133
34.1665
39.9545
39.414
33.6806
24.2823
23.9452
33.4732
39.1803
38.6342
32.9738
23.5017
23.1548
32.7594
38.3976
37.8477
32.2479
22.7003
22.3447
32.0284
37.6107
37.0601
31.5074
21.8803
21.5167
31.2829
36.8221
36.269
30.7519
21.0404
20.6657
30.5197
36.0275
35.4667
29.9728
20.1747
19.7887
29.7299
35.2173
34.6415
29.1639
19.2858
18.893
28.9118
34.3836
33.7955
28.3306
18.3813
17.9859
28.0744
33.5366
32.9488
27.4868
17.4733
17.0804
27.2332
32.6955
32.1117
26.649
16.5715
16.1784
26.3946
31.8584
31.2696
25.8025
15.665
15.2737
25.5398
31.0079
30.406
24.938
14.7669
14.3888
24.6748
30.1381
29.5289
24.0805
13.9043
13.5489
23.8264
29.2654
28.6694
23.2484
13.0883
12.7636
23.0118
28.4256
27.8646
22.4702
12.3459
12.0633
22.2612
27.6413
27.1109
21.7678
11.6908
11.4449
21.5772
26.8988
26.3879
21.1103
11.1138
10.912
20.9316
26.1838
25.6928
20.4964
10.6353
10.4892
20.3463
25.5117
25.0686
19.9662
10.2738
10.1794
19.8415
24.9135
24.5221
19.5094
10.0178
9.9636
19.4079
24.3929
24.052
19.1252
9.85976
9.84531
19.0365
23.9498
23.6559
18.7659
9.79455
9.78572
18.6579
23.5424
23.2386
18.3693
9.75417
9.76364
18.2782
23.1391
22.8622
18.0222
9.75597
9.77343
17.9423
22.772
22.5113
17.7052
9.77298
9.78724
17.6218
22.4071
22.1408
17.4028
9.80191
9.85517
17.3515
22.0597
21.8534
17.1705
9.86089
9.90618
17.1288
21.7911
21.563
16.9254
9.89342
9.96436
16.9115
21.516
21.2862
16.734
9.95307
10.0007
16.7084
21.2421
21.0294
16.5583
10.0121
10.0376
16.5319
20.9963
20.8265
16.4102
10.0686
10.0718
16.3617
20.7597
20.593
16.2496
10.0984
10.0978
16.186
20.5108
20.3764
16.1114
10.1449
10.1576
16.0729
20.3252
20.2158
16.012
10.1987
10.2232
15.9908
20.1656
20.094
15.9453
10.2531
10.2807
15.9515
20.0812
20.0436
15.9309
10.3175
10.2946
15.8753
19.9574
19.8074
15.7743
10.2935
10.3107
15.7492
19.7462
19.5508
15.6142
10.2873
10.333
15.6166
19.5336
19.4076
15.5552
10.3325
10.3905
15.5949
19.438
19.3861
15.5853
10.4281
10.406
15.5308
19.3676
19.304
15.5229
10.5218
10.5855
15.6911
19.5394
19.7271
15.8558
10.6839
27.0743
34.1496
40.5602
46.6129
51.6608
57.034
61.2521
64.998
68.0233
70.6053
72.6379
74.1853
75.1641
75.5951
75.3609
74.3626
72.4909
69.5339
66.1477
61.1491
53.1538
46.4754
38.9891
30.6432
22.8097
19.6335
12.8081
12.7175
19.0488
22.0412
21.592
18.8977
12.5548
12.2235
18.3979
21.1003
21.1165
18.473
12.0305
12.0127
18.5627
21.314
21.206
18.3615
11.9553
12.0483
18.5591
21.6039
21.4943
18.4381
12.0263
12.1959
18.7919
21.9057
21.8167
18.6765
12.1674
12.3241
18.9899
22.246
22.1536
18.8604
12.2876
12.4173
19.1426
22.5914
22.497
18.999
12.3701
12.4813
19.2834
22.9813
22.8913
19.1258
12.4359
12.5431
19.4281
23.411
23.3233
19.2829
12.5121
12.6831
19.7116
23.8647
23.7676
19.6031
12.6978
12.9481
20.1165
24.2943
24.1781
20.0019
12.9929
13.2034
20.4267
24.6987
24.5908
20.2891
13.1759
13.3248
20.6096
25.1656
25.0695
20.4391
13.2785
13.4217
20.8093
25.7045
25.6075
20.6565
13.3846
13.5568
21.0794
26.2617
26.153
20.925
13.5449
13.7475
21.4155
26.8332
26.7264
21.277
13.7387
13.9563
21.7565
27.43
27.3086
21.6052
13.9426
14.1561
22.0926
28.0357
27.9179
21.9362
14.1453
14.3577
22.4481
28.6847
28.5606
22.2868
14.3494
14.5752
22.7891
29.3605
29.2343
22.6175
14.565
14.7907
23.173
30.0525
29.9235
23.0046
14.7902
15.0465
23.5851
30.7742
30.6402
23.3953
15.0625
15.3123
23.9567
31.4923
31.3509
23.7661
15.3001
15.5342
24.3334
32.2747
32.1347
24.119
15.5431
15.8177
24.7027
33.0689
32.9068
24.4927
15.8265
16.1456
25.0791
33.8973
33.7265
24.8599
16.191
16.5362
25.4201
34.7444
34.5594
25.1761
16.5945
16.9871
25.7207
35.6459
35.4674
25.4584
17.1125
17.558
26.062
36.6489
36.4311
25.8062
17.768
18.2295
26.4494
37.8063
37.5145
26.1099
18.3585
18.7247
26.9064
39.0722
38.6817
26.4073
18.6865
18.8776
27.1148
40.1581
39.7447
26.653
18.8049
18.9603
27.3385
41.3916
40.9814
26.6945
18.8911
19.0767
27.3392
42.6197
42.3759
26.8792
18.9978
19.2791
27.755
44.3616
44.311
27.5286
19.5179
20.3316
29.193
47.2053
47.6663
29.4937
21.3687
23.8951
32.0183
52.4598
54.9769
32.8714
26.9739
32.1026
39.5646
70.7477
82.9573
51.4221
35.7253
40.6027
68.9027
94.5047
98.7451
68.7379
40.1934
42.198
64.8351
91.4508
105.306
75.8798
46.5463
50.2808
83.0174
111.044
120.225
92.1508
53.9665
57.5516
98.9411
126.65
134.893
107.972
61.4399
64.8787
116.164
142.197
151.182
125.087
68.0811
70.2637
129.599
155.249
153.716
128.801
70.2438
76.487
139.543
163.619
170.767
147.725
79.8593
83.5622
154.985
178.188
181.39
157.273
83.0597
81.742
154.313
178.91
181.564
156.569
82.353
85.592
158.78
181.769
190.742
168.491
92.5407
101.055
178.563
198.758
208.103
188.68
108.828
115.018
195.68
213.86
216.037
200.305
121.068
131.686
209.43
223.01
229.271
219.772
142.806
150.846
224.687
230.634
229.732
225.888
158.924
166.54
226.142
226.175
221.943
224.637
172.894
177.1
220.993
216.751
207.064
215.346
180.473
181.508
208.918
200.042
197.482
205.234
180.953
180.206
203.951
196.92
197.061
203.882
178.37
176.75
206.207
198.942
203.599
206.308
173.477
170.47
205.041
208.006
207.81
197.63
167.37
164.417
192.414
208.368
203.709
182.316
161.252
158.041
169.449
185.876
184.415
162.851
154.186
150.497
154.781
174.83
154.711
145.784
145.731
141.096
138.864
156.297
149.531
132.085
135.728
130.494
124.353
133.16
137.768
117.508
124.349
118.65
112.942
130.499
115.72
103.329
112.319
106.328
103.95
129.854
121.757
96.9813
100.154
94.789
98.6431
137.303
128.884
93.5587
89.5772
84.6685
88.9615
119.261
100.392
81.4431
79.5605
74.4635
81.3196
108.754
106.359
78.5865
70.3068
65.7022
71.2173
89.7144
100.319
73.1028
62.048
58.8213
69.7534
92.9836
85.8445
64.5409
55.5708
52.4752
57.3955
71.584
80.0165
58.6624
48.9906
47.5209
56.7914
75.7025
57.726
45.5568
44.0504
40.0948
41.806
65.5771
52.7407
36.7513
37.9476
35.9742
33.4529
46.0038
31.3758
27.0818
31.5135
31.3999
32.9044
40.9796
38.2044
30.883
31.3236
30.4851
25.3042
26.6082
39.8917
31.6885
30.9823
31.0543
28.9737
35.4942
31.7166
26.6885
30.7783
30.8258
22.0765
23.4412
33.6451
26.8548
28.213
28.8287
25.2837
31.4031
22.2806
21.4552
30.0978
28.0072
26.0535
32.9073
30.4057
24.4803
28.7962
30.5377
21.7481
21.7292
32.4407
25.6454
28.5918
29.2515
24.2266
30.0845
21.8421
21.7123
30.4195
28.5561
25.5435
32.2035
28.67
23.9584
29.2545
30.336
22.2992
25.5249
20.0293
21.1044
32.0689
27.9203
22.3183
26.558
24.9397
21.2011
28.9411
31.6232
20.0722
19.3369
25.3104
21.2409
27.4312
28.2492
20.3594
23.6124
18.9426
18.8774
30.8874
26.0138
20.4127
23.623
21.9608
19.3176
27.1487
30.766
18.6285
17.656
22.5803
19.5756
26.5582
27.9707
18.9061
20.8513
17.7433
18.5973
31.9908
26.5867
18.973
20.8829
19.7915
18.3805
27.8195
32.1267
18.9565
17.17
20.5736
18.7392
27.4328
30.7395
18.3145
17.4831
23.5878
19.3643
26.7728
28.0463
19.1688
21.842
17.7877
18.9925
30.9273
26.5508
19.4034
22.5721
21.1246
19.1004
28.5298
32.5708
19.5251
17.6833
22.0079
19.3866
27.8901
29.8978
18.941
20.4953
17.9778
20.2786
33.3421
27.9162
18.8832
20.5577
19.1056
18.2788
30.1123
34.7545
21.0037
17.4988
19.8387
18.6158
29.2217
33.2821
19.3018
17.844
21.0423
18.6807
28.4213
30.2877
18.2513
19.3505
17.6437
20.6244
33.8567
28.2318
18.2756
19.1262
17.9539
17.7618
30.7386
35.7773
21.5812
17.0991
17.9591
16.9211
29.6786
33.4796
19.8475
16.5309
18.1875
17.4539
28.106
30.9526
17.0899
17.0772
16.6472
21.2516
35.5686
29.704
17.8125
17.8571
16.8418
17.5838
32.8517
37.7085
22.8327
16.9709
17.5749
17.0241
30.7839
35.39
20.8665
16.6167
17.9433
17.6596
29.6693
33.0872
17.4865
16.6221
16.9367
23.5084
38.185
31.1549
17.0496
17.0015
16.4282
20.8326
35.9569
29.9757
17.5013
17.6542
16.6115
17.4602
33.2603
38.4381
23.0256
16.8712
17.6754
18.0004
31.5851
35.1763
17.9446
16.4723
17.3253
24.7236
40.6541
32.8238
16.9709
16.5407
16.326
21.9773
38.5562
31.8741
17.2276
17.0516
15.7718
17.4007
36.0729
42.3244
25.5675
16.9759
16.0112
16.796
33.9464
39.641
21.6847
16.041
16.6491
16.8627
32.2389
36.0404
17.151
15.6405
16.9556
25.5904
42.0257
33.6855
16.7509
16.024
16.187
22.2545
40.0589
32.9447
17.1339
16.8741
15.7501
17.4713
37.1779
43.8678
26.4776
17.2196
16.127
16.9433
35.1345
41.8627
22.8913
16.3515
16.7226
17.1125
33.9084
38.3316
17.5897
15.7017
17.4591
27.5292
45.5082
36.4836
17.3501
16.3284
16.7185
23.805
43.5182
35.2828
17.5706
17.1235
16.0679
18.1439
40.0176
47.5985
28.7122
18.0129
16.6722
17.8118
38.0171
45.577
24.5696
17.0813
17.2844
17.8305
36.793
41.6518
18.4898
16.2692
18.4248
29.933
49.455
39.4512
18.3151
17.0189
17.5946
25.6551
47.3994
38.3174
18.3984
17.7774
16.7267
19.1405
43.5132
51.9023
31.3051
19.097
17.4628
18.9
41.0975
49.4415
26.6938
18.0902
18.0829
18.7888
39.5278
44.9464
19.6786
17.0597
19.6011
32.3019
53.7141
42.7497
19.4049
17.8814
18.7092
27.942
51.5488
41.3498
19.4394
18.6077
17.5596
20.3609
47.0809
56.402
33.8695
20.3526
18.4485
20.099
44.7945
54.0683
28.8963
19.33
19.007
19.8926
43.1469
49.0808
20.849
17.9422
20.9736
35.0779
58.7864
46.6147
20.6952
18.9537
20.0513
30.3734
56.4015
45.0041
20.6205
19.5944
18.5395
21.7311
51.3042
61.657
36.7647
21.7962
19.6003
21.4779
48.7044
58.9565
31.5352
20.7806
20.1054
21.2245
46.9018
53.4054
22.2983
19.018
22.5131
38.2528
64.1881
50.4811
22.2545
20.2143
21.6349
33.2566
61.2643
48.8102
22.0822
20.8297
19.7521
23.3625
55.8227
67.3286
39.9324
23.4806
20.9533
23.0845
53.0306
64.2378
34.1362
22.3735
21.3761
22.6562
50.8421
57.9297
23.9125
20.2606
24.2595
41.3412
69.7874
55.077
23.8328
21.5963
23.2961
36.0427
67.0289
53.4187
23.6719
22.2105
21.0875
25.0061
60.9256
73.452
43.5486
25.5062
22.3972
24.8597
57.6386
69.9625
37.2182
24.16
22.8647
24.3784
55.2798
62.9679
25.7229
21.7168
26.3965
45.108
76.2355
59.9541
25.8025
23.2008
25.2148
39.1706
72.9094
57.9679
25.4528
23.8166
22.6727
27.0063
66.1422
79.8179
46.9762
27.6302
24.0614
26.7531
62.7189
76.2515
40.5616
26.1137
24.6028
26.3546
59.7338
67.997
27.7813
23.3698
27.957
48.1329
82.399
64.7161
28.3765
24.9773
24.1161
29.5068
73.7762
89.3566
51.9745
30.173
25.4008
28.5752
69.2099
83.9773
44.1602
28.2156
25.7942
27.8955
65.7424
74.9562
29.4339
24.5655
30.9011
53.2725
91.0778
70.7456
29.5266
26.0386
28.9952
45.8093
86.1066
67.4567
28.786
26.6393
25.4694
30.7133
76.7702
92.6508
54.1931
31.2916
26.9322
31.1588
72.6376
82.6965
31.9602
25.978
33.456
58.4795
101.351
78.0661
31.3232
27.4141
31.4238
49.9025
95.1714
74.0319
30.4004
27.6272
26.4925
32.5025
84.2958
101.768
58.6482
33.3455
27.8623
32.8517
79.0593
89.976
33.7714
26.9278
35.2819
62.5939
109.964
84.0577
32.7732
28.4886
33.1349
53.6772
102.758
79.4265
31.912
28.6918
27.6969
34.266
90.3236
109.033
63.0034
35.2575
29.2595
34.7615
84.3777
96.4237
36.2432
28.3698
37.6456
66.4543
117.785
90.2499
34.7921
30.1408
35.6427
57.9332
110.648
85.6855
34.0853
30.2423
29.2273
36.4052
97.4208
117.747
67.3214
37.5639
30.7998
36.9058
90.7394
103.422
38.3803
29.8504
39.1498
71.048
126.359
96.5522
38.0885
31.5739
30.4944
39.4126
109.775
133.635
74.2882
40.4468
32.1712
39.1761
101.353
114.922
40.9349
31.1684
42.1195
78.1415
139.078
105.466
40.7225
33.0541
31.9311
41.1296
118.975
146.335
81.1304
43.6573
33.7292
41.7035
110.155
125.047
43.4477
32.6496
44.9976
83.7309
151.266
114.02
42.9871
34.5669
33.3879
44.3918
129.471
157.578
86.125
46.1707
35.0814
43.3947
118.449
134.63
45.2781
33.9452
47.5549
89.6026
163.407
122.638
45.3898
36.0296
34.8569
46.6127
138.628
167.681
91.4111
48.6179
36.7513
45.5498
124.189
141.01
47.6861
35.5487
49.993
95.2142
173.351
129.476
47.879
37.805
36.5662
48.9392
145.884
176.503
94.5377
49.8561
38.286
47.78
131.062
144.31
52.3424
36.9296
36.6432
58.802
166.817
202.283
111.762
56.4811
40.5472
52.8589
149.172
166.935
59.8111
39.507
38.5548
58.219
185.541
225.785
120.21
60.127
41.3094
54.7095
162.816
178.634
60.2661
40.1122
39.6472
65.4244
203.07
240.001
127.907
63.5354
43.021
57.5142
173.752
194.145
64.1984
41.4425
40.3463
65.5098
217.769
256.141
129.217
62.6746
42.8181
56.8084
176.318
198.955
60.6184
40.9983
39.6036
63.0789
218.686
247.194
79.328
40.7874
39.06
74.742
263.18
306.086
157.509
70.4739
45.0829
64.5836
209.763
230.343
61.4685
42.4303
42.3352
78.4708
253.035
276.455
74.002
41.1155
41.075
85.1405
292.938
308.329
81.6267
39.9311
40.294
90.4461
309.553
304.571
90.9357
39.8454
40.491
96.8613
294.641
277.467
97.3406
40.1396
41.1409
102.634
260.195
242.944
103.758
40.8643
42.5475
110.031
227.263
212.522
112.112
42.5184
45.0324
119.76
199.767
188.199
121.53
45.2303
48.517
127.814
178.241
169.359
130.437
49.0409
53.1415
134.697
161.601
154.838
137.826
53.9458
59.15
140.113
148.811
143.622
142.875
60.191
65.896
144.615
138.956
135.005
146.926
66.9158
72.7583
148.424
131.388
128.455
150.524
73.9115
79.861
151.726
125.626
123.553
153.6
81.0209
87.1211
154.593
121.248
120.002
156.168
88.2449
94.133
156.918
118.115
117.487
158.151
95.0616
100.653
158.739
115.978
115.708
159.717
101.437
106.612
160.108
114.576
114.518
160.824
107.161
111.935
161.09
113.716
113.791
161.66
112.324
116.651
161.675
113.203
113.348
162.104
116.778
120.669
162.03
112.925
113.127
162.355
120.721
124.148
162.183
112.803
113.044
162.406
124.055
127.087
162.172
112.783
113.062
162.334
126.922
129.557
162.039
112.84
113.175
162.143
129.294
131.617
161.818
112.967
113.331
161.895
131.307
133.311
161.535
113.133
113.513
161.581
132.934
134.691
161.212
113.323
113.718
161.248
134.292
135.803
160.859
113.535
113.936
160.881
135.359
136.684
160.496
113.76
114.17
160.518
136.236
137.375
160.122
114
114.412
160.139
136.899
137.903
159.754
114.248
114.667
159.779
137.434
138.3
159.382
114.509
114.93
159.401
137.815
138.582
159.022
114.776
115.2
159.052
138.11
138.778
158.663
115.051
115.476
158.688
138.293
138.911
158.321
115.333
115.759
158.359
138.427
138.987
157.991
115.62
116.047
158.027
138.475
138.989
157.671
115.911
116.337
157.716
138.48
138.946
157.356
116.205
116.627
157.396
138.41
138.824
157.045
116.498
116.917
157.086
138.275
138.628
156.725
116.79
117.2
156.752
138.045
138.351
156.394
117.074
117.475
156.42
137.765
138.03
156.046
117.349
117.736
156.056
137.411
137.657
155.686
117.609
117.983
155.7
137.04
137.265
155.315
117.856
118.213
155.315
136.614
136.828
154.94
118.085
118.429
154.944
136.17
136.374
154.559
118.299
118.626
154.547
135.701
135.903
154.169
118.495
118.808
154.168
135.24
135.434
153.791
118.676
118.972
153.776
134.767
134.963
153.411
118.839
119.123
153.408
134.311
134.502
153.046
118.989
119.26
153.041
133.855
134.052
152.694
119.125
119.385
152.703
133.423
133.616
152.358
119.249
119.498
152.369
132.994
133.193
152.04
119.362
119.603
152.063
132.586
132.782
151.735
119.467
119.697
151.76
132.184
132.386
151.448
119.561
119.785
151.485
131.802
132.002
151.175
119.649
119.865
151.213
131.427
131.634
150.917
119.728
119.939
150.967
131.073
131.278
150.672
119.802
120.006
150.722
130.725
130.938
150.441
119.869
120.068
150.502
130.398
130.609
150.222
119.932
120.126
150.282
130.074
130.295
150.015
119.99
120.18
150.086
129.776
129.993
149.818
120.044
120.229
149.888
129.48
129.705
149.633
120.093
120.276
149.713
129.204
129.427
149.457
120.14
120.318
149.535
128.929
129.162
149.291
120.183
120.359
149.378
128.679
128.908
149.133
120.224
120.395
149.218
128.42
128.663
148.983
120.261
120.43
149.077
128.192
128.431
148.84
120.296
120.461
148.931
127.954
128.208
148.705
120.327
120.491
148.805
127.747
127.997
148.577
120.358
120.519
148.673
127.529
127.794
148.455
120.385
120.545
148.561
127.342
127.602
148.34
120.411
120.569
148.442
127.143
127.417
148.231
120.434
120.591
148.341
126.973
127.242
148.128
120.456
120.611
148.234
126.791
127.074
148.03
120.476
120.63
148.144
126.638
126.915
147.937
120.495
120.647
148.047
126.471
126.762
147.848
120.512
120.663
147.967
126.333
126.618
147.765
120.528
120.677
147.878
126.179
126.478
147.685
120.541
120.69
147.806
126.055
126.348
147.61
120.554
120.702
147.726
125.915
126.221
147.537
120.566
120.713
147.662
125.803
126.102
147.47
120.577
120.723
147.589
125.675
125.986
147.404
120.587
120.733
147.531
125.573
125.877
147.343
120.598
120.743
147.465
125.455
125.771
147.284
120.607
120.753
147.413
125.362
125.672
147.229
120.619
120.764
147.352
125.252
125.574
147.175
120.63
120.775
147.306
125.169
125.483
147.126
120.643
120.789
147.251
125.067
125.394
147.078
120.657
120.803
147.211
124.991
125.31
147.034
120.673
120.82
147.16
124.896
125.227
146.991
120.691
120.838
147.126
124.827
125.15
146.952
120.711
120.859
147.08
124.738
125.072
146.914
120.732
120.881
147.05
124.675
125.001
146.879
120.755
120.904
147.009
124.592
124.929
146.846
120.779
120.929
146.984
124.533
124.862
146.816
120.805
120.955
146.948
124.454
124.794
146.787
120.831
120.983
146.926
124.4
124.733
146.762
120.861
121.014
146.895
124.326
124.671
146.734
120.893
121.051
146.866
124.267
124.589
146.712
120.929
121.136
146.846
124.195
124.522
146.685
121.024
121.21
146.804
124.124
124.435
146.638
121.099
121.38
146.734
123.971
124.102
146.652
121.289
121.727
146.692
123.44
122.872
146.588
122.112
123.253
145.91
121.992
118.345
144.898
125.13
126.733
143.552
115.233
109.777
142.606
128.674
76.5427
61.515
62.3301
72.8726
89.0777
97.3529
102.887
118.957
129.563
134.843
137.532
138.688
138.907
138.561
138.002
137.427
136.918
136.497
136.161
135.895
135.687
135.524
135.396
135.295
135.216
135.155
135.11
135.077
135.055
135.043
135.037
135.036
135.033
135.029
135.024
135.017
135.01
135.001
134.992
134.983
134.974
134.965
134.956
134.949
134.942
134.938
134.934
134.933
134.934
134.939
134.95
134.966
134.988
135.014
135.05
135.101
135.17
135.256
135.36
135.476
135.599
135.724
135.846
135.962
136.071
136.174
136.271
136.365
136.455
136.545
136.635
136.727
136.821
136.918
137.02
137.127
137.239
137.357
137.481
137.612
137.75
137.894
138.044
138.2
138.361
138.527
138.697
138.87
139.046
139.223
139.402
139.581
139.759
139.936
140.112
140.285
140.455
140.623
140.787
140.947
141.103
141.255
141.403
141.547
141.686
141.821
141.951
142.077
142.199
142.317
142.431
142.541
142.647
142.749
142.848
142.943
143.035
143.124
143.21
143.293
143.372
143.45
143.525
143.597
143.667
143.735
143.801
143.865
143.927
143.987
144.046
144.103
144.159
144.213
144.267
144.319
144.37
144.42
144.469
144.517
144.565
144.612
144.659
144.705
144.75
144.796
144.841
144.885
144.93
144.975
145.02
145.065
145.11
145.156
145.202
145.249
145.296
145.344
145.393
145.443
145.494
145.545
145.598
145.652
145.707
145.763
145.82
145.878
145.936
145.993
146.048
146.1
146.146
146.185
146.216
146.237
146.245
146.246
146.247
146.247
146.247
146.242
146.222
146.161
146.016
145.751
145.363
144.887
144.367
143.827
143.278
142.719
142.146
141.558
140.95
140.323
139.677
139.011
138.329
137.63
136.916
136.188
135.448
134.697
133.935
133.165
132.388
131.605
130.819
130.029
129.24
128.45
127.664
126.881
126.104
125.335
124.575
123.825
123.087
122.364
121.656
120.966
120.294
119.643
119.013
118.404
117.813
117.237
116.674
116.129
115.62
115.188
114.88
114.709
114.637
114.61
114.597
114.555
114.376
113.492
112.281
108.879
107.062
105.529
103.555
102.099
100.13
98.7963
96.8771
95.6733
93.8238
92.7488
90.975
90.0174
88.3265
87.4669
85.8579
85.0842
83.554
82.8546
81.3993
80.7592
79.3791
78.7823
77.476
76.9171
75.6765
75.1513
73.9696
73.4745
72.3458
71.8782
70.7987
70.3564
69.3223
68.9029
67.9105
67.5121
66.5581
66.1788
65.2601
64.8981
64.0114
63.6646
62.8062
62.4725
61.6397
61.3182
60.5092
60.1993
59.4127
59.1128
58.3457
58.0536
57.3021
57.0156
56.2758
55.994
55.2648
54.9883
54.2706
53.9993
53.2916
53.0222
52.3183
52.0462
51.3398
51.0662
50.36
50.0882
49.3865
49.1158
48.4161
48.1434
47.44
47.1585
46.4396
46.1462
45.4125
45.1187
44.3891
44.1012
43.3784
43.0885
42.3589
42.0567
41.309
40.9923
40.2247
39.9028
39.1391
38.8368
38.1101
37.8248
37.1213
36.8395
36.1415
35.8633
35.1781
34.9233
34.2909
34.0679
33.4953
33.3106
32.8001
32.6561
32.2191
32.0756
31.648
31.5143
31.1245
31.0211
30.6757
30.5566
30.1847
30.0852
29.7811
29.7427
29.452
29.4033
29.0937
29.047
28.7807
28.7338
28.5086
28.426
28.1786
28.087
27.897
27.833
27.6491
27.6267
27.4771
27.4921
27.4127
27.3308
27.0982
27.0152
26.7415
26.7107
26.4983
26.5262
26.4382
26.3833
26.5437
26.6568
33.8412
33.6233
40.2224
40.4693
46.828
46.989
48.8387
39.578
33.3584
33.2181
38.744
40.32
33.5728
33.3917
39.1475
49.1566
49.767
40.6109
33.857
33.7057
39.5271
41.0955
34.2524
34.1311
39.9821
50.3771
50.8913
41.5495
34.6089
34.438
40.2742
41.7939
34.807
34.5887
40.5194
51.324
51.8133
42.1093
35.0112
34.8245
40.8424
42.4419
35.2816
35.115
41.1787
52.2521
52.7644
42.8142
35.5988
35.4515
41.5688
43.256
35.9881
35.8301
41.9465
53.2737
53.6947
43.6151
36.3206
36.1255
42.2667
43.9631
36.6265
36.4395
42.6567
54.1628
54.7056
44.4101
37.0145
36.8505
43.117
44.8671
37.422
37.2506
43.6002
55.2638
55.9384
45.4121
37.8745
37.7459
44.1787
46.0416
38.4301
38.3085
44.8439
56.6744
57.4916
46.7486
39.0017
38.8827
45.578
47.5538
39.6552
39.5751
46.4192
58.4506
59.5587
48.5187
40.4197
40.3489
47.3836
49.5829
41.2418
41.1765
48.4302
60.7951
62.1908
50.756
42.159
42.118
49.5968
52.0342
43.1834
43.1693
50.8742
63.6808
65.272
53.4343
44.3249
44.3337
52.2605
54.8992
45.5579
45.5778
53.6918
66.8971
68.492
56.35
46.8088
46.8114
55.1069
57.7649
48.0432
48.039
56.5053
70.0443
71.5801
59.1832
49.2999
49.3072
57.9209
60.6125
50.5968
50.6075
59.3402
73.0836
74.5126
62.0035
51.8875
51.8816
60.7087
63.3198
53.1307
53.1055
62.0039
75.8398
77.0841
64.5568
54.3201
54.2798
63.24
65.7566
55.4812
55.4392
64.4561
78.2895
79.4726
66.9542
56.6458
56.6075
65.67
68.1407
57.8116
57.769
66.8646
80.6216
81.721
69.2917
58.9512
58.8968
68.0194
70.4027
60.0578
59.9958
69.1418
82.7763
83.8063
71.4902
61.1474
61.0838
70.2495
72.5728
62.235
62.1735
71.3568
84.8278
85.8426
73.6583
63.3276
63.268
72.465
74.7379
64.4188
64.3575
73.5618
86.8392
87.8115
75.8039
65.5014
65.4384
74.6424
76.8614
66.5822
66.5214
75.7226
88.7692
89.7215
77.9214
67.672
67.6165
76.8113
78.9901
68.7755
68.7253
77.9084
90.6742
91.6258
80.0647
69.8911
69.8455
79.0108
81.1428
71.0179
70.9778
80.1195
92.5736
93.5196
82.2268
72.1598
72.1273
81.2387
83.3215
73.3225
73.2998
82.3726
94.466
95.4126
84.4299
74.5101
74.4982
83.5225
85.5519
75.7235
75.7228
84.6892
96.3582
97.3025
86.6885
76.966
76.9813
85.8743
87.8413
78.2395
78.2732
87.0807
98.2476
99.1944
89.014
79.5479
79.6021
88.3111
90.2083
80.8943
80.9709
89.5654
100.142
101.089
91.4256
82.2812
82.3819
90.8418
92.6665
83.7119
83.8389
92.1451
102.033
102.973
93.9326
85.1904
85.3466
93.479
95.2294
86.7208
86.9088
94.8504
103.904
104.82
96.5674
88.3019
88.5193
96.2441
97.9216
89.9316
90.1802
97.6582
105.732
106.636
99.2911
91.6113
91.8938
99.0909
100.674
93.3429
93.6622
100.54
107.528
108.407
102.068
95.1288
95.4892
102.004
103.469
96.9711
97.3764
103.479
109.267
110.103
104.871
98.8725
99.3288
104.976
106.266
100.825
101.342
106.465
110.905
111.666
107.642
102.798
103.4
107.932
108.987
104.796
105.481
109.355
112.375
113.02
110.281
106.801
107.546
110.71
111.496
108.763
109.55
111.951
113.586
114.049
112.591
110.634
111.4
113.023
114.413
114.203
113.935
113.619
113.262
112.868
112.442
111.988
111.509
111.009
110.491
109.957
109.408
108.845
108.269
107.681
107.082
106.475
105.861
105.242
104.617
103.985
103.345
102.701
102.053
101.404
100.753
100.099
99.4459
98.7833
98.1016
97.4031
96.6853
95.9495
95.2052
94.4565
93.6938
92.8991
92.0572
91.1715
90.2579
89.3083
88.2912
87.1804
85.9692
84.7234
83.3909
81.9418
80.4206
78.8624
77.3266
75.8523
74.5244
73.4053
72.4208
71.5973
70.8432
70.1017
69.4693
68.815
68.179
67.5529
66.791
66.0136
65.209
64.3589
63.616
62.6805
61.7839
60.8632
60.4653
57.7028
51.7083
51.7611
57.343
61.4948
61.6887
65.6591
65.2789
68.2798
68.5454
68.1121
73.4911
71.3171
70.8951
72.9431
73.3721
75.0523
74.5278
75.5263
76.0752
76.9396
78.112
76.6138
76.0049
75.8103
76.4541
75.5331
74.8436
72.9515
73.5968
76.2643
69.2744
69.9719
69.7456
66.0832
66.3919
57.9445
58.1766
48.8547
46.8516
45.9552
44.1525
44.396
37.2161
36.4872
28.751
29.2242
27.861
34.96
33.9888
27.8538
28.495
36.2086
45.2886
57.2237
56.578
45.6294
36.9824
34.5581
28.1936
29.0271
28.6287
35.3259
37.9059
46.8977
59.2418
70.7758
78.2102
79.9972
78.638
74.9522
69.1261
70.4263
76.6115
80.6066
82.2361
84.3963
82.4561
78.1554
71.6657
72.8994
79.7149
81.2944
74.0522
75.2403
82.8413
88.2847
86.3325
84.3693
86.6721
89.0043
91.4042
93.8809
90.263
84.4216
76.4692
77.5861
85.9587
87.4053
78.6202
79.6003
88.8246
96.1615
94.2147
92.261
96.3773
98.9319
101.51
104.102
98.0639
90.183
80.5295
81.424
91.4587
92.6378
82.2331
83.0808
93.6849
103.115
101.593
99.8912
106.658
109.13
111.458
118.214
114.598
110.998
107.464
104.005
100.692
97.4716
94.3999
91.4213
88.5469
85.8341
83.1848
80.7291
73.6533
61.7055
58.4747
47.5587
48.9791
49.6644
60.9296
64.3066
76.2826
79.2485
82.3045
85.6416
73.3245
69.4825
70.0193
66.3817
67.0646
63.5873
52.1138
51.3263
41.2868
38.4935
40.3002
37.6397
39.5478
36.9261
38.6874
36.1119
29.1252
29.5237
30.1029
29.6913
30.728
30.3072
31.4329
31.0658
32.2581
31.8436
39.2954
42.1464
40.301
32.487
32.9347
33.4906
43.3299
53.8081
54.5923
44.3229
41.3112
32.9735
34.1234
33.6705
42.4202
45.5421
56.463
57.3986
59.4798
60.5328
72.9105
76.8717
89.0719
92.7237
96.6769
100.86
89.7056
85.0072
85.0626
80.5741
80.7485
76.5309
63.8423
62.7181
50.3143
46.832
48.8744
45.5766
47.7884
44.5093
46.5018
43.4064
34.5281
34.9976
35.9291
35.4966
36.8939
36.3929
37.7805
37.309
38.75
38.2204
48.0322
51.5138
49.416
39.2472
39.7309
40.822
53.1182
66.2732
67.5712
54.4536
50.7616
40.2771
41.9428
41.4463
52.2899
56.2335
70.2667
71.7229
74.652
76.2808
89.8566
94.8108
105.366
110.195
115.337
120.831
113.471
107.93
106.663
101.308
100.467
95.3133
81.5034
79.5854
63.6033
59.1145
61.4052
57.2303
59.7565
55.5504
57.7578
53.8039
42.5698
43.1535
44.3084
43.7629
45.6146
45.0062
46.9783
46.4284
48.4742
47.8317
61.0116
65.5327
63.2236
49.3322
49.9319
51.568
68.1027
85.1848
87.364
70.2946
65.4337
50.8885
53.2937
52.6846
67.9246
73.2133
91.5538
94.1439
99.0739
102.136
115.151
120.723
126.706
121.725
113.588
104.462
94.6174
83.8456
84.637
95.4654
96.2699
85.5324
86.5421
97.0905
107.08
106.451
105.584
115.416
116.727
117.302
117.359
107.582
98.0054
87.7449
89.0641
98.999
100.02
90.4225
91.7032
100.856
109.112
108.492
107.989
117.153
117.098
117.49
117.657
109.859
101.737
92.8481
93.9703
102.582
103.376
95.0397
96.0055
104.082
111.096
110.838
110.451
117.669
117.448
117.17
116.844
111.228
104.642
96.885
97.6519
105.08
105.442
98.3385
98.9783
105.767
111.292
111.289
111.277
116.494
116.152
115.83
119.594
120.223
120.918
121.686
122.523
123.432
124.452
125.555
126.474
127.305
128.449
129.295
129.077
127.69
124.968
132.699
138.56
143.501
147.155
142.379
137.347
132.423
128.639
123.302
111.872
107.915
86.7535
80.2389
82.4922
76.5713
79.3019
73.4535
75.8287
70.4896
54.4916
55.2256
57.3077
56.6031
59.6123
58.81
62.0605
61.2846
64.7795
64.1347
84.2821
90.9716
89.1419
67.4818
67.9557
71.8156
96.5795
118.349
123.537
102.525
94.8005
71.4775
76.3354
76.2408
101.593
110.036
130.368
136.834
144.748
152.761
152.823
156.352
145.836
145.288
140.997
136.953
150.874
154.655
157.524
161.878
161.883
161.192
166.507
159.707
152.386
146.306
142.023
134.312
127.9
118.753
118.683
109.438
81.7732
81.5915
99.177
100.722
113.601
124.685
134.584
139.294
128.445
122.941
113.094
136.539
146.43
151.184
156.511
161.691
166.439
162.724
157.451
149.423
142.206
155.731
163.714
168.868
170.75
171.712