/*--------------------------------*- C++ -*----------------------------------*\
| =========                 |                                                 |
| \\      /  F ield         | OpenFOAM: The Open Source CFD Toolbox           |
|  \\    /   O peration     | Version:  v2006                                 |
|   \\  /    A nd           | Website:  www.openfoam.com                      |
|    \\/     M anipulation  |                                                 |
\*---------------------------------------------------------------------------*/
FoamFile
{
    version     2.0;
    format      ascii;
    class       volScalarField;
    location    "0.034";
    object      omega;
}
// * * * * * * * * * * * * * * * * * * * * * * * * * * * * * * * * * * * * * //

dimensions      [0 0 -1 0 0 0 0];


internalField   nonuniform List<scalar> 
11076
(
0.0110396
0.0110396
0.0110396
0.0110396
0.0110396
0.0110397
0.0110397
0.0110397
0.0110394
0.0110369
0.0110302
0.0110191
0.0110047
0.0109882
0.0109706
0.0109522
0.0109333
0.0109136
0.0108932
0.0108718
0.0108495
0.0108263
0.0108022
0.0107773
0.0107515
0.010725
0.0106977
0.0106698
0.0106413
0.0106122
0.0105826
0.0105525
0.0105221
0.0104914
0.0104607
0.0104301
0.0104003
0.0103719
0.0103468
0.0103284
0.0103232
0.0103448
0.0104215
0.0106096
0.011013
0.0118377
0.01348
0.0166956
0.022955
0.0349796
0.0576434
0.0997434
0.177131
0.318618
0.57448
1.0128
1.60026
1.98844
2.57917
2.83098
2.9922
5.12689
8.77753
11.0273
9.7739
25.3362
71.5147
184.801
659.647
5666.98
30761.2
428799
415688
62131.1
14502.4
22243.6
78859.5
403045
390088
83911.3
26810.2
30335.4
87140.3
373931
362494
86879.4
32478.7
34570
88713.3
352019
345432
88565.1
35718.2
36935.9
88267.3
338064
332900
87657.3
37393.2
38272.2
87528
327418
323714
86862.6
38345.9
38924
86751.7
319435
316613
86154
38914.3
39324
86092.4
313145
310881
85593.3
39282.7
39609.2
85582.5
307986
306081
85180.2
39550.1
39826.1
85202.2
303584
301932
84869.8
39756.1
39999.3
84912.8
299723
298250
84629.1
39922.1
40142.7
84687
296254
294912
84438.1
40060.3
40264.4
84506
293073
291827
84280.5
40178.2
40369.3
84354.6
290109
288935
84144.1
40280.1
40460.7
84221.9
287309
286190
84020.2
40368.8
40540.5
84099.9
284636
283559
83902.7
40446.4
40610.5
83982.9
282061
281015
83787.3
40514.5
40674.4
83867.3
279561
278538
83671.1
40574.8
40730.1
83750
277117
276108
83551.3
40627.1
40778
83628.2
274710
273711
83425.1
40671.8
40818.8
83499.6
272328
271333
83291.2
40710.1
40853.9
83363.1
269960
268963
83149.3
40743.2
40884.3
83218.4
267593
266591
82998.6
40772.3
40910.9
83064.5
265217
264203
82837.2
40797.5
40933.5
82898.8
262818
261789
82662
40818.5
40951.6
82718.8
260388
259340
82471.8
40835
40965.7
82524
257919
256850
82267.9
40848.3
40977.3
82315.8
255404
254309
82050.3
40859.7
40986.9
82093.2
252829
251700
81816.3
40868.5
40993.3
81852.6
250179
249011
81561.6
40873.8
40995.7
81590.5
247444
246233
81284.3
40875
40994.4
81306.3
244616
243363
80986.9
40873.7
40992
81003.2
241693
240393
80670.7
40872.3
40989.4
80678.9
238659
237298
80328.7
40869.1
40982
80323.8
235486
234059
79952.1
40858.6
40965.5
79928.7
232169
230680
79530.6
40838.6
40940.3
79491.7
228714
227163
79073.4
40812.1
40911
79022.9
225123
223512
78587.6
40783.2
40878.9
78519.6
221385
219696
78055.9
40748.5
40835.1
77962
217463
215692
77459.3
40694.4
40766
77332.6
213363
211526
76779.4
40602.8
40665.1
76618
209109
207222
76017.2
40486.4
40543.1
75832.9
204749
202832
75205.1
40353.3
40400.8
74980.8
200322
198362
74311.3
40185.6
40214.6
74016.6
195773
193776
73280
39953
39954.2
72905.2
191160
189183
72099.6
39640.8
39598.1
71644.5
186621
184720
70770.5
39220.4
39143.7
70236.7
182228
180445
69310.8
38723.5
38617.5
68726.9
178128
176544
67743.8
38135.9
37979
67092.8
174434
173027
66025.8
37410.4
37204.5
65309.4
171116
169937
64163.6
36556.8
36299.3
63396.4
168309
167444
62229.8
35579.4
35300
61480.6
166161
165596
60335.7
34554.1
34263
59628.4
164629
164296
58529.1
33520.4
33206.1
57870.6
163665
163576
56909.6
32514.4
32228.4
56450.3
163265
163208
55545.7
31569.2
31269.6
55145.7
163019
163073
54334
30647.5
30392.8
54051.7
163020
163124
53346.5
29829.6
29637.7
53151.6
163125
163210
52532.1
29111.6
28942.4
52387.1
163310
163644
51916
28490.4
28400.4
51835.9
163670
163944
51470
28028.6
27907.3
51323.6
163849
164293
51083.3
27594.4
27463.9
50955.5
164202
164501
50755.2
27228.8
27110
50713.4
164565
164724
50538.5
26928.6
26883.6
50577.9
164923
164938
50340.8
26640.9
26626
50388
165114
165099
50147
26387.9
26401.9
50244.4
165399
165461
50093.7
26212.1
26235.8
50197
165711
165846
50083.4
26074.4
26115.2
50189.9
166015
166179
50138.2
26003.3
26070.5
50322.9
166404
166261
50139.8
25915.3
25923
50188.3
166268
166373
50057.1
25755.8
25723.8
49989.6
166259
166519
49995.2
25634.5
25656
49992.4
166435
166904
50201.8
25693.9
25721.6
50218.7
166733
167078
50560.8
25904.8
25292.7
50000.8
165663
161797
48613.3
24689.8
23734.5
46922
157417
11535.8
7457.94
5671.11
4650.44
4174.33
3706.18
3431.67
3223.41
3101.73
3029.29
3012.3
3046.84
3133.99
3292.39
3513.27
3855.03
4287.8
4980.74
5626.8
6677.94
9098.18
11385.8
15400.3
25668.6
55875.5
122922
412444
463301
142751
64239
70717.6
158555
526164
591096
178261
80432.3
85918.9
189021
622989
636977
188904
85285.7
89715.4
196151
642881
650787
193292
87126
89852.8
199237
650964
652247
192831
87254.8
89447.4
198333
651988
653479
192522
87188.3
89443.6
198106
653151
654284
192449
87286.1
89674.3
198230
653829
654757
192774
87644.3
90095.1
198473
654264
655156
193146
88034.7
90320.3
198727
654753
656213
193117
87982
89966.6
198237
656458
658616
192169
87393.4
89343.7
197440
659251
661337
191381
87009.9
89307.6
196972
661118
662629
190991
87236.4
89655
196773
662017
663386
191246
87664.1
90043.1
197208
663086
664541
191719
87962.7
90225.6
197419
664370
666152
191689
88052.2
90252.3
197144
665982
668042
191148
88060.4
90245.1
196957
667935
669986
191133
88135.7
90428.8
196777
669951
671658
190937
88310.2
90569.7
196527
671668
673763
190723
88502.6
90759.8
196714
673765
675796
191149
88683.2
90937.3
196897
675786
678079
191110
88824
91107.5
196525
678189
680448
190997
88980.3
91320.2
196969
680429
682405
191311
89285.5
91644.8
196791
682421
684868
191292
89560.8
91894.2
197218
684982
687702
191439
89858.9
92125.4
197377
688117
691272
191543
90065.7
92300.7
197739
691773
695364
191762
90181.7
92305.3
197761
696504
700296
191194
89981.5
91833.2
196311
702169
706192
188364
89020.3
91192.7
193247
707327
710522
184237
87529.1
89692.5
190256
703043
691829
179387
86723.1
88870.3
183909
678553
668358
171976
85129.8
87686.1
178779
655226
646190
168426
85588
87658.2
173877
628571
610136
165148
86930.1
89654.8
169676
597287
584615
168013
90204.3
93695.3
170608
574461
575914
174861
95118.5
97775.7
181503
576020
586119
183539
90730.8
63719.2
174591
370604
281942
86891.7
51753.6
51945
99515.6
284879
293148
122582
67258.8
52368
105485
273832
250408
94324.9
49166
44301.9
86797.6
238258
227818
81723.4
42073
38736.1
75927.8
222114
215774
70206.2
36469
33879.5
65920.5
217555
226375
68903.7
35188.1
42728.6
79254.6
238981
242724
73984.5
36370.4
35245.2
70766.4
243088
250676
71699.5
35444.1
41177.4
78619.7
272503
301241
94808.6
51657.5
54749.7
100931
328747
346927
111105
62554.9
55790.5
105012
348976
342621
98550.9
52400.9
47253.7
92021.2
334540
341176
89400.4
45270.3
47983.6
89115.4
334211
323844
77611.5
38276.7
27678.5
58873.5
293647
282246
47196.4
23374.3
21680.2
39945.5
254254
232396
32424.2
18036.1
16192.5
25886.9
200674
183234
22380.4
14890.8
12641.7
19713.2
152509
135689
17103.7
10942.3
10393.3
15666.6
125028
120277
15256.5
10220.9
10522.9
16766.8
122391
125692
15731.7
10110.5
16912.4
34428.8
141017
152656
52498.2
17376.2
38763.5
96179
171607
184469
118290
48617.3
65268
144159
207593
230889
179260
120643
115880
192333
253609
271440
208516
127162
169549
238241
300709
312371
235943
150510
151806
243010
329879
344636
254581
183664
154612
246851
354681
356162
248010
157095
183072
250015
360728
339673
220469
131399
138485
212224
317188
292840
182812
101050
101147
174597
284881
292540
178314
104610
126590
187782
304760
293421
170100
101815
97514
164131
287263
289508
169576
115877
92260.2
150352
281332
274179
143010
92294.3
96540.2
154474
298528
330666
173509
117615
94925.9
156382
329344
339740
148555
95765.4
141072
292578
523643
710203
241963
115788
129059
244505
552404
693438
270509
140157
253297
494401
991651
743171
214050
148450
144500
218182
599781
875761
417577
227131
133609
188158
661317
517423
201488
132659
139751
230104
665236
1.00122e+06
466311
248024
139476
206772
726381
591063
215762
136874
231154
424807
902453
686036
191314
131893
131719
201567
569549
873639
415986
221116
127648
183678
664311
551923
192603
127694
214273
399995
829538
623130
180321
123692
123762
191673
498180
664623
223498
132961
243099
494408
1.02726e+06
753881
204072
136998
135251
208934
618458
977923
453207
235977
135586
193831
727015
602978
212184
137353
247274
449108
963167
716891
206494
140086
139903
216371
597891
954538
453111
243889
138174
201235
719133
606198
215307
139162
250029
456010
989179
742009
208037
141532
141787
223734
626248
1.05037e+06
499560
259517
154514
191255
838804
783115
376543
225942
130369
185942
612632
532088
205337
133891
233346
425848
851944
654159
193189
135544
137273
206366
563559
911039
441908
236540
136371
195629
689909
587204
210149
137936
243130
457113
937506
716822
202335
141247
143592
219325
620466
1.04317e+06
508167
262620
160164
197358
846568
797029
387940
234963
137574
194145
629766
560279
217600
142809
252134
458262
924548
716610
209901
148336
150525
226254
622592
1.03979e+06
512133
271321
164615
201497
843618
793023
389689
235645
137794
197854
626195
561610
216449
141341
247444
460024
919505
710387
207750
147029
150626
228064
626133
1.05524e+06
517278
273992
167329
202304
856926
811899
403084
241370
142255
206448
648623
589726
227476
146928
266912
503701
995652
817952
204569
165307
238096
390070
783894
624324
201744
141896
147272
225005
565620
937606
476462
259870
154567
217141
724161
639463
237336
157863
283191
522921
1.0667e+06
872993
212391
174927
253295
420968
846014
681538
220122
150671
155741
243406
626480
1.07174e+06
536529
284857
176989
221295
877561
843930
418301
254893
153212
216391
668014
609592
241444
158974
285176
522063
1.03773e+06
855687
220261
179709
258451
420786
832407
673287
223597
155755
161703
248337
620652
1.05607e+06
531813
289501
182101
223113
869847
848392
425883
261248
157325
223880
670585
617789
248682
163212
291934
532435
1.05154e+06
870153
227464
184279
265167
430153
853809
686626
228944
160449
166817
255126
634547
1.07939e+06
545527
299034
188542
232670
891782
870730
438682
269538
162796
231428
686835
635372
257393
168993
300574
547535
1.07665e+06
894803
235011
190679
274004
443560
878838
705491
237412
166235
172909
264679
656524
1.11713e+06
568479
310763
196174
243062
916273
896606
456324
281085
169886
241066
707001
656106
268821
176336
313410
566582
1.118e+06
921711
245143
199052
286281
462620
912166
731304
248271
173851
180777
276868
679654
1.14978e+06
587204
322796
204405
253079
948493
936066
474254
292798
177383
250915
737424
685595
278435
184122
326634
589032
1.15882e+06
958896
254946
207674
298411
483008
952462
757713
258778
181417
188553
288599
708000
1.19752e+06
610658
336506
213264
263880
978353
969106
494327
305492
185079
261991
765708
713483
290228
192095
340589
616431
1.20236e+06
988380
267270
216632
311322
503836
983496
789167
270888
189471
196997
302061
738409
1.2494e+06
636983
351575
222504
276663
1.01375e+06
1.00176e+06
511139
318053
192691
271177
786541
734292
300227
199872
352250
631015
1.2331e+06
1.01756e+06
275441
224271
322083
517562
1.01671e+06
810419
279571
196079
203744
310085
759409
1.2726e+06
656521
362383
229749
285624
1.03758e+06
1.02863e+06
526591
328363
199099
280367
806351
756987
309410
206380
365031
655135
1.27395e+06
1.04165e+06
287964
232340
332774
531874
1.03821e+06
826360
286865
202386
210384
318464
776710
1.29043e+06
663467
370149
235222
292344
1.0481e+06
1.04766e+06
537826
335366
202538
286216
813664
756560
313907
208998
362206
644667
1.22476e+06
941496
302850
219391
224889
329111
862976
1.41928e+06
715839
396064
247283
308264
1.13124e+06
1.12462e+06
575304
355366
214421
304100
879932
824836
333413
221862
394814
710031
1.36958e+06
1.10549e+06
312667
249153
356320
569682
1.09887e+06
855063
302588
214580
222675
334124
798474
1.28893e+06
680853
385080
231477
321520
994665
911549
341972
236050
416944
757335
1.48881e+06
1.18809e+06
326897
261360
377716
607955
1.18305e+06
915988
322187
226156
233178
353335
854218
1.37356e+06
718406
404123
242825
338419
1.04226e+06
951963
359055
246683
433173
781140
1.54368e+06
1.21783e+06
337885
270350
389563
629250
1.21387e+06
933391
330592
232253
240596
362990
870239
1.3938e+06
735727
415851
248373
344870
1.05278e+06
967871
370826
253072
442849
789681
1.57913e+06
1.24176e+06
345459
276832
400022
642202
1.24077e+06
956647
341415
237830
245054
371169
889984
1.40862e+06
743401
421763
251938
349652
1.056e+06
963734
373613
256167
438286
780808
1.52376e+06
1.12534e+06
364691
259505
261845
385673
1.00919e+06
1.56295e+06
802198
449677
264068
371631
1.14611e+06
1.03916e+06
397689
268118
465666
838566
1.62808e+06
1.20435e+06
389292
272492
274056
402937
1.08203e+06
1.67919e+06
868760
482210
278983
396798
1.22362e+06
1.10342e+06
422089
282630
491892
877559
1.71049e+06
1.25243e+06
405284
285130
286965
427615
1.13088e+06
1.76191e+06
892869
499223
287180
408944
1.27544e+06
1.14305e+06
433444
289981
506737
903382
1.76029e+06
1.27899e+06
416167
291387
293387
436364
1.14749e+06
1.75882e+06
899825
506803
290226
411420
1.27153e+06
1.14558e+06
436271
292588
510236
908134
1.74594e+06
1.25113e+06
416525
290484
291465
432864
1.11554e+06
1.66751e+06
855899
488478
276389
395055
1.17065e+06
1.00061e+06
411524
276423
294868
480556
1.30882e+06
1.95426e+06
1.00102e+06
535167
297326
441743
1.34528e+06
1.14217e+06
475021
303034
309289
488900
1.46833e+06
2.14483e+06
1.09423e+06
569101
306494
464814
1.41107e+06
1.17418e+06
477928
307136
321960
541817
1.51519e+06
2.23732e+06
1.12363e+06
593273
318770
483312
1.50082e+06
1.24534e+06
504791
322375
324679
539273
1.54163e+06
2.16611e+06
1.07897e+06
573405
298318
451611
1.38062e+06
1.13861e+06
466386
294052
293203
479879
1.28656e+06
1.52621e+06
589779
318819
313089
588737
1.81239e+06
2.45638e+06
1.25511e+06
624073
312051
502671
1.53e+06
1.26246e+06
486592
302231
316620
576325
1.42829e+06
1.56049e+06
561358
308948
317995
638678
1.65179e+06
1.71087e+06
634987
310384
317589
681641
1.71906e+06
1.69782e+06
686543
313746
319246
695256
1.66487e+06
1.61749e+06
684796
315396
319741
684038
1.56968e+06
1.52067e+06
659383
314612
318070
660999
1.47454e+06
1.42996e+06
644708
313233
317028
648176
1.3901e+06
1.35303e+06
637021
312974
317749
641256
1.32019e+06
1.29025e+06
633013
314824
320199
637251
1.26344e+06
1.23964e+06
629283
317409
322725
633067
1.21798e+06
1.19904e+06
624829
319796
324199
628072
1.18171e+06
1.16684e+06
618757
320477
324252
621458
1.15304e+06
1.14171e+06
611481
320026
323191
613578
1.13068e+06
1.12249e+06
602344
318539
321622
603883
1.11334e+06
1.1083e+06
591968
317174
320067
593100
1.10071e+06
1.09809e+06
580312
315556
318451
581183
1.09195e+06
1.09075e+06
568428
314113
316757
569222
1.08609e+06
1.08575e+06
556325
312273
314846
557122
1.08242e+06
1.08262e+06
544852
310361
312749
545794
1.08057e+06
1.08064e+06
533857
308035
310342
534924
1.07843e+06
1.07958e+06
523880
305784
307895
525192
1.07818e+06
1.07908e+06
514563
303229
305290
516027
1.07794e+06
1.079e+06
506310
300679
302602
508042
1.07802e+06
1.07931e+06
498726
297951
299853
500601
1.07839e+06
1.0798e+06
492131
295288
297079
494262
1.07893e+06
1.0804e+06
486091
292489
294279
488332
1.07957e+06
1.0811e+06
480887
289783
291484
483357
1.0803e+06
1.08186e+06
476084
286970
288685
478626
1.08109e+06
1.08269e+06
471966
284272
285919
474711
1.08195e+06
1.08356e+06
468114
281499
283180
470901
1.08284e+06
1.08448e+06
464828
278877
280510
467805
1.08379e+06
1.08543e+06
461702
276216
277898
464695
1.08476e+06
1.08642e+06
459041
273726
275370
462200
1.08577e+06
1.08744e+06
456451
271219
272923
459610
1.08681e+06
1.08849e+06
454172
268891
270563
457555
1.08788e+06
1.08955e+06
451999
266558
268298
455394
1.08897e+06
1.09064e+06
450114
264410
266121
453720
1.09007e+06
1.09172e+06
448297
262260
264042
451899
1.09117e+06
1.09281e+06
446733
260297
262052
450535
1.09226e+06
1.09387e+06
445208
258336
260166
448990
1.09333e+06
1.0949e+06
443906
256564
258368
447874
1.09437e+06
1.09588e+06
442616
254789
256670
446551
1.09534e+06
1.09681e+06
441533
253206
255060
445647
1.09627e+06
1.09767e+06
440456
251616
253549
444530
1.09713e+06
1.09848e+06
439577
250210
252117
443821
1.09794e+06
1.09921e+06
438683
248794
250781
442877
1.09867e+06
1.09989e+06
437973
247562
249520
442328
1.09934e+06
1.1005e+06
437235
246291
248343
441533
1.09995e+06
1.10106e+06
436671
245240
247247
441124
1.10051e+06
1.10156e+06
436065
244072
246201
440451
1.10101e+06
1.10202e+06
435623
243164
245251
440158
1.10147e+06
1.10244e+06
435131
242141
244347
439596
1.10188e+06
1.10282e+06
434799
241367
243525
439406
1.10226e+06
1.10316e+06
434405
240466
242740
438935
1.10261e+06
1.10348e+06
434160
239807
242027
438826
1.10293e+06
1.10377e+06
433842
239011
241343
438425
1.10321e+06
1.10404e+06
433665
238450
240724
438379
1.10348e+06
1.10428e+06
433407
237744
240127
438033
1.10372e+06
1.1045e+06
433283
237266
239588
438034
1.10395e+06
1.1047e+06
433069
236635
239063
437729
1.10416e+06
1.1049e+06
432986
236229
238594
437769
1.10435e+06
1.10507e+06
432809
235667
238135
437498
1.10453e+06
1.10524e+06
432759
235324
237725
437567
1.10469e+06
1.10539e+06
432610
234817
237320
437323
1.10484e+06
1.10553e+06
432586
234528
236962
437416
1.10499e+06
1.10566e+06
432461
234073
236607
437194
1.10512e+06
1.10578e+06
432458
233831
236293
437306
1.10524e+06
1.10589e+06
432351
233419
235981
437100
1.10535e+06
1.10599e+06
432365
233218
235706
437227
1.10545e+06
1.10608e+06
432271
232844
235430
437035
1.10555e+06
1.10617e+06
432298
232679
235189
437174
1.10564e+06
1.10625e+06
432216
232338
234945
436991
1.10572e+06
1.10633e+06
432253
232204
234734
437139
1.10579e+06
1.1064e+06
432180
231892
234518
436965
1.10586e+06
1.10646e+06
432225
231786
234334
437120
1.10592e+06
1.10652e+06
432159
231499
234143
436952
1.10598e+06
1.10657e+06
432211
231417
233982
437113
1.10603e+06
1.10661e+06
432149
231152
233811
436949
1.10607e+06
1.10666e+06
432206
231092
233670
437113
1.10612e+06
1.10669e+06
432146
230846
233518
436951
1.10615e+06
1.10673e+06
432205
230804
233394
437117
1.10619e+06
1.10676e+06
432147
230576
233259
436955
1.10622e+06
1.10679e+06
432205
230548
233148
437120
1.10625e+06
1.10682e+06
432147
230332
233024
436957
1.10628e+06
1.10685e+06
432204
230315
232924
437120
1.10632e+06
1.10689e+06
432143
230108
232808
436956
1.10636e+06
1.10693e+06
432200
230101
232717
437118
1.1064e+06
1.10697e+06
432138
229903
232610
436953
1.10645e+06
1.10702e+06
432195
229904
232527
437115
1.10651e+06
1.10708e+06
432134
229713
232427
436952
1.10657e+06
1.10715e+06
432192
229723
232351
437117
1.10664e+06
1.10722e+06
432135
229539
232258
436957
1.10672e+06
1.10731e+06
432198
229556
232191
437127
1.10681e+06
1.10739e+06
432147
229383
232109
436974
1.1069e+06
1.10749e+06
432217
229408
232049
437151
1.107e+06
1.10759e+06
432170
229240
231971
437001
1.1071e+06
1.10769e+06
432241
229271
231916
437177
1.10721e+06
1.10781e+06
432191
229106
231862
437102
1.10733e+06
1.10795e+06
432219
229092
231691
437031
1.10747e+06
1.10762e+06
431849
228990
231580
436751
1.10652e+06
1.10726e+06
431914
228841
231456
436907
1.10682e+06
1.10702e+06
431377
228314
231034
435113
1.10255e+06
1.09726e+06
427238
225598
222101
422565
1.07774e+06
1.04671e+06
413352
216382
194051
382042
982373
917575
358210
180046
161126
326749
865075
70222.5
35222.9
25277.9
18148.2
11488.6
9584.66
8958.92
6626.34
4822.47
3740.91
2908.16
2226.39
1689.69
1274.36
965.374
738.437
573.658
453.683
365.703
300.477
251.571
214.433
186.003
163.977
147.047
133.973
124.349
117.431
112.921
110.281
109.079
108.172
106.557
104.344
101.677
98.7348
95.6072
92.4028
89.1319
85.8158
82.4451
79.0145
75.5142
71.9358
68.2666
64.4915
60.5885
56.5234
51.8371
45.2916
36.2203
26.2996
17.6289
11.1008
6.6129
3.72065
1.97409
1.00312
0.524065
0.30535
0.212867
0.176201
0.162098
0.156443
0.153857
0.152178
0.150666
0.149253
0.14786
0.146446
0.144981
0.143443
0.141812
0.140075
0.138218
0.136229
0.134102
0.131831
0.129411
0.126843
0.12413
0.121277
0.118294
0.115191
0.111984
0.108688
0.10532
0.1019
0.0984467
0.0949794
0.0915156
0.0880741
0.08467
0.0813191
0.0780335
0.0748249
0.0717035
0.0686757
0.0657493
0.0629277
0.0602139
0.0576107
0.0551177
0.0527354
0.0504619
0.0482958
0.0462353
0.0442765
0.0424168
0.0406529
0.0389807
0.0373969
0.0358972
0.0344782
0.0331356
0.031866
0.0306659
0.0295311
0.0284588
0.0274454
0.0264878
0.0255827
0.0247274
0.0239192
0.0231554
0.0224335
0.0217511
0.021106
0.0204963
0.0199198
0.0193747
0.0188593
0.0183719
0.0179109
0.0174749
0.0170625
0.0166725
0.0163036
0.0159547
0.0156247
0.0153126
0.0150175
0.0147385
0.0144748
0.0142256
0.01399
0.0137676
0.0135575
0.0133593
0.0131722
0.0129959
0.0128297
0.0126733
0.0125261
0.0123877
0.0122578
0.012136
0.0120219
0.0119152
0.0118156
0.0117229
0.0116367
0.0115569
0.0114832
0.0114154
0.0113534
0.0112971
0.0112463
0.0112011
0.0111615
0.0111278
0.0111002
0.0110785
0.0110621
0.0110501
0.0110431
0.0110404
0.0110398
0.0110398
0.0110398
0.0110399
0.0110405
0.0110424
0.0110464
0.0110525
0.0110593
0.0110643
0.0110653
0.011062
0.0110552
0.0110461
0.0110353
0.0110232
0.01101
0.0109955
0.0109799
0.0109629
0.0109447
0.0109253
0.0109046
0.0108828
0.0108599
0.0108359
0.010811
0.0107854
0.010759
0.0107324
0.010706
0.0106809
0.010659
0.0106439
0.0106429
0.0106699
0.0107523
0.0109431
0.011346
0.012161
0.0137727
0.0169153
0.0229771
0.034538
0.0563177
0.0967868
0.170831
0.304216
0.541059
0.956996
1.68332
2.94964
5.14263
8.80869
14.3415
21.1943
27.6697
32.683
37.7491
50.4088
93.1937
260.071
1135.81
2650.98
7778.79
8940.47
9673.76
10650.9
11134.3
11911.6
12241.1
12876.4
13108.7
13631.2
13809
14238.1
14376.1
14734.4
14842.6
15147.2
15232.8
15496.2
15564.2
15795.2
15849.2
16054.3
16097.1
16281.1
16314.9
16481.7
16508.2
16660.7
16681.2
16822
16837.4
16968.3
16979.5
17102
17109.6
17224.9
17229.6
17339.1
17341.5
17446.4
17447.2
17548.2
17547.7
17645.3
17643.9
17738.8
17736.9
17829.9
17827.7
17919.8
17917.6
18009.5
18007.4
18099.4
18097.4
18189.8
18188.3
18282.1
18281.5
18377.7
18378.8
18477.8
18480.5
18582
18585.4
18688.2
18692.7
18798.1
18805.2
18915.1
18925
19039.6
19051.6
19169.2
19180.8
19297.1
19306.3
19419.5
19429.1
19543.7
19554.6
19668.8
19676.3
19780.7
19779
19859.3
19846
19892.5
19865.5
19883.3
19833.1
19838.5
19753.5
19732.8
19594.7
19540.1
19341.9
19251.8
18993.2
18880.3
18576.5
18447.2
18111.9
17968.7
17616.3
17471.8
17110.3
16955.1
16594.3
16449.5
16112.5
15985.4
15662.2
15527.7
15226.1
15122.9
14886.9
14770.4
14549.7
14427.3
14221.3
14136.1
13944.2
13882
13693.8
13633.3
13452.8
13415.6
13261.6
13226
13094.1
13069.6
12970.8
12966.2
12856.2
12817.7
12689
12645.3
12540.7
12523.9
12491.7
12455.8
12477.8
12249.7
12140.1
7696.71
7834.21
5871.43
5762.69
4658.63
4670.92
4567
6089
7982.03
8095.28
6305.62
6075.14
8043.99
8163.91
6364.83
4624.09
4676.14
6129.68
8117.83
8262.07
6447.78
6215.67
8229.23
8387.33
6537.78
4742.97
4795.3
6296.98
8348.98
8494.52
6617.52
6372.48
8448.56
8596.56
6704.04
4851.35
4919.12
6466.18
8559.18
8726.34
6810.03
6567.6
8691.99
8873.39
6921.44
4990.8
5066.47
6679.78
8841.09
9040.86
7050.07
6807.44
9018.66
9223.42
7184.71
5150.82
5228.99
6930.36
9197.06
9401.67
7314.67
7057.96
9376.28
9599.51
7460.14
5314.09
5409.67
7203.37
9584.16
9825.61
7620.35
7354.21
9807.98
10059.8
7788.02
5504.43
5603.2
7516.82
10044.5
10319.1
7965.24
7681.86
10307.7
10587.6
8143.1
5703.29
5797.43
7847.97
10571.5
10860.6
8324.68
8016.88
10846.3
11147.8
8508.02
5888.26
5970.01
8179.62
11130.7
11424.9
8676.05
8321.95
11397.6
11679.5
8821.8
6035.59
6084.17
8443.92
11645.3
11910
8945.1
8540.69
11864
12107
9040.53
6107.61
6105.07
8606.49
12048.2
12262.4
9098.11
8632.23
12189.6
12351.1
9110.07
6083.36
6034.09
8617.11
12242.7
12375.4
9082.58
8571.23
12238.7
12354.2
9021.97
5961.08
5861.22
8498.32
12197.3
12306.1
8940.94
8407.82
12129.8
12232.7
8843.05
5747.29
5623.18
8300.75
12036.4
12132.4
8728.27
8178.84
11919.2
12010
8602.52
5493.08
5362.03
8048.83
11785.9
11873.8
8471.73
7918.4
11646.8
11735.1
8342.74
5233.49
5108.45
7792.94
11510.8
11601.1
8218.84
7671.29
11379.3
11470.7
8097.97
4986.35
4867.23
7552
11249.4
11341.2
7979.17
7435.15
11121.4
11214.3
7863.57
4751.71
4640.59
7322.23
10998.1
11092.8
7752.61
7214.36
10881.1
10978
7646.67
4533.72
4430.13
7111.35
10770.4
10869.1
7544.76
7011.66
10664.2
10764
7445.69
4328.36
4229.18
6914.36
10560.9
10661.6
7348.83
6819.35
10460.5
10562.2
7254.23
4132.53
4038.17
6726.72
10363.2
10466
7161.69
6636.01
10268.4
10372
7070.34
3945.5
3853.95
6546.22
10174.9
10278.8
6979.22
6456.52
10081.5
10185.3
6887.6
3763.14
3672.8
6366.33
9987.25
10090.9
6794.86
6275.11
9891.52
9994.73
6700.16
3582.74
3492.75
6181.95
9793.24
9895.6
6602.18
6085.51
9691.09
9792.18
6498.82
3402.75
3312.94
5983.68
9584.08
9683.75
6389.18
5875.72
9471.8
9570.03
6274.2
3221.73
3126.74
5762.73
9353.77
9450.3
6153.8
5644.44
9228.99
9323.41
6027.2
3028.58
2926.89
5520.12
9096.11
9187.93
5893.39
5388.79
8953.66
9042.34
5751.32
2821.14
2710.79
5249.47
8800.09
8885.06
5599.89
5101.13
8633.76
8714.34
5437.92
2595.21
2473.78
4942.66
8452.82
8528.3
5264.17
4772.89
8255.19
8324.67
5077.52
2345.91
2211.37
4590.87
8038.35
8100.71
4876.98
4395.81
7799.12
7852.86
4660.91
2070.87
1925.41
4186.2
7533.32
7576.5
4426.55
3957.68
7236.17
7266.87
4173.52
1771.27
1608.64
3708.16
6901.9
6917.61
3896.11
3435.18
6523.93
6520.99
3590.45
1437.02
1256.18
3134.87
6090.18
6057.9
3252.01
2805.17
5590.54
5521.74
2878.1
1066.17
867.143
2440.81
5008.44
4894.69
2461.96
2042.38
4337.24
4140.05
1994.04
659.615
450.294
1604.85
3557.41
3243.91
1476.27
173.344
269.911
371.268
472.069
570.883
667.202
760.864
851.789
940.007
1025.49
1108.77
1189.99
1269.23
1346.62
1422.3
1496.41
1569.1
1640.52
1710.85
1780.22
1848.95
1917.5
1986.32
2055.67
2125.75
2196.78
2268.93
2342.53
2417.45
2495.16
2577.01
2662.66
2751.84
2844.43
2940.87
3041.66
3146.76
3255.72
3367.91
3483.29
3602.12
3723.43
3844.71
3961.83
4071.42
4167.88
4250.23
4316.59
4360.8
4383.5
4380.37
4365.43
4334.97
4294.67
4246.44
4196.48
4143.64
4089.81
4040.79
3992.03
3947.99
3908.79
3867.15
3828.66
3790.5
3756.6
3727.91
3698.96
3660.52
3642.49
3576.23
3706.54
4264.36
4212.07
3707.08
3440.43
3452.97
3224.71
3224.55
3105.17
3109.87
3161.01
3011.56
3028.85
3029.29
3012.22
3012.47
3047.31
3046.76
3132.13
3129.71
3072.13
3383.65
3298.85
3295.09
3512.62
3509.41
3890.23
3871.95
4304.9
4310.1
4080.99
5768.88
5215.26
5106.14
5802.8
5881.21
8077.18
7594.91
11068.3
11981.7
12397.3
12738.1
12589.8
17180.9
18125.6
30943.2
29516.6
34246.8
20363.2
22101.1
35807.7
35101.7
20311.7
13173.9
8634.2
9226.26
13493.8
20363.5
22344.8
37027.8
35595
37026.8
22515.9
20513.1
13423.3
8815.74
5922.34
4154.06
3400.41
3081.57
3023.32
3189.55
3199.86
3025.82
3077.43
3396.69
3382.45
3066.22
3024.56
3213.8
3224.12
3021.25
3017.9
3233.97
3245.27
3012.17
3020.93
3039.2
3053.56
3365.2
3343.91
3317.58
3287.03
3000.2
3006.84
3260.46
3273.26
2999.79
2990.48
3285.79
3299.97
2981.6
2918.73
2948.95
2976.63
3248.93
3204.82
3153.46
3094.7
2885.77
2973.03
3316.59
3336.22
2965.18
2958.91
3356.58
3382.26
2954.81
2774.82
2813.31
2850.5
3027.9
2953.51
2872.12
3448.01
3588.32
3709.96
3813.18
3895.87
3963.85
4017.8
4061.68
4093.95
4119.8
4137.27
4152.38
4154.53
5933.72
8877.17
9374.77
13792.9
13611.1
13942.4
9484.41
8979.18
5974.68
5978.23
5991.05
5990
9263.96
9806.31
9164.41
9693.35
9068.33
9590.27
14128
13789.4
20928.2
23022.4
20903.9
22982
20749.5
22821.2
20686.7
22734.3
37001.5
35596.8
35724.9
37183.2
35907.6
37460.6
36200.5
37715.6
36470.3
37975.6
23181.5
21108.9
23270.6
37800.2
36524
36344.5
21227.2
13957.7
14276.8
21457.8
23514.5
37722.7
36365.5
37799.8
23616.8
21540.3
14113.7
14462
14305.5
14660.9
9914.53
9347.09
5979.44
5957.67
5923.05
5869.85
9528.6
10162.7
9492.34
10095.9
9424.16
10004.7
14833.8
14487.4
22075
24191.1
21993
24106.9
21791.1
23898.2
21723.6
23824.9
38188.8
36613.5
36957.9
38442.4
37197.7
38703.7
37366.1
38761.7
37481.1
38998.6
24410.1
22289.9
24523
39136.2
37700.3
37890.1
22395.8
14666.3
15028.5
22629.5
24771.7
39443
38159.6
39641.8
24901.5
22751.4
14861.4
15223.5
15042.2
15398.8
10196.3
9540.49
5798.42
5664.74
5478.75
5257.2
9167.96
9927.8
9375.32
10099.9
9495.67
10182.2
15568.2
15215.8
23546.8
25765.9
23416.8
25620.2
23163.3
25341.8
23029.6
25182.4
39924.3
38386.6
38611.7
40082.7
38846.6
40431.1
39172.9
40700.6
39476.1
41061.5
26071.9
23843.7
26258.2
41270.3
39752.1
40013
23995.6
15370.8
15686.7
24259.1
26557.8
41635.8
40343.2
41837.5
26713.2
24377.8
15467.8
15715.9
15478.2
15616.3
9635.39
8803.83
4959.38
3283.99
2784.94
2737.35
2953.21
3407.05
3432.84
2954.24
2958.55
3459.16
3481.48
2963.61
2649.2
2673.28
2702.81
2695.5
2606.89
2523.55
2450.31
2630.17
2966.01
3495.24
3500.19
2963.36
2945.75
3491.94
3461.37
2912.21
2524.77
2582
2612.46
2395.65
2334.65
2247.51
2143.26
2436.66
2846.89
3412.77
3339.31
2756.69
2649.2
3247.19
3141.87
2533.58
2092.37
2211.31
2328.62
2020.45
1892.87
1768.27
1650.53
1976.31
2417.89
3029.42
2913.74
2303.72
2194.02
2798.32
2686
2090.38
1666.11
1761.85
1865.5
1541.77
1442.66
1353.21
1116.28
1201.03
1297.4
1406.49
1529.48
1665.99
1815.25
1969.68
2112.35
2239.84
2340.92
2486.43
2701.65
2907.41
3102.97
4600.42
4182.82
3695.37
6483.98
7552.75
7495.97
8476.64
8248.94
9174.01
15245.7
15309.2
25706.6
28069
25291.8
27634.1
24863.6
27214.9
24647.5
26994.4
42146.2
40524
40633.2
42215.4
40916.9
42563.1
41459.9
43363.9
42459.2
44345.6
28618.5
26185.8
29089.3
46024.2
43865.8
45726.2
26515.4
14752.3
14310.8
26742
29482.1
48557.1
48542.2
52513.5
29321.9
26193.8
13402.7
12800
11322
9804.4
6201.86
5348.03
3160.82
2673.03
2458.23
2217.83
2719.5
2988.03
3124.58
3595.11
3999.25
4926.82
7735.51