/*--------------------------------*- C++ -*----------------------------------*\
| =========                 |                                                 |
| \\      /  F ield         | OpenFOAM: The Open Source CFD Toolbox           |
|  \\    /   O peration     | Version:  v2006                                 |
|   \\  /    A nd           | Website:  www.openfoam.com                      |
|    \\/     M anipulation  |                                                 |
\*---------------------------------------------------------------------------*/
FoamFile
{
    version     2.0;
    format      ascii;
    class       volScalarField;
    location    "0.026";
    object      yPlus;
}
// * * * * * * * * * * * * * * * * * * * * * * * * * * * * * * * * * * * * * //

dimensions      [0 0 0 0 0 0 0];


internalField   uniform 0;

boundaryField
{
    bottomEmptyFaces
    {
        type            empty;
    }
    topEmptyFaces
    {
        type            empty;
    }
    inlet
    {
        type            calculated;
        value           uniform 0;
    }
    outlet
    {
        type            calculated;
        value           uniform 0;
    }
    walls
    {
        type            calculated;
        value           nonuniform List<scalar> 
768
(
23.3461
23.3723
23.3499
23.3871
23.371
23.4111
23.3984
23.444
23.4323
23.4803
23.4692
23.5186
23.5081
23.5583
23.5482
23.5989
23.5893
23.6401
23.631
23.6819
23.6731
23.7241
23.7156
23.7666
23.7585
23.8093
23.8013
23.8521
23.8444
23.8949
23.8874
23.9376
23.9303
23.98
23.9727
24.0219
24.0147
24.0631
24.0558
24.1032
24.0957
24.1417
24.1338
24.1783
24.1701
24.2129
24.2043
24.2453
24.2364
24.2756
24.2663
24.3037
24.294
24.3296
24.3195
24.3535
24.343
24.3754
24.3646
24.3956
24.3846
24.4143
24.403
24.4314
24.4199
24.4473
24.4356
24.4619
24.4502
24.4756
24.4636
24.4882
24.4761
24.4999
24.4878
24.5108
24.4986
24.521
24.5087
24.5305
24.5182
24.5395
24.5271
24.5478
24.5354
24.5557
24.5432
24.5631
24.5506
24.5701
24.5575
24.5766
24.5639
24.5827
24.57
24.5884
24.5757
24.5939
24.5811
24.599
24.5861
24.6038
24.5909
24.6083
24.5953
24.6125
24.5995
24.6165
24.6034
24.6203
24.6071
24.6238
24.6106
24.6271
24.6138
24.6302
24.6169
24.633
24.6197
24.6357
24.6224
24.6383
24.6249
24.6407
24.6273
24.6431
24.6297
24.6454
24.632
24.6476
24.6343
24.6499
24.6367
24.6523
24.6391
24.6547
24.6416
24.6572
24.6442
24.6599
24.6469
24.6627
24.6498
24.6656
24.6529
24.6687
24.656
24.6718
24.6592
24.675
24.6624
24.6783
24.6658
24.6817
24.6693
24.6854
24.6731
24.6896
24.6772
24.712
24.7132
24.7325
24.7209
24.768
24.8395
25.0256
25.4975
26.3951
28.3393
30.5311
13.5578
14.028
11.9968
10.3187
14.5303
15.6962
13.0148
11.0968
12.4021
10.7117
17.6253
15.1433
15.1311
13.0483
13.3849
17.0349
16.3352
14.1175
14.0296
12.1586
12.4278
16.5255
12.2933
12.589
14.5585
14.2979
17.175
12.7428
13.0685
14.7057
14.6211
12.5918
12.9677
15.0247
14.8616
12.9498
12.4663
15.0456
13.9536
10.8644
10.7939
12.881
12.3111
14.3344
12.1321
11.5147
10.866
10.8606
12.829
10.2476
9.76655
14.4772
14.1266
12.0465
11.1289
12.479
11.5861
13.2287
11.2803
10.1536
12.9982
11.1378
10.0711
13.2504
11.1195
10.065
12.9863
11.2041
10.0271
12.9875
10.9334
10.1328
14.0721
13.6921
11.6465
10.9376
12.7619
12.0805
14.7668
11.7895
11.1845
10.7132
10.522
11.8555
10.9293
14.8717
13.1628
12.9174
11.2722
11.3467
15.7358
15.9102
11.8496
12.0821
13.6427
13.4814
11.6703
11.9091
15.3248
11.4112
11.5338
13.4526
13.1666
15.6385
13.4009
12.9299
15.0476
11.3156
11.3312
12.5214
11.9583
13.9619
13.6986
26.0786
21.6273
20.9925
23.5072
23.0031
19.4712
19.3485
21.8443
19.8068
19.7183
16.7416
17.2157
18.2489
17.9969
23.4489
18.7567
18.3788
22.5444
17.334
17.7773
24.4078
20.5913
20.4785
19.5552
19.1469
25.1381
21.0373
20.4039
25.4342
20.6271
20.1282
21.3922
21.2747
17.9692
18.3695
24.949
71.2173
73.2687
71.5045
20.5126
19.9556
25.2814
21.2297
20.5914
25.5
20.8194
20.3616
25.896
21.4045
20.8508
32.8063
55.7856
50.4529
51.8534
65.665
57.783
59.3829
49.1315
42.8891
34.7262
36.8855
175.319
136.758
154.179
124.655
101.615
108.959
201.71
221.195
254.004
280.67
321.492
333.858
92.6591
79.1585
85.371
75.2964
70.8686
70.4895
343.729
332.556
307.868
272.769
199.192
223.182
165.904
123.959
144.85
112.841
94.4907
78.4619
84.2638
75.7163
68.7353
61.9089
58.5349
57.6827
70.8793
63.2665
17.6411
15.1366
20.8779
14.1895
12.2855
10.0393
14.2348
13.0692
10.5367
15.8265
12.9758
11.5996
9.82684
77.3761
76.2447
73.1515
72.0236
68.2885
72.5866
69.7668
64.2688
58.8046
52.8759
28.9833
25.1947
23.9519
27.1843
22.5168
22.0308
26.5673
22.2266
21.5622
27.4232
47.0658
23.5672
22.6472
40.1376
33.6949
34.3255
34.342
31.7498
23.8783
31.4747
14.9853
27.9891
24.8042
23.2687
13.307
12.1735
27.7609
25.4192
23.3553
32.6142
29.0004
11.2748
10.7657
10.3187
10.0904
9.79363
9.63966
9.48945
9.38914
32.9177
30.0591
27.4443
25.5936
36.2173
35.2634
33.7859
30.365
37.4932
36.0924
36.1786
28.8147
26.1734
35.995
36.534
36.5735
36.5703
25.2293
23.7261
36.3216
35.363
34.3566
33.2411
32.2329
31.2092
30.3218
29.4664
28.7264
28.0341
27.426
26.8756
26.3821
25.9447
25.5491
25.2073
24.8924
24.6349
24.3839
24.2018
23.9946
23.8899
23.7192
23.6737
23.5375
23.5264
23.4261
23.4356
23.3673
23.3892
23.334
23.3704
9.24517
9.15188
8.99583
8.9496
8.85991
8.8251
8.70813
8.65713
8.54437
8.51214
8.41368
8.39897
8.30629
8.29948
8.22728
8.22606
8.15076
8.14373
8.07555
8.07924
8.00672
8.00532
7.94523
7.94366
7.87184
7.87547
7.81553
7.81446
7.7571
7.76126
7.6985
7.70179
7.65011
7.65054
7.58764
7.59337
7.54635
7.5476
7.48839
7.48968
7.44286
7.45067
7.39859
7.40396
7.35649
7.36074
7.30963
7.31563
7.27412
7.27702
7.22499
7.23523
7.19303
7.20075
7.16173
7.16624
7.11458
7.12671
7.1458
7.20587
7.30508
7.62486
8.33062
9.1706
19.6632
18.8698
16.1734
16.2601
13.9654
14.4307
18.9999
14.2028
14.516
16.7319
16.6178
20.4977
17.795
17.7994
15.2184
15.6698
21.8064
18.6488
18.6333
20.8862
17.4574
17.1356
15.8976
16.2433
20.8737
15.6676
16.0639
18.434
18.3002
19.9115
14.8328
15.2636
16.9709
16.9636
14.5579
15.0537
17.4923
17.3735
18.231
18.3941
13.7142
14.0533
15.703
15.6587
13.4862
13.9123
17.7668
13.2128
13.581
15.5342
15.3748
16.0709
15.9769
21.9474
16.4344
16.9221
9.96144
32.6889
49.6855
46.1288
43.61
41.938
40.6124
39.4182
38.3868
37.5211
36.9052
36.2531
35.8108
35.3003
34.9632
34.5492
34.2786
33.9329
33.7054
33.4073
33.2098
32.946
32.7701
32.5317
32.3713
32.1517
32.0029
31.7976
31.6574
31.4632
31.3296
31.1439
31.0152
30.8362
30.7111
30.5372
30.4148
30.2448
30.1241
29.9568
29.8371
29.6716
29.5523
29.3878
29.2683
29.104
28.9836
28.8186
28.6969
28.5307
28.407
28.2388
28.1127
27.9417
27.8127
27.6383
27.5058
27.3273
27.1908
27.0073
26.8661
26.6768
26.5303
26.3346
26.1822
25.9791
25.8201
25.6085
25.4423
25.2216
25.0479
24.8178
24.6357
24.3947
24.2036
23.9511
23.7511
23.4871
23.278
23.0017
22.7826
22.4932
22.2647
21.963
21.7257
21.4131
21.1689
20.8472
20.5971
20.2663
20.0107
19.6772
19.4268
19.0978
18.8537
18.5298
18.294
17.9848
17.7725
17.4896
17.3059
17.0532
16.9003
16.6869
16.5689
16.3929
16.3138
16.1855
16.143
16.059
16.0426
16.0001
15.9918
15.9643
15.9731
15.9675
15.9822
15.989
16.0174
16.0194
16.0396
16.0467
16.0709
16.0852
16.1178
16.1336
16.1692
16.1743
16.1959
16.2023
16.2228
16.2356
16.261
16.2768
16.3059
16.3134
16.3333
16.3384
16.3541
16.3636
16.3843
16.3978
16.422
16.4258
16.4453
16.4611
16.4588
16.505
16.463
16.6699
17.1145
54.1101
17.6513
)
;
    }
    rightWall
    {
        type            calculated;
        value           uniform 0;
    }
    symmetryLine
    {
        type            symmetryPlane;
    }
}


// ************************************************************************* //
