/*--------------------------------*- C++ -*----------------------------------*\
| =========                 |                                                 |
| \\      /  F ield         | OpenFOAM: The Open Source CFD Toolbox           |
|  \\    /   O peration     | Version:  v2006                                 |
|   \\  /    A nd           | Website:  www.openfoam.com                      |
|    \\/     M anipulation  |                                                 |
\*---------------------------------------------------------------------------*/
FoamFile
{
    version     2.0;
    format      ascii;
    class       surfaceScalarField;
    location    "0.111";
    object      phi;
}
// * * * * * * * * * * * * * * * * * * * * * * * * * * * * * * * * * * * * * //

dimensions      [1 0 -1 0 0 0 0];
oriented        oriented;


internalField   nonuniform List<scalar> 
32242
(
-2.6153e-05
-0.0013544
0.00133512
4.55282e-05
-0.00127013
0.00124391
8.34927e-06
7.76906e-05
-3.49644e-06
0.00146285
3.8026e-05
0.00159993
-3.29082e-05
0.00165139
-3.66923e-06
0.00169139
-1.6375e-05
0.00168406
-2.33024e-06
0.00168002
-2.431e-06
0.00166947
-4.47941e-07
0.00166257
-1.01585e-06
0.00165676
-1.15346e-06
0.00165309
-1.27935e-06
0.00164974
-1.4798e-06
0.00164692
-1.51036e-06
0.00164385
-1.61889e-06
0.00164092
-1.72341e-06
0.00163778
-1.8239e-06
0.0016345
-1.9204e-06
0.00163109
-2.01311e-06
0.00162755
-2.10237e-06
0.00162388
-2.18857e-06
0.00162008
-2.27208e-06
0.00161616
-2.35319e-06
0.00161211
-2.43209e-06
0.00160794
-2.5089e-06
0.00160365
-2.58365e-06
0.00159924
-2.65632e-06
0.00159472
-2.72683e-06
0.00159008
-2.7951e-06
0.00158533
-2.86103e-06
0.00158047
-2.92449e-06
0.00157551
-2.98534e-06
0.00157045
-3.04346e-06
0.0015653
-3.09871e-06
0.00156005
-3.15094e-06
0.00155473
-3.20001e-06
0.00154932
-3.2458e-06
0.00154383
-3.28819e-06
0.00153827
-3.32706e-06
0.00153265
-3.36229e-06
0.00152697
-3.39377e-06
0.00152124
-3.4214e-06
0.00151546
-3.44507e-06
0.00150964
-3.46469e-06
0.00150378
-3.48018e-06
0.0014979
-3.49144e-06
0.00149199
-3.4984e-06
0.00148606
-3.50098e-06
0.00148013
-3.49912e-06
0.00147419
-3.4928e-06
0.00146826
-3.48204e-06
0.00146234
-3.46669e-06
0.00145643
-3.4452e-06
0.00145055
-3.41998e-06
0.00144471
-3.39047e-06
0.0014389
-3.35612e-06
0.00143314
-3.31702e-06
0.00142744
-3.27316e-06
0.0014218
-3.22456e-06
0.00141622
-3.17125e-06
0.00141072
-3.11323e-06
0.00140531
-3.05054e-06
0.00139999
-2.9832e-06
0.00139476
-2.91121e-06
0.00138964
-2.8345e-06
0.00138462
-2.75296e-06
0.00137973
-2.66637e-06
0.00137496
-2.57444e-06
0.00137031
-2.47681e-06
0.0013658
-2.37314e-06
0.00136144
-2.26323e-06
0.00135722
-2.14696e-06
0.00135317
-2.02406e-06
0.00134927
-1.89332e-06
0.00134552
-1.75125e-06
0.00134191
-9.21965e-07
0.00133773
-1.39992e-06
0.00133426
-1.16977e-06
0.00132817
-2.89539e-06
0.00131955
-4.6165e-06
0.00130742
-1.96295e-05
0.00128696
-3.00954e-05
0.00126105
-8.36235e-05
0.00122473
-0.000143177
0.00120263
-0.000328503
0.00121428
-0.000736198
0.00140183
-0.000202563
0.000361197
2.04325e-05
0.000599542
4.44665e-06
0.000786408
-3.85986e-05
0.000696039
-1.24937e-05
0.000609995
-7.50923e-06
0.000220539
-4.58124e-06
0.000183625
0.000148435
8.52641e-06
0.000139909
1.73475e-05
0.000174804
0.000210944
2.69429e-05
-1.36292e-05
0.000203716
2.08568e-05
-6.80519e-06
0.00016798
0.000133104
2.50444e-06
0.000130599
4.12781e-06
0.000166357
0.000202481
5.36312e-06
-4.65158e-06
0.000200396
6.73665e-06
-2.8715e-06
0.000164577
0.000127728
1.54676e-06
0.000126181
2.02867e-06
0.000164095
0.000200281
2.14363e-06
-4.45898e-06
0.000198717
6.02266e-06
-2.60026e-06
0.000162236
0.000123581
1.26909e-06
0.000122312
1.14651e-06
0.000162359
0.000198482
1.38155e-06
-3.62733e-06
0.000197499
4.6106e-06
-1.77608e-06
0.000160507
0.000120536
4.71933e-07
0.000120064
3.54578e-07
0.000160625
0.00019786
-6.26612e-09
-2.83713e-06
0.000196161
4.53631e-06
-1.60636e-06
0.000159394
0.000118457
3.4244e-07
0.000118115
2.39666e-07
0.000159497
0.000196461
-6.07413e-08
-2.71691e-06
0.000195374
3.80383e-06
-1.48143e-06
0.000158261
0.000116633
2.51158e-07
0.000116382
1.47967e-07
0.000158364
0.00019564
-1.18504e-07
-2.62296e-06
0.000194523
3.74035e-06
-1.38807e-06
0.000157129
0.000114994
1.83382e-07
0.000114811
8.26965e-08
0.00015723
0.000194759
-1.53486e-07
-2.54961e-06
0.000193618
3.69069e-06
-1.31736e-06
0.000155998
0.000113493
1.32264e-07
0.000113361
2.73387e-08
0.000156103
0.000193833
-1.87667e-07
-2.48675e-06
0.000192676
3.64342e-06
-1.26184e-06
0.000154878
0.000112099
9.25812e-08
0.000112007
-1.27332e-08
0.000154983
0.000192873
-2.09165e-07
-2.43706e-06
0.000191704
3.60576e-06
-1.22107e-06
0.000153767
0.000110786
6.11165e-08
0.000110724
-4.22001e-08
0.00015387
0.000191884
-2.22159e-07
-2.39751e-06
0.000190702
3.5796e-06
-1.18739e-06
0.00015266
0.000109537
3.88275e-08
0.000109498
-6.16139e-08
0.000152761
0.000190868
-2.27487e-07
-2.36731e-06
0.000189674
3.56128e-06
-1.1601e-06
0.000151553
0.000108338
2.28592e-08
0.000108315
-7.47199e-08
0.000151651
0.000189826
-2.26403e-07
-2.34309e-06
0.00018862
3.54832e-06
-1.13781e-06
0.000150446
0.000107177
1.16334e-08
0.000107166
-8.11833e-08
0.000150539
0.000188757
-2.18071e-07
-2.32497e-06
0.00018754
3.54188e-06
-1.11993e-06
0.000149334
0.000106046
4.39207e-09
0.000106042
-8.17533e-08
0.00014942
0.000187662
-2.02912e-07
-2.31215e-06
0.000186432
3.54137e-06
-1.10574e-06
0.000148213
0.000104936
4.72574e-10
0.000104935
-7.72231e-08
0.000148291
0.000186537
-1.81616e-07
-2.30383e-06
0.000185294
3.54616e-06
-1.0946e-06
0.000147082
0.000103841
-1.14688e-09
0.000103842
-6.89009e-08
0.00014715
0.000185381
-1.55912e-07
-2.299e-06
0.000184125
3.55499e-06
-1.08598e-06
0.000145936
0.000102756
-4.27191e-10
0.000102756
-5.70079e-08
0.000145993
0.000184194
-1.25736e-07
-2.29727e-06
0.000182924
3.56773e-06
-1.07929e-06
0.000144775
0.000101677
2.10166e-09
0.000101675
-4.17652e-08
0.000144819
0.000182973
-9.1097e-08
-2.2985e-06
0.000181687
3.58439e-06
-1.07439e-06
0.000143595
0.0001006
6.35997e-09
0.000100594
-2.32792e-08
0.000143624
0.000181716
-5.19615e-08
-2.30262e-06
0.000180413
3.60513e-06
-1.07119e-06
0.000142393
9.95228e-05
1.19729e-08
9.95108e-05
-2.3898e-09
0.000142407
0.00018042
-9.67507e-09
-2.30853e-06
0.000179101
3.62803e-06
-1.06923e-06
0.000141168
9.84416e-05
1.98687e-08
9.84217e-05
2.26018e-08
0.000141165
0.000179084
3.9313e-08
-2.31633e-06
0.000177747
3.65301e-06
-1.06834e-06
0.000139917
9.73534e-05
2.92258e-08
9.73241e-05
5.04273e-08
0.000139896
0.000177705
9.24972e-08
-2.32665e-06
0.00017635
3.68157e-06
-1.06878e-06
0.000138638
9.62553e-05
4.00023e-08
9.62153e-05
8.10774e-08
0.000138597
0.000176282
1.49813e-07
-2.33941e-06
0.000174907
3.71369e-06
-1.0705e-06
0.000137328
9.51448e-05
5.22361e-08
9.50926e-05
1.14628e-07
0.000137266
0.00017481
2.11475e-07
-2.35452e-06
0.000173416
3.74921e-06
-1.07345e-06
0.000135985
9.40191e-05
6.58933e-08
9.39532e-05
1.51029e-07
0.000135899
0.000173289
2.77477e-07
-2.37184e-06
0.000171873
3.78797e-06
-1.07755e-06
0.000134605
9.28757e-05
8.09078e-08
9.27947e-05
1.90174e-07
0.000134496
0.000171716
3.47711e-07
-2.39121e-06
0.000170277
3.82974e-06
-1.08269e-06
0.000133187
9.17121e-05
9.71871e-08
9.16149e-05
2.31898e-07
0.000133053
0.000170087
4.2196e-07
-2.41239e-06
0.000168625
3.87419e-06
-1.08876e-06
0.000131729
9.05262e-05
1.14614e-07
9.04117e-05
2.75982e-07
0.000131568
0.000168402
4.99915e-07
-2.43514e-06
0.000166916
3.92096e-06
-1.09563e-06
0.000130228
8.93162e-05
1.33059e-07
8.91832e-05
3.22184e-07
0.00013004
0.000166657
5.81124e-07
-2.45897e-06
0.000165147
3.96939e-06
-1.10305e-06
0.000128684
8.80803e-05
1.52281e-07
8.79282e-05
3.70021e-07
0.000128466
0.000164852
6.64913e-07
-2.48342e-06
0.000163317
4.01877e-06
-1.11081e-06
0.000127094
8.68175e-05
1.71992e-07
8.66456e-05
4.189e-07
0.000126847
0.000162986
7.50362e-07
-2.50767e-06
0.000161426
4.06786e-06
-1.11849e-06
0.000125458
8.55273e-05
1.91706e-07
8.53357e-05
4.67843e-07
0.000125182
0.000161058
8.36011e-07
-2.53064e-06
0.000159473
4.11502e-06
-1.12553e-06
0.000123777
8.42102e-05
2.10777e-07
8.39995e-05
5.15578e-07
0.000123472
0.000159069
9.19876e-07
-2.55108e-06
0.000157462
4.15822e-06
-1.13142e-06
0.000122052
8.2868e-05
2.28725e-07
8.26392e-05
5.6083e-07
0.00012172
0.000157023
9.99819e-07
-2.56768e-06
0.000155395
4.19532e-06
-1.13559e-06
0.000120288
8.15034e-05
2.44812e-07
8.12584e-05
6.02055e-07
0.00011993
0.000154923
1.07338e-06
-2.5788e-06
0.000153278
4.22371e-06
-1.13726e-06
0.000118489
8.01209e-05
2.5813e-07
7.98625e-05
6.37297e-07
0.000118109
0.000152778
1.13744e-06
-2.58235e-06
0.000151119
4.24003e-06
-1.13548e-06
0.000116662
7.87268e-05
2.67539e-07
7.8459e-05
6.64066e-07
0.000116265
0.000150595
1.18801e-06
-2.57573e-06
0.000148931
4.24008e-06
-1.12906e-06
0.000114818
7.73297e-05
2.71621e-07
7.70579e-05
6.79249e-07
0.00011441
0.000148389
1.22008e-06
-2.55572e-06
0.000146726
4.21873e-06
-1.1166e-06
0.000112971
7.59413e-05
2.68682e-07
7.56726e-05
6.79077e-07
0.000112561
0.000146178
1.22764e-06
-2.51859e-06
0.000144527
4.16991e-06
-1.0964e-06
0.000111139
7.45763e-05
2.56756e-07
7.43196e-05
6.59264e-07
0.000110736
0.000143982
1.20369e-06
-2.46019e-06
0.000142356
4.08677e-06
-1.06656e-06
0.000109343
7.32532e-05
2.33629e-07
7.30197e-05
6.14949e-07
0.000108962
0.000141831
1.14024e-06
-2.37566e-06
0.000140245
3.96137e-06
-1.02496e-06
0.000107611
7.19949e-05
1.96743e-07
7.17982e-05
5.40403e-07
0.000107268
0.000139758
1.02797e-06
-2.25961e-06
0.000138233
3.78488e-06
-9.6928e-07
0.000105977
7.08291e-05
1.43271e-07
7.06859e-05
4.29371e-07
0.000105691
0.000137806
8.56546e-07
-2.10679e-06
0.000136364
3.54858e-06
-8.97258e-07
0.000104482
6.97888e-05
7.10131e-08
6.9718e-05
2.76797e-07
0.000104277
0.000136024
6.17588e-07
-1.91273e-06
0.000134691
3.24599e-06
-8.05229e-07
0.000103169
6.8913e-05
-2.43715e-08
6.89376e-05
7.58339e-08
0.000103069
0.000134467
2.99916e-07
-1.66803e-06
0.000133269
2.86628e-06
-6.87028e-07
0.000102089
6.82508e-05
-1.47736e-07
6.83987e-05
-1.8158e-07
0.000102123
0.000133191
-1.03174e-07
-1.37951e-06
0.000132167
2.40366e-06
-5.53408e-07
0.000101297
6.78456e-05
-2.84673e-07
6.81304e-05
-4.79107e-07
0.000101492
0.000132264
-5.76277e-07
-1.0565e-06
0.000131439
1.88214e-06
-4.06296e-07
0.000100842
6.77243e-05
-4.35572e-07
6.81599e-05
-8.11213e-07
0.000101217
0.000131739
-1.11086e-06
-7.17111e-07
0.000131125
1.33117e-06
-2.53835e-07
0.000100754
6.79062e-05
-5.90802e-07
6.8497e-05
-1.15862e-06
0.000101322
0.000131643
-1.67661e-06
-3.74309e-07
0.000131249
7.68239e-07
-1.01716e-07
0.00010105
6.83955e-05
-7.34628e-07
6.91299e-05
-1.48564e-06
0.0001018
0.00013198
-2.21655e-06
-4.14295e-08
0.000131799
2.2305e-07
5.01753e-08
0.000101709
6.91802e-05
-8.96155e-07
7.00761e-05
-1.84913e-06
0.000102662
0.000132765
-2.81631e-06
3.0045e-07
0.000132808
-3.42601e-07
2.00237e-07
0.000102762
7.02765e-05
-1.05477e-06
7.1331e-05
-2.20209e-06
0.000103909
0.000134009
-3.40421e-06
5.40765e-07
0.000134236
-7.67618e-07
2.89773e-07
0.00010416
7.16206e-05
-1.14261e-06
7.27629e-05
-2.42859e-06
0.000105445
0.000135613
-3.80601e-06
6.93692e-07
0.000135971
-1.05268e-06
3.42022e-07
0.000105797
7.31046e-05
-1.18874e-06
7.4293e-05
-2.56679e-06
0.000107174
0.000137471
-4.06635e-06
7.67961e-07
0.000137917
-1.21472e-06
3.57822e-07
0.000107584
7.46505e-05
-1.20801e-06
7.58582e-05
-2.6444e-06
0.00010902
0.000139502
-4.22959e-06
7.87388e-07
0.000140001
-1.28746e-06
3.4988e-07
0.000109457
7.62079e-05
-1.2043e-06
7.7412e-05
-2.66905e-06
0.000110922
0.000141638
-4.30571e-06
7.56549e-07
0.000142157
-1.27642e-06
3.20624e-07
0.000111357
7.77325e-05
-1.17887e-06
7.89112e-05
-2.64379e-06
0.000112822
0.000143812
-4.29846e-06
6.81068e-07
0.000144321
-1.18992e-06
2.7233e-07
0.000113231
7.91835e-05
-1.1353e-06
8.03188e-05
-2.57536e-06
0.000114671
0.000145963
-4.21766e-06
5.68882e-07
0.000146434
-1.03973e-06
2.09309e-07
0.000115031
8.05281e-05
-1.07766e-06
8.16058e-05
-2.47204e-06
0.000116425
0.000148038
-4.07601e-06
4.28522e-07
0.000148448
-8.389e-07
1.35526e-07
0.000116718
8.17415e-05
-1.00948e-06
8.27511e-05
-2.34156e-06
0.00011805
0.000149992
-3.88548e-06
2.6793e-07
0.000150325
-6.00164e-07
5.50666e-08
0.000118264
8.28064e-05
-9.36412e-07
8.37432e-05
-2.19196e-06
0.000119519
0.000151792
-3.65886e-06
9.55741e-08
0.000152033
-3.36235e-07
-2.72533e-08
0.000119643
8.37163e-05
-8.63843e-07
8.45805e-05
-2.03336e-06
0.000120813
0.00015341
-3.40981e-06
-8.05141e-08
0.000153551
-5.91318e-08
-1.08532e-07
0.000120841
8.44724e-05
-7.89022e-07
8.52619e-05
-1.87155e-06
0.000121924
0.000154832
-3.15199e-06
-2.50764e-07
0.000154872
2.11112e-07
-1.86734e-07
0.000121861
8.50756e-05
-7.16951e-07
8.57931e-05
-1.71295e-06
0.000122857
0.000156055
-2.89547e-06
-4.12169e-07
0.000155996
4.71546e-07
-2.59266e-07
0.000122705
8.55342e-05
-6.50875e-07
8.61855e-05
-1.56447e-06
0.000123619
0.000157084
-2.65174e-06
-5.59362e-07
0.000156931
7.13331e-07
-3.23612e-07
0.000123384
8.58621e-05
-5.9249e-07
8.64549e-05
-1.43016e-06
0.000124221
0.000157929
-2.42791e-06
-6.8707e-07
0.000157689
9.26617e-07
-3.77621e-07
0.000123912
8.60774e-05
-5.44141e-07
8.66216e-05
-1.31541e-06
0.000124684
0.000158607
-2.23347e-06
-7.94151e-07
0.000158293
1.10891e-06
-4.21194e-07
0.000124311
8.62005e-05
-5.05592e-07
8.67062e-05
-1.22051e-06
0.000125026
0.000159142
-2.06984e-06
-8.81114e-07
0.000158763
1.26023e-06
-4.55003e-07
0.0001246
8.62512e-05
-4.75907e-07
8.67272e-05
-1.14426e-06
0.000125268
0.000159555
-1.93578e-06
-9.4962e-07
0.000159122
1.38224e-06
-4.8023e-07
0.000124799
8.62469e-05
-4.53812e-07
8.67007e-05
-1.08456e-06
0.00012543
0.000159867
-1.82852e-06
-1.00258e-06
0.00015939
1.47889e-06
-4.98587e-07
0.000124926
8.62021e-05
-4.37658e-07
8.66396e-05
-1.03847e-06
0.000125526
0.000160096
-1.74358e-06
-1.04252e-06
0.000159584
1.55381e-06
-5.11471e-07
0.000124996
8.61284e-05
-4.24991e-07
8.65534e-05
-1.00125e-06
0.000125572
0.000160257
-1.6735e-06
-1.06956e-06
0.00015972
1.60678e-06
-5.18968e-07
0.000125022
8.60347e-05
-4.17224e-07
8.64519e-05
-9.75555e-07
0.00012558
0.000160367
-1.62247e-06
-1.08908e-06
0.000159809
1.64688e-06
-5.23675e-07
0.000125014
8.59282e-05
-4.10671e-07
8.63396e-05
-9.54892e-07
0.000125559
0.000160438
-1.58349e-06
-1.10131e-06
0.000159862
1.67638e-06
-5.25351e-07
0.000124983
8.58137e-05
-4.06547e-07
8.62198e-05
-9.43165e-07
0.000125519
0.000160478
-1.55859e-06
-1.11143e-06
0.000159888
1.70079e-06
-5.25202e-07
0.000124933
8.5695e-05
-4.03195e-07
8.60986e-05
-9.33091e-07
0.000125463
0.000160493
-1.53781e-06
-1.11636e-06
0.000159892
1.71628e-06
-5.23485e-07
0.000124869
8.55746e-05
-4.01999e-07
8.59787e-05
-9.26137e-07
0.000125395
0.000160488
-1.52258e-06
-1.12066e-06
0.000159879
1.72871e-06
-5.23207e-07
0.000124797
8.54552e-05
-4.03596e-07
8.58576e-05
-9.25256e-07
0.000125316
0.000160468
-1.51572e-06
-1.12485e-06
0.000159853
1.73903e-06
-5.23199e-07
0.000124717
8.53367e-05
-4.03903e-07
8.57391e-05
-9.22811e-07
0.000125234
0.000160438
-1.50851e-06
-1.12341e-06
0.000159818
1.74276e-06
-5.20451e-07
0.000124631
8.5219e-05
-4.02669e-07
8.56269e-05
-9.17655e-07
0.000125151
0.000160402
-1.49861e-06
-1.11789e-06
0.000159778
1.7419e-06
-5.15932e-07
0.000124545
8.5105e-05
-4.06461e-07
8.55128e-05
-9.22469e-07
0.000125064
0.000160359
-1.50167e-06
-1.11742e-06
0.000159736
1.74382e-06
-5.15462e-07
0.000124461
8.49965e-05
-4.15538e-07
8.54011e-05
-9.37974e-07
0.000124973
0.000160314
-1.51848e-06
-1.13296e-06
0.000159694
1.75117e-06
-5.25548e-07
0.00012438
8.48946e-05
-4.22356e-07
8.53001e-05
-9.45864e-07
0.000124895
0.00016028
-1.5364e-06
-1.1019e-06
0.000159672
1.70007e-06
-5.1402e-07
0.000124304
8.47932e-05
-3.97039e-07
8.52334e-05
-9.28474e-07
0.00012486
0.000160821
-2.07876e-06
-4.9805e-07
0.000159724
1.58672e-06
-4.49674e-07
0.000124786
8.47589e-05
-9.28337e-07
8.56943e-05
-1.56732e-06
0.000125422
0.000161463
-3.32183e-06
1.41657e-07
0.000161548
-2.12798e-07
5.99142e-08
0.000125541
8.5795e-05
-1.70344e-06
8.74301e-05
-4.6309e-06
0.000128398
0.000164072
-7.17052e-06
6.10848e-06
0.000168395
-1.04365e-05
2.96533e-06
0.000131553
9.04058e-05
-8.63726e-06
9.90933e-05
-1.9631e-05
0.000142591
0.000181993
-3.32228e-05
4.33021e-05
0.000211505
-7.2853e-05
1.94525e-05
0.000166404
0.000118517
3.93597e-05
9.50161e-05
0.000165995
3.99707e-05
-0.000288232
-5.72887e-05
-0.000326091
-6.18066e-05
-0.000510448
-2.49817e-05
-0.000550489
-1.59432e-05
-0.000577075
-3.11963e-06
-0.000579746
-2.56408e-06
-0.000584683
-2.04292e-07
-0.000585155
-8.04579e-07
-0.000585845
9.63896e-07
-0.000585301
1.54815e-06
-0.000583074
5.07351e-06
-0.000577011
9.77958e-06
-0.00056895
2.14737e-05
-0.000554888
3.83959e-05
-0.000540864
8.52396e-05
-0.000536065
0.00018925
-0.00054479
8.52794e-05
-0.000335924
4.86815e-05
-0.000332977
2.7203e-05
-0.000323189
2.72226e-05
-0.000275566
7.96753e-06
-0.000237145
4.48892e-06
-8.35585e-05
1.82229e-06
-5.64665e-05
-3.05034e-05
-2.26691e-06
-2.82384e-05
-5.94111e-06
-5.27813e-05
-7.84155e-05
-1.10712e-05
4.13456e-06
-7.53553e-05
-7.08603e-06
1.47484e-06
-5.01375e-05
-2.68255e-05
-9.74277e-07
-2.58558e-05
-1.72078e-06
-4.93954e-05
-7.35637e-05
-3.51156e-06
6.91706e-07
-7.29247e-05
-1.33706e-06
1.59409e-07
-4.88616e-05
-2.5692e-05
-4.06449e-07
-2.52524e-05
-5.32871e-07
-4.87408e-05
-7.23183e-05
-1.18911e-06
5.28277e-07
-7.27567e-05
-8.31244e-08
6.87839e-08
-4.82791e-05
-2.51829e-05
-5.57754e-09
-2.51796e-05
-2.80352e-08
-4.82582e-05
-7.27641e-05
-1.9856e-08
-2.69418e-08
-7.27827e-05
4.04828e-08
-1.44678e-08
-4.827e-05
-2.51912e-05
2.26754e-08
-2.52084e-05
4.5825e-08
-4.82895e-05
-7.28025e-05
6.29205e-08
-5.7533e-08
-7.28337e-05
9.44209e-08
-2.57663e-08
-4.83175e-05
-2.52327e-05
1.99527e-08
-2.52567e-05
4.89083e-08
-4.83461e-05
-7.28617e-05
8.717e-08
-5.63112e-08
-7.29e-05
1.02942e-07
-2.28747e-08
-4.83812e-05
-2.52863e-05
2.36376e-08
-2.53141e-05
5.69568e-08
-4.84145e-05
-7.29339e-05
9.97725e-08
-6.66673e-08
-7.29742e-05
1.19623e-07
-2.79325e-08
-4.84508e-05
-2.53445e-05
2.52879e-08
-2.53731e-05
6.21087e-08
-4.84858e-05
-7.30104e-05
1.09991e-07
-6.46661e-08
-7.30508e-05
1.2086e-07
-2.57249e-08
-4.85233e-05
-2.54042e-05
2.69701e-08
-2.54356e-05
6.40812e-08
-4.85617e-05
-7.30886e-05
1.10269e-07
-7.82189e-08
-7.31335e-05
1.18578e-07
-3.6929e-08
-4.86027e-05
-2.54695e-05
3.7801e-08
-2.55009e-05
7.52113e-08
-4.86409e-05
-7.31727e-05
1.00701e-07
-7.95582e-08
-7.3217e-05
1.08237e-07
-4.02366e-08
-4.86816e-05
-2.55352e-05
3.83076e-08
-2.55686e-05
7.5954e-08
-4.87217e-05
-7.32583e-05
1.00698e-07
-8.52745e-08
-7.33063e-05
1.19116e-07
-4.17129e-08
-4.87643e-05
-2.56044e-05
3.19302e-08
-2.56377e-05
7.27097e-08
-4.88038e-05
-7.33471e-05
1.18347e-07
-7.57028e-08
-7.3392e-05
1.37483e-07
-3.16889e-08
-4.88455e-05
-2.56733e-05
3.27802e-08
-2.57075e-05
7.87403e-08
-4.88863e-05
-7.3434e-05
1.38789e-07
-8.96647e-08
-7.34819e-05
1.56276e-07
-3.86067e-08
-4.89301e-05
-2.57447e-05
3.57891e-08
-2.57782e-05
8.30812e-08
-4.89701e-05
-7.35234e-05
1.42254e-07
-8.24095e-08
-7.35712e-05
1.44941e-07
-3.52299e-08
-4.9014e-05
-2.58155e-05
3.11571e-08
-2.58509e-05
7.42043e-08
-4.90561e-05
-7.36146e-05
1.31047e-07
-7.46747e-08
-7.3665e-05
1.35945e-07
-3.13386e-08
-4.9102e-05
-2.58897e-05
2.64561e-08
-2.59268e-05
6.50494e-08
-4.91465e-05
-7.37116e-05
1.20762e-07
-6.82105e-08
-7.37596e-05
1.29482e-07
-2.74356e-08
-4.91917e-05
-2.59651e-05
3.18884e-08
-2.60021e-05
7.31503e-08
-4.92362e-05
-7.38043e-05
1.22833e-07
-9.22358e-08
-7.38586e-05
1.318e-07
-4.53939e-08
-4.9284e-05
-2.60422e-05
4.4151e-08
-2.60782e-05
8.81923e-08
-4.93273e-05
-7.3904e-05
1.19383e-07
-8.84329e-08
-7.3954e-05
1.26471e-07
-4.38059e-08
-4.93729e-05
-2.61166e-05
4.07947e-08
-2.61556e-05
8.26324e-08
-4.94195e-05
-7.40027e-05
1.15996e-07
-8.80123e-08
-7.40558e-05
1.26148e-07
-4.38482e-08
-4.94677e-05
-2.61961e-05
4.05325e-08
-2.62354e-05
8.12101e-08
-4.95149e-05
-7.41055e-05
1.12661e-07
-8.81085e-08
-7.41599e-05
1.2464e-07
-4.39463e-08
-4.95637e-05
-2.62764e-05
4.53684e-08
-2.63157e-05
9.05035e-08
-4.96107e-05
-7.42103e-05
1.24006e-07
-1.02954e-07
-7.42668e-05
1.42635e-07
-5.11301e-08
-4.96597e-05
-2.63567e-05
4.47603e-08
-2.63946e-05
9.59146e-08
-4.97061e-05
-7.43181e-05
1.40201e-07
-8.72575e-08
-7.43736e-05
1.56856e-07
-3.67983e-08
-4.97553e-05
-2.64354e-05
3.30394e-08
-2.64745e-05
8.26059e-08
-4.98033e-05
-7.44266e-05
1.56243e-07
-8.43934e-08
-7.44844e-05
1.65258e-07
-3.33491e-08
-4.98549e-05
-2.65165e-05
3.37121e-08
-2.6556e-05
8.11941e-08
-4.99056e-05
-7.45386e-05
1.45759e-07
-9.66046e-08
-7.46006e-05
1.42732e-07
-4.59138e-08
-4.9958e-05
-2.65965e-05
4.6417e-08
-2.66367e-05
9.66224e-08
-5.00102e-05
-7.46593e-05
1.34943e-07
-1.03425e-07
-7.47229e-05
1.48991e-07
-4.96951e-08
-5.00643e-05
-2.66787e-05
4.76825e-08
-2.67175e-05
1.00786e-07
-5.01164e-05
-7.47829e-05
1.44824e-07
-1.09214e-07
-7.48492e-05
1.58831e-07
-5.1066e-08
-5.01705e-05
-2.67577e-05
4.71856e-08
-2.67969e-05
1.06215e-07
-5.02244e-05
-7.49129e-05
1.6616e-07
-1.01752e-07
-7.4982e-05
1.91935e-07
-4.0182e-08
-5.02812e-05
-2.68383e-05
3.63708e-08
-2.68752e-05
9.74087e-08
-5.03351e-05
-7.50468e-05
1.88181e-07
-9.84548e-08
-7.51179e-05
1.91895e-07
-3.60206e-08
-5.03922e-05
-2.69132e-05
3.31287e-08
-2.6951e-05
9.33187e-08
-5.04512e-05
-7.51903e-05
1.8175e-07
-9.49221e-08
-7.5271e-05
1.86772e-07
-3.32531e-08
-5.05145e-05
-2.69907e-05
2.90063e-08
-2.70274e-05
8.8851e-08
-5.05766e-05
-7.53496e-05
1.797e-07
-9.36284e-08
-7.54331e-05
1.94772e-07
-2.9146e-08
-5.06414e-05
-2.70644e-05
2.90814e-08
-2.71e-05
9.68072e-08
-5.07071e-05
-7.55164e-05
2.03096e-07
-1.08381e-07
-7.56071e-05
2.1986e-07
-3.49871e-08
-5.07763e-05
-2.71366e-05
4.67906e-08
-2.7168e-05
1.23321e-07
-5.08444e-05
-7.56974e-05
2.05924e-07
-1.26912e-07
-7.57952e-05
2.08549e-07
-4.82198e-08
-5.09156e-05
-2.72002e-05
4.08413e-08
-2.72307e-05
1.18079e-07
-5.09887e-05
-7.5896e-05
2.01483e-07
-9.67625e-08
-7.60041e-05
2.15319e-07
-2.3136e-08
-5.10679e-05
-2.7264e-05
1.38021e-08
-2.72942e-05
8.52579e-08
-5.11493e-05
-7.61139e-05
2.1174e-07
-9.15928e-08
-7.62319e-05
2.30375e-07
-1.40948e-08
-5.12359e-05
-2.73257e-05
2.04357e-08
-2.73563e-05
1.04292e-07
-5.13265e-05
-7.63528e-05
2.39792e-07
-1.44009e-07
-7.64886e-05
2.61226e-07
-4.28237e-08
-5.14238e-05
-2.73876e-05
4.91837e-08
-2.74144e-05
1.57664e-07
-5.15208e-05
-7.6625e-05
2.74318e-07
-1.63269e-07
-7.67693e-05
3.10342e-07
-4.51517e-08
-5.1622e-05
-2.74429e-05
2.99714e-08
-2.7475e-05
1.48638e-07
-5.17326e-05
-7.69182e-05
3.31028e-07
-1.56538e-07
-7.70837e-05
3.56201e-07
-3.02582e-08
-5.18545e-05
-2.7513e-05
3.33756e-08
-2.75523e-05
1.64926e-07
-5.19833e-05
-7.72561e-05
3.64003e-07
-1.83891e-07
-7.74397e-05
3.96545e-07
-4.07474e-08
-5.21212e-05
-2.75967e-05
4.62132e-08
-2.76458e-05
2.01557e-07
-5.2268e-05
-7.76318e-05
4.2811e-07
-2.27485e-07
-7.78384e-05
4.76234e-07
-5.60548e-08
-5.24269e-05
-2.7704e-05
6.38193e-08
-2.77673e-05
2.47387e-07
-5.25935e-05
-7.80516e-05
5.08393e-07
-2.67643e-07
-7.82814e-05
5.47291e-07
-7.29349e-08
-5.27757e-05
-2.78442e-05
7.62399e-08
-2.79373e-05
2.79271e-07
-5.29763e-05
-7.85272e-05
5.70986e-07
-2.94613e-07
-7.87908e-05
6.10487e-07
-8.16229e-08
-5.31979e-05
-2.8052e-05
9.30113e-08
-2.81886e-05
3.17873e-07
-5.34418e-05
-7.90658e-05
6.53054e-07
-3.75193e-07
-7.93694e-05
7.15956e-07
-1.279e-07
-5.37154e-05
-2.83602e-05
2.13227e-07
-2.85486e-05
5.03544e-07
-5.40032e-05
-7.96874e-05
7.62285e-07
-6.03637e-07
-8.00251e-05
8.44383e-07
-2.79835e-07
-5.43198e-05
-2.8776e-05
3.30811e-07
-2.90401e-05
6.81052e-07
-5.46601e-05
-8.0378e-05
9.29221e-07
-7.67659e-07
-8.0772e-05
1.0396e-06
-3.81061e-07
-5.50378e-05
-2.93518e-05
3.84629e-07
-2.97196e-05
8.06203e-07
-5.54535e-05
-8.11952e-05
1.20353e-06
-8.28199e-07
-8.163e-05
1.41655e-06
-3.72414e-07
-5.59184e-05
-3.01534e-05
4.51365e-07
-3.06641e-05
9.60163e-07
-5.64446e-05
-8.21218e-05
1.59818e-06
-1.20895e-06
-8.26961e-05
1.77201e-06
-6.01078e-07
-5.7043e-05
-3.12523e-05
8.65808e-07
-3.20807e-05
1.62871e-06
-5.77795e-05
-8.27991e-05
1.69871e-06
-1.56493e-06
-8.3305e-05
2.05856e-06
-9.63664e-07
-5.83616e-05
-3.30185e-05
7.38935e-07
-3.3757e-05
1.3965e-06
-5.90157e-05
-8.38399e-05
1.93625e-06
-1.21803e-06
-8.53331e-05
2.7095e-06
-2.82025e-07
-5.99643e-05
-3.40505e-05
1.27347e-06
-3.53396e-05
1.65087e-06
-6.03586e-05
-8.61382e-05
2.44014e-06
-1.95735e-06
-8.69272e-05
2.72899e-06
-5.79175e-07
-6.17455e-05
-3.59278e-05
9.18057e-07
-3.6848e-05
1.68595e-06
-6.25173e-05
-8.81988e-05
2.93534e-06
-2.35037e-06
-8.88949e-05
3.02763e-06
-1.02475e-06
-6.38336e-05
-3.78686e-05
1.10388e-06
-3.89651e-05
1.94398e-06
-6.4671e-05
-9.06852e-05
3.72518e-06
-2.68205e-06
-9.18668e-05
3.85993e-06
-1.41605e-06
-6.59253e-05
-4.03529e-05
1.38693e-06
-4.17015e-05
2.6358e-06
-6.71636e-05
-9.29635e-05
3.71946e-06
-2.57582e-06
-9.4753e-05
4.36271e-06
-1.15801e-06
-6.85905e-05
-4.28289e-05
1.05735e-06
-4.38851e-05
2.84302e-06
-7.03885e-05
-9.65789e-05
4.64309e-06
-4.32108e-06
-9.95778e-05
7.23805e-06
-2.43689e-06
-7.22759e-05
-4.63064e-05
2.54517e-06
-4.88158e-05
6.49879e-06
-7.61685e-05
-0.000103722
1.03748e-05
6.74981e-05
-5.05684e-05
-0.000120915
2.69911e-05
-3.54712e-05
-2.15644e-05
2.54732e-06
-2.60986e-05
1.497e-05
-4.58438e-05
-6.59315e-05
3.07781e-05
-7.63958e-06
-7.30103e-05
1.59497e-05
-2.56015e-06
-5.15398e-05
-2.91513e-05
1.0379e-06
-3.018e-05
2.22062e-06
-5.2809e-05
-7.43121e-05
3.70139e-06
-2.80588e-07
-7.44313e-05
5.02182e-07
-3.95189e-07
-5.25754e-05
-3.04926e-05
1.58727e-06
-3.19294e-05
3.50633e-06
-5.43516e-05
-7.61466e-05
4.99987e-06
-2.14401e-06
-7.73653e-05
3.60873e-06
-9.83492e-07
-5.56202e-05
-3.31096e-05
2.0495e-06
-3.53278e-05
4.04673e-06
-5.7738e-05
-7.98173e-05
6.65502e-06
-2.41578e-06
-8.19147e-05
4.90241e-06
-1.31923e-06
-5.89451e-05
-3.68747e-05
2.2487e-06
-3.92444e-05
4.75444e-06
-6.15074e-05
-8.43658e-05
7.62356e-06
-4.58611e-06
-8.72002e-05
7.05694e-06
-2.20828e-06
-6.39082e-05
-4.1258e-05
2.87745e-06
-4.39393e-05
6.71389e-06
-6.7584e-05
-9.22773e-05
1.14195e-05
-9.5175e-06
-9.91358e-05
1.64695e-05
-4.27102e-06
-7.28832e-05
-4.82342e-05
-2.55748e-05
-2.24188e-05
-6.2631e-05
-3.55804e-05
-4.95421e-05
-0.000112303
-1.78021e-05
-6.56473e-05
3.39676e-05
-3.79438e-06
-4.63538e-05
-2.89992e-05
3.95659e-06
-3.35732e-05
1.09294e-05
-5.42966e-05
-7.41958e-05
2.11211e-05
-7.64628e-06
-8.07469e-05
1.36185e-05
-3.92053e-06
-5.78861e-05
-3.70907e-05
2.53175e-06
-3.96352e-05
6.44444e-06
-6.17935e-05
-8.4538e-05
1.02074e-05
-5.4688e-06
-8.80878e-05
9.0145e-06
-2.43102e-06
-6.48207e-05
-4.20727e-05
2.59965e-06
-4.47585e-05
5.66518e-06
-6.79113e-05
-9.17238e-05
9.53688e-06
-7.21043e-06
-9.6929e-05
1.21432e-05
-3.09457e-06
-7.19866e-05
-4.77323e-05
3.19404e-06
-5.09157e-05
7.00568e-06
-7.57989e-05
-0.000101512
1.15556e-05
6.5682e-05
-5.0359e-05
-0.000116679
2.68378e-05
-3.68586e-05
-2.41275e-05
8.62433e-06
-3.06632e-05
1.74705e-05
-4.79719e-05
-6.62141e-05
3.36949e-05
-1.22746e-05
-7.56917e-05
2.0729e-05
-4.69668e-06
-5.50228e-05
-3.51336e-05
2.70578e-06
-3.79986e-05
5.88085e-06
-5.833e-05
-7.89454e-05
9.42525e-06
-4.13664e-06
-8.09635e-05
5.78599e-06
-2.01877e-06
-6.04123e-05
-3.97669e-05
3.29905e-06
-4.29494e-05
6.81171e-06
-6.37972e-05
-8.66371e-05
1.2373e-05
-9.421e-06
-9.27269e-05
1.54477e-05
-4.43589e-06
-6.89456e-05
-4.73579e-05
-2.41176e-05
-2.29836e-05
-5.83154e-05
-3.43816e-05
-4.6878e-05
-0.00010424
-1.88831e-05
-6.22985e-05
3.46236e-05
-3.94534e-06
-4.60434e-05
-2.99273e-05
5.4634e-06
-3.6147e-05
1.24659e-05
-5.4011e-05
-7.22206e-05
2.43242e-05
-1.00741e-05
-8.06777e-05
1.78624e-05
-4.40506e-06
-5.95083e-05
-4.01637e-05
4.63732e-06
-4.47297e-05
9.72441e-06
-6.45352e-05
-8.73445e-05
1.61222e-05
-7.75625e-06
-9.16888e-05
1.19034e-05
-3.51794e-06
-6.88443e-05
-4.81583e-05
-2.49656e-05
-2.2947e-05
-5.91915e-05
-3.44325e-05
-4.61098e-05
-0.000104899
-1.82339e-05
-6.05672e-05
3.26767e-05
-4.52649e-06
-4.48834e-05
-3.02783e-05
4.50094e-06
-3.55534e-05
1.05995e-05
-5.19617e-05
-6.96511e-05
2.16251e-05
-9.16413e-06
-7.59721e-05
1.53999e-05
-4.05498e-06
-5.69325e-05
-3.94899e-05
4.68023e-06
-4.41588e-05
1.04123e-05
-6.27886e-05
-8.2802e-05
1.72442e-05
5.2817e-05
-4.25583e-05
-9.32473e-05
2.24421e-05
-3.19327e-05
-2.17789e-05
4.19837e-06
-2.92208e-05
1.85823e-05
-4.2663e-05
-5.6525e-05
3.29907e-05
-1.3081e-05
-6.81758e-05
2.65641e-05
-5.83172e-06
-5.10175e-05
-3.58946e-05
5.50756e-06
-4.11784e-05
1.25788e-05
-5.79591e-05
-7.68266e-05
2.10339e-05
-7.66718e-06
-8.14568e-05
1.22786e-05
-4.00538e-06
-6.1682e-05
-4.52133e-05
-2.25933e-05
-2.25968e-05
-5.25694e-05
-3.16943e-05
-4.18884e-05
-9.21613e-05
-1.88143e-05
-5.60009e-05
3.29342e-05
-7.54212e-06
-4.29448e-05
-3.01941e-05
6.75758e-06
-3.69824e-05
1.40149e-05
-5.00891e-05
-6.54026e-05
2.34575e-05
4.25668e-05
-3.41254e-05
-7.36623e-05
1.78388e-05
-2.56548e-05
-1.90446e-05
8.75905e-06
-2.59035e-05
1.61701e-05
-3.59352e-05
-4.73706e-05
3.01332e-05
-1.38551e-05
-5.55506e-05
2.19136e-05
-6.58611e-06
-4.30772e-05
-3.26017e-05
-1.63384e-05
-1.62353e-05
-3.78807e-05
-2.15815e-05
-2.78546e-05
-6.56361e-05
-1.08001e-05
-3.52736e-05
1.82271e-05
-5.07076e-06
-2.73045e-05
-2.13046e-05
-1.27082e-05
-8.59176e-06
-2.84991e-05
-1.15073e-05
-1.52018e-05
-4.85615e-05
7.932e-07
-1.6519e-05
5.21391e-07
5.66505e-07
-1.12842e-05
-8.02805e-06
-1.36027e-05
5.57377e-06
-3.24054e-05
7.51271e-06
9.60426e-06
-5.85373e-05
2.53908e-05
2.64171e-05
-4.22058e-05
1.17349e-05
2.11666e-05
1.73076e-05
-1.08414e-05
2.81485e-05
-2.39456e-05
3.42709e-05
4.28865e-05
-4.0414e-05
2.75737e-05
6.34883e-05
-4.81742e-05
1.15384e-05
5.03065e-05
3.96864e-05
-1.34829e-05
5.31697e-05
-3.28865e-05
6.97099e-05
8.96974e-05
-5.90964e-05
-4.88902e-05
5.56729e-05
8.29252e-05
-2.13182e-05
4.21472e-05
3.18598e-05
-1.91418e-05
5.09649e-05
-4.37095e-05
6.66848e-05
8.72588e-05
-7.53258e-05
-4.03746e-05
5.92817e-05
6.84139e-05
-1.83957e-05
4.472e-05
3.26078e-05
-2.41765e-05
5.67501e-05
-5.58013e-05
7.64281e-05
9.95408e-05
-9.62632e-05
-3.63523e-05
7.48579e-05
6.22343e-05
-1.62044e-05
5.53565e-05
4.00044e-05
9.19341e-06
2.62452e-05
3.39513e-05
3.69944e-05
4.90016e-05
5.9734e-05
4.73919e-05
8.62145e-05
-8.3894e-05
1.89399e-05
6.47667e-05
4.6468e-05
1.40661e-05
3.22966e-05
3.34788e-05
4.5732e-05
6.01784e-05
5.92903e-05
5.98676e-05
0.000107289
-0.000106965
2.4762e-05
8.07695e-05
5.70193e-05
1.41046e-05