/*--------------------------------*- C++ -*----------------------------------*\
| =========                 |                                                 |
| \\      /  F ield         | OpenFOAM: The Open Source CFD Toolbox           |
|  \\    /   O peration     | Version:  v2006                                 |
|   \\  /    A nd           | Website:  www.openfoam.com                      |
|    \\/     M anipulation  |                                                 |
\*---------------------------------------------------------------------------*/
FoamFile
{
    version     2.0;
    format      ascii;
    class       volScalarField;
    location    "0.115";
    object      turbulenceProperties:L;
}
// * * * * * * * * * * * * * * * * * * * * * * * * * * * * * * * * * * * * * //

dimensions      [0 1 0 0 0 0 0];


internalField   nonuniform List<scalar> 
16277
(
1998.46
1998.59
1999.58
1999.34
1999.16
1999.09
1999.19
1999.13
1998.74
1998.1
1997.36
1996.67
1996.08
1995.58
1995.13
1994.72
1994.32
1993.93
1993.54
1993.17
1992.81
1992.45
1992.11
1991.77
1991.44
1991.12
1990.8
1990.49
1990.19
1989.89
1989.59
1989.31
1989.03
1988.75
1988.49
1988.23
1987.98
1987.74
1987.51
1987.29
1987.08
1986.88
1986.69
1986.52
1986.36
1986.21
1986.07
1985.95
1985.85
1985.76
1985.69
1985.63
1985.59
1985.57
1985.57
1985.58
1985.62
1985.67
1985.75
1985.84
1985.95
1986.06
1986.18
1986.25
1986.18
1985.75
1984.4
1980.76
1971.2
1947.5
1896.71
1794.45
1607.79
1316.41
954.762
611.939
356.48
195.404
103.498
54.2378
28.431
15.2779
9.13117
7.01445
5.13148
4.27709
3.52446
1.93494
1.11798
0.885989
0.988349
0.374162
0.121353
0.0320748
0.0037253
0.000676234
4.70418e-05
4.51109e-05
0.000325013
0.00146002
0.000819233
0.000221171
4.31574e-05
4.18663e-05
0.000207442
0.000698858
0.000573419
0.000187014
4.15217e-05
4.10403e-05
0.000185002
0.000550565
0.000489888
0.000173553
4.07296e-05
4.03716e-05
0.000173034
0.000482193
0.000449742
0.000166466
4.01594e-05
4.00757e-05
0.000168994
0.000448781
0.0004286
0.000163765
3.99808e-05
3.99174e-05
0.00016628
0.000428799
0.000413559
0.000161754
3.98363e-05
3.97865e-05
0.000164
0.000414578
0.000401805
0.000159924
3.97153e-05
3.96745e-05
0.000161964
0.000403228
0.000391934
0.000158198
3.96113e-05
3.95762e-05
0.000160129
0.000393602
0.000383336
0.000156562
3.95184e-05
3.94872e-05
0.000158432
0.00038515
0.000375645
0.00015499
3.94332e-05
3.94049e-05
0.000156802
0.000377548
0.000368641
0.000153468
3.93535e-05
3.93271e-05
0.000155238
0.000370606
0.000362204
0.000152004
3.92774e-05
3.92524e-05
0.000153744
0.000364216
0.000356242
0.000150607
3.92039e-05
3.91797e-05
0.000152326
0.000358304
0.000350689
0.000149279
3.91319e-05
3.91083e-05
0.000150979
0.000352808
0.000345518
0.000148014
3.90609e-05
3.90376e-05
0.000149698
0.000347689
0.000340693
0.000146811
3.89903e-05
3.89671e-05
0.000148481
0.000342911
0.000336184
0.000145666
3.89197e-05
3.88965e-05
0.000147327
0.000338444
0.000331963
0.000144581
3.88488e-05
3.88254e-05
0.000146233
0.000334257
0.000327999
0.000143554
3.87773e-05
3.87537e-05
0.000145197
0.000330319
0.00032426
0.000142578
3.8705e-05
3.8681e-05
0.000144214
0.000326599
0.00032072
0.000141651
3.86316e-05
3.86071e-05
0.000143278
0.000323071
0.000317355
0.000140767
3.85568e-05
3.85317e-05
0.000142386
0.000319715
0.000314146
0.000139922
3.84803e-05
3.84545e-05
0.000141532
0.00031651
0.000311075
0.000139111
3.84018e-05
3.83752e-05
0.000140714
0.000313439
0.000308126
0.000138332
3.8321e-05
3.82934e-05
0.000139925
0.000310486
0.000305286
0.000137579
3.82375e-05
3.82088e-05
0.000139163
0.000307641
0.000302544
0.00013685
3.8151e-05
3.8121e-05
0.000138426
0.00030489
0.000299889
0.000136143
3.8061e-05
3.80296e-05
0.000137711
0.000302227
0.000297314
0.000135456
3.79672e-05
3.79342e-05
0.000137016
0.000299644
0.000294816
0.000134787
3.78691e-05
3.78344e-05
0.000136341
0.000297138
0.000292391
0.000134138
3.77663e-05
3.77298e-05
0.000135686
0.000294707
0.00029004
0.000133507
3.76585e-05
3.76199e-05
0.000135056
0.000292352
0.000287763
0.000132899
3.75452e-05
3.75045e-05
0.000134462
0.000290076
0.000285567
0.000132318
3.7426e-05
3.73832e-05
0.000133892
0.000287886
0.000283456
0.00013176
3.73008e-05
3.72558e-05
0.000133352
0.000285784
0.000281436
0.000131234
3.71693e-05
3.71221e-05
0.000132848
0.000283782
0.000279519
0.000130744
3.70314e-05
3.69821e-05
0.000132389
0.000281893
0.000277725
0.000130302
3.68873e-05
3.68361e-05
0.000131986
0.000280139
0.000276076
0.000129918
3.67373e-05
3.66847e-05
0.000131652
0.000278585
0.000274616
0.000129607
3.65821e-05
3.65287e-05
0.000131406
0.000277266
0.000273379
0.000129389
3.64232e-05
3.63699e-05
0.000131266
0.000276186
0.000272397
0.000129285
3.62623e-05
3.62104e-05
0.000131256
0.000275406
0.000271732
0.000129318
3.61021e-05
3.60532e-05
0.000131405
0.000274995
0.000271459
0.000129519
3.59461e-05
3.59025e-05
0.000131743
0.000275032
0.000271659
0.000129925
3.57986e-05
3.57634e-05
0.00013228
0.000275597
0.000272418
0.000130558
3.56662e-05
3.56413e-05
0.000132967
0.000276745
0.000273773
0.000131339
3.55568e-05
3.55426e-05
0.000133827
0.000278613
0.000275848
0.000132314
3.54742e-05
3.54722e-05
0.000134873
0.0002812
0.000278626
0.000133477
3.54269e-05
3.5435e-05
0.000136072
0.000284445
0.000282051
0.000134803
3.54211e-05
3.54331e-05
0.000137376
0.000288221
0.000285977
0.000136178
3.54273e-05
3.54678e-05
0.000138698
0.000292478
0.000290364
0.000137506
3.54742e-05
3.55355e-05
0.000139925
0.000297093
0.00029504
0.000138745
3.5554e-05
3.56318e-05
0.000140947
0.000301677
0.00029959
0.00013977
3.56588e-05
3.57466e-05
0.000141752
0.000305924
0.000303737
0.000140493
3.57794e-05
3.58728e-05
0.000142399
0.000309675
0.000307376
0.000140976
3.59092e-05
3.60057e-05
0.000142804
0.000312843
0.000310434
0.000141282
3.60441e-05
3.61409e-05
0.000143007
0.000315385
0.000312855
0.000141326
3.61793e-05
3.62736e-05
0.000142984
0.000317299
0.000314591
0.000141163
3.63107e-05
3.64007e-05
0.000142759
0.00031857
0.000315615
0.000140821
3.64355e-05
3.65196e-05
0.000142352
0.000319406
0.000316051
0.000140337
3.65513e-05
3.66282e-05
0.000141813
0.000319583
0.000315836
0.000139668
3.66564e-05
3.67255e-05
0.000141167
0.000319115
0.000314768
0.000138811
3.675e-05
3.68108e-05
0.00014031
0.000317945
0.00031326
0.000137884
3.68312e-05
3.68834e-05
0.000139386
0.000316345
0.000311444
0.000136935
3.68997e-05
3.69436e-05
0.000138439
0.000314422
0.000309375
0.000135999
3.6956e-05
3.6992e-05
0.000137498
0.00031224
0.000307126
0.000135104
3.70008e-05
3.70296e-05
0.000136592
0.000309879
0.000304771
0.000134266
3.70352e-05
3.70579e-05
0.00013574
0.00030742
0.00030237
0.000133495
3.70606e-05
3.70779e-05
0.000134948
0.000304915
0.00029997
0.000132791
3.70783e-05
3.70907e-05
0.000134219
0.000302425
0.000297598
0.000132149
3.70896e-05
3.70981e-05
0.00013355
0.000300002
0.000295307
0.000131565
3.70958e-05
3.71015e-05
0.000132936
0.000297669
0.000293116
0.000131033
3.70981e-05
3.71016e-05
0.000132378
0.000295461
0.000291023
0.00013053
3.70968e-05
3.7099e-05
0.00013186
0.000293359
0.000289029
0.000130044
3.70919e-05
3.70935e-05
0.000131389
0.000291349
0.000287118
0.000129619
3.70847e-05
3.70857e-05
0.000130946
0.000289422
0.000285257
0.000129178
3.70759e-05
3.70776e-05
0.000130516
0.000287559
0.000283502
0.000128786
3.70666e-05
3.7067e-05
0.000130117
0.000285789
0.000281784
0.000128399
3.70555e-05
3.70555e-05
0.000129724
0.000284072
0.000280109
0.000128029
3.70438e-05
3.70436e-05
0.00012935
0.000282416
0.000278493
0.000127659
3.70314e-05
3.70317e-05
0.000128978
0.000280816
0.000276941
0.000127297
3.70184e-05
3.70186e-05
0.00012862
0.000279278
0.000275441
0.000126947
3.6997e-05
3.70129e-05
0.000128276
0.000277806
0.000273802
0.000126576
3.69762e-05
3.69994e-05
0.000127801
0.000276459
0.000272596
0.000125896
3.69322e-05
3.71171e-05
0.000128104
0.000276639
0.000274143
0.000128002
3.72235e-05
3.77424e-05
0.000128389
0.000277339
0.000290699
0.000134783
3.84472e-05
4.11153e-05
0.000127565
0.000283212
0.000420866
0.00023562
4.70801e-05
4.18589e-05
9.89378e-05
0.000220317
0.000497198
0.00104737
0.00181625
0.00244915
0.00284767
0.00358541
0.00402899
0.00441521
0.00461618
0.00469694
0.0046421
0.00443596
0.0041616
0.00372753
0.00331052
0.00266391
0.00237927
0.00181489
0.00142325
0.00102155
0.000619066
0.000299912
0.000116318
5.02594e-05
1.28823e-05
1.18339e-05
4.63738e-05
0.000105837
9.98945e-05
4.38874e-05
1.10211e-05
1.04069e-05
4.20154e-05
9.46179e-05
9.46364e-05
4.16739e-05
1.02068e-05
1.00865e-05
4.14167e-05
9.32745e-05
9.30402e-05
4.09925e-05
9.96362e-06
9.95451e-06
4.09274e-05
9.28724e-05
9.30372e-05
4.09517e-05
9.96363e-06
9.96189e-06
4.09571e-05
9.31203e-05
9.32017e-05
4.09814e-05
9.97305e-06
9.9789e-06
4.10107e-05
9.33613e-05
9.34331e-05
4.10334e-05
9.985e-06
9.99701e-06
4.10703e-05
9.35979e-05
9.36939e-05
4.10885e-05
9.99171e-06
1.00046e-05
4.11375e-05
9.3861e-05
9.39637e-05
4.11591e-05
1.00107e-05
1.00238e-05
4.12044e-05
9.41508e-05
9.42399e-05
4.12248e-05
1.00249e-05
1.00265e-05
4.12852e-05
9.44364e-05
9.45229e-05
4.1303e-05
1.00444e-05
1.00467e-05
4.1354e-05
9.47064e-05
9.47991e-05
4.13684e-05
1.00538e-05
1.00552e-05
4.14342e-05
9.50118e-05
9.51073e-05
4.14551e-05
1.00741e-05
1.00762e-05
4.15084e-05
9.5312e-05
9.54111e-05
4.15337e-05
1.00838e-05
1.00855e-05
4.15945e-05
9.56234e-05
9.57194e-05
4.16184e-05
1.01049e-05
1.01068e-05
4.16724e-05
9.593e-05
9.60291e-05
4.16958e-05
1.01147e-05
1.01167e-05
4.17619e-05
9.62434e-05
9.63392e-05
4.17826e-05
1.01362e-05
1.01383e-05
4.1839e-05
9.65501e-05
9.66488e-05
4.18622e-05
1.01462e-05
1.01487e-05
4.19298e-05
9.6869e-05
9.6969e-05
4.19522e-05
1.01625e-05
1.01765e-05
4.20057e-05
9.71922e-05
9.72947e-05
4.20392e-05
1.01788e-05
1.01819e-05
4.21055e-05
9.75183e-05
9.76224e-05
4.21366e-05
1.01958e-05
1.02104e-05
4.21923e-05
9.78455e-05
9.79486e-05
4.22236e-05
1.0213e-05
1.02163e-05
4.22962e-05
9.81776e-05
9.82809e-05
4.23252e-05
1.02301e-05
1.02453e-05
4.23858e-05
9.84965e-05
9.86001e-05
4.24157e-05
1.02478e-05
1.0251e-05
4.24894e-05
9.88289e-05
9.89299e-05
4.25153e-05
1.0265e-05
1.02801e-05
4.25771e-05
9.9143e-05
9.92469e-05
4.2607e-05
1.02825e-05
1.0286e-05
4.26775e-05
9.94574e-05
9.9549e-05
4.26988e-05
1.03002e-05
1.03149e-05
4.27614e-05
9.97534e-05
9.98407e-05
4.27808e-05
1.0317e-05
1.03208e-05
4.28479e-05
0.00010004
0.000100123
4.28648e-05
1.03343e-05
1.03488e-05
4.29234e-05
0.000100314
0.000100382
4.29321e-05
1.0351e-05
1.0354e-05
4.29953e-05
0.000100564
0.000100622
4.30002e-05
1.03671e-05
1.03814e-05
4.30481e-05
0.000100787
0.000100831
4.30422e-05
1.03826e-05
1.03844e-05
4.30858e-05
0.000100981
0.000101011
4.30759e-05
1.04025e-05
1.0404e-05
4.30958e-05
0.000101134
0.000101155
4.30757e-05
1.04103e-05
1.04105e-05
4.30843e-05
0.000101253
0.000101253
4.30448e-05
1.04276e-05
1.04267e-05
4.30242e-05
0.00010131
0.000101287
4.29603e-05
1.04315e-05
1.04294e-05
4.29175e-05
0.000101298
0.000101251
4.28201e-05
1.04388e-05
1.0448e-05
4.27428e-05
0.000101242
0.00010116
4.26179e-05
1.04453e-05
1.04432e-05
4.25073e-05
0.000101137
0.000101034
4.23568e-05
1.04526e-05
1.0463e-05
4.22215e-05
0.000101035
0.000100899
4.2032e-05
1.04624e-05
1.04625e-05
4.18692e-05
0.000100895
0.000100716
4.16438e-05
1.04809e-05
1.04842e-05
4.14414e-05
0.000100718
0.000100498
4.11763e-05
1.04953e-05
1.05034e-05
4.09398e-05
0.000100507
0.000100271
4.06248e-05
1.05251e-05
1.05525e-05
4.03772e-05
0.000100408
0.000100304
4.00632e-05
1.05719e-05
1.06058e-05
3.9813e-05
0.000100574
0.000100601
3.9524e-05
1.06464e-05
1.06958e-05
3.92706e-05
0.000100991
0.00010124
3.89992e-05
1.07548e-05
1.0826e-05
3.88042e-05
0.000101892
0.000102634
3.86365e-05
1.09086e-05
1.10013e-05
3.86399e-05
0.000103803
0.000105532
3.9309e-05
1.11811e-05
1.13546e-05
3.9831e-05
0.000106859
0.000107694
3.99661e-05
1.13319e-05
1.14707e-05
3.94716e-05
0.000108875
0.000110671
4.16709e-05
1.1729e-05
1.18772e-05
4.08914e-05
0.00011155
0.000112808
4.20437e-05
1.21538e-05
1.24033e-05
4.26625e-05
0.000114485
0.000114773
4.35502e-05
1.27613e-05
1.323e-05
4.54519e-05
0.000116708
0.000116657
4.64239e-05
1.36226e-05
1.393e-05
4.75348e-05
0.000117613
0.000117122
4.83022e-05
1.45902e-05
1.57481e-05
5.38932e-05
0.000119089
0.000117035
5.58884e-05
1.08485e-05
6.23295e-06
1.64853e-05
4.16579e-05
0.000100032
3.5843e-05
8.34657e-06
9.22209e-06
3.2151e-05
9.26181e-05
9.70564e-05
3.38179e-05
9.44756e-06
9.63466e-06
3.2325e-05
9.32813e-05
9.85627e-05
3.46796e-05
1.00335e-05
1.04996e-05
3.42314e-05
9.7145e-05
0.000104112
3.82239e-05
1.10857e-05
1.17099e-05
3.78448e-05
0.00010199
0.0001086
4.2782e-05
1.24552e-05
1.33698e-05
4.32898e-05
0.000108279
0.00011458
4.93798e-05
1.4899e-05
1.05653e-05
5.39253e-05
0.000114712
4.10123e-05
1.59275e-05
6.52868e-06
9.00343e-06
3.7727e-05
0.000104513
0.000101452
3.51446e-05
1.06501e-05
1.18223e-05
4.42384e-05
0.000118781
0.000119399
4.41843e-05
1.2674e-05
1.3713e-05
4.95894e-05
0.000127937
0.000129369
5.1807e-05
1.48509e-05
1.64339e-05
5.87812e-05
0.000135762
0.000130944
6.08173e-05
1.16135e-05
6.9816e-06
1.71664e-05
4.68348e-05
0.000114169
4.23689e-05
9.64687e-06
1.10814e-05
3.93831e-05
0.000110703
0.000121394
4.62539e-05
1.20007e-05
1.30582e-05
4.56086e-05
0.000118679
0.000126864
5.37023e-05
1.48602e-05
1.07994e-05
5.98758e-05
0.000125185
4.57404e-05
1.75902e-05
6.72483e-06
9.59527e-06
4.12511e-05
0.000116784
0.000117588
4.22645e-05
1.17459e-05
1.39022e-05
5.47643e-05
0.000140871
0.000143563
6.10446e-05
1.59391e-05
1.15488e-05
6.67939e-05
0.000140864
5.20475e-05
1.90361e-05
6.92407e-06
9.88919e-06
4.89801e-05
0.000128698
0.000125954
4.6499e-05
1.2176e-05
1.46068e-05
6.11926e-05
0.000146649
0.000145783
6.81893e-05
1.08977e-05
6.78352e-06
1.9974e-05
5.67263e-05
0.000146021
5.47443e-05
1.04098e-05
1.36834e-05
5.55333e-05
0.000152191
0.000193212
8.11177e-05
1.68831e-05
1.27951e-05
8.32825e-05
0.000182996
7.67312e-05
2.59005e-05
8.22811e-06
1.34972e-05
7.82991e-05
0.000190362
0.000185932
7.95854e-05
1.11968e-05
7.6983e-06
2.5695e-05
8.2629e-05
0.000236761
9.06377e-05
1.40481e-05
1.24392e-05
9.88627e-05
0.000249192
0.000119992
4.20379e-05
9.66792e-06
1.1067e-05
0.000100653
0.00027283
0.000186719
7.29839e-05
1.01021e-05
1.36146e-05
0.000107823
0.00031993
0.000266183
9.03171e-05
1.12647e-05
1.11418e-05
8.69513e-05
0.00025687
0.00028005
9.68428e-05
1.30472e-05
1.7071e-05
0.000171698
0.000472475
0.000104834
3.92156e-05
1.41118e-05
1.31158e-05
9.56242e-05
0.000203419
7.48945e-05
3.15539e-05
1.21625e-05
1.352e-05
6.9238e-05
0.00014831
0.000133027
5.61023e-05
1.47272e-05
8.2256e-06
1.97388e-05
4.89944e-05
9.9806e-05
6.62728e-05
9.94553e-06
1.05356e-05
2.5071e-05
5.50316e-05
0.000115841
5.84732e-05
1.2852e-05
1.47697e-05
5.12501e-05
0.000109494
4.60465e-05
1.97629e-05
8.93775e-06
1.17289e-05
5.31929e-05
0.000100837
9.66859e-05
4.72299e-05
1.39797e-05
8.54799e-06
1.8315e-05
4.17692e-05
9.32319e-05
4.94734e-05
1.12521e-05
1.36009e-05
4.50582e-05
8.97288e-05
3.97756e-05
1.79469e-05
8.49544e-06
1.10845e-05
4.72155e-05
8.85232e-05
8.43793e-05
4.3215e-05
1.34372e-05
8.41613e-06
1.72253e-05
3.78581e-05
8.38221e-05
4.50041e-05
1.09601e-05
1.3454e-05
4.12336e-05
8.02516e-05
3.63014e-05
1.69477e-05
8.51798e-06
1.1113e-05
4.40384e-05
8.02549e-05
7.65857e-05
4.03865e-05
1.35616e-05
8.50947e-06
1.6656e-05
3.5385e-05
7.74912e-05
4.27589e-05
1.10493e-05
1.37085e-05
3.94689e-05
7.42869e-05
3.55435e-05
1.7082e-05
8.85401e-06
1.16447e-05
4.46139e-05
7.79756e-05
7.15869e-05
3.77607e-05
1.50635e-05
1.1093e-05
3.1433e-05
6.25061e-05
2.86052e-05
1.38031e-05
7.15326e-06
9.18183e-06
3.4025e-05
6.12231e-05
6.00277e-05
3.20326e-05
1.15963e-05
7.26728e-06
1.31696e-05
2.8502e-05
5.92957e-05
3.34575e-05
9.26609e-06
1.17751e-05
3.14375e-05
5.75959e-05
2.78746e-05
1.4061e-05
7.46143e-06
9.31341e-06
3.29507e-05
5.61972e-05
5.48965e-05
3.10295e-05
1.168e-05
7.33955e-06
1.29597e-05
2.703e-05
5.46397e-05
3.18498e-05
9.28011e-06
1.17698e-05
3.02791e-05
5.31779e-05
2.66707e-05
1.28774e-05
7.30274e-06
9.13992e-06
3.04632e-05
5.23945e-05
5.16655e-05
2.99964e-05
1.17518e-05
7.47647e-06
1.31692e-05
2.57835e-05
5.11677e-05
3.08506e-05
9.26479e-06
1.17422e-05
2.88842e-05
4.96802e-05
2.51359e-05
1.30078e-05
7.32376e-06
8.90087e-06
2.95088e-05
4.83029e-05
4.7508e-05
2.78148e-05
1.12344e-05
6.95727e-06
1.2032e-05
2.33139e-05
4.28384e-05
3.48458e-05
8.00322e-06
9.42322e-06
1.51175e-05
2.70066e-05
5.44192e-05
3.25492e-05
1.11909e-05
1.35792e-05
3.05883e-05
5.19728e-05
2.70836e-05
1.43569e-05
8.41452e-06
1.02533e-05
3.21526e-05
5.15732e-05
4.99223e-05
2.99194e-05
1.30169e-05
8.28774e-06
1.4209e-05
2.64843e-05
5.10614e-05
3.1895e-05
1.01806e-05
1.28313e-05
2.99523e-05
4.96036e-05
2.58788e-05
1.39389e-05
8.0922e-06
9.81908e-06
3.05406e-05
4.81881e-05
4.66663e-05
2.80611e-05
1.2526e-05
7.90242e-06
1.3601e-05
2.4758e-05
4.59463e-05
2.90103e-05
9.42379e-06
1.18223e-05
2.70776e-05
4.41712e-05
2.25517e-05
1.26108e-05
7.23757e-06
8.11702e-06
3.21731e-05
3.90739e-05
2.48969e-05
1.49777e-05
9.48222e-06
1.09431e-05
2.86004e-05
4.64542e-05
4.40841e-05
2.66756e-05
1.32688e-05
8.15312e-06
1.39331e-05
2.39973e-05
4.33126e-05
2.81065e-05
9.6713e-06
1.2176e-05
2.63242e-05
4.11267e-05
2.20437e-05
1.30416e-05
7.5783e-06
8.356e-06
3.02027e-05
3.73281e-05
2.42923e-05
1.50774e-05
9.80371e-06
1.13143e-05
2.85409e-05
4.47908e-05
4.21181e-05
2.62901e-05
1.35953e-05
8.33017e-06
1.40326e-05
2.34852e-05
4.21698e-05
2.76589e-05
9.88577e-06
1.23164e-05
2.52826e-05
3.99165e-05
2.14411e-05
1.29683e-05
7.54544e-06
8.3261e-06
2.88193e-05
3.53861e-05
2.32381e-05
1.47823e-05
9.75347e-06
1.10642e-05
2.70097e-05
4.22968e-05
3.97254e-05
2.49629e-05
1.32817e-05
8.15892e-06
1.37819e-05
2.22189e-05
3.91946e-05
2.59715e-05
9.76475e-06
1.21183e-05
2.37596e-05
3.72237e-05
1.9972e-05
1.19686e-05
7.25729e-06
8.06834e-06
2.4807e-05
3.28183e-05
2.18549e-05
1.40565e-05
9.53645e-06
1.08675e-05
2.62708e-05
3.9278e-05
3.65868e-05
2.34347e-05
1.2962e-05
7.6322e-06
1.27957e-05
2.01444e-05
3.24868e-05
2.69034e-05
8.2647e-06
9.6177e-06
1.45598e-05
2.18606e-05
3.89186e-05
2.49967e-05
1.08667e-05
1.32324e-05
2.30836e-05
3.63915e-05
2.0169e-05
1.27222e-05
7.89501e-06
8.50196e-06
2.53497e-05
3.2307e-05
2.19816e-05
1.47198e-05
9.87715e-06
1.10045e-05
2.56625e-05
3.86728e-05
3.59426e-05
2.30833e-05
1.32687e-05
7.79151e-06
1.25634e-05
1.98761e-05
3.18303e-05
2.53648e-05
8.30933e-06
9.79644e-06
1.4525e-05
2.16435e-05
3.79128e-05
2.50692e-05
1.10579e-05
1.3249e-05
2.27284e-05
3.53867e-05
1.98204e-05
1.30515e-05
7.93902e-06
8.52323e-06
2.62351e-05
3.12841e-05
2.14889e-05
1.48675e-05
9.85545e-06
1.08909e-05
2.43957e-05
3.73138e-05
3.4649e-05
2.21983e-05
1.29404e-05
7.61199e-06
1.22776e-05
1.91401e-05
3.01216e-05
2.42576e-05
8.11153e-06
9.23132e-06
1.41856e-05
2.0779e-05
3.28964e-05
2.52578e-05
9.54149e-06
1.08987e-05
1.53754e-05
2.24761e-05
3.78605e-05
2.4685e-05
1.18146e-05
1.3745e-05
2.23431e-05
3.50047e-05
1.97591e-05
1.29372e-05
8.03746e-06
8.56182e-06
2.52406e-05
3.08065e-05
2.1321e-05
1.49481e-05
1.00389e-05
1.10702e-05
2.41734e-05
3.63681e-05
3.38664e-05
2.18901e-05
1.30885e-05
7.62758e-06
1.22879e-05
1.88957e-05
2.94295e-05
2.35993e-05
8.16576e-06
9.33534e-06
1.41772e-05
2.05638e-05
3.21389e-05
2.47558e-05
9.61001e-06
1.07229e-05
1.54729e-05
2.2201e-05
3.69895e-05
2.42359e-05
1.16128e-05
1.37225e-05
2.21111e-05
3.42622e-05
1.94588e-05
1.31253e-05
8.14711e-06
8.50162e-06
2.59296e-05
2.9802e-05
2.11774e-05
1.51874e-05
9.75041e-06
9.91266e-06
2.52588e-05
3.26777e-05
2.2536e-05
1.5833e-05
1.10656e-05
1.18705e-05
2.41367e-05
3.72739e-05
3.4349e-05
2.19475e-05
1.3881e-05
8.15043e-06
1.30518e-05
1.96069e-05
2.99304e-05
2.50664e-05
8.49432e-06
9.693e-06
1.49353e-05
2.11428e-05
3.23895e-05
2.53326e-05
9.94976e-06
1.11395e-05
1.58339e-05
2.25169e-05
3.70536e-05
2.42607e-05
1.20522e-05
1.4084e-05
2.21864e-05
3.42432e-05
1.97645e-05
1.34549e-05
8.39447e-06
8.81603e-06
2.57913e-05
3.00126e-05
2.14133e-05
1.54104e-05
1.00359e-05
1.0171e-05
2.54494e-05
3.25642e-05
2.26714e-05
1.59836e-05
1.11561e-05
1.1838e-05
2.40236e-05
3.69395e-05
3.39872e-05
2.19332e-05
1.37098e-05
8.13877e-06
1.3297e-05
1.94474e-05
2.9054e-05
2.60295e-05
8.47338e-06
9.58389e-06
1.49829e-05
2.07228e-05
3.13904e-05
2.47121e-05
9.87155e-06
1.09258e-05
1.55341e-05
2.18731e-05
3.54794e-05
2.3284e-05
1.178e-05
1.37992e-05
2.14586e-05
3.27811e-05
1.91533e-05
1.32956e-05
8.28017e-06
8.61474e-06
2.55833e-05
2.86787e-05
2.05576e-05
1.48101e-05
9.59708e-06
9.71729e-06
2.40343e-05
3.0859e-05
2.17823e-05
1.54329e-05
1.06846e-05
1.05104e-05
2.48024e-05
3.21697e-05
2.26984e-05
1.6442e-05
1.15997e-05
1.2383e-05
2.40752e-05
3.60994e-05
3.31437e-05
2.18627e-05
1.42277e-05
8.26896e-06
1.30428e-05
1.92379e-05
2.88629e-05
2.41061e-05
8.54913e-06
9.6495e-06
1.47091e-05
2.06548e-05
3.05825e-05
2.42667e-05
9.79862e-06
1.06524e-05
1.53896e-05
2.17966e-05
3.1815e-05
2.45646e-05
1.056e-05
1.16334e-05
1.6343e-05
2.25731e-05
3.56303e-05
2.38055e-05
1.22846e-05
1.42296e-05
2.19245e-05
3.28666e-05
1.94673e-05
1.35795e-05
8.52326e-06
8.76335e-06
2.58717e-05
2.8604e-05
2.07875e-05
1.5192e-05
9.85956e-06
1.00285e-05
2.40474e-05
3.0825e-05
2.19811e-05
1.57059e-05
1.09607e-05
1.08701e-05
2.49287e-05
3.19978e-05
2.28471e-05
1.66338e-05
1.18905e-05
1.25369e-05
2.40671e-05
3.57663e-05
3.29078e-05
2.20682e-05
1.43986e-05
8.56196e-06
1.3637e-05
1.9618e-05
2.8661e-05
2.58718e-05
8.77695e-06
9.82712e-06
1.51709e-05
2.08243e-05
3.03616e-05
2.39512e-05
9.8377e-06
1.06802e-05
1.53601e-05
2.16411e-05
3.12171e-05
2.42592e-05
1.05812e-05
1.16692e-05
1.63116e-05
2.24421e-05
3.47253e-05
2.34563e-05
1.23873e-05
1.42375e-05
2.15416e-05
3.22409e-05
1.9146e-05
1.31753e-05
8.41249e-06
8.8361e-06
2.34488e-05
2.80371e-05
2.05724e-05
1.49045e-05
9.95035e-06
1.00105e-05
2.44717e-05
3.01149e-05
2.16329e-05
1.54766e-05
1.07614e-05
1.03749e-05
2.38985e-05
3.08963e-05
2.22649e-05
1.59743e-05
1.12207e-05
1.10812e-05
2.4908e-05
3.16512e-05
2.28015e-05
1.68802e-05
1.20416e-05
1.25401e-05
2.38484e-05
3.50529e-05
3.23996e-05
2.19109e-05
1.43147e-05
8.49991e-06
1.35856e-05
1.95544e-05
2.80174e-05
2.55505e-05
8.75754e-06
9.82148e-06
1.49885e-05
2.05575e-05
2.94249e-05
2.33543e-05
9.99013e-06
1.08204e-05
1.53614e-05
2.1377e-05
3.02624e-05
2.36831e-05
1.052e-05
1.13484e-05
1.5982e-05
2.20662e-05
3.13108e-05
2.46662e-05
1.11314e-05
1.20897e-05
1.68906e-05
2.27684e-05
3.49359e-05
2.39197e-05
1.27583e-05
1.47247e-05
2.21644e-05
3.24403e-05
1.9837e-05
1.39859e-05
8.88568e-06
9.21044e-06
2.56594e-05
2.82422e-05
2.08413e-05
1.54001e-05
1.02298e-05
1.01594e-05
2.3973e-05
3.00993e-05
2.18291e-05
1.57253e-05
1.10504e-05
1.08489e-05
2.42946e-05
3.08902e-05
2.24674e-05
1.63137e-05
1.1613e-05
1.13041e-05
2.50856e-05
3.16887e-05
2.30991e-05
1.72128e-05
1.23257e-05
1.29581e-05
2.41099e-05
3.49925e-05
3.24475e-05
2.2166e-05
1.47102e-05
8.86417e-06
1.40078e-05
1.99767e-05
2.81434e-05
2.55686e-05
9.18122e-06
1.01306e-05
1.541e-05
2.09759e-05
2.96001e-05
2.36793e-05
1.00862e-05
1.09145e-05
1.5585e-05
2.17029e-05
3.01984e-05
2.37953e-05
1.07103e-05
1.15256e-05
1.61778e-05
2.22431e-05
3.11263e-05
2.46993e-05
1.14703e-05
1.2412e-05
1.71556e-05
2.28411e-05
3.43573e-05
2.40577e-05
1.3087e-05
1.49736e-05
2.22433e-05
3.21281e-05
1.99993e-05
1.41405e-05
9.01403e-06
9.31498e-06
2.54866e-05
2.81413e-05
2.10202e-05
1.5556e-05
1.0314e-05
1.03414e-05
2.39488e-05
2.97928e-05
2.19758e-05
1.59079e-05
1.12145e-05
1.09575e-05
2.41666e-05
3.05851e-05
2.25589e-05
1.64249e-05
1.17049e-05
1.15025e-05
2.49721e-05
3.13082e-05
2.30154e-05
1.72016e-05
1.23992e-05
1.29739e-05
2.3925e-05
3.43376e-05
3.19732e-05
2.20366e-05
1.47505e-05
8.86285e-06
1.4021e-05
1.9896e-05
2.75654e-05
2.54724e-05
9.22406e-06
1.0166e-05
1.53196e-05
2.07418e-05
2.87885e-05
2.31373e-05
1.0222e-05
1.11091e-05
1.56356e-05
2.14696e-05
2.9447e-05
2.35111e-05
1.0834e-05
1.15375e-05
1.61286e-05
2.19942e-05
3.02026e-05
2.41693e-05
1.12729e-05
1.19753e-05
1.67117e-05
2.26031e-05
3.1174e-05
2.51322e-05
1.17258e-05
1.27011e-05
1.75251e-05
2.31844e-05
3.45703e-05
2.43101e-05
1.35088e-05
1.54266e-05
2.25257e-05
3.23625e-05
2.03071e-05
1.43995e-05
9.32354e-06
9.68803e-06
2.50432e-05
2.83873e-05
2.14641e-05
1.59626e-05
1.08005e-05
1.08853e-05
2.45943e-05
3.00194e-05
2.2403e-05
1.64176e-05
1.1697e-05
1.14847e-05
2.46593e-05
3.08663e-05
2.3033e-05
1.69231e-05
1.22088e-05
1.19676e-05
2.54192e-05
3.17935e-05
2.36935e-05
1.78551e-05
1.29846e-05
1.36897e-05
2.46603e-05
3.48843e-05
3.24661e-05
2.27576e-05
1.55108e-05
9.39085e-06
1.46112e-05
2.0468e-05
2.83464e-05
2.55677e-05
9.75471e-06
1.08011e-05
1.60149e-05
2.15687e-05
2.95693e-05
2.42434e-05
1.07487e-05
1.1536e-05
1.62374e-05
2.22562e-05
3.0077e-05
2.42492e-05
1.14225e-05
1.21199e-05
1.67728e-05
2.27186e-05
3.08297e-05
2.48874e-05
1.19056e-05
1.28706e-05
1.76233e-05
2.32247e-05
3.39325e-05
2.4187e-05
1.37103e-05
1.56631e-05
2.2516e-05
3.18271e-05
2.03113e-05
1.45021e-05
9.48978e-06
9.8391e-06
2.47341e-05
2.80102e-05
2.14977e-05
1.60957e-05
1.1005e-05
1.11199e-05
2.45735e-05
2.959e-05
2.24541e-05
1.65839e-05
1.19088e-05
1.16474e-05
2.45495e-05
3.03821e-05
2.30125e-05
1.71104e-05
1.24015e-05
1.22801e-05
2.52109e-05
3.13114e-05
2.36932e-05
1.80345e-05
1.325e-05
1.39694e-05
2.46275e-05
3.43549e-05
3.20505e-05
2.28123e-05
1.57925e-05
9.62291e-06
1.48104e-05
2.06178e-05
2.82622e-05
2.55638e-05
9.92105e-06
1.09176e-05
1.61272e-05
2.16444e-05
2.93552e-05
2.42411e-05
1.10346e-05
1.18463e-05
1.64431e-05
2.23577e-05
2.98908e-05
2.4301e-05
1.1671e-05
1.24534e-05
1.70644e-05
2.286e-05
3.06778e-05
2.49142e-05
1.22729e-05
1.33083e-05
1.80097e-05
2.34363e-05
3.37514e-05
2.44535e-05
1.42132e-05
1.61025e-05
2.28853e-05
3.17522e-05
2.08432e-05
1.51728e-05
9.94771e-06
1.03591e-05
2.55081e-05
2.84206e-05
2.19752e-05
1.66395e-05
1.13397e-05
1.14743e-05
2.518e-05
2.99558e-05
2.29012e-05
1.71208e-05
1.22963e-05
1.20929e-05
2.52158e-05
3.08481e-05
2.34028e-05
1.77977e-05
1.31021e-05
1.39152e-05
2.40501e-05
3.35822e-05
3.13968e-05
2.24583e-05
1.57385e-05
9.65985e-06
1.48106e-05
2.04284e-05
2.75787e-05
2.51172e-05
1.00657e-05
1.10659e-05
1.63077e-05
2.15252e-05
2.8878e-05
2.44194e-05
1.12201e-05
1.20312e-05
1.66642e-05
2.22959e-05
2.97178e-05
2.4302e-05
1.20659e-05
1.31237e-05
1.76148e-05
2.28801e-05
3.25255e-05
2.37111e-05
1.39467e-05
1.58418e-05
2.22642e-05
3.06789e-05
2.02839e-05
1.4708e-05
9.77457e-06
1.01396e-05
2.42536e-05
2.72389e-05
2.14254e-05
1.62679e-05
1.12051e-05
1.14178e-05
2.44299e-05
2.89655e-05
2.24263e-05
1.69327e-05
1.23015e-05
1.22013e-05
2.4506e-05
2.98916e-05
2.29879e-05
1.7634e-05
1.3091e-05
1.38761e-05
2.36564e-05
3.24671e-05
3.05322e-05
2.21981e-05
1.57783e-05
9.70421e-06
1.48023e-05
2.03559e-05
2.71139e-05
2.49456e-05
1.01188e-05
1.11822e-05
1.63883e-05
2.14031e-05
2.8393e-05
2.4248e-05
1.14253e-05
1.22358e-05
1.68026e-05
2.21998e-05
2.93369e-05
2.40892e-05
1.22468e-05
1.3296e-05
1.77663e-05
2.28457e-05
3.21733e-05
2.36952e-05
1.41777e-05
1.60302e-05
2.24149e-05
3.04539e-05
2.05438e-05
1.52195e-05
9.99089e-06
1.04944e-05
2.51167e-05
2.7464e-05
2.16646e-05
1.67382e-05
1.15516e-05
1.17608e-05
2.46864e-05
2.90327e-05
2.26924e-05
1.73171e-05
1.26258e-05
1.2702e-05
2.46953e-05
3.00777e-05
2.33892e-05
1.82123e-05
1.36551e-05
1.44634e-05
2.41699e-05
3.27853e-05
3.09604e-05
2.27869e-05
1.63102e-05
1.01943e-05
1.53811e-05
2.09367e-05
2.77331e-05
2.52316e-05
1.06893e-05
1.17135e-05
1.70079e-05
2.20276e-05
2.93298e-05
2.48396e-05
1.21108e-05
1.32707e-05
1.79347e-05
2.30512e-05
3.21597e-05
2.38324e-05
1.43558e-05
1.62268e-05
2.26637e-05
3.05168e-05
2.06431e-05
1.52805e-05
1.02076e-05
1.07729e-05
2.50366e-05
2.75158e-05
2.19345e-05
1.70754e-05
1.18695e-05
1.2146e-05
2.49549e-05
2.91648e-05
2.30061e-05
1.77286e-05
1.30126e-05
1.31882e-05
2.49883e-05
3.0428e-05
2.39124e-05
1.87504e-05
1.41746e-05
1.52022e-05
2.48767e-05
3.33584e-05
3.14751e-05
2.34965e-05
1.71346e-05
1.08035e-05
1.60155e-05
2.16106e-05
2.84633e-05
2.56832e-05
1.12387e-05
1.23536e-05
1.76835e-05
2.28364e-05
3.0282e-05
2.55508e-05
1.28201e-05
1.39139e-05
1.87314e-05
2.39268e-05
3.32745e-05
2.48424e-05
1.49521e-05
1.70206e-05
2.35974e-05
3.16818e-05
2.18485e-05
1.62872e-05
1.10587e-05
1.16391e-05
2.57771e-05
2.87421e-05
2.30505e-05
1.80501e-05
1.26776e-05
1.32026e-05
2.58565e-05
3.07193e-05
2.43599e-05
1.92153e-05
1.4343e-05
1.5584e-05
2.53484e-05
3.38172e-05
3.20738e-05
2.40269e-05
1.75664e-05
1.12367e-05
1.65173e-05
2.22208e-05
2.93521e-05
2.60715e-05
1.18797e-05
1.32402e-05
1.85794e-05
2.3544e-05
3.27933e-05
2.50003e-05
1.47055e-05
1.67535e-05
2.37473e-05
3.14306e-05
2.17519e-05
1.60467e-05
1.06961e-05
1.13347e-05
2.60698e-05
2.86019e-05
2.28373e-05
1.76759e-05
1.24686e-05
1.30291e-05
2.52263e-05
3.02008e-05
2.39832e-05
1.88462e-05
1.41979e-05
1.5411e-05
2.47752e-05
3.30542e-05
3.15686e-05
2.36187e-05
1.7352e-05
1.12014e-05
1.64764e-05
2.2102e-05
2.89685e-05
2.57071e-05
1.19903e-05
1.33252e-05
1.87038e-05
2.34545e-05
3.24058e-05
2.50577e-05
1.49354e-05
1.70173e-05
2.38992e-05
3.11686e-05
2.20032e-05
1.64065e-05
1.11133e-05
1.18667e-05
2.57675e-05
2.87585e-05
2.3146e-05
1.84372e-05
1.30778e-05
1.44366e-05
2.4428e-05
3.20057e-05
3.08076e-05
2.32543e-05
1.65353e-05
1.08053e-05
1.58847e-05
2.14783e-05
2.82039e-05
2.49458e-05
1.17737e-05
1.31042e-05
1.81927e-05
2.28613e-05
3.15601e-05
2.43979e-05
1.46979e-05
1.68289e-05
2.33715e-05
3.04442e-05
2.1633e-05
1.62027e-05
1.10259e-05
1.18619e-05
2.52648e-05
2.82633e-05
2.29148e-05
1.83776e-05
1.31345e-05
1.459e-05
2.43879e-05
3.15332e-05
3.0396e-05
2.3247e-05
1.66384e-05
1.08465e-05
1.59669e-05
2.14895e-05
2.81308e-05
2.58335e-05
1.16438e-05
1.30079e-05
1.80808e-05
2.27021e-05
3.13601e-05
2.39286e-05
1.47756e-05
1.69757e-05
2.30393e-05
3.02889e-05
2.1639e-05
1.63211e-05
1.12819e-05
1.225e-05
2.48867e-05
2.81941e-05
2.31059e-05
1.87027e-05
1.35811e-05
1.52447e-05
2.48258e-05
3.19041e-05
3.08263e-05
2.38362e-05
1.73364e-05
1.1487e-05
1.67072e-05
2.21824e-05
2.89486e-05
2.56723e-05
1.24747e-05
1.38631e-05
1.91892e-05
2.37001e-05
3.28734e-05
2.56431e-05
1.57486e-05
1.79896e-05
2.47989e-05
3.18945e-05
2.3e-05
1.7676e-05
1.24164e-05
1.44399e-05
2.56041e-05
3.1504e-05
3.06943e-05
2.45937e-05
1.68547e-05
1.15023e-05
1.68228e-05
2.22945e-05
2.93812e-05
2.57182e-05
1.26687e-05
1.40542e-05
1.93283e-05
2.40702e-05
3.31969e-05
2.58375e-05
1.60255e-05
1.82677e-05