/*--------------------------------*- C++ -*----------------------------------*\
| =========                 |                                                 |
| \\      /  F ield         | OpenFOAM: The Open Source CFD Toolbox           |
|  \\    /   O peration     | Version:  v2006                                 |
|   \\  /    A nd           | Website:  www.openfoam.com                      |
|    \\/     M anipulation  |                                                 |
\*---------------------------------------------------------------------------*/
FoamFile
{
    version     2.0;
    format      ascii;
    class       volScalarField;
    location    "0.03";
    object      epsilon;
}
// * * * * * * * * * * * * * * * * * * * * * * * * * * * * * * * * * * * * * //

dimensions      [0 2 -3 0 0 0 0];


internalField   nonuniform List<scalar> 
38932
(
22208.4
22207.1
22317
22316
22311.1
22303.9
22291.7
22277.2
22258.3
22236.6
22211.2
22182.8
22151.2
22116.3
22078.3
22037.1
21992.7
21945.2
21894.7
21841
21784.3
21724.7
21662.1
21596.6
21528.2
21457
21383.1
21306.5
21227.1
21145.2
21060.8
20973.8
20884.5
20792.7
20698.6
20602.3
20503.9
20403.2
20300.6
20196
20089.4
19981.1
19870.9
19759.1
19645.7
19530.7
19414.3
19296.5
19177.4
19057
18935.5
18813
18689.4
18565
18439.7
18313.7
18187
18059.7
17932
17803.8
17675.3
17546.6
17417.6
17288.6
17159.6
17030.7
16901.9
16773.4
16645.2
16517.3
16390
16263.2
16137
16011.6
15886.9
15763.1
15640.2
15518.3
15397.4
15277.8
15159.3
15042.1
14926.3
14811.8
14698.9
14587.5
14477.6
14369.5
14263
14158.3
14055.5
13954.5
13855.5
13758.4
13663.4
13570.5
13479.6
13391
13304.5
13220.3
13138.3
13058.7
12981.5
12906.6
12834.1
12764
12696.4
12631.2
12568.6
12508.5
12450.8
12395.7
12343.2
12293.2
12245.7
12200.8
12158.6
12119
12082.2
12048.6
12018.6
11993.7
11977.3
11979
12012.2
12129.2
12522.8
13762.1
19490.7
60640.4
232219
1.59175e+06
2.0037e+06
424254
148124
196732
484394
1.97484e+06
1.83469e+06
486785
215126
216184
465163
1.62517e+06
1.45239e+06
429593
212391
203107
391485
1.30903e+06
1.19914e+06
361496
191937
180674
332849
1.11025e+06
1.03805e+06
310131
170527
161606
291920
979366
931430
277223
153917
147314
265214
891543
857908
255295
141651
136781
247001
829106
804059
239963
132565
128885
233899
781943
762127
228591
125639
122748
223873
744132
727590
219617
120146
117781
215730
712223
697815
212137
115613
113608
208783
684202
671256
205626
111740
109990
202633
658873
646974
199777
108339
106775
197038
635493
624375
194399
105286
103864
191848
613575
603055
189372
102502
101191
186962
592782
582726
184610
99928.6
98708.3
182309
572864
563171
180052
97526.4
96379.2
177834
553628
544216
175649
95263.4
94175.9
173492
534918
525718
171360
93114.1
92075.5
169248
516601
507554
167153
91057.7
90058.7
165070
498563
489617
162997
89076.3
88108.8
160930
480705
471815
158866
87154.5
86211.7
156802
462939
454066
154737
85278.9
84354.6
152666
445189
436298
150587
83437.4
82526.2
148499
427386
418446
146399
81619.5
80716.2
144284
409471
400455
142152
79815.2
78915.3
140002
391392
382277
137831
78015.6
77115
135636
373105
363872
133417
76212.4
75307
131171
354575
345210
128897
74397.8
73484
126592
335776
326270
124255
72564.7
71638.9
121884
316692
307041
119479
70706
69764.9
117036
297318
287527
114555
68815.1
67855.6
112035
277669
267750
109474
66885.7
65904.6
106871
257774
247750
104226
64911.5
63905.5
101537
237687
227596
98805.4
62886.3
61852.2
96028.9
217490
207385
93208.9
60803.1
59737.5
90345.1
197298
187252
87439.5
58655.3
57554.1
84491.9
177269
167381
81506.8
56434.6
55292.4
78482.8
157610
148004
75428.8
54128.8
52939.3
72342.9
138587
129415
69235.4
51720.4
50467.5
66108.2
120524
111977
62973.5
49176.6
47840.7
59836.6
103816
96085.6
56703.2
46444
44973.3
53583.6
88842.5
82140.2
50495
43419.6
41739.9
47407.7
75922
70230.4
44329.4
39899.6
37851.8
41236.7
65008.4
60162.8
38098.7
35563.1
33034.6
34946.9
55681.8
51234.7
31623.7
30112.7
27191.1
28827.1
48539.8
47758.1
26392.6
24343.7
21370.6
23794.1
46135.3
43285.7
20954.3
18249.7
15046.9
17867.5
39121.8
33975
14657
11911.4
9020.81
11516
28309.5
22681.8
8694.41
6559.04
4663.64
6417.98
17733.5
13830.3
4750.38
3340.51
2544.8
3701.16
10928.9
9569.55
3258.65
2174.03
2032.75
3147.21
9216.51
9274.55
3149.35
1994
1994.07
3228.76
9612.83
10020.1
3313.89
2015.62
2044.95
3413.52
10499.5
10951.3
3494.14
2069.32
2086.09
3559.33
11360.9
11687.9
3597.46
2092.44
2092.97
3612.7
11948.2
12088.5
3609.09
2082.96
2062.88
3581.29
12141.5
12128
3548.78
2037.62
2001.69
3492.9
12011.8
11801.2
3414.54
1955.25
1900.96
3319.46
11507.8
11134.4
3205.46
1837.45
1766.75
3077.16
10694.4
10187.5
2933.84
1688.52
1604.43
2779.75
9638.22
9041.48
2615.27
1514.88
1420.98
2443.01
8412.59
7764.38
2265.3
1323.8
1224.33
2083.98
7099.97
6428.7
1900.36
1123.3
1021.99
1717.06
5761.52
5097.39
1534.65
920.893
820.612
1354.42
4447.18
3792.95
1176.4
721.493
623.462
1001.7
3170.71
2556.34
828.77
526.415
429.716
658.353
1970.67
1396.99
493.114
334.855
240.499
333.979
879.023
427.518
191.064
151.608
77.7923
92.9166
204.597
51.0611
21.5562
29.9907
54.7229
106.821
202.393
326.445
459.131
594.584
725.033
851.328
966.003
1070.79
1167.54
1249.5
1310.71
1350.86
1348.08
1341.22
1276.75
1209.68
1085.86
892.174
1118.53
1164.62
998.543
607.605
741.45
787.618
663.846
531.893
408.042
267.017
261.01
212.365
142.974
64.4027
113.625
70.1312
83.0435
107.502
133.852
110.256
93.3542
78.8472
76.1606
146.572
254.124
110.319
95.8055
101.369
113.524
123.438
117.131
120.215
152.446
363.884
473.169
195.138
146.531
136.811
138.836
157.804
158.412
174.105
236.491
571.104
665.697
279.778
204.247
183.128
179.474
203.858
210.374
236.609
324.554
757.939
852.088
371.547
271.383
240.221
230.985
260.742
272.687
308.831
421.146
950.04
1053.36
473.536
349.194
308.004
293.6
329.961
347.008
393.116
529.448
1155.57
1280.08
592.977
442.337
390.1
370.15
414.793
437.944
496.622
661.535
1405.18
1556.19
744.119
559.487
492.298
465.035
521.519
555.131
633.614
844.133
1737.17
2101.3
1000.38
734.22
632.153
586.52
660.68
724.408
861.043
1206.41
2567.17
3321.23
1516.64
1032.97
838.203
747.198
854.434
995.719
1325.91
2169.07
4836.42
6605.68
3231.71
1749.33
1242.19
1004.97
1211.82
1625.27
2182.31
3694.6
9070.74
13692.7
5123.03
2804.42
1984.74
1632.96
2442.28
3802.27
10174
41229.2
101857
102599
42954.8
11748.8
4269.34
2717.06
3275.29
6319.54
17093.2
51198.5
156157
119131
44210.6
16929.4
7194.49
3880.09
3552.54
4912.14
8748.52
22697.9
69899.2
82502.7
28011
11012.4
5630.56
3981.51
4964.64
8455.98
18473.3
45498.5
101832
49368
28288.1
15955.2
8738.3
5364.84
4901.96
6818.33
12271.6
29759.8
71546.5
94895.5
41554.3
14557
6982.64
5074.07
5332.95
7779.71
15358.2
38368.7
105534
56357.3
28773.5
14933.5
8480.56
5897.92
5736.88
7540.25
12376.4
28023.4
84386.1
92041.7
34948.4
15892.9
9026.32
6626.36
6991.07
9277.89
14141.9
24786.4
59361.8
83578.3
27697.7
14939.2
10004.5
7719.27
7929.49
10466.1
18793.4
47612.6
111387
95665.8
45299.1
21902.9
12346.6
8949.95
9028.04
11844.9
18373.5
33641.7
74969.4
102433
46618.6
21450.1
12715.9
9858.94
10083.5
13774.8
23827.6
53518.9
156352
108992
49977.5
26978.1
16001.6
11393.9
11272.4
14815.3
22166.3
40009.1
115785
207733
67381.3
31354.1
17400.4
12454.4
12460.1
16484.4
24995.2
43108.2
106709
164907
53979.9
28892
18371.5
13791
13771.8
18268.4
31036.5
67413.4
157301
133035
54985.8
32898.8
21151.6
15438.2
15040
19495
32047.7
68018.5
156580
175853
78634.6
40504.5
23849.3
17262.6
16658.6
21159.8
33474.3
68283.9
157362
234256
113130
49971.9
26310.2
19023.5
18387.6
23097.9
34861.8
66989.4
156569
249549
122687
54133
28645.5
21117.9
20918.4
26324.2
38273.1
68723.4
161578
262426
131814
57355.1
30614.7
23225.7
23362.7
29625.7
42417.4
72187
182752
248200
122669
56643.7
32803.4
25680.9
26376.1
34288.4
50967
92348.1
255086
216876
99113.1
54692
36498.4
28592.9
28996
37736.1
55713.6
100612
285230
248732
101786
62143.9
42146.1
32120.6
32282.9
42578.7
64457.5
118480
349464
395101
149132
83123.2
51240.4
36651.7
35620.2
46471.2
67965.9
118668
347733
550574
191066
103709
59447.8
41219
40501.1
52828
75631.3
123049
352394
569258
182772
101411
61166.7
44324.3
45547.3
61295.1
100163
198025
460487
442805
152341
94905.9
65333.5
48487.4
47311.2
63296.3
112099
242883
501356
562998
278367
138307
75660.2
53193.9
48358.8
61408.6
93299.5
176681
418497
616279
351595
152191
74096.8
53926.7
51771.2
64597.4
91594.7
161656
425055
563062
286012
131913
74670
57782.1
58664.1
73234.9
104824
186569
478677
599025
304770
144647
83381.9
64757.6
66619.5
83922.7
117692
198509
552068
638375
344034
166208
94848.2
73624.5
79849
106918
159869
281481
840928
612929
258221
153978
105601
81760.1
79547.8
105860
161285
286176
893897
1.06678e+06
363003
204430
121328
85311.3
78810
100129
144025
244047
753872
1.22466e+06
370323
211820
128930
94298.9
100139
128118
206434
412902
873528
868860
387841
217849
133059
102581
97892.7
135464
233826
450720
1.52231e+06
1.15414e+06
363675
173295
111545
88032.7
83129.7
104874
149714
302888
952424
700121
244226
133306
92116.4
72035.3
69890.4
84078.9
113149
192189
511133
418214
166975
105736
82170.7
69905.7
70413
81089.6
101467
153887
373906
356084
147189
100242
81713
71876.2
73840.1
83166.3
100720
145699
349331
346456
146227
102469
85416.1
76343.3
79422.7
88217.7
104883
147632
347159
352431
149796
107843
91344.7
82490.5
85944.1
95079.7
111812
153736
358967
366856
160818
116860
99314.5
89645.3
93517.1
103741
122141
167686
381837
390698
175578
127746
108538
97902.9
102491
113329
133060
181797
397591
412155
188262
138508
118071
106737
111223
123052
144281
196063
429016
445273
203239
150185
128289
116087
121422
134073
156514
210206
465152
487961
220110
164564
141226
128073
137163
150600
175507
234856
518011
544710
250475
187310
160637
146006
149598
167040
196735
266000
575333
607386
277276
204142
172685
154465
159873
178665
211242
286308
633346
673059
299329
219234
185200
165819
172389
192253
227561
311767
708920
757725
327508
237877
200797
180205
191414
212135
250738
344789
805998
863531
367794
267893
227553
207900
224057
245733
288507
396473
932359
1.01158e+06
425544
308527
260656
233994
248586
276370
328271
454319
1.07228e+06
1.14508e+06
484868
349674
294367
264645
271858
306889
367266
510536
1.19838e+06
1.26186e+06
535795
382779
318470
281788
294123
332033
399339
559733
1.32123e+06
1.3828e+06
584378
416879
346417
306605
319152
360958
434821
608888
1.43283e+06
1.50087e+06
636292
453313
375669
331774
346113
392499
473607
665696
1.58187e+06
1.66651e+06
700253
499526
414817
368031
390247
439379
529197
740009
1.73457e+06
1.80459e+06
773795
549141
452318
395641
404053
462742
563805
797192
1.85807e+06
1.91881e+06
816571
578264
474313
414185
425877
488129
595513
843453
2.00848e+06
2.12074e+06
882897
620613
507476
442194
470344
535460
653309
931407
2.26708e+06
2.39246e+06
980825
687912
565125
498180
502960
579326
711144
1.02368e+06
2.54926e+06
2.61912e+06
1.04824e+06
726198
589931
511195
522219
602224
740394
1.06707e+06
2.63843e+06
2.71089e+06
1.0949e+06
760511
618163
536041
555303
640892
788017
1.13331e+06
2.81507e+06
2.89666e+06
1.17813e+06
825424
674845
590743
624995
710185
864406
1.2281e+06
2.98497e+06
3.10291e+06
1.27499e+06
892292
727990
631301
642713
743010
915617
1.31529e+06
3.21076e+06
3.3016e+06
1.35727e+06
939930
761394
657970
676880
783121
966177
1.38707e+06
3.42962e+06
3.52553e+06
1.44383e+06
1.00421e+06
814704
703439
751383
861914
1.0579e+06
1.51556e+06
3.70966e+06
3.84862e+06
1.58106e+06
1.10923e+06
907860
795946
805474
932419
1.14774e+06
1.64477e+06
4.01798e+06
4.19583e+06
1.70175e+06
1.17906e+06
953707
821897
844223
980874
1.21519e+06
1.75462e+06
4.30609e+06
4.46409e+06
1.8219e+06
1.2642e+06
1.021e+06
877756
939317
1.08007e+06
1.32787e+06
1.90559e+06
4.64938e+06
4.8338e+06
1.9924e+06
1.39476e+06
1.13778e+06
995605
1.00871e+06
1.17059e+06
1.44613e+06
2.07673e+06
5.03878e+06
5.20645e+06
2.15103e+06
1.4924e+06
1.20336e+06
1.03259e+06
1.07327e+06
1.25415e+06
1.5561e+06
2.24045e+06
5.45762e+06
5.68232e+06
2.35258e+06
1.64034e+06
1.32951e+06
1.15179e+06
1.22189e+06
1.40208e+06
1.72478e+06
2.46915e+06
5.91388e+06
6.21669e+06
2.57915e+06
1.78953e+06
1.44378e+06
1.23917e+06
1.27138e+06
1.48783e+06
1.85442e+06
2.68596e+06
6.53112e+06
6.76942e+06
2.80173e+06
1.93821e+06
1.55386e+06
1.32426e+06
1.42658e+06
1.65212e+06
2.0435e+06
2.93747e+06
7.04211e+06
7.38543e+06
3.08328e+06
2.15224e+06
1.74624e+06
1.517e+06
1.54152e+06
1.80387e+06
2.24297e+06
3.23781e+06
7.83621e+06
8.34917e+06
3.41275e+06
2.33612e+06
1.86397e+06
1.58463e+06
1.65665e+06
1.95344e+06
2.4515e+06
3.57292e+06
8.72905e+06
8.87647e+06
3.71748e+06
2.58567e+06
2.08248e+06
1.79182e+06
1.90687e+06
2.20139e+06
2.7187e+06
3.8905e+06
9.14602e+06
9.50987e+06
4.06804e+06
2.84183e+06
2.28299e+06
1.94448e+06
2.02436e+06
2.39069e+06
2.98749e+06
4.28346e+06
9.97314e+06
1.0644e+07
4.55473e+06
3.1803e+06
2.56037e+06
2.19633e+06
2.3448e+06
2.72213e+06
3.38281e+06
4.86102e+06
1.15107e+07
1.28774e+07
5.25156e+06
3.58621e+06
2.84257e+06
2.39989e+06
2.51051e+06
3.00205e+06
3.82973e+06
5.73267e+06
1.47164e+07
1.6253e+07
6.19739e+06
4.10563e+06
3.23044e+06
2.74142e+06
2.93192e+06
3.4344e+06
4.33383e+06
6.44961e+06
1.63656e+07
1.67231e+07
6.72184e+06
4.55618e+06
3.60295e+06
3.02388e+06
3.28025e+06
3.8478e+06
4.82639e+06
7.06878e+06
1.74108e+07
1.82835e+07
7.44985e+06
5.11502e+06
4.08953e+06
3.50587e+06
3.63567e+06
4.32249e+06
5.4348e+06
7.90847e+06
1.93557e+07
2.0823e+07
8.48349e+06
5.84458e+06
4.67106e+06
3.98044e+06
4.29459e+06
5.02841e+06
6.29101e+06
9.12886e+06
2.23868e+07
2.46598e+07
9.93305e+06
6.8153e+06
5.39833e+06
4.50214e+06
5.00661e+06
5.94593e+06
7.5073e+06
1.0986e+07
2.74608e+07
3.11701e+07
1.22763e+07
8.30202e+06
6.52003e+06
5.47164e+06
5.80626e+06
7.17413e+06
9.33809e+06
1.40657e+07
3.70055e+07
4.50352e+07
1.66799e+07
1.08076e+07
8.1527e+06
6.5993e+06
7.30954e+06
9.19512e+06
1.25753e+07
2.05828e+07
5.97345e+07
6.44887e+07
2.27512e+07
1.38309e+07
1.00078e+07
7.89373e+06
8.19934e+06
1.04234e+07
1.42719e+07
2.27285e+07
5.98061e+07
5.94606e+07
2.27443e+07
1.45221e+07
1.07465e+07
8.5399e+06
8.57615e+06
1.09315e+07
1.48694e+07
2.33526e+07
6.11226e+07
7.30632e+07
2.61539e+07
1.59731e+07
1.1479e+07
8.81396e+06
9.48032e+06
1.21863e+07
1.69874e+07
2.8201e+07
8.13115e+07
7.59468e+07
2.76589e+07
1.73166e+07
1.26688e+07
9.96555e+06
1.03607e+07
1.30928e+07
1.7582e+07
2.72039e+07
7.37848e+07
7.56905e+07
2.79201e+07
1.83147e+07
1.36353e+07
1.07706e+07
1.12123e+07
1.43934e+07
1.97866e+07
3.15224e+07
7.3688e+07
7.26647e+07
3.51227e+07
2.1677e+07
1.54454e+07
1.18157e+07
1.34661e+07
1.7286e+07
2.39643e+07
3.84872e+07
7.50804e+07
7.80053e+07
4.09602e+07
2.57695e+07
1.85809e+07
1.43887e+07
1.55577e+07
1.97973e+07
2.67271e+07
4.0597e+07
7.7574e+07
7.42179e+07
4.01616e+07
2.69373e+07
2.01021e+07
1.57497e+07
1.63881e+07
2.03129e+07
2.65785e+07
3.87015e+07
7.11226e+07
6.66843e+07
3.7247e+07
2.58763e+07
1.99178e+07
1.59868e+07
1.6284e+07
1.97486e+07
2.50807e+07
3.53779e+07
6.33664e+07
6.37407e+07
3.33979e+07
2.37145e+07
1.88448e+07
1.54784e+07
1.54925e+07
1.82984e+07
2.24874e+07
3.08598e+07
5.98406e+07
5.0864e+07
2.67104e+07
2.07175e+07
1.71291e+07
1.44523e+07
1.42093e+07
1.62553e+07
1.90716e+07
2.3843e+07
4.41097e+07
3.93103e+07
2.14345e+07
1.74091e+07
1.50153e+07
1.31029e+07
1.24585e+07
1.40875e+07
1.60761e+07
1.96847e+07
3.57903e+07
3.343e+07
1.82314e+07
1.50045e+07
1.33937e+07
1.22107e+07
1.14561e+07
1.25383e+07
1.39295e+07
1.68411e+07
3.15518e+07
2.96819e+07
1.53191e+07
1.2924e+07
1.18056e+07
1.09868e+07
1.01997e+07
1.09856e+07
1.19961e+07
1.41873e+07
2.74285e+07
2.5113e+07
1.33207e+07
1.12583e+07
1.0332e+07
9.6073e+06
9.27403e+06
9.8357e+06
1.06587e+07
1.26105e+07
2.33519e+07
2.19592e+07
1.20761e+07
1.01197e+07
9.31997e+06
8.78296e+06
8.34297e+06
8.86744e+06
9.64475e+06
1.15618e+07
2.09328e+07
2.01158e+07
1.11428e+07
9.24839e+06
8.51024e+06
8.07158e+06
7.68595e+06
8.11632e+06
8.8423e+06
1.07462e+07
1.94874e+07
1.90354e+07
1.03073e+07
8.46849e+06
7.76345e+06
7.33505e+06
7.1144e+06
7.4767e+06
8.13872e+06
9.91805e+06
1.84459e+07
1.81118e+07
9.46681e+06
7.77809e+06
7.15612e+06
6.81061e+06
6.5589e+06
6.84257e+06
7.38978e+06
8.89496e+06
1.75063e+07
1.67158e+07
8.44904e+06
7.02439e+06
6.50506e+06
6.23098e+06
5.93701e+06
6.22369e+06
6.73652e+06
8.13714e+06
1.60253e+07
1.54766e+07
7.89589e+06
6.50443e+06
6.00732e+06
5.75119e+06
5.52445e+06
5.77637e+06
6.27563e+06
7.64155e+06
1.49682e+07
1.46711e+07
7.43067e+06
6.07296e+06
5.57097e+06
5.30369e+06
5.16789e+06
5.41052e+06
5.89872e+06
7.23255e+06
1.41851e+07
1.38671e+07
7.02389e+06
5.70972e+06
5.22226e+06
4.98063e+06
4.79972e+06
5.05939e+06
5.55472e+06
6.87512e+06
1.35626e+07
1.32437e+07
6.69649e+06
5.40862e+06
4.92949e+06
4.69356e+06
4.53318e+06
4.76935e+06
5.25118e+06
6.52955e+06
1.29993e+07
1.27711e+07
6.40466e+06
5.11578e+06
4.62939e+06
4.37869e+06
4.29368e+06
4.52201e+06
4.99098e+06
6.24389e+06
1.25059e+07
1.22484e+07
6.08587e+06
4.84707e+06
4.3798e+06
4.15131e+06
4.01646e+06
4.25752e+06
4.72448e+06
5.95366e+06
1.21471e+07
1.18327e+07
5.82391e+06
4.61494e+06
4.16345e+06
3.94543e+06
3.81733e+06
4.03361e+06
4.47548e+06
5.63892e+06
1.16561e+07
1.14798e+07
5.53775e+06
4.36898e+06
3.92511e+06
3.69706e+06
3.63562e+06
3.8418e+06
4.27166e+06
5.4181e+06
1.12898e+07
1.11723e+07
5.32143e+06
4.15858e+06
3.72616e+06
3.519e+06
3.40749e+06
3.62858e+06
4.07101e+06
5.23761e+06
1.11109e+07
1.10129e+07
5.22198e+06
4.02506e+06
3.57306e+06
3.34232e+06
3.32002e+06
3.53457e+06
3.98434e+06
5.1833e+06
1.09258e+07
1.07925e+07
5.06372e+06
3.8924e+06
3.44606e+06
3.22579e+06
3.1396e+06
3.36907e+06
3.81022e+06
4.95293e+06
1.06581e+07
1.0443e+07
4.83193e+06
3.73294e+06
3.31215e+06
3.10717e+06
3.0139e+06
3.21983e+06
3.63813e+06
4.73362e+06
1.03743e+07
1.03213e+07
4.67519e+06
3.56972e+06
3.14954e+06
2.93331e+06
2.90654e+06
3.1024e+06
3.5107e+06
4.59602e+06
1.0212e+07
1.00736e+07
4.52767e+06
3.43492e+06
3.02282e+06
2.8227e+06
2.75125e+06
2.96151e+06
3.37278e+06
4.44939e+06
1.00579e+07
9.86667e+06
4.40769e+06
3.32717e+06
2.92406e+06
2.73271e+06
2.65606e+06
2.85229e+06
3.2556e+06
4.31983e+06
9.83076e+06
9.70913e+06
4.2728e+06
3.20582e+06
2.80085e+06
2.59323e+06
2.58126e+06
2.7698e+06
3.16412e+06
4.21124e+06
9.57324e+06
9.48887e+06
4.13671e+06
3.10024e+06
2.70483e+06
2.51082e+06
2.45426e+06
2.65854e+06
3.05578e+06
4.10233e+06
9.42453e+06
9.30717e+06
4.05086e+06
3.02094e+06
2.63419e+06
2.44803e+06
2.38285e+06
2.57492e+06
2.96401e+06
3.98157e+06
9.21244e+06
9.12351e+06
3.95173e+06
2.92569e+06
2.53389e+06
2.33157e+06
2.33046e+06
2.51462e+06
2.89886e+06
3.9202e+06
9.05762e+06
9.01455e+06
3.84899e+06
2.84413e+06
2.46006e+06
2.26952e+06
2.22311e+06
2.42344e+06
2.80745e+06
3.80378e+06
8.9552e+06
8.83915e+06
3.77754e+06
2.78281e+06
2.40625e+06
2.22454e+06
2.16762e+06
2.35541e+06
2.73266e+06
3.71776e+06
8.78461e+06
8.70813e+06
3.67678e+06
2.69983e+06
2.32223e+06
2.12599e+06
2.12929e+06
2.30766e+06
2.67444e+06
3.64879e+06
8.619e+06
8.58818e+06
3.60275e+06
2.63106e+06
2.26e+06
2.07491e+06
2.0367e+06
2.22955e+06
2.59878e+06
3.55597e+06
8.54772e+06
8.38223e+06
3.53502e+06
2.57581e+06
2.21557e+06
2.0409e+06
1.98746e+06
2.16724e+06
2.52797e+06
3.46707e+06
8.31569e+06
8.26106e+06
3.42561e+06
2.49106e+06
2.13425e+06
1.94834e+06
1.9503e+06
2.11631e+06
2.46072e+06
3.37979e+06
8.23664e+06
8.08402e+06
3.31405e+06
2.40586e+06
2.06294e+06
1.89515e+06
1.85345e+06
2.02507e+06
2.36181e+06
3.24916e+06
7.98124e+06
7.72321e+06
3.18972e+06
2.31455e+06
1.99712e+06
1.84749e+06
1.79166e+06
1.93683e+06
2.24964e+06
3.09022e+06
7.82215e+06
7.16478e+06
3.03086e+06
2.19208e+06
1.89073e+06
1.74155e+06
1.72817e+06
1.85652e+06
2.14082e+06
2.92088e+06
7.44883e+06
6.53695e+06
2.81193e+06
2.06108e+06
1.79688e+06
1.682e+06
1.63009e+06
1.72926e+06
1.96876e+06
2.65941e+06
6.49398e+06
6.01364e+06
2.52257e+06
1.86707e+06
1.63989e+06
1.55325e+06
1.49885e+06
1.58735e+06
1.80149e+06
2.42563e+06
5.82142e+06
5.62059e+06
2.37514e+06
1.77068e+06
1.56014e+06
1.46722e+06
1.45897e+06
1.54622e+06
1.75015e+06
2.33575e+06
5.47612e+06
5.3652e+06
2.28944e+06
1.71623e+06
1.51419e+06
1.42595e+06
1.40211e+06
1.48387e+06
1.67555e+06
2.22669e+06
5.22084e+06
5.09992e+06
2.16804e+06
1.62942e+06
1.44054e+06
1.36157e+06
1.32917e+06
1.41317e+06
1.59982e+06
2.12539e+06
4.93812e+06
4.85012e+06
2.10045e+06
1.58222e+06
1.3996e+06
1.31997e+06
1.28843e+06
1.37029e+06
1.55496e+06
2.06663e+06
4.77588e+06
4.65561e+06
2.03533e+06
1.53393e+06
1.34926e+06
1.26212e+06
1.257e+06
1.33768e+06
1.51616e+06
2.00257e+06
4.52224e+06
4.45032e+06
1.96053e+06
1.48539e+06
1.30832e+06
1.22643e+06
1.20154e+06
1.28729e+06
1.46315e+06
1.93304e+06
4.40953e+06
4.3301e+06
1.90969e+06
1.44739e+06
1.27676e+06
1.19782e+06
1.16869e+06
1.24962e+06
1.42141e+06
1.88008e+06
4.28865e+06
4.26541e+06
1.85883e+06
1.40257e+06
1.2308e+06
1.1459e+06
1.14485e+06
1.22343e+06
1.39151e+06
1.84739e+06
4.20871e+06
4.18872e+06
1.82087e+06
1.36889e+06
1.19879e+06
1.11777e+06
1.09782e+06
1.1829e+06
1.35362e+06
1.80408e+06
4.15482e+06
4.13864e+06
1.79347e+06
1.34466e+06
1.17786e+06
1.09899e+06
1.07384e+06
1.15548e+06
1.32515e+06
1.77463e+06
4.13719e+06
4.1249e+06
1.76661e+06
1.31428e+06
1.1426e+06
1.05683e+06
1.06018e+06
1.1406e+06
1.30954e+06
1.76214e+06
4.09559e+06
4.07614e+06
1.75068e+06
1.29481e+06
1.12128e+06
1.03683e+06
1.02321e+06
1.11122e+06
1.28561e+06
1.74266e+06
4.10224e+06
4.08983e+06
1.73257e+06
1.28133e+06
1.11074e+06
1.02833e+06
1.00764e+06
1.09298e+06
1.26499e+06
1.71565e+06
4.0707e+06
4.05478e+06
1.69393e+06
1.24678e+06
1.07945e+06
998971
972115
1.05314e+06
1.22211e+06
1.66951e+06
4.0176e+06
3.9692e+06
1.65859e+06
1.21189e+06
1.04356e+06
958873
964950
1.04523e+06
1.2121e+06
1.65489e+06
3.93618e+06
3.91816e+06
1.64622e+06
1.20082e+06
1.02955e+06
944502
935626
1.02459e+06
1.19803e+06
1.64656e+06
3.93684e+06
3.94443e+06
1.64761e+06
1.19906e+06
1.02829e+06
945704
926885
1.01402e+06
1.18641e+06
1.63388e+06
3.94716e+06
3.92036e+06
1.6154e+06
1.17207e+06
1.00396e+06
921695
896225
979955
1.14991e+06
1.59363e+06
3.89883e+06
3.87829e+06
1.58581e+06
1.14252e+06
972947
885984
895697
977543
1.14528e+06
1.5871e+06
3.859e+06
3.86899e+06
1.58068e+06
1.13559e+06
963008
875714
868637
959644
1.13423e+06
1.58365e+06
3.87522e+06
3.87013e+06
1.58318e+06
1.13728e+06
966055
881834
864065
953336
1.12677e+06
1.57351e+06
3.85654e+06
3.83863e+06
1.55677e+06
1.11443e+06
945132
860513
835656
922050
1.09395e+06
1.53656e+06
3.81072e+06
3.79338e+06
1.53048e+06
1.08728e+06
916063
826972
839526
922511
1.09063e+06
1.53094e+06
3.79456e+06
3.79663e+06
1.52645e+06
1.08304e+06
909492
820349
814313
907095
1.08314e+06
1.53347e+06
3.80191e+06
3.8094e+06
1.54215e+06
1.08975e+06
916235
829957
813054
904441
1.08053e+06
1.52977e+06
3.80972e+06
3.78529e+06
1.51402e+06
1.06955e+06
898132
810982
786415
875865
1.05051e+06
1.49495e+06
3.77042e+06
3.74832e+06
1.48926e+06
1.04512e+06
871937
780126
796049
880752
1.05065e+06
1.49191e+06
3.75083e+06
3.74359e+06
1.48479e+06
1.04304e+06
869883
779956
778578
864490
1.03322e+06
1.47125e+06
3.72609e+06
3.70251e+06
1.45629e+06
1.01722e+06
844512
755505
749955
841209
1.01399e+06
1.45501e+06
3.70092e+06
3.70867e+06
1.46856e+06
1.02198e+06
852157
767560
752251
842526
1.01614e+06
1.45973e+06
3.70954e+06
3.68013e+06
1.44851e+06
1.009e+06
838804
751896
729415
819215
992722
1.43309e+06
3.67294e+06
3.67756e+06
1.43037e+06
989378
816561
724524
742949
827703
996824
1.43484e+06
3.68246e+06
3.67209e+06
1.43055e+06
990404
818038
727757
727701
814519
983513
1.42044e+06
3.66215e+06
3.65244e+06
1.40472e+06
967120
794732
705366
700848
792786
965116
1.40249e+06
3.64682e+06
3.63489e+06
1.41961e+06
974853
805267
720398
705918
797164
971657
1.41614e+06
3.62331e+06
3.61718e+06
1.40343e+06
965213
794747
706795
685488
776059
949771
1.38869e+06
3.59803e+06
3.61411e+06
1.38898e+06
949091
774981
681701
702657
788090
959073
1.40443e+06
3.63945e+06
3.65541e+06
1.40111e+06
955288
780265
688057
689867
778694
950619
1.39438e+06
3.65696e+06
3.65021e+06
1.37729e+06
935226
760097
668393
665058
759529
935752
1.38972e+06
3.64683e+06
3.67856e+06
1.41358e+06
950474
774760
687685
673699
768447
948066
1.40814e+06
3.69689e+06
3.67704e+06
1.389e+06
941001
766595
676247
656909
749029
923565
1.36703e+06
3.62162e+06
3.59871e+06
1.35118e+06
913966
745306
658389
637393
727006
899207
1.33644e+06
3.58525e+06
3.58062e+06
1.338e+06
898094
726411
634585
657521
742806
915142
1.36887e+06
3.60543e+06
3.61863e+06
1.36589e+06
913982
737148
643837
647552
737491
911152
1.35838e+06
3.61542e+06
3.60998e+06
1.34524e+06
898442
720450
627442
625342
721262
900114
1.36273e+06
3.62659e+06
3.67042e+06
1.37677e+06
915722
738359
650106
636381
732440
913750
1.3738e+06
3.67591e+06
3.67406e+06
1.36389e+06
908976
732556
640596
621175
714942
892224
1.34307e+06
3.65959e+06
3.61661e+06
1.32847e+06
883817
712649
624305
604083
695377
870752
1.31889e+06
3.59913e+06
3.61308e+06
1.31768e+06
870166
695825
602181
627759
714851
893364
1.36889e+06
3.6529e+06
3.69755e+06
1.36439e+06
893769
711490
615047
620401
712588
890647
1.35236e+06
3.66313e+06
3.6441e+06
1.33146e+06
875469
695795
601478
605839
694898
868088
1.31673e+06
3.60777e+06
3.58992e+06
1.30287e+06
855304
678387
586019
584756
679904
858005
1.31601e+06
3.60918e+06
3.66055e+06
1.35024e+06
877753
699091
611340
598321
695777
878968
1.35262e+06
3.69657e+06
3.68888e+06
1.34327e+06
877050
697457
604425
585368
680810
862572
1.32629e+06
3.67484e+06
3.65153e+06
1.31177e+06
855457
680389
590546
570794
664491
843709
1.3007e+06
3.62712e+06
3.66753e+06
1.31285e+06
845465
665839
569772
597769
686885
869089
1.35749e+06
3.72242e+06
3.75744e+06
1.35406e+06
869816
683387
584507
591443
685320
867498
1.34047e+06
3.74556e+06
3.71418e+06
1.32308e+06
852716
668763
571973
577558
668194
845069
1.30658e+06
3.69041e+06
3.6636e+06
1.29454e+06
833008
652314
557815
557086
654607
836921
1.31186e+06
3.69928e+06
3.7541e+06
1.34961e+06
860737
676860
586571
573586
674624
865148
1.36016e+06
3.78866e+06
3.78845e+06
1.35269e+06
865383
677695
581941
562909
662208
850886
1.33449e+06
3.77179e+06
3.74673e+06
1.32112e+06
844677
662907
569783
550258
646622
830246
1.30143e+06
3.71991e+06
3.68367e+06
1.28996e+06
823394
647006
557238
538358
632740
814021
1.27914e+06
3.67857e+06
3.71632e+06
1.29708e+06
818899
635944
538510
569491
660555
846455
1.35413e+06
3.79296e+06
3.84313e+06
1.36344e+06
852933
659095
556579
565733
662232
852997
1.35023e+06
3.84622e+06
3.82713e+06
1.33403e+06
839684
647881
546895
554924
649401
834664
1.31905e+06
3.81161e+06
3.76852e+06
1.30095e+06
820151
632991
535055
543046
634324
814342
1.29242e+06
3.7297e+06
3.72645e+06
1.28094e+06
805568
620216
524248
525009
624282
812715
1.30729e+06
3.77471e+06
3.84344e+06
1.35062e+06
840244
650669
557635
544683
649627
848227
1.37743e+06
3.90498e+06
3.9337e+06
1.36289e+06
848721
653350
554721
535092
638819
837184
1.34705e+06
3.91442e+06
3.88377e+06
1.32541e+06
828993
639706
544144
523661
623868
814399
1.30755e+06
3.83775e+06
3.81354e+06
1.29617e+06
809236
625325
532416
513044
611140
800132
1.28784e+06
3.80263e+06
3.85794e+06
1.31568e+06
806108
614219
513763
547341
642030
835955
1.37329e+06
3.94917e+06
4.01003e+06
1.40158e+06
845679
640545
533377
544534
644696
846775
1.38303e+06
4.03246e+06
3.99862e+06
1.35473e+06
831356
629923
524359
534040
631596
825921
1.33756e+06
3.94802e+06
3.91905e+06
1.31389e+06
809321
614523
513002
522335
616063
804156
1.30502e+06
3.88118e+06
3.88279e+06
1.28447e+06
791909
601672
502672
503416
605189
800973
1.32567e+06
3.93269e+06
4.01714e+06
1.37474e+06
830590
634085
538320
524208
633389
841084
1.39507e+06
4.07813e+06
4.10504e+06
1.38765e+06
842472
637836
536401
515939
623977
830425
1.37052e+06
4.08337e+06
4.06379e+06
1.35477e+06
826440
626272
527194
506106
610723
810765
1.33359e+06
4.01824e+06
3.97666e+06
1.32074e+06
805293
612295
516622
496174
597829
793297
1.30776e+06
3.96423e+06
3.94382e+06
1.29674e+06
788531
600168
506773
487749
587034
781126
1.29235e+06
3.9411e+06
4.01564e+06
1.32607e+06
789415
591267
489070
524862
621412
821427
1.38411e+06
4.11395e+06
4.18239e+06
1.40462e+06
833110
620944
510367
523812
625978
835165
1.3984e+06
4.19845e+06
4.19685e+06
1.37824e+06
822866
612146
502733
514616
614535
817661
1.36214e+06
4.16433e+06
4.12475e+06
1.34179e+06
803149
598893
492960
504362
601114
798113
1.32972e+06
4.09293e+06
4.08515e+06
1.32043e+06
789887
587765
484450
486093
592370
796642
1.35822e+06
4.15779e+06
4.27658e+06
1.43514e+06
835359
624388
524105
508517
623292
846004
1.44846e+06
4.35248e+06
4.37785e+06
1.43955e+06
848210
629630
523185
501027
615442
835702
1.41687e+06
4.37472e+06
4.33423e+06
1.39674e+06
830353
618041
514756
491860
602484
815445
1.38072e+06
4.29796e+06
4.27845e+06
1.36571e+06
810492
605022
504862
482512
589379
796649
1.35047e+06
4.24268e+06
4.22752e+06
1.34162e+06
792620
592249
495523
475444
580376
786293
1.33105e+06
4.22114e+06
4.29663e+06
1.37665e+06
795161
585629
477906
518190
620979
839473
1.47467e+06
4.44049e+06
4.54299e+06
1.49771e+06
853471
621100
502239
519364
628687
859297
1.48968e+06
4.57068e+06
4.56365e+06
1.46521e+06
847382
616209
496729
512973
620822
845491
1.45053e+06
4.55004e+06
4.52682e+06
1.42784e+06
829888
605097
489189
504146
608554
825736
1.41584e+06
4.48817e+06
4.47409e+06
1.40062e+06
812009
593936
481194
495566
597116
808678
1.38883e+06
4.457e+06
4.42073e+06
1.37293e+06
795787
582289
472801
486450
585631
792435
1.36837e+06
4.3965e+06
4.40217e+06
1.35629e+06
785146
572605
465725
467959
577474
792719
1.39834e+06
4.47351e+06
4.59177e+06
1.47389e+06
835109
612687
508661
491615
612301
846783
1.51334e+06
4.69729e+06
4.74038e+06
1.51113e+06
854754
618842
508719
485012
605536
842485
1.48501e+06
4.73801e+06
4.70275e+06
1.46393e+06
839067
609466
501075
476563
592960
821360
1.4436e+06
4.66483e+06
4.63576e+06
1.42479e+06
817773
596579
491805
467779
580733
803322
1.41262e+06
4.59574e+06
4.58483e+06
1.39828e+06
798510
584291
482473
461313
571507
792110
1.38768e+06
4.5788e+06
4.65005e+06
1.435e+06
801450
576897
463800
506020
613487
843509
1.51322e+06
4.78025e+06
4.89146e+06
1.56169e+06
858011
612821
488251
507091
620512
865242
1.55505e+06
4.94767e+06
4.96186e+06
1.53157e+06
854126
607345
482612
499837
611728
851816
1.51451e+06
4.94239e+06
4.90927e+06
1.48615e+06
834140
595479
474706
491044
598972
830201