/*--------------------------------*- C++ -*----------------------------------*\
| =========                 |                                                 |
| \\      /  F ield         | OpenFOAM: The Open Source CFD Toolbox           |
|  \\    /   O peration     | Version:  v2006                                 |
|   \\  /    A nd           | Website:  www.openfoam.com                      |
|    \\/     M anipulation  |                                                 |
\*---------------------------------------------------------------------------*/
FoamFile
{
    version     2.0;
    format      ascii;
    class       volVectorField;
    location    "0.03";
    object      U;
}
// * * * * * * * * * * * * * * * * * * * * * * * * * * * * * * * * * * * * * //

dimensions      [0 1 -1 0 0 0 0];


internalField   nonuniform List<vector> 
38932
(
(60.3293 -0.00468021 0)
(60.3312 -0.00154299 0)
(60.3286 -0.000579823 0)
(60.3267 -0.00179759 0)
(60.3227 -0.00310151 6.34293e-20)
(60.3157 -0.00445079 -2.77966e-19)
(60.3055 -0.00604203 2.22753e-19)
(60.2921 -0.00749144 1.05249e-19)
(60.2752 -0.00908725 -1.07186e-19)
(60.2554 -0.010582 0)
(60.2325 -0.0121266 -5.38133e-20)
(60.2067 -0.0136308 5.05555e-20)
(60.1779 -0.0151351 -4.22548e-22)
(60.1463 -0.0166239 2.1137e-22)
(60.1117 -0.0181075 -5.28649e-23)
(60.0742 -0.0195826 0)
(60.0337 -0.0210503 0)
(59.9904 -0.0225098 0)
(59.9441 -0.0239603 0)
(59.895 -0.0254013 0)
(59.843 -0.0268321 0)
(59.7881 -0.028252 0)
(59.7305 -0.0296607 0)
(59.6701 -0.0310574 0)
(59.6069 -0.0324414 0)
(59.5409 -0.0338122 0)
(59.4723 -0.0351693 0)
(59.4009 -0.0365118 0)
(59.3269 -0.0378394 0)
(59.2503 -0.0391512 0)
(59.1711 -0.0404466 0)
(59.0894 -0.041725 0)
(59.0051 -0.0429857 0)
(58.9183 -0.044228 0)
(58.8291 -0.0454513 0)
(58.7375 -0.0466549 0)
(58.6435 -0.0478381 -1.05864e-22)
(58.5472 -0.0490003 0)
(58.4486 -0.0501405 0)
(58.3478 -0.0512581 0)
(58.2447 -0.0523522 0)
(58.1396 -0.0534222 0)
(58.0323 -0.0544677 0)
(57.923 -0.0554882 0)
(57.8117 -0.0564829 0)
(57.6984 -0.0574509 0)
(57.5833 -0.0583913 0)
(57.4663 -0.0593036 0)
(57.3476 -0.060187 0)
(57.2271 -0.0610407 0)
(57.105 -0.0618643 0)
(56.9813 -0.062659 0)
(56.856 -0.0634232 0)
(56.7293 -0.0641534 0)
(56.6012 -0.0648495 0)
(56.4717 -0.0655115 0)
(56.3409 -0.066139 0)
(56.209 -0.0667314 0)
(56.0759 -0.0672871 0)
(55.9418 -0.0678061 0)
(55.8067 -0.0682888 0)
(55.6706 -0.0687344 0)
(55.5338 -0.0691421 0)
(55.3961 -0.0695109 0)
(55.2578 -0.0698399 1.06161e-22)
(55.1189 -0.0701291 0)
(54.9794 -0.0703777 0)
(54.8396 -0.0705847 0)
(54.6993 -0.0707496 0)
(54.5588 -0.0708718 0)
(54.4181 -0.0709507 0)
(54.2773 -0.0709861 0)
(54.1365 -0.0709776 0)
(53.9957 -0.070925 0)
(53.8551 -0.0708283 0)
(53.7148 -0.0706867 0)
(53.5748 -0.0704994 0)
(53.4352 -0.0702663 0)
(53.2961 -0.0699871 0)
(53.1576 -0.0696615 0)
(53.0199 -0.0692894 1.06355e-22)
(52.8829 -0.0688707 -1.06367e-22)
(52.7468 -0.0684052 0)
(52.6117 -0.0678928 0)
(52.4777 -0.0673335 0)
(52.3448 -0.0667273 0)
(52.2132 -0.0660743 0)
(52.0829 -0.0653746 0)
(51.954 -0.0646283 -5.32238e-23)
(51.8267 -0.0638356 0)
(51.7011 -0.062997 0)
(51.5771 -0.0621128 0)
(51.4549 -0.0611834 0)
(51.3346 -0.0602093 0)
(51.2163 -0.0591911 0)
(51.1001 -0.0581295 0)
(50.986 -0.0570251 0)
(50.8741 -0.0558789 0)
(50.7646 -0.0546917 0)
(50.6574 -0.0534646 0)
(50.5527 -0.0521987 0)
(50.4506 -0.0508952 0)
(50.3511 -0.0495554 0)
(50.2543 -0.0481808 0)
(50.1602 -0.0467729 5.33013e-23)
(50.069 -0.0453336 0)
(49.9806 -0.0438644 0)
(49.8952 -0.0423674 0)
(49.8128 -0.0408448 0)
(49.7334 -0.0392988 0)
(49.6572 -0.0377318 0)
(49.584 -0.0361463 0)
(49.514 -0.0345447 0)
(49.4473 -0.0329296 0)
(49.3837 -0.0313033 0)
(49.3235 -0.0296676 0)
(49.2666 -0.0280232 -1.0668e-22)
(49.2131 -0.0263685 0)
(49.1632 -0.0246981 0)
(49.117 -0.0229996 2.68469e-20)
(49.075 -0.021208 -2.72051e-20)
(49.0382 -0.0192646 -5.77257e-20)
(49.0082 -0.0168638 5.37376e-20)
(48.9894 -0.0134852 -1.08161e-19)
(48.9923 -0.00891251 1.59363e-19)
(49.0227 0.0164278 0)
(49.2313 -0.0130597 0)
(49.2943 0.326777 6.42468e-20)
(51.1309 -0.467942 0)
(49.6562 3.19159 0)
(52.9995 -1.57563 5.33126e-20)
(33.7899 10.9234 0)
(50.1453 0.688501 -9.48575e-19)
(46.5564 0.0943945 -4.89649e-20)
(49.4758 1.39904 6.75061e-19)
(49.3922 0.147938 5.75047e-19)
(47.4606 0.0478505 9.06737e-19)
(49.6155 0.0516012 -6.196e-20)
(48.4278 -0.167062 -1.56668e-19)
(48.1595 -0.169837 0)
(49.0374 -0.11224 0)
(48.9038 -0.188716 2.91809e-19)
(48.3469 -0.192554 -3.58296e-19)
(47.443 -0.188191 1.84489e-23)
(46.5684 -0.152957 2.00152e-19)
(48.3089 -0.188527 4.20043e-20)
(48.8302 -0.214013 0)
(48.7412 -0.215333 0)
(48.1577 -0.181352 -2.16536e-19)
(45.7913 -0.124527 0)
(45.1064 -0.102536 0)
(47.9517 -0.168023 1.71151e-19)
(48.6399 -0.205273 0)
(48.5332 -0.194142 -1.81114e-20)
(47.7399 -0.156022 0)
(44.5027 -0.0864363 0)
(43.9677 -0.07406 0)
(47.5181 -0.144736 -5.42656e-21)
(48.416 -0.184962 1.81536e-20)
(48.2864 -0.177797 0)
(47.2902 -0.135138 8.1747e-21)
(43.4837 -0.0645764 0)
(43.0425 -0.0572657 0)
(47.06 -0.126473 -2.72557e-21)
(48.1471 -0.171408 0)
(48.001 -0.165316 0)
(46.8307 -0.118681 0)
(42.6377 -0.0514268 0)
(42.2622 -0.0467769 0)
(46.6028 -0.111975 0)
(47.8492 -0.159985 0)
(47.6924 -0.155484 0)
(46.3765 -0.106322 0)
(41.9107 -0.0430684 0)
(41.5788 -0.0400897 0)
(46.1518 -0.101578 0)
(47.5315 -0.15171 0)
(47.367 -0.148585 0)
(45.9287 -0.0976158 0)
(41.2631 -0.0376851 0)
(40.9607 -0.0357379 0)
(45.7068 -0.0943306 0)
(47.1994 -0.14606 0)
(47.0288 -0.144078 0)
(45.4861 -0.0916235 0)
(40.6693 -0.0341559 0)
(40.3867 -0.0328667 0)
(45.266 -0.0894071 0)
(46.8555 -0.142585 0)
(46.6794 -0.14153 0)
(45.0462 -0.0876167 0)
(40.1114 -0.0318159 0)
(39.8418 -0.0309607 0)
(44.8262 -0.0862032 0)
(46.5003 -0.140862 0)
(46.3183 -0.140543 0)
(44.6057 -0.0851146 0)
(39.5769 -0.0302636 0)
(39.3156 -0.0296972 0)
(44.3843 -0.0843083 0)
(46.133 -0.140544 0)
(45.9444 -0.140843 0)
(44.1615 -0.0837506 0)
(39.057 -0.0292419 0)
(38.8003 -0.0288825 0)
(43.937 -0.0834142 0)
(45.7522 -0.141419 0)
(45.5563 -0.142255 0)
(43.7105 -0.0832765 0)
(38.5449 -0.0286071 0)
(38.2902 -0.0284062 0)
(43.4816 -0.0833193 0)
(45.3564 -0.143338 0)
(45.1523 -0.144656 0)
(43.2499 -0.0835281 0)
(38.0356 -0.0282724 0)
(37.7806 -0.0281999 0)
(43.0153 -0.0838912 0)
(44.9438 -0.146198 0)
(44.7307 -0.147958 0)
(42.7772 -0.0843994 0)
(37.5247 -0.0281839 0)
(37.2676 -0.0282208 0)
(42.5355 -0.0850456 0)
(44.5127 -0.14993 0)
(44.2895 -0.15211 0)
(42.2898 -0.0858242 0)
(37.0088 -0.0283077 0)
(36.7479 -0.0284422 0)
(42.0398 -0.0867313 0)
(44.061 -0.154496 0)
(43.8268 -0.157087 0)
(41.7851 -0.0877641 0)
(36.4844 -0.0286226 0)
(36.2181 -0.0288476 0)
(41.5254 -0.088921 0)
(43.5866 -0.159884 0)
(43.3401 -0.162889 0)
(41.2605 -0.0902013 0)
(35.9484 -0.0291165 0)
(35.6751 -0.0294288 0)
(40.9898 -0.0916052 0)
(43.0871 -0.166105 0)
(42.8272 -0.169536 0)
(40.7132 -0.0931335 0)
(35.3977 -0.0297844 0)
(35.1157 -0.0301834 0)
(40.4302 -0.0947876 0)
(42.5601 -0.173186 0)
(42.2854 -0.177063 0)
(40.1404 -0.0965698 0)
(34.829 -0.0306261 0)
(34.5369 -0.0311129 0)
(39.8436 -0.0984828 0)
(42.0028 -0.181172 0)
(41.7119 -0.185521 0)
(39.5392 -0.10053 0)
(34.2393 -0.0316446 0)
(33.9355 -0.032222 0)
(39.227 -0.102714 0)
(41.4124 -0.19012 0)
(41.1038 -0.194977 0)
(38.9064 -0.105041 0)
(33.6253 -0.0328462 0)
(33.3082 -0.0335185 0)
(38.5772 -0.107515 0)
(40.7858 -0.200104 0)
(40.4579 -0.20551 0)
(38.2388 -0.110141 0)
(32.9838 -0.0342403 0)
(32.6516 -0.0350133 0)
(37.8907 -0.112925 0)
(40.1197 -0.211209 0)
(39.7706 -0.217214 0)
(37.5326 -0.115873 0)
(32.3112 -0.0358393 0)
(31.962 -0.0367206 0)
(37.1639 -0.118994 0)
(39.4102 -0.223539 0)
(39.038 -0.2302 0)
(36.7839 -0.122294 0)
(31.6035 -0.0376594 0)
(31.2353 -0.0386582 0)
(36.3923 -0.125781 0)
(38.6534 -0.237213 0)
(38.2557 -0.244596 0)
(35.9884 -0.129465 0)
(30.8568 -0.0397197 0)
(30.4673 -0.0408466 0)
(35.5715 -0.133355 0)
(37.8444 -0.252367 0)
(37.4188 -0.260547 0)
(35.1409 -0.137462 0)
(30.0662 -0.0420416 0)
(29.6529 -0.0433083 0)
(34.6961 -0.141794 0)
(36.9782 -0.269156 0)
(36.5217 -0.278218 0)
(34.2361 -0.146365 0)
(29.2266 -0.0446499 0)
(28.7867 -0.0460705 0)
(33.7602 -0.151187 0)
(36.0486 -0.287756 0)
(35.558 -0.297796 0)
(33.2676 -0.156272 0)
(28.3323 -0.0475738 0)
(27.8626 -0.0491643 0)
(32.7573 -0.161634 0)
(35.049 -0.308366 0)
(34.5207 -0.319493 0)
(32.2285 -0.167287 0)
(27.3768 -0.050846 0)
(26.8741 -0.0526235 0)
(31.6801 -0.173246 0)
(33.972 -0.331205 0)
(33.402 -0.343535 0)
(31.1112 -0.179525 0)
(26.3534 -0.0545017 0)
(25.8138 -0.0564855 0)
(30.5208 -0.186141 0)
(32.8095 -0.356512 0)
(32.1934 -0.370167 0)
(29.9076 -0.193108 0)
(25.2545 -0.0585791 0)
(24.6743 -0.0607887 0)
(29.2706 -0.200445 0)
(31.5525 -0.384534 0)
(30.8856 -0.399649 0)
(28.6086 -0.208168 0)
(24.0722 -0.0631204 0)
(23.4471 -0.0655777 0)
(27.9202 -0.216291 0)
(30.1913 -0.415539 0)
(29.4682 -0.43223 0)
(27.2043 -0.224826 0)
(22.7977 -0.0681644 0)
(22.123 -0.0708887 0)
(26.4593 -0.233794 0)
(28.7149 -0.44976 0)
(27.9298 -0.46815 0)
(25.6839 -0.243204 0)
(21.4216 -0.073754 0)
(20.6922 -0.0767607 0)
(24.8765 -0.253059 0)
(27.1113 -0.487413 0)
(26.2579 -0.507557 0)
(24.0358 -0.263363 0)
(19.9337 -0.0799106 0)
(19.1446 -0.0832028 0)
(23.1601 -0.274108 0)
(25.3678 -0.528576 0)
(24.4393 -0.55045 0)
(22.248 -0.285282 0)
(18.3237 -0.0866341 0)
(17.4699 -0.0901914 0)
(21.298 -0.296854 0)
(23.4709 -0.573126 0)
(22.4608 -0.596518 0)
(20.3087 -0.308777 0)
(16.582 -0.0938541 0)
(15.6592 -0.0975951 0)
(19.2791 -0.320977 0)
(21.4077 -0.620494 0)
(20.3103 -0.644831 0)
(18.208 -0.333334 0)
(14.7008 -0.101375 0)
(13.7068 -0.105138 0)
(17.0951 -0.345688 0)
(19.1675 -0.66925 0)
(17.9791 -0.693341 0)
(15.9403 -0.35781 0)
(12.6774 -0.108803 0)
(11.6139 -0.112271 0)
(14.7446 -0.369405 0)
(16.7452 -0.716564 0)
(15.4671 -0.738153 0)
(13.5099 -0.380058 0)
(10.5186 -0.115406 0)
(9.39532 -0.118036 0)
(12.2395 -0.389261 0)
(14.1474 -0.757195 0)
(12.7902 -0.772531 0)
(10.9385 -0.396384 0)
(8.24933 -0.119946 0)
(7.08828 -0.120839 0)
(9.61431 -0.400549 0)
(11.4019 -0.782538 0)
(9.99126 -0.785347 0)
(8.27686 -0.400749 0)
(5.92234 -0.120384 0)
(4.765 -0.118238 0)
(6.93964 -0.395929 0)
(8.57061 -0.779013 0)
(7.1551 -0.761742 0)
(5.61902 -0.385134 0)
(3.63247 -0.11407 0)
(2.54468 -0.107975 0)
(4.33504 -0.368104 0)
(5.76402 -0.732679 0)
(4.41608 -0.689101 0)
(3.10553 -0.342809 0)
(1.51597 -0.0989538 0)
(0.588399 -0.0921018 0)
(1.96785 -0.315811 0)
(3.14553 -0.636491 0)
(1.97889 -0.568007 0)
(0.932095 -0.277763 0)
(-0.287681 -0.0786547 0)
(-0.980295 -0.0577705 0)
(0.00790355 -0.230953 0)
(0.918454 -0.490897 0)
(-0.0428044 -0.415154 0)
(-0.795474 -0.189655 0)
(-1.54954 -0.0435259 0)
(-2.00809 -0.0353278 0)
(-1.45173 -0.153599 0)
(-0.86093 -0.341292 0)
(-1.55055 -0.281041 0)
(-2.00261 -0.12624 0)
(-2.38959 -0.0285671 0)
(-2.70389 -0.0237709 0)
(-2.46257 -0.10653 0)
(-2.1226 -0.240337 0)
(-2.61605 -0.203733 0)
(-2.86215 -0.0889861 0)
(-2.97291 -0.0185341 0)
(-3.18735 -0.0139558 0)
(-3.2008 -0.0755851 0)
(-3.03523 -0.176772 0)
(-3.4103 -0.160901 0)
(-3.507 -0.0673229 0)
(-3.36978 -0.0100523 0)
(-3.53132 -0.00652386 0)
(-3.79873 -0.0628023 -4.4399e-20)
(-3.76189 -0.15362 0)
(-4.10459 -0.150922 0)
(-4.08695 -0.0611328 4.44083e-20)
(-3.67677 -0.00465226 0)
(-3.81679 -0.00657992 0)
(-4.37226 -0.0619938 0)
(-4.44311 -0.149178 0)
(-4.76615 -0.147466 0)
(-4.64514 -0.0657715 0)
(-3.97841 -0.012083 0)
(-4.16459 -0.0167783 0)
(-4.90377 -0.0693507 0)
(-5.06366 -0.144914 0)
(-5.33352 -0.139511 0)
(-5.14989 -0.0703444 0)
(-4.36537 -0.0193217 0)
(-4.56887 -0.0202039 0)
(-5.37834 -0.0677357 -4.44229e-20)
(-5.57368 -0.129581 0)
(-5.7815 -0.115281 0)
(-5.58284 -0.0618563 4.43782e-20)
(-4.76407 -0.0196092 0)
(-4.94288 -0.0179761 0)
(-5.76068 -0.0539244 -4.4422e-20)
(-5.95688 -0.0980541 0)
(-6.09516 -0.0787922 0)
(-5.90456 -0.0443658 4.44217e-20)
(-5.09475 -0.0155208 0)
(-5.21374 -0.0123027 0)
(-6.0112 -0.0329627 0)
(-6.19445 -0.056695 0)
(-6.25741 -0.0350874 0)
(-6.08282 -0.0217124 -4.44225e-20)
(-5.30231 -0.00903089 0)
(-5.35759 -0.00561646 0)
(-6.11881 -0.0102203 4.4379e-20)
(-6.28443 -0.0132248 0)
(-6.27488 0.0087027 0)
(-6.11834 0.00134471 0)
(-5.37914 -0.00211643 0)
(-5.36691 0.00137794 0)
(-6.08121 0.0128375 0)
(-6.22942 0.0303643 0)
(-6.14957 0.0513139 0)
(-6.00886 0.0242186 0)
(-5.32087 0.004877 0)
(-5.24154 0.00829782 0)
(-5.90306 0.0351156 0)
(-6.03719 0.0711263 0)
(-5.89469 0.0895393 0)
(-5.76624 0.0451602 0)
(-5.13063 0.0115742 0)
(-4.99087 0.014586 0)
(-5.60073 0.0543326 0)
(-5.72414 0.106397 0)
(-5.52853 0.12161 0)
(-5.40944 0.0625774 0)
(-4.82484 0.0174156 -2.68383e-20)
(-4.63508 0.0198281 2.68138e-20)
(-5.19496 0.0698223 0)
(-5.31017 0.135094 0)
(-5.07173 0.14689 0)
(-4.95994 0.0762243 0)
(-4.42528 0.0219287 -2.68441e-20)
(-4.19706 0.0238406 -4.90421e-25)
(-4.70743 0.0817331 0)
(-4.8162 0.157049 0)
(-4.54559 0.165522 0)
(-4.43957 0.0863884 0)
(-3.95369 0.025194 2.68231e-20)
(-3.6978 0.0263025 0)
(-4.15873 0.0903269 -4.44731e-20)
(-4.26227 0.17253 0)
(-3.96894 0.178258 0)
(-3.86761 0.09348 4.44344e-20)
(-3.43121 0.0273213 0)
(-3.15615 0.0280325 0)
(-3.56771 0.0958888 0)
(-3.66688 0.182764 0)
(-3.35852 0.186313 0)
(-3.26121 0.0978332 0)
(-2.87492 0.0286323 0)
(-2.5875 0.0290958 0)
(-2.94892 0.0993306 0)
(-3.04476 0.189084 0)
(-2.72631 0.191556 0)
(-2.63158 0.100693 -4.41532e-20)
(-2.29595 0.0294918 0)
(-1.99729 0.029811 0)
(-2.30772 0.101976 4.41164e-20)
(-2.40227 0.193842 0)
(-2.07262 0.196895 -1.44369e-19)
(-1.9774 0.103779 1.72496e-19)
(-1.69509 0.0307306 0)
(-1.37472 0.0314921 0)
(-1.63403 0.105795 -1.73601e-19)
(-1.73377 0.200462 0)
(-1.38708 0.20524 0)
(-1.28357 0.108862 6.58853e-19)
(-1.05074 0.0324709 0)
(-0.705913 0.0334811 0)
(-0.917993 0.111514 -7.00436e-19)
(-1.03197 0.209587 -1.42942e-19)
(-0.679615 0.206046 4.21137e-19)
(-0.557298 0.109877 0)
(-0.371748 0.0330447 0)
(-0.0483033 0.0276253 0)
(-0.215891 0.0960964 -7.67326e-19)
(-0.351261 0.184452 3.11702e-19)
(-0.0889701 0.107327 -6.34939e-19)
(0.054844 0.0393995 1.49627e-18)
(0.170794 0.00631598 -8.86411e-19)
(0.142912 -0.0240155 0)
(0.141274 -0.0554342 0)
(0.0862992 -0.0831562 3.38033e-19)
(-0.0796596 -0.0246533 -1.23626e-19)
(-0.159568 0.247894 0)
(-0.162385 0.559249 -8.46653e-19)
(-0.15588 0.898547 8.41008e-19)
(-0.136598 1.20188 -1.97766e-19)
(-0.116268 1.47775 4.0088e-19)
(-0.0902153 1.69484 -3.98384e-19)
(-0.0642113 1.8615 0)
(-0.0367194 1.96878 2.51862e-20)
(-0.00899709 2.0183 -2.52955e-20)
(0.0191576 2.00955 5.07108e-20)
(0.0474375 1.94422 -5.13775e-20)
(0.076415 1.82494 5.20179e-20)
(0.10414 1.64828 -5.53758e-20)
(0.127363 1.44093 -1.83285e-18)
(0.163385 1.24509 -1.03263e-17)
(0.182796 1.07426 1.20661e-17)
(0.196946 0.92658 0)
(0.248753 0.729854 0)
(0.178036 0.544516 8.7866e-18)
(0.0937342 0.364271 0)
(0.141441 0.190212 5.58202e-17)
(0.129812 0.107219 -4.38197e-17)
(0.0924523 -0.0965737 2.22383e-17)
(0.0382561 -0.163503 -5.19531e-23)
(0.0493894 -0.217647 -5.37567e-17)
(0.0313299 -0.248958 1.03193e-16)
(0.0239966 -0.271159 -1.10951e-16)
(0.00724536 -0.272476 0)
(-0.00558262 -0.286485 4.7534e-17)
(-0.0103277 -0.222927 -1.94373e-16)
(-0.0215105 -0.182468 1.23429e-16)
(-0.0373269 -0.132893 0)
(-0.0500466 -0.0483368 0)
(-0.0900869 -0.000260721 0)
(-0.129064 -0.0246572 1.44361e-17)
(-0.140976 -0.0526901 -2.41443e-24)
(-0.141716 -0.0840583 -1.30995e-17)
(-0.122891 -0.118413 -2.24411e-18)
(-0.114706 -0.0533966 -7.87138e-25)
(-0.140658 -0.0480717 7.57143e-18)
(-0.153121 -0.0369641 0)
(-0.147385 -0.0220067 0)
(-0.0985591 -0.00424133 0)
(-0.13417 -0.00761276 0)
(-0.179964 -0.0281794 7.78992e-19)
(-0.179879 -0.0411847 -7.44968e-19)
(-0.162891 -0.0533794 -1.40031e-18)
(-0.135395 -0.0664656 -4.64577e-18)
(-0.149302 -0.0284598 -1.04279e-18)
(-0.176933 -0.027937 -1.3671e-18)
(-0.196104 -0.0247637 -2.84067e-18)
(-0.201745 -0.0193992 -2.88161e-18)
(-0.158041 -0.00572993 1.52104e-18)
(-0.174666 -0.00391733 -2.15367e-18)
(-0.21306 -0.0114897 2.79383e-18)
(-0.199715 -0.0119664 3.06072e-18)
(-0.174087 -0.0103202 2.28746e-18)
(-0.141105 -0.00577545 0)
(-0.130447 0.02079 2.32123e-18)
(-0.166153 0.00956831 2.48862e-18)
(-0.196539 0.00220738 2.64604e-18)
(-0.215752 -0.00258518 -2.73233e-18)
(-0.182758 -0.00144156 7.09081e-19)
(-0.181005 0.000424332 -2.87053e-18)
(-0.208246 0.00418804 1.39406e-18)
(-0.185188 0.0128883 -5.43307e-25)
(-0.152148 0.0238121 2.5824e-18)
(-0.11422 0.0377136 -1.46546e-17)
(-0.0944099 0.0525861 2.55661e-18)
(-0.133086 0.0358115 0)
(-0.167459 0.0218007 0)
(-0.192777 0.00994508 0)
(-0.171084 0.00199406 1.49043e-18)
(-0.155512 0.0024555 1.57053e-18)
(-0.170995 0.0126958 -1.54144e-18)
(-0.143894 0.0260897 0)
(-0.108632 0.0416054 5.77723e-18)
(-0.0692603 0.0595045 5.4318e-18)
(-0.0434123 0.0641421 0)
(-0.0815949 0.0453187 1.53484e-18)
(-0.116897 0.0287124 3.16011e-18)
(-0.145306 0.014232 -4.88775e-18)
(-0.136609 0.0027295 0)
(-0.116189 0.00274897 -1.73726e-18)
(-0.116332 0.015294 1.70755e-18)
(-0.0853722 0.0308678 -1.6659e-18)
(-0.0493555 0.0487759 -8.05015e-18)
(-0.0109111 0.0687936 6.20523e-18)
(0.0294955 0.0706017 0)
(-0.0105078 0.0496731 8.24868e-19)
(-0.0480627 0.0312746 1.72035e-18)
(-0.0817625 0.0154049 -5.64324e-26)
(-0.091543 0.00274396 1.81237e-18)
(-0.0714607 0.00216788 -1.2729e-24)
(-0.0500509 0.0147169 3.68912e-18)
(-0.0120718 0.0304964 -3.5752e-18)
(0.0276722 0.0487702 2.53605e-18)
(0.0689181 0.0695467 0)
(0.11474 0.0736413 0)
(0.0713822 0.0516318 -4.27655e-19)
(0.0294079 0.0325302 -3.69118e-18)
(-0.0129268 0.0162287 1.91559e-18)
(-0.0463254 0.00260134 -1.97916e-18)
(-0.0231253 0.00198391 2.08357e-18)
(0.0235423 0.0151624 0)
(0.0709245 0.0308266 9.48779e-19)
(0.116208 0.0497098 4.36453e-19)
(0.162427 0.0717244 -9.99375e-20)
(0.21006 0.0719278 6.69183e-18)
(0.161228 0.0489046 0)
(0.112731 0.0296773 2.9824e-18)
(0.0603171 0.0143601 -8.63734e-18)
(0.00157608 0.00179351 -4.94029e-25)
(0.0234444 0.000442647 2.48163e-18)
(0.0943957 0.0116822 1.29257e-17)
(0.152225 0.0253349 5.32504e-19)
(0.203681 0.043649 -7.16764e-18)
(0.255183 0.0660276 0)
(0.298305 0.0645346 0)
(0.243887 0.0418191 -1.52286e-18)
(0.188829 0.0234442 8.76001e-18)
(0.12511 0.010636 -1.71464e-17)
(0.041495 0.000117705 2.81587e-18)
(0.0593019 0.000231858 1.41177e-17)
(0.155521 0.00882868 -1.22481e-17)
(0.224501 0.0198954 -2.22912e-17)
(0.282458 0.0373803 1.08726e-18)
(0.34135 0.059605 -8.86493e-19)
(0.378711 0.0558649 -1.38589e-17)
(0.311041 0.0361061 0)
(0.236953 0.0188774 2.45479e-17)
(0.153841 0.00760957 -2.06985e-17)
(0.0565487 0.00136529 -2.33724e-17)
(0.0173187 0.02635 0)
(0.106347 0.0180143 0)
(0.211198 -0.0120412 2.88028e-17)
(0.295676 0.00683719 -2.53977e-17)
(0.377306 0.0234875 8.66386e-19)
(0.382677 -0.0378964 -1.04524e-18)
(0.285007 -0.000761743 0)
(0.210958 0.0380736 0)
(0.127095 -0.0876551 0)
(0.0210995 -0.101206 0)
(0.0491219 -0.173623 0)
(0.00670789 -0.14245 0)
(0.167075 0.0355335 0)
(0.276364 0.0248832 0)
(0.369812 -0.041159 0)
(0.485987 -0.272864 0)
(0.389084 -0.342307 0)
(0.282574 -0.545352 0)
(0.230354 0.688553 0)
(0.262939 0.977598 0)
(-0.145594 0.880013 0)
(0.043444 0.693801 0)
(0.273244 -0.442227 0)
(0.404253 -0.283812 0)
(0.520062 -0.117068 0)
(0.634009 0.0506587 0)
(0.579147 0.231938 0)
(0.595796 0.340314 0)
(0.654114 -0.609645 0)
(0.415114 -0.780292 0)
(0.0715464 -0.581442 0)
(0.112389 -0.437886 0)
(0.314997 0.309601 0)
(0.508543 0.213204 0)
(0.664292 0.149628 0)
(0.746807 0.242181 0)
(0.603574 0.261982 0)
(0.409656 0.37349 0)
(0.219908 -0.419501 0)
(0.119086 -0.606236 0)
(-0.035546 -0.62886 0)
(-0.0543831 -0.412665 0)
(0.252778 0.385534 0)
(0.516171 0.278321 0)
(0.708977 0.267244 0)
(0.823398 0.0612104 0)
(0.688035 -0.0545573 0)
(0.557176 -0.14782 0)
(0.419914 0.2579 0)
(0.303238 0.310788 0)
(-0.0365564 -0.0473287 0)
(0.00513125 -0.0601465 0)
(0.315483 -0.00117685 0)
(0.63429 0.0028788 0)
(0.872646 -0.0278778 0)
(1.00803 -0.103139 0)
(0.831652 -0.22463 0)
(0.603201 -0.374018 0)
(0.368654 0.579135 0)
(0.302061 0.752194 0)
(0.0515337 0.887564 0)
(0.272383 0.706434 0)
(0.617474 -0.428377 0)
(0.848776 -0.258544 0)
(1.04904 -0.0708162 0)
(1.17354 0.0436811 0)
(1.01832 0.154551 0)
(0.852055 0.215489 0)
(0.664319 -0.335005 0)
(0.385313 -0.451821 0)
(0.180972 0.024152 0)
(0.397856 0.0379498 0)
(0.723468 0.0153688 0)
(1.00094 0.032025 0)
(1.22194 0.079215 0)
(1.33123 0.166284 0)
(1.11297 0.241167 0)
(0.857367 0.337782 0)
(0.542529 -0.453043 0)
(0.299967 -0.614339 0)
(0.16875 -0.487553 0)
(0.318001 -0.319863 0)
(0.734299 0.308427 0)
(1.08292 0.22875 0)
(1.34122 0.208713 0)
(1.45907 0.169301 0)
(1.24 0.146951 0)
(0.968101 0.171119 0)
(0.626764 -0.202123 0)
(0.282904 -0.297798 0)
(0.216471 -0.781218 0)
(0.329631 -0.598341 0)
(0.82226 0.392532 0)
(1.20266 0.29642 0)
(1.50454 0.134589 0)
(1.63336 -0.0213346 0)
(1.36828 -0.177099 0)
(1.02403 -0.315641 0)
(0.635164 0.526441 0)
(0.483801 0.67818 0)
(0.211566 0.287898 0)
(0.494702 0.21885 0)
(0.991394 -0.167191 0)
(1.38602 -0.0870072 0)
(1.68069 -0.0417709 0)
(1.84406 -0.0489499 0)
(1.58642 -0.104862 0)
(1.23186 -0.158241 0)
(0.789221 0.309453 0)
(0.456225 0.355958 0)
(0.33651 0.949801 0)
(0.685227 0.770001 0)
(1.24196 -0.440034 0)
(1.60232 -0.259941 0)
(1.90653 -0.0167844 0)
(2.04492 0.0958634 0)
(1.7743 0.230895 0)
(1.46135 0.327348 0)
(1.05047 -0.503656 0)
(0.641654 -0.664806 0)
(0.397788 -0.0875249 0)
(0.760141 -0.00511581 0)
(1.33328 0.137774 0)
(1.77944 0.128221 0)
(2.09852 0.187086 0)
(2.22224 0.286213 0)
(1.92557 0.293601 0)
(1.57902 0.376035 0)
(1.06417 -0.471602 0)
(0.560659 -0.673216 0)
(0.543237 -1.13556 0)
(0.800388 -0.855362 0)
(1.45085 0.597149 0)
(1.91763 0.436922 0)
(2.26955 0.243036 0)
(2.38318 0.179106 0)
(2.06718 0.0981173 0)
(1.62913 0.117156 0)
(1.0524 -0.100251 0)
(0.509236 -0.195063 0)
(0.590725 -1.01348 0)
(0.904071 -0.786515 0)
(1.61955 0.479236 0)
(2.10726 0.356004 0)
(2.47798 0.125427 0)
(2.59597 0.00299215 0)
(2.2471 -0.134339 0)
(1.76935 -0.247742 0)
(1.12273 0.387344 0)
(0.729373 0.492255 0)
(0.585253 -0.281815 0)
(1.14177 -0.244431 0)
(1.82256 0.0572019 0)
(2.32541 0.0451672 0)
(2.69796 -0.0363336 0)
(2.82383 -0.137521 0)
(2.44739 -0.245273 0)
(1.94267 -0.359826 0)
(1.21903 0.465674 0)
(0.772715 0.626527 0)
(0.723771 0.283559 0)
(1.23341 0.189606 0)
(1.97944 -0.232062 0)
(2.51319 -0.166187 0)
(2.90984 -0.139455 0)
(3.04214 -0.211065 0)
(2.64819 -0.295511 0)
(2.11921 -0.405676 0)
(1.33718 0.478371 0)
(0.837574 0.659058 0)
(0.892801 0.885432 0)
(1.3622 0.649106 0)
(2.17008 -0.534114 0)
(2.7151 -0.369432 0)
(3.13455 -0.249955 0)
(3.27437 -0.236777 0)
(2.86959 -0.2737 0)
(2.32422 -0.352607 0)
(1.49617 0.377882 0)
(0.857758 0.545001 0)
(0.988763 1.02026 0)
(1.48128 0.764073 0)
(2.35645 -0.579549 0)
(2.93312 -0.397428 0)
(3.37098 -0.240731 0)
(3.51803 -0.193613 0)
(3.10487 -0.212566 0)
(2.53916 -0.261635 0)
(1.67979 0.328571 0)
(0.91933 0.453882 0)
(1.09538 1.25709 0)
(1.62722 0.962211 0)
(2.5676 -0.651705 0)
(3.16299 -0.427441 0)
(3.61192 -0.189068 0)
(3.75184 -0.088271 0)
(3.32993 -0.0835245 0)
(2.7429 -0.0819338 0)
(1.8806 0.160226 0)
(0.952274 0.189325 0)
(1.1393 1.23913 0)
(1.76637 0.979157 0)
(2.77688 -0.594904 0)
(3.39229 -0.371112 0)
(3.84716 -0.0758495 0)
(3.97734 0.0327655 0)
(3.55297 0.109162 0)
(2.9557 0.141973 0)
(2.05542 -0.226519 0)
(1.18844 -0.323956 0)
(1.13585 0.741782 0)
(1.97499 0.693656 0)
(2.99246 -0.245279 0)
(3.63561 -0.087309 0)
(4.10794 0.124668 0)
(4.24108 0.138175 0)
(3.76398 0.196633 0)
(3.13056 0.258141 0)
(2.15293 -0.340576 0)
(1.27729 -0.485121 0)
(1.17 0.22173 0)
(2.1721 0.286718 0)
(3.17799 0.019609 0)
(3.85567 0.0766161 0)
(4.34874 0.227901 0)
(4.49308 0.262426 0)
(3.98625 0.34137 0)
(3.33974 0.439371 0)
(2.32257 -0.537699 0)
(1.46482 -0.760583 0)
(1.46561 -0.590425 0)
(2.21375 -0.348374 0)
(3.30655 0.432978 0)
(4.04837 0.320163 0)
(4.58619 0.324766 0)
(4.72232 0.361574 0)
(4.20387 0.355437 0)
(3.52021 0.447926 0)
(2.42475 -0.496578 0)
(1.46269 -0.74089 0)
(1.62789 -1.27551 0)
(2.24285 -0.936394 0)
(3.43183 0.686383 0)
(4.22892 0.524354 0)
(4.80893 0.320675 0)
(4.97672 0.276134 0)
(4.45504 0.160801 0)
(3.7428 0.202949 0)
(2.65682 -0.136901 0)
(1.41898 -0.291515 0)
(1.75304 -1.59126 0)
(2.36146 -1.2492 0)
(3.66231 0.749819 0)
(4.47592 0.570083 0)
(5.07379 0.195085 0)
(5.22608 0.0781152 0)
(4.67349 -0.111471 0)
(3.88359 -0.260544 0)
(2.70204 0.467626 0)
(1.81552 0.565675 0)
(1.666 -0.896697 0)
(2.66738 -0.773403 0)
(3.95324 0.237904 0)
(4.77354 0.1789 0)
(5.37236 -0.0316274 0)
(5.54179 -0.235797 0)
(4.9562 -0.431023 0)
(4.13048 -0.631206 0)
(2.86259 0.879732 0)
(2.14163 1.17773 0)
(1.97632 0.858811 0)
(2.89982 0.613767 0)
(4.23513 -0.535381 0)
(5.06166 -0.363249 0)
(5.66426 -0.248681 0)
(5.85984 -0.240595 0)
(5.2825 -0.277256 0)
(4.47084 -0.339674 0)
(3.13817 0.482482 0)
(1.90588 0.642627 0)
(2.31085 1.79561 0)
(3.14099 1.35004 0)
(4.54699 -0.917158 0)
(5.37116 -0.614729 0)
(5.97707 -0.295931 0)
(6.15838 -0.1606 0)
(5.59777 -0.147722 0)
(4.79953 -0.169358 0)
(3.50735 0.160187 0)
(1.81251 0.248152 0)
(2.34652 1.37004 0)
(3.31356 1.0587 0)
(4.79035 -0.675588 0)
(5.65969 -0.446573 0)
(6.27796 -0.164602 0)
(6.46692 -0.109499 0)
(5.87462 -0.144248 0)
(5.02536 -0.189259 0)
(3.62751 0.291696 0)
(2.02491 0.368469 0)
(2.45544 1.33891 0)
(3.49647 1.06296 0)
(5.05204 -0.627351 0)
(5.95782 -0.391252 0)
(6.59499 -0.0704881 0)
(6.77728 -0.00587073 0)
(6.16822 -0.0390801 0)
(5.27725 -0.063546 0)
(3.86449 0.195287 0)
(2.13763 0.199772 0)
(2.55128 1.56388 0)
(3.65756 1.29076 0)
(5.32195 -0.661767 0)
(6.24774 -0.381024 0)
(6.91025 0.0165771 0)
(7.12434 0.0972925 0)
(6.49708 0.247914 0)
(5.59687 0.322162 0)
(4.14689 -0.564901 0)
(2.79842 -0.764706 0)
(2.41325 0.593416 0)
(4.05292 0.642633 0)
(5.66615 -0.11333 0)
(6.64418 0.0199434 0)
(7.31562 0.277419 0)
(7.5014 0.278316 0)
(6.82192 0.418066 0)
(5.92102 0.523106 0)
(4.36114 -0.802271 0)
(2.90415 -1.10648 0)
(3.09721 -1.25724 0)
(4.16511 -0.911255 0)
(5.88033 0.613304 0)
(6.94924 0.471286 0)
(7.67247 0.278948 0)
(7.90308 0.284743 0)
(7.23204 0.165824 0)
(6.28873 0.205631 0)
(4.68481 -0.205809 0)
(2.57119 -0.396309 0)
(3.34059 -2.12927 0)
(4.22869 -1.73001 0)
(6.17267 0.905068 0)
(7.33164 0.718684 0)
(8.11667 0.180078 0)
(8.47399 0.209641 0)
(7.75362 -0.168066 0)
(6.49151 -0.494546 0)
(4.63073 1.02687 0)
(3.57167 1.15327 0)
(3.11741 0.702885 0)
(4.85333 0.806535 0)
(6.94223 -0.179283 0)
(8.07434 0.0519078 0)
(8.75182 0.345566 0)
(9.15023 0.444854 0)
(8.5944 0.625373 0)
(7.64365 0.691153 0)
(5.74392 -1.0376 0)
(4.30047 -1.55235 0)
(4.46292 0.207402 0)
(6.8424 0.295932 0)
(8.46312 -0.141835 3.56447e-19)
(9.18092 0.04653 0)
(9.56148 0.265686 0)
(10.0342 0.424196 -2.77531e-17)
(9.74911 0.454538 3.30148e-17)
(9.22802 0.291825 -3.01015e-19)
(8.08928 0.171372 0)
(5.75452 0.266089 0)
(7.04881 0.231831 -4.13029e-18)
(8.87777 0.361416 0)
(9.67043 0.443262 -4.46691e-19)
(10.0893 0.458612 1.39998e-18)
(10.3046 0.511434 -2.12103e-18)
(10.5006 0.562177 1.95725e-18)
(10.3609 0.509462 -1.06679e-17)
(10.084 0.461275 1.17099e-17)
(9.4974 0.39735 -3.36706e-18)
(8.05712 0.306319 3.18013e-18)
(8.78199 0.330032 2.60935e-18)
(9.97764 0.416525 2.82708e-18)
(10.4009 0.486415 0)
(10.5867 0.539893 0)
(10.6663 0.595784 -1.44874e-17)
(10.8115 0.625136 0)
(10.7751 0.57149 -7.91385e-18)
(10.649 0.519979 1.34059e-17)
(10.3215 0.455537 -4.98308e-18)
(9.27943 0.367627 -9.05407e-18)
(9.67349 0.377299 3.35159e-24)
(10.6101 0.462135 2.24901e-18)
(10.8635 0.534923 -6.16008e-18)
(10.9428 0.592966 3.70802e-18)
(10.9447 0.650235 6.60445e-18)
(11.0714 0.685137 -9.42427e-18)
(11.099 0.629777 7.0039e-18)
(11.0557 0.574198 -2.87298e-18)
(10.8545 0.50857 2.05382e-18)
(10.0067 0.426873 5.76812e-18)
(10.2895 0.463775 9.07836e-19)
(11.0668 0.542923 -1.91997e-18)
(11.2288 0.613281 2.7801e-24)
(11.2426 0.67039 -3.37544e-18)
(11.1915 0.725292 1.57634e-18)
(11.3058 0.763393 1.48953e-18)
(11.3746 0.713673 -4.112e-19)
(11.3849 0.662025 -2.60332e-18)
(11.2565 0.598245 -1.8282e-18)
(10.5337 0.522515 8.65924e-19)
(10.7519 0.567343 3.33484e-18)
(11.4308 0.639445 0)
(11.5276 0.709981 0)
(11.4946 0.762145 3.98633e-19)
(11.4058 0.810362 3.05794e-18)
(11.4996 0.862084 0)
(11.6068 0.818243 0)
(11.6605 0.771354 -1.60684e-18)
(11.5903 0.705684 4.98995e-18)
(10.9462 0.642989 -3.24894e-18)
(11.1231 0.715327 3.1525e-18)
(11.7369 0.764075 -1.60887e-18)
(11.783 0.835518 7.76559e-19)
(11.7075 0.878305 7.39551e-19)
(11.579 0.918357 -2.79189e-18)
(11.6473 0.985436 0)
(11.7964 0.953463 -1.08155e-18)
(11.8938 0.918216 1.51512e-18)
(11.8747 0.844681 3.13031e-18)
(11.3005 0.825602 -3.11343e-23)
(11.3582 0.971898 6.24504e-18)
(11.9531 0.968085 -3.0661e-18)
(11.9676 1.01533 0)
(11.8611 1.03518 -3.59324e-19)
(11.7047 1.05413 -2.76125e-18)
(11.7377 1.09873 -6.98653e-19)
(11.898 1.08921 -1.06596e-18)
(12.0108 1.07893 -7.25359e-19)
(12.0034 1.03677 3.74986e-18)
(11.3909 1.02894 5.93622e-18)
(11.4832 1.05558 -1.42206e-17)
(12.0679 1.06571 -3.65489e-18)
(12.0515 1.12096 2.11807e-18)
(11.9241 1.13094 3.43909e-19)
(11.7505 1.1385 3.34321e-19)
(11.7636 1.16689 1.30091e-18)
(11.9512 1.16293 -1.68187e-18)
(12.0949 1.15617 0)
(12.1386 1.09748 0)
(11.6051 1.10304 0)
(11.7227 1.13696 0)
(12.2032 1.12714 -2.84818e-18)
(12.1344 1.18448 6.17694e-18)
(11.9753 1.18659 -2.28899e-18)
(11.7746 1.18741 -1.27448e-18)
(11.7771 1.20062 1.18988e-18)
(11.9949 1.20214 0)
(12.1699 1.20652 2.04357e-18)
(12.2609 1.14704 -1.44888e-18)
(11.8442 1.15732 1.93018e-17)
(11.9585 1.18938 4.04105e-22)
(12.3131 1.16936 1.52444e-18)
(12.2054 1.23226 -2.83782e-18)
(12.0172 1.22114 -9.99161e-18)
(11.782 1.21503 7.75084e-18)
(11.8634 1.23128 2.95855e-17)
(12.0697 1.24128 -6.81088e-18)
(12.2508 1.25778 -3.37112e-18)
(12.368 1.18554 0)
(12.054 1.22627 -2.38555e-17)
(12.1174 1.26092 6.2778e-18)
(12.4178 1.19787 -7.49128e-18)
(12.2964 1.26854 -3.88487e-18)
(12.122 1.24618 -5.31434e-18)
(11.9267 1.24041 5.92454e-18)
(11.9045 1.23722 -4.62464e-19)
(12.1249 1.25018 -2.90222e-18)
(12.3157 1.27631 8.681e-18)
(12.4484 1.21159 -2.87957e-18)
(12.1791 1.28602 3.27773e-18)
(12.2714 1.31124 3.34474e-18)
(12.4762 1.22577 -1.95593e-18)
(12.3235 1.28455 -9.45851e-19)
(12.1199 1.25595 0)
(11.8879 1.23638 -8.43476e-19)
(11.8667 1.23606 -8.12004e-19)
(12.1108 1.26136 -3.48801e-18)
(12.3237 1.29647 3.75439e-18)
(12.4928 1.24757 -1.00469e-18)
(12.3514 1.33886 8.36431e-23)