/*--------------------------------*- C++ -*----------------------------------*\
| =========                 |                                                 |
| \\      /  F ield         | OpenFOAM: The Open Source CFD Toolbox           |
|  \\    /   O peration     | Version:  v2006                                 |
|   \\  /    A nd           | Website:  www.openfoam.com                      |
|    \\/     M anipulation  |                                                 |
\*---------------------------------------------------------------------------*/
FoamFile
{
    version     2.0;
    format      ascii;
    class       volScalarField;
    location    "0.062";
    object      turbulenceProperties:L;
}
// * * * * * * * * * * * * * * * * * * * * * * * * * * * * * * * * * * * * * //

dimensions      [0 1 0 0 0 0 0];


internalField   nonuniform List<scalar> 
9148
(
1999.89
1999.92
1999.96
1999.96
1999.93
1999.67
1998.75
1997.21
1995.5
1994.07
1992.89
1991.91
1991.01
1990.15
1989.31
1988.48
1987.67
1986.89
1986.13
1985.4
1984.7
1984.01
1983.35
1982.72
1982.11
1981.52
1980.97
1980.45
1979.96
1979.51
1979.09
1978.71
1978.37
1978.07
1977.81
1977.61
1977.45
1977.35
1977.3
1977.31
1977.38
1977.51
1977.7
1977.96
1978.29
1978.68
1979.09
1979.18
1976.43
1955.98
1893.65
1725.73
1365.23
850.289
412.04
170.975
66.7779
25.9381
10.6155
4.97942
3.22139
2.11077
1.59311
1.31157
1.60831
0.62032
0.256323
0.0969823
0.0254902
0.00317759
0.0005911
4.25352e-05
4.15801e-05
0.0002952
0.00125495
0.000824054
0.000227406
4.07466e-05
4.00171e-05
0.00020156
0.000665733
0.000578233
0.000190315
3.99555e-05
3.95959e-05
0.000179375
0.000525363
0.000482693
0.000174014
3.9463e-05
3.92318e-05
0.000168474
0.000461565
0.000438946
0.000164978
3.90738e-05
3.90053e-05
0.000163944
0.000428972
0.000412476
0.00016078
3.8945e-05
3.88953e-05
0.000160439
0.000407699
0.000395732
0.000157778
3.88373e-05
3.87963e-05
0.000157647
0.000392439
0.000382798
0.000155316
3.8745e-05
3.87088e-05
0.00015522
0.000380334
0.000372086
0.000153157
3.86622e-05
3.86291e-05
0.000153028
0.000370179
0.000362881
0.000151185
3.85858e-05
3.85545e-05
0.000151042
0.000361375
0.000354772
0.00014936
3.85133e-05
3.84833e-05
0.00014921
0.00035355
0.000347499
0.000147651
3.84433e-05
3.84138e-05
0.000147502
0.000346458
0.000340874
0.000146038
3.83743e-05
3.83448e-05
0.0001459
0.000339971
0.000334767
0.000144512
3.83053e-05
3.82755e-05
0.00014439
0.000333972
0.000329082
0.000143063
3.82355e-05
3.8205e-05
0.000142961
0.000328375
0.000323748
0.000141682
3.81641e-05
3.81327e-05
0.000141599
0.00032311
0.000318705
0.000140357
3.80905e-05
3.80578e-05
0.000140293
0.000318121
0.000313903
0.000139079
3.80139e-05
3.79796e-05
0.000139034
0.00031336
0.000309299
0.00013784
3.79335e-05
3.78973e-05
0.000137811
0.000308786
0.000304855
0.000136629
3.78485e-05
3.78098e-05
0.000136615
0.000304362
0.000300534
0.000135437
3.77578e-05
3.77162e-05
0.000135435
0.000300049
0.000296298
0.000134255
3.76603e-05
3.76153e-05
0.000134263
0.000295812
0.000292114
0.000133072
3.75547e-05
3.75055e-05
0.000133086
0.000291617
0.000287952
0.000131877
3.74393e-05
3.73852e-05
0.000131896
0.000287429
0.000283777
0.000130661
3.73123e-05
3.72522e-05
0.00013068
0.000283217
0.000279551
0.000129413
3.71713e-05
3.71041e-05
0.000129428
0.000278946
0.000275244
0.000128123
3.70135e-05
3.69376e-05
0.000128129
0.000274579
0.000270805
0.000126773
3.6835e-05
3.67484e-05
0.000126758
0.000270058
0.000266165
0.000125334
3.6631e-05
3.65309e-05
0.000125289
0.000265317
0.000261249
0.000123776
3.63948e-05
3.62775e-05
0.000123677
0.000260262
0.00025593
0.000122042
3.61172e-05
3.5977e-05
0.000121858
0.000254757
0.000250042
0.000120058
3.57846e-05
3.56125e-05
0.000119741
0.000248612
0.000243418
0.000117712
3.53765e-05
3.51567e-05
0.000117183
0.00024156
0.000235665
0.000114877
3.48603e-05
3.45622e-05
0.000113835
0.000233108
0.000226145
0.000111227
3.41734e-05
3.37414e-05
0.00010933
0.000222296
0.00021385
0.000106139
3.31907e-05
3.25019e-05
0.00010289
0.000207498
0.000196871
9.85618e-05
3.16047e-05
3.03526e-05
9.23511e-05
0.000185558
0.000170434
8.56086e-05
2.8794e-05
2.51651e-05
7.03602e-05
0.000149009
0.000111874
4.49373e-05
1.77288e-05
2.1967e-05
4.26761e-05
8.28318e-05
8.67563e-05
7.64554e-05
2.54439e-05
2.65552e-05
0.000105623
0.000127762
0.000171575
0.000132613
2.68074e-05
2.50676e-05
0.00015871
0.000214991
0.000256282
0.000149093
1.80383e-05
1.19749e-05
8.02996e-05
0.00016933
0.000129061
5.07781e-05
9.32583e-06
8.27422e-06
4.14492e-05
0.000110905
0.000101866
3.44615e-05
7.97931e-06
1.13125e-05
3.89246e-05
0.000114594
0.000128811
4.34244e-05
1.37658e-05
1.57229e-05
5.62235e-05
0.000166329
0.000183477
6.26792e-05
1.64686e-05
1.67102e-05
7.22846e-05
0.0002004
0.000200021
7.30192e-05
1.6206e-05
1.54198e-05
7.1414e-05
0.000188984
0.000165985
6.38813e-05
1.43243e-05
1.37353e-05
5.90947e-05
0.000153464
0.000140148
5.36287e-05
1.3486e-05
1.39551e-05
5.06261e-05
0.000137369
0.000138522
5.06071e-05
1.49043e-05
1.59994e-05
5.16801e-05
0.000142225
0.000149463
5.39858e-05
1.71631e-05
1.82739e-05
5.67767e-05
0.000157675
0.000169844
6.03878e-05
1.92993e-05
2.01996e-05
6.38093e-05
0.000179988
0.00019589
6.80348e-05
2.09846e-05
2.16411e-05
7.18499e-05
0.000206963
0.000225303
7.68105e-05
2.21928e-05
2.2626e-05
8.09515e-05
0.000236268
0.000255805
8.64594e-05
2.29712e-05
2.32109e-05
9.09681e-05
0.000266164
0.000285372
9.66502e-05
2.33405e-05
2.33876e-05
0.00010125
0.000293981
0.000309816
0.000106798
2.33795e-05
2.32277e-05
0.000109385
0.000315557
0.000326679
0.000113099
2.29992e-05
2.26336e-05
0.000114301
0.00032957
0.000336022
0.000117517
2.21703e-05
2.15403e-05
0.000117051
0.000332921
0.000332735
0.000119186
2.07914e-05
1.98192e-05
0.000116477
0.000320626
0.000312774
0.000117355
1.86807e-05
1.7309e-05
0.000112701
0.000289875
0.000275763
0.00011273
1.58727e-05
1.41475e-05
0.00010801
0.000245468
0.000227648
0.000109325
1.24488e-05
9.59802e-06
0.000101448
0.00018907
0.000173366
0.000103818
7.65557e-06
1.29651e-05
0.000140965
0.000149542
0.000154639
0.000161741
0.000161963
0.000166598
0.000165878
0.000167466
0.000167411
0.000168058
0.000168243
0.000168533
0.000168626
0.00016871
0.000168764
0.000168641
0.000168551
0.000167795
0.000167658
0.000165874
0.000166648
0.000158528
8.80997e-05
2.29758e-05
3.6061e-05
4.84501e-05
4.51477e-05
3.26277e-05
3.1946e-06
6.86178e-07
4.32207e-06
1.92893e-05
2.98385e-05
3.91057e-06
4.39291e-07
7.65086e-07
4.49316e-06
3.56911e-05
3.80556e-05
4.54262e-06
7.94879e-07
8.09562e-07
4.65234e-06
3.91169e-05
3.16184e-05
3.97357e-06
6.91182e-07
6.31916e-07
4.23076e-06
3.36912e-05
3.6481e-05
4.93856e-06
6.68957e-07
9.8123e-07
1.10294e-05
5.85588e-05
5.6459e-05
1.426e-05
1.32708e-06
1.34805e-06
1.3186e-05
4.91551e-05
3.63552e-05
1.01469e-05
1.25161e-06
9.77204e-07
6.27758e-06
1.99626e-05
1.8745e-05
5.17029e-06
8.03749e-07
7.17656e-07
6.80002e-06
2.61351e-05
2.96684e-05
7.25229e-06
6.96799e-07
5.41187e-07
8.21094e-06
3.50536e-05
3.82681e-05
9.31727e-06
6.77775e-07
1.15652e-06
1.19314e-05
4.5604e-05
4.71484e-05
1.29077e-05
1.58938e-06
2.08813e-06
1.55568e-05
5.4819e-05
5.57688e-05
1.60582e-05
2.46853e-06
2.89959e-06
1.84951e-05
6.31895e-05
6.35173e-05
1.87215e-05
3.23257e-06
3.61752e-06
2.10906e-05
7.07871e-05
7.05687e-05
2.1033e-05
3.91431e-06
4.26937e-06
2.34741e-05
7.76947e-05
7.69995e-05
2.32134e-05
4.55261e-06
4.90656e-06
2.58988e-05
8.47517e-05
8.42408e-05
2.55902e-05
5.19895e-06
5.58448e-06
2.87616e-05
9.33087e-05
9.3487e-05
2.87462e-05
5.91253e-06
6.28531e-06
3.38358e-05
0.000105927
0.000106261
3.42542e-05
6.47877e-06
6.86081e-06
4.04778e-05
0.000121582
0.000121852
4.0985e-05
7.1737e-06
7.73387e-06
4.78532e-05
0.000139447
0.000141572
5.00123e-05
8.28943e-06
9.18257e-06
5.93947e-05
0.000161466
0.000164926
6.26789e-05
1.00376e-05
1.14445e-05
7.36137e-05
0.000184742
0.000189921
7.60073e-05
1.33678e-05
9.89038e-06
8.57303e-05
0.000195118
8.16622e-05
2.61064e-05
4.62161e-06
8.32975e-06
7.27822e-05
0.000185109
0.00020405
8.14374e-05
1.07308e-05
1.37124e-05
9.93669e-05
0.000240906
0.000262824
0.000111213
1.62037e-05
1.12544e-05
9.77628e-05
0.000233417
0.000162303
6.23282e-05
5.9649e-06
1.21059e-05
9.63806e-05
0.000228512
0.000344163
0.000143577
1.74603e-05
1.19002e-05
5.4318e-05
0.000134397
0.000185083
7.86984e-05
9.94478e-06
1.84233e-05
0.000142993
0.000331667
0.000253809
0.000162159
1.72121e-05
8.76961e-06
3.30357e-05
8.88314e-05
0.000177938
9.08042e-05
1.18409e-05
1.61206e-05
8.99135e-05
0.000192123
0.00024657
0.00203429
1.70391e-05
1.33279e-05
2.40416e-05
5.70799e-05
6.60802e-05
3.04729e-05
1.10981e-05
1.92072e-05
5.999e-05
0.000105273
8.20094e-05
4.51705e-05
1.94644e-05
1.1028e-05
1.99148e-05
3.58265e-05
5.84289e-05
4.2976e-05
1.19277e-05
1.20943e-05
2.25093e-05
3.81815e-05
6.10083e-05
4.62081e-05
1.31627e-05
1.35786e-05
2.46534e-05
4.10596e-05
6.53764e-05
4.46052e-05
1.53964e-05
1.71065e-05
3.90703e-05
6.07962e-05
3.29411e-05
1.80927e-05
9.9192e-06
1.12224e-05
4.35771e-05
5.3078e-05
3.65942e-05
2.21126e-05
1.20765e-05
1.41714e-05
4.19564e-05
5.97292e-05
5.58524e-05
3.71077e-05
1.60439e-05
9.39114e-06
1.65788e-05
3.07827e-05
4.91109e-05
4.11097e-05
1.0302e-05
1.10875e-05
2.01221e-05
3.33213e-05
5.32542e-05
4.3635e-05
1.1962e-05
1.27422e-05
2.15647e-05
3.5984e-05
5.72544e-05
3.92091e-05
1.40787e-05
1.58663e-05
3.35416e-05
5.26517e-05
2.80098e-05
1.51742e-05
9.083e-06
9.7723e-06
3.7874e-05
4.51033e-05
3.01182e-05
1.84236e-05
1.05967e-05
1.09009e-05
4.00546e-05
4.68392e-05
3.12235e-05
1.93622e-05
1.15954e-05
1.16656e-05
3.90341e-05
4.86037e-05
3.20485e-05
1.95467e-05
1.22066e-05
1.23458e-05
3.86521e-05
4.98858e-05
3.32191e-05
2.02921e-05
1.30911e-05
1.41042e-05
3.5277e-05
5.35363e-05
4.87868e-05
3.03635e-05
1.59703e-05
9.1545e-06
1.50485e-05
2.60906e-05
4.04361e-05
3.4399e-05
9.6277e-06
1.05758e-05
1.76773e-05
2.73323e-05
4.18935e-05
3.62661e-05
1.06736e-05
1.13732e-05
1.82941e-05
2.80267e-05
4.32747e-05
3.44182e-05
1.11791e-05
1.17501e-05
1.83527e-05
2.87269e-05
4.38411e-05
3.46754e-05
1.12728e-05
1.18906e-05
1.83261e-05
2.88357e-05
4.35716e-05
3.45563e-05
1.14832e-05
1.19416e-05
1.84893e-05
2.87921e-05
4.34614e-05
3.40338e-05
1.14955e-05
1.21915e-05
1.8543e-05
2.88638e-05
4.31663e-05
3.4428e-05
1.17206e-05
1.2199e-05
1.84964e-05
2.86922e-05
4.26513e-05
3.37484e-05
1.15691e-05
1.22024e-05
1.84759e-05
2.85387e-05
4.21502e-05
3.37375e-05
1.1712e-05
1.21966e-05
1.83062e-05
2.81318e-05
4.14979e-05
3.3112e-05
1.15422e-05
1.2118e-05
1.81926e-05
2.77324e-05
4.07478e-05
3.2816e-05
1.15125e-05
1.20049e-05
1.78831e-05
2.72298e-05
3.99563e-05
3.20633e-05
1.13283e-05
1.19067e-05
1.76822e-05
2.66983e-05
3.88123e-05
3.16781e-05
1.11964e-05
1.16138e-05
1.69925e-05
2.58098e-05
3.64992e-05
3.10679e-05
1.04838e-05
1.06113e-05
1.5473e-05
2.35935e-05
3.11578e-05
1.88899e-05
9.68664e-06
1.6515e-05
3.01957e-05
4.76171e-05
3.198e-05
2.12842e-05
1.52795e-05
1.33231e-05
3.81312e-05
4.45469e-05
3.04655e-05
2.05668e-05
1.35222e-05
1.26888e-05
3.66473e-05
4.36643e-05
2.94864e-05
1.9619e-05
1.30487e-05
1.21649e-05
3.50296e-05
4.21047e-05
2.83759e-05
1.89305e-05
1.2651e-05
1.20611e-05
3.30159e-05
4.05283e-05
2.74201e-05
1.84209e-05
1.25105e-05
1.15316e-05
3.26164e-05
3.886e-05
2.58852e-05
1.72316e-05
1.18109e-05
1.06637e-05
3.09161e-05
3.60022e-05
2.3487e-05
1.56912e-05
1.08435e-05
9.88932e-06
1.88537e-05
3.04272e-05
4.57708e-05
2.92534e-05
1.66517e-05
1.55283e-05
2.12595e-05
3.11061e-05
4.31547e-05
3.71878e-05
1.36774e-05
1.37636e-05
2.05052e-05
2.96272e-05
4.21263e-05
3.59135e-05
1.28593e-05
1.31746e-05
1.94557e-05
2.85109e-05
4.02834e-05
3.44436e-05
1.22406e-05
1.25608e-05
1.82368e-05
2.70545e-05
3.73569e-05
3.23098e-05
1.14005e-05
1.14889e-05
1.65067e-05
2.44304e-05
3.14858e-05
1.98445e-05
1.03936e-05
1.72617e-05
3.04822e-05
4.61324e-05
3.17437e-05
2.19578e-05
1.60038e-05
1.39334e-05
3.74761e-05
4.28539e-05
2.97202e-05
2.06742e-05
1.40252e-05
1.30122e-05
3.5183e-05
4.12808e-05
2.83439e-05
1.95117e-05
1.32942e-05
1.23887e-05
3.34429e-05
3.9218e-05
2.6727e-05
1.82646e-05
1.26564e-05
1.1361e-05
3.18276e-05
3.60978e-05
2.39164e-05
1.63559e-05
1.13078e-05
1.03692e-05
1.95413e-05
3.04071e-05
4.42741e-05
2.93547e-05
1.71374e-05
1.59858e-05
2.1742e-05
3.0752e-05
4.17026e-05
3.6402e-05
1.41868e-05
1.42679e-05
2.07085e-05
2.90632e-05
4.05844e-05
3.50295e-05
1.32721e-05
1.34289e-05
1.92954e-05
2.77513e-05
3.76147e-05
3.32833e-05
1.21435e-05
1.21357e-05
1.73835e-05
2.50922e-05
3.2068e-05
2.06301e-05
1.10311e-05
1.79963e-05
3.09589e-05
4.61514e-05
3.22079e-05
2.28371e-05
1.67965e-05
1.469e-05
3.78653e-05
4.27906e-05
2.99234e-05
2.13706e-05
1.46967e-05
1.37135e-05
3.56415e-05
4.10511e-05
2.85846e-05
2.01586e-05
1.39875e-05
1.3114e-05
3.34929e-05
3.91551e-05
2.70672e-05
1.89818e-05
1.33586e-05
1.21731e-05
3.22016e-05
3.62376e-05
2.45314e-05
1.72001e-05
1.21521e-05
1.11311e-05
2.02901e-05
3.06764e-05
4.42908e-05
2.98296e-05
1.8153e-05
1.69927e-05
2.27478e-05
3.12277e-05
4.16919e-05
3.67966e-05
1.50343e-05
1.51053e-05
2.16103e-05
2.95194e-05
4.08292e-05
3.5283e-05
1.41582e-05
1.44209e-05
2.05404e-05
2.86316e-05
3.92862e-05
3.35194e-05
1.35827e-05
1.37909e-05
1.94013e-05
2.73357e-05
3.65691e-05
3.21184e-05
1.26848e-05
1.26164e-05
1.76969e-05
2.49334e-05
3.13362e-05
2.08202e-05
1.14835e-05
1.83332e-05
3.02347e-05
4.38792e-05
3.1284e-05
2.29674e-05
1.7077e-05
1.52489e-05
3.63735e-05
4.12945e-05
2.95611e-05
2.16769e-05
1.5286e-05
1.43686e-05
3.4532e-05
3.9952e-05
2.84193e-05
2.06067e-05
1.4581e-05
1.37809e-05
3.30671e-05
3.84278e-05
2.72598e-05
1.96534e-05
1.40791e-05
1.30853e-05
3.17499e-05
3.62918e-05
2.52684e-05
1.81477e-05
1.30097e-05
1.20893e-05
2.12443e-05
3.15435e-05
4.41912e-05
3.0509e-05
1.92072e-05
1.79875e-05
2.39153e-05
3.17198e-05
4.262e-05
3.70736e-05
1.62742e-05
1.62936e-05
2.29464e-05
3.06796e-05
4.20916e-05
3.59132e-05
1.56171e-05
1.58304e-05
2.21868e-05
3.0074e-05
4.11904e-05
3.51212e-05
1.51427e-05
1.54647e-05
2.14775e-05
2.93502e-05
4.01631e-05
3.37052e-05
1.4868e-05
1.5276e-05
2.12889e-05
2.88836e-05
3.93555e-05
3.3144e-05
1.47975e-05
1.50984e-05
2.09941e-05
2.84719e-05
3.86036e-05
3.28911e-05
1.45966e-05
1.48917e-05
2.04804e-05
2.78755e-05
3.76667e-05
3.19745e-05
1.43346e-05
1.473e-05
2.03613e-05
2.74918e-05
3.70356e-05
3.14814e-05
1.42941e-05
1.45735e-05
2.00724e-05
2.71474e-05
3.62587e-05
3.15051e-05
1.39859e-05
1.41549e-05
1.91885e-05
2.63614e-05
3.44908e-05
3.02952e-05
1.33232e-05
1.33092e-05
1.82203e-05
2.49614e-05
3.04115e-05
2.13242e-05
1.25343e-05
1.97556e-05
2.92361e-05
4.20598e-05
3.09997e-05
2.43021e-05
1.86151e-05
1.72003e-05
3.63514e-05
4.16463e-05
3.07938e-05
2.45572e-05
1.75633e-05
1.83569e-05
3.3413e-05
4.5405e-05
4.1744e-05
3.00956e-05
1.98982e-05
1.2708e-05
1.90538e-05
2.62456e-05
3.50552e-05
3.30632e-05
1.30584e-05
1.38995e-05
2.00148e-05
2.61599e-05
3.63528e-05
3.0462e-05
1.42269e-05
1.48287e-05
2.01148e-05
2.68966e-05
3.65606e-05
3.02995e-05
1.48207e-05
1.50939e-05
2.02701e-05
2.70612e-05
3.65528e-05
3.07196e-05
1.49387e-05
1.54784e-05
2.08358e-05
2.73723e-05
3.70498e-05
3.09215e-05
1.54974e-05
1.59201e-05
2.14305e-05
2.78344e-05
3.77244e-05
3.21501e-05
1.57864e-05
1.65035e-05
2.22109e-05
2.81568e-05
4.12185e-05
3.00262e-05
1.77696e-05
1.94978e-05
2.79377e-05
3.83754e-05
2.50352e-05
1.88423e-05
1.26839e-05
1.3492e-05
3.10573e-05
3.38005e-05
2.59993e-05
2.04591e-05
1.45198e-05
1.54772e-05
2.98881e-05
3.60926e-05
2.74263e-05
2.20655e-05
1.64649e-05
1.81169e-05
2.98524e-05
4.11881e-05
3.88671e-05
2.83782e-05
2.0423e-05
1.41607e-05
2.00704e-05
2.56708e-05
3.83631e-05
3.00425e-05
1.6308e-05
1.90919e-05
2.89614e-05
3.76734e-05
2.56627e-05
1.98742e-05
1.39152e-05
1.67199e-05
3.09684e-05
3.86869e-05
3.72403e-05
2.83373e-05
2.06077e-05
1.672e-05
2.83969e-05
3.56618e-05
2.35672e-05
1.75976e-05
1.25821e-05
1.6142e-05
2.7785e-05
3.63808e-05
3.61607e-05
2.69259e-05
2.00975e-05
1.89541e-05
2.64753e-05
3.40621e-05
3.35322e-05
2.56136e-05
1.84116e-05
1.86045e-05
2.53919e-05
3.35761e-05
3.37973e-05
2.52768e-05
1.88357e-05
1.89002e-05
2.62065e-05
3.39489e-05
3.44305e-05
2.68214e-05
1.88827e-05
1.88427e-05
2.74527e-05
3.46298e-05
3.57138e-05
2.86413e-05
1.87655e-05
1.86834e-05
2.90788e-05
3.61018e-05
3.73586e-05
3.03874e-05
1.86125e-05
1.85201e-05
3.07658e-05
3.8008e-05
3.92875e-05
3.2089e-05
1.84307e-05
1.83429e-05
3.22709e-05
4.05306e-05
4.18733e-05
3.32598e-05
1.82539e-05
1.81672e-05
3.33012e-05
4.34839e-05
4.47102e-05
3.42033e-05
1.80813e-05
1.79986e-05
3.42487e-05
4.62439e-05
4.7389e-05
3.52208e-05
1.792e-05
1.78452e-05
3.53058e-05
4.88492e-05
4.99617e-05
3.63644e-05
1.77778e-05
1.77142e-05
3.64978e-05
5.13494e-05
5.24036e-05
3.76763e-05
1.76609e-05
1.76101e-05
3.78434e-05
5.36038e-05
5.46435e-05
3.91091e-05
1.75727e-05
1.75336e-05
3.92946e-05
5.57122e-05
5.6776e-05
4.06598e-05
1.75126e-05
1.74804e-05
4.08489e-05
5.77212e-05
5.88178e-05
4.22385e-05
1.74794e-05
1.74561e-05
4.24087e-05
5.96685e-05
6.08189e-05
4.38233e-05
1.74629e-05
1.74493e-05
4.39544e-05
6.15625e-05
6.27402e-05
4.5334e-05
1.74593e-05
1.74504e-05
4.53865e-05
6.33636e-05
6.45748e-05
4.67234e-05
1.74624e-05
1.74563e-05
4.66973e-05
6.50601e-05
6.62782e-05
4.79434e-05
1.74695e-05
1.74643e-05
4.78269e-05
6.66633e-05
6.79134e-05
4.90006e-05
1.74792e-05
1.74744e-05
4.8827e-05
6.81903e-05
6.94603e-05
4.98928e-05
1.749e-05
1.74855e-05
4.96538e-05
6.96615e-05
7.10025e-05
5.06578e-05
1.75018e-05
1.74977e-05
5.03967e-05
7.10882e-05
7.24654e-05
5.13147e-05
1.75146e-05
1.7511e-05
5.10091e-05
7.24832e-05
7.38803e-05
5.18929e-05
1.75285e-05
1.75253e-05
5.1576e-05
7.38556e-05
7.5215e-05
5.23898e-05
1.7543e-05
1.75402e-05
5.203e-05
7.51664e-05
7.65219e-05
5.28309e-05
1.75581e-05
1.75556e-05
5.24607e-05
7.64225e-05
7.77663e-05
5.32061e-05
1.75734e-05
1.75711e-05
5.27923e-05
7.76227e-05
7.89807e-05
5.35398e-05
1.75886e-05
1.75865e-05
5.3118e-05
7.87775e-05
8.01167e-05
5.38174e-05
1.76036e-05
1.76016e-05
5.33535e-05
7.98751e-05
8.12217e-05
5.40633e-05
1.76181e-05
1.76162e-05
5.35953e-05
8.09241e-05
8.22443e-05
5.42605e-05
1.76321e-05
1.76302e-05
5.37539e-05
8.19132e-05
8.32337e-05
5.44344e-05
1.76454e-05
1.76436e-05
5.39272e-05
8.28493e-05
8.41378e-05
5.45668e-05
1.7658e-05
1.76562e-05
5.40243e-05
8.3725e-05
8.50086e-05
5.4685e-05
1.767e-05
1.76683e-05
5.41427e-05
8.45474e-05
8.57944e-05
5.47752e-05
1.76813e-05
1.76796e-05
5.41945e-05
8.5314e-05
8.65497e-05
5.48454e-05
1.7692e-05
1.76903e-05
5.4265e-05
8.60204e-05
8.72287e-05
5.48875e-05
1.77021e-05
1.77004e-05
5.42693e-05
8.6661e-05
8.78654e-05
5.49113e-05
1.77115e-05
1.77099e-05
5.42946e-05
8.72395e-05
8.84109e-05
5.49074e-05
1.77203e-05
1.77186e-05
5.42537e-05
8.77561e-05
8.89342e-05
5.48873e-05
1.77284e-05
1.77267e-05
5.42415e-05
8.82374e-05
8.93557e-05
5.48453e-05
1.77359e-05
1.77342e-05
5.41685e-05
8.86452e-05
8.97514e-05
5.47931e-05
1.77428e-05
1.77411e-05
5.41254e-05
8.89947e-05
9.00625e-05
5.47212e-05
1.77491e-05
1.77475e-05
5.40263e-05
8.93004e-05
9.03549e-05
5.46436e-05
1.7755e-05
1.77533e-05
5.39609e-05
8.95548e-05
9.05746e-05
5.45497e-05
1.77603e-05
1.77585e-05
5.38439e-05
8.97756e-05
9.07863e-05
5.44549e-05
1.77651e-05
1.77634e-05
5.37645e-05
8.99538e-05
9.0934e-05
5.43476e-05
1.77696e-05
1.77679e-05
5.36377e-05
9.01093e-05
9.10839e-05
5.42439e-05
1.77737e-05
1.7772e-05
5.35521e-05
9.023e-05
9.11775e-05
5.41307e-05
1.77776e-05
1.77759e-05
5.3422e-05
9.03359e-05
9.12806e-05
5.40239e-05
1.77812e-05
1.77796e-05
5.33352e-05
9.04161e-05
9.13276e-05
5.39096e-05
1.77847e-05
1.7783e-05
5.32053e-05
9.04871e-05
9.14129e-05
5.3804e-05
1.77879e-05
1.77863e-05
5.31206e-05
9.05433e-05
9.1424e-05
5.36923e-05
1.77911e-05
1.77895e-05
5.29945e-05
9.05805e-05
9.14854e-05
5.35908e-05
1.77941e-05
1.77925e-05
5.2914e-05
9.06103e-05
9.14691e-05
5.34836e-05
1.77969e-05
1.77954e-05
5.27929e-05
9.06219e-05
9.15073e-05
5.33874e-05
1.77997e-05
1.77981e-05
5.27175e-05
9.06293e-05
9.14708e-05
5.32856e-05
1.78024e-05
1.78008e-05
5.26022e-05
9.06215e-05
9.14932e-05
5.31954e-05
1.7805e-05
1.78034e-05
5.25328e-05
9.06117e-05
9.14436e-05
5.31002e-05
1.78075e-05
1.7806e-05
5.24244e-05
9.05886e-05
9.14569e-05
5.30169e-05
1.781e-05
1.78084e-05
5.23611e-05
9.05641e-05
9.14008e-05
5.29287e-05
1.78123e-05
1.78108e-05
5.22589e-05
9.05288e-05
9.14088e-05
5.28536e-05
1.78147e-05
1.78132e-05
5.22014e-05
9.04964e-05
9.13451e-05
5.27714e-05
1.78169e-05
1.78155e-05
5.21054e-05
9.04549e-05
9.13468e-05
5.27023e-05
1.78191e-05
1.78177e-05
5.20538e-05
9.04176e-05
9.12771e-05
5.2626e-05
1.78213e-05
1.78199e-05
5.19638e-05
9.03717e-05
9.12742e-05
5.25627e-05
1.78234e-05
1.7822e-05
5.19177e-05
9.03311e-05
9.12002e-05
5.24917e-05
1.78255e-05
1.7824e-05
5.18332e-05
9.02822e-05
9.11941e-05
5.24339e-05
1.78275e-05
1.78261e-05
5.17923e-05
9.02393e-05
9.11172e-05
5.2368e-05
1.78295e-05
1.78281e-05
5.1713e-05
9.01887e-05
9.11093e-05
5.23151e-05
1.78314e-05
1.783e-05
5.16769e-05
9.01447e-05
9.10308e-05
5.22541e-05
1.78333e-05
1.78319e-05
5.16025e-05
9.00937e-05
9.10223e-05
5.2206e-05
1.78352e-05
1.78337e-05
5.1571e-05
9.00496e-05
9.09431e-05
5.21495e-05
1.7837e-05
1.78356e-05
5.15012e-05
8.99995e-05
9.09334e-05
5.21059e-05
1.78388e-05
1.78374e-05
5.14739e-05
8.99568e-05
9.08537e-05
5.20535e-05
1.78405e-05
1.78391e-05
5.14084e-05
8.99087e-05
9.08432e-05
5.20138e-05
1.78422e-05
1.78408e-05
5.13847e-05
8.98664e-05
9.07634e-05
5.19651e-05
1.78439e-05
1.78425e-05
5.1323e-05
8.98184e-05
9.07531e-05
5.19292e-05
1.78456e-05
1.78442e-05
5.13029e-05
8.97772e-05
9.06749e-05
5.18841e-05
1.78472e-05
1.78458e-05
5.12448e-05
8.97313e-05
9.06668e-05
5.18517e-05
1.78488e-05
1.78474e-05
5.1228e-05
8.96916e-05
9.05894e-05
5.18097e-05
1.78504e-05
1.7849e-05
5.11729e-05
8.9646e-05
9.05814e-05
5.17803e-05
1.78519e-05
1.78505e-05
5.11589e-05
8.96064e-05
9.05046e-05
5.17412e-05
1.78534e-05
1.7852e-05
5.11066e-05
8.95608e-05
9.0498e-05
5.17145e-05
1.78549e-05
1.78535e-05
5.10953e-05
8.95232e-05
9.04233e-05
5.16781e-05
1.78564e-05
1.7855e-05
5.10458e-05
8.94796e-05
9.04185e-05
5.16541e-05
1.78579e-05
1.78565e-05
5.10371e-05
8.94441e-05
9.0346e-05
5.16205e-05
1.78593e-05
1.7858e-05
5.09905e-05
8.94029e-05
9.03436e-05
5.15994e-05
1.78608e-05
1.78594e-05
5.09845e-05
8.93696e-05
9.0273e-05
5.15684e-05
1.78622e-05
1.78609e-05
5.09406e-05
8.93306e-05
9.02732e-05
5.155e-05
1.78637e-05
1.78624e-05
5.09371e-05
8.93006e-05
9.02064e-05
5.15215e-05
1.78652e-05
1.78639e-05
5.08954e-05
8.92653e-05
9.02095e-05
5.15049e-05
1.78667e-05
1.78654e-05
5.08934e-05
8.9237e-05
9.01427e-05
5.14776e-05
1.78682e-05
1.78669e-05
5.08525e-05
8.92007e-05
9.01442e-05
5.14617e-05
1.78697e-05
1.78684e-05
5.08506e-05
8.91708e-05
9.00761e-05
5.14343e-05
1.78712e-05
1.78699e-05
5.0809e-05
8.91333e-05
9.00759e-05
5.14174e-05
1.78726e-05
1.78713e-05
5.07952e-05
8.9092e-05
9.00161e-05
5.13897e-05
1.7874e-05
1.78726e-05
5.07764e-05
8.9073e-05
8.99819e-05
5.13937e-05
1.78866e-05
1.78961e-05
5.07739e-05
8.90623e-05
8.99699e-05
5.13415e-05
1.78984e-05
1.79078e-05
5.0756e-05
8.90311e-05
9.00273e-05
5.13966e-05
1.79504e-05
1.79826e-05
5.08547e-05
8.90981e-05
9.07449e-05
5.18258e-05
1.80944e-05
1.81986e-05
5.13783e-05
8.98714e-05
9.21834e-05
5.26595e-05
1.84074e-05
1.85992e-05
5.24501e-05
9.15727e-05
9.47398e-05
5.39738e-05
1.92343e-05
2.0199e-05
5.6839e-05
0.000101173
0.000106643
5.97754e-05
2.11641e-05
0.000204873
0.000360113
0.000525237
0.000567434
0.000823489
0.00116729
0.00143843
0.00153618
0.00201808
0.00264431
0.00321749
0.00392554
0.00489381
0.00634686
0.00864517
0.0121648
0.0172981
0.0243127
0.0333914
0.0445909
0.057858
0.0730167
0.0897969
0.107786
0.126545
0.145274
0.163341
0.179361
0.192661
0.202314
0.208374
0.211242
0.213766
0.218292
0.224641
0.232591
0.241834
0.252355
0.263993
0.276994
0.291524
0.308005
0.326922
0.348998
0.375265
0.407369
0.457303
0.55783
0.767791
1.18579
2.00554
3.65166
7.11543
14.52
29.1328
52.6869
78.6515
96.6818
105.438
109.169
110.919
112.095
113.265
114.42
115.595
116.809
118.081
119.432
120.883
122.455
124.17
126.054
128.132
130.433
132.987
135.826
138.985
142.498
146.405
150.743
155.555
160.881
166.764
173.246
180.369
188.177
196.712
206.014
216.125
227.083
238.926
251.69
265.408
280.113
295.833
312.595
330.419
349.327
369.334
390.449
412.682
436.033
460.502
486.08
512.756
540.511
569.327
599.171
630.016
661.819
694.543
728.133
762.546
797.716
833.59
870.094
907.17
944.735
982.722
1021.05
1059.64
1098.41
1137.27
1176.16
1214.97
1253.63
1292.06
1330.16
1367.87
1405.09
1441.76
1477.79
1513.12
1547.66
1581.36
1614.15
1645.97
1676.77
1706.49
1735.08
1762.49
1788.67
1813.57
1837.15
1859.36
1880.17
1899.54
1917.44
1933.83
1948.69
1961.91
1973.52
1983.43
1991.52
1996.86
1999.3
1999.82
1999.65
1999.05
1997.3
1993.5
1987.61
1981.02
1975.06
1970.05
1965.74
1961.81
1958.04
1954.33
1950.67
1947.09
1943.61
1940.24
1936.99
1933.86
1930.86
1927.98
1925.23
1922.6
1920.12
1917.77
1915.57
1913.52
1911.62
1909.88
1908.31
1906.91
1905.7
1904.67
1903.85
1903.24
1902.84
1902.67
1902.73
1903.03
1903.57
1904.32
1905.16
1905.54
1903.17
1890.31
1841.12
1694.16
1366.48
871.651
428.601
177.746
69.1326
26.6005
10.4316
4.22765
1.78878
0.810457
0.414319
0.249432
0.172239
0.116791
0.053752
0.0146189
0.00651049
0.00225758
0.00194119
0.00179661
0.00162436
0.00154882
0.00143897
0.00139343
0.001315
0.00128478
0.00122537
0.00120315
0.00115657
0.00113953
0.00110158
0.00108806
0.00105611
0.00104509
0.00101748
0.0010083
0.000983949
0.00097611
0.00095432
0.000947471
0.000927715
0.000921627
0.000903475
0.000897983
0.000881124
0.000876101
0.000860294
0.000855638
0.000840685
0.000836313
0.000822048
0.000817886
0.000804166
0.00080015
0.000786847
0.000782918
0.000769916
0.00076602
0.000753215
0.000749304
0.000736609
0.000732642
0.000719974
0.000715902
0.000703169
0.000698932
0.00068602
0.00068154
0.000668309
0.000663523
0.000649838
0.000644627
0.000630272
0.00062449
0.000609198
0.000602641
0.000586055
0.000578423
0.000560022
0.000550832
0.000529784
0.000518213
0.000493167
0.000477728
0.000446685
0.000423974
0.00038364
0.000346844
0.000283568
0.000241916
0.000189074
0.000171881
0.00018027
0.000202655
0.000239713
0.000187027
0.000215838
0.000270715
0.0003086
0.000359987
0.000392992
0.00047556
0.000503127
0.000529291
0.000515749
0.000499692
0.000463866
0.000444874
0.000423726
0.000422133
0.000428596
0.000439422
0.000464524
0.000485916
0.000518508
0.000543383
0.00057843
0.000601941
0.00063512
0.000653513
0.000679971
0.000691878
0.000706359
0.000710812
0.000714925
0.000708207
0.000704115
0.000688096
0.000675794
0.000646058
0.000624414
0.000578968
0.0005466
0.000481718
0.000440985
0.000362044
0.000317959
0.000233742
0.000187408
0.000209333
0.000236299
0.00038461
0.000296908
0.000429768
0.000570258
0.000666882
0.00049615
0.000632631
0.00083392
0.00100376
0.000713746
0.00049578
0.000278901
0.00032699
0.000598984
0.000834452
0.000948555
0.000701064
0.000386077
0.000440459
0.000764601
0.000981365
0.00119572
0.00143758
0.00122298
0.000865826
0.000680524
0.000779331
0.000997777
0.00100102
0.00081027
0.000884179
0.00111433
0.00137657
0.00147839
0.00110258
0.00090318
0.000958504
0.00120147
0.0011795
0.000968662
0.00101078
0.00126385
0.00154976
0.00160154
0.00122873
0.00101031
0.00104122
0.00130251
0.001259
0.00103169
0.0010504
0.00132015
0.00162756
0.00163835
0.0012709
0.00103351
0.00103724
0.00132114
0.00126609
0.00101324
0.00101024
0.00130609
0.00161906
0.00158298
0.00124299
0.000973983
0.000965266
0.00127264
0.00119412
0.000918879
0.000906989
0.0012235
0.00153524
0.00145482
0.00113968
0.000856313
0.000844197
0.00117001
0.00109072
0.00079936
0.000791626
0.0011138
0.00134813
0.00112778
0.00104898
0.000767409
0.000771608
0.00105012
0.000987812
0.000774042
0.000782689
0.000933205
0.000802302
0.000549247
0.000826144
0.000782086
0.000770301
0.000656738
0.000565822
0.000771218
0.000692783
0.000528919
0.000505058
0.000481735
0.000435885
0.000630971
0.000494492
0.0003587
0.000315551
0.00036921
0.000261224
0.000328185
0.000522977
0.00063573
0.000372337
0.000223137
0.000294578
0.00036345
0.000400629
0.000282123
0.000275
0.000427894
0.000847333
0.00111351
0.000543957
0.000275747
0.00029397
0.000552699
0.000745224
0.000371683
0.000410199
0.00073106
0.00138055
0.00166292
0.000952682
0.000519508
0.000569615
0.00093202
0.00115027
0.000676565
0.000717311
0.00111562
0.00191075
0.00214442
0.00131665
0.000801476
0.000826748
0.00126485
0.00145338
0.000897598
0.000911817
0.00138795
0.00235017
0.00254809
0.00157013
0.000974396
0.000981657
0.00149287
0.00167328
0.00103881
0.0010412
0.00158587
0.00273308
0.00291067
0.00176745
0.00109528
0.00109455
0.00167098
0.00185357
0.00114634
0.00114357
0.00175043
0.00308458
0.00325675
0.00193546
0.00119351
0.00118909
0.00182591
0.00201437
0.0012379
0.00123212
0.00189865
0.00342873
0.00360189
0.00209124
0.00128035
0.00127344
0.00196954
0.00216676
0.00132156
0.00131371
0.00203937
0.00377724
0.00395565
0.00224171
0.00136201
0.00135323
0.00210906
0.00231712
0.00140202
0.00139244
0.00217868
0.00413749
0.00432345
0.00239382
0.00144206
0.0014318
0.00224913
0.00247236
0.00148256
0.00147174
0.0023218
0.00451449
0.00471202
0.00255369
0.00152395
0.00151266
0.00239816
0.0026397
0.00156657
0.00155487
0.0024787
0.00492
0.00514159
0.00273075
0.0016108
0.00159874
0.00256378
0.00282729
0.00165709
0.00164477
0.00265444
0.00538071
0.00564103
0.00293061
0.001706
0.00169354
0.00275193
0.00304219
0.00175817
0.00174571
0.00285775
0.00592723
0.00624504
0.00316383
0.00181438
0.00180206
0.00297369
0.00329772
0.00187556
0.00186357
0.00310199
0.00660174
0.00700628
0.00344661
0.00194285
0.00193144
0.00324542
0.00361391
0.00201769
0.00200714
0.00340701
0.00746894
0.00800029
0.00380354
0.00210199
0.0020928
0.00359053
0.00402258
0.00219861
0.00219143
0.00380424
0.00862263
0.00936922
0.00428014
0.00231129
0.00230707
0.00405783
0.00458905
0.00244526
0.00244547
0.00436568
0.0102874
0.011447
0.00496857
0.00260809
0.00261494
0.00474982
0.00545013
0.00281322
0.00283385
0.00524609
0.0129621
0.0150306
0.00608149
0.00308081
0.00312426
0.00591193
0.00695483
0.00344872
0.0035312
0.00686432
0.0180417
0.0228935
0.00824404
0.00398781
0.0041608
0.00836251
0.0103576
0.00484399
0.00528397
0.0111723
0.0320195
0.0702264
0.0492626
0.0381217
0.0312983
0.0266537
0.0232629
0.0206655
0.0186086
0.0169309
0.015515
0.014308
0.0132679
0.012363
0.0115679
0.0108621