/*--------------------------------*- C++ -*----------------------------------*\
| =========                 |                                                 |
| \\      /  F ield         | OpenFOAM: The Open Source CFD Toolbox           |
|  \\    /   O peration     | Version:  v2006                                 |
|   \\  /    A nd           | Website:  www.openfoam.com                      |
|    \\/     M anipulation  |                                                 |
\*---------------------------------------------------------------------------*/
FoamFile
{
    version     2.0;
    format      ascii;
    class       volScalarField;
    location    "0.065";
    object      Ma;
}
// * * * * * * * * * * * * * * * * * * * * * * * * * * * * * * * * * * * * * //

dimensions      [0 0 0 0 0 0 0];


internalField   nonuniform List<scalar> 
38932
(
0.174232
0.174237
0.174231
0.174225
0.174214
0.174193
0.174164
0.174125
0.174076
0.174018
0.173952
0.173877
0.173793
0.173701
0.173601
0.173492
0.173374
0.173248
0.173114
0.172971
0.17282
0.172661
0.172493
0.172318
0.172134
0.171942
0.171743
0.171535
0.17132
0.171098
0.170868
0.17063
0.170385
0.170133
0.169874
0.169608
0.169335
0.169055
0.168769
0.168476
0.168177
0.167872
0.16756
0.167243
0.16692
0.166591
0.166257
0.165917
0.165573
0.165223
0.164869
0.16451
0.164146
0.163779
0.163407
0.163031
0.162652
0.162269
0.161883
0.161494
0.161103
0.160708
0.160311
0.159912
0.159511
0.159108
0.158704
0.158299
0.157892
0.157485
0.157077
0.156669
0.156261
0.155853
0.155445
0.155039
0.154633
0.154229
0.153826
0.153425
0.153025
0.152629
0.152235
0.151843
0.151455
0.15107
0.150689
0.150312
0.149939
0.14957
0.149206
0.148847
0.148493
0.148145
0.147803
0.147466
0.147136
0.146812
0.146495
0.146185
0.145882
0.145587
0.145299
0.145019
0.144746
0.144482
0.144227
0.14398
0.143741
0.143512
0.143291
0.143079
0.142877
0.142684
0.1425
0.142326
0.142161
0.142006
0.141862
0.141728
0.141607
0.1415
0.141413
0.141359
0.141368
0.141456
0.14206
0.142248
0.147563
0.14359
0.152996
0.102446
0.144644
0.134346
0.142825
0.142527
0.136955
0.14311
0.139688
0.138968
0.141501
0.141115
0.139503
0.13685
0.134328
0.139388
0.140901
0.140644
0.138949
0.132088
0.130112
0.138351
0.140349
0.140039
0.137737
0.128369
0.126832
0.1371
0.139703
0.139331
0.136446
0.125442
0.124168
0.135779
0.138927
0.138501
0.135114
0.122997
0.121915
0.134455
0.138062
0.137609
0.133802
0.120902
0.119946
0.133154
0.137144
0.136669
0.13251
0.119036
0.118165
0.13187
0.136185
0.135693
0.131233
0.117325
0.116512
0.130598
0.135192
0.134684
0.129965
0.115719
0.114943
0.129331
0.134167
0.133642
0.128695
0.11418
0.113428
0.128056
0.133107
0.132563
0.127414
0.112683
0.111944
0.126766
0.132008
0.131442
0.126112
0.111207
0.110473
0.125451
0.130864
0.130273
0.124782
0.109738
0.109002
0.124103
0.12967
0.129052
0.123414
0.108263
0.10752
0.122715
0.128421
0.127774
0.122004
0.106772
0.106017
0.121281
0.127113
0.126434
0.120544
0.105256
0.104486
0.119793
0.125739
0.125026
0.119027
0.103707
0.102918
0.118245
0.124295
0.123543
0.117445
0.102117
0.101302
0.116628
0.122771
0.121977
0.11579
0.100473
0.0996292
0.114932
0.12116
0.120319
0.114052
0.0987682
0.0978892
0.113148
0.119452
0.118559
0.112221
0.0969909
0.0960723
0.111267
0.117638
0.116688
0.110287
0.0951322
0.0941693
0.109279
0.115708
0.114697
0.108241
0.0931826
0.0921707
0.107173
0.113654
0.112576
0.106073
0.0911323
0.090066
0.104939
0.111463
0.110312
0.10377
0.0889703
0.0878434
0.102565
0.109123
0.107892
0.10132
0.0866838
0.0854894
0.100035
0.106619
0.105301
0.0987062
0.0842582
0.0829879
0.0973322
0.103935
0.102519
0.0959101
0.0816762
0.0803206
0.0944371
0.101049
0.0995239
0.0929104
0.0789183
0.0774668
0.0913271
0.0979396
0.0962933
0.0896842
0.0759634
0.0744051
0.0879786
0.0945817
0.0928017
0.0862071
0.0727893
0.0711132
0.0843666
0.0909499
0.0890229
0.0824538
0.0693737
0.0675678
0.0804652
0.0870171
0.0849288
0.0783973
0.0656926
0.0637445
0.0762463
0.0827539
0.0804882
0.0740082
0.0617202
0.0596159
0.0716788
0.0781272
0.0756662
0.0692537
0.0574279
0.0551522
0.0667284
0.0731002
0.0704241
0.0640982
0.0527849
0.0503223
0.0613586
0.067633
0.064722
0.0585057
0.0477609
0.0450984
0.0555359
0.061687
0.0585243
0.0524466
0.0423328
0.039464
0.0492367
0.0552317
0.0518081
0.0459064
0.0364933
0.0334246
0.0424587
0.0482547
0.0445751
0.0388991
0.0302647
0.0270245
0.0352377
0.0407772
0.0368732
0.0314894
0.0237199
0.0203734
0.0276758
0.0328816
0.0288283
0.023826
0.0170146
0.0136826
0.0199792
0.0247492
0.0206881
0.0161829
0.0104245
0.00729581
0.0124941
0.0167003
0.0128419
0.00896635
0.00434069
0.00166646
0.00569756
0.00920519
0.0058792
0.00274439
0.000926763
0.00289715
0.000666669
0.00294934
0.00121134
0.00242558
0.0045404
0.00585266
0.0042711
0.00272751
0.00459905
0.00584017
0.00694441
0.00784934
0.007157
0.00620933
0.00760667
0.00829925
0.00862267
0.00924462
0.00927124
0.00880131
0.00987267
0.0101504
0.00977662
0.0102526
0.0109893
0.0108792
0.0118565
0.0118146
0.0106847
0.0110944
0.0126313
0.0128196
0.0137414
0.013414
0.0115574
0.0120859
0.0141547
0.0145926
0.0153644
0.014857
0.0126549
0.0132309
0.0155082
0.0160503
0.0166456
0.0160927
0.0137855
0.0142869
0.0165944
0.0171426
0.0175315
0.0169983
0.014711
0.0150501
0.017304
0.0178166
0.0179982
0.0175091
0.0153016
0.0154555
0.0176101
0.0180745
0.0180471
0.0176079
0.0155139
0.0154771
0.0175022
0.0179183
0.0176925
0.0172972
0.0153451
0.0151193
0.0169981
0.0173752
0.0169733
0.016612
0.0148052
0.0144102
0.0161454
0.0164927
0.0159421
0.0156066
0.0139416
0.0134067
0.015003
0.0153276
0.0146572
0.014342
0.0128159
0.012174
0.0136326
0.0139395
0.0131803
0.012881
0.0114904
0.0107732
0.0120944
0.0123869
0.0115668
0.0112801
0.0100271
0.00925717
0.0104411
0.0107224
0.00985912
0.00958235
0.00846864
0.0076603
0.00870502
0.00897884
0.00808269
0.00781028
0.00683707
0.00598892
0.00689269
0.00716717
0.00623248
0.00595239
0.00512595
0.00420514
0.00497019
0.0052687
0.00427953
0.0039619
0.00326685
0.00226078
0.00290523
0.00326611
0.00225977
0.00185667
0.00127729
0.000323661
0.000859813
0.00132148
0.000539259
0.000140736
0.000403477
0.000391741
0.000393364
0.0002723
0.000298821
0.00101217
0.00188327
0.00284526
0.00370714
0.00449284
0.00510396
0.00557358
0.00587086
0.00600167
0.00596334
0.00576576
0.00541163
0.00489522
0.0042784
0.00372348
0.00323569
0.00280537
0.00229198
0.00170026
0.00112556
0.000716784
0.000512197
0.000363818
0.000466843
0.000632494
0.000717069
0.000785362
0.000791915
0.000839005
0.000659884
0.000547843
0.000414849
0.000212032
0.000269491
0.000387672
0.000444417
0.000485695
0.000498453
0.000365741
0.000435368
0.00046557
0.000444967
0.000300275
0.000407821
0.000543455
0.000545356
0.000502637
0.0004384
0.000439785
0.000522266
0.000579786
0.000598957
0.000472368
0.000522048
0.000629345
0.000585588
0.000507129
0.000407443
0.000380438
0.000482012
0.000572229
0.000631928
0.000541478
0.000534883
0.000608032
0.000538564
0.000444558
0.000345786
0.000310486
0.000396224
0.000487477
0.000560738
0.000503177
0.000457074
0.000496433
0.000420221
0.000332766
0.000262118
0.000224032
0.000266067
0.000343708
0.000420087
0.000399742
0.000339859
0.000336181
0.000257874
0.000198828
0.000205867
0.00022981
0.00014988
0.000161238
0.000235499
0.000266005
0.000207852
0.000145981
9.43165e-05
0.000169335
0.000292547
0.000402813
0.00026224
0.000132365
5.6703e-05
0.000134042
6.41881e-05
8.64882e-05
0.000229429
0.000370611
0.000517925
0.000641503
0.000487708
0.00033838
0.000180664
6.76122e-06
6.81502e-05
0.000276164
0.000446825
0.000602444
0.000761678
0.00087635
0.00070901
0.000543819
0.000357609
0.00011677
0.000158808
0.000431662
0.000630231
0.000802532
0.00098092
0.0010813
0.000882392
0.000667606
0.000431466
0.000152315
0.000102708
0.000319185
0.0006067
0.000850797
0.00108463
0.00108942
0.000824318
0.000606418
0.000365062
0.000136006
0.000184925
0.000410055
0.000647653
0.000878491
0.00109618
0.001344
0.00107814
0.000843154
0.000702183
0.000515296
0.00030785
0.00019404
0.000414441
0.000913938
0.00137453
0.00169326
0.00137954
0.00110669
0.00175192
0.00165346
0.00206129
0.00191612
0.000872372
0.00131773
0.00169244
0.00203413
0.0016655
0.0012346
0.00109637
0.0010407
0.000173138
0.000299789
0.000884962
0.0016056
0.00213419
0.00243399
0.00197325
0.00144271
0.00189186
0.00181175
0.00217257
0.00217663
0.00136237
0.00192852
0.00250561
0.00278564
0.00225425
0.00161079
0.00157114
0.00133573
0.00207606
0.00216758
0.00177166
0.00233103
0.00294212
0.00323261
0.00268586
0.00217546
0.00227912
0.00200488
0.000958034
0.00127326
0.00184226
0.00266526
0.00333745
0.00364692
0.00298376
0.00218334
0.00193977
0.00169186
0.00125106
0.00149275
0.00215416
0.00306864
0.0038157
0.00419888
0.00350765
0.00278676
0.00257897
0.00210409
0.00298192
0.00297169
0.00254776
0.00353668
0.00429414
0.00462731
0.00393128
0.00297609
0.00196093
0.00110653
0.00221062
0.00227783
0.00291889
0.00399655
0.00482099
0.00514019
0.00434391
0.00331767
0.00305715
0.00286835
0.00183633
0.00242253
0.00327891
0.00441918
0.00533535
0.00564872
0.00475441
0.00362629
0.00278649
0.00209207
0.00327232
0.00356189
0.00368553
0.004791
0.00580861
0.00617693
0.00525117
0.0041318
0.00275278
0.00142219
0.00278129
0.0033649
0.00416283
0.00535498
0.00640758
0.00681258
0.00579079
0.00467876
0.00390645
0.00305294
0.00150467
0.00262684
0.00435913
0.00581644
0.00697377
0.00746181
0.00640502
0.00525186
0.0042619
0.0030549
0.00440739
0.00471603
0.00505205
0.00652065
0.00762775
0.00799277
0.0069666
0.00554779
0.00382495
0.00207545
0.00419923
0.00457489
0.00555365
0.0070663
0.00822817
0.00857623
0.00745797
0.00593815
0.00437439
0.00346503
0.00234951
0.00411503
0.00614017
0.00772268
0.00890136
0.00924861
0.00805762
0.0064545
0.00470094
0.00354888
0.00319989
0.00462843
0.00655765
0.00821488
0.00951081
0.00987785
0.00860929
0.00694769
0.00497391
0.00349601
0.00429283
0.00542503
0.0070387
0.00874904
0.0101288
0.0105337
0.00919464
0.00745151
0.00526291
0.0034487
0.00463586
0.00580506
0.00746976
0.00928728
0.0107584
0.0111541
0.0097406
0.0079256
0.00559185
0.00338158
0.00555245
0.00655175
0.00804302
0.00986104
0.0114096
0.0118491
0.0104154
0.0085822
0.00604721
0.00335831
0.0054123
0.00683948
0.00877382
0.0106372
0.0121497
0.0126621
0.0111722
0.00940414
0.00720529
0.00515722
0.003711
0.00638938
0.00921941
0.0112777
0.0129181
0.0134482
0.0118888
0.0100748
0.00778565
0.00540527
0.00660128
0.00778867
0.00982959
0.0120255
0.0136868
0.0141659
0.0126363
0.0106384
0.00781764
0.00435114
0.00757607
0.00875596
0.0105917
0.0127704
0.0144181
0.0148397
0.0132979
0.0110585
0.00801262
0.00541409
0.0061354
0.00849799
0.0114101
0.0136176
0.0152704
0.0157575
0.0140829
0.0118049
0.0086982
0.00644588
0.00550085
0.00883662
0.0120664
0.0143878
0.0160999
0.0165476
0.0148481
0.0124629
0.00927776
0.0068764
0.00710556
0.00952933
0.0126347
0.0150416
0.0168874
0.017356
0.0155747
0.013135
0.00960967
0.00645568
0.00820379
0.0103313
0.0133019
0.0157719
0.0177013
0.0182429
0.0164097
0.0139562
0.0102903
0.00626112
0.0091818
0.0111591
0.0141132
0.0166013
0.0185867
0.0191523
0.0173061
0.014831
0.0111271
0.00646378
0.00939898
0.011771
0.0150849
0.0176261
0.0195513
0.0202062
0.0183013
0.0158364
0.0121709
0.00856102
0.00750902
0.012048
0.0160173
0.0186473
0.0206897
0.0213084
0.0192947
0.0167541
0.0131359
0.00945826
0.010419
0.0123088
0.0162641
0.019407
0.0216341
0.0225448
0.0205201
0.0176938
0.0139078
0.0109819
0.00808035
0.0140128
0.018402
0.0212088
0.0232329
0.0239555
0.0221143
0.0194621
0.0156319
0.0119129
0.0124709
0.0142799
0.0193055
0.0227551
0.0247338
0.0260928
0.0243641
0.021692
0.0188232
0.0170914
0.0126818
0.0202965
0.024682
0.0264335
0.0274549
0.0288041
0.0279988
0.0264239
0.0230793
0.0165611
0.0201729
0.0254194
0.0277252
0.0289047
0.0295532
0.030108
0.0296997
0.0289012
0.0272218
0.0230963
0.0251776
0.0286021
0.0298167
0.0303518
0.0305848
0.0310031
0.0308943
0.0305302
0.0295897
0.0266044
0.0277319
0.0304151
0.0311464
0.031379
0.0313909
0.0317594
0.0318308
0.0317003
0.0311184
0.0286889
0.029503
0.0317307
0.0322014
0.0322484
0.0321103
0.0324457
0.032635
0.0326576
0.0322832
0.0302115
0.0308434
0.0327891
0.0330749
0.0329882
0.0327424
0.0330219
0.033321
0.0334671
0.0332574
0.0314117
0.0319302
0.0336877
0.0338303
0.0336216
0.0332617
0.0334722
0.0338925
0.0341651
0.0340978
0.0324589
0.032656
0.0343487
0.0343981
0.0340966
0.0336526
0.0337581
0.0342152
0.034537
0.0345082
0.032763
0.0330331
0.0346996
0.034664
0.0343006
0.0338053
0.0338505
0.0343868
0.0347975
0.03491
0.0333939
0.0337393
0.0351025
0.0349184
0.0344624
0.0338876
0.0338988
0.0345229
0.0350264
0.035273
0.0340921
0.0344279
0.0354287
0.0351355
0.0345926
0.033917
0.0341553
0.0347491
0.0352731
0.0355904
0.0347121
0.0349035
0.0357364
0.0354069
0.0349003
0.0343393
0.0342748
0.0349097
0.0354645
0.035828
0.0350872
0.0353583
0.0359116
0.0354894
0.0348972
0.0342269
0.0341662
0.0348728
0.0354935
0.0359651
0.0355957
0.0357769
0.0359658
0.0354891
0.0348433
0.0341059
0.0340378
0.0348099
0.035483
0.0359507
0.0358876
0.0359744
0.0359335
0.0354754
0.0347903
0.0339815
0.0339781
0.0348099
0.0354847
0.0359238
0.0359945
0.0359658
0.0359361
0.0355538
0.0349609
0.0343001
0.0345923
0.0351472
0.0356607
0.0359902
0.0359173
0.0358795
0.0360051
0.0357026
0.0351901
0.0345704
0.0346813
0.0352334
0.0357183
0.0360102
0.0356781
0.0355187
0.0360046
0.0357384
0.0352957
0.0348014
0.034691
0.0352435
0.0357056
0.0359801
0.0353379
0.035229
0.0359275
0.0356441
0.0351615
0.0345902
0.0345072
0.0350765
0.0355677
0.0358625
0.0351764
0.0351278
0.0357464
0.0354534
0.0349599
0.0343836
0.0342399
0.0348209
0.0353161
0.0356047
0.0349839
0.0348659
0.035461
0.0351699
0.0346612
0.0340641
0.0338516
0.0344908
0.0350198
0.0353331
0.0348235
0.034776
0.0352416
0.0349121
0.0344115
0.0338482
0.0338378
0.0343446
0.0348236
0.0351771
0.0346333
0.0345408
0.0350358
0.0346639
0.0341551
0.0335934
0.0333354
0.0339252
0.0344644
0.0348556
0.0344594
0.0344043
0.0346522
0.0342338
0.0336691
0.0330489
0.0327396
0.0333982
0.0339937
0.0344395
0.0343587
0.0342639
0.034261
0.033776
0.0331346
0.0324045
0.0323539
0.0330145
0.0336413
0.0341534
0.0341367
0.0340478
0.0341044
0.0335495
0.0329302
0.0323228
0.0319971
0.0326872
0.0333723
0.034001
0.0340257
0.0335414
0.0337104
0.0330794
0.0323597
0.0316181
0.0311696
0.0319379
0.032676
0.033297
0.0329942
0.0326398
0.0328724
0.0322249
0.0314567
0.0306506
0.0300391
0.0309363
0.0317438
0.0324154
0.0322404
0.0317883
0.0319765
0.0313369
0.030576
0.029779
0.0295714
0.0302612
0.0309691
0.0315918
0.0314252
0.0312412
0.0312334
0.0305407
0.0297863
0.0290329
0.0284339
0.0292419
0.0300491
0.0308061
0.0309001
0.030468
0.0303085
0.0294947
0.0286354
0.0277715
0.0270364
0.0279574
0.0288721
0.0297273
0.0299592
0.0294029
0.0291281
0.0282173
0.0272284
0.026171
0.0257576
0.0267231
0.0276882
0.0286215
0.0290842
0.0286223
0.0281033
0.027166
0.026256
0.0254285
0.0246747
0.0255816
0.0265436
0.0275566
0.0282184
0.0278165
0.0269324
0.0258212
0.0247906
0.0238267
0.0228464
0.0238831
0.0249817
0.026137
0.0270083
0.0261921
0.0252829
0.0240808
0.0228951
0.0216834
0.0210446
0.0221471
0.0232912
0.0245013
0.0255025
0.0248933
0.0237498
0.0225378
0.0214532
0.0205248
0.0195026
0.0205062
0.0216336
0.0229131
0.0242325
0.0233407
0.0219317
0.0205848
0.0193919
0.0183237
0.016908
0.0181702
0.0194662
0.0208776
0.0223758
0.0215376
0.0198934
0.0184646
0.0172039
0.0160505
0.0153469
0.016288
0.0174622
0.0188827
0.0206001
0.0196643
0.0177629
0.0162763
0.0150758
0.0141052
0.0127031
0.0136779
0.0149248
0.016486
0.0185662
0.0172075
0.015068
0.0134549
0.0121245
0.0110105
0.00991078
0.0108459
0.0120813
0.0136842
0.0158991
0.014577
0.0122752
0.0107275
0.00965468
0.00903186
0.00782916
0.00824435
0.00919229
0.0107528
0.0132611
0.0119226
0.00908188
0.00751939
0.00679776
0.00685363
0.0064265
0.00555297
0.00578454
0.00714534
0.00999159
0.00806188
0.0052329
0.00436257
0.00500039
0.00658925
0.00710816
0.00534553
0.00382708
0.00357621
0.00617644
0.00416082
0.00265915
0.00452404
0.00673313
0.0088566
0.0116112
0.00893678
0.00636555
0.00365731
0.00210509
0.00126672
0.00571177
0.00849939
0.0110492
0.0136287
0.0154634
0.0133735
0.0110136
0.00822207
0.00343616
0.00642878
0.0110917
0.0139008
0.0163242
0.0184792
0.0225321
0.0197723
0.0171657
0.0143648
0.0104009
0.0139449
0.0176127
0.0203286
0.0228718
0.0255306
0.0282949
0.0261031
0.0236278
0.0207776
0.0163864
0.0192225
0.0241539
0.0272063
0.0298864
0.0326202
0.0362252
0.0335249
0.0308335
0.0276998
0.022374
0.0258428
0.0316036
0.0348574
0.0375186
0.0397193
0.0450454
0.0422369
0.0393733
0.0359771
0.0297885
0.0341903
0.0407498
0.0442235
0.0470622
0.0498365
0.0546395
0.0524864
0.0497754
0.0462402
0.0391751
0.0452806
0.0526348
0.0562414
0.0590433
0.0616941
0.0685738
0.0661952
0.0636907
0.0603037
0.0530342
0.062703
0.069593
0.0724679
0.0744327
0.0757561
0.0857286
0.0843956
0.0829878
0.0810452
0.0759083
0.0966158
0.0956289
0.0953535
0.0956115
0.0961707
0.107403
0.107238
0.108471
0.112362
0.126192
0.14233
0.125685
0.120292
0.117863
0.116442
0.126295
0.127406
0.129814
0.13388
0.142122
0.145658
0.142568
0.139364
0.136861
0.134742
0.144873
0.147238
0.150369
0.154546
0.158241
0.186076
0.170739
0.163424
0.159125
0.155765
0.167484
0.170645
0.175577
0.18473
0.204389
0.204205
0.192122
0.184367
0.17972
0.176543
0.184137
0.187367
0.191658
0.198365
0.208604
0.226903
0.206314
0.199099
0.194534
0.191049
0.197115
0.200819
0.205674
0.214044
0.238796
0.236497
0.219183
0.21094
0.206057
0.20277
0.206716
0.209847
0.215106
0.222868
0.235274
0.239457
0.226494
0.218467
0.213123
0.209666
0.210221
0.213748
0.219338
0.227088
0.238941
0.229789
0.223853
0.217787
0.21312
0.209976
0.208415
0.21083
0.214572
0.218645
0.219091
0.206244
0.212318
0.210554
0.20812
0.206344
0.203767
0.204934
0.206649
0.206816
0.197097
0.19796
0.203851
0.203473
0.202062
0.201117
0.197804
0.198319
0.199462
0.199599
0.195621
0.180124
0.191991
0.193405
0.19352
0.193922
0.189393
0.187893
0.186184
0.182898
0.165966
0.157169
0.175081
0.179663
0.182447
0.184906
0.180057
0.177469
0.174215
0.168601
0.150127
0.14526
0.163384
0.169596
0.173274
0.175784
0.172895
0.169568
0.165621
0.159216
0.142669
0.140831
0.155595
0.161862
0.166029
0.169648
0.166672
0.16245
0.157761
0.151124
0.136041
0.12855
0.145764
0.152992
0.158169
0.162501
0.157988
0.153874
0.148358
0.140468
0.121912
0.117084
0.135714
0.144118
0.15012
0.155287
0.151984
0.146678
0.140426
0.13166
0.113014
0.109912
0.128117
0.137024
0.143355
0.148128
0.146294
0.140681
0.134093
0.124973
0.107426
0.10507
0.12235
0.131525
0.138152
0.14382
0.140485
0.135558
0.129092
0.120032
0.103113
0.102308
0.118234
0.12709
0.133654
0.139186
0.137398
0.131837
0.125329
0.11666
0.101244
0.0985564
0.114691
0.123536
0.130342
0.136227
0.134078
0.128176
0.121343
0.112419
0.0955948
0.0933601
0.110235
0.119097
0.125666
0.130855
0.129734
0.123927
0.117127
0.10833
0.0916368
0.0902873
0.106691
0.115418
0.122177
0.12806
0.125188
0.120097
0.113654
0.105084
0.0889104
0.0876722
0.103643
0.112165
0.11877
0.124413
0.123089
0.117317
0.110756
0.102292
0.0865648
0.0855963
0.101039
0.109303
0.115542
0.120543
0.119988
0.114492
0.108081
0.099895
0.0847901
0.0838719
0.0987754
0.106951
0.113334
0.11894
0.116615
0.111762
0.105705
0.0976998
0.0829915
0.0821907
0.0967252
0.10472
0.110912
0.116231
0.11539
0.10994
0.103784
0.0958919
0.0815877
0.0808572
0.0949754
0.102717
0.108586
0.113277
0.113031
0.107914
0.10195
0.0942629
0.0802187
0.0796869
0.0935729
0.101169
0.107085
0.112361
0.11041
0.105885
0.100259
0.0928695
0.0791973
0.0787772
0.092212
0.0996183
0.105337
0.11026
0.109659
0.104574
0.0988775
0.0915764
0.0782845
0.0777278
0.090735
0.0978682
0.103248
0.107763
0.105969
0.101905
0.0967718
0.0898748
0.0771318
0.0766718
0.0892378
0.0961252
0.101406
0.105905
0.105532
0.100839
0.0955762
0.0887344
0.0761834
0.0756971
0.0882321
0.0949158
0.0999355
0.103983
0.10403
0.0996576
0.0945429
0.0878707
0.0754729
0.075318
0.0875307
0.0941324
0.0992127
0.103753
0.102306
0.0984007
0.0935634
0.0871197
0.0750028
0.0746784
0.0867449
0.0932319
0.0981761
0.102398
0.102199
0.0978036
0.0928799
0.0864855
0.0745216
0.0742674
0.0861091
0.0923915
0.0970767
0.100841
0.100973
0.0969078
0.0921369
0.0858752
0.0741585
0.0739298
0.0856001
0.0918252
0.0965738
0.10082
0.0995463
0.0959013
0.0913772
0.0852905
0.0736892
0.0735715
0.085087
0.091169
0.095782
0.0997083
0.0996127
0.0955239
0.0909281
0.0848972
0.0735417
0.0733794
0.0846359
0.0905322
0.0948948
0.0984189
0.0986039
0.0948019
0.0903315
0.0844243
0.0731696
0.0730146
0.0842216
0.090111
0.0945819
0.0985569
0.0974418
0.0940229
0.0897766
0.0840239
0.0729742
0.0730455
0.0839558
0.0896618
0.0939711
0.0976534
0.0976299
0.0937825
0.0894917
0.0838561
0.0730133
0.0729404
0.0836683
0.0891767
0.0932707
0.0965791
0.0967968
0.093241
0.0890645
0.0835672
0.0729081
0.0728281
0.0834552
0.0889033
0.0930851
0.0967969
0.095808
0.0926155
0.0886573
0.0833321
0.0728638
0.073006
0.0833011
0.0886085
0.0926363
0.0960579
0.0961093
0.0925246
0.088503
0.0832616
0.0730958
0.0730361
0.0831333
0.0882905
0.0921188
0.0951987
0.0955036
0.0922064
0.088284
0.083128
0.0731491
0.0732524
0.0831203
0.0882726
0.0921869
0.0956542
0.0948854
0.0918844
0.0882031
0.0830992
0.0734815
0.0737935
0.0832725
0.0883616
0.0921109
0.0953093
0.0956154
0.0922154
0.0884757
0.0835513
0.0741351
0.0748146
0.0837763
0.0885981
0.0921263
0.0950705
0.095662
0.09258
0.0889371
0.0840593
0.074989
0.0759506
0.084156
0.0892301
0.0929578
0.0963687
0.0960936
0.0930867
0.0894779
0.0843049
0.0763106
0.0770929
0.0847338
0.0900598
0.0937564
0.0967949
0.0979768
0.0947712
0.090937
0.0855101
0.0782245
0.0788033
0.0865392
0.0920858
0.0963192
0.0999956
0.101342
0.097097
0.0926608
0.0872711
0.0789228
0.0783492
0.0874142
0.0926594
0.0970254
0.101044
0.10023
0.0966403
0.0925057
0.0871716
0.0776346
0.077082
0.0870049
0.0926134
0.0969089
0.100819
0.101051
0.0971138
0.0927569
0.0870374
0.0768054
0.0765833
0.0871638
0.0930732
0.097725
0.101933
0.102312
0.0978229
0.0930703
0.0870749
0.0761283
0.075509
0.086817
0.092846
0.0974455
0.101356
0.10191
0.0977017
0.0929284
0.0868117
0.0754492
0.0757259
0.0868937
0.092976
0.0977769
0.10223
0.101264
0.0974202
0.0928385
0.0868634
0.0758118
0.075838
0.0869234
0.0929464
0.0976653
0.101784
0.102081
0.0977359
0.0930079
0.0870102
0.075969
0.076047
0.0870283
0.0929057
0.0974012
0.101161
0.101702
0.0976732
0.0930482
0.0871338
0.0761471
0.0763181
0.08725
0.0931447
0.0977913
0.102052
0.101215
0.0975074
0.0930748
0.0872517
0.0763712
0.0763717
0.08738
0.0932643
0.0978428
0.101808
0.102239
0.0980476
0.0934549
0.0875817
0.0765306
0.0770064
0.0878161
0.0935419
0.0978829
0.101506
0.102162
0.0983118
0.0938614
0.0881333
0.0774285
0.0776615
0.0883553
0.0940727
0.0985483
0.102632
0.10192
0.0983787
0.0941093
0.0884539
0.0776498
0.0777972
0.0886731
0.0943998
0.0987938
0.10257
0.103037
0.0990661
0.0946942
0.089042
0.0783936
0.0787985
0.089322
0.0948356
0.0989689
0.102388
0.10301
0.0993901
0.0952044
0.0897021
0.0791599
0.0797404
0.0902091
0.095666
0.0997746
0.103345
0.104292
0.100575
0.0963046
0.0907835
0.080297
0.0805438
0.0911395
0.0966667
0.100963
0.104884
0.104335
0.100916
0.0968005
0.0913089
0.080507
0.080734
0.091633
0.0971963
0.101436
0.105064
0.105633
0.101821
0.0976009
0.0921012
0.0814252
0.0820716
0.0925303
0.0978897
0.101878
0.105152
0.105861
0.102404
0.098375
0.0930326
0.08261
0.0830722
0.0935781
0.098917
0.102872
0.106277
0.10728
0.103747
0.0996338
0.0942144
0.0836069
0.0840744
0.0947138
0.100119
0.104236
0.107954
0.107552
0.104319
0.100399
0.0950799
0.0844083
0.0848907
0.0955301
0.100879
0.104901
0.108319
0.108893
0.105298
0.101289
0.0959787
0.0854614
0.0858348
0.0963306
0.101549
0.105368
0.108473
0.109164
0.105883
0.102008
0.0967701
0.0862333
0.0867407
0.0973255
0.102552
0.106357
0.109588
0.110576
0.107234
0.10329
0.0979906
0.0873126
0.0878805
0.0985461
0.103818
0.107752
0.111259
0.110937
0.107895
0.104149
0.0989746
0.0883648
0.0887797
0.0994194
0.104633
0.10848
0.111696
0.112268
0.108886
0.105044
0.0998535
0.0892641
0.0897156
0.100227
0.105338
0.108991
0.111924
0.112616
0.109522
0.105815
0.100696
0.0901662
0.0906968
0.101272
0.106359
0.109995
0.113044
0.114002
0.110845
0.107074
0.101914
0.0912646
0.0917672
0.102446
0.10759
0.111345
0.114656
0.114388
0.111509
0.10793
0.102878
0.0922935
0.0927027
0.103344
0.10843
0.112071
0.115104
0.115559
0.112579
0.109006
0.103942
0.0932358
0.0939225
0.104656
0.109759
0.11346
0.116538
0.117224
0.114006
0.110322
0.105259
0.0946114
0.0951286
0.105698
0.110695
0.114197
0.11699
0.117705
0.114756
0.111188
0.106153
0.0954621
0.0957611
0.106658
0.111726
0.115245
0.118151
0.11911
0.116111
0.112461
0.10734
0.0963844
0.0972472
0.108015
0.113062
0.116672
0.119794
0.1196
0.116895
0.113472
0.108543
0.0978803
0.0982568
0.109029
0.113984
0.117465
0.120314
0.120763
0.117959
0.114549
0.109611
0.0987759
0.0995015
0.110298
0.115278
0.118807
0.1217
0.122351
0.119314
0.115787
0.110835
0.100082
0.100315
0.111144
0.116087
0.119481
0.122138
0.122824
0.119999
0.116514
0.111469
0.100352
0.100771
0.111992
0.117053
0.120493
0.12328
0.12425
0.121384
0.117835
0.112747
0.101506
0.102341
0.113457
0.118479
0.121994
0.124975
0.124863
0.122282
0.11895
0.114044
0.103106
0.103713
0.114633
0.119527
0.122892
0.125608
0.126086
0.123418
0.120126
0.115234
0.104287
0.104831
0.115875
0.12084
0.12427
0.127025
0.12768
0.124787
0.121353
0.116357
0.105233
0.10564
0.116732
0.121672
0.124978
0.12751
0.128186
0.125502
0.122139
0.117199
0.106108
0.106551
0.117725
0.122675
0.125973
0.12862
0.129507
0.12678
0.123395
0.118401
0.10704
0.107899
0.119189
0.124124
0.127404
0.130045
0.131061
0.128357
0.124976
0.120036
0.108824
0.109484
0.120682
0.125598
0.128959
0.131772
0.131664
0.129193
0.125962
0.121086
0.109901
0.11015
0.121515
0.126439
0.129748
0.132372
0.132836
0.130248
0.126995
0.122055
0.110598
0.1111
0.122687
0.127722
0.1311
0.13376
0.134427
0.131646
0.128271
0.123198
0.111556
0.112136
0.123689
0.128645
0.131882
0.134329
0.135035
0.132451
0.12917
0.124195
0.112611
0.113243
0.124824
0.129765
0.13297
0.135502
0.136409
0.133812
0.130534
0.125586
0.114045
0.114701
0.126321
0.13124
0.134426
0.136951
0.137934
0.135335
0.132021
0.127036
0.115327
0.115825
0.127589
0.132583
0.135895
0.138613
0.138513
0.136117
0.132917
0.127951
0.116296
0.116743
0.128396
0.13337
0.136636
0.139189
0.139621
0.137095
0.133875
0.128858
0.116905
0.117367
0.129457
0.134564
0.137891
0.140489
0.141028
0.138502
0.135267
0.130209
0.118107
0.118884
0.131015
0.13611
0.139453
0.142031
0.142745
0.140071
0.136743
0.13166
0.119558
0.120225
0.132178
0.137177
0.140353
0.142704
0.143417
0.140922
0.137701
0.132706
0.120807
0.121154
0.133245
0.138258
0.141421
0.143874
0.144756
0.142236
0.138972
0.1339
0.121665
0.12228
0.134608
0.139652
0.14283
0.145293
0.146274
0.143744
0.140434
0.135298
0.122755
0.123404
0.135874
0.141031
0.144343
0.146982
0.146946
0.144612
0.141428
0.136321
0.123963
0.124401
0.136816
0.141935
0.145181
0.147657
0.148126
0.145691
0.142508
0.137387
0.124884
0.125538
0.138124
0.143269
0.146532
0.149028
0.149582
0.147162
0.143999
0.138917
0.126338
0.126936
0.139661
0.14481
0.148092
0.15058
0.151268
0.148673
0.145391
0.140225
0.127533
0.128009
0.140633
0.145738
0.148912
0.151212
0.151884
0.149433
0.14617
0.141032
0.12837
0.128655
0.141506
0.146684
0.149895
0.152315
0.153177
0.150675
0.147383
0.142144
0.12914
0.129846
0.142874
0.148071
0.151269
0.153704
0.15467
0.152169
0.148887
0.143654
0.130607
0.131264
0.144441
0.149643
0.152827
0.155253
0.156279
0.153807
0.150504
0.145223
0.131979
0.132758
0.14589
0.151155
0.154446
0.157009
0.157002
0.154737
0.151577
0.146371
0.133455
0.13385
0.146841
0.152056
0.155298
0.157702
0.158149
0.15579
0.15261
0.147387
0.134227
0.134791
0.14807
0.153326
0.156574
0.159016
0.159523
0.157144
0.153982
0.148765
0.135528
0.136025
0.149428
0.154724
0.157985
0.16043
0.160967
0.158576
0.155372
0.150071
0.136374
0.136849
0.150724
0.156138
0.159478
0.161929
0.16262
0.16007
0.156721
0.151272
0.137453
0.137995
0.151729
0.157121
0.160351
0.162621
0.163335
0.160935
0.157652
0.152238
0.138565
0.139303
0.152932
0.15829
0.16148
0.163812
0.164718
0.162315
0.159057
0.153692
0.140054
0.140659
0.154403
0.159744
0.162905
0.165246
0.166174
0.163773
0.160517
0.155119
0.141209
0.141871
0.155858
0.161223
0.164396
0.166735
0.167721
0.165325
0.162016
0.156536
0.142304
0.142899
0.157067
0.162594
0.165922
0.168418
0.168411
0.166169
0.162955
0.15745
0.14348
0.143673
0.157803
0.163388
0.166716
0.169101
0.169551
0.167209
0.16394
0.158365
0.144135
0.144805
0.159111
0.164683
0.168023
0.170443
0.170987
0.168634
0.165397
0.159859
0.145377
0.146198
0.160693
0.16625
0.16955
0.171955
0.172551
0.170228
0.16703
0.161522
0.146923
0.147713
0.162354
0.167902
0.171207
0.173576
0.174292
0.171825
0.168499
0.162902
0.148368
0.148651
0.163243
0.168838
0.172068
0.174288
0.174973
0.172593
0.169266
0.163638
0.149004
0.149538
0.164218
0.169822
0.173084
0.175412
0.176283
0.173866
0.170506
0.164818
0.149881
0.15046
0.165448
0.171139
0.174423
0.176792
0.177718
0.175273
0.171893
0.166157
0.150979
0.15149
0.166888
0.172629
0.175913
0.17829
0.1793
0.176884
0.173536
0.167812
0.152584
0.153493
0.168726
0.174374
0.177613
0.179934
0.181007
0.178635
0.175272
0.169488
0.154023
0.154711
0.170091
0.175919
0.179298
0.181767
0.181817
0.179601
0.176338
0.170573
0.155367
0.155734
0.171022
0.17682
0.180185
0.18255
0.183014
0.180708
0.177402
0.171587
0.156057
0.156819
0.172329
0.178156
0.181528
0.183914
0.184453
0.18213
0.178853
0.17305
0.157417
0.157923
0.173749
0.179631
0.18301
0.185393
0.185969
0.18365
0.180352
0.174484
0.158517
0.158981
0.175191
0.181181
0.184608
0.186983
0.187707
0.185231
0.18179
0.175721
0.159613
0.16021
0.176138
0.182162
0.185515
0.187747
0.188482
0.186102
0.182649
0.176604
0.160498
0.161012
0.177241
0.183263
0.186642
0.188953
0.189867
0.187489
0.184051
0.17802
0.161842
0.162483
0.178775
0.184785
0.188109
0.19041
0.191366
0.189007
0.185606
0.179599
0.163206
0.163947
0.180394
0.186351
0.189648
0.191941
0.192916
0.190567
0.187179
0.181158
0.164525
0.165103
0.181867
0.187908
0.191224
0.193507
0.194539
0.192188
0.188711
0.18255
0.165556
0.16615
0.183027
0.189288
0.192802
0.195274
0.195312
0.193065
0.189632
0.183376
0.166757
0.167021
0.18376
0.190069
0.19362
0.196047
0.196502
0.194141
0.190625
0.184271
0.167251
0.167884