/*--------------------------------*- C++ -*----------------------------------*\
| =========                 |                                                 |
| \\      /  F ield         | OpenFOAM: The Open Source CFD Toolbox           |
|  \\    /   O peration     | Version:  v2006                                 |
|   \\  /    A nd           | Website:  www.openfoam.com                      |
|    \\/     M anipulation  |                                                 |
\*---------------------------------------------------------------------------*/
FoamFile
{
    version     2.0;
    format      ascii;
    class       volScalarField;
    location    "0.065";
    object      T;
}
// * * * * * * * * * * * * * * * * * * * * * * * * * * * * * * * * * * * * * //

dimensions      [0 0 0 1 0 0 0];


internalField   nonuniform List<scalar> 
38932
(
298.189
298.189
298.189
298.189
298.19
298.19
298.191
298.192
298.193
298.194
298.195
298.197
298.198
298.2
298.202
298.205
298.207
298.21
298.212
298.215
298.218
298.222
298.225
298.229
298.232
298.236
298.24
298.245
298.249
298.253
298.258
298.263
298.268
298.273
298.278
298.284
298.289
298.295
298.3
298.306
298.312
298.318
298.325
298.331
298.337
298.344
298.35
298.357
298.364
298.371
298.378
298.385
298.392
298.399
298.406
298.413
298.421
298.428
298.436
298.443
298.451
298.458
298.466
298.473
298.481
298.488
298.496
298.504
298.511
298.519
298.527
298.534
298.542
298.549
298.557
298.564
298.572
298.579
298.587
298.594
298.601
298.609
298.616
298.623
298.63
298.637
298.644
298.65
298.657
298.664
298.67
298.676
298.683
298.689
298.695
298.701
298.706
298.712
298.718
298.723
298.728
298.733
298.738
298.743
298.748
298.753
298.757
298.761
298.765
298.769
298.773
298.777
298.78
298.783
298.786
298.789
298.792
298.795
298.797
298.799
298.801
298.803
298.805
298.805
298.805
298.802
298.794
298.781
298.731
298.757
298.808
298.941
299.071
298.772
298.784
298.789
298.778
299.049
299.04
298.806
298.805
298.811
298.834
299.036
299.034
298.854
298.817
298.827
298.875
299.033
299.033
298.889
298.836
298.846
298.9
299.032
299.031
298.909
298.854
298.862
298.916
299.029
299.027
298.923
298.87
298.877
298.929
299.025
299.023
298.934
298.884
298.891
298.939
299.021
299.02
298.943
298.897
298.903
298.948
299.018
299.018
298.952
298.908
298.914
298.955
299.017
299.017
298.959
298.919
298.925
298.963
299.017
299.018
298.967
298.93
298.935
298.971
299.018
299.02
298.975
298.941
298.946
298.979
299.021
299.023
298.983
298.952
298.958
298.988
299.025
299.028
298.993
298.964
298.97
298.998
299.031
299.034
299.003
298.976
298.982
299.008
299.038
299.042
299.014
298.989
298.996
299.019
299.046
299.05
299.025
299.003
299.01
299.031
299.055
299.06
299.038
299.017
299.025
299.044
299.065
299.07
299.051
299.032
299.04
299.058
299.076
299.082
299.066
299.049
299.057
299.073
299.089
299.095
299.081
299.066
299.075
299.09
299.102
299.11
299.098
299.084
299.094
299.107
299.117
299.125
299.116
299.104
299.114
299.126
299.134
299.142
299.135
299.125
299.136
299.146
299.152
299.161
299.156
299.147
299.159
299.167
299.171
299.181
299.178
299.171
299.183
299.189
299.191
299.202
299.201
299.196
299.208
299.213
299.213
299.224
299.225
299.222
299.235
299.238
299.236
299.248
299.251
299.249
299.263
299.264
299.26
299.273
299.278
299.278
299.293
299.292
299.286
299.3
299.307
299.308
299.324
299.322
299.314
299.329
299.337
299.34
299.357
299.353
299.344
299.359
299.37
299.374
299.391
299.386
299.375
299.391
299.403
299.409
299.427
299.42
299.408
299.425
299.438
299.445
299.463
299.455
299.442
299.459
299.473
299.482
299.5
299.491
299.476
299.494
299.509
299.519
299.538
299.527
299.512
299.53
299.546
299.557
299.575
299.564
299.548
299.566
299.582
299.594
299.612
299.6
299.584
299.603
299.618
299.63
299.647
299.635
299.62
299.638
299.653
299.664
299.681
299.669
299.655
299.672
299.685
299.696
299.71
299.7
299.688
299.703
299.714
299.723
299.735
299.726
299.718
299.731
299.738
299.745
299.754
299.748
299.743
299.754
299.758
299.762
299.768
299.765
299.763
299.774
299.774
299.776
299.807
299.813
299.824
300.005
299.956
299.923
300.169
300.239
300.333
300.679
300.566
300.476
300.752
300.839
300.943
301.097
301.02
300.951
301.064
301.112
301.162
301.18
301.145
301.113
301.124
301.148
301.176
301.148
301.126
301.108
301.075
301.091
301.115
301.083
301.054
301.035
300.994
301.017
301.051
301.02
300.982
300.955
300.918
300.948
300.99
300.963
300.917
300.884
300.851
300.888
300.937
300.913
300.861
300.821
300.793
300.835
300.892
300.873
300.812
300.766
300.742
300.791
300.856
300.841
300.771
300.719
300.698
300.754
300.829
300.819
300.739
300.678
300.661
300.726
300.813
300.809
300.716
300.646
300.633
300.708
300.808
300.811
300.704
300.623
300.615
300.702
300.817
300.827
300.705
300.611
300.61
300.71
300.841
300.86
300.721
300.614
300.622
300.737
300.884
300.914
300.758
300.635
300.654
300.785
300.949
300.992
300.819
300.681
300.714
300.861
301.042
301.101
300.912
300.757
300.809
300.973
301.17
301.25
301.046
300.874
300.955
301.134
301.344
301.457
301.243
301.055
301.185
301.38
301.597
301.767
301.555
301.354
301.586
301.787
301.985
302.265
302.1
301.909
302.373
302.538
302.657
303.039
302.998
302.901
302.47
301.317
300.228
299.576
299.162
298.861
298.63
298.439
298.276
298.131
297.999
297.879
297.771
297.678
297.608
297.551
297.551
297.567
297.624
297.784
297.813
297.763
297.833
298.136
298.328
298.432
298.62
298.863
299.121
299.474
299.809
300.099
300.461
300.878
301.013
300.808
300.538
300.243
299.896
299.817
300.093
300.396
300.708
300.957
300.754
300.469
300.157
299.881
299.613
299.396
299.655
299.911
300.207
300.492
300.216
299.927
299.643
299.393
299.153
298.882
299.111
299.354
299.629
299.915
299.582
299.302
299.036
298.805
298.59
298.265
298.465
298.682
298.935
299.204
298.77
298.517
298.283
298.083
297.902
297.504
297.661
297.838
298.048
298.279
297.735
297.531
297.349
297.198
297.065
296.589
296.698
296.823
296.976
297.15
296.543
296.397
296.276
296.177
296.094
295.591
295.65
295.722
295.817
295.934
295.339
295.246
295.176
295.128
295.093
294.611
294.623
294.65
294.698
294.772
294.235
294.176
294.144
294.136
294.146
293.689
293.659
293.65
293.667
293.717
293.204
293.153
293.152
293.178
293.227
292.736
292.662
292.625
292.663
292.672
292.076
292.067
292.084
292.112
292.14
291.442
291.166
291.112
291.07
291.049
287.456
287.852
288.897
289.239
289.833
287.925
286.84
284.66
282.659
282.084
280.613
281.652
283.681
286.012
287.784
288.1
286.55
284.423
282.231
282.659
281.776
281.13
283.74
286.302
287.981
288.062
286.532
284.607
282.895
281.285
280.423
281.438
283.657
286.153
288.048
288.298
286.601
285.194
283.524
281.334
279.732
282.496
284.362
286.096
287.994
288.235
286.604
285.205
283.641
281.851
279.223
282.007
284.248
285.946
288.017
288.221
286.525
284.169
282.032
282.628
280.91
281.397
283.933
286.391
288.164
288.419
286.952
284.816
282.932
283.387
280.303
280.679
283.572
286.15
288.318
288.52
286.914
284.517
282.265
282.782
280.944
280.091
283.292
286.524
288.328
288.609
286.902
285.054
283.111
281.985
280.286
280.28
283.472
286.436
288.353
288.571
286.719
285.272
283.437
280.451
278.283
281.201
284.091
286.268
288.469
288.723
286.908
285.26
283.391
281.115
277.223
281.423
284.315
286.269
288.539
288.91
287.154
285.063
282.915
282.086
277.931
281.454
284.331
286.48
288.631
289
287.457
284.885
282.446
283.204
278.787
280.102
283.607
286.586
288.707
289.07
287.463
285.032
282.526
283.153
280.306
279.316
283.32
286.975
288.843
289.117
287.435
285.548
283.47
282.436
280.306
279.591
283.475
286.912
288.902
289.166
287.314
285.894
283.969
281.07
278.891
280.591
284.058
286.814
289.01
289.365
287.418
286.028
284.177
281.242
277.514
280.952
284.386
286.721
289.224
289.521
287.616
286.082
284.092
281.237
276.793
281.343
284.733
286.887
289.38
289.686
287.8
286.135
284.134
281.429
276.171
281.119
284.719
286.972
289.51
289.838
287.882
285.97
283.724
281.288
275.617
281.391
284.95
287.078
289.608
290.003
288.065
285.823
283.203
282.057
275.872
281.175
284.82
287.095
289.7
290.152
288.259
285.352
282.314
282.865
277.606
280.108
284.303
287.483
289.855
290.345
288.543
285.656
282.541
283.29
279.039
278.671
283.8
288.032
290.22
290.617
288.687
286.397
283.607
282.257
280.396
279.129
284.165
288.393
290.549
290.926
288.807
286.924
284.291
281.445
279.599
280.05
284.811
288.457
290.828
291.21
288.959
287.241
284.677
280.877
277.754
280.882
285.377
288.493
291.079
291.436
289.224
287.465
284.943
280.922
276.013
281.523
285.916
288.558
291.348
291.708
289.543
287.618
285.117
281.662
275.312
281.901
286.241
288.723
291.555
291.977
289.742
287.512
284.695
281.749
274.916
282.251
286.57
288.907
291.845
292.365
290.072
287.384
284.104
282.287
275.178
282.344
286.784
289.224
292.252
292.939
290.6
287.12
283.177
283.102
277.041
281.52
286.528
289.917
292.792
293.622
291.184
287.329
282.99
283.656
277.996
278.446
285.401
290.683
293.808
294.573
291.616
288.652
284.145
278.469
277.255
281.407
287.625
291.738
295.16
297.043
294.261
289.334
282.892
282.655
284.299
283.416
290.698
295.798
298.467
299.97
298.286
298.136
294.194
282.052
301.149
300.309
301.292
300.543
300.111
300.076
300.045
299.879
300.584
300.957
300.225
300.09
300.182
300.163
300.174
300.173
300.172
300.169
300.17
300.156
300.154
300.155
300.159
300.164
300.168
300.165
300.16
300.156
300.151
300.145
300.141
300.146
300.151
300.156
300.161
300.157
300.151
300.146
300.14
300.133
300.128
300.135
300.141
300.147
300.153
300.148
300.142
300.136
300.128
300.12
300.115
300.123
300.131
300.137
300.143
300.139
300.132
300.125
300.117
300.107
300.102
300.111
300.12
300.127
300.134
300.13
300.122
300.114
300.105
300.095
300.09
300.1
300.109
300.117
300.125
300.12
300.112
300.104
300.095
300.085
300.081
300.09
300.099
300.108
300.115
300.111
300.103
300.094
300.085
300.075
300.07
300.08
300.089
300.098
300.106
300.101
300.092
300.084
300.074
300.065
300.059
300.069
300.078
300.087
300.095
300.087
300.08
300.072
300.063
300.052
300.047
300.057
300.066
300.074
300.081
300.078
300.07
300.062
300.052
300.042
300.037
300.047
300.057
300.066
300.075
300.07
300.062
300.053
300.043
300.032
300.026
300.038
300.048
300.057
300.066
300.061
300.052
300.043
300.034
300.023
300.017
300.029
300.038
300.047
300.055
300.047
300.04
300.032
300.024
300.013
300.008
300.018
300.026
300.033
300.038
300.032
300.026
300.02
300.013
300.003
299.998
300.008
300.015
300.021
300.026
300.02
300.015
300.01
300.003
299.994
299.989
299.998
300.005
300.01
300.016
300.012
300.006
300.001
299.994
299.985
299.981
299.99
299.996
300.002
300.008
300.004
299.998
299.992
299.985
299.977
299.973
299.981
299.988
299.993
299.999
299.995
299.989
299.983
299.977
299.969
299.965
299.972
299.979
299.985
299.99
299.985
299.98
299.975
299.968
299.961
299.956
299.964
299.97
299.975
299.98
299.976
299.971
299.966
299.959
299.952
299.948
299.955
299.962
299.968
299.973
299.97
299.964
299.958
299.952
299.944
299.939
299.948
299.955
299.961
299.967
299.963
299.957
299.951
299.944
299.935
299.93
299.939
299.946
299.952
299.958
299.952
299.947
299.942
299.935
299.925
299.92
299.93
299.937
299.943
299.948
299.945
299.939
299.933
299.926
299.915
299.913
299.922
299.93
299.936
299.942
299.938
299.932
299.926
299.918
299.909
299.904
299.914
299.922
299.928
299.934
299.929
299.923
299.917
299.91
299.901
299.897
299.906
299.913
299.918
299.924
299.919
299.914
299.909
299.902
299.893
299.888
299.898
299.905
299.911
299.916
299.913
299.907
299.901
299.894
299.885
299.879
299.889
299.897
299.903
299.909
299.904
299.898
299.892
299.885
299.877
299.871
299.88
299.887
299.893
299.899
299.892
299.887
299.882
299.876
299.867
299.861
299.871
299.877
299.882
299.887
299.884
299.878
299.872
299.866
299.857
299.851
299.861
299.868
299.874
299.88
299.875
299.869
299.863
299.856
299.848
299.841
299.851
299.857
299.863
299.868
299.861
299.856
299.851
299.845
299.837
299.831
299.84
299.846
299.851
299.855
299.851
299.845
299.84
299.834
299.825
299.82
299.828
299.834
299.84
299.845
299.837
299.833
299.828
299.822
299.814
299.808
299.816
299.821
299.825
299.829
299.823
299.819
299.814
299.809
299.801
299.795
299.802
299.808
299.812
299.817
299.81
299.805
299.8
299.795
299.788
299.78
299.787
299.792
299.796
299.8
299.79
299.787
299.784
299.779
299.773
299.765
299.771
299.775
299.779
299.782
299.774
299.77
299.766
299.762
299.757
299.747
299.753
299.756
299.76
299.764
299.75
299.748
299.745
299.742
299.737
299.727
299.731
299.733
299.735
299.736
299.725
299.723
299.721
299.719
299.717
299.705
299.707
299.708
299.71
299.712
299.694
299.694
299.693
299.693
299.693
299.679
299.677
299.677
299.677
299.677
299.661
299.661
299.661
299.662
299.664
299.648
299.644
299.643
299.642
299.644
299.618
299.62
299.622
299.624
299.629
299.609
299.602
299.598
299.595
299.592
299.568
299.57
299.573
299.579
299.587
299.564
299.553
299.546
299.542
299.538
299.506
299.511
299.516
299.524
299.539
299.51
299.492
299.483
299.477
299.475
299.435
299.439
299.446
299.457
299.478
299.439
299.415
299.403
299.395
299.388
299.344
299.346
299.354
299.367
299.399
299.339
299.309
299.295
299.287
299.285
299.212
299.215
299.223
299.238
299.278
299.192
299.149
299.137
299.134
299.142
299.045
299.032
299.028
299.032
299.059
298.892
298.88
298.892
298.906
298.916
298.808
298.778
298.744
298.691
298.557
298.326
298.516
298.596
298.645
298.677
298.572
298.523
298.469
298.403
298.327
298.28
298.275
298.33
298.385
298.429
298.321
298.243
298.169
298.1
298.114
297.497
297.815
297.959
298.061
298.145
297.954
297.874
297.759
297.571
297.214
297.243
297.456
297.611
297.72
297.803
297.673
297.585
297.476
297.328
296.982
296.878
297.193
297.348
297.464
297.56
297.464
297.36
297.23
297.032
296.533
296.622
296.935
297.14
297.276
297.378
297.299
297.204
297.076
296.897
296.784
296.604
296.841
297.041
297.172
297.27
297.255
297.174
297.052
296.873
296.844
297.022
296.995
297.114
297.216
297.315
297.357
297.303
297.24
297.194
297.438
297.67
297.372
297.381
297.411
297.463
297.503
297.492
297.49
297.548
297.864
297.696
297.588
297.568
297.584
297.608
297.671
297.681
297.701
297.731
297.861
298.269
297.929
297.871
297.831
297.806
297.874
297.927
297.994
298.113
298.468
298.595
298.275
298.128
298.041
297.981
298.077
298.143
298.237
298.392
298.674
298.72
298.478
298.327
298.232
298.172
298.232
298.302
298.396
298.533
298.724
298.741
298.58
298.459
298.367
298.291
298.352
298.432
298.526
298.645
298.815
298.878
298.716
298.599
298.504
298.424
298.503
298.574
298.666
298.783
298.946
298.985
298.833
298.72
298.627
298.545
298.592
298.674
298.763
298.87
299.011
299.024
298.899
298.799
298.716
298.648
298.676
298.747
298.826
298.918
299.029
299.035
298.932
298.848
298.774
298.704
298.744
298.8
298.866
298.942
299.033
299.023
298.946
298.88
298.82
298.763
298.778
298.835
298.892
298.953
299.025
299.041
298.968
298.908
298.852
298.795
298.815
298.872
298.926
298.983
299.058
299.067
298.997
298.942
298.891
298.845
298.859
298.907
298.955
299.006
299.07
299.071
299.013
298.965
298.92
298.872
298.894
298.933
298.974
299.018
299.072
299.073
299.024
298.983
298.944
298.904
298.912
298.952
298.989
299.027
299.073
299.072
299.03
298.994
298.96
298.928
298.935
298.968
299
299.032
299.07
299.069
299.034
299.004
298.973
298.94
298.952
298.979
299.007
299.036
299.069
299.068
299.037
299.011
298.985
298.957
298.96
298.988
299.013
299.038
299.066
299.065
299.038
299.015
298.992
298.969
298.972
298.996
299.018
299.039
299.065
299.063
299.04
299.019
298.999
298.974
298.981
299.001
299.021
299.04
299.062
299.06
299.04
299.022
299.004
298.984
298.985
299.006
299.024
299.04
299.059
299.058
299.041
299.025
299.009
298.992
298.997
299.012
299.027
299.041
299.057
299.056
299.041
299.028
299.015
299
299
299.016
299.029
299.041
299.056
299.056
299.041
299.029
299.016
299.003
299.004
299.018
299.029
299.041
299.054
299.053
299.04
299.029
299.018
299.004
299.006
299.018
299.029
299.04
299.05
299.051
299.039
299.03
299.019
299.007
299.007
299.019
299.029
299.039
299.049
299.048
299.038
299.029
299.019
299.008
299.009
299.02
299.029
299.038
299.047
299.047
299.037
299.029
299.02
299.009
299.01
299.019
299.028
299.037
299.046
299.044
299.036
299.028
299.02
299.01
299.01
299.019
299.028
299.035
299.043
299.041
299.034
299.027
299.019
299.01
299.01
299.019
299.026
299.034
299.041
299.04
299.033
299.026
299.018
299.009
299.009
299.017
299.024
299.031
299.039
299.035
299.03
299.023
299.017
299.009
299.008
299.016
299.023
299.029
299.035
299.033
299.027
299.021
299.015
299.008
299.008
299.015
299.021
299.026
299.032
299.031
299.025
299.02
299.014
299.007
299.006
299.013
299.018
299.024
299.029
299.026
299.022
299.017
299.012
299.006
299.005
299.011
299.016
299.02
299.025
299.023
299.019
299.014
299.009
299.004
299.003
299.008
299.013
299.018
299.021
299.019
299.017
299.011
299.007
299.001
299
299.005
299.01
299.013
299.017
298.994
299.015
299.006
299.004
298.999
298.996
299.001
299.01
299
299.08
298.734
299.12
299.002
299.005
298.997
299
299.009
299.048
299.125
299.267
298.098
299.379
299.061
299.023
299
299.011
299.035
299.101
299.205
299.359
297.711
299.248
299.081
299.037
299.01
299.007
299.029
299.062
299.067
298.741
298.338
299.014
299.034
299.016
298.995
298.981
298.999
299.005
298.961
298.621
298.657
298.93
298.981
298.984
298.974
298.967
298.971
298.962
298.914
298.72
298.767
298.909
298.952
298.963
298.962
298.955
298.955
298.945
298.91
298.806
298.837
298.913
298.941
298.949
298.947
298.938
298.942
298.937
298.917
298.859
298.881
298.919
298.933
298.936
298.934
298.931
298.934
298.931
298.921
298.893
298.896
298.92
298.927
298.928
298.925
298.921
298.925
298.924
298.918
298.9
298.904
298.918
298.923
298.922
298.919
298.913
298.918
298.919
298.917
298.907
298.908
298.915
298.916
298.915
298.91
298.908
298.912
298.914
298.914
298.909
298.909
298.912
298.911
298.907
298.902
298.899
298.904
298.908
298.909
298.909
298.908
298.908
298.905
298.901
298.896
298.889
298.895
298.901
298.905
298.907
298.902
298.9
298.896
298.892
298.886
298.883
298.888
298.892
298.896
298.898
298.896
298.892
298.888
298.882
298.875
298.874
298.879
298.883
298.888
298.893
298.892
298.885
298.88
298.875
298.87
298.862
298.868
298.874
298.879
298.883
298.88
298.874
298.869
298.865
298.86
298.856
298.86
298.865
298.87
298.875
298.869
298.864
298.86
298.856
298.852
298.846
298.851
298.856
298.86
298.864
298.862
298.856
298.851
298.845
298.837
298.835
298.84
298.845
298.852
298.859
298.857
298.847
298.841
298.835
298.83
298.821
298.828
298.834
298.84
298.848
298.839
298.833
298.827
298.823
298.819
298.813
298.817
298.822
298.827
298.833
298.828
298.821
298.816
298.812
298.808
298.802
298.806
298.81
298.815
298.821
298.817
298.81
298.804
298.799
298.792
298.79
298.793
298.798
298.803
298.81
298.807
298.797
298.792
298.787
298.784
298.775
298.781
298.786
298.791
298.799
298.791
298.785
298.78
298.776
298.772
298.766
298.77
298.774
298.779
298.787
298.78
298.773
298.768
298.765
298.761
298.755
298.758
298.762
298.767
298.775
298.766
298.76
298.755
298.751
298.745
298.742
298.746
298.749
298.754
298.762
298.753
298.748
298.743
298.738
298.736
298.726
298.732
298.736
298.741
298.751
298.742
298.735
298.73
298.727
298.723
298.717
298.72
298.724
298.729
298.736
298.729
298.722
298.718
298.714
298.711
298.705
298.707
298.711
298.716
298.723
298.718
298.709
298.704
298.7
298.695
298.691
298.695
298.699
298.704
298.712
298.703
298.696
298.691
298.687
298.685
298.677
298.681
298.685
298.69
298.698
298.687
298.681
298.677
298.673
298.671
298.66
298.665
298.669
298.674
298.682
298.674
298.668
298.663
298.659
298.656
298.649
298.652
298.656
298.66
298.669
298.664
298.655
298.649
298.645
298.642
298.636
298.637
298.641
298.645
298.654
298.643
298.637
298.633
298.63
298.625
298.619
298.622
298.626
298.63
298.638
298.63
298.623
298.619
298.615
298.613
298.605
298.608
298.612
298.616
298.625
298.613
298.608
298.603
298.6
298.599
298.588
298.593
298.597
298.601
298.607
298.606
298.597
298.592
298.587
298.583
298.577
298.58
298.584
298.59
298.601
298.596
298.584
298.577
298.572
298.568
298.561
298.563
298.566
298.572
298.581
298.576
298.564
298.559
298.555
298.549
298.541
298.545
298.549
298.554
298.563
298.553
298.546
298.541
298.537
298.535
298.525
298.529
298.532
298.537
298.546
298.538
298.53
298.524
298.521
298.519
298.508
298.513
298.517
298.522
298.533
298.528
298.515
298.509
298.505
298.501
298.495
298.497
298.501
298.506
298.514
298.513
298.502
298.495
298.49
298.486
298.48
298.482
298.486
298.492
298.501
298.494
298.483
298.477
298.473
298.469
298.462
298.463
298.467
298.473
298.48
298.476
298.465
298.459
298.455
298.45
298.441
298.445
298.45
298.455
298.466
298.461
298.449
298.442
298.437
298.435
298.425
298.429
298.433
298.44
298.451
298.443
298.431
298.424
298.42
298.418
298.406
298.412
298.416
298.423
298.438
298.424
298.413
298.406
298.401
298.397
298.39
298.393
298.398
298.405
298.418
298.404
298.395
298.389
298.384
298.38
298.372
298.375
298.38
298.386
298.397
298.389
298.377
298.37
298.366
298.361
298.354
298.356
298.36
298.367
298.378
298.373
298.359
298.352
298.347
298.342
298.332
298.337
298.342
298.35
298.367
298.352
298.341
298.334
298.329
298.326
298.316
298.321
298.326
298.335
298.35
298.338
298.324
298.317
298.312
298.309
298.297
298.302
298.308
298.317
298.332
298.319
298.305
298.296
298.291
298.288
298.276
298.282
298.286
298.294
298.312
298.303
298.284
298.275
298.269
298.264
298.257
298.26
298.266
298.273
298.284
298.28
298.265
298.256
298.252
298.247
298.239
298.243
298.248
298.255
298.268
298.26
298.246
298.237
298.232
298.227
298.218
298.221
298.227
298.236
298.256
298.244
298.226
298.217
298.212
298.206
298.193
298.198
298.205
298.215
298.235
298.219
298.205
298.196
298.189
298.186
298.174
298.18
298.186
298.196
298.213
298.2
298.185
298.176
298.171
298.166
298.154
298.159
298.165
298.174
298.188
298.184
298.163
298.154
298.148
298.145
298.132
298.138
298.144
298.152
298.171
298.164
298.143
298.132
298.125
298.12
298.113
298.117
298.124
298.133
298.149
298.144
298.124
298.114
298.107
298.101
298.093
298.098
298.105
298.115
298.13
298.124
298.103
298.093
298.086
298.081
298.071
298.076
298.082
298.092
298.111
298.103
298.081
298.07
298.063
298.057
298.047
298.051
298.057
298.068
298.086
298.08
298.056
298.045
298.039
298.034
298.018
298.025
298.032
298.043
298.066
298.049
298.032
298.022
298.016
298.011
297.999
298.005
298.011
298.022
298.043
298.03
298.012
298.002
297.996
297.991
297.978
297.983
297.99
298
298.019
298.014
297.992
297.981
297.975
297.97
297.955
297.961
297.969
297.981
298.004
297.999
297.971
297.958
297.95
297.946
297.932
297.939
297.946
297.958
297.985
297.976
297.947
297.933
297.923
297.916
297.908
297.913
297.921
297.933
297.953
297.943
297.921
297.908
297.901
297.895
297.886
297.892
297.897
297.907
297.926
297.921
297.897
297.885
297.877
297.872
297.862
297.868
297.875
297.886
297.905
297.897
297.874
297.861
297.853
297.847
297.837
297.841
297.849
297.862
297.892
297.883
297.851
297.838
297.83
297.822
297.806
297.814
297.824
297.838
297.862
297.855
297.828
297.814
297.805
297.799
297.785
297.792
297.801
297.815
297.837
297.832
297.805
297.791
297.783
297.776
297.761
297.767
297.777
297.79
297.818
297.809
297.78
297.765
297.757
297.75
297.733
297.74
297.75
297.763
297.79
297.784
297.751
297.736
297.728
297.722
297.707
297.715
297.724
297.738
297.767
297.755
297.725
297.71
297.699
297.69
297.683
297.69
297.699
297.715
297.747
297.73
297.702
297.686
297.676
297.668
297.66
297.667
297.676
297.692
297.723
297.708
297.679
297.663
297.652
297.644
297.634
297.642
297.652
297.669
297.704
297.683
297.655
297.637
297.625
297.617
297.605
297.613
297.623
297.639
297.674
297.654
297.623
297.606
297.594
297.586
297.573
297.58
297.59
297.608
297.648
297.634
297.594
297.576
297.566
297.557
297.538
297.547
297.56
297.578
297.614
297.599
297.566
297.549
297.538
297.53
297.514
297.522
297.534
297.552
297.587
297.574
297.539
297.522
297.513
297.505
297.488
297.496
297.507
297.525
297.56
297.552
297.514
297.496
297.486
297.477
297.459
297.468
297.481
297.501
297.538
297.532
297.486
297.465
297.454
297.446
297.431
297.441
297.453
297.474
297.52
297.496
297.456
297.435
297.421
297.411
297.402
297.412
297.424
297.444
297.484
297.467
297.428
297.408
297.395
297.386
297.376
297.385
297.395
297.414
297.451
297.441
297.399
297.379
297.366
297.357
297.347
297.356
297.366
297.385
297.424
297.409
297.369
297.349
297.336
297.327
297.316
297.325
297.336
297.356
297.4
297.384
297.342
297.32
297.306
297.295
297.281
297.291
297.304
297.328
297.379
297.366
297.316
297.291
297.276
297.264
297.243
297.256
297.273
297.297
297.338
297.33
297.285
297.262
297.247
297.234
297.217
297.228
297.245
297.27
297.313
297.304
297.256
297.232
297.217
297.206
297.186
297.197
297.212
297.237
297.284
297.271
297.222
297.199
297.186
297.175
297.153
297.164
297.18
297.205
297.258
297.24
297.189
297.166
297.152
297.141
297.119
297.13
297.146
297.17
297.215
297.206
297.155
297.131
297.118
297.107
297.084
297.096
297.113
297.139
297.189
297.183
297.123
297.096
297.08
297.07
297.051
297.065
297.082
297.11
297.17
297.144
297.091
297.062
297.044
297.029
297.019
297.033
297.05
297.079
297.135
297.113
297.06
297.031
297.013
297
296.989
297.001
297.017
297.045
297.098
297.081
297.026
296.997
296.979
296.967
296.954
296.967
296.983
297.01
297.066
297.047
296.992
296.962
296.944
296.931
296.918
296.931
296.947
296.974
297.035
297.011
296.956
296.927
296.908
296.894
296.878
296.89
296.907
296.939
297.004
296.987
296.924
296.893
296.874
296.859
296.835
296.851
296.873
296.907
296.969
296.953
296.892
296.86
296.84
296.825
296.805
296.818
296.839
296.872
296.938
296.914
296.854
296.823
296.806
296.793
296.77
296.783
296.802
296.833
296.895
296.882
296.819
296.788
296.771
296.757
296.733
296.747
296.768
296.801
296.868
296.851
296.783
296.751
296.733
296.719
296.694
296.709
296.73
296.762
296.827
296.819
296.744
296.709
296.69
296.677
296.658
296.675
296.695
296.731
296.804
296.783
296.712
296.675
296.651
296.634
296.623
296.64
296.661
296.698
296.771
296.754
296.679
296.64
296.617
296.601
296.588
296.603
296.623
296.659
296.728
296.708
296.636
296.599
296.578
296.563
296.548
296.564
296.583
296.616
296.689
296.672
296.597
296.56
296.537
296.521
296.505
296.522
296.542
296.576
296.655
296.631
296.557
296.518
296.495
296.478
296.458
296.473
296.496
296.536
296.619
296.604
296.519
296.479
296.456
296.437
296.411
296.431
296.457
296.498
296.572
296.563
296.486
296.444
296.419
296.4
296.377
296.396
296.422
296.466
296.544
296.532
296.449
296.406
296.382
296.363
296.337
296.355
296.381
296.423
296.506
296.489
296.403
296.362
296.34
296.321
296.293
296.311
296.337
296.379
296.462
296.449
296.359
296.317
296.294
296.276
296.247
296.266
296.292
296.333
296.419
296.408
296.313
296.267
296.242
296.225
296.203
296.224
296.25
296.296
296.386
296.37
296.278
296.227
296.196
296.175
296.162
296.183
296.211
296.258
296.356
296.324
296.233
296.184
296.155
296.136
296.12
296.14
296.165
296.209
296.294
296.283
296.187
296.14
296.112
296.092
296.075
296.096
296.121
296.167
296.26
296.239
296.143
296.096
296.067
296.046
296.028
296.049
296.074
296.12
296.218
296.201
296.099
296.05
296.02
295.998
295.974
295.995
296.024
296.077
296.187
296.171
296.061
296.006
295.976
295.951
295.921
295.946
295.981
296.038
296.137
296.127
296.018
295.963
295.931
295.907
295.88
295.902
295.935
295.99
296.091
296.067
295.965
295.913
295.885
295.863
295.832
295.853
295.884
295.939
296.043
296.018
295.912
295.862
295.835
295.813
295.782
295.802
295.833
295.886
295.993
295.965
295.857
295.809
295.783
295.762
295.731
295.753
295.783
295.837
295.946
295.934
295.813
295.757
295.727
295.706
295.684
295.709
295.741
295.8
295.921
295.891
295.778
295.715
295.679
295.653
295.639
295.664
295.699
295.759
295.879
295.851
295.735
295.672
295.635
295.611
295.593
295.618
295.651
295.711
295.828
295.803
295.682
295.62
295.585
295.561
295.54
295.566
295.597
295.657
295.777
295.754
295.626
295.565
295.53
295.505
295.481
295.507
295.538
295.597
295.719
295.696
295.565
295.506
295.471
295.445
295.415
295.439
295.474
295.538
295.662
295.65
295.513
295.451
295.416
295.388
295.354
295.382
295.422
295.492
295.62
295.606
295.47
295.403
295.365
295.338
295.307
295.333
295.374
295.443
295.566
295.553
295.419
295.351
295.315
295.287
295.253
295.28
295.321
295.39
295.518
295.497
295.357
295.291
295.257
295.229
295.193
295.222
295.263
295.333
295.467
295.458
295.301
295.229
295.189
295.162
295.134
295.166
295.207
295.283
295.435
295.404
295.254
295.174
295.128
295.097
295.078
295.109
295.152
295.229
295.372
295.337
295.196
295.117
295.072
295.044
295.02
295.05
295.088
295.165
295.315
295.266
295.124
295.05
295.008
294.98
294.951
294.98
295.016
295.09
295.243
295.193
295.051
294.979
294.939
294.911
294.875
294.901
294.939
295.014
295.177
295.138
294.991
294.916
294.877
294.846
294.81
294.841
294.886
294.968
295.114
295.107
294.95
294.87
294.825
294.792
294.761
294.792
294.84
294.926
295.085
295.064
294.897
294.816
294.772
294.738
294.701
294.733
294.781
294.867
295.031
295.012
294.835
294.75
294.707
294.674
294.634
294.667
294.715
294.801
294.972
294.96
294.765
294.675
294.627
294.595
294.563
294.598
294.646
294.734
294.925
294.894
294.701
294.604
294.552
294.518
294.495
294.528
294.575
294.666
294.844
294.794
294.624
294.531
294.483
294.454
294.425
294.456
294.496
294.58
294.747
294.701
294.54
294.455
294.411
294.383
294.353
294.384
294.422
294.506
294.681
294.66
294.481
294.392
294.346
294.314
294.276
294.31
294.357
294.452
294.65
294.625
294.435
294.336
294.285
294.246
294.205
294.244
294.302
294.407
294.612
294.578
294.376
294.276
294.222
294.183
294.143
294.178
294.236
294.339
294.529
294.503
294.299
294.202
294.151
294.113
294.067
294.103
294.159
294.265
294.458
294.425
294.215
294.116
294.068
294.03
293.983
294.019
294.072
294.175
294.365
294.348
294.123
294.02
293.969
293.934
293.894
293.932
293.983
294.084
294.307
294.263
294.047
293.939
293.881
293.845
293.816
293.853
293.905
294.012
294.236
294.173
293.969
293.862
293.807
293.772
293.737
293.774
293.824
293.928
294.14
294.109