/*--------------------------------*- C++ -*----------------------------------*\
| =========                 |                                                 |
| \\      /  F ield         | OpenFOAM: The Open Source CFD Toolbox           |
|  \\    /   O peration     | Version:  v2006                                 |
|   \\  /    A nd           | Website:  www.openfoam.com                      |
|    \\/     M anipulation  |                                                 |
\*---------------------------------------------------------------------------*/
FoamFile
{
    version     2.0;
    format      ascii;
    class       surfaceScalarField;
    location    "0.048";
    object      phi;
}
// * * * * * * * * * * * * * * * * * * * * * * * * * * * * * * * * * * * * * //

dimensions      [1 0 -1 0 0 0 0];
oriented        oriented;


internalField   nonuniform List<scalar> 
18081
(
-2.64791e-05
-0.00185061
0.00183182
4.53187e-05
-0.00174058
0.00171408
3.33932e-06
9.52492e-05
-2.93386e-05
0.00197717
3.2773e-05
0.00214344
-6.90023e-05
0.00217631
-1.47012e-05
0.00220509
-3.19854e-05
0.00217019
-5.28973e-06
0.00215088
-6.22524e-06
0.00212564
-1.76779e-06
0.0021105
-3.16361e-06
0.00209859
-3.28176e-06
0.00209043
-3.80014e-06
0.00208322
-4.09459e-06
0.00207627
-4.37418e-06
0.00206928
-4.63963e-06
0.00206193
-4.89195e-06
0.00205423
-5.13215e-06
0.00204618
-5.36099e-06
0.00203781
-5.57886e-06
0.00202912
-5.78572e-06
0.00202013
-5.98121e-06
0.00201083
-6.16476e-06
0.00200126
-6.33576e-06
0.00199143
-6.49357e-06
0.00198135
-6.63763e-06
0.00197105
-6.76733e-06
0.00196055
-6.88217e-06
0.00194985
-6.98171e-06
0.001939
-7.06551e-06
0.00192801
-7.13321e-06
0.00191689
-7.18442e-06
0.00190568
-7.21874e-06
0.0018944
-7.2358e-06
0.00188307
-7.2352e-06
0.00187172
-7.21676e-06
0.00186038
-7.18051e-06
0.00184906
-7.12178e-06
0.00183779
-7.04527e-06
0.00182661
-6.95049e-06
0.00181555
-6.83704e-06
0.00180462
-6.70399e-06
0.00179385
-6.55194e-06
0.00178328
-6.38112e-06
0.00177293
-6.19145e-06
0.00176282
-5.98274e-06
0.00175298
-5.84178e-06
0.00174352
-5.59374e-06
0.0017342
-5.15337e-06
0.00172514
-4.86537e-06
0.0017168
-3.78841e-06
0.0017079
-4.3079e-06
0.00170008
-3.94513e-06
0.00168935
-6.06306e-06
0.00167563
-8.08982e-06
0.0016572
-2.67258e-05
0.00162658
-3.85139e-05
0.00158746
-0.000109322
0.00153471
-0.000180168
0.00149727
-0.000414688
0.00149736
-0.000874257
0.00169754
-0.000256575
0.000448783
6.21698e-05
0.000747922
-1.80755e-06
0.000948816
3.08543e-06
0.000902007
-4.84523e-05
0.000764343
-3.33703e-06
0.000689369
-2.89027e-06
0.000251635
-2.53286e-06
0.000208645
0.000168711
6.52107e-06
0.00016219
1.348e-05
0.000201685
0.000244503
2.06112e-05
-7.16235e-06
0.000241191
1.04742e-05
-4.36726e-06
0.00019889
0.000157822
2.97406e-06
0.000154848
3.42941e-06
0.000198434
0.000241196
3.42304e-06
-3.33856e-06
0.000240129
4.40597e-06
-1.88732e-06
0.000196983
0.00015296
2.63531e-06
0.000150325
3.34974e-06
0.000196268
0.000238171
5.30692e-06
-4.02509e-06
0.000237752
4.44512e-06
-1.64799e-06
0.000193891
0.000148677
2.33212e-06
0.000146346
2.31676e-06
0.000193908
0.00023729
2.77916e-06
-2.23213e-06
0.000235948
3.57601e-06
-1.45139e-06
0.000193128
0.000144895
1.37299e-06
0.000143524
2.17939e-06
0.000192323
0.000235382
2.74682e-06
-2.92654e-06
0.000235584
2.72679e-06
-1.3e-06
0.000190698
0.000142225
1.2359e-06
0.00014099
1.27548e-06
0.00019066
0.000234131
2.72974e-06
-2.83227e-06
0.000234256
2.70869e-06
-1.19004e-06
0.000189019
0.000139801
1.1433e-06
0.000138658
1.21224e-06
0.00018895
0.000232737
2.73149e-06
-2.77132e-06
0.000232793
2.71509e-06
-1.11504e-06
0.000187294
0.000137543
1.07791e-06
0.000136464
1.17362e-06
0.000187197
0.00023122
2.74548e-06
-2.72954e-06
0.000231214
2.73399e-06
-1.06031e-06
0.000185526
0.000135403
1.03185e-06
0.000134369
1.1551e-06
0.000185401
0.000229592
2.77427e-06
-2.70636e-06
0.000229528
2.76868e-06
-1.02268e-06
0.000183715
0.000133345
1.00068e-06
0.000132342
1.1538e-06
0.00018356
0.000227861
2.81798e-06
-2.69837e-06
0.00022774
2.81782e-06
-9.9811e-07
0.000181858
0.000131343
9.81093e-07
0.000130361
1.16679e-06
0.000181672
0.00022603
2.87515e-06
-2.703e-06
0.000225854
2.87991e-06
-9.83786e-07
0.000179953
0.000129377
9.70611e-07
0.000128408
1.19168e-06
0.000179733
0.000224102
2.94409e-06
-2.71809e-06
0.000223869
2.9534e-06
-9.77633e-07
0.000177994
0.000127432
9.67484e-07
0.000126466
1.22683e-06
0.000177738
0.000222076
3.0238e-06
-2.74263e-06
0.000221784
3.03803e-06
-9.78263e-07
0.000175976
0.000125491
9.70814e-07
0.000124523
1.27187e-06
0.000175679
0.000219945
3.11488e-06
-2.77667e-06
0.000219591
3.13492e-06
-9.85181e-07
0.00017389
0.00012354
9.80459e-07
0.000122561
1.32753e-06
0.000173545
0.000217701
3.21935e-06
-2.82109e-06
0.000217276
3.24636e-06
-9.9842e-07
0.000171723
0.000121563
9.96527e-07
0.000120565
1.39483e-06
0.000171323
0.00021533
3.33945e-06
-2.8767e-06
0.000214829
3.37437e-06
-1.01803e-06
0.000169462
0.000119545
1.01898e-06
0.000118523
1.47449e-06
0.000169002
0.000212822
3.47694e-06
-2.94385e-06
0.000212241
3.52011e-06
-1.04391e-06
0.000167098
0.000117476
1.04765e-06
0.000116425
1.56664e-06
0.000166575
0.00021017
3.63246e-06
-3.02235e-06
0.000209505
3.68381e-06
-1.07578e-06
0.000164626
0.000115347
1.08222e-06
0.000114263
1.67113e-06
0.000164035
0.000207368
3.80614e-06
-3.1123e-06
0.000206614
3.86597e-06
-1.11346e-06
0.000162036
0.000113149
1.12275e-06
0.000112028
1.78854e-06
0.000161371
0.000204405
3.99912e-06
-3.21469e-06
0.000203555
4.06853e-06
-1.15727e-06
0.000159317
0.000110873
1.16983e-06
0.000109707
1.92049e-06
0.000158571
0.000201267
4.21408e-06
-3.33154e-06
0.00020031
4.29483e-06
-1.20815e-06
0.000156453
0.000108503
1.22463e-06
0.000107284
2.06946e-06
0.000155614
0.000197932
4.45493e-06
-3.46542e-06
0.000196855
4.54923e-06
-1.26733e-06
0.000153422
0.000106021
1.28852e-06
0.000104736
2.23854e-06
0.000152476
0.000194372
4.72651e-06
-3.61922e-06
0.000193157
4.83657e-06
-1.33623e-06
0.000150195
0.000103401
1.36264e-06
0.000102037
2.43033e-06
0.000149126
0.000190553
5.03296e-06
-3.79412e-06
0.000189182
5.15916e-06
-1.41533e-06
0.000146743
0.000100619
1.44688e-06
9.91664e-05
2.64532e-06
0.000145539
0.000186445
5.37515e-06
-3.99094e-06
0.000184908
5.51888e-06
-1.50471e-06
0.000143045
9.76557e-05
1.54214e-06
9.61075e-05
2.88613e-06
0.000141694
0.000182028
5.75764e-06
-4.21379e-06
0.000180311
5.92276e-06
-1.6061e-06
0.000139079
9.44959e-05
1.65106e-06
9.28397e-05
3.15884e-06
0.000137565
0.000177272
6.19017e-06
-4.47e-06
0.000175353
6.38295e-06
-1.72278e-06
0.000134812
9.11125e-05
1.77788e-06
8.93315e-05
3.47317e-06
0.000133112
0.000172133
6.68848e-06
-4.76646e-06
0.000169988
6.91053e-06
-1.85792e-06
0.000130203
8.74727e-05
1.9225e-06
8.55527e-05
3.82974e-06
0.000128299
0.000166569
7.25241e-06
-5.11453e-06
0.000164169
7.52402e-06
-2.01665e-06
0.000125209
8.35425e-05
2.09707e-06
8.14555e-05
4.25404e-06
0.000123065
0.000160515
7.92207e-06
-5.53549e-06
0.000157812
8.25619e-06
-2.20964e-06
0.000119753
7.92576e-05
2.31207e-06
7.69562e-05
4.76791e-06
0.000117311
0.000153865
8.73038e-06
-6.05907e-06
0.00015078
9.15383e-06
-2.45113e-06
0.000113712
7.45123e-05
2.58601e-06
7.19293e-05
5.41155e-06
0.00011089
0.000146457
9.73887e-06
-6.73457e-06
0.000142896
1.02948e-05
-2.76407e-06
0.000106919
6.91648e-05
2.94577e-06
6.62176e-05
6.24753e-06
0.000103615
0.000138096
1.10452e-05
-7.64131e-06
0.000133933
1.18039e-05
-3.18448e-06
9.91569e-05
6.30327e-05
3.4428e-06
5.95906e-05
7.38632e-06
9.52136e-05
0.000128504
1.28166e-05
-8.93096e-06
0.000123521
1.3913e-05
-3.78365e-06
9.00648e-05
5.58062e-05
4.17425e-06
5.16259e-05
9.03961e-06
8.51917e-05
0.000117179
1.53726e-05
-1.08954e-05
0.000110989
1.7066e-05
-4.69825e-06
7.89788e-05
4.69144e-05
5.33851e-06
4.15571e-05
1.16381e-05
7.26571e-05
0.000103251
1.93499e-05
-1.41936e-05
9.52026e-05
2.2214e-05
-6.2533e-06
6.46946e-05
3.52842e-05
7.52264e-06
2.77502e-05
1.62577e-05
5.59464e-05
8.52306e-05
2.62133e-05
-2.03046e-05
7.39308e-05
3.16078e-05
-8.8964e-06
4.45415e-05
1.88567e-05
1.56942e-05
3.1784e-06
2.88418e-05
3.14124e-05
6.15866e-05
4.12084e-05
-3.26111e-05
4.74148e-05
4.68124e-05
-1.56773e-05
1.45032e-05
-1.2478e-05
6.8696e-06
-1.93362e-05
2.62545e-05
-4.86724e-06
2.83888e-05
4.52981e-05
-1.82282e-05
6.73482e-06
3.98772e-05
-3.88584e-06
-1.92154e-05
-2.32269e-05
3.13439e-06
-2.63843e-05
9.49309e-06
-2.56017e-05
-1.03262e-05
2.65217e-05
-3.97202e-06
-1.89224e-05
1.2522e-05
-1.07691e-06
-2.85347e-05
-2.74928e-05
-2.62884e-06
-2.48888e-05
-3.72954e-06
-2.74642e-05
-2.13715e-05
-1.31712e-06
9.8711e-06
-2.29431e-05
-8.2938e-06
6.2499e-06
-2.38374e-05
-1.86337e-05
-7.30599e-06
-1.12819e-05
-1.12971e-05
-1.97917e-05
-2.47581e-05
-9.41747e-06
3.72021e-06
-2.78367e-05
-5.32071e-07
3.12245e-06
-1.91014e-05
-8.08189e-06
-2.06878e-06
-5.93074e-06
-2.85973e-06
-1.82119e-05
-2.74532e-05
-3.12572e-06
-3.37578e-06
-3.04467e-05
6.44424e-06
-1.25959e-06
-2.0265e-05
-7.13793e-06
2.34625e-06
-9.47814e-06
4.41829e-06
-2.23294e-05
-3.22408e-05
6.22274e-06
-6.98959e-06
-3.64775e-05
1.11595e-05
-3.29269e-06
-2.60832e-05
-1.28187e-05
2.07075e-06
-1.49836e-05
4.28968e-06
-2.84143e-05
-3.83424e-05
6.02226e-06
-4.04361e-06
-4.09857e-05
6.53769e-06
-1.95446e-06
-3.0629e-05
-1.70436e-05
3.17458e-07
-1.74382e-05
6.73922e-07
-3.10776e-05
-4.10134e-05
5.91934e-07
1.08014e-06
-4.07111e-05
-1.39994e-06
4.53981e-07
-3.04656e-05
-1.6996e-05
-1.52811e-06
-1.54175e-05
-2.81132e-06
-2.91229e-05
-3.91623e-05
-4.29034e-06
2.52365e-06
-3.85566e-05
-3.02722e-06
1.44775e-06
-2.79611e-05
-1.38985e-05
-1.18473e-06
-1.26417e-05
-1.67868e-06
-2.73803e-05
-3.79853e-05
-2.14706e-06
2.67089e-07
-3.84789e-05
2.88109e-07
2.86944e-07
-2.73479e-05
-1.23122e-05
5.1321e-07
-1.28357e-05
1.26075e-06
-2.81076e-05
-3.9132e-05
1.89948e-06
-2.12645e-06
-4.05766e-05
3.47594e-06
-1.09621e-06
-2.9218e-05
-1.39985e-05
1.39052e-06
-1.54855e-05
3.01774e-06
-3.09611e-05
-4.20655e-05
4.36916e-06
-3.21539e-06
-4.40314e-05
5.07149e-06
-1.61436e-06
-3.26538e-05
-1.71761e-05
1.70726e-06
-1.89056e-05
3.66172e-06
-3.46358e-05
-4.56613e-05
5.25806e-06
-3.44017e-06
-4.75484e-05
5.37407e-06
-1.75482e-06
-3.62811e-05
-2.06258e-05
1.71219e-06
-2.22714e-05
3.61709e-06
-3.81064e-05
-4.89543e-05
5.11631e-06
-3.1065e-06
-5.05882e-05
4.84223e-06
-1.63088e-06
-3.94961e-05
-2.38305e-05
1.50102e-06
-2.52844e-05
3.12111e-06
-4.10595e-05
-5.17029e-05
4.30304e-06
-2.46162e-06
-5.30637e-05
3.81705e-06
-1.36847e-06
-4.21574e-05
-2.66573e-05
1.19373e-06
-2.7911e-05
2.41373e-06
-4.34489e-05
-5.38905e-05
3.1553e-06
-1.65738e-06
-5.48698e-05
2.54207e-06
-1.02051e-06
-4.41638e-05
-2.8996e-05
8.29163e-07
-2.98711e-05
1.58574e-06
-4.49764e-05
-5.51669e-05
1.81409e-06
-7.86489e-07
-5.55136e-05
1.13792e-06
-6.45237e-07
-4.51124e-05
-3.05111e-05
4.31967e-07
-3.08833e-05
6.7083e-07
-4.52811e-05
-5.50803e-05
3.17927e-07
2.31954e-07
-5.46377e-05
-5.17477e-07
-1.97905e-07
-4.47181e-05
-3.09697e-05
-4.94128e-08
-3.07963e-05
-4.43703e-07
-4.41753e-05
-5.34313e-05
-1.47446e-06
1.43066e-06
-5.22475e-05
-2.45901e-06
3.33481e-07
-4.29464e-05
-3.0353e-05
-6.47192e-07
-2.96578e-05
-1.74188e-06
-4.17933e-05
-5.03877e-05
-3.53212e-06
2.81054e-06
-4.85539e-05
-4.6963e-06
9.81203e-07
-4.00087e-05
-2.87148e-05
-1.30059e-06
-2.75202e-05
-3.15995e-06
-3.82751e-05
-4.60603e-05
-5.8005e-06
4.26934e-06
-4.34668e-05
-7.07327e-06
1.66546e-06
-3.58508e-05
-2.60056e-05
-1.96844e-06
-2.41999e-05
-4.6425e-06
-3.33707e-05
-4.01478e-05
-8.1883e-06
5.75156e-06
-3.64202e-05
-9.68597e-06
2.41381e-06
-3.02129e-05
-2.19381e-05
-2.49895e-06
-1.95479e-05
-6.11143e-06
-2.67293e-05
-3.24364e-05
-1.02426e-05
7.11115e-06
-2.77866e-05
-1.18345e-05
3.08731e-06
-2.2773e-05
-1.65191e-05
-2.77783e-06
-1.3747e-05
-6.83538e-06
-1.87202e-05
-2.27758e-05
-1.18451e-05
8.5887e-06
-1.70791e-05
-1.42317e-05
3.7374e-06
-1.38262e-05
-9.97455e-06
-3.5754e-06
-6.34702e-06
-8.47213e-06
-8.86542e-06
-1.08418e-05
-1.46323e-05
8.30875e-06
-5.32956e-06
-1.37226e-05
3.63535e-06
-4.10446e-06
-2.63651e-06
-2.55846e-06
-6.57113e-06
-1.17969e-05
-2.60661e-05
1.44908e-05
-4.14586e-05
1.54357e-05
-5.8068e-05
1.63835e-05
-7.39163e-05
1.53969e-05
-8.81812e-05
1.3676e-05
-0.000100387
1.16688e-05
-0.000110285
9.4602e-06
-0.000117791
7.31566e-06
-0.000122746
5.0954e-06
-0.000125206
2.924e-06
-0.000125138
5.1272e-07
-0.000122605
-1.99928e-06
-0.000117424
-4.80032e-06
-0.000109309
-7.95007e-06
-9.8315e-05
-1.10014e-05
-8.39852e-05
-1.44728e-05
-6.68738e-05
-1.72714e-05
-4.64429e-05
-2.04877e-05
-2.39778e-05
-2.23636e-05
8.53873e-06
-3.22719e-05
5.28511e-06
3.3972e-06
6.04474e-06
-6.68868e-07
9.71973e-06
-3.56271e-06
7.13989e-06
2.73224e-06
3.96023e-06
3.23422e-06
1.47684e-06
2.52263e-06
1.50298e-06
6.33292e-07
9.15247e-07
1.47468e-06
1.67371e-06
1.99427e-06
2.74879e-06
1.63569e-06
3.16412e-06
-2.95207e-06
4.78295e-07
2.85932e-06
1.52991e-06
-2.32987e-07
1.78414e-06
-1.05071e-06
3.68359e-06
4.29614e-06
-2.13417e-06
1.66738e-07
4.78705e-06
-6.24242e-07
-7.84065e-08
3.95411e-06
1.72277e-06
8.82621e-08
1.65205e-06
5.02055e-09
4.05711e-06
5.08129e-06
-2.63441e-07
-6.45504e-07
4.69825e-06
1.01724e-06
-2.37714e-07
3.71283e-06
1.40248e-06
-5.81102e-08
1.46333e-06
-4.10868e-08
3.69667e-06
4.62062e-06
3.99201e-08
1.81727e-07
3.72523e-06
7.14923e-07
2.67971e-07
3.56394e-06
1.75113e-06
-8.4374e-07
2.49022e-06
-1.35321e-06
4.21415e-06
3.43788e-06
-1.15336e-06
6.03911e-07
3.0731e-06
-2.62025e-07
2.50067e-07
4.53696e-06
2.7358e-06
5.08343e-08
2.67064e-06
4.41733e-08
4.52894e-06
2.57914e-06
5.17655e-07
-1.04973e-06
5.21672e-07
3.16276e-06
-4.92575e-07
3.85186e-06
2.21616e-06
3.87798e-07
1.81514e-06
1.42834e-06
2.81716e-06
-2.66168e-06
4.59434e-06
-2.74858e-06
-6.16035e-06
6.32012e-06
-3.90681e-07
3.57373e-07
1.45744e-06
1.8436e-07
1.27478e-06
3.0736e-06
-2.52133e-06
-9.08095e-06
5.98581e-06
-2.78865e-06
-1.19211e-05
5.70198e-06
-5.37762e-07
-4.87887e-06
7.94123e-07
9.76576e-07
-7.57273e-08
2.7201e-06
-6.82143e-06
-1.39893e-05
4.91646e-06
-2.9784e-06
-1.61213e-05
5.26565e-06
-1.1791e-06
-8.85007e-06
-1.14239e-06
1.0705e-06
-2.10247e-06
2.40785e-06
-1.03988e-05
-1.76559e-05
4.07511e-06
-2.66209e-06
-1.93634e-05
4.52346e-06
-1.2006e-06
-1.20847e-05
-3.19778e-06
1.00828e-06
-4.09785e-06
2.03426e-06
-1.33076e-05
-2.05112e-05
3.29659e-06
-2.30496e-06
-2.19056e-05
3.86773e-06
-1.12584e-06
-1.47334e-05
-5.10636e-06
6.8834e-07
-5.87865e-06
1.74982e-06
-1.56273e-05
-2.27553e-05
2.52725e-06
-2.27821e-06
-2.39257e-05
3.33802e-06
-8.73322e-07
-1.68287e-05
-6.8417e-06
6.37926e-07
-7.55721e-06
1.51172e-06
-1.75501e-05
-2.45683e-05
2.08731e-06
-2.12042e-06
-2.55795e-05
3.02819e-06
-8.58763e-07
-1.86174e-05
-8.50321e-06
6.14187e-07
-9.19232e-06
1.3389e-06
-1.91952e-05
-2.60526e-05
1.75339e-06
-2.09912e-06
-2.69475e-05
2.88139e-06
-8.87036e-07
-2.01784e-05
-1.01856e-05
7.91264e-07
-1.0893e-05
1.18316e-06
-2.06841e-05
-2.73162e-05
1.63184e-06
-1.91437e-06
-2.81178e-05
2.85009e-06
-1.15824e-06
-2.1617e-05
-1.19408e-05
8.86355e-07
-1.27209e-05
1.20516e-06
-2.20606e-05
-2.81605e-05
1.34112e-06
-1.89738e-06
-2.89348e-05
2.81889e-06
-1.36284e-06
-2.27837e-05
-1.39553e-05
8.1482e-07
-1.47447e-05
1.16463e-06
-2.31214e-05
-2.87981e-05
1.06411e-06
-1.67686e-06
-2.96193e-05
2.52294e-06
-9.08336e-07
-2.38687e-05
-1.5636e-05
5.6711e-07
-1.619e-05
7.41927e-07
-2.40272e-05
-2.96208e-05
7.62504e-07
-1.4466e-06
-3.01487e-05
1.98625e-06
-6.95628e-07
-2.47676e-05
-1.68775e-05
5.80896e-07
-1.74569e-05
4.22936e-07
-2.46072e-05
-2.99995e-05
2.77182e-07
-1.01148e-06
-3.05072e-05
1.51319e-06
-7.27055e-07
-2.48968e-05
-1.81887e-05
4.16749e-07
-1.86169e-05
2.9092e-07
-2.47837e-05
-3.0135e-05
-9.67072e-08
-8.35737e-07
-3.03368e-05
1.01268e-06
-5.43807e-07
-2.5096e-05
-1.91792e-05
1.11465e-07
-1.93155e-05
2.77693e-07
-2.52911e-05
-2.99423e-05
-1.52127e-07
-5.54898e-07
-2.90038e-05
-4.44997e-07
-7.49405e-07
-2.51407e-05
-2.00948e-05
-1.09366e-05
-9.14356e-06
-2.41384e-05
-1.20083e-05
-1.44735e-05
-3.87102e-05
-5.20586e-06
-1.79744e-05
8.41708e-06
-2.34032e-06
-1.49999e-05
-1.11981e-05
9.01317e-07
-1.20809e-05
1.46255e-06
-1.56439e-05
-1.8873e-05
2.29168e-06
1.56435e-06
-1.76163e-05
-2.85531e-06
4.18095e-07
-1.4541e-05
-1.16956e-05
-1.55708e-06
-1.01665e-05
-3.79574e-06
-1.23384e-05
-1.43256e-05
-7.13126e-06
8.38295e-06
-6.59078e-06
-1.61676e-05
3.12652e-06
-7.11885e-06
-7.07327e-06
-5.05439e-06
-2.00907e-06
-1.03905e-05
-1.82936e-06
-1.67623e-06
-1.53274e-05
5.00557e-06
4.099e-07
-7.22298e-06
2.60655e-06
7.38232e-07
5.14756e-07
-6.39303e-06
6.929e-06
-1.43035e-05
8.61886e-06
9.559e-06
-2.34845e-05
2.37291e-05
2.7735e-05
-4.19199e-05
1.0355e-05
2.19789e-05
1.72788e-05
4.08319e-06
1.32227e-05
9.41654e-06
1.65845e-05
2.03417e-05
1.6822e-05
3.27923e-05
3.73374e-05
-5.04686e-05
1.69976e-05
3.38946e-05
2.92043e-05
-3.11416e-05
6.05274e-05
-7.01657e-05
7.24205e-05
8.34305e-05
-0.000115979
-2.16423e-05
7.42499e-05
3.07401e-05
-1.06504e-05
6.17155e-05
4.99597e-05
9.31923e-06
4.03153e-05
2.52845e-05
4.59956e-05
5.36885e-05
4.58806e-05
0.000119231
0.000115239
-0.000180849
6.09556e-05
0.000104203
0.000101464
-1.84953e-05
0.00011998
-4.99733e-05
0.000135624
0.000158461
-9.32286e-05
1.34502e-06
0.000159427
-2.34342e-06
-7.19896e-06
0.000144147
0.000112799
6.17912e-05
5.10235e-05
0.000135787
7.01377e-05
8.51964e-05
0.000209998
5.99447e-05
0.000130479
-0.000105232
2.56152e-05
0.000104463
7.66514e-05
-3.44289e-05
0.000111078
-8.09128e-05
0.000150954
0.000187914
-0.000138336
-0.000103064
0.000113815
0.000177165
-4.48213e-05
9.27118e-05
6.62569e-05
2.75574e-05
3.87014e-05
6.47982e-05
5.54714e-05
7.02343e-05
0.000108379
6.3192e-05
0.000118495
-0.000111457
2.72348e-05
9.143e-05
6.5937e-05
2.56797e-05
4.02494e-05
5.95215e-05
5.75938e-05
7.39675e-05
0.000104051
6.56439e-05
0.000122967
-0.000114653
2.79673e-05
9.53421e-05
6.81661e-05
2.39973e-05
4.38632e-05
5.8295e-05
6.15647e-05
8.05575e-05
0.000100458
7.5797e-05
0.000136286
-0.000131478
3.13509e-05
0.000105933
7.52602e-05
2.27453e-05
5.26845e-05
5.50398e-05
7.29725e-05
9.35153e-05
9.82114e-05
-4.50901e-05
6.06635e-05
7.87217e-05
-2.04761e-05
4.7036e-05
3.31796e-05
-2.58761e-05
5.90142e-05
-6.08242e-05
8.23789e-05
0.000105251
-0.00010599
-4.65913e-05
7.12883e-05
8.11985e-05
-1.97642e-05
5.488e-05
3.94963e-05
-3.06688e-05
7.00647e-05
-7.25528e-05
9.70239e-05
0.000123733
-0.000125192
-4.89215e-05
8.74801e-05
8.47894e-05
-1.95339e-05
6.81865e-05
5.04401e-05
1.72584e-05
3.19596e-05
4.33541e-05
4.39688e-05
5.65397e-05
7.33265e-05
5.65033e-05
9.78747e-05
-9.82154e-05
2.6052e-05
7.71422e-05
5.58488e-05
1.80292e-05
3.65055e-05
4.67054e-05
5.01204e-05
6.36686e-05
8.0515e-05
6.04566e-05
0.000107219
-0.000103814
2.59245e-05
8.4834e-05
6.22663e-05
2.08185e-05
4.1332e-05
4.96306e-05
5.62242e-05
7.18636e-05
8.48792e-05
7.0927e-05
0.00012215
-0.000121216
3.03828e-05
9.67775e-05
7.17353e-05
2.10022e-05
5.07606e-05
4.98408e-05
6.73911e-05
8.56494e-05
8.67368e-05
-4.15418e-05
5.51471e-05
7.2875e-05
-1.93572e-05
4.39873e-05
3.20877e-05
-2.1394e-05
5.59327e-05
-5.62594e-05
7.57306e-05
9.54064e-05
-9.58994e-05
-4.55455e-05
6.20922e-05
7.98347e-05
-2.15216e-05
4.90694e-05
3.60356e-05
-2.45311e-05
6.08528e-05
-5.75428e-05
8.19488e-05
0.000102119
-9.77889e-05
-5.10968e-05
6.56663e-05
8.78894e-05
-2.2026e-05
5.22977e-05
3.91201e-05
-2.54028e-05
6.45429e-05
-5.849e-05
8.53871e-05
0.000106776
-9.96188e-05
-5.34743e-05
6.92417e-05
9.10618e-05
-2.3236e-05
5.50998e-05
4.13199e-05
-2.69561e-05
6.82601e-05
-6.19245e-05
9.00825e-05
0.000112074
-0.00010476
-5.27338e-05
7.51092e-05
8.97266e-05
-2.30044e-05
6.03458e-05
4.52425e-05
-3.1873e-05
7.71145e-05
-7.31173e-05
0.000101538
0.00012723
-0.000125204
-5.21072e-05
9.00413e-05
8.88607e-05
-2.20763e-05
7.19968e-05
5.50164e-05
1.83227e-05
3.52995e-05
4.62411e-05
4.62344e-05
5.80891e-05
7.71536e-05
5.75429e-05
9.95311e-05
-9.94864e-05
2.70422e-05
7.9733e-05
6.01224e-05
1.95403e-05
3.8919e-05
4.93844e-05
5.18613e-05
6.46566e-05
8.39542e-05
5.9982e-05
0.000106174
-0.00010153
2.69685e-05
8.57855e-05
6.52273e-05
2.3047e-05
4.13621e-05
5.5323e-05
5.47291e-05
6.83972e-05
9.2608e-05
6.03165e-05
0.000110551
-0.000102407
2.65989e-05
8.85629e-05
6.78063e-05
2.46859e-05
4.30612e-05
5.67717e-05
5.65749e-05
7.04184e-05
9.68625e-05
6.17338e-05
0.00011255
-0.000103862
2.67212e-05
9.15655e-05
6.97913e-05
2.55223e-05
4.42658e-05
5.90412e-05
5.80733e-05
7.23201e-05
9.92435e-05
6.28847e-05
0.000114931
-0.00010549
2.72786e-05
9.36575e-05
7.15655e-05
2.64351e-05
4.51477e-05
6.07571e-05
5.93442e-05
7.35649e-05
0.000102097
6.39231e-05
0.000117681
-0.000108037
2.81544e-05
9.51104e-05
7.33096e-05
2.65809e-05
4.67323e-05
6.14597e-05
6.02319e-05
7.52621e-05
0.000103879
6.50124e-05
0.000119331
-0.000109085
2.8634e-05
9.66074e-05
7.53694e-05
2.80086e-05
4.73584e-05
6.2794e-05
6.18189e-05
7.57689e-05
0.000106357
6.5215e-05
0.000121504
-0.000110953
2.85452e-05
9.84844e-05
7.59026e-05
2.74905e-05
4.84068e-05
6.33196e-05
6.26545e-05
7.73035e-05
0.00010752
6.64786e-05
0.000122376
-0.000111551
2.93306e-05
9.98013e-05
7.77365e-05
2.88478e-05
4.88878e-05
6.50328e-05
6.362e-05
7.77146e-05
0.000109691
6.66148e-05
0.000123833
-0.000112732
2.92052e-05
0.000101024
7.80983e-05
2.88019e-05
4.92939e-05
6.61356e-05
6.36986e-05
7.93013e-05
0.000110662
6.80474e-05
0.000125193
-0.000113936
3.00046e-05
0.000101725
7.93106e-05
2.96423e-05
4.96669e-05
6.68222e-05
6.45521e-05
7.89021e-05
0.00011311
6.836e-05
0.000125275
-0.000114702
2.99445e-05
0.000102875
7.96747e-05
2.98738e-05
4.9833e-05
6.8449e-05
6.43083e-05
7.94754e-05
0.000114209
6.76002e-05
0.000124975
-0.000113563
3.09205e-05
0.000102435
7.98278e-05
2.97827e-05
4.93018e-05
7.02769e-05
6.2847e-05
7.72547e-05
0.000117816
6.1316e-05
0.000120904
-0.000105918
2.90581e-05
9.80859e-05
7.66985e-05
2.89482e-05
4.53135e-05
7.09544e-05
5.91425e-05
7.23213e-05
0.00011844
6.02827e-05
0.000112925
-0.000101053
2.84854e-05
9.30556e-05
7.19784e-05
-3.0631e-05
0.000102635
-6.9323e-05
0.000131544
0.000160122
-0.000115909
-9.25889e-05
9.75523e-05
0.000154864
-4.05271e-05
7.97735e-05
6.19242e-05
-3.2547e-05
9.45354e-05
-7.29437e-05
0.00012009
0.000147287
-0.000122664
-7.92706e-05
9.31432e-05
0.000133383
-3.48093e-05
7.56586e-05
5.96989e-05
-3.39805e-05
9.36846e-05
-7.65632e-05
0.000118231
0.000145153
-0.00012857
-7.77165e-05
9.19424e-05
0.000130921
-3.48231e-05
7.53423e-05
5.8865e-05
-3.37106e-05
9.25906e-05
-7.69469e-05
0.000118566
0.000144748
-0.000129753
-7.77224e-05
9.17012e-05
0.000130757
-3.41295e-05
7.49874e-05
5.84681e-05
-3.43216e-05
9.27952e-05
-7.70478e-05
0.000117712
0.000143451
-0.000128795
-7.80007e-05
9.04326e-05
0.000131022
-3.48466e-05
7.45527e-05
5.79687e-05
-3.2665e-05
9.10068e-05
-7.52168e-05
0.000116598
0.000142183
-0.000126792
-8.00847e-05
8.76592e-05
0.000134714
-3.58486e-05
7.19216e-05
5.54759e-05
-2.95236e-05
8.67318e-05
-7.13354e-05
0.000111147
0.000135344
-0.000118307
-7.90393e-05
8.11341e-05
0.000133867
-3.71614e-05
6.68326e-05
5.13629e-05
-2.80434e-05
8.14529e-05
-6.70212e-05
0.000103616
0.000126655
-0.000112489
7.65357e-05
0.000178609
-0.000129124
3.37562e-05
0.000146575
0.000115168
4.53442e-05
7.0168e-05
0.000102522
8.90343e-05
0.000109369
0.000172016
8.32322e-05
0.000165305
-0.000139231
3.70899e-05
0.000135366
0.000107136
4.02463e-05
6.69907e-05
9.00904e-05
8.53194e-05
0.000104558
0.00015095
8.66041e-05
0.000162464
-0.000144531
3.85999e-05
0.000133369
0.000105582
3.99549e-05
6.56542e-05
8.9631e-05
8.36628e-05
0.000102747
0.000149359
8.52271e-05
0.000159488
-0.00014202
3.84312e-05
0.000130721
0.000103882
4.03316e-05
6.34653e-05
8.99702e-05
8.12142e-05
9.84775e-05
0.000150981
7.83618e-05
0.000151867
-0.000132023
3.63108e-05
0.000124459
9.90669e-05
3.94712e-05
5.854e-05
9.11829e-05
7.39726e-05
9.13103e-05
0.000151283
7.44769e-05
0.000140848
-0.00012417
3.44614e-05
0.000115442
9.16209e-05
-3.72875e-05
0.000128836
-8.40857e-05
0.000161999
0.000197665
-0.000140459
-0.000115652
0.000120087
0.000193034
-5.14173e-05
9.82222e-05
7.7282e-05
-3.97853e-05
0.000117152
-8.8755e-05
0.000147044
0.000179176
-0.000147761
-9.84529e-05
0.000112238
0.000165265
-4.38533e-05
9.26216e-05
7.32157e-05
-4.04928e-05
0.000113761
-9.12474e-05
0.000143301
0.000174241
-0.000153199
-9.6122e-05
0.000109052
0.000161249
-4.23815e-05
8.96148e-05
7.1343e-05
-3.98826e-05
0.000111275
-9.02636e-05
0.00013994
0.000169849
-0.000151063
-9.69028e-05
0.000105072
0.000161503
-4.24603e-05
8.58351e-05
6.86755e-05
-3.70562e-05
0.000104722
-8.3407e-05
0.000133482
0.000161675
-0.000140179
-9.71724e-05
9.64231e-05
0.000162089
-4.14666e-05
7.8851e-05
6.23478e-05
-3.6567e-05
9.78187e-05
-7.98487e-05
0.000123168
0.000149348
-0.000132793
9.05043e-05
0.000211193
-0.000151986
3.95821e-05
0.000173905
0.000137406
5.34172e-05
8.38252e-05
0.000122311
0.000105431
0.000128133
0.000205175
9.75815e-05
0.000194183
-0.00016354
4.32552e-05
0.000159542
0.000127225
4.73326e-05
7.97971e-05
0.000107259
9.97757e-05
0.000120941
0.000180374
9.96359e-05
0.00018809
-0.000166703
4.36988e-05
0.000155504
0.000123622
4.75542e-05
7.60786e-05
0.000107494
9.56012e-05
0.00011645
0.00017905
9.29556e-05
0.000177762
-0.000154179
4.0652e-05
0.000147201
0.000117224
4.74309e-05
7.00979e-05
0.000106377
8.80571e-05
0.000107001
0.000177094
8.73129e-05
0.000166
-0.000146221
3.78128e-05
0.000136645
0.000108509
-4.4054e-05
0.000152422
-9.80915e-05
0.000190859
0.000231895
-0.000164259
-0.00013627
0.000140424
0.00022789
-6.06398e-05
0.000115116
9.20621e-05
-4.5939e-05
0.000137869
-0.000104063
0.000173371
0.00020909
-0.000172754
-0.000117338
0.000132387
0.000194163
-5.16705e-05
0.00010757
8.62884e-05
-4.7974e-05
0.000134198
-0.000108388
0.000168043
0.000203581
-0.000179599
-0.000112322
0.000127354
0.000188643
-5.04195e-05
0.000106033
8.38425e-05
-4.73749e-05
0.000131144
-0.000106242
0.000164976
0.000198417
-0.000177318
-0.000114163
0.000123112
0.000189572
-5.00979e-05
0.000100785
8.11067e-05
-4.37735e-05
0.000125048
-0.000100089
0.000156908
0.000189457
-0.000166421
-0.000114225
0.000114305
0.00018943
-5.04412e-05
9.29045e-05
7.47823e-05
-4.09681e-05
0.000116183
-9.48011e-05
0.000146154
0.000175403
-0.000155881
0.000108356
0.000249191
-0.000182371
4.86269e-05
0.000206048
0.000164687
6.57212e-05
9.9232e-05
0.000146487
0.000125162
0.000152615
0.000243147
0.000113941
0.000227772
-0.000189116
5.15212e-05
0.00018771
0.00015061
5.61589e-05
9.45269e-05
0.00012644
0.000117338
0.000143092
0.000211204
0.00011821
0.000223009
-0.000198136
5.23014e-05
0.00018332
0.000146732
5.50311e-05
9.17744e-05
0.0001226
0.000115671
0.000140124
0.000205545
0.000116171
0.000217647
-0.000193703
5.1779e-05
0.000180147
0.00014347
5.4801e-05
8.87074e-05
0.000124844
0.000110032
0.00013537
0.000207207
0.000108735
0.000205872
-0.000179232
4.82849e-05
0.000170577
0.000136879
5.531e-05
8.15707e-05
0.00012359
0.000102296
0.000123071
0.000206437
0.000101399
0.000191646
-0.000169974
4.49327e-05
0.000158807
0.000126447
-5.06038e-05
0.000177037
-0.000115436
0.000223649
0.000269093
-0.000192863
-0.000158403
0.000162938
0.000264559
-7.05234e-05
0.000135779
0.000106509
-5.56335e-05
0.000162147
-0.000122028
0.000202169
0.000245516
-0.000204607
-0.000135619
0.00015394
0.000227193
-6.07422e-05
0.000127291
0.000101407
-5.66579e-05
0.000158067
-0.0001273
0.000197931
0.000239675
-0.000213036
-0.000131698
0.000150037
0.000221335
-5.88116e-05
0.000125043
9.92552e-05
-5.60116e-05
0.000155266
-0.000126078
0.000195109
0.000235801
-0.000211842
-0.000133262
0.000146706
0.000222358
-5.84273e-05
0.000120275
9.68386e-05
-5.26651e-05
0.000149503
-0.000119653
0.000187263
0.000226059
-0.000199006
-0.000134003
0.000135511
0.000224551
-5.93745e-05
0.000112634
9.01286e-05
-5.06402e-05
0.000140769
-0.000112996
0.00017499
0.000212351
-0.000189835
0.000132884
0.000300953
-0.000221486
5.94438e-05
0.000248431
0.000200213
7.86245e-05
0.000121589
0.000174432
0.000152623
0.000184127
0.000291257
0.000138282
0.00027768
-0.000231835
6.25618e-05
0.000228344
0.00018415
6.77407e-05
0.00011641
0.000150855
0.000145229
0.000175052
0.000253483
0.00014602
0.000273144
-0.000244112
6.5991e-05
0.000225259
0.000182401
6.76455e-05
0.000114756
0.000148074
0.00014483
0.000174522
0.000246696
0.000147621
0.000273068
-0.000246168
6.76519e-05
0.000224799
0.000182408
6.76899e-05
0.000114718
0.000148705
0.000143785
0.000173399
0.000248374
0.000148316
0.000273337
-0.000248254
6.64298e-05
0.000225672
0.000181148
6.58256e-05
0.000115323
0.000148091
0.000143407
0.000175051
0.000246378
0.000150824
0.000273702
-0.000249474
6.67238e-05
0.000227507
0.000182047
6.66747e-05
0.000115372
0.000149232
0.00014495
0.000174091
0.000248844
0.000151263
0.000274822
-0.000251995
6.84109e-05
0.000227801
0.000183783
6.8032e-05
0.00011575
0.000151752
0.000144079
0.000174625
0.000251948
0.000152397
0.000275698
-0.000253472
6.71204e-05
0.000229355
0.000182869
6.64759e-05
0.000116392
0.000151649
0.000144181
0.000176781
0.000250565
0.000154716
0.000277901
-0.000255836
6.76503e-05
0.000231246
0.000184042
6.73843e-05
0.000116659
0.000153947
0.000144683
0.000176273
0.000255577
0.0001531
0.000277322
-0.000254148
6.77045e-05
0.000230078
0.000184367
6.96329e-05
0.000114744
0.000158839
0.000140864
0.00017234
0.000263826
0.000144352
0.000269164
-0.000241174
6.32063e-05
0.000221981
0.000177978
7.05943e-05
0.000107442
0.000157874
0.000134636
0.00016249
0.000264566
0.000139057
0.000255797
-0.000232442
6.26832e-05
0.000210996
0.000170117
-7.31783e-05
0.000243198
-0.000164687
0.000302546
0.000364813
-0.000273782
-0.000208153
0.000226735
0.000346244
-9.24126e-05
0.000186773
0.000150939
-8.04961e-05
0.000231421
-0.000180611
0.000286948
0.000344376
-0.000298256
-0.00017468
0.000231401
0.000287701
-7.81574e-05
0.000190423
0.000153267
-9.98604e-05
0.000253121
-0.000224023
0.000314604
0.000378251
-0.000370863
-0.000163169
0.000272027
0.000269399
-7.34603e-05
0.000224895
0.000179651
6.30649e-05
0.000116583
0.000142299
0.000145658
0.000174907
0.000239413
0.000179965
0.000292951
-0.000298063
8.20795e-05
0.000243588
0.000198664
7.10046e-05
0.000127712
0.000153992
0.000160562
0.000192965
0.000253945
0.000184856
0.000316493
-0.000308407
8.31544e-05
0.000262291
0.000210857
7.39774e-05
0.000136894
0.000166648
0.000169617
0.000204882
0.000278248
0.000187687
0.000330602
-0.000313422
8.39988e-05
0.000273338
0.000220866