/*--------------------------------*- C++ -*----------------------------------*\
| =========                 |                                                 |
| \\      /  F ield         | OpenFOAM: The Open Source CFD Toolbox           |
|  \\    /   O peration     | Version:  v2006                                 |
|   \\  /    A nd           | Website:  www.openfoam.com                      |
|    \\/     M anipulation  |                                                 |
\*---------------------------------------------------------------------------*/
FoamFile
{
    version     2.0;
    format      ascii;
    class       volVectorField;
    location    "0.048";
    object      U;
}
// * * * * * * * * * * * * * * * * * * * * * * * * * * * * * * * * * * * * * //

dimensions      [0 1 -1 0 0 0 0];


internalField   nonuniform List<vector> 
9148
(
(62.0273 0.000285247 -1.75176e-19)
(62.0272 -0.000704026 1.39607e-20)
(62.0271 0.000694221 0)
(62.0271 -0.000710297 -6.5367e-20)
(62.0255 0.000234701 9.74528e-19)
(62.0127 -0.00245826 3.59215e-23)
(61.9635 -0.0115375 -6.08872e-19)
(61.8665 -0.0263703 -3.44404e-19)
(61.7278 -0.0443811 -1.46792e-18)
(61.571 -0.0616133 1.53255e-18)
(61.408 -0.0771905 -2.01141e-19)
(61.2425 -0.0907176 2.04373e-19)
(61.0718 -0.103107 0)
(60.8934 -0.114614 3.27471e-21)
(60.7053 -0.125526 8.25772e-22)
(60.5066 -0.135888 0)
(60.297 -0.145734 0)
(60.0766 -0.155078 0)
(59.8458 -0.163951 0)
(59.6048 -0.172389 0)
(59.354 -0.180423 0)
(59.0938 -0.188073 0)
(58.8244 -0.195346 0)
(58.5463 -0.202233 0)
(58.26 -0.208719 0)
(57.966 -0.214783 0)
(57.6648 -0.220403 0)
(57.3571 -0.225558 0)
(57.0433 -0.230228 0)
(56.7242 -0.234394 0)
(56.4005 -0.238041 0)
(56.0726 -0.241154 0)
(55.7414 -0.243719 0)
(55.4076 -0.245724 0)
(55.0717 -0.247156 0)
(54.7346 -0.248002 0)
(54.3969 -0.248249 0)
(54.0596 -0.24789 0)
(53.7232 -0.246919 0)
(53.3887 -0.245257 0)
(53.0568 -0.242904 0)
(52.7283 -0.239935 0)
(52.4041 -0.236336 0)
(52.0849 -0.232081 0)
(51.7716 -0.227168 0)
(51.4649 -0.22161 0)
(51.1655 -0.215412 0)
(50.8743 -0.208568 0)
(50.5919 -0.201076 0)
(50.3191 -0.192919 0)
(50.0564 -0.184082 0)
(49.8047 -0.174559 0)
(49.5646 -0.164304 5.55072e-20)
(49.3364 -0.153358 -4.84584e-20)
(49.1201 -0.141531 0)
(48.9147 -0.128557 5.53605e-20)
(48.7185 -0.113574 1.10986e-19)
(48.5319 -0.0959379 0)
(48.3602 -0.0750106 3.16884e-18)
(48.22 -0.0539075 4.62721e-18)
(48.1323 -0.0367103 -7.10214e-18)
(48.0999 -0.0268193 -3.29721e-18)
(48.1012 -0.0206007 0)
(48.1127 -0.0137937 0)
(48.1217 -0.00674771 0)
(48.1199 -0.0101896 1.16925e-17)
(48.101 -0.013883 -4.00504e-18)
(48.0483 -0.0225871 0)
(47.9484 -0.0462346 -4.72294e-19)
(47.7564 -0.0706494 1.71408e-18)
(47.5105 -0.086214 0)
(46.5675 -0.124826 2.80398e-19)
(45.9731 -0.103304 -2.56446e-19)
(47.5321 -0.13159 0)
(47.8226 -0.113856 1.07946e-17)
(47.8626 -0.141659 -8.74989e-20)
(47.4806 -0.154965 1.75844e-18)
(45.3545 -0.102271 -2.11156e-18)
(44.7285 -0.0931213 8.73188e-19)
(47.3905 -0.154338 -7.71721e-19)
(47.8791 -0.149279 7.9844e-20)
(47.8614 -0.152738 0)
(47.2693 -0.146855 0)
(44.1723 -0.0835551 0)
(43.6244 -0.0733788 -9.12432e-19)
(47.1066 -0.136271 6.62102e-19)
(47.8111 -0.150805 -1.10334e-18)
(47.7362 -0.150385 4.87461e-19)
(46.9348 -0.129415 9.86677e-20)
(43.1283 -0.0670378 -4.79823e-19)
(42.6574 -0.0616313 4.73204e-19)
(46.7416 -0.121805 0)
(47.6485 -0.148149 -6.50349e-19)
(47.5493 -0.146891 -7.43673e-19)
(46.5568 -0.11717 0)
(42.2171 -0.057761 -6.06923e-20)
(41.8114 -0.0540707 6.07051e-20)
(46.3669 -0.112401 0)
(47.4408 -0.145794 4.15346e-20)
(47.3223 -0.144309 4.16626e-20)
(46.1718 -0.108127 0)
(41.4249 -0.0508206 0)
(41.0613 -0.0476699 0)
(45.9718 -0.103983 0)
(47.1993 -0.143232 0)
(47.0614 -0.141576 6.6823e-19)
(45.7675 -0.100667 -8.06404e-19)
(40.705 -0.0454053 0)
(40.3697 -0.0430502 0)
(45.5614 -0.0978504 0)
(46.9241 -0.141428 0)
(46.7736 -0.140226 0)
(45.3529 -0.0955625 0)
(40.0392 -0.0415987 0)
(39.724 -0.0397049 0)
(45.1418 -0.0935028 0)
(46.6243 -0.140509 0)
(46.4612 -0.139717 0)
(44.9274 -0.0918978 0)
(39.4102 -0.0387773 0)
(39.1084 -0.0372555 0)
(44.7109 -0.090528 0)
(46.3007 -0.140554 0)
(46.1262 -0.140193 0)
(44.4907 -0.0894961 0)
(38.8065 -0.0367296 0)
(38.5142 -0.0354795 0)
(44.2686 -0.0886533 0)
(45.9553 -0.14151 0)
(45.77 -0.141521 0)
(44.0425 -0.0880731 0)
(38.2203 -0.0352669 0)
(37.9342 -0.0342212 0)
(43.8146 -0.0876467 0)
(45.5892 -0.14326 0)
(45.3935 -0.143587 0)
(43.5822 -0.0874319 0)
(37.6456 -0.0342558 0)
(37.3632 -0.033364 0)
(43.3481 -0.0873338 0)
(45.2029 -0.145692 0)
(44.9971 -0.146293 0)
(43.1091 -0.0874214 0)
(37.0773 -0.0335984 0)
(36.7965 -0.0328222 0)
(42.8681 -0.0875945 0)
(44.7966 -0.148732 0)
(44.5802 -0.149605 0)
(42.6218 -0.087952 0)
(36.5113 -0.0332259 0)
(36.2299 -0.0325465 0)
(42.373 -0.0883742 0)
(44.3694 -0.152387 0)
(44.1416 -0.153559 0)
(42.1182 -0.0889956 0)
(35.9431 -0.0331076 0)
(35.6589 -0.0325196 0)
(41.8602 -0.0896751 0)
(43.9193 -0.156736 0)
(43.679 -0.15825 0)
(41.5953 -0.090567 0)
(35.3681 -0.0332355 0)
(35.0787 -0.0327361 0)
(41.3264 -0.091518 0)
(43.4438 -0.161868 0)
(43.1897 -0.16376 0)
(41.05 -0.0926831 0)
(34.7818 -0.0336034 0)
(34.4855 -0.0331879 0)
(40.769 -0.0939131 0)
(42.9407 -0.167854 0)
(42.6721 -0.170135 0)
(40.48 -0.0953446 0)
(34.1811 -0.0342009 0)
(33.8766 -0.0338642 0)
(40.1861 -0.0968502 0)
(42.4086 -0.174714 0)
(42.1249 -0.177376 0)
(39.8838 -0.0985336 0)
(33.5635 -0.0350117 0)
(33.2498 -0.0347491 0)
(39.5762 -0.100309 0)
(41.8464 -0.182446 0)
(41.5469 -0.185501 0)
(39.2598 -0.102244 0)
(32.9269 -0.0360242 0)
(32.6027 -0.0358397 0)
(38.9374 -0.104304 0)
(41.2524 -0.1911 0)
(40.9359 -0.194595 0)
(38.6055 -0.106512 0)
(32.2682 -0.0372454 0)
(31.9317 -0.0371525 0)
(38.2666 -0.108893 0)
(40.6239 -0.200797 0)
(40.2887 -0.204813 0)
(37.9172 -0.111419 0)
(31.5836 -0.0387044 0)
(31.2322 -0.0387217 0)
(37.5595 -0.114177 0)
(39.957 -0.211719 0)
(39.6005 -0.216354 0)
(37.1898 -0.117073 0)
(30.8676 -0.0404398 0)
(30.4979 -0.0405899 0)
(36.8099 -0.120278 0)
(39.246 -0.224089 0)
(38.8646 -0.229441 0)
(36.4163 -0.123599 0)
(30.1131 -0.0424975 0)
(29.7215 -0.0427903 0)
(36.0106 -0.1273 0)
(38.4838 -0.238096 0)
(38.0743 -0.244177 0)
(35.5896 -0.131046 0)
(29.3128 -0.0448902 0)
(28.8963 -0.0453151 0)
(35.1552 -0.135251 0)
(37.6644 -0.253777 0)
(37.2246 -0.26064 0)
(34.7045 -0.139444 0)
(28.4616 -0.047614 0)
(28.0182 -0.048191 0)
(34.2392 -0.144227 0)
(36.7837 -0.271333 0)
(36.3115 -0.279154 0)
(33.7563 -0.148961 0)
(27.5552 -0.0507205 0)
(27.0819 -0.051503 0)
(33.2572 -0.15447 0)
(35.837 -0.291217 0)
(35.3289 -0.300272 0)
(32.7385 -0.1599 0)
(26.5868 -0.0543172 0)
(26.0793 -0.0553954 0)
(32.2009 -0.166364 0)
(34.8163 -0.314142 0)
(34.2675 -0.324481 0)
(31.6413 -0.172551 0)
(25.5472 -0.0585119 0)
(25.0008 -0.05984 0)
(31.0606 -0.179974 0)
(33.7128 -0.34012 0)
(33.1189 -0.352902 0)
(30.455 -0.187448 0)
(24.4267 -0.0634358 0)
(23.8346 -0.0652302 0)
(29.8242 -0.196353 0)
(32.5155 -0.371254 0)
(31.8677 -0.387048 0)
(29.1629 -0.205458 0)
(23.2089 -0.0694594 0)
(22.559 -0.0719262 0)
(28.4698 -0.21638 0)
(31.2045 -0.409022 0)
(30.4891 -0.429084 0)
(27.738 -0.227839 0)
(21.8668 -0.0770711 0)
(21.1416 -0.080551 0)
(26.9653 -0.241738 0)
(29.7503 -0.456353 0)
(28.9497 -0.482754 0)
(26.1437 -0.256704 0)
(20.3633 -0.0870393 0)
(19.541 -0.0919714 0)
(25.2699 -0.275024 0)
(28.1165 -0.517936 0)
(27.2089 -0.554149 0)
(24.3331 -0.29539 0)
(18.6513 -0.100617 0)
(17.6985 -0.107941 0)
(23.3269 -0.320878 0)
(26.2547 -0.601987 0)
(25.2037 -0.65459 0)
(22.2326 -0.350409 0)
(16.6544 -0.120155 0)
(15.5113 -0.131694 0)
(21.0364 -0.388145 0)
(24.0801 -0.724118 0)
(22.8206 -0.805947 0)
(19.7075 -0.43418 0)
(14.2331 -0.150285 0)
(12.7905 -0.169867 0)
(18.217 -0.494946 0)
(21.4435 -0.915604 0)
(19.8652 -1.05574 0)
(16.5158 -0.57521 0)
(11.1353 -0.202736 0)
(9.18086 -0.245692 0)
(14.539 -0.689343 0)
(18.0944 -1.25281 0)
(15.989 -1.52083 0)
(12.1628 -0.828157 0)
(6.72642 -0.283982 0)
(4.31363 -0.613782 0)
(9.39443 -1.29453 0)
(13.6182 -2.06814 0)
(10.8987 -2.35046 0)
(5.5168 -1.48939 0)
(-2.4113 -0.440663 0)
(-4.8844 0.0658657 0)
(1.50638 -0.99192 0)
(7.91455 -2.1898 0)
(3.55518 -1.81112 0)
(-3.79889 -0.457753 0)
(-6.22961 -0.0473286 0)
(-7.28842 -0.0849838 0)
(-5.55172 -0.271571 0)
(-0.892835 -0.930191 0)
(-3.31488 -0.212755 0)
(-6.76421 -0.217261 0)
(-8.01093 0.0590116 0)
(-7.7628 0.211221 0)
(-6.86951 0.049488 0)
(-4.21592 0.496908 0)
(-4.19337 0.825204 0)
(-6.12572 0.425699 0)
(-6.41721 0.282933 0)
(-4.13766 0.29347 0)
(-5.13751 0.568868 0)
(-4.77821 0.818811 0)
(-5.37322 0.123481 0)
(-4.55544 0.273452 0)
(-2.55661 0.105939 0)
(-1.96107 0.0225412 0)
(-4.42854 0.250665 0)
(-5.51095 0.0465387 0)
(-5.6969 -0.373253 0)
(-4.47306 -0.0766158 0)
(-1.58112 -0.0625537 0)
(-2.41899 -0.0713052 0)
(-5.09242 -0.206537 0)
(-6.26251 -0.288375 0)
(-6.85217 -0.538513 0)
(-5.77434 -0.297762 0)
(-3.18098 -0.106 0)
(-4.09806 -0.0739354 0)
(-6.62071 -0.175458 0)
(-7.54845 -0.30813 0)
(-7.96627 -0.348096 0)
(-7.12034 -0.15874 0)
(-4.66192 -0.0780217 0)
(-5.07581 -0.0287427 0)
(-7.4974 -0.0041058 0)
(-8.27783 -0.0679596 0)
(-8.18538 0.0360499 0)
(-7.40899 0.0619227 0)
(-5.00945 -0.000669835 0)
(-4.71606 0.0537128 0)
(-7.14623 0.133572 0)
(-7.97262 0.206162 0)
(-7.73145 0.164375 0)
(-6.80958 0.114291 0)
(-4.19875 0.0594044 0)
(-3.795 0.0551002 0)
(-6.60192 0.0854952 0)
(-7.62158 0.127944 0)
(-7.61706 0.0114012 0)
(-6.52451 0.00723261 0)
(-3.52023 0.0234498 0)
(-3.57512 -0.00884742 0)
(-6.61287 -0.0530128 0)
(-7.72951 -0.0790949 0)
(-7.94944 -0.164642 0)
(-6.84646 -0.101645 0)
(-3.84367 -0.0292606 0)
(-4.23721 -0.039287 0)
(-7.20274 -0.127519 0)
(-8.25015 -0.212622 0)
(-8.59932 -0.248267 0)
(-7.61846 -0.146842 0)
(-4.70138 -0.0477983 0)
(-5.19837 -0.0525644 0)
(-8.06346 -0.154018 0)
(-8.95941 -0.258941 0)
(-9.3162 -0.264761 0)
(-8.50283 -0.157525 0)
(-5.70049 -0.0552389 0)
(-6.19188 -0.0551678 0)
(-8.92611 -0.15221 0)
(-9.65051 -0.253194 0)
(-9.95762 -0.239814 0)
(-9.31435 -0.144418 0)
(-6.6568 -0.0534223 0)
(-7.09023 -0.0506034 0)
(-9.66734 -0.131223 0)
(-10.2305 -0.214484 0)
(-10.4812 -0.191241 0)
(-9.98936 -0.118419 0)
(-7.50131 -0.0472372 0)
(-7.88159 -0.0428109 0)
(-10.2783 -0.101504 0)
(-10.7021 -0.159918 0)
(-10.8817 -0.130663 0)
(-10.5176 -0.0851637 0)
(-8.21865 -0.0381602 0)
(-8.49921 -0.0331656 0)
(-10.6992 -0.0666457 0)
(-11.0075 -0.0964123 0)
(-11.0743 -0.0647222 0)
(-10.8153 -0.048898 0)
(-8.72063 -0.0284491 0)
(-8.86897 -0.0226364 0)
(-10.855 -0.028363 0)
(-11.0688 -0.0275232 0)
(-10.9739 0.0132475 0)
(-10.8009 -0.0062179 0)
(-8.92846 -0.0163193 0)
(-8.91215 -0.00982901 0)
(-10.665 0.0177404 0)
(-10.8063 0.0590201 0)
(-10.5726 0.10664 0)
(-10.4576 0.0441026 0)
(-8.8314 -0.00203394 0)
(-8.66831 0.00741024 0)
(-10.1743 0.0724486 0)
(-10.2711 0.158134 0)
(-9.90603 0.213563 0)
(-9.82661 0.103003 0)
(-8.43769 0.0171676 0)
(-8.12668 0.0274587 0)
(-9.40454 0.131562 0)
(-9.47439 0.266246 0)
(-8.95859 0.325532 5.14798e-19)
(-8.89903 0.163539 -6.17191e-19)
(-7.73167 0.0387454 0)
(-7.24493 0.0491509 0)
(-8.30631 0.189834 -2.05492e-19)
(-8.36477 0.377119 1.71068e-19)
(-7.66997 0.441856 1.34568e-18)
(-7.61766 0.222691 0)
(-6.6672 0.0631189 0)
(-5.96298 0.0718595 -9.74806e-19)
(-6.81025 0.241567 1.2118e-18)
(-6.86729 0.482492 1.06401e-22)
(-5.96176 0.547851 -3.85184e-18)
(-5.91175 0.273721 1.14503e-18)
(-5.18797 0.0864358 -1.81859e-18)
(-4.27819 0.0855036 1.96851e-18)
(-4.89713 0.282681 0)
(-4.96087 0.567633 5.25518e-18)
(-3.90954 0.656042 2.54452e-18)
(-3.85986 0.328932 -7.57386e-19)
(-3.38702 0.0996925 -1.43068e-23)
(-2.27571 0.115061 1.0663e-18)
(-2.6505 0.36619 0)
(-2.73276 0.731953 2.80784e-18)
(-1.52147 0.728621 1.78086e-19)
(-1.45707 0.360766 0)
(-1.21383 0.111682 0)
(-0.29356 0.0858493 0)
(-0.478196 0.277829 1.82039e-18)
(-0.554709 0.635844 -1.70412e-18)
(-0.586208 1.24777 0)
(-0.570323 2.33757 0)
(-0.538175 3.38341 0)
(-0.486367 4.49783 0)
(-0.4233 5.49563 0)
(-0.36471 6.40173 1.85256e-18)
(-0.295878 7.13979 -1.95621e-18)
(-0.230113 7.72686 2.32486e-19)
(-0.161168 8.14776 -1.16447e-19)
(-0.0932347 8.40138 0)
(-0.0206206 8.47868 0)
(0.0623619 8.38566 0)
(0.157079 8.12679 0)
(0.262785 7.68529 0)
(0.376167 7.05133 1.93628e-18)
(0.50612 6.21605 -5.90927e-18)
(0.628237 5.18271 4.13431e-18)
(0.782991 3.96428 0)
(0.930652 2.5799 -2.24231e-18)
(1.33745 1.39283 7.05573e-17)
(1.09868 -0.530171 -1.64435e-16)
(0.192687 -0.879839 9.43086e-18)
(0.0890924 -1.40706 0)
(-0.446208 -1.27714 2.63733e-17)
(-0.566446 -0.738806 0)
(-0.682507 -0.373932 0)
(-0.60238 -0.127428 1.78256e-17)
(-0.761942 -0.0254312 7.11435e-17)
(-1.09958 -0.101202 -2.44403e-16)
(-1.14216 -0.328869 7.61848e-22)
(-1.49689 -0.261612 -4.02534e-17)
(-1.59181 -0.0419305 9.09557e-17)
(-1.03593 0.0117864 -3.25008e-17)
(-1.32877 0.0162458 -1.1319e-17)
(-2.1618 -0.0194808 3.32333e-17)
(-2.07653 -0.1377 -4.73683e-17)
(-2.20247 -0.0250309 -2.80527e-17)
(-2.2329 0.0379942 -1.61638e-22)
(-1.18587 0.010134 0)
(-1.2215 0.00810699 -1.21357e-18)
(-2.38503 -0.000866574 0)
(-2.43198 -0.029071 -8.28933e-18)
(-2.38764 0.102121 1.69257e-18)
(-2.24473 0.0551515 2.55519e-19)
(-1.03504 0.0157041 1.23582e-18)
(-0.971093 0.00326763 0)
(-2.16266 -0.0338805 7.87745e-18)
(-2.29442 -0.00607741 -1.35544e-17)
(-2.15222 0.00849787 0)
(-2.13041 -0.0352601 2.06627e-18)
(-1.04147 -0.0224545 -2.46147e-18)
(-1.50164 -0.0549361 3.08239e-19)
(-2.21617 -0.144704 0)
(-1.59089 -0.208198 0)
(-1.71472 -0.131884 0)
(-2.66216 -0.0159203 0)
(-1.97889 -0.0266854 -3.10764e-19)
(-1.98213 -0.0265842 0)
(-2.75277 0.0372916 0)
(-1.4049 -0.0661074 -3.44958e-18)
(-1.1023 0.191086 3.4352e-18)
(-2.60485 0.0877831 0)
(-1.79925 0.0278383 0)
(-1.41458 0.0500615 0)
(-2.04257 0.021718 0)
(0.56078 0.353489 -3.43504e-18)
(2.12055 0.563319 3.42803e-18)
(-1.31415 0.115757 0)
(-1.17226 -0.0163178 0)
(-0.952731 -0.093727 0)
(0.863532 0.166113 0)
(3.87223 0.582513 -3.42102e-18)
(5.23048 0.4918 3.41703e-18)
(2.22676 0.170527 0)
(-0.830265 -0.0397436 0)
(-0.324178 0.00862747 0)
(3.52073 0.219072 0)
(6.45549 0.495421 -3.41382e-18)
(7.46092 0.461755 3.40996e-18)
(4.69728 0.224053 0)
(0.439429 0.0331617 0)
(1.16656 0.0355906 0)
(5.79855 0.218013 0)
(8.40159 0.434897 -3.40612e-18)
(9.16743 0.387195 3.40177e-18)
(6.72971 0.204604 0)
(1.88848 0.0481787 0)
(2.63629 0.0447405 0)
(7.6316 0.200944 0)
(9.89637 0.371039 -3.39685e-18)
(10.491 0.317515 3.39345e-18)
(8.36806 0.176855 0)
(3.28881 0.0480951 0)
(3.94888 0.0360175 0)
(9.09009 0.171244 0)
(11.0629 0.311855 3.38993e-18)
(11.5374 0.276895 3.38726e-18)
(9.67952 0.158448 0)
(4.54682 0.0390895 0)
(5.16828 0.0391436 0)
(10.2897 0.159455 0)
(12.0063 0.275432 -3.38542e-18)
(12.3977 0.243374 3.38317e-18)
(10.7895 0.146988 0)
(5.74022 0.040744 0)
(6.34567 0.0434566 0)
(11.3124 0.152709 0)
(12.7791 0.248658 -3.3807e-18)
(13.1008 0.228953 3.37788e-18)
(11.7407 0.146062 0)
(6.91755 0.0456545 0)
(7.53642 0.0589294 0)
(12.2097 0.157982 0)
(13.4214 0.23577 -3.37535e-18)
(13.6965 0.214225 3.37607e-18)
(12.6021 0.149452 0)
(8.13372 0.0650301 0)
(8.82085 0.0755802 0)
(13.0476 0.165546 0)
(13.9781 0.239972 0)
(14.2533 0.270019 0)
(13.4625 0.193876 0)
(9.55964 0.116793 0)
(10.3315 0.250255 0)
(13.8915 0.350376 1.65123e-17)
(14.4876 0.430576 -1.36552e-17)
(14.5932 0.645783 0)
(14.1211 0.60261 -3.29261e-17)
(10.8866 0.485835 1.71272e-22)
(11.266 0.746203 0)
(14.1616 0.891785 -2.5448e-19)
(14.5235 0.899175 -8.39876e-19)
(14.35 1.07592 8.26231e-19)
(14.0582 1.09753 2.49268e-19)
(11.4648 0.948503 0)
(11.6285 1.13983 0)
(13.8532 1.27704 6.30594e-17)
(14.0662 1.22814 -1.0584e-16)
(13.6974 1.34336 -4.9401e-17)
(13.5373 1.43415 0)
(11.6289 1.31998 0)
(11.5276 1.44636 7.39605e-17)
(13.1142 1.52008 -6.14848e-17)
(13.2154 1.40102 0)
(12.653 1.42253 -4.22765e-17)
(12.5956 1.5746 1.18328e-16)
(11.2672 1.5545 4.44126e-18)
(10.8923 1.6132 -6.54543e-17)
(11.9497 1.55321 0)
(11.9494 1.36978 -5.11449e-17)
(11.1383 1.33031 0)
(11.2025 1.57831 0)
(10.3962 1.7388 1.18335e-16)
(9.73433 1.73538 1.76287e-16)
(10.2491 1.50076 0)
(10.1718 1.1653 8.24464e-18)
(9.60708 1.46935 -2.93649e-17)
(9.46908 1.6375 0)
(8.23223 1.54303 0)
(8.01566 1.60172 1.81703e-16)
(8.65323 1.55832 2.85881e-19)
(8.7037 1.24091 3.71956e-18)
(7.55894 0.87308 0)
(7.54737 1.3012 1.26707e-16)
(7.11266 1.48413 1.85481e-21)
(5.90104 1.26914 0)
(6.13489 0.907558 0)
(6.14168 0.356569 1.14073e-17)
(4.48303 -0.366701 1.55367e-16)
(4.55853 0.377602 0)
(4.48778 0.998769 1.30273e-16)
(2.53638 0.57727 -1.86229e-16)
(2.26317 -0.167868 0)
(2.21222 -0.992978 -4.27205e-17)
(1.06285 -1.06223 1.18326e-17)
(1.0468 -0.411125 -3.23229e-18)
(1.16194 0.152846 2.36579e-16)
(-1.839 -1.22038 -1.4547e-18)
(-1.91705 -2.21423 1.46706e-16)
(-1.55319 -3.1541 -1.1443e-16)
(-4.88861 -5.75774 -3.30848e-16)
(-5.50811 -4.3952 3.34667e-16)
(-5.84233 -3.40995 -3.07028e-16)
(-8.7029 -4.57141 2.12818e-16)
(-8.8123 -5.68056 0)
(-8.69895 -7.28238 9.43089e-18)
(-11.7055 -11.5935 -1.75391e-16)
(-13.0456 -9.97371 1.07277e-16)
(-13.7178 -8.36251 1.57663e-17)
(-19.7621 -14.903 1.61917e-16)
(-17.8797 -16.7451 3.07204e-17)
(-14.8809 -18.5417 1.45058e-16)
(-20.4689 -25.8537 2.47166e-16)
(-22.3794 -24.2956 -3.3794e-17)
(-24.0435 -22.3473 1.87207e-16)
(-27.6534 -32.8587 3.27581e-16)
(-24.883 -34.1839 -2.70538e-16)
(-23.898 -34.53 2.33838e-16)
(-16.2892 -49.4711 1.32664e-16)
(-19.8213 -51.365 0)
(-27.0388 -53.8426 2.62998e-16)
(-13.5714 -72.242 0)
(-1.79028 -67.881 0)
(-3.09494 -64.8836 2.4879e-17)
(14.2717 -70.6268 -9.63184e-17)
(21.4427 -72.772 1.32197e-16)
(9.60731 -76.9377 0)
(23.8865 -65.5086 2.42898e-16)
(35.0251 -61.8338 -3.80298e-16)
(28.41 -62.5971 -1.0361e-17)
(37.4252 -57.6123 1.24483e-17)
(41.213 -53.7874 -2.34318e-16)
(32.3403 -49.7874 2.86962e-16)
(35.8677 -42.4395 5.09848e-16)
(42.7682 -47.7272 -2.43099e-16)
(41.0963 -51.7905 1.76626e-16)
(42.4225 -43.5452 -3.41787e-16)
(42.2881 -40.3891 2.37404e-16)
(35.6866 -37.3379 -1.67433e-16)
(33.5262 -31.599 0)
(40.3052 -34.026 2.20594e-16)
(41.5856 -36.9302 -1.90776e-16)
(41.5135 -36.6572 0)
(40.1749 -33.0471 0)
(33.9942 -28.3202 0)
(31.7019 -25.2029 -4.54485e-16)
(37.5205 -29.0607 1.86287e-16)
(39.8037 -31.6475 0)
(40.5633 -32.3533 3.58372e-17)
(38.5753 -29.3585 -3.49891e-16)
(33.0696 -24.7117 2.11739e-16)
(31.1901 -22.6808 1.27444e-17)
(36.3702 -26.5548 1.64837e-16)
(38.8544 -28.7456 -1.66242e-17)
(39.455 -29.9137 -4.56271e-17)
(37.3577 -27.2991 0)
(32.1841 -22.7965 -1.16908e-17)
(30.9446 -21.7542 -3.24808e-16)
(35.8657 -25.4721 2.30907e-16)
(38.2148 -27.6251 1.9778e-16)
(36.296 -25.1857 9.29029e-17)
(33.6177 -23.5185 -1.98226e-16)
(28.9616 -20.4002 2.56761e-16)
(30.1762 -21.0587 -4.5722e-16)
(34.7977 -24.8166 3.47823e-16)
(36.8432 -26.8693 1.57391e-16)
(35.3947 -24.8162 0)
(33.0745 -23.2411 -1.37952e-16)
(28.6379 -19.9429 2.0922e-16)
(29.9766 -20.8901 0)
(34.2256 -24.5215 -9.39308e-18)
(36.092 -26.3691 0)
(35.1846 -25.2707 -1.10267e-17)
(33.1917 -23.6109 2.32047e-16)
(29.1939 -20.4021 -3.24889e-16)
(27.6026 -19.4761 0)
(31.4083 -22.3683 2.66837e-17)
(33.606 -23.7183 2.3228e-17)
(34.3107 -25.2685 1.99585e-16)
(32.7159 -23.5975 -3.90627e-16)
(28.7673 -20.2795 4.26906e-16)
(27.4354 -19.5911 2.68146e-17)
(31.2888 -22.6508 -1.7561e-16)
(33.1884 -24.0176 1.08241e-16)
(34.0713 -25.4424 0)
(32.4532 -24.0217 4.13239e-17)
(28.6487 -20.8169 -3.80779e-16)
(27.6299 -20.3008 -3.98644e-16)
(31.17 -23.2065 1.1801e-16)
(33.0198 -24.419 5.5722e-21)
(33.8325 -25.7903 2.06592e-16)
(32.2886 -24.4864 3.27693e-16)
(28.8238 -21.456 -3.71449e-16)
(28.3155 -21.2708 0)
(31.5915 -24.018 -2.65497e-16)
(33.2121 -25.3135 1.08956e-17)
(32.0657 -24.2748 -8.18718e-17)
(30.1957 -23.2005 2.25856e-16)
(26.9783 -20.6491 -2.47405e-16)
(27.7853 -21.665 0)
(31.2746 -24.5942 1.1895e-17)
(32.8406 -25.6608 1.01102e-17)
(31.9015 -24.9621 -1.46848e-16)
(30.0993 -23.9942 -1.11216e-17)
(26.8242 -21.2694 -4.46458e-16)
(28.1195 -22.3822 4.05e-16)
(31.347 -25.2628 1.07209e-17)
(32.7185 -26.3169 0)
(31.9239 -25.5673 -1.36847e-16)
(30.3896 -24.5413 -2.08075e-17)
(27.3101 -21.8871 4.47123e-16)
(28.2538 -23.0406 -1.26944e-17)
(31.2969 -25.8209 0)
(32.5736 -26.7988 3.39332e-17)
(31.8518 -26.1427 -4.94346e-17)
(30.4341 -25.1379 3.20752e-16)
(27.5866 -22.6024 -3.91338e-16)
(28.3819 -23.6663 0)
(31.2871 -26.3811 3.97978e-17)
(32.5429 -27.3524 -1.14162e-16)
(31.8424 -26.9133 -1.09692e-16)
(30.4389 -25.9491 1.13882e-16)
(27.7355 -23.4166 0)
(28.742 -24.4708 -2.21345e-17)
(31.472 -27.0825 0)
(32.6603 -28.0552 -1.29736e-16)
(32.2789 -28.1003 0)
(30.9763 -27.0043 0)
(28.4077 -24.4378 -3.0254e-16)
(27.5293 -23.9135 -4.72362e-16)
(30.0329 -26.4452 0)
(31.4441 -27.4663 0)
(32.2129 -28.6662 0)
(31.2125 -27.6561 0)
(28.4264 -24.8654 0)
(27.5916 -24.4648 6.84991e-18)
(30.386 -27.1827 -1.79504e-16)
(31.6412 -28.2717 1.47286e-16)
(32.4614 -29.4764 -1.41137e-16)
(31.3912 -28.6155 -3.65617e-16)
(28.6067 -25.8683 4.17054e-16)
(28.0887 -25.5074 -4.15915e-16)
(30.7285 -28.0766 3.60403e-16)
(31.9345 -29.0755 -1.38909e-16)
(32.692 -30.1743 4.45077e-16)
(31.6187 -29.3193 -3.36859e-16)
(28.8551 -26.5895 4.12877e-16)
(28.2484 -26.3813 -4.19887e-16)
(30.8245 -28.9699 1.66683e-16)
(32.095 -29.9195 -3.06811e-16)
(32.9335 -30.9967 1.36499e-16)
(31.8944 -30.2484 -3.32687e-16)
(29.2702 -27.6203 1.28464e-17)
(28.7748 -27.188 0)
(31.2764 -29.6568 0)
(32.4373 -30.5896 0)
(33.0481 -31.7322 3.04079e-16)
(31.9812 -31.0046 -2.87908e-16)
(29.4138 -28.3515 0)
(29.0395 -28.232 1.2682e-17)
(31.419 -30.7122 -5.13005e-17)
(32.5743 -31.5855 -3.37188e-17)
(33.4497 -32.561 -1.34237e-16)
(32.5078 -31.8305 1.02727e-17)
(30.0105 -29.2701 -1.2663e-17)
(29.438 -28.8748 -8.02802e-16)
(31.824 -31.3376 3.38771e-16)
(32.9403 -32.2441 1.33935e-16)
(33.5634 -33.3441 3.33936e-17)
(32.5598 -32.6803 -1.02541e-17)
(30.1313 -30.1001 2.49485e-17)
(29.8137 -29.965 -3.77489e-17)
(32.0709 -32.3636 -1.64237e-16)
(33.1548 -33.2255 2.35564e-16)
(33.9876 -34.1879 0)
(33.0774 -33.5061 0)
(30.6771 -30.9826 1.26037e-17)
(30.1809 -30.6126 0)
(32.4811 -33.0442 0)
(33.5395 -33.9325 0)
(34.1761 -34.9873 3.34681e-17)
(33.2207 -34.3526 0)
(30.8592 -31.7927 -2.49952e-17)
(30.5495 -31.644 2.54111e-17)
(32.7571 -34.0459 3.30123e-16)
(33.7953 -34.8954 -3.21877e-16)
(34.6164 -35.8358 3.19806e-16)
(33.7444 -35.1853 -1.43077e-16)
(31.3912 -32.6544 0)
(30.912 -32.2873 -1.2817e-17)
(33.1665 -34.7296 -2.07728e-17)
(34.1884 -35.6076 -3.38961e-17)
(34.8225 -36.6549 1.00847e-16)
(33.9004 -36.0548 3.30389e-16)
(31.5759 -33.4793 -4.1835e-16)
(31.2858 -33.3383 2.5861e-17)
(33.4685 -35.7692 -1.04892e-17)
(34.4748 -36.6133 -3.76529e-16)
(35.3303 -37.5329 -1.7108e-16)
(34.4963 -36.9275 1.03682e-17)
(32.1752 -34.3943 -4.11321e-16)
(31.7438 -33.9808 0)
(33.9696 -36.4124 3.36731e-16)
(34.9471 -37.2907 -2.58478e-16)
(35.52 -38.3329 -8.64369e-17)
(34.6871 -37.6926 -3.59065e-16)
(32.4093 -35.0458 8.11614e-21)
(32.0524 -34.8508 4.23663e-16)
(34.2285 -37.3747 -3.23936e-16)
(35.1693 -38.2921 1.05986e-16)
(35.9322 -39.297 1.46459e-16)
(35.2033 -38.6306 2.01857e-16)
(32.939 -35.9111 -4.64406e-16)
(32.5644 -35.4037 4.83924e-16)
(34.8286 -37.9971 -5.8186e-16)
(35.6445 -39.012 1.58887e-16)
(36.2177 -39.651 2.26267e-17)
(35.3743 -38.8535 -2.1963e-16)
(32.7746 -35.9283 2.41409e-16)
(33.6185 -37.3757 -2.91415e-16)
(36.136 -40.2239 2.30641e-16)
(36.9702 -40.7664 -1.61886e-16)
(36.642 -40.7122 7.10496e-17)
(35.6909 -39.8816 0)
(33.5177 -37.4014 -3.71682e-16)
(34.2936 -38.3739 3.44939e-16)
(36.5475 -40.909 -1.49494e-16)
(37.3937 -41.5241 1.07194e-16)
(37.0093 -41.3564 2.86131e-16)
(36.051 -40.4803 -9.74711e-18)
(33.9501 -38.0827 2.39566e-17)
(34.5777 -39.1937 3.80409e-16)
(36.7714 -41.7392 -2.92384e-17)
(37.6519 -42.3252 0)
(37.3093 -42.3896 1.63506e-17)
(36.3416 -41.5462 4.01776e-17)
(34.3117 -39.1291 -3.96054e-16)
(35.229 -40.319 -3.93344e-16)
(37.3929 -42.8013 0)
(38.215 -43.33 -1.62561e-17)
(37.9676 -43.2168 -1.66373e-17)
(37.0777 -42.388 -1.02111e-17)
(34.9993 -40.0328 0)
(35.6613 -40.8802 0)
(37.9021 -43.4595 -1.51596e-16)
(38.6818 -44.071 1.65786e-17)
(38.2679 -44.0576 2.71128e-16)
(37.3078 -43.1827 -3.30945e-16)
(35.1917 -40.6442 0)
(35.962 -41.9132 -2.58361e-17)
(38.2042 -44.5512 0)
(39.0703 -45.0568 0)
(38.8272 -45.0365 -8.72524e-18)
(37.9017 -44.201 3.41767e-16)
(35.7549 -41.7011 -3.9996e-16)
(36.4507 -42.7076 8.82518e-16)
(38.8794 -45.4031 -3.53282e-16)
(39.7367 -45.885 9.08593e-18)
(39.4018 -45.6158 -1.58363e-16)
(38.3587 -44.8093 1.87577e-16)
(36.0257 -42.2497 4.5856e-16)
(36.2688 -42.922 -2.45169e-16)
(38.8441 -45.7781 2.19937e-16)
(39.9632 -46.3558 -9.01292e-17)
(40.7058 -47.4737 -1.49815e-16)
(39.89 -47.0293 2.24559e-16)
(37.4462 -44.1771 -3.12489e-16)
(37.3446 -44.0987 0)
(39.5411 -46.6493 0)
(40.4514 -47.4506 8.56026e-17)
(41.2756 -48.3144 -3.04192e-17)
(40.4682 -47.7653 0)
(38.228 -45.1659 0)
(37.9795 -44.938 0)
(40.0748 -47.3767 0)
(40.988 -48.2384 3.15996e-17)
(41.7619 -49.1864 9.49285e-17)
(40.9276 -48.6301 -1.16213e-16)
(38.7423 -46.0552 0)
(38.4921 -45.9269 -1.2393e-17)
(40.5279 -48.3918 2.79098e-16)
(41.451 -49.2565 -2.26897e-16)
(42.3347 -50.2092 1.30461e-16)
(41.5567 -49.7097 0)
(39.424 -47.1795 -3.86159e-16)
(39.2424 -46.9259 0)
(41.2821 -49.3124 -3.30254e-16)
(42.1314 -50.1723 2.86269e-16)
(42.8867 -51.0605 1.57705e-16)
(42.1823 -50.4867 2.14106e-17)
(40.0007 -47.8541 0)
(39.6654 -47.5038 -4.41834e-16)
(41.7826 -50.0477 -2.28943e-17)
(42.5948 -50.9785 1.14186e-16)
(43.2766 -51.6241 -1.74177e-16)
(42.5329 -50.9632 2.28397e-16)
(40.1267 -48.1395 0)
(40.9948 -49.4165 0)
(43.4346 -52.2218 2.13797e-16)
(44.119 -52.6341 -3.37339e-16)
(43.8957 -52.6521 1.39195e-17)
(43.0619 -51.8382 0)
(40.8936 -49.3282 0)
(41.7237 -50.3365 3.42333e-16)
(43.9429 -52.8864 1.47698e-16)
(44.6813 -53.3886 -1.35326e-16)
(44.4159 -53.349 0)
(43.5631 -52.4957 -3.1949e-16)
(41.4774 -50.0526 8.03971e-16)
(42.199 -51.095 -1.20031e-17)
(44.3883 -53.6821 4.74416e-16)
(45.1551 -54.1879 -9.72374e-21)
(44.8791 -54.3038 0)
(44.0066 -53.4547 0)
(41.9406 -50.9336 1.24883e-17)
(42.8826 -52.0953 3.62539e-16)
(45.0888 -54.7071 2.01823e-17)
(45.8239 -55.1826 3.29026e-17)
(45.5975 -55.1964 -1.61146e-16)
(44.7502 -54.3321 -1.04527e-17)
(42.6359 -51.8008 2.58458e-17)
(43.4434 -52.8264 4.29723e-16)
(45.7203 -55.5876 -1.08246e-17)
(46.4081 -56.0811 -8.82844e-18)
(46.2247 -56.0159 0)
(45.4517 -55.0988 0)
(43.2109 -52.45 7.05367e-18)
(43.7322 -53.0426 2.32803e-16)
(46.2641 -55.984 2.04786e-16)
(46.9886 -56.6437 0)
(47.8613 -57.6851 -1.68926e-16)
(47.1664 -57.3073 0)
(44.621 -54.3501 0)
(44.5406 -54.2348 0)
(46.8316 -56.9188 -2.86932e-16)
(47.6712 -57.7507 4.61547e-16)
(48.581 -58.5907 -1.50059e-17)
(47.7756 -58.1412 -2.8571e-16)
(45.4397 -55.4501 3.42396e-16)
(45.3129 -55.2204 -3.56046e-16)
(47.5113 -57.7853 3.06694e-16)
(48.3842 -58.6531 1.39989e-16)
(49.3222 -59.5419 1.10539e-16)
(48.5407 -59.0638 0)
(46.2263 -56.3895 2.39936e-17)
(46.0032 -56.1454 -4.22436e-16)
(48.2057 -58.7467 0)
(49.0924 -59.6235 0)
(50.0431 -60.5249 1.01994e-16)
(49.2392 -60.0968 1.66325e-16)
(46.8972 -57.3958 -2.32447e-16)
(46.7331 -57.0555 2.69524e-17)
(48.9915 -59.6344 1.76856e-16)
(49.8576 -60.493 -1.01527e-16)
(50.6533 -61.1265 5.25039e-17)
(49.7789 -60.5731 -2.43931e-17)
(47.2269 -57.7616 -2.31764e-16)
(48.2996 -58.9366 -2.99106e-16)
(50.8276 -61.7887 1.38714e-17)
(51.526 -62.1485 3.07655e-17)
(51.3366 -62.2642 -2.69634e-17)
(50.4817 -61.4612 8.41825e-18)
(48.1899 -58.8484 1.05672e-17)
(49.188 -59.9756 1.11455e-17)
(51.5285 -62.6218 -4.49329e-17)
(52.2522 -63.0195 1.17312e-16)
(52.1174 -63.056 0)
(51.2866 -62.2289 3.76881e-17)
(49.033 -59.6946 -2.35555e-17)
(49.9776 -60.8444 -3.76807e-16)
(52.302 -63.4685 0)
(53.0318 -63.8796 0)
(52.889 -63.9478 -1.42522e-16)
(52.0559 -63.0881 -9.75051e-18)
(49.7956 -60.5326 0)
(50.7164 -61.6981 2.44952e-17)
(53.0654 -64.3871 -9.75266e-18)
(53.8043 -64.8073 1.59976e-17)
(53.6417 -64.9358 1.31019e-16)
(52.7874 -64.068 3.03284e-17)
(50.492 -61.4163 -2.5269e-17)
(51.519 -62.7665 2.60927e-17)
(53.9371 -65.5082 -1.05034e-17)
(54.7003 -65.8577 -1.36595e-16)
(54.6435 -65.8127 1.47617e-16)
(53.8252 -64.9595 -1.78262e-16)
(51.4266 -62.3472 -2.72412e-17)
(51.9441 -62.9661 2.33235e-16)
(54.6402 -65.8758 1.9656e-16)
(55.4773 -66.4177 -6.33547e-17)
(56.4699 -67.4803 1.02505e-17)
(55.7635 -67.1525 0)
(53.0869 -64.1985 -2.98959e-16)
(52.9796 -64.128 0)
(55.4095 -66.8575 0)
(56.2982 -67.6779 -1.33442e-16)
(57.3455 -68.491 2.3001e-16)
(56.5812 -68.1202 -1.06559e-16)
(54.1227 -65.3991 0)
(54.0307 -65.2169 0)
(56.3927 -67.8295 -3.34468e-16)
(57.2634 -68.6642 2.39494e-16)
(58.4327 -69.4637 3.00699e-17)
(57.7286 -69.0891 -1.86163e-17)
(55.2673 -66.4307 -2.31575e-17)
(55.0948 -66.0363 2.40166e-17)
(57.5259 -68.6299 2.87009e-17)
(58.3682 -69.4874 -3.08645e-17)
(59.321 -70.2971 9.32118e-17)
(58.5664 -69.8709 -1.43641e-16)
(56.0323 -67.0967 -3.85487e-16)
(55.7862 -66.7983 0)
(58.2471 -69.5593 -9.91517e-18)
(59.1374 -70.4726 1.59465e-16)
(60.2877 -71.4032 -1.33459e-16)
(59.5361 -71.0041 4.64174e-16)
(56.9283 -68.1127 -4.0901e-16)
(56.7112 -67.7923 4.27009e-16)
(59.2754 -70.5941 -3.26781e-16)
(60.1666 -71.5047 0)
(61.1879 -72.173 0)
(60.3559 -71.6513 0)
(57.5036 -68.6645 0)
(58.9056 -70.0115 3.17126e-16)
(61.8123 -72.9757 -1.9117e-16)
(62.4555 -73.205 2.0294e-17)
(62.426 -73.2669 7.89272e-17)
(61.5803 -72.4596 -2.86713e-16)
(58.8775 -69.7453 -2.09924e-17)
(59.9201 -70.7613 -2.20493e-17)
(62.6549 -73.5932 -8.78321e-18)
(63.4397 -73.9999 0)
(63.2641 -74.2545 2.51007e-16)
(62.3143 -73.3306 -2.93401e-16)
(59.7139 -70.5224 1.15336e-17)
(61.0387 -72.0139 1.15595e-17)
(63.7215 -74.8689 0)
(64.551 -75.2128 -4.47207e-17)
(64.5592 -75.6424 -2.14046e-16)
(63.6224 -74.7797 3.03156e-16)
(61.0278 -71.9822 1.19504e-17)
(62.7668 -73.2554 -4.19823e-16)
(65.5122 -76.0223 0)
(66.1961 -76.357 0)
(66.2012 -76.2604 1.56583e-17)
(65.3231 -75.3659 -3.11362e-16)
(62.5272 -72.6227 4.16224e-16)
(63.4611 -73.716 0)
(66.3922 -76.7285 1.40806e-16)
(67.2562 -77.1355 -1.46485e-16)
(67.0701 -77.3781 -1.31554e-16)
(66.0996 -76.3764 -1.379e-16)
(63.2638 -73.4017 4.18998e-16)
(64.2784 -74.5346 0)
(67.4068 -77.6751 1.16251e-17)
(68.3376 -78.1907 -1.09224e-16)
(69.9256 -79.4778 2.93645e-17)
(69.1518 -79.4244 1.99131e-16)
(66.0875 -76.4972 1.79282e-17)
(66.4696 -76.3941 -1.99995e-17)
(69.3139 -78.9558 2.51921e-16)
(70.1537 -79.7195 -2.13469e-16)