/*--------------------------------*- C++ -*----------------------------------*\
| =========                 |                                                 |
| \\      /  F ield         | OpenFOAM: The Open Source CFD Toolbox           |
|  \\    /   O peration     | Version:  v2006                                 |
|   \\  /    A nd           | Website:  www.openfoam.com                      |
|    \\/     M anipulation  |                                                 |
\*---------------------------------------------------------------------------*/
FoamFile
{
    version     2.0;
    format      ascii;
    class       volScalarField;
    location    "0.175";
    object      T;
}
// * * * * * * * * * * * * * * * * * * * * * * * * * * * * * * * * * * * * * //

dimensions      [0 0 0 1 0 0 0];


internalField   nonuniform List<scalar> 
38932
(
298.189
298.189
298.189
298.189
298.19
298.19
298.191
298.192
298.193
298.194
298.195
298.197
298.198
298.2
298.202
298.205
298.207
298.21
298.212
298.215
298.218
298.222
298.225
298.229
298.232
298.236
298.24
298.245
298.249
298.254
298.258
298.263
298.268
298.273
298.278
298.284
298.289
298.295
298.301
298.306
298.312
298.318
298.325
298.331
298.337
298.344
298.35
298.357
298.364
298.371
298.378
298.385
298.392
298.399
298.406
298.413
298.421
298.428
298.436
298.443
298.451
298.458
298.466
298.473
298.481
298.489
298.496
298.504
298.511
298.519
298.527
298.534
298.542
298.549
298.557
298.565
298.572
298.579
298.587
298.594
298.601
298.609
298.616
298.623
298.63
298.637
298.644
298.65
298.657
298.664
298.67
298.676
298.683
298.689
298.695
298.701
298.707
298.712
298.718
298.723
298.728
298.734
298.739
298.743
298.748
298.753
298.757
298.761
298.765
298.769
298.773
298.777
298.78
298.783
298.786
298.789
298.792
298.795
298.797
298.799
298.802
298.803
298.805
298.805
298.805
298.803
298.794
298.781
298.731
298.757
298.808
298.941
299.071
298.772
298.784
298.79
298.778
299.049
299.04
298.806
298.805
298.811
298.834
299.036
299.034
298.854
298.817
298.827
298.875
299.034
299.033
298.889
298.837
298.846
298.9
299.032
299.031
298.909
298.854
298.862
298.916
299.029
299.027
298.923
298.87
298.877
298.929
299.025
299.023
298.934
298.884
298.89
298.939
299.021
299.019
298.943
298.897
298.903
298.948
299.018
299.017
298.952
298.908
298.914
298.955
299.017
299.017
298.959
298.919
298.925
298.963
299.017
299.018
298.967
298.93
298.936
298.971
299.019
299.02
298.975
298.941
298.947
298.979
299.022
299.023
298.984
298.952
298.958
298.988
299.026
299.028
298.993
298.964
298.97
298.998
299.031
299.034
299.003
298.976
298.982
299.008
299.038
299.042
299.014
298.989
298.996
299.019
299.046
299.05
299.025
299.003
299.01
299.031
299.055
299.06
299.038
299.017
299.025
299.044
299.065
299.07
299.051
299.032
299.04
299.058
299.076
299.082
299.066
299.049
299.057
299.074
299.089
299.095
299.081
299.066
299.075
299.09
299.102
299.11
299.098
299.085
299.094
299.107
299.117
299.125
299.116
299.104
299.114
299.125
299.134
299.142
299.135
299.125
299.136
299.145
299.151
299.161
299.156
299.147
299.159
299.166
299.17
299.18
299.177
299.17
299.183
299.189
299.191
299.201
299.201
299.195
299.208
299.213
299.213
299.224
299.225
299.222
299.235
299.238
299.236
299.248
299.251
299.249
299.263
299.265
299.26
299.273
299.278
299.278
299.293
299.293
299.287
299.3
299.307
299.308
299.324
299.322
299.314
299.329
299.338
299.34
299.357
299.353
299.344
299.359
299.369
299.374
299.391
299.386
299.375
299.391
299.403
299.408
299.426
299.42
299.407
299.424
299.437
299.445
299.463
299.455
299.441
299.459
299.473
299.482
299.501
299.491
299.477
299.494
299.51
299.519
299.538
299.528
299.512
299.531
299.546
299.557
299.576
299.565
299.549
299.567
299.583
299.595
299.613
299.601
299.585
299.603
299.619
299.631
299.648
299.636
299.621
299.638
299.653
299.665
299.681
299.669
299.655
299.672
299.684
299.695
299.709
299.699
299.687
299.702
299.713
299.722
299.734
299.725
299.717
299.73
299.737
299.744
299.753
299.747
299.742
299.753
299.756
299.761
299.768
299.766
299.764
299.766
299.767
299.768
299.741
299.734
299.721
299.515
299.571
299.61
299.308
299.225
299.114
298.653
298.792
298.902
298.498
298.386
298.251
297.947
298.061
298.159
297.901
297.822
297.733
297.583
297.652
297.715
297.583
297.532
297.476
297.394
297.445
297.489
297.419
297.376
297.326
297.266
297.317
297.363
297.316
297.267
297.216
297.17
297.222
297.274
297.235
297.18
297.126
297.082
297.14
297.198
297.161
297.1
297.039
296.995
297.06
297.123
297.085
297.019
296.951
296.906
296.977
297.046
297.004
296.934
296.86
296.813
296.889
296.961
296.915
296.842
296.765
296.715
296.794
296.868
296.818
296.744
296.665
296.613
296.692
296.765
296.711
296.638
296.561
296.507
296.583
296.654
296.595
296.526
296.453
296.399
296.468
296.534
296.472
296.409
296.344
296.29
296.35
296.408
296.343
296.29
296.236
296.184
296.231
296.279
296.214
296.172
296.132
296.083
296.115
296.15
296.088
296.06
296.037
295.994
296.009
296.029
295.972
295.961
295.956
295.922
295.918
295.92
295.873
295.88
295.897
295.885
295.854
295.834
295.811
295.843
295.883
295.901
295.849
295.805
295.832
295.893
295.956
296.077
296.009
295.931
296.193
296.293
296.353
297.143
297.074
296.911
296.249
295.482
295.238
295.133
295.042
294.961
294.878
294.794
294.702
294.604
294.498
294.384
294.259
294.13
293.993
293.891
293.791
293.698
293.603
293.522
293.488
293.447
293.409
293.421
293.415
293.399
293.405
293.428
293.463
293.52
293.582
293.639
293.714
293.806
293.833
293.786
293.725
293.66
293.586
293.559
293.618
293.686
293.758
293.817
293.763
293.696
293.625
293.563
293.506
293.447
293.503
293.56
293.628
293.694
293.62
293.552
293.487
293.43
293.378
293.298
293.348
293.404
293.468
293.535
293.438
293.371
293.308
293.254
293.206
293.1
293.145
293.196
293.257
293.323
293.186
293.123
293.065
293.018
292.977
292.837
292.872
292.915
292.967
293.026
292.842
292.789
292.743
292.707
292.678
292.5
292.522
292.551
292.589
292.635
292.409
292.371
292.34
292.319
292.306
292.095
292.1
292.113
292.136
292.168
291.912
291.886
291.87
291.866
291.87
291.631
291.616
291.612
291.621
291.643
291.357
291.337
291.333
291.346
291.374
291.09
291.048
291.025
291.022
291.042
290.687
290.661
290.673
290.708
290.766
290.382
290.3
290.253
290.272
290.264
289.741
289.746
289.775
289.819
289.869
289.21
288.879
288.786
288.762
288.757
285.28
285.648
286.329
286.911
287.617
285.692
284.841
282.9
280.616
280.474
278.032
278.262
281.027
283.353
285.88
285.764
283.632
280.931
279.299
277.806
278.041
279.407
281.109
283.828
285.642
286.405
284.629
283.447
282.074
280.267
278.665
280.978
282.48
284.025
286.209
286.233
284.706
283.187
281.513
280.036
277.994
280.241
282.418
284.162
286.064
286.174
284.884
282.901
280.716
280.302
277.189
278.55
281.717
283.911
286.278
286.24
284.482
281.564
279.344
278.732
277.973
278.018
280.95
284.267
286.227
286.607
284.923
283.494
281.627
279.045
277.145
279.167
281.805
284.123
286.373
286.566
284.781
283.112
281.237
279.48
276.497
279.685
282.372
284.295
286.353
286.621
284.882
282.606
280.733
280.238
276.637
278.972
281.635
284.073
286.496
286.747
285.031
282.441
280.038
280.683
277.729
277.66
280.968
284.243
286.487
286.776
285.111
283.044
280.859
280.203
277.538
277.563
281.171
284.341
286.604
287.034
285.295
283.61
281.476
279.454
277.341
278.601
281.995
284.716
286.816
287.21
285.508
284.075
282.209
279.888
276.497
278.591
282.14
284.623
287.011
287.275
285.455
283.911
281.957
279.083
275.143
279.189
282.59
284.746
287.115
287.358
285.74
283.91
281.882
280.106
275.271
280.026
282.847
284.914
287.135
287.404
285.972
283.57
280.642
281.108
276.995
278.097
282.18
285.132
287.204
287.476
285.704
283.867
281.571
280.2
277.571
277.968
282.246
285.172
287.21
287.561
285.474
283.619
281.743
278.734
274.746
278.516
282.292
284.863
287.442
287.75
285.718
283.251
280.81
279.505
274.272
278.68
282.103
284.82
287.639
287.984
286.026
283.142
280
280.018
275.391
277.678
281.702
285.122
287.791
288.211
286.375
283.875
280.855
280.6
276.165
276.73
281.635
285.41
287.963
288.401
286.543
284.286
281.374
279.859
276.696
277.136
282.254
285.838
288.194
288.669
286.719
284.754
282.077
279.573
276.599
277.755
282.707
286.022
288.457
288.845
286.744
284.914
282.68
278.964
275.113
278.981
283.175
286.009
288.739
289.032
286.906
284.972
282.557
279.858
274.496
279.945
283.596
286.09
288.924
289.207
287.134
284.963
282.319
280.067
275.003
279.972
283.809
286.393
289.217
289.498
287.164
284.788
282.048
279.476
273.616
279.284
283.542
286.43
289.483
289.818
287.393
284.484
281.238
279.685
273.705
279.263
283.437
286.524
289.75
290.22
287.829
284.604
280.666
280.094
274.629
278.28
283.224
286.953
290.094
290.69
288.482
285.35
281.287
280.663
275.913
277.317
283.409
287.732
290.647
291.248
288.944
286.14
282.418
280.323
276.935
277.629
284.045
288.395
291.234
291.916
289.277
286.573
282.93
279.742
276.701
278.067
284.623
288.93
291.954
293.056
289.863
286.944
283.037
277.517
272.655
278.843
285.627
289.861
293.66
295.143
291.97
286.952
280.2
278.558
277.36
280.577
288.179
292.953
296.439
298.815
296.628
295.174
290.643
281.303
299.689
299.211
300.143
299.259
298.852
298.776
298.6
298.646
299.233
299.524
298.903
298.875
298.843
298.872
298.862
298.86
298.864
298.869
298.871
298.875
298.874
298.868
298.865
298.862
298.859
298.856
298.86
298.863
298.867
298.872
298.871
298.866
298.862
298.858
298.855
298.854
298.857
298.86
298.864
298.869
298.869
298.863
298.859
298.856
298.852
298.851
298.855
298.858
298.862
298.867
298.867
298.861
298.857
298.854
298.85
298.85
298.853
298.857
298.861
298.866
298.866
298.86
298.856
298.853
298.849
298.848
298.852
298.856
298.86
298.866
298.866
298.86
298.856
298.852
298.848
298.848
298.852
298.856
298.861
298.867
298.868
298.861
298.856
298.852
298.848
298.848
298.852
298.856
298.861
298.868
298.869
298.862
298.857
298.853
298.849
298.85
298.853
298.857
298.862
298.869
298.869
298.863
298.858
298.854
298.85
298.852
298.856
298.859
298.863
298.869
298.87
298.865
298.861
298.857
298.854
298.855
298.858
298.861
298.865
298.871
298.871
298.866
298.862
298.859
298.855
298.856
298.86
298.863
298.866
298.871
298.871
298.867
298.864
298.861
298.858
298.859
298.862
298.865
298.868
298.872
298.872
298.869
298.866
298.863
298.861
298.863
298.865
298.868
298.87
298.873
298.874
298.872
298.869
298.867
298.866
298.868
298.869
298.871
298.873
298.875
298.876
298.874
298.872
298.871
298.869
298.871
298.872
298.874
298.876
298.877
298.879
298.877
298.875
298.874
298.872
298.873
298.875
298.876
298.878
298.88
298.881
298.879
298.877
298.876
298.875
298.876
298.877
298.879
298.88
298.882
298.883
298.881
298.88
298.879
298.877
298.879
298.88
298.881
298.883
298.885
298.886
298.884
298.883
298.881
298.88
298.882
298.883
298.884
298.885
298.887
298.888
298.886
298.885
298.884
298.884
298.885
298.886
298.886
298.887
298.889
298.89
298.888
298.887
298.887
298.886
298.887
298.888
298.888
298.889
298.891
298.892
298.89
298.89
298.889
298.888
298.89
298.89
298.891
298.891
298.892
298.893
298.892
298.892
298.891
298.891
298.892
298.893
298.893
298.893
298.893
298.894
298.894
298.894
298.894
298.893
298.894
298.895
298.895
298.895
298.893
298.896
298.896
298.896
298.896
298.896
298.897
298.897
298.897
298.897
298.897
298.898
298.898
298.898
298.898
298.898
298.9
298.9
298.9
298.899
298.899
298.901
298.901
298.901
298.901
298.902
298.903
298.902
298.902
298.902
298.902
298.902
298.903
298.903
298.903
298.904
298.905
298.905
298.904
298.904
298.904
298.904
298.905
298.906
298.906
298.906
298.908
298.907
298.907
298.906
298.906
298.906
298.907
298.908
298.909
298.91
298.911
298.91
298.909
298.908
298.907
298.908
298.909
298.91
298.911
298.911
298.912
298.912
298.911
298.91
298.908
298.908
298.91
298.912
298.913
298.914
298.915
298.914
298.912
298.911
298.91
298.91
298.912
298.913
298.914
298.916
298.916
298.915
298.914
298.912
298.91
298.911
298.913
298.914
298.915
298.917
298.917
298.916
298.915
298.913
298.911
298.911
298.913
298.915
298.916
298.918
298.918
298.916
298.915
298.913
298.911
298.911
298.913
298.915
298.916
298.918
298.917
298.916
298.914
298.913
298.91
298.909
298.912
298.914
298.915
298.917
298.916
298.915
298.913
298.911
298.908
298.907
298.91
298.912
298.913
298.915
298.913
298.912
298.91
298.908
298.906
298.904
298.907
298.908
298.91
298.911
298.909
298.908
298.906
298.904
298.902
298.899
298.901
298.903
298.905
298.907
298.902
298.901
298.899
298.898
298.896
298.892
298.894
298.895
298.896
298.897
298.892
298.891
298.89
298.889
298.888
298.882
298.883
298.884
298.885
298.887
298.878
298.878
298.877
298.876
298.876
298.869
298.868
298.869
298.869
298.869
298.86
298.86
298.859
298.86
298.861
298.851
298.849
298.849
298.849
298.85
298.835
298.835
298.836
298.837
298.839
298.826
298.822
298.82
298.819
298.818
298.802
298.802
298.803
298.806
298.811
298.795
298.788
298.784
298.782
298.781
298.758
298.759
298.762
298.767
298.776
298.754
298.742
298.737
298.734
298.734
298.704
298.705
298.708
298.714
298.729
298.696
298.68
298.673
298.669
298.667
298.631
298.629
298.632
298.641
298.664
298.611
298.591
298.582
298.579
298.582
298.52
298.518
298.52
298.529
298.557
298.479
298.449
298.444
298.447
298.46
298.376
298.357
298.346
298.342
298.354
298.194
298.2
298.221
298.243
298.261
298.165
298.127
298.085
298.022
297.868
297.65
297.859
297.949
298.006
298.046
297.954
297.896
297.833
297.756
297.657
297.615
297.637
297.705
297.77
297.823
297.729
297.642
297.555
297.471
297.456
296.847
297.196
297.357
297.473
297.571
297.394
297.299
297.169
296.963
296.578
296.614
296.86
297.032
297.157
297.254
297.135
297.032
296.909
296.743
296.362
296.267
296.618
296.79
296.922
297.032
296.945
296.827
296.681
296.464
295.931
296.021
296.37
296.596
296.749
296.869
296.789
296.679
296.533
296.332
296.187
296.009
296.276
296.499
296.649
296.764
296.746
296.651
296.512
296.31
296.251
296.43
296.432
296.574
296.695
296.81
296.85
296.781
296.699
296.632
296.849
297.081
296.811
296.841
296.891
296.959
296.999
296.971
296.95
296.986
297.278
297.112
297.027
297.031
297.065
297.106
297.168
297.163
297.164
297.171
297.278
297.688
297.372
297.337
297.315
297.306
297.373
297.412
297.461
297.558
297.889
298.019
297.723
297.598
297.528
297.484
297.581
297.631
297.708
297.842
298.101
298.15
297.929
297.798
297.719
297.672
297.736
297.792
297.869
297.987
298.156
298.176
298.037
297.934
297.857
297.794
297.861
297.926
298.004
298.105
298.254
298.32
298.179
298.079
298
297.934
298.01
298.069
298.147
298.248
298.391
298.434
298.301
298.203
298.125
298.056
298.103
298.172
298.248
298.341
298.462
298.48
298.371
298.285
298.214
298.158
298.188
298.248
298.314
298.392
298.486
298.497
298.409
298.337
298.276
298.218
298.256
298.302
298.357
298.42
298.496
298.491
298.427
298.373
298.324
298.278
298.294
298.341
298.388
298.437
298.494
298.513
298.454
298.407
298.362
298.315
298.337
298.383
298.427
298.473
298.534
298.545
298.489
298.444
298.403
298.366
298.384
298.422
298.46
298.5
298.551
298.555
298.51
298.473
298.437
298.399
298.419
298.45
298.483
298.518
298.559
298.563
298.525
298.494
298.464
298.433
298.443
298.474
298.502
298.531
298.565
298.566
298.536
298.509
298.483
298.458
298.468
298.493
298.517
298.54
298.568
298.569
298.544
298.523
298.5
298.475
298.487
298.507
298.528
298.548
298.571
298.572
298.552
298.533
298.515
298.495
298.5
298.52
298.538
298.555
298.573
298.574
298.557
298.541
298.525
298.509
298.515
298.532
298.546
298.56
298.576
298.577
298.563
298.55
298.536
298.519
298.526
298.54
298.553
298.565
298.578
298.578
298.567
298.557
298.545
298.531
298.535
298.549
298.56
298.569
298.579
298.58
298.571
298.563
298.553
298.542
298.547
298.556
298.565
298.573
298.581
298.582
298.575
298.568
298.561
298.552
298.554
298.564
298.571
298.577
298.584
298.586
298.579
298.572
298.565
298.557
298.56
298.569
298.575
298.58
298.586
298.586
298.582
298.577
298.571
298.563
298.565
298.572
298.578
298.583
298.586
298.589
298.584
298.58
298.575
298.568
298.57
298.577
298.582
298.586
298.589
298.59
298.586
298.582
298.578
298.572
298.574
298.58
298.584
298.588
298.59
298.591
298.589
298.586
298.582
298.576
298.577
298.582
298.586
298.59
298.593
298.593
298.591
298.588
298.584
298.58
298.581
298.586
298.589
298.591
298.593
298.593
298.592
298.59
298.586
298.582
298.584
298.588
298.591
298.593
298.595
298.595
298.594
298.592
298.589
298.585
298.585
298.589
298.592
298.594
298.595
298.594
298.594
298.592
298.59
298.587
298.588
298.591
298.593
298.594
298.594
298.594
298.594
298.593
298.591
298.588
298.589
298.592
298.594
298.595
298.595
298.595
298.595
298.594
298.592
298.59
298.59
298.592
298.594
298.595
298.595
298.593
298.595
298.594
298.593
298.591
298.591
298.593
298.594
298.592
298.597
298.596
298.593
298.594
298.592
298.591
298.592
298.593
298.594
298.594
298.595
298.593
298.594
298.594
298.593
298.591
298.591
298.593
298.593
298.594
298.59
298.604
298.588
298.594
298.593
298.592
298.591
298.594
298.592
298.622
298.535
298.656
298.617
298.607
298.595
298.594
298.597
298.608
298.62
298.844
298.125
298.773
298.828
298.679
298.622
298.602
298.614
298.64
298.684
298.932
297.646
298.373
298.755
298.689
298.64
298.616
298.615
298.634
298.662
298.696
297.649
298.154
298.595
298.634
298.623
298.607
298.597
298.609
298.608
298.551
298.11
298.237
298.521
298.585
298.595
298.592
298.585
298.583
298.567
298.508
298.289
298.35
298.506
298.558
298.577
298.582
298.577
298.571
298.553
298.509
298.393
298.426
298.516
298.553
298.568
298.573
298.567
298.563
298.551
298.523
298.452
298.477
298.527
298.549
298.559
298.563
298.563
298.559
298.549
298.532
298.492
298.498
298.532
298.548
298.556
298.559
298.556
298.553
298.546
298.533
298.505
298.511
298.535
298.547
298.553
298.556
298.553
298.551
298.545
298.536
298.516
298.52
298.536
298.544
298.548
298.55
298.55
298.548
298.544
298.537
298.523
298.525
298.537
298.542
298.545
298.546
298.543
298.543
298.541
298.536
298.527
298.529
298.536
298.54
298.542
298.543
298.538
298.538
298.538
298.535
298.53
298.527
298.532
298.535
298.536
298.536
298.534
298.534
298.533
298.53
298.524
298.524
298.528
298.53
298.53
298.529
298.528
298.528
298.527
298.526
298.524
298.524
298.524
298.525
298.526
298.526
298.52
298.521
298.521
298.52
298.517
298.516
298.517
298.518
298.519
298.519
298.516
298.516
298.515
298.514
298.512
298.508
298.511
298.512
298.513
298.513
298.511
298.51
298.51
298.508
298.505
298.505
298.506
298.506
298.506
298.504
298.502
298.502
298.502
298.503
298.504
298.503
298.5
298.499
298.499
298.498
298.491
298.493
298.494
298.494
298.495
298.487
298.488
298.488
298.489
298.489
298.485
298.484
298.484
298.484
298.484
298.48
298.479
298.48
298.481
298.481
298.478
298.476
298.476
298.475
298.475
298.472
298.471
298.471
298.471
298.47
298.467
298.467
298.466
298.466
298.466
298.464
298.462
298.462
298.462
298.463
298.456
298.457
298.457
298.457
298.459
298.452
298.452
298.452
298.453
298.453
298.449
298.448
298.448
298.448
298.449
298.443
298.443
298.443
298.444
298.444
298.441
298.439
298.439
298.438
298.44
298.432
298.433
298.433
298.434
298.433
298.43
298.429
298.428
298.428
298.43
298.422
298.423
298.423
298.423
298.425
298.417
298.418
298.418
298.418
298.42
298.413
298.412
298.413
298.414
298.414
298.409
298.408
298.407
298.407
298.409
298.402
298.402
298.402
298.403
298.404
298.4
298.398
298.397
298.397
298.398
298.394
298.391
298.391
298.392
298.391
298.387
298.387
298.387
298.387
298.389
298.381
298.381
298.381
298.381
298.382
298.376
298.376
298.375
298.376
298.377
298.367
298.368
298.369
298.369
298.372
298.363
298.363
298.362
298.362
298.364
298.356
298.357
298.357
298.357
298.358
298.353
298.351
298.351
298.351
298.353
298.349
298.346
298.345
298.346
298.346
298.342
298.339
298.338
298.338
298.34
298.331
298.331
298.332
298.333
298.332
298.326
298.326
298.325
298.325
298.327
298.32
298.319
298.319
298.32
298.321
298.314
298.314
298.313
298.313
298.315
298.305
298.306
298.306
298.308
298.31
298.301
298.301
298.301
298.3
298.3
298.3
298.297
298.296
298.296
298.295
298.29
298.289
298.289
298.291
298.296
298.291
298.286
298.283
298.283
298.282
298.277
298.275
298.274
298.275
298.278
298.273
298.268
298.268
298.268
298.267
298.258
298.258
298.258
298.259
298.262
298.253
298.251
298.251
298.251
298.253
298.244
298.244
298.244
298.244
298.247
298.24
298.237
298.237
298.237
298.24
298.23
298.231
298.23
298.231
298.236
298.231
298.225
298.223
298.223
298.222
298.217
298.216
298.216
298.217
298.218
298.218
298.213
298.21
298.21
298.209
298.204
298.203
298.203
298.204
298.207
298.201
298.196
298.195
298.195
298.194
298.189
298.186
298.186
298.187
298.188
298.184
298.18
298.179
298.179
298.178
298.169
298.169
298.17
298.171
298.176
298.172
298.165
298.163
298.162
298.164
298.154
298.155
298.155
298.157
298.162
298.155
298.15
298.147
298.147
298.149
298.138
298.14
298.14
298.142
298.151
298.138
298.133
298.13
298.129
298.128
298.123
298.122
298.123
298.125
298.133
298.12
298.116
298.114
298.114
298.113
298.107
298.106
298.107
298.108
298.113
298.106
298.1
298.098
298.097
298.096
298.09
298.089
298.089
298.091
298.096
298.092
298.084
298.082
298.081
298.08
298.069
298.071
298.072
298.075
298.086
298.073
298.067
298.065
298.063
298.064
298.055
298.056
298.058
298.062
298.071
298.06
298.052
298.05
298.048
298.049
298.037
298.039
298.041
298.045
298.055
298.042
298.035
298.031
298.029
298.03
298.019
298.021
298.021
298.025
298.036
298.028
298.015
298.01
298.008
298.007
298.001
298
298.002
298.005
298.01
298.006
297.997
297.993
297.992
297.991
297.984
297.985
297.985
297.988
297.995
297.989
297.98
297.976
297.974
297.973
297.965
297.965
297.966
297.97
297.985
297.973
297.961
297.957
297.956
297.954
297.94
297.943
297.946
297.951
297.966
297.95
297.941
297.937
297.935
297.935
297.923
297.926
297.928
297.933
297.944
297.932
297.923
297.919
297.917
297.916
297.905
297.906
297.908
297.913
297.921
297.918
297.903
297.898
297.897
297.897
297.886
297.887
297.889
297.893
297.906
297.899
297.884
297.878
297.874
297.872
297.867
297.867
297.87
297.875
297.885
297.881
297.867
297.86
297.858
297.855
297.848
297.85
297.852
297.858
297.868
297.862
297.847
297.841
297.838
297.836
297.828
297.829
297.832
297.837
297.85
297.843
297.827
297.82
297.816
297.814
297.805
297.806
297.808
297.814
297.826
297.82
297.803
297.797
297.795
297.793
297.777
297.78
297.784
297.79
297.807
297.791
297.78
297.775
297.772
297.771
297.759
297.761
297.764
297.771
297.786
297.773
297.761
297.756
297.754
297.752
297.74
297.741
297.744
297.75
297.763
297.758
297.742
297.736
297.734
297.732
297.718
297.721
297.725
297.732
297.75
297.745
297.723
297.714
297.711
297.71
297.697
297.7
297.703
297.711
297.732
297.723
297.7
297.69
297.684
297.68
297.673
297.675
297.679
297.686
297.701
297.692
297.675
297.667
297.663
297.66
297.653
297.655
297.656
297.662
297.675
297.67
297.652
297.645
297.641
297.639
297.631
297.633
297.635
297.642
297.655
297.648
297.631
297.623
297.618
297.615
297.606
297.608
297.611
297.619
297.644
297.634
297.609
297.6
297.596
297.593
297.575
297.58
297.586
297.596
297.614
297.607
297.587
297.578
297.572
297.569
297.556
297.56
297.565
297.574
297.59
297.586
297.565
297.556
297.551
297.548
297.533
297.536
297.542
297.551
297.573
297.564
297.541
297.531
297.527
297.524
297.507
297.51
297.516
297.525
297.546
297.54
297.513
297.503
297.499
297.497
297.483
297.487
297.491
297.501
297.524
297.513
297.489
297.477
297.47
297.465
297.458
297.462
297.468
297.479
297.505
297.488
297.466
297.455
297.448
297.444
297.437
297.441
297.446
297.457
297.482
297.468
297.444
297.433
297.425
297.421
297.412
297.417
297.423
297.436
297.464
297.444
297.422
297.408
297.4
297.395
297.384
297.389
297.395
297.407
297.435
297.416
297.391
297.378
297.37
297.366
297.354
297.357
297.363
297.377
297.411
297.397
297.363
297.35
297.344
297.339
297.318
297.325
297.334
297.347
297.377
297.363
297.336
297.323
297.316
297.311
297.296
297.3
297.309
297.322
297.351
297.339
297.31
297.298
297.292
297.287
297.27
297.275
297.283
297.297
297.326
297.318
297.286
297.273
297.266
297.262
297.243
297.249
297.258
297.273
297.304
297.299
297.259
297.243
297.236
297.232
297.217
297.223
297.231
297.248
297.287
297.264
297.23
297.214
297.203
297.196
297.188
297.195
297.203
297.218
297.253
297.236
297.203
297.187
297.177
297.172
297.163
297.168
297.175
297.189
297.22
297.211
297.175
297.159
297.15
297.144
297.135
297.14
297.147
297.161
297.194
297.18
297.146
297.131
297.121
297.115
297.106
297.111
297.119
297.134
297.172
297.156
297.12
297.103
297.092
297.085
297.072
297.078
297.087
297.106
297.151
297.139
297.095
297.075
297.064
297.056
297.034
297.044
297.057
297.076
297.111
297.104
297.065
297.046
297.035
297.026
297.008
297.016
297.029
297.05
297.087
297.078
297.036
297.017
297.006
296.999
296.979
296.986
296.998
297.017
297.059
297.046
297.004
296.985
296.976
296.968
296.947
296.955
296.967
296.987
297.034
297.016
296.972
296.953
296.944
296.936
296.914
296.922
296.933
296.953
296.992
296.984
296.938
296.919
296.91
296.903
296.88
296.889
296.902
296.923
296.967
296.961
296.907
296.885
296.874
296.867
296.85
296.86
296.872
296.896
296.949
296.924
296.876
296.852
296.837
296.826
296.817
296.827
296.841
296.865
296.915
296.893
296.846
296.822
296.807
296.798
296.788
296.797
296.809
296.831
296.878
296.862
296.813
296.789
296.775
296.766
296.755
296.764
296.775
296.797
296.847
296.829
296.78
296.755
296.741
296.731
296.72
296.729
296.74
296.763
296.817
296.794
296.745
296.721
296.706
296.695
296.681
296.689
296.702
296.729
296.787
296.771
296.714
296.688
296.673
296.662
296.637
296.65
296.668
296.698
296.753
296.738
296.683
296.655
296.639
296.628
296.607
296.618
296.635
296.663
296.723
296.699
296.645
296.62
296.606
296.597
296.573
296.584
296.599
296.625
296.681
296.668
296.611
296.585
296.572
296.562
296.538
296.549
296.565
296.594
296.654
296.638
296.576
296.549
296.536
296.526
296.501
296.512
296.529
296.556
296.614
296.607
296.538
296.509
296.494
296.485
296.466
296.479
296.495
296.526
296.593
296.572
296.507
296.474
296.455
296.44
296.431
296.444
296.461
296.493
296.56
296.544
296.474
296.441
296.421
296.409
296.397
296.408
296.424
296.455
296.518
296.498
296.432
296.401
296.383
296.371
296.358
296.37
296.385
296.413
296.479
296.463
296.394
296.362
296.343
296.331
296.316
296.329
296.345
296.374
296.446
296.423
296.355
296.322
296.302
296.288
296.27
296.282
296.3
296.335
296.412
296.397
296.319
296.284
296.265
296.25
296.222
296.239
296.261
296.298
296.365
296.357
296.285
296.249
296.228
296.212
296.189
296.204
296.227
296.265
296.338
296.326
296.249
296.212
296.191
296.176
296.15
296.165
296.186
296.224
296.301
296.284
296.205
296.169
296.15
296.135
296.107
296.122
296.143
296.18
296.258
296.245
296.162
296.124
296.106
296.091
296.062
296.078
296.1
296.136
296.215
296.205
296.117
296.076
296.055
296.042
296.021
296.038
296.059
296.1
296.183
296.168
296.081
296.036
296.009
295.991
295.979
295.996
296.02
296.062
296.153
296.122
296.037
295.994
295.969
295.953
295.938
295.954
295.975
296.014
296.093
296.082
295.993
295.95
295.926
295.91
295.894
295.911
295.932
295.972
296.059
296.039
295.95
295.907
295.882
295.865
295.848
295.865
295.886
295.927
296.018
296.001
295.906
295.862
295.836
295.817
295.796
295.812
295.837
295.885
295.988
295.972
295.869
295.819
295.793
295.773
295.741
295.763
295.794
295.846
295.938
295.928
295.827
295.776
295.748
295.729
295.701
295.719
295.748
295.798
295.893
295.869
295.774
295.728
295.703
295.685
295.654
295.671
295.698
295.748
295.846
295.821
295.722
295.677
295.654
295.637
295.604
295.622
295.648
295.696
295.797
295.769
295.668
295.625
295.604
295.586
295.555
295.573
295.6
295.648
295.75
295.738
295.625
295.574
295.549
295.532
295.51
295.531
295.559
295.612
295.725
295.697
295.589
295.533
295.5
295.478
295.465
295.486
295.516
295.571
295.685
295.657
295.547
295.489
295.457
295.436
295.419
295.441
295.469
295.524
295.634
295.61
295.495
295.439
295.408
295.387
295.367
295.389
295.417
295.471
295.584
295.562
295.44
295.384
295.353
295.332
295.31
295.331
295.358
295.411
295.526
295.504
295.38
295.327
295.296
295.274
295.245
295.265
295.295
295.354
295.47
295.459
295.329
295.273
295.242
295.219
295.183
295.207
295.243
295.308
295.429
295.416
295.286
295.224
295.191
295.167
295.136
295.159
295.196
295.259
295.376
295.363
295.236
295.173
295.142
295.117
295.083
295.107
295.143
295.207
295.328
295.308
295.174
295.115
295.085
295.061
295.025
295.05
295.086
295.151
295.278
295.269
295.119
295.053
295.018
294.995
294.968
294.995
295.031
295.102
295.247
295.216
295.072
294.998
294.956
294.929
294.911
294.938
294.976
295.048
295.185
295.15
295.015
294.942
294.901
294.876
294.854
294.88
294.914
294.984
295.128
295.08
294.945
294.876
294.838
294.813
294.787
294.811
294.842
294.91
295.057
295.007
294.872
294.806
294.771
294.746
294.711
294.733
294.767
294.836
294.992
294.952
294.813
294.744
294.709
294.683
294.645
294.672
294.714
294.79
294.929
294.922
294.772
294.698
294.657
294.628
294.596
294.624
294.668
294.748
294.9
294.88
294.72
294.644
294.605
294.575
294.537
294.566
294.61
294.69
294.847
294.828
294.658
294.58
294.542
294.512
294.471
294.502
294.545
294.625
294.789
294.777
294.59
294.506
294.462
294.435
294.402
294.434
294.477
294.559
294.742
294.711
294.526
294.435
294.386
294.356
294.334
294.363
294.406
294.491
294.662
294.612
294.449
294.362
294.319
294.293
294.266
294.293
294.328
294.406
294.566
294.52
294.367
294.287
294.247
294.223
294.194
294.221
294.255
294.332
294.501
294.48
294.308
294.225
294.183
294.155
294.119
294.148
294.191
294.28
294.471
294.445
294.263
294.17
294.123
294.089
294.047
294.082
294.135
294.235
294.432
294.398
294.204
294.11
294.06
294.025
293.984
294.017
294.07
294.167
294.35
294.324
294.128
294.037
293.991
293.956
293.91
293.943
293.994
294.094
294.28
294.248
294.044
293.952
293.908
293.875
293.827
293.859
293.908
294.005
294.188
294.171
293.954
293.857
293.81
293.779
293.74
293.774
293.82
293.915
294.13
294.086
293.878
293.775
293.722
293.689
293.662
293.695
293.742
293.843
294.06
293.997
293.8
293.7
293.649
293.618
293.584
293.617
293.662
293.76
293.964