/*--------------------------------*- C++ -*----------------------------------*\
| =========                 |                                                 |
| \\      /  F ield         | OpenFOAM: The Open Source CFD Toolbox           |
|  \\    /   O peration     | Version:  v2006                                 |
|   \\  /    A nd           | Website:  www.openfoam.com                      |
|    \\/     M anipulation  |                                                 |
\*---------------------------------------------------------------------------*/
FoamFile
{
    version     2.0;
    format      ascii;
    class       volScalarField;
    location    "0.175";
    object      turbulenceProperties:I;
}
// * * * * * * * * * * * * * * * * * * * * * * * * * * * * * * * * * * * * * //

dimensions      [0 0 0 0 0 0 0];


internalField   nonuniform List<scalar> 
38932
(
0.149717
0.149711
0.149908
0.14991
0.149909
0.149911
0.149909
0.14991
0.149909
0.14991
0.14991
0.14991
0.14991
0.14991
0.149911
0.149911
0.149911
0.149911
0.149912
0.149912
0.149912
0.149913
0.149913
0.149913
0.149914
0.149914
0.149915
0.149915
0.149916
0.149916
0.149917
0.149917
0.149918
0.149918
0.149919
0.149919
0.14992
0.14992
0.149921
0.149922
0.149922
0.149923
0.149923
0.149924
0.149924
0.149925
0.149926
0.149926
0.149927
0.149927
0.149928
0.149929
0.149929
0.14993
0.14993
0.149931
0.149931
0.149932
0.149933
0.149933
0.149934
0.149934
0.149935
0.149935
0.149935
0.149936
0.149936
0.149937
0.149937
0.149937
0.149938
0.149938
0.149938
0.149938
0.149939
0.149939
0.149939
0.149939
0.149939
0.149939
0.149939
0.149939
0.149939
0.149939
0.149938
0.149938
0.149938
0.149938
0.149937
0.149937
0.149937
0.149936
0.149936
0.149935
0.149935
0.149934
0.149934
0.149933
0.149932
0.149932
0.149931
0.149931
0.14993
0.149929
0.149929
0.149928
0.149927
0.149927
0.149926
0.149925
0.149925
0.149924
0.149923
0.149923
0.149922
0.149922
0.149921
0.149921
0.149921
0.149922
0.149923
0.149927
0.149935
0.149952
0.149989
0.150112
0.150214
0.151557
0.151342
0.159508
0.163448
0.172438
0.131122
0.173881
0.16068
0.157807
0.159709
0.131597
0.131472
0.148351
0.152841
0.147767
0.140049
0.129237
0.126779
0.133445
0.142981
0.138824
0.128439
0.124598
0.122707
0.124421
0.135289
0.132293
0.121356
0.121145
0.119888
0.11899
0.129755
0.127616
0.117153
0.118893
0.118119
0.115724
0.125806
0.12426
0.114594
0.117515
0.117048
0.113692
0.12293
0.121776
0.112964
0.116693
0.116428
0.11237
0.12077
0.119886
0.11188
0.116234
0.116095
0.111471
0.119104
0.118408
0.111125
0.116001
0.115941
0.110833
0.117786
0.117229
0.110583
0.115911
0.115905
0.110372
0.116728
0.116278
0.110194
0.115919
0.115951
0.110046
0.115874
0.115513
0.109926
0.115998
0.11606
0.109832
0.11519
0.114905
0.109763
0.116136
0.116224
0.109719
0.114655
0.114439
0.109699
0.116325
0.116439
0.109702
0.114255
0.114103
0.109729
0.116565
0.116704
0.109778
0.113982
0.113891
0.109851
0.116855
0.11702
0.109947
0.113831
0.1138
0.110066
0.117197
0.117388
0.110209
0.1138
0.113829
0.110376
0.117593
0.117812
0.110568
0.113889
0.11398
0.110785
0.118046
0.118296
0.111028
0.114102
0.114256
0.111298
0.118562
0.118846
0.111595
0.114442
0.114663
0.111922
0.119147
0.119468
0.112279
0.114919
0.115212
0.112667
0.119808
0.120171
0.113089
0.115543
0.115914
0.113547
0.120556
0.120967
0.114041
0.116327
0.116784
0.114576
0.121403
0.121869
0.115152
0.117288
0.117843
0.115774
0.122365
0.122893
0.116444
0.11845
0.119114
0.117165
0.123458
0.12406
0.117941
0.119837
0.120626
0.118777
0.124704
0.125392
0.119677
0.121484
0.122416
0.120646
0.126129
0.126921
0.121692
0.123431
0.124533
0.12282
0.127771
0.128687
0.12404
0.125734
0.12704
0.12536
0.129676
0.130747
0.126791
0.128464
0.130017
0.128345
0.131908
0.13317
0.130035
0.131713
0.133569
0.131879
0.134547
0.136054
0.133893
0.135603
0.137837
0.136101
0.137707
0.139527
0.138527
0.140296
0.143009
0.1412
0.141539
0.143773
0.144158
0.146013
0.149346
0.147439
0.146261
0.149049
0.151097
0.153061
0.157214
0.155191
0.152187
0.155741
0.159797
0.161879
0.167142
0.165005
0.159791
0.164443
0.170934
0.173116
0.179933
0.177728
0.16983
0.176127
0.185575
0.18777
0.196843
0.194715
0.183564
0.192453
0.205467
0.207437
0.219925
0.218252
0.203219
0.216468
0.233651
0.234804
0.252741
0.252456
0.23306
0.254288
0.275811
0.274675
0.301926
0.305389
0.282149
0.319888
0.343737
0.336431
0.381043
0.394799
0.372995
0.4518
0.465294
0.440368
0.521984
0.567241
0.577886
0.804538
0.724415
0.639458
0.820668
0.994195
1
1
1
1
1
1
1
1
1
1
1
1
1
0.868842
1
1
1
1
0.711213
0.601063
0.962511
1
0.989505
0.775507
0.517389
0.449982
0.637726
0.785964
0.636552
0.528717
0.393626
0.346944
0.440639
0.522091
0.43386
0.369796
0.308924
0.284427
0.316556
0.368377
0.324404
0.283682
0.269441
0.257847
0.263289
0.296433
0.278192
0.249498
0.249163
0.241486
0.239136
0.265556
0.256669
0.232138
0.235312
0.230192
0.227229
0.250631
0.24683
0.224046
0.226217
0.223197
0.221994
0.244463
0.243405
0.221048
0.221094
0.219683
0.220991
0.243433
0.244395
0.221697
0.219153
0.219558
0.223323
0.246408
0.249503
0.226024
0.220735
0.222643
0.229291
0.253294
0.258079
0.23355
0.225463
0.229087
0.238608
0.263756
0.270411
0.244604
0.233615
0.239083
0.251562
0.278103
0.286936
0.259586
0.245547
0.253154
0.268803
0.297027
0.308551
0.27936
0.262014
0.272314
0.291494
0.321747
0.336873
0.305481
0.284331
0.298417
0.321718
0.354366
0.374729
0.340733
0.315015
0.335011
0.363389
0.398783
0.42767
0.39084
0.359345
0.39027
0.425338
0.463402
0.508889
0.470093
0.430752
0.490443
0.532833
0.570189
0.655895
0.623823
0.579992
0.750331
0.777501
0.786345
1
1
1
1
1
1
1
1
1
1
1
1
1
1
0.787503
0.606296
0.516354
0.462941
0.432813
0.417353
0.412284
0.416972
0.431531
0.456704
0.493876
0.552338
0.632606
0.745644
0.840732
0.94823
1
1
1
1
1
1
1
1
1
1
1
1
1
1
1
1
1
1
1
1
1
1
1
1
1
1
1
1
1
1
1
1
1
1
1
1
1
1
1
1
1
1
1
1
1
1
1
1
1
1
1
1
1
1
1
1
1
1
1
1
1
1
1
1
1
1
1
1
1
1
1
1
1
1
1
1
1
1
1
1
1
1
1
1
1
1
1
1
1
1
1
1
1
1
1
1
1
1
1
1
1
1
1
1
1
1
1
1
1
1
1
1
1
1
1
1
1
1
1
1
1
1
1
1
1
1
1
1
1
1
1
1
1
1
1
1
1
1
1
1
1
1
1
1
1
1
1
1
1
1
1
1
1
1
1
1
1
0.894498
1
1
1
1
1
1
1
1
1
1
1
1
1
1
1
1
1
1
1
1
1
1
1
1
1
1
1
1
1
1
1
1
1
0.935336
1
1
1
1
1
1
1
1
0.941923
0.860904
0.941017
1
1
1
1
0.870771
1
0.954087
0.858416
0.817515
0.884266
1
1
1
1
1
1
0.906255
0.81135
0.767416
0.805328
0.978409
0.802584
0.9218
1
1
1
0.870816
0.770308
0.727563
0.784741
0.944672
1
1
1
0.822444
0.998879
0.827113
0.726934
0.698874
0.763177
0.895514
1
1
1
1
0.949772
0.767155
0.693634
0.658967
0.713784
0.826825
0.990507
1
1
1
0.905095
0.731743
0.664852
0.640265
0.687658
0.782063
0.75447
1
1
0.950993
0.915628
0.702297
0.640415
0.608266
0.663783
0.755571
0.910641
1
0.7253
0.62048
0.826331
0.656452
0.605895
0.586689
0.605688
0.736008
0.620053
0.727136
1
0.979548
0.799052
0.651368
0.585736
0.566855
0.596987
0.677334
0.857001
1
0.836711
0.628744
0.680612
0.611819
0.567048
0.557365
0.60152
0.660704
0.645697
0.935832
1
0.88696
0.750841
0.602342
0.557571
0.538964
0.578661
0.652199
0.810757
1
0.81176
0.684146
0.718218
0.586232
0.545301
0.527408
0.557979
0.659594
0.722186
0.956873
1
0.950139
0.714784
0.587391
0.531475
0.510872
0.538221
0.620365
0.690189
0.919009
0.957652
0.719575
0.691732
0.566735
0.517172
0.49765
0.526765
0.590921
0.711638
1
0.8005
0.625338
0.641984
0.546668
0.503307
0.488194
0.516658
0.579523
0.6972
1
0.947723
0.65216
0.598599
0.526074
0.490367
0.475484
0.503389
0.558459
0.584181
0.857795
1
0.754957
0.610883
0.511401
0.478667
0.462492
0.482377
0.516495
0.5878
0.998481
0.757212
0.586733
0.579107
0.49115
0.466386
0.45278
0.466288
0.503884
0.587211
1
0.798226
0.586357
0.549549
0.481761
0.459472
0.449389
0.470259
0.510734
0.588071
0.968639
0.745784
0.593135
0.578084
0.484922
0.455895
0.444958
0.466253
0.511368
0.592205
1
0.704392
0.564949
0.552552
0.474114
0.450119
0.437511
0.455431
0.514208
0.567854
0.790399
1
0.617964
0.531209
0.469155
0.439578
0.426858
0.443048
0.495338
0.541596
0.724398
0.796814
0.58207
0.545297
0.462313
0.431312
0.415546
0.431059
0.467344
0.52852
0.923978
0.645951
0.503182
0.505889
0.44046
0.418314
0.405032
0.418503
0.452907
0.513547
0.859577
0.711762
0.496564
0.464134
0.422584
0.404787
0.393189
0.408519
0.449759
0.462032
0.667913
0.721036
0.577243
0.503132
0.415235
0.396171
0.38334
0.397363
0.454971
0.486024
0.639843
0.870777
0.49653
0.434733
0.395915
0.377422
0.358743
0.364828
0.435073
0.438832
0.552213
0.569745
0.339983
0.309931
0.310415
0.323703
0.330043
0.309545
0.291923
0.303815
0.483924
0.388703
0.302773
0.314104
0.336826
0.359401
0.368948
0.346223
0.322268
0.299397
0.33273
0.30517
0.304556
0.333207
0.357847
0.380798
0.390451
0.367387
0.341956
0.310607
0.292029
0.284865
0.316105
0.349566
0.375899
0.39936
0.40742
0.383469
0.356135
0.320268
0.279869
0.276971
0.324695
0.362134
0.39032
0.414665
0.420713
0.396426
0.36769
0.329049
0.275385
0.274729
0.333711
0.373656
0.403234
0.428238
0.435614
0.409697
0.379074
0.337425
0.27431
0.275018
0.341393
0.384884
0.416652
0.443705
0.452182
0.424003
0.391085
0.346409
0.277667
0.284284
0.35268
0.398332
0.431705
0.45998
0.468774
0.440789
0.407405
0.361891
0.290995
0.296134
0.370994
0.417246
0.451286
0.48002
0.491305
0.461751
0.426878
0.379325
0.300192
0.304083
0.388125
0.436374
0.472139
0.502546
0.514466
0.482535
0.445559
0.396577
0.306866
0.308029
0.402901
0.453086
0.49162
0.526922
0.527451
0.494791
0.456514
0.405414
0.308601
0.309112
0.407262
0.458466
0.495401
0.525038
0.535711
0.503384
0.465231
0.41306
0.313116
0.31588
0.421006
0.47426
0.513475
0.546822
0.558418
0.523902
0.483773
0.429708
0.319128
0.322695
0.437495
0.492929
0.534171
0.569969
0.581558
0.54417
0.501551
0.445396
0.328206
0.330801
0.451296
0.508619
0.552827
0.592721
0.600968
0.558084
0.513093
0.455707
0.334562
0.334613
0.456178
0.512982
0.556028
0.593436
0.582929
0.550345
0.509901
0.454287
0.334748
0.334658
0.453004
0.508435
0.549819
0.586944
0.584876
0.549745
0.508412
0.452175
0.336162
0.337282
0.452326
0.508347
0.548302
0.580225
0.588311
0.553215
0.512129
0.455501
0.34201
0.345901
0.460721
0.5186
0.560865
0.596932
0.604424
0.568189
0.525394
0.466841
0.350915
0.354888
0.473657
0.532744
0.57613
0.613059
0.622446
0.584806
0.540631
0.48087
0.360749
0.364445
0.488188
0.549195
0.594459
0.633338
0.645654
0.603676
0.557293
0.495499
0.369796
0.371543
0.499424
0.561929
0.607788
0.64677
0.645906
0.610246
0.564999
0.501183
0.373398
0.379011
0.509268
0.574537
0.621193
0.660176
0.675786
0.63551
0.58741
0.520992
0.386517
0.392919
0.533959
0.601561
0.650965
0.69265
0.710587
0.666809
0.615721
0.546315
0.398318
0.40311
0.555352
0.627033
0.680855
0.729463
0.732538
0.687112
0.633467
0.560219
0.407183
0.408487
0.562605
0.637834
0.690851
0.732786
0.751304
0.704651
0.648603
0.570286
0.413735
0.427588
0.583517
0.664281
0.722893
0.772577
0.796239
0.744191
0.683226
0.599962
0.439673
0.45037
0.617073
0.703167
0.767329
0.822773
0.853329
0.790511
0.722628
0.633719
0.461418
0.469803
0.647103
0.737112
0.80479
0.863643
0.870221
0.816681
0.750475
0.659099
0.47751
0.485931
0.674945
0.771034
0.841102
0.900353
0.935344
0.871631
0.797123
0.696025
0.499136
0.51602
0.720298
0.826636
0.905835
0.974618
1
0.94396
0.858847
0.74795
0.534009
0.549398
0.773308
0.891322
0.983844
1
1
1
0.916545
0.795192
0.560568
0.572308
0.817159
0.942157
1
1
1
1
0.978195
0.844752
0.587845
0.607016
0.880232
1
1
1
1
1
1
0.923817
0.636685
0.667447
0.970719
1
1
1
1
1
1
1
0.692541
0.713972
1
1
1
1
1
1
1
1
0.743594
0.786528
1
1
1
1
1
1
1
1
0.837356
0.876989
1
1
1
1
1
1
1
1
0.927009
0.988708
1
1
1
1
1
1
1
1
1
1
1
1
1
1
1
1
1
1
1
1
1
1
1
1
1
1
1
1
1
1
1
1
1
1
1
1
1
1
1
1
1
1
1
1
1
1
1
1
1
1
1
1
1
1
1
1
1
1
1
1
1
1
1
1
1
1
1
1
1
1
1
1
1
1
1
1
1
1
1
1
1
1
1
1
1
1
1
1
1
1
1
1
1
1
1
1
1
1
1
1
1
1
1
1
1
1
1
1
1
0.930534
1
1
1
1
0.97346
0.985869
0.992241
0.978852
0.840424
0.755781
0.889451
0.90636
0.904014
0.891631
0.825377
0.831923
0.827848
0.805132
0.67248
0.595911
0.72598
0.754145
0.76374
0.765923
0.701415
0.698061
0.684206
0.650628
0.517979
0.423066
0.575213
0.618343
0.637399
0.645603
0.59271
0.584835
0.562112
0.511289
0.346203
0.319019
0.468673
0.518032
0.543127
0.557669
0.523107
0.511079
0.487069
0.444269
0.323173
0.318258
0.422203
0.460801
0.48347
0.498207
0.471587
0.458263
0.435254
0.394928
0.292265
0.254198
0.366187
0.409393
0.432134
0.446517
0.42103
0.408764
0.387561
0.347379
0.241248
0.249404
0.338722
0.372825
0.391604
0.402834
0.388558
0.378118
0.361694
0.332219
0.251354
0.235791
0.323081
0.350218
0.36592
0.376069
0.364857
0.354769
0.339136
0.310294
0.223003
0.222033
0.294901
0.326748
0.343513
0.353257
0.34331
0.332601
0.313686
0.279557
0.218275
0.208461
0.26473
0.301669
0.322396
0.334385
0.329412
0.315979
0.294192
0.257858
0.203412
0.205397
0.252069
0.28915
0.311399
0.32515
0.322164
0.307956
0.2855
0.248804
0.208264
0.213333
0.24666
0.283544
0.306142
0.320376
0.318032
0.30298
0.27958
0.241949
0.213898
0.204299
0.235942
0.276729
0.301801
0.317598
0.316272
0.300198
0.274643
0.232042
0.197822
0.206647
0.238138
0.278794
0.303342
0.31888
0.319738
0.30565
0.283402
0.245786
0.215997
0.220624
0.253114
0.289063
0.310696
0.32417
0.326105
0.312143
0.291554
0.258185
0.224403
0.225268
0.259508
0.290848
0.310031
0.321934
0.324744
0.31248
0.293175
0.262013
0.223282
0.222195
0.265478
0.295039
0.313393
0.325228
0.329987
0.31842
0.30043
0.272249
0.227147
0.236937
0.27996
0.305688
0.321811
0.33324
0.332141
0.323396
0.309867
0.287782
0.246704
0.253077
0.294138
0.315534
0.328712
0.33698
0.339713
0.331252
0.319311
0.299493
0.258471
0.261446
0.302071
0.321099
0.331815
0.338523
0.342127
0.33548
0.324291
0.304166
0.262673
0.264047
0.306474
0.326015
0.336677
0.343929
0.342355
0.336418
0.326411
0.307019
0.264128
0.262209
0.308305
0.328628
0.339032
0.345162
0.346047
0.340494
0.330654
0.311325
0.262021
0.268151
0.316928
0.335056
0.344563
0.350191
0.352848
0.347229
0.338824
0.32256
0.275236
0.280113
0.326567
0.341495
0.34881
0.352975
0.356626
0.352664
0.345463
0.330609
0.283382
0.28663
0.33401
0.348037
0.354611
0.358762
0.358888
0.355666
0.349569
0.335907
0.288501
0.291131
0.339047
0.35271
0.358766
0.361907
0.363579
0.360139
0.354331
0.340761
0.292891
0.293856
0.341928
0.355251
0.360831
0.363575
0.3661
0.36327
0.357476
0.343595
0.294618
0.295758
0.344623
0.358588
0.364231
0.3674
0.367241
0.364614
0.359007
0.345137
0.296106
0.296606
0.346488
0.360837
0.366682
0.369424
0.370423
0.367298
0.361568
0.347354
0.297239
0.296714
0.347067
0.361666
0.367472
0.3701
0.372031
0.369277
0.363333
0.349041
0.297681
0.298381
0.349564
0.363821
0.369678
0.372852
0.372422
0.369667
0.363769
0.34946
0.298313
0.298425
0.350127
0.36508
0.371288
0.374289
0.375091
0.371651
0.365313
0.350242
0.298624
0.297725
0.348779
0.364563
0.371259
0.374911
0.374157
0.37073
0.363726
0.34717
0.296481
0.29548
0.347584
0.364476
0.371686
0.375347
0.375597
0.371493
0.36436
0.347918
0.295335
0.295113
0.347785
0.363897
0.371015
0.374612
0.375982
0.37208
0.36477
0.348589
0.29538
0.295197
0.348353
0.364566
0.37183
0.376148
0.375042
0.371302
0.364049
0.347963
0.294931
0.294976
0.34818
0.364731
0.372241
0.376322
0.37642
0.371967
0.364587
0.348579
0.295078
0.294356
0.347305
0.363837
0.371311
0.3752
0.37638
0.372097
0.364408
0.347795
0.293925
0.293885
0.34748
0.36401
0.371653
0.376331
0.374956
0.370889
0.363231
0.346596
0.293131
0.292785
0.346793
0.363583
0.371493
0.375997
0.375799
0.3709
0.363003
0.346068
0.292106
0.290957
0.344807
0.361983
0.369963
0.374253
0.375185
0.370457
0.362262
0.345066
0.290881
0.290397
0.344383
0.361602
0.369776
0.37489
0.373155
0.368626
0.360274
0.342547
0.288839
0.287399
0.342195
0.360254
0.368904
0.37394
0.373519
0.368016
0.359369
0.341552
0.286617
0.285208
0.339772
0.358069
0.366834
0.371654
0.372418
0.367074
0.35808
0.339486
0.284061
0.283483
0.338849
0.357222
0.366194
0.371949
0.369989
0.364942
0.355932
0.337149
0.281782
0.279925
0.336241
0.355587
0.365012
0.370667
0.370116
0.363995
0.354578
0.335572
0.278618
0.277058
0.333715
0.353283
0.362769
0.368128
0.368808
0.362824
0.353125
0.333457
0.275839
0.27537
0.332328
0.352053
0.361822
0.368232
0.366405
0.360705
0.350845
0.331462
0.274195
0.27332
0.33116
0.350665
0.360926
0.367259
0.366681
0.360188
0.350028
0.33005
0.272241
0.26965
0.329479
0.34941
0.359697
0.365441
0.366826
0.360423
0.350158
0.330302
0.270405
0.268422
0.332099
0.350626
0.360606
0.366994
0.366449
0.360932
0.351401
0.333613
0.26915
0.269086
0.335789
0.353177
0.362159
0.36734
0.368324
0.363637
0.354927
0.33716
0.268122
0.271008
0.338666
0.356972
0.365768
0.371337
0.370764
0.365833
0.357292
0.338187
0.272261
0.275186
0.336916
0.356145
0.364629
0.36927
0.366771
0.362757
0.3541
0.335346
0.27656
0.278487
0.335318
0.353429
0.362031
0.366271
0.364979
0.360989
0.352892
0.335335
0.28016
0.282042
0.336268
0.353083
0.361025
0.364912
0.363505
0.359951
0.352725
0.336603
0.28404
0.28674
0.336298
0.351506
0.358265
0.36114
0.360989
0.35774
0.351022
0.335588
0.282883
0.279432
0.333814
0.349368
0.356041
0.359402
0.356853
0.353878
0.34703
0.330994
0.276117
0.274611
0.329918
0.346174
0.353201
0.356627
0.355044
0.351458
0.344546
0.32866
0.273554
0.271644
0.326196
0.342243
0.349238
0.352405
0.352119
0.348471
0.341269
0.324945
0.270229
0.268985
0.323597
0.339599
0.346672
0.350458
0.347708
0.344408
0.337256
0.320997
0.267324
0.266852
0.320222
0.336363
0.343581
0.347366
0.345605
0.341687
0.334598
0.318851
0.265728
0.263184
0.316022
0.331989
0.339207
0.342668
0.342174
0.338114
0.330681
0.314434
0.261392
0.260072
0.312577
0.328733
0.336153
0.340366
0.337412
0.333746
0.326358
0.310329
0.258974
0.257648
0.308879
0.325108
0.3327
0.336947
0.335097
0.330614
0.32298
0.306746
0.255256
0.253226
0.304206
0.320361
0.328018
0.331943
0.331268
0.326909
0.319137
0.302929
0.25214
0.251047
0.301451
0.317589
0.325316
0.32961
0.329153
0.324603
0.316628
0.300476
0.250085
0.249183
0.299022
0.315093
0.322705
0.327238
0.324023
0.320174
0.312693
0.297093
0.248598
0.247238
0.295678
0.311365
0.318926
0.323337
0.321275
0.316603
0.30895
0.293248
0.244629
0.241989
0.289966
0.305966
0.313704
0.317812
0.316872
0.312258
0.304307
0.288184
0.240227
0.239107
0.286484
0.302541
0.310457
0.315041
0.314404
0.309529
0.301383
0.28536
0.238101
0.236793
0.283731
0.299477
0.307367
0.312306
0.308767
0.3045
0.29669
0.281036
0.23518
0.233453
0.279331
0.295128
0.303134
0.307993
0.306002
0.300853
0.292818
0.276989
0.231375
0.229755
0.274398
0.290082
0.298016
0.302475
0.301669
0.296706
0.288593
0.272814
0.228403
0.227275
0.271284
0.28696
0.294973
0.299881
0.299348
0.294131
0.285777
0.270074
0.226225
0.224673
0.268334
0.283883
0.292022
0.297342
0.293677
0.289074
0.281084
0.265709
0.222984
0.221524
0.264068
0.279548
0.287747
0.292963
0.291056
0.285589
0.277407
0.261963
0.219818
0.217949
0.259049
0.274588
0.282679
0.287434
0.286685
0.281418
0.273051
0.257522
0.216616
0.215314
0.255943
0.271494
0.279667
0.284869
0.284445
0.278872
0.270312
0.254845
0.214312
0.21303
0.25329
0.268497
0.276828
0.282516
0.27882
0.273965
0.26588
0.250884
0.211311
0.210359
0.249478
0.264489
0.27275
0.278087
0.276285
0.271088
0.263055
0.2482
0.209523
0.208265
0.246925
0.261811
0.270209
0.275837
0.27392
0.268187
0.259921
0.245084
0.206589
0.204868
0.242364
0.25723
0.265271
0.270189
0.269511
0.264083
0.255774
0.240867
0.203844
0.203024
0.239561
0.254323
0.262419
0.267696
0.267337
0.261605
0.253198
0.238454
0.201937
0.200133
0.236688
0.25131
0.259588
0.265446
0.261697
0.256679
0.248642
0.234206
0.19852
0.197585
0.232724
0.247239
0.25552
0.261068
0.259298
0.253924
0.245865
0.231439
0.196673
0.195543
0.230357
0.244812
0.253237
0.25905
0.257334
0.251417
0.243165
0.22893
0.194373
0.193306
0.226663
0.240792
0.248711
0.253723
0.253229
0.247722
0.239594
0.225446
0.192722
0.192012
0.22451
0.238379
0.246249
0.251543
0.251278
0.245533
0.237307
0.22333
0.190738
0.189091
0.221593
0.235464
0.243583
0.249467
0.245718
0.240656
0.232773
0.218947
0.187327
0.185958
0.217277
0.231302
0.239513
0.245129
0.24335
0.237927
0.229895
0.215982
0.185003
0.184268
0.215015
0.228881
0.237223
0.243162
0.241523
0.23552
0.227372
0.213595
0.183274
0.181998
0.211158
0.224926
0.232784
0.237893
0.237489
0.231837
0.223697
0.209807
0.180816
0.180313
0.208959
0.222533
0.230476
0.235855
0.235718
0.229959
0.221968
0.208653
0.179899
0.178949
0.20761
0.220836
0.228638
0.234026
0.233876
0.228047
0.219906
0.206687
0.177935
0.176844
0.20533
0.218437
0.226348
0.232231
0.228658
0.223641
0.216038
0.202996
0.175755
0.175024
0.201785
0.214856
0.222756
0.228299
0.226656
0.221359
0.213676
0.200726
0.174209
0.173378
0.199819
0.212755
0.2208
0.226612
0.225077
0.219192
0.211355
0.198399
0.172425
0.171156
0.196272
0.209008
0.216533
0.221552
0.221211
0.21567
0.207797
0.194991
0.170176
0.169298
0.193862
0.206631
0.214295
0.219594
0.219531
0.213784
0.205989
0.193403
0.16863
0.168053
0.192599
0.20501
0.212582
0.21789
0.21788
0.212146
0.204248
0.191767
0.167362
0.166648
0.190799
0.203018
0.210648
0.216422
0.212998
0.208097
0.200802
0.188497
0.165578
0.164722
0.187367
0.199685
0.207314
0.212743
0.211231
0.206113
0.198732
0.186456
0.164259
0.163932
0.18626
0.198247
0.20575
0.211308
0.209728
0.204608
0.197365
0.185563
0.163289
0.16248
0.184804
0.196564
0.204176
0.209774
0.208327
0.202676
0.195263
0.183563
0.16156
0.160414
0.181479
0.193127
0.200159
0.204957
0.204714
0.199373
0.191962
0.18016
0.159416
0.158892
0.179182
0.190932
0.198143
0.203189
0.203261
0.197724
0.19035
0.178664
0.15843
0.157933
0.178081
0.18953
0.19664
0.201696
0.201821
0.196268
0.188808
0.177371
0.157359
0.156527
0.176328
0.187665
0.19491
0.200471
0.197188
0.192478
0.185608
0.174278
0.155542
0.154805
0.173188
0.184566
0.19179
0.197038
0.195555
0.19063
0.183631
0.172448
0.15433
0.153787
0.171966
0.183111
0.190264
0.195697
0.194187
0.189227
0.182326
0.171403
0.153207
0.152626
0.170735
0.181645
0.188889
0.194332
0.193073
0.187609
0.180576
0.169762
0.15194
0.151175
0.168009
0.178658
0.185281
0.189887
0.189804
0.184666
0.17769
0.166877
0.150544
0.150121
0.166085
0.176805
0.183573
0.188357
0.188544
0.183273
0.176382
0.165756
0.149698
0.149049
0.16499
0.175571
0.182284
0.18709
0.187267
0.182017
0.175125
0.164693
0.148604
0.148158
0.16412
0.174411
0.180997
0.185728
0.185889
0.180649
0.173746
0.16356
0.147612
0.14687
0.162533
0.172637
0.179357
0.184606
0.181464
0.17703
0.170718
0.160612
0.145935
0.145313
0.159389
0.169724
0.176397
0.181391
0.179971
0.175353
0.168861
0.158692
0.144899
0.144361
0.158183
0.168325
0.175
0.18015
0.178726
0.174056
0.167565
0.157544
0.143823
0.14358
0.157278
0.167199
0.173871
0.179005
0.177544
0.172947
0.166598
0.156874
0.143369
0.142973
0.156414
0.166051
0.172708
0.1778
0.17663
0.171551
0.165088
0.155523
0.142372
0.141697
0.15398
0.163294
0.169311
0.173596
0.173543
0.168709
0.162345
0.152626
0.140929
0.140242
0.15182
0.161426
0.167659
0.17214
0.172355
0.167299
0.160808
0.151135
0.139598
0.139252
0.150682
0.160169
0.166427
0.170935
0.171252
0.166223
0.159814
0.150446
0.138991
0.13858
0.149973
0.159161
0.165319
0.169811
0.170106
0.165086
0.158621
0.149472
0.138242
0.137744
0.148675
0.15776
0.164046
0.169015
0.166113
0.161927
0.156093
0.147136
0.137077
0.136697
0.145963
0.155279
0.161458
0.166198
0.164864
0.160541
0.15453
0.145352
0.136304
0.135835
0.145034
0.154143
0.16031
0.165188
0.163844
0.159474
0.15348
0.144486
0.13544
0.134977
0.144297
0.153169
0.159354
0.164208
0.162812
0.158477
0.152527
0.143777
0.134509
0.134034
0.143417
0.152049
0.158253
0.163122
0.162102
0.157262
0.151183
0.142487
0.133551
0.133236
0.141248
0.149645
0.155241
0.159294
0.159413
0.154801
0.148872
0.140234
0.132834
0.132359
0.139607
0.148164
0.15393
0.158108
0.158481
0.153718
0.147748
0.139194
0.132075
0.131779
0.138776
0.147173
0.152965
0.157158
0.15759
0.152889
0.146986
0.138652
0.131528
0.131277
0.138337
0.146453
0.152127
0.156266
0.156636
0.151966
0.146132
0.137981
0.130649
0.130174
0.137483
0.145512
0.151101
0.155234
0.155532
0.150887
0.145003
0.13703
0.129832
0.129438
0.136279
0.144205
0.149931
0.154543
0.151858
0.148005
0.142727
0.134975
0.128907
0.128581
0.134009
0.141966
0.147568
0.15199
0.150698
0.146734
0.141305
0.133425
0.128304
0.127841
0.133007
0.140913
0.146551
0.151107
0.149823
0.145824
0.140367
0.132535
0.127513
0.127357
0.132407
0.140132
0.14575
0.150282
0.148981
0.14502
0.139656
0.132094
0.127105
0.126819
0.131799
0.139246
0.14488
0.149372
0.148466
0.144003
0.138539
0.13114
0.126468
0.125986
0.129832
0.137109
0.142167
0.145875
0.146055
0.141791
0.136439
0.12899
0.125743
0.125334
0.128365
0.135782
0.140966
0.144792
0.145224
0.14078
0.135356
0.127904
0.124855
0.12455
0.127503
0.13481
0.140067
0.143925
0.144407
0.139964
0.13454
0.127225
0.124181
0.123838
0.126824
0.134036
0.139255
0.143114
0.143598
0.139193
0.13381
0.126648
0.123628
0.123423
0.126348
0.133349
0.138476
0.142275
0.142692
0.138328
0.132972
0.126143
0.123231
0.12295
0.125539
0.132314
0.137507
0.14181
0.139287
0.135736
0.130968
0.124316
0.122541
0.122345
0.123409
0.130324
0.135401
0.13951
0.138246
0.134626
0.129697
0.122883
0.122188
0.121816
0.122467
0.129318
0.134458
0.138716
0.137409
0.133726
0.128761
0.121962
0.121369
0.121049
0.121695
0.128477
0.133644
0.137911
0.136627
0.132954
0.12799
0.121316
0.120792
0.120418
0.121117
0.127745
0.132858
0.13711
0.13583
0.132165
0.12724
0.120687
0.119916
0.119678
0.120487
0.126998
0.132091
0.136327
0.135062
0.13142
0.126576
0.120204
0.119565
0.119352
0.120007
0.12627
0.131345
0.135524
0.134726
0.130609
0.125707
0.119529
0.119158
0.118887
0.11862
0.124519
0.129
0.132362
0.132632
0.128691
0.123975
0.117926
0.118736
0.118477
0.117319
0.123389
0.128012
0.131442
0.131961
0.127904
0.12309
0.116931
0.11814
0.117841
0.116538
0.122613
0.127271
0.130749
0.131304
0.127258
0.12244
0.116315
0.117527
0.11725
0.115992
0.121976
0.126621
0.130088
0.130638
0.126602
0.121791
0.115766
0.116936
0.116673
0.115502
0.121386
0.125954
0.129408
0.129865
0.125863
0.121039
0.115265
0.116442
0.116274
0.114821
0.120498
0.125169
0.12911
0.12686
0.12365
0.119412
0.114068
0.116129
0.116068
0.113405
0.118908
0.123375
0.127143
0.125963
0.122705
0.118359
0.112808
0.115767
0.115402
0.112348
0.118021
0.12259
0.126481
0.125293
0.121986
0.117563
0.111941
0.115115
0.114907
0.111743
0.117386
0.121973
0.125867
0.124683
0.121394
0.116979
0.111459
0.114716
0.114441
0.111297
0.116797
0.121367
0.125269
0.124068
0.120767
0.116401
0.110969
0.114108
0.113911
0.110738
0.116058
0.120667
0.124539
0.123832
0.120032
0.115572
0.110363
0.113824
0.113726
0.109702
0.114562
0.118569
0.121634
0.121973
0.118321
0.114078
0.109111
0.113644
0.113554
0.108637
0.113593
0.117693
0.1208
0.121368
0.117613
0.113281
0.10823
0.113189
0.112803
0.107801
0.112829
0.117028
0.120189
0.120794
0.117003
0.112631
0.107528
0.112515
0.112306
0.107237
0.112229
0.116431
0.119593
0.12021
0.116424
0.112074
0.107043
0.112016
0.111759
0.10677
0.111667
0.115827
0.119004
0.11949
0.115748
0.111377
0.106547
0.111535
0.111386
0.106124
0.110881
0.115136
0.118807
0.116677
0.113728
0.10992
0.105532
0.111232
0.111314
0.104956
0.109462
0.113508
0.117051
0.115914
0.11294
0.109029
0.104537
0.111347
0.111106
0.104199
0.108801
0.112908
0.116539
0.115372
0.112351
0.108378
0.10382
0.11075
0.110471
0.103558
0.10821
0.112372
0.116021
0.114853
0.111825
0.107811
0.10324
0.11014
0.109887
0.103061
0.107656
0.111836
0.115502
0.114337
0.111283
0.107307
0.102793
0.109609
0.109331
0.102597
0.107034
0.111248
0.114854
0.114219
0.110672
0.106597
0.102311
0.109278
0.109346
0.101903
0.10572
0.109357
0.11218
0.112585
0.109156
0.105303
0.101416
0.109246
0.10901
0.100875
0.104848
0.108567
0.11144
0.11209
0.108557
0.104633
0.100482
0.108706
0.108577
0.100152
0.104255
0.108045
0.110943
0.11163
0.108096
0.104127
0.0999366
0.108441
0.108052
0.0996524
0.103792
0.107589
0.110487
0.111164
0.107613
0.103639
0.0994659
0.107815
0.10765
0.0992628
0.103326
0.107099
0.110022
0.11054
0.107066
0.103107
0.0991532
0.107526
0.107432
0.0989016
0.10267
0.106531
0.109932
0.107929
0.10523
0.101762
0.0985334
0.107408
0.107451
0.0981207
0.101345
0.105023
0.108342
0.107203
0.104477
0.100927
0.0975095
0.107257
0.107044
0.0971104
0.100708
0.104429
0.107837
0.106695
0.103924
0.10032
0.0967251
0.106784
0.106479
0.0963824
0.100142
0.10394
0.10738
0.106231
0.103427
0.0997832
0.0960677
0.106179
0.105838
0.0958074
0.0996204
0.103454
0.106919
0.1058
0.10296
0.0993121
0.0955854
0.105663
0.105644
0.0954731
0.0991349
0.102961
0.106343
0.105791
0.102468
0.0987356
0.0953535
0.105664
0.105674
0.0950905
0.0978307
0.10124
0.10387
0.104319
0.10107
0.0975028
0.0948065
0.105729
0.105682
0.0943333
0.0971734
0.100581
0.103229
0.103909
0.100588
0.0970115
0.0939798
0.105548
0.105289
0.0936283
0.0966799
0.100116
0.102794
0.103506
0.100182
0.0965771
0.0933227
0.10497
0.104678
0.0930187
0.0962233
0.0996876
0.102389
0.103093
0.0997479
0.0960926
0.092777
0.10432
0.103964
0.0924874
0.095787
0.099255
0.101981
0.102542
0.0992397
0.095568
0.0922929
0.103773
0.103688
0.0921479
0.0951484
0.0987483
0.101993
0.100165
0.0976109
0.0943411
0.0919394
0.103701
0.103723
0.0917
0.0940586
0.0974563
0.100639
0.0995738
0.0969925
0.0937512
0.0912878
0.103686
0.103574
0.091001
0.093643
0.0970788
0.10029
0.0992391
0.0966386
0.0933663
0.0907138
0.103394
0.103014
0.0904023
0.0932655
0.0967389
0.0999742
0.0989309
0.0962909
0.0930008
0.090161
0.102794
0.102757
0.0899551
0.0928242
0.0963168
0.0995202
0.0990069
0.0958632
0.0924503
0.0899192
0.10266
0.102655
0.0897016
0.0916893
0.0947773
0.0972256
0.0977051
0.094623
0.0914104
0.0893818
0.102676
0.102591
0.088973
0.0910747
0.0941642
0.0966564
0.0973303
0.094208
0.0909244
0.0886191
0.102275
0.101999
0.0882522
0.0905915
0.093753
0.0962893
0.0969789
0.093806
0.0904425
0.0878946
0.101481
0.101211
0.0875834
0.0901468
0.0933462
0.0959514
0.0965038
0.0933383
0.0899094
0.0872597
0.100886
0.100863
0.0871692
0.0895127
0.0928816
0.0960031
0.0942642
0.0918267
0.0887812
0.0870019
0.101079
0.101419
0.0868106
0.0885727
0.0917252
0.0947676
0.0937649
0.0913202
0.0883047
0.0864815
0.101427
0.101376
0.0862209
0.0882458
0.0914278
0.0944664
0.0934871
0.0910272
0.0879768
0.0859419
0.101073
0.100843
0.0856952
0.0879092
0.0911483
0.0942118
0.0932314
0.0907323
0.0876559
0.0854542
0.100579
0.100425
0.0852226
0.0875086
0.090757
0.0938199
0.0933173
0.0903098
0.0871181
0.0851788
0.100317
0.100215
0.0849802
0.0863919
0.0892837
0.0916175