/*--------------------------------*- C++ -*----------------------------------*\
| =========                 |                                                 |
| \\      /  F ield         | OpenFOAM: The Open Source CFD Toolbox           |
|  \\    /   O peration     | Version:  v2006                                 |
|   \\  /    A nd           | Website:  www.openfoam.com                      |
|    \\/     M anipulation  |                                                 |
\*---------------------------------------------------------------------------*/
FoamFile
{
    version     2.0;
    format      ascii;
    class       volScalarField;
    location    "0.14";
    object      rho;
}
// * * * * * * * * * * * * * * * * * * * * * * * * * * * * * * * * * * * * * //

dimensions      [1 -3 0 0 0 0 0];


internalField   nonuniform List<scalar> 
38932
(
1.71566
1.71565
1.71566
1.71566
1.71566
1.71567
1.71567
1.71569
1.7157
1.71572
1.71574
1.71576
1.71578
1.71581
1.71584
1.71587
1.7159
1.71594
1.71598
1.71602
1.71606
1.71611
1.71616
1.71621
1.71626
1.71632
1.71637
1.71643
1.7165
1.71656
1.71663
1.71669
1.71676
1.71684
1.71691
1.71698
1.71706
1.71714
1.71722
1.7173
1.71739
1.71747
1.71756
1.71765
1.71774
1.71783
1.71793
1.71802
1.71812
1.71821
1.71831
1.71841
1.71851
1.71861
1.71872
1.71882
1.71892
1.71903
1.71913
1.71924
1.71934
1.71945
1.71956
1.71966
1.71977
1.71988
1.71999
1.7201
1.7202
1.72031
1.72042
1.72053
1.72064
1.72074
1.72085
1.72096
1.72106
1.72117
1.72127
1.72138
1.72148
1.72158
1.72168
1.72178
1.72188
1.72198
1.72208
1.72217
1.72227
1.72236
1.72245
1.72254
1.72263
1.72272
1.7228
1.72289
1.72297
1.72305
1.72313
1.72321
1.72328
1.72335
1.72343
1.72349
1.72356
1.72363
1.72369
1.72375
1.72381
1.72386
1.72392
1.72397
1.72402
1.72406
1.72411
1.72415
1.72419
1.72423
1.72426
1.72429
1.72432
1.72435
1.72437
1.72439
1.72439
1.72439
1.72415
1.72487
1.71993
1.7292
1.70319
1.75917
1.72615
1.72303
1.72782
1.72529
1.72503
1.72379
1.72355
1.72478
1.72482
1.72467
1.7245
1.72337
1.72327
1.72432
1.72454
1.72445
1.72416
1.72324
1.72323
1.72407
1.72438
1.72433
1.72401
1.72324
1.72325
1.72396
1.72429
1.72425
1.72393
1.72328
1.72331
1.72391
1.72422
1.72421
1.7239
1.72335
1.72339
1.7239
1.7242
1.7242
1.72391
1.72344
1.72349
1.72393
1.72421
1.72422
1.72396
1.72354
1.7236
1.72399
1.72424
1.72427
1.72402
1.72366
1.72373
1.72406
1.7243
1.72434
1.72411
1.72379
1.72386
1.72416
1.72438
1.72442
1.72421
1.72394
1.72401
1.72427
1.72448
1.72453
1.72434
1.72409
1.72417
1.7244
1.72459
1.72466
1.72447
1.72425
1.72434
1.72455
1.72472
1.7248
1.72463
1.72443
1.72453
1.72471
1.72487
1.72496
1.7248
1.72463
1.72473
1.72489
1.72504
1.72513
1.72499
1.72483
1.72495
1.72509
1.72523
1.72533
1.7252
1.72506
1.72518
1.72531
1.72543
1.72554
1.72542
1.7253
1.72543
1.72554
1.72566
1.72578
1.72566
1.72556
1.72569
1.72579
1.7259
1.72603
1.72593
1.72583
1.72598
1.72606
1.72616
1.7263
1.72621
1.72613
1.72628
1.72635
1.72644
1.72659
1.7265
1.72644
1.7266
1.72666
1.72674
1.7269
1.72682
1.72677
1.72695
1.72699
1.72706
1.72723
1.72717
1.72713
1.72731
1.72735
1.7274
1.72759
1.72753
1.7275
1.7277
1.72773
1.72777
1.72797
1.72792
1.72791
1.72812
1.72813
1.72817
1.72838
1.72834
1.72834
1.72856
1.72856
1.72859
1.72882
1.72879
1.7288
1.72904
1.72902
1.72905
1.72928
1.72926
1.72928
1.72953
1.72951
1.72952
1.72977
1.72976
1.72979
1.73005
1.73002
1.73003
1.73029
1.73029
1.73033
1.7306
1.73056
1.73056
1.73083
1.73084
1.73089
1.73118
1.73113
1.73111
1.73141
1.73142
1.73148
1.73178
1.73173
1.7317
1.73201
1.73204
1.7321
1.73242
1.73236
1.73233
1.73265
1.73268
1.73275
1.73309
1.73302
1.73298
1.73332
1.73336
1.73343
1.73378
1.73371
1.73367
1.73401
1.73406
1.73413
1.73449
1.73441
1.73437
1.73473
1.73477
1.73485
1.73521
1.73513
1.73509
1.73545
1.7355
1.73557
1.73593
1.73586
1.73581
1.73617
1.73621
1.73628
1.73663
1.73657
1.73652
1.73687
1.73691
1.73697
1.7373
1.73724
1.7372
1.73753
1.73756
1.73761
1.7379
1.73787
1.73784
1.73813
1.73815
1.73818
1.73843
1.73842
1.7384
1.73865
1.73866
1.73866
1.73887
1.73887
1.73888
1.73907
1.73906
1.73904
1.73922
1.73924
1.73926
1.73951
1.73951
1.73954
1.74043
1.74024
1.74013
1.74137
1.74166
1.74206
1.74397
1.74345
1.74304
1.74474
1.74517
1.74569
1.74705
1.74659
1.74621
1.74737
1.74769
1.74806
1.74881
1.74851
1.74824
1.74889
1.74911
1.74937
1.74982
1.74958
1.74938
1.74976
1.74997
1.75021
1.75054
1.7503
1.75008
1.75034
1.75058
1.75083
1.75109
1.75084
1.75058
1.7508
1.75107
1.75133
1.75158
1.7513
1.75101
1.75123
1.75152
1.75182
1.75207
1.75175
1.75144
1.75166
1.75199
1.75232
1.75258
1.75224
1.7519
1.75215
1.75249
1.75285
1.75312
1.75276
1.75241
1.75268
1.75304
1.75341
1.7537
1.75333
1.75297
1.75327
1.75363
1.754
1.75431
1.75394
1.75359
1.75392
1.75426
1.75462
1.75494
1.7546
1.75426
1.75461
1.75493
1.75526
1.75558
1.75528
1.75497
1.75534
1.75562
1.7559
1.75622
1.75597
1.75571
1.75608
1.75631
1.75652
1.75682
1.75665
1.75645
1.75682
1.75698
1.7571
1.75737
1.75729
1.75717
1.75751
1.75758
1.75761
1.75783
1.75786
1.75783
1.75812
1.7581
1.75801
1.75814
1.7583
1.75839
1.75861
1.75845
1.7582
1.75821
1.75851
1.75875
1.7588
1.75849
1.7581
1.7578
1.75827
1.75869
1.7583
1.75776
1.75721
1.75604
1.75663
1.75731
1.7549
1.75403
1.75349
1.7463
1.74693
1.74842
1.75439
1.76092
1.7627
1.76339
1.76396
1.76448
1.76499
1.76552
1.76608
1.76667
1.76731
1.76799
1.76873
1.76949
1.77027
1.77087
1.77141
1.77191
1.77239
1.77269
1.77287
1.7731
1.77325
1.77303
1.77295
1.77297
1.77283
1.77256
1.77222
1.77171
1.77118
1.77068
1.77003
1.76925
1.76899
1.76939
1.7699
1.77045
1.77106
1.77123
1.77073
1.77017
1.76958
1.76909
1.76948
1.77004
1.77063
1.77114
1.77161
1.77204
1.77158
1.77111
1.77055
1.77
1.77057
1.77112
1.77165
1.77211
1.77254
1.77313
1.77272
1.77227
1.77174
1.7712
1.77192
1.77246
1.77296
1.7734
1.77379
1.77456
1.77419
1.77377
1.77328
1.77276
1.77376
1.77425
1.77472
1.7751
1.77544
1.77643
1.77614
1.7758
1.77538
1.77491
1.77623
1.77665
1.77702
1.77732
1.77757
1.77883
1.77863
1.77839
1.77807
1.77771
1.7793
1.77962
1.77988
1.78007
1.78021
1.7817
1.78161
1.78147
1.78127
1.781
1.78279
1.78302
1.78318
1.78326
1.78328
1.78495
1.785
1.78497
1.78486
1.78466
1.78664
1.78683
1.7869
1.78687
1.78675
1.7887
1.78892
1.78902
1.78899
1.7888
1.79124
1.79146
1.79142
1.79124
1.79091
1.79352
1.794
1.79427
1.79407
1.79412
1.79764
1.79767
1.79744
1.79725
1.79698
1.80131
1.80333
1.80399
1.80418
1.80427
1.82597
1.82443
1.81955
1.81609
1.81155
1.82501
1.82978
1.84289
1.85645
1.86332
1.87441
1.86925
1.85378
1.83942
1.8241
1.82352
1.83659
1.85099
1.86448
1.87245
1.87266
1.86379
1.85048
1.83493
1.82323
1.82052
1.83028
1.84177
1.85263
1.85847
1.87041
1.86275
1.84914
1.83521
1.82116
1.82087
1.83293
1.84474
1.85493
1.85924
1.86813
1.86167
1.85014
1.83554
1.82273
1.82095
1.8325
1.84596
1.85385
1.85697
1.87426
1.86717
1.85306
1.83719
1.82147
1.82147
1.83139
1.84457
1.85921
1.86489
1.87118
1.86646
1.85039
1.83295
1.82098
1.81933
1.82919
1.84045
1.85325
1.85786
1.8764
1.87006
1.85144
1.83488
1.81934
1.81958
1.83054
1.84068
1.85875
1.86951
1.88512
1.87266
1.84792
1.83417
1.8207
1.81853
1.82841
1.83987
1.85493
1.86667
1.88799
1.8699
1.84536
1.83289
1.82058
1.81751
1.82942
1.8461
1.85721
1.8623
1.88544
1.87393
1.85346
1.83394
1.81858
1.81861
1.83079
1.84589
1.86222
1.86764
1.88082
1.87599
1.85639
1.83468
1.81866
1.81792
1.82915
1.83925
1.86033
1.87469
1.89278
1.87553
1.8462
1.83226
1.81944
1.81626
1.82769
1.84165
1.85687
1.86776
1.89508
1.87387
1.84749
1.83329
1.81896
1.81732
1.8317
1.85029
1.86273
1.86479
1.8862
1.87677
1.85715
1.83465
1.81779
1.81667
1.82861
1.84231
1.86184
1.87064
1.8821
1.87542
1.85383
1.8322
1.81567
1.81366
1.82355
1.83234
1.85467
1.8709
1.89514
1.87478
1.84237
1.82725
1.81427
1.81156
1.82138
1.83195
1.84959
1.86497
1.89774
1.87132
1.83822
1.82596
1.81395
1.81017
1.8215
1.8358
1.85115
1.86209
1.89544
1.87053
1.84115
1.82667
1.81319
1.81051
1.82359
1.83969
1.85181
1.8582
1.89561
1.87756
1.85082
1.83094
1.81257
1.81128
1.82597
1.84469
1.85971
1.86286
1.88672
1.87785
1.8557
1.82935
1.81079
1.8104
1.82267
1.83691
1.85976
1.87197
1.88446
1.87546
1.85063
1.82663
1.80956
1.80831
1.81932
1.82903
1.8535
1.87206
1.9018
1.87778
1.84177
1.82407
1.80961
1.80734
1.81923
1.83216
1.85184
1.86843
1.90529
1.87527
1.83807
1.8243
1.80981
1.80637
1.82116
1.83921
1.85769
1.86915
1.9012
1.87521
1.84292
1.82497
1.80821
1.80424
1.82038
1.84167
1.85807
1.86297
1.89228
1.87729
1.85008
1.82283
1.80381
1.80203
1.81568
1.8325
1.85719
1.86987
1.87965
1.87175
1.84685
1.81889
1.80013
1.79928
1.81072
1.82227
1.85098
1.8736
1.90098
1.87514
1.83708
1.81482
1.79906
1.79594
1.80731
1.81811
1.84264
1.8631
1.90648
1.87032
1.82667
1.81139
1.7979
1.79338
1.80603
1.82106
1.84283
1.86138
1.90325
1.86648
1.82411
1.81015
1.79537
1.7907
1.80551
1.82233
1.84353
1.85954
1.90336
1.86725
1.82612
1.80977
1.79339
1.78828
1.80491
1.82459
1.84412
1.85705
1.89765
1.86722
1.83046
1.80909
1.79047
1.78551
1.80311
1.82418
1.84452
1.85423
1.89251
1.86966
1.83458
1.80772
1.78548
1.78033
1.79858
1.82352
1.84443
1.85361
1.88213
1.86677
1.83496
1.79755
1.77478
1.76569
1.78412
1.80684
1.85482
1.88789
1.8932
1.8622
1.80718
1.77897
1.75564
1.74239
1.75687
1.77798
1.81089
1.83298
1.74104
1.73851
1.73426
1.74194
1.74364
1.74396
1.74456
1.74462
1.74182
1.7393
1.74344
1.74348
1.7437
1.74349
1.74356
1.74357
1.74355
1.74352
1.74352
1.74349
1.74352
1.74354
1.74356
1.74358
1.74359
1.74361
1.74359
1.74357
1.74356
1.74354
1.74353
1.74356
1.74358
1.7436
1.74361
1.74363
1.74361
1.7436
1.74358
1.74356
1.74356
1.74359
1.74361
1.74363
1.74364
1.74366
1.74365
1.74363
1.74361
1.74359
1.74359
1.74362
1.74364
1.74366
1.74368
1.74371
1.74369
1.74367
1.74365
1.74362
1.74363
1.74367
1.74369
1.74371
1.74373
1.74376
1.74374
1.74372
1.7437
1.74365
1.74372
1.74375
1.74377
1.74378
1.7438
1.74384
1.74382
1.74381
1.7438
1.74377
1.74379
1.74384
1.74385
1.74386
1.74387
1.74391
1.7439
1.74388
1.74388
1.74383
1.74387
1.74392
1.74392
1.74394
1.74395
1.74399
1.74398
1.74396
1.74396
1.7439
1.74393
1.74401
1.744
1.74402
1.74404
1.74406
1.74405
1.74404
1.74405
1.74397
1.74401
1.7441
1.74408
1.7441
1.74411
1.74414
1.74414
1.74412
1.74415
1.74406
1.7441
1.74419
1.74417
1.74418
1.74418
1.74423
1.74422
1.74421
1.74423
1.74415
1.74419
1.74428
1.74425
1.74427
1.74427
1.74433
1.74432
1.7443
1.74433
1.74423
1.74428
1.74437
1.74436
1.74437
1.74439
1.74446
1.74444
1.74442
1.74442
1.74434
1.74438
1.74447
1.74447
1.74448
1.7445
1.74456
1.74454
1.74453
1.74452
1.74443
1.74448
1.74458
1.74458
1.7446
1.74463
1.74465
1.74464
1.74464
1.74464
1.74455
1.74461
1.7447
1.74469
1.7447
1.74471
1.74476
1.74476
1.74475
1.74477
1.74468
1.74474
1.74483
1.74481
1.74481
1.74481
1.74488
1.74488
1.74487
1.7449
1.74481
1.74488
1.74498
1.74495
1.74495
1.74495
1.74502
1.74502
1.74502
1.74505
1.74497
1.74503
1.74512
1.74509
1.74509
1.74509
1.74518
1.74517
1.74517
1.74519
1.74511
1.74518
1.74526
1.74524
1.74523
1.74522
1.74531
1.74531
1.74531
1.74535
1.74526
1.74534
1.74543
1.74538
1.74537
1.74536
1.74542
1.74544
1.74545
1.7455
1.74543
1.74552
1.74558
1.74554
1.74552
1.7455
1.74558
1.7456
1.74562
1.74566
1.74561
1.74569
1.74573
1.74571
1.74569
1.74568
1.74573
1.74575
1.74578
1.7458
1.74578
1.74586
1.74588
1.74586
1.74585
1.74584
1.74591
1.74593
1.74595
1.74597
1.74594
1.74611
1.74609
1.74606
1.74603
1.746
1.74611
1.74615
1.74618
1.74622
1.74625
1.74637
1.74635
1.74631
1.74627
1.74623
1.74638
1.74641
1.74644
1.74648
1.74651
1.74664
1.7466
1.74656
1.7465
1.74644
1.7466
1.74664
1.74668
1.74671
1.74675
1.74685
1.74683
1.74678
1.74674
1.74668
1.74679
1.74685
1.74691
1.74696
1.74701
1.74713
1.7471
1.74704
1.74698
1.74691
1.74706
1.74713
1.74719
1.74725
1.74731
1.74745
1.7474
1.74734
1.74728
1.74723
1.74731
1.7474
1.74749
1.74755
1.74759
1.74775
1.7477
1.74764
1.74758
1.74752
1.74761
1.7477
1.74778
1.74785
1.74789
1.74807
1.74802
1.74794
1.74785
1.74775
1.74791
1.74802
1.74812
1.74821
1.74829
1.74847
1.7484
1.74831
1.74821
1.74812
1.74821
1.74836
1.74849
1.74859
1.74866
1.74883
1.74877
1.74867
1.74857
1.74848
1.74859
1.74873
1.74885
1.74896
1.74904
1.74926
1.74917
1.74904
1.74891
1.74876
1.74899
1.74912
1.74925
1.74938
1.74948
1.7497
1.7496
1.74946
1.74928
1.74908
1.74939
1.74953
1.74968
1.74981
1.74993
1.75014
1.75003
1.74988
1.7497
1.74951
1.74969
1.7499
1.7501
1.75027
1.75042
1.75068
1.75053
1.75035
1.75015
1.74995
1.75003
1.75033
1.75059
1.75079
1.75094
1.7512
1.75104
1.75083
1.75061
1.75041
1.75052
1.7508
1.75106
1.75129
1.75146
1.75176
1.75157
1.7513
1.751
1.75069
1.75095
1.75126
1.75158
1.75188
1.7521
1.7524
1.75217
1.75185
1.75145
1.75101
1.75144
1.75177
1.75212
1.75245
1.75269
1.75298
1.75272
1.75235
1.75194
1.75151
1.7517
1.75216
1.75259
1.75299
1.75328
1.75358
1.75327
1.75284
1.7523
1.75172
1.75212
1.75258
1.75307
1.75354
1.7539
1.7542
1.75379
1.75326
1.75269
1.75212
1.75222
1.75286
1.75347
1.75404
1.75451
1.75464
1.75425
1.75367
1.75295
1.75216
1.75253
1.7532
1.75388
1.75447
1.75488
1.75515
1.75469
1.75405
1.75329
1.75247
1.75236
1.75331
1.75419
1.75489
1.75539
1.75564
1.75506
1.75429
1.7534
1.75252
1.75222
1.7533
1.75433
1.7552
1.75587
1.75608
1.75528
1.75429
1.75313
1.75197
1.75163
1.75285
1.75413
1.75527
1.7562
1.75636
1.75513
1.75375
1.75224
1.75071
1.75018
1.75151
1.7531
1.75469
1.75619
1.75573
1.75378
1.75187
1.74998
1.7484
1.74591
1.74772
1.74983
1.75209
1.75478
1.75217
1.7491
1.74675
1.74511
1.74451
1.73837
1.7403
1.74203
1.7437
1.74532
1.73031
1.7361
1.73634
1.73608
1.73694
1.72987
1.73091
1.73167
1.73166
1.72704
1.72619
1.72834
1.72785
1.72776
1.7291
1.72136
1.72198
1.72293
1.72402
1.72313
1.71745
1.71759
1.71672
1.71694
1.71834
1.7105
1.70924
1.708
1.7061
1.69436
1.68852
1.69834
1.70064
1.70228
1.70399
1.69856
1.69667
1.69498
1.69332
1.68787
1.68069
1.68697
1.68893
1.69091
1.69309
1.68703
1.68426
1.68171
1.67943
1.66258
1.65854
1.67321
1.67598
1.67846
1.68052
1.67662
1.67325
1.67053
1.6677
1.65401
1.65134
1.66293
1.66541
1.66783
1.66955
1.66836
1.6642
1.66066
1.6577
1.63996
1.64051
1.6549
1.65778
1.66109
1.66378
1.66364
1.65959
1.65606
1.65332
1.63955
1.64238
1.65281
1.65521
1.6583
1.66095
1.66155
1.6581
1.65505
1.65277
1.64606
1.64817
1.65274
1.65483
1.65755
1.65997
1.66062
1.65715
1.65377
1.65118
1.64162
1.64272
1.65138
1.65356
1.65696
1.65981
1.66101
1.65808
1.65524
1.65341
1.64871
1.65127
1.65523
1.65715
1.65952
1.66176
1.66303
1.6607
1.65856
1.65668
1.65373
1.65543
1.65781
1.65953
1.66133
1.66316
1.66399
1.66221
1.66049
1.65884
1.65676
1.65696
1.65964
1.66128
1.66297
1.66473
1.66561
1.66388
1.66204
1.66045
1.65734
1.65913
1.66159
1.66312
1.66473
1.66645
1.66688
1.6656
1.66432
1.66305
1.66138
1.66295
1.66435
1.66555
1.66683
1.66819
1.66885
1.66763
1.66656
1.66551
1.66437
1.66561
1.66651
1.66742
1.66829
1.6692
1.67034
1.66926
1.66829
1.6674
1.66658
1.66743
1.6682
1.669
1.66979
1.67074
1.671
1.6703
1.66965
1.66897
1.66836
1.66904
1.66966
1.67035
1.67112
1.67198
1.67223
1.67161
1.67095
1.67025
1.66929
1.66999
1.67091
1.6716
1.67239
1.67327
1.67363
1.67289
1.67227
1.67169
1.67102
1.67193
1.67247
1.67298
1.67346
1.674
1.67509
1.67436
1.67373
1.67321
1.67273
1.67344
1.67388
1.67433
1.6748
1.67536
1.67567
1.67526
1.6749
1.67449
1.67407
1.67478
1.67512
1.67554
1.67606
1.67667
1.67686
1.67641
1.67604
1.67569
1.67536
1.67599
1.67625
1.67656
1.67684
1.67715
1.67807
1.67755
1.67711
1.67677
1.67649
1.67703
1.67727
1.67756
1.67786
1.67823
1.67848
1.67823
1.67801
1.67776
1.67754
1.67805
1.67826
1.67853
1.6789
1.67935
1.67947
1.67918
1.67893
1.67871
1.67853
1.67894
1.67913
1.67934
1.67952
1.67972
1.68053
1.68015
1.67983
1.6796
1.67943
1.67984
1.68
1.6802
1.68039
1.68064
1.68087
1.68071
1.68057
1.68041
1.68028
1.68065
1.6808
1.68101
1.68131
1.68165
1.68177
1.68154
1.68134
1.68117
1.68103
1.68141
1.68153
1.68166
1.68181
1.68204
1.68229
1.68216
1.68204
1.68191
1.68179
1.68216
1.68228
1.68244
1.68267
1.68294
1.683
1.68285
1.68273
1.68261
1.68248
1.68287
1.68296
1.68305
1.68312
1.6832
1.68385
1.68361
1.68341
1.6833
1.68322
1.68352
1.6836
1.68368
1.68378
1.6839
1.68408
1.68402
1.68397
1.68389
1.68381
1.68416
1.68422
1.68432
1.68449
1.6847
1.68475
1.68465
1.68458
1.68451
1.68444
1.68475
1.68479
1.68485
1.68488
1.68492
1.68551
1.68532
1.68517
1.68508
1.68502
1.6853
1.68535
1.68541
1.68546
1.68555
1.68571
1.68569
1.68567
1.68562
1.68559
1.68587
1.6859
1.68597
1.68611
1.68627
1.6863
1.68624
1.68619
1.68615
1.68613
1.68636
1.68639
1.68642
1.68644
1.68646
1.68699
1.68684
1.68672
1.68665
1.68664
1.6869
1.6869
1.68693
1.68696
1.68701
1.68716
1.68716
1.68716
1.68713
1.68717
1.68738
1.68736
1.68742
1.68753
1.68766
1.68768
1.68764
1.68762
1.68757
1.68761
1.68785
1.68778
1.68783
1.68783
1.68782
1.6883
1.68818
1.68808
1.688
1.68809
1.68833
1.68821
1.68828
1.68829
1.68831
1.68845
1.68847
1.6885
1.68842
1.68859
1.6888
1.68861
1.68875
1.68881
1.68891
1.68892
1.6889
1.68893
1.68881
1.68901
1.68926
1.68899
1.68914
1.68908
1.68905
1.68949
1.68941
1.68938
1.68919
1.68951
1.68972
1.68939
1.68959
1.6895
1.6895
1.68964
1.68967
1.68975
1.68959
1.68993
1.69012
1.68986
1.68994
1.68999
1.69005
1.69007
1.69008
1.69015
1.68982
1.69074
1.69014
1.68997
1.69022
1.69024
1.69017
1.69052
1.69044
1.69038
1.68863
1.69358
1.69006
1.68922
1.69029
1.69052
1.69057
1.6906
1.69056
1.69042
1.68864
1.69659
1.69267
1.68997
1.69061
1.69084
1.69091
1.69103
1.69105
1.69098
1.69077
1.69768
1.69409
1.69135
1.6914
1.69148
1.69148
1.69168
1.69169
1.69177
1.69192
1.69484
1.69422
1.69223
1.69215
1.69195
1.69197
1.69221
1.69228
1.6925
1.69256
1.69419
1.6941
1.6929
1.69279
1.69273
1.69276
1.69276
1.69291
1.69306
1.69318
1.69407
1.69409
1.69344
1.69334
1.6933
1.69332
1.69342
1.69348
1.69359
1.69369
1.6942
1.69433
1.69396
1.69386
1.69373
1.69363
1.69421
1.69418
1.69418
1.69426
1.69458
1.69474
1.6945
1.69441
1.69432
1.69426
1.69443
1.69452
1.69462
1.69471
1.6949
1.6951
1.69496
1.69491
1.69493
1.69497
1.69501
1.69506
1.69512
1.69519
1.69533
1.69552
1.6954
1.69533
1.69525
1.69516
1.69568
1.69563
1.69561
1.69564
1.69574
1.69594
1.69585
1.6958
1.69575
1.69571
1.69584
1.69593
1.69601
1.69606
1.69614
1.69636
1.6963
1.69628
1.6963
1.69634
1.69636
1.69641
1.69647
1.69653
1.69663
1.69681
1.69672
1.69666
1.69657
1.69647
1.69693
1.6969
1.69688
1.6969
1.69695
1.69712
1.69708
1.69704
1.69699
1.69694
1.69703
1.69713
1.69721
1.69726
1.6973
1.69758
1.69748
1.69745
1.69746
1.69748
1.69748
1.69754
1.69761
1.69765
1.69773
1.69783
1.6978
1.69775
1.69766
1.69756
1.69796
1.69796
1.69796
1.69799
1.69805
1.69821
1.69816
1.69811
1.69803
1.6979
1.69828
1.69828
1.69828
1.69832
1.69836
1.6985
1.69846
1.69841
1.69834
1.69829
1.69836
1.69847
1.69857
1.69862
1.69867
1.69893
1.69882
1.69879
1.69877
1.69876
1.69874
1.69882
1.6989
1.69896
1.69905
1.69915
1.69908
1.69902
1.69892
1.6988
1.69914
1.69915
1.69917
1.6992
1.69923
1.69939
1.69934
1.69929
1.6992
1.69906
1.69939
1.69941
1.69943
1.69948
1.69953
1.69965
1.69959
1.69952
1.69944
1.69936
1.69941
1.69952
1.69963
1.6997
1.69976
1.69991
1.69983
1.69979
1.69977
1.69974
1.6997
1.69979
1.69987
1.69992
1.69996
1.70008
1.70003
1.69996
1.69986
1.69974
1.70005
1.70008
1.70011
1.70015
1.7002
1.70034
1.70028
1.70022
1.70012
1.69996
1.70026
1.70029
1.70033
1.70039
1.70045
1.70055
1.70046
1.70039
1.7003
1.70021
1.70023
1.70035
1.70046
1.70053
1.70059
1.7007
1.70063
1.70059
1.70056
1.70052
1.70047
1.70057
1.70065
1.70071
1.70078
1.70084
1.70079
1.70072
1.70061
1.70049
1.70075
1.7008
1.70083
1.70088
1.70093
1.70105
1.70098
1.70091
1.70081
1.70066
1.70091
1.70096
1.701
1.70105
1.70109
1.7012
1.70111
1.70104
1.70095
1.70085
1.70085
1.70098
1.70109
1.70116
1.70121
1.7013
1.70125
1.7012
1.70115
1.7011
1.701
1.70116
1.70127
1.70134
1.70142
1.70151
1.70141
1.70134
1.70128
1.70123
1.70115
1.70126
1.70135
1.70143
1.7015
1.7015
1.70145
1.70137
1.70126
1.70113
1.70136
1.70141
1.70146
1.70151
1.70155
1.70166
1.70159
1.70152
1.70142
1.70125
1.70147
1.70153
1.7016
1.70167
1.70178
1.70178
1.70168
1.7016
1.70149
1.70138
1.70135
1.70148
1.70159
1.70166
1.70168
1.70176
1.70171
1.70166
1.70161
1.70155
1.70144
1.7016
1.7017
1.70176
1.70182
1.70188
1.7018
1.70174
1.70169
1.70163
1.70154
1.70164
1.70173
1.7018
1.70183
1.70183
1.7018
1.70174
1.70164
1.70151
1.70171
1.70178
1.70183
1.70188
1.70193
1.70208
1.70198
1.7019
1.70178
1.70161
1.70179
1.70187
1.70194
1.70202
1.70214
1.70208
1.70199
1.70191
1.7018
1.70168
1.70162
1.70176
1.70187
1.70195
1.70202
1.70198
1.70194
1.7019
1.70185
1.70178
1.70166
1.70181
1.7019
1.70195
1.70197
1.70199
1.70195
1.70191
1.70186
1.7018
1.70169
1.70179
1.70187
1.70194
1.70198
1.70199
1.70193
1.70186
1.70176
1.70163
1.7018
1.70186
1.70192
1.70196
1.70201
1.70198
1.70198
1.70194
1.70184
1.70168
1.70183
1.7019
1.70197
1.70205
1.70215
1.70213
1.70205
1.70197
1.70185
1.7017
1.70181
1.70189
1.70195
1.70201
1.70209
1.70197
1.70193
1.70187
1.70178
1.70168
1.7016
1.70172
1.70183
1.7019
1.70193
1.70193
1.7019
1.70187
1.70181
1.70174
1.70162
1.70178
1.70188
1.70194
1.702
1.70195
1.70192
1.70187
1.70181
1.70174
1.70162
1.70172
1.70181
1.70188
1.70194
1.7019
1.70184
1.70177
1.70166
1.70153
1.70166
1.70173
1.70179
1.70182
1.70184
1.70188
1.70183
1.70177
1.70168
1.70153
1.70163
1.7017
1.70175
1.7018
1.7018
1.7018
1.70176
1.70171
1.70162
1.70148
1.70156
1.70163
1.70168
1.70172
1.70175
1.70167
1.70165
1.7016
1.70151
1.70142
1.70131
1.70144
1.70154
1.7016
1.70163
1.70158
1.70158
1.70155
1.70151
1.70143
1.70131
1.70146
1.70154
1.70157
1.70156
1.70169
1.70162
1.70156
1.70149
1.70141
1.70127
1.70142
1.70153
1.7016
1.70165
1.70161
1.70153
1.70148
1.70141
1.70134
1.70117
1.70127
1.70137
1.70143
1.70146
1.70137
1.70134
1.70128
1.70118
1.70105
1.70113
1.70121
1.70126
1.70127
1.70127
1.70122
1.70124
1.70121
1.70114
1.70099
1.70106
1.70113
1.70119
1.70123
1.70127
1.70119
1.70118
1.70113
1.70104
1.70091
1.70096
1.70103
1.70109
1.70112
1.70115
1.70106
1.70103
1.70098
1.70089
1.70079
1.70066
1.70078
1.70088
1.70093
1.70092
1.70087
1.70088
1.70086
1.70082
1.70074
1.7006
1.70075
1.70082
1.70085
1.70082
1.70086
1.70082
1.70078
1.70072
1.70065
1.70049
1.70061
1.7007
1.70074
1.70075
1.70065
1.70065
1.70062
1.70058
1.70051
1.70032
1.70041
1.70049
1.70053
1.70053
1.7004
1.70043
1.70039
1.7003
1.70018
1.70025
1.70033
1.70036
1.70038
1.70036
1.70031
1.70034
1.70032
1.70025
1.70012
1.70017
1.70024
1.70029
1.70033
1.70037
1.70027
1.70027
1.70023
1.70014
1.70001
1.70003
1.7001
1.70016
1.70019
1.70017
1.70012
1.70011
1.70006
1.69997
1.69983
1.69984
1.69992
1.69997
1.7
1.70004
1.69988
1.69985
1.6998
1.69972
1.69962
1.69945
1.69957
1.69966
1.69969
1.69964
1.69956
1.6996
1.69959
1.69956
1.69949
1.69934
1.69947
1.69953
1.69954
1.69949
1.69949
1.69949
1.69946
1.69942
1.69936
1.69918
1.6993
1.69937
1.69939
1.69933
1.69923
1.6993
1.69929
1.69925
1.69918
1.699
1.69912
1.69921
1.69924
1.69923
1.69917
1.69915
1.69913
1.69908
1.699
1.69878
1.69888
1.69897
1.69902
1.699
1.69887
1.69888
1.69884
1.69874
1.69861
1.69864
1.69872
1.69876
1.69878
1.69879
1.69863
1.69867
1.69867
1.6986
1.69848
1.69846
1.69852
1.69855
1.69855
1.69849
1.69831
1.69843
1.69843
1.69837
1.69826
1.69824
1.6983
1.69834
1.69836
1.69836
1.6982
1.69824
1.69822
1.69815
1.69804
1.69802
1.69807
1.69811
1.69811
1.69804
1.69793
1.69795
1.69792
1.69785
1.69777
1.69758
1.69769
1.69777
1.69778
1.69773
1.69758
1.69767
1.69769
1.69767
1.69761
1.69745
1.69757
1.69763
1.69764
1.69763
1.69744
1.69753
1.69753
1.6975
1.69744
1.69724
1.69735
1.69742
1.69744
1.69738
1.69726
1.69731
1.69731
1.69726
1.69721
1.69698
1.69709
1.69716
1.69717
1.69712
1.69694
1.697
1.69701
1.69698
1.69693
1.69665
1.69672
1.69677
1.69676
1.69666
1.69651
1.69661
1.69661
1.69654
1.69644
1.69646
1.69652
1.69653
1.69652
1.69646
1.6963
1.69641
1.69644
1.6964
1.6963
1.69627
1.69632
1.69633
1.6963
1.69616
1.69616
1.69623
1.69623
1.69618
1.69607
1.69604
1.69609
1.69612
1.6961
1.69596
1.69606
1.69604
1.69601
1.69594
1.69582
1.69577
1.69583
1.69588
1.6959
1.69587
1.69554
1.69566
1.69568
1.69562
1.69552
1.69544
1.69549
1.6955
1.69547
1.69537
1.69515
1.69525
1.69525
1.6952
1.69512
1.69488
1.69499
1.69505
1.69504
1.69492
1.69471
1.69486
1.69491
1.69492
1.69487
1.69468
1.69477
1.6948
1.69478
1.69467
1.69453
1.69465
1.69468
1.69467
1.69463
1.6944
1.69449
1.69452
1.69448
1.69427
1.69424
1.69437
1.69439
1.69438
1.69434
1.69409
1.69419
1.69424
1.69423
1.69413
1.69391
1.69406
1.69409
1.69407
1.69403
1.69371
1.69378
1.69384
1.69383
1.69375
1.69346
1.6936
1.69362
1.69357
1.69347
1.69345
1.69349
1.69349
1.69344
1.6933
1.69324
1.69333
1.69337
1.69334
1.69325
1.69318
1.69321
1.69322
1.69316
1.69297
1.69278
1.69299
1.69304
1.69302
1.69294
1.69285
1.69287
1.69288
1.69283
1.69271
1.6924
1.69263
1.69269
1.69267
1.69259
1.6925
1.69252
1.69252
1.69248
1.6923
1.6921
1.69229
1.69233
1.69231
1.69223
1.69215
1.69217
1.69217
1.69212
1.69194
1.69171
1.69185
1.69189
1.69186
1.6918
1.69153
1.69162
1.69165
1.69162
1.6915
1.69119
1.69141
1.6915
1.69153
1.6915
1.6913
1.69137
1.69139
1.69134
1.69121
1.69103
1.69119
1.69125
1.69125
1.69123
1.69097
1.69105
1.69107
1.691
1.69079
1.69054
1.69079
1.69087
1.69089
1.69087
1.69059
1.69066
1.69068
1.69061
1.69037
1.69026
1.69043
1.69049
1.69049
1.69048
1.69019
1.69026
1.69027
1.69019
1.68994
1.68965
1.68994
1.69004
1.69006
1.69006
1.68976
1.68982
1.68982
1.68975
1.68952
1.68929
1.68955
1.68963
1.68966
1.68964
1.68927
1.68931
1.68932
1.68926
1.68903
1.68882
1.68902
1.68907
1.68905
1.68897
1.68892
1.68894
1.68891
1.68881
1.68858
1.68843
1.68865
1.68875
1.68875
1.68869
1.68859
1.6886
1.68857
1.68847
1.68822
1.688
1.68827
1.68836
1.68837
1.68831
1.68818
1.68818
1.68815
1.68805
1.68778
1.68759
1.68784
1.68793
1.68793
1.68788
1.68773
1.68774
1.68771
1.68761
1.68732
1.68712
1.68738
1.68746
1.68747
1.68741
1.68727
1.68727
1.68723
1.68711
1.68679
1.68652
1.6868
1.68689
1.68689
1.68686
1.68654
1.68661
1.68662
1.68653
1.68628
1.68609
1.68634
1.68644
1.68649
1.68648
1.68623
1.68629
1.68628
1.68617
1.68596
1.68559
1.68591
1.68605
1.6861
1.6861
1.68579
1.68584
1.68581
1.68568
1.68531
1.68511
1.68546
1.68559
1.68564
1.68565
1.68534
1.68538
1.68536
1.68525
1.6849
1.68479
1.68505
1.68515
1.68518
1.68518
1.68485
1.68489
1.68487
1.68475
1.68443
1.68403
1.68445
1.6846
1.68467
1.68468
1.68425
1.68427
1.68424
1.68412
1.68378
1.68355
1.68385
1.68396
1.68397
1.68391
1.68383
1.68383
1.68378
1.68365
1.68333
1.68311
1.68345
1.68359
1.68362
1.68357
1.68343
1.68343
1.68338
1.68326
1.683
1.68254
1.68295
1.68312
1.68315
1.68311
1.68293
1.6829
1.68283
1.68266
1.68225
1.68202
1.68241
1.68257
1.68261
1.68259
1.68239
1.68236
1.6823
1.68216
1.68176
1.68147
1.68185
1.682
1.68205
1.68203
1.68183
1.6818
1.68171
1.68153
1.6811
1.68069
1.68112
1.68129
1.68135
1.68136
1.68097
1.681
1.68096
1.6808
1.68045
1.68008
1.68053
1.68073
1.68083
1.68087
1.68059
1.68062
1.68056
1.6804
1.68006
1.67983
1.68021
1.68036
1.68043
1.68046
1.68013
1.68015
1.6801
1.67993
1.67951
1.67916
1.67961
1.67981
1.67989
1.67993
1.67956
1.67958
1.67951
1.67933
1.67888
1.67855
1.67903
1.67922
1.6793
1.67934
1.67896
1.67896
1.67889
1.67872
1.6783
1.67783
1.67835
1.67857
1.67868
1.67872
1.67822
1.6782
1.67811
1.67789
1.67734
1.67723
1.67762
1.67779
1.67783
1.67781
1.67767
1.67765
1.67755
1.67736
1.67692
1.67663
1.67708
1.6773
1.67738
1.67736
1.67716
1.67711
1.677
1.67676
1.67628
1.67578
1.67642
1.67668
1.67679
1.6768
1.67657
1.67651
1.6764
1.6762
1.67572
1.6754
1.6759
1.67611
1.67619
1.6762
1.67595
1.67589
1.67578
1.67553
1.67491
1.67473
1.67524
1.67544
1.67553
1.67555
1.6753
1.67525
1.67513
1.67487
1.67424
1.67395
1.67445
1.67466
1.67475
1.67477
1.67431
1.67433
1.67427
1.67404
1.67355
1.67335
1.67378
1.674
1.67412
1.67416
1.67382
1.67383
1.67374
1.67349
1.67304
1.67248
1.67312
1.67341
1.67354
1.67359
1.67321
1.67319
1.67308
1.67282
1.67228
1.67178
1.67244
1.67272
1.67285
1.67292
1.67252
1.67248
1.67235
1.67208
1.67151
1.67097
1.67168
1.67198
1.67212
1.6722
1.67178
1.67172
1.67157
1.67128
1.67058
1.67019
1.67092
1.67123
1.6714
1.67149
1.67095
1.67088
1.67075
1.67048
1.66983
1.66956
1.67012
1.67036
1.67046
1.67047
1.6703
1.67024
1.67008
1.6698
1.66919
1.66893
1.66954
1.66983
1.66995
1.66996
1.66974
1.66966
1.66952
1.66922
1.6686
1.66821
1.66889
1.66919
1.66932
1.66935
1.66905
1.66897
1.66882
1.66852
1.66786
1.66745
1.66814
1.66843
1.66857
1.66862
1.66827
1.66818
1.66804
1.66773
1.66705
1.66653
1.66727
1.66758
1.66773
1.6678
1.66744
1.66733
1.66714
1.66676
1.66595
1.6655
1.66625
1.66657
1.66673
1.66683
1.66628
1.66624
1.6661
1.66577
1.66501
1.66473
1.66542
1.66576
1.66596
1.66605
1.66568
1.66563
1.66544
1.66508
1.66432
1.66396
1.66475
1.66511
1.6653
1.6654
1.66499
1.66493
1.66476
1.66444
1.66382
1.66316
1.66401
1.66437
1.66454
1.66465
1.66417
1.66408
1.6639
1.66353
1.66271
1.66226
1.66314
1.66351
1.66371
1.66381
1.66318
1.6631
1.66294
1.6626
1.66179
1.66132
1.66208
1.66243
1.66257
1.6626
1.66233
1.66225
1.66205
1.66167
1.66093
1.66059
1.66133
1.66171
1.66189
1.66193
1.66159
1.66148
1.66129
1.66089
1.66008
1.65963
1.66043
1.66082
1.66102
1.66111
1.66066
1.66053
1.66033
1.65991
1.65899
1.65848
1.65934
1.65976
1.65998
1.66013
1.65965
1.65949
1.65923
1.65875
1.65774
1.65685
1.65797
1.65849
1.65877
1.65895
1.6583
1.65819
1.65794
1.65747
1.65653
1.65628
1.6572
1.65762
1.6579
1.65804
1.65766
1.65758
1.65735
1.65694
1.65605
1.65564
1.6566
1.65702
1.65725
1.65737
1.65693
1.65683
1.65662
1.6562
1.65529
1.65477
1.65576
1.65619
1.65641
1.65654
1.65601
1.6559
1.6557
1.65528
1.65436
1.65372
1.65476
1.65523
1.65546
1.65558
1.65484
1.65472
1.65452
1.65409
1.65308
1.65245
1.65343
1.65388
1.65408
1.65414
1.65374
1.65362
1.65336
1.65287
1.65192
1.65139
1.65235
1.65288
1.65315
1.65326
1.65278
1.65261
1.65232
1.65176
1.65068
1.64986
1.65108
1.6517
1.65204
1.65226
1.65171
1.65148
1.65113
1.65052
1.64914
1.64885
1.65007
1.65061
1.65094
1.65118
1.65072
1.65052
1.65018
1.64965
1.6484
1.64784
1.64902
1.64954
1.64985
1.65004
1.64935
1.64926
1.64901
1.64856
1.64754
1.64712
1.64813
1.6486
1.64888
1.64901
1.64856
1.64846
1.64818
1.64764
1.64661
1.64582
1.64711
1.64768
1.64797
1.64813
1.64758
1.64744
1.64716
1.64663
1.6456
1.64489
1.64607
1.64661
1.64688
1.64705
1.64641
1.64622
1.64592
1.64534
1.64415
1.64343
1.64467
1.64528
1.64561
1.64581
1.64496
1.64474
1.64442
1.6438
1.64232
1.64173
1.64304
1.64364
1.64396
1.64411
1.64361
1.64341
1.64306
1.64244
1.64114
1.64063
1.64188
1.64252
1.64289
1.64309
1.64254
1.64231
1.64193
1.64121