/*--------------------------------*- C++ -*----------------------------------*\
| =========                 |                                                 |
| \\      /  F ield         | OpenFOAM: The Open Source CFD Toolbox           |
|  \\    /   O peration     | Version:  v2006                                 |
|   \\  /    A nd           | Website:  www.openfoam.com                      |
|    \\/     M anipulation  |                                                 |
\*---------------------------------------------------------------------------*/
FoamFile
{
    version     2.0;
    format      ascii;
    class       volScalarField;
    location    "0.14";
    object      turbulenceProperties:I;
}
// * * * * * * * * * * * * * * * * * * * * * * * * * * * * * * * * * * * * * //

dimensions      [0 0 0 0 0 0 0];


internalField   nonuniform List<scalar> 
38932
(
0.149717
0.149711
0.149908
0.14991
0.149909
0.149911
0.149909
0.14991
0.149909
0.14991
0.14991
0.14991
0.14991
0.14991
0.149911
0.149911
0.149911
0.149911
0.149912
0.149912
0.149912
0.149913
0.149913
0.149913
0.149914
0.149914
0.149915
0.149915
0.149916
0.149916
0.149917
0.149917
0.149918
0.149918
0.149919
0.149919
0.14992
0.14992
0.149921
0.149921
0.149922
0.149923
0.149923
0.149924
0.149924
0.149925
0.149926
0.149926
0.149927
0.149928
0.149928
0.149929
0.149929
0.14993
0.149931
0.149931
0.149932
0.149932
0.149933
0.149933
0.149934
0.149934
0.149935
0.149935
0.149936
0.149936
0.149937
0.149937
0.149937
0.149938
0.149938
0.149938
0.149938
0.149938
0.149939
0.149939
0.149939
0.149939
0.149939
0.149939
0.149939
0.149939
0.149939
0.149938
0.149938
0.149938
0.149938
0.149937
0.149937
0.149937
0.149936
0.149936
0.149936
0.149935
0.149935
0.149934
0.149934
0.149933
0.149932
0.149932
0.149931
0.149931
0.14993
0.149929
0.149929
0.149928
0.149927
0.149927
0.149926
0.149925
0.149925
0.149924
0.149924
0.149923
0.149922
0.149922
0.149922
0.149921
0.149921
0.149922
0.149924
0.149927
0.149936
0.149953
0.149989
0.150112
0.150214
0.151558
0.151343
0.159508
0.163448
0.172439
0.131123
0.173882
0.16068
0.157808
0.159711
0.131598
0.131472
0.148352
0.152842
0.147768
0.140049
0.129237
0.126779
0.133446
0.142982
0.138824
0.12844
0.124598
0.122707
0.124421
0.135289
0.132293
0.121356
0.121146
0.119888
0.11899
0.129755
0.127616
0.117154
0.118893
0.118119
0.115724
0.125806
0.124261
0.114594
0.117515
0.117048
0.113692
0.12293
0.121776
0.112964
0.116693
0.116427
0.112371
0.12077
0.119886
0.11188
0.116233
0.116094
0.11147
0.119104
0.118408
0.111125
0.115999
0.11594
0.110832
0.117786
0.117228
0.110583
0.11591
0.115904
0.110371
0.116727
0.116277
0.110193
0.115918
0.115949
0.110045
0.115873
0.115511
0.109924
0.115997
0.116058
0.10983
0.115189
0.114903
0.109762
0.116133
0.116222
0.109717
0.114653
0.114436
0.109697
0.116323
0.116436
0.109699
0.114252
0.1141
0.109726
0.116562
0.116701
0.109775
0.113979
0.113889
0.109848
0.116853
0.117018
0.109945
0.113829
0.113799
0.110064
0.117196
0.117388
0.110208
0.113799
0.113829
0.110376
0.117593
0.117813
0.110569
0.11389
0.113981
0.110786
0.118048
0.118299
0.11103
0.114104
0.114258
0.1113
0.118566
0.118849
0.111598
0.114445
0.114666
0.111925
0.119151
0.119471
0.112281
0.114922
0.115214
0.112669
0.119811
0.120173
0.113091
0.115544
0.115914
0.113547
0.120557
0.120966
0.114041
0.116326
0.116782
0.114574
0.121402
0.121865
0.115149
0.117285
0.117839
0.11577
0.12236
0.122888
0.116439
0.118445
0.119108
0.117159
0.123451
0.124054
0.117936
0.119832
0.120621
0.118772
0.124699
0.125389
0.119674
0.121481
0.122416
0.120646
0.126129
0.126924
0.121694
0.123433
0.124538
0.122825
0.127778
0.128696
0.124047
0.125741
0.127048
0.125369
0.129687
0.130757
0.1268
0.128472
0.130024
0.128352
0.131917
0.133176
0.13004
0.131717
0.133569
0.131879
0.134548
0.136048
0.133889
0.135599
0.137827
0.136091
0.137695
0.139509
0.138512
0.140282
0.142991
0.14118
0.141516
0.143745
0.144134
0.145991
0.149322
0.147413
0.146231
0.149018
0.15107
0.153035
0.157188
0.155163
0.152157
0.155713
0.159771
0.161855
0.167121
0.164982
0.159768
0.164426
0.170915
0.173098
0.179921
0.177715
0.169821
0.176129
0.185571
0.187766
0.196849
0.194723
0.183579
0.192485
0.205489
0.207456
0.219957
0.218289
0.20327
0.216537
0.233703
0.234849
0.252795
0.25252
0.233144
0.25438
0.275879
0.274731
0.301973
0.305448
0.282232
0.319935
0.343765
0.33645
0.381003
0.394755
0.372951
0.451562
0.465112
0.440224
0.521653
0.566789
0.577203
0.80278
0.723453
0.638814
0.819403
0.992014
1
1
1
1
1
1
1
1
1
1
1
1
1
0.872995
1
1
1
1
0.713938
0.603206
0.966379
1
0.993106
0.778151
0.519013
0.45131
0.639738
0.788542
0.638506
0.530302
0.394726
0.3479
0.441936
0.523638
0.435088
0.370877
0.309772
0.28508
0.31731
0.369269
0.325031
0.284222
0.270011
0.258366
0.2637
0.296885
0.278534
0.24983
0.249633
0.241904
0.239408
0.265825
0.256876
0.232353
0.235687
0.23055
0.227426
0.250815
0.246983
0.224212
0.226541
0.223489
0.222129
0.244585
0.243517
0.221176
0.221375
0.219949
0.221103
0.24353
0.244482
0.221798
0.219408
0.219808
0.223417
0.246488
0.249582
0.226117
0.220985
0.2229
0.229388
0.253378
0.258171
0.233654
0.22573
0.229364
0.238718
0.263854
0.27051
0.244716
0.233897
0.239367
0.25167
0.278198
0.287024
0.259687
0.245829
0.253433
0.268895
0.297103
0.308617
0.279442
0.262291
0.272593
0.291569
0.321803
0.336927
0.305557
0.284621
0.298733
0.321806
0.354433
0.374824
0.340852
0.315376
0.335438
0.363557
0.398925
0.427883
0.391084
0.359873
0.390879
0.42563
0.463664
0.509188
0.470437
0.431484
0.490903
0.53282
0.570195
0.654978
0.622755
0.579444
0.748191
0.774967
0.784143
0.996397
1
1
1
1
1
1
1
1
1
1
1
1
1
0.786784
0.606264
0.51652
0.463192
0.433198
0.417794
0.412895
0.417796
0.432646
0.458168
0.495777
0.554699
0.635686
0.749192
0.844446
0.95248
1
1
1
1
1
1
1
1
1
1
1
1
1
1
1
1
1
1
1
1
1
1
1
1
1
1
1
1
1
1
1
1
1
1
1
1
1
1
1
1
1
1
1
1
1
1
1
1
1
1
1
1
1
1
1
1
1
1
1
1
1
1
1
1
1
1
1
1
1
1
1
1
1
1
1
1
1
1
1
1
1
1
1
1
1
1
1
1
1
1
1
1
1
1
1
1
1
1
1
1
1
1
1
1
1
1
1
1
1
1
1
1
1
1
1
1
1
1
1
1
1
1
1
1
1
1
1
1
1
1
1
1
1
1
1
1
1
1
1
1
1
1
1
1
1
1
1
1
1
1
1
1
1
1
1
1
1
1
1
1
1
1
1
1
1
1
1
1
1
1
1
1
1
1
0.976797
1
1
0.970509
1
1
1
1
1
1
1
1
1
1
1
1
0.999549
0.936624
1
1
1
1
1
1
1
1
0.932637
0.882723
0.939397
1
0.907492
1
1
0.891181
1
0.959532
0.876655
0.817682
0.891373
1
1
1
1
1
1
0.927878
0.81797
0.759738
0.801069
1
0.899473
1
1
1
1
0.887533
0.781369
0.738049
0.799606
0.959493
1
1
1
1
1
0.826409
0.73761
0.705597
0.763311
0.859359
0.819129
1
1
0.823167
1
0.768763
0.699833
0.664093
0.715733
0.870716
1
1
1
1
0.953543
0.745407
0.667558
0.627792
0.661785
0.796323
0.83677
1
1
0.811351
0.890514
0.715623
0.64449
0.61962
0.665421
0.772432
0.901997
1
1
1
0.801961
0.669579
0.615458
0.596134
0.633573
0.715636
0.692968
1
1
0.831152
0.88325
0.656339
0.597777
0.57099
0.613993
0.704257
0.888682
1
0.963233
0.720525
0.795996
0.626099
0.575667
0.554548
0.591843
0.701688
0.835107
1
1
0.925319
0.748008
0.614823
0.559039
0.535436
0.566518
0.660456
0.749476
1
1
0.902144
0.702157
0.584953
0.540293
0.51853
0.545164
0.616815
0.721473
1
0.918473
0.659411
0.70158
0.578116
0.531755
0.518066
0.551132
0.626703
0.709175
1
1
0.777494
0.644789
0.553645
0.514872
0.50156
0.529654
0.592253
0.615497
0.941964
1
0.774984
0.715833
0.554035
0.505209
0.485497
0.514711
0.570811
0.683985
1
0.847075
0.630934
0.640871
0.525895
0.492451
0.476424
0.499755
0.570478
0.651644
0.987724
1
0.714653
0.587302
0.513628
0.47919
0.463754
0.48333
0.547682
0.604497
0.837051
0.92395
0.647829
0.614308
0.511266
0.475542
0.463145
0.487611
0.547015
0.630699
1
0.893427
0.601752
0.555735
0.4909
0.462787
0.454085
0.477802
0.536713
0.550419
0.820287
1
0.728346
0.618359
0.501988
0.459349
0.44147
0.463042
0.503356
0.568719
0.935311
0.743028
0.569089
0.604053
0.482461
0.447661
0.433466
0.452266
0.496123
0.567221
1
0.740499
0.549261
0.545441
0.463363
0.438969
0.425356
0.442171
0.486231
0.556992
0.911847
0.80212
0.56438
0.508824
0.450964
0.428466
0.414528
0.430256
0.476569
0.535385
0.794563
0.95016
0.553491
0.482494
0.436741
0.416392
0.404645
0.415528
0.45242
0.511675
0.785156
0.775161
0.524099
0.466369
0.417486
0.402084
0.385324
0.392814
0.427015
0.471747
0.670086
0.628228
0.479022
0.496787
0.413294
0.392805
0.386403
0.401443
0.453018
0.4619
0.675254
0.711634
0.533912
0.46207
0.389263
0.376872
0.355663
0.358651
0.406208
0.428889
0.589968
0.631245
0.335014
0.304061
0.315282
0.327439
0.330319
0.309148
0.292781
0.304214
0.480736
0.38877
0.302731
0.313789
0.336795
0.359307
0.36905
0.346313
0.322407
0.299524
0.333021
0.305377
0.304666
0.333295
0.357918
0.380823
0.390501
0.367426
0.341986
0.31064
0.292122
0.284983
0.316158
0.349608
0.375942
0.399412
0.407463
0.383517
0.356194
0.320342
0.280003
0.277107
0.324785
0.362217
0.3904
0.414744
0.420825
0.396534
0.367794
0.329153
0.275526
0.274883
0.333835
0.373784
0.403367
0.428378
0.435783
0.409855
0.379223
0.337567
0.274471
0.275175
0.341548
0.38505
0.416829
0.443895
0.452383
0.424193
0.391263
0.346573
0.27781
0.284439
0.352848
0.398512
0.431896
0.460182
0.46896
0.440966
0.407572
0.362045
0.291136
0.296255
0.371125
0.417388
0.451437
0.480179
0.491427
0.461867
0.426988
0.379426
0.30029
0.304159
0.388198
0.436451
0.47222
0.50263
0.514516
0.482585
0.445609
0.396626
0.306923
0.308074
0.402933
0.453116
0.491649
0.526945
0.527462
0.494806
0.456532
0.405436
0.308636
0.309141
0.407279
0.458477
0.49541
0.525044
0.535714
0.50339
0.465241
0.413076
0.313141
0.315905
0.421023
0.474271
0.513482
0.546827
0.558429
0.523915
0.483787
0.429728
0.319154
0.322725
0.437518
0.492949
0.53419
0.569988
0.581585
0.544195
0.501577
0.445421
0.328239
0.330838
0.451323
0.50865
0.552857
0.592752
0.600999
0.558116
0.513125
0.455735
0.3346
0.334654
0.456209
0.513014
0.556062
0.59347
0.582958
0.550374
0.50993
0.454318
0.33479
0.334701
0.453035
0.508461
0.549845
0.586968
0.584898
0.549768
0.508435
0.452203
0.336204
0.337323
0.452351
0.508364
0.548317
0.580238
0.588316
0.553223
0.51214
0.455519
0.342048
0.345935
0.460731
0.518603
0.560864
0.596926
0.604406
0.568177
0.525388
0.466841
0.350944
0.354911
0.473647
0.532727
0.576105
0.613027
0.6224
0.584768
0.540602
0.48085
0.360766
0.364458
0.488157
0.549153
0.594407
0.633277
0.645575
0.60361
0.55724
0.495459
0.369807
0.371567
0.499378
0.561864
0.607712
0.646684
0.64581
0.610161
0.564925
0.501128
0.373411
0.379015
0.509204
0.574455
0.621098
0.66007
0.675667
0.635404
0.587318
0.520918
0.386505
0.392883
0.533875
0.601459
0.650847
0.692518
0.710443
0.66668
0.615609
0.546223
0.398284
0.403079
0.555254
0.626912
0.680716
0.729306
0.732378
0.686967
0.633341
0.560119
0.407169
0.408467
0.562501
0.637703
0.690703
0.732623
0.751134
0.704497
0.648468
0.570177
0.413711
0.427553
0.583403
0.664141
0.722734
0.7724
0.796055
0.744025
0.68308
0.599843
0.439626
0.450298
0.616948
0.703016
0.767157
0.822581
0.853127
0.790331
0.722472
0.63359
0.461349
0.46973
0.64697
0.736952
0.804607
0.863438
0.870014
0.816494
0.75031
0.658961
0.477434
0.485852
0.674802
0.770861
0.840906
0.900134
0.935111
0.871423
0.79694
0.695875
0.499053
0.515931
0.720139
0.826441
0.905612
0.974367
1
0.943719
0.858639
0.747779
0.533912
0.549295
0.773126
0.891097
0.983583
1
1
1
0.916307
0.794998
0.560459
0.572192
0.816952
0.941903
1
1
1
1
0.977921
0.844529
0.58772
0.60688
0.87999
1
1
1
1
1
1
0.923551
0.636535
0.667282
0.970427
1
1
1
1
1
1
1
0.692361
0.713779
1
1
1
1
1
1
1
1
0.743383
0.786294
1
1
1
1
1
1
1
1
0.837093
0.876701
1
1
1
1
1
1
1
1
0.926689
0.988347
1
1
1
1
1
1
1
1
1
1
1
1
1
1
1
1
1
1
1
1
1
1
1
1
1
1
1
1
1
1
1
1
1
1
1
1
1
1
1
1
1
1
1
1
1
1
1
1
1
1
1
1
1
1
1
1
1
1
1
1
1
1
1
1
1
1
1
1
1
1
1
1
1
1
1
1
1
1
1
1
1
1
1
1
1
1
1
1
1
1
1
1
1
1
1
1
1
1
1
1
1
1
1
1
1
1
1
1
1
0.930589
1
1
1
1
0.9735
0.985911
0.992283
0.978894
0.84046
0.755804
0.889478
0.906389
0.904043
0.891658
0.825395
0.831942
0.827867
0.80515
0.672493
0.595919
0.72599
0.754157
0.763752
0.765935
0.701422
0.698068
0.684212
0.650633
0.517982
0.423067
0.575214
0.618346
0.637401
0.645606
0.59271
0.584835
0.562112
0.511288
0.346204
0.319021
0.468672
0.518031
0.543126
0.557668
0.523105
0.511077
0.487067
0.444268
0.323174
0.318258
0.422201
0.460799
0.483468
0.498205
0.471585
0.45826
0.435252
0.394925
0.292264
0.254198
0.366185
0.409391
0.432132
0.446514
0.421028
0.408763
0.38756
0.347378
0.241249
0.249405
0.338721
0.372824
0.391603
0.402833
0.388558
0.378117
0.361694
0.332218
0.251354
0.235792
0.323081
0.350218
0.36592
0.376069
0.364858
0.35477
0.339137
0.310295
0.223004
0.222035
0.294902
0.326749
0.343514
0.353258
0.343312
0.332602
0.313687
0.279558
0.218277
0.208463
0.264731
0.30167
0.322397
0.334387
0.329413
0.31598
0.294193
0.257859
0.203414
0.2054
0.25207
0.289151
0.3114
0.325151
0.322165
0.307957
0.2855
0.248805
0.208268
0.213336
0.246661
0.283545
0.306143
0.320377
0.318034
0.302981
0.27958
0.241949
0.213902
0.204303
0.235943
0.276729
0.301801
0.317599
0.316273
0.300199
0.274644
0.232043
0.197827
0.206652
0.238138
0.278794
0.303342
0.31888
0.319738
0.30565
0.283402
0.245785
0.216002
0.220629
0.253114
0.289062
0.310695
0.32417
0.326104
0.312142
0.291552
0.258184
0.224408
0.225273
0.259507
0.290846
0.310029
0.321933
0.324743
0.312479
0.293173
0.262012
0.223286
0.222199
0.265476
0.295037
0.313391
0.325227
0.329985
0.318417
0.300427
0.272246
0.22715
0.23694
0.279957
0.305685
0.321807
0.333237
0.332138
0.323392
0.309863
0.287778
0.246706
0.253079
0.294133
0.31553
0.328707
0.336976
0.339709
0.331247
0.319306
0.299489
0.258472
0.261446
0.302065
0.321094
0.33181
0.338518
0.342122
0.335474
0.324285
0.304161
0.262674
0.264048
0.306468
0.326009
0.336671
0.343924
0.342349
0.336412
0.326405
0.307013
0.264129
0.26221
0.3083
0.328622
0.339026
0.345156
0.346041
0.340488
0.330648
0.311319
0.262022
0.268153
0.316924
0.335051
0.344557
0.350186
0.352842
0.347223
0.338819
0.322556
0.275239
0.280116
0.326564
0.34149
0.348804
0.35297
0.356621
0.35266
0.345459
0.330607
0.283386
0.286635
0.334008
0.348033
0.354607
0.358757
0.358883
0.355662
0.349566
0.335906
0.288506
0.291137
0.339047
0.352708
0.358762
0.361903
0.363575
0.360136
0.354329
0.340761
0.292898
0.293864
0.341929
0.355249
0.360828
0.363571
0.366096
0.363267
0.357474
0.343596
0.294626
0.295766
0.344625
0.358587
0.364228
0.367396
0.367237
0.364611
0.359006
0.345139
0.296114
0.296614
0.34649
0.360836
0.366679
0.36942
0.370419
0.367295
0.361567
0.347355
0.297248
0.296722
0.347069
0.361665
0.367469
0.370096
0.372027
0.369274
0.363332
0.349042
0.297689
0.298389
0.349565
0.36382
0.369675
0.372848
0.372418
0.369663
0.363768
0.349462
0.298321
0.298432
0.350128
0.365078
0.371284
0.374285
0.375086
0.371648
0.365312
0.350243
0.298631
0.297732
0.34878
0.364561
0.371255
0.374906
0.374152
0.370727
0.363723
0.347171
0.296487
0.295486
0.347583
0.364473
0.371682
0.375341
0.375591
0.371489
0.364357
0.347918
0.295341
0.295119
0.347784
0.363893
0.37101
0.374606
0.375976
0.372075
0.364766
0.348588
0.295385
0.295202
0.348351
0.364562
0.371824
0.376142
0.375035
0.371296
0.364045
0.347961
0.294936
0.29498
0.348177
0.364727
0.372235
0.376315
0.376412
0.37196
0.364582
0.348577
0.295081
0.29436
0.347302
0.363832
0.371305
0.375192
0.376373
0.37209
0.364402
0.347791
0.293928
0.293888
0.347477
0.364004
0.371646
0.376322
0.374948
0.370881
0.363225
0.346592
0.293133
0.292788
0.346789
0.363577
0.371485
0.375988
0.37579
0.370892
0.362997
0.346063
0.292108
0.290959
0.344802
0.361976
0.369955
0.374244
0.375175
0.370448
0.362255
0.345061
0.290883
0.290399
0.344378
0.361594
0.369767
0.37488
0.373145
0.368616
0.360266
0.342541
0.28884
0.2874
0.342189
0.360245
0.368894
0.37393
0.373508
0.368007
0.359361
0.341546
0.286618
0.285208
0.339765
0.35806
0.366824
0.371643
0.372407
0.367063
0.35807
0.339479
0.284063
0.283484
0.338842
0.357212
0.366183
0.371938
0.369977
0.36493
0.355922
0.337139
0.281776
0.279918
0.336235
0.355577
0.365
0.370654
0.370104
0.363983
0.354567
0.335565
0.278625
0.277075
0.333702
0.35327
0.362756
0.368115
0.368794
0.36281
0.353113
0.333447
0.275842
0.275348
0.332323
0.352049
0.361812
0.368219
0.366395
0.360699
0.350836
0.331456
0.274146
0.273312
0.331125
0.350647
0.36091
0.367249
0.366666
0.360165
0.349991
0.330093
0.272269
0.26966
0.329578
0.349409
0.359662
0.365424
0.366795
0.360365
0.35013
0.330192
0.270688
0.267905
0.332238
0.350632
0.360579
0.366964
0.36644
0.360947
0.351481
0.333625
0.269769
0.268166
0.335661
0.353157
0.362163
0.367327
0.368302
0.36362
0.354921
0.337075
0.268811
0.270722
0.338694
0.356952
0.365748
0.371313
0.370745
0.365812
0.357261
0.338123
0.272424
0.275137
0.336876
0.35613
0.364609
0.36925
0.366748
0.362737
0.354087
0.335321
0.276516
0.278465
0.335311
0.353412
0.362009
0.366249
0.364958
0.360968
0.352871
0.335325
0.280171
0.282039
0.336249
0.353064
0.361006
0.364892
0.363486
0.359932
0.352708
0.336587
0.284028
0.28673
0.336281
0.351487
0.358245
0.361121
0.360969
0.35772
0.351002
0.335569
0.282871
0.279419
0.333795
0.349348
0.356021
0.359381
0.356832
0.353857
0.34701
0.330974
0.276105
0.2746
0.329899
0.346153
0.353179
0.356605
0.355022
0.351436
0.344525
0.328641
0.273542
0.271632
0.326176
0.342222
0.349216
0.352383
0.352096
0.348449
0.341247
0.324925
0.270216
0.268972
0.323577
0.339577
0.346649
0.350435
0.347685
0.344385
0.337234
0.320976
0.267311
0.266839
0.320201
0.33634
0.343558
0.347343
0.345582
0.341664
0.334575
0.318829
0.265714
0.26317
0.316
0.331966
0.339183
0.342644
0.34215
0.33809
0.330658
0.314412
0.261379
0.260059
0.312555
0.32871
0.336129
0.340342
0.337388
0.333722
0.326335
0.310307
0.258962
0.257635
0.308858
0.325085
0.332676
0.336923
0.335073
0.330591
0.322957
0.306725
0.255243
0.253214
0.304185
0.320338
0.327994
0.331919
0.331244
0.326885
0.319114
0.302908
0.252127
0.251035
0.30143
0.317567
0.325293
0.329586
0.329129
0.32458
0.316606
0.300456
0.250073
0.249171
0.299002
0.315071
0.322683
0.327214
0.324
0.320151
0.312671
0.297073
0.248586
0.247226
0.295659
0.311344
0.318903
0.323315
0.321252
0.316581
0.308929
0.293228
0.244618
0.241978
0.289947
0.305945
0.313682
0.31779
0.31685
0.312237
0.304287
0.288166
0.240216
0.239097
0.286465
0.302521
0.310435
0.315019
0.314383
0.309508
0.301363
0.285342
0.23809
0.236782
0.283713
0.299456
0.307346
0.312284
0.308745
0.304478
0.296669
0.281017
0.235169
0.233441
0.279311
0.295107
0.303111
0.307971
0.305979
0.300831
0.292796
0.27697
0.231364
0.229743
0.274379
0.29006
0.297994
0.302452
0.301646
0.296684
0.288571
0.272794
0.228391
0.227264
0.271264
0.286939
0.294951
0.299859
0.299326
0.29411
0.285756
0.270055
0.226214
0.224662
0.268315
0.283862
0.292001
0.29732
0.293656
0.289053
0.281064
0.265691
0.222974
0.221513
0.26405
0.279529
0.287726
0.292942
0.291035
0.285569
0.277387
0.261946
0.219808
0.217939
0.259032
0.274569
0.282658
0.287413
0.286664
0.281398
0.273032
0.257504
0.216606
0.215304
0.255926
0.271475
0.279647
0.284848
0.284425
0.278851
0.270293
0.254828
0.214302
0.21302
0.253273
0.268478
0.276808
0.282496
0.278799
0.273945
0.265861
0.250867
0.211301
0.210349
0.249461
0.26447
0.27273
0.278066
0.276265
0.271068
0.263036
0.248183
0.209514
0.208255
0.246908
0.261792
0.270189
0.275817
0.2739
0.268168
0.259903
0.245067
0.206579
0.204858
0.242348
0.257212
0.265252
0.270169
0.269491
0.264064
0.255756
0.240851
0.203834
0.203015
0.239545
0.254305
0.2624
0.267677
0.267318
0.261587
0.253181
0.238438
0.201928
0.200124
0.236672
0.251293
0.25957
0.265428
0.261679
0.256661
0.248625
0.234192
0.198511
0.197578
0.23271
0.247223
0.255503
0.261051
0.25928
0.253907
0.24585
0.231425
0.196666
0.195536
0.230343
0.244796
0.25322
0.259033
0.257317
0.251401
0.24315
0.228916
0.194366
0.1933
0.226649
0.240777
0.248695
0.253707
0.253213
0.247707
0.23958
0.225433
0.192715
0.192006
0.224497
0.238364
0.246234
0.251527
0.251262
0.245517
0.237293
0.223317
0.190731
0.189084
0.22158
0.235449
0.243568
0.249451
0.245702
0.240641
0.232759
0.218934
0.187321
0.185952
0.217265
0.231288
0.239498
0.245114
0.243335
0.237912
0.229881
0.21597
0.184997
0.184262
0.215002
0.228867
0.237208
0.243147
0.241507
0.235505
0.227358
0.213583
0.183268
0.181992
0.211146
0.224913
0.23277
0.237878
0.237474
0.231822
0.223684
0.209796
0.18081
0.180307
0.208947
0.222519
0.230462
0.23584
0.235703
0.229945
0.221955
0.208641
0.179893
0.178943
0.207599
0.220823
0.228624
0.234011
0.233862
0.228033
0.219893
0.206675
0.17793
0.176839
0.205318
0.218424
0.226334
0.232216
0.228644
0.223628
0.216025
0.202985
0.17575
0.175019
0.201774
0.214843
0.222742
0.228285
0.226642
0.221346
0.213664
0.200715
0.174204
0.173373
0.199808
0.212742
0.220787
0.226598
0.225063
0.219179
0.211343
0.198388
0.17242
0.171152
0.196261
0.208996
0.21652
0.221539
0.221197
0.215657
0.207785
0.194981
0.170172
0.169294
0.193852
0.206619
0.214282
0.21958
0.219517
0.213771
0.205977
0.193392
0.168626
0.168049
0.192589
0.204998
0.21257
0.217877
0.217867
0.212134
0.204236
0.191757
0.167357
0.166643
0.190789
0.203006
0.210636
0.216409
0.212985
0.208084
0.200791
0.188487
0.165573
0.164718
0.187357
0.199674
0.207302
0.21273
0.211218
0.206101
0.198721
0.186446
0.164255
0.163928
0.18625
0.198236
0.205738
0.211295
0.209716
0.204596
0.197354
0.185554
0.163285
0.162476
0.184795
0.196553
0.204164
0.209762
0.208315
0.202665
0.195252
0.183553
0.161556
0.16041
0.18147
0.193116
0.200148
0.204945
0.204702
0.199362
0.191952
0.180151
0.159412
0.158889
0.179173
0.190922
0.198132
0.203177
0.203249
0.197713
0.190339
0.178655
0.158427
0.15793
0.178072
0.189519
0.196628
0.201684
0.201809
0.196257
0.188798
0.177362
0.157355
0.156523
0.176319
0.187655
0.194899
0.200459
0.197177
0.192467
0.185598
0.17427
0.155539
0.154802
0.173179
0.184556
0.191779
0.197027
0.195544
0.190619
0.183621
0.17244
0.154327
0.153783
0.171957
0.183101
0.190253
0.195686
0.194175
0.189216
0.182316
0.171394
0.153204
0.152622
0.170727
0.181635
0.188878
0.194321
0.193062
0.187598
0.180566
0.169753
0.151937
0.151172
0.168
0.178648
0.18527
0.189876
0.189793
0.184655
0.177681
0.166869
0.150541
0.150118
0.166077
0.176795
0.183563
0.188346
0.188533
0.183262
0.176372
0.165748
0.149695
0.149046
0.164981
0.175561
0.182274
0.18708
0.187256
0.182006
0.175115
0.164684
0.148601
0.148155
0.164112
0.174401
0.180987
0.185717
0.185878
0.180638
0.173737
0.163551
0.147609
0.146867
0.162525
0.172628
0.179347
0.184595
0.181454
0.17702
0.170708
0.160604
0.145932
0.145311
0.159381
0.169715
0.176387
0.18138
0.179961
0.175343
0.168852
0.158684
0.144896
0.144358
0.158175
0.168315
0.17499
0.180139
0.178715
0.174046
0.167556
0.157536
0.14382
0.143577
0.15727
0.167189
0.173861
0.178994
0.177534
0.172937
0.166589
0.156866
0.143366
0.14297
0.156406
0.166041
0.172698
0.17779
0.176619
0.171541
0.165078
0.155515
0.142369
0.141694
0.153972
0.163285
0.169301
0.173586
0.173532
0.168699
0.162336
0.152618
0.140927
0.140239
0.151812
0.161417
0.167649
0.17213
0.172345
0.167289
0.160799
0.151128
0.139596
0.139249
0.150675
0.16016
0.166418
0.170925
0.171242
0.166213
0.159805
0.150438
0.138988
0.138578
0.149965
0.159152
0.165309
0.169801
0.170095
0.165076
0.158612
0.149464
0.138239
0.137742
0.148667
0.157751
0.164036
0.169005
0.166103
0.161917
0.156084
0.147128
0.137074
0.136695
0.145955
0.15527
0.161449
0.166188
0.164854
0.160531
0.154521
0.145345
0.136302
0.135832
0.145027
0.154134
0.1603
0.165179
0.163834
0.159465
0.153471
0.144478
0.135438
0.134974
0.14429
0.15316
0.159345
0.164198
0.162803
0.158468
0.152519
0.143769
0.134506
0.134032
0.14341
0.15204
0.158244
0.163112
0.162092
0.157253
0.151174
0.14248
0.133548
0.133234
0.141241
0.149636
0.155232
0.159284
0.159403
0.154792
0.148863
0.140227
0.132832
0.132357
0.1396
0.148156
0.153921
0.158099
0.158471
0.153709
0.14774
0.139187
0.132074
0.131777
0.138769
0.147165
0.152956
0.157148
0.157581
0.15288
0.146978
0.138645
0.131526
0.131275
0.13833
0.146445
0.152119
0.156256
0.156627
0.151957
0.146123
0.137974
0.130647
0.130172
0.137476
0.145504
0.151092
0.155225
0.155522
0.150879
0.144994
0.137023
0.12983
0.129436
0.136272
0.144197
0.149923
0.154534
0.151849
0.147996
0.142719
0.134969
0.128905
0.128579
0.134002
0.141958
0.147559
0.151981
0.15069
0.146726
0.141297
0.133418
0.128302
0.12784
0.133
0.140905
0.146543
0.151098
0.149814
0.145815
0.14036
0.132528
0.127512
0.127356
0.1324
0.140124
0.145742
0.150274
0.148972
0.145011
0.139649
0.132088
0.127104
0.126818
0.131792
0.139239
0.144872
0.149364
0.148457
0.143995
0.138531
0.131133
0.126466
0.125984
0.129826
0.137102
0.142159
0.145867
0.146046
0.141783
0.136432
0.128983
0.125742
0.125333
0.128359
0.135775
0.140958
0.144784
0.145216
0.140772
0.135348
0.127897
0.124854
0.124549
0.127497
0.134802
0.140059
0.143917
0.144399
0.139956
0.134533
0.127219
0.12418
0.123837
0.126817
0.134029
0.139247
0.143106
0.14359
0.139185
0.133802
0.126641
0.123627
0.123422
0.126342
0.133342
0.138469
0.142267
0.142684
0.13832
0.132965
0.126137
0.12323
0.122949
0.125533
0.132307
0.137499
0.141802
0.139279
0.135729
0.130961
0.124311
0.122541
0.122344
0.123403
0.130317
0.135393
0.139503
0.138238
0.134618
0.12969
0.122877
0.122188
0.121815
0.122461
0.129311
0.13445
0.138708
0.137402
0.133719
0.128754
0.121957
0.121369
0.121048
0.12169
0.12847
0.133636
0.137904
0.13662
0.132947
0.127984
0.12131
0.120792
0.120418
0.121111
0.127739
0.132851
0.137102
0.135823
0.132158
0.127233
0.120681
0.119915
0.119677
0.120481
0.126991
0.132084
0.136319
0.135054
0.131412
0.12657
0.120198
0.119565
0.119351
0.120001
0.126263
0.131337
0.135516
0.134719
0.130602
0.1257
0.119523
0.119158
0.118886
0.118614
0.124512
0.128993
0.132355
0.132625
0.128684
0.123968
0.117921
0.118735
0.118476
0.117314
0.123382
0.128005
0.131434
0.131954
0.127897
0.123084
0.116926
0.118139
0.117841
0.116533
0.122606
0.127264
0.130742
0.131297
0.127251
0.122433
0.116309
0.117527
0.117249
0.115987
0.12197
0.126614
0.130081
0.130631
0.126595
0.121785
0.11576
0.116936
0.116672
0.115496
0.12138
0.125948
0.129401
0.129858
0.125856
0.121033
0.11526
0.116441
0.116274
0.114816
0.120492
0.125163
0.129103
0.126853
0.123644
0.119405
0.114063
0.116129
0.116068
0.1134
0.118901
0.123369
0.127137
0.125956
0.122699
0.118353
0.112803
0.115767
0.115402
0.112343
0.118015
0.122583
0.126474
0.125286
0.12198
0.117557
0.111936
0.115115
0.114906
0.111738
0.11738
0.121966
0.12586
0.124676
0.121388
0.116973
0.111454
0.114716
0.114441
0.111292
0.11679
0.12136
0.125262
0.124061
0.120761
0.116395
0.110964
0.114108
0.113911
0.110733
0.116052
0.12066
0.124532
0.123825
0.120025
0.115566
0.110358
0.113824
0.113726
0.109697
0.114556
0.118563
0.121628
0.121967
0.118315
0.114072
0.109107
0.113644
0.113554
0.108633
0.113587
0.117687
0.120794
0.121362
0.117607
0.113275
0.108225
0.113189
0.112803
0.107796
0.112823
0.117022
0.120182
0.120788
0.116996
0.112625
0.107523
0.112515
0.112306
0.107232
0.112223
0.116425
0.119587
0.120203
0.116418
0.112069
0.107038
0.112016
0.111759
0.106766
0.111661
0.115821
0.118998
0.119484
0.115742
0.111371
0.106542
0.111535
0.111386
0.106119
0.110875
0.11513
0.1188
0.116671
0.113722
0.109914
0.105528
0.111233
0.111314
0.104951
0.109457
0.113502
0.117044
0.115908
0.112934
0.109023
0.104532
0.111348
0.111106
0.104194
0.108795
0.112902
0.116532
0.115366
0.112345
0.108373
0.103815
0.11075
0.110472
0.103554
0.108204
0.112366
0.116015
0.114846
0.111819
0.107805
0.103236
0.110141
0.109887
0.103056
0.107651
0.11183
0.115495
0.114331
0.111277
0.107301
0.102788
0.109609
0.109332
0.102592
0.107028
0.111242
0.114848
0.114213
0.110666
0.106592
0.102307
0.109279
0.109346
0.101899
0.105714
0.109351
0.112174
0.112579
0.10915
0.105297
0.101411
0.109247
0.109011
0.100871
0.104842
0.108561
0.111434
0.112084
0.108551
0.104627
0.100478
0.108706
0.108577
0.100148
0.10425
0.108039
0.110937
0.111624
0.10809
0.104122
0.0999322
0.108441
0.108052
0.099648
0.103786
0.107583
0.110481
0.111158
0.107607
0.103633
0.0994614
0.107815
0.107651
0.0992583
0.103321
0.107093
0.110016
0.110534
0.107061
0.103101
0.0991488
0.107527
0.107433
0.0988973
0.102665
0.106525
0.109926
0.107923
0.105224
0.101757
0.0985292
0.107408
0.107452
0.0981168
0.101339
0.105017
0.108336
0.107198
0.104472
0.100921
0.0975056
0.107257
0.107045
0.0971064
0.100702
0.104423
0.107831
0.106689
0.103918
0.100315
0.0967211
0.106784
0.10648
0.0963783
0.100137
0.103935
0.107375
0.106225
0.103421
0.0997779
0.0960636
0.106179
0.105838
0.0958032
0.0996152
0.103449
0.106914
0.105795
0.102954
0.0993068
0.0955812
0.105664
0.105645
0.0954687
0.0991296
0.102955
0.106337
0.105785
0.102463
0.0987303
0.0953494
0.105664
0.105675
0.0950865
0.0978255
0.101234
0.103865
0.104313
0.101064
0.0974976
0.0948026
0.10573
0.105682
0.0943294
0.0971683
0.100576
0.103223
0.103903
0.100582
0.0970064
0.0939758
0.105549
0.10529
0.0936244
0.0966748
0.100111
0.102788
0.1035
0.100177
0.096572
0.0933187
0.10497
0.104678
0.0930147
0.0962182
0.0996823
0.102383
0.103087
0.0997426
0.0960875
0.092773
0.10432
0.103964
0.0924834
0.095782
0.0992497
0.101976
0.102536
0.0992344
0.095563
0.0922888
0.103774
0.103689
0.0921439
0.0951434
0.098743
0.101987
0.10016
0.0976057
0.0943362
0.0919355
0.103702
0.103724
0.0916962
0.0940537
0.0974511
0.100634
0.0995685
0.0969874
0.0937464
0.091284
0.103687
0.103574
0.0909972
0.0936381
0.0970736
0.100285
0.0992338
0.0966334
0.0933614
0.0907099
0.103394
0.103014
0.0903985
0.0932606
0.0967338
0.0999689
0.0989257
0.0962858
0.0929959
0.0901571
0.102795
0.102758
0.0899512
0.0928193
0.0963117
0.099515
0.0990016
0.095858
0.0924454
0.0899153
0.102661
0.102655
0.0896978
0.0916846
0.0947722
0.0972205
0.0977
0.094618
0.0914057
0.0893781
0.102676
0.102592
0.0889693
0.09107
0.0941592
0.0966512
0.0973252
0.0942029
0.0909197
0.0886154
0.102276
0.102
0.0882486
0.0905868
0.093748
0.0962842
0.0969738
0.093801
0.0904378
0.0878909
0.101482
0.101212
0.0875797
0.0901421
0.0933412
0.0959463
0.0964987
0.0933334
0.0899047
0.087256
0.100887
0.100864
0.0871656
0.0895081
0.0928766
0.0959981
0.0942593
0.0918218
0.0887767
0.0869984
0.10108
0.10142
0.0868071
0.0885682
0.0917203
0.0947627
0.0937599
0.0913154
0.0883002
0.086478
0.101428
0.101377
0.0862174
0.0882412
0.091423
0.0944614
0.0934822
0.0910224
0.0879722
0.0859383
0.101074
0.100844
0.0856916
0.0879047
0.0911435
0.0942068
0.0932265
0.0907275
0.0876514
0.0854506
0.10058
0.100426
0.085219
0.087504
0.0907522
0.093815
0.0933124
0.0903051
0.0871136
0.0851752
0.100318
0.100216
0.0849767
0.0863874
0.089279
0.0916127
0.092077
0.0891117
0.086099
0.0846822
0.100218