/*--------------------------------*- C++ -*----------------------------------*\
| =========                 |                                                 |
| \\      /  F ield         | OpenFOAM: The Open Source CFD Toolbox           |
|  \\    /   O peration     | Version:  v2006                                 |
|   \\  /    A nd           | Website:  www.openfoam.com                      |
|    \\/     M anipulation  |                                                 |
\*---------------------------------------------------------------------------*/
FoamFile
{
    version     2.0;
    format      ascii;
    class       volVectorField;
    location    "0.14";
    object      U;
}
// * * * * * * * * * * * * * * * * * * * * * * * * * * * * * * * * * * * * * //

dimensions      [0 1 -1 0 0 0 0];


internalField   nonuniform List<vector> 
38932
(
(60.3229 -0.00468952 0)
(60.3248 -0.00155352 0)
(60.3225 -0.000581972 0)
(60.3206 -0.00180063 0)
(60.3166 -0.00310479 6.34162e-20)
(60.3096 -0.00445499 -2.77908e-19)
(60.2995 -0.00604652 2.22707e-19)
(60.286 -0.00749686 1.05227e-19)
(60.2691 -0.00909375 -1.07163e-19)
(60.2493 -0.0105891 0)
(60.2263 -0.0121354 -5.38021e-20)
(60.2005 -0.0136408 5.0545e-20)
(60.1718 -0.0151459 -4.2246e-22)
(60.1401 -0.0166354 2.11326e-22)
(60.1055 -0.0181195 -5.2854e-23)
(60.068 -0.019595 0)
(60.0275 -0.0210631 0)
(59.9841 -0.0225228 0)
(59.9379 -0.0239734 0)
(59.8887 -0.0254144 0)
(59.8367 -0.026845 0)
(59.7818 -0.0282648 0)
(59.7242 -0.0296731 0)
(59.6637 -0.0310693 0)
(59.6005 -0.0324528 0)
(59.5346 -0.033823 0)
(59.4659 -0.0351794 0)
(59.3945 -0.0365212 0)
(59.3206 -0.0378478 0)
(59.2439 -0.0391587 0)
(59.1647 -0.0404532 0)
(59.083 -0.0417305 0)
(58.9987 -0.0429902 0)
(58.9119 -0.0442315 0)
(58.8227 -0.0454537 0)
(58.7311 -0.0466561 0)
(58.6372 -0.0478382 -1.05842e-22)
(58.5409 -0.0489992 0)
(58.4423 -0.0501384 0)
(58.3415 -0.0512551 0)
(58.2384 -0.0523486 0)
(58.1333 -0.0534182 0)
(58.026 -0.0544633 0)
(57.9168 -0.055483 0)
(57.8055 -0.0564767 0)
(57.6922 -0.0574437 0)
(57.5771 -0.0583832 0)
(57.4602 -0.0592945 0)
(57.3415 -0.060177 0)
(57.221 -0.0610298 0)
(57.0989 -0.0618524 0)
(56.9753 -0.0626439 0)
(56.85 -0.0634038 0)
(56.7234 -0.0641325 0)
(56.5953 -0.0648286 0)
(56.4658 -0.0654898 0)
(56.3351 -0.066116 0)
(56.2033 -0.066707 0)
(56.0702 -0.067262 0)
(55.9362 -0.0677806 0)
(55.8011 -0.068262 0)
(55.6651 -0.0687058 0)
(55.5284 -0.0691111 0)
(55.3908 -0.0694774 0)
(55.2526 -0.0698039 1.06138e-22)
(55.1137 -0.0700898 0)
(54.9744 -0.0703352 0)
(54.8346 -0.0705396 0)
(54.6945 -0.0707023 0)
(54.554 -0.0708228 0)
(54.4135 -0.0709004 0)
(54.2728 -0.0709346 0)
(54.132 -0.0709248 0)
(53.9914 -0.0708705 0)
(53.8509 -0.0707713 0)
(53.7107 -0.0706271 0)
(53.5708 -0.0704378 0)
(53.4313 -0.0702032 0)
(53.2924 -0.0699232 0)
(53.1541 -0.0695972 0)
(53.0164 -0.0692243 1.06333e-22)
(52.8796 -0.0688046 -1.06345e-22)
(52.7436 -0.0683383 0)
(52.6087 -0.067825 0)
(52.4748 -0.0672649 0)
(52.342 -0.066658 0)
(52.2105 -0.0660043 0)
(52.0804 -0.065304 0)
(51.9517 -0.0645572 -5.32125e-23)
(51.8245 -0.0637641 0)
(51.699 -0.0629253 0)
(51.5752 -0.0620413 0)
(51.4531 -0.0611122 0)
(51.333 -0.0601382 0)
(51.2148 -0.0591201 0)
(51.0987 -0.0580588 0)
(50.9848 -0.0569548 0)
(50.873 -0.0558091 0)
(50.7636 -0.0546227 0)
(50.6566 -0.0533964 0)
(50.5521 -0.0521315 0)
(50.4501 -0.0508291 0)
(50.3507 -0.0494906 0)
(50.254 -0.0481174 0)
(50.1601 -0.0467111 5.32899e-23)
(50.0689 -0.0452734 0)
(49.9807 -0.043806 0)
(49.8954 -0.0423111 0)
(49.8131 -0.0407906 0)
(49.7338 -0.0392469 0)
(49.6576 -0.0376823 0)
(49.5846 -0.0360994 0)
(49.5147 -0.0345006 0)
(49.448 -0.0328884 0)
(49.3845 -0.0312653 0)
(49.3244 -0.0296328 0)
(49.2675 -0.0279916 -1.06657e-22)
(49.2141 -0.0263401 0)
(49.1642 -0.0246721 0)
(49.1181 -0.0229745 2.68411e-20)
(49.0762 -0.0211848 -2.71993e-20)
(49.0394 -0.0192473 -5.77133e-20)
(49.0094 -0.0168518 5.3726e-20)
(48.9906 -0.0134736 -1.08138e-19)
(48.9935 -0.00888232 1.59329e-19)
(49.024 0.0165043 0)
(49.2325 -0.0130317 0)
(49.2955 0.326814 6.42329e-20)
(51.132 -0.467973 0)
(49.6572 3.19174 0)
(53.0005 -1.5757 5.33012e-20)
(33.7909 10.9235 0)
(50.1466 0.688434 -9.48367e-19)
(46.5574 0.0944989 -4.89533e-20)
(49.4769 1.39905 6.74915e-19)
(49.3938 0.148271 5.74922e-19)
(47.4621 0.0481013 9.0654e-19)
(49.6173 0.0513209 -6.19463e-20)
(48.43 -0.166906 -1.56633e-19)
(48.1614 -0.169861 0)
(49.0394 -0.112435 0)
(48.906 -0.189297 2.91745e-19)
(48.3492 -0.192688 -3.58218e-19)
(47.4456 -0.188251 1.88577e-23)
(46.571 -0.152941 2.00108e-19)
(48.311 -0.188483 4.1995e-20)
(48.8322 -0.214175 0)
(48.7438 -0.214702 0)
(48.1605 -0.181054 -2.16488e-19)
(45.7945 -0.124388 0)
(45.1095 -0.102367 0)
(47.9545 -0.167714 1.71113e-19)
(48.6426 -0.204346 0)
(48.5359 -0.194556 -1.81073e-20)
(47.7424 -0.156225 0)
(44.5055 -0.0864646 0)
(43.9725 -0.074278 0)
(47.5225 -0.14525 -5.42534e-21)
(48.4202 -0.185908 1.81496e-20)
(48.2924 -0.177674 0)
(47.2966 -0.13509 8.17287e-21)
(43.4906 -0.0646301 0)
(43.049 -0.0571691 0)
(47.0663 -0.126178 -2.72496e-21)
(48.1531 -0.170802 0)
(48.0066 -0.165055 0)
(46.8365 -0.118545 0)
(42.6434 -0.0513608 0)
(42.2682 -0.046757 0)
(46.609 -0.111935 0)
(47.8551 -0.159887 0)
(47.6988 -0.15539 0)
(46.3832 -0.106279 0)
(41.9172 -0.0430543 0)
(41.5856 -0.0400708 0)
(46.1588 -0.101522 0)
(47.5382 -0.151606 0)
(47.374 -0.148483 0)
(45.9359 -0.0975574 0)
(41.2702 -0.0376652 0)
(40.968 -0.0357141 0)
(45.7143 -0.0942667 0)
(47.2066 -0.145956 0)
(47.0362 -0.143972 0)
(45.4937 -0.0915565 0)
(40.6768 -0.0341309 0)
(40.3944 -0.032837 0)
(45.2737 -0.0893331 0)
(46.863 -0.142474 0)
(46.6869 -0.141411 0)
(45.054 -0.0875341 0)
(40.1192 -0.0317807 0)
(39.8499 -0.0309208 0)
(44.8342 -0.0861124 0)
(46.5079 -0.140735 0)
(46.3259 -0.140406 0)
(44.6138 -0.0850151 0)
(39.5853 -0.030219 0)
(39.3243 -0.0296486 0)
(44.3925 -0.0842004 0)
(46.1408 -0.140396 0)
(45.9523 -0.140682 0)
(44.1699 -0.0836347 0)
(39.066 -0.0291899 0)
(38.8098 -0.0288277 0)
(43.9457 -0.0832905 0)
(45.7603 -0.141246 0)
(45.5646 -0.142071 0)
(43.7195 -0.0831461 0)
(38.5548 -0.0285501 0)
(38.3005 -0.028348 0)
(43.4908 -0.0831838 0)
(45.3649 -0.143143 0)
(45.161 -0.144453 0)
(43.2594 -0.0833897 0)
(38.0463 -0.0282141 0)
(37.7916 -0.0281425 0)
(43.0249 -0.0837526 0)
(44.9526 -0.145991 0)
(44.7394 -0.147751 0)
(42.7869 -0.084264 0)
(37.536 -0.0281289 0)
(37.2789 -0.0281695 0)
(42.5452 -0.0849169 0)
(44.5213 -0.149729 0)
(44.2979 -0.15192 0)
(42.2993 -0.0857059 0)
(37.02 -0.0282614 0)
(36.7589 -0.0284022 0)
(42.0489 -0.0866266 0)
(44.069 -0.154323 0)
(43.8343 -0.156935 0)
(41.7938 -0.0876759 0)
(36.4951 -0.02859 0)
(36.2282 -0.0288232 0)
(41.5336 -0.0888512 0)
(43.5936 -0.159757 0)
(43.3465 -0.162789 0)
(41.2681 -0.0901512 0)
(35.958 -0.0291008 0)
(35.684 -0.0294219 0)
(40.9969 -0.0915752 0)
(43.0929 -0.166032 0)
(42.8324 -0.169491 0)
(40.7196 -0.0931232 0)
(35.4059 -0.029786 0)
(35.1234 -0.0301931 0)
(40.436 -0.0947961 0)
(42.5648 -0.173168 0)
(42.2896 -0.177069 0)
(40.1458 -0.0965955 0)
(34.836 -0.0306431 0)
(34.5434 -0.0311363 0)
(39.8485 -0.0985236 0)
(42.0066 -0.181199 0)
(41.7155 -0.185566 0)
(39.5438 -0.100583 0)
(34.2452 -0.0316735 0)
(33.941 -0.0322552 0)
(39.2313 -0.102778 0)
(41.4158 -0.190178 0)
(41.1071 -0.195044 0)
(38.9105 -0.105111 0)
(33.6303 -0.0328825 0)
(33.3129 -0.0335567 0)
(38.581 -0.107588 0)
(40.789 -0.200173 0)
(40.461 -0.205577 0)
(38.2424 -0.110214 0)
(32.988 -0.0342793 0)
(32.6554 -0.0350519 0)
(37.8942 -0.112996 0)
(40.1227 -0.21127 0)
(39.7735 -0.217265 0)
(37.5358 -0.11594 0)
(32.3145 -0.0358767 0)
(31.9647 -0.0367557 0)
(37.1666 -0.119054 0)
(39.4128 -0.223578 0)
(39.0402 -0.230224 0)
(36.7861 -0.122346 0)
(31.6055 -0.0376915 0)
(31.2363 -0.0386865 0)
(36.3938 -0.125824 0)
(38.655 -0.237221 0)
(38.2565 -0.244587 0)
(35.9889 -0.129498 0)
(30.8566 -0.0397434 0)
(30.4659 -0.040865 0)
(35.5709 -0.133377 0)
(37.8443 -0.252342 0)
(37.4176 -0.260505 0)
(35.1392 -0.137471 0)
(30.0634 -0.0420543 0)
(29.6486 -0.0433146 0)
(34.693 -0.141791 0)
(36.9757 -0.269097 0)
(36.518 -0.278141 0)
(34.2317 -0.146348 0)
(29.2209 -0.0446493 0)
(28.7797 -0.046062 0)
(33.7546 -0.151153 0)
(36.0437 -0.28766 0)
(35.5521 -0.297677 0)
(33.2609 -0.156219 0)
(28.3242 -0.0475564 0)
(27.8537 -0.0491367 0)
(32.7499 -0.16156 0)
(35.0424 -0.30822 0)
(34.5137 -0.319313 0)
(32.2207 -0.167187 0)
(27.3676 -0.0508071 0)
(26.8649 -0.0525725 0)
(31.6724 -0.173117 0)
(33.965 -0.330986 0)
(33.3954 -0.343272 0)
(31.104 -0.179366 0)
(26.3448 -0.0544384 0)
(25.8062 -0.0564104 0)
(30.5143 -0.185951 0)
(32.8036 -0.356203 0)
(32.1885 -0.369814 0)
(29.9022 -0.19289 0)
(25.248 -0.0584939 0)
(24.669 -0.0606961 0)
(29.2663 -0.200205 0)
(31.5486 -0.384147 0)
(30.8825 -0.399239 0)
(28.6052 -0.207915 0)
(24.068 -0.0630238 0)
(23.4437 -0.0654815 0)
(27.9175 -0.216037 0)
(30.1887 -0.415124 0)
(29.4657 -0.431837 0)
(27.2017 -0.224588 0)
(22.7947 -0.0680745 0)
(22.1198 -0.0708107 0)
(26.4565 -0.233587 0)
(28.712 -0.449416 0)
(27.926 -0.467879 0)
(25.6803 -0.243042 0)
(21.4177 -0.073692 0)
(20.6872 -0.0767189 0)
(24.8717 -0.252954 0)
(27.1062 -0.487236 0)
(26.2512 -0.507488 0)
(24.0294 -0.263321 0)
(19.9271 -0.0798911 0)
(19.1363 -0.0832069 0)
(23.152 -0.274134 0)
(25.3593 -0.528621 0)
(24.429 -0.550605 0)
(22.238 -0.285372 0)
(18.3136 -0.086661 0)
(17.4578 -0.0902409 0)
(21.286 -0.297007 0)
(23.4587 -0.573386 0)
(22.4468 -0.596871 0)
(20.2948 -0.308987 0)
(16.5679 -0.0939248 0)
(15.643 -0.0976865 0)
(19.2631 -0.321241 0)
(21.3918 -0.620935 0)
(20.2925 -0.645338 0)
(18.1901 -0.333638 0)
(14.6827 -0.101481 0)
(13.6868 -0.105255 0)
(17.0755 -0.346015 0)
(19.1483 -0.669791 0)
(17.9588 -0.693871 0)
(15.9196 -0.358132 0)
(12.6561 -0.10892 0)
(11.5919 -0.112372 0)
(14.7233 -0.369677 0)
(16.7245 -0.717008 0)
(15.4469 -0.73844 0)
(13.4889 -0.380238 0)
(10.4968 -0.115475 0)
(9.37447 -0.118061 0)
(12.2196 -0.389311 0)
(14.1284 -0.757265 0)
(12.7731 -0.772243 0)
(10.9205 -0.39622 0)
(8.23021 -0.119892 0)
(7.0716 -0.120705 0)
(9.59867 -0.400151 0)
(11.3872 -0.781848 0)
(9.97906 -0.784276 0)
(8.26389 -0.400129 0)
(5.9084 -0.120175 0)
(4.75404 -0.117978 0)
(6.92948 -0.395153 0)
(8.56102 -0.777673 0)
(7.14768 -0.760109 0)
(5.61129 -0.384171 0)
(3.62414 -0.113732 0)
(2.53893 -0.107666 0)
(4.32957 -0.367266 0)
(5.75853 -0.73128 0)
(4.41135 -0.68921 0)
(3.10096 -0.34294 0)
(1.51143 -0.0990475 0)
(0.576369 -0.0950362 0)
(1.95603 -0.320321 0)
(3.13501 -0.642068 0)
(1.9453 -0.578958 0)
(0.892321 -0.283847 0)
(-0.337791 -0.0793531 0)
(-1.05095 -0.0579265 0)
(-0.0575598 -0.231769 0)
(0.860828 -0.498534 0)
(-0.121424 -0.413187 0)
(-0.877893 -0.187231 0)
(-1.63325 -0.0462393 0)
(-2.08958 -0.0367415 0)
(-1.53423 -0.151391 0)
(-0.941191 -0.336506 0)
(-1.6288 -0.28388 0)
(-2.08092 -0.126405 0)
(-2.46554 -0.0304343 0)
(-2.781 -0.0249903 0)
(-2.54082 -0.106384 0)
(-2.20151 -0.240278 0)
(-2.68435 -0.202561 0)
(-2.92984 -0.0879322 0)
(-3.04082 -0.0192923 0)
(-3.24941 -0.0144007 0)
(-3.25989 -0.0742546 0)
(-3.09398 -0.174901 0)
(-3.45749 -0.159063 0)
(-3.55574 -0.0663634 0)
(-3.42545 -0.0106108 0)
(-3.58232 -0.00757698 0)
(-3.83726 -0.0624167 -4.37641e-20)
(-3.79727 -0.151866 0)
(-4.12887 -0.149007 0)
(-4.11667 -0.0607551 4.37612e-20)
(-3.72737 -0.00558057 0)
(-3.86679 -0.00705628 0)
(-4.3944 -0.0614661 0)
(-4.45663 -0.147494 0)
(-4.77076 -0.145783 0)
(-4.66107 -0.0646417 0)
(-4.02512 -0.0121029 0)
(-4.20633 -0.0166129 0)
(-4.91418 -0.0675968 0)
(-5.0615 -0.142696 0)
(-5.32569 -0.136887 0)
(-5.15468 -0.0683707 0)
(-4.40162 -0.0189982 0)
(-4.59966 -0.0197798 0)
(-5.3781 -0.0658698 -4.37404e-20)
(-5.5611 -0.126878 0)
(-5.76538 -0.113001 0)
(-5.57839 -0.0604301 4.36904e-20)
(-4.78982 -0.0192906 0)
(-4.96205 -0.0175817 0)
(-5.75061 -0.052562 -4.37272e-20)
(-5.93623 -0.0959616 0)
(-6.07043 -0.0765683 0)
(-5.8897 -0.0429544 4.37203e-20)
(-5.10818 -0.015018 0)
(-5.22445 -0.0120984 0)
(-5.9945 -0.0324827 0)
(-6.16845 -0.0560616 0)
(-6.23059 -0.0351817 0)
(-6.06453 -0.0216 -4.37066e-20)
(-5.3104 -0.00894588 0)
(-5.3627 -0.00560295 0)
(-6.09862 -0.0105365 4.36556e-20)
(-6.2564 -0.0140834 0)
(-6.24627 0.00698606 0)
(-6.09695 0.000404459 0)
(-5.3818 -0.00223105 0)
(-5.36803 0.00119101 0)
(-6.05956 0.0114639 0)
(-6.20099 0.0279082 0)
(-6.12206 0.0481646 0)
(-5.98772 0.0225088 0)
(-5.3213 0.00451342 0)
(-5.24202 0.00777019 0)
(-5.88332 0.0331005 0)
(-6.01134 0.0673236 0)
(-5.87129 0.0851103 0)
(-5.74876 0.0428184 0)
(-5.13216 0.0109423 0)
(-4.99446 0.013874 0)
(-5.58649 0.0516774 0)
(-5.7041 0.101397 0)
(-5.51266 0.116092 0)
(-5.3993 0.0596175 0)
(-4.83139 0.0166595 -2.63472e-20)
(-4.64537 0.0190135 2.63165e-20)
(-5.18968 0.0666013 0)
(-5.29916 0.129134 0)
(-5.06616 0.140578 0)
(-4.96014 0.0728044 0)
(-4.43999 0.0210559 -2.63396e-20)
(-4.21664 0.0229403 -4.74267e-25)
(-4.71354 0.0781871 0)
(-4.81648 0.150512 0)
(-4.55205 0.158909 0)
(-4.45196 0.0828289 0)
(-3.97852 0.0242487 2.63057e-20)
(-3.72817 0.0253466 0)
(-4.17768 0.0868347 -4.36167e-20)
(-4.27518 0.166007 0)
(-3.98842 0.172006 0)
(-3.89323 0.0901273 4.35667e-20)
(-3.46725 0.0264236 0)
(-3.1979 0.0272243 0)
(-3.60003 0.092762 0)
(-3.69299 0.176964 0)
(-3.39118 0.18117 0)
(-3.30014 0.095049 0)
(-2.92225 0.0279567 0)
(-2.64003 0.0285977 0)
(-2.99409 0.0970022 0)
(-3.08369 0.184793 0)
(-2.77106 0.188348 0)
(-2.68247 0.0989745 -4.32471e-20)
(-2.35312 0.0292266 0)
(-2.05847 0.0298147 0)
(-2.36377 0.101019 4.3202e-20)
(-2.45234 0.191977 0)
(-2.12697 0.196386 -1.41351e-19)
(-2.03738 0.103557 1.68892e-19)
(-1.75877 0.0309397 0)
(-1.44031 0.0320762 0)
(-1.69745 0.1067 -1.69952e-19)
(-1.79181 0.201494 0)
(-1.44853 0.207221 0)
(-1.35011 0.109841 6.44956e-19)
(-1.11775 0.0330561 0)
(-0.771435 0.0342058 0)
(-0.985279 0.113308 -6.85678e-19)
(-1.09504 0.21225 -1.39904e-19)
(-0.7411 0.211003 4.1223e-19)
(-0.62208 0.112502 0)
(-0.432912 0.0338392 0)
(-0.102718 0.0296807 0)
(-0.272608 0.101478 -7.51691e-19)
(-0.406006 0.193238 3.05239e-19)
(-0.134766 0.123036 -6.22512e-19)
(0.0104241 0.0476886 1.4677e-18)
(0.142029 0.00888032 -8.6975e-19)
(0.133018 -0.0227987 0)
(0.127294 -0.0461775 0)
(0.0662685 -0.0661078 3.32538e-19)
(-0.0982403 0.0239589 -1.2122e-19)
(-0.163236 0.304543 0)
(-0.163109 0.619075 -8.26649e-19)
(-0.155302 0.963226 8.21054e-19)
(-0.133974 1.26804 -1.93068e-19)
(-0.112918 1.54381 3.91344e-19)
(-0.0867695 1.75928 -3.88881e-19)
(-0.0613713 1.92249 0)
(-0.0348221 2.02608 2.45793e-20)
(-0.0084665 2.07035 -2.46815e-20)
(0.018822 2.05579 4.94688e-20)
(0.0461301 1.98448 -5.01057e-20)
(0.0747229 1.85923 5.07141e-20)
(0.102765 1.67718 -5.39686e-20)
(0.126621 1.46035 -1.78554e-18)
(0.166806 1.26316 -1.00569e-17)
(0.191131 1.08877 1.17471e-17)
(0.200958 0.934745 0)
(0.25668 0.73881 0)
(0.182062 0.543136 8.54347e-18)
(0.0941748 0.365673 0)
(0.144019 0.191304 5.42639e-17)
(0.130872 0.108549 -4.25915e-17)
(0.0948649 -0.0983603 2.16114e-17)
(0.038884 -0.164449 -2.17995e-23)
(0.0510882 -0.218969 -5.22339e-17)
(0.0326492 -0.250701 1.00268e-16)
(0.0254374 -0.274332 -1.07809e-16)
(0.00844705 -0.276667 0)
(-0.00493778 -0.293351 4.61971e-17)
(-0.0105759 -0.230211 -1.88936e-16)
(-0.0221731 -0.190021 1.19995e-16)
(-0.0387431 -0.140046 0)
(-0.0533021 -0.0519004 0)
(-0.0960714 -0.000591138 0)
(-0.134557 -0.0263955 1.40403e-17)
(-0.145714 -0.0552464 -3.14752e-24)
(-0.145641 -0.0873997 -1.2736e-17)
(-0.126022 -0.121675 -2.18143e-18)
(-0.11569 -0.0534489 -3.08076e-25)
(-0.143167 -0.048781 7.36092e-18)
(-0.157212 -0.0377222 0)
(-0.153143 -0.0228195 0)
(-0.10506 -0.00449718 0)
(-0.142122 -0.00767408 0)
(-0.18681 -0.0288179 7.5752e-19)
(-0.185182 -0.0417431 -7.24297e-19)
(-0.1668 -0.0543654 -1.36124e-18)
(-0.138019 -0.0679909 -4.51551e-18)
(-0.153076 -0.0282639 -1.01344e-18)
(-0.181621 -0.0278673 -1.3288e-18)
(-0.201849 -0.0246498 -2.76147e-18)
(-0.208901 -0.0196209 -2.80177e-18)
(-0.166523 -0.0056597 1.47919e-18)
(-0.183654 -0.00383126 -2.09405e-18)
(-0.220378 -0.0116006 2.71595e-18)
(-0.20567 -0.0118364 2.9749e-18)
(-0.17905 -0.0103669 2.22303e-18)
(-0.145108 -0.00601572 0)
(-0.135157 0.0211772 2.25521e-18)
(-0.171432 0.00989845 2.41808e-18)
(-0.202563 0.00253192 2.57134e-18)
(-0.222932 -0.00252266 -2.65563e-18)
(-0.191741 -0.00133781 6.8931e-19)
(-0.190167 0.00042772 -2.78979e-18)
(-0.215497 0.0042553 1.35459e-18)
(-0.191385 0.0132111 -1.23009e-24)
(-0.157706 0.0242101 2.50865e-18)
(-0.119255 0.0381598 -1.4235e-17)
(-0.0997 0.0530828 2.48285e-18)
(-0.138784 0.0362274 0)
(-0.173656 0.0221336 0)
(-0.19984 0.0100918 0)
(-0.179987 0.00202707 1.44805e-18)
(-0.16435 0.00242467 1.5253e-18)
(-0.178035 0.012803 -1.49682e-18)
(-0.150194 0.0262583 0)
(-0.114561 0.0417509 5.6092e-18)
(-0.0748898 0.0596027 5.27373e-18)
(-0.0493993 0.0641517 0)
(-0.0877033 0.045469 1.48973e-18)
(-0.123208 0.0289475 3.06724e-18)
(-0.152153 0.0144073 -4.74437e-18)
(-0.145068 0.00269411 0)
(-0.124511 0.00266215 -1.68563e-18)
(-0.123219 0.0154606 1.65673e-18)
(-0.0918408 0.0310399 -1.61632e-18)
(-0.0557246 0.0488222 -7.81096e-18)
(-0.0173059 0.0686864 6.02131e-18)
(0.0225834 0.070317 0)
(-0.0172631 0.0495942 8.00107e-19)
(-0.0547132 0.0313258 1.66853e-18)
(-0.0885957 0.0154736 4.78217e-25)
(-0.0994179 0.00253589 1.75759e-18)
(-0.0787608 0.00208144 -1.30422e-24)
(-0.0567375 0.0148369 3.57625e-18)
(-0.018881 0.0304803 -3.46636e-18)
(0.0206099 0.048529 2.45928e-18)
(0.0615417 0.0689699 0)
(0.10651 0.0729687 0)
(0.0635623 0.051148 -4.14642e-19)
(0.0219087 0.0322835 -3.57798e-18)
(-0.0202353 0.0162254 1.85639e-18)
(-0.0537632 0.00226163 -1.9176e-18)
(-0.0299081 0.00173809 2.01823e-18)
(0.0160159 0.0149895 0)
(0.0626376 0.0301327 9.196e-19)
(0.107187 0.0487593 4.23167e-19)
(0.152752 0.0705883 -9.69277e-20)
(0.198238 0.0704983 6.49179e-18)
(0.150211 0.04799 0)
(0.102623 0.0291982 2.89098e-18)
(0.0512042 0.0144538 -8.36924e-18)
(-0.00615593 0.00161438 -9.30564e-25)
(0.0168363 0.000561471 2.40416e-18)
(0.0856129 0.0122697 1.25279e-17)
(0.142122 0.0253352 5.16356e-19)
(0.192549 0.043302 -6.95333e-18)
(0.2432 0.0649389 0)
(0.285379 0.062849 0)
(0.231588 0.0406476 -1.47824e-18)
(0.177613 0.0225144 8.49935e-18)
(0.115458 0.0105291 -1.66279e-17)
(0.0351134 1.08611e-05 2.72938e-18)
(0.0505733 -0.000376236 1.36961e-17)
(0.142199 0.00865214 -1.18881e-17)
(0.208773 0.0185975 -2.16464e-17)
(0.26557 0.0357075 1.05633e-18)
(0.323848 0.0573329 -8.61673e-19)
(0.360622 0.052278 -1.34856e-17)
(0.295016 0.0340854 0)
(0.224467 0.0195752 2.38636e-17)
(0.144493 0.00746042 -2.01113e-17)
(0.0494441 -0.000921031 -2.27042e-17)
(0.0386995 -0.0162707 0)
(0.106376 -0.0188876 0)
(0.203684 0.000264501 2.80368e-17)
(0.287428 0.0136103 -2.47313e-17)
(0.364158 0.0264528 8.44145e-19)
(0.369764 0.0274683 -1.01972e-18)
(0.290836 -0.00941548 0)
(0.212142 -0.0106619 0)
(0.134059 0.0725068 0)
(0.0606422 0.0628711 0)
(-0.019665 0.0961171 0)
(0.119919 0.154273 0)
(0.241795 -0.00447162 0)
(0.283391 -0.00798286 0)
(0.366918 0.0625787 0)
(0.445544 -0.133344 0)
(0.354612 0.140739 0)
(0.298573 0.12423 0)
(0.233195 -0.75585 0)
(0.122931 -0.682032 0)
(0.00265441 -0.357381 0)
(-0.0750042 -0.368195 0)
(0.0977784 0.0645892 0)
(0.345487 0.110902 0)
(0.473647 0.00244148 0)
(0.569266 0.0951584 0)
(0.467948 -0.0519403 0)
(0.364363 -0.058628 0)
(0.283478 0.383087 0)
(0.217659 0.32115 0)
(0.0105353 0.0913332 0)
(0.0621254 0.0800688 0)
(0.227339 -0.0370393 0)
(0.420428 -0.0159144 0)
(0.587235 0.0046706 0)
(0.688108 0.0419754 0)
(0.54418 -0.0963155 0)
(0.358003 -0.0989106 0)
(0.196475 0.433482 0)
(0.125904 0.399597 0)
(0.0526208 0.404757 0)
(0.143384 0.449037 0)
(0.335219 -0.0954619 0)
(0.539609 -0.0773248 0)
(0.715287 0.0780856 0)
(0.815442 0.0581852 0)
(0.657722 -0.063132 0)
(0.470222 -0.0761265 0)
(0.265482 0.366591 0)
(0.130223 0.31767 0)
(0.174806 0.51705 0)
(0.252359 0.560098 0)
(0.472624 -0.1296 0)
(0.688535 -0.139294 0)
(0.874406 0.032857 0)
(0.962005 0.0464066 0)
(0.798887 -0.206523 0)
(0.570388 -0.193977 0)
(0.335839 0.781425 0)
(0.228038 0.761586 0)
(-0.00755513 0.833856 0)
(0.234082 0.936998 0)
(0.577705 -0.17137 0)
(0.774607 -0.16879 0)
(0.979058 0.158883 0)
(1.08583 -0.0855618 0)
(0.891721 0.106013 0)
(0.719968 0.0784843 0)
(0.503782 -0.556609 0)
(0.257499 -0.507068 0)
(0.146513 0.0847629 0)
(0.332787 0.104954 0)
(0.63227 -0.0313021 0)
(0.926104 -0.0384087 0)
(1.14884 0.0103491 0)
(1.24318 0.00578592 0)
(1.01268 0.170698 0)
(0.745752 0.113441 0)
(0.434444 -0.520858 0)
(0.220269 -0.501482 0)
(0.161857 -0.161011 0)
(0.393374 -0.107017 0)
(0.730279 0.0785318 0)
(1.025 0.0780071 0)
(1.28231 0.060332 0)
(1.38794 0.0027606 0)
(1.14449 0.283295 0)
(0.906405 0.194337 0)
(0.562755 -0.936993 0)
(0.261478 -0.899687 0)
(0.26904 -1.16046 0)
(0.353767 -1.2377 0)
(0.790988 0.202323 0)
(1.16988 0.322789 0)
(1.45434 -0.0733221 0)
(1.57866 0.0447015 0)
(1.32537 0.00777797 0)
(1.00383 -0.024529 0)
(0.672467 0.0128137 0)
(0.395971 0.0146416 0)
(0.301986 -0.710247 0)
(0.458158 -0.760148 0)
(0.901892 0.134991 0)
(1.30989 0.162723 0)
(1.6279 -0.0802463 0)
(1.77843 0.033633 0)
(1.52059 -0.279423 0)
(1.13235 -0.240065 0)
(0.776543 1.00661 0)
(0.667487 0.972748 0)
(0.16443 0.892523 0)
(0.519882 0.997101 0)
(1.07053 -0.163843 0)
(1.43378 -0.161992 0)
(1.77161 0.182243 0)
(1.91105 -0.0227586 0)
(1.61296 0.111697 0)
(1.2716 0.0708124 0)
(0.875599 -0.405832 0)
(0.512797 -0.377787 0)
(0.278878 0.535992 0)
(0.6824 0.673697 0)
(1.20765 -0.0652608 0)
(1.61813 -0.0933324 0)
(1.96279 0.17343 0)
(2.08524 0.0196352 0)
(1.73771 0.31162 0)
(1.43861 0.216432 0)
(0.937796 -1.02233 0)
(0.427013 -0.988335 0)
(0.536874 -1.32308 0)
(0.679272 -1.42263 0)
(1.297 0.23503 0)
(1.80612 0.319227 0)
(2.17322 -0.138445 0)
(2.3062 0.138128 0)
(1.97833 -0.0579736 0)
(1.53946 -0.0526094 0)
(1.06029 0.469947 0)
(0.72642 0.378441 0)
(0.452659 -0.580959 0)
(0.839705 -0.61215 0)
(1.45477 0.117012 0)
(1.96213 0.164243 0)
(2.36831 -0.0158645 0)
(2.5424 0.0547956 0)
(2.20632 -0.236005 0)
(1.69776 -0.203216 0)
(1.15522 0.939916 0)
(0.888804 0.901393 0)
(0.453469 1.28815 0)
(0.93521 1.42189 0)
(1.67782 -0.235254 0)
(2.12944 -0.238794 0)
(2.54975 0.242039 0)
(2.68925 -0.0731452 0)
(2.30909 0.150931 0)
(1.87764 0.11123 0)
(1.30119 -0.680239 0)
(0.772597 -0.627938 0)
(0.597409 0.457551 0)
(1.20053 0.584984 0)
(1.88299 -0.0675095 0)
(2.38054 -0.0883486 0)
(2.78058 0.146538 0)
(2.9 0.0311664 0)
(2.48679 0.411178 0)
(2.08597 0.28696 0)
(1.40502 -1.30261 0)
(0.795517 -1.2624 0)
(0.860493 -1.41773 0)
(1.16138 -1.51324 0)
(1.93649 0.246902 0)
(2.54325 0.401361 0)
(3.00292 -0.0820229 0)
(3.14708 0.0224834 0)
(2.72372 0.0690446 0)
(2.20512 0.0803683 0)
(1.5194 -0.344609 0)
(0.801123 -0.363507 0)
(0.99094 -1.5368 0)
(1.33363 -1.67271 0)
(2.14795 0.265959 0)
(2.76033 0.36148 0)
(3.22374 -0.16139 0)
(3.36426 0.164208 0)
(2.93883 -0.103643 0)
(2.35616 -0.0841532 0)
(1.64273 0.681562 0)
(1.14134 0.564653 0)
(0.871812 -0.709896 0)
(1.51136 -0.75374 0)
(2.31676 0.142479 0)
(2.93626 0.20554 0)
(3.43305 -0.010889 0)
(3.5874 0.0444065 0)
(3.12995 -0.226682 0)
(2.48728 -0.223472 0)
(1.67193 0.925806 0)
(1.15455 0.870128 0)
(1.02298 0.461021 0)
(1.67032 0.556622 0)
(2.54268 -0.102401 0)
(3.17027 -0.0811397 0)
(3.6752 0.107947 0)
(3.84817 0.108779 0)
(3.39171 -0.128528 0)
(2.75078 -0.119599 0)
(1.91371 0.731279 0)
(1.2327 0.68187 0)
(1.0535 1.73854 0)
(1.70157 1.90963 0)
(2.72669 -0.307063 0)
(3.3283 -0.316977 0)
(3.86841 0.324745 0)
(4.01924 -0.0743187 0)
(3.52217 0.202996 0)
(2.94645 0.155177 0)
(2.11371 -0.87539 0)
(1.33756 -0.812285 0)
(1.15225 0.605889 0)
(2.04578 0.76207 0)
(2.97738 -0.0888837 0)
(3.62949 -0.121476 0)
(4.14076 0.172533 0)
(4.27557 0.0361581 0)
(3.74441 0.447234 0)
(3.18641 0.308361 0)
(2.22942 -1.4112 0)
(1.39398 -1.36943 0)
(1.48742 -1.39917 0)
(1.97841 -1.48363 0)
(3.01688 0.252775 0)
(3.80484 0.409362 0)
(4.39903 -0.0583228 0)
(4.55519 0.0336918 0)
(4.01504 0.0330674 0)
(3.349 0.0499933 0)
(2.41299 -0.211658 0)
(1.29002 -0.239685 0)
(1.64551 -1.73409 0)
(2.19107 -1.87451 0)
(3.28564 0.304576 0)
(4.06187 0.450756 0)
(4.64297 -0.126992 0)
(4.82054 0.174947 0)
(4.28718 -0.14924 0)
(3.52553 -0.131982 0)
(2.53336 0.842088 0)
(1.78557 0.697398 0)
(1.46238 -0.48254 0)
(2.50465 -0.466991 0)
(3.56274 0.11647 0)
(4.32036 0.195129 0)
(4.92469 0.0753715 0)
(5.11461 0.0804905 0)
(4.56555 -0.2764 0)
(3.75714 -0.239247 0)
(2.68488 1.17966 0)
(1.96634 1.12989 0)
(1.6666 1.64334 0)
(2.51874 1.80153 0)
(3.77732 -0.321294 0)
(4.52028 -0.316341 0)
(5.14737 0.270158 0)
(5.32981 -0.0122138 0)
(4.75023 0.180747 0)
(4.01479 0.123921 0)
(2.96577 -0.580539 0)
(1.97636 -0.546371 0)
(1.81093 1.43572 0)
(2.85338 1.62388 0)
(4.0968 -0.256259 0)
(4.83908 -0.298233 0)
(5.45178 0.239133 0)
(5.62122 0.0197934 0)
(4.99687 0.538595 0)
(4.32889 0.3619 0)
(3.20318 -1.67062 0)
(2.20137 -1.59242 0)
(2.13463 -0.899769 0)
(2.9678 -0.885761 0)
(4.17572 0.259187 0)
(5.07511 0.346039 0)
(5.74911 0.083662 0)
(5.91757 0.0784451 0)
(5.26659 0.31879 0)
(4.51216 0.233537 0)
(3.23429 -1.04976 0)
(1.95515 -1.04669 0)
(2.48684 -2.3168 0)
(3.11672 -2.49928 0)
(4.43132 0.381494 0)
(5.3425 0.563905 0)
(6.05563 -0.23639 0)
(6.24463 0.0545522 0)
(5.62348 0.0182777 0)
(4.76791 -0.0324385 0)
(3.58247 -0.0401442 0)
(2.10924 -0.0125422 0)
(2.56157 -1.99473 0)
(3.39985 -2.14168 0)
(4.76015 0.357548 0)
(5.66984 0.580445 0)
(6.36428 -0.0720302 0)
(6.57325 0.117225 0)
(5.92241 -0.0812365 0)
(5.01509 -0.104197 0)
(3.71514 0.42667 0)
(2.39738 0.339566 0)
(2.57718 -1.35508 0)
(3.69398 -1.39934 0)
(5.09294 0.284743 0)
(6.01415 0.45369 0)
(6.71323 0.0526845 0)
(6.94497 0.156489 0)
(6.25792 -0.186038 0)
(5.30199 -0.22173 0)
(3.90343 0.986533 0)
(2.74288 0.879671 0)
(2.44537 -0.273328 0)
(4.09438 -0.188739 0)
(5.4364 0.118484 0)
(6.37279 0.152894 0)
(7.07345 0.143734 0)
(7.28656 0.152612 0)
(6.61471 -0.154914 0)
(5.62972 -0.188276 0)
(4.137 0.965903 0)
(2.76284 0.840398 0)
(3.03191 0.855061 0)
(4.28379 1.03644 0)
(5.81546 -0.168335 0)
(6.78557 -0.142725 0)
(7.50979 0.200455 0)
(7.79661 0.168425 0)
(7.11604 -0.2466 0)
(6.08208 -0.223955 0)
(4.48403 1.34773 0)
(3.2002 1.28684 0)
(2.99079 3.00572 0)
(4.16156 3.22326 0)
(6.05708 -0.548675 0)
(7.03782 -0.594976 0)
(7.88099 0.430955 0)
(8.19143 -0.142844 0)
(7.4115 0.506266 0)
(6.53094 0.324389 0)
(5.13551 -2.13184 0)
(3.72897 -1.98492 0)
(3.78133 -1.04009 0)
(4.81855 -0.929635 0)
(6.5647 0.284089 0)
(7.89282 0.425121 0)
(8.57651 0.234512 0)
(9.00097 0.6153 0)
(8.43079 -0.321111 0)
(7.52375 -0.299785 0)
(5.84812 2.42818 0)
(4.60863 1.93593 0)
(4.28715 -0.411916 0)
(6.92059 -0.182092 0)
(8.49265 0.189267 3.53647e-19)
(9.03922 0.10446 0)
(9.4148 0.125071 0)
(9.92991 0.422353 -2.76213e-17)
(9.66841 0.426631 3.28617e-17)
(9.13404 0.289274 -2.99412e-19)
(8.00688 0.22692 0)
(5.7472 0.208903 0)
(6.98976 0.224368 -4.11023e-18)
(8.79598 0.34928 0)
(9.58422 0.435802 -4.44475e-19)
(9.98714 0.45055 1.39316e-18)
(10.202 0.509686 -2.1106e-18)
(10.3982 0.559052 1.94767e-18)
(10.2605 0.506288 -1.06157e-17)
(9.98825 0.457398 1.16527e-17)
(9.41098 0.394436 -3.35066e-18)
(7.99095 0.304925 3.16481e-18)
(8.70718 0.327821 2.59675e-18)
(9.88599 0.412022 2.8134e-18)
(10.3024 0.480676 0)
(10.4852 0.533335 0)
(10.5636 0.5886 -1.44166e-17)
(10.7082 0.618928 0)
(10.6732 0.565682 -7.87532e-18)
(10.5498 0.51473 1.33408e-17)
(10.228 0.451131 -4.95899e-18)
(9.2012 0.364597 -9.01059e-18)
(9.59142 0.37405 4.07989e-24)
(10.514 0.457976 2.23816e-18)
(10.7631 0.530115 -6.13023e-18)
(10.8404 0.587644 3.69001e-18)
(10.8413 0.644503 6.57226e-18)
(10.9672 0.679472 -9.37842e-18)
(10.9954 0.624185 6.96994e-18)
(10.9536 0.568835 -2.85909e-18)
(10.7561 0.503789 2.04394e-18)
(9.92128 0.42306 5.74062e-18)
(10.2012 0.45955 9.03521e-19)
(10.9665 0.538043 -1.91077e-18)
(11.1251 0.607789 2.65176e-24)
(11.1377 0.664654 -3.35912e-18)
(11.0862 0.71941 1.56869e-18)
(11.1999 0.757269 1.48232e-18)
(11.269 0.70781 -4.09218e-19)
(11.2803 0.656449 -2.59082e-18)
(11.1547 0.593237 -1.81947e-18)
(10.4432 0.517864 8.61828e-19)
(10.6589 0.562242 3.31912e-18)
(11.3273 0.634248 0)
(11.4218 0.704075 0)
(11.3881 0.756013 3.96717e-19)
(11.2993 0.804049 3.04319e-18)
(11.3923 0.855527 0)
(11.4995 0.811722 0)
(11.5536 0.764857 -1.59918e-18)
(11.4854 0.699758 4.96631e-18)
(10.8509 0.636747 -3.2337e-18)
(11.0261 0.708305 3.13778e-18)
(11.6311 0.757809 -1.60128e-18)
(11.6754 0.828459 7.7287e-19)
(11.5997 0.871315 7.3602e-19)
(11.4714 0.911377 -2.77849e-18)
(11.5397 0.977963 0)
(11.6885 0.945886 -1.0764e-18)
(11.7861 0.910455 1.50795e-18)
(11.7683 0.837922 3.11561e-18)
(11.2017 0.817435 -3.0454e-23)
(11.2594 0.961969 6.21615e-18)
(11.8469 0.96068 -3.05175e-18)
(11.8601 1.00687 0)
(11.7535 1.02702 -3.57621e-19)
(11.5973 1.04617 -2.74809e-18)
(11.6311 1.09044 -6.95338e-19)
(11.7911 1.08065 -1.06092e-18)
(11.9041 1.06996 -7.21953e-19)
(11.8979 1.02901 3.73238e-18)
(11.2929 1.01778 5.90886e-18)
(11.3859 1.04426 -1.41553e-17)
(11.9633 1.05816 -3.63793e-18)
(11.9458 1.11174 2.10817e-18)
(11.8183 1.12211 3.42291e-19)
(11.645 1.12986 3.3274e-19)
(11.6594 1.15804 1.29478e-18)
(11.8466 1.15393 -1.67398e-18)
(11.9904 1.14678 0)
(12.0351 1.08989 0)
(11.5083 1.09155 0)
(11.6264 1.12568 0)
(12.1007 1.1194 -2.83507e-18)
(12.0311 1.17497 6.14828e-18)
(11.872 1.1775 -2.2783e-18)
(11.6716 1.17843 -1.26849e-18)
(11.6753 1.19156 1.18431e-18)
(11.8926 1.19301 0)
(12.0677 1.1969 2.03413e-18)
(12.1592 1.13914 -1.44224e-18)
(11.7482 1.14638 1.92144e-17)
(11.8627 1.17849 3.70807e-22)
(12.2122 1.16127 1.5175e-18)
(12.1039 1.2225 -2.82479e-18)
(11.9158 1.21192 -9.94538e-18)
(11.6811 1.20582 7.71465e-18)
(11.7629 1.22206 2.94504e-17)
(11.9688 1.23194 -6.77975e-18)
(12.1499 1.24792 -3.35576e-18)
(12.2676 1.17732 0)
(11.9586 1.21536 -2.37487e-17)
(12.0222 1.25003 6.24981e-18)
(12.3177 1.18947 -7.45753e-18)
(12.1959 1.25859 -3.86727e-18)
(12.0215 1.23684 -5.29022e-18)
(11.8265 1.23106 5.89772e-18)
(11.8047 1.22788 -4.60361e-19)
(12.0247 1.24079 -2.88908e-18)
(12.2155 1.26629 8.64184e-18)
(12.3488 1.20307 -2.86665e-18)
(12.0841 1.27513 3.26319e-18)
(12.1762 1.30027 3.32997e-18)
(12.3767 1.21714 -1.94719e-18)
(12.2236 1.27447 -9.41603e-19)
(12.02 1.24649 0)
(11.7883 1.22701 -8.39647e-19)
(11.7675 1.22662 -8.08332e-19)
(12.0112 1.25182 -3.47233e-18)
(12.2241 1.28625 3.7376e-18)
(12.3935 1.23872 -1.00023e-18)
(12.2561 1.32775 8.17226e-23)
(12.316 1.35869 3.17427e-17)
(12.3927 1.25278 -2.00846e-18)