/*--------------------------------*- C++ -*----------------------------------*\
| =========                 |                                                 |
| \\      /  F ield         | OpenFOAM: The Open Source CFD Toolbox           |
|  \\    /   O peration     | Version:  v2006                                 |
|   \\  /    A nd           | Website:  www.openfoam.com                      |
|    \\/     M anipulation  |                                                 |
\*---------------------------------------------------------------------------*/
FoamFile
{
    version     2.0;
    format      ascii;
    class       volScalarField;
    location    "0.085";
    object      Ma;
}
// * * * * * * * * * * * * * * * * * * * * * * * * * * * * * * * * * * * * * //

dimensions      [0 0 0 0 0 0 0];


internalField   nonuniform List<scalar> 
16277
(
0.139391
0.139392
0.139391
0.13939
0.139389
0.139384
0.139369
0.139325
0.139223
0.139061
0.138856
0.138629
0.138396
0.138162
0.137926
0.137685
0.137437
0.13718
0.136911
0.136632
0.13634
0.136038
0.135725
0.135401
0.135066
0.13472
0.134365
0.133998
0.133622
0.133236
0.13284
0.132435
0.132021
0.131598
0.131167
0.130728
0.130282
0.129828
0.129367
0.1289
0.128427
0.127949
0.127466
0.126978
0.126487
0.125992
0.125494
0.124994
0.124492
0.123989
0.123485
0.122981
0.122477
0.121975
0.121474
0.120975
0.12048
0.119987
0.119499
0.119016
0.118538
0.118066
0.1176
0.117142
0.116691
0.116248
0.115815
0.115391
0.114977
0.114573
0.114181
0.1138
0.113431
0.113075
0.112732
0.112403
0.112087
0.111782
0.111486
0.111196
0.110909
0.110632
0.11039
0.110219
0.110144
0.110142
0.110172
0.110207
0.110235
0.110232
0.110211
0.11014
0.109962
0.109664
0.10918
0.108622
0.106571
0.105256
0.108647
0.109316
0.109386
0.108499
0.103772
0.102304
0.108323
0.10945
0.109443
0.108053
0.100955
0.0997105
0.107767
0.109402
0.109289
0.107397
0.0985494
0.0975
0.10706
0.10917
0.108998
0.106678
0.0965073
0.0956374
0.106347
0.108846
0.108639
0.105946
0.0947949
0.0940427
0.105608
0.108453
0.108216
0.105198
0.0933006
0.0926301
0.104858
0.108009
0.107754
0.104448
0.0919646
0.0913631
0.104117
0.107539
0.107264
0.103704
0.0907495
0.0901908
0.103372
0.107034
0.106742
0.102953
0.0896137
0.089091
0.102624
0.106503
0.106205
0.10221
0.0885515
0.0880589
0.101886
0.10596
0.105653
0.101472
0.0875447
0.0870738
0.10115
0.105402
0.105085
0.100735
0.086579
0.086125
0.100415
0.104828
0.104503
0.0999982
0.0856452
0.0852043
0.0996772
0.10424
0.103906
0.0992582
0.084736
0.0843048
0.0989356
0.103636
0.103293
0.0985132
0.083845
0.0834207
0.0981878
0.103016
0.102664
0.0977608
0.0829669
0.0825474
0.0974315
0.102379
0.102018
0.0969994
0.0820977
0.081681
0.0966654
0.101724
0.101353
0.0962275
0.0812337
0.0808185
0.0958878
0.101051
0.100669
0.0954433
0.0803721
0.0799569
0.0950969
0.100357
0.0999649
0.094645
0.0795101
0.0790937
0.094291
0.0996429
0.0992391
0.0938312
0.0786455
0.0782265
0.0934691
0.0989062
0.0984903
0.0930003
0.0777755
0.077353
0.0926293
0.0981461
0.0977175
0.0921509
0.0768981
0.076471
0.0917701
0.0973613
0.0969194
0.0912812
0.0760112
0.0755783
0.0908897
0.0965505
0.0960945
0.0903895
0.0751125
0.074673
0.0899865
0.0957122
0.0952416
0.0894742
0.0742001
0.0737528
0.0890589
0.0948451
0.0943593
0.0885338
0.073272
0.072816
0.0881052
0.0939479
0.0934461
0.0875665
0.0723263
0.0718609
0.087124
0.0930192
0.092501
0.0865712
0.0713615
0.0708858
0.0861142
0.0920581
0.091523
0.0855467
0.0703762
0.0698899
0.0850746
0.0910635
0.0905113
0.0844922
0.0693695
0.0688722
0.0840048
0.0900351
0.0894655
0.0834073
0.0683409
0.0678327
0.0829046
0.0889726
0.0883859
0.0822922
0.0672908
0.0667723
0.0817745
0.0878765
0.0872733
0.0811481
0.0662204
0.0656924
0.0806162
0.0867481
0.0861295
0.0799768
0.0651316
0.0645955
0.0794322
0.0855898
0.0849573
0.0787815
0.0640276
0.0634856
0.0782263
0.084405
0.0837608
0.0775668
0.0629131
0.0623681
0.0770038
0.0831985
0.0825459
0.076339
0.0617943
0.0612504
0.0757721
0.0819773
0.0813203
0.0751066
0.06068
0.0601424
0.0745411
0.0807502
0.0800944
0.0738807
0.0595812
0.0590566
0.0733232
0.0795288
0.0788811
0.0726753
0.0585119
0.0580087
0.0721342
0.0783277
0.0776967
0.0715079
0.0574897
0.0570178
0.0709932
0.0771652
0.0765615
0.0703998
0.0565355
0.0561073
0.069924
0.0760634
0.0754995
0.0693768
0.0556747
0.0553039
0.068954
0.0750484
0.0745386
0.0684681
0.0549358
0.0546414
0.0681126
0.0741496
0.0737102
0.0677055
0.0543526
0.0541647
0.0674344
0.0733976
0.0730465
0.0671243
0.053967
0.0538987
0.0669586
0.0728339
0.0725833
0.0667596
0.0538019
0.0538649
0.0667134
0.0724851
0.0723465
0.0666362
0.0538768
0.0540746
0.0667166
0.0723706
0.0723518
0.0667673
0.0541982
0.0545171
0.066966
0.0724917
0.0725849
0.0671326
0.0547485
0.0552012
0.067466
0.072858
0.0730785
0.0677649
0.0555625
0.056143
0.0682364
0.0734901
0.0738316
0.068655
0.0566071
0.0572521
0.0692139
0.0743337
0.0747588
0.0697103
0.0577703
0.0584529
0.0703322
0.0753304
0.0758153
0.0708802
0.0589972
0.0596932
0.0715393
0.0764333
0.0769582
0.0721172
0.0602425
0.0609338
0.072794
0.0776041
0.0781505
0.0733822
0.0614708
0.0621407
0.0740577
0.0788058
0.0793556
0.0746384
0.0626483
0.0632823
0.0752958
0.0800033
0.0805405
0.0758529
0.0637472
0.0643339
0.0764784
0.081166
0.0816771
0.0769988
0.064746
0.0652771
0.0775814
0.0822683
0.0827421
0.0780548
0.0656292
0.0660996
0.0785858
0.0832896
0.0837174
0.079003
0.0663903
0.0667972
0.0794773
0.0842143
0.0845885
0.079832
0.0670307
0.0673708
0.0802475
0.085031
0.0853511
0.0805419
0.0675475
0.0678233
0.0808988
0.085738
0.0860043
0.0811341
0.0679465
0.0681628
0.0814346
0.0863362
0.0865505
0.0816141
0.0682376
0.0684011
0.0818621
0.0868303
0.0869963
0.0819911
0.0684341
0.0685536
0.0821929
0.0872296
0.0873531
0.082278
0.0685525
0.0686365
0.0824403
0.0875459
0.0876326
0.0824884
0.0686086
0.0686651
0.0826179
0.0877914
0.0878473
0.0826357
0.068617
0.0686532
0.0827387
0.0879782
0.0880087
0.0827322
0.0685903
0.0686116
0.0828142
0.0881168
0.088127
0.0827885
0.0685384
0.0685489
0.0828538
0.0882161
0.0882095
0.0828132
0.0684685
0.0684726
0.0828663
0.0882848
0.0882655
0.0828148
0.0683877
0.068387
0.0828583
0.0883294
0.0883
0.0827986
0.0682993
0.0682958
0.0828348
0.0883552
0.0883173
0.0827686
0.0682064
0.0682017
0.0827995
0.0883656
0.0883221
0.0827284
0.0681112
0.0681051
0.0827555
0.0883659
0.0883175
0.082681
0.068014
0.0680085
0.0827055
0.0883577
0.0883055
0.0826284
0.0679177
0.0679137
0.0826517
0.088343
0.0882876
0.0825727
0.0678231
0.0678198
0.0825949
0.088323
0.0882663
0.0825158
0.0677311
0.0677295
0.0825378
0.0883008
0.0882433
0.0824587
0.0676421
0.0676446
0.0824831
0.0882792
0.0882216
0.0824052
0.0675592
0.0675646
0.082432
0.0882593
0.0882045
0.0823588
0.0674861
0.0674963
0.0823904
0.0882575
0.0882163
0.0823279
0.0674137
0.0675151
0.0824021
0.0882999
0.0882842
0.0824077
0.0674926
0.0677136
0.0826165
0.0884753
0.0886405
0.082857
0.06814
0.0689805
0.0834279
0.0891698
0.090712
0.0857234
0.0722873
0.0715791
0.0829917
0.0881989
0.091614
0.094126
0.095583
0.096083
0.0963885
0.0969925
0.0972351
0.0975011
0.0976205
0.0977226
0.097745
0.0977132
0.0976393
0.0974447
0.0972428
0.0967365
0.0964482
0.0961262
0.0957303
0.0950518
0.0933216
0.0895829
0.0817479
0.0717711
0.0512106
0.0496107
0.0707486
0.0809463
0.0800854
0.0697861
0.0483514
0.0475455
0.0691528
0.0795603
0.0792981
0.0688855
0.0469438
0.0468576
0.0687655
0.0791866
0.0790758
0.0686562
0.0465307
0.0465189
0.0685855
0.079085
0.0790968
0.0685974
0.0465348
0.0465624
0.0686218
0.0791193
0.0791477
0.0686577
0.0466029
0.0466485
0.0687011
0.0791838
0.079216
0.0687432
0.0466952
0.0467457
0.0687909
0.0792556
0.0792942
0.0688395
0.0467993
0.0468558
0.0688926
0.0793379
0.0793789
0.0689445
0.0469119
0.0469697
0.0689972
0.0794224
0.0794654
0.0690517
0.0470297
0.0470912
0.0691092
0.0795131
0.0795568
0.0691649
0.0471527
0.0472167
0.0692231
0.079604
0.079649
0.06928
0.0472789
0.0473434
0.0693405
0.0796996
0.0797458
0.069399
0.0474085
0.0474723
0.0694581
0.079794
0.0798424
0.0695181
0.0475382
0.0476031
0.0695793
0.0798936
0.0799407
0.0696381
0.0476687
0.047734
0.0696993
0.0799918
0.080039
0.0697577
0.0477984
0.0478667
0.0698209
0.0800917
0.0801418
0.0698834
0.0479359
0.0480032
0.0699455
0.0801934
0.0802441
0.0700089
0.0480744
0.0481462
0.0700759
0.0803001
0.0803514
0.0701401
0.0482176
0.0482903
0.070207
0.0804071
0.0804598
0.0702722
0.0483622
0.0484377
0.0703412
0.080518
0.080573
0.0704086
0.0485121
0.0485854
0.070476
0.0806294
0.0806867
0.0705458
0.0486615
0.0487382
0.0706173
0.0807476
0.0808041
0.0706854
0.048811
0.0488852
0.0707555
0.0808646
0.0809237
0.0708257
0.0489587
0.0490331
0.0708986
0.0809881
0.0810485
0.070969
0.0491052
0.049179
0.0710419
0.0811134
0.0811783
0.0711159
0.0492532
0.0493272
0.0711909
0.0812465
0.0813122
0.0712647
0.0493983
0.0494717
0.071342
0.0813839
0.0814543
0.0714206
0.0495455
0.0496196
0.0715016
0.0815298
0.0816044
0.0715826
0.0496911
0.0497644
0.071668
0.0816855
0.0817674
0.0717552
0.0498365
0.0499087
0.0718445
0.0818539
0.08194
0.0719336
0.0499766
0.0500438
0.0720271
0.0820343
0.0821294
0.0721226
0.0501087
0.0501723
0.0722201
0.082229
0.0823298
0.0723194
0.0502318
0.0502907
0.0724232
0.0824385
0.0825502
0.072531
0.0503477
0.0504032
0.0726437
0.0826695
0.0827898
0.0727594
0.0504575
0.0505126
0.0728842
0.0829224
0.0830597
0.0730155
0.0505691
0.0506259
0.0731546
0.0832066
0.0833585
0.0733007
0.0506834
0.0507437
0.0734562
0.0835226
0.0836952
0.0736224
0.050808
0.0508767
0.0737999
0.0838798
0.0840696
0.0739875
0.0509528
0.0510377
0.0741902
0.0842751
0.0844939
0.0744093
0.0511367
0.0512529
0.0746432
0.0847242
0.0849647
0.0748946
0.0513863
0.05155
0.0751725
0.0852259
0.0855039
0.0754758
0.0517423
0.0519748
0.0758078
0.0858024
0.0861152
0.0761626
0.0522471
0.0525717
0.076551
0.0864474
0.0867985
0.0769736
0.0529535
0.0534001
0.0774439
0.0871783
0.0875873
0.0779614
0.0539338
0.0545609
0.0785242
0.0880209
0.0884832
0.0791408
0.0552806
0.0561385
0.0798405
0.0889995
0.0896038
0.0806755
0.0572063
0.0585401
0.0816239
0.0902692
0.0909322
0.0826044
0.0598693
0.0611306
0.0835495
0.0915367
0.0920224
0.084331
0.062354
0.0634266
0.0847748
0.0923432
0.0926014
0.0854181
0.0644791
0.0654507
0.0857915
0.0928107
0.0929599
0.0862047
0.0665321
0.0676814
0.086617
0.0931221
0.0931519
0.0869045
0.0687176
0.0696174
0.0871643
0.0931375
0.093128
0.0874494
0.0706024
0.0716703
0.0877248
0.0931251
0.0930739
0.0879446
0.0727518
0.0733552
0.0881291
0.0928794
0.0922771
0.087739
0.0732292
0.0584125
0.0806333
0.0892376
0.0916194
0.0839437
0.0620956
0.062057
0.0843144
0.0917458
0.0916285
0.0845136
0.0630119
0.0642572
0.0846054
0.0914634
0.0915351
0.085067
0.0657573
0.0674193
0.0854047
0.0915117
0.0915324
0.0859222
0.0690639
0.0705707
0.0861685
0.0913852
0.0914067
0.086605
0.0720447
0.073451
0.0869444
0.0913592
0.0912458
0.0872385
0.0746935
0.075023
0.0871019
0.090722
0.0883785
0.0815857
0.0647119
0.068698
0.084705
0.0902786
0.0903659
0.0851276
0.069557
0.0711709
0.0857398
0.0903857
0.0903825
0.0860676
0.0723907
0.0735526
0.0862979
0.090293
0.090195
0.0866002
0.0747629
0.0753556
0.0866066
0.0899015
0.0892593
0.0862283
0.0756702
0.0666148
0.0819113
0.0870984
0.0886095
0.0842144
0.0700336
0.0709611
0.0843954
0.0884597
0.0880798
0.0844524
0.0721519
0.0732901
0.0844068
0.0877225
0.0873791
0.0844983
0.0744962
0.0747679
0.0841182
0.0865269
0.0846598
0.0799655
0.0672083
0.0711152
0.0821806
0.0858127
0.0855843
0.0824636
0.0721096
0.0731296
0.0823862
0.0851369
0.0845908
0.0822931
0.0738017
0.0737019
0.0815777
0.0835363
0.0819291
0.0781285
0.0673241
0.0703903
0.0796688
0.0824638
0.081613
0.0792768
0.0707427
0.071588
0.0788429
0.0807105
0.079344
0.0779277
0.0713359
0.0661954
0.0748394
0.0777819
0.0777302
0.0756545
0.0689049
0.0689119
0.0747981
0.0763806
0.0747752
0.0736563
0.0688214
0.0677184
0.0717644
0.0724634
0.070143
0.0686793
0.0630922
0.0635418
0.067574
0.0684337
0.0650171
0.0646713
0.0616451
0.056783
0.0608924
0.0617942
0.0586637
0.0582198
0.0558543
0.0517676
0.0526343
0.052549
0.0452075
0.0449202
0.0437163
0.0348586
0.034754
0.0351831
0.0239802
0.0220377
0.0206155
0.00593258
0.00913293
0.0150051
0.0295603
0.0279386
0.0283312
0.053608
0.0519392
0.0512228
0.0693137
0.0707713
0.0722005
0.0833238
0.0831552
0.0822574
0.0866979
0.0866287
0.0854392
0.0890324
0.0917229
0.0917641
0.0932297
0.0924441
0.0889883
0.0908879
0.0952221
0.0958867
0.096843
0.0952485
0.0906159
0.087583
0.0940829
0.0966757
0.0984445
0.0969548
0.0893812
0.0867794
0.0948551
0.0975347
0.0994273
0.0976618
0.0904321
0.0894002
0.0969965
0.0994249
0.0981424
0.0950471
0.0864765
0.0897605
0.0977574
0.0998308
0.0995657
0.096652
0.0880889
0.0850525
0.0944831
0.0981326
0.0998628
0.0975816
0.0888692
0.0872531
0.0964545
0.0995361
0.0978002
0.0939028
0.0837804
0.0877537
0.0968888
0.0995503
0.0992966
0.0962066
0.0868251
0.0833394
0.0935024
0.0973192
0.0991465
0.0964619
0.0874782
0.0866814
0.0959512
0.0991318
0.0971525
0.0932916
0.0831319
0.0867804
0.0961371
0.098906
0.0988387
0.0955208
0.0858888
0.0827255
0.0929928
0.0969584
0.098817
0.0960337
0.0866412
0.0855427
0.0953112
0.0987144
0.0968207
0.0927361
0.0822349
0.0864787
0.0958488
0.0986721
0.098631
0.0953419
0.0854824
0.0838768
0.0940036
0.0980019
0.0957569
0.0906029
0.0793938
0.0837853
0.0946903
0.0977567
0.097755
0.0940155
0.0828401
0.0790367
0.0912498
0.0955285
0.0977311
0.094562
0.0838904
0.0824734
0.0936156
0.0976476
0.0955492
0.090504
0.0785803
0.0834216
0.0945708
0.0976679
0.0976723
0.093903
0.0825445
0.0788179
0.0910775
0.0954179
0.0976923
0.0943785
0.083424
0.0820803
0.0936863
0.097576
0.0954536
0.0909914
0.0786024
0.0837809
0.0946412
0.0979467
0.0978833
0.0939249
0.0826726
0.0789914
0.0905954
0.0956798
0.097856
0.0946085
0.0835369
0.0825856
0.0937155
0.0979357
0.0959814
0.0907702
0.0791853
0.0839771
0.0951183
0.0982991
0.0983525
0.0941576
0.0830704
0.078929
0.0907048
0.0960125
0.0983387
0.0950791
0.0832966
0.0811821
0.0928897
0.0971917
0.0996196
0.0966764
0.0863838
0.0858216
0.0961119
0.099693
0.0976801
0.0934015
0.0826597
0.0867266
0.0968123
0.0998815
0.0997647
0.0960074
0.0854793
0.0824473
0.093514
0.0979312
0.10038
0.0975007
0.0874577
0.0866239
0.0969895
0.100611
0.0987299
0.0943176
0.0834372
0.0877353
0.0979581
0.100896
0.100768
0.0969448
0.0862053
0.0825851
0.093968
0.0987971
0.101148
0.0980361
0.087612
0.087079
0.0975705
0.101535
0.099568
0.0945654
0.0836005
0.0874862
0.0988155
0.101801
0.100426
0.0963693
0.0851364
0.0888993
0.0995171
0.102515
0.10244
0.0987549
0.0878978
0.0851955
0.0963095
0.10065
0.103155
0.100205
0.0898822
0.0892784
0.0997054
0.103268
0.101244
0.0967017
0.085934
0.089652
0.100705
0.103535
0.10216
0.098154
0.0870077
0.0910932
0.101363
0.104348
0.104616
0.101057
0.0907762
0.0880928
0.098721
0.102929
0.105274
0.10233
0.0923112
0.0916977
0.101773
0.105335
0.103343
0.0988804
0.0883106
0.0917183
0.10276
0.10558
0.104138
0.100084
0.0889086
0.0930164
0.103286
0.106207
0.106595
0.103083
0.0927868
0.0900308
0.100844
0.10497
0.107257
0.104394
0.0941928
0.0931387
0.103873
0.10735
0.105186
0.101209
0.089652
0.0936467
0.104584
0.107637
0.106142
0.102332
0.0906708
0.0950559
0.105519
0.108369
0.108709
0.104942
0.094624
0.0915597
0.102332
0.106984
0.109342
0.106512
0.0954879
0.0934824
0.10446
0.108339
0.110643
0.107912
0.0978059
0.0965943
0.107061
0.110443
0.108186
0.104067
0.0931439
0.0965655
0.107352
0.110457
0.109369
0.10542
0.0942434
0.0992552
0.109188
0.111963
0.112068
0.108668
0.098423
0.095267
0.10604
0.110098
0.112598
0.109687
0.0992844
0.0968262
0.107782
0.111464
0.113682
0.110958
0.100911
0.0998978
0.109917
0.113497
0.111274
0.106777
0.0960912
0.0997336
0.110664
0.113423
0.112733
0.108974
0.0981562
0.102542
0.112684
0.115213
0.11539
0.112089
0.101568
0.0980689
0.109414
0.113382
0.115699
0.112767
0.101952
0.099319
0.110803
0.114415
0.116765
0.114015
0.103314
0.100666
0.111513
0.115284
0.117196
0.114454
0.104355
0.104001
0.114058
0.117506
0.115872
0.11173
0.101244
0.104983
0.115515
0.118305
0.117308
0.113595
0.102804
0.106851
0.11699
0.119578
0.119491
0.116146
0.105612
0.102081
0.113462
0.117391
0.119693
0.116721
0.105687
0.102483
0.114437
0.118139
0.120404
0.117572
0.106387
0.104701
0.115831
0.11954
0.121975
0.119411
0.109336
0.108647
0.118681
0.122189
0.12046
0.116003
0.105639
0.108907
0.120005
0.122698
0.121453
0.117571
0.106481
0.110349
0.121149
0.123777
0.122597
0.119031
0.108302
0.111721
0.121877
0.124531
0.124258
0.120831
0.110336
0.107129
0.11822
0.122318
0.124897
0.122079
0.111345
0.109106
0.120348
0.123964
0.126405
0.123861
0.11317
0.111209
0.121889
0.125411
0.12757
0.125065
0.115174
0.114412
0.124239
0.127645
0.125847
0.121559
0.111263
0.114308
0.125227
0.12795
0.126558
0.122662
0.11171
0.115014
0.125975
0.128733
0.127746
0.124021
0.113166
0.117371
0.127399
0.129972
0.130201
0.126652
0.116815
0.113588
0.124031
0.128488
0.130718
0.128186
0.116646
0.114527
0.125772
0.129637
0.131833
0.129388
0.118233
0.116096
0.127178
0.130715
0.132775
0.130233
0.120023
0.119144
0.129146
0.1327
0.130665
0.126009
0.115458
0.118414
0.130024
0.132785
0.131876
0.127749
0.116683
0.120932
0.131868
0.134491
0.133477
0.129797
0.119011
0.122701
0.133298
0.135808
0.134749
0.131289
0.120729
0.124471
0.134349
0.136815
0.136741
0.133591
0.123439
0.120223
0.131018
0.1348
0.137142
0.134254
0.123487
0.120525
0.132246
0.135833
0.138107
0.135329
0.123924
0.121618
0.132994
0.136873
0.13923
0.136613
0.12586
0.124088
0.134712
0.138325
0.140556
0.138108
0.128196
0.127536
0.137318
0.140757
0.139079
0.134601
0.124376
0.127363
0.138719
0.141288
0.140183
0.136243
0.125151
0.128757
0.139903
0.142507
0.141281
0.137585
0.12655
0.130187
0.140911
0.143446
0.142234
0.138638
0.128037
0.131516
0.141589
0.144198
0.144342
0.140798
0.130921
0.127939
0.138168
0.142714
0.145054
0.142466
0.130954
0.1289
0.140005
0.144057
0.146438
0.143913
0.132685
0.130583
0.141652
0.145331
0.147483
0.144953
0.134131
0.132013
0.142799
0.146396
0.148482
0.145951
0.135948
0.134922
0.145236
0.148429
0.146422
0.142676
0.131417
0.134754
0.145803
0.148765
0.147518
0.143872
0.131729
0.136085
0.147508
0.15019
0.149153
0.145359
0.134172
0.137977
0.149012
0.151614
0.150499
0.146842
0.135914
0.139426
0.150161
0.152727
0.151685
0.148121
0.137512
0.141253
0.151339
0.153817
0.153951
0.150375
0.140551
0.137247
0.147564
0.152246
0.154488
0.15188
0.139987
0.137849
0.149036
0.153268
0.155423
0.152786
0.141191
0.138847
0.150262
0.154181
0.156609
0.153932
0.142799
0.140944
0.151861
0.155601
0.157941
0.15536
0.144582
0.142773
0.153452
0.157033
0.159319
0.15684
0.146896
0.146118
0.156017
0.159481
0.157753
0.153303
0.142904
0.146072
0.157409
0.160064
0.158967
0.154927
0.143903
0.147746
0.158896
0.161502
0.160343
0.156579
0.145539
0.14898
0.159992
0.162612
0.161351
0.157604
0.146755
0.150336
0.160994
0.163603
0.162678
0.159134
0.148568
0.152347
0.162411
0.164883
0.165109
0.161556
0.151749
0.14859
0.158852
0.163485
0.165726
0.163155
0.151164
0.14918
0.16049
0.164694
0.167115
0.164554
0.152882
0.150585
0.162168
0.165965
0.168322
0.165745
0.154367
0.152338
0.163524
0.1672
0.169423
0.166837
0.155841
0.153953
0.16478
0.16841
0.170683
0.168191
0.158047
0.157301
0.167333
0.170909
0.169247
0.164646
0.154169
0.157193
0.168916
0.171599
0.17062
0.166533
0.155174
0.159105
0.17065
0.173246
0.172103
0.168276
0.156794
0.160632
0.171911
0.174516
0.17344
0.16976
0.158699
0.162225
0.173185
0.175779
0.174803
0.171169
0.160345
0.164322
0.174552
0.177043
0.177258
0.173585
0.163601
0.160288
0.170834
0.175623
0.178017
0.175447
0.163078
0.161186
0.17258
0.176962
0.179402
0.176768
0.164947
0.162683
0.17435
0.17828
0.180821
0.178169
0.16649
0.164442
0.175906
0.179732
0.182155
0.17951
0.168106
0.1661
0.177281
0.181073
0.18355
0.180963
0.170036
0.168223
0.179034
0.18266
0.184992
0.182472
0.172406
0.171509
0.18187
0.185267
0.183581
0.179456
0.16846
0.172125
0.183313
0.186135
0.185139
0.181342
0.169706
0.173889
0.185289
0.187896
0.186833
0.183076
0.171793
0.175575
0.186702
0.189317
0.188253
0.184511
0.173634
0.177324
0.188077
0.190666
0.189728
0.186138
0.175449
0.179403
0.189554
0.192048
0.192291
0.188714
0.178491
0.175541
0.186208
0.190705
0.193169
0.190489
0.178763
0.1764
0.187894
0.192049
0.19464
0.191998
0.180309
0.178276
0.189814
0.193639
0.196136
0.193527
0.182052
0.180194
0.191428
0.195205
0.197825
0.195303
0.184255
0.18254
0.193494
0.197068
0.199452
0.197027
0.186788
0.185462
0.196201
0.199612
0.197886
0.193716
0.182387
0.186299
0.197655
0.200591
0.199477
0.195553
0.183639
0.187876
0.199554
0.202284
0.201204
0.197276
0.185727
0.189838
0.201184
0.203868
0.20292
0.199144
0.188006
0.191871
0.202876
0.20549
0.204698
0.201011
0.190049
0.194424
0.204722
0.207241
0.207757
0.204135
0.193702
0.190873
0.20179
0.206318
0.209014
0.206306
0.194579
0.192493
0.20396
0.208057
0.210708
0.208029
0.196278
0.193926
0.205535
0.209543
0.212013
0.209284
0.197729
0.19564
0.207052
0.210966
0.213654
0.211021
0.199832
0.197891
0.209108
0.212832
0.215332
0.212779
0.202203
0.201487
0.212276
0.215898
0.214375
0.20988
0.198693
0.202356
0.214187
0.217055
0.216172
0.212027
0.200279
0.20477
0.216482
0.219184
0.218455
0.214523
0.202934
0.207878
0.218986
0.221466
0.220723
0.217149
0.206106
0.20963
0.220461
0.222994
0.223123
0.219276
0.208318
0.205259
0.21645
0.221453
0.224086
0.221276
0.208592
0.20637
0.218634
0.223051
0.225922
0.223158
0.2108
0.20855
0.220816
0.224927
0.227786
0.225014
0.213165
0.211056
0.222933
0.226944
0.229701
0.227012
0.215918
0.21501
0.226752
0.230355
0.228773
0.224497
0.212078
0.216844
0.228839
0.23197
0.231289
0.227337
0.214502
0.220196
0.232254
0.234815
0.233818
0.229961
0.217811
0.221526
0.233549
0.236339
0.235194
0.231185
0.21907
0.223588
0.235057
0.237849
0.23819
0.233987
0.222403
0.21955
0.231182
0.236642
0.239631
0.236724
0.223544
0.221229
0.233958
0.238635
0.241686
0.23878
0.226046
0.223983
0.2366
0.240867
0.244197
0.241348
0.229053
0.226998
0.23941
0.243559
0.246609
0.2439
0.232234
0.231865
0.243748
0.247789
0.246748
0.241773
0.229848
0.234259
0.247132
0.249953
0.248535
0.243993
0.231047
0.235329
0.248251
0.251263
0.250047
0.245743
0.232843
0.237496
0.250137
0.253088
0.252131
0.247871
0.235174
0.240102
0.252114
0.255024
0.255671
0.251472
0.239127
0.236231
0.248914
0.254098
0.257267
0.254132
0.240901
0.238699
0.251826
0.256494
0.260094
0.257227
0.244347
0.242293
0.255363
0.259659
0.263123
0.260417
0.248274
0.248622
0.260725
0.264771
0.26341
0.258161
0.246195
0.249627
0.262969
0.266126
0.264564
0.259679
0.246381
0.251097
0.264488
0.267705
0.266592
0.262004
0.248577
0.25379
0.266878
0.269929
0.269176
0.264773
0.251653
0.257073
0.269433
0.27244
0.273344
0.269072
0.256236
0.253451
0.266648
0.271822
0.275257
0.27189
0.258758
0.256384
0.270027
0.274625
0.27876
0.275861
0.262726
0.261073
0.274496
0.278763
0.282609
0.280285
0.268823
0.268576
0.280393
0.283841
0.281759
0.27698
0.264146
0.267576
0.281117
0.284467
0.283169
0.278418
0.264416
0.269917
0.283569
0.286753
0.285997
0.281415
0.267492
0.273359
0.286382
0.289451
0.290454
0.286011
0.272416
0.269539
0.283436
0.288932
0.292508
0.289038
0.275344
0.272807
0.287078
0.291936
0.296164
0.293077
0.279751
0.279647
0.293758
0.298302
0.297627
0.292242
0.277915
0.285278
0.299051
0.301991
0.30074
0.296175
0.281963
0.285965
0.30039
0.303803
0.30227
0.297279
0.282429
0.288127
0.302134
0.305546
0.306267
0.301361
0.286839
0.283629
0.29858
0.304615
0.308576
0.304848
0.289793
0.287227
0.302678
0.307942
0.31233
0.309028
0.294587
0.294125
0.309294
0.314197
0.312903
0.306943
0.291246
0.29843
0.313755
0.317387
0.317737
0.312628
0.297173
0.306656
0.320397
0.323024
0.323921
0.319651
0.305121
0.29949
0.315418
0.321184
0.324442
0.320441
0.304511
0.300787
0.317433
0.323029
0.327215
0.323525
0.308166
0.307149
0.323283
0.328656
0.327116
0.320491
0.303999
0.311096
0.327676
0.331752
0.33123
0.325339
0.308497
0.317195
0.332898
0.336418
0.339059
0.333708
0.317142
0.314985
0.332132
0.338451
0.344281
0.34134
0.326143
0.324137
0.339242
0.34409
0.347751
0.344367
0.328869
0.325656
0.342371
0.347518
0.344945
0.338558
0.320783
0.328024
0.345026
0.349456
0.34839
0.342569
0.324491
0.33298
0.349443
0.353288
0.355362
0.349711
0.332328
0.329471
0.347145
0.354181
0.359453
0.355415
0.338228
0.336702
0.354194
0.360142
0.36669
0.363854
0.34905
0.352247
0.36727
0.371103
0.369771
0.36454
0.348874
0.352403
0.368843
0.372962
0.372443
0.366683
0.348664
0.343689
0.362862
0.369954
0.375187
0.370616
0.352345
0.349018
0.368405
0.374516
0.380224
0.376256
0.358875
0.359024
0.377464
0.383217
0.382689
0.375634
0.356701
0.367267
0.384493
0.388554
0.393178
0.38784
0.369292
0.368979
0.387855
0.393736
0.399771
0.395911
0.377947
0.372883
0.393205
0.399263
0.395788
0.38804
0.366284
0.375248
0.395586
0.400843
0.399578
0.392571
0.371396
0.382469
0.401295
0.405804
0.409088
0.4027
0.382916
0.38109
0.401279
0.408919
0.415672
0.411491
0.393725
0.39731
0.416183
0.421459
0.422706
0.417
0.398034
0.407054
0.425259
0.428982
0.428221
0.422122
0.401353
0.394493
0.416582
0.424856
0.429929
0.424561
0.404279
0.402676
0.424529
0.431598
0.430751
0.422146
0.399639
0.413634
0.433728
0.438633
0.444315
0.437688
0.415914
0.418376
0.439814
0.44705
0.456332
0.45361
0.436052
0.432637
0.45299
0.457983
0.45679
0.448974
0.425314
0.41638
0.442316
0.452846
0.458764
0.452644
0.428615
0.427243
0.453218
0.461411
0.461565
0.45214
0.425061
0.446166
0.467677
0.472264
0.482267
0.478063
0.455434
0.459091
0.481874
0.48774
0.483687
0.474445
0.44764
0.455393
0.480925
0.487696
0.486786
0.478515
0.449576
0.446662
0.47742
0.488056
0.488063
0.474877
0.444267
0.47156
0.495384
0.499881
0.511289
0.506251
0.482118
0.481577
0.508122
0.515337
0.509343
0.497859
0.466067
0.476593
0.505627
0.513254
0.513734
0.505081
0.4727
0.472427
0.508097
0.518031
0.528621
0.518484
0.483398
0.481297
0.518333
0.527902
0.536118
0.527035
0.493674
0.481752
0.521361
0.532541
0.532192
0.519397
0.475823
0.478714
0.525034
0.536987
0.54217
0.528718
0.480113
0.469258
0.523066
0.540653
0.529125
0.509545
0.45002
0.483049
0.523782
0.536155
0.533279
0.522087
0.480463
0.470145
0.516697
0.5306
0.52444
0.507983
0.452079
0.434254
0.495848
0.514424
0.502291
0.481365
0.414105
0.391091
0.466
0.490109
0.478945
0.451939
0.371184
0.355176
0.440184
0.469651
0.461844
0.43004
0.341513
0.329388
0.420852
0.454902
0.448519
0.412308
0.318442
0.308576
0.404296
0.442556
0.436941
0.396768
0.299607
0.291444
0.389684
0.431623
0.426568
0.383005
0.283996
0.277168
0.376681
0.421729
0.417085
0.370701
0.270943
0.265301
0.36506
0.412627
0.408347
0.359745
0.260184
0.255542
0.354745
0.404237
0.400286
0.350041
0.251323
0.247502
0.345623
0.396477
0.392801
0.341467
0.244045
0.24093
0.337564
0.389244
0.385803
0.333895
0.238131
0.23563
0.330453
0.382471
0.379251
0.327225
0.233399
0.231417
0.324208
0.37614
0.373136
0.321382
0.229657
0.228098
0.318739
0.370234
0.367431
0.316264
0.226717
0.225504
0.313952
0.364724
0.362113
0.31179
0.224442
0.223518
0.309769
0.359597
0.357174
0.307872
0.222717
0.222028
0.306096
0.354845
0.352605
0.304428
0.221436
0.220933
0.302866
0.350455
0.348388
0.301399
0.220507
0.22015
0.300025
0.34641
0.344513
0.298733
0.219853
0.219609
0.297524
0.342705
0.340975
0.296385
0.21941
0.219252
0.295316
0.339328
0.337756
0.29431
0.219126
0.219033
0.293364
0.336262
0.334838
0.29247
0.218972
0.218932
0.291629
0.333487
0.332201
0.290833
0.218918
0.218917
0.290087
0.330985
0.329829
0.289382
0.218933
0.218952
0.288721
0.328735
0.327697
0.288095
0.218982
0.219012
0.287511
0.326717
0.325785
0.286958
0.219049
0.219079
0.286441
0.324906
0.32407
0.285949
0.219114
0.219144
0.285493
0.323284
0.322536
0.285059
0.219177
0.2192
0.284655
0.321832
0.321162
0.284271
0.219228
0.219251
0.283917
0.320536
0.31994
0.283583
0.219279
0.219296
0.283271
0.319379
0.318843
0.282975
0.219315
0.219328
0.282701
0.318342
0.317863
0.282442
0.219344
0.21935
0.282201
0.317413
0.316982
0.281972
0.219359
0.219363
0.28176
0.316579
0.316194
0.281559
0.21937
0.21937
0.281369
0.31583
0.315479
0.281186
0.219372
0.21937
0.281017
0.315152
0.314837
0.280854
0.219371
0.219364
0.2807
0.314538
0.31425
0.280552
0.219359
0.219351
0.280414
0.31398
0.31372
0.280282
0.219346
0.219334
0.280157
0.313474
0.313235
0.280035
0.219324
0.219312
0.279924
0.313012
0.312796
0.279817
0.219302
0.219288
0.279715
0.312592
0.312393
0.279616
0.219274
0.219259
0.279525
0.312208
0.31203
0.279439
0.219247
0.219231
0.279356
0.311859
0.311698
0.279277
0.219217
0.219202
0.279203
0.311543
0.311402
0.279136
0.21919
0.219178
0.279073
0.311261
0.311134
0.279013
0.219167
0.219154
0.278956
0.311004
0.310891
0.278905
0.219145
0.219136
0.278857
0.310774
0.310675
0.278814
0.21913
0.219122
0.278773
0.310567
0.31048
0.278737
0.21912
0.219115
0.278704
0.310384
0.310307
0.278675
0.219116
0.219115
0.278648
0.310219
0.310152
0.278625
0.21912
0.219123
0.278604
0.310073
0.310015
0.278587
0.219132
0.21914
0.278571
0.309943
0.309895
0.278562
0.219154
0.219167
0.278553
0.309831
0.309792
0.27855
0.219186
0.219203
0.278546
0.309734
0.309704
0.278549
0.219227
0.219251
0.278551
0.309654
0.309631
0.27856
0.219279
0.219308
0.278567
0.309587
0.309573
0.278582
0.219341
0.219374
0.278595
0.309535
0.309528
0.278615
0.219412
0.21945
0.278632
0.309496
0.309497
0.278657
0.219492
0.219534
0.27868
0.309471
0.309479
0.27871
0.21958
0.219626
0.278737
0.309457
0.309473
0.278771
0.219676
0.219726
0.278803
0.309457
0.309478
0.278841
0.219779
0.219832
0.278877
0.309466
0.309493
0.278919
0.219888
0.219945
0.278959
0.309488
0.309519
0.279004
0.220003
0.220062
0.279048
0.309518
0.309555
0.279096
0.220124
0.220185
0.279144
0.309558
0.309599
0.279195
0.220249
0.220313
0.279245
0.309606
0.309652
0.2793
0.220378
0.220444
0.279353
0.309663
0.309713
0.27941
0.220511
0.220579
0.279466
0.309728
0.309782
0.279526
0.220649
0.220719
0.279585
0.309801
0.309859
0.279648
0.220791
0.220863
0.279709
0.309881
0.309943
0.279775
0.220936
0.221011
0.279839
0.309968
0.310034
0.279907
0.221085
0.221161
0.279974
0.310062
0.310131
0.280044
0.221237
0.221314
0.280113
0.310162
0.310234
0.280185
0.221391
0.221469
0.280255
0.310267
0.310343
0.28033
0.221548
0.221627
0.280402
0.310379
0.310457
0.280478
0.221706
0.221785
0.280552
0.310495
0.310575
0.280629
0.221865
0.221945
0.280705
0.310615
0.310697
0.280783
0.222024
0.222104
0.280859
0.310739
0.310824
0.280939
0.222184
0.222265
0.281017
0.310867
0.310953
0.281097