/*--------------------------------*- C++ -*----------------------------------*\
| =========                 |                                                 |
| \\      /  F ield         | OpenFOAM: The Open Source CFD Toolbox           |
|  \\    /   O peration     | Version:  v2006                                 |
|   \\  /    A nd           | Website:  www.openfoam.com                      |
|    \\/     M anipulation  |                                                 |
\*---------------------------------------------------------------------------*/
FoamFile
{
    version     2.0;
    format      ascii;
    class       volScalarField;
    location    "0.008";
    object      T;
}
// * * * * * * * * * * * * * * * * * * * * * * * * * * * * * * * * * * * * * //

dimensions      [0 0 0 1 0 0 0];


internalField   nonuniform List<scalar> 
9148
(
298.008
298.008
298.009
298.009
298.009
298.011
298.014
298.02
298.028
298.038
298.048
298.058
298.069
298.081
298.094
298.107
298.121
298.136
298.151
298.167
298.183
298.2
298.218
298.235
298.254
298.272
298.291
298.31
298.33
298.349
298.369
298.389
298.409
298.428
298.448
298.468
298.487
298.507
298.526
298.545
298.564
298.582
298.6
298.617
298.635
298.651
298.667
298.683
298.698
298.712
298.726
298.739
298.752
298.764
298.775
298.786
298.796
298.805
298.814
298.82
298.825
298.827
298.829
298.831
298.833
298.833
298.834
298.836
298.841
298.848
298.857
298.897
298.9
298.852
298.839
298.83
298.846
298.905
298.907
298.839
298.821
298.812
298.833
298.905
298.901
298.828
298.804
298.797
298.823
298.896
298.89
298.817
298.789
298.783
298.812
298.883
298.876
298.806
298.776
298.771
298.801
298.869
298.862
298.797
298.766
298.761
298.793
298.856
298.85
298.789
298.758
298.754
298.785
298.845
298.839
298.782
298.751
298.748
298.779
298.833
298.827
298.775
298.745
298.741
298.77
298.82
298.812
298.766
298.737
298.732
298.76
298.804
298.795
298.754
298.727
298.721
298.746
298.785
298.775
298.74
298.715
298.708
298.731
298.766
298.757
298.724
298.701
298.694
298.716
298.748
298.741
298.71
298.688
298.681
298.703
298.734
298.728
298.698
298.676
298.671
298.692
298.722
298.718
298.689
298.668
298.664
298.685
298.713
298.71
298.683
298.662
298.66
298.68
298.706
298.703
298.679
298.659
298.658
298.676
298.699
298.695
298.675
298.657
298.656
298.673
298.692
298.689
298.673
298.657
298.657
298.671
298.686
298.684
298.671
298.658
298.659
298.671
298.683
298.682
298.672
298.66
298.662
298.673
298.683
298.684
298.676
298.666
298.669
298.678
298.686
298.691
298.683
298.674
298.679
298.687
298.695
298.702
298.695
298.687
298.694
298.701
298.708
298.717
298.711
298.704
298.713
298.72
298.725
298.736
298.732
298.725
298.736
298.742
298.745
298.757
298.756
298.751
298.764
298.768
298.769
298.783
298.784
298.78
298.795
298.797
298.797
298.814
298.816
298.813
298.83
298.832
298.832
298.852
298.854
298.852
298.872
298.873
298.872
298.895
298.897
298.896
298.919
298.92
298.918
298.942
298.946
298.946
298.972
298.972
298.967
298.992
299
299
299.029
299.027
299.019
299.045
299.056
299.06
299.09
299.086
299.073
299.1
299.115
299.122
299.153
299.144
299.127
299.15
299.169
299.18
299.213
299.197
299.171
299.131
299.157
299.201
299.25
299.495
300.335
301.012
300.687
299.653
300.656
300.926
300.938
300.93
300.894
300.779
300.755
300.885
300.922
300.923
300.911
300.797
300.958
300.965
300.935
300.916
300.954
300.996
300.962
300.918
300.908
300.877
300.904
300.946
300.931
300.876
300.857
300.825
300.859
300.916
300.903
300.838
300.801
300.784
300.826
300.893
300.878
300.807
300.769
300.767
300.801
300.87
300.86
300.795
300.769
300.774
300.795
300.85
300.847
300.801
300.785
300.797
300.809
300.849
300.854
300.82
300.811
300.827
300.833
300.86
300.868
300.848
300.844
300.864
300.865
300.879
300.893
300.885
300.884
300.908
300.908
300.911
300.932
300.933
300.934
300.962
300.96
300.955
300.981
300.989
300.993
301.026
301.022
301.009
301.04
301.055
301.06
301.097
301.092
301.074
301.11
301.127
301.134
301.17
301.162
301.145
301.179
301.193
301.201
301.227
301.223
301.21
301.242
301.249
301.249
301.272
301.275
301.268
301.297
301.302
301.297
301.327
301.33
301.324
301.351
301.359
301.357
301.384
301.382
301.374
301.395
301.401
301.403
301.416
301.415
301.411
301.427
301.429
301.429
301.441
301.442
301.441
301.453
301.453
301.452
301.462
301.464
301.464
301.473
301.474
301.472
301.486
301.486
301.483
301.491
301.496
301.499
301.504
301.501
301.496
301.488
301.485
301.484
301.483
301.482
301.482
301.481
301.481
301.481
301.481
301.481
301.481
301.482
301.482
301.483
301.484
301.486
301.487
301.489
301.49
301.49
301.488
301.486
301.486
301.488
301.489
301.489
301.484
301.483
301.482
301.474
301.474
301.474
301.466
301.466
301.467
301.461
301.46
301.46
301.455
301.455
301.456
301.451
301.451
301.451
301.444
301.443
301.442
301.427
301.429
301.432
301.415
301.414
301.415
301.412
301.409
301.407
301.407
301.41
301.415
301.425
301.418
301.413
301.426
301.433
301.439
301.445
301.445
301.442
301.448
301.447
301.442
301.435
301.442
301.446
301.439
301.432
301.42
301.402
301.416
301.425
301.407
301.397
301.383
301.368
301.379
301.389
301.372
301.364
301.355
301.345
301.354
301.36
301.349
301.342
301.332
301.318
301.332
301.339
301.328
301.318
301.293
301.256
301.299
301.316
301.299
301.264
301.192
301.105
301.205
301.272
301.221
301.105
300.983
300.858
300.977
301.134
300.994
300.816
300.716
300.6
300.669
300.816
300.637
300.53
300.487
300.406
300.438
300.51
300.407
300.348
300.324
300.261
300.282
300.33
300.251
300.212
300.196
300.148
300.164
300.197
300.14
300.111
300.097
300.058
300.073
300.1
300.057
300.031
300.017
299.982
299.999
300.027
299.99
299.965
299.953
299.951
299.97
299.995
299.944
299.922
299.911
299.888
299.903
299.926
299.898
299.875
299.861
299.832
299.85
299.878
299.856
299.827
299.811
299.794
299.808
299.832
299.801
299.772
299.756
299.668
299.67
299.675
299.693
299.659
299.63
299.537
299.532
299.521
299.406
299.369
299.381
299.032
299.088
299.213
298.889
298.781
298.68
298.298
298.16
298.306
297.23
297.412
297.621
297.005
296.805
296.911
297.737
297.24
297.284
297.367
297.549
297.862
298.051
297.609
297.457
297.769
297.974
298.244
298.373
298.202
298.044
298.04
298.246
298.531
298.57
298.424
298.255
298.188
298.361
298.575
298.623
298.515
298.349
298.269
298.428
298.599
298.626
298.496
298.381
298.475
298.609
298.664
298.626
298.528
298.426
298.513
298.61
298.669
298.624
298.542
298.442
298.503
298.581
298.655
298.688
298.65
298.562
298.518
298.588
298.652
298.691
298.641
298.568
298.528
298.59
298.655
298.688
298.641
298.576
298.531
298.589
298.657
298.682
298.628
298.561
298.606
298.666
298.696
298.675
298.618
298.566
298.593
298.654
298.697
298.666
298.606
298.563
298.597
298.649
298.697
298.671
298.599
298.561
298.592
298.644
298.689
298.657
298.593
298.548
298.575
298.626
298.667
298.645
298.567
298.524
298.539
298.598
298.653
298.656
298.616
298.57
298.51
298.549
298.62
298.631
298.575
298.529
298.47
298.506
298.587
298.596
298.537
298.491
298.434
298.473
298.552
298.554
298.498
298.449
298.391
298.427
298.51
298.518
298.459
298.413
298.349
298.385
298.468
298.463
298.405
298.359
298.304
298.34
298.413
298.422
298.365
298.322
298.253
298.288
298.371
298.365
298.305
298.263
298.204
298.238
298.318
298.324
298.261
298.22
298.149
298.184
298.27
298.263
298.2
298.158
298.096
298.129
298.219
298.223
298.154
298.114
298.039
298.073
298.161
298.159
298.09
298.048
297.982
298.014
298.119
298.12
298.042
298.005
297.926
297.961
298.055
298.067
297.984
297.94
297.863
297.9
298.008
298.019
297.935
297.893
297.838
297.9
297.986
297.92
297.791
297.749
297.777
297.822
297.929
297.855
297.744
297.704
297.725
297.777
297.856
297.792
297.693
297.653
297.669
297.715
297.801
297.743
297.627
297.588
297.607
297.654
297.736
297.683
297.579
297.541
297.561
297.608
297.704
297.632
297.509
297.469
297.493
297.542
297.646
297.588
297.458
297.419
297.453
297.504
297.609
297.549
297.446
297.386
297.301
297.35
297.508
297.516
297.384
297.327
297.238
297.283
297.417
297.42
297.318
297.267
297.17
297.215
297.348
297.361
297.25
297.195
297.108
297.149
297.28
297.293
297.182
297.13
297.04
297.083
297.222
297.239
297.127
297.069
297.018
297.081
297.187
297.144
296.969
296.907
296.934
297.008
297.149
297.048
296.893
296.841
296.874
296.936
297.066
296.973
296.822
296.773
296.797
296.859
296.989
296.91
296.751
296.704
296.726
296.782
296.917
296.813
296.658
296.61
296.632
296.7
296.832
296.781
296.647
296.577
296.461
296.513
296.712
296.724
296.552
296.483
296.364
296.415
296.581
296.602
296.451
296.393
296.269
296.322
296.493
296.507
296.358
296.288
296.172
296.224
296.39
296.404
296.261
296.195
296.118
296.187
296.314
296.274
296.056
295.995
296.014
296.09
296.274
296.13
295.946
295.891
295.904
295.987
296.145
296.018
295.847
295.798
295.813
295.878
296.031
295.919
295.738
295.691
295.694
295.772
295.938
295.801
295.626
295.578
295.589
295.658
295.819
295.727
295.573
295.499
295.364
295.419
295.669
295.671
295.461
295.368
295.246
295.297
295.498
295.507
295.333
295.236
295.124
295.181
295.381
295.39
295.213
295.129
294.984
295.04
295.247
295.272
295.081
294.99
294.861
294.917
295.142
295.149
294.959
294.859
294.745
294.83
295.012
294.938
294.649
294.597
294.605
294.697
294.942
294.755
294.512
294.449
294.446
294.564
294.78
294.599
294.367
294.311
294.272
294.386
294.597
294.449
294.191
294.109
294.122
294.236
294.467
294.249
294.003
293.948
293.958
294.066
294.293
294.16
293.929
293.828
293.608
293.648
293.972
293.963
293.699
293.571
293.42
293.497
293.768
293.789
293.544
293.409
293.225
293.292
293.57
293.584
293.324
293.201
292.981
293.056
293.322
293.303
293.045
292.928
292.722
292.819
293.1
293.122
292.859
292.728
292.52
292.579
292.902
292.911
292.623
292.491
292.258
292.326
292.649
292.627
292.319
292.181
291.936
292.037
292.386
292.393
292.083
291.943
291.709
291.769
292.134
292.162
291.824
291.654
291.393
291.46
291.849
291.771
291.437
291.286
291.015
291.123
291.55
291.576
291.199
290.992
290.832
290.995
291.333
291.097
290.525
290.494
290.376
290.553
291.025
290.481
290.095
290.021
289.969
290.108
290.439
290.131
289.823
289.719
289.451
289.723
290.126
289.903
289.646
289.387
288.944
288.992
289.429
289.291
288.933
288.851
288.448
288.553
289.076
289.046
288.58
288.392
287.898
287.966
288.49
288.44
287.898
287.654
287.103
287.156
287.676
287.698
287.198
287.111
286.639
286.749
287.276
287.257
286.654
286.477
285.716
285.734
286.406
285.998
285.533
285.368
285.122
285.194
285.692
285.604
284.999
284.43
284.467
284.713
285.371
284.106
283.456
283.393
283.2
283.354
284.001
283.18
282.767
282.645
281.994
282.207
283.064
281.435
280.978
281.14
280.437
280.629
281.325
280.537
280.164
279.896
278.962
278.709
279.581
278.678
277.921
278.16
277.163
277.418
278.315
276.414
276.014
276.52
275.448
275.263
276.131
273.961
273.807
274.239
273.654
273.647
274.762
273.273
273.071
273.416
273.376
273.031
273.865
275.356
273.84
273.881
275.524
276.252
278.996
281.959
278.528
278.032
281.035
282.246
286.06
288.086
284.629
283.228
284.692
286.33
289.521
290.197
287.439
285.682
286.68
288.593
291.049
291.444
289.366
287.444
288.25
290.237
292.026
292.235
290.74
288.836
289.498
291.39
292.624
292.763
291.72
289.969
290.532
292.22
293.048
293.15
292.439
290.914
291.388
292.817
293.368
293.442
292.966
291.687
292.074
293.243
293.61
293.663
293.344
292.3
292.609
293.545
293.792
293.83
293.615
292.769
293.008
293.766
293.929
293.956
293.814
293.127
293.304
293.928
294.034
294.052
293.96
293.388
293.511
294.046
294.113
294.124
294.065
293.569
293.653
294.128
294.17
294.176
294.137
293.691
293.749
294.178
294.209
294.21
294.172
293.763
293.8
294.197
294.23
294.226
294.18
293.791
293.817
294.192
294.236
294.229
294.165
293.796
293.813
294.167
294.227
294.215
294.136
293.784
293.796
294.13
294.21
294.187
294.093
293.762
293.768
294.083
294.18
294.15
294.045
293.736
293.735
294.03
294.14
294.104
293.986
293.71
293.698
293.971
294.091
294.051
293.925
293.676
293.661
293.911
294.037
293.993
293.865
293.637
293.619
293.85
293.977
293.932
293.804
293.597
293.58
293.79
293.916
293.87
293.744
293.558
293.541
293.731
293.853
293.807
293.686
293.519
293.506
293.674
293.791
293.745
293.63
293.482
293.471
293.619
293.729
293.686
293.578
293.446
293.437
293.568
293.671
293.628
293.528
293.411
293.403
293.519
293.614
293.574
293.481
293.377
293.371
293.473
293.562
293.523
293.437
293.343
293.339
293.43
293.511
293.476
293.395
293.312
293.309
293.389
293.465
293.431
293.356
293.282
293.279
293.351
293.421
293.389
293.32
293.254
293.251
293.316
293.381
293.351
293.286
293.226
293.224
293.283
293.343
293.316
293.254
293.2
293.198
293.252
293.309
293.283
293.225
293.175
293.173
293.224
293.277
293.253
293.198
293.152
293.15
293.198
293.248
293.225
293.173
293.129
293.128
293.173
293.222
293.201
293.151
293.109
293.109
293.151
293.198
293.178
293.13
293.09
293.089
293.131
293.175
293.157
293.111
293.072
293.072
293.112
293.156
293.138
293.093
293.054
293.054
293.095
293.137
293.121
293.076
293.039
293.039
293.079
293.121
293.106
293.061
293.023
293.023
293.063
293.105
293.092
293.047
293.009
293.01
293.05
293.092
293.078
293.033
292.996
292.996
293.036
293.079
293.067
293.021
292.983
292.984
293.024
293.067
293.055
293.009
292.971
292.971
293.012
293.056
293.044
292.998
292.96
292.961
293.001
293.045
293.034
292.988
292.949
292.95
292.991
293.034
293.024
292.978
292.939
292.94
292.981
293.025
293.015
292.969
292.93
292.931
292.972
293.015
293.006
292.96
292.921
292.922
292.963
293.007
292.998
292.952
292.913
292.913
292.955
292.998
292.99
292.944
292.905
292.906
292.947
292.99
292.981
292.936
292.897
292.898
292.939
292.982
292.974
292.928
292.89
292.891
292.932
292.974
292.966
292.921
292.882
292.883
292.925
292.966
292.959
292.914
292.875
292.877
292.918
292.959
292.952
292.907
292.869
292.869
292.911
292.951
292.945
292.9
292.862
292.863
292.904
292.944
292.937
292.893
292.855
292.856
292.897
292.937
292.93
292.886
292.848
292.85
292.891
292.93
292.923
292.879
292.842
292.842
292.883
292.922
292.915
292.873
292.835
292.837
292.877
292.915
292.908
292.866
292.828
292.829
292.869
292.907
292.901
292.859
292.821
292.823
292.862
292.9
292.893
292.851
292.814
292.815
292.855
292.892
292.885
292.844
292.807
292.809
292.848
292.885
292.877
292.837
292.799
292.801
292.84
292.877
292.869
292.829
292.792
292.795
292.833
292.869
292.861
292.821
292.784
292.786
292.825
292.86
292.853
292.813
292.776
292.779
292.817
292.852
292.844
292.805
292.768
292.77
292.808
292.843
292.836
292.796
292.76
292.763
292.8
292.835
292.826
292.788
292.751
292.753
292.791
292.825
292.817
292.779
292.742
292.745
292.782
292.816
292.808
292.769
292.733
292.735
292.772
292.806
292.798
292.76
292.724
292.726
292.762
292.797
292.788
292.75
292.714
292.716
292.752
292.787
292.778
292.74
292.704
292.707
292.742
292.776
292.767
292.73
292.694
292.695
292.732
292.766
292.757
292.719
292.684
292.686
292.722
292.755
292.746
292.708
292.673
292.674
292.711
292.744
292.734
292.697
292.662
292.664
292.699
292.733
292.723
292.686
292.65
292.651
292.688
292.721
292.711
292.674
292.638
292.64
292.675
292.709
292.698
292.661
292.626
292.626
292.662
292.696
292.685
292.648
292.613
292.614
292.649
292.683
292.671
292.634
292.599
292.598
292.635
292.669
292.657
292.62
292.585
292.585
292.621
292.655
292.643
292.605
292.571
292.569
292.606
292.64
292.628
292.591
292.555
292.556
292.592
292.626
292.614
292.576
292.541
292.541
292.577
292.612
292.6
292.563
292.528
292.527
292.564
292.597
292.587
292.55
292.513
292.512
292.55
292.584
292.575
292.537
292.5
292.499
292.537
292.572
292.565
292.524
292.486
292.487
292.525
292.562
292.554
292.512
292.474
292.469
292.511
292.551
292.542
292.502
292.452
292.398
292.478
292.522
292.482
292.445
292.364
292.361
292.426
292.449
292.279
291.701
291.401
291.308
290.827
290.417
290.134
290.021
289.69
289.461
289.128
288.861
288.659
288.503
288.386
288.3
288.236
288.189
288.154
288.128
288.108
288.093
288.081
288.072
288.064
288.059
288.054
288.051
288.049
288.047
288.046
288.046
288.051
288.058
288.066
288.075
288.084
288.092
288.099
288.104
288.108
288.11
288.111
288.11
288.108
288.105
288.1
288.094
288.087
288.08
288.071
288.062
288.054
288.044
288.034
288.025
288.019
288.017
288.018
288.023
288.033
288.046
288.063
288.084
288.11
288.141
288.179
288.223
288.275
288.336
288.405
288.484
288.574
288.676
288.789
288.914
289.052
289.203
289.366
289.542
289.73
289.928
290.137
290.354
290.579
290.81
291.046
291.285
291.526
291.767
292.007
292.245
292.479
292.71
292.935
293.154
293.367
293.574
293.773
293.966
294.151
294.329
294.5
294.663
294.82
294.97
295.113
295.25
295.381
295.506
295.626
295.74
295.85
295.954
296.054
296.15
296.242
296.33
296.415
296.496
296.575
296.651
296.725
296.796
296.866
296.933
296.998
297.061
297.122
297.181
297.237
297.292
297.343
297.392
297.439
297.483
297.526
297.566
297.605
297.643
297.679
297.714
297.748
297.78
297.811
297.841
297.868
297.894
297.916
297.937
297.954
297.968
297.98
297.989
297.996
298.001
298.005
298.005
298.004
298.003
298.003
298.004
298.008
298.013
298.019
298.027
298.036
298.046
298.057
298.07
298.083
298.096
298.111
298.126
298.142
298.159
298.176
298.193
298.211
298.229
298.248
298.267
298.286
298.305
298.325
298.345
298.364
298.384
298.404
298.424
298.443
298.463
298.482
298.501
298.52
298.539
298.557
298.575
298.592
298.609
298.626
298.642
298.657
298.672
298.687
298.701
298.714
298.727
298.739
298.75
298.761
298.771
298.779
298.786
298.791
298.796
298.8
298.801
298.793
298.792
298.792
298.782
298.773
298.764
298.756
298.748
298.742
298.736
298.731
298.726
298.722
298.719
298.715
298.711
298.707
298.703
298.699
298.694
298.688
298.682
298.676
298.669
298.663
298.658
298.652
298.648
298.644
298.64
298.638
298.636
298.635
298.634
298.634
298.635
298.635
298.637
298.638
298.64
298.643
298.646
298.65
298.654
298.66
298.666
298.673
298.681
298.691
298.701
298.713
298.726
298.74
298.754
298.77
298.786
298.804
298.823
298.844
298.865
298.888
298.912
298.939
298.966
298.995
299.025
299.056
299.088
299.121
299.153
299.183
299.215
299.232
299.24
299.284
299.478
299.769
300.042
300.265
300.723
301.001
301.041
301.006
301.002
300.978
300.974
300.955
300.951
300.941
300.942
300.929
300.925
300.916
300.913
300.914
300.915
300.918
300.924
300.933
300.944
300.96
300.98
301.002
301.028
301.056
301.087
301.119
301.158
301.19
301.227
301.255
301.287
301.314
301.34
301.365
301.387
301.405
301.423
301.437
301.451
301.462
301.472
301.479
301.486
301.482
301.48
301.474
301.476
301.469
301.467
301.457
301.459
301.448
301.446
301.45
301.465
301.472
301.479
301.477
301.471
301.464
301.461
301.47
301.476
301.476
301.469
301.462
301.446
301.409
301.416
301.43
301.434
301.418
301.414
301.394
301.399
301.379
301.372
301.372
301.319
301.349
301.356
301.329
301.32
301.295
301.305
301.27
301.25
301.236
301.162
301.22
301.239
301.202
301.17
301.14
301.161
301.13
301.116
301.122
301.09
301.09
301.096
301.074
301.078
301.058
301.048
301.031
301.055
301.066
301.021
301.043
301.015
301.006
301.029
301.023
300.998
300.989
301.001
300.956
300.899
300.995
300.983
300.973
300.969
300.969
300.969
300.963
300.952
300.889
300.897
300.961
300.963
300.964
300.951
300.958
300.97
300.975
300.944
300.859
300.84
300.921
300.965
300.961
300.925
300.904
300.951
300.963
300.943
300.716
300.321
300.915
300.96
300.991
300.979
300.901
300.995
301.025
300.741
299.812
299.468
300.282
300.963
300.787
299.975
299.584
300.244
299.86
299.522
299.34
299.278
299.381
299.61
299.507
299.352
299.283
299.358
299.291
299.26
299.228
299.188
299.244
299.253
299.238
299.222
299.206
299.226
299.199
299.173
299.143
299.089
299.148
299.17
299.137
299.115
299.087
299.106
299.072
299.052
299.032
298.976
299.025
299.042
299.009
298.992
298.966
298.981
298.951
298.936
298.923
298.873
298.912
298.925
298.899
298.885
298.863
298.876
298.852
298.839
298.828
298.787
298.82
298.831
298.811
298.799
298.781
298.792
298.774
298.763
298.751
298.72
298.747
298.758
298.742
298.731
298.717
298.728
298.714
298.704
298.692
298.669
298.692
298.701
298.689
298.68
298.67
298.679
298.67
298.661
298.649
298.634
298.652
298.662
298.654
298.645
298.638
298.648
298.642
298.633
298.621
298.612
298.628
298.637
298.633
298.624
298.62
298.63
298.627
298.618
298.605
298.6
298.615
298.624
298.622
298.614
298.612
298.621
298.62
298.612
298.599
298.6
298.611
298.62
298.62
298.612
298.613
298.621
298.622
298.615
298.603
298.608
298.617
298.624
298.627
298.62
298.623
298.631
298.635
298.628
298.616
298.625
298.632
298.639
298.645
298.637
298.642
298.65
298.656
298.648
298.634
298.645
298.653
298.661
298.667
298.659
298.663
298.672
298.678
298.669
298.655
298.666
298.673
298.683
298.688
298.679
298.683
298.692
298.696
298.688
298.677
298.689
298.693
298.7
298.705
298.699
298.704
298.71
298.715
298.711
298.703
298.719
298.717
298.721
298.727
298.725
298.733
298.735
298.742
298.742
298.737
298.758
298.751
298.751
298.76
298.761
298.772
298.771
298.781
298.782
298.78
298.78
298.759
298.738
298.719
298.702
298.686
298.672
298.66
298.648
298.637
298.627
298.617
298.609
298.601
298.596
298.592
298.59
298.591
298.594
298.6
298.609
298.62
298.635
298.653
298.675
298.7
298.73
298.763
298.801
298.842
298.888
298.937
298.987
299.039
299.09
299.136
299.179
299.225
299.27
299.318
299.414
299.589
299.912
300.289
300.523
300.63
300.58
300.558
300.645
300.778
300.936
301.053
301.123
301.161
301.207
301.289
301.359
301.351
301.405
301.444
301.46
301.469
301.476
301.476
301.469
301.461
301.46
301.469
301.476
301.476
301.47
301.462
301.444
301.404
301.406
301.445
301.461
301.47
301.476
301.477
301.471
301.464
301.464
301.472
301.478
301.479
301.473
301.466
301.448
301.41
301.354
301.349
301.347
301.269
301.275
301.202
301.149
301.075
301.195
301.159
301.269
301.267
301.115
300.855
300.953
300.644
300.839
301.039
300.839
300.547
300.298
300.595
300.41
300.164
300.019
300.11
300.329
300.196
300.515
300.444
300.794
301.086
301.267
301.363
301.415
301.45
301.466
301.474
301.48
301.481
301.475
301.468
301.467
301.475
301.482
301.482
301.475
301.466
301.449
301.418
301.425
301.435
301.447
301.46
301.472
301.481
301.479
301.485
301.484
301.481
301.477
301.471
301.476
301.47
301.465
301.46
301.465
301.467
301.453
301.45
301.457
301.454
301.444
301.43
301.438
301.433
301.44
301.433
301.427
301.413
301.409
301.388
301.37
301.275
301.072
300.755
300.811
300.973
301.137
301.238
301.315
301.355
301.359
301.389
301.396
301.411
301.422
301.43
301.433
301.432
301.431
301.429
301.422
301.424
301.426
301.433
301.439
301.438
301.43
301.42
301.402
301.386
301.38
301.366
301.351
301.357
301.369
301.343
301.337
301.322
301.264
301.293
301.318
301.331
301.311
301.286
301.258
301.208
301.156
300.994
300.8
300.605
300.611
300.451
300.407
300.11
300.13
299.937
299.999
299.92
299.883
299.99
300.127
300.318
300.32
300.123
300.076
300.325
300.255
299.916
299.664
299.848
299.955
299.815
299.671
299.499
299.383
299.532
299.686
299.793
299.848
299.796
299.909
299.952
300.044
300.16
300.286
300.279
300.431
300.462
300.547
300.646
300.746
300.854
300.959
301.057
301.142
301.187
301.243
301.101
301.006
300.886
300.777
300.658
300.56
300.463
300.386
300.378
300.307
300.239
300.246
300.309
300.184
300.18
300.153
300.049
300.078
300.126
300.134
300.084
300.044
300.034
299.992
299.961
299.885
299.875
299.806
299.753
299.751
299.814
299.846
299.88
299.915
299.953
299.964
300.002
299.925
299.889
299.899
299.932
299.871
299.857
299.827
299.815
299.782
299.746
299.754
299.795
299.812
299.843
299.774
299.782
299.741
299.719
299.708
299.705
299.69
299.708
299.71
299.61
299.433
299.273
299.152
299.249
299.434
299.715
299.631
299.527
299.683
299.652
299.649
299.663
299.551
299.532
299.499
299.457
299.255
299.304
299.316
299.371
299.21
299.346
299.26
299.078
299.171
299.369
299.528
298.828
298.809
298.85
299.083
298.992
298.802
298.841
298.523
298.479
298.206
298.178
297.818
298.046
298.382
298.427
298.629
298.78
299.013
299.13
299.193
299.042
298.95
298.635
298.29
298.312
298.032
298.068
297.761
297.231
297.159
297.188
297.302
297.312
297.392
297.421
297.623
297.918
297.84
298.099
297.984
298.218
298.121
298.198
298.408
298.261
298.411
298.326
298.376
298.514
298.4
298.528
298.407
298.529
298.429
298.473
298.571
298.476
298.563
298.462
298.562
298.449
298.551
298.444
298.519
298.422
298.445
298.513
298.417
298.475
298.386
298.442
298.354
298.398
298.312
298.363
298.276
298.307
298.223
298.27
298.18
298.211
298.124
298.165
298.077
298.108
298.016
298.055
297.966
297.997
297.901
297.936
297.861
297.88
297.801
297.817
297.769
297.707
297.667
297.739
297.71
297.807
297.782
297.857
297.828
297.921
297.893
297.973
297.938
298.028
297.995
298.079
298.038
298.124
298.088
298.174
298.125
298.208
298.168
298.25
298.199
298.282
298.236
298.318
298.269
298.348
298.316
298.206
298.061
298.112
298.011
298.184
298.141
298.055
297.957
298.078
297.993
297.891
298.048
297.997
297.914
297.819
297.903
297.831
297.725
297.868
297.798
297.731
297.63
297.682
297.633
297.529
297.652
297.574
297.598
297.664
297.706
297.62
297.674
297.554
297.599
297.497
297.551
297.432
297.486
297.377
297.423
297.326
297.37
297.312
297.211
297.172
297.257
297.225
297.324
297.3
297.376
297.346
297.447
297.424
297.495
297.463
297.567
297.539
297.425
297.412
297.317
297.291
297.195
297.163
297.076
297.102
297.173
297.249
297.113
297.18
297.058
297.114
296.991
297.048
296.932
296.982
296.897
296.791
296.854
296.729
296.782
296.665
296.704
296.586
296.614
296.525
296.545
296.465
296.395
296.366
296.484
296.446
296.547
296.525
296.618
296.592
296.676
296.655
296.743
296.826
296.803
296.884
296.864
296.944
296.926
297.007
296.988
297.057
297.036
296.98
296.973
296.925
296.844
296.92
296.853
296.798
296.701
296.793
296.723
296.654
296.567
296.525
296.412
296.363
296.26
296.283
296.333
296.375
296.248
296.262
296.164
296.18
296.068
296.075
295.996
295.975
295.881
295.885
295.889
295.802
295.808
295.692
295.692
295.587
295.585
295.466
295.459
295.369
295.256
295.244
295.132
295.122
294.995
294.987
294.883
294.859
294.738
294.722
294.605
294.618
294.481
294.476
294.449
294.348
294.306
294.165
294.116
293.977
293.97
293.814
293.811
293.603
293.466
293.419
293.265
293.234
293.06
292.982
292.819
292.729
292.6
292.525
292.379
292.263
292.095
291.966
291.819
291.699
291.556
291.421
291.185
291.035
290.863
290.808
290.546
290.68
290.521
290.336
290.127
289.926
289.693
289.511
289.309
289.068
288.802
288.444
288.362
288.038
287.823
287.248
287.206
286.645
286.617
285.942
285.934
285.123
285.126
284.526
283.644
283.697
282.64
282.736
281.487
281.387
280.428
279.619
279.227
278.357
277.152
277.024
275.674
274.82
273.965
274.89
274.309
274.939
275.973
277.917
280.224
282.036
283.353
284.174
284.991
285.61
286.223
286.7
287.164
287.572
287.95
288.315
288.628
288.958
289.215
289.512
289.725
289.993
290.17
290.411
290.562
290.779
290.907
291.102
291.213
291.387
291.484
291.641
291.726
291.868
291.94
292.069
292.128
292.249
292.292
292.404
292.435
292.54
292.561
292.655
292.669
292.754
292.764
292.834
292.844
292.901
292.912
292.954
292.967
292.998
293.014
293.028
293.048
293.051
293.07
293.064
293.082
293.073
293.089
293.074
293.091
293.073
293.089
293.067
293.084
293.061
293.076
293.05
293.067
293.04
293.056
293.026
293.044
293.014
293.031
292.999
293.017
292.986
293.003
292.971
292.989
292.958
292.976
292.944
292.962
292.931
292.949
292.918
292.936
292.906
292.924
292.893
292.912
292.883
292.9
292.871
292.889
292.861
292.879
292.85
292.869
292.841
292.859
292.831
292.849
292.823
292.84
292.813
292.832
292.806
292.823
292.797
292.815
292.79
292.807
292.781
292.8
292.775
292.792
292.767
292.785
292.761
292.778
292.753
292.771
292.747
292.764
292.74
292.757
292.734
292.75
292.726
292.743
292.72
292.736
292.712
292.729
292.706
292.722
292.698
292.715
292.692
292.707
292.683
292.699
292.676
292.691
292.668
292.683
292.66
292.675
292.651
292.666
292.643
292.657
292.633
292.648
292.624
292.638
292.614
292.628
292.605
292.618
292.594
292.608
292.584
292.597
292.573
292.586
292.563
292.575
292.551
292.563
292.539
292.551
292.526
292.538
292.513
292.525
292.499
292.51
292.485
292.496
292.47
292.481
292.455
292.466
292.44
292.451
292.426
292.437
292.411
292.422
292.397
292.408
292.381
292.392
292.37
292.362
292.362
292.335
292.304
291.74
291.773
291.422
291.903
291.854
291.586
291.969
291.936
291.664
292.019
291.977
291.731
292.049
292.006
291.77
292.069
292.022
291.785
292.087
292.04
291.811
292.1
292.053
291.809
292.118
292.07
291.846
292.128
292.081
291.835
292.147
292.097
291.872
292.156
292.108
291.858
292.173
292.123
291.894
292.181
292.131
291.879
292.196
292.144
291.912
292.203
292.152
291.897
292.217
292.164
291.927
292.222
292.17
291.912
292.236
292.181
291.941
292.24
292.187
291.926
292.253
292.197
291.952
292.257
292.202
291.937
292.268
292.212
291.963
292.272
292.216
291.948
292.283
292.225
291.97
292.286
292.228
291.956
292.295
292.236
291.976
292.298
292.239
291.962
292.307
292.246
291.98
292.308
292.247
291.967
292.316
292.254
291.982
292.317
292.255
291.969
292.324
292.26
291.982
292.325
292.26
291.969
292.331
292.265
291.981
292.331
292.264
291.967
292.336
292.269
291.977
292.336
292.267
291.963
292.341
292.271
291.973
292.34
292.269
291.957
292.344
292.272
291.966
292.342
292.27
291.949
292.346
292.272
291.957
292.344
292.269
291.94
292.347
292.27
291.946
292.344
292.266
291.928
292.347
292.267
291.933
292.343
292.261
291.914
292.345
292.261
291.917
292.339
292.254
291.896
292.34
292.252
291.897
292.334
292.244
291.875
292.332
292.24
291.874
292.325
292.23
291.85
292.322
292.224
291.847
292.311
292.211
291.82
292.306
292.202
291.815
292.293
292.185
291.783
292.285
292.173
291.777
292.267
292.152
291.74
292.255
292.135
291.73
292.233
292.109
291.688
292.217
292.087
291.674
292.188
292.054
291.627
292.165
292.025
291.608
292.13
291.986
291.557
292.099
291.948
291.536
292.055
291.9
291.474
292.015
291.853
291.447
291.961
291.795
291.376
291.911
291.738
291.343
291.846
291.669
291.262
291.785
291.601
291.221
291.71
291.522
291.13
291.638
291.443
291.08
291.549
291.352