/*--------------------------------*- C++ -*----------------------------------*\
| =========                 |                                                 |
| \\      /  F ield         | OpenFOAM: The Open Source CFD Toolbox           |
|  \\    /   O peration     | Version:  v2006                                 |
|   \\  /    A nd           | Website:  www.openfoam.com                      |
|    \\/     M anipulation  |                                                 |
\*---------------------------------------------------------------------------*/
FoamFile
{
    version     2.0;
    format      ascii;
    class       volScalarField;
    location    "0.002";
    object      nut;
}
// * * * * * * * * * * * * * * * * * * * * * * * * * * * * * * * * * * * * * //

dimensions      [0 2 -1 0 0 0 0];


internalField   nonuniform List<scalar> 
12716
(
0.258033
0.256094
0.633892
0.662664
0.692472
0.987109
0.742249
0.59311
0.469701
0.381907
0.306724
0.245363
0.197024
0.161667
0.136561
0.118358
0.104518
0.0936673
0.0851115
0.0784029
0.0731728
0.0691367
0.0660868
0.0638695
0.0623596
0.0614451
0.0610161
0.0609524
0.0611151
0.0613552
0.0615387
0.0615967
0.061568
0.0616144
0.0619678
0.0627999
0.0641242
0.0658015
0.0676257
0.0694302
0.0711949
0.0729651
0.0747848
0.0766447
0.0785038
0.0803182
0.0820584
0.0837236
0.0853334
0.0869377
0.088595
0.0903656
0.092292
0.0943592
0.0965345
0.0988115
0.101983
0.107589
0.118295
0.133065
0.145329
0.14059
0.160063
0.153254
0.200456
0.183044
0.103303
0.0382495
0.00913529
0.00150739
4.71236e-05
3.78658e-05
0.000607162
0.00300217
0.00171188
0.000411005
3.2954e-05
2.88799e-05
0.00033833
0.00126886
0.00110058
0.000307604
2.61103e-05
2.34825e-05
0.000277069
0.000971724
0.000889308
0.000257738
2.18343e-05
2.07797e-05
0.000244563
0.000807712
0.000763117
0.00023876
2.02852e-05
2.01123e-05
0.000234279
0.000716233
0.000721466
0.000240689
2.02022e-05
2.03584e-05
0.000247538
0.000718983
0.000742622
0.000259066
2.05721e-05
2.06721e-05
0.000263595
0.00074393
0.000764629
0.000271819
2.07474e-05
2.07315e-05
0.000273881
0.000762851
0.000773987
0.000277955
2.06817e-05
2.05518e-05
0.000277581
0.000766787
0.000768619
0.000278657
2.04689e-05
2.0328e-05
0.000277099
0.000758742
0.000757394
0.00027668
2.02287e-05
2.00188e-05
0.000273029
0.000745424
0.000736837
0.000269329
1.96639e-05
1.88233e-05
0.000257728
0.000709633
0.000682019
0.000245558
1.75693e-05
1.59899e-05
0.000226347
0.000637383
0.000598913
0.000205552
1.43673e-05
1.28536e-05
0.000173228
0.000535967
0.000467821
0.000129697
1.16436e-05
1.09306e-05
8.78801e-05
0.000362355
0.000251489
6.15658e-05
1.05994e-05
1.04793e-05
4.84713e-05
0.000154014
9.32929e-05
4.21156e-05
1.04544e-05
1.04624e-05
3.99475e-05
5.91339e-05
4.45583e-05
3.86813e-05
1.04981e-05
1.05452e-05
3.85092e-05
3.90692e-05
3.69188e-05
3.81427e-05
1.05893e-05
1.06426e-05
3.81962e-05
3.61981e-05
3.57781e-05
3.79892e-05
1.06944e-05
1.07459e-05
3.80786e-05
3.56594e-05
3.5514e-05
3.78261e-05
1.07945e-05
1.08464e-05
3.78729e-05
3.55412e-05
3.55346e-05
3.75208e-05
1.08942e-05
1.09428e-05
3.75581e-05
3.56976e-05
3.58009e-05
3.71793e-05
1.09923e-05
1.10489e-05
3.72073e-05
3.593e-05
3.59245e-05
3.68005e-05
1.11078e-05
1.11732e-05
3.68119e-05
3.59496e-05
3.59033e-05
3.63813e-05
1.12379e-05
1.12996e-05
3.63736e-05
3.59556e-05
3.59788e-05
3.59468e-05
1.13521e-05
1.13973e-05
3.59106e-05
3.60339e-05
3.60636e-05
3.54873e-05
1.14323e-05
1.14561e-05
3.5407e-05
3.61069e-05
3.61302e-05
3.49906e-05
1.14686e-05
1.14724e-05
3.48619e-05
3.61656e-05
3.61986e-05
3.4447e-05
1.14691e-05
1.14594e-05
3.42731e-05
3.62304e-05
3.62773e-05
3.38633e-05
1.14472e-05
1.14338e-05
3.36435e-05
3.63041e-05
3.63623e-05
3.32284e-05
1.14221e-05
1.14112e-05
3.29584e-05
3.6383e-05
3.64525e-05
3.25281e-05
1.1404e-05
1.13963e-05
3.22062e-05
3.64661e-05
3.65512e-05
3.17506e-05
1.13895e-05
1.13771e-05
3.13675e-05
3.65587e-05
3.66701e-05
3.08646e-05
1.13602e-05
1.13328e-05
3.04028e-05
3.6661e-05
3.67907e-05
2.985e-05
1.12969e-05
1.12466e-05
2.93154e-05
3.67455e-05
3.69738e-05
2.86928e-05
1.11841e-05
1.11037e-05
2.80652e-05
3.68555e-05
3.71105e-05
2.73816e-05
1.10079e-05
1.08908e-05
2.66785e-05
3.67557e-05
3.67221e-05
2.59424e-05
1.07546e-05
1.05928e-05
2.51694e-05
3.61062e-05
3.58281e-05
2.43611e-05
1.04082e-05
1.0195e-05
2.34816e-05
3.49198e-05
3.4451e-05
2.25499e-05
9.95405e-06
9.68194e-06
2.15204e-05
3.331e-05
3.27302e-05
2.03014e-05
9.37566e-06
9.0344e-06
1.87321e-05
3.15384e-05
3.09546e-05
1.73017e-05
8.64787e-06
8.22982e-06
1.56682e-05
2.97077e-05
2.9145e-05
1.42074e-05
7.72236e-06
7.11492e-06
1.26649e-05
2.79103e-05
2.64158e-05
1.11774e-05
6.18259e-06
5.39538e-06
9.78642e-06
2.45028e-05
2.23047e-05
8.29925e-06
4.67935e-06
4.04285e-06
6.96786e-06
2.01177e-05
1.808e-05
5.74863e-06
3.56784e-06
3.17711e-06
4.89052e-06
1.66914e-05
1.63192e-05
4.32544e-06
2.96417e-06
2.75519e-06
4.03604e-06
1.56737e-05
1.62107e-05
4.14512e-06
2.70274e-06
2.60975e-06
4.23985e-06
1.59703e-05
1.70027e-05
4.83021e-06
2.64996e-06
2.61511e-06
5.51434e-06
1.74052e-05
1.98198e-05
6.6471e-06
2.68412e-06
2.63008e-06
7.33838e-06
2.03875e-05
2.331e-05
8.7085e-06
2.57995e-06
2.5276e-06
9.19271e-06
2.40426e-05
2.64986e-05
1.03667e-05
2.31791e-06
2.34682e-06
1.09369e-05
2.76388e-05
2.92402e-05
1.18284e-05
2.52526e-06
2.78211e-06
1.25336e-05
3.03654e-05
3.15095e-05
1.32345e-05
3.40179e-06
3.95733e-06
1.39968e-05
3.27455e-05
3.38827e-05
1.455e-05
4.61519e-06
5.19715e-06
1.51682e-05
3.50518e-05
3.6171e-05
1.56053e-05
5.80367e-06
6.36344e-06
1.60675e-05
3.73105e-05
3.83594e-05
1.64143e-05
6.91267e-06
7.42294e-06
1.67626e-05
3.94647e-05
4.03574e-05
1.70272e-05
7.79224e-06
7.83083e-06
1.72985e-05
4.14725e-05
4.21683e-05
1.75191e-05
7.8607e-06
7.88196e-06
1.77504e-05
4.33001e-05
4.37815e-05
1.79197e-05
7.89469e-06
7.90242e-06
1.81212e-05
4.4899e-05
4.51944e-05
1.82485e-05
7.90212e-06
7.89651e-06
1.84279e-05
4.62509e-05
4.63961e-05
1.8519e-05
7.88432e-06
7.8688e-06
1.86843e-05
4.73506e-05
4.73865e-05
1.87478e-05
7.84707e-06
7.82281e-06
1.8896e-05
4.81906e-05
4.8144e-05
1.8931e-05
7.79574e-06
7.76947e-06
1.90621e-05
4.88342e-05
4.87385e-05
1.90842e-05
7.74015e-06
7.71255e-06
1.91965e-05
4.93441e-05
4.92102e-05
1.92072e-05
7.68341e-06
7.65695e-06
1.93012e-05
4.97098e-05
4.95336e-05
1.93025e-05
7.6307e-06
7.60997e-06
1.93868e-05
4.99698e-05
4.97683e-05
1.93849e-05
7.58499e-06
7.56428e-06
1.94572e-05
5.01694e-05
4.99446e-05
1.94536e-05
7.54066e-06
7.52215e-06
1.95113e-05
5.02833e-05
5.00082e-05
1.94989e-05
7.49917e-06
7.48456e-06
1.95466e-05
5.02934e-05
4.99994e-05
1.95435e-05
7.47058e-06
7.47495e-06
1.96008e-05
5.02871e-05
5.00225e-05
1.96061e-05
7.48122e-06
7.4955e-06
1.96612e-05
5.03407e-05
5.01021e-05
1.96684e-05
7.50716e-06
7.52712e-06
1.97195e-05
5.0417e-05
5.01535e-05
1.97254e-05
7.54095e-06
7.56726e-06
1.97761e-05
5.04352e-05
5.01749e-05
1.98071e-05
7.58257e-06
7.61501e-06
1.98933e-05
5.05847e-05
5.05821e-05
2.00533e-05
7.63284e-06
7.673e-06
2.03172e-05
5.17103e-05
5.2776e-05
2.08808e-05
7.69788e-06
7.75581e-06
2.1746e-05
5.59377e-05
5.97244e-05
2.31753e-05
7.80584e-06
7.90901e-06
2.50026e-05
6.60779e-05
7.25243e-05
2.68941e-05
7.9947e-06
8.1376e-06
2.88316e-05
7.88002e-05
8.19588e-05
2.98859e-05
8.24333e-06
8.32747e-06
3.15496e-05
8.65131e-05
9.12098e-05
3.26428e-05
8.35949e-06
8.35075e-06
3.5035e-05
0.000100167
0.000110814
3.83603e-05
8.3613e-06
8.29558e-06
4.49002e-05
0.000129155
0.000155285
5.16633e-05
8.29529e-06
8.14851e-06
5.36913e-05
0.00019707
0.00030285
5.54554e-05
8.17879e-06
7.81961e-06
5.47757e-05
0.000322752
0.000348584
5.01417e-05
6.50359e-06
0.000501026
0.000499786
0.000499751
0.000499752
0.000499772
0.00049981
0.000499853
0.000499892
0.000499916
0.000499928
0.000499954
0.000499948
0.000500008
0.000499989
0.000500032
0.000499822
0.000500155
0.000308522
0.00037777
0.000499705
0.000499907
0.000499969
0.000457141
0.000234444
0.000183655
1.55201e-05
3.31912e-06
4.4584e-06
7.06062e-06
1.76322e-05
2.10379e-05
7.62818e-06
4.03289e-06
5.7404e-06
7.51327e-06
1.99129e-05
1.91783e-05
7.5761e-06
6.32389e-06
6.05411e-06
7.10081e-06
1.63004e-05
1.5638e-05
6.82628e-06
5.45866e-06
4.91664e-06
5.91002e-06
1.22335e-05
1.00809e-05
4.8699e-06
4.43783e-06
4.03836e-06
4.1488e-06
7.71817e-06
7.398e-06
3.92762e-06
3.70906e-06
3.47333e-06
3.80701e-06
6.82156e-06
7.52077e-06
4.02269e-06
3.2786e-06
3.12317e-06
4.08265e-06
8.1724e-06
1.05733e-05
4.52024e-06
3.01631e-06
2.92966e-06
4.65309e-06
1.13665e-05
1.3561e-05
5.22433e-06
2.8821e-06
2.84173e-06
5.23132e-06
1.43752e-05
1.62214e-05
5.67112e-06
2.81578e-06
2.77753e-06
5.44342e-06
1.65041e-05
1.70077e-05
5.69863e-06
2.74868e-06
2.71409e-06
5.39764e-06
1.69377e-05
1.71493e-05
5.62592e-06
2.68918e-06
2.65446e-06
5.31572e-06
1.69244e-05
1.68728e-05
5.5609e-06
2.63812e-06
2.62071e-06
5.30249e-06
1.64814e-05
1.66133e-05
5.58628e-06
2.61391e-06
2.60238e-06
5.33328e-06
1.63697e-05
1.63428e-05
5.61101e-06
2.60299e-06
2.59731e-06
5.32323e-06
1.60146e-05
1.62403e-05
5.57754e-06
2.58906e-06
2.57187e-06
5.27378e-06
1.58897e-05
1.61173e-05
5.52677e-06
2.55617e-06
2.53804e-06
5.239e-06
1.56528e-05
1.60636e-05
5.49282e-06
2.51741e-06
2.48585e-06
5.19928e-06
1.56409e-05
1.60468e-05
5.45298e-06
2.46119e-06
2.42966e-06
5.17341e-06
1.55497e-05
1.60157e-05
5.43472e-06
2.40498e-06
2.36662e-06
5.15537e-06
1.55137e-05
1.59622e-05
5.41741e-06
2.34056e-06
2.30438e-06
5.14258e-06
1.54429e-05
1.59088e-05
5.40637e-06
2.27846e-06
2.23613e-06
5.13028e-06
1.54123e-05
1.58635e-05
5.39704e-06
2.20963e-06
2.16985e-06
5.12413e-06
1.53792e-05
1.58846e-05
5.39308e-06
2.14327e-06
2.09763e-06
5.11687e-06
1.54269e-05
1.59064e-05
5.38446e-06
2.07096e-06
2.02789e-06
5.10479e-06
1.54263e-05
1.5905e-05
5.36911e-06
2.00119e-06
1.95326e-06
5.08761e-06
1.54105e-05
1.58584e-05
5.35467e-06
1.92723e-06
1.88214e-06
5.07429e-06
1.53644e-05
1.58471e-05
5.34361e-06
1.85614e-06
1.80695e-06
5.06591e-06
1.53784e-05
1.58518e-05
5.33893e-06
1.78202e-06
1.73536e-06
5.05745e-06
1.53811e-05
1.58677e-05
5.32768e-06
1.71045e-06
1.66063e-06
5.04738e-06
1.53855e-05
1.58429e-05
5.32154e-06
1.63737e-06
1.59006e-06
5.03918e-06
1.53559e-05
1.58321e-05
5.31408e-06
1.56699e-06
1.51751e-06
5.03685e-06
1.53566e-05
1.5822e-05
5.31686e-06
1.4962e-06
1.44861e-06
5.03534e-06
1.53472e-05
1.58326e-05
5.31568e-06
1.42794e-06
1.37956e-06
5.04062e-06
1.53575e-05
1.58227e-05
5.32663e-06
1.3611e-06
1.31438e-06
5.04768e-06
1.53489e-05
1.58343e-05
5.33551e-06
1.29725e-06
1.25122e-06
5.06755e-06
1.53676e-05
1.58375e-05
5.36305e-06
1.23644e-06
1.19154e-06
5.08806e-06
1.53769e-05
1.58663e-05
5.38451e-06
1.17911e-06
1.13687e-06
5.13716e-06
1.54215e-05
1.58919e-05
5.43189e-06
1.12773e-06
1.0873e-06
5.19054e-06
1.54491e-05
1.59436e-05
5.48458e-06
1.08332e-06
1.04869e-06
5.29102e-06
1.5535e-05
1.60511e-05
5.57339e-06
1.05156e-06
1.02562e-06
5.43346e-06
1.56739e-05
1.6175e-05
5.68516e-06
1.03411e-06
9.99095e-07
5.43845e-06
1.58221e-05
1.61788e-05
5.75121e-06
1.01433e-06
9.69351e-07
5.43754e-06
1.56749e-05
1.61314e-05
5.70467e-06
9.62339e-07
9.16615e-07
5.51132e-06
1.56157e-05
1.60434e-05
5.77816e-06
9.04184e-07
8.71278e-07
5.85298e-06
1.5881e-05
1.6471e-05
6.40355e-06
8.90233e-07
8.71665e-07
6.47625e-06
1.63027e-05
1.7196e-05
7.05923e-06
9.04008e-07
9.255e-07
7.20745e-06
1.71264e-05
1.78565e-05
7.65277e-06
9.72968e-07
9.57626e-07
7.70162e-06
1.76681e-05
1.85135e-05
8.35365e-06
1.01433e-06
1.0421e-06
8.53307e-06
1.84508e-05
1.94e-05
9.20973e-06
1.11818e-06
1.1727e-06
9.37224e-06
1.92345e-05
2.04133e-05
1.00124e-05
1.27095e-06
1.35839e-06
1.02344e-05
2.0243e-05
2.14843e-05
1.09345e-05
1.46207e-06
1.59057e-06
1.12755e-05
2.1342e-05
2.24754e-05
1.18468e-05
1.77576e-06
1.99906e-06
1.24903e-05
2.34745e-05
2.41129e-05
1.24216e-05
2.29401e-06
3.36126e-06
1.70575e-05
3.27719e-05
1.1768e-05
5.7634e-06
2.17837e-06
1.13037e-06
5.49739e-06
1.37743e-05
1.34872e-05
5.58271e-06
1.69138e-06
2.00416e-06
5.69596e-06
1.53338e-05
1.30549e-05
6.20129e-06
2.19477e-06
2.40602e-06
5.89922e-06
1.96433e-05
2.65796e-05
9.29837e-06
2.85446e-06
4.46697e-06
1.50069e-05
3.81765e-05
5.16265e-05
1.76393e-05
6.81662e-06
8.08318e-06
2.25976e-05
6.655e-05
7.99914e-05
2.70533e-05
9.32641e-06
1.05193e-05
3.17782e-05
0.000126152
7.26149e-05
2.77759e-05
1.08014e-05
1.10417e-05
2.75751e-05
7.54677e-05
8.66882e-05
3.20865e-05
1.17071e-05
1.26183e-05
3.52559e-05
9.49184e-05
0.000109456
4.04954e-05
1.32234e-05
1.34822e-05
4.23876e-05
0.0001064
9.15341e-05
5.03347e-05
1.36509e-05
1.36196e-05
5.74075e-05
8.11729e-05
8.0494e-05
6.96483e-05
1.39696e-05
1.33539e-05
6.2326e-05
6.26464e-05
5.5294e-05
6.41271e-05
1.2404e-05
1.18286e-05
5.82164e-05
4.33022e-05
4.70474e-05
4.63536e-05
1.14945e-05
1.10294e-05
5.46927e-05
3.40544e-05
2.93162e-05
4.25662e-05
1.00965e-05
9.67684e-06
4.22119e-05
2.76477e-05
2.85525e-05
4.21818e-05
9.74335e-06
9.70823e-06
4.18975e-05
3.09752e-05
2.29677e-05
4.04568e-05
9.33774e-06
8.91425e-06
3.26318e-05
2.23759e-05
2.36821e-05
2.77008e-05
8.89553e-06
9.26846e-06
2.3317e-05
2.59423e-05
2.15694e-05
2.09615e-05
9.02241e-06
9.16617e-06
1.74432e-05
1.97514e-05
2.35878e-05
1.63228e-05
1.00306e-05
1.13818e-05
1.59292e-05
2.07915e-05
2.18865e-05
1.57328e-05
1.25124e-05
1.74856e-05
1.73192e-05
2.75896e-05
3.24313e-05
2.71663e-05
1.47295e-05
1.36489e-05
3.36925e-05
5.94117e-05
3.11786e-05
2.46448e-05
1.00888e-05
1.23447e-05
2.52043e-05
1.63613e-05
6.22426e-05
5.32638e-05
4.63005e-05
7.07253e-05
9.28466e-05
0.000112925
0.000113619
9.42835e-05
6.51958e-05
5.98759e-05
9.89074e-05
0.000124381
0.000144106
0.000104308
5.64157e-05
4.93947e-05
0.000107383
0.000146084
0.000145722
0.000113885
4.78019e-05
4.49475e-05
0.000124284
0.000183169
0.000175927
0.000127925
3.94679e-05
3.5332e-05
0.000128477
0.000183507
0.00019651
0.000137812
3.51864e-05
3.42724e-05
0.000158399
0.000278704
0.000280932
0.000158107
3.04303e-05
2.81108e-05
0.000159039
0.000280427
0.000292715
0.000171554
2.87956e-05
3.11164e-05
0.000216255
0.000353043
0.00037141
0.000239455
3.42142e-05
3.59409e-05
0.000314125
0.000452609
0.000436152
0.000296422
3.25895e-05
3.05427e-05
0.000290494
0.000414158
0.000428153
0.000289181
3.09429e-05
3.07052e-05
0.000328206
0.000398629
0.000392134
0.000282112
2.61742e-05
2.28738e-05
0.000257184
0.000331751
0.000375728
0.000234375
2.25038e-05
2.28134e-05
0.000243254
0.000381728
0.000314036
0.000186373
2.00692e-05
1.75279e-05
0.000152584
0.000259645
0.000214064
0.000123848
1.57524e-05
1.65261e-05
0.000106841
0.000219023
0.000229414
0.000112895
1.69727e-05
1.4644e-05
7.75005e-05
0.000199077
0.000174892
4.94936e-05
9.10606e-06
1.09102e-05
3.26365e-05
0.000162517
0.000175135
7.01582e-05
1.25984e-05
1.20367e-05
4.95938e-05
0.000106351
0.000107873
5.20322e-05
1.0861e-05
8.2907e-06
3.87916e-05
8.85753e-05
7.21177e-05
3.12854e-05
9.71078e-06
1.14012e-05
0.000171128
0.000186604
0.000130404
4.88819e-05
1.06492e-05
9.21625e-06
4.14645e-05
9.62057e-05
6.96958e-05
2.78103e-05
7.14756e-06
8.44324e-06
2.15731e-05
5.22734e-05
0.00014457
0.000111695
9.93013e-06
8.70399e-06
3.20438e-05
9.55732e-05
7.21437e-05
2.74004e-05
6.71942e-06
7.69476e-06
2.08296e-05
5.43167e-05
0.000160733
0.000121086
9.43646e-06
7.94058e-06
3.15174e-05
0.000101548
7.67689e-05
2.63755e-05
6.06286e-06
7.03596e-06
2.1851e-05
6.23092e-05
0.000164148
0.00015001
9.52218e-06
7.0369e-06
5.09117e-05
0.000151278
0.000132546
4.46172e-05
4.78416e-06
2.32004e-06
2.0564e-05
8.02885e-05
4.42546e-05
1.00198e-05
2.94755e-06
4.75923e-06
9.88209e-05
0.000153602
0.000116738
3.19062e-05
2.65424e-06
1.34323e-06
2.07557e-05
8.94284e-05
5.44451e-05
8.69831e-06
1.4616e-06
2.41123e-06
4.57285e-05
0.000104341
0.000100769
2.71319e-05
1.3452e-06
6.14921e-07
1.25122e-05
6.64137e-05
9.6172e-05
2.46448e-05
8.52771e-07
1.51927e-06
2.83984e-05
9.14965e-05
7.35327e-05
2.13259e-05
7.02733e-07
2.31422e-07
6.46182e-06
2.70521e-05
7.83529e-05
2.67546e-05
8.87687e-07
1.88168e-06
2.09917e-05
6.47325e-05
5.53509e-05
1.91674e-05
1.27992e-06
3.66036e-07
6.16164e-06
1.94012e-05
6.72791e-05
2.67262e-05
1.97148e-06
3.99625e-06
1.95685e-05
5.11706e-05
4.17475e-05
1.58655e-05
2.99221e-06
1.2458e-06
5.38164e-06
1.43156e-05
4.67962e-05
1.89615e-05
2.79327e-06
5.31284e-06
1.84418e-05
3.97301e-05
1.50963e-05
6.65176e-06
3.08165e-06
4.69703e-06
2.01037e-05
4.04248e-05
3.38666e-05
1.72965e-05
8.55878e-06
7.02765e-06
1.56252e-05
2.89208e-05
1.30959e-05
6.95958e-06
4.14426e-06
5.54176e-06
1.65712e-05
2.89048e-05
2.69787e-05
1.6031e-05
9.12897e-06
8.44729e-06
1.42455e-05
2.41832e-05
1.19112e-05
7.85604e-06
5.39182e-06
5.87951e-06
1.48262e-05
2.43266e-05
2.31191e-05
1.40262e-05
8.63659e-06
7.23298e-06
9.41285e-06
1.2387e-05
2.40915e-05
1.5329e-05
6.48593e-06
9.85332e-06
1.59777e-05
2.22702e-05
2.03121e-05
1.43831e-05
9.14726e-06
7.77682e-06
1.01314e-05
1.24064e-05
2.12434e-05
1.44883e-05
6.5271e-06
9.28484e-06
1.41097e-05
2.05135e-05
1.3158e-05
1.17126e-05
8.4314e-06
7.10601e-06
1.53862e-05
2.14522e-05
2.04659e-05
1.66697e-05
1.04017e-05
9.79155e-06
1.5551e-05
1.87659e-05
1.37595e-05
1.25508e-05
8.60955e-06
7.09289e-06
1.51936e-05
1.9761e-05
1.90809e-05
1.49898e-05
9.92573e-06
8.87948e-06
1.38264e-05
1.44503e-05
1.94002e-05
1.58126e-05
7.5528e-06
1.07565e-05
1.73778e-05
1.90023e-05
1.80785e-05
1.65101e-05
1.00234e-05
8.92665e-06
1.39713e-05
1.50491e-05
1.84326e-05
1.54888e-05
7.42055e-06
1.03969e-05
1.55043e-05
1.81762e-05
1.55677e-05
1.53896e-05
9.21424e-06
7.82151e-06
1.6386e-05
1.86075e-05
1.8647e-05
1.82912e-05
1.10757e-05
1.03131e-05
1.76054e-05
1.79965e-05
1.61536e-05
1.54808e-05
9.14092e-06
7.69458e-06
1.62434e-05
1.83849e-05
1.8208e-05
1.63151e-05
1.06953e-05
9.34225e-06
1.65364e-05
1.64783e-05
1.84916e-05
1.6775e-05
7.84644e-06
1.08656e-05
1.70289e-05
1.8344e-05
1.73339e-05
1.77959e-05
9.50265e-06
7.9868e-06
1.75657e-05
1.88879e-05
1.87604e-05
1.80808e-05
1.10567e-05
9.64666e-06
1.89402e-05
1.83057e-05
1.94543e-05
1.88353e-05
8.24931e-06
1.15045e-05
2.10198e-05
1.97987e-05
1.95664e-05
2.02496e-05
1.05747e-05
9.47165e-06
1.80603e-05
1.874e-05
1.94795e-05
1.80852e-05
8.16587e-06
1.12908e-05
1.82541e-05
1.94262e-05
1.87843e-05
1.9158e-05
9.80064e-06
8.24894e-06
1.85866e-05
1.94577e-05
1.94097e-05
1.89239e-05
1.12817e-05
9.7817e-06
2.00411e-05
1.92811e-05
1.98979e-05
1.9206e-05
8.29487e-06
1.13495e-05
1.96551e-05
1.98675e-05
2.01375e-05
2.10798e-05
9.90557e-06
8.56601e-06
2.01332e-05
2.03127e-05
2.07983e-05
2.28445e-05
1.19794e-05
1.09584e-05
2.23046e-05
2.07185e-05
2.06162e-05
2.02857e-05
9.69467e-06
8.33507e-06
1.98456e-05
2.08182e-05
2.07715e-05
1.99757e-05
1.15029e-05
9.94273e-06
2.09333e-05
2.03866e-05
2.08252e-05
2.00911e-05
8.41319e-06
1.15605e-05
2.04039e-05
2.07946e-05
2.09337e-05
2.18381e-05
9.98962e-06
8.49243e-06
2.06538e-05
2.10961e-05
2.1067e-05
2.11566e-05
1.16055e-05
9.97195e-06
2.25e-05
2.14654e-05
2.15417e-05
2.12272e-05
8.47006e-06
1.15691e-05
2.16208e-05
2.15254e-05
2.20376e-05
2.31231e-05
1.00287e-05
8.5255e-06
2.17106e-05
2.19468e-05
2.19298e-05
2.22353e-05
1.16398e-05
1.01028e-05
2.38255e-05
2.261e-05
2.23979e-05
2.24788e-05
8.77538e-06
1.22107e-05
2.55032e-05
2.29648e-05
2.28914e-05
2.46317e-05
1.10842e-05
9.8589e-06
2.20824e-05
2.2677e-05
2.24462e-05
2.15192e-05
8.54008e-06
1.18266e-05
2.15999e-05
2.23919e-05
2.21862e-05
2.28251e-05
1.01657e-05
8.63046e-06
2.16047e-05
2.21136e-05
2.20507e-05
2.19636e-05
1.18469e-05
1.01559e-05
2.34493e-05
2.23402e-05
2.23347e-05
2.20092e-05
8.62563e-06
1.18226e-05
2.24358e-05
2.22934e-05
2.28297e-05
2.40018e-05
1.0128e-05
8.62201e-06
2.24207e-05
2.25938e-05
2.25525e-05
2.28184e-05
1.18176e-05
1.01863e-05
2.44957e-05
2.31917e-05
2.29496e-05
2.28096e-05
8.65901e-06
1.18487e-05
2.33492e-05
2.2916e-05
2.37196e-05
2.50843e-05
1.01794e-05
8.73643e-06
2.33087e-05
2.33201e-05
2.32852e-05
2.37865e-05
1.19384e-05
1.02501e-05
2.56278e-05
2.41525e-05
2.37687e-05
2.37782e-05
8.73478e-06
1.18892e-05
2.42816e-05
2.37419e-05
2.46795e-05
2.61058e-05
1.02525e-05
8.77104e-06
2.42262e-05
2.41135e-05
2.40802e-05
2.46502e-05
1.1964e-05
1.03374e-05
2.66798e-05
2.50893e-05
2.45449e-05
2.46729e-05
8.84105e-06
1.20193e-05
2.52698e-05
2.4525e-05
2.57926e-05
2.75533e-05
1.04141e-05
9.06561e-06
2.54658e-05
2.4876e-05
2.55105e-05
2.86995e-05
1.26021e-05
1.14676e-05
2.80804e-05
2.54947e-05
2.59491e-05
2.59218e-05
1.01949e-05
8.86709e-06
2.48121e-05
2.54036e-05
2.53004e-05
2.49611e-05
1.22302e-05
1.04981e-05
2.65219e-05
2.54239e-05
2.52314e-05
2.48866e-05
8.94598e-06
1.22016e-05
2.52757e-05
2.51683e-05
2.57674e-05
2.70675e-05
1.04322e-05
8.90258e-06
2.51764e-05
2.52617e-05
2.51904e-05
2.56471e-05
1.21421e-05
1.04268e-05
2.75151e-05
2.59705e-05
2.5566e-05
2.55513e-05
8.94739e-06
1.21751e-05
2.59551e-05
2.55114e-05
2.64186e-05
2.79435e-05
1.04281e-05
8.8854e-06
2.58419e-05
2.57533e-05
2.56959e-05
2.64284e-05
1.21458e-05
1.04165e-05
2.8388e-05
2.6724e-05
2.6131e-05
2.62748e-05
8.89721e-06
1.21922e-05
2.67529e-05
2.60954e-05
2.72978e-05
2.90016e-05
1.05109e-05
8.97811e-06
2.67341e-05
2.64157e-05
2.63769e-05
2.72974e-05
1.22722e-05
1.05561e-05
2.95533e-05
2.76822e-05
2.69156e-05
2.73075e-05
9.00917e-06
1.238e-05
2.77868e-05
2.68916e-05
2.83323e-05
3.0197e-05
1.06353e-05
9.00576e-06
2.77999e-05
2.72974e-05
2.72671e-05
2.83738e-05
1.23697e-05
1.06687e-05
3.07486e-05
2.87517e-05
2.78073e-05
2.85202e-05
9.08242e-06
1.2557e-05
2.88967e-05
2.7793e-05
2.95537e-05
3.17214e-05
1.08826e-05
9.30919e-06
2.91446e-05
2.81432e-05
2.88729e-05
3.30494e-05
1.31599e-05
1.18974e-05
3.23417e-05
2.89393e-05
2.96649e-05
2.96952e-05
1.05332e-05
9.17977e-06
2.84335e-05
2.88499e-05
2.87402e-05
2.83128e-05
1.27259e-05
1.09359e-05
3.01144e-05
2.89804e-05
2.82705e-05
2.81089e-05
9.24774e-06
1.27628e-05
2.85612e-05
2.82099e-05
2.92173e-05
3.08418e-05
1.08921e-05
9.22841e-06
2.85354e-05
2.81964e-05
2.81269e-05
2.89661e-05
1.27902e-05
1.09289e-05
3.1386e-05
2.94393e-05
2.84795e-05
2.89036e-05
9.2262e-06
1.27584e-05
2.94067e-05
2.84298e-05
2.99481e-05
3.2001e-05
1.09392e-05
9.26695e-06
2.93891e-05
2.87751e-05
2.8706e-05
2.97573e-05
1.27877e-05
1.10177e-05
3.2616e-05
3.031e-05
2.92544e-05
3.0049e-05
9.31023e-06
1.29503e-05
3.0601e-05
2.92207e-05
3.11367e-05
3.35187e-05
1.10892e-05
9.40178e-06
3.09696e-05
2.97566e-05
2.97135e-05
3.12259e-05
1.30544e-05
1.12957e-05
3.46049e-05
3.18386e-05
3.03007e-05
3.15384e-05
9.61055e-06
1.36679e-05
3.55054e-05
3.10039e-05
3.11106e-05
3.50585e-05
1.25428e-05
1.10419e-05
3.32331e-05
3.26331e-05
3.11193e-05
3.15265e-05
9.4672e-06
1.34116e-05
3.1409e-05
3.10016e-05
3.21805e-05
3.41809e-05
1.1469e-05
9.53784e-06
3.16578e-05
3.10539e-05
3.09763e-05
3.20862e-05
1.33137e-05
1.13751e-05
3.50723e-05
3.26072e-05
3.15608e-05
3.25492e-05
9.5095e-06
1.32521e-05
3.27922e-05
3.15047e-05
3.33691e-05
3.58317e-05
1.13742e-05
9.51754e-06
3.30323e-05
3.19694e-05
3.19241e-05
3.3453e-05
1.32091e-05
1.14217e-05
3.68807e-05
3.40423e-05
3.25989e-05
3.37884e-05
9.7816e-06
1.40052e-05
3.78512e-05
3.32763e-05
3.32838e-05
3.71583e-05
1.29794e-05
1.1468e-05
3.53463e-05
3.47238e-05
3.31103e-05
3.37018e-05
9.73113e-06
1.37766e-05
3.35824e-05
3.29944e-05
3.43043e-05
3.62978e-05
1.17257e-05
9.78232e-06
3.37359e-05
3.28565e-05
3.27503e-05
3.38124e-05
1.37034e-05
1.17826e-05
3.77057e-05
3.47184e-05
3.32207e-05
3.44195e-05
9.99845e-06
1.44905e-05
3.87216e-05
3.38676e-05
3.39715e-05
3.82898e-05
1.34613e-05
1.17783e-05
3.70542e-05
3.59312e-05
3.41577e-05
3.49311e-05
9.94442e-06
1.41061e-05
3.47632e-05
3.4012e-05
3.55255e-05
3.79722e-05
1.19899e-05
9.98713e-06
3.51544e-05
3.41779e-05
3.40985e-05
3.56147e-05
1.3998e-05
1.19098e-05
3.91976e-05
3.61866e-05
3.47775e-05
3.5891e-05
1.00619e-05
1.47402e-05
4.03438e-05
3.54675e-05
3.54145e-05
3.95416e-05
1.37608e-05
1.20637e-05
3.81394e-05
3.71211e-05
3.53883e-05
3.61037e-05
1.01648e-05
1.44666e-05
3.59545e-05
3.52526e-05
3.68626e-05
3.93515e-05
1.23298e-05
1.02984e-05
3.64352e-05
3.52638e-05
3.51514e-05
3.64852e-05
1.45257e-05
1.26709e-05
4.14467e-05
3.76326e-05
3.58843e-05
3.74218e-05
1.06941e-05
1.54887e-05
4.2055e-05
3.65372e-05
3.6754e-05
4.20702e-05
1.46097e-05
1.27421e-05
4.19677e-05
3.98669e-05
3.73951e-05
3.88774e-05
1.08456e-05
1.54013e-05
3.88476e-05
3.72839e-05
4.01163e-05
4.39627e-05
1.34129e-05
1.13794e-05
3.96939e-05
3.78941e-05
3.87101e-05
4.49871e-05
1.63205e-05
1.49846e-05
4.44089e-05
3.88555e-05
4.15835e-05
4.33511e-05
1.29889e-05
1.10761e-05
4.03688e-05
3.94681e-05
3.93455e-05
4.0069e-05
1.59323e-05
1.40445e-05
4.55526e-05
4.18507e-05
3.94361e-05
4.12039e-05
1.19058e-05
1.71132e-05
4.62321e-05
4.01176e-05
4.04293e-05
4.62529e-05
1.60011e-05
1.39155e-05
4.6556e-05
4.41208e-05
4.09219e-05
4.25099e-05
1.18404e-05
1.72737e-05
4.73405e-05
4.1663e-05
4.1503e-05
4.58336e-05
1.59412e-05
1.41323e-05
4.55153e-05
4.37999e-05
4.13717e-05
4.2141e-05
1.20617e-05
1.71825e-05
4.23158e-05
4.12625e-05
4.43117e-05
4.87143e-05
1.4895e-05
1.26469e-05
4.36799e-05
4.15593e-05
4.22542e-05
4.85381e-05
1.82228e-05
1.71494e-05
4.858e-05
4.24236e-05
4.6703e-05
5.05308e-05
1.50345e-05
1.2652e-05
4.56062e-05
4.36489e-05
4.42797e-05
5.07219e-05
1.85636e-05
1.76277e-05
5.06151e-05
4.44857e-05
4.85582e-05
5.18753e-05
1.55774e-05
1.34408e-05
4.70583e-05
4.52109e-05
4.5818e-05
5.1749e-05
1.95623e-05
1.84354e-05
5.12523e-05
4.59127e-05
4.98839e-05
5.32996e-05
1.61383e-05
1.3529e-05
4.82882e-05
4.63371e-05
4.6982e-05
5.34398e-05
1.9624e-05
1.85329e-05
5.30973e-05
4.71467e-05
5.123e-05
5.46991e-05
1.65258e-05
1.42698e-05
4.96485e-05
4.7769e-05
4.7673e-05
5.05723e-05
2.08417e-05
2.04096e-05
5.89064e-05
4.92005e-05
4.88155e-05
5.61092e-05
1.93595e-05
1.70989e-05
5.42207e-05
5.22882e-05
4.86592e-05
4.9713e-05
1.41743e-05
2.11444e-05
5.48783e-05
4.91261e-05
4.91357e-05
5.41407e-05
2.01063e-05
1.77368e-05
5.67755e-05
5.30955e-05
4.9298e-05
5.13217e-05
1.50768e-05
2.19987e-05
5.14306e-05
4.90386e-05
5.01115e-05
5.93719e-05
2.1971e-05
2.0219e-05
5.65122e-05
4.97029e-05
5.42682e-05
5.82302e-05
1.84172e-05
1.5903e-05
5.2613e-05
5.06001e-05
5.03337e-05
5.2378e-05
2.36799e-05
2.30491e-05
6.30103e-05
5.22044e-05
5.18521e-05
6.06847e-05
2.16744e-05
1.89055e-05
6.04804e-05
5.68275e-05
5.25617e-05
5.45198e-05
1.54199e-05
2.33167e-05
5.72856e-05
5.23998e-05
5.27517e-05
6.11946e-05
2.35649e-05
2.40392e-05
6.29132e-05
5.39183e-05
5.32449e-05
5.99361e-05
2.34414e-05
2.0707e-05
6.19434e-05
5.77238e-05
5.34058e-05
5.5403e-05
1.67045e-05
2.53932e-05
5.86812e-05
5.32427e-05
5.32024e-05
5.98577e-05
2.62411e-05
2.70082e-05
6.48375e-05
5.40647e-05
5.36866e-05
6.30097e-05
2.70828e-05
2.67483e-05
6.67569e-05
5.57513e-05
5.47563e-05
6.36038e-05
2.56887e-05
2.28674e-05
6.53927e-05
6.05637e-05
5.53424e-05
5.83534e-05
1.82356e-05
2.57385e-05
5.81137e-05
5.49614e-05
5.54956e-05
6.542e-05
2.62469e-05
2.7815e-05
6.5121e-05
5.55045e-05
5.55875e-05
6.53762e-05
2.87956e-05
2.97394e-05
6.47171e-05
5.54037e-05
5.57824e-05
6.68406e-05
3.07867e-05
3.10408e-05
6.51656e-05
5.50727e-05
5.61362e-05
6.94847e-05
3.14025e-05
3.15923e-05
7.04225e-05
5.60978e-05
5.74942e-05
7.44972e-05
3.11085e-05
3.02555e-05
7.72504e-05
5.77481e-05
6.02443e-05
8.27793e-05
2.93536e-05
2.836e-05
8.59614e-05
6.0725e-05
6.4246e-05
9.06415e-05
2.75029e-05
2.66335e-05
8.99953e-05
6.48666e-05
6.90323e-05
9.4443e-05
2.59253e-05
2.52159e-05
9.41768e-05
6.99243e-05
7.46402e-05
9.82708e-05
2.46522e-05
2.40967e-05
9.85914e-05
7.56719e-05
8.10657e-05
0.000101822
2.36342e-05
2.31877e-05
0.000103104
8.24701e-05
8.88803e-05
0.00010519
2.28033e-05
2.24509e-05
0.000106692
9.03555e-05
9.72913e-05
0.000108534
2.2148e-05
2.18835e-05
0.000109995
9.89076e-05
0.000105916
0.000111861
2.16524e-05
2.14728e-05
0.000113349
0.000107644
0.000114689
0.000115295
2.12986e-05
2.11932e-05
0.00011676
0.000116772
0.000123951
0.000118664
2.10631e-05
2.10194e-05
0.000120037
0.000125843
0.000133601
0.000121936
2.09319e-05
2.09333e-05
0.000123234
0.00013355
0.000141366
0.000125038
2.08854e-05
2.09048e-05
0.000126314
0.000141155
0.000148887
0.000128108
2.08807e-05
2.09051e-05
0.000129225
0.000148626
0.000155754
0.00013067
2.08988e-05
2.09232e-05
0.000131669
0.000155343
0.000162082
0.000132922
2.09282e-05
2.09515e-05
0.000133719
0.000161455
0.000167583
0.000134809
2.0962e-05
2.09853e-05
0.00013546
0.000166789
0.000172592
0.000136473
2.09971e-05
2.10164e-05
0.000136971
0.000171633
0.000176801
0.000137841
2.10276e-05
2.10425e-05
0.000138203
0.000175681
0.000180332
0.000138969
2.10539e-05
2.10632e-05
0.000139119
0.000178959
0.000182892
0.000139756
2.10694e-05
2.1069e-05
0.00013973
0.00018153
0.000185135
0.000140314
2.10649e-05
2.1056e-05
0.000140124
0.000183623
0.000186659
0.000140616
2.10474e-05
2.10355e-05
0.000140295
0.000184987
0.000187839
0.000140729
2.10269e-05
2.10162e-05
0.000140309
0.000185932
0.000188562
0.000140683
2.10113e-05
2.10029e-05
0.000140225
0.000186542
0.000189131
0.000140587
2.10007e-05
2.09975e-05
0.000140106
0.000186954
0.000189458
0.000140452
2.09998e-05
2.10024e-05
0.000140046
0.000187312
0.000189921
0.000140411
2.10054e-05
2.10128e-05
0.000140073
0.000187792
0.000190441
0.000140429
2.1018e-05
2.10292e-05
0.000140156
0.000188386
0.000191287
0.000140548
2.10345e-05
2.10489e-05
0.000140346
0.000189406
0.000192364
0.000140731
2.10551e-05
2.10706e-05
0.000140568
0.000190646
0.000193685
0.000140975
2.10777e-05
2.10941e-05
0.000140777
0.000191864
0.000194796
0.000141143
2.11025e-05
2.11199e-05
0.00014095
0.000192959
0.000195938
0.00014133
2.11281e-05
2.11452e-05
0.000141094
0.000194024
0.000196917
0.00014143
2.11532e-05
2.11706e-05
0.000141196
0.000194997
0.0001979
0.000141537
2.11782e-05
2.11958e-05
0.000141261
0.000195876
0.000198659
0.000141564
2.1204e-05
2.12227e-05
0.000141286
0.000196621
0.000199405
0.000141588
2.12306e-05
2.12492e-05
0.000141276
0.000197272
0.000199955
0.000141545
2.12578e-05
2.12775e-05
0.000141238
0.000197827
0.000200522
0.000141512
2.1286e-05
2.13049e-05
0.00014118
0.000198315
0.000200928
0.000141429
2.13139e-05
2.13329e-05
0.000141111
0.000198756
0.000201414
0.000141368
2.13416e-05
2.13597e-05
0.000141025
0.000199189
0.000201783
0.000141259
2.13682e-05
2.13855e-05
0.000140925
0.0001996
0.000202227
0.000141158
2.13931e-05
2.14089e-05
0.000140798
0.000199953
0.000202504
0.000141008
2.14164e-05
2.14314e-05
0.000140657
0.000200269
0.000202857
0.00014087
2.14385e-05
2.14523e-05
0.000140503
0.000200539
0.000203058
0.000140698
2.14599e-05