/*--------------------------------*- C++ -*----------------------------------*\
| =========                 |                                                 |
| \\      /  F ield         | OpenFOAM: The Open Source CFD Toolbox           |
|  \\    /   O peration     | Version:  v2006                                 |
|   \\  /    A nd           | Website:  www.openfoam.com                      |
|    \\/     M anipulation  |                                                 |
\*---------------------------------------------------------------------------*/
FoamFile
{
    version     2.0;
    format      ascii;
    class       volScalarField;
    location    "0.002";
    object      omega;
}
// * * * * * * * * * * * * * * * * * * * * * * * * * * * * * * * * * * * * * //

dimensions      [0 0 -1 0 0 0 0];


internalField   nonuniform List<scalar> 
12716
(
3.34445
3.50129
0.0533785
0.09331
0.00735798
0.216546
0.35413
0.436391
0.821287
1.28814
1.69012
2.65269
4.3378
6.67079
9.55938
12.8046
16.168
19.3766
22.2218
24.494
26.1435
27.2481
27.9187
28.2445
28.2891
28.1045
27.7421
27.2516
26.6755
26.0451
25.379
24.6829
23.951
23.1669
22.306
21.3409
20.2511
19.0336
18.0966
17.8884
17.0598
15.5279
14.1948
13.1422
12.313
11.6356
11.0699
10.5875
10.1367
9.5805
8.93682
8.35407
7.78645
7.19241
6.54031
5.82267
5.04592
4.23012
3.32943
2.31816
0.793123
0.10268
0.549153
0.279348
0.66955
2.8613
13.4099
173.697
1951.9
11457.1
167220
164390
24788.5
5420.71
8881.8
33131.9
165030
164021
36875.1
11415.5
12585.1
37268
159324
155146
37612.7
13501.6
14130.1
37539.2
151450
148873
37845.2
15142.1
15980.8
38390.4
147447
146873
39284.6
17198.9
17914.3
39771.4
146961
147236
40506.9
18883.3
19280.3
40788
147673
147849
41243.5
19894.8
20043.6
41321.2
147979
147892
41562.9
20441.7
20493.7
41547.8
147735
147386
41685
20776.8
20800.3
41657.2
147150
146765
41807.5
21039.7
21046.7
41824
146466
145854
42065.4
21234.2
21234.6
42173.8
144794
142292
42594
21350.9
21263.3
42707.3
138354
133412
43094.6
21145.5
20454.8
43225.3
128281
123441
43665.9
19560.2
17900
43960.5
119539
117184
45055
16653.1
15603.5
45931.2
116067
115659
47102.1
15489.6
15633.7
47428.3
115583
115602
47994.2
17040.9
17849.2
48060.8
115680
115765
48378.7
18495
18552.2
48341.8
115826
115872
48490.5
18801.3
18761.2
48396.8
115890
115890
48457.7
18894.1
18825
48273.7
115864
115822
48311.8
18918.6
18810.9
48093.3
115755
115673
48113.9
18865.5
18714.4
47858.2
115565
115442
47862.5
18769.5
18619.8
47582.4
115291
115122
47574
18673
18515.6
47272.2
114924
114708
47249.1
18563.5
18395.7
46923.7
114464
114200
46885.8
18438.9
18263
46539
113911
113601
46486.4
18301.6
18117.2
46117.2
113267
112911
46048.5
18150.8
17957.1
45655.4
112532
112128
45570.3
17985.8
17783.4
45152.3
111701
111246
45051
17807.4
17595.8
44608.6
110765
110252
44491.1
17614.5
17391.9
44023.4
109711
109135
43889.1
17404.2
17167.3
43395.4
108527
107882
43243.8
17171.4
16918.8
42725.2
107202
106483
42555.2
16909.3
16634.5
42010.9
105729
104932
41823
16607.5
16301.2
41265
104096
103216
41049
16259.2
15952.8
40478.2
102300
101343
40195.9
15949.1
15738.5
39582.5
100349
99313.2
39221.5
15751.8
15579.7
38552.4
98243
97136.9
38094.9
15593.2
15421.8
37345.9
96000.4
94839.4
36764
15417.4
15210.9
35905.5
93656
92460.2
35192.1
15157.2
14878.9
34200
91248
90052.4
33337.2
14750.7
14409.3
32205.7
88816.8
87718
31175.4
14168.9
13770.8
29960.2
86705.7
85857.3
28723.7
13399.6
12973.8
27430.5
85092.2
84416.6
26056.9
12582.3
12148
24599.7
83914.1
83501.9
23381.3
11823.9
11359.4
21853.3
83275
83053.8
21314.6
11201.3
10829.9
20332.4
82993.7
82893.8
20614.3
10879.9
10697.8
20342.6
82930.1
82891.5
21572.2
11006.6
10889.7
21593.5
82958.7
82902
23578.7
11502.4
11347
23518.4
82848.2
82794.7
25588.5
11965.8
11859.3
25833.3
82578.2
82607.6
27134.3
12143.3
12045.5
27514.9
82787.8
83050.4
28226.2
12083.8
11941.5
28595.9
83687.3
84262.8
28956.7
11834.5
11625.8
29190.4
84948.8
85560
29383.2
11467.8
11239
29470.6
86201.3
86796.8
29559.8
11053.2
10839.6
29558.9
87384.9
87934.3
29563.7
10641.3
10469.4
29530.7
88462.1
88954.4
29460
10262.4
10140.4
29395.7
89422
89857.5
29285.5
9932.12
9859.63
29229.8
90267
90650.9
29106.4
9660.11
9626.82
29066
91010.7
91347.2
28934.7
9443.62
9438.85
28913.2
91662
91957.9
28775.5
9277.23
9290.45
28772.1
92233.3
92491.7
28646.2
9156.95
9182.94
28668.1
92735.7
92969.6
28554
9070.68
9103.66
28584.2
93188.6
93398.8
28484.7
9007.12
9046.26
28523.1
93596.5
93788.2
28436.1
8967.39
9012.68
28481.6
93968.1
94147.2
28403.5
8943.8
8993.56
28456.2
94310.8
94475.2
28388.7
8930.4
8984.76
28448.1
94626.1
94780.3
28388.1
8927.75
8988.05
28459.6
94919.6
95069.5
28411.4
8937.49
9001.91
28497.7
95213.1
95387.3
28457
8952.58
9015.18
28556.4
95558.5
95743.1
28517.7
8963.03
9024
28620.5
95916.8
96105.5
28581.6
8973.04
9038.48
28682.9
96275.6
96469
28642.3
8994
9066.15
28736.7
96632.7
96830.4
28689.9
9027.76
9122.09
28759.1
96994.4
97219.8
28688.5
9097.64
9256.42
28739.4
97440.9
97805.9
28617.8
9269.86
9510.89
28628.5
98277.5
99099.4
28434.7
9539.55
9705.52
28457.1
100205
101756
28285.1
9663.89
9662.01
28042.7
102973
103532
27352.5
9343.15
9101.4
26931.7
103669
103956
26196.6
8621.49
8124.2
25345.5
103348
102791
23563.6
7282.09
6323.65
21712
100189
99065.7
17972
5152.57
3408.94
13756.2
97347.1
95335.6
10064.3
2507.08
2050.64
4768.75
89925.9
1988.61
1993.93
1993.96
1994.23
1993.74
1993.73
1993.78
1993.55
1993.61
1993.54
1993.6
1993.62
1993.82
1994.09
1994.29
1993.88
1996.38
2008.57
2000.49
1989.63
1995.12
1998.05
1999.85
2050.15
2583.28
611.492
230927
425454
176183
58561.5
47131.4
150630
819108
607075
143117
45863.2
42424.5
133602
536071
530672
145011
45605.3
44419.5
141350
533361
537218
149902
49098.2
48643.1
145171
540866
545754
151535
53447
53161.7
143519
549773
548670
145359
58013.5
57244
136889
547452
546427
138546
59445.1
58236.5
129792
545581
544422
131666
59640.5
57757.7
125328
541856
539410
127944
58449.7
55963.3
122590
536608
534060
125956
56785.4
54687.9
120704
530568
527607
123943
55570.7
53536.3
118755
525034
522011
122007
54391.9
52231.2
116896
519486
517105
119807
53013.5
50837.7
114912
515565
514186
117863
51616
49488.3
113317
513413
512759
116969
50414.6
48717
112892
512392
512033
116953
49800
48266.3
112973
511829
511611
117068
49496.3
48045.3
113145
511435
511186
117400
49355.2
47982.1
113508
511004
510779
117671
49415.2
48123.7
113722
510602
510329
117869
49565.5
48229.9
113895
510146
509899
117953
49657.2
48353.4
113977
509717
509424
118057
49799.9
48476.1
114081
509242
508975
118094
49901
48582.8
114129
508792
508483
118166
50005.7
48653.3
114202
508302
508019
118174
50056.1
48718.5
114225
507838
507520
118216
50140.3
48787.2
114268
507347
507054
118200
50195
48855.8
114278
506880
506559
118232
50272
48907.2
114316
506396
506096
118218
50297.9
48937.8
114333
505933
505611
118251
50341.8
48963.9
114369
505460
505159
118238
50356.9
48993.6
114394
505011
504697
118277
50404.6
49025.9
114437
504566
504270
118281
50418.1
49042.2
114483
504142
503840
118328
50440.6
49040.6
114527
503728
503440
118337
50423.9
49029
114599
503335
503051
118380
50421.6
49003
114622
502962
502688
118391
50374.2
48945.8
114764
502613
502356
118291
50301.4
48826.9
114826
502302
502058
118222
50145.2
48634.4
114949
502036
501827
117895
49897.8
48204.4
114941
501849
501695
117262
49368.5
47524.7
114885
501754
501560
118295
48769
47380.5
114643
495459
495212
118747
48981.2
47397.9
115927
495250
489032
118731
48983.8
47562.2
115753
483066
471404
115858
48356.4
46624.8
112556
465929
459937
113314
47218.7
44705.8
109953
454819
444448
109301
45011.8
42919.6
106536
429582
419884
106706
43218.9
40658.1
102843
411295
401845
102285
40710.1
38377.8
98780.7
393593
381280
97808.5
38326.4
35647.4
94240.8
369260
354583
92855.5
35608.6
33143.7
89241.3
343770
334089
87447
32744.1
30553.9
83427.7
320099
307997
79308.1
28480.3
27291.3
76915
286960
255848
32513.4
17441.2
57692.8
146656
405478
714495
125482
46105.1
40819.9
103980
490906
416834
94358.8
34251.1
35773.5
86824.3
380749
357726
88674.8
24498
17727
57676.1
340428
152578
33615.4
12842.3
9867.37
28348.3
84811.8
69604.9
22440.1
8056.77
7033.63
19210.6
60043.8
57316.2
15718.5
4974.98
8297.65
20894.4
63212.9
71428.9
22029.2
8183.75
7383.56
19328.7
65653.3
60605.9
17998.5
6913.09
6329.57
16255.1
56045.8
54648.4
16020
6538.23
5534.06
14181.2
51608.6
49004.7
12667
5310.83
4054.6
10593.6
47331.8
51349.8
12894.7
5997.94
5872.68
13510.7
57955
62700
14680.3
6829.82
5748.26
13297.4
64878
70729.9
15965.9
7531.53
8885.62
18077.4
79393.7
81193.5
17154.2
9027.12
9140.1
15620.9
76943
73819.9
14643.1
8449.39
10875
16245.4
76126.3
75824.5
16160.1
11135
10997
15440.6
72009.1
64485.9
14908.1
10795.8
12749.4
16089.7
64758.4
59312.9
17260.1
14212
14060.7
18093.6
54874.1
48987.3
20140.4
16899.5
18450.7
23598.6
48001.9
43392.9
24978
19196.1
26498.6
38590.3
48820.8
56915
52115.7
44454.4
62779.3
63077
66356.9
93135.8
92110.6
71454.5
159192
135969
121820
162123
164621
153816
156380
178619
190589
211908
184664
153662
136382
180755
217072
230952
177339
130684
117579
166855
228799
228053
149494
92081.3
92972.6
144146
235821
247400
144392
88337.7
81455.1
133750
237256
230541
111931
63615.3
66763.4
112010
234746
237930
112679
66197.7
62825.8
103800
221748
195239
81073.3
53664.5
52604.4
71191.4
167775
148815
53593.4
48329.3
48331.5
54379.3
146724
144248
53752.6
47665.2
46951.5
52280.2
135028
126157
44796.9
45859.9
44734.7
47272.5
130973
134521
47456.3
44326.5
43053.9
47630.1
127148
115952
44278.5
42708.1
41626.8
45762.4
118074
129008
47757.6
40740.7
40497.3
52553.8
143961
139528
57197
40114.5
38949.1
56285.5
139490
174078
75678.7
40528.5
43292.2
117509
334583
511035
201495
46025.6
46182.7
75214.2
359707
432893
110574
63807.3
66734.5
114768
530286
758748
153155
79968.9
95432.5
199819
481858
324870
33963.6
44829.5
50492.4
92681.5
387951
502431
101674
59403.4
72351.3
143315
768604
489545
193637
90474.5
42498.1
38107.4
331925
432066
106059
52043
63267.9
123351
679062
437255
172621
80215.7
37679.9
33676.3
303653
407389
96840
47930.1
59117.5
116867
655621
420012
163547
73409.3
32491.2
25508.7
288150
349457
72811.5
36826.3
37957.6
75191.2
454558
706857
108364
48191.6
68212.7
162472
433114
292983
36839.6
30465.8
35638.1
72910.3
402511
675708
94406.5
42386
50733.5
137234
431767
292555
53753
32052.7
33521.2
70366.9
402558
657573
98196
42220.3
32054.9
76904.7
408901
276181
60364.5
33089.1
34543.1
70139.6
388655
660880
122847
54626
33918.9
66019.2
424590
287228
67494.9
36548
37533.3
71100.3
400980
666245
143201
63103.1
34349.5
62508.6
424474
289578
69996.7
37684.8
40525.9
83231.8
405280
689521
182169
77708.3
40683.5
72962.9
455849
337488
73432.1
41001.5
78638.2
174406
564913
379772
67010.2
40181.8
42086.5
77407.1
272665
386985
92795.5
46124.9
93210.9
213730
651681
422140
79660
46746.2
48020.9
87315
298951
415073
104403
51489.5
106238
241841
692833
464022
92801.6
52818.8
53537.1
98427.1
359238
611039
227762
106061
54228.1
89842
419830
310142
101825
56563.2
60255.8
120299
434833
718357
269832
122058
60672.3
104847
477110
369221
109667
60780.5
117088
244499
618356
419361
98452.6
59997.2
60774.5
105502
308599
427349
127166
65755.1
132498
284134
711690
483767
112824
67166.3
67618.6
119738
382798
642498
264675
129706
67652.9
108386
444884
335121
120453
69767
74059.4
141805
467623
767802
313019
147181
75404.9
125234
512934
403125
130927
75142.7
140691
283326
669645
459677
117465
74108.2
74767.1
125351
343638
478213
150022
80316.9
159565
333923
796231
541201
135245
82796.8
82738.6
142014
431055
721317
309056
155771
82529.7
130120
504954
408221
138453
83101.3
153758
301483
684122
485782
128545
83138
84422.4
139263
395685
656476
292828
151672
82884.4
126740
464998
358621
137073
84223.9
89047
160523
500192
818015
353307
171038
91489.2
145895
556028
446418
153302
91269.8
167883
328371
738091
524556
142019
92019.1
92256.8
150502
429969
713595
319551
166078
91103
138865
504487
414635
147701
91695.5
161842
309044
682382
471762
136406
89535.9
88953.4
140667
361698
499306
167316
95386.4
181032
366016
821030
571624
153852
98157.8
97900.5
161361
462894
766769
346444
179172
97837.5
149577
543178
444181
158310
98262.5
176643
337158
733640
525207
147866
98301.2
99234.1
158194
434888
723349
333961
176318
97865.7
147059
518656
429044
155809
98406.5
174347
330161
709966
509460
145886
97981
99092.6
155869
423255
697412
325631
173314
97511.9
147098
496283
387096
153354
98218.2
103830
180716
537372
885514
399110
196956
107940
167659
610041
494100
175427
107486
195060
375270
816190
585221
164392
108829
108959
174005
482484
800564
370044
194353
108398
162570
570020
471727
173110
109299
194307
367171
785394
567747
162816
109327
109598
172183
470235
776694
363608
192961
108562
161115
555690
463229
171806
109452
192740
361104
768945
551979
161500
109064
109518
171024
459378
756220
357731
191442
108249
159622
544145
455311
169986
109208
191479
357325
750631
544204
160931
108968
109417
169554
453465
739621
352269
190239
107835
158310
528448
441688
167893
108554
185204
341662
713085
501100
155954
105884
104430
159712
394938
544020
189964
111971
210167
417374
895244
622895
178265
116254
116143
186982
511126
836034
395266
209623
116420
173792
597414
499115
184489
116976
208477
390630
822909
591937
173755
117773
118724
185065
495834
814162
388237
209155
117443
173058
583753
489632
183211
118090
207679
387189
806786
580290
173160
117958
119046
184591
487572
805224
386669
208693
117655
173297
577056
483354
183317
118375
206906
382606
790253
570251
172385
118090
119218
183210
481750
788915
381885
207983
117779
171881
564074
475080
181710
118529
206130
378584
776193
559177
171424
118044
119228
181964
473340
773457
377752
206507
117194
171179
551992
463800
179917
117771
200031
364741
742314
520796
167909
114974
114284
173366
418931
581750
207475
123891
232807
455184
954787
671137
196099
128906
128004
203680
554643
895153
429831
228671
129028
190606
638660
538906
202803
130051
230009
428258
883238
633379
192228
131106
131497
202523
533835
870825
421530
229506
130557
189847
621543
526855
201174
131614
228318
417172
857883
615691
189880
130484
130789
198743
522564
845486
412416
226000
128716
186749
597944
509222
198029
129804
223404
405223
824939
588402
185554
128093
128446
194032
499244
788703
388043
215713
123384
179111
544921
440231
184122
122333
131171
217282
605190
979561
471380
243247
135282
203442
669936
555981
210734
134493
238220
437861
887608
631537
196324
134499
135766
207612
537212
864275
428774
236727
133207
193723
616368
526056
203981
134077
231226
417758
841866
597565
190373
131952
133344
200839
513725
819277
409214
227448
129904
189557
578041
471105
196864
130633
137727
228346
640421
1.0139e+06
491977
253071
140943
211822
690283
580630
221192
140740
248610
455231
925604
650634
205452
140397
140405
212754
552110
869049
432030
239629
134963
197009
598417
484301
203053
134449
143534
236903
657176
1.03708e+06
508212
264322
146197
219287
705323
592305
226347
145255
255063
463859
935137
657908
208460
143357
144884
221018
566369
905447
449836
249914
140922
206747
634393
515603
215468
142058
148979
247260
694250
1.08096e+06
529856
274195
151374
227234
732017
616711
235996
150879
265452
482337
972815
683169
217570
148915
148863
225249
581183
903154
450048
251924
140760
205344
617688
502783
211239
140122
149131
246277
673961
1.04588e+06
517083
272376
150147
224154
703628
595265
231214
149206
256216
459948
917081
626562
209373
142883
143117
217369
515099
701240
252278
153379
284571
542004
1.09613e+06
744956
234375
155090
153288
239142
622704
946395
476064
263477
146264
214749
640427
522722
220648
145897
155058
255749
696986
1.06796e+06
530943
279756
155179
232887
722878
589099
242958
156623
161761
269534
775665
1.16363e+06
574281
298142
162000
247287
772006
652105
253051
160843
276492
494706
987956
666760
224108
152557
151235
228847
542413
708238
259185
158912
282500
530844
1.06656e+06
701833
229154
152606
152669
237166
570333
741823
271275
161159
291474
549442
1.1043e+06
723607
236978
156290
155288
242049
584297
749587
271522
161749
291287
552603
1.10713e+06
728343
236899
156791
157313
245346
596392
771259
280046
165506
300346
567439
1.13366e+06
744713
244095
159944
159264
247063
603807
733327
292784
171011
170444
310422
911005
1.29619e+06
632525
318138
167481
259857
822538
661288
269205
168123
174237
301223
836089
1.21373e+06
603559
317024
167452
257712
782809
620047
254175
163193
173018
300447
742037
917367
300895
172170
324443
639655
1.29279e+06
801765
262185
165420
160987
257701
634073
752432
304793
174752
177156
328695
938420
1.32607e+06
652460
333223
169690
267104
842330
677979
276497
169638
173269
299445
783147
895692
343131
181268
174847
345924
1.03294e+06
1.38999e+06
670594
332819
164637
263419
831680
650037
268515
161257
160971
275873
722206
805181
310724
165194
161841
314413
889519
994020
379390
181608
176358
390108
1.13028e+06
1.48347e+06
735410
359575
172426
285113
891798
699772
279977
168779
174065
317662
791986
848038
322831
171675
170488
331872
896063
932499
348294
168295
171558
369535
944005
948225
365891
167044
173297
385528
947009
929517
381517
171481
175254
384260
909907
889186
376637
173582
177012
378369
869678
850255
369785
175261
178482
372242
832879
816332
366266
176739
180324
369208
801971
788420
364981
178834
182552
368117
776763
766018
364101
181044
184854
367143
756585
748207
363290
183434
186862
366000
740596
734016
361627
185241
188278
363900
727924
722848
359047
186563
189096
361081
717973
714224
355638
186966
189140
357455
710309
707750
351879
186726
188432
353535
704627
703080
347562
185598
187073
349074
700640
699864
343122
183904
185346
344553
698068
697746
338324
182198
183664
339703
696456
696379
333738
180688
182110
335180
695427
695470
329306
179239
180711
330816
694697
694803
325462
178031
179469
327115
694165
694320
321922
176877
178356
323666
693790
693976
318950
175909
177347
320843
693525
693720
316226
174941
176416
318217
693316
693509
313992
174100
175517
316120
693139
693330
311902
173171
174611
314064
692972
693168
310196
172345
173725
312435
692819
693021
308580
171413
172837
310821
692680
692896
307232
170618
171980
309567
692588
692832
305928
169700
171113
308281
692562
692883
304846
168922
170278
307290
692673
693085
303745
168023
169431
306159
692900
693393
302769
167260
168629
305258
693242
693804
301760
166358
167776
304236
693677
694295
300902
165642
167011
303457
694187
694831
300010
164821
166255
302543
694732
695396
299269
164159
165545
301897
695308
695980
298516
163389
164835
301130
695901
696589
297919
162763
164155
300628
696524
697223
297300
162017
163468
299989
697173
697894
296818
161409
162806
299601
697862
698595
296310
160677
162132
299075
698576
699322
295946
160079
161481
298805
699323
700080
295551
159361
160834
298387
700099
700865
295284
158797
160218
298203
700905
701682
294953
158105
159580
297840
701739
702527
294732
157534
158950
297701
702608
703413
294454
156828
158311
297402
703512
704328
294308
156269
157705
297341
704448
705279
294104
155595
157098
297100
705417
706264
294008
155063
156516
297087
706425
707288
293853
154412
155937
296908
707461
708321
293829
153915
155399
296986
708501
709344
293763
153309
154868
296874
709532
710381
293781
152862
154388
296976
710584
711425
293727
152323
153926
296863
711639
712508
293730
151935
153473
296922
712764
713672
293617
151387
152969
296736
713951
714888
293574
150937
152457
296776
715191
716142
293491
150359
151972
296666
716477
717465
293540
149984
151578
296803
717849
718893
293509
149536
151203
296726
719341
720472
293560
149223
150805
296831
720979
722165
293501
148735
150404
296747
722692
723864
293608
148452
150102
296937
724389
725553
293660
148101
149831
296947
726120
727353
293805
147900
149559
297157
727985
729274
293830
147543
149274
297126
729969
731365
293929
147340
149016
297299
732166
733655
293912
146999
148733
297235
734575
736169
293977
146776
148426
297369
737231
738871
293934
146377
148106
297327
740039
741772
294056
146152
147852
297593
743032
744829
294187
145846
147617
297649
746153
747932
294395
145683
147389
297926
749239
750963
294536
145377
147157
298050
752329
754070
294884
145238
146953
298521
755438
757203
295175
144933
146736
298826
758696
760527
295631
144809
146570
299400
762071
763915
296024
144584
146441
299795
765531
767385
296564
144520
146263
300416
769014
770853
296969
144195
145980
300768
772509
774306
297481
143998
145776
301412
775923
777651
297930
143766
145680
301873
779280
781029
298388
143741
145592
302406
782648
784104
298722
143552
145351
302489
785479
786604
298904
143303
145059
302645
787693
788357
299379
143095
145105
303342
789321
790145
300436
143359
145331
304553
791322
792283
301306
143402
145347
305322
793609
794709
302131
143397
145208
306227
796096
797182
302798
143137
145071
306872
798648
799823
303591
143152
145097
307756
801342
802488
304282
143135
145143
308354
804080
805334
305008
143204
145070
309151
807022
808280
305580
142983
144929
309669
810101
811486
306232
142953
144883
310423
813392
814776
306741
142836
144833
310870
816826
818272
307257
142812
144682
311467
820416
821790
307623
142542
144482
311664
824010
825369
308069
142492
144281
312024
827835
829026
307982
142227
144080
312070
831251
832648
308065
141803
143024
310990
831655
827829
304894
140365
136637
299482
812117
784037
291700
134019
118390
261507
724528
663154
242625
109946
95354.2
213110
614282
38344
15069.5
8365
4019.76
1914.06
1969.28
1693.1
1536.84
1540.7
1535.32
1531.79
1529.68
1527.32
1527.02
1527.8
1527.67
1527.33
1527.38
1527.65
1528.5
1528.22
1529.03
1529.04
1529.82
1528.46
1527.48
1527.79
1527.67
1527.22
1525.51
1524.81
1524.71
1524.98
1524.95
1525.24
1526.72
1529.46
1528.97
1529.05
1529.37
1530.24
1531.77
1531.81
1532.36
1533.01
1533.86
1535.15
1536.88
1538.83
1540.88
1543.05
1545.62
1548.54
1550.07
1551.81
1553.97
1556.45
1559.23
1562.22
1565.27
1568.27
1571.19
1574.02
1576.72
1579.29
1581.81
1584.39
1587.15
1590.08
1593.09
1596.11
1599.17
1602.28
1605.39
1608.55
1611.92
1615.47
1619.11
1622.8
1626.56
1630.27
1633.83
1637.1
1639.99
1642.51
1644.64
1646.35
1647.63
1648.63
1649.4
1649.88
1650.08
1650.13
1650.03
1649.5
1648.79
1647.69
1646.32
1644.66
1642.81
1640.78
1638.57
1636.17
1633.56
1630.82
1628.05
1625.33
1622.6
1619.87
1617.16
1614.54
1611.97
1609.4
1606.86
1604.45
1602.03
1599.62
1597.25
1594.97
1592.7
1590.48
1588.24
1586.06
1583.92
1581.83
1579.8
1577.83
1575.88
1574.01
1572.2
1570.44
1568.75
1567.21
1565.77
1564.33
1562.81
1561.22
1559.64
1558.21
1556.94
1555.64
1554.24
1552.84
1551.56
1550.29
1549
1547.68
1546.42
1545.14
1543.86
1542.58
1541.33
1540.1
1538.84
1537.52
1536.21
1534.98
1533.88
1532.79
1531.7
1530.69
1529.8
1528.98
1528.18
1527.38
1526.53
1525.66
1524.69
1523.47
1521.7
1518.52
1511.32
1492.73
1443.06
1317.52
1056.79
716.368
508.676
409.036
329.643
258.408
200.179
153.609
116.725
87.726
65.2348
52.6178
45.3961
40.1714
36.237
33.0965
30.4034
27.8345
24.8945
20.918
15.547
9.22425
8.99724
8.71861
8.5557
8.90781
9.5398
10.4723
11.7991
13.6303
15.9452
18.5898
21.3752
24.1425
26.7794
29.2049
31.3633
33.2624
34.8282
36.1577
37.3632
38.5196
39.6574
40.7743
41.8572
42.8983
43.9002
44.8744
45.8368
46.8006
47.7703
48.739
49.6955
50.6285
51.5081
52.306
53.006
53.6029
54.1049
54.5232
54.8777
55.1809
55.4081
55.5412
55.5575
55.4322
55.1433
54.6738
54.0579
53.2376
52.0695
50.4998
48.4487
45.8306
42.6534
39.1986
36.0891
33.947
33.205
34.9052
41.4018
58.8846
124.301
446.154
925.413
2729.01
3243.52
3618.64
4216.68
4701.88
5475.05
6020.33
6734.36
7124.81
7640.66
7869.13
8235.6
8379.75
8666.89
8780.06
8998.33
9069.39
9173.04
9172.03
9172.38
9057.4
8769.68
8046.81
7228.64
6205.97
5286.56
4449.2
3912.63
3588.88
3484.18
3435.41
3440.69
3450.7
3516.59
3544.26
3608.53
3625.02
3674.89
3687.9
3732.02
3743.16
3784.45
3794.94
3835.97
3846.79
3889.12
3900.76
3945.26
3957.9
4004.86
4018.6
4068.17
4083.21
4135.75
4152.46
4208.87
4227.76
4288.89
4310.12
4376.12
4399.7
4470.66
4496.69
4572.44
4600.6
4679.7
4709.23
4789.48
4822.01
4912.2
4955.43
5064.8
5125.41
5253.11
5328.47
5452.41
5534.52
5648.31
5731.01
5833.36
5896.15
5967.25
5994.65
6020.14
6028.86
6039.93
6034.03
6036.11
5997.45
5994.73
5924.7
5932.81
5814.6
5851.55
5660.38
5724.7
5431.07
5465.86
5175.76
5110.15
4825.57
4702.21
4433.41
4299.6
4060.01
3939.41
3740.42
3638.8
3482.02
3399.88
3278.3
3212.26
3119.74
3066.97
2997.91
2956.01
2905.39
2871.7
2835.01
2807.37
2781.52
2759.41
2743.34
2724.21
2714.3
2697.66
2692.08
2678.53
2676.44
2665.28
2664.96
2655.79
2656.6
2649.3
2650.86
2645.34
2647.54
2643.11
2645.52
2640.93
2643.22
2638.77
2641.31
2638.17
2642.97
2640.97
2650.18
2650.68
2671.69
2678.46
2710.7
2721.99
2741.41
2740.26
2727.35
2663.99
2628.19
2575.82
2510.01
2359.74
2261.28
2147.5
2019.88
1996.21
1977.29
1977.82
1934.93
1942.99
1917.06
1904.18
1896.29
1915.61
1914.26
1887.01
1892.23
1909.54
1940.49
1978.36
1978.18
1938.42
1908.91
1906.12
1935.08
1977.11
1974.87
1932.96
1904.94
1883.7
1853.48
1864.24
1889.66
1927.8
1931.84
1878.55
1880.65
1944.7
1941.56
1859.41
1845.33
1809.26
1858.45
1948.23
1939.87
1825.24
1813.63
1934.36
1881.82
1739.64
1731.78
1654.7
1716.58
1866.56
1821.89
1661.82
1660.91
1822.1
1800.89
1633.94
1609.76
1590.34
1638.96
1805.3
1792.73
1622.92
1630.3
1799.19
1790.05
1617.64
1583.34
1581.85
1629.27
1798.01
1790.76
1619.82
1633.78
1800.08
1792.89
1622.99
1582.19
1582.87
1635.09
1800.92
1792.26
1623.52
1634.83
1799.58
1791.55
1623.38
1583.62
1584.38
1635.39
1800.36
1793.49
1624.69
1636.95
1802.61
1795.24
1625.68
1585.09
1585.76
1637.3
1803.95
1796.54
1625.76
1637.64
1806.37
1799.56
1626.52
1586.49
1587.49
1638.93
1810.73
1804.21
1627.87
1640.77
1817.05
1811.07
1629.72
1588.97
1591.19
1643.74
1826.01
1820.64
1632.7
1648.02
1838.41
1834.04
1636.91
1594.3
1598.59
1654.32
1855.92
1852.93
1643.21
1663.87
1880.11
1879.24
1652.87
1605.08
1615.28
1678.37
1912.61
1917.03
1667.82
1700.73
1958.85
1973.37
1691.5
1631.28
1656.24
1734.9
2022.07
2053.62
1727.66
1785.28
2112.01
2166.39
1782.41
1693.79
1749.29
1858.38
2237.86
2323.33
1871.09
1965.16
2412.54
2536.7
2007.17
1830.34
1951.03
2119
2646.9
2813.02
2207.03
2332.1
2937.12
3141.22
2479.03
2126.79
2363.94
2597.08
3251.67
3482.9
2796.6
2859.43
3544.76
3782.9
3082.95
2623.75
2833.59
3080.37
3807.42
3967.05
3229.8
3191.35
3966.43
4043.29
3276.3
2935.28
2945.02
3219.04
4024.35
4048.73
3267.46
3191.46
3991.93
3992.96
3215.91
2882.35
2751.3
3106.74
3899.2
3876.13
3106.66
2943.14
3762.94
3729.67
2942.45
2586.32
2420.39
2745.29
3598.26
3561.94
2759.78
2565.55
3410.48
3371.77
2582.27
2276.3
2157.26
2406.6
3216.83
3181.17
2425.51
2272.72
3036.79
3007.14
2292.91
2058.03
1975.9
2160.78
2874.3
2850.26
2181.46
2068.01
2730.97
2713.5
2089.21
1908.74
1854.1
1992.32
2609.12
2597.91
2013.56
1930.13
2505.96
2499.89
1951.11
1808.64
1770.73
1878.88
2419.18
2417.34
1899.72
1836.68
2344.33
2344.83
1857.19
1739.16
1712.7
1801.57
2278.48
2280.46
1821.58
1772.16
2220.6
2224.25
1791.46
1690.17
1671.12
1747.24
2170.43
2175.54
1765.84
1725.93
2126.95
2133.17
1743.86
1654.95
1640.86
1707.52
2088.92
2095.97
1724.85
1691.5
2055.29
2062.93
1708.23
1628.74
1618.34
1677.48
2025.26
2033.37
1693.64
1665.22
1998.24
2006.68
1680.81
1609.49
1601.93
1654.42
1973.7
1982.38
1669.41
1644.75
1951.23
1960.08
1659.14
1595.26
1588.92
1635.96
1930.45
1939.38
1649.82
1627.79
1910.78
1919.59
1641.15
1582.35
1575.25
1619.72
1891.48
1899.85
1632.46
1610.42
1871.55
1878.72
1621.86
1566.68
1552.11
1596.47
1846.26
1850.28
1605.48
1569.53
1823.73
1838.46
1573.34
1518.69
1439.58
1536.72
1833.66
1895.67
1565.25
1562.05
1955.54
2166.11
1681.04
1369.11
1345.84
1728.15
2394.29
2829.3
2013.17
2086.79
3207.26
3771.49
2496.47
1358.18
1398.21
2509.61
4115.84
4585.45
2897.59
2763.77
4694.25
4842.43
3028.71
1420.54
1389.53
2793.22
4771.24
4826.3
2976.28
2690.85
4654.59
4672.16
2831.39
1304.14
1186.09
2514.61
4426.32
4415.89
2625.45
2286.3
4115.21
4074.6
2365.66
1048.35
893.617
2010.69
3719.64
3635.75
2050.64
1679.4
3197.97
3048.11
1671.98
721.543
541.643
1304.73
2548.16
2334.2
1243.66
952.145
1877.12
1681.85
874.281
376.267
243.421
677.538
1354.1
1183.23
592.879
120.344
193.435
278.303
367.608
455.789
539.366
616.426
685.597
743.84
788.8
827.167
888.88
1017.62
1204.51
1369.01
1467.19
1513.69
1534.1
1544.09
1550.86
1556.92
1563.43
1570.55
1578.48
1587.6
1597.76
1609.24
1622.68
1638.47
1656.84
1678.34
1703.68
1733.68
1769.03
1810.58
1859.39
1917.29
1984.95
2064.94
2156.78
2262.36
2386.99
2519.3
2644.52
2718.86
2717.02
2629.07
2446.62
2241.8
2057.08
1914.85
1808.68
1728.16
1672.18
1632.38
1606.09
1588.26
1576.46
1568.66
1563.6
1560.16
1557.63
1555.9
1554.82
1553.84
1552.81
1551.73
1550.51
1548.89
1548.02
1547.89
1549.91
1558.15
1580.24
1627.04
1702.38
1789.36
1832.06
1827.47
1850.22
1881.87
1901.49
1932.1
1975.29
1974.39
1931.23
1901.69
1900.21
1930.16
1974.36
1974.11
1930.2
1900.54
1880.8
1847.66
1850.71
1885.87
1899.29
1929.31
1974.09
1974.85
1931.35
1903.47
1904.33
1928.8
1973.84
1974.65
1932.94
1915.05
1897.36
1859.12
1832.64
1826.54
1824.67
1780.12
1782.41
1694.18
1616.72
1613.35
1691.73
1691.88
1780.26
1784.2
1696.32
1619.1
1613.71
1563.99
1563.47
1567.81
1544.03
1538.98
1529.42
1534.86
1532.34
1526.66
1527.41
1530.11
1539.6
1546.51
1570.34
1585.21
1631.81
1708.03
1799.13
1858.79
1891.08
1915.56
1916.34
1927.32
1969.2
1983.15
1943.79
1919.67
2014.12
2035.92
2029.02
2021.9
2059.3
2084.96
2013.24
1979.99
2311.51
2163.63
2203.38
2072.3
2050.13
1993.48
2051.76
1992.57
1983.23
1911.33
28058
26125.8
2840.75
2174.24
19939.5
20264.2
3932.33
2237.96
2514.47
4747.72
3223.79
17859.8
18308.2
16438.7
4005.99
5655.55
2964.54
3443.3
3862.55
3947.25
2246.58
2416.15
1970.57
1921.78
1816.96
1715.12
2137.83
2118.33
2341.32
2286.92
2432.07
2318.15
4087.87
4055.38
8784.55
7279.65
8683.53
6918.44
8109.83
6000.71
6929.23
4900.07
17114.6
17619.5
20056.7
19657.2
22309.1
21452
23035.6
21886.4
22998.5
21634.2
7381.56
8772.2
7336.2
20935.2
22471.7
21763.2
8654.92
4215.27
4084.99
8517.43
7289.39
20402.5
21190.1
19581.9
7122.13
8280.06
4144.89
3880.52
3751.94
3305.9
1920.59
1928.79
1647.62
1615.56
1563.2
1555.06
1537.3
1534.77
1534.73
1527.31
1526.56
1532.32
1532.92
1527.04
1528.36
1534.38
1535.55
1529.49
1530.29
1529.12
1527.81
1535.3