/*--------------------------------*- C++ -*----------------------------------*\
| =========                 |                                                 |
| \\      /  F ield         | OpenFOAM: The Open Source CFD Toolbox           |
|  \\    /   O peration     | Version:  v2006                                 |
|   \\  /    A nd           | Website:  www.openfoam.com                      |
|    \\/     M anipulation  |                                                 |
\*---------------------------------------------------------------------------*/
FoamFile
{
    version     2.0;
    format      ascii;
    class       volScalarField;
    location    "0.105";
    object      Ma;
}
// * * * * * * * * * * * * * * * * * * * * * * * * * * * * * * * * * * * * * //

dimensions      [0 0 0 0 0 0 0];


internalField   nonuniform List<scalar> 
16277
(
0.139391
0.139392
0.139391
0.13939
0.139389
0.139384
0.13937
0.139325
0.139223
0.139061
0.138856
0.138629
0.138396
0.138162
0.137926
0.137685
0.137437
0.13718
0.136911
0.136632
0.13634
0.136038
0.135725
0.135401
0.135066
0.13472
0.134365
0.133999
0.133622
0.133236
0.13284
0.132435
0.132021
0.131599
0.131167
0.130728
0.130282
0.129828
0.129367
0.1289
0.128427
0.127949
0.127466
0.126978
0.126487
0.125992
0.125494
0.124994
0.124492
0.123989
0.123485
0.122981
0.122477
0.121975
0.121474
0.120975
0.12048
0.119987
0.119499
0.119016
0.118538
0.118066
0.1176
0.117142
0.116691
0.116248
0.115815
0.115391
0.114977
0.114573
0.114181
0.1138
0.113431
0.113075
0.112732
0.112403
0.112087
0.111782
0.111487
0.111196
0.110909
0.110633
0.11039
0.110219
0.110144
0.110142
0.110172
0.110207
0.110235
0.110232
0.110211
0.110141
0.109962
0.109665
0.10918
0.108622
0.106572
0.105257
0.108647
0.109316
0.109386
0.108499
0.103772
0.102304
0.108323
0.10945
0.109443
0.108053
0.100955
0.0997107
0.107767
0.109402
0.109289
0.107397
0.0985496
0.0975001
0.10706
0.10917
0.108998
0.106678
0.0965074
0.0956375
0.106347
0.108846
0.108639
0.105946
0.0947949
0.0940427
0.105608
0.108453
0.108216
0.105199
0.0933006
0.0926301
0.104858
0.108009
0.107754
0.104448
0.0919646
0.091363
0.104117
0.107539
0.107264
0.103703
0.0907493
0.0901906
0.103372
0.107034
0.106742
0.102953
0.0896135
0.0890908
0.102624
0.106503
0.106204
0.10221
0.0885513
0.0880587
0.101886
0.10596
0.105652
0.101472
0.0875445
0.0870736
0.10115
0.105401
0.105085
0.100735
0.0865787
0.0861248
0.100414
0.104828
0.104503
0.099998
0.085645
0.0852041
0.099677
0.104239
0.103906
0.099258
0.0847359
0.0843046
0.0989355
0.103636
0.103293
0.098513
0.0838449
0.0834206
0.0981876
0.103016
0.102664
0.0977607
0.0829668
0.0825473
0.0974314
0.102379
0.102018
0.0969993
0.0820976
0.0816809
0.0966653
0.101724
0.101353
0.0962274
0.0812336
0.0808184
0.0958877
0.101051
0.100669
0.0954432
0.080372
0.0799568
0.0950968
0.100357
0.0999649
0.0946449
0.0795101
0.0790936
0.0942909
0.0996428
0.0992391
0.0938312
0.0786455
0.0782265
0.0934691
0.0989062
0.0984903
0.0930004
0.0777756
0.0773531
0.0926294
0.0981462
0.0977175
0.092151
0.0768982
0.0764711
0.0917701
0.0973614
0.0969194
0.0912812
0.0760113
0.0755784
0.0908897
0.0965505
0.0960945
0.0903895
0.0751125
0.0746729
0.0899864
0.0957121
0.0952415
0.0894741
0.0742
0.0737526
0.0890587
0.0948449
0.094359
0.0885335
0.0732717
0.0728157
0.0881049
0.0939475
0.0934458
0.0875662
0.0723259
0.0718605
0.0871237
0.0930188
0.0925006
0.0865709
0.0713611
0.0708855
0.0861138
0.0920577
0.0915227
0.0855464
0.0703758
0.0698896
0.0850744
0.0910632
0.0905111
0.084492
0.0693693
0.0688721
0.0840046
0.0900349
0.0894655
0.0834072
0.0683409
0.0678327
0.0829045
0.0889725
0.088386
0.0822923
0.0672909
0.0667724
0.0817746
0.0878766
0.0872735
0.0811482
0.0662206
0.0656925
0.0806164
0.0867483
0.0861297
0.079977
0.0651319
0.0645958
0.0794325
0.0855901
0.0849576
0.0787819
0.064028
0.063486
0.0782267
0.0844053
0.0837612
0.0775673
0.0629135
0.0623686
0.0770043
0.083199
0.0825464
0.0763396
0.0617949
0.061251
0.0757727
0.0819778
0.0813209
0.0751072
0.0606805
0.060143
0.0745416
0.0807507
0.0800949
0.0738812
0.0595817
0.059057
0.0733237
0.0795292
0.0788814
0.0726757
0.0585123
0.0580089
0.0721344
0.078328
0.0776969
0.071508
0.0574898
0.0570178
0.0709933
0.0771652
0.0765614
0.0703997
0.0565354
0.0561071
0.0699239
0.0760632
0.0754993
0.0693766
0.0556745
0.0553037
0.0689539
0.0750482
0.0745384
0.0684679
0.0549356
0.0546413
0.0681125
0.0741495
0.0737102
0.0677055
0.0543526
0.0541648
0.0674345
0.0733976
0.0730466
0.0671244
0.0539671
0.0538989
0.0669588
0.0728341
0.0725836
0.0667598
0.0538022
0.0538651
0.0667137
0.0724854
0.0723468
0.0666366
0.0538771
0.054075
0.066717
0.072371
0.0723522
0.0667678
0.0541986
0.0545175
0.0669664
0.0724921
0.0725853
0.067133
0.0547488
0.0552016
0.0674665
0.0728585
0.073079
0.0677654
0.055563
0.0561434
0.0682369
0.0734905
0.0738321
0.0686554
0.0566076
0.0572525
0.0692143
0.0743341
0.0747591
0.0697106
0.0577705
0.0584531
0.0703324
0.0753306
0.0758155
0.0708803
0.0589973
0.0596932
0.0715394
0.0764334
0.0769582
0.0721172
0.0602425
0.0609337
0.0727939
0.0776041
0.0781503
0.0733821
0.0614706
0.0621404
0.0740575
0.0788056
0.0793553
0.0746381
0.062648
0.0632819
0.0752955
0.0800029
0.0805401
0.0758525
0.0637468
0.0643335
0.0764779
0.0811656
0.0816766
0.0769983
0.0647455
0.0652767
0.0775809
0.0822678
0.0827416
0.0780543
0.0656288
0.0660992
0.0785854
0.0832891
0.0837169
0.0790025
0.0663899
0.0667968
0.0794768
0.0842139
0.0845881
0.0798316
0.0670303
0.0673704
0.0802472
0.0850306
0.0853507
0.0805415
0.0675472
0.0678229
0.0808984
0.0857375
0.0860038
0.0811336
0.067946
0.0681623
0.081434
0.0863356
0.0865498
0.0816134
0.0682369
0.0684004
0.0818614
0.0868295
0.0869955
0.0819902
0.0684333
0.0685527
0.082192
0.0872288
0.0873522
0.0822771
0.0685518
0.0686359
0.0824396
0.0875451
0.0876318
0.0824878
0.0686083
0.068665
0.0826174
0.0877908
0.0878467
0.0826354
0.0686172
0.0686536
0.0827386
0.0879777
0.0880083
0.0827322
0.068591
0.0686125
0.0828143
0.0881164
0.0881265
0.0827886
0.0685392
0.0685496
0.0828538
0.0882158
0.0882094
0.0828133
0.068469
0.0684729
0.0828664
0.0882849
0.0882658
0.0828149
0.0683879
0.068387
0.0828583
0.0883297
0.0883003
0.0827983
0.0682988
0.0682955
0.0828347
0.0883557
0.0883191
0.0827695
0.0682068
0.0682009
0.0827994
0.0883667
0.088324
0.0827297
0.0681121
0.0681078
0.0827573
0.0883678
0.0883181
0.082681
0.0680154
0.0680133
0.0827082
0.0883595
0.0883061
0.0826311
0.0679223
0.0679145
0.0826515
0.0883423
0.0882885
0.0825746
0.0678265
0.0678266
0.0825993
0.0883256
0.0882699
0.08252
0.067737
0.0677338
0.0825405
0.0883019
0.088242
0.0824602
0.0676455
0.0676474
0.0824851
0.0882796
0.0882225
0.0824085
0.0675634
0.0675671
0.0824331
0.0882589
0.0882046
0.0823593
0.0674867
0.0674953
0.0823895
0.0882555
0.088213
0.0823249
0.0674109
0.067513
0.0824019
0.0883015
0.0882873
0.0824105
0.0674934
0.0677089
0.0826151
0.088476
0.0886452
0.0828542
0.0681302
0.0689599
0.0834224
0.0891833
0.0907078
0.0857116
0.0722844
0.0716198
0.0830122
0.0881755
0.0916081
0.0941348
0.095581
0.0960825
0.096389
0.0969931
0.0972357
0.0975018
0.0976214
0.0977234
0.0977456
0.0977135
0.0976394
0.0974446
0.0972427
0.0967361
0.0964474
0.0961251
0.0957288
0.0950506
0.0933177
0.0895546
0.0818245
0.071813
0.0512585
0.0496716
0.0707604
0.080912
0.0800748
0.0697924
0.0483793
0.0475478
0.0691516
0.0795476
0.0792944
0.0688965
0.0469603
0.0468619
0.0687717
0.0791915
0.0790736
0.0686554
0.0465306
0.0465204
0.0685885
0.0790873
0.0791039
0.0686051
0.0465407
0.0465544
0.0686159
0.0791145
0.0791489
0.0686579
0.0466005
0.0466502
0.0687055
0.0791889
0.0792092
0.0687358
0.0466853
0.0467494
0.0687953
0.0792591
0.0792994
0.068846
0.0468082
0.0468512
0.0688844
0.0793296
0.0793819
0.0689481
0.0469195
0.0469803
0.0690042
0.0794287
0.0794642
0.0690514
0.0470293
0.0470983
0.0691192
0.0795211
0.0795596
0.0691694
0.0471533
0.0472054
0.0692169
0.0795981
0.0796521
0.0692819
0.0472764
0.0473378
0.0693375
0.0796987
0.0797433
0.0693938
0.047401
0.0474729
0.0694604
0.0797987
0.0798396
0.0695141
0.0475338
0.0476032
0.0695781
0.0798921
0.0799439
0.0696428
0.0476755
0.0477357
0.0696974
0.0799887
0.0800422
0.0697629
0.0478065
0.0478757
0.0698302
0.0800987
0.0801415
0.0698853
0.0479358
0.0480085
0.0699517
0.0801964
0.0802481
0.0700155
0.0480809
0.0481474
0.0700759
0.0802989
0.0803535
0.0701426
0.048222
0.0482955
0.0702095
0.0804092
0.0804609
0.0702744
0.0483677
0.0484442
0.0703452
0.0805208
0.0805739
0.0704102
0.0485148
0.048587
0.0704791
0.0806328
0.0806909
0.0705496
0.048661
0.048731
0.0706151
0.0807463
0.0808012
0.0706813
0.0488036
0.0488799
0.0707525
0.0808636
0.0809217
0.0708203
0.0489523
0.0490297
0.070895
0.0809876
0.0810515
0.0709706
0.0491069
0.0491829
0.0710457
0.0811163
0.08118
0.0711211
0.0492603
0.0493353
0.0711962
0.0812481
0.0813121
0.0712668
0.0494032
0.0494747
0.0713429
0.0813835
0.0814546
0.0714204
0.0495467
0.0496172
0.0714979
0.0815282
0.0816027
0.0715776
0.0496869
0.0497598
0.0716635
0.0816848
0.0817658
0.0717506
0.0498313
0.0499047
0.0718419
0.0818532
0.0819406
0.0719337
0.0499747
0.0500422
0.0720277
0.0820339
0.0821281
0.0721232
0.0501068
0.0501704
0.0722212
0.0822287
0.0823266
0.0723165
0.0502274
0.0502848
0.0724172
0.0824332
0.0825467
0.0725251
0.050343
0.0503984
0.0726383
0.0826671
0.0827907
0.0727573
0.0504531
0.050511
0.0728858
0.0829248
0.0830615
0.0730185
0.050569
0.0506273
0.0731596
0.0832098
0.0833616
0.0733057
0.050685
0.0507452
0.0734603
0.0835244
0.0836945
0.0736238
0.050811
0.0508756
0.0737939
0.0838744
0.0840659
0.0739768
0.0509469
0.0510324
0.0741799
0.0842749
0.0844922
0.0743988
0.0511294
0.0512495
0.0746425
0.0847271
0.084972
0.0749044
0.0513932
0.0515636
0.0751905
0.085235
0.0855156
0.0755016
0.0517641
0.051997
0.0758313
0.0858087
0.0861169
0.0761823
0.0522705
0.0525898
0.0765636
0.0864487
0.0868019
0.0769778
0.0529604
0.0534122
0.07744
0.0871818
0.0875867
0.077951
0.0539463
0.0545732
0.0785235
0.0880303
0.0885036
0.0791568
0.0552921
0.0561512
0.0798662
0.0890172
0.089606
0.0806943
0.0572291
0.0585672
0.0816452
0.0902727
0.0909456
0.0826269
0.0598992
0.0611645
0.0835735
0.0915526
0.0920351
0.0843543
0.0623892
0.063462
0.0847972
0.0923565
0.0926156
0.0854393
0.064513
0.0654756
0.0858094
0.0928246
0.0929728
0.0862162
0.0665393
0.0676585
0.0866149
0.0931293
0.0931426
0.0868845
0.0686653
0.0695488
0.087127
0.0931067
0.0930783
0.0873953
0.0705274
0.0716105
0.0876656
0.093077
0.0930611
0.0879088
0.0727355
0.0733553
0.0881241
0.0928921
0.0922961
0.0877633
0.0732674
0.0583119
0.0810012
0.0891921
0.0916095
0.0839036
0.062059
0.0620516
0.0843105
0.0917743
0.0916358
0.084488
0.0629975
0.0642469
0.084565
0.0914406
0.091514
0.0850431
0.0657388
0.0673761
0.0853855
0.0914941
0.0915163
0.0858805
0.0689548
0.070465
0.0861193
0.0913568
0.0913374
0.0865342
0.0719775
0.0733924
0.0868689
0.091321
0.0912797
0.0872074
0.0746467
0.0750358
0.0871065
0.09073
0.0882554
0.0820146
0.0645647
0.0687312
0.0846986
0.0902894
0.0904312
0.0851997
0.0696565
0.0712178
0.0857967
0.090442
0.0904353
0.0861206
0.0724351
0.0735705
0.0863253
0.0903193
0.0901763
0.0865822
0.0747403
0.0753188
0.086561
0.0898522
0.0892301
0.0861871
0.0755691
0.0666523
0.0815944
0.08714
0.0886183
0.0841926
0.0699991
0.0708796
0.0843606
0.0884373
0.0880858
0.0844203
0.0720667
0.0732409
0.0843686
0.0877101
0.0873517
0.0844656
0.0744637
0.0747593
0.0840797
0.0865019
0.0845275
0.0803205
0.0669722
0.0710314
0.0821521
0.085767
0.0855521
0.0824355
0.0720785
0.073078
0.0823427
0.0851109
0.0845923
0.0822719
0.0737626
0.0737097
0.0815524
0.0835229
0.0818496
0.0784764
0.0671202
0.0702949
0.0796817
0.082476
0.081638
0.0792647
0.0707086
0.0715857
0.0788346
0.0807012
0.0793297
0.0779181
0.0714101
0.066052
0.0752242
0.0776914
0.0777423
0.0756818
0.0688509
0.0689179
0.0748046
0.0764051
0.0747559
0.0736545
0.068845
0.0677141
0.0717496
0.0724434
0.0701194
0.0686713
0.0630791
0.0635695
0.0675851
0.0684408
0.0650269
0.0647259
0.0616404
0.0568513
0.0607154
0.0618247
0.0586707
0.0581691
0.0558733
0.0517725
0.0526468
0.0525634
0.0452182
0.0449266
0.0437221
0.0348552
0.0347501
0.0351782
0.023974
0.0220308
0.0206081
0.00592806
0.00913124
0.0150039
0.0295623
0.0279402
0.0283328
0.0536088
0.0519398
0.0512239
0.0693131
0.0707706
0.0722002
0.0833216
0.0831528
0.0822551
0.0866972
0.0866277
0.0854382
0.0890294
0.0917212
0.0917647
0.0932178
0.0924348
0.0889804
0.0908451
0.095201
0.0958538
0.0968357
0.0952975
0.0904994
0.0872643
0.0947074
0.0966098
0.0984345
0.0968424
0.0896167
0.0867996
0.0949285
0.0974971
0.0994607
0.097656
0.0904505
0.0894048
0.0969952
0.0994168
0.0980881
0.0950278
0.0864671
0.0897256
0.0977367
0.0998036
0.0995829
0.0966288
0.0880495
0.0850221
0.0945179
0.0981763
0.0999258
0.0975185
0.0887752
0.0873378
0.0965057
0.0994914
0.0976323
0.0939293
0.0839206
0.0876981
0.0968547
0.0995086
0.099224
0.0961327
0.0866874
0.0831963
0.0933392
0.0971823
0.0990877
0.0965114
0.0874898
0.0865254
0.0958921
0.0991963
0.0973398
0.09331
0.083041
0.0869571
0.0962786
0.0988933
0.0988945
0.0955126
0.0858971
0.0826884
0.093058
0.0972219
0.098975
0.0960782
0.0866497
0.0856706
0.0953626
0.0986661
0.0966819
0.0927232
0.082333
0.0863878
0.0958001
0.0987922
0.0986253
0.0954008
0.08554
0.0840261
0.0939582
0.0977124
0.095287
0.0910598
0.0789849
0.0837248
0.0945814
0.0976609
0.0977887
0.0939994
0.0827214
0.0790281
0.0906669
0.0956186
0.0977584
0.0944933
0.0836597
0.0823232
0.0935354
0.097562
0.0953485
0.0909415
0.0782958
0.0835133
0.0945555
0.097605
0.0977476
0.0939632
0.0826074
0.0789641
0.0906795
0.095552
0.0976752
0.094339
0.0832891
0.0820654
0.0936578
0.0975995
0.0955169
0.0905389
0.0788183
0.0837296
0.0945856
0.0978704
0.097882
0.0939161
0.0826423
0.0788148
0.0910781
0.0956405
0.0979156
0.0946519
0.0836549
0.0826253
0.0937712
0.0978608
0.0958266
0.091345
0.0790492
0.0841443
0.0951503
0.0983336
0.0982753
0.0941694
0.0830906
0.0786344
0.0913964
0.0958228
0.0982503
0.0950066
0.0834627
0.081161
0.0929717
0.0971303
0.0995829
0.0966958
0.0863869
0.0857126
0.0960524
0.0997092
0.0977494
0.0933388
0.0824935
0.0866108
0.0967778
0.099977
0.0997035
0.0960079
0.0854713
0.0824444
0.0934304
0.0977078
0.100254
0.0974187
0.0874221
0.0865623
0.0969432
0.100621
0.0987935
0.0943778
0.0834416
0.0877368
0.0979587
0.100915
0.100759
0.0969375
0.0861965
0.082649
0.094056
0.0987833
0.101148
0.0980195
0.0876357
0.0870769
0.0975444
0.101429
0.0993467
0.0952675
0.0833116
0.0876333
0.098734
0.101737
0.100376
0.0964458
0.0851067
0.0888653
0.0995194
0.102529
0.102439
0.0987194
0.0878126
0.0851185
0.0962684
0.100636
0.103084
0.100207
0.0898735
0.089006
0.0996028
0.103289
0.101247
0.097129
0.0853861
0.0897073
0.100691
0.103602
0.10221
0.0982807
0.0870359
0.0911134
0.101379
0.104391
0.104595
0.10105
0.0907742
0.0881156
0.0987272
0.102897
0.105184
0.102336
0.0923519
0.0914448
0.101655
0.105332
0.103352
0.0993118
0.0877585
0.0917841
0.10273
0.105645
0.104192
0.100203
0.0889156
0.0930149
0.103279
0.106269
0.106542
0.103095
0.0928231
0.0900373
0.10079
0.10485
0.107238
0.104386
0.094196
0.0931526
0.103843
0.107371
0.105259
0.100515
0.0899198
0.0935681
0.104637
0.107576
0.106192
0.102238
0.0907227
0.094978
0.105443
0.108367
0.108624
0.104997
0.0946424
0.0914306
0.102766
0.106779
0.109309
0.106478
0.0956463
0.0935569
0.10457
0.108315
0.110606
0.107974
0.0979117
0.0966052
0.107011
0.110523
0.108405
0.103818
0.0932172
0.0964899
0.1074
0.110486
0.109395
0.10539
0.0942558
0.0992763
0.109211
0.111964
0.112092
0.108615
0.0984632
0.0954385
0.105685
0.110214
0.112592
0.10974
0.0992004
0.0968659
0.107736
0.111509
0.113685
0.110966
0.100916
0.0998488
0.109924
0.113428
0.111153
0.10711
0.0958751
0.0998692
0.110634
0.11342
0.112762
0.109096
0.098209
0.102546
0.112666
0.115297
0.115387
0.112107
0.101677
0.0985907
0.108781
0.113366
0.115609
0.112935
0.101869
0.0995296
0.110668
0.11446
0.116785
0.114074
0.103338
0.100712
0.111527
0.115302
0.117217
0.114491
0.104387
0.103902
0.113976
0.117441
0.115825
0.111532
0.101183
0.104985
0.115511
0.118305
0.117346
0.1136
0.102803
0.106835
0.116988
0.119628
0.119498
0.116146
0.105681
0.102576
0.112783
0.11742
0.119653
0.116943
0.105609
0.102724
0.11431
0.118196
0.12038
0.117595
0.106378
0.104696
0.115807
0.119509
0.121955
0.119412
0.109337
0.108579
0.118675
0.122144
0.12037
0.116423
0.105325
0.108982
0.119927
0.122712
0.121435
0.117656
0.106458
0.110378
0.121143
0.123764
0.122579
0.119041
0.108335
0.111748
0.121884
0.12453
0.124311
0.120804
0.110407
0.107352
0.117872
0.122438
0.124905
0.122185
0.111228
0.109167
0.120263
0.123991
0.126398
0.12387
0.113155
0.111198
0.121872
0.125398
0.127563
0.125082
0.115193
0.114373
0.124256
0.127615
0.125782
0.12184
0.111045
0.11436
0.125171
0.127951
0.126554
0.122743
0.111705
0.115064
0.12599
0.128751
0.127745
0.124044
0.11321
0.117416
0.127415
0.12995
0.130182
0.12667
0.116754
0.11314
0.12468
0.128422
0.130746
0.127964
0.11679
0.114392
0.125909
0.129606
0.131859
0.129386
0.118264
0.11611
0.127205
0.130724
0.132761
0.130249
0.120062
0.119075
0.129167
0.132687
0.130569
0.126687
0.114955
0.118537
0.12977
0.132776
0.131828
0.127868
0.11654
0.120965
0.131879
0.134527
0.133499
0.129827
0.11901
0.122698
0.133281
0.13579
0.134736
0.131278
0.120723
0.124488
0.134354
0.136829
0.136799
0.133568
0.123531
0.120682
0.130406
0.134925
0.137098
0.134474
0.12329
0.120673
0.132088
0.135879
0.138082
0.135356
0.123929
0.121635
0.132984
0.136859
0.139234
0.136618
0.125864
0.124089
0.134709
0.138316
0.140543
0.138108
0.12821
0.127486
0.137337
0.140711
0.138978
0.135209
0.123945
0.127493
0.138536
0.141315
0.14016
0.136367
0.125066
0.128788
0.139904
0.142531
0.141288
0.137605
0.126565
0.130201
0.140907
0.143445
0.142223
0.138633
0.128045
0.131529
0.141585
0.144173
0.144307
0.140825
0.130857
0.127461
0.138828
0.142631
0.145071
0.14218
0.131131
0.128723
0.140125
0.14398
0.146453
0.143882
0.132691
0.130557
0.14167
0.145333
0.14747
0.144937
0.134113
0.132004
0.142794
0.1464
0.148521
0.145979
0.135986
0.134992
0.145218
0.148494
0.146542
0.141882
0.132039
0.134537
0.146117
0.148686
0.147585
0.143701
0.131903
0.136075
0.147512
0.150115
0.149117
0.145325
0.134181
0.137964
0.149001
0.151597
0.150498
0.146842
0.135911
0.139431
0.15017
0.152735
0.151676
0.148112
0.137511
0.141255
0.151324
0.153783
0.1539
0.150388
0.140467
0.136557
0.14847
0.152161
0.15456
0.151455
0.14029
0.137615
0.149239
0.153197
0.155478
0.152753
0.141206
0.138815
0.150298
0.154208
0.156611
0.153927
0.142787
0.140941
0.151861
0.155602
0.157948
0.155366
0.144594
0.142782
0.153458
0.157039
0.159323
0.156862
0.14692
0.146071
0.156026
0.159425
0.157654
0.153778
0.142487
0.146181
0.157248
0.160087
0.158936
0.155035
0.143819
0.147761
0.158877
0.161513
0.160331
0.15659
0.145527
0.148975
0.159979
0.1626
0.161351
0.157608
0.14676
0.150356
0.161007
0.163617
0.162686
0.159137
0.148576
0.152359
0.162418
0.164868
0.165044
0.161577
0.15167
0.147896
0.159711
0.16338
0.165788
0.162764
0.15142
0.148996
0.160664
0.164634
0.167152
0.164522
0.152906
0.150548
0.162204
0.165978
0.16832
0.16574
0.154352
0.152329
0.163526
0.167199
0.169427
0.166838
0.155846
0.153949
0.164773
0.168407
0.170685
0.16821
0.158065
0.157246
0.167355
0.170841
0.169134
0.16525
0.153663
0.157335
0.168713
0.171631
0.170583
0.166666
0.155077
0.159131
0.170631
0.173255
0.172095
0.168295
0.156782
0.160628
0.171901
0.174506
0.173439
0.169767
0.158705
0.16224
0.173193
0.175787
0.174801
0.17116
0.160343
0.164321
0.174547
0.177022
0.177183
0.173599
0.163513
0.159398
0.171874
0.175523
0.17812
0.174899
0.163439
0.160946
0.172793
0.176869
0.179467
0.176728
0.164982
0.162626
0.174402
0.178313
0.180824
0.178162
0.166462
0.164409
0.175909
0.179721
0.182143
0.179492
0.168092
0.166089
0.177269
0.181067
0.183547
0.180961
0.170032
0.168215
0.179032
0.182657
0.185002
0.182487
0.172432
0.171562
0.181836
0.185279
0.183628
0.179229
0.168644
0.172017
0.183384
0.186119
0.185156
0.18124
0.169765
0.173885
0.185301
0.187881
0.186825
0.183054
0.171816
0.175574
0.186697
0.189306
0.188255
0.184505
0.173638
0.177328
0.188079
0.190667
0.189727
0.186137
0.175445
0.179428
0.189579
0.192059
0.192231
0.188736
0.178455
0.17517
0.18665
0.190624
0.193208
0.19031
0.178901
0.176304
0.188026
0.192017
0.19467
0.192
0.180362
0.178301
0.189849
0.193659
0.196134
0.193526
0.182047
0.18019
0.191434
0.195202
0.197826
0.195301
0.18425
0.182533
0.193484
0.197064
0.199451
0.197032
0.186811
0.185505
0.196151
0.199615
0.197966
0.193389
0.182686
0.186191
0.197771
0.20057
0.199498
0.195427
0.183698
0.18787
0.199564
0.202268
0.201204
0.197266
0.185747
0.189844
0.201189
0.203862
0.202926
0.199139
0.188017
0.191877
0.202879
0.205495
0.204698
0.20101
0.190045
0.194459
0.204755
0.207247
0.20771
0.204163
0.19367
0.190605
0.202076
0.206251
0.209031
0.206151
0.194677
0.192377
0.204083
0.208019
0.210722
0.208001
0.196307
0.193889
0.205558
0.209525
0.212007
0.209273
0.197716
0.195625
0.207063
0.210965
0.213655
0.211027
0.199836
0.197895
0.20911
0.212835
0.215341
0.212803
0.202243
0.201474
0.212274
0.215864
0.214345
0.21005
0.198534
0.202433
0.214142
0.217089
0.216162
0.212124
0.200226
0.204798
0.216477
0.21919
0.218453
0.214554
0.202929
0.2079
0.219004
0.221481
0.220731
0.21717
0.206092
0.209639
0.220469
0.222997
0.223005
0.219295
0.208245
0.204482
0.217299
0.221316
0.224177
0.221031
0.208775
0.206214
0.218847
0.223019
0.225934
0.223132
0.210842
0.208522
0.220841
0.224915
0.227761
0.224978
0.213136
0.211
0.222929
0.226917
0.2297
0.227016
0.21594
0.215077
0.226653
0.230383
0.228959
0.223878
0.212718
0.216678
0.229082
0.231928
0.231344
0.227121
0.214648
0.220212
0.232303
0.234821
0.233832
0.229931
0.217869
0.221528
0.233567
0.236343
0.235187
0.23115
0.219066
0.223594
0.235051
0.23783
0.238033
0.233987
0.222322
0.218508
0.232284
0.236458
0.239763
0.236407
0.223765
0.221032
0.234227
0.238595
0.2417
0.238766
0.226119
0.224008
0.236638
0.240866
0.244207
0.241346
0.229064
0.226978
0.239458
0.243587
0.246622
0.243943
0.232297
0.231835
0.2438
0.247726
0.24668
0.242367
0.229401
0.234281
0.247065
0.250039
0.248482
0.244167
0.230921
0.235324
0.248236
0.251252
0.250025
0.24573
0.232814
0.237481
0.250125
0.253082
0.252118
0.247868
0.235157
0.240182
0.252177
0.255042
0.255603
0.251462
0.239127
0.235896
0.249228
0.254008
0.257264
0.253966
0.241012
0.238561
0.251993
0.256433
0.260118
0.257204
0.244372
0.242268
0.255426
0.25967
0.263151
0.260487
0.248341
0.248562
0.260869
0.264689
0.263263
0.258988
0.245533
0.249679
0.262881
0.266166
0.264502
0.259957
0.246218
0.251057
0.264449
0.267661
0.266543
0.261971
0.248534
0.253796
0.266855
0.269925
0.269185
0.264791
0.251643
0.257092
0.269449
0.272447
0.273351
0.26908
0.256241
0.253589
0.26655
0.271856
0.275249
0.272016
0.25879
0.256527
0.269989
0.274646
0.278708
0.275839
0.262697
0.261075
0.274419
0.278729
0.282611
0.280298
0.268839
0.268624
0.280401
0.283851
0.28175
0.276986
0.264166
0.26758
0.281109
0.28446
0.283166
0.278416
0.264416
0.26992
0.28357
0.286752
0.285999
0.28142
0.267494
0.273361
0.286385
0.289454
0.290457
0.286012
0.272415
0.269532
0.283438
0.288934
0.292518
0.289035
0.275345
0.272815
0.287077
0.291945
0.296168
0.29308
0.279752
0.279652
0.293755
0.298304
0.297627
0.292244
0.277913
0.285276
0.29905
0.301989
0.300737
0.296172
0.281959
0.285957
0.300383
0.303797
0.302262
0.29727
0.282419
0.288141
0.302144
0.30555
0.306265
0.301367
0.286849
0.283495
0.298789
0.30458
0.308583
0.304791
0.2899
0.287149
0.302796
0.307918
0.312308
0.308992
0.294555
0.294067
0.309303
0.314185
0.312917
0.306986
0.291214
0.298504
0.313697
0.317411
0.317734
0.312697
0.297096
0.306646
0.32037
0.32303
0.32394
0.319658
0.3051
0.299569
0.315314
0.321214
0.324442
0.320443
0.304521
0.300822
0.31741
0.323038
0.327227
0.323544
0.308205
0.307124
0.323232
0.328606
0.327057
0.320792
0.303694
0.311176
0.327563
0.331752
0.331196
0.325518
0.308324
0.317215
0.332851
0.336412
0.339041
0.333752
0.317125
0.314947
0.33207
0.338429
0.34428
0.341014
0.326223
0.323986
0.339435
0.34402
0.34781
0.344312
0.328924
0.325618
0.342293
0.347544
0.345051
0.338198
0.321139
0.327998
0.345173
0.349411
0.348362
0.342334
0.324695
0.33293
0.349356
0.353244
0.355386
0.349672
0.332434
0.329416
0.347389
0.35416
0.359443
0.355229
0.338291
0.336505
0.354298
0.360057
0.366685
0.363812
0.349051
0.352227
0.367303
0.371104
0.369775
0.364522
0.348844
0.352414
0.368845
0.372969
0.372467
0.366722
0.348618
0.344052
0.362402
0.370052
0.375111
0.370719
0.352261
0.349205
0.368187
0.374509
0.380212
0.376236
0.358843
0.359121
0.377428
0.383257
0.382726
0.375703
0.356768
0.367274
0.384496
0.388553
0.393185
0.387865
0.369268
0.369481
0.387394
0.393904
0.39972
0.395894
0.377991
0.372915
0.393142
0.399313
0.395902
0.387576
0.366792
0.375282
0.395581
0.400843
0.399575
0.392474
0.371512
0.382467
0.401249
0.405786
0.409065
0.402653
0.382883
0.38103
0.401235
0.408884
0.415641
0.411466
0.393693
0.397233
0.416273
0.42147
0.422808
0.416687
0.398373
0.407044
0.425239
0.428927
0.428203
0.422092
0.401365
0.394533
0.416541
0.424844
0.429935
0.424537
0.404269
0.402625
0.424513
0.431592
0.430748
0.422141
0.399602
0.413608
0.43372
0.438621
0.44432
0.437665
0.415898
0.41834
0.439852
0.447024
0.456318
0.453573
0.43603
0.43257
0.452982
0.457967
0.456742
0.448962
0.425308
0.415964
0.442993
0.452654
0.458756
0.452535
0.428603
0.427132
0.453438
0.461427
0.461787
0.451613
0.425442
0.446075
0.46764
0.472168
0.482417
0.478089
0.455703
0.459135
0.48204
0.48784
0.483733
0.474442
0.447623
0.455402
0.480882
0.487691
0.486796
0.478563
0.449447
0.44658
0.477138
0.487958
0.487374
0.476829
0.442407
0.471713
0.495373
0.500055
0.511441
0.506994
0.482056
0.481449
0.508366
0.515427
0.509222
0.498551
0.465349
0.476643
0.50539
0.513284
0.51368
0.505228
0.472434
0.472402
0.507635
0.518106
0.528499
0.519803
0.482109
0.484392
0.515754
0.529441
0.536022
0.527095
0.493818
0.481972
0.52075
0.532384
0.53199
0.51917
0.475977
0.478825
0.524919
0.536812
0.542117
0.528783
0.48048
0.469087
0.523603
0.540608
0.529975
0.506524
0.452449
0.483101
0.523292
0.535707
0.533187
0.521512
0.480873
0.470343
0.516439
0.530599
0.524368
0.507848
0.451812
0.434009
0.495782
0.514335
0.502266
0.481205
0.413987
0.390906
0.465752
0.490088
0.478905
0.451715
0.37089
0.354863
0.440069
0.469631
0.461862
0.430018
0.341254
0.329201
0.420871
0.454941
0.448568
0.412354
0.31833
0.308521
0.404375
0.442619
0.437017
0.396871
0.299574
0.291409
0.389792
0.431699
0.426632
0.383108
0.283962
0.277152
0.37678
0.421783
0.41714
0.370799
0.270949
0.265317
0.365159
0.412693
0.408429
0.359847
0.260201
0.255561
0.354851
0.404326
0.400375
0.35015
0.251349
0.247536
0.34573
0.39656
0.392876
0.341567
0.244088
0.240978
0.337657
0.389316
0.38588
0.333983
0.238181
0.235679
0.330544
0.382561
0.379356
0.327324
0.233447
0.231464
0.324315
0.376258
0.373262
0.321496
0.229706
0.228151
0.318856
0.37036
0.367551
0.316377
0.226776
0.225565
0.314054
0.364831
0.362203
0.311875
0.224497
0.223561
0.309834
0.359668
0.357225
0.307916
0.222745
0.222041
0.306123
0.354877
0.35262
0.30444
0.221437
0.220924
0.302867
0.350457
0.348378
0.301391
0.22049
0.22013
0.300009
0.346391
0.344486
0.298712
0.219831
0.219588
0.297498
0.342672
0.340937
0.296357
0.219391
0.219236
0.295287
0.339288
0.337715
0.294282
0.219114
0.219024
0.293339
0.336225
0.334805
0.292448
0.218964
0.218924
0.291611
0.333458
0.332177
0.290818
0.218911
0.21891
0.290075
0.330966
0.329814
0.289372
0.218927
0.218946
0.288713
0.328723
0.327688
0.288088
0.218977
0.219007
0.287506
0.32671
0.325781
0.286954
0.219045
0.219075
0.286438
0.324904
0.324069
0.285948
0.21911
0.21914
0.285492
0.323285
0.322538
0.285059
0.219174
0.219198
0.284655
0.321834
0.321165
0.284271
0.219228
0.219253
0.283918
0.320538
0.319942
0.283584
0.219283
0.219302
0.283274
0.319381
0.318845
0.282978
0.219321
0.219334
0.282705
0.318344
0.317865
0.282446
0.21935
0.219355
0.282205
0.317415
0.316984
0.281975
0.219363
0.219366
0.281764
0.316582
0.316196
0.281562
0.219372
0.21937
0.281371
0.315831
0.31548
0.281187
0.219372
0.21937
0.281017
0.315152
0.314837
0.280854
0.219372
0.219365
0.2807
0.314537
0.314249
0.280551
0.219361
0.219353
0.280413
0.313979
0.313719
0.280281
0.219348
0.219336
0.280156
0.313472
0.313234
0.280035
0.219326
0.219314
0.279924
0.313011
0.312796
0.279818
0.219305
0.21929
0.279716
0.312593
0.312394
0.279618
0.219276
0.219262
0.279528
0.31221
0.312033
0.279442
0.21925
0.219235
0.27936
0.311863
0.311702
0.279281
0.21922
0.219205
0.279208
0.311547
0.311406
0.279141
0.219194
0.219182
0.279078
0.311266
0.311139
0.279018
0.21917
0.219157
0.278962
0.311009
0.310897
0.27891
0.219148
0.219138
0.278862
0.31078
0.31068
0.278818
0.219132
0.219123
0.278777
0.310572
0.310485
0.27874
0.21912
0.219116
0.278707
0.310387
0.31031
0.278677
0.219116
0.219114
0.278649
0.310221
0.310154
0.278625
0.219118
0.219121
0.278603
0.310073
0.310015
0.278586
0.21913
0.219137
0.27857
0.309942
0.309894
0.27856
0.219151
0.219164
0.27855
0.309829
0.309789
0.278546
0.219182
0.2192
0.278542
0.309731
0.3097
0.278545
0.219224
0.219247
0.278547
0.30965
0.309627
0.278556
0.219276
0.219304
0.278563
0.309583
0.309568
0.278577
0.219337
0.219371
0.278591
0.309531
0.309524
0.27861
0.219408
0.219446
0.278628
0.309491
0.309492
0.278653
0.219488
0.219531
0.278676
0.309466
0.309474
0.278705
0.219577
0.219623
0.278732
0.309452
0.309468
0.278766
0.219673
0.219723
0.278799
0.309451
0.309473
0.278836
0.219776
0.219829
0.278872
0.309461
0.309488
0.278914
0.219885
0.219942
0.278954
0.309482
0.309514
0.278999
0.22
0.220059
0.279043
0.309512
0.309549
0.279092
0.22012
0.220182
0.279139
0.309553
0.309594
0.27919
0.220246
0.22031
0.279241
0.309601
0.309647
0.279295
0.220375
0.220441
0.279348
0.309658
0.309708
0.279405
0.220508
0.220576
0.279461
0.309722
0.309777
0.279522
0.220646
0.220717
0.279581
0.309795
0.309854
0.279644
0.220788
0.22086
0.279705
0.309876
0.309938
0.279771
0.220934
0.221008
0.279835
0.309963
0.310029
0.279903
0.221083
0.221159
0.27997
0.310057
0.310127
0.28004
0.221235
0.221312
0.280109
0.310158
0.31023
0.280182
0.221389
0.221467
0.280252
0.310263
0.310339
0.280327
0.221546
0.221625
0.280399
0.310375
0.310453
0.280475
0.221704
0.221784
0.280549
0.310491
0.310572
0.280627
0.221863
0.221943
0.280702
0.310612
0.310694
0.280781
0.222023
0.222103
0.280857
0.310736
0.31082
0.280937
0.222183
0.222263
0.281014
0.310864
0.31095
0.281095
0.222343