/*--------------------------------*- C++ -*----------------------------------*\
| =========                 |                                                 |
| \\      /  F ield         | OpenFOAM: The Open Source CFD Toolbox           |
|  \\    /   O peration     | Version:  v2006                                 |
|   \\  /    A nd           | Website:  www.openfoam.com                      |
|    \\/     M anipulation  |                                                 |
\*---------------------------------------------------------------------------*/
FoamFile
{
    version     2.0;
    format      ascii;
    class       volScalarField;
    location    "0.028";
    object      alphat;
}
// * * * * * * * * * * * * * * * * * * * * * * * * * * * * * * * * * * * * * //

dimensions      [1 -1 -1 0 0 0 0];


internalField   nonuniform List<scalar> 
24416
(
4.17239
4.16737
9.45899
9.74224
9.22456
10.0018
10.0614
11.3325
12.1918
13.9087
15.9205
19.0613
23.5298
30.1979
39.5641
51.0859
60.9871
63.0643
55.8961
24.87
7.29906
2.94615
1.64914
1.14937
0.912872
0.785158
0.70979
0.661336
0.626984
0.60013
0.577433
0.557287
0.538998
0.52231
0.507131
0.493404
0.481052
0.469968
0.460027
0.451094
0.443041
0.435753
0.429135
0.423107
0.41761
0.412595
0.408027
0.403873
0.400119
0.396746
0.393722
0.391038
0.388691
0.386671
0.384973
0.383592
0.382527
0.381777
0.38134
0.381214
0.381405
0.381925
0.382779
0.383973
0.385515
0.387414
0.389684
0.392338
0.395398
0.398891
0.402857
0.407348
0.412436
0.418211
0.424781
0.432262
0.440757
0.450322
0.460917
0.472367
0.484333
0.496383
0.508242
0.520266
0.533954
0.553303
0.587092
0.652816
0.786323
1.06753
1.69634
3.22095
7.1123
16.632
35.9857
62.2278
74.2857
49.9162
21.1463
8.28155
2.63321
1.09604
0.683542
0.346123
0.213534
0.143815
0.0796698
0.0210022
0.00385804
0.000126346
0.000110589
0.00176361
0.008054
0.00513526
0.00131861
9.95492e-05
9.06165e-05
0.00115125
0.00413263
0.00352166
0.00102759
8.47994e-05
7.99409e-05
0.000982105
0.00317344
0.00286387
0.000908079
7.62726e-05
7.32221e-05
0.000872795
0.00269847
0.00250256
0.000812508
7.00991e-05
6.76954e-05
0.000790302
0.00240689
0.00226948
0.000764345
6.56771e-05
6.42716e-05
0.000752343
0.00221652
0.00211931
0.000732003
6.27958e-05
6.18069e-05
0.000723606
0.00208339
0.00200694
0.000706839
6.06831e-05
5.9954e-05
0.000700684
0.00198106
0.00191722
0.000686425
5.90685e-05
5.85023e-05
0.0006815
0.00189732
0.00184215
0.000669226
5.77832e-05
5.73235e-05
0.000664873
0.00182576
0.00177747
0.000654176
5.67204e-05
5.63348e-05
0.000650212
0.00176358
0.0017206
0.000640745
5.58147e-05
5.54823e-05
0.000637063
0.00170862
0.00166983
0.000628548
5.50232e-05
5.47299e-05
0.000625121
0.00165938
0.001624
0.000617364
5.43173e-05
5.40538e-05
0.000614167
0.00161478
0.00158222
0.000607029
5.36777e-05
5.34376e-05
0.000604034
0.00157403
0.00154392
0.000597428
5.309e-05
5.28686e-05
0.000594637
0.00153661
0.00150861
0.000588485
5.25459e-05
5.2341e-05
0.000585866
0.00150202
0.00147576
0.000580064
5.2039e-05
5.18468e-05
0.000577594
0.00146984
0.00144518
0.000572126
5.15612e-05
5.13798e-05
0.000569809
0.00143982
0.00141659
0.000564636
5.11091e-05
5.09372e-05
0.000562456
0.00141174
0.00138979
0.00055755
5.06795e-05
5.05159e-05
0.000555494
0.0013854
0.00136461
0.000550831
5.02697e-05
5.01133e-05
0.000548892
0.00136063
0.00134091
0.000544449
4.98774e-05
4.97277e-05
0.000542619
0.0013373
0.00131854
0.000538379
4.9501e-05
4.93571e-05
0.000536648
0.00131527
0.00129741
0.000532594
4.91389e-05
4.90002e-05
0.000530959
0.00129445
0.00127743
0.000527078
4.87896e-05
4.86558e-05
0.000525532
0.00127476
0.00125846
0.000521813
4.84521e-05
4.83227e-05
0.00052035
0.00125607
0.00124045
0.000516777
4.81253e-05
4.79999e-05
0.000515391
0.00123831
0.00122329
0.000511948
4.78081e-05
4.76863e-05
0.000510632
0.00122139
0.00120694
0.000507308
4.74996e-05
4.7381e-05
0.000506057
0.00120524
0.00119131
0.000502841
4.71987e-05
4.7083e-05
0.00050165
0.00118979
0.00117634
0.000498531
4.69047e-05
4.67916e-05
0.000497394
0.00117499
0.00116198
0.000494362
4.66168e-05
4.65059e-05
0.000493277
0.00116079
0.0011482
0.000490324
4.63343e-05
4.62253e-05
0.000489287
0.00114715
0.00113495
0.000486408
4.60564e-05
4.59492e-05
0.000485416
0.00113403
0.00112217
0.000482602
4.57826e-05
4.5677e-05
0.000481651
0.00112137
0.00110985
0.000478895
4.55123e-05
4.54081e-05
0.000477984
0.00110915
0.00109792
0.000475276
4.52451e-05
4.5142e-05
0.000474399
0.00109731
0.00108637
0.000471735
4.49803e-05
4.48781e-05
0.00047089
0.00108585
0.00107517
0.000468265
4.47174e-05
4.46159e-05
0.00046745
0.00107473
0.00106429
0.000464858
4.44559e-05
4.43549e-05
0.00046407
0.00106391
0.00105368
0.000461505
4.41953e-05
4.40947e-05
0.00046074
0.00105336
0.00104334
0.000458195
4.39351e-05
4.38346e-05
0.000457452
0.00104306
0.00103322
0.000454923
4.36748e-05
4.35742e-05
0.000454199
0.00103299
0.00102333
0.000451681
4.34138e-05
4.33129e-05
0.000450976
0.00102313
0.00101364
0.000448467
4.31517e-05
4.30504e-05
0.000447779
0.00101347
0.00100413
0.000445274
4.2888e-05
4.27862e-05
0.000444602
0.00100401
0.000994814
0.000442099
4.26225e-05
4.25199e-05
0.000441444
0.000994764
0.000985696
0.000438944
4.23547e-05
4.22512e-05
0.000438306
0.000985696
0.000976732
0.000435805
4.20844e-05
4.198e-05
0.000435181
0.000976769
0.000967889
0.000432672
4.18112e-05
4.17057e-05
0.000432058
0.000967959
0.000959162
0.000429538
4.15347e-05
4.14279e-05
0.000428934
0.00095926
0.00095053
0.000426398
4.12543e-05
4.1146e-05
0.000425803
0.000950653
0.000941977
0.000423246
4.09696e-05
4.08597e-05
0.000422657
0.000942119
0.000933488
0.000420074
4.068e-05
4.05682e-05
0.00041949
0.000933647
0.000925052
0.000416878
4.0385e-05
4.02712e-05
0.000416298
0.000925226
0.00091666
0.000413653
4.00842e-05
3.99681e-05
0.000413075
0.000916847
0.000908302
0.000410394
3.97769e-05
3.96583e-05
0.000409818
0.000908498
0.000899968
0.000407097
3.94627e-05
3.93415e-05
0.000406522
0.000900172
0.000891649
0.000403758
3.91412e-05
3.9017e-05
0.000403181
0.000891856
0.000883334
0.00040038
3.88117e-05
3.86844e-05
0.000399793
0.000883545
0.000875017
0.000396954
3.84738e-05
3.83432e-05
0.000396355
0.000875227
0.000866684
0.000393474
3.81269e-05
3.79927e-05
0.000392861
0.000866895
0.000858336
0.000389937
3.77704e-05
3.76325e-05
0.00038931
0.000858547
0.000849969
0.000386341
3.74038e-05
3.72619e-05
0.000385699
0.000850177
0.000841572
0.000382683
3.70266e-05
3.68806e-05
0.000382024
0.000841773
0.00083313
0.000378956
3.66382e-05
3.64879e-05
0.000378278
0.000833319
0.000824627
0.000375154
3.6238e-05
3.60831e-05
0.000374455
0.000824801
0.000816049
0.00037127
3.58252e-05
3.56655e-05
0.000370547
0.000816204
0.000807383
0.000367297
3.53991e-05
3.52341e-05
0.000366549
0.000807517
0.000798619
0.000363229
3.49587e-05
3.47883e-05
0.000362454
0.000798731
0.000789751
0.000359063
3.45032e-05
3.43271e-05
0.000358262
0.000789838
0.00078076
0.000354792
3.40318e-05
3.38499e-05
0.000353962
0.000780821
0.00077163
0.000350407
3.35438e-05
3.33558e-05
0.000349544
0.000771663
0.000762362
0.000345902
3.30382e-05
3.28438e-05
0.000345004
0.000762368
0.000752954
0.00034127
3.25141e-05
3.23132e-05
0.000340338
0.000752932
0.000743398
0.000336508
3.19707e-05
3.17627e-05
0.000335542
0.000743341
0.000733676
0.000331603
3.14084e-05
3.11899e-05
0.000330605
0.00073357
0.000723754
0.000326534
3.08299e-05
3.0587e-05
0.000325465
0.000723533
0.000713498
0.000321172
3.03447e-05
3.02584e-05
0.000319891
0.000712987
0.00070271
0.000315429
3.00888e-05
3.00369e-05
0.000314007
0.000701826
0.000691364
0.000309457
2.98804e-05
2.98336e-05
0.000307936
0.000690114
0.000679511
0.000303338
2.96752e-05
2.96268e-05
0.000301758
0.000677945
0.000667238
0.00029713
2.94626e-05
2.9411e-05
0.000295512
0.000665411
0.000654628
0.000290859
2.92395e-05
2.91844e-05
0.000289215
0.000652591
0.000641753
0.000284533
2.90043e-05
2.89453e-05
0.000282874
0.000639553
0.000628671
0.000278155
2.87552e-05
2.86919e-05
0.000276484
0.000626347
0.000615428
0.000271717
2.84905e-05
2.84222e-05
0.000270017
0.000613003
0.000602053
0.000265196
2.82077e-05
2.81334e-05
0.000263471
0.000599557
0.000588585
0.00025859
2.7904e-05
2.78234e-05
0.000256836
0.000586036
0.000575035
0.000251877
2.7577e-05
2.74895e-05
0.000250086
0.000572443
0.000561407
0.000245038
2.72234e-05
2.71285e-05
0.000243203
0.000558777
0.000547697
0.000238044
2.68397e-05
2.67367e-05
0.000236155
0.000545025
0.000533883
0.00023086
2.64218e-05
2.63102e-05
0.000228898
0.000531147
0.000519916
0.000223432
2.59649e-05
2.58434e-05
0.000221369
0.000517088
0.000505741
0.000215699
2.54626e-05
2.53322e-05
0.000213516
0.000502772
0.000491262
0.000207566
2.49061e-05
2.47759e-05
0.000205265
0.000488045
0.000476246
0.000198732
2.42847e-05
2.2841e-05
0.000196275
0.000472624
0.00046051
0.000189738
2.10149e-05
1.95217e-05
0.000187504
0.000456823
0.000444904
0.000181412
1.77245e-05
1.63394e-05
0.000180116
0.000442036
0.000432202
0.000176381
1.48656e-05
1.3998e-05
0.000178785
0.000433488
0.000430307
0.000180296
1.32504e-05
1.28682e-05
0.000185518
0.000438343
0.000442057
0.000188566
1.24017e-05
1.2065e-05
0.000192512
0.000452598
0.000455983
0.000192037
1.14065e-05
1.10352e-05
0.000194403
0.000466055
0.000466206
0.000191364
1.02867e-05
9.94302e-06
0.000193076
0.000476045
0.000474258
0.000188824
9.21472e-06
8.88988e-06
0.000189782
0.000483728
0.000480698
0.000184622
8.19408e-06
7.90823e-06
0.00018509
0.000489665
0.000485858
0.000179456
7.2721e-06
7.04242e-06
0.000179893
0.000494655
0.0004904
0.000174251
6.49067e-06
6.34837e-06
0.000175101
0.000499204
0.000495446
0.000170196
5.92986e-06
5.86665e-06
0.000171683
0.00050492
0.00050256
0.000168106
5.57323e-06
5.55571e-06
0.000169926
0.000512505
0.00051066
0.000167205
5.33739e-06
5.36007e-06
0.000168098
0.000519801
0.000517925
0.000165501
5.17682e-06
5.21765e-06
0.000166093
0.000525646
0.000520981
0.000162498
5.00335e-06
5.00385e-06
0.000162129
0.000526622
0.000516648
0.000156599
4.71395e-06
4.63119e-06
0.000154446
0.000517627
0.000501284
0.000146508
4.24758e-06
4.09865e-06
0.000142748
0.000496743
0.000476682
0.000133719
3.68349e-06
3.50186e-06
0.000129546
0.000470059
0.000448658
0.000118964
3.04623e-06
2.85641e-06
0.000115439
0.000443034
0.000420693
0.000103318
2.36374e-06
2.08087e-06
9.78451e-05
0.000414892
0.000384536
8.30239e-05
1.58213e-06
1.14637e-06
7.03556e-05
0.000359655
0.000339286
6.1228e-05
9.34065e-07
8.56629e-07
5.53312e-05
0.000324581
0.000276986
3.70484e-05
5.43041e-07
0.000930128
0.00155542
0.00223167
0.00324891
0.00309972
0.00325354
0.00413922
0.00476389
0.00549738
0.00662352
0.00777354
0.00928976
0.0108357
0.0126544
0.0145112
0.0165744
0.0186811
0.0209421
0.0232439
0.0256547
0.0280914
0.0305913
0.0330862
0.0355878
0.0380341
0.0404137
0.0426661
0.0447583
0.0466323
0.0482356
0.0495249
0.0504301
0.0508884
0.0508347
0.0502271
0.0490021
0.0471688
0.0446737
0.0416089
0.037935
0.0338665
0.0293573
0.0247808
0.0199887
0.0163892
0.0117234
0.00809748
0.00487992
0.00226929
0.000714444
0.000228294
2.80598e-05
2.0919e-05
0.000192117
0.000606608
0.00054502
0.000168981
1.92418e-05
1.76377e-05
0.000145903
0.000473476
0.00045021
0.000138465
1.69554e-05
1.65578e-05
0.000135943
0.000448313
0.000428642
0.00013099
1.6375e-05
1.63445e-05
0.000133286
0.000442671
0.000435176
0.000131029
1.63697e-05
1.6475e-05
0.000135607
0.000451784
0.00044184
0.000131912
1.64437e-05
1.66055e-05
0.000137205
0.000458828
0.000452782
0.000134759
1.66285e-05
1.6807e-05
0.00014075
0.000470906
0.000461304
0.000137048
1.67759e-05
1.69789e-05
0.000142951
0.000480251
0.000474721
0.000140483
1.70075e-05
1.72511e-05
0.000147133
0.000494454
0.000484643
0.000143308
1.71668e-05
1.74386e-05
0.000149913
0.000505484
0.000500063
0.000147386
1.74718e-05
1.77541e-05
0.00015471
0.000521411
0.000511212
0.000150737
1.76613e-05
1.79545e-05
0.000158069
0.000534066
0.000528654
0.00015547
1.79717e-05
1.82663e-05
0.000163537
0.000551811
0.000541153
0.000159386
1.8129e-05
1.84569e-05
0.000167502
0.000566161
0.000560692
0.000164807
1.84772e-05
1.88071e-05
0.000173685
0.000585759
0.000574469
0.000169327
1.86667e-05
1.90367e-05
0.000178366
0.000601936
0.000596464
0.000175578
1.90604e-05
1.9434e-05
0.000185399
0.000623939
0.000611735
0.000180801
1.92904e-05
1.97152e-05
0.000190961
0.000642412
0.000636807
0.000188094
1.9744e-05
2.0171e-05
0.000198896
0.000667015
0.000653541
0.000193968
2.00254e-05
2.0527e-05
0.000205371
0.000688035
0.000681929
0.000202372
2.05684e-05
2.10544e-05
0.000214397
0.000715844
0.000700553
0.000209162
2.09761e-05
2.15911e-05
0.000221768
0.000740162
0.000733443
0.0002184
2.17023e-05
2.24516e-05
0.000232779
0.000773896
0.00076344
0.000227325
2.24967e-05
2.34721e-05
0.000246602
0.000818775
0.000817657
0.000244319
2.36201e-05
2.47254e-05
0.000268254
0.000880885
0.000870534
0.000264564
2.49039e-05
2.63487e-05
0.000290065
0.00093666
0.000936543
0.000288776
2.6815e-05
2.86833e-05
0.000308407
0.000995191
0.000985768
0.000303958
3.05844e-05
3.75469e-05
0.000332252
0.00103833
0.00100289
0.000385827
2.9275e-05
8.51422e-06
7.24086e-05
0.000333423
0.000843606
0.000245151
1.70872e-05
1.98802e-05
0.000244114
0.000852077
0.0011273
0.000285126
2.46762e-05
3.19678e-05
0.000365732
0.001416
0.00231961
0.000516757
9.11169e-05
0.000184875
0.0014606
0.00355275
0.00414643
0.00164548
0.000234138
0.000291259
0.0021191
0.00509459
0.0051772
0.00226984
0.00030517
0.00032418
0.00221513
0.00469537
0.00560751
0.00264387
0.000392555
0.000499401
0.00321439
0.00654674
0.00674973
0.00384687
0.000609829
0.000774456
0.00475652
0.00587932
0.00586771
0.00542686
0.000931846
0.0011006
0.00535935
0.0054045
0.00503219
0.00477647
0.00123448
0.00152692
0.00421659
0.0047813
0.00467306
0.00384913
0.00181186
0.00212166
0.00375367
0.00426587
0.00358293
0.00319832
0.00237582
0.00246374
0.00298329
0.00369991
0.0036624
0.0031166
0.00284554
0.00254772
0.00297764
0.00358684
0.00416125
0.0029159
0.00279865
0.00242557
0.00291764
0.0046602
0.00445283
0.00262846
0.00268047
0.00222006
0.00202704
0.00317606
0.00298512
0.00185772
0.00262206
0.00148326
0.00164323
0.00230211
0.00271934
0.00161473
0.00145958
0.00101961
0.00170857
0.00240697
0.00168929
0.00138306
0.000859614
0.000670027
0.0011114
0.00152585
0.00130344
0.000935562
0.000604559
0.000448294
0.000715427
0.000932908
0.000899214
0.000627116
0.00040134
0.000329428
0.000543499
0.000812258
0.000582048
0.000426457
0.000256338
0.000202927
0.000378681
0.000609723
0.000541545
0.000341435
0.000161399
7.00156e-05
0.000154972
0.000307155
0.000349786
0.000155071
3.46679e-05
3.40656e-05
0.000118353
0.000293329
0.000115437
3.30877e-05
1.11308e-05
1.95542e-05
0.000122565
0.000216452
0.000200193
0.000108924
2.07604e-05
7.27062e-06
3.48302e-05
9.49636e-05
0.000182317
0.000102644
1.67278e-05
1.84687e-05
9.93823e-05
0.000172036
7.89349e-05
3.2198e-05
7.54622e-06
1.59473e-05
9.7291e-05
0.000173927
0.000162578
9.13809e-05
1.75611e-05
8.20243e-06
2.81763e-05
7.27997e-05
0.000147868
8.58416e-05
1.39828e-05
1.60899e-05
7.70262e-05
0.000141714
5.57475e-05
2.2033e-05
8.29854e-06
1.26923e-05
7.97854e-05
0.000136755
7.36339e-05
3.34361e-05
1.41685e-05
1.60225e-05
9.86561e-05
0.000170801
0.000155574
8.08866e-05
1.88027e-05
1.37148e-05
2.75512e-05
6.08585e-05
0.000180791
9.4303e-05
1.5427e-05
1.87308e-05
7.91321e-05
0.000163128
6.28548e-05
2.79818e-05
1.38303e-05
1.50029e-05
8.60212e-05
0.000162788
0.00014731
7.32033e-05
1.8344e-05
1.35849e-05
2.39038e-05
5.52497e-05
0.000121228
8.79261e-05
1.34661e-05
1.60554e-05
3.19188e-05
6.37211e-05
0.000152867
8.12253e-05
1.5616e-05
1.90371e-05
6.69777e-05
0.000132811
5.24046e-05
2.43026e-05
1.45308e-05
1.32935e-05
8.41082e-05
0.000106479
5.92727e-05
3.16708e-05
1.66841e-05
1.55053e-05
7.28322e-05
0.000132028
0.000119539
6.48452e-05
1.9256e-05
1.53436e-05
2.69709e-05
5.15026e-05
0.000119137
6.77286e-05
1.4195e-05
1.82437e-05
5.95241e-05
0.000109703
4.52089e-05
2.25103e-05
1.4555e-05
1.29212e-05
7.53061e-05
8.27832e-05
4.74469e-05
2.91268e-05
1.62289e-05
1.40218e-05
7.45528e-05
9.33224e-05
5.38722e-05
3.26184e-05
1.74267e-05
1.52877e-05
6.38798e-05
0.000110302
9.85894e-05
5.53798e-05
1.90737e-05
1.53666e-05
2.61485e-05
4.46586e-05
8.38806e-05
6.59838e-05
1.34884e-05
1.71224e-05
3.2393e-05
5.03949e-05
0.000100601
6.21972e-05
1.48671e-05
1.89318e-05
5.35441e-05
9.0216e-05
4.25981e-05
2.6735e-05
1.53058e-05
1.31328e-05
5.91577e-05
7.48278e-05
4.61317e-05
3.2695e-05
1.6835e-05
1.3818e-05
6.17638e-05
8.4487e-05
5.0974e-05
3.3679e-05
1.76672e-05
1.52584e-05
6.07338e-05
9.93492e-05
8.71703e-05
5.19311e-05
1.95176e-05
1.56428e-05
2.94619e-05
4.37411e-05
7.27536e-05
5.94293e-05
1.31191e-05
1.72544e-05
3.47866e-05
4.64667e-05
8.40966e-05
6.16899e-05
1.41995e-05
1.8038e-05
3.61389e-05
5.19454e-05
9.80704e-05
6.07035e-05
1.56937e-05
1.97833e-05
5.27501e-05
8.54441e-05
4.41e-05
3.13367e-05
1.58882e-05
1.32591e-05
5.86143e-05
6.85923e-05
4.5449e-05
3.63672e-05
1.7496e-05
1.4243e-05
5.78926e-05
7.77178e-05
4.95825e-05
3.62593e-05
1.83498e-05
1.55885e-05
5.86613e-05
9.12852e-05
8.00934e-05
5.1965e-05
1.98986e-05
1.61174e-05
3.29948e-05
4.32308e-05
6.61368e-05
5.72804e-05
1.33893e-05
1.77858e-05
3.77469e-05
4.48677e-05
7.36334e-05
5.56306e-05
1.43074e-05
1.82242e-05
3.93923e-05
4.91651e-05
7.97559e-05
5.85541e-05
1.45972e-05
1.85218e-05
4.00308e-05
5.2449e-05
9.30124e-05
5.97634e-05
1.5711e-05
2.01474e-05
5.30252e-05
8.08644e-05
4.45886e-05
3.54985e-05
1.63143e-05
1.35792e-05
5.80674e-05
6.68756e-05
4.65808e-05
4.02826e-05
1.81405e-05
1.47295e-05
5.61881e-05
7.30313e-05
4.96817e-05
4.10349e-05
1.84679e-05
1.47217e-05
5.68386e-05
7.63452e-05
5.1681e-05
4.20673e-05
1.85929e-05
1.50315e-05
5.99742e-05
7.95437e-05
5.39795e-05
4.40125e-05
1.89143e-05
1.60057e-05
6.12235e-05
9.24582e-05
8.14149e-05
5.56375e-05
2.0455e-05
1.67161e-05
3.9517e-05
4.69191e-05
6.87717e-05
6.07202e-05
1.38466e-05
1.86203e-05
4.36777e-05
4.91353e-05
7.55087e-05
5.87786e-05
1.50538e-05
1.88944e-05
4.48178e-05
5.27522e-05
7.92606e-05
6.03422e-05
1.50961e-05
1.89385e-05
4.62532e-05
5.51992e-05
8.271e-05
6.36404e-05
1.53809e-05
1.92128e-05
4.8908e-05
5.72317e-05
9.51313e-05
6.4021e-05
1.61236e-05
2.06627e-05
5.83871e-05
8.35567e-05
4.93429e-05
4.3044e-05
1.67654e-05
1.41729e-05
6.37788e-05
7.14355e-05
5.19668e-05
4.6502e-05
1.8986e-05
1.51832e-05
6.05985e-05
7.56021e-05
5.3758e-05
4.63756e-05
1.91553e-05
1.52457e-05
5.94362e-05
7.70222e-05
5.54937e-05
4.83853e-05
1.93148e-05
1.56674e-05
6.29961e-05
7.99916e-05
5.69497e-05
5.13606e-05
1.95231e-05
1.63481e-05
6.41742e-05
9.30073e-05
8.25756e-05
5.94734e-05
2.09401e-05
1.71954e-05
4.54912e-05
5.06469e-05
7.16008e-05
6.49538e-05
1.43797e-05
1.91693e-05
4.88678e-05
5.31313e-05
7.67869e-05
6.17104e-05
1.54724e-05
1.94708e-05
4.96084e-05
5.58057e-05
7.9096e-05
6.2324e-05
1.56246e-05
1.94715e-05
5.1212e-05
5.75275e-05
8.23301e-05
6.55111e-05
1.5801e-05
1.96783e-05
5.45324e-05
5.94007e-05
9.43386e-05
6.61643e-05
1.64243e-05
2.10466e-05
6.15017e-05
8.39495e-05
5.22594e-05
4.7852e-05
1.70891e-05
1.45257e-05
6.72013e-05
7.33357e-05
5.48193e-05
5.09465e-05
1.93188e-05
1.53819e-05
6.26436e-05
7.72334e-05
5.73556e-05
5.16166e-05
1.96468e-05
1.56333e-05
6.35105e-05
7.88888e-05
5.85957e-05
5.31144e-05
1.95426e-05
1.56931e-05
6.59219e-05
8.14056e-05
5.99423e-05
5.64628e-05
1.98787e-05
1.66999e-05
6.67982e-05
9.39538e-05
8.41378e-05
6.28769e-05
2.13194e-05
1.74525e-05
5.04234e-05
5.4045e-05
7.44389e-05
6.95338e-05
1.42981e-05
1.94131e-05
5.34329e-05
5.64775e-05
7.96316e-05
6.49361e-05
1.55073e-05
1.97466e-05
5.41944e-05
5.9275e-05
8.20128e-05
6.61011e-05
1.57307e-05
1.9738e-05
5.64374e-05
6.13447e-05
8.52549e-05
6.97941e-05
1.56747e-05
1.98348e-05
5.97361e-05
6.34502e-05
9.73651e-05
7.00097e-05
1.66037e-05
2.13144e-05
6.60201e-05
8.74159e-05
5.68136e-05
5.34562e-05
1.75202e-05
1.48445e-05
7.19828e-05
7.80606e-05
5.99162e-05
5.63274e-05
1.96986e-05
1.58026e-05
6.90291e-05
8.25924e-05
6.24643e-05
5.75883e-05
1.99958e-05
1.57584e-05
6.9698e-05
8.52066e-05
6.3806e-05
6.07524e-05
2.00908e-05
1.69658e-05
7.02026e-05
9.67577e-05
8.70793e-05
6.6641e-05
2.17737e-05
1.8049e-05
5.58794e-05
5.85226e-05
7.9917e-05
7.34909e-05
1.51892e-05
2.00435e-05
5.91399e-05
6.20498e-05
8.5539e-05
7.14608e-05
1.62219e-05
2.01651e-05
6.06734e-05
6.52139e-05
8.88487e-05
7.29971e-05
1.60301e-05
2.02183e-05
6.38519e-05
6.69698e-05
0.000100647
7.34325e-05
1.71095e-05
2.21681e-05
7.00845e-05
9.13474e-05
6.15274e-05
5.88306e-05
1.79523e-05
1.5116e-05
7.70144e-05
8.27473e-05
6.51077e-05
6.21904e-05
1.99754e-05
1.60392e-05
7.51691e-05
8.88763e-05
6.71264e-05
6.44182e-05
2.03552e-05
1.72149e-05
7.32448e-05
0.000100266
9.14164e-05
7.04547e-05
2.25265e-05
1.83704e-05
5.97779e-05
6.26678e-05
8.30863e-05
7.74108e-05
1.53043e-05
2.02152e-05
6.34678e-05
6.58415e-05
8.99947e-05
7.62238e-05
1.60801e-05
2.06108e-05
6.64548e-05
6.875e-05
0.0001023
7.49821e-05
1.72997e-05
2.26076e-05
7.20047e-05
9.29475e-05
6.42368e-05
6.15827e-05
1.85013e-05
1.55356e-05
7.88865e-05
8.45612e-05
6.78868e-05
6.53706e-05
2.03656e-05
1.62463e-05
7.75693e-05
9.12798e-05
7.01905e-05
6.81604e-05
2.07036e-05
1.73418e-05
7.63761e-05
0.000103609
9.47622e-05
7.37537e-05
2.30983e-05
1.89549e-05
6.49784e-05
6.68664e-05
8.78387e-05
8.08881e-05
1.58048e-05
2.11212e-05
6.98696e-05
6.99872e-05
0.000102405
7.83142e-05
1.76368e-05
2.30489e-05
7.57212e-05
9.41053e-05
6.69884e-05
6.47715e-05
1.88729e-05
1.58463e-05
8.01082e-05
8.66521e-05
6.9767e-05
7.00737e-05
2.14895e-05
1.80412e-05
7.8238e-05
0.000100888
9.33963e-05
7.64219e-05
2.39695e-05
1.92679e-05
6.75076e-05
6.82669e-05
8.78529e-05
8.30441e-05
1.56771e-05
2.14583e-05
7.27682e-05
7.14542e-05
0.000102234
7.83619e-05
1.82326e-05
2.4498e-05
7.69917e-05
9.53024e-05
6.97505e-05
6.93211e-05
1.96535e-05
1.61213e-05
8.35736e-05
8.9456e-05
7.3242e-05
7.57988e-05
2.1704e-05
1.82384e-05
8.1652e-05
0.000105834
9.86066e-05
8.02925e-05
2.49209e-05
2.13106e-05
7.66701e-05
7.37908e-05
0.000102471
8.73037e-05
1.83426e-05
2.50675e-05
8.48199e-05
9.75934e-05
7.38836e-05
7.63699e-05
2.10114e-05
1.80033e-05
8.55976e-05
0.00010152
9.67828e-05
8.37912e-05
2.5559e-05
2.19921e-05
7.78256e-05
7.45104e-05
0.000100893
8.6479e-05
1.89755e-05
2.54487e-05
8.37034e-05
9.64995e-05
7.40498e-05
7.67865e-05
2.18993e-05
1.88287e-05
8.49813e-05
9.93303e-05
9.51786e-05
8.30977e-05
2.65153e-05
2.29368e-05
7.97876e-05
7.53591e-05
0.000100066
8.67503e-05
1.88814e-05
2.58089e-05
8.4342e-05
9.55655e-05
7.55127e-05
8.09837e-05
2.28578e-05
1.99951e-05
8.80063e-05
0.000101431
9.80337e-05
8.59912e-05
2.76201e-05
2.39853e-05
8.55974e-05
7.90477e-05
0.000105291
9.08687e-05
2.05193e-05
3.07659e-05
9.85539e-05
0.000100695
9.43183e-05
9.29692e-05
2.80236e-05
2.50663e-05
8.65952e-05
8.02123e-05
0.00010559
9.10679e-05
2.15978e-05
3.35786e-05
9.3947e-05
0.000101169
9.75464e-05
9.44012e-05
3.23436e-05
3.41078e-05
9.51221e-05
9.20249e-05
9.18942e-05
8.85146e-05
3.51337e-05
3.78433e-05
8.99697e-05
8.76801e-05
8.77544e-05
7.97381e-05
3.62454e-05
3.32324e-05
8.7159e-05
7.83575e-05
9.9312e-05
8.93089e-05
2.92005e-05
4.64048e-05
9.35528e-05
9.84917e-05
9.82051e-05
0.000103067
5.13382e-05
5.42239e-05
0.000109988
9.96081e-05
0.000100818
0.00011648
5.67957e-05
5.76021e-05
0.000123281
0.000102615
0.000104382
0.000129749
5.69045e-05
5.59116e-05
0.000136719
0.000107021
0.000110049
0.000143203
5.42093e-05
5.23283e-05
0.000150411
0.000113399
0.000117698
0.000156981
5.03322e-05
4.83437e-05
0.00016449
0.000121928
0.000127792
0.000168549
4.64241e-05
4.46199e-05
0.000171971
0.000132998
0.000140059
0.000174667
4.29371e-05
4.13842e-05
0.000176921
0.000147764
0.000157405
0.00017836
3.99509e-05
3.86314e-05
0.00017995
0.000166754
0.000176512
0.000181732
3.74301e-05
3.63409e-05
0.00018369
0.000185947
0.000195805
0.000185898
3.53659e-05
3.44935e-05
0.000188244
0.000205307
0.000215288
0.000190836
3.37247e-05
3.30466e-05
0.000193542
0.000224842
0.000234685
0.000196458
3.24595e-05
3.19512e-05
0.000199565
0.000242474
0.000250402
0.000202818
3.15228e-05
3.11607e-05
0.000206164
0.000257955
0.000265893
0.000209666
3.08656e-05
3.06246e-05
0.000213281
0.000273473
0.000281224
0.000216956
3.0438e-05
3.02937e-05
0.000220644
0.000288562
0.000296266
0.000224411
3.01904e-05
3.01205e-05
0.000228201
0.000303504
0.00031089
0.000231918
3.00774e-05
3.00598e-05
0.000235673
0.000317761
0.000324957
0.000239323
3.00601e-05
3.00768e-05
0.000242992
0.000331545
0.000338308
0.000246468
3.01026e-05
3.01383e-05
0.000249883
0.000344465
0.000350921
0.00025313
3.01759e-05
3.02195e-05
0.00025637
0.000356687
0.000362647
0.000259329
3.02595e-05
3.03021e-05
0.000262216
0.000367987
0.000373592
0.000264864
3.03371e-05
3.03736e-05
0.000267511
0.000378517
0.000383598
0.00026982
3.03998e-05
3.04258e-05
0.000272072
0.000388121
0.000392806
0.000274049
3.04406e-05
3.04548e-05
0.00027604
0.000396946
0.000401144
0.000277687
3.04577e-05
3.0459e-05
0.00027928
0.000405073
0.000408925
0.00028065
3.04495e-05
3.04406e-05
0.000281992
0.000412569
0.000416209
0.000283114
3.04172e-05
3.04031e-05
0.000284128
0.0004196
0.000423176
0.000285069
3.03701e-05
3.03508e-05
0.000285863
0.000426305
0.000429803
0.000286612
3.03125e-05
3.02885e-05
0.000287227
0.000432745
0.000436221
0.000287806
3.02444e-05
3.02177e-05
0.000288289
0.000439067
0.000442434
0.000288722
3.017e-05
3.0142e-05
0.000289107
0.00044526
0.000448595
0.000289426
3.00914e-05
3.00636e-05
0.000289748
0.000451451
0.000454716
0.000289978
3.00126e-05
2.99864e-05
0.000290268
0.000457613
0.000460908
0.000290449
2.99356e-05
2.99114e-05
0.000290729
0.000463928
0.000467161
0.000290865
2.98632e-05
2.98423e-05
0.000291157
0.000470308
0.000473593
0.000291244
2.9796e-05
2.97794e-05
0.000291644
0.000476845
0.00048
0.00029169
2.97389e-05
2.97234e-05
0.000292054
0.00048337
0.000486516
0.0002921
2.96888e-05
2.96761e-05
0.00029252
0.000489861
0.000491615
0.000292546
2.96491e-05
2.96379e-05
0.000292916
0.000494017
0.000495571
0.00029297
2.96176e-05
2.96085e-05
0.000293314
0.000497874
0.000499302
0.000293346
2.95946e-05
2.95867e-05
0.00029366
0.000501537
0.000502869
0.000293664
2.95762e-05
2.957e-05
0.000294025
0.000505038
0.000506333
0.000293987
2.95609e-05
2.95579e-05
0.000294278
0.000508443
0.00050971
0.000294284
2.95501e-05
2.95508e-05
0.000294559
0.000511753
0.000513034
0.000294562
2.95443e-05
2.95488e-05
0.000294824
0.000515031
0.000516332
0.00029485
2.95436e-05
2.95517e-05
0.000295104
0.000518277
0.00051961
0.000295141
2.9548e-05
2.956e-05
0.000295396
0.000521514
0.000522869
0.000295466
2.95579e-05
2.95738e-05
0.000295727
0.000524725
0.000526108
0.000295815
2.95738e-05
2.9593e-05
0.000296086
0.000527922
0.000529312
0.000296215
2.95965e-05
2.96179e-05
0.000296495
0.000531078
0.000532482
0.000296642
2.96252e-05
2.96486e-05
0.00029693
0.000534205
0.0005356
0.000297114
2.96593e-05
2.96846e-05
0.000297407
0.00053727
0.000538662
0.000297608
2.96988e-05
2.97256e-05
0.0002979
0.000540288
0.000541651
0.000298134
2.97427e-05
2.9771e-05
0.000298424
0.000543223
0.000544563
0.000298671
2.97909e-05
2.98204e-05
0.00029895
0.0005461
0.000547384
0.000299206
2.98422e-05
2.98734e-05
0.000299532
0.000548865
0.000550137
0.00029978
2.98971e-05
2.99293e-05
0.000300044
0.000551547
0.000552762
0.000300297
2.99536e-05
2.99873e-05
0.000300626
0.000554111
0.000555304
0.000300854
3.00127e-05
3.00469e-05
0.000301123
0.000556583
0.000557724
0.000301374
3.00729e-05
3.01078e-05
0.000301639
0.000558946
0.000560041
0.000301871
3.01341e-05
3.01694e-05
0.000302129
0.000561213
0.000562244
0.000302349
3.0196e-05
3.02314e-05
0.000302598
0.000563359
0.000564332
0.000302798
3.02581e-05
3.02935e-05
0.000303028
0.000565414
0.000566298
0.000303201
3.03199e-05
3.03556e-05
0.000303477
0.00056733
0.000568168
0.00030361
3.03821e-05
3.04169e-05
0.00030381
0.000569133
0.0005699
0.00030395
3.0443e-05
3.04779e-05
0.000304192
0.000570811
0.00057154
0.000304289
3.05038e-05
3.05377e-05
0.000304461
0.000572366
0.000573041
0.000304577
3.05632e-05
3.05965e-05
0.000304732
0.000573812
0.000574425
0.000304826
3.06216e-05
3.06542e-05
0.00030496
0.000575151
0.00057569
0.000305039
3.06787e-05
3.07106e-05
0.000305155
0.000576369
0.000576835
0.000305212
3.07346e-05
3.07655e-05
0.000305303
0.000577494
0.000577869
0.00030533
3.07886e-05
3.08192e-05
0.000305461
0.00057849
0.00057882
0.00030545
3.08418e-05
3.0871e-05
0.000305505
0.00057939
0.00057965
0.000305495
3.08927e-05
3.09215e-05
0.000305591
0.000580183
0.000580403
0.000305548
3.09426e-05
3.09702e-05
0.000305569
0.000580887
0.000581053
0.000305523
3.09904e-05
3.10172e-05
0.000305567
0.000581481
0.000581608
0.000305526
3.10371e-05
3.10629e-05
0.000305515
0.000582015
0.000582073
0.000305463
3.1082e-05
3.1107e-05
0.000305439
0.000582466
0.000582437
0.000305372
3.11253e-05
3.11495e-05
0.000305353
0.000582873
0.000582796
0.000305222
3.11668e-05
3.11903e-05
0.000305232
0.000583103
0.000583059
0.00030511
3.12073e-05
3.12297e-05
0.000305048
0.000583309
0.000583236
0.000304951
3.1246e-05
3.12677e-05
0.00030488
0.000583458
0.00058334
0.000304771
3.12834e-05
3.13043e-05
0.000304685
0.000583558
0.000583389
0.000304546
3.13192e-05
3.13397e-05
0.000304512
0.000583577
0.000583402
0.000304355
3.13543e-05
3.13736e-05
0.000304253
0.000583537
0.000583346
0.000304122
3.13877e-05
3.14064e-05
0.000304015
0.000583455
0.000583238
0.000303876
3.14199e-05
3.14379e-05
0.000303759
0.000583329
0.000583084
0.000303616
3.1451e-05
3.14683e-05
0.000303496
0.000583151
0.000582885
0.000303344
3.14811e-05
3.14973e-05
0.000303216
0.000582927
0.000582634
0.000302878
3.15089e-05
3.15264e-05
0.000302953
0.000582673
0.000582333
0.000302799
3.15385e-05
3.15551e-05
0.000302832
0.000582405
0.000582026
0.000302431
3.1564e-05
3.15793e-05
0.00030235
0.000582082
0.000581683
0.000302156
3.15895e-05
3.16042e-05
0.000302012
0.000581728
0.000581309
0.000301824
3.16139e-05
3.16285e-05
0.000301738
0.000581347
0.000580921
0.000301539
3.16382e-05
3.1652e-05
0.000301389
0.000580945
0.000580493
0.000301197
3.16611e-05
3.16748e-05
0.000301106
0.000580513
0.00058007
0.000300904
3.16838e-05
3.16968e-05
0.000300751
0.000580072
0.000579586
0.000300556
3.17052e-05
3.1718e-05
0.000300462
0.000579592
0.000579138
0.00030026
3.17264e-05
3.17385e-05
0.000300105
0.000579103
0.000578609
0.000299909
3.17464e-05
3.17583e-05
0.000299814
0.000578604
0.000578143
0.000299612
3.17662e-05