/*--------------------------------*- C++ -*----------------------------------*\
| =========                 |                                                 |
| \\      /  F ield         | OpenFOAM: The Open Source CFD Toolbox           |
|  \\    /   O peration     | Version:  v2006                                 |
|   \\  /    A nd           | Website:  www.openfoam.com                      |
|    \\/     M anipulation  |                                                 |
\*---------------------------------------------------------------------------*/
FoamFile
{
    version     2.0;
    format      ascii;
    class       volScalarField;
    location    "0.028";
    object      Co;
}
// * * * * * * * * * * * * * * * * * * * * * * * * * * * * * * * * * * * * * //

dimensions      [0 0 0 0 0 0 0];


internalField   nonuniform List<scalar> 
24416
(
0.0184016
0.0176125
0.019056
0.0197889
0.0201136
0.0196601
0.0197686
0.0196134
0.0194456
0.0194083
0.0192847
0.0192871
0.0192665
0.0192608
0.0192603
0.0192598
0.0192601
0.0192606
0.019261
0.0192614
0.0192612
0.0192581
0.0192503
0.0192379
0.0192216
0.0192029
0.0191828
0.0191619
0.0191407
0.0191193
0.0190978
0.019076
0.0190539
0.0190315
0.0190086
0.0189852
0.0189615
0.0189373
0.0189127
0.0188877
0.0188624
0.0188367
0.0188108
0.0187845
0.018758
0.0187312
0.0187042
0.018677
0.0186496
0.0186221
0.0185944
0.0185666
0.0185386
0.0185106
0.0184825
0.0184544
0.0184263
0.0183982
0.0183701
0.0183421
0.0183142
0.0182863
0.0182586
0.018231
0.0182035
0.0181763
0.0181493
0.0181225
0.0180959
0.0180696
0.0180436
0.0180179
0.0179925
0.0179674
0.0179427
0.0179184
0.0178946
0.0178712
0.0178482
0.0178257
0.0178037
0.0177819
0.0177603
0.0177386
0.0177165
0.0176939
0.0176711
0.0176488
0.0176286
0.0176127
0.0176019
0.0175975
0.0175995
0.017621
0.0176586
0.0177966
0.0180152
0.0185799
0.0195537
0.0218568
0.0270436
0.0385513
0.0591931
0.0477032
0.0420742
0.0419392
0.0408026
0.0390485
0.0384721
0.0370406
0.0335613
0.0362892
0.0378654
0.0344016
0.0344127
0.0327247
0.027363
0.0291833
0.0296898
0.0286124
0.0287919
0.0272075
0.0247538
0.0269914
0.0275836
0.0275236
0.0271283
0.0248369
0.0242408
0.0267573
0.0273322
0.0273523
0.0268568
0.0242456
0.0239123
0.026685
0.027339
0.0274188
0.0266312
0.0237391
0.0235509
0.0265481
0.0271981
0.0273424
0.0264675
0.0233793
0.0232157
0.0263833
0.0271133
0.0272518
0.0263027
0.0230636
0.02292
0.0262213
0.0270212
0.0271579
0.0261444
0.0227856
0.0226574
0.0260664
0.0269269
0.0270627
0.0259929
0.0225368
0.0224207
0.025918
0.0268341
0.0269673
0.0258476
0.0223109
0.0222045
0.0257757
0.0267463
0.0268721
0.0257078
0.0221032
0.0220047
0.0256385
0.026658
0.0267775
0.025573
0.0219105
0.0218184
0.025506
0.0265696
0.0266837
0.0254427
0.0217301
0.0216434
0.0253776
0.0264811
0.0265906
0.0253162
0.02156
0.0214778
0.025253
0.0263928
0.0264977
0.0251928
0.0213986
0.0213206
0.0251318
0.0263051
0.0264063
0.0250731
0.021245
0.0211706
0.0250139
0.0262171
0.0263163
0.0249565
0.0210978
0.0210255
0.0248971
0.026129
0.0262257
0.0248412
0.0209556
0.0208857
0.0247828
0.0260409
0.0261354
0.0247279
0.0208181
0.0207502
0.0246701
0.0259525
0.0260452
0.0246161
0.0206846
0.0206186
0.0245589
0.025864
0.025955
0.0245056
0.0205547
0.0204902
0.0244489
0.025775
0.0258647
0.0243961
0.0204279
0.0203647
0.0243398
0.0256857
0.0257742
0.0242875
0.0203037
0.0202418
0.0242315
0.0255958
0.0256833
0.0241796
0.0201818
0.0201209
0.0241238
0.0255053
0.025592
0.0240721
0.020062
0.020002
0.0240164
0.0254141
0.0255001
0.0239648
0.0199439
0.0198846
0.0239092
0.0253222
0.0254076
0.0238578
0.0198273
0.0197686
0.0238021
0.0252293
0.0253143
0.0237507
0.0197119
0.0196538
0.0236949
0.0251354
0.0252201
0.0236435
0.0195976
0.01954
0.0235876
0.0250404
0.025125
0.023536
0.0194842
0.0194269
0.0234798
0.0249443
0.0250288
0.023428
0.0193714
0.0193143
0.0233716
0.0248469
0.0249315
0.0233195
0.0192591
0.0192022
0.0232627
0.0247482
0.024833
0.0232104
0.0191471
0.0190902
0.0231531
0.024648
0.0247331
0.0231004
0.0190351
0.0189783
0.0230427
0.0245463
0.0246318
0.0229895
0.0189232
0.0188663
0.0229312
0.024443
0.024529
0.0228776
0.0188111
0.018754
0.0228188
0.024338
0.0244246
0.0227645
0.0186987
0.0186413
0.022705
0.0242311
0.0243184
0.0226501
0.0185857
0.0185281
0.0225899
0.0241222
0.0242103
0.0225343
0.0184721
0.0184141
0.0224733
0.0240112
0.0241002
0.0224169
0.0183577
0.0182992
0.0223551
0.023898
0.0239881
0.0222978
0.0182423
0.0181832
0.022235
0.0237824
0.0238737
0.0221769
0.0181257
0.0180661
0.0221131
0.0236644
0.0237569
0.0220539
0.0180079
0.0179475
0.021989
0.0235437
0.0236376
0.0219288
0.0178886
0.0178273
0.0218627
0.0234202
0.0235156
0.0218013
0.0177676
0.0177055
0.0217341
0.0232938
0.0233909
0.0216714
0.0176449
0.0175818
0.0216029
0.0231669
0.0232634
0.0215389
0.0175202
0.0174561
0.021469
0.0230387
0.0231328
0.0214036
0.0173933
0.0173281
0.0213323
0.0229075
0.0229991
0.0212655
0.0172643
0.0171979
0.0211926
0.022773
0.0228621
0.0211243
0.0171327
0.017065
0.0210497
0.022635
0.0227214
0.0209797
0.0169986
0.0169295
0.0209034
0.0224935
0.022577
0.0208317
0.0168617
0.0167911
0.0207536
0.0223481
0.0224287
0.02068
0.0167218
0.0166497
0.0206
0.0221988
0.0222763
0.0205245
0.0165788
0.016505
0.0204425
0.0220453
0.0221195
0.0203649
0.0164324
0.0163569
0.0202808
0.0218874
0.0219583
0.020201
0.0162824
0.0162051
0.0201147
0.0217249
0.0217923
0.0200326
0.0161287
0.0160494
0.0199439
0.0215576
0.0216213
0.0198595
0.015971
0.0158897
0.0197684
0.0213853
0.0214452
0.0196814
0.0158091
0.0157256
0.0195877
0.0212076
0.0212636
0.0194981
0.0156428
0.0155569
0.0194017
0.0210245
0.0210763
0.0193094
0.0154718
0.0153836
0.0192101
0.0208356
0.0208832
0.019115
0.015296
0.0152052
0.0190127
0.0206408
0.0206839
0.0189146
0.0151151
0.0150217
0.0188093
0.0204397
0.0204782
0.018708
0.0149289
0.0148328
0.0185995
0.0202321
0.0202658
0.018495
0.0147372
0.0146382
0.0183832
0.0200178
0.0200466
0.0182752
0.0145397
0.0144377
0.01816
0.0197965
0.01982
0.0180485
0.0143361
0.0142311
0.0179296
0.0195678
0.019586
0.0178145
0.0141263
0.014018
0.0176918
0.0193315
0.0193441
0.0175728
0.0139099
0.0137982
0.0174462
0.0190873
0.019094
0.0173232
0.0136867
0.0135715
0.0171926
0.0188347
0.0188354
0.0170654
0.0134565
0.0133377
0.0169306
0.0185737
0.0185682
0.0167992
0.013219
0.0130964
0.0166601
0.0183038
0.0182919
0.0165243
0.0129739
0.0128475
0.0163806
0.0180248
0.0180063
0.0162403
0.0127211
0.0125907
0.016092
0.0177364
0.017711
0.0159469
0.0124602
0.0123257
0.0157938
0.0174383
0.0174059
0.0156439
0.012191
0.0120521
0.0154859
0.0171302
0.0170906
0.015331
0.0119131
0.0117697
0.0151678
0.016812
0.0167653
0.015008
0.011626
0.0114773
0.0148405
0.0164845
0.0164312
0.0146762
0.0113268
0.0111695
0.0145031
0.016148
0.0160866
0.0143321
0.0110097
0.0108434
0.0141519
0.0157996
0.0157297
0.0139739
0.0106751
0.0105004
0.0137864
0.0154388
0.0153598
0.013601
0.0103239
0.0101413
0.0134061
0.0150648
0.0149765
0.0132132
0.00995713
0.00976704
0.0130107
0.0146772
0.0145793
0.0128104
0.00957562
0.00937845
0.0126004
0.0142757
0.0141679
0.0123927
0.00918018
0.00897633
0.0121752
0.01386
0.0137424
0.0119603
0.00877165
0.00856146
0.0117354
0.0134302
0.0133029
0.0115135
0.00835076
0.00813449
0.0112813
0.0129866
0.0128492
0.0110523
0.00791795
0.00769592
0.010813
0.0125288
0.0123816
0.0105773
0.00747396
0.00724649
0.010331
0.0120574
0.0119004
0.0100886
0.00701934
0.00678661
0.00983538
0.0115723
0.0114056
0.0095866
0.00655454
0.00631681
0.00932656
0.0110739
0.0108973
0.00907143
0.00608001
0.00583746
0.0088047
0.0105621
0.0103758
0.00854336
0.00559608
0.00534875
0.0082699
0.0100374
0.0098413
0.00800236
0.00510277
0.00485056
0.00772204
0.00949955
0.00929368
0.00744817
0.00459987
0.00434257
0.00716077
0.00894865
0.00873301
0.00688042
0.00408689
0.00382395
0.00658601
0.00838502
0.00816029
0.00630036
0.00356199
0.00329018
0.00599905
0.00780886
0.00757363
0.00570729
0.00301868
0.0027371
0.00539672
0.00721627
0.00696604
0.00509578
0.00246008
0.00217886
0.00477409
0.00659674
0.00631701
0.00445814
0.00191196
0.00166257
0.00413359
0.00593564
0.00564496
0.00383047
0.00145031
0.00126667
0.00353043
0.00526272
0.00499325
0.00327388
0.00112209
0.000993637
0.00302596
0.00463711
0.00440487
0.00281892
0.000888216
0.000787105
0.00261205
0.00408926
0.00388761
0.00244024
0.000703865
0.00062314
0.00226457
0.00360815
0.00343462
0.00212216
0.000559368
0.000496703
0.00197374
0.00318832
0.00304097
0.00185644
0.000448725
0.000399935
0.00172971
0.00282337
0.00269908
0.00163257
0.000364006
0.00032541
0.00152188
0.00250447
0.00239871
0.00144057
0.000299107
0.000269689
0.001344
0.00222466
0.00213483
0.00127813
0.000252503
0.000231284
0.00119614
0.00198526
0.00191168
0.0011449
0.000221754
0.000208695
0.0010779
0.00178291
0.00172794
0.00104121
0.000207475
0.000214368
0.000998229
0.00162122
0.00158529
0.000977688
0.000222526
0.000243385
0.000973593
0.00151653
0.0015008
0.000968781
0.000260827
0.000290294
0.000994185
0.00150561
0.00147784
0.000998644
0.00031326
0.00034544
0.00102924
0.00151209
0.00148433
0.00103353
0.000367154
0.000393561
0.00105734
0.0015103
0.00147525
0.0010499
0.000405245
0.000417386
0.00105627
0.00147678
0.00148206
0.00105593
0.000417834
0.000413437
0.00103112
0.00144757
0.00147189
0.00105173
0.000417297
0.000399015
0.00101014
0.00143244
0.00148679
0.00105063
0.000417497
0.000394561
0.000995676
0.00144019
0.00148614
0.00107608
0.000469066
0.000479789
0.00108144
0.00151561
0.00166776
0.00118563
0.000519884
0.00232959
0.00358974
0.00509628
0.00675064
0.00782944
0.0102647
0.0115238
0.0133591
0.0144338
0.0157456
0.016578
0.0175015
0.0181329
0.0187837
0.0192614
0.0197282
0.0200939
0.0204351
0.0207188
0.0209734
0.0211973
0.0213916
0.0215721
0.0217244
0.0218734
0.021997
0.0221238
0.0222282
0.0223396
0.0224318
0.0225328
0.0226184
0.022713
0.0227966
0.0228885
0.0229743
0.0230686
0.0231797
0.0233078
0.0235458
0.0238354
0.0242551
0.0248994
0.0267229
0.0343794
0.0496115
0.0529807
0.0496249
0.0453976
0.0433561
0.0390825
0.0292404
0.0260757
0.0362763
0.0415045
0.0376658
0.0339616
0.0246691
0.0200856
0.0284198
0.0319679
0.0284435
0.0262356
0.0190174
0.0171763
0.024255
0.0269044
0.0253817
0.0233017
0.0167071
0.016431
0.0231628
0.025446
0.0248949
0.0227809
0.0162761
0.016292
0.0228828
0.0251193
0.0246545
0.0226078
0.0162081
0.016207
0.022626
0.0247914
0.0246137
0.0225588
0.0162199
0.0162187
0.0225695
0.0247148
0.0243625
0.0223977
0.0161859
0.0161848
0.0223838
0.0244313
0.0243239
0.0223615
0.0162283
0.0161947
0.0222626
0.0243
0.0241673
0.022294
0.0162467
0.016213
0.0221785
0.0241253
0.0240227
0.0221656
0.0162674
0.0162336
0.0220611
0.0239971
0.0238538
0.02209
0.0162908
0.0162569
0.0219731
0.023817
0.0236943
0.0219508
0.0163115
0.0162776
0.0218487
0.0236812
0.0235062
0.0218594
0.0163313
0.0162973
0.021747
0.0234859
0.0233254
0.0217027
0.0163458
0.0163117
0.0216083
0.0233352
0.0231122
0.0215891
0.0163564
0.0163223
0.0214854
0.0231166
0.0229051
0.0214101
0.0163601
0.0163259
0.0213271
0.022945
0.0226625
0.0212705
0.0163579
0.0163236
0.0211774
0.0226961
0.0224269
0.0210677
0.0163493
0.016315
0.0209966
0.022499
0.0221554
0.0209037
0.0163361
0.0163018
0.0208164
0.022212
0.0218982
0.0206867
0.0163267
0.016325
0.0206964
0.0220716
0.0215287
0.0204385
0.0162955
0.0162938
0.0204029
0.0216454
0.0213664
0.0203446
0.0163845
0.0164487
0.0203298
0.0214716
0.0211596
0.0202529
0.0165507
0.016632
0.0201862
0.0211641
0.0210622
0.0203118
0.0169223
0.0169139
0.0201964
0.0210908
0.020672
0.0200824
0.0170938
0.0170026
0.0198678
0.0206197
0.0206232
0.0201112
0.0173696
0.0170167
0.0195001
0.0200261
0.0199262
0.0198731
0.0176202
0.0168988
0.017839
0.0167351
0.0529345
0.0392223
0.0238612
0.0171788
0.0257822
0.0341941
0.0211557
0.0197624
0.0158153
0.0146578
0.0171475
0.0177097
0.0215317
0.0163971
0.0146098
0.0139835
0.0203251
0.0212836
0.0176985
0.0200336
0.0190414
0.0141042
0.014891
0.0147347
0.0117953
0.012237
0.012598
0.0113196
0.0110489
0.0100484
0.0195188
0.0141498
0.0110293
0.00950724
0.0125634
0.0152777
0.0126376
0.0104937
0.00708441
0.00462312
0.00996683
0.0124557
0.0128452
0.0100389
0.00411018
0.0085183
0.0137921
0.0158944
0.0235411
0.0214981
0.0155719
0.0246607
0.0316128
0.0322726
0.0441115
0.042004
0.0348472
0.0451961
0.0476606
0.0418375
0.0525994
0.0579929
0.0540614
0.0677003
0.073301
0.0675644
0.0817696
0.0864515
0.0799935
0.0877257
0.093819
0.0782489
0.0953281
0.111549
0.0949275
0.103296
0.128495
0.112161
0.0975862
0.124265
0.0997714
0.110431
0.106707
0.0973458
0.0813385
0.0775044
0.122138
0.134013
0.0910652
0.0555639
0.10917
0.131451
0.15928
0.178818
0.166237
0.184
0.133938
0.157792
0.176785
0.16838
0.154579
0.140744
0.198905
0.168056
0.167314
0.145905
0.143665
0.129722
0.13105
0.133456
0.130807
0.115151
0.136177
0.177419
0.118002
0.105098
0.0949242
0.0790512
0.0938287
0.100618
0.139938
0.0971407
0.0701934
0.0560112
0.0703124
0.0972402
0.0850021
0.0704493
0.0510941
0.0625883
0.0816459
0.117404
0.0858773
0.0565712
0.0397901
0.0317955
0.0459626
0.0695394
0.0872407
0.0538889
0.0288986
0.0294548
0.06242
0.0992633
0.0521838
0.0411008
0.0239996
0.0233495
0.0488185
0.075537
0.0957587
0.0622385
0.0291581
0.023688
0.0391334
0.0483839
0.0739375
0.0485322
0.0242689
0.0311374
0.0635756
0.0958069
0.0485018
0.0400292
0.0255188
0.0269546
0.0507848
0.0751718
0.0968189
0.0654585
0.0336872
0.0278265
0.0411518
0.0483307
0.0794706
0.0547147
0.0305622
0.0360362
0.0665126
0.0965243
0.0692884
0.0529206
0.032587
0.0398004
0.0685861
0.0929002
0.0526856
0.0460433
0.033443
0.0362471
0.0598742
0.0836087
0.104434
0.0750025
0.0430479
0.0354756
0.0473369
0.0533443
0.0870519
0.0628624
0.0385424
0.0456068
0.0783802
0.108274
0.0551199
0.04979
0.0381096
0.0420429
0.0680405
0.0940825
0.108001
0.0786944
0.0471866
0.0433656
0.0646977
0.0812347
0.103036
0.0788031
0.0493942
0.0424945
0.054588
0.0598954
0.100826
0.0744069
0.0473119
0.0517474
0.0846407
0.114249
0.0854756
0.0690829
0.0474766
0.0534832
0.0838123
0.108031
0.0631684
0.0580298
0.0460465
0.050916
0.0780023
0.10442
0.121267
0.090708
0.0563419
0.0473301
0.0593768
0.0643435
0.111363
0.0818564
0.0523712
0.0570517
0.09212
0.12299
0.0975578
0.0784609
0.0538786
0.058409
0.0889993
0.115056
0.0961868
0.0782964
0.0546153
0.0610641
0.0922414
0.116601
0.0717504
0.0663949
0.0534962
0.059129
0.0903629
0.120452
0.130016
0.0986407
0.0625354
0.0581997
0.0827146
0.101587
0.123108
0.09767
0.065252
0.0567556
0.0695279
0.0744701
0.127465
0.0961117
0.0634492
0.0666545
0.103566
0.136557
0.11084
0.0899434
0.0631274
0.0682252
0.101053
0.128108
0.109212
0.0899021
0.0644534
0.0710374
0.104559
0.130922
0.0810826
0.0756116
0.0617077
0.0690878
0.103002
0.136769
0.145968
0.111597
0.0730938
0.0689954
0.0975552
0.119913
0.136388
0.108164
0.073736
0.069966
0.0975705
0.118387
0.137917
0.11048
0.0755168
0.066835
0.0810685
0.0867229
0.147333
0.112043
0.0750455
0.0786774
0.11982
0.153358
0.12772
0.104751
0.0748748
0.0793691
0.115409
0.143792
0.124447
0.103113
0.0748036
0.082006
0.118983
0.146596
0.0921076
0.0865377
0.0722181
0.0807108
0.11949
0.157479
0.16356
0.12671
0.0847766
0.0801539
0.111812
0.136333
0.152582
0.122449
0.0847866
0.0814247
0.113428
0.138524
0.15319
0.123414
0.086995
0.0823408
0.112884
0.136601
0.156761
0.127745
0.0896282
0.0786056
0.0944335
0.100509
0.169895
0.129578
0.0884163
0.0911576
0.135506
0.176025
0.147253
0.120744
0.0864242
0.0903975
0.130309
0.162415
0.150101
0.123219
0.0886635
0.0929341
0.130926
0.162769
0.151211
0.12396
0.0891622
0.0954574
0.134908
0.165227
0.148096
0.122697
0.0900401
0.0985576
0.13978
0.170568
0.108527
0.10231
0.0860664
0.0975118
0.142041
0.18496
0.191348
0.148105
0.100033
0.0946744
0.131181
0.159665
0.17433
0.141836
0.0996288
0.097032
0.133995
0.162348
0.174946
0.14277
0.101538
0.097816
0.13512
0.164734
0.179123
0.145782
0.104385
0.0993105
0.134206
0.161277
0.182705
0.150384
0.107693
0.0938976
0.111643
0.118541
0.200551
0.153517
0.105784
0.108489
0.160211
0.204327
0.173203
0.142647
0.10361
0.107934
0.151612
0.188155
0.175072
0.14486
0.105449
0.110393
0.154053
0.186658
0.17631
0.145361
0.105638
0.112043
0.156806
0.191
0.172849
0.144307
0.107141
0.115775
0.162172
0.19683
0.125693
0.119188
0.101204
0.113644
0.164484
0.214098
0.220754
0.171258
0.116876
0.111525
0.152806
0.18504
0.201363
0.163084
0.116197
0.112878
0.154929
0.187632
0.201658
0.165298
0.118498
0.114299
0.156788
0.19019
0.206673
0.16877
0.120836
0.115544
0.155409
0.186126
0.208956
0.173881
0.124656
0.10959
0.129103
0.135944
0.230608
0.176441
0.122268
0.125759
0.183592
0.233942
0.198737
0.16429
0.120929
0.12656
0.176843
0.215845
0.200794
0.166122
0.12189
0.127789
0.176421
0.215763
0.20304
0.168318
0.12387
0.130796
0.181105
0.219657
0.197347
0.165106
0.123612
0.133331
0.184596
0.223959
0.14349
0.135948
0.116208
0.132889
0.190225
0.246395
0.249183
0.197865
0.136928
0.130182
0.176076
0.211631
0.230269
0.188936
0.136025
0.131245
0.177873
0.214039
0.230313
0.191385
0.137923
0.132948
0.180077
0.216704
0.235668
0.19496
0.141082
0.133042
0.176612
0.211093
0.238681
0.197518
0.143997
0.126857
0.147374
0.154767
0.262045
0.20197
0.140976
0.144721
0.20795
0.264933
0.225147
0.186697
0.138618
0.145138
0.201612
0.247288
0.226715
0.189131
0.140737
0.148636
0.203602
0.248328
0.221334
0.186302
0.140221
0.150764
0.208314
0.254444
0.160801
0.153261
0.132063
0.148326
0.212032
0.275658
0.283137
0.220293
0.153406
0.145296
0.195749
0.236595
0.261557
0.213101
0.153581
0.1484
0.199954
0.239127
0.261061
0.21581
0.156663
0.14838
0.196109
0.233556
0.267041
0.220683
0.160179
0.140205
0.162583
0.170132
0.290482
0.224223
0.157499
0.1626
0.235861
0.296463
0.24864
0.206822
0.154785
0.163639
0.22654
0.278872
0.24292
0.206136
0.156869
0.166534
0.232126
0.280425
0.174199
0.167671
0.146249
0.164609
0.233967
0.301881
0.314841
0.2459
0.170243
0.161624
0.215872
0.259465
0.292599
0.238097
0.172188
0.163766
0.215191
0.25352
0.294228
0.241255
0.174189
0.153269
0.176211
0.183567
0.314981
0.243027
0.170806
0.178903
0.257973
0.327041
0.269383
0.224971
0.16919
0.17969
0.247353
0.304204
0.262784
0.223348
0.171219
0.183561
0.253871
0.308654
0.188444
0.181518
0.158578
0.179125
0.252516
0.325712
0.343612
0.26995
0.186853
0.173599
0.227326
0.270046
0.321746
0.263698
0.188767
0.165694
0.186964
0.192286
0.339256
0.263468
0.186987
0.195191
0.281446
0.364993
0.276134
0.234239
0.179496
0.195859
0.275648
0.336292
0.197671
0.191872
0.169276
0.19255
0.271366
0.350161
0.376353
0.293817
0.203138
0.188606
0.245654
0.28906
0.349941
0.284434
0.202532
0.175342
0.197336
0.202458
0.357581
0.277357
0.197769
0.211451
0.306262
0.388364
0.294838
0.251441
0.19462
0.21343
0.2981
0.367877
0.206108
0.200951
0.17908
0.201171
0.276882
0.352047
0.407388
0.316588
0.217318
0.181292
0.20176
0.205567
0.363293
0.284135
0.205861
0.224745
0.328151
0.422567
0.20512
0.201932
0.183157
0.206457
0.285996
0.365816
0.432619
0.338349
0.228888
0.190027
0.208449
0.211343
0.382262
0.302432
0.21913
0.235341
0.347593
0.448969
0.212845
0.209931
0.190737
0.217931
0.300937
0.383916
0.464385
0.364245
0.248513
0.205733
0.223452
0.222376
0.393498
0.31045
0.225758
0.251287
0.371853
0.475162
0.221112
0.220581
0.203877
0.232207
0.31439
0.39475
0.492785
0.38063
0.257314
0.192813
0.199059
0.192891
0.26162
0.24207
0.209049
0.225299
0.307836
0.392471
0.500081
0.38058
0.252584
0.179617
0.183002
0.17674
0.211146
0.209172
0.193447
0.181316
0.203449
0.209399
0.197385
0.193592
0.178858
0.177306
0.199992
0.202751
0.231905
0.214462
0.179259
0.191338
0.276138
0.358139
0.487683
0.357638
0.220687
0.149113
0.159676
0.155421
0.167504
0.16327
0.142168
0.127087
0.151287
0.159104
0.152881
0.144243
0.118884
0.109128
0.135215
0.145181
0.140662
0.130279
0.102964
0.0965064
0.123882
0.135688
0.13219
0.120289
0.0920876
0.0874604
0.115874
0.128522
0.125797
0.11259
0.0838868
0.0806218
0.109497
0.123215
0.120751
0.106576
0.0776308
0.074887
0.103821
0.118396
0.116144
0.101222
0.0723667
0.0700517
0.098773
0.113983
0.112129
0.0964628
0.0679218
0.0659668
0.0942902
0.109706
0.108004
0.0922553
0.0641758
0.0625342
0.0903428
0.106173
0.104421
0.0885484
0.0610308
0.0596553
0.0868609
0.102731
0.101118
0.0852801
0.0583997
0.0572534
0.0837918
0.0995597
0.0982705
0.0823976
0.0562109
0.0552641
0.0810844
0.0964586
0.0952804
0.0798562
0.0544084
0.0536327
0.0786948
0.0939642
0.0928998
0.077607
0.0529343
0.0523046
0.0765786
0.0913296
0.0903596
0.0756186
0.0517415
0.0512343
0.074708
0.0892482
0.0883754
0.0738579
0.0507833
0.0503797
0.0730519
0.0870129
0.0862254
0.0723027
0.0500239
0.0497048
0.0715892
0.0852961
0.0845955
0.0709259
0.049425
0.0491754
0.070294
0.0834182
0.0827947
0.0697103
0.0489589
0.0487643
0.0691513
0.0820277
0.081481
0.0686356
0.0485963
0.0484455
0.0681408
0.0804668
0.0799886
0.0676884
0.0483174
0.0482004
0.0672517
0.0793637
0.0789517
0.0668535
0.0481016
0.0480107
0.0664675
0.0780779
0.0777248
0.0661197
0.0479359
0.0478647
0.0657801
0.0772211
0.0769234
0.0654751
0.0478065
0.0477502
0.0651753
0.0761671
0.0759186
0.0649104
0.0477061
0.0476612
0.0646475
0.0755151
0.0753113
0.064416
0.0476262
0.0475902
0.0641846
0.0746507
0.0744877
0.0639853
0.0475647
0.0475431
0.0637886
0.0741656
0.0738923
0.0636142
0.0475217
0.0475115
0.063446
0.073603
0.0733637
0.0632965
0.0474974
0.0474931
0.0631521
0.0731074
0.0728984
0.063025
0.0474841
0.0474862
0.0629014
0.0726674
0.0724852
0.0627952
0.0474837
0.0474908
0.0626918
0.0722824
0.0721252
0.0626039
0.047492
0.0475048
0.0625168
0.0719409
0.0718043
0.062446
0.0475126
0.0475303
0.0623757
0.0716439
0.0715269
0.0623203
0.0475415
0.0475643
0.0622783
0.0713919
0.0712862
0.0622329
0.0475827
0.0476103
0.0622115
0.0711755
0.0712263
0.062177
0.0476329
0.0476671
0.06217
0.0708442
0.0709089
0.0621477
0.0476962
0.0477335
0.062147
0.0708281
0.0709015
0.0621316
0.0477645
0.0478074
0.062143
0.0705759
0.0706506
0.0621362
0.0478443
0.0478903
0.0621518
0.0706258
0.0705679
0.0621491
0.0479293
0.0479783
0.0621716
0.070555
0.070511
0.0621777
0.0480217
0.0480729
0.0622038
0.0705031
0.0706058
0.0622133
0.0481172
0.0481708
0.0622459
0.0703277
0.0704422
0.0622631
0.0482188
0.0482739
0.0622991
0.0704491
0.0704267
0.0623186
0.0483221
0.0483789
0.0623604
0.0704433
0.070432
0.0623874
0.0484304
0.0484888
0.0624319
0.0704519
0.0704432
0.0624605
0.0485403
0.0486001
0.0625104
0.0704721
0.0704738
0.0625462
0.048655
0.0487165
0.0625984
0.0705053
0.0705087
0.0626351
0.0487713
0.0488343
0.0626924
0.0705484
0.0705617
0.062736
0.0488926
0.0489572
0.062795
0.0706029
0.070617
0.0628389
0.0490154
0.0490815
0.0629025
0.0706657
0.0706889
0.0629528
0.0491431
0.0492107
0.0630175
0.0707383
0.0707613
0.0630675
0.0492719
0.0493407
0.0631362
0.0708173
0.0708486
0.063192
0.0494051
0.0494752
0.0632613
0.0709047
0.0709352
0.0633163
0.0495389
0.0496099
0.063389
0.070997
0.0710349
0.0634492
0.0496764
0.0497485
0.0635225
0.0710966
0.0712754
0.0635818
0.0498145
0.0498873
0.0636575
0.0710583
0.0712436
0.063721
0.0499554
0.0500288
0.0637974
0.07131
0.0714949
0.0638604
0.0500965
0.0501703
0.0639383
0.0712802
0.07147
0.0640041
0.0502393
0.0503133
0.0640825
0.0715401
0.0715869
0.0641479
0.0503817
0.0504558
0.0642277
0.0716599
0.0717105
0.0642954
0.0505252
0.0505993
0.064375
0.0717831
0.0718331
0.064442
0.0506677
0.0507416
0.0645229
0.0719082
0.0719616
0.0645919
0.0508107
0.0508843
0.0646724
0.0720359
0.0722318
0.0647403
0.0509523
0.0510256
0.0648213
0.0720209
0.0722204
0.064891
0.051094
0.0511665
0.0649716
0.0722957
0.0724939
0.0650399
0.0512336
0.0513056
0.0651209
0.0722827
0.0724841
0.0651907
0.0513729
0.0514441
0.0652708
0.0725602
0.0726153
0.0653391
0.0515098
0.0515802
0.0654196
0.072693
0.0727506
0.0654891
0.0516459
0.0517154
0.0655684
0.0728267
0.0728824
0.0656361
0.0517794
0.0518478
0.0657155
0.0729597
0.0730174
0.065784
0.0519116
0.0519788
0.0658621
0.0730928
0.0732944
0.0659287
0.0520407
0.0521069
0.0660065
0.0730794
0.0732832
0.0660739
0.0521685
0.0522333
0.0661504
0.0733578
0.0735596
0.0662158
0.052293
0.0523567
0.0662918
0.0733424
0.0735463
0.0663578
0.0524159
0.0524783
0.0664325
0.0736198
0.0738214
0.0664965
0.0525355
0.0525966
0.0665707
0.073748
0.0738044
0.0666348
0.0526533
0.0527132
0.0667074
0.0738769
0.0739311
0.0667695
0.0527679
0.0528264
0.0668416
0.0740039
0.0740594
0.0669039
0.0528806
0.0529378
0.0669744
0.0739832
0.0743321
0.0670346
0.0529899
0.0530457
0.0671044
0.074107
0.0743092
0.0671647
0.0530971
0.0531516
0.067233
0.0743784
0.0744301
0.0672913
0.0532012
0.0532543
0.0673589
0.0744993
0.0745518
0.0674171
0.0533032
0.053355
0.0674832
0.0746192
0.0748184
0.0675393
0.0534022
0.0534528
0.0676045
0.074588
0.0747883
0.0676606
0.0534993
0.0535487
0.0677243
0.074854
0.0749028
0.0677784
0.0535934
0.0536415
0.0678413
0.0749683
0.0750177
0.0678952
0.0536856
0.0537324
0.0679566
0.0750815
0.0751286
0.0680084
0.0537747
0.0538203
0.068069
0.0751921
0.0752398
0.0681207
0.053862
0.0539063
0.0681797
0.0753014
0.0756487
0.0683656
0.0539462
0.0539893
0.0682868
0.0754077
0.0754536
0.0683361
0.0540286
0.0540705
0.0682565
0.0752129
0.075708
0.0684404
0.0541081
0.0541489
0.068496
0.0754657
0.075661
0.0685434
0.054186
0.0542258
0.068598
0.0757188
0.0759125
0.0686437
0.0542616
0.0543004
0.068697
0.0756671
0.0758613
0.0687424
0.0543356
0.0543734
0.0687948
0.0759171
0.0761099
0.0688387
0.0544074
0.0544441
0.0688896
0.0758613
0.0760544
0.0689331
0.0544774
0.0545132
0.0689833
0.0761081
0.0762998
0.0690253
0.0545454
0.0545801
0.0690739
0.0760483
0.0762404
0.0691156
0.0546116
0.0546455
0.0691636
0.0762919
0.0764827
0.0692039
0.054676
0.0547088
0.0692504
0.0762283
0.0764193
0.0692902
0.0547386
0.0547706
0.0693361
0.0764688
0.0766585
0.0693746
0.0547995
0.0548305
0.069419
0.0764014
0.0765913
0.0694572
0.0548587
0.0548891
0.069501
0.0766388
0.0768274
0.0695378
0.0549163
0.0549457
0.0695802
0.0765676
0.0767565
0.0696167
0.0549724
0.0550011
0.0696586
0.0768021
0.0769896
0.0696939
0.0550268
0.0550547
0.0697344
0.07688
0.0769144
0.0697691
0.05508
0.0551072
0.0698089
0.0768052
0.0771455
0.0698424
0.0551316
0.0551578
0.069881
0.0768805
0.0770672
0.0699143
0.0551816
0.0552073
0.0699525
0.0771091
0.0772946
0.0699847
0.0552303
0.0552552
0.0700216
0.0771807
0.0772124
0.0700531
0.0552778
0.0553022
0.0700895
0.0770991
0.0774378
0.0701202
0.055324
0.0553476
0.0701554
0.077322
0.0773523
0.0701857
0.0553689
0.0553921
0.0702204
0.077391
0.0774199
0.0702495
0.0554128
0.0554351
0.0702831
0.0774574
0.0774866
0.0703119
0.0554554
0.0554773
0.0703451
0.0773694
0.0777068
0.0703729
0.0554969
0.055518
0.0704049
0.0774328
0.0776155
0.0704324
0.0555371
0.0555579
0.0704643
0.077651
0.0778328
0.0704909
0.0555765
0.0555966
0.0705214
0.0775568
0.0777385
0.0705477
0.0556148
0.0556346
0.070578
0.0777726
0.0777979
0.0706033
0.0556522
0.0556713
0.0706325
0.0778306
0.077856
0.0706576
0.0556885
0.0557073
0.0706865
0.0778884
0.0780684
0.0707106
0.055724
0.0557421
0.0707384
0.0777882
0.0781239
0.0707623
0.0557583
0.0557763
0.0707897
0.0779987
0.0780216
0.0708125
0.0557921
0.0558092
0.0708389
0.0780515
0.0780745
0.0708614
0.0558246
0.0558416
0.0708876
0.0781042
0.078126
0.0709092
0.0558564
0.0558726
0.0709343
0.0781544
0.0781764
0.0709556
0.0558872
0.0559032
0.0709805
0.078049
0.0783822
0.0710011
0.0559171
0.0559324
0.071025
0.0782524
0.0782733
0.0710452
0.0559462
0.0559613
0.0710688
0.0781444
0.0784771
0.0710883
0.0559745
0.055989
0.0711109
0.0781899
0.0783661
0.0711302
0.0560018
0.056016
0.0711528
0.0783918
0.0785673
0.0711713
0.0560285
0.0560422
0.0711927
0.0782786
0.078454
0.0712109
0.0560543
0.0560677
0.0712324
0.0784784
0.0786532
0.0712499
0.0560794
0.0560924
0.0712702
0.0783631
0.0785377
0.0712875
0.0561038
0.0561164
0.0713078
0.0785609
0.0787349
0.0713243
0.0561274
0.0561397
0.0713437
0.0784435
0.0786174
0.07136
0.0561504
0.0561623
0.0713794
0.0786396
0.0788128
0.0713949
0.0561727
0.0561842
0.0714134
0.0785201
0.0786932
0.0714288
0.0561943
0.0562055
0.0714472
0.0787145
0.0788869
0.0714619
0.0562153
0.0562262
0.0714795
0.0785931
0.0787654
0.071494
0.0562357
0.0562463
0.0715115
0.0787857
0.0789575
0.0715254
0.0562554
0.0562657
0.0715421
0.0786625
0.0788341
0.0715558
0.0562746
0.0562846
0.0715726
0.0788536
0.0790247
0.0715857
0.0562933
0.0563029
0.0716015
0.0787285
0.0788996
0.0716145
0.0563113
0.0563208
0.0716303
0.0789183
0.0789308
0.0716427
0.0563289
0.056338
0.0716578
0.078949
0.0789618
0.0716702
0.0563459
0.0563549
0.0716853
0.0789797
0.0791495
0.0716971
0.0563626
0.0563711
0.0717114
0.0788512
0.0791793
0.0717231
0.0563786
0.0563871
0.0717372
0.0788805
0.0792074
0.0717484
0.0563942
0.0564022
0.071762
0.0790657
0.0790774
0.071773
0.0564094
0.0564175
0.0717865
0.0789362
0.0792628
0.0717971
0.0564243
0.0564319
0.0718098
0.0789626
0.0791315
0.0718204
0.0564385
0.0564461
0.0718332
0.0791473
0.079157
0.0718433
0.0564525
0.0564597
0.0718555
0.0791724
0.0791827
0.0718657
0.056466
0.0564732
0.0718778
0.0791978
0.079207
0.0718872
0.0564793
0.0564861
0.0718989
0.0792218
0.0792314
0.0719085
0.0564921
0.0564989
0.07192
0.0792459
0.0792546
0.0719288
0.0565046
0.056511
0.07194
0.0792689
0.0792779
0.0719491
0.0565167
0.0565231
0.0719601
0.079292
0.0792999
0.0719684
0.0565285
0.0565346
0.0719791
0.0793137
0.0793221
0.0719875
0.0565399
0.056546
0.0719981
0.0793357
0.0793431
0.0720059
0.056551
0.0565568
0.0720161
0.0793563
0.0793641
0.072024
0.0565618
0.0565676
0.0720341
0.0793772
0.0793841
0.0720414
0.0565722
0.0565777
0.0720511
0.0793968
0.0794041
0.0720586
0.0565823
0.0565878
0.0720681
0.0794167
0.0794232
0.072075
0.0565921
0.0565974
0.0720842
0.0794355
0.0794424
0.0720913
0.0566017
0.056607
0.0721005
0.0794546
0.0794606
0.072107
0.0566111
0.0566161
0.0721158
0.0794724
0.079479
0.0721226
0.0566203
0.0566253
0.0721314
0.0794907
0.0794964
0.0721376
0.0566292
0.0566341
0.0721461
0.0795078
0.079514
0.0721525
0.056638
0.056643
0.0721611
0.0795253
0.0795307
0.0721668
0.0566466
0.0566514
0.0721752
0.0795418
0.0795476
0.0721813
0.0566551
0.0566599
0.0721897
0.0795587
0.0797231
0.0721953
0.0566635
0.0566682
0.0722033
0.0794157
0.0795801
0.0722088
0.0566718
0.0566764
0.0722172
0.0795909
0.0797551
0.0722225
0.0566799
0.0566845
0.0722303
0.0794474
0.0796116
0.0722356
0.0566879
0.0566925
0.0722439
0.0796223
0.0797863
0.0722489
0.0566958
0.0567005
0.0722567
0.0794783
0.0796424
0.0722618
0.0567038
0.0567084
0.07227
0.0796529
0.0798169
0.072275
0.0567118
0.0567164
0.0722827
0.0795087
0.0796727
0.0722877
0.0567198