/*--------------------------------*- C++ -*----------------------------------*\
| =========                 |                                                 |
| \\      /  F ield         | OpenFOAM: The Open Source CFD Toolbox           |
|  \\    /   O peration     | Version:  v2006                                 |
|   \\  /    A nd           | Website:  www.openfoam.com                      |
|    \\/     M anipulation  |                                                 |
\*---------------------------------------------------------------------------*/
FoamFile
{
    version     2.0;
    format      ascii;
    class       surfaceScalarField;
    location    "0.028";
    object      phi;
}
// * * * * * * * * * * * * * * * * * * * * * * * * * * * * * * * * * * * * * //

dimensions      [1 0 -1 0 0 0 0];
oriented        oriented;


internalField   nonuniform List<scalar> 
48460
(
-1.74865e-05
-0.00119388
0.00118032
3.10535e-05
-0.00111996
0.00110248
2.7191e-06
6.51576e-05
-2.08451e-05
0.00126974
2.16679e-05
0.00138264
-4.94108e-05
0.00139179
-7.81829e-06
0.00141492
-2.2406e-05
0.00138864
-1.10168e-06
0.00138149
-3.31006e-06
0.00136652
9.96487e-07
0.00136094
-1.41907e-07
0.00135649
1.28338e-07
0.00135533
-7.78309e-09
0.00135468
-8.46186e-09
0.00135456
-9.09394e-09
0.00135459
-9.64452e-09
0.00135462
-9.96482e-09
0.00135464
-1.32409e-08
0.00135468
-3.17156e-08
0.00135466
-7.76863e-08
0.00135445
-1.48943e-07
0.0013539
-2.3274e-07
0.001353
-3.16624e-07
0.00135184
-3.93326e-07
0.00135051
-4.5924e-07
0.00134908
-5.14093e-07
0.00134762
-5.59599e-07
0.00134615
-5.97829e-07
0.00134468
-6.30639e-07
0.0013432
-6.59448e-07
0.00134172
-6.85229e-07
0.00134021
-7.08608e-07
0.00133869
-7.29971e-07
0.00133713
-7.49568e-07
0.00133555
-7.67534e-07
0.00133395
-7.83894e-07
0.00133231
-7.98812e-07
0.00133065
-8.12421e-07
0.00132896
-8.24842e-07
0.00132726
-8.36183e-07
0.00132553
-8.46536e-07
0.00132378
-8.55972e-07
0.00132201
-8.64549e-07
0.00132022
-8.72301e-07
0.00131842
-8.7925e-07
0.00131661
-8.85403e-07
0.00131478
-8.9075e-07
0.00131294
-8.95257e-07
0.00131108
-8.99074e-07
0.00130922
-9.02281e-07
0.00130735
-9.04797e-07
0.00130547
-9.06597e-07
0.00130359
-9.07664e-07
0.0013017
-9.07989e-07
0.00129982
-9.07582e-07
0.00129793
-9.06441e-07
0.00129604
-9.0459e-07
0.00129415
-9.02068e-07
0.00129227
-8.98765e-07
0.00129039
-8.94647e-07
0.00128852
-8.89727e-07
0.00128666
-8.8403e-07
0.00128481
-8.77574e-07
0.00128297
-8.70372e-07
0.00128115
-8.62432e-07
0.00127933
-8.53752e-07
0.00127754
-8.44319e-07
0.00127576
-8.34105e-07
0.00127399
-8.23073e-07
0.00127225
-8.11162e-07
0.00127053
-7.983e-07
0.00126883
-7.84408e-07
0.00126715
-7.69418e-07
0.0012655
-7.53287e-07
0.00126388
-7.36023e-07
0.00126228
-7.17695e-07
0.00126072
-6.98391e-07
0.00125919
-6.78157e-07
0.00125769
-6.56848e-07
0.00125622
-6.33886e-07
0.00125478
-6.08007e-07
0.00125334
-5.77182e-07
0.00125189
-5.3876e-07
0.00125043
-4.89176e-07
0.00124894
-4.25483e-07
0.00124744
-3.48341e-07
0.00124599
-2.65347e-07
0.0012447
-1.90478e-07
0.0012437
-1.21312e-08
0.00124274
1.82305e-08
0.00124191
-9.27017e-08
0.00123998
-2.32475e-06
0.00123544
-3.93871e-06
0.0012266
-1.84888e-05
0.00120868
-2.80688e-05
0.00118453
-7.90833e-05
0.00114643
-0.000129988
0.0011206
-0.000303968
0.00112258
-0.000679281
0.00130626
-0.00020251
0.000325397
3.37507e-05
0.00056926
-1.66676e-05
0.000717449
-8.96624e-06
0.000681201
-4.24802e-05
0.000573173
-5.67298e-06
0.000523559
-3.47343e-06
0.000190733
-2.58107e-06
0.000158086
0.000128325
6.16885e-06
0.000122157
1.02202e-05
0.000154036
0.000184748
1.62069e-05
-6.73387e-06
0.000183523
7.95951e-06
-2.78314e-06
0.000150087
0.000119375
1.72484e-06
0.000117651
8.44577e-07
0.000150969
0.000182323
2.04713e-06
-7.15379e-07
0.000183471
-4.30858e-07
-1.50748e-06
0.000151762
0.000116145
2.66909e-07
0.00011588
1.90981e-06
0.000150121
0.000183369
2.01388e-06
-1.73706e-06
0.000183204
1.90351e-06
-1.24622e-06
0.000149632
0.000114635
1.14061e-06
0.000113496
1.62685e-06
0.000149148
0.000183029
1.80414e-06
-1.47203e-06
0.000182812
1.69168e-06
-2.17885e-06
0.000149856
0.000111319
9.73626e-07
0.000110347
1.40099e-06
0.000149431
0.000182597
1.61835e-06
-1.33563e-06
0.000181135
2.79941e-06
-8.97664e-07
0.000148995
0.000109451
8.23107e-07
0.000108629
1.25585e-06
0.000148564
0.000182117
2.76107e-07
-1.20253e-06
0.000180631
2.6904e-06
-7.6744e-07
0.00014813
0.000107863
7.121e-07
0.000107153
1.1372e-06
0.000147707
0.000181587
1.83694e-07
-1.09703e-06
0.000180086
2.60028e-06
-6.72009e-07
0.000147284
0.000106482
6.28758e-07
0.000105855
1.04222e-06
0.000146872
0.000181023
1.07275e-07
-1.01189e-06
0.000179514
2.52323e-06
-5.99222e-07
0.000146462
0.000105257
5.64102e-07
0.000104695
9.64455e-07
0.000146063
0.000180439
4.16705e-08
-9.42205e-07
0.000178927
2.45623e-06
-5.42324e-07
0.000145665
0.000104154
5.13199e-07
0.000103642
9.0051e-07
0.00014528
0.000179844
-1.40748e-08
-8.84281e-07
0.000178333
2.39725e-06
-4.96955e-07
0.000144894
0.000103147
4.72712e-07
0.000102676
8.48072e-07
0.000144521
0.000179244
-6.01447e-08
-8.35432e-07
0.000177737
2.34511e-06
-4.6008e-07
0.000144148
0.000102218
4.39494e-07
0.00010178
8.03533e-07
0.000143786
0.000178643
-1.00149e-07
-7.94112e-07
0.00017714
2.29947e-06
-4.29759e-07
0.000143423
0.000101352
4.11767e-07
0.000100941
7.65242e-07
0.000143072
0.000178042
-1.35121e-07
-7.58996e-07
0.000176544
2.25961e-06
-4.0451e-07
0.000142719
0.000100538
3.88651e-07
0.000100151
7.32794e-07
0.000142377
0.000177443
-1.64464e-07
-7.28604e-07
0.00017595
2.22395e-06
-3.83078e-07
0.000142033
9.97699e-05
3.69425e-07
9.9402e-05
7.05483e-07
0.000141699
0.000176847
-1.8861e-07
-6.99263e-07
0.00017536
2.1885e-06
-3.6322e-07
0.000141365
9.90403e-05
3.52318e-07
9.86895e-05
6.79811e-07
0.000141039
0.000176256
-2.13882e-07
-6.74905e-07
0.000174772
2.16067e-06
-3.46509e-07
0.000140713
9.83445e-05
3.38702e-07
9.80073e-05
6.61633e-07
0.000140392
0.000175664
-2.28162e-07
-6.6217e-07
0.000174185
2.14326e-06
-3.36732e-07
0.000140068
9.76721e-05
3.25192e-07
9.73484e-05
6.41414e-07
0.000139754
0.000175073
-2.44056e-07
-6.45523e-07
0.000173598
2.12283e-06
-3.25137e-07
0.000139435
9.70247e-05
3.14376e-07
9.67118e-05
6.25704e-07
0.000139126
0.000174482
-2.56505e-07
-6.3162e-07
0.000173011
2.10525e-06
-3.1535e-07
0.000138811
9.63979e-05
3.04955e-07
9.60943e-05
6.12172e-07
0.000138506
0.000173891
-2.66261e-07
-6.19667e-07
0.000172423
2.08991e-06
-3.06834e-07
0.000138194
9.57889e-05
2.9672e-07
9.54937e-05
6.00465e-07
0.000137892
0.000173299
-2.73892e-07
-6.09346e-07
0.000171834
2.07647e-06
-2.9938e-07
0.000137584
9.51957e-05
2.89502e-07
9.49076e-05
5.90367e-07
0.000137285
0.000172706
-2.79558e-07
-6.0057e-07
0.000171244
2.0649e-06
-2.92888e-07
0.000136979
9.46162e-05
2.8317e-07
9.43345e-05
5.81701e-07
0.000136682
0.000172111
-2.83457e-07
-5.93153e-07
0.000170651
2.05498e-06
-2.87227e-07
0.000136378
9.40487e-05
2.77704e-07
9.37724e-05
5.74484e-07
0.000136083
0.000171513
-2.85513e-07
-5.86961e-07
0.000170056
2.04652e-06
-2.82314e-07
0.00013578
9.34915e-05
2.72991e-07
9.322e-05
5.68548e-07
0.000135486
0.000170912
-2.85876e-07
-5.81946e-07
0.000169457
2.03957e-06
-2.78094e-07
0.000135184
9.29434e-05
2.68848e-07
9.2676e-05
5.63573e-07
0.000134891
0.000170307
-2.84975e-07
-5.77696e-07
0.000168853
2.03356e-06
-2.74332e-07
0.00013459
9.24031e-05
2.65232e-07
9.21394e-05
5.59527e-07
0.000134297
0.000169698
-2.82751e-07
-5.74557e-07
0.000168245
2.0291e-06
-2.71183e-07
0.000133995
9.18697e-05
2.6213e-07
9.1609e-05
5.56397e-07
0.000133703
0.000169083
-2.79272e-07
-5.72413e-07
0.000167631
2.02596e-06
-2.68581e-07
0.000133401
9.13419e-05
2.59565e-07
9.10838e-05
5.54216e-07
0.000133108
0.000168462
-2.74511e-07
-5.70821e-07
0.000167012
2.02339e-06
-2.66319e-07
0.000132805
9.08189e-05
2.5748e-07
9.05628e-05
5.52915e-07
0.000132511
0.000167835
-2.68461e-07
-5.70298e-07
0.000166385
2.02231e-06
-2.64632e-07
0.000132207
9.02996e-05
2.5579e-07
9.00452e-05
5.52321e-07
0.000131912
0.000167201
-2.61417e-07
-5.7058e-07
0.000165751
2.02232e-06
-2.63378e-07
0.000131607
8.97832e-05
2.54568e-07
8.95299e-05
5.52587e-07
0.000131311
0.000166559
-2.53155e-07
-5.71515e-07
0.000165109
2.02312e-06
-2.62491e-07
0.000131003
8.92688e-05
2.53805e-07
8.90163e-05
5.53717e-07
0.000130705
0.000165908
-2.43589e-07
-5.73289e-07
0.000164458
2.02506e-06
-2.62052e-07
0.000130395
8.87555e-05
2.53387e-07
8.85033e-05
5.55478e-07
0.000130095
0.000165249
-2.33054e-07
-5.75484e-07
0.000163798
2.02754e-06
-2.61845e-07
0.000129782
8.82427e-05
2.53272e-07
8.79906e-05
5.57848e-07
0.000129479
0.000164579
-2.21502e-07
-5.78712e-07
0.000163128
2.03158e-06
-2.62149e-07
0.000129164
8.77296e-05
2.53493e-07
8.74773e-05
5.60849e-07
0.000128858
0.0001639
-2.09009e-07
-5.82156e-07
0.000162448
2.03579e-06
-2.62576e-07
0.00012854
8.72158e-05
2.54136e-07
8.69628e-05
5.64732e-07
0.000128231
0.000163209
-1.95043e-07
-5.86936e-07
0.000161756
2.04199e-06
-2.63659e-07
0.000127909
8.67002e-05
2.55153e-07
8.64462e-05
5.69333e-07
0.000127596
0.000162507
-1.8e-07
-5.92122e-07
0.000161052
2.04866e-06
-2.64953e-07
0.00012727
8.61823e-05
2.56584e-07
8.59267e-05
5.74774e-07
0.000126953
0.000161792
-1.63567e-07
-5.9801e-07
0.000160335
2.0563e-06
-2.66597e-07
0.000126623
8.56611e-05
2.58349e-07
8.54038e-05
5.80919e-07
0.000126302
0.000161063
-1.45903e-07
-6.04803e-07
0.000159604
2.06532e-06
-2.6867e-07
0.000125967
8.51361e-05
2.60448e-07
8.48766e-05
5.87765e-07
0.000125641
0.00016032
-1.2706e-07
-6.12307e-07
0.000158858
2.07535e-06
-2.71075e-07
0.000125301
8.46065e-05
2.62983e-07
8.43444e-05
5.95535e-07
0.000124969
0.000159562
-1.06673e-07
-6.20711e-07
0.000158097
2.08665e-06
-2.7391e-07
0.000124623
8.40714e-05
2.65934e-07
8.38064e-05
6.04178e-07
0.000124286
0.000158788
-8.48303e-08
-6.29904e-07
0.00015732
2.09906e-06
-2.77121e-07
0.000123935
8.35302e-05
2.69258e-07
8.32618e-05
6.13609e-07
0.000123591
0.000157996
-6.16452e-08
-6.39792e-07
0.000156525
2.11241e-06
-2.8066e-07
0.000123233
8.2982e-05
2.72951e-07
8.27099e-05
6.23832e-07
0.000122883
0.000157187
-3.70741e-08
-6.50391e-07
0.000155712
2.12675e-06
-2.84528e-07
0.000122518
8.24262e-05
2.77066e-07
8.21499e-05
6.34974e-07
0.000122161
0.000156359
-1.09058e-08
-6.61854e-07
0.00015488
2.14203e-06
-2.88822e-07
0.000121789
8.18619e-05
2.81491e-07
8.15811e-05
6.46736e-07
0.000121425
0.000155511
1.61362e-08
-6.74456e-07
0.000154028
2.15903e-06
-2.93667e-07
0.000121045
8.12882e-05
2.86251e-07
8.10027e-05
6.5915e-07
0.000120673
0.000154644
4.42895e-08
-6.87416e-07
0.000153155
2.17666e-06
-2.98652e-07
0.000120285
8.07047e-05
2.91443e-07
8.0414e-05
6.72591e-07
0.000119905
0.000153755
7.45e-08
-7.01426e-07
0.000152261
2.19598e-06
-3.04089e-07
0.000119508
8.01105e-05
2.96981e-07
7.98142e-05
6.86886e-07
0.000119119
0.000152842
1.06343e-07
-7.1671e-07
0.000151343
2.2173e-06
-3.10076e-07
0.000118713
7.95048e-05
3.02986e-07
7.92024e-05
7.02225e-07
0.000118315
0.000151906
1.40013e-07
-7.32439e-07
0.0001504
2.23915e-06
-3.16237e-07
0.000117899
7.88867e-05
3.09418e-07
7.85779e-05
7.1857e-07
0.000117491
0.000150944
1.75592e-07
-7.49301e-07
0.000149431
2.2627e-06
-3.22901e-07
0.000117065
7.82555e-05
3.16201e-07
7.79399e-05
7.35741e-07
0.000116646
0.000149955
2.12718e-07
-7.67208e-07
0.000148435
2.28785e-06
-3.30015e-07
0.00011621
7.76104e-05
3.23495e-07
7.72874e-05
7.54071e-07
0.00011578
0.000148938
2.51934e-07
-7.86156e-07
0.00014741
2.31449e-06
-3.37585e-07
0.000115332
7.69503e-05
3.31254e-07
7.66196e-05
7.73463e-07
0.00011489
0.000147891
2.93082e-07
-8.06198e-07
0.000146356
2.34271e-06
-3.45637e-07
0.00011443
7.62744e-05
3.3951e-07
7.59353e-05
7.93986e-07
0.000113976
0.000146814
3.36289e-07
-8.27384e-07
0.000145269
2.3726e-06
-3.54192e-07
0.000113504
7.55816e-05
3.48279e-07
7.52337e-05
8.1568e-07
0.000113037
0.000145704
3.81642e-07
-8.49751e-07
0.00014415
2.40423e-06
-3.63261e-07
0.000112551
7.48709e-05
3.57571e-07
7.45137e-05
8.38577e-07
0.00011207
0.00014456
4.29221e-07
-8.73322e-07
0.000142996
2.43763e-06
-3.72852e-07
0.00011157
7.41413e-05
3.67385e-07
7.37743e-05
8.62688e-07
0.000111075
0.00014338
4.79068e-07
-8.98093e-07
0.000141806
2.4728e-06
-3.82959e-07
0.000110561
7.33917e-05
3.77704e-07
7.30143e-05
8.87993e-07
0.000110051
0.000142163
5.31177e-07
-9.24036e-07
0.000140578
2.50969e-06
-3.93558e-07
0.000109521
7.26211e-05
3.88515e-07
7.22329e-05
9.14465e-07
0.000108995
0.000140908
5.85521e-07
-9.51151e-07
0.000139311
2.5483e-06
-4.0465e-07
0.000108449
7.18285e-05
3.99857e-07
7.1429e-05
9.42198e-07
0.000107907
0.000139611
6.42259e-07
-9.79801e-07
0.000138002
2.5892e-06
-4.16409e-07
0.000107344
7.10128e-05
4.11736e-07
7.06014e-05
9.71172e-07
0.000106785
0.000138272
7.01297e-07
-1.00946e-06
0.000136651
2.63149e-06
-4.28586e-07
0.000106204
7.0173e-05
4.24196e-07
6.97491e-05
1.00151e-06
0.000105627
0.00013689
7.62942e-07
-1.04039e-06
0.000135255
2.67561e-06
-4.41303e-07
0.000105028
6.9308e-05
4.37161e-07
6.8871e-05
1.03307e-06
0.000104433
0.000135461
8.27012e-07
-1.07272e-06
0.000133812
2.72185e-06
-4.54601e-07
0.000103815
6.84166e-05
4.50741e-07
6.79661e-05
1.06609e-06
0.0001032
0.000133985
8.93929e-07
-1.10653e-06
0.000132321
2.77033e-06
-4.68522e-07
0.000102562
6.74977e-05
4.6496e-07
6.70329e-05
1.10065e-06
0.000101926
0.000132458
9.63798e-07
-1.14189e-06
0.000130779
2.82112e-06
-4.83093e-07
0.000101268
6.655e-05
4.79838e-07
6.60703e-05
1.13678e-06
0.000100611
0.000130879
1.0367e-06
-1.17883e-06
0.000129184
2.87422e-06
-4.98321e-07
9.99307e-05
6.55722e-05
4.95369e-07
6.5077e-05
1.17447e-06
9.92518e-05
0.000129246
1.1126e-06
-1.21728e-06
0.000127534
2.92954e-06
-5.14187e-07
9.85489e-05
6.45629e-05
5.11521e-07
6.40515e-05
1.21364e-06
9.78469e-05
0.000127557
1.19143e-06
-1.25717e-06
0.000125827
2.98695e-06
-5.30647e-07
9.71205e-05
6.3521e-05
5.28215e-07
6.2993e-05
1.25413e-06
9.63948e-05
0.000125808
1.27292e-06
-1.29809e-06
0.000124061
3.04577e-06
-5.47501e-07
9.56444e-05
6.24456e-05
5.45481e-07
6.19003e-05
1.29605e-06
9.4894e-05
0.000124
1.35735e-06
-1.34068e-06
0.000122234
3.10711e-06
-5.65061e-07
9.41185e-05
6.13354e-05
5.63314e-07
6.07722e-05
1.33936e-06
9.33426e-05
0.000122129
1.44459e-06
-1.3852e-06
0.000120343
3.17126e-06
-5.83441e-07
9.2541e-05
6.01889e-05
5.81869e-07
5.96072e-05
1.38434e-06
9.17387e-05
0.000120192
1.53494e-06
-1.43104e-06
0.000118386
3.2371e-06
-6.02377e-07
9.09102e-05
5.9005e-05
6.01184e-07
5.84039e-05
1.43107e-06
9.00805e-05
0.000118189
1.62864e-06
-1.47846e-06
0.000116363
3.3051e-06
-6.21998e-07
8.92243e-05
5.77821e-05
6.21126e-07
5.71612e-05
1.47929e-06
8.83663e-05
0.000116117
1.72535e-06
-1.52765e-06
0.000114269
3.37568e-06
-6.42373e-07
8.74812e-05
5.6519e-05
6.41944e-07
5.58772e-05
1.52954e-06
8.65939e-05
0.000113973
1.82594e-06
-1.57929e-06
0.000112103
3.44979e-06
-6.63795e-07
8.56786e-05
5.52136e-05
6.64284e-07
5.45495e-05
1.5832e-06
8.47599e-05
0.000111754
1.93232e-06
-1.63719e-06
0.00010986
3.53166e-06
-6.88845e-07
8.38118e-05
5.38609e-05
6.96797e-07
5.31643e-05
1.6497e-06
8.28592e-05
0.000109457
2.05286e-06
-1.71325e-06
0.00010754
3.63049e-06
-7.29791e-07
8.1876e-05
5.24348e-05
7.40567e-07
5.16944e-05
1.73099e-06
8.08858e-05
0.000107081
2.18968e-06
-1.79515e-06
0.000105139
3.73765e-06
-7.72433e-07
7.98634e-05
5.09222e-05
7.8138e-07
5.01411e-05
1.81177e-06
7.88333e-05
0.000104623
2.32879e-06
-1.87612e-06
0.000102654
3.84551e-06
-8.12342e-07
7.77698e-05
4.9329e-05
8.20249e-07
4.8509e-05
1.89241e-06
7.6698e-05
0.000102075
2.47087e-06
-1.95603e-06
0.000100078
3.95347e-06
-8.50135e-07
7.55924e-05
4.76591e-05
8.56865e-07
4.68025e-05
1.97136e-06
7.44782e-05
9.94369e-05
2.61321e-06
-2.03437e-06
9.74111e-05
4.06058e-06
-8.85904e-07
7.33301e-05
4.59169e-05
8.91593e-07
4.50256e-05
2.04871e-06
7.21733e-05
9.67045e-05
2.75574e-06
-2.11097e-06
9.46496e-05
4.16625e-06
-9.1984e-07
7.09826e-05
4.41061e-05
9.2455e-07
4.31818e-05
2.1242e-06
6.97833e-05
9.38765e-05
2.89778e-06
-2.18521e-06
9.1793e-05
4.26921e-06
-9.51868e-07
6.85504e-05
4.22303e-05
9.55515e-07
4.12751e-05
2.19701e-06
6.73093e-05
9.09527e-05
3.03771e-06
-2.25748e-06
8.88409e-05
4.36979e-06
-9.82337e-07
6.60346e-05
4.02931e-05
9.84718e-07
3.93087e-05
2.26727e-06
6.47525e-05
8.79334e-05
3.17532e-06
-2.32842e-06
8.57936e-05
4.46878e-06
-1.0117e-06
6.34362e-05
3.82974e-05
1.01302e-06
3.72848e-05
2.33648e-06
6.21132e-05
8.48177e-05
3.3129e-06
-2.39706e-06
8.26511e-05
4.56425e-06
-1.03962e-06
6.07563e-05
3.62456e-05
1.0395e-06
3.52065e-05
2.40263e-06
5.93937e-05
8.16073e-05
3.44704e-06
-2.46326e-06
7.94152e-05
4.65603e-06
-1.06603e-06
5.7997e-05
3.4141e-05
1.06493e-06
3.30765e-05
2.46722e-06
5.65953e-05
7.8303e-05
3.58013e-06
-2.52831e-06
7.60858e-05
4.74623e-06
-1.09158e-06
5.51592e-05
3.19854e-05
1.08918e-06
3.08968e-05
2.52991e-06
5.37191e-05
7.4905e-05
3.71146e-06
-2.59155e-06
7.26638e-05
4.83357e-06
-1.11596e-06
5.22442e-05
2.97814e-05
1.11244e-06
2.86696e-05
2.59114e-06
5.07662e-05
7.14141e-05
3.8417e-06
-2.65372e-06
6.91498e-05
4.91888e-06
-1.13963e-06
4.92529e-05
2.75306e-05
1.13501e-06
2.63963e-05
2.65156e-06
4.77372e-05
6.78307e-05
3.97167e-06
-2.71604e-06
6.55436e-05
5.00414e-06
-1.16313e-06
4.61851e-05
2.52338e-05
1.15759e-06
2.4077e-05
2.71248e-06
4.46312e-05
6.4154e-05
4.10319e-06
-2.77979e-06
6.1844e-05
5.09084e-06
-1.18722e-06
4.30395e-05
2.28906e-05
1.18073e-06
2.17107e-05
2.77507e-06
4.14462e-05
6.03826e-05
4.23772e-06
-2.84612e-06
5.80492e-05
5.18076e-06
-1.21219e-06
3.98133e-05
2.04993e-05
1.20513e-06
1.92951e-05
2.84086e-06
3.81787e-05
5.65139e-05
4.37749e-06
-2.91807e-06
5.41558e-05
5.27745e-06
-1.23973e-06
3.65015e-05
1.80564e-05
1.23554e-06
1.6822e-05
2.91555e-06
3.48228e-05
5.25454e-05
4.52733e-06
-3.0048e-06
5.01661e-05
5.3856e-06
-1.28297e-06
3.31022e-05
1.55398e-05
1.28102e-06
1.42589e-05
2.99871e-06
3.13856e-05
4.84843e-05
4.6819e-06
-3.08606e-06
4.60914e-05
5.48028e-06
-1.32957e-06
2.96298e-05
1.29292e-05
1.30758e-06
1.16207e-05
3.05122e-06
2.78865e-05
4.43493e-05
4.79419e-06
-3.09383e-06
4.19602e-05
5.48342e-06
-1.3276e-06
2.61202e-05
1.02922e-05
1.2507e-06
9.04032e-06
2.9709e-06
2.43996e-05
4.01846e-05
4.74686e-06
-2.88691e-06
3.7829e-05
5.24251e-06
-1.18594e-06
2.26981e-05
7.85325e-06
1.00166e-06
6.85039e-06
2.60362e-06
2.10954e-05
3.60523e-05
4.38014e-06
-2.40133e-06
3.37748e-05
4.67852e-06
-8.66269e-07
1.95595e-05
5.98289e-06
6.81927e-07
5.29975e-06
2.07598e-06
1.81645e-05
3.20635e-05
3.78675e-06
-1.91748e-06
2.99579e-05
4.02235e-06
-6.05528e-07
1.68515e-05
4.69296e-06
4.96895e-07
4.19484e-06
1.66289e-06
1.56843e-05
2.83992e-05
3.22077e-06
-1.57714e-06
2.65194e-05
3.45576e-06
-4.76403e-07
1.45821e-05
3.71723e-06
3.92193e-07
3.32392e-06
1.36454e-06
1.36082e-05
2.51481e-05
2.73435e-06
-1.3063e-06
2.34902e-05
2.96235e-06
-3.803e-07
1.26805e-05
2.94263e-06
3.00464e-07
2.64135e-06
1.11076e-06
1.18685e-05
2.22935e-05
2.30542e-06
-1.07572e-06
2.08342e-05
2.53285e-06
-2.95285e-07
1.10865e-05
2.3454e-06
2.26123e-07
2.11877e-06
9.01533e-07
1.04098e-05
1.97934e-05
1.94032e-06
-8.94842e-07
1.85075e-05
2.17889e-06
-2.29978e-07
9.74382e-06
1.88839e-06
1.69389e-07
1.7187e-06
7.38098e-07
9.17419e-06
1.76029e-05
1.64118e-06
-7.57708e-07
1.64663e-05
1.89296e-06
-1.81981e-07
8.5977e-06
1.53647e-06
1.24015e-07
1.41226e-06
6.04265e-07
8.11683e-06
1.56825e-05
1.38693e-06
-6.33793e-07
1.46855e-05
1.62984e-06
-1.38689e-07
7.62117e-06
1.27339e-06
8.09683e-08
1.19224e-06
4.77105e-07
7.22454e-06
1.40212e-05
1.14049e-06
-5.14156e-07
1.31622e-05
1.37233e-06
-9.99629e-08
6.80984e-06
1.09207e-06
4.48041e-08
1.04707e-06
3.54695e-07
6.49947e-06
1.26265e-05
8.896e-07
-3.89069e-07
1.19161e-05
1.09872e-06
-6.14453e-08
6.17135e-06
9.85403e-07
5.58611e-09
9.7963e-07
2.22621e-07
5.95386e-06
1.15183e-05
6.19714e-07
-2.45909e-07
1.09654e-05
7.98043e-07
-1.27377e-08
5.72022e-06
9.66699e-07
-4.54443e-08
1.01204e-06
7.20845e-08
5.60232e-06
1.07137e-05
3.23162e-07
-7.88159e-08
1.03243e-05
4.67826e-07
3.8544e-08
5.48477e-06
1.05061e-06
-9.83258e-08
1.14923e-06
-9.3947e-08
5.48047e-06
1.0217e-05
1.29756e-08
7.07112e-08
9.9862e-06
1.59701e-07
8.21629e-08
5.46885e-06
1.23144e-06
-1.3911e-07
1.37055e-06
-2.27902e-07
5.55746e-06
1.00214e-05
-2.63454e-07
1.64717e-07
9.8954e-06
-3.89477e-08
1.08362e-07
5.61373e-06
1.47903e-06
-1.51886e-07
1.63092e-06
-2.83817e-07
5.7455e-06
1.00094e-05
-3.98125e-07
1.76453e-07
9.92778e-06
-9.48323e-08
1.02389e-07
5.81967e-06
1.73355e-06
-1.24453e-07
1.85824e-06
-2.38716e-07
5.93405e-06
1.00423e-05
-3.53235e-07
8.16666e-08
9.92478e-06
3.58109e-08
5.49509e-08
5.96081e-06
1.91336e-06
-5.71695e-08
1.97068e-06
-9.13813e-08
5.99507e-06
9.96125e-06
-1.27891e-07
-1.40956e-07
9.80628e-06
2.95871e-07
-1.88851e-08
5.87302e-06
1.95191e-06
1.14052e-08
1.94059e-06
4.74008e-08
5.83703e-06
9.57083e-06
2.82785e-07
-3.3812e-07
9.32559e-06
5.83261e-07
-8.69401e-08
5.58582e-06
1.85369e-06
5.80683e-08
1.79565e-06
2.71853e-07
5.37202e-06
8.98493e-06
6.12438e-07
-4.68116e-07
8.44745e-06
1.00552e-06
-1.11717e-07
5.01561e-06
1.68395e-06
5.12908e-08
1.63274e-06
2.76615e-07
4.79029e-06
8.02494e-06
6.99092e-07
1.14614e-08
7.79022e-06
2.23371e-07
8.05425e-08
4.72142e-06
1.71341e-06
-5.18995e-08
1.76539e-06
-1.63948e-08
4.68599e-06
7.76152e-06
1.24971e-08
-3.22976e-07
5.62798e-07
-1.31829e-07
-2.54819e-07
-2.98022e-05
3.15738e-06
-4.64504e-05
3.38816e-06
-7.0916e-05
8.48287e-06
-8.84761e-05
7.93108e-06
-0.00010235
1.14565e-05
-0.000132123
1.16267e-05
-0.000146742
1.35978e-05
-0.000168707
1.45269e-05
-0.000181045
1.58244e-05
-0.000196963
1.68102e-05
-0.000206836
1.76046e-05
-0.000218195
1.83776e-05
-0.000225881
1.87936e-05
-0.000233873
1.93566e-05
-0.000239892
1.95118e-05
-0.000245617
1.98956e-05
-0.000250389
1.98468e-05
-0.000254604
2.00758e-05
-0.000258476
1.98616e-05
-0.000261681
1.9954e-05
-0.000264914
1.96037e-05
-0.000267444
1.95744e-05
-0.000270229
1.91113e-05
-0.000272318
1.89725e-05
-0.000274793
1.84158e-05
-0.000276605
1.81791e-05
-0.000278876
1.75444e-05
-0.000280527
1.72189e-05
-0.000282669
1.65186e-05
-0.000284246
1.61108e-05
-0.000286314
1.53545e-05
-0.000287884
1.48686e-05
-0.000289922
1.40621e-05
-0.000291542
1.34985e-05
-0.000293531
1.26439e-05
-0.000295197
1.2059e-05
-0.000297049
1.15789e-05
-0.000298265
1.12775e-05
-0.000299022
1.23839e-05
-0.000298352
1.32574e-05
-0.000296435
1.90389e-05
-0.000292125
2.56461e-05
-0.000288961
5.31258e-05
-0.000288643
0.000110438
-0.000294525
5.66041e-05
-0.000184278
2.60328e-05
-0.000185687
2.43987e-05
-0.000167401
8.00712e-06
-0.000151086
4.80392e-06
-5.21754e-05
2.10428e-06
-4.06763e-05
-2.64332e-05
-2.82341e-06
-2.36098e-05
-6.37823e-06
-3.71215e-05
-4.78572e-05
-1.06964e-05
5.39349e-06
-4.4113e-05
-9.13763e-06
2.36217e-06
-3.40901e-05
-2.12476e-05
-1.75685e-06
-1.94907e-05
-3.86061e-06
-3.19863e-05
-4.15777e-05
-6.3959e-06
1.62498e-06
-4.06387e-05
-2.5639e-06
7.22121e-07
-3.10834e-05
-1.87685e-05
-6.2586e-07
-1.81426e-05
-1.43526e-06
-3.02739e-05
-3.95992e-05
-2.47466e-06
2.39639e-07
-3.9472e-05
-3.66765e-07
1.37779e-07
-3.0172e-05
-1.80048e-05
-2.25728e-07
-1.7779e-05
-5.96e-07
-2.98016e-05
-3.89868e-05
-1.08106e-06
-2.17051e-07
-3.91431e-05
3.73478e-07
-9.29841e-08
-2.99256e-05
-1.7872e-05
-2.29458e-07
-1.76424e-05
-5.74803e-07
-2.95802e-05
-3.86775e-05
-1.04036e-06
-1.62353e-07
-3.87946e-05
2.79608e-07
-1.19943e-07
-2.96225e-05
-1.77623e-05
-1.45847e-07
-1.76164e-05
-3.52797e-07
-2.94155e-05
-3.83621e-05
-7.85155e-07
-2.92258e-07
-3.86051e-05
5.35348e-07
-1.79788e-07
-2.95279e-05
-1.77961e-05
-1.95949e-07
-1.76001e-05
-4.54681e-07
-2.9269e-05
-3.81136e-05
-9.46077e-07
-2.0446e-07
-3.82447e-05
3.35719e-07
-1.42347e-07
-2.9331e-05
-1.77424e-05
-1.25996e-07
-1.76163e-05
-3.15437e-07
-2.91415e-05
-3.78876e-05
-6.72452e-07
-3.13769e-07
-3.81352e-05
5.61448e-07
-1.93625e-07
-2.92615e-05
-1.78099e-05
-1.82666e-07
-1.76271e-05
-4.32279e-07
-2.90118e-05
-3.76534e-05
-9.13948e-07
-2.15177e-07
-3.77827e-05
3.44674e-07
-1.50802e-07
-2.90761e-05
-1.77778e-05
-1.18225e-07
-1.76595e-05
-3.04115e-07
-2.88901e-05
-3.74289e-05
-6.57841e-07
-3.14529e-07
-3.76679e-05
5.53683e-07
-1.97824e-07
-2.90067e-05
-1.78573e-05
-1.78558e-07
-1.76786e-05
-4.28588e-07
-2.87565e-05
-3.71858e-05
-9.1059e-07
-2.10503e-07
-3.73043e-05
3.29169e-07
-1.52121e-07
-2.88148e-05
-1.78306e-05
-1.16618e-07
-1.77139e-05
-3.05711e-07
-2.86256e-05
-3.69461e-05
-6.63748e-07
-3.03692e-07
-3.71694e-05
5.27091e-07
-1.96621e-07
-2.87326e-05
-1.79105e-05
-1.79552e-07
-1.77308e-05
-4.35757e-07
-2.84762e-05
-3.66805e-05
-9.24445e-07
-1.96313e-07
-3.67819e-05
2.97852e-07
-1.49217e-07
-2.85232e-05
-1.788e-05
-1.18523e-07
-1.77613e-05
-3.15513e-07
-2.83261e-05
-3.64142e-05
-6.83135e-07
-2.8438e-07
-3.66157e-05
4.86088e-07
-1.91936e-07
-2.84184e-05
-1.79532e-05
-1.83748e-07
-1.77693e-05
-4.50625e-07
-2.81514e-05
-3.61151e-05
-9.51143e-07
-1.75054e-07
-3.61941e-05
2.5421e-07
-1.43458e-07
-2.81829e-05
-1.79127e-05
-1.2279e-07
-1.77898e-05
-3.30974e-07
-2.79746e-05
-3.58126e-05
-7.1232e-07
-2.58913e-07
-3.59874e-05
4.3388e-07
-1.84682e-07
-2.80487e-05
-1.79744e-05
-1.90116e-07
-1.77842e-05
-4.70643e-07
-2.7768e-05
-3.5471e-05
-9.86807e-07
-1.49267e-07
-3.55235e-05
2.01886e-07
-1.35905e-07
-2.77813e-05
-1.792e-05
-1.27827e-07
-1.7792e-05
-3.4871e-07
-2.75602e-05
-3.51259e-05
-7.46149e-07
-2.30918e-07
-3.52705e-05
3.75674e-07
-1.76555e-07
-2.76145e-05
-1.79685e-05
-1.96133e-07
-1.77722e-05
-4.90785e-07
-2.73197e-05
-3.47367e-05
-1.02439e-06
-1.25723e-07
-3.47608e-05
1.49935e-07
-1.30169e-07
-2.73151e-05
-1.79023e-05
-1.27786e-07
-1.77744e-05
-3.58556e-07
-2.70842e-05
-3.43479e-05
-7.71261e-07
-2.14133e-07
-3.44626e-05
3.29048e-07
-1.75707e-07
-2.71224e-05
-1.79499e-05
-1.9133e-07
-1.77585e-05
-4.92304e-07
-2.68213e-05
-3.39165e-05
-1.03827e-06
-1.30955e-07
-3.39177e-05
1.32271e-07
-1.41805e-07
-2.68103e-05
-1.79001e-05
-9.75983e-08
-1.78024e-05
-3.18901e-07
-2.65889e-05
-3.35019e-05
-7.34452e-07
-2.68253e-07
-3.3555e-05
3.21423e-07
-2.18126e-07
-2.66389e-05
-1.80204e-05
-1.24952e-07
-1.78954e-05
-4.38494e-07
-2.63252e-05
-3.30721e-05
-9.21205e-07
-2.92302e-07
-3.30031e-05
2.23442e-07
-2.36568e-07
-2.63809e-05
-1.81319e-05
-1.27254e-09
-1.81306e-05
-2.79142e-07
-2.61029e-05
-3.26399e-05
-6.42289e-07
-3.87377e-07
-3.25655e-05
3.13076e-07
-2.47203e-07
-2.6243e-05
-1.83778e-05
-1.13924e-07
-1.82638e-05
-5.02012e-07
-2.58549e-05
-3.21305e-05
-9.36893e-07
-1.51837e-07
-3.20451e-05
6.65615e-08
-1.66245e-07
-2.58404e-05
-1.843e-05
-6.0417e-08
-1.83692e-05
-2.89642e-07
-2.56109e-05
-3.17601e-05
-5.74442e-07
-2.65175e-07
-3.1859e-05
3.64418e-07
-1.56757e-07
-2.57189e-05
-1.85255e-05
8.75024e-08
-1.86126e-05
-4.91336e-08
-2.55817e-05
-3.16683e-05
-2.39597e-07
-1.01533e-06
-3.21053e-05
1.45296e-06
-5.16143e-07
-2.60794e-05
-1.91282e-05
1.07546e-06
-2.02029e-05
2.02565e-06
-2.70265e-05
-3.28432e-05
2.76285e-06
2.48491e-05
-1.63405e-05
-4.13535e-05
1.0954e-05
-1.31356e-05
-9.24685e-06
2.22394e-06
-1.16386e-05
6.03898e-06
-1.67861e-05
-2.10124e-05
1.07063e-05
-3.0479e-06
-2.28888e-05
4.9172e-06
-1.44045e-06
-1.8397e-05
-1.30808e-05
7.12572e-07
-1.37938e-05
1.23221e-06
-1.8914e-05
-2.33597e-05
1.70219e-06
-5.84422e-07
-4.57014e-05
2.29254e-05
-4.73081e-07
-1.90257e-05
-1.42668e-05
3.57062e-07
-1.46236e-05
1.95052e-05
-3.81733e-05
-3.80433e-05
1.18475e-05
-8.28673e-06
-3.70634e-05
7.3066e-06
-1.50361e-05
-3.14241e-05
-2.96599e-05
3.39095e-06
-3.3051e-05
4.8391e-06
-3.28724e-05
-3.55912e-05
3.36677e-06
-8.43883e-07
-3.31905e-05
-1.55701e-06
-1.95076e-06
-3.17657e-05
-3.50018e-05
-1.75858e-06
-3.32436e-05
-6.26629e-06
-2.72583e-05
-2.83601e-05
-1.10972e-05
1.28015e-05
-1.68314e-05
-2.43305e-05
5.34067e-06
-1.97978e-05
-2.79033e-05
-4.08857e-06
-2.38151e-05
-6.32561e-06
-1.75611e-05
-2.02235e-05
-2.93376e-06
9.30591e-06
-1.75987e-05
-1.19312e-05
6.1582e-06
-1.44139e-05
-1.76576e-05
-1.09935e-05
-6.66517e-06
-1.60382e-05
-9.36987e-06
-1.28563e-05
-2.07813e-05
2.47463e-05
-6.54765e-06
-3.10558e-05
1.80139e-05
-2.63833e-06
1.13473e-05
-2.98392e-05
4.11849e-05
-3.91402e-05
6.66171e-06
1.45391e-06
-4.71428e-05
5.90478e-05
3.30739e-05
-9.06693e-05
4.39408e-05
2.17674e-05
8.51233e-05
-5.21021e-05
0.000137222
-5.46325e-05
2.42965e-05
1.74086e-05
-3.89681e-05
6.27632e-05
1.0918e-05
-5.62736e-05
6.47557e-05
2.23028e-05
0.000201974
-8.8361e-05
0.00029033
-9.52962e-05
2.92363e-05
1.6197e-05
-0.000100577
0.000132217
6.51785e-05
-0.000181201
0.000114766
4.66858e-05
0.000405089
-0.000120203
0.000525284
-0.000115884
4.23644e-05
2.99562e-05
-8.06631e-05
0.000127489
9.90465e-06
-0.000107439
0.000136515
3.33362e-05
0.00066179
-0.000169556
0.000831333
-0.000191626
5.54047e-05
6.79062e-05
-0.000249631
0.000169707
3.95381e-05
-0.00014134
0.000173083
5.20266e-05
0.0010044
-0.000174182
0.00117857
-0.000183414
6.12564e-05
4.68715e-05
-0.000190749
0.000185203
0.000100166
-0.0002385
0.000159618
8.68394e-05
0.00133816
-7.66086e-05
0.00141475
-9.12932e-05
0.000101522
0.000109099
-0.000100228
3.75228e-05
0.000136728
-6.51538e-05
3.43847e-07
0.000138699
0.00141507
8.35692e-05
0.00133148
5.34762e-05
0.000168789
0.000185662
4.53875e-06
-0.000179928
0.00013418
0.000231407
-0.000156357
0.000145215
0.0011751
0.000158117
0.00101696
0.000155927
0.000147402
0.000131414
0.000158691
-0.000122843
0.000238303
1.59516e-05
-0.00015278
0.000177336
0.000864159
0.000162685
0.000701456
0.000184971
0.000155046
0.000153277
0.000269993
-0.000147162
0.000139935
0.000160501
-0.000142934
0.000150814
0.000558507
0.000117537
0.000440956
9.73621e-05
0.000170984
0.000238942
-1.64918e-06
-0.000140027
0.000152929
0.000226034
-0.000113378
0.000144327
0.000327566
8.42775e-05
0.000243279
9.68232e-05
0.000131777
0.000128132
0.000121616
-4.58814e-05
0.000205692
-3.16838e-05
-5.59198e-05
0.000141809
0.000187352
5.11648e-05
0.00013618
7.86713e-05
0.000114297
0.000133801
0.000150554
-5.50512e-05
0.000103221
8.56277e-05
-3.71332e-05
9.63743e-05
9.90413e-05
2.00577e-05
7.89789e-05
1.6519e-05
9.99086e-05
0.000164444
-4.47093e-05
-5.66365e-05
9.91487e-05
0.000121922
-2.50194e-05
6.82848e-05
5.39539e-05
3.8875e-05
1.50791e-05
3.83055e-05
6.88581e-05
7.57014e-05
6.17532e-05
-1.85545e-05
0.000136826
-4.25476e-05
1.03949e-05
3.99098e-05
2.54713e-05
9.19292e-06
1.62345e-05
2.22724e-05
2.68438e-05
4.43606e-05
0.000114689
-1.6314e-05
2.85637e-05
3.19711e-05
-6.87204e-06
1.76998e-05
9.11605e-06