/*--------------------------------*- C++ -*----------------------------------*\
| =========                 |                                                 |
| \\      /  F ield         | OpenFOAM: The Open Source CFD Toolbox           |
|  \\    /   O peration     | Version:  v2006                                 |
|   \\  /    A nd           | Website:  www.openfoam.com                      |
|    \\/     M anipulation  |                                                 |
\*---------------------------------------------------------------------------*/
FoamFile
{
    version     2.0;
    format      ascii;
    class       volScalarField;
    location    "0.028";
    object      T;
}
// * * * * * * * * * * * * * * * * * * * * * * * * * * * * * * * * * * * * * //

dimensions      [0 0 0 1 0 0 0];


internalField   nonuniform List<scalar> 
31566
(
296.692
296.692
296.692
296.692
296.692
296.692
296.692
296.692
296.692
296.692
296.692
296.692
296.692
296.692
296.692
296.692
296.692
296.691
296.691
296.691
296.692
296.693
296.696
296.7
296.705
296.712
296.719
296.726
296.733
296.74
296.747
296.754
296.761
296.769
296.776
296.784
296.791
296.799
296.807
296.815
296.823
296.832
296.84
296.848
296.857
296.865
296.874
296.882
296.891
296.899
296.908
296.917
296.925
296.934
296.943
296.952
296.96
296.969
296.978
296.986
296.995
297.003
297.012
297.02
297.029
297.037
297.045
297.053
297.062
297.069
297.077
297.085
297.093
297.1
297.108
297.115
297.122
297.129
297.136
297.143
297.149
297.156
297.162
297.169
297.175
297.182
297.188
297.194
297.199
297.203
297.204
297.205
297.204
297.203
297.202
297.201
297.2
297.199
297.198
297.198
297.198
297.199
297.201
297.206
297.215
297.226
297.241
297.263
297.287
297.384
297.407
297.286
297.251
297.25
297.294
297.446
297.482
297.305
297.251
297.253
297.314
297.505
297.525
297.326
297.258
297.264
297.338
297.535
297.544
297.348
297.269
297.276
297.357
297.548
297.553
297.363
297.281
297.287
297.37
297.555
297.555
297.375
297.292
297.297
297.38
297.554
297.552
297.385
297.302
297.307
297.389
297.55
297.547
297.393
297.312
297.317
297.397
297.545
297.541
297.4
297.322
297.326
297.403
297.539
297.535
297.405
297.33
297.334
297.408
297.533
297.53
297.411
297.338
297.342
297.413
297.527
297.525
297.415
297.346
297.349
297.417
297.523
297.521
297.419
297.353
297.356
297.421
297.519
297.518
297.424
297.36
297.363
297.426
297.517
297.516
297.428
297.367
297.37
297.43
297.514
297.514
297.432
297.374
297.377
297.434
297.513
297.513
297.437
297.381
297.383
297.438
297.513
297.513
297.441
297.388
297.39
297.443
297.513
297.513
297.446
297.395
297.397
297.448
297.513
297.514
297.451
297.401
297.404
297.452
297.514
297.515
297.456
297.408
297.411
297.458
297.515
297.517
297.461
297.415
297.418
297.463
297.517
297.519
297.466
297.423
297.425
297.468
297.52
297.522
297.472
297.43
297.432
297.474
297.523
297.525
297.478
297.437
297.44
297.48
297.526
297.528
297.484
297.445
297.447
297.486
297.529
297.532
297.49
297.453
297.455
297.492
297.533
297.536
297.497
297.461
297.463
297.499
297.538
297.541
297.504
297.469
297.472
297.506
297.543
297.546
297.511
297.478
297.48
297.513
297.548
297.552
297.519
297.487
297.489
297.521
297.554
297.558
297.526
297.496
297.499
297.529
297.56
297.565
297.535
297.505
297.508
297.538
297.567
297.571
297.543
297.515
297.518
297.546
297.574
297.579
297.552
297.525
297.528
297.555
297.581
297.586
297.562
297.535
297.539
297.565
297.589
297.594
297.571
297.546
297.55
297.574
297.597
297.603
297.581
297.557
297.561
297.585
297.606
297.611
297.591
297.568
297.572
297.595
297.614
297.621
297.602
297.58
297.584
297.606
297.624
297.63
297.613
297.592
297.596
297.617
297.633
297.64
297.625
297.605
297.609
297.628
297.644
297.651
297.636
297.618
297.622
297.64
297.654
297.662
297.649
297.631
297.635
297.653
297.665
297.673
297.661
297.645
297.649
297.666
297.677
297.685
297.675
297.659
297.664
297.679
297.689
297.697
297.688
297.674
297.679
297.693
297.701
297.71
297.702
297.689
297.694
297.707
297.715
297.723
297.717
297.705
297.71
297.722
297.728
297.737
297.732
297.721
297.726
297.737
297.742
297.752
297.748
297.737
297.743
297.753
297.757
297.767
297.764
297.755
297.76
297.77
297.772
297.782
297.781
297.772
297.778
297.786
297.787
297.798
297.798
297.791
297.797
297.804
297.803
297.814
297.816
297.809
297.816
297.822
297.82
297.831
297.834
297.829
297.835
297.84
297.837
297.849
297.853
297.849
297.856
297.859
297.855
297.867
297.872
297.87
297.876
297.879
297.873
297.886
297.893
297.891
297.898
297.899
297.892
297.905
297.913
297.913
297.92
297.92
297.912
297.925
297.935
297.935
297.942
297.942
297.932
297.946
297.957
297.958
297.966
297.964
297.953
297.967
297.979
297.982
297.99
297.987
297.975
297.989
298.003
298.006
298.014
298.011
297.997
298.012
298.027
298.031
298.04
298.035
298.02
298.035
298.051
298.057
298.066
298.06
298.043
298.059
298.076
298.084
298.092
298.085
298.067
298.084
298.102
298.111
298.12
298.111
298.092
298.109
298.129
298.139
298.148
298.138
298.118
298.135
298.156
298.167
298.177
298.166
298.144
298.161
298.184
298.196
298.206
298.194
298.171
298.188
298.213
298.226
298.236
298.223
298.198
298.216
298.242
298.256
298.266
298.252
298.226
298.245
298.272
298.287
298.298
298.282
298.255
298.273
298.302
298.319
298.329
298.313
298.285
298.302
298.333
298.351
298.362
298.344
298.316
298.332
298.364
298.384
298.395
298.376
298.347
298.362
298.396
298.417
298.428
298.408
298.378
298.394
298.429
298.45
298.462
298.441
298.409
298.425
298.461
298.485
298.496
298.474
298.442
298.457
298.495
298.519
298.53
298.507
298.474
298.49
298.528
298.553
298.565
298.541
298.507
298.523
298.562
298.589
298.6
298.575
298.541
298.555
298.596
298.624
298.635
298.609
298.577
298.588
298.631
298.659
298.67
298.644
298.613
298.623
298.665
298.695
298.705
298.679
298.648
298.656
298.7
298.729
298.739
298.714
298.681
298.689
298.734
298.764
298.773
298.748
298.714
298.723
298.769
298.797
298.807
298.782
298.748
298.756
298.802
298.831
298.84
298.815
298.782
298.789
298.834
298.865
298.873
298.848
298.814
298.821
298.867
298.897
298.905
298.88
298.845
298.852
298.899
298.928
298.936
298.911
298.876
298.882
298.93
298.959
298.966
298.942
298.906
298.912
298.959
298.988
298.995
298.971
298.935
298.942
298.987
299.016
299.023
298.997
298.965
298.972
299.014
299.043
299.05
299.024
298.992
299.002
299.038
299.067
299.078
299.048
299.014
299.034
299.063
299.09
299.106
299.073
299.038
299.059
299.087
299.113
299.129
299.097
299.062
299.082
299.11
299.136
299.15
299.12
299.085
299.104
299.132
299.156
299.17
299.141
299.107
299.125
299.153
299.176
299.189
299.162
299.128
299.144
299.173
299.195
299.206
299.181
299.149
299.162
299.19
299.215
299.22
299.197
299.175
299.181
299.208
299.234
299.238
299.216
299.193
299.197
299.226
299.249
299.253
299.233
299.207
299.209
299.24
299.263
299.266
299.245
299.216
299.217
299.25
299.274
299.276
299.253
299.221
299.222
299.256
299.283
299.285
299.258
299.224
299.226
299.26
299.289
299.292
299.262
299.227
299.23
299.265
299.295
299.297
299.267
299.234
299.24
299.271
299.3
299.303
299.275
299.245
299.253
299.279
299.306
299.31
299.285
299.26
299.268
299.29
299.314
299.318
299.297
299.28
299.287
299.303
299.324
299.328
299.312
299.303
299.31
299.32
299.336
299.339
299.33
299.329
299.335
299.342
299.347
299.354
299.351
299.353
299.374
299.358
299.358
299.375
299.377
299.377
299.398
299.386
299.38
299.397
299.399
299.406
299.461
299.398
299.39
299.4
299.41
299.467
299.407
299.428
299.447
299.46
299.469
299.479
299.483
299.485
299.484
299.482
299.48
299.476
299.472
299.468
299.464
299.459
299.453
299.448
299.442
299.437
299.431
299.425
299.419
299.413
299.407
299.401
299.395
299.389
299.382
299.376
299.37
299.364
299.357
299.351
299.344
299.337
299.33
299.324
299.317
299.31
299.304
299.298
299.292
299.287
299.281
299.276
299.271
299.265
299.26
299.255
299.25
299.245
299.242
299.24
299.244
299.25
299.259
299.263
299.252
299.246
299.248
299.254
299.265
299.268
299.257
299.251
299.253
299.259
299.27
299.272
299.262
299.255
299.257
299.263
299.274
299.276
299.265
299.258
299.26
299.266
299.277
299.279
299.268
299.261
299.262
299.269
299.28
299.282
299.27
299.264
299.265
299.271
299.283
299.284
299.273
299.266
299.267
299.274
299.285
299.287
299.275
299.269
299.27
299.276
299.288
299.29
299.278
299.271
299.272
299.279
299.291
299.292
299.28
299.273
299.275
299.281
299.294
299.295
299.283
299.276
299.277
299.284
299.297
299.298
299.286
299.279
299.28
299.287
299.3
299.302
299.289
299.282
299.283
299.29
299.304
299.306
299.292
299.285
299.287
299.294
299.308
299.31
299.296
299.288
299.29
299.297
299.312
299.314
299.299
299.292
299.294
299.301
299.316
299.318
299.303
299.296
299.298
299.305
299.32
299.323
299.308
299.3
299.302
299.31
299.325
299.328
299.313
299.305
299.308
299.316
299.332
299.336
299.319
299.311
299.313
299.322
299.34
299.343
299.325
299.316
299.319
299.328
299.347
299.35
299.33
299.321
299.323
299.333
299.353
299.354
299.333
299.324
299.325
299.334
299.354
299.353
299.332
299.325
299.325
299.332
299.352
299.355
299.335
299.329
299.334
299.34
299.362
299.371
299.348
299.342
299.352
299.36
299.385
299.398
299.371
299.364
299.372
299.375
299.406
299.44
299.372
299.374
299.367
299.342
299.525
299.978
299.112
299.318
299.436
299.462
299.408
299.475
299.446
299.44
299.454
299.458
299.47
299.484
299.473
299.47
299.49
299.497
299.512
299.52
299.508
299.504
299.522
299.525
299.536
299.57
299.538
299.536
299.541
299.53
299.625
299.981
299.39
299.499
299.599
299.604
299.591
299.621
299.613
299.614
299.638
299.636
299.636
299.657
299.658
299.66
299.682
299.679
299.675
299.684
299.696
299.704
299.723
299.709
299.662
299.717
299.719
299.721
299.718
299.718
299.716
299.713
299.691
299.677
299.634
299.604
299.125
299.377
299.465
299.508
298.929
299.021
299.136
298.776
298.504
298.664
296.322
296.184
296.201
294.564
295.29
295.601
294.811
294.648
294.712
296.286
295.367
295.083
296.266
296.355
296.743
297.517
296.901
296.609
296.772
297.129
297.809
297.93
297.594
297.314
297.527
297.338
298.87
298.13
297.508
297.276
297.53
297.663
298.097
298.727
297.607
297.607
297.584
297.67
298.142
297.991
297.833
297.684
297.758
297.479
298.611
298.072
297.769
297.695
297.769
297.839
298.043
298.44
297.632
297.767
297.798
297.785
298.095
297.978
297.871
297.808
297.802
297.665
298.376
298.093
297.807
297.843
297.831
297.891
297.994
298.259
297.71
297.828
297.862
297.818
298.069
297.977
297.921
297.85
297.814
297.673
298.26
298.038
297.754
297.853
297.843
297.897
297.99
298.227
297.664
297.794
297.825
297.739
298.02
297.844
297.886
297.854
297.643
297.325
298.714
298.061
297.515
297.719
297.668
297.693
297.932
297.826
297.774
297.702
297.724
297.762
297.854
297.744
297.769
297.75
297.706
297.733
297.754
297.772
297.784
297.764
297.694
297.571
297.885
297.807
297.607
297.636
297.723
297.697
297.721
298.357
297.232
297.549
297.499
297.41
297.654
297.732
297.354
297.443
297.487
297.51
297.632
297.639
297.571
297.54
297.484
297.277
297.936
297.626
297.395
297.422
297.373
297.405
297.67
297.561
297.384
297.395
297.376
297.447
297.546
297.606
297.341
297.412
297.345
297.385
297.532
297.462
297.448
297.456
297.249
296.962
298.148
297.32
297.163
297.334
297.092
297.003
297.541
297.262
297.036
297.192
297.12
297.111
297.307
297.275
297.124
297.13
297.137
297.25
297.285
297.461
297.107
297.106
297.102
296.989
297.308
297.2
297.02
297.017
297.008
297.006
297.111
297.058
297.099
297.005
296.874
296.799
297.498
297.171
296.746
297.031
296.882
296.949
297.111
296.955
296.831
296.861
296.797
296.796
296.95
296.903
296.782
296.778
296.798
296.881
296.942
297.083
296.632
296.748
296.765
296.701
296.748
296.86
296.694
296.652
296.632
296.584
296.682
296.683
296.591
296.569
296.566
296.586
296.723
296.7
296.658
296.551
296.453
296.519
296.918
296.704
296.292
296.532
296.408
296.492
296.739
296.538
296.366
296.414
296.355
296.355
296.554
296.487
296.319
296.307
296.268
296.397
296.45
296.769
296.254
296.189
296.266
295.959
296.407
296.438
296.244
296.139
296.147
296.058
296.232
296.184
296.032
296.049
295.997
296.038
296.13
296.153
296.013
295.967
295.937
295.973
296.134
296.124
296.065
295.922
295.814
295.934
296.32
296.101
295.632
295.892
295.789
295.877
296.147
295.894
295.658
295.767
295.7
295.689
295.907
295.851
295.684
295.643
295.627
295.693
295.896
295.82
295.615
295.559
295.536
295.673
295.814
295.755
295.528
295.478
295.46
295.634
295.759
295.808
295.398
295.468
295.363
295.384
295.526
295.723
295.443
295.318
295.304
295.261
295.489
295.417
295.281
295.183
295.163
295.166
295.388
295.375
295.225
295.131
295.085
295.134
295.363
295.367
295.207
295.074
295.008
295.055
295.272
295.339
295.17
294.975
294.877
295.164
295.223
295.203
294.869
294.875
294.837
295.071
295.185
295.093
294.865
294.811
294.74
294.853
295.076
295.019
294.753
294.652
294.657
294.782
295.036
294.93
294.646
294.574
294.581
294.717
294.935
294.838
294.541
294.481
294.469
294.629
294.848
294.91
294.495
294.498
294.305
294.437
294.572
294.693
294.485
294.313
294.207
294.268
294.569
294.484
294.304
294.159
294.086
294.143
294.424
294.381
294.168
294.063
293.968
294.046
294.341
294.314
294.072
293.959
293.847
293.917
294.236
294.229
293.994
293.822
293.877
293.881
294.385
294.078
293.817
293.708
293.669
293.77
294.097
293.945
293.677
293.527
293.562
293.696
293.974
293.852
293.529
293.406
293.441
293.556
293.882
293.752
293.409
293.3
293.328
293.463
293.801
293.639
293.279
293.185
293.118
293.333
293.743
293.6
293.381
293.105
292.984
293.029
293.447
293.445
293.244
292.99
292.863
292.938
293.303
293.327
292.971
292.86
292.709
292.851
293.21
293.199
292.874
292.723
292.556
292.665
293.043
293.067
292.711
292.567
292.413
292.474
292.861
292.888
292.584
292.361
292.47
292.528
292.941
292.78
292.268
292.212
292.199
292.464
292.758
292.557
292.161
292.046
292.018
292.156
292.537
292.355
291.937
291.856
291.827
291.994
292.382
292.163
291.738
291.665
291.564
291.812
292.276
292.263
291.955
291.708
291.46
291.54
292.087
292.113
291.678
291.474
291.29
291.379
291.843
291.792
291.386
291.239
291.034
291.142
291.654
291.658
291.227
291.027
290.854
290.992
291.503
291.484
291.009
290.713
290.778
291.187
291.511
291.264
290.687
290.569
290.503
290.828
291.148
290.921
290.394
290.369
290.251
290.553
290.828
290.77
290.208
290.097
289.985
290.278
290.786
290.852
290.372
290.121
289.788
290.008
290.461
290.475
289.936
289.778
289.584
289.659
290.215
290.151
289.691
289.453
289.216
289.393
289.957
290.055
289.436
289.086
289.295
289.658
290.062
289.741
289.111
288.926
288.935
289.216
289.73
289.424
288.74
288.664
288.494
288.791
289.199
289.009
288.39
288.248
288.107
288.48
289.117
289.12
288.719
288.302
287.925
288.118
288.811
288.767
288.223
287.922
287.599
287.759
288.393
288.222
287.533
287.246
287.394
287.786
288.238
287.948
287.288
287.084
287.141
287.482
288.009
287.687
286.978
286.829
286.564
286.963
287.652
287.31
286.822
286.547
286.038
286.252
286.974
287.021
286.403
286.031
285.79
285.96
286.774
286.739
285.957
285.573
285.501
286.037
286.61
286.119
285.299
285.197
284.864
285.374
285.722
285.311
284.562
284.444
284.223
284.685
285.564
285.479
284.954
284.379
283.993
284.24
285.037
284.834
283.977
283.552
283.462
283.729
284.493
283.909
283.066
282.807
282.662
283.231
284.185
284.267
283.363
282.792
282.396
282.623
283.311
283.026
282.082
281.754
281.365
282.202
282.718
282.537
281.274
281.156
280.899
281.466
282.671
282.392
281.45
280.807
280.259
280.188
280.905
280.765
279.936
279.49
279.538
280.203
280.846
280.431
279.424
279.118
278.622
279.041
280.127
279.806
278.423
278.175
277.369
277.764
278.758
279.111
277.616
277.167
276.627
277.196
278.634
278.324
277.303
276.439
275.974
276.009
277.76
277.681
275.923
275.556
275.141
275.557
277.507
277.944
275.549
274.919
274.748
275.414
277.768
278.798
276.208
275.056
275.366
276.443
279.147
280.991
278.875
276.956
276.848
278.217
279.751
282.949
280.42
278.928
280.62
282.341
284.912
286.473
283.934
282.065
283.16
285.13
287.609
288.446
286.073
284.022
284.747
286.862
289.12
289.673
287.564
285.399
285.992
288.181
290.14
290.532
288.735
286.539
287.044
289.225
290.86
291.137
289.662
287.513
287.949
290.047
291.368
291.57
290.392
288.359
288.741
290.697
291.743
291.894
290.969
289.101
289.435
291.209
292.023
292.139
291.423
289.749
290.04
291.611
292.245
292.343
291.781
290.314
290.567
291.931
292.428
292.504
292.066
290.803
291.02
292.186
292.57
292.632
292.295
291.222
291.406
292.392
292.688
292.739
292.482
291.577
291.733
292.563
292.786
292.828
292.637
291.876
292.004
292.705
292.866
292.9
292.767
292.122
292.228
292.823
292.932
292.961
292.875
292.323
292.409
292.922
292.988
293.013
292.964
292.486
292.555
293.003
293.036
293.057
293.037
292.616
292.671
293.068
293.077
293.096
293.096
292.719
292.763
293.121
293.114
293.13
293.142
292.8
292.834
293.162
293.146
293.16
293.178
292.864
292.89
293.192
293.173
293.185
293.204
292.913
292.933
293.215
293.196
293.206
293.223
292.951
292.967
293.23
293.215
293.224
293.235
292.981
292.993
293.24
293.231
293.237
293.243
293.005
293.014
293.245
293.243
293.247
293.246
293.023
293.031
293.245
293.25
293.253
293.245
293.038
293.045
293.244
293.254
293.255
293.242
293.05
293.056
293.24
293.256
293.256
293.237
293.06
293.065
293.234
293.255
293.254
293.231
293.069
293.073
293.228
293.253
293.251
293.224
293.076
293.079
293.221
293.249
293.246
293.217
293.082
293.085
293.214
293.244
293.241
293.21
293.088
293.09
293.206
293.238
293.234
293.202
293.092
293.094
293.199
293.231
293.227
293.195
293.096
293.098
293.192
293.224
293.22
293.188
293.099
293.101
293.186
293.217
293.213
293.182
293.102
293.103
293.179
293.209
293.205
293.175
293.103
293.104
293.172
293.202
293.197
293.169
293.104
293.104
293.166
293.194
293.189
293.162
293.104
293.104
293.16
293.186
293.182
293.156
293.103
293.102
293.154
293.178
293.174
293.149
293.1
293.099
293.148
293.171
293.167
293.144
293.096
293.094
293.141
293.163
293.159
293.138
293.092
293.089
293.134
293.156
293.152
293.131
293.085
293.082
293.127
293.149
293.145
293.122
293.078
293.074
293.119
293.141
293.137
293.114
293.069
293.064
293.111
293.134
293.13
293.105
293.059
293.053
293.1
293.125
293.122
293.095
293.048
293.041
293.09
293.117
293.113
293.084
293.035
293.028
293.078
293.108
293.104
293.073
293.021
293.014
293.066
293.098
293.094
293.06
293.006
292.998
293.053
293.088
293.083
293.047
292.99
292.982
293.039
293.077
293.071
293.033
292.974
292.964
293.025
293.065
293.059
293.017
292.956
292.946
293.009
293.052
293.046
293.001
292.937
292.927
292.992
293.038
293.032
292.984
292.917
292.907
292.975
293.024
293.017
292.967
292.897
292.885
292.957
293.008
293.001
292.948
292.875
292.863
292.937
292.992
292.984
292.928
292.853
292.841
292.917
292.975
292.966
292.907
292.83
292.817
292.896
292.956
292.947
292.886
292.806
292.793
292.874
292.937
292.928
292.864
292.782
292.768
292.852
292.917
292.907
292.84
292.757
292.743
292.828
292.896
292.886
292.817
292.732
292.718
292.804
292.875
292.864
292.792
292.706
292.692
292.78
292.852
292.841
292.768
292.68
292.666
292.755
292.829
292.818
292.742
292.653
292.64
292.729
292.806
292.794
292.717
292.627
292.613
292.704
292.781
292.769
292.691
292.6
292.587
292.677
292.757
292.744
292.664
292.573
292.56
292.651
292.731
292.719
292.638
292.546
292.533
292.624
292.706
292.693
292.611
292.519
292.506
292.597
292.68
292.667
292.584
292.492
292.479
292.57
292.653
292.64
292.557
292.465
292.452
292.543
292.627
292.614
292.53
292.438
292.425
292.516
292.6
292.587
292.502
292.411
292.398
292.489
292.574
292.56
292.475
292.385
292.371
292.462
292.547
292.533
292.448
292.358
292.345
292.435
292.52
292.506
292.421
292.331
292.318
292.408
292.493
292.479
292.394
292.305
292.292
292.381
292.466
292.453
292.367
292.279
292.266
292.354
292.439
292.426
292.341
292.253
292.24
292.327
292.412
292.399
292.314
292.227
292.214
292.301
292.386
292.373
292.288
292.202
292.189
292.275
292.359
292.346
292.262
292.176
292.164
292.249
292.333
292.32
292.236
292.151
292.139
292.223
292.307
292.294
292.21
292.126
292.114
292.197
292.281
292.268
292.185
292.102
292.089
292.172
292.255
292.242
292.159
292.077
292.065
292.147
292.23
292.217
292.134
292.053
292.041
292.122
292.204
292.192
292.11
292.03
292.018
292.097
292.179
292.167
292.085
292.006
291.994
292.073
292.154
292.142
292.061
291.983
291.971
292.049
292.13
292.117
292.037
291.96
291.949
292.025
292.105
292.093
292.014
291.938
291.926
292.002
292.081
292.069
291.991
291.916
291.905
291.979
292.057
292.046
291.968
291.894
291.883
291.956
292.034
292.022
291.945
291.873
291.862
291.934
292.01
291.999
291.923
291.852
291.841
291.912
291.988
291.976
291.902
291.831
291.821
291.891
291.965
291.954
291.88
291.811
291.802
291.87
291.943
291.932
291.86
291.792
291.782
291.849
291.921
291.911
291.839
291.773
291.763
291.829
291.9
291.89
291.819
291.754
291.745
291.809
291.879
291.869
291.8
291.736
291.726
291.79
291.859
291.849
291.781
291.718
291.709
291.771
291.839
291.829
291.762
291.7
291.691
291.753
291.819
291.81
291.744
291.683
291.674
291.735
291.8
291.791
291.726
291.666
291.658
291.717
291.781
291.772
291.708
291.649
291.641
291.7
291.763
291.754
291.691
291.633
291.625
291.683
291.745
291.737
291.675
291.617
291.61
291.666
291.728
291.719
291.658
291.602
291.594
291.65
291.711
291.703
291.643
291.587
291.579
291.635
291.694
291.686
291.627
291.572
291.564
291.619
291.678
291.67
291.612
291.557
291.55
291.604
291.662
291.654
291.597
291.543
291.536
291.589
291.647
291.639
291.582
291.529
291.522
291.575
291.631
291.624
291.568
291.515
291.508
291.561
291.617
291.609
291.554
291.501
291.495
291.547
291.602
291.595
291.54
291.488
291.481
291.533
291.588
291.581
291.526
291.475
291.468
291.52
291.574
291.567
291.513
291.462
291.455
291.506
291.56
291.554
291.5
291.449
291.443
291.493
291.547
291.54
291.487
291.436
291.43
291.481
291.533
291.527
291.474
291.424
291.418
291.468
291.52
291.514
291.462
291.412
291.406
291.456
291.507
291.502
291.449
291.4
291.394
291.444
291.495
291.49
291.438
291.389
291.382
291.432
291.482
291.477
291.426
291.377
291.371
291.42
291.47
291.465
291.415
291.366
291.36
291.408
291.458
291.454
291.403
291.354
291.348
291.396
291.446
291.442
291.392
291.343
291.337
291.385
291.435
291.43
291.381
291.332
291.327
291.374
291.423
291.419
291.37
291.322
291.316
291.363
291.412
291.408
291.359
291.311
291.306
291.353
291.401
291.397
291.349
291.301
291.295
291.342
291.39
291.386
291.338
291.291
291.285
291.331
291.379
291.376
291.328
291.28
291.275
291.321
291.369
291.365
291.318
291.27
291.265
291.311
291.358
291.355
291.308
291.261
291.255
291.301
291.348
291.344
291.298
291.251
291.246
291.291
291.338
291.334
291.288
291.241
291.236
291.282
291.328
291.324
291.278
291.232
291.227
291.272
291.318
291.314
291.269
291.222
291.217
291.262
291.308
291.305
291.26
291.213
291.208
291.253
291.298
291.295
291.25
291.204
291.199
291.244
291.289
291.286
291.241
291.195
291.19
291.234
291.279
291.276
291.232
291.186
291.181
291.225
291.27
291.267
291.223
291.177
291.173
291.217
291.261
291.258
291.214
291.169
291.164
291.208
291.252
291.248
291.205
291.16
291.156
291.199
291.243
291.239
291.197
291.151
291.147
291.191
291.234
291.23
291.188
291.143
291.139
291.182
291.226
291.221
291.179
291.135
291.131
291.174
291.217
291.213
291.17
291.126
291.123
291.166
291.208
291.204
291.162
291.118
291.115
291.158
291.2
291.196
291.154
291.11
291.107
291.149
291.192
291.187
291.146
291.102
291.099
291.141
291.183
291.179
291.138
291.094
291.091
291.134
291.175
291.17
291.129
291.087
291.084
291.126
291.167
291.162
291.121
291.079
291.076
291.118
291.159
291.154
291.114
291.072
291.068
291.11
291.151
291.146
291.107
291.064
291.061
291.103
291.143
291.138
291.098
291.056
291.054
291.096
291.135
291.13
291.09
291.049
291.046
291.088
291.127
291.123
291.083
291.042
291.038
291.081
291.119
291.115
291.075
291.035
291.031
291.073
291.112
291.107
291.068
291.027
291.024
291.065
291.104
291.1
291.061
291.02
291.017
291.058
291.096
291.093
291.054
291.013
291.011
291.051
291.089
291.085
291.046
291.006
291.003
291.044
291.081
291.078
291.04
291
290.996
291.037
291.074
291.071
291.033
290.993
290.989
291.029
291.066
291.064
291.027
290.986
290.982
291.022
291.059
291.056
291.02
290.979
290.976
291.015
291.052
291.049
291.013
290.972
290.969
291.008
291.045
291.042
291.006
290.966
290.962
291.001
291.038
291.035
290.999
290.959
290.956
290.994
291.031
291.028
290.992
290.952
290.949
290.988
291.025
291.021
290.986
290.946
290.943
290.981
291.018
291.014
290.979
290.939
290.936
290.975
291.011
291.007
290.972
290.933
290.93
290.969
291.005
291
290.965
290.927
290.924
290.963
290.998
290.994
290.958
290.92
290.917
290.956
290.991
290.987
290.952
290.914
290.911
290.95
290.985
290.981
290.945
290.908
290.905
290.944
290.978
290.974
290.939
290.902
290.899
290.937
290.972
290.968
290.933
290.896
290.893
290.931
290.965
290.961
290.927
290.89
290.887
290.925
290.959
290.955
290.921
290.884
290.881
290.919
290.953
290.949
290.915
290.878
290.875
290.913
290.947
290.943
290.909
290.872
290.869
290.907
290.941
290.937
290.903
290.866
290.863
290.901
290.934
290.931
290.897
290.86
290.858
290.895
290.928
290.925
290.891
290.855
290.852
290.889
290.922
290.919
290.885
290.849
290.846
290.883
290.917
290.913
290.879
290.842
290.841
290.877
290.911
290.906
290.873
290.837
290.835
290.871
290.904
290.899
290.867
290.831
290.828
290.864
290.895
290.886
290.86
290.825
290.824
290.858
290.88
290.862
290.849
290.815
290.807
290.84
290.87
290.865
290.84
290.804
290.798
290.836
290.862
290.726
290.673
290.568
290.464
290.374
290.277
290.185
290.095
290.009
289.926
289.847
289.769
289.687
289.597
289.505
289.413
289.311
289.235
289.171
289.062
288.955
288.859
288.773
288.696
288.628
288.569
288.517
288.473
288.434
288.401
288.373
288.349
288.328
288.31
288.295
288.282
288.271
288.261
288.253
288.246
288.24
288.234
288.229
288.225
288.222
288.219
288.216
288.213
288.211
288.21
288.208
288.206
288.205
288.204
288.203
288.202
288.202
288.201
288.201
288.2
288.2
288.2
288.2
288.2
288.199
288.199
288.199
288.199
288.199
288.198
288.198
288.198
288.197
288.197
288.196
288.196
288.196
288.195
288.195
288.194
288.194
288.193
288.193
288.192
288.192
288.191
288.191
288.191
288.19
288.19
288.19
288.189
288.189
288.189
288.189
288.189
288.189
288.189
288.189
288.188
288.188
288.187
288.187
288.186
288.185
288.184
288.183
288.183
288.184
288.185
288.187
288.19
288.194
288.199
288.204
288.211
288.219
288.227
288.237
288.247
288.258
288.271
288.284
288.298
288.314
288.33
288.348
288.366
288.386
288.407
288.429
288.453
288.478
288.504
288.532
288.561
288.592
288.625
288.659
288.695
288.733
288.773
288.815
288.859
288.905
288.954
289.004
289.057
289.112
289.17
289.23
289.293
289.358
289.425
289.496
289.568
289.644
289.722
289.802
289.885
289.97
290.058
290.148
290.24
290.334
290.43
290.528
290.629
290.73
290.833
290.938
291.044
291.151
291.259
291.367
291.476
291.586
291.696
291.806
291.916
292.026
292.136
292.245
292.353
292.461
292.568
292.675
292.78
292.884
292.986
293.088
293.188
293.286
293.383
293.479
293.572
293.664
293.755
293.844
293.93
294.016
294.099
294.18
294.26
294.338
294.414
294.488
294.561
294.632
294.701
294.768
294.833
294.897
294.959
295.02
295.078
295.136
295.191
295.245
295.298
295.349
295.398
295.446
295.493
295.538
295.582
295.625
295.666
295.706
295.745
295.783
295.819
295.855
295.889
295.922
295.954
295.985
296.015
296.044
296.072
296.099
296.126
296.151
296.176
296.199
296.222
296.244
296.266
296.286
296.306
296.325
296.344
296.361
296.378
296.395
296.411
296.426
296.441
296.455
296.469
296.482
296.494
296.506
296.518
296.529
296.54
296.55
296.56
296.569
296.578
296.587
296.595
296.603
296.61
296.617
296.624
296.63
296.636
296.642
296.647
296.652
296.656
296.661
296.664
296.668
296.671
296.674
296.677
296.679
296.681
296.683
296.684
296.685
296.687
296.687
296.688
296.689
296.689
296.69
296.69
296.69
296.691
296.691
296.691
296.691
296.691
296.691
296.691
296.691
296.691
296.691
296.691
296.691
296.692
296.692
296.692
296.692
296.692
296.692
296.692
296.693
296.694
296.697
296.701
296.705
296.711
296.717
296.724
296.731
296.738
296.745
296.752
296.759
296.767
296.774
296.782
296.79
296.798
296.806
296.814
296.822
296.83
296.839
296.847
296.856
296.864
296.873
296.882
296.89
296.899
296.908
296.917
296.926
296.934
296.943
296.952
296.961
296.97
296.978
296.987
296.996
297.005
297.013
297.022
297.03
297.039
297.047
297.055
297.063
297.072
297.079
297.087
297.095
297.103
297.11
297.118
297.125
297.132
297.139
297.146
297.152
297.159
297.165
297.171
297.178
297.184
297.19
297.195
297.199
297.201
297.202
297.203
297.203
297.202
297.202
297.201
297.2
297.2
297.199
297.199
297.2
297.201
297.204
297.208
297.218
297.218
297.219
297.221
297.223
297.226
297.229
297.232
297.236
297.24
297.243
297.247
297.251
297.256
297.26
297.264
297.268
297.272
297.276
297.28
297.284
297.288
297.292
297.296
297.3
297.304
297.308
297.312
297.316
297.32
297.325
297.328
297.333
297.336
297.341
297.344
297.349
297.353
297.358
297.361
297.366
297.369
297.375
297.378
297.384
297.387
297.393
297.396
297.402
297.405
297.411
297.414
297.421
297.424
297.43
297.434
297.441
297.444
297.451
297.454
297.461
297.465
297.472
297.476
297.484
297.487
297.495
297.499
297.507
297.511
297.519
297.523
297.532
297.536
297.545
297.549
297.558
297.563
297.572
297.576
297.586
297.591
297.6
297.605
297.615
297.62
297.631
297.636
297.647
297.652
297.663
297.668
297.68
297.685
297.697
297.703
297.715
297.721
297.734
297.74
297.753
297.759
297.772
297.779
297.792
297.799
297.813
297.82
297.834
297.842
297.856
297.864
297.879
297.887
297.902
297.91
297.926
297.934
297.951
297.959
297.976
297.984
298.002
298.011
298.028
298.037
298.056
298.065
298.084
298.093
298.112
298.122
298.142
298.152
298.172
298.182
298.203
298.213
298.234
298.245
298.266
298.277
298.299
298.31
298.332
298.344
298.366
298.378
298.4
298.413
298.435
298.448
298.471
298.483
298.506
298.519
298.542
298.555
298.579
298.592
298.615
298.629
298.652