/*--------------------------------*- C++ -*----------------------------------*\
| =========                 |                                                 |
| \\      /  F ield         | OpenFOAM: The Open Source CFD Toolbox           |
|  \\    /   O peration     | Version:  v2006                                 |
|   \\  /    A nd           | Website:  www.openfoam.com                      |
|    \\/     M anipulation  |                                                 |
\*---------------------------------------------------------------------------*/
FoamFile
{
    version     2.0;
    format      ascii;
    class       volScalarField;
    location    "0.142";
    object      Ma;
}
// * * * * * * * * * * * * * * * * * * * * * * * * * * * * * * * * * * * * * //

dimensions      [0 0 0 0 0 0 0];


internalField   nonuniform List<scalar> 
16277
(
0.139391
0.139393
0.139392
0.13939
0.13939
0.139384
0.139369
0.139325
0.139222
0.139061
0.138855
0.138629
0.138396
0.138162
0.137925
0.137685
0.137437
0.137179
0.136911
0.136631
0.13634
0.136038
0.135725
0.1354
0.135066
0.13472
0.134364
0.133998
0.133622
0.133236
0.13284
0.132435
0.132021
0.131598
0.131167
0.130728
0.130281
0.129828
0.129367
0.1289
0.128427
0.127949
0.127466
0.126978
0.126487
0.125992
0.125494
0.124994
0.124492
0.123989
0.123485
0.122981
0.122477
0.121975
0.121474
0.120976
0.12048
0.119988
0.1195
0.119016
0.118538
0.118066
0.1176
0.117142
0.116691
0.116249
0.115815
0.115391
0.114977
0.114573
0.114181
0.1138
0.113431
0.113075
0.112732
0.112403
0.112087
0.111783
0.111487
0.111196
0.110909
0.110633
0.11039
0.11022
0.110144
0.110143
0.110172
0.110207
0.110235
0.110233
0.110211
0.110141
0.109963
0.109665
0.10918
0.108623
0.106572
0.105257
0.108647
0.109317
0.109386
0.108499
0.103773
0.102305
0.108323
0.10945
0.109443
0.108053
0.100955
0.0997109
0.107767
0.109402
0.109289
0.107397
0.0985498
0.0975003
0.107061
0.10917
0.108999
0.106678
0.0965076
0.0956377
0.106347
0.108846
0.108639
0.105946
0.0947951
0.0940429
0.105608
0.108453
0.108216
0.105199
0.0933007
0.0926302
0.104859
0.108009
0.107754
0.104449
0.0919647
0.0913631
0.104117
0.107539
0.107264
0.103704
0.0907493
0.0901906
0.103372
0.107034
0.106742
0.102953
0.0896135
0.0890908
0.102624
0.106503
0.106204
0.10221
0.0885513
0.0880587
0.101886
0.10596
0.105652
0.101472
0.0875445
0.0870736
0.10115
0.105401
0.105085
0.100735
0.0865788
0.0861248
0.100414
0.104828
0.104503
0.0999981
0.0856451
0.0852042
0.0996771
0.104239
0.103906
0.0992582
0.084736
0.0843048
0.0989357
0.103636
0.103294
0.0985132
0.0838451
0.0834208
0.0981878
0.103016
0.102664
0.0977609
0.082967
0.0825475
0.0974316
0.102379
0.102018
0.0969995
0.0820977
0.0816811
0.0966655
0.101724
0.101353
0.0962276
0.0812337
0.0808185
0.0958878
0.101051
0.100669
0.0954433
0.0803721
0.0799568
0.0950968
0.100357
0.0999648
0.0946449
0.07951
0.0790935
0.0942908
0.0996427
0.0992389
0.093831
0.0786453
0.0782264
0.0934689
0.098906
0.0984901
0.0930002
0.0777753
0.0773528
0.0926291
0.0981459
0.0977173
0.0921507
0.0768979
0.0764708
0.0917699
0.0973611
0.0969191
0.0912809
0.076011
0.0755781
0.0908895
0.0965502
0.0960943
0.0903892
0.0751123
0.0746727
0.0899862
0.0957119
0.0952413
0.0894739
0.0741998
0.0737524
0.0890585
0.0948447
0.0943589
0.0885333
0.0732716
0.0728156
0.0881048
0.0939475
0.0934457
0.0875661
0.0723259
0.0718605
0.0871236
0.0930188
0.0925006
0.0865708
0.0713611
0.0708855
0.0861138
0.0920577
0.0915226
0.0855464
0.0703758
0.0698895
0.0850743
0.0910632
0.0905109
0.0844919
0.0693692
0.0688718
0.0840044
0.0900347
0.0894652
0.0834069
0.0683406
0.0678323
0.0829041
0.0889721
0.0883855
0.0822918
0.0672904
0.0667717
0.081774
0.0878759
0.0872728
0.0811475
0.0662198
0.0656918
0.0806156
0.0867475
0.0861289
0.0799762
0.0651311
0.064595
0.0794317
0.0855893
0.0849568
0.0787811
0.0640272
0.0634852
0.0782259
0.0844046
0.0837605
0.0775665
0.0629128
0.0623679
0.0770036
0.0831983
0.0825457
0.0763389
0.0617942
0.0612504
0.0757721
0.0819772
0.0813204
0.0751066
0.0606801
0.0601426
0.0745412
0.0807503
0.0800945
0.0738808
0.0595813
0.0590568
0.0733234
0.0795289
0.0788812
0.0726755
0.0585121
0.0580088
0.0721343
0.0783279
0.0776968
0.071508
0.0574898
0.0570179
0.0709933
0.0771653
0.0765615
0.0703999
0.0565356
0.0561073
0.069924
0.0760634
0.0754996
0.0693768
0.0556748
0.0553041
0.0689542
0.0750485
0.0745387
0.0684683
0.054936
0.0546417
0.0681129
0.0741499
0.0737106
0.0677059
0.054353
0.0541652
0.0674349
0.0733981
0.073047
0.0671248
0.0539676
0.0538993
0.0669592
0.0728345
0.0725839
0.0667602
0.0538026
0.0538654
0.066714
0.0724857
0.072347
0.0666368
0.0538774
0.0540751
0.0667171
0.0723711
0.0723522
0.0667678
0.0541986
0.0545174
0.0669664
0.0724921
0.0725852
0.0671328
0.0547487
0.0552013
0.0674661
0.0728581
0.0730787
0.0677651
0.0555627
0.0561432
0.0682367
0.0734903
0.0738319
0.0686553
0.0566074
0.0572524
0.0692142
0.074334
0.0747591
0.0697106
0.0577705
0.0584532
0.0703324
0.0753307
0.0758155
0.0708804
0.0589974
0.0596932
0.0715394
0.0764334
0.0769582
0.0721172
0.0602425
0.0609336
0.0727938
0.077604
0.0781502
0.073382
0.0614705
0.0621403
0.0740573
0.0788054
0.0793551
0.0746379
0.0626478
0.0632817
0.0752953
0.0800027
0.0805399
0.0758523
0.0637465
0.0643333
0.0764777
0.0811654
0.0816764
0.0769981
0.0647453
0.0652765
0.0775808
0.0822677
0.0827415
0.0780542
0.0656286
0.0660991
0.0785853
0.0832891
0.0837169
0.0790025
0.0663899
0.0667968
0.0794768
0.0842139
0.0845881
0.0798316
0.0670303
0.0673704
0.0802472
0.0850306
0.0853507
0.0805416
0.0675472
0.067823
0.0808984
0.0857376
0.0860039
0.0811337
0.0679461
0.0681624
0.0814341
0.0863357
0.08655
0.0816136
0.0682372
0.0684006
0.0818616
0.0868298
0.0869959
0.0819905
0.0684336
0.0685529
0.0821923
0.0872292
0.0873525
0.0822772
0.0685517
0.0686357
0.0824397
0.0875456
0.0876322
0.0824879
0.0686082
0.0686651
0.0826177
0.0877911
0.087847
0.082636
0.0686179
0.0686546
0.0827393
0.0879778
0.0880083
0.082733
0.0685921
0.0686134
0.0828148
0.088116
0.0881263
0.0827893
0.0685397
0.0685499
0.0828543
0.0882158
0.0882101
0.0828143
0.068469
0.0684714
0.082866
0.0882852
0.088266
0.0828135
0.0683844
0.068384
0.0828575
0.088331
0.0883016
0.0827973
0.0682958
0.0682913
0.0828328
0.0883561
0.0883192
0.0827681
0.0682047
0.0681991
0.0827985
0.088367
0.0883225
0.0827269
0.0681089
0.0681072
0.0827577
0.0883682
0.0883186
0.082682
0.0680157
0.0680104
0.0827067
0.0883583
0.0883078
0.0826326
0.0679238
0.0679163
0.0826529
0.0883424
0.088287
0.0825747
0.0678275
0.0678271
0.0825992
0.0883241
0.0882642
0.0825163
0.0677347
0.0677357
0.0825412
0.0883009
0.0882442
0.0824628
0.0676479
0.0676442
0.0824819
0.0882761
0.0882219
0.0824077
0.0675622
0.0675637
0.0824304
0.0882562
0.0881973
0.0823513
0.0674777
0.067496
0.0823904
0.0882579
0.0882173
0.0823281
0.0674129
0.0675123
0.0824012
0.0883016
0.0882866
0.0824078
0.0674902
0.0677108
0.0826148
0.088474
0.0886396
0.0828561
0.0681372
0.0689715
0.0834242
0.0891688
0.0907126
0.0857216
0.0722825
0.0715762
0.0829917
0.0882011
0.0916136
0.0941282
0.0955833
0.0960828
0.0963889
0.0969933
0.0972354
0.0975013
0.0976208
0.097723
0.0977455
0.0977136
0.0976397
0.0974449
0.0972431
0.0967369
0.0964484
0.096127
0.095732
0.0950531
0.0933248
0.0895886
0.0817478
0.0717652
0.0511915
0.0495935
0.0707418
0.0809391
0.0801043
0.0697813
0.0483119
0.0475401
0.0691511
0.0795504
0.079279
0.0688845
0.046949
0.0468444
0.0687596
0.0791921
0.0790761
0.0686534
0.0465274
0.0465173
0.0685844
0.0790835
0.0790984
0.0685978
0.0465341
0.0465632
0.0686233
0.0791215
0.0791485
0.0686591
0.0466051
0.0466496
0.0687016
0.0791836
0.0792166
0.0687452
0.0466975
0.0467514
0.0687953
0.0792569
0.0792974
0.0688455
0.0468071
0.0468623
0.0688986
0.0793423
0.0793818
0.0689493
0.0469173
0.0469756
0.0690032
0.0794262
0.0794692
0.0690577
0.0470351
0.047096
0.0691145
0.0795166
0.0795593
0.0691684
0.0471548
0.0472166
0.0692258
0.0796067
0.0796527
0.0692834
0.0472799
0.0473428
0.0693422
0.0797016
0.0797465
0.0693983
0.0474048
0.0474681
0.069457
0.0797952
0.0798422
0.0695157
0.0475337
0.0475985
0.0695757
0.0798927
0.0799403
0.0696336
0.0476619
0.0477296
0.0696963
0.0799915
0.0800391
0.0697577
0.0477999
0.0478682
0.069821
0.0800917
0.0801408
0.0698819
0.0479356
0.0480041
0.0699453
0.0801935
0.0802447
0.0700091
0.0480756
0.0481463
0.0700746
0.0802995
0.0803505
0.0701378
0.0482162
0.0482885
0.0702044
0.0804062
0.080459
0.0702699
0.0483605
0.0484345
0.0703381
0.0805166
0.0805707
0.0704043
0.048507
0.04858
0.0704721
0.0806281
0.0806846
0.0705409
0.0486546
0.0487288
0.0706103
0.0807443
0.0808015
0.0706788
0.0488022
0.048878
0.0707504
0.0808633
0.0809225
0.070821
0.0489527
0.0490288
0.070894
0.0809864
0.0810471
0.0709652
0.0491023
0.0491783
0.0710398
0.0811128
0.0811777
0.0711149
0.0492538
0.0493282
0.071191
0.0812466
0.0813127
0.0712663
0.0494008
0.0494757
0.0713442
0.0813829
0.0814538
0.0714214
0.0495478
0.0496186
0.0715014
0.0815312
0.0816065
0.0715807
0.0496872
0.049759
0.0716655
0.0816868
0.0817654
0.0717505
0.049831
0.0499006
0.0718385
0.0818519
0.0819386
0.0719272
0.0499673
0.0500348
0.0720204
0.0820323
0.0821267
0.0721163
0.050101
0.0501655
0.0722145
0.0822265
0.0823274
0.0723143
0.0502262
0.0502877
0.07242
0.0824366
0.0825489
0.0725293
0.0503474
0.0504052
0.0726438
0.0826692
0.0827912
0.0727611
0.0504603
0.0505158
0.072886
0.0829232
0.0830609
0.0730174
0.0505715
0.0506262
0.0731565
0.0832094
0.0833614
0.073302
0.0506822
0.0507406
0.0734552
0.0835223
0.0836933
0.0736173
0.0508018
0.0508673
0.073793
0.0838803
0.0840728
0.073981
0.0509433
0.0510339
0.0741859
0.0842776
0.0844919
0.0744055
0.0511385
0.0512573
0.0746442
0.0847242
0.084969
0.0749006
0.0513949
0.0515613
0.0751839
0.0852347
0.0855138
0.0754902
0.0517598
0.0519942
0.0758182
0.0858019
0.0861101
0.0761669
0.0522621
0.0525783
0.0765543
0.0864521
0.0868108
0.0769751
0.0529517
0.0534064
0.0774502
0.0871939
0.0875906
0.0779701
0.0539516
0.0545817
0.0785357
0.088011
0.0884737
0.0791443
0.0552896
0.0561313
0.0798479
0.0890132
0.0896181
0.0806778
0.0571986
0.0585425
0.0816333
0.090278
0.0909327
0.0826133
0.0598845
0.0611479
0.0835582
0.0915409
0.0920275
0.0843425
0.0623772
0.0634491
0.0847865
0.09235
0.0926055
0.0854252
0.0644962
0.065456
0.0857923
0.0928125
0.0929591
0.0861992
0.0665239
0.0676579
0.0866062
0.0931195
0.0931463
0.0868898
0.0686794
0.0695672
0.0871472
0.0931321
0.0931221
0.087434
0.0705518
0.07163
0.08771
0.0931139
0.0930643
0.0879369
0.0727421
0.0733567
0.0881351
0.0928849
0.0922694
0.0877336
0.0733356
0.0584287
0.080736
0.0891916
0.0916542
0.084061
0.0620512
0.0621617
0.0843692
0.0917695
0.091618
0.0845314
0.0631051
0.0643316
0.0845988
0.0914308
0.091514
0.0850605
0.0658019
0.0674213
0.0853939
0.0915046
0.091593
0.0859151
0.0689855
0.070524
0.0861987
0.0914581
0.0913898
0.0866283
0.0720753
0.0734198
0.0869154
0.0913417
0.0912965
0.0872189
0.0746055
0.0751597
0.0870945
0.0907081
0.0882901
0.0817074
0.0646928
0.0685622
0.0848468
0.0903238
0.0903331
0.0851692
0.0696491
0.0711773
0.0857396
0.0903822
0.0904081
0.0860746
0.0723781
0.0735702
0.0862858
0.0902526
0.09021
0.0865943
0.0747411
0.0753831
0.086614
0.0899024
0.0892563
0.0862432
0.0755875
0.0666329
0.0817884
0.0871618
0.0886306
0.084144
0.0700954
0.0709531
0.0844129
0.0884788
0.088093
0.0844817
0.0721855
0.0733166
0.0844107
0.0877043
0.087362
0.0845143
0.07453
0.0749234
0.0840326
0.0865012
0.0845558
0.0800811
0.0671914
0.0709772
0.0822936
0.0857609
0.0855932
0.0824467
0.0720799
0.0730556
0.0823482
0.0851589
0.084569
0.0822974
0.0738076
0.0738436
0.0815098
0.0835356
0.0818052
0.0782464
0.067313
0.070224
0.0797965
0.0824331
0.0816412
0.0792721
0.0707208
0.0715636
0.0788428
0.0807432
0.0793296
0.0778268
0.0715058
0.0662047
0.0749786
0.0776842
0.0777092
0.0758108
0.0687265
0.0689251
0.0747958
0.076365
0.074777
0.0736547
0.0688144
0.0677124
0.0717652
0.0724593
0.0701433
0.0686874
0.0630963
0.0635383
0.0675613
0.0684353
0.0650136
0.064743
0.0615294
0.0568053
0.060823
0.0618596
0.0586822
0.0581261
0.0559801
0.0517632
0.0526422
0.0525454
0.0451967
0.0449136
0.0437129
0.0348443
0.0347395
0.0351679
0.0239779
0.0220353
0.0206131
0.00593601
0.00913452
0.0150061
0.0295562
0.0279336
0.0283257
0.0536049
0.0519362
0.05122
0.0693133
0.0707709
0.0722001
0.0833221
0.0831535
0.0822561
0.086692
0.0866228
0.0854328
0.0890252
0.0917148
0.0917553
0.0932352
0.092455
0.0890042
0.090928
0.0952449
0.0959036
0.0968127
0.0954962
0.0901816
0.0876045
0.0942003
0.0964587
0.0983669
0.0967179
0.0897849
0.086758
0.0949979
0.0974746
0.0994253
0.0976723
0.0904563
0.089418
0.0970126
0.0994393
0.0981301
0.0950626
0.0865149
0.089816
0.0977686
0.0997827
0.0995348
0.0966433
0.0881141
0.0850928
0.094514
0.0981017
0.0997764
0.0975817
0.0889496
0.0872243
0.096388
0.0994711
0.0977642
0.0939102
0.0838017
0.0879171
0.0969626
0.0993621
0.0992345
0.0960373
0.0866128
0.0830724
0.0933746
0.097459
0.0990916
0.0965551
0.0875548
0.0865352
0.095837
0.0990861
0.0972742
0.0932067
0.0829396
0.0867782
0.0961606
0.0989204
0.0988526
0.0954987
0.085868
0.0826735
0.0929767
0.0970325
0.0988352
0.0959911
0.0865683
0.0855102
0.0952775
0.0986749
0.0967933
0.0927157
0.0822213
0.086438
0.0957887
0.0986716
0.0984897
0.095358
0.0855939
0.0836544
0.0941847
0.0978917
0.0956688
0.0907987
0.0793353
0.08414
0.0946228
0.0976744
0.0978482
0.093845
0.0827371
0.0787016
0.0909888
0.0958391
0.0978378
0.0946753
0.0836271
0.0821963
0.0936917
0.0976313
0.0953716
0.0906169
0.078464
0.0835268
0.0944117
0.097629
0.0977098
0.093863
0.0826879
0.0788911
0.090957
0.0955163
0.097664
0.0945038
0.0833635
0.0823233
0.0935876
0.0976524
0.0956053
0.0908449
0.0786905
0.0836194
0.0947052
0.0979181
0.0978952
0.0939761
0.0824236
0.0788331
0.0906835
0.0955948
0.097941
0.0944728
0.0835958
0.0824113
0.0939606
0.0979015
0.0957186
0.0910537
0.0793487
0.0844445
0.0950965
0.098134
0.0982955
0.0943361
0.0826677
0.0787395
0.0908352
0.0960237
0.0983679
0.0949452
0.0836075
0.0810992
0.0929862
0.0970916
0.099613
0.0966938
0.0863599
0.0857811
0.0961117
0.0997269
0.097729
0.0934087
0.0826339
0.0867015
0.0968082
0.0999228
0.099786
0.0960276
0.0854843
0.0823742
0.0934729
0.0979258
0.100464
0.0973546
0.0872111
0.0866252
0.0970448
0.100639
0.098583
0.0944002
0.0836295
0.0878707
0.0979739
0.100759
0.100694
0.096938
0.0862594
0.0826437
0.0940581
0.0988279
0.101177
0.0980342
0.0876778
0.0868465
0.0977765
0.101446
0.0993209
0.0948372
0.0837178
0.0878505
0.0986443
0.101713
0.100375
0.0964883
0.085118
0.0888889
0.0995266
0.102537
0.102466
0.0987838
0.0879066
0.0851979
0.0963185
0.100673
0.103171
0.10019
0.0898258
0.0888532
0.0998101
0.103294
0.101115
0.0967822
0.0857137
0.0898284
0.100587
0.103558
0.102198
0.0982889
0.0870133
0.0911474
0.101416
0.10439
0.104642
0.101096
0.0908201
0.0881115
0.0987462
0.102979
0.105302
0.102299
0.0922537
0.0912978
0.101886
0.105339
0.103188
0.0989665
0.088129
0.0919194
0.102646
0.105587
0.104152
0.100213
0.0888973
0.0930325
0.10329
0.106208
0.106613
0.103112
0.0928274
0.0900953
0.100876
0.104983
0.107185
0.104424
0.0942444
0.09344
0.1037
0.107407
0.105394
0.101058
0.089698
0.0933832
0.104723
0.107678
0.106203
0.102226
0.0907783
0.0951242
0.105548
0.108361
0.108608
0.105015
0.0944073
0.0914595
0.102385
0.106809
0.109307
0.106374
0.095614
0.0934075
0.104513
0.108302
0.110672
0.1079
0.0977509
0.096726
0.106976
0.110488
0.108276
0.103986
0.0931751
0.0964641
0.107437
0.110462
0.109447
0.105402
0.0942837
0.0991949
0.109181
0.112007
0.112097
0.108552
0.0985902
0.0952798
0.105903
0.110162
0.112569
0.109749
0.0990907
0.0968928
0.107726
0.111513
0.113675
0.110998
0.100975
0.0996956
0.110006
0.113447
0.111179
0.10684
0.0960163
0.0998797
0.110572
0.113416
0.112713
0.109068
0.0981031
0.102468
0.112625
0.115233
0.115412
0.11195
0.101938
0.0982603
0.109347
0.113435
0.115762
0.112891
0.101672
0.0995634
0.110577
0.11455
0.116783
0.114102
0.103384
0.100701
0.111537
0.115308
0.117185
0.114484
0.10436
0.103925
0.113937
0.117466
0.115837
0.111629
0.101068
0.10495
0.11552
0.118304
0.117333
0.113606
0.102836
0.106793
0.116966
0.119569
0.119527
0.115949
0.105917
0.10216
0.113368
0.117502
0.119768
0.116836
0.105353
0.102744
0.114184
0.11828
0.120418
0.117626
0.106407
0.104717
0.115848
0.119548
0.121982
0.119437
0.109376
0.108424
0.118805
0.122135
0.120302
0.116041
0.10555
0.109051
0.119871
0.122657
0.121417
0.11766
0.106398
0.110345
0.12113
0.123776
0.122596
0.119051
0.108335
0.111708
0.12186
0.124521
0.124286
0.120712
0.110546
0.107169
0.118163
0.122406
0.124917
0.122168
0.111165
0.109211
0.120224
0.124011
0.126424
0.123891
0.113188
0.111232
0.12191
0.125437
0.127586
0.125072
0.115185
0.114266
0.124335
0.12759
0.125716
0.121579
0.111227
0.114388
0.125128
0.127909
0.126526
0.12273
0.111641
0.115033
0.125981
0.12874
0.127767
0.124058
0.113211
0.117426
0.12742
0.129998
0.130159
0.126879
0.116532
0.11361
0.124088
0.128304
0.130584
0.128028
0.11697
0.114345
0.126031
0.129547
0.131852
0.1294
0.11826
0.11613
0.127205
0.130742
0.132797
0.130251
0.120076
0.118824
0.12938
0.132653
0.130477
0.12607
0.115452
0.118744
0.129834
0.132653
0.131785
0.12799
0.116488
0.120935
0.13187
0.134493
0.133467
0.1298
0.119012
0.122714
0.133293
0.135806
0.134753
0.131291
0.120734
0.12446
0.13436
0.136811
0.136816
0.133383
0.123738
0.120229
0.130938
0.134981
0.137217
0.13438
0.123144
0.120771
0.132001
0.135955
0.138139
0.135373
0.12395
0.121612
0.132989
0.136872
0.139212
0.136599
0.125835
0.124075
0.134703
0.13831
0.14056
0.138102
0.128218
0.127266
0.137511
0.140687
0.138885
0.13464
0.124356
0.127632
0.138563
0.141198
0.140133
0.136463
0.125021
0.128784
0.139924
0.142528
0.141281
0.137597
0.126565
0.130199
0.140905
0.143444
0.142249
0.138655
0.128065
0.131566
0.141611
0.144227
0.144294
0.141036
0.13064
0.127962
0.138181
0.142532
0.144907
0.142307
0.1313
0.128687
0.140304
0.143971
0.146449
0.143919
0.132698
0.130573
0.141652
0.145307
0.147469
0.144932
0.134125
0.131997
0.14278
0.14638
0.148456
0.145939
0.135908
0.135246
0.144966
0.148502
0.146632
0.142617
0.131465
0.134355
0.145996
0.148894
0.147679
0.143589
0.13205
0.136109
0.147547
0.150225
0.149157
0.145345
0.134151
0.137941
0.148999
0.151597
0.150467
0.146813
0.135871
0.139399
0.150139
0.152703
0.151683
0.148124
0.137521
0.141295
0.151344
0.153833
0.153878
0.150656
0.140121
0.137291
0.14752
0.152011
0.154249
0.15167
0.140528
0.137488
0.149465
0.153132
0.155456
0.152798
0.141199
0.13884
0.150284
0.154182
0.156609
0.153924
0.142807
0.140942
0.151854
0.155596
0.157945
0.155367
0.144588
0.142793
0.153475
0.157057
0.159347
0.156869
0.146945
0.145916
0.156189
0.159425
0.157599
0.153279
0.142864
0.146277
0.157281
0.159977
0.158912
0.155105
0.14378
0.14773
0.158888
0.161498
0.160313
0.156572
0.145511
0.148979
0.159976
0.1626
0.161342
0.157596
0.146756
0.150347
0.160996
0.163601
0.162701
0.15916
0.148598
0.1524
0.162433
0.164915
0.165046
0.161843
0.151374
0.148605
0.158823
0.163273
0.165523
0.162941
0.151631
0.148891
0.160842
0.164579
0.167132
0.164572
0.152881
0.150562
0.162193
0.165957
0.168316
0.16573
0.154369
0.15233
0.163508
0.167185
0.169412
0.16683
0.15584
0.153967
0.164795
0.168423
0.17071
0.168214
0.158096
0.157063
0.167555
0.170852
0.169079
0.16465
0.154143
0.157454
0.168755
0.171495
0.170562
0.166742
0.15504
0.159103
0.170664
0.173253
0.172081
0.168287
0.156772
0.160632
0.171897
0.174505
0.173427
0.169747
0.158696
0.162225
0.173177
0.175767
0.174819
0.17119
0.160371
0.164377
0.174572
0.177078
0.17719
0.173917
0.163131
0.160329
0.170745
0.17539
0.177746
0.175218
0.163732
0.160806
0.173038
0.176812
0.179419
0.176785
0.164918
0.162623
0.174376
0.178262
0.180817
0.178151
0.166481
0.164426
0.175895
0.179718
0.182136
0.179488
0.16809
0.166081
0.177266
0.181059
0.183563
0.180979
0.170045
0.168241
0.179059
0.18269
0.185004
0.182487
0.172397
0.1716
0.181771
0.185293
0.183632
0.179441
0.168473
0.171992
0.183338
0.186172
0.185179
0.181239
0.169783
0.173898
0.185295
0.187906
0.186831
0.183048
0.171804
0.175562
0.186694
0.189304
0.188246
0.1845
0.173622
0.177325
0.18808
0.190669
0.189743
0.186154
0.175463
0.179442
0.189564
0.192064
0.192234
0.188876
0.178325
0.175531
0.186162
0.19058
0.19307
0.190382
0.17895
0.176297
0.188075
0.192003
0.19466
0.192016
0.180319
0.178262
0.189828
0.193637
0.196139
0.193527
0.182056
0.180199
0.191427
0.195202
0.197822
0.195295
0.184251
0.182539
0.19349
0.197066
0.199454
0.197043
0.186788
0.18561
0.196073
0.199648
0.197969
0.193701
0.182412
0.186119
0.197711
0.200624
0.199511
0.19543
0.183722
0.187899
0.199559
0.202304
0.201219
0.197258
0.185755
0.189842
0.201189
0.203868
0.202915
0.199137
0.188002
0.191866
0.202875
0.205486
0.204702
0.201016
0.190053
0.194452
0.204734
0.207257
0.207722
0.204258
0.193599
0.190872
0.201762
0.206235
0.208925
0.206225
0.194682
0.192378
0.204101
0.208009
0.210716
0.208051
0.196292
0.193894
0.205564
0.209526
0.211999
0.209263
0.197718
0.195626
0.207045
0.210947
0.213654
0.211021
0.199837
0.197905
0.209118
0.212843
0.215349
0.212793
0.202233
0.201397
0.212306
0.215848
0.214318
0.209851
0.198668
0.202427
0.214194
0.217048
0.21618
0.212112
0.200225
0.20479
0.216509
0.219189
0.218436
0.21454
0.202913
0.207879
0.218988
0.221454
0.220734
0.217179
0.206115
0.209696
0.22048
0.223024
0.223042
0.219545
0.208002
0.205182
0.216389
0.221272
0.22395
0.221132
0.208931
0.206274
0.218867
0.222989
0.22593
0.223179
0.210785
0.208478
0.220834
0.224908
0.227779
0.225002
0.213144
0.211019
0.22293
0.226925
0.229678
0.226999
0.215868
0.21522
0.226461
0.230373
0.228897
0.224436
0.212148
0.216543
0.228945
0.232038
0.231354
0.227149
0.214624
0.220289
0.232301
0.234885
0.233881
0.229986
0.217958
0.221556
0.233579
0.236365
0.23523
0.231213
0.219117
0.223678
0.235083
0.237874
0.238063
0.234292
0.221984
0.219425
0.231036
0.236389
0.239421
0.236522
0.223969
0.221114
0.234212
0.238516
0.241685
0.238793
0.226026
0.223901
0.236618
0.240866
0.244225
0.241381
0.229067
0.227021
0.239478
0.243594
0.246655
0.243937
0.232301
0.231692
0.243948
0.247729
0.246587
0.241777
0.229752
0.234297
0.247009
0.249851
0.248492
0.244106
0.230944
0.235369
0.248293
0.251297
0.2501
0.245807
0.232858
0.237539
0.250192
0.253122
0.252162
0.247923
0.235214
0.240158
0.252142
0.255046
0.255596
0.251542
0.239001
0.236172
0.248825
0.253976
0.257152
0.254052
0.240962
0.23856
0.251917
0.256426
0.260096
0.257255
0.244369
0.242311
0.255445
0.25967
0.263165
0.260449
0.248332
0.248353
0.261047
0.264712
0.263197
0.258237
0.246127
0.249745
0.26283
0.266023
0.264521
0.259847
0.246255
0.251081
0.264505
0.26773
0.266591
0.262019
0.248516
0.253771
0.266867
0.269907
0.269162
0.264776
0.251628
0.257079
0.269448
0.272442
0.273336
0.269025
0.256244
0.25344
0.266658
0.271829
0.275334
0.271932
0.258778
0.256443
0.270017
0.274672
0.278756
0.275827
0.262695
0.261041
0.274439
0.278735
0.282605
0.280275
0.26882
0.268598
0.280397
0.283854
0.281765
0.27699
0.26416
0.267582
0.281118
0.284469
0.283171
0.278422
0.26442
0.269924
0.283572
0.286755
0.286
0.28142
0.2675
0.273366
0.286386
0.289453
0.290457
0.286016
0.272423
0.269545
0.283436
0.288934
0.292509
0.289047
0.27534
0.272823
0.287072
0.291941
0.296165
0.293081
0.279753
0.279656
0.293758
0.298305
0.297626
0.292244
0.277916
0.285273
0.299047
0.301987
0.300736
0.29617
0.281957
0.285969
0.300394
0.303805
0.302276
0.297288
0.282437
0.288144
0.302137
0.305554
0.306233
0.301376
0.286761
0.28361
0.298582
0.304589
0.308551
0.304899
0.289876
0.287186
0.302753
0.307936
0.312323
0.309036
0.294575
0.29406
0.309309
0.314167
0.312881
0.306908
0.291221
0.298478
0.313813
0.317379
0.317752
0.312696
0.297168
0.306653
0.320372
0.323019
0.323917
0.319629
0.305114
0.299505
0.315388
0.321183
0.324452
0.320445
0.30451
0.300818
0.317427
0.323049
0.327242
0.323549
0.308208
0.307046
0.323311
0.328609
0.327091
0.32043
0.303969
0.311131
0.327718
0.331727
0.331214
0.325423
0.308368
0.31718
0.332877
0.336379
0.339066
0.333789
0.317172
0.315062
0.332083
0.338506
0.344173
0.34126
0.326003
0.323971
0.339245
0.343925
0.347722
0.344282
0.328868
0.325671
0.342229
0.347519
0.345013
0.338576
0.32076
0.327946
0.345079
0.349527
0.348434
0.342442
0.324543
0.333006
0.34944
0.353317
0.355338
0.349689
0.332356
0.329498
0.347172
0.354136
0.359412
0.355419
0.338215
0.336615
0.354324
0.360146
0.366685
0.363825
0.349032
0.352211
0.367299
0.371072
0.369757
0.364522
0.348841
0.352373
0.368841
0.372961
0.372465
0.366587
0.34871
0.343697
0.362966
0.369938
0.375244
0.370614
0.352291
0.349049
0.368278
0.374545
0.380241
0.376241
0.358886
0.35909
0.377427
0.383231
0.382674
0.375658
0.356727
0.367269
0.384552
0.388555
0.393195
0.387731
0.369387
0.369154
0.387863
0.393817
0.399761
0.39596
0.377939
0.372968
0.393059
0.399322
0.39579
0.388048
0.366432
0.375229
0.395622
0.400875
0.399595
0.392482
0.371469
0.38247
0.401291
0.405802
0.409092
0.402689
0.382923
0.381091
0.401255
0.408894
0.415656
0.411526
0.393679
0.397314
0.416114
0.421441
0.422728
0.416992
0.398124
0.407036
0.425307
0.428964
0.428241
0.422121
0.401359
0.394506
0.416581
0.424856
0.42993
0.424559
0.404286
0.402689
0.424538
0.431597
0.43075
0.422128
0.399646
0.413618
0.433722
0.438617
0.444322
0.437662
0.4159
0.41832
0.439867
0.447011
0.456312
0.453582
0.436036
0.432622
0.453002
0.457985
0.456765
0.449057
0.425249
0.416299
0.442499
0.452819
0.458661
0.452574
0.428557
0.427243
0.453168
0.4614
0.461626
0.452259
0.425108
0.446033
0.467634
0.472248
0.482386
0.478147
0.455598
0.459138
0.482011
0.487808
0.483699
0.474444
0.447679
0.455438
0.480904
0.487693
0.486851
0.478577
0.449625
0.446349
0.477717
0.487938
0.487879
0.47435
0.444121
0.471308
0.49513
0.499884
0.51121
0.506717
0.482061
0.48149
0.508292
0.515308
0.509462
0.497801
0.46596
0.476689
0.505566
0.513251
0.513752
0.505325
0.472702
0.472159
0.508091
0.518055
0.528601
0.51772
0.483395
0.481362
0.519099
0.528476
0.536011
0.5271
0.493798
0.481884
0.521182
0.532565
0.532201
0.519451
0.475903
0.478812
0.52515
0.536948
0.54206
0.52867
0.480118
0.469267
0.522976
0.54075
0.529297
0.510017
0.450832
0.48328
0.523512
0.536056
0.533353
0.521807
0.480661
0.469777
0.516735
0.530607
0.524413
0.507818
0.451782
0.434217
0.495626
0.514393
0.502284
0.481215
0.414115
0.391045
0.465914
0.49008
0.478883
0.451914
0.371132
0.35521
0.44023
0.469591
0.461788
0.430109
0.341631
0.329528
0.420874
0.45482
0.448397
0.412261
0.318579
0.3087
0.404201
0.442411
0.436797
0.396649
0.299687
0.291453
0.389554
0.431488
0.426446
0.382878
0.283948
0.277104
0.376574
0.42163
0.417025
0.370626
0.270892
0.265265
0.365022
0.412616
0.408383
0.359742
0.260157
0.255525
0.354771
0.404303
0.400365
0.350087
0.251315
0.247502
0.345679
0.396557
0.392874
0.341527
0.244054
0.240953
0.337627
0.389311
0.385867
0.333958
0.238166
0.235668
0.330515
0.382534
0.37931
0.327282
0.23343
0.231437
0.324254
0.376192
0.373178
0.321416
0.229665
0.228098
0.31876
0.370262
0.367443
0.316273
0.226714
0.2255
0.313949
0.364721
0.362095
0.311777
0.224436
0.22351
0.309746
0.359564
0.357128
0.307839
0.222704
0.222009
0.306055
0.354787
0.352539
0.304382
0.221412
0.220905
0.302816
0.350386
0.34832
0.301348
0.220475
0.220116
0.299973
0.346345
0.344453
0.298682
0.219819
0.219576
0.297473
0.342649
0.340923
0.296339
0.219382
0.219229
0.295274
0.33928
0.337712
0.294273
0.219107
0.219017
0.293333
0.336225
0.334807
0.292445
0.218959
0.218921
0.29161
0.333463
0.332183
0.290817
0.218911
0.218912
0.290075
0.330971
0.329818
0.289372
0.218931
0.218952
0.288714
0.328727
0.32769
0.28809
0.218984
0.219016
0.287509
0.326712
0.325783
0.286957
0.219054
0.219085
0.286442
0.324906
0.324071
0.285952
0.219122
0.219153
0.285497
0.323288
0.322541
0.285065
0.219187
0.219212
0.284662
0.321838
0.32117
0.284279
0.219241
0.219266
0.283927
0.320544
0.319949
0.283594
0.219294
0.219311
0.283284
0.31939
0.318855
0.282989
0.21933
0.219342
0.282716
0.318355
0.317878
0.282458
0.219358
0.219364
0.282217
0.317429
0.316999
0.281988
0.219373
0.219378
0.281777
0.316597
0.316212
0.281576
0.219385
0.219385
0.281386
0.315847
0.315497
0.281204
0.219387
0.219386
0.281034
0.315169
0.314854
0.280872
0.219387
0.21938
0.280718
0.314555
0.314267
0.28057
0.219375
0.219367
0.280432
0.313998
0.313738
0.280301
0.219361
0.219349
0.280175
0.313492
0.313253
0.280054
0.219338
0.219326
0.279943
0.313031
0.312815
0.279836
0.219316
0.219301
0.279733
0.312611
0.312412
0.279634
0.219286
0.219271
0.279542
0.312226
0.312048
0.279456
0.219259
0.219243
0.279373
0.311877
0.311715
0.279293
0.219228
0.219212
0.279219
0.311559
0.311418
0.279151
0.2192
0.219187
0.279087
0.311277
0.311149
0.279027
0.219175
0.219161
0.278969
0.311018
0.310905
0.278917
0.219151
0.219141
0.278868
0.310787
0.310687
0.278823
0.219135
0.219126
0.278782
0.310578
0.31049
0.278744
0.219123
0.219118
0.27871
0.310392
0.310314
0.27868
0.219119
0.219117
0.278652
0.310224
0.310157
0.278628
0.219121
0.219124
0.278606
0.310076
0.310018
0.278589
0.219133
0.219141
0.278573
0.309945
0.309896
0.278563
0.219154
0.219168
0.278553
0.309832
0.309792
0.27855
0.219186
0.219204
0.278546
0.309734
0.309703
0.278549
0.219228
0.219252
0.278551
0.309653
0.30963
0.27856
0.21928
0.219308
0.278568
0.309586
0.309572
0.278582
0.219342
0.219375
0.278596
0.309535
0.309528
0.278615
0.219413
0.21945
0.278633
0.309496
0.309498
0.278658
0.219492
0.219535
0.278681
0.309472
0.30948
0.278711
0.219581
0.219627
0.278738
0.309458
0.309474
0.278772
0.219676
0.219726
0.278804
0.309457
0.309479
0.278842
0.219779
0.219832
0.278877
0.309467
0.309494
0.278919
0.219888
0.219944
0.278959
0.309488
0.30952
0.279004
0.220003
0.220061
0.279048
0.309518
0.309555
0.279096
0.220122
0.220184
0.279143
0.309558
0.309599
0.279195
0.220247
0.220311
0.279244
0.309606
0.309652
0.279299
0.220376
0.220442
0.279351
0.309663
0.309712
0.279408
0.220509
0.220577
0.279464
0.309727
0.309781
0.279524
0.220646
0.220717
0.279583
0.309799
0.309857
0.279645
0.220788
0.22086
0.279707
0.309879
0.309941
0.279772
0.220934
0.221008
0.279837
0.309966
0.310031
0.279905
0.221083
0.221158
0.279971
0.310059
0.310128
0.280041
0.221235
0.221312
0.28011
0.310159
0.310231
0.280182
0.221389
0.221467
0.280253
0.310264
0.31034
0.280327
0.221546
0.221625
0.2804
0.310376
0.310454
0.280476
0.221704
0.221783
0.28055
0.310492
0.310572
0.280627
0.221863
0.221943
0.280702
0.310613
0.310695
0.280781
0.222022
0.222103
0.280857
0.310737
0.310821
0.280937
0.222183
0.222263
0.281014
0.310865
0.31095
0.281095