/*--------------------------------*- C++ -*----------------------------------*\
| =========                 |                                                 |
| \\      /  F ield         | OpenFOAM: The Open Source CFD Toolbox           |
|  \\    /   O peration     | Version:  v2006                                 |
|   \\  /    A nd           | Website:  www.openfoam.com                      |
|    \\/     M anipulation  |                                                 |
\*---------------------------------------------------------------------------*/
FoamFile
{
    version     2.0;
    format      ascii;
    class       volScalarField;
    location    "0.08";
    object      Co;
}
// * * * * * * * * * * * * * * * * * * * * * * * * * * * * * * * * * * * * * //

dimensions      [0 0 0 0 0 0 0];


internalField   nonuniform List<scalar> 
16277
(
0.00667438
0.0063621
0.00690509
0.00716933
0.00720751
0.00705639
0.00705266
0.00693376
0.00688204
0.00686807
0.0068301
0.00681571
0.00680177
0.00679186
0.00678089
0.0067698
0.00675813
0.00674581
0.0067331
0.00671983
0.00670598
0.00669156
0.0066766
0.00666108
0.00664504
0.00662846
0.00661136
0.00659375
0.00657564
0.00655703
0.00653795
0.0065184
0.00649839
0.00647795
0.00645709
0.00643583
0.00641418
0.00639217
0.00636981
0.00634713
0.00632415
0.00630089
0.00627737
0.00625362
0.00622966
0.00620551
0.00618121
0.00615677
0.00613222
0.0061076
0.00608292
0.00605822
0.00603353
0.00600886
0.00598426
0.00595974
0.00593535
0.00591111
0.00588704
0.00586319
0.00583958
0.00581624
0.00579319
0.00577048
0.00574813
0.00572617
0.00570462
0.00568352
0.00566289
0.00564275
0.00562313
0.00560406
0.00558555
0.00556764
0.00555036
0.00553372
0.0055177
0.00550221
0.00548573
0.00547083
0.00545758
0.00544814
0.00544599
0.00547899
0.00554286
0.00571652
0.00603042
0.00674819
0.00841975
0.0120057
0.0180031
0.0141636
0.0127246
0.0121893
0.0119211
0.0116566
0.0111323
0.0100951
0.0110765
0.0117159
0.0109149
0.0107985
0.010159
0.00838749
0.0090302
0.00923663
0.00918603
0.0091836
0.00861542
0.007838
0.00854546
0.00871839
0.00898748
0.00883007
0.00804405
0.0078248
0.0086294
0.00881511
0.00901888
0.00879711
0.00789006
0.00779079
0.00866919
0.00886238
0.00903179
0.0087691
0.00779372
0.00769301
0.00864006
0.00886311
0.00898987
0.00871126
0.00767466
0.00757879
0.00857875
0.00883159
0.00895008
0.00864593
0.00756248
0.00747228
0.00851394
0.00879193
0.00890708
0.00858079
0.00746035
0.00737471
0.00844997
0.00875018
0.00886245
0.00851678
0.00736608
0.00728402
0.00838786
0.0087074
0.00881682
0.00845392
0.00727795
0.00719854
0.00832757
0.00866404
0.00877033
0.00839178
0.0071945
0.00711725
0.0082674
0.00861894
0.00872297
0.00833011
0.00711465
0.00703917
0.00820719
0.00857234
0.00867467
0.00826868
0.00703759
0.00696355
0.0081468
0.00852424
0.00862543
0.0082073
0.00696269
0.0068898
0.00808602
0.00847459
0.00857516
0.00814575
0.0068894
0.00681743
0.00802469
0.00842337
0.00852375
0.0080838
0.00681727
0.00674609
0.00796271
0.00837058
0.0084711
0.00802127
0.00674595
0.00667528
0.00789979
0.00831615
0.00841712
0.00795801
0.00667513
0.00660486
0.00783591
0.00826003
0.00836172
0.00789388
0.00660457
0.00653461
0.00777094
0.00820211
0.0083048
0.00782871
0.00653404
0.00646429
0.00770472
0.00814234
0.00824622
0.00776237
0.00646334
0.00639371
0.00763836
0.00808332
0.00818586
0.00769473
0.00639224
0.00632267
0.00757079
0.00802308
0.00812367
0.00762566
0.00632058
0.00625098
0.00750174
0.00796098
0.00805954
0.00755503
0.00624817
0.00617846
0.00743108
0.00789692
0.00799335
0.0074827
0.00617485
0.00610494
0.00735867
0.00783076
0.00792499
0.00740852
0.00610043
0.00603025
0.00728437
0.00776242
0.00785433
0.00733237
0.00602476
0.00595425
0.00720805
0.00769176
0.00778126
0.00725411
0.0059477
0.0058768
0.0071296
0.00761868
0.00770567
0.00717363
0.00586911
0.00579776
0.00704889
0.00754307
0.00762746
0.00709081
0.00578888
0.00571705
0.00696582
0.00746484
0.00754653
0.00700557
0.0057069
0.00563457
0.00688032
0.00738389
0.00746281
0.00691783
0.00562314
0.00555031
0.00679234
0.00730017
0.00737624
0.00682757
0.0055376
0.00546432
0.00670188
0.00721364
0.00728684
0.00673484
0.00545037
0.00537671
0.00660902
0.00712434
0.00719467
0.00663975
0.00536159
0.00528767
0.00651392
0.00703237
0.00709987
0.0065425
0.00527151
0.00519748
0.0064168
0.00693789
0.00700266
0.00644338
0.00518046
0.00510656
0.006318
0.00684116
0.00690334
0.00634278
0.00508893
0.00501545
0.006218
0.00674254
0.00680237
0.00624128
0.00499756
0.0049249
0.00611744
0.00664254
0.00670036
0.00613965
0.0049072
0.00483587
0.00601718
0.00654186
0.00659813
0.00603886
0.00481896
0.00474958
0.00591833
0.00644142
0.00649675
0.00594016
0.00473419
0.00466753
0.00582223
0.00634235
0.00639753
0.0058451
0.00465454
0.00459151
0.00573058
0.00624612
0.00630215
0.00575558
0.00458201
0.00452367
0.00564543
0.00615454
0.00621262
0.00567373
0.00451888
0.00446811
0.00557026
0.00606963
0.00613103
0.00560174
0.00446794
0.00443286
0.00552133
0.00600642
0.00606018
0.00554305
0.00443272
0.00441519
0.0054943
0.00597774
0.0060036
0.00550074
0.00441509
0.0044169
0.00548739
0.00596875
0.00596443
0.00547749
0.00441683
0.00443861
0.00550125
0.0059799
0.00594157
0.00547207
0.00443857
0.00447958
0.00553476
0.00600972
0.00594469
0.00549511
0.00448281
0.00454092
0.00558999
0.00606147
0.00599368
0.00555788
0.00455391
0.00462234
0.00566601
0.00613351
0.00606902
0.00563835
0.00464118
0.00471535
0.00575393
0.00621618
0.00615434
0.00572981
0.00473759
0.00481479
0.00585007
0.00630638
0.00624565
0.0058275
0.00483809
0.00491657
0.00595114
0.00640175
0.00634082
0.00592862
0.00493939
0.00501767
0.00605406
0.00649952
0.00643701
0.0060301
0.00503861
0.00511527
0.00615579
0.00659681
0.00653156
0.00612915
0.00513311
0.00520698
0.00625379
0.00669116
0.00662224
0.00622345
0.00522075
0.0052909
0.00634594
0.00678054
0.00670723
0.00631115
0.00529989
0.00536563
0.00643059
0.00686328
0.0067851
0.00639081
0.00536941
0.00543042
0.00650652
0.00693818
0.00685483
0.00646282
0.00543061
0.00548516
0.00657295
0.00700445
0.00691934
0.00653234
0.00548533
0.00552974
0.00662942
0.00706167
0.00698877
0.00659704
0.0055299
0.00556454
0.00667633
0.00711006
0.00705156
0.00665174
0.00556467
0.00559029
0.00671424
0.00715008
0.00710489
0.00669669
0.00559039
0.00560802
0.00674393
0.00718238
0.00714899
0.00673244
0.0056081
0.00561905
0.00676654
0.00720806
0.00718465
0.00675999
0.00561912
0.00562472
0.00678316
0.00722811
0.00721288
0.0067805
0.00562476
0.00562622
0.00679483
0.00724346
0.00723474
0.00679513
0.00562625
0.00562463
0.00680251
0.00725496
0.00725132
0.00680499
0.00562465
0.00562077
0.006807
0.00726334
0.00726357
0.00681104
0.00562079
0.00561527
0.00680889
0.00726906
0.00727218
0.00681401
0.00561528
0.00560876
0.006809
0.00727296
0.00727815
0.00681481
0.00560877
0.00560153
0.00680763
0.00727537
0.00728203
0.00681389
0.00560156
0.00559385
0.00680533
0.00727671
0.00728434
0.00681178
0.00559385
0.00558604
0.00680222
0.00727704
0.00728535
0.00680873
0.00558602
0.00557827
0.00679856
0.00727665
0.0072854
0.00680508
0.00557828
0.00557052
0.00679443
0.00727567
0.00728468
0.0068009
0.00557053
0.00556289
0.00679008
0.00727428
0.0072834
0.00679641
0.00556287
0.00555535
0.00678548
0.00727259
0.00728174
0.00679176
0.00555539
0.00554809
0.00678094
0.0072708
0.00727972
0.00678691
0.00554803
0.00554115
0.00677661
0.00726914
0.00727753
0.00678221
0.00553835
0.00552643
0.00675917
0.00725345
0.00722861
0.0067275
0.00548542
0.00547183
0.0066967
0.00719879
0.0070575
0.00652746
0.00531152
0.00541393
0.00662295
0.00711197
0.00680813
0.00625926
0.00506433
0.00559546
0.00684284
0.0073083
0.00731056
0.00661058
0.00526033
0.00650892
0.00810794
0.00880953
0.0095656
0.00847859
0.00655482
0.00821656
0.0119306
0.0149498
0.0140221
0.0182163
0.0155633
0.0146061
0.0139303
0.0137432
0.0136279
0.0136556
0.0136629
0.0136864
0.0136985
0.0137542
0.013858
0.0140243
0.0143909
0.0152769
0.0195488
0.0278977
0.0299238
0.0272826
0.0258256
0.0235767
0.0210964
0.0180735
0.0124445
0.011069
0.0165808
0.0198808
0.017746
0.0154125
0.0105408
0.00877068
0.0129379
0.0150952
0.0141138
0.0123568
0.00848758
0.00784285
0.011555
0.0133537
0.0131188
0.0114441
0.00774604
0.00761604
0.0112323
0.0129477
0.0129628
0.0112304
0.00761001
0.00760782
0.0112255
0.0129435
0.0129528
0.0112345
0.00762321
0.00763036
0.0112408
0.0129575
0.0129656
0.0112495
0.00763891
0.00763947
0.0112346
0.0129583
0.012993
0.0112892
0.00766424
0.00766527
0.0112742
0.0129856
0.0129936
0.0112835
0.00767477
0.00767636
0.0112694
0.0129741
0.0130353
0.0113135
0.00769439
0.00771158
0.0113218
0.0130154
0.0130239
0.011309
0.00770642
0.00772403
0.011318
0.0130048
0.0130666
0.0113515
0.00773501
0.00775271
0.0113601
0.0130468
0.0130555
0.0113475
0.0077479
0.00776599
0.0113568
0.0130365
0.0130984
0.0113904
0.00777732
0.00779551
0.0113994
0.0130789
0.0130879
0.011387
0.00779094
0.00780943
0.0113967
0.0130693
0.0131318
0.0114309
0.00782125
0.00784009
0.0114403
0.0131123
0.0131221
0.0114286
0.00783602
0.00785487
0.0114387
0.0131039
0.0131659
0.0114728
0.00786696
0.00788607
0.0114827
0.0131471
0.0131569
0.0114823
0.00788985
0.00789355
0.0114698
0.0131387
0.0132021
0.0115162
0.0079138
0.00793329
0.0115262
0.0131833
0.0131934
0.0115261
0.00793738
0.00794126
0.0115139
0.0131757
0.0132395
0.0115607
0.00796182
0.00798161
0.0115711
0.0132213
0.0132319
0.0115714
0.00798581
0.00798988
0.0115595
0.0132146
0.0132791
0.0116068
0.00801056
0.00803044
0.0116176
0.0132614
0.0132725
0.0116182
0.00803462
0.00803863
0.0116068
0.0132561
0.0133214
0.0116545
0.00805921
0.00807906
0.011666
0.0133045
0.0133164
0.011667
0.00808293
0.00808664
0.011656
0.0133009
0.0133677
0.0117049
0.00810706
0.00812679
0.0117175
0.0133523
0.013366
0.0117197
0.00813042
0.00813383
0.0117099
0.0133522
0.0134207
0.0117599
0.00815382
0.00817304
0.0117736
0.0134068
0.0134223
0.0117767
0.00817595
0.00817815
0.0117678
0.0134105
0.0134805
0.0118188
0.00819691
0.00821533
0.0118342
0.0134689
0.0134879
0.0118278
0.00820878
0.00822623
0.0118441
0.0134784
0.0135525
0.0118866
0.00823614
0.00825336
0.0119049
0.0135445
0.013567
0.0119015
0.00824613
0.00826315
0.0119221
0.0135626
0.0136413
0.0119681
0.00827258
0.00828984
0.0119913
0.013639
0.0136665
0.012004
0.00829085
0.0082926
0.0120064
0.0136676
0.0137541
0.0120716
0.008312
0.00833196
0.0121015
0.0137581
0.013794
0.0121229
0.00833703
0.00834379
0.0121344
0.0138034
0.0138999
0.0122106
0.00837018
0.00839923
0.0122528
0.0139143
0.0139616
0.0122755
0.00840728
0.00844488
0.0123265
0.0139831
0.014093
0.0124075
0.00847984
0.00852957
0.0124684
0.0141206
0.0141816
0.0125234
0.00857047
0.00863708
0.0125969
0.014232
0.0143313
0.0126769
0.00869607
0.00877403
0.0127652
0.0143936
0.0144743
0.0128635
0.00886702
0.00897736
0.0129721
0.0145638
0.0146727
0.0131007
0.00910876
0.00926238
0.0132365
0.0147789
0.0149231
0.013423
0.00945995
0.0096943
0.013626
0.015062
0.015208
0.0138136
0.00994437
0.0101127
0.0139213
0.0152667
0.0154176
0.013976
0.0102651
0.0105931
0.0142484
0.0155007
0.0155911
0.0142986
0.0106637
0.0108987
0.0143981
0.0156412
0.0157705
0.0145683
0.0111214
0.0113614
0.014663
0.0158718
0.016124
0.0150366
0.011756
0.0119677
0.0151508
0.0162279
0.0165952
0.0155785
0.0124969
0.0126711
0.0156672
0.0166701
0.0167702
0.0162348
0.013547
0.0131555
0.0150131
0.0146408
0.0436338
0.0321634
0.0188136
0.0130943
0.0210715
0.0287191
0.0191753
0.0169863
0.01191
0.0110795
0.0150809
0.016376
0.0157633
0.0147299
0.0111022
0.0112057
0.0149704
0.0162657
0.0160225
0.0148709
0.0113796
0.0118302
0.0153035
0.0164938
0.016225
0.0151105
0.0119994
0.0127456
0.0159332
0.0169712
0.0168642
0.0158308
0.0129227
0.0137288
0.0164337
0.0171751
0.0149873
0.0153571
0.0136461
0.0191511
0.0315635
0.0423542
0.0294344
0.0222519
0.0148377
0.0134926
0.0179238
0.0199781
0.0179201
0.0165877
0.0131509
0.0132285
0.0164006
0.0174718
0.0172809
0.0163316
0.0134699
0.0135945
0.0163002
0.0171679
0.0171026
0.0165282
0.0141427
0.013772
0.0150395
0.0144195
0.0420846
0.0314519
0.0193874
0.0146233
0.0222195
0.0298764
0.0199343
0.018029
0.0140188
0.0137111
0.0166642
0.017462
0.016823
0.0162517
0.0137905
0.0141976
0.0165285
0.0170942
0.0147083
0.0153934
0.0141412
0.0194005
0.0310017
0.0410216
0.0300467
0.0230398
0.0159081
0.0150097
0.0188637
0.0206043
0.0183708
0.0172105
0.0144157
0.0149255
0.0171502
0.017523
0.0142426
0.0150867
0.0142174
0.0198463
0.0310021
0.040846
0.0295942
0.0231983
0.0164741
0.0148847
0.0182236
0.0196727
0.0172554
0.0167831
0.0145979
0.0144316
0.0152752
0.0144342
0.0391129
0.0299064
0.019408
0.0168336
0.0232945
0.0295066
0.0200097
0.0184405
0.0152583
0.0150025
0.0170081
0.0174768
0.0135361
0.0146662
0.0144654
0.0193795
0.0288945
0.0366083
0.0275096
0.0221432
0.0164283
0.0147223
0.0157049
0.0150008
0.0341432
0.0271184
0.0183653
0.0150584
0.0207652
0.0260844
0.0131569
0.013953
0.0133178
0.0156142
0.0218013
0.0260507
0.013855
0.0128604
0.0109717
0.0110479
0.0160991
0.0195633
0.00483118
0.00459312
0.00427995
0.00562178
0.00910597
0.0111665
0.0138902
0.0120621
0.00869366
0.0142747
0.0170859
0.018596
0.0224092
0.0213086
0.0188426
0.0206854
0.0219218
0.021573
0.0370687
0.0321892
0.0244717
0.0252023
0.0330846
0.0382991
0.037388
0.0329441
0.0255927
0.0269226
0.0364441
0.0428119
0.0266736
0.0268266
0.0235745
0.0264858
0.036502
0.0453209
0.0487994
0.0388365
0.0268158
0.0240152
0.0315561
0.036659
0.0452954
0.0371078
0.026268
0.0221209
0.0254115
0.0257569
0.0429415
0.0337834
0.0240757
0.0260519
0.0385324
0.0489004
0.0251077
0.0247141
0.0213363
0.0233091
0.0330993
0.0420511
0.0487493
0.0381155
0.0254
0.0208448
0.0241153
0.0244989
0.0414662
0.0323362
0.022704
0.0251055
0.0378488
0.048533
0.0245306
0.0239847
0.0205346
0.0226368
0.0321135
0.0412137
0.0483669
0.0376578
0.0251202
0.0206079
0.0239054
0.0242421
0.0408297
0.0319426
0.0223712
0.0247522
0.0374967
0.048068
0.0243499
0.0238455
0.0204254
0.0222479
0.0316398
0.0406043
0.0480451
0.0372932
0.0246305
0.02004
0.0233389
0.0238635
0.0395647
0.030857
0.0217333
0.0243164
0.0368986
0.0474696
0.0211682
0.0213769
0.0190934
0.0199822
0.0251994
0.0279222
0.0402729
0.0313654
0.0219335
0.0237339
0.0369073
0.0479038
0.0228621
0.0224701
0.0191756
0.0205358
0.030765
0.0406338
0.0471569
0.0364325
0.0236138
0.0194626
0.0231616
0.0238651
0.0406105
0.0316325
0.0218868
0.0238202
0.0368728
0.0475392
0.0235568
0.0231016
0.0195692
0.0208295
0.0310435
0.0409482
0.0477419
0.0366808
0.0237165
0.0195556
0.0233214
0.0240473
0.0410575
0.0311239
0.0208204
0.0237662
0.0366309
0.0476901
0.0236952
0.0231833
0.0194583
0.0223589
0.031949
0.0404603
0.0478787
0.0371626
0.0241925
0.0197633
0.023675
0.024345
0.0412631
0.032243
0.0225555
0.0244327
0.0373165
0.0481357
0.024542
0.0239205
0.0200481
0.0231509
0.0333337
0.0426565
0.0475385
0.036954
0.0242342
0.0216568
0.0295722
0.0350392
0.0443842
0.0359318
0.0244438
0.0207821
0.0246357
0.0253636
0.0417881
0.0326043
0.0226614
0.0248574
0.0376251
0.0482176
0.0250063
0.0241658
0.0203363
0.0223584
0.0322824
0.0414142
0.0485471
0.0378993
0.024899
0.0205907
0.0242349
0.0248474
0.0422693
0.0328232
0.0227305
0.0250725
0.0380823
0.0487992
0.0253102
0.0244653
0.0206013
0.0228101
0.0329721
0.0425895
0.0491696
0.0383396
0.0253926
0.0211352
0.0249848
0.0257843
0.0445262
0.0348584
0.0244282
0.0253095
0.038179
0.0490816
0.0370792
0.0314345
0.0229842
0.0249918
0.0365661
0.0451556
0.0263492
0.0254778
0.0213603
0.0236749
0.0342324
0.0438188
0.0499505
0.0392273
0.0259177
0.0215911
0.0255531
0.0262879
0.0454817
0.0356718
0.0248371
0.0257677
0.0387994
0.0499815
0.037643
0.031814
0.0234711
0.0258302
0.0374831
0.0461892
0.027366
0.0264916
0.0222901
0.0244404
0.0349741
0.0448851
0.0509973
0.0398766
0.0266332
0.0224557
0.0264465
0.0270049
0.0463958
0.0363673
0.0255458
0.0264413
0.0395352
0.0506579
0.0386151
0.0326454
0.0240082
0.0263877
0.0382007
0.0468838
0.0276964
0.0269122
0.022853
0.024971
0.0359345
0.0461994
0.0520041
0.041196
0.0274244
0.0229857
0.0270058
0.0277698
0.0486603
0.036826
0.0245621
0.0265496
0.0402105
0.0517568
0.0397573
0.0336734
0.0247144
0.0270817
0.0390933
0.0477904
0.0288675
0.0280111
0.0236315
0.0266515
0.0379954
0.0487875
0.0525096
0.0412045
0.0277054
0.0255095
0.0344503
0.0406582
0.0487865
0.0400291
0.0279361
0.0239683
0.0283761
0.0292772
0.0497831
0.0383592
0.0262151
0.0277754
0.041354
0.0528186
0.0412259
0.0348581
0.0258542
0.0284611
0.0405328
0.0493979
0.0300778
0.0291823
0.0246055
0.0267462
0.0390714
0.0509572
0.054038
0.0424213
0.0285956
0.0265065
0.0356655
0.0421375
0.0501526
0.0411653
0.0288422
0.0250132
0.0295162
0.030348
0.0510439
0.0401076
0.0278737
0.0290853
0.0430917
0.0546146
0.0429665
0.0362957
0.026878
0.0292382
0.0417207
0.0509428
0.03112
0.0302192
0.025578
0.0270572
0.0405162
0.0532711
0.055388
0.0434299
0.0288074
0.0277873
0.0380417
0.0452786
0.0507613
0.0415922
0.0293522
0.0274391
0.0371077
0.0435444
0.0508958
0.0421535
0.029707
0.0261867
0.0311134
0.0321744
0.0536854
0.0418219
0.0293024
0.0304851
0.0447629
0.0565339
0.0450424
0.03812
0.0283019
0.0305051
0.0434945
0.0525154
0.0322405
0.031408
0.026751
0.0282004
0.0420341
0.0554212
0.0573224
0.0448319
0.0297807
0.0286367
0.0392483
0.0470502
0.0526104
0.0428971
0.0301678
0.028687
0.0385524
0.0454675
0.0530157
0.043955
0.0313323
0.0272442
0.0323307
0.0334871
0.056231
0.0443062
0.0311918
0.0318159
0.0464489
0.0586686
0.0485262
0.0405957
0.0296663
0.031293
0.0442683
0.0538218
0.0470961
0.0399592
0.0297595
0.0317614
0.0447352
0.0537493
0.0342226
0.0330435
0.027946
0.0302432
0.0441978
0.0577172
0.0594305
0.0469904
0.0318414
0.0305196
0.0416237
0.0495891
0.0550807
0.0454156
0.0321525
0.0305833
0.0408834
0.0479123
0.0552317
0.0461117
0.0328874
0.0289025
0.0341458
0.0352157
0.058601
0.0459621
0.0323027
0.0333254
0.0483582
0.0607907
0.0505672
0.0422851
0.0308963
0.0327223
0.0460644
0.0558497
0.0491643
0.0415667
0.0309792
0.0337541
0.04696
0.0562757
0.0358814
0.034703
0.0295147
0.0337183
0.0477484
0.0602909
0.0620479
0.0493074
0.0341963
0.0319283
0.043794
0.0520015
0.0574843
0.0474914
0.0335203
0.0320911
0.0429956
0.0503681
0.0576858
0.0480654
0.0345001
0.0301395
0.0355214
0.0366376
0.0614314
0.0484302
0.0344095
0.0350608
0.0503576
0.0632304
0.0533063
0.0447629
0.0329538
0.0347362
0.0485752
0.0585293
0.0537654
0.0453484
0.0332585
0.0349932
0.0485837
0.058555
0.052342
0.0444827
0.0330865
0.0357921
0.0497578
0.0591458
0.0385382
0.0373209
0.0315609
0.0339521
0.0495068
0.0643381
0.0652068
0.0513932
0.0349474
0.0339055
0.0461311
0.0549889
0.0594606
0.0493095
0.0353423
0.034021
0.0460704
0.0549747
0.0598843
0.0498132
0.0360852
0.0341171
0.0457108
0.0535295
0.0608315
0.0509881
0.0368339
0.03227
0.0380261
0.0392745
0.065558
0.0521179
0.036989
0.0374491
0.0536117
0.0667205
0.0566385
0.047701
0.0351577
0.0367781
0.0511472
0.0617256
0.0568127
0.0480994
0.0352965
0.0370351
0.0513153
0.0614428
0.0552277
0.0470429
0.0352136
0.037781
0.0520574
0.0623766
0.040631
0.039257
0.0332023
0.0381992
0.0536622
0.0674037
0.0685974
0.0548621
0.0386453
0.0362125
0.0490362
0.0583603
0.0631088
0.0523789
0.0378328
0.0366293
0.0495702
0.0588134
0.0633624
0.0528624
0.0383323
0.0362437
0.0481404
0.0567699
0.0642464
0.0538449
0.0392025
0.0344632
0.0402819
0.0413178
0.0702195
0.0539502
0.0367397
0.0380324
0.0561906
0.0709936
0.0601859
0.0503312
0.0370693
0.0389066
0.0542265
0.0651423
0.0608294
0.0512659
0.0378932
0.0394735
0.0541592
0.0646748
0.0612552
0.0513022
0.0378164
0.039994
0.0547262
0.0654895
0.0597882
0.0507537
0.0379453
0.0404926
0.0556135
0.0663525
0.0431672
0.0418469
0.0357601
0.0413649
0.0572901
0.0722026
0.0728665
0.0586351
0.041986
0.0388004
0.0525461
0.0621346
0.0671011
0.0561126
0.0403811
0.0391404
0.0526874
0.0623841
0.0666975
0.0559794
0.040905
0.0392713
0.0529813
0.0627568
0.0677153
0.0565321
0.0413856
0.0392775
0.051946
0.0613221
0.0689521
0.057803
0.0423918
0.0369587
0.0431751
0.0447632
0.0748125
0.059248
0.0422224
0.0430678
0.0609989
0.0757584
0.0647798
0.0550363
0.0408312
0.0423695
0.0583672
0.0698595
0.0649416
0.0551217
0.0409359
0.0426108
0.0580646
0.0692403
0.0656182
0.0554099
0.0411281
0.0431043
0.0587592
0.0699975
0.0640655
0.0541527
0.0407356
0.0437573
0.0596303
0.0709722
0.046416
0.04519
0.0385957
0.0441902
0.0615912
0.0770964
0.0783122
0.062872
0.0447804
0.0419659
0.0565103
0.0668723
0.0722856
0.0598033
0.0435361
0.0421936
0.056775
0.067243
0.0714362
0.0602257
0.0441075
0.0423571
0.0570027
0.0679638
0.0728208
0.0611042
0.0446204
0.0423697
0.0561701
0.0657245
0.0738604
0.062452
0.0455625
0.040001
0.0465196
0.0478693
0.080557
0.0635473
0.0456055
0.0461561
0.0649822
0.0816218
0.0695336
0.058902
0.0437508
0.0455103
0.0626701
0.0750411
0.0699272
0.0588359
0.0438986
0.0458705
0.0621635
0.0742985
0.0706167
0.0594694
0.0441842
0.046389
0.0629853
0.0749901
0.0688033
0.0584978
0.0441741
0.047283
0.0644363
0.0763389
0.0496746
0.0483609
0.0416295
0.0479152
0.0663891
0.0833437
0.0843895
0.0678905
0.0488414
0.045577
0.0611142
0.0720009
0.0775524
0.0649968
0.0473213
0.0456337
0.0613404
0.0724626
0.0771795
0.0648405
0.0475438
0.0459038
0.0617801
0.0732719
0.0777765
0.0654921
0.0482389
0.0462903
0.0620108
0.0733915
0.0786848
0.0662219
0.0488761
0.0461318
0.0606055
0.0711825
0.0800082
0.0674215
0.0498345
0.0437107
0.0505546
0.052014
0.0875001
0.0683378
0.0483244
0.0497835
0.0709985
0.0883677
0.0753449
0.0636822
0.047671
0.0496231
0.0680583
0.0814372
0.0758089
0.0642623
0.0480831
0.0502579
0.0681775
0.0807899
0.0763576
0.0645964
0.0485186
0.0508009
0.0685247
0.0819159
0.0741366
0.0632308
0.0480839
0.0514105
0.0697405
0.0827644
0.0544316
0.0527965
0.0454808
0.0514856
0.0718052
0.0906701
0.0916041
0.0738792
0.0523569
0.0495239
0.0661514
0.0780964
0.0839344
0.0699778
0.0514079
0.0497367
0.0664966
0.0785574
0.0836503
0.0705164
0.0519576
0.0502227
0.0669693
0.0789814
0.0846554
0.0713044
0.0526252
0.0500076
0.0655998
0.0767613
0.0861896
0.0730091
0.053705
0.0471188
0.0543713
0.0558429
0.0945163
0.0738652
0.0524192
0.0539604
0.0766135
0.0952486
0.0810991
0.0685181
0.0514725
0.0535988
0.0732266
0.0876726
0.0815596
0.0691063
0.0519008
0.0543217
0.0733171
0.0872825
0.0821463
0.0694764
0.0521682
0.0548553
0.0740532
0.0882412
0.0798592
0.0681917
0.052055
0.0558516
0.0755075
0.0892105
0.0586748
0.0570316
0.0493046
0.0555843
0.0773819
0.0980876
0.0991015
0.0794798
0.0568452
0.0541253
0.0717908
0.084547
0.0906875
0.0761571
0.0561103
0.0541986
0.0719126
0.084763
0.0906871
0.076253
0.0566362
0.0543688
0.0722405
0.085131
0.0916727
0.077287
0.0572118
0.0539083
0.0705581
0.0825297
0.0932261
0.0789886
0.0581839
0.0511429
0.0588401
0.0603808
0.10142
0.0799187
0.057259
0.0587103
0.082564
0.102959
0.0874187
0.0741395
0.0560619
0.0584955
0.0793635
0.0950646
0.0880871
0.0748559
0.0565776
0.0592536
0.0796055
0.0947742
0.0862516
0.0738201
0.0563952
0.0598544
0.0812466
0.0963466
0.0622273
0.0607772
0.0528629
0.0603139
0.0834343
0.104797
0.10622
0.0857338
0.0612193
0.057661
0.0764736
0.0901738
0.0980587
0.0816453
0.0599846
0.0579982
0.0766852
0.0901621
0.0980758
0.0824041
0.0609688
0.0577212
0.0753853
0.087983
0.0995941
0.0842552
0.0622098
0.0545874
0.0625175
0.0638951
0.109297
0.0850009
0.0600995
0.0622858
0.0888276
0.110624
0.0936529
0.0792641
0.0599039
0.0627537
0.0854099
0.101872
0.0940526
0.080088
0.060457
0.0628718
0.0850229
0.101416
0.0918636
0.0785233
0.06009
0.0643395
0.0870118
0.103211
0.0659961
0.0645841
0.0562332
0.0648657
0.0892671
0.111995
0.114089
0.0916891
0.065931
0.0615252
0.0816842
0.0962232
0.104901
0.0880832
0.0645716
0.0622612
0.0821709
0.0964565
0.105079
0.0881744
0.0652341
0.0618422
0.0806434
0.0940454
0.107
0.0905046
0.0667395
0.0586074
0.0670125
0.0684599
0.116919
0.0926461
0.0666943
0.0680611
0.0960719
0.119464
0.100048
0.0850665
0.06432
0.067238
0.0913504
0.109601
0.100301
0.0853043
0.0644724
0.0674899
0.0914095
0.108858
0.0978483
0.0837746
0.064177
0.0688462
0.0931281
0.110447
0.0705535
0.069017
0.0603418
0.0680281
0.0944946
0.119485
0.122908
0.0982963
0.0698899
0.0663584
0.0871806
0.10241
0.113499
0.0946196
0.0695989
0.0660659
0.0856207
0.0993029
0.114608
0.0967507
0.0710842
0.0628309
0.0714807
0.072622
0.124265
0.0990905
0.0717472
0.0728881
0.10277
0.127827
0.106198
0.0902333
0.0684956
0.0717098
0.0971859
0.116696
0.10621
0.0904534
0.0686093
0.0723864
0.0979728
0.11661
0.103409
0.088736
0.0683736
0.0738916
0.0997939
0.118574
0.0760072
0.0741412
0.0645276
0.0725086
0.100605
0.127578
0.130798
0.105048
0.0746618
0.070934
0.0929999
0.109264
0.121596
0.101496
0.0744688
0.0710225
0.0914408
0.105962
0.122736
0.103534
0.0770923
0.0674477
0.0764656
0.0774841
0.131078
0.103431
0.074402
0.07731
0.10902
0.135575
0.111868
0.0951399
0.0725869
0.0771613
0.104651
0.125502
0.108237
0.0930943
0.0720022
0.0780754
0.105879
0.125743
0.0796952
0.0778407
0.0679154
0.0765541
0.105661
0.133645
0.14012
0.112169
0.0798007
0.0738322
0.0950747
0.11045
0.130381
0.109255
0.0801188
0.069776
0.078963
0.0799291
0.13893
0.109471
0.0789816
0.0824544
0.115949
0.143874
0.118972
0.101811
0.0779107
0.0811482
0.110615
0.132671
0.114832
0.0989373
0.0765625
0.0817898
0.111268
0.132536
0.0826632
0.0813317
0.0716589
0.0799251
0.110554
0.139966
0.147457
0.117753
0.0834939
0.0770416
0.0993732
0.115434
0.137403
0.115078
0.0837869
0.0724873
0.0820096
0.0830815
0.144041
0.113594
0.0818531
0.0859196
0.121766
0.152096
0.120566
0.103769
0.0804304
0.0870753
0.118759
0.142161
0.0851344
0.0847776
0.0756001
0.083229
0.115918
0.147541
0.15674
0.125184
0.0879766
0.081079
0.104449
0.121091
0.144798
0.120992
0.0880075
0.0759919
0.0856603
0.0865284
0.150498
0.118737
0.0856637
0.089807
0.127354
0.160157
0.12507
0.107715
0.0833156
0.0901165
0.124229
0.148537
0.0885019
0.0879939
0.0781599
0.0881433
0.122223
0.155286
0.166853
0.134335
0.0953005
0.0878535
0.112304
0.128557
0.153916
0.128333
0.0933558
0.0802564
0.0900471
0.0907356
0.15803
0.124082
0.0892179
0.0939671
0.133807
0.168288
0.130429
0.112107
0.0870148
0.0943217
0.129894
0.156616
0.092585
0.0919815
0.0818279
0.0919341
0.126775
0.160346
0.173017
0.138621
0.0978173
0.0896454
0.114491
0.132194
0.163207
0.136192
0.0994097
0.0857184
0.0950525
0.0951061
0.161048
0.128917
0.0947306
0.10085
0.144167
0.180011
0.0948999
0.0943287
0.0846062
0.0941374
0.130749
0.166384
0.180113
0.143258
0.0999846
0.0917181
0.117437
0.136026
0.167038
0.13888
0.100699
0.0864983
0.0970144
0.0977906
0.1641
0.130757
0.0961562
0.104896
0.150233
0.187581
0.096441
0.0970541
0.0882322
0.0995236
0.135205
0.170006
0.194193
0.154206
0.107991
0.0888636
0.0983793
0.0982936
0.176034
0.138612
0.0998442
0.107258
0.153857
0.194139
0.143661
0.124365
0.0973499
0.107665
0.14911
0.179283
0.103152
0.102504
0.0916456
0.10198
0.137534
0.171788
0.200304
0.160163
0.112271
0.093668
0.102624
0.102228
0.17759
0.142141
0.105502
0.114352
0.163529
0.205451
0.103185
0.103067
0.0933226
0.103598
0.140255
0.175604
0.207592
0.16469
0.114527
0.0937726
0.103432
0.103468
0.177384
0.141604
0.104695
0.116058
0.167326
0.210355
0.10592
0.106016
0.0960408
0.107783
0.144745
0.180989
0.218017
0.173844
0.121214
0.0939131
0.0974995
0.09267
0.123303
0.115139
0.0980129
0.105808
0.145066
0.18486
0.224945
0.175104
0.119175
0.0959451
0.104685
0.103553
0.182761
0.145061
0.10723
0.123514
0.179867
0.227893
0.0927434
0.0977583
0.0957781
0.105728
0.122943
0.130133
0.191586
0.150385
0.109553
0.123536
0.183284
0.236746
0.09338
0.0977597
0.0939222
0.100575
0.118771
0.127786
0.1904
0.150596
0.110764
0.130048
0.19166
0.243557
0.0921238
0.0990189
0.0975782
0.106339
0.123671
0.129999
0.190111
0.148456
0.108189
0.127874
0.190573
0.246665
0.0911062
0.0965515
0.0942226
0.0987944
0.110599
0.11415
0.129977
0.120854
0.104107
0.112042
0.155053
0.198523
0.248663
0.190575
0.125317
0.0907071
0.0936544
0.089107
0.103902
0.102277
0.0925924
0.0916531
0.100304
0.10257
0.107757
0.105639
0.093721
0.0928823
0.111741
0.119883
0.177433
0.134263
0.0943339
0.123532
0.19024
0.249721
0.0842326
0.0895927
0.0875247
0.0868369
0.0961823
0.0967512
0.0918506
0.0881467
0.0776605
0.0764513
0.087576
0.0900417
0.08682
0.0833968
0.0707485
0.0662375
0.0796308
0.0837092
0.0806725
0.0760726
0.0619084
0.0590274
0.0737621
0.0788205
0.0768771
0.0715908
0.0563739
0.0541908
0.0698092
0.0755529
0.0741733
0.068157
0.052244
0.0505896
0.0667614
0.0731388
0.0720962
0.0654608
0.0490897
0.0477202
0.0642391
0.0712013
0.0703328
0.0632064
0.0465604
0.0453255
0.0619903
0.0695223
0.0685937
0.0609518
0.0442797
0.0433289
0.0599762
0.0678534
0.0670597
0.0590542
0.0424644
0.0416819
0.0581894
0.0663825
0.0656479
0.0573722
0.0409715
0.0403292
0.056608
0.0650251
0.0643415
0.0558853
0.039746
0.0392209
0.0552104
0.0637651
0.0631258
0.0545714
0.0387464
0.0383225
0.0539758
0.0625906
0.0619904
0.053411
0.0379408
0.0376026
0.052887
0.0614926
0.0609299
0.0523909
0.0372997
0.0370332
0.0519325
0.0604679
0.05994
0.0514977
0.0367947
0.0365874
0.0510974
0.059512
0.0590191
0.0507174
0.036403
0.0362445
0.050369
0.0586258
0.0581675
0.0500367
0.0361042
0.0359855
0.0497326
0.0578073
0.0573817
0.0494411
0.0358807
0.0357935
0.0491754
0.0570533
0.0566586
0.0489188
0.0357162
0.0356543
0.0486864
0.0563602
0.0559954
0.0484607
0.0355993
0.0355572
0.0482577
0.0557264
0.0553906
0.0480592
0.0355197
0.0354928
0.0478815
0.0551493
0.05484
0.0477057
0.0354681
0.0354525
0.0475493
0.0546247
0.0543413
0.0473968
0.0354431
0.0354364
0.0472586
0.0541508
0.0538904
0.0471243
0.0354371
0.0354359
0.0470014
0.053723
0.0534854
0.0468821
0.0354405
0.0354418
0.046773
0.0533393
0.0531211
0.0466666
0.0354485
0.0354513
0.04657
0.052994
0.0527954
0.0464758
0.0354585
0.0354609
0.0463904
0.0526858
0.0525027
0.0463063
0.0354682
0.0354707
0.046231
0.0524086
0.052242
0.0461568
0.0354773
0.0354786
0.0460904
0.0521623
0.0520075
0.0460241
0.0354849
0.0354866
0.0459661
0.0519401
0.0517998
0.0459083
0.0354921
0.0354919
0.0458574
0.0517445
0.0516136
0.0458056
0.0354963
0.035496
0.0457608
0.0515669
0.0514476
0.0457155
0.0354993
0.0354976
0.0456762
0.05141
0.0512979
0.0456356
0.0355002
0.0354984
0.045601
0.0512674
0.0511647
0.0455655
0.0355003
0.0354975
0.0455348
0.0511414
0.0510439
0.0455022
0.035499
0.0354963
0.0454747
0.0510256
0.0509356
0.0454457
0.0354971
0.0354932
0.045421
0.0509229
0.0508364
0.0453941
0.0354936
0.0354899
0.0453719
0.0508274
0.0507472
0.045348
0.0354898
0.0354855
0.0453283
0.0507427
0.0506649
0.0453057
0.0354846
0.0354806
0.0452878
0.0506631