/*--------------------------------*- C++ -*----------------------------------*\
| =========                 |                                                 |
| \\      /  F ield         | OpenFOAM: The Open Source CFD Toolbox           |
|  \\    /   O peration     | Version:  v2006                                 |
|   \\  /    A nd           | Website:  www.openfoam.com                      |
|    \\/     M anipulation  |                                                 |
\*---------------------------------------------------------------------------*/
FoamFile
{
    version     2.0;
    format      ascii;
    class       volScalarField;
    location    "0.08";
    object      isentropic(p);
}
// * * * * * * * * * * * * * * * * * * * * * * * * * * * * * * * * * * * * * //

dimensions      [1 -1 -2 0 0 0 0];


internalField   nonuniform List<scalar> 
16277
(
150008
150014
150017
150003
150012
150010
150011
150012
150013
150013
150013
150012
150012
150011
150011
150011
150010
150010
150010
150010
150010
150010
150010
150009
150009
150009
150009
150009
150009
150009
150009
150009
150008
150008
150008
150008
150008
150008
150008
150008
150007
150007
150007
150007
150007
150007
150007
150007
150006
150006
150006
150006
150006
150006
150006
150006
150005
150005
150005
150005
150005
150005
150005
150005
150005
150004
150004
150004
150004
150004
150004
150004
150004
150004
150004
150003
150003
150003
150003
150002
150002
150001
150001
150000
150001
150003
150004
150005
150004
150006
150005
150007
150008
150011
150017
150015
149976
149936
150011
150022
150021
150002
149897
149860
149993
150018
150013
149981
149826
149796
149971
150008
150002
149959
149768
149744
149949
149997
149991
149938
149721
149703
149929
149986
149979
149919
149684
149669
149911
149975
149968
149901
149653
149640
149893
149964
149958
149884
149627
149616
149877
149953
149947
149868
149605
149595
149862
149943
149937
149854
149585
149577
149849
149934
149928
149841
149568
149561
149836
149925
149919
149829
149553
149547
149824
149916
149911
149817
149540
149534
149813
149908
149903
149807
149528
149523
149803
149901
149896
149797
149517
149513
149794
149893
149889
149788
149508
149504
149785
149887
149882
149779
149499
149496
149776
149880
149876
149771
149492
149489
149769
149874
149870
149763
149485
149483
149761
149868
149864
149756
149479
149477
149755
149863
149859
149750
149474
149473
149748
149857
149853
149744
149470
149469
149743
149852
149848
149738
149466
149465
149737
149847
149844
149733
149463
149463
149732
149843
149839
149728
149461
149461
149727
149839
149835
149724
149459
149459
149723
149835
149831
149720
149458
149458
149719
149831
149827
149716
149457
149458
149715
149827
149824
149712
149457
149458
149712
149824
149821
149709
149458
149459
149709
149820
149817
149706
149459
149460
149706
149817
149814
149704
149460
149462
149704
149814
149811
149702
149462
149464
149702
149811
149809
149700
149465
149467
149700
149809
149806
149698
149468
149470
149699
149807
149804
149697
149471
149474
149698
149804
149802
149696
149475
149478
149697
149802
149800
149695
149480
149483
149696
149801
149799
149695
149485
149488
149696
149799
149797
149695
149490
149493
149697
149798
149796
149696
149496
149499
149697
149797
149795
149696
149502
149506
149698
149796
149795
149698
149508
149512
149700
149796
149795
149700
149515
149519
149702
149796
149795
149702
149522
149526
149704
149796
149796
149704
149530
149534
149707
149797
149797
149708
149537
149542
149711
149799
149799
149711
149545
149549
149715
149801
149801
149716
149552
149557
149719
149804
149804
149721
149560
149564
149724
149807
149807
149726
149567
149571
149729
149810
149811
149731
149573
149578
149735
149814
149815
149737
149579
149584
149741
149819
149820
149742
149585
149588
149746
149823
149824
149748
149589
149591
149751
149828
149828
149753
149591
149593
149756
149832
149832
149757
149592
149594
149760
149835
149836
149760
149592
149593
149763
149839
149839
149763
149591
149591
149765
149842
149842
149765
149589
149588
149767
149844
149844
149767
149585
149584
149768
149846
149846
149767
149581
149580
149769
149848
149847
149767
149575
149574
149768
149849
149848
149767
149570
149568
149767
149850
149849
149765
149564
149562
149766
149850
149849
149764
149558
149556
149764
149850
149849
149762
149552
149550
149762
149850
149848
149760
149546
149545
149760
149849
149847
149757
149541
149539
149757
149848
149846
149755
149535
149534
149755
149847
149845
149752
149530
149529
149752
149845
149843
149749
149525
149524
149749
149844
149842
149746
149521
149519
149746
149842
149840
149743
149516
149515
149743
149840
149838
149741
149512
149511
149741
149839
149836
149738
149509
149508
149738
149837
149834
149735
149505
149504
149735
149835
149833
149732
149502
149501
149732
149833
149831
149730
149498
149498
149730
149831
149829
149727
149495
149495
149727
149829
149827
149724
149492
149492
149724
149827
149825
149722
149489
149489
149722
149825
149823
149719
149487
149486
149719
149823
149820
149717
149484
149483
149717
149821
149818
149714
149481
149481
149714
149819
149817
149712
149478
149479
149712
149818
149816
149711
149477
149479
149714
149819
149820
149716
149484
149496
149727
149831
149868
149776
149552
149516
149697
149792
149864
149922
149955
149966
149972
149984
149989
149994
149997
149999
149999
149998
149997
149993
149989
149979
149974
149967
149960
149946
149913
149841
149702
149543
149280
149259
149528
149692
149671
149509
149242
149232
149495
149658
149653
149493
149229
149228
149493
149654
149652
149491
149224
149225
149491
149653
149654
149491
149226
149227
149492
149655
149656
149493
149228
149229
149495
149657
149658
149496
149230
149231
149497
149659
149660
149498
149232
149233
149499
149661
149662
149500
149233
149234
149501
149663
149664
149502
149235
149236
149504
149665
149666
149505
149237
149238
149506
149668
149669
149507
149239
149240
149508
149670
149671
149509
149241
149242
149511
149672
149673
149512
149243
149244
149513
149674
149675
149514
149245
149246
149515
149677
149678
149516
149247
149248
149518
149679
149680
149519
149249
149250
149520
149681
149682
149521
149251
149252
149523
149683
149684
149524
149253
149254
149525
149686
149687
149526
149255
149256
149527
149688
149689
149529
149257
149258
149530
149690
149692
149531
149259
149260
149532
149693
149694
149534
149261
149262
149535
149695
149697
149536
149263
149264
149538
149698
149699
149539
149265
149266
149540
149700
149702
149541
149267
149267
149543
149703
149704
149544
149268
149269
149545
149706
149707
149547
149270
149271
149548
149709
149710
149549
149272
149273
149551
149711
149713
149552
149274
149274
149554
149714
149716
149555
149275
149276
149556
149718
149719
149557
149276
149277
149559
149721
149722
149560
149277
149277
149562
149724
149726
149563
149278
149279
149565
149727
149729
149566
149279
149279
149568
149731
149733
149569
149279
149280
149571
149735
149737
149573
149280
149280
149574
149740
149742
149576
149280
149279
149578
149744
149747
149580
149279
149279
149582
149749
149752
149584
149279
149280
149587
149755
149758
149590
149280
149280
149593
149762
149765
149596
149281
149282
149600
149768
149771
149603
149282
149284
149607
149775
149780
149612
149286
149288
149617
149785
149789
149622
149290
149294
149627
149794
149799
149635
149299
149303
149641
149803
149807
149647
149309
149316
149656
149813
149820
149667
149327
149337
149678
149827
149835
149691
149351
149367
149699
149842
149849
149713
149383
149399
149723
149856
149862
149733
149417
149436
149744
149869
149875
149755
149458
149477
149766
149881
149885
149776
149495
149515
149785
149890
149894
149794
149536
149565
149812
149902
149908
149835
149586
149372
149590
149824
149872
149731
149385
149410
149751
149889
149894
149760
149426
149445
149766
149897
149905
149782
149475
149504
149793
149909
149921
149816
149542
149569
149828
149927
149939
149848
149602
149626
149854
149936
149944
149865
149653
149688
149903
149955
149901
149663
149557
149542
149828
149928
149953
149851
149598
149636
149877
149963
149975
149893
149662
149692
149902
149973
149988
149914
149709
149745
149935
149995
149999
149942
149761
149514
149905
149906
149983
149895
149672
149700
149922
149998
150007
149943
149738
149758
149948
150015
150015
149960
149791
149828
149997
150024
150009
149811
149780
149763
149959
150013
150030
149982
149815
149838
149990
150034
150053
150006
149864
149891
150032
150057
150047
149854
149857
149844
150011
150050
150065
150023
149886
149920
150037
150071
150076
150071
149955
149960
149905
150085
150084
150059
149937
149974
150070
150099
150116
150096
150017
150034
150099
150110
150108
150080
149997
150071
150134
150145
150140
150120
150094
149981
150226
150119
150187
150178
150154
150181
150195
150182
150210
150215
150198
150274
150251
150217
150180
150221
150233
150277
150227
150187
150215
150260
150311
150293
150272
150233
150188
150214
150181
150035
150104
150103
150006
149952
149842
149889
149966
149977
149924
149869
149743
149801
149905
149931
149903
149858
149700
149847
149605
149919
149858
149933
149631
149637
149788
149857
149890
149848
149691
149655
149814
149875
149824
149752
149586
149658
149831
149886
149880
149808
149630
149561
149742
149824
149858
149815
149638
149613
149778
149832
149782
149709
149528
149634
149820
149880
149878
149795
149599
149524
149728
149812
149857
149817
149644
149609
149780
149832
149778
149694
149518
149626
149809
149857
149843
149779
149603
149518
149701
149784
149863
149808
149624
149594
149779
149855
149795
149711
149516
149631
149814
149873
149872
149783
149584
149526
149753
149828
149827
149509
149611
149581
149849
149835
149842
149755
149581
149330
149841
149744
149884
149785
149645
149595
149823
149863
149854
149573
149642
149587
149826
149855
149837
149752
149565
149330
149809
149729
149876
149795
149613
149599
149785
149862
149746
149848
149336
149596
149767
149859
149828
149762
149525
149600
149512
149809
149854
149830
149592
149561
149779
149847
149835
149535
149636
149620
149850
149859
149843
149796
149570
149654
149514
149842
149831
149870
149538
149519
149721
149811
149876
149823
149622
149593
149792
149867
149794
149703
149505
149618
149814
149873
149860
149784
149585
149516
149713
149800
149885
149826
149629
149590
149793
149876
149800
149709
149503
149629
149829
149898
149893
149803
149583
149506
149736
149825
149904
149845
149667
149605
149836
149887
149889
149543
149707
149576
149894
149869
149827
149739
149539
149622
149833
149884
149878
149808
149605
149514
149720
149811
149883
149826
149621
149561
149794
149862
149850
149515
149657
149585
149869
149869
149826
149732
149519
149647
149852
149905
149894
149821
149622
149525
149728
149822
149883
149835
149629
149573
149791
149851
149840
149488
149648
149558
149878
149857
149827
149727
149506
149651
149859
149907
149891
149824
149621
149517
149728
149817
149916
149854
149641
149626
149826
149921
149793
149929
149317
149663
149764
149941
149839
149759
149531
149651
149855
149896
149870
149818
149600
149655
149547
149853
149879
149886
149578
149527
149746
149844
149912
149852
149626
149595
149802
149889
149786
149834
149392
149631
149828
149919
149853
149769
149538
149640
149860
149919
149897
149807
149604
149361
149873
149785
149925
149812
149646
149521
149765
149847
149907
149854
149635
149578
149811
149876
149853
149557
149630
149597
149911
149897
149857
149760
149535
149627
149863
149916
149898
149799
149606
149248
149952
149750
149966
149682
149718
149486
149773
149837
149913
149847
149606
149516
149756
149847
149921
149867
149640
149596
149824
149902
149844
149673
149549
149598
149874
149911
149856
149758
149524
149610
149858
149918
149900
149794
149592
149217
149952
149745
149968
149661
149704
149455
149762
149827
149917
149852
149602
149515
149767
149857
149919
149862
149620
149557
149817
149893
149863
149528
149637
149530
149895
149881
149841
149735
149486
149591
149855
149913
149849
149754
149498
149607
149858
149920
149895
149798
149574
149312
149872
149775
149932
149767
149632
149460
149751
149834
149912
149850
149584
149494
149755
149849
149917
149856
149606
149547
149810
149891
149843
149567
149570
149533
149878
149886
149831
149719
149461
149575
149849
149912
149852
149754
149489
149602
149856
149915
149886
149806
149526
149649
149457
149861
149837
149997
149426
149454
149700
149837
149899
149842
149545
149447
149729
149831
149897
149836
149572
149496
149789
149867
149850
149416
149622
149416
149987
149831
149829
149696
149438
149533
149832
149893
149822
149713
149439
149546
149833
149897
149832
149732
149456
149567
149841
149906
149879
149768
149539
149150
149925
149723
149944
149634
149640
149375
149723
149795
149885
149807
149504
149410
149705
149812
149891
149823
149528
149435
149720
149825
149893
149830
149556
149473
149776
149861
149832
149412
149589
149391
149937
149822
149805
149668
149387
149485
149807
149874
149799
149687
149385
149507
149812
149880
149809
149700
149404
149535
149818
149884
149853
149767
149456
149590
149384
149825
149793
149988
149330
149374
149640
149800
149864
149804
149465
149349
149659
149782
149860
149790
149471
149370
149678
149791
149874
149801
149501
149463
149715
149845
149665
149919
149025
149590
149541
149930
149752
149670
149299
149448
149774
149856
149768
149650
149322
149441
149772
149849
149770
149652
149330
149453
149781
149855
149783
149670
149356
149473
149779
149850
149816
149723
149382
149563
149274
149793
149724
150036
149193
149303
149567
149762
149824
149760
149383
149276
149607
149741
149832
149755
149411
149293
149626
149751
149836
149760
149422
149313
149642
149761
149839
149766
149450
149356
149703
149804
149755
149354
149436
149289
149849
149765
149735
149585
149259
149368
149737
149813
149726
149593
149251
149372
149731
149813
149729
149602
149261
149399
149744
149823
149746
149625
149288
149415
149744
149819
149784
149685
149321
149478
149228
149750
149695
149968
149149
149222
149534
149724
149790
149725
149312
149185
149549
149697
149789
149708
149326
149196
149566
149701
149795
149712
149340
149231
149587
149714
149797
149717
149370
149278
149652
149763
149707
149252
149370
149190
149825
149709
149690
149526
149161
149275
149692
149769
149674
149527
149148
149296
149687
149771
149679
149541
149160
149306
149691
149776
149692
149558
149186
149329
149687
149769
149730
149620
149216
149412
149112
149698
149616
149985
149001
149119
149446
149667
149733
149663
149209
149087
149477
149639
149738
149648
149222
149091
149493
149642
149741
149648
149232
149108
149503
149646
149744
149655
149253
149127
149516
149656
149749
149661
149286
149215
149577
149716
149562
149533
148942
149254
149559
149740
149607
149478
149029
149198
149617
149720
149613
149468
149044
149200
149620
149717
149620
149472
149067
149212
149625
149720
149631
149489
149089
149242
149634
149724
149685
149560
149141
149170
149195
149605
149631
149709
149045
148988
149402
149588
149685
149597
149134
148977
149417
149580
149684
149587
149137
148999
149430
149584
149687
149591
149150
149017
149443
149592
149687
149592
149174
149096
149494
149649
149474
149495
148765
149128
149453
149672
149529
149386
148897
149082
149544
149657
149542
149379
148916
149094
149553
149657
149548
149386
148935
149104
149557
149658
149563
149406
148963
149140
149569
149665
149625
149484
149030
148981
149159
149520
149572
149604
148948
148853
149302
149508
149608
149509
148989
148841
149310
149496
149610
149501
149006
148858
149329
149502
149619
149512
149031
148874
149347
149514
149622
149520
149064
148964
149437
149587
149450
149144
148832
148924
149522
149563
149469
149258
148786
148953
149484
149585
149472
149283
148795
148986
149489
149589
149470
149288
148795
148973
149463
149575
149530
149379
148839
148949
148858
149446
149450
149590
148729
148675
149195
149424
149533
149432
148843
148675
149201
149410
149538
149423
148873
148700
149228
149422
149549
149437
148926
148823
149311
149508
149266
149376
148329
148893
149213
149537
149347
149182
148569
148812
149355
149499
149340
149157
148560
148790
149362
149488
149369
149172
148605
148822
149365
149494
149440
149265
148654
148819
148659
149351
149342
149521
148540
148473
149059
149316
149444
149328
148697
148498
149088
149313
149456
149325
148719
148517
149113
149325
149463
149342
148770
148609
149232
149419
149275
148773
148579
148518
149300
149342
149232
148967
148354
148601
149253
149389
149249
149022
148382
148617
149258
149400
149265
149041
148409
148660
149269
149409
149357
149151
148509
148401
148735
149193
149306
149277
148471
148300
148930
149206
149351
149230
148527
148318
148967
149215
149365
149237
148593
148435
149128
149325
149141
148492
148372
148344
149160
149228
149106
148820
148141
148399
149121
149279
149124
148870
148163
148438
149139
149296
149150
148903
148206
148485
149162
149314
149266
149030
148355
147988
148785
149004
149255
149017
148397
148059
148832
149071
149261
149084
148383
148104
148865
149101
149256
149123
148485
148201
148931
149167
148908
148607
147876
148195
148965
149141
148986
148710
147934
148225
149008
149181
149023
148753
147973
148281
149036
149202
149155
148901
148130
147789
148555
148879
149108
148927
148124
147845
148657
148957
149150
148985
148197
148043
148855
149119
148813
148479
147662
147968
148822
149017
148781
148454
147579
147905
148794
149004
148833
148523
147645
147999
148848
149043
148991
148703
147817
147520
148258
148722
148950
148809
147813
147532
148422
148789
149002
148827
147912
147733
148650
148960
148622
148230
147320
147699
148740
148899
148752
148392
147458
147775
148706
148905
148779
148438
147452
146990
148067
148437
148767
148518
147510
147150
148201
148569
148831
148609
147623
147389
148443
148779
148459
147885
147067
147355
148554
148712
148538
148104
147076
147511
148581
148782
148746
148378
147305
146817
147906
148344
148587
148561
147252
146821
147875
148353
148594
148340
147217
147000
148106
148507
148140
147846
146450
147142
148210
148570
148303
147911
146655
147218
148331
148603
148548
148169
146951
146500
147569
148142
148463
148289
146965
146651
147809
148291
148520
148344
147245
146998
148138
148498
147913
147380
146117
146722
147961
148274
148207
147751
146491
145852
147456
147806
148272
147867
146665
146078
147535
147983
148340
148040
146780
146512
147883
148302
147822
147272
145900
146611
147920
148201
148271
147812
146488
145524
147224
147654
147957
147548
146006
145697
147266
147825
147344
146841
145032
145927
147480
147892
147606
147033
145412
146205
147684
148019
147997
147493
145953
145284
146830
147463
147876
147571
146129
146023
147490
147979
147273
146721
144959
145405
147096
147566
147417
146814
145037
144477
146277
146977
147524
147106
145433
145140
146926
147518
147014
146275
144456
145457
147129
147520
147583
147016
145185
144514
146298
147018
147246
146788
145034
144284
146353
147028
146770
145988
143790
143202
145240
146310
146936
146506
144364
144080
146256
147020
146402
145639
143180
144651
146534
146977
147238
146764
144595
143016
145523
146468
145570
144488
141861
143348
145718
146351
146357
145569
142977
142433
145343
146223
145769
144031
141973
143459
145951
146294
146586
145837
143255
141281
144442
145603
144732
143345
140242
142277
145076
145664
145787
144923
141919
141405
144910
145823
146040
144607
141797
138088
142794
143861
145007
143754
140296
139980
143736
144962
144929
143568
139470
139402
143824
145167
144774
142967
137735
136450
141808
143972
142730
141096
135101
139424
143170
144461
144425
143003
138627
137406
142348
144107
143722
141922
136611
136189
141711
143498
143348
141257
135321
134895
141016
143247
143232
140863
134621
134341
140675
143208
143144
140451
134058
133802
140218
143056
142960
139989
133581
133396
139765
142857
142746
139548
133236
133100
139340
142629
142510
139141
132985
132889
138952
142388
142266
138776
132813
132753
138610
142144
142022
138456
132707
132673
138313
141900
141780
138180
132650
132636
138057
141659
141541
137944
132630
132632
137840
141422
141306
137744
132640
132654
137656
141190
141078
137575
132673
132696
137502
140967
140859
137435
132723
132754
137374
140753
140650
137320
132788
132824
137271
140550
140454
137228
132862
132901
137189
140360
140272
137155
132943
132985
137125
140187
140106
137098
133028
133071
137074
140028
139954
137053
133115
133158
137034
139883
139816
137019
133201
133243
137004
139752
139692
136993
133286
133327
136982
139634
139581
136974
133369
133409
136966
139530
139484
136960
133449
133487
136955
139439
139398
136951
133525
133562
136948
139358
139323
136946
133598
133633
136944
139289
139258
136944
133667
133699
136944
139228
139202
136944
133730
133760
136945
139176
139154
136947
133789
133816
136949
139132
139113
136952
133843
133868
136955
139094
139077
136958
133892
133915
136962
139061
139048
136966
133938
133959
136970
139034
139023
136974
133980
133999
136979
139011
139001
136984
134018
134035
136988
138991
138983
136993
134052
134068
136998
138975
138968
137004
134084
134099
137008
138961
138956
137014
134113
134127
137018
138949
138945
137023
134140
134152
137028
138939
138935
137033
134164
134175
137037
138930
138927
137041
134187
134197
137045
138923
138920
137050
134207
134216
137054
138916
138914
137058
134225
134234
137062
138910
138908
137066
134242
134250
137070
138905
138904
137074
134258
134265
137077
138901
138900
137081
134272
134278
137084
138898
138897
137088
134285
134291
137091
138895
138894
137095
134297
134302
137097
138893
138893
137101
134308
134313
137104
138891
138891
137108
134319
134323
137111
138890
138890
137114
134329
134333
137117
138889
138890
137121
134338
134342
137123
138889
138890
137127
134347
134351
137130
138889
138890
137133
134356
134360
137136
138889
138891
137140
134364
134368
137143
138890
138892
137146
134373
134377
137149
138892
138894
137153
134381
134385
137156
138893
138896
137160
134389
134393
137163
138896
138898
137167
134398
134401
137170
138898
138901
137174
134406
134409
137177
138901
138904
137181
134414
134417
137184
138904
138907
137188
134422
134425
137191
138908
138911
137195
134429
134433
137199
138912
138915
137203
134437
134441
137206
138916
138920
137210
134445
134449
137214
138920
138924
137218
134453
134457
137221
138925
138929
137225
134461
134464
137229
138930
138934
137233
134468
134472
137237
138936
138940
137241
134476
134480
137245
138941
138946
137249
134484
134487
137253
138947
138952
137257
134491
134495
137261
138953
138958
137265
134499
134502
137269
138960
138965
137274
134506
134510
137278
138966
138971
137282
134514
134517
137286
138973
138978
137290
134521
134525
137294
138980
138985
137299
134528
134532
137303
138987
138992
137307
134536
134539
137311
138995
139000
137316
134543
134546
137320
139002
139007
137324
134550
134553
137328
139009
139015
137333
134556
134560
137337
139017
139022
137341
134563
134566
137345
139025
139030
137349
134570
134573
137353
139032
139038
137358
134576
134579
137362
139040
139045
137366
134583
134586
137370
139048
139053
137374
134589
134592
137378
139056
139061
137382
134595
134598
137386
139063
139069
137391
134601
134604
137394
139071
139077
137399
134607
134610
137402
139079
139085
137407
134613
134615
137410
139087
139092
137415
134618
134621
137418
139095
139100
137423
134624
134626
137426
139103
139108
137430
134629
134631
137434
139111
139116
137438
134634
134636
137442
139119
139124
137446
134639
134641
137449
139126
139132
137453
134644
134646
137457
139134
139140
137461
134648
134650
137464
139142
139147
137468
134652
134654
137471
139149
139155
137475
134656
134658
137478
139157
139162
137482
134660
134662
137485
139164
139169
137489
134664
134665
137492
139171
139178
137495
134667
134668
137498
139179
139185
137503
134673
134675
137506
139189
139192
137511
134678
134680
137509
139189
139177
137498
134678
134670
137482
139159
139203
137503
134685
134760
137599
139355
139448
137673
134818
142056
144691
146368
146740
146890
147546
147883
148029
148174
148587
148855
149138
149349
149505
149620
149703
149763
149805
149836
149859
149877
149890
149901
149909
149916
149922
149926
149929
149931
149933
149934
149936
149936
149932
149934
149941
149946
149954
149962
149972
149983
149994
150005
150015
150021
150023
150022
150020
150017
150015
150013
150012
150010
150009
150007
150005
150003
150000
149998
149996
149994
149992
149990
149989
149988
149987
149986
149986
149986
149986
149987
149989
149991
149993
149997
150000
150005
150010
150015
150021
150027
150033
150040
150046
150052
150058
150063
150068
150072
150075
150078
150080
150081
150081
150081
150080
150079
150077
150074
150071
150068
150064
150061
150057
150053
150048
150044
150040
150036
150032
150028
150024
150020
150016
150013
150009
150006
150002
149999
149997
149994
149991
149989
149986
149984
149982
149980
149978
149977
149975
149974
149972
149971
149970
149969
149968
149967
149966
149965
149965
149964
149964
149963
149963
149963
149962
149962
149962
149962
149962
149962
149962
149962
149962
149962
149962
149962
149963
149963
149963
149963
149964
149964
149965
149965
149966
149966
149967
149967
149968
149968
149969
149969
149970
149971
149971
149972
149973
149973
149974
149975
149976
149976
149977
149978
149979
149980
149980
149981
149982
149983
149984
149985
149986
149987
149988
149989
149990
149991
149993
149994
149996
150000
150007
150012
150015
150015
150017
150004
150012
150012
150020
150026
150029
150029
150027
150026
150024
150022
150021
150020
150019
150018
150017
150016
150016
150015
150015
150014
150014
150013
150013
150012
150012
150012
150011
150011
150011
150011
150010
150010
150010
150010
150009
150009
150009
150009
150008
150008
150008
150008
150008
150007
150007
150007
150007
150006
150006
150006
150006
150006
150005
150005
150005
150005
150005
150004
150004
150004
150004
150003
150003
150003
150003
150002
150002
150002
150001
150001
150000
150000
149999
149999
149998
149997
149995
149994
149994
149995
149997
149999
150000
150004
150009
150019
150024
150024
150021
150019
150016
150013
150010
150008
150005
150003
150000
149998
149995
149993
149990
149988
149985
149983
149980
149979
149976
149975
149971
149971
149967
149966
149963
149963
149959
149959
149956
149955
149952
149952
149949
149949
149945
149945
149942
149942
149939
149939
149936
149936
149933
149934
149930
149931
149928
149928
149925
149926
149923
149923
149920
149921
149918
149918
149915
149916
149913
149914
149911
149911
149908
149909
149906
149907
149904
149905
149902
149903
149900
149901
149899
149899
149897
149898
149895
149896
149894
149895
149893
149894
149892
149893
149891
149893
149891
149893
149891
149893
149891
149894
149892
149895
149893
149896
149895
149898
149897
149900
149899
149902
149901
149905
149903
149907
149906
149910
149909
149912
149911
149915
149914
149917
149916
149919
149918
149921
149920
149923
149922
149925
149923
149926
149924
149927
149925
149927
149925
149927
149926
149927
149926
149927
149925
149927
149925
149926
149924
149926
149924
149925
149923
149924
149922
149923
149921
149922
149920
149921
149919
149920
149918
149919
149917
149918
149916
149917
149914
149915
149913
149914
149912
149913
149911
149912
149910
149912
149910
149914
149922
149932
149956
149955
149953
149965
149949
149952
149965
149949
149952
149966
149949
149953
149967
149950
149954
149968
149951
149955
149969
149952
149956
149970
149953
149957
149971
149954
149958
149971
149955
149959
149972
149956
149960
149973
149957
149960
149974
149957
149961
149975
149958
149962
149975
149959
149962
149976
149959
149963
149976
149960
149963
149977
149960
149964
149977
149960
149964
149978
149960
149964
149978
149960
149964
149978
149960
149964
149978
149960
149964
149978
149959
149963
149977
149958
149962
149976
149957
149961
149976
149956
149960
149974
149954
149958
149973
149952
149956
149972
149950
149954
149970
149948
149952
149968
149946
149951
149967
149945
149949
149966
149943
149947
149965
149941
149945
149964
149940
149944
149964
149939
149943
149962
149938
149942
149962
149938
149942
149963
149938
149943
149964
149938
149943
149964
149939
149944
149965
149939
149945
149966
149940
149946
149967
149941
149947
149969
149942
149948
149970
149944
149950
149971
149945
149951
149972
149946
149952
149974
149948
149954
149975
149949
149955
149976
149951
149957
149977
149952
149958
149979
149954
149960
149980
149955
149961
149981
149957
149963
149982
149958
149964
149983
149960
149965
149985
149961
149967
149986
149963
149968
149987
149965
149970
149988
149966
149972
149989
149968
149973
149990
149970
149975
149992
149971
149976
149993
149973
149978
149994
149975
149980
149995
149977
149981
149996
149979
149983
149998
149981
149985
149999
149983
149987
150000
149985
149989
150002
149987
149991
150003
149989
149993
150004
149991
149995
150006
149994
149997
150007
149996
150000
150008
149999
150002
150010
150002
150004
150011
150004
150007
150013
150007
150010
150014
150010
150013
150016
150013
150015
150017
150017
150018
150019
150020
150022
150020
150023
150013
150015
150015
150015
150015
150014
150014
150013
150013
150013
150012
150012
150011
150011
150011
150011
150010
150010
150010
150009
150009
150009
150008
150008
150008
150007
150007
150006
150006
150005
150005
150004
150004
150003
150002
150001
150001
150000
149999
149997
149996
149995
149994
149993
149992
149991
149991
149990
149992
149994
149996
149997
150000
150002
150005
150007
150009
150011
150012
150012
150012
150011
150011
150010
150008
150007
150006
150005
150004
150003
150001
150000
149999
149998
149997
149996
149995
149994
149993
149992
149991
149990
149989
149988
149988
149986
149969
149966
149966
149970
149985
149989
149989
149995
149995
149997
149997
149997
149998
149999
150000
150001
150002
150003
150004
150005
150006
150007
150008
150009
150010
150011
150015
150014
150012
150011
150010
150009
150008
150007
150006
150005
150004
150003
150002
150001
150001
150000
149999
149999
150000
149999
149999
149997
149998
150000
150000
150001
149994
149993
149993
149993
149993
149990
149990
149975
149977
149972
149972
149972
149973
149974
149976
149996