/*--------------------------------*- C++ -*----------------------------------*\
| =========                 |                                                 |
| \\      /  F ield         | OpenFOAM: The Open Source CFD Toolbox           |
|  \\    /   O peration     | Version:  v2006                                 |
|   \\  /    A nd           | Website:  www.openfoam.com                      |
|    \\/     M anipulation  |                                                 |
\*---------------------------------------------------------------------------*/
FoamFile
{
    version     2.0;
    format      ascii;
    class       volScalarField;
    location    "0.131";
    object      Co;
}
// * * * * * * * * * * * * * * * * * * * * * * * * * * * * * * * * * * * * * //

dimensions      [0 0 0 0 0 0 0];


internalField   nonuniform List<scalar> 
16277
(
0.00667404
0.00636179
0.00690477
0.00716897
0.00720715
0.00705604
0.00705231
0.00693342
0.00688169
0.00686773
0.00682976
0.00681537
0.00680143
0.00679152
0.00678055
0.00676945
0.00675779
0.00674546
0.00673276
0.00671949
0.00670564
0.00669123
0.00667626
0.00666075
0.00664471
0.00662813
0.00661104
0.00659343
0.00657532
0.00655672
0.00653763
0.00651808
0.00649808
0.00647764
0.00645678
0.00643552
0.00641388
0.00639187
0.00636951
0.00634683
0.00632385
0.00630059
0.00627707
0.00625331
0.00622935
0.00620521
0.0061809
0.00615646
0.00613192
0.00610729
0.00608262
0.00605791
0.00603322
0.00600856
0.00598396
0.00595944
0.00593505
0.00591081
0.00588674
0.00586289
0.00583928
0.00581594
0.00579291
0.0057702
0.00574785
0.00572589
0.00570434
0.00568324
0.00566261
0.00564248
0.00562286
0.00560378
0.00558527
0.00556737
0.00555009
0.00553345
0.00551742
0.00550194
0.00548545
0.00547055
0.0054573
0.00544786
0.00544571
0.0054787
0.00554257
0.00571622
0.00603011
0.00674784
0.00841931
0.0120051
0.0180021
0.0141629
0.0127239
0.0121887
0.0119205
0.011656
0.0111317
0.0100946
0.0110759
0.0117153
0.0109143
0.010798
0.0101584
0.00838706
0.00902973
0.00923615
0.00918555
0.00918313
0.00861497
0.00783759
0.00854501
0.00871794
0.00898702
0.00882961
0.00804363
0.00782439
0.00862895
0.00881465
0.00901842
0.00879666
0.00788965
0.00779038
0.00866874
0.00886192
0.00903132
0.00876865
0.00779332
0.00769261
0.00863961
0.00886266
0.00898941
0.00871081
0.00767426
0.00757841
0.00857831
0.00883114
0.00894963
0.00864549
0.0075621
0.00747191
0.00851352
0.00879149
0.00890663
0.00858036
0.00745998
0.00737435
0.00844955
0.00874975
0.00886201
0.00851635
0.00736572
0.00728367
0.00838745
0.00870697
0.0088164
0.00845351
0.00727761
0.0071982
0.00832717
0.00866362
0.00876991
0.00839138
0.00719416
0.00711692
0.008267
0.00861853
0.00872256
0.00832972
0.00711432
0.00703885
0.00820681
0.00857194
0.00867426
0.0082683
0.00703727
0.00696323
0.00814642
0.00852384
0.00862503
0.00820692
0.00696237
0.00688949
0.00808565
0.0084742
0.00857476
0.00814537
0.00688908
0.00681712
0.00802432
0.00842298
0.00852335
0.00808342
0.00681695
0.00674578
0.00796234
0.00837019
0.0084707
0.00802089
0.00674563
0.00667496
0.00789941
0.00831576
0.00841671
0.00795763
0.00667481
0.00660454
0.00783553
0.00825963
0.0083613
0.00789349
0.00660424
0.00653429
0.00777055
0.0082017
0.00830438
0.00782832
0.0065337
0.00646396
0.00770432
0.00814193
0.0082458
0.00776197
0.006463
0.00639338
0.00763796
0.0080829
0.00818544
0.00769432
0.0063919
0.00632234
0.00757039
0.00802266
0.00812325
0.00762526
0.00632024
0.00625065
0.00750135
0.00796057
0.00805913
0.00755464
0.00624785
0.00617813
0.0074307
0.00789651
0.00799295
0.00748232
0.00617453
0.00610463
0.0073583
0.00783037
0.0079246
0.00740816
0.00610013
0.00602996
0.00728402
0.00776204
0.00785395
0.00733202
0.00602448
0.00595397
0.00720771
0.00769139
0.00778089
0.00725377
0.00594743
0.00587653
0.00712926
0.00761832
0.00770531
0.0071733
0.00586885
0.0057975
0.00704856
0.00754272
0.00762711
0.00709049
0.00578862
0.00571679
0.0069655
0.00746449
0.00754618
0.00700524
0.00570665
0.00563432
0.00688
0.00738355
0.00746246
0.00691751
0.00562289
0.00555006
0.00679202
0.00729983
0.0073759
0.00682725
0.00553735
0.00546406
0.00670156
0.0072133
0.00728649
0.00673452
0.00545011
0.00537645
0.0066087
0.007124
0.00719432
0.00663943
0.00536133
0.00528741
0.0065136
0.00703202
0.00709952
0.00654218
0.00527124
0.00519722
0.00641647
0.00693754
0.0070023
0.00644305
0.00518019
0.00510629
0.00631768
0.00684081
0.00690299
0.00634246
0.00508866
0.00501518
0.00621768
0.0067422
0.00680203
0.00624097
0.00499729
0.00492464
0.00611713
0.00664221
0.00670003
0.00613934
0.00490695
0.00483563
0.00601689
0.00654155
0.00659782
0.00603857
0.00481873
0.00474936
0.00591805
0.00644112
0.00649645
0.00593989
0.00473397
0.00466731
0.00582196
0.00634206
0.00639723
0.00584483
0.00465432
0.00459129
0.00573031
0.00624582
0.00630185
0.00575531
0.00458179
0.00452345
0.00564516
0.00615425
0.00621232
0.00567345
0.00451866
0.0044679
0.00556999
0.00606933
0.00613073
0.00560146
0.00446772
0.00443264
0.00552106
0.00600614
0.00605988
0.00554278
0.0044325
0.00441498
0.00549404
0.00597746
0.00600331
0.00550047
0.00441487
0.00441668
0.00548712
0.00596847
0.00596414
0.00547724
0.00441662
0.00443839
0.00550098
0.00597961
0.00594128
0.00547181
0.00443836
0.00447936
0.00553448
0.00600942
0.00594439
0.00549483
0.00448258
0.00454068
0.0055897
0.00606116
0.00599337
0.00555759
0.00455367
0.00462209
0.0056657
0.00613318
0.00606869
0.00563804
0.00464092
0.00471508
0.00575361
0.00621583
0.006154
0.00572949
0.00473733
0.00481452
0.00584975
0.00630603
0.0062453
0.00582718
0.00483782
0.0049163
0.00595082
0.00640139
0.00634048
0.0059283
0.00493912
0.00501739
0.00605374
0.00649917
0.00643667
0.00602978
0.00503834
0.00511499
0.00615547
0.00659646
0.00653122
0.00612882
0.00513283
0.00520669
0.00625346
0.00669081
0.0066219
0.00622312
0.00522045
0.0052906
0.0063456
0.00678018
0.00670688
0.0063108
0.00529959
0.00536532
0.00643024
0.00686292
0.00678473
0.00639045
0.0053691
0.0054301
0.00650616
0.0069378
0.00685446
0.00646244
0.00543027
0.00548483
0.00657258
0.00700407
0.00691893
0.00653193
0.00548498
0.0055294
0.00662902
0.00706127
0.00698832
0.00659661
0.00552954
0.00556422
0.00667597
0.00710966
0.00705108
0.00665127
0.00556428
0.0055899
0.0067138
0.00714967
0.00710449
0.00669646
0.00559014
0.00560741
0.00674311
0.00718181
0.00714872
0.00673246
0.00560801
0.0056186
0.00676595
0.00720749
0.00718419
0.00675935
0.0056187
0.00562468
0.00678343
0.00722809
0.0072122
0.00677967
0.00562423
0.00562606
0.00679488
0.00724342
0.00723397
0.0067945
0.00562585
0.00562427
0.00680212
0.00725457
0.00725074
0.00680466
0.00562444
0.0056204
0.00680646
0.00726278
0.00726299
0.00681076
0.00562065
0.00561498
0.00680843
0.0072686
0.00727166
0.00681382
0.00561523
0.00560859
0.00680874
0.00727276
0.00727799
0.00681494
0.00560889
0.0056014
0.00680741
0.00727517
0.00728162
0.00681381
0.00560157
0.00559373
0.00680471
0.00727595
0.00728366
0.0068116
0.00559408
0.00558637
0.00680235
0.00727704
0.00728563
0.00680952
0.0055868
0.00557874
0.00679875
0.00727677
0.00728547
0.00680558
0.00557896
0.00557084
0.00679412
0.00727519
0.00728449
0.00680124
0.0055713
0.00556326
0.00678992
0.00727426
0.00728336
0.00679673
0.00556353
0.00555623
0.00678624
0.00727317
0.00728216
0.00679219
0.00555606
0.00554905
0.00678229
0.0072719
0.00727973
0.00678698
0.00554831
0.00554115
0.00677577
0.00726768
0.00727676
0.00678254
0.005539
0.00552631
0.00675782
0.0072516
0.00722676
0.00672626
0.00548515
0.00547201
0.00669644
0.00719845
0.00705767
0.00652746
0.00531193
0.00541473
0.00662416
0.00711282
0.00680746
0.00625946
0.00506522
0.00559714
0.00684567
0.00731008
0.00730775
0.00660863
0.00525955
0.00651012
0.00810982
0.00881084
0.00956422
0.00847798
0.00655441
0.00821552
0.0119294
0.0149491
0.0140216
0.0182153
0.0155631
0.0146056
0.0139297
0.0137427
0.0136274
0.0136551
0.0136624
0.0136859
0.013698
0.0137537
0.0138575
0.0140238
0.0143904
0.0152763
0.019548
0.0278967
0.029924
0.0272822
0.025822
0.0235744
0.0210923
0.018056
0.0124225
0.011058
0.0165804
0.0198821
0.0177341
0.0154034
0.0105328
0.00875419
0.0129158
0.0150819
0.0141116
0.0123553
0.00848432
0.00784356
0.0115557
0.0133533
0.0131136
0.0114398
0.00774336
0.00761382
0.0112288
0.0129436
0.0129623
0.0112296
0.00760946
0.00760703
0.011224
0.012942
0.0129512
0.0112333
0.00762255
0.00763035
0.0112407
0.012957
0.0129658
0.0112497
0.00763902
0.00763926
0.0112344
0.0129584
0.0129923
0.0112881
0.00766349
0.00766468
0.0112732
0.0129847
0.0129931
0.0112828
0.00767444
0.00767621
0.011269
0.012974
0.0130349
0.0113129
0.00769396
0.00771098
0.0113206
0.0130143
0.0130234
0.0113089
0.00770625
0.00772375
0.0113179
0.0130042
0.0130657
0.0113511
0.00773453
0.00775251
0.0113597
0.013046
0.0130547
0.011347
0.00774738
0.00776557
0.0113564
0.0130357
0.013098
0.0113905
0.00777723
0.00779506
0.011399
0.0130781
0.0130866
0.0113857
0.00779006
0.00780889
0.0113955
0.0130681
0.0131308
0.0114298
0.00782069
0.00783974
0.0114399
0.0131119
0.0131215
0.0114287
0.00783587
0.00785448
0.0114379
0.0131025
0.0131649
0.0114713
0.00786601
0.00788554
0.0114815
0.0131461
0.0131566
0.0114824
0.00788999
0.00789339
0.0114696
0.013138
0.0132006
0.0115152
0.00791339
0.00793282
0.0115249
0.0131819
0.0131924
0.0115254
0.00793728
0.00794151
0.0115141
0.0131754
0.013239
0.0115607
0.0079619
0.00798148
0.0115708
0.0132204
0.0132308
0.0115709
0.0079856
0.0079896
0.011559
0.0132135
0.0132785
0.0116067
0.00801058
0.00803033
0.0116176
0.013261
0.0132717
0.0116179
0.00803424
0.0080382
0.0116063
0.013255
0.0133206
0.0116542
0.00805885
0.00807852
0.0116655
0.0133036
0.0133159
0.0116667
0.0080826
0.00808658
0.0116561
0.0133006
0.0133671
0.0117046
0.00810667
0.00812573
0.0117159
0.013351
0.0133647
0.0117178
0.0081294
0.00813263
0.011708
0.0133508
0.0134193
0.0117581
0.00815251
0.00817149
0.0117716
0.0134055
0.0134209
0.0117747
0.00817424
0.00817693
0.0117666
0.0134094
0.013481
0.0118191
0.00819645
0.00821418
0.0118339
0.0134696
0.0134876
0.0118269
0.0082076
0.0082253
0.0118436
0.013478
0.0135523
0.011886
0.00823529
0.00825272
0.0119041
0.0135443
0.0135669
0.0119008
0.00824579
0.00826303
0.0119214
0.0135621
0.0136415
0.011968
0.00827257
0.00829001
0.0119909
0.0136386
0.013667
0.0120049
0.00829176
0.00829307
0.0120066
0.0136679
0.0137541
0.0120715
0.00831234
0.00833207
0.0121011
0.0137577
0.0137933
0.0121225
0.00833698
0.00834345
0.0121334
0.0138023
0.0138997
0.0122111
0.00837098
0.00840086
0.0122553
0.0139151
0.0139615
0.0122771
0.00840814
0.00844562
0.0123274
0.0139822
0.014093
0.0124096
0.00848086
0.00852962
0.0124689
0.0141206
0.0141792
0.0125181
0.00856734
0.0086343
0.0125914
0.0142294
0.0143308
0.0126763
0.00869651
0.00878088
0.0127727
0.0143965
0.0144787
0.0128695
0.00887413
0.00898418
0.0129795
0.0145681
0.0146659
0.0131006
0.00911286
0.00926501
0.0132354
0.0147759
0.014928
0.0134313
0.00946868
0.00969758
0.0136263
0.015061
0.0152078
0.0138122
0.00994465
0.0101129
0.0139205
0.0152663
0.0154177
0.0139764
0.0102653
0.0105933
0.0142494
0.0155018
0.0155935
0.0143013
0.0106656
0.0109031
0.0144032
0.0156454
0.0157776
0.0145765
0.0111289
0.0113729
0.0146752
0.0158828
0.016138
0.0150519
0.0117723
0.0119791
0.0151578
0.0162349
0.0165871
0.0155727
0.0124994
0.0126716
0.0156588
0.0166614
0.0167812
0.0162477
0.0135636
0.0131774
0.0150469
0.0146574
0.0435917
0.0321194
0.0187812
0.0122269
0.0206308
0.0289997
0.0191872
0.0169884
0.0119233
0.0110861
0.0150954
0.0163953
0.01579
0.0147481
0.0111125
0.011228
0.0150174
0.0163172
0.0160816
0.0149177
0.0114036
0.0118532
0.0153422
0.0165437
0.0162435
0.0151075
0.0120041
0.0127576
0.0159428
0.0169932
0.0168898
0.0158627
0.0129469
0.0137513
0.0164741
0.0172073
0.0150112
0.0154071
0.0136752
0.0190966
0.0314633
0.0422774
0.0299202
0.0216162
0.013506
0.0135184
0.0179435
0.0199864
0.0178732
0.0165139
0.0131155
0.0132154
0.0163564
0.0174442
0.0172848
0.0163621
0.0134848
0.0135856
0.0163011
0.0171761
0.0170988
0.0165173
0.0141365
0.013768
0.0150269
0.0144109
0.0420988
0.0314799
0.0194167
0.0153712
0.0225589
0.0295934
0.0199364
0.0180464
0.0140049
0.0136876
0.0166204
0.017437
0.0168118
0.0162473
0.0138022
0.0142238
0.0165591
0.0171024
0.01472
0.0154096
0.0141435
0.019365
0.0309597
0.0409983
0.0305201
0.0223452
0.014501
0.015047
0.018869
0.0206023
0.0183852
0.0172719
0.0144504
0.0149267
0.0171681
0.0175472
0.0142629
0.0151218
0.0142385
0.0197975
0.0309318
0.0408016
0.0300884
0.0225654
0.0151101
0.014928
0.0182592
0.0197053
0.0172833
0.0168319
0.014624
0.0144185
0.0152783
0.0144538
0.0390496
0.0298366
0.019351
0.0151328
0.0224451
0.0300505
0.0200357
0.0184768
0.0152985
0.0150014
0.0170041
0.0174642
0.013544
0.0146735
0.0144703
0.0193749
0.0288891
0.0366038
0.0275143
0.0221414
0.01642
0.0147159
0.0157031
0.015
0.034145
0.0271238
0.0184109
0.0159407
0.0211005
0.0257344
0.013154
0.0139572
0.0132845
0.0156175
0.0218047
0.0260531
0.0138594
0.0128639
0.0109731
0.0110467
0.0160967
0.0195607
0.00483129
0.00459244
0.00427973
0.00562159
0.00910538
0.0111657
0.0138887
0.0120608
0.00869279
0.0142741
0.0170851
0.018595
0.0224086
0.0213078
0.0188419
0.0206844
0.0219204
0.0215716
0.0370693
0.0321897
0.0244722
0.0252074
0.0330912
0.0383041
0.0373819
0.0329395
0.0255946
0.0269002
0.0364439
0.0428393
0.0266818
0.0268681
0.0236808
0.0235663
0.0351213
0.0462052
0.048911
0.0385474
0.0262333
0.0240194
0.0315669
0.0366854
0.0452981
0.0371055
0.0262679
0.0221262
0.0254185
0.0257672
0.0429484
0.0337886
0.0240791
0.0260599
0.0385566
0.0489254
0.0250549
0.0246327
0.0213077
0.0232769
0.0330266
0.042008
0.0487357
0.0381215
0.0254153
0.0208636
0.0241911
0.0245798
0.0415413
0.0324272
0.0227505
0.0250823
0.0378142
0.0485319
0.0244698
0.0239374
0.0205369
0.022612
0.0320413
0.0411321
0.0483543
0.037685
0.0251419
0.0205912
0.0238982
0.0242689
0.0408762
0.0319895
0.0223785
0.024739
0.0374663
0.0480548
0.0243859
0.023921
0.0204702
0.0222842
0.031698
0.0406471
0.0480339
0.0372537
0.024607
0.0200745
0.0233896
0.0238773
0.0395671
0.030867
0.0217527
0.0243342
0.0369094
0.0474855
0.0211186
0.0213285
0.0190901
0.0199935
0.0251786
0.0279081
0.0411147
0.0301511
0.0193881
0.0234229
0.0365064
0.0477109
0.0230075
0.0227102
0.0192809
0.022014
0.0313827
0.0401298
0.0472958
0.0365789
0.0237774
0.0195071
0.0230559
0.0236966
0.0409302
0.0308102
0.0202516
0.0237551
0.0369568
0.0476629
0.0234432
0.0229369
0.0194148
0.021997
0.0314767
0.0404177
0.0477865
0.0366906
0.0237782
0.0195343
0.0233478
0.0239775
0.0404884
0.0316827
0.0222395
0.0239126
0.0367888
0.0477271
0.0236812
0.0230448
0.0194087
0.0207681
0.0312425
0.0410159
0.0478116
0.0369516
0.0240262
0.0199505
0.0238488
0.0243644
0.0418049
0.0314132
0.0207212
0.024258
0.0371431
0.0481038
0.0246238
0.024133
0.020235
0.0203901
0.0320095
0.0434829
0.0477586
0.0368389
0.0237943
0.0216335
0.0295512
0.0350759
0.044435
0.0359915
0.0244806
0.020777
0.0246046
0.0253319
0.0417418
0.0325622
0.0226503
0.0248748
0.0376453
0.0482301
0.0249997
0.0241423
0.020332
0.0223672
0.0322865
0.0414341
0.0485415
0.0378954
0.0249018
0.0205797
0.0242047
0.0248419
0.0422625
0.0328099
0.02273
0.0250175
0.0379932
0.0488252
0.0253325
0.024631
0.0207118
0.0228278
0.0329455
0.0424751
0.0492461
0.0382822
0.0253504
0.0213316
0.0251717
0.0257763
0.0452978
0.0336963
0.0218652
0.0249379
0.038074
0.0492233
0.0370852
0.031393
0.0229345
0.0249628
0.0365372
0.0451289
0.0263934
0.025529
0.0213814
0.0237042
0.0342918
0.0438706
0.0499765
0.039261
0.0259411
0.0216798
0.0255631
0.0263036
0.0461141
0.0348254
0.0229462
0.0255225
0.0386699
0.0499944
0.037632
0.0317967
0.023459
0.0258381
0.0374902
0.0462004
0.0273561
0.0264881
0.0222961
0.024443
0.0349636
0.0448818
0.0510296
0.0400011
0.0266975
0.0224446
0.0263798
0.0270436
0.0471272
0.035522
0.0235598
0.0261178
0.0393501
0.050693
0.0386278
0.0326593
0.0240194
0.0263906
0.038215
0.0468984
0.0276974
0.0269199
0.0228586
0.0249625
0.0359345
0.0462
0.0520024
0.0411306
0.0273692
0.0228848
0.0269051
0.0276285
0.0477391
0.0375679
0.0266221
0.0271134
0.0405458
0.0517529
0.0396999
0.0335934
0.0246653
0.027134
0.0391853
0.047815
0.0288709
0.0279382
0.0236451
0.0251829
0.0373376
0.0492725
0.0525682
0.0410815
0.0274115
0.0255171
0.0344643
0.0407022
0.0487601
0.0400012
0.027917
0.02391
0.0283701
0.0292753
0.0494998
0.0387256
0.0270469
0.0279034
0.0413875
0.0527874
0.0412093
0.0348555
0.0258489
0.0284642
0.0405343
0.04939
0.0300665
0.0291612
0.0245272
0.0279686
0.0396165
0.0505625
0.0539465
0.0424815
0.0288399
0.0265035
0.0356671
0.0421219
0.05015
0.041185
0.0288535
0.0250687
0.0295129
0.0303618
0.05149
0.0395371
0.0265805
0.0288032
0.0429986
0.0547042
0.0429977
0.0363055
0.0268834
0.0292334
0.0416951
0.050902
0.0311327
0.0302372
0.0254663
0.0294007
0.0415992
0.0525591
0.0549993
0.0438595
0.0299627
0.0278482
0.0380466
0.0451712
0.0507938
0.0416326
0.029381
0.0274514
0.0371102
0.0435466
0.0508968
0.0421505
0.0297039
0.0262039
0.0311198
0.03218
0.0537886
0.0416254
0.0289051
0.0303789
0.0447311
0.0565764
0.0450579
0.0381183
0.0282879
0.0305013
0.0434795
0.0524755
0.0322369
0.031392
0.0266241
0.0306774
0.0431674
0.0546624
0.0569113
0.0453171
0.0310575
0.0287086
0.0392564
0.0469495
0.0526294
0.0429243
0.0301957
0.0286868
0.0385337
0.0454522
0.0530232
0.0439629
0.0313328
0.0273267
0.0323297
0.0334941
0.0567179
0.0436204
0.0296627
0.0314148
0.0463044
0.0587794
0.0485266
0.0405703
0.0296378
0.0312753
0.0442518
0.0538137
0.0470906
0.0399536
0.0297539
0.0317597
0.0447289
0.0537414
0.0342228
0.0330411
0.0278664
0.031539
0.0447893
0.0573159
0.0592575
0.0471278
0.0323089
0.03054
0.0416388
0.0495512
0.0550917
0.0454338
0.032167
0.030582
0.0408726
0.0479021
0.0552339
0.0461141
0.0328848
0.0289635
0.034146
0.0352211
0.0589147
0.0455109
0.0313109
0.0330752
0.0482874
0.0608775
0.0505695
0.0422655
0.0308889
0.0327229
0.0460685
0.0558551
0.0491557
0.0415605
0.0309796
0.0337463
0.0469623
0.0562848
0.0358971
0.0347215
0.0296325
0.0314063
0.0466852
0.0609814
0.0624168
0.0488982
0.0330534
0.0318089
0.043719
0.0520338
0.0575102
0.0475034
0.0335134
0.0320824
0.0429813
0.0503504
0.0577141
0.048088
0.034503
0.0302496
0.0355271
0.0366502
0.062224
0.0473688
0.0319746
0.0339107
0.0499412
0.063618
0.0533313
0.0447178
0.0328853
0.0347078
0.0485667
0.0585476
0.053748
0.0453277
0.0332331
0.0350003
0.0486017
0.0585782
0.0523376
0.0444782
0.033082
0.0357925
0.0497515
0.059135
0.03853
0.0373235
0.0314355
0.036192
0.0505144
0.0636451
0.0647705
0.0518002
0.0361633
0.0339947
0.0461648
0.0549153
0.0594701
0.0493394
0.0353786
0.0340437
0.0460836
0.0549831
0.059886
0.0498178
0.0360919
0.0341194
0.0457061
0.0535236
0.0608331
0.0509891
0.0368252
0.032377
0.0380176
0.039276
0.0661908
0.0511567
0.0348865
0.0365231
0.053284
0.0670213
0.0566625
0.0476604
0.0350948
0.036764
0.05114
0.0617316
0.0568112
0.0480978
0.0352898
0.037042
0.051328
0.0614546
0.0552177
0.0470358
0.0352131
0.037776
0.0520692
0.0623947
0.0406384
0.0392568
0.0333256
0.0358945
0.0525948
0.0680714
0.0690429
0.0543701
0.037286
0.0360738
0.0489466
0.0584071
0.0631297
0.0523757
0.0378029
0.0366041
0.049561
0.058811
0.0633846
0.0528788
0.038337
0.0362377
0.0481368
0.0567681
0.0642327
0.0538321
0.0392006
0.0343176
0.0402908
0.041301
0.0693741
0.0551695
0.0394564
0.0396116
0.0567583
0.0704184
0.0601026
0.0503206
0.0370964
0.0389584
0.0542798
0.065159
0.0608277
0.0512756
0.0379252
0.0394824
0.0541598
0.0646669
0.0612607
0.0513076
0.0378244
0.040001
0.0547327
0.065492
0.0597823
0.0507511
0.0379506
0.0404852
0.0556203
0.0663689
0.0431805
0.041845
0.0359084
0.0381214
0.0558198
0.0731344
0.0735524
0.0578126
0.0398363
0.038562
0.0524126
0.062199
0.0671317
0.0561049
0.0403327
0.0391008
0.0526778
0.0623881
0.0667091
0.0559895
0.0409018
0.039264
0.0529719
0.0627484
0.0677187
0.0565363
0.0413868
0.0392759
0.0519421
0.0613168
0.0689624
0.0578141
0.0423899
0.0370577
0.043161
0.0447613
0.0752954
0.058491
0.0405743
0.0422771
0.0607269
0.0760301
0.0647919
0.0549959
0.0407834
0.0423423
0.0583565
0.0698762
0.0649379
0.0551099
0.0409125
0.0426056
0.0580638
0.0692396
0.0656162
0.0554084
0.0411269
0.0431111
0.0587656
0.0700026
0.0640645
0.0541546
0.0407415
0.0437523
0.0596429
0.0709901
0.0464211
0.0451827
0.0387555
0.0412575
0.0602278
0.0779269
0.0789256
0.0622018
0.0429717
0.041823
0.0564276
0.0669281
0.0723269
0.0597868
0.0434607
0.0421317
0.0567555
0.0672453
0.0714557
0.0602411
0.0441055
0.0423529
0.0569952
0.0679568
0.0728259
0.0611096
0.0446238
0.0423711
0.0561687
0.0657205
0.0738729
0.0624621
0.0455615
0.0401223
0.0465055
0.0478708
0.0811413
0.0626296
0.0435881
0.045192
0.0646388
0.0819545
0.0695534
0.0588697
0.0437013
0.0454655
0.0626525
0.0750683
0.0699283
0.0588221
0.0438634
0.0458663
0.0621657
0.0743024
0.0706163
0.0594698
0.044185
0.0463946
0.0629913
0.0749949
0.0688006
0.0584986
0.0441797
0.0472748
0.064444
0.0763532
0.0496892
0.048349
0.0418114
0.0443397
0.0647601
0.0843498
0.0852234
0.0669486
0.0463871
0.0453878
0.0610158
0.0720813
0.077589
0.0649654
0.0472226
0.045549
0.0613108
0.0724697
0.0771994
0.0648514
0.0475345
0.045897
0.06177
0.0732677
0.0777762
0.0654932
0.0482383
0.0462889
0.0620075
0.0733873
0.0786913
0.0662278
0.0488786
0.0461306
0.0606034
0.0711808
0.0800052
0.0674184
0.0498329
0.0436541
0.050555
0.0520094
0.0872781
0.0686206
0.0490152
0.0501756
0.0711133
0.0882059
0.0753236
0.0637213
0.0477257
0.0496662
0.0680954
0.0814327
0.0757948
0.0642746
0.048107
0.0502655
0.068182
0.0807858
0.0763487
0.0645903
0.0485173
0.0508013
0.0685227
0.0819119
0.0741319
0.0632274
0.0480828
0.0514064
0.069741
0.0827607
0.0544352
0.0527834
0.045577
0.0500103
0.0711108
0.091078
0.0918957
0.0735724
0.051502
0.0494531
0.0661008
0.0781104
0.0839568
0.0699741
0.0513875
0.0497224
0.0664894
0.0785556
0.0836621
0.0705264
0.0519572
0.0502176
0.0669609
0.0789723
0.0846548
0.0713042
0.0526233
0.0500062
0.0655969
0.0767583
0.0861896
0.0730077
0.0537064
0.0470314
0.0543744
0.0558404
0.0941628
0.0742917
0.0534257
0.0543947
0.076728
0.095062
0.0810751
0.0685423
0.0514828
0.0536461
0.0732682
0.0876681
0.0815411
0.0691103
0.0519178
0.054331
0.0733255
0.0872821
0.0821344
0.0694702
0.0521712
0.0548585
0.0740545
0.0882395
0.0798539
0.0681887
0.0520553
0.0558442
0.0755114
0.0892157
0.0586769
0.0570238
0.049367
0.0545672
0.0768756
0.0983385
0.0993462
0.0792204
0.0561737
0.0540665
0.071747
0.0845674
0.0907273
0.0761507
0.0560617
0.0541642
0.0719028
0.0847685
0.0906896
0.0762562
0.0566347
0.0543713
0.0722399
0.0851298
0.091674
0.0772853
0.0572079
0.0539045
0.0705552
0.0825269
0.0932127
0.0789739
0.0581737
0.0511647
0.0588269
0.0603815
0.10156
0.079635
0.0567207
0.0584437
0.0824822
0.10308
0.0874528
0.0741216
0.0560124
0.0584611
0.0793617
0.0950928
0.0880977
0.0748461
0.0565459
0.0592399
0.0795998
0.0947809
0.0862492
0.0738057
0.0563838
0.0598481
0.0812542
0.09635
0.0622199
0.0607496
0.0530431
0.0577043
0.0822518
0.105483
0.106646
0.0852789
0.0599816
0.0575675
0.0764101
0.0901795
0.0981004
0.0816212
0.0598997
0.0579367
0.0766681
0.0901707
0.0981007
0.0824053
0.0609581
0.0577219
0.0753815
0.0879865
0.0996102
0.0842593
0.0622185
0.0544364
0.0625414
0.0638846
0.108651
0.0857667
0.0619352
0.0631059
0.0890495
0.110314
0.0935944
0.079257
0.0599135
0.0628072
0.085407
0.101803
0.0940243
0.0800904
0.060488
0.0628865
0.0850276
0.101413
0.0918721
0.0785353
0.0601064
0.0643548
0.0870449
0.103244
0.065985
0.0645356
0.0564702
0.0615135
0.0877403
0.112879
0.114603
0.0910904
0.0643833
0.0614214
0.0816207
0.0962448
0.104929
0.0880284
0.064489
0.0622167
0.0821639
0.0964623
0.105111
0.0881688
0.0652254
0.0618308
0.080635
0.0940395
0.107015
0.0905153
0.0667357
0.0586906
0.0669807
0.0684603
0.117317
0.0918558
0.0650981
0.0675392
0.0958438
0.119564
0.100077
0.0849982
0.0642353
0.0671985
0.0913209
0.109596
0.100311
0.0853152
0.0644843
0.0674968
0.0914186
0.108864
0.0978587
0.0837884
0.0641824
0.0688524
0.0931215
0.110445
0.0705683
0.0689993
0.0603928
0.0669322
0.0939066
0.119767
0.123138
0.0980857
0.0693449
0.0662492
0.0871217
0.102436
0.113534
0.0945726
0.0694956
0.0660059
0.0855798
0.0993116
0.114611
0.0967369
0.0710676
0.0629655
0.0714433
0.0726352
0.124871
0.0979046
0.0694279
0.0724975
0.102621
0.127988
0.106195
0.0901664
0.0684622
0.0716797
0.0971755
0.116718
0.106209
0.0904536
0.0686098
0.0723928
0.097976
0.116618
0.103409
0.0887374
0.0683731
0.073882
0.0997824
0.118561
0.0760011
0.0741323
0.0644832
0.0728438
0.10074
0.127447
0.130711
0.10524
0.0749897
0.0710405
0.0930943
0.109234
0.121589
0.101536
0.0745187
0.0710437
0.0914636
0.105937
0.12272
0.103535
0.0771017
0.06745
0.0764692
0.077476
0.131075
0.103423
0.074388
0.0773052
0.109013
0.135566
0.111864
0.095136
0.0725824
0.077156
0.104644
0.125495
0.108233
0.0930906
0.0719985
0.0780717
0.105874
0.125737
0.079692
0.0778369
0.0679129
0.076535
0.105653
0.133642
0.140126
0.11215
0.079769
0.0738275
0.0950676
0.110449
0.130377
0.109248
0.0801106
0.0697685
0.0789549
0.0799246
0.138924
0.109465
0.0789764
0.0824492
0.115941
0.143865
0.118967
0.101806
0.0779077
0.0811456
0.110612
0.132667
0.114823
0.09893
0.0765568
0.0817836
0.111254
0.132518
0.0826673
0.0813233
0.0716875
0.0794679
0.110313
0.140089
0.147581
0.117725
0.0833045
0.0769829
0.0993651
0.115484
0.137425
0.11507
0.0837553
0.0724728
0.081986
0.0830815
0.144051
0.113554
0.0817349
0.0856639
0.121623
0.152185
0.120583
0.103734
0.080379
0.0870591
0.118762
0.142153
0.0851287
0.0847689
0.0755768
0.0834934
0.116014
0.147478
0.156726
0.125177
0.0879994
0.0810854
0.104461
0.121086
0.144793
0.121001
0.0880105
0.0760338
0.0856131
0.0865172
0.150696
0.118386
0.0849395
0.0894042
0.127268
0.160305
0.125096
0.107619
0.0831179
0.090018
0.124172
0.148557
0.0885043
0.0879609
0.0781028
0.0881603
0.122217
0.155268
0.167051
0.133657
0.0942541
0.0875222
0.11206
0.128642
0.153836
0.128267
0.0932565
0.0801349
0.0900549
0.0907582
0.157711
0.124387
0.0901641
0.0942965
0.134003
0.168202
0.130425
0.112275
0.0871314
0.0943712
0.129949
0.156607
0.0925589
0.0919473
0.0818465
0.091508
0.126539
0.160417
0.173106
0.138508
0.097464
0.0894884
0.114406
0.132256
0.163176
0.136107
0.0993169
0.0856827
0.094996
0.0951008
0.161032
0.128895
0.094702
0.100809
0.144117
0.179973
0.0949086
0.0943341
0.0844617
0.0952007
0.131108
0.166024
0.180054
0.143527
0.100407
0.0918667
0.117621
0.13598
0.167061
0.138935
0.100738
0.0864594
0.0969708
0.0977322
0.164075
0.130726
0.0960941
0.104833
0.150118
0.187578
0.0964223
0.0969932
0.0879818
0.100358
0.135488
0.169606
0.194216
0.154148
0.107935
0.088716
0.0983751
0.098292
0.175738
0.138864
0.100723
0.107325
0.153832
0.194098
0.143654
0.124417
0.0973934
0.107668
0.149129
0.179275
0.103155
0.102499
0.0916478
0.101969
0.137513
0.171772
0.200317
0.160138
0.112243
0.0935172
0.102596
0.102215
0.177361
0.142303
0.105981
0.114319
0.163493
0.205453
0.103181
0.103063
0.0933159
0.103586
0.140285
0.1756
0.207573
0.164684
0.114541
0.093765
0.103432
0.103468
0.17737
0.141595
0.104716
0.116067
0.167329
0.210351
0.105897
0.106007
0.0960276
0.107758
0.144691
0.18099
0.217994
0.173831
0.121202
0.0939174
0.097491
0.0926622
0.123314
0.115089
0.0980687
0.104819
0.144666
0.185101
0.224941
0.175131
0.119096
0.0957142
0.104656
0.103561
0.182437
0.145265
0.107886
0.123404
0.179779
0.227878
0.0926956
0.0977261
0.0955808
0.105662
0.122934
0.130185
0.191642
0.150434
0.109561
0.123548
0.183297
0.236735
0.0933581
0.0977581
0.0939256
0.101067
0.118678
0.12776
0.191022
0.1486
0.107422
0.129112
0.190537
0.24311
0.0921833
0.0985044
0.097292
0.106403
0.123668
0.130141
0.190482
0.148535
0.10748
0.127697
0.190612
0.246598
0.0911584
0.0965758
0.0942067
0.0991621
0.110746
0.114129
0.130112
0.120048
0.101728
0.116123
0.156509
0.197038
0.248727
0.19042
0.125395
0.0907832
0.0936988
0.0890354
0.10384
0.102235
0.0925718
0.0916273
0.100265
0.102521
0.107743
0.105639
0.0936885
0.0925847
0.111896
0.120003
0.177354
0.13628
0.0980819
0.123952
0.190432
0.250217
0.0841898
0.089594
0.0874796
0.0867745
0.0960969
0.0966867
0.0918048
0.0880998
0.0776245
0.0764126
0.0875135
0.0899948
0.0867771
0.0833365
0.0707289
0.0662238
0.079586
0.0836745
0.0806462
0.0760424
0.0618968
0.0590207
0.0737429
0.0788019
0.0768653
0.0715796
0.0563725
0.0541921
0.0698028
0.0755458
0.0741681
0.0681515
0.0522454
0.0505892
0.0667538
0.073133
0.0720894
0.0654514
0.0490881
0.0477199
0.0642304
0.0711951
0.0703284
0.0632006
0.0465623
0.045329
0.0619876
0.0695198
0.0685919
0.0609509
0.0442845
0.0433349
0.0599753
0.0678512
0.0670571
0.0590524
0.0424704
0.0416868
0.0581872
0.0663797
0.0656442
0.0573699
0.0409754
0.0403327
0.0566051
0.0650196
0.0643332
0.0558807
0.0397483
0.0392211
0.0552032
0.0637539
0.0631126
0.0545614
0.0387437
0.0383174
0.0539639
0.0625765
0.0619769
0.0533993
0.0379341
0.0375964
0.0528762
0.0614799
0.0609179
0.0523815
0.0372947
0.0370297
0.0519243
0.0604563
0.0599285
0.0514901
0.0367925
0.0365851
0.0510896
0.0595003
0.0590074
0.0507089
0.0363995
0.0362397
0.0503599
0.0586143
0.0581562
0.0500271
0.0360985
0.0359797
0.0497235
0.0577968
0.057372
0.0494326
0.035875
0.0357887
0.049168
0.0570448
0.0566515
0.0489128
0.0357125
0.0356512
0.0486815
0.0563542
0.0559901
0.0484566
0.0355968
0.0355549
0.048254
0.0557216
0.0553861
0.0480557
0.0355174
0.0354903
0.0478778
0.0551447
0.0548356
0.047702
0.0354657
0.0354503
0.0475457
0.0546203
0.0543371
0.0473933
0.0354409
0.0354344
0.0472552
0.0541465
0.0538864
0.0471209
0.0354351
0.0354343
0.0469983
0.0537188
0.0534815
0.046879
0.0354391
0.0354407
0.0467703
0.0533354
0.0531172
0.0466638
0.0354476
0.0354504
0.0465675
0.0529902
0.0527917
0.0464734
0.0354576
0.0354599
0.0463881
0.0526825
0.0524998
0.0463042
0.035467
0.0354692
0.046229
0.0524061
0.0522398
0.0461549
0.0354756
0.0354767
0.0460885
0.0521602
0.0520054
0.0460222
0.035483
0.0354844
0.0459641
0.0519379
0.0517976
0.0459061
0.0354899
0.0354895
0.0458552
0.0517421
0.0516113
0.0458033
0.0354937
0.0354932
0.0457584
0.0515645
0.0514452
0.045713
0.0354964
0.0354945
0.0456735
0.0514075
0.0512953
0.0456327
0.035497
0.0354952
0.045598
0.0512645
0.0511616
0.0455622
0.035497
0.0354941
0.0455314
0.051138
0.0510403
0.0454986
0.0354956
0.0354928
0.0454709
0.0510218
0.0509315
0.0454417
0.0354937
0.0354897
0.0454169
0.0509187
0.0508319
0.0453898
0.0354902
0.0354866
0.0453675
0.0508227
0.0507423
0.0453435
0.0354864
0.035482
0.0453237
0.0507378
0.0506599
0.045301
0.0354811
0.035477
0.0452832
0.0506582
0.0505859
0.0452634
0.035476