/*--------------------------------*- C++ -*----------------------------------*\
| =========                 |                                                 |
| \\      /  F ield         | OpenFOAM: The Open Source CFD Toolbox           |
|  \\    /   O peration     | Version:  v2006                                 |
|   \\  /    A nd           | Website:  www.openfoam.com                      |
|    \\/     M anipulation  |                                                 |
\*---------------------------------------------------------------------------*/
FoamFile
{
    version     2.0;
    format      ascii;
    class       volScalarField;
    location    "0.131";
    object      nut;
}
// * * * * * * * * * * * * * * * * * * * * * * * * * * * * * * * * * * * * * //

dimensions      [0 2 -1 0 0 0 0];


internalField   nonuniform List<scalar> 
16277
(
21.5144
14.5282
52.9345
10.4915
15.4863
8.84325
3.66213
1.51048
0.817889
0.552778
0.434794
0.374902
0.339101
0.313121
0.291246
0.271554
0.25363
0.237508
0.223207
0.210627
0.199576
0.189823
0.181146
0.173358
0.166309
0.159885
0.153999
0.148583
0.143584
0.138958
0.134668
0.130683
0.126977
0.123525
0.120309
0.117311
0.114515
0.111909
0.109481
0.10722
0.105117
0.103164
0.101354
0.0996798
0.0981368
0.0967201
0.0954253
0.0942493
0.0931895
0.0922437
0.0914108
0.09069
0.0900812
0.0895847
0.0892003
0.088932
0.0887818
0.0887538
0.0888524
0.0890798
0.0894435
0.089951
0.0906114
0.0914355
0.0924358
0.093627
0.095027
0.0966573
0.098545
0.100725
0.103245
0.106165
0.109565
0.113535
0.118168
0.123526
0.129612
0.13638
0.143892
0.152806
0.165429
0.188308
0.238267
0.359113
0.668802
1.40595
2.48216
2.65447
1.5732
1.0393
0.511767
0.23336
0.126889
0.0598648
0.0141837
0.00255184
8.45542e-05
7.33875e-05
0.00119942
0.00552392
0.00304384
0.000777231
6.42809e-05
5.75594e-05
0.00070865
0.00255969
0.00204249
0.000609131
5.31903e-05
4.97641e-05
0.000590343
0.001937
0.00167605
0.000531765
4.68455e-05
4.48783e-05
0.000522632
0.00163262
0.00148599
0.000487044
4.29387e-05
4.18903e-05
0.000489989
0.00147089
0.00137593
0.000463935
4.0609e-05
3.99202e-05
0.000468106
0.00136752
0.00129544
0.000447126
3.89748e-05
3.84986e-05
0.000451262
0.00129167
0.00123209
0.000433466
3.77598e-05
3.74143e-05
0.000437483
0.00123092
0.0011793
0.000421821
3.68143e-05
3.65545e-05
0.000425823
0.0011798
0.00113386
0.000411598
3.60471e-05
3.58422e-05
0.000415615
0.00113545
0.00109377
0.000402368
3.53964e-05
3.52294e-05
0.000406337
0.00109609
0.00105777
0.000393855
3.48287e-05
3.46882e-05
0.000397774
0.00106061
0.00102507
0.000385932
3.43203e-05
3.41986e-05
0.000389809
0.0010283
0.000995103
0.000378524
3.38555e-05
3.37475e-05
0.000382366
0.000998661
0.000967437
0.00037157
3.34239e-05
3.33264e-05
0.000375375
0.000971296
0.00094181
0.000365009
3.30184e-05
3.29291e-05
0.000368776
0.000945926
0.000917992
0.000358798
3.26338e-05
3.25508e-05
0.000362526
0.000922335
0.000895814
0.000352903
3.22662e-05
3.21883e-05
0.000356602
0.000900356
0.000875122
0.000347311
3.19128e-05
3.18393e-05
0.000350982
0.000879827
0.000855753
0.000341998
3.15715e-05
3.15018e-05
0.000345639
0.000860583
0.000837546
0.000336934
3.12406e-05
3.11742e-05
0.000340542
0.000842464
0.00082036
0.00033209
3.09186e-05
3.0855e-05
0.000335662
0.000825337
0.00080407
0.000327439
3.06038e-05
3.05425e-05
0.000330974
0.000809084
0.00078857
0.000322955
3.02948e-05
3.02354e-05
0.000326448
0.000793598
0.000773764
0.000318612
2.99903e-05
2.99322e-05
0.00032206
0.000778788
0.00075957
0.000314386
2.96889e-05
2.96318e-05
0.000317786
0.000764574
0.000745918
0.000310258
2.93892e-05
2.93327e-05
0.000313608
0.000750889
0.000732743
0.00030621
2.90903e-05
2.9034e-05
0.000309509
0.00073767
0.000719992
0.000302228
2.87908e-05
2.87344e-05
0.000305474
0.000724867
0.000707619
0.000298299
2.84899e-05
2.8433e-05
0.000301492
0.000712439
0.000695592
0.000294413
2.81864e-05
2.81288e-05
0.000297554
0.000700356
0.000683885
0.000290565
2.78796e-05
2.78212e-05
0.000293655
0.000688593
0.00067248
0.000286751
2.75687e-05
2.75094e-05
0.000289802
0.000677136
0.000661363
0.000282972
2.7253e-05
2.71928e-05
0.000286017
0.000665977
0.000650536
0.000279243
2.69323e-05
2.68711e-05
0.000282271
0.000655115
0.000639996
0.000275549
2.66061e-05
2.6544e-05
0.000278573
0.000644548
0.000629744
0.000271902
2.62742e-05
2.62113e-05
0.000274936
0.000634285
0.0006198
0.00026832
2.59365e-05
2.58731e-05
0.000271379
0.000624352
0.000610198
0.000264824
2.55935e-05
2.553e-05
0.000267926
0.00061479
0.000600984
0.00026144
2.52457e-05
2.51827e-05
0.000264612
0.000605737
0.000592256
0.000258211
2.48944e-05
2.48327e-05
0.000261482
0.000597273
0.000584094
0.000255185
2.45414e-05
2.44822e-05
0.000258588
0.000589409
0.000576567
0.000252416
2.41892e-05
2.41338e-05
0.000255989
0.000582281
0.000569822
0.00024997
2.38408e-05
2.37912e-05
0.000253761
0.000576048
0.000564035
0.000247928
2.35002e-05
2.34592e-05
0.000251988
0.000570896
0.000559398
0.000246396
2.31721e-05
2.31443e-05
0.000250711
0.000567019
0.000556135
0.000245443
2.28667e-05
2.28482e-05
0.000249832
0.000564563
0.000554314
0.000244845
2.25962e-05
2.25805e-05
0.000249371
0.00056381
0.000554213
0.000244736
2.23597e-05
2.23463e-05
0.000249398
0.000564773
0.000555808
0.000245155
2.21768e-05
2.21543e-05
0.000249899
0.000567344
0.000559035
0.000246088
2.20457e-05
2.20164e-05
0.000250804
0.000571304
0.000563588
0.000247298
2.19201e-05
2.19334e-05
0.000251938
0.000576545
0.000569399
0.00024858
2.18387e-05
2.18884e-05
0.000253059
0.000582867
0.00057619
0.000249886
2.18045e-05
2.18981e-05
0.000254002
0.000589532
0.000583109
0.000251018
2.18288e-05
2.1953e-05
0.000254781
0.000595924
0.000589628
0.00025184
2.18981e-05
2.2046e-05
0.000255527
0.000601753
0.000595577
0.000252497
2.20058e-05
2.21748e-05
0.000256122
0.000606887
0.000600854
0.000253103
2.21488e-05
2.23345e-05
0.000256662
0.000611276
0.000605356
0.000253438
2.23204e-05
2.25161e-05
0.000257064
0.000614993
0.000608947
0.000253657
2.2513e-05
2.27137e-05
0.000257336
0.000617887
0.000611466
0.000253771
2.27199e-05
2.29201e-05
0.000257476
0.000620327
0.000613217
0.000253815
2.29341e-05
2.31289e-05
0.000257534
0.000621814
0.000614008
0.000253662
2.31489e-05
2.33344e-05
0.000257512
0.000622293
0.000613347
0.000253243
2.33587e-05
2.35311e-05
0.000257112
0.00062152
0.000611912
0.000252692
2.35567e-05
2.37122e-05
0.000256569
0.000619919
0.000609864
0.000252076
2.37372e-05
2.38734e-05
0.000255946
0.000617613
0.000607229
0.000251438
2.38964e-05
2.40126e-05
0.000255259
0.000614644
0.00060408
0.000250801
2.40327e-05
2.41295e-05
0.000254556
0.000611115
0.000600514
0.000250199
2.41464e-05
2.42252e-05
0.000253858
0.000607147
0.000596595
0.00024961
2.42376e-05
2.42992e-05
0.000253149
0.000602809
0.00059239
0.000249027
2.43075e-05
2.4351e-05
0.000252434
0.000598223
0.000587937
0.000248435
2.43572e-05
2.43864e-05
0.000251702
0.000593516
0.000583387
0.000247826
2.43911e-05
2.44085e-05
0.000250951
0.000588743
0.000578796
0.000247193
2.44113e-05
2.44216e-05
0.00025019
0.000584012
0.000574167
0.000246494
2.44189e-05
2.44253e-05
0.000249401
0.000579286
0.000569521
0.000245721
2.44124e-05
2.4417e-05
0.000248591
0.000574547
0.000564874
0.000244933
2.43982e-05
2.44022e-05
0.000247772
0.000569819
0.000560231
0.000244115
2.43772e-05
2.43804e-05
0.000246921
0.000565099
0.000555606
0.000243276
2.43513e-05
2.43527e-05
0.000246039
0.000560389
0.000550946
0.000242406
2.43198e-05
2.43206e-05
0.000245113
0.000555669
0.000546237
0.000241481
2.42848e-05
2.42853e-05
0.000244157
0.000550933
0.000541568
0.000240528
2.42455e-05
2.42449e-05
0.00024317
0.000546242
0.000536949
0.000239536
2.42027e-05
2.41998e-05
0.000242145
0.000541546
0.00053231
0.000238509
2.41449e-05
2.41618e-05
0.000241118
0.000536916
0.000527345
0.000237447
2.40877e-05
2.41131e-05
0.000239839
0.000532562
0.000523214
0.000235734
2.39947e-05
2.41432e-05
0.000239963
0.000531096
0.000524579
0.00023964
2.4078e-05
2.44752e-05
0.000240078
0.000530429
0.000555542
0.00025244
2.46547e-05
2.6265e-05
0.000236749
0.00054012
0.000824815
0.000344046
2.96194e-05
3.19723e-05
0.000178451
0.000409626
0.00101054
0.0023157
0.0043291
0.00617181
0.00743278
0.0097699
0.0112621
0.012601
0.0133548
0.0137154
0.013614
0.0130084
0.0121461
0.0107631
0.00940708
0.00735123
0.00642316
0.00467379
0.00349683
0.00237508
0.00135021
0.000619588
0.000225576
9.37255e-05
1.80798e-05
1.18156e-05
8.69791e-05
0.000204738
0.00019369
8.27352e-05
1.13648e-05
1.09018e-05
7.96555e-05
0.000183437
0.000184049
7.85483e-05
1.08086e-05
1.07364e-05
7.81251e-05
0.000181094
0.000181214
7.73533e-05
1.06297e-05
1.06224e-05
7.73216e-05
0.000181012
0.000181518
7.7366e-05
1.06378e-05
1.06387e-05
7.74842e-05
0.000181936
0.000182206
7.76228e-05
1.06561e-05
1.06635e-05
7.773e-05
0.000182748
0.000183003
7.78563e-05
1.06732e-05
1.06906e-05
7.79962e-05
0.000183582
0.000183894
7.81315e-05
1.06858e-05
1.07033e-05
7.83032e-05
0.000184486
0.000184808
7.84142e-05
1.07124e-05
1.07313e-05
7.85923e-05
0.000185429
0.000185726
7.86766e-05
1.07322e-05
1.07378e-05
7.89335e-05
0.0001864
0.000186713
7.89936e-05
1.07604e-05
1.07654e-05
7.92249e-05
0.000187375
0.000187686
7.93153e-05
1.0775e-05
1.07791e-05
7.95547e-05
0.000188383
0.000188702
7.96336e-05
1.08041e-05
1.08087e-05
7.98726e-05
0.000189403
0.000189729
7.99797e-05
1.08194e-05
1.08225e-05
8.02115e-05
0.000190455
0.000190793
8.03174e-05
1.08497e-05
1.08541e-05
8.05623e-05
0.000191542
0.000191896
8.0689e-05
1.08657e-05
1.087e-05
8.09427e-05
0.000192653
0.000192998
8.10462e-05
1.08963e-05
1.0901e-05
8.12874e-05
0.000193759
0.000194132
8.14241e-05
1.09137e-05
1.09189e-05
8.16992e-05
0.000194928
0.000195291
8.18482e-05
1.09378e-05
1.09587e-05
8.20521e-05
0.000196089
0.000196468
8.21945e-05
1.09626e-05
1.09694e-05
8.25023e-05
0.000197298
0.000197681
8.26542e-05
1.0989e-05
1.10097e-05
8.28761e-05
0.000198503
0.000198892
8.30263e-05
1.10144e-05
1.10207e-05
8.33387e-05
0.000199734
0.000200123
8.34949e-05
1.10409e-05
1.10627e-05
8.37305e-05
0.000200959
0.000201349
8.38791e-05
1.10662e-05
1.10734e-05
8.4204e-05
0.000202199
0.00020259
8.43538e-05
1.10934e-05
1.11156e-05
8.46005e-05
0.000203422
0.000203805
8.47437e-05
1.1119e-05
1.11262e-05
8.50736e-05
0.000204648
0.00020503
8.52227e-05
1.1146e-05
1.11677e-05
8.54644e-05
0.000205855
0.000206215
8.55914e-05
1.11704e-05
1.11777e-05
8.59173e-05
0.000207035
0.000207395
8.60471e-05
1.11964e-05
1.12174e-05
8.6277e-05
0.000208184
0.000208513
8.63862e-05
1.12192e-05
1.12247e-05
8.66787e-05
0.000209277
0.000209579
8.67654e-05
1.12413e-05
1.12605e-05
8.69542e-05
0.000210277
0.000210517
8.69958e-05
1.12589e-05
1.12615e-05
8.72156e-05
0.000211155
0.000211362
8.71916e-05
1.12825e-05
1.12829e-05
8.73487e-05
0.000211904
0.000212069
8.7306e-05
1.12865e-05
1.1283e-05
8.73933e-05
0.000212513
0.000212615
8.72752e-05
1.13005e-05
1.12941e-05
8.72682e-05
0.000212909
0.000212943
8.70988e-05
1.12933e-05
1.12829e-05
8.70051e-05
0.000213084
0.000213034
8.67429e-05
1.12857e-05
1.12883e-05
8.64642e-05
0.000213059
0.000212824
8.61079e-05
1.12718e-05
1.12548e-05
8.57942e-05
0.000212755
0.00021226
8.53059e-05
1.12519e-05
1.12488e-05
8.47942e-05
0.000212174
0.000211528
8.41609e-05
1.1227e-05
1.12067e-05
8.36186e-05
0.000211327
0.0002104
8.27925e-05
1.12087e-05
1.11907e-05
8.21255e-05
0.000210125
0.000209067
8.12063e-05
1.11766e-05
1.11627e-05
8.04664e-05
0.000208848
0.000207773
7.95725e-05
1.11738e-05
1.1188e-05
7.8802e-05
0.000207774
0.000206861
7.79506e-05
1.11966e-05
1.1216e-05
7.71442e-05
0.000206787
0.000206019
7.62616e-05
1.12507e-05
1.13005e-05
7.5637e-05
0.000206395
0.000206241
7.49532e-05
1.13722e-05
1.14706e-05
7.45626e-05
0.000207408
0.000208381
7.37052e-05
1.15633e-05
1.16767e-05
7.31957e-05
0.00021041
0.000213772
7.40855e-05
1.17974e-05
1.19146e-05
7.44718e-05
0.000216579
0.000218014
7.39643e-05
1.19434e-05
1.20275e-05
7.25748e-05
0.000221187
0.000224772
7.643e-05
1.21958e-05
1.23126e-05
7.41793e-05
0.00022781
0.000230977
7.60356e-05
1.25164e-05
1.26683e-05
7.71265e-05
0.000237052
0.000239008
7.90855e-05
1.28895e-05
1.32022e-05
8.3382e-05
0.000247322
0.000248194
8.55663e-05
1.35121e-05
1.37724e-05
8.89335e-05
0.000253578
0.000255669
9.17126e-05
1.42516e-05
1.52625e-05
0.000106323
0.000266669
0.000265154
0.000112627
1.15007e-05
8.68104e-06
2.72693e-05
7.47309e-05
0.000206983
6.42311e-05
1.03795e-05
1.08811e-05
5.73851e-05
0.000190001
0.000200608
5.97529e-05
1.11554e-05
1.134e-05
5.65088e-05
0.000191758
0.000206838
6.08389e-05
1.16681e-05
1.20122e-05
6.01374e-05
0.000204194
0.000224622
6.87928e-05
1.24521e-05
1.28812e-05
6.82813e-05
0.000220104
0.000241358
7.94328e-05
1.33802e-05
1.40772e-05
8.15543e-05
0.000243224
0.000270065
9.87219e-05
1.55427e-05
1.19381e-05
0.000109501
0.000277369
7.53123e-05
2.57079e-05
9.26821e-06
1.13622e-05
7.04973e-05
0.000233185
0.000227796
6.54885e-05
1.23937e-05
1.31111e-05
8.51122e-05
0.000280749
0.000286355
8.56075e-05
1.35806e-05
1.44058e-05
0.000100101
0.000319136
0.000328328
0.000107041
1.54018e-05
1.72505e-05
0.0001281
0.000359065
0.000348761
0.000138116
1.34186e-05
1.0261e-05
3.15415e-05
9.14804e-05
0.000284639
8.47739e-05
1.21411e-05
1.31122e-05
7.84934e-05
0.000278937
0.000320205
9.64034e-05
1.39543e-05
1.49128e-05
9.63723e-05
0.000315852
0.000357611
0.000123263
1.72198e-05
1.3763e-05
0.000142542
0.000360114
9.82072e-05
3.08654e-05
9.87954e-06
1.25818e-05
8.73828e-05
0.000321234
0.000331097
9.20585e-05
1.41953e-05
1.65873e-05
0.000131536
0.000426964
0.000446743
0.000154226
1.93162e-05
1.58974e-05
0.000179258
0.000451525
0.000126328
3.6229e-05
1.03995e-05
1.37623e-05
0.000117075
0.000399471
0.000396851
0.000113928
1.6083e-05
2.03048e-05
0.000171654
0.000503568
0.000512948
0.000200117
1.68879e-05
1.08642e-05
4.07649e-05
0.000157458
0.000517872
0.000151894
1.60592e-05
2.03095e-05
0.000161115
0.000557131
0.000773113
0.000271918
2.77493e-05
2.3137e-05
0.000290086
0.000743209
0.00026284
6.8945e-05
1.51074e-05
2.68625e-05
0.000280682
0.000808856
0.000807595
0.000300635
2.50618e-05
1.72906e-05
7.78007e-05
0.000316513
0.00111864
0.000371858
3.72978e-05
3.67941e-05
0.000429106
0.00121582
0.00055342
0.00015286
2.33842e-05
3.72146e-05
0.000497404
0.00144979
0.000957688
0.000317523
2.47807e-05
4.59956e-05
0.000559822
0.00112922
0.000968672
0.000468337
3.78187e-05
3.83136e-05
0.000446465
0.00106249
0.00136304
0.00049283
4.39644e-05
6.07679e-05
0.000920465
0.00227212
0.000506503
0.000157499
3.4559e-05
3.53784e-05
0.000441697
0.00101214
0.000313048
0.000111894
2.46851e-05
2.68579e-05
0.000273024
0.000656249
0.000560706
0.000200293
2.68999e-05
1.38245e-05
5.04376e-05
0.000161322
0.00037897
0.000202322
1.78878e-05
1.6888e-05
6.71714e-05
0.000173182
0.000419081
0.000185025
1.91726e-05
2.04373e-05
0.000149179
0.00037871
0.000122648
4.59631e-05
1.35019e-05
1.61081e-05
0.000145215
0.000327058
0.000300539
0.000122455
1.82027e-05
1.2611e-05
3.96754e-05
0.000100289
0.000278368
0.000123818
1.45891e-05
1.67273e-05
0.000107043
0.000255783
8.87698e-05
3.69258e-05
1.22166e-05
1.38056e-05
0.000110038
0.000245203
0.000222182
9.73131e-05
1.62485e-05
1.20146e-05
3.4237e-05
7.90609e-05
0.000216297
9.88269e-05
1.30084e-05
1.55582e-05
8.70186e-05
0.000196829
7.13634e-05
3.21427e-05
1.18279e-05
1.26594e-05
9.19853e-05
0.00019487
0.000175994
8.05541e-05
1.50526e-05
1.15988e-05
3.03298e-05
6.62629e-05
0.000178365
8.51805e-05
1.21352e-05
1.47935e-05
7.5475e-05
0.000162819
6.39748e-05
3.00916e-05
1.16359e-05
1.21586e-05
8.6307e-05
0.000173445
0.000147821
6.99836e-05
1.53423e-05
1.29091e-05
5.59167e-05
0.000120461
4.81474e-05
2.18335e-05
1.00322e-05
1.01487e-05
5.82844e-05
0.000118162
0.000111291
5.32614e-05
1.28449e-05
1.06332e-05
2.17012e-05
4.46938e-05
0.000108727
5.51269e-05
9.95519e-06
1.27422e-05
5.08726e-05
0.000100968
4.28794e-05
2.13384e-05
1.00486e-05
9.75712e-06
5.20701e-05
9.72052e-05
9.31069e-05
4.98395e-05
1.27241e-05
1.05965e-05
2.0522e-05
4.00014e-05
9.22832e-05
4.95921e-05
9.64598e-06
1.22619e-05
4.64245e-05
8.64259e-05
3.8364e-05
1.99366e-05
1.02959e-05
9.45476e-06
4.59979e-05
8.42234e-05
8.084e-05
4.5125e-05
1.23889e-05
9.97028e-06
1.94422e-05
3.6731e-05
8.00534e-05
4.47802e-05
9.24466e-06
1.21298e-05
4.28762e-05
7.65491e-05
3.54824e-05
1.91016e-05
9.67185e-06
8.92662e-06
4.06831e-05
7.24258e-05
7.03331e-05
3.99005e-05
1.17e-05
9.1504e-06
1.72595e-05
3.17054e-05
6.25829e-05
4.44643e-05
8.6338e-06
1.11898e-05
2.24613e-05
3.62436e-05
8.23268e-05
4.75266e-05
1.00214e-05
1.25678e-05
4.3398e-05
7.66379e-05
3.70139e-05
2.12348e-05
1.02351e-05
9.38862e-06
4.5818e-05
7.68181e-05
7.26581e-05
4.26099e-05
1.24164e-05
1.03386e-05
2.1334e-05
3.61539e-05
7.57275e-05
4.55466e-05
9.41236e-06
1.23384e-05
4.25277e-05
7.15791e-05
3.52081e-05
2.12786e-05
1.02503e-05
9.25427e-06
4.2749e-05
6.83303e-05
6.47926e-05
3.85385e-05
1.22049e-05
1.02078e-05
2.07887e-05
3.28577e-05
6.3442e-05
4.00348e-05
9.02936e-06
1.17584e-05
3.6555e-05
5.98946e-05
2.92733e-05
1.90585e-05
9.20532e-06
8.43e-06
3.85015e-05
5.29031e-05
3.2109e-05
2.21846e-05
1.1094e-05
9.7863e-06
3.92732e-05
6.294e-05
5.75729e-05
3.51594e-05
1.23922e-05
1.00874e-05
2.10665e-05
3.07631e-05
5.74587e-05
3.75019e-05
9.01505e-06
1.19772e-05
3.46606e-05
5.22393e-05
2.80709e-05
1.99928e-05
9.62017e-06
8.45749e-06
3.69057e-05
4.80548e-05
3.0331e-05
2.19459e-05
1.11719e-05
9.70043e-06
3.77732e-05
5.80869e-05
5.24008e-05
3.39352e-05
1.22858e-05
1.00732e-05
2.138e-05
2.9292e-05
5.42206e-05
3.6138e-05
8.99017e-06
1.20043e-05
3.29321e-05
4.92537e-05
2.69267e-05
2.0079e-05
9.57898e-06
8.43982e-06
3.4284e-05
4.38969e-05
2.84377e-05
2.16046e-05
1.11699e-05
9.5793e-06
3.52799e-05
5.35765e-05
4.81347e-05
3.19749e-05
1.21972e-05
1.00342e-05
2.13021e-05
2.72779e-05
4.87471e-05
3.32811e-05
8.99173e-06
1.19993e-05
3.06014e-05
4.42443e-05
2.49419e-05
1.97627e-05
1.03114e-05
8.40368e-06
3.20569e-05
3.90137e-05
2.59292e-05
2.08519e-05
1.09883e-05
9.35362e-06
3.15657e-05
4.75427e-05
4.26102e-05
2.92074e-05
1.20757e-05
9.56787e-06
2.02499e-05
2.45612e-05
3.83241e-05
3.16588e-05
8.20986e-06
1.09754e-05
2.14153e-05
2.58865e-05
4.69442e-05
3.12256e-05
9.27166e-06
1.21379e-05
2.87053e-05
4.20424e-05
2.45513e-05
2.06232e-05
1.00413e-05
8.37588e-06
3.10276e-05
3.77395e-05
2.59089e-05
2.18346e-05
1.09993e-05
9.19149e-06
3.13319e-05
4.63543e-05
4.1505e-05
2.88742e-05
1.20178e-05
1.00095e-05
2.07135e-05
2.43849e-05
3.73737e-05
3.16809e-05
8.1931e-06
1.10236e-05
2.19418e-05
2.56713e-05
4.55879e-05
3.05321e-05
9.32409e-06
1.21707e-05
2.84921e-05
4.09803e-05
2.44343e-05
2.12762e-05
9.80005e-06
8.37422e-06
3.13298e-05
3.68371e-05
2.56521e-05
2.24473e-05
1.11146e-05
9.318e-06
3.05164e-05
4.48414e-05
4.00254e-05
2.80501e-05
1.20316e-05
1.0325e-05
2.09742e-05
2.386e-05
3.54625e-05
3.1186e-05
8.22998e-06
1.08723e-05
2.29684e-05
2.54647e-05
3.87122e-05
2.95242e-05
8.77149e-06
1.13728e-05
2.2895e-05
2.68057e-05
4.57312e-05
3.05293e-05
9.53164e-06
1.21188e-05
2.85051e-05
4.08142e-05
2.46895e-05
2.18608e-05
9.83157e-06
8.2394e-06
3.11923e-05
3.64771e-05
2.57609e-05
2.32543e-05
1.11599e-05
9.35902e-06
3.02047e-05
4.40409e-05
3.94776e-05
2.81685e-05
1.21634e-05
1.0413e-05
2.16609e-05
2.40415e-05
3.49723e-05
3.09999e-05
8.35104e-06
1.10301e-05
2.34073e-05
2.55569e-05
3.80508e-05
2.92574e-05
8.97752e-06
1.13611e-05
2.35096e-05
2.67782e-05
4.48485e-05
3.02269e-05
9.39734e-06
1.21749e-05
2.84087e-05
4.00719e-05
2.47085e-05
2.25942e-05
9.77558e-06
8.31188e-06
3.11264e-05
3.57847e-05
2.64829e-05
2.44446e-05
1.11888e-05
8.9627e-06
3.05509e-05
3.90598e-05
2.77153e-05
2.51242e-05
1.14662e-05
9.56686e-06
3.06403e-05
4.58536e-05
4.08563e-05
2.88488e-05
1.23625e-05
1.02395e-05
2.31125e-05
2.53364e-05
3.62878e-05
3.27625e-05
8.34431e-06
1.11109e-05
2.48535e-05
2.69383e-05
3.92341e-05
3.08479e-05
8.96526e-06
1.14987e-05
2.52388e-05
2.79872e-05
4.5953e-05
3.10502e-05
9.57728e-06
1.23397e-05
2.93375e-05
4.10814e-05
2.58244e-05
2.3971e-05
1.00114e-05
8.49478e-06
3.25776e-05
3.69177e-05
2.76502e-05
2.57385e-05
1.13583e-05
9.18118e-06
3.15988e-05
3.99302e-05
2.86994e-05
2.6151e-05
1.15296e-05
9.53888e-06
3.13377e-05
4.63597e-05
4.13648e-05
2.94796e-05
1.22573e-05
9.70712e-06
2.36678e-05
2.57346e-05
3.61996e-05
3.18994e-05
8.56187e-06
1.13427e-05
2.53979e-05
2.71089e-05
3.87884e-05
3.11295e-05
9.13166e-06
1.16007e-05
2.60568e-05
2.81303e-05
4.49015e-05
3.06804e-05
9.61705e-06
1.2427e-05
2.90927e-05
4.01523e-05
2.55639e-05
2.40196e-05
9.8292e-06
8.59807e-06
3.18945e-05
3.60657e-05
2.72521e-05
2.56257e-05
1.13067e-05
8.93305e-06
3.06886e-05
3.8472e-05
2.86717e-05
2.61909e-05
1.1393e-05
9.0735e-06
3.13025e-05
4.01372e-05
2.95477e-05
2.78008e-05
1.15768e-05
9.65278e-06
3.20315e-05
4.60845e-05
4.11381e-05
3.03743e-05
1.23425e-05
1.04752e-05
2.49603e-05
2.65009e-05
3.68528e-05
3.41201e-05
8.49123e-06
1.128e-05
2.63476e-05
2.80185e-05
3.89182e-05
3.09346e-05
9.16029e-06
1.1572e-05
2.66256e-05
2.92413e-05
4.02882e-05
3.17348e-05
9.16088e-06
1.16066e-05
2.82154e-05
2.9871e-05
4.60514e-05
3.21517e-05
9.63034e-06
1.23974e-05
3.05716e-05
4.13241e-05
2.69933e-05
2.56465e-05
9.93653e-06
8.58485e-06
3.36995e-05
3.73087e-05
2.85765e-05
2.71636e-05
1.14899e-05
9.19329e-06
3.16607e-05
3.96511e-05
2.99597e-05
2.76262e-05
1.16326e-05
9.28895e-06
3.25714e-05
4.11513e-05
3.082e-05
2.93136e-05
1.17751e-05
9.81572e-06
3.32519e-05
4.69845e-05
4.21522e-05
3.15766e-05
1.25497e-05
9.9013e-06
2.6249e-05
2.78015e-05
3.78653e-05
3.43129e-05
8.6815e-06
1.15225e-05
2.76438e-05
2.9289e-05
3.97931e-05
3.20948e-05
9.15276e-06
1.16347e-05
2.77656e-05
3.01721e-05
4.08672e-05
3.24007e-05
9.24459e-06
1.18335e-05
2.93938e-05
3.08779e-05
4.62149e-05
3.28824e-05
9.79512e-06
1.25809e-05
3.16028e-05
4.18175e-05
2.81003e-05
2.68329e-05
1.08599e-05
8.76799e-06
3.50307e-05
3.75917e-05
2.94643e-05
2.82431e-05
1.14827e-05
9.19972e-06
3.2366e-05
3.99651e-05
3.06927e-05
2.83865e-05
1.16791e-05
9.19174e-06
3.26002e-05
4.10697e-05
3.15105e-05
2.9252e-05
1.16534e-05
9.33295e-06
3.40779e-05
4.20864e-05
3.19654e-05
3.08306e-05
1.17812e-05
9.79466e-06
3.42066e-05
4.74521e-05
4.29886e-05
3.27132e-05
1.25727e-05
9.78943e-06
2.71095e-05
2.8933e-05
3.82082e-05
3.47614e-05
8.80623e-06
1.16815e-05
2.86412e-05
3.02823e-05
3.9945e-05
3.26928e-05
9.33353e-06
1.18108e-05
2.89313e-05
3.1062e-05
4.09338e-05
3.26474e-05
9.27514e-06
1.17472e-05
2.99195e-05
3.18384e-05
4.24177e-05
3.4522e-05
9.40841e-06
1.18897e-05
3.16701e-05
3.25675e-05
4.81738e-05
3.50178e-05
9.86979e-06
1.27295e-05
3.36111e-05
4.37379e-05
3.00905e-05
2.8812e-05
1.02854e-05
8.74373e-06
3.68334e-05
3.95508e-05
3.1458e-05
3.01948e-05
1.17e-05
9.23049e-06
3.43378e-05
4.19005e-05
3.25521e-05
3.02639e-05
1.17915e-05
9.37728e-06
3.44559e-05
4.29062e-05
3.33648e-05
3.12637e-05
1.18044e-05
9.40891e-06
3.61353e-05
4.41891e-05
3.40442e-05
3.29408e-05
1.1946e-05
1.0004e-05
3.62889e-05
4.95111e-05
4.50659e-05
3.4726e-05
1.27688e-05
1.00481e-05
2.93528e-05
3.10799e-05
4.01846e-05
3.68908e-05
8.99315e-06
1.1865e-05
3.07944e-05
3.24773e-05
4.20271e-05
3.48297e-05
9.45718e-06
1.19932e-05
3.07352e-05
3.32555e-05
4.26326e-05
3.41888e-05
9.47866e-06
1.19846e-05
3.17176e-05
3.3759e-05
4.40584e-05
3.61103e-05
9.61606e-06
1.20965e-05
3.37594e-05
3.44085e-05
4.95044e-05
3.69383e-05
1.00245e-05
1.2942e-05
3.55707e-05
4.54131e-05
3.18822e-05
3.05669e-05
1.03579e-05
8.92935e-06
3.84704e-05
4.11336e-05
3.33839e-05
3.19114e-05
1.19263e-05
9.47061e-06
3.58029e-05
4.31706e-05
3.44115e-05
3.19623e-05
1.20329e-05
9.53518e-06
3.56629e-05
4.42052e-05
3.51577e-05
3.28563e-05
1.19801e-05
9.6043e-06
3.74436e-05
4.53611e-05
3.56126e-05
3.46104e-05
1.20905e-05
1.00484e-05
3.76651e-05
5.04854e-05
4.62486e-05
3.62871e-05
1.30054e-05
1.00784e-05
3.08196e-05
3.2566e-05
4.11174e-05
3.82763e-05
9.12025e-06
1.20232e-05
3.23144e-05
3.39461e-05
4.24229e-05
3.5661e-05
9.52765e-06
1.21226e-05
3.23218e-05
3.45027e-05
4.3281e-05
3.53609e-05
9.59136e-06
1.20537e-05
3.31195e-05
3.51134e-05
4.45131e-05
3.68274e-05
9.60442e-06
1.20356e-05
3.44091e-05
3.61368e-05
4.62293e-05
3.8862e-05
9.61716e-06
1.21516e-05
3.61525e-05
3.66922e-05
5.19743e-05
3.90682e-05
1.01161e-05
1.31376e-05
3.7855e-05
4.7867e-05
3.43969e-05
3.33063e-05
1.09603e-05
9.05378e-06
4.1299e-05
4.32222e-05
3.58559e-05
3.46335e-05
1.20553e-05
9.62991e-06
3.83099e-05
4.55042e-05
3.69664e-05
3.47544e-05
1.22007e-05
9.66676e-06
3.86574e-05
4.68573e-05
3.7918e-05
3.5747e-05
1.21085e-05
9.68012e-06
4.04735e-05
4.85304e-05
3.87114e-05
3.75703e-05
1.22504e-05
1.02472e-05
4.06555e-05
5.37923e-05
4.93398e-05
3.92891e-05
1.32992e-05
1.07568e-05
3.42934e-05
3.56002e-05
4.43971e-05
4.23136e-05
9.15887e-06
1.22397e-05
3.56412e-05
3.72403e-05
4.58714e-05
3.92643e-05
9.76243e-06
1.23015e-05
3.53721e-05
3.7807e-05
4.64659e-05
3.87061e-05
9.81983e-06
1.22382e-05
3.62438e-05
3.83206e-05
4.76865e-05
4.02093e-05
9.77734e-06
1.24054e-05
3.81289e-05
3.87701e-05
5.30592e-05
4.06779e-05
1.03316e-05
1.35257e-05
3.97389e-05
4.90159e-05
3.63318e-05
3.55481e-05
1.12659e-05
9.21778e-06
4.31528e-05
4.45254e-05
3.77952e-05
3.68084e-05
1.22725e-05
9.82562e-06
4.02344e-05
4.66908e-05
3.89154e-05
3.69126e-05
1.2405e-05
9.81381e-06
4.02971e-05
4.78345e-05
3.96374e-05
3.78438e-05
1.23346e-05
9.90423e-06
4.17276e-05
4.94814e-05
4.04814e-05
3.98785e-05
1.25933e-05
1.04757e-05
4.23689e-05
5.48607e-05
5.0534e-05
4.13101e-05
1.36443e-05
1.10907e-05
3.6818e-05
3.77196e-05
4.61124e-05
4.47992e-05
9.3159e-06
1.24148e-05
3.79136e-05
3.93065e-05
4.75358e-05
4.12223e-05
9.90235e-06
1.2558e-05
3.78631e-05
3.99909e-05
4.82319e-05
4.10288e-05
9.93435e-06
1.25785e-05
3.89304e-05
4.0616e-05
4.95533e-05
4.23513e-05
1.00142e-05
1.28718e-05
4.11146e-05
4.11856e-05
5.50579e-05
4.31396e-05
1.07816e-05
1.40778e-05
4.24291e-05
5.10993e-05
3.91199e-05
3.88316e-05
1.14871e-05
9.6175e-06
4.61735e-05
4.73962e-05
4.0786e-05
4.007e-05
1.26481e-05
1.00713e-05
4.38509e-05
4.96738e-05
4.19496e-05
4.02486e-05
1.27941e-05
1.00568e-05
4.37554e-05
5.10953e-05
4.24713e-05
4.18429e-05
1.2997e-05
1.09141e-05
4.37251e-05
5.59701e-05
5.17562e-05
4.29795e-05
1.43902e-05
1.13333e-05
3.89753e-05
3.9637e-05
4.68874e-05
4.60899e-05
9.71839e-06
1.29488e-05
4.04843e-05
4.14465e-05
4.88665e-05
4.36983e-05
1.0302e-05
1.30698e-05
4.05498e-05
4.2029e-05
4.99916e-05
4.31132e-05
1.02975e-05
1.33178e-05
4.25029e-05
4.24214e-05
5.48952e-05
4.37303e-05
1.10257e-05
1.45254e-05
4.34189e-05
5.11497e-05
4.04039e-05
4.05966e-05
1.21497e-05
9.85456e-06
4.73182e-05
4.75026e-05
4.17992e-05
4.15611e-05
1.28935e-05
1.02137e-05
4.39577e-05
4.97758e-05
4.30781e-05
4.20779e-05
1.32546e-05
1.05193e-05
4.45628e-05
5.13143e-05
4.3864e-05
4.39359e-05
1.35379e-05
1.12108e-05
4.50522e-05
5.59703e-05
5.22232e-05
4.4689e-05
1.49655e-05
1.14951e-05
4.09209e-05
4.15314e-05
4.74282e-05
4.76447e-05
9.84162e-06
1.34139e-05
4.28118e-05
4.34e-05
4.9982e-05
4.52579e-05
1.0601e-05
1.35132e-05
4.30613e-05
4.38924e-05
5.13626e-05
4.48752e-05
1.06579e-05
1.38512e-05
4.5239e-05
4.44305e-05
5.64792e-05
4.58241e-05
1.15211e-05
1.5213e-05
4.56778e-05
5.29053e-05
4.28266e-05
4.32695e-05
1.20699e-05
1.00713e-05
4.9757e-05
4.9446e-05
4.48324e-05
4.51345e-05
1.37354e-05
1.08787e-05
4.74991e-05
5.24445e-05
4.60893e-05
4.55533e-05
1.40046e-05
1.11354e-05
4.72516e-05
5.426e-05
4.70943e-05
4.79162e-05
1.4421e-05
1.19699e-05
4.8474e-05
5.93463e-05
5.56456e-05
4.84604e-05
1.58446e-05
1.26566e-05
4.5614e-05
4.55224e-05
5.17911e-05
5.22606e-05
1.04979e-05
1.40993e-05
4.72786e-05
4.7052e-05
5.44326e-05
4.92462e-05
1.12193e-05
1.47267e-05
4.88317e-05
4.79594e-05
5.93068e-05
4.8838e-05
1.22355e-05
1.61454e-05
4.84888e-05
5.58795e-05
4.59084e-05
4.64561e-05
1.27465e-05
1.05673e-05
5.26391e-05
5.18201e-05
4.82924e-05
4.87868e-05
1.45863e-05
1.15737e-05
5.05521e-05
5.54581e-05
4.94989e-05
4.95862e-05
1.49493e-05
1.18855e-05
5.06848e-05
5.77276e-05
5.08774e-05
5.24325e-05
1.54467e-05
1.28345e-05
5.25644e-05
6.33924e-05
5.94821e-05
5.27082e-05
1.69668e-05
1.3912e-05
5.09124e-05
4.98648e-05
5.64391e-05
5.73164e-05
1.12305e-05
1.50706e-05
5.23728e-05
5.15886e-05
5.94744e-05
5.39201e-05
1.20641e-05
1.58511e-05
5.42656e-05
5.28559e-05
6.50594e-05
5.39714e-05
1.2956e-05
1.73329e-05
5.41973e-05
6.15302e-05
5.20283e-05
5.3401e-05
1.46095e-05
1.19968e-05
5.87849e-05
5.84414e-05
5.37782e-05
5.52896e-05
1.59584e-05
1.27878e-05
5.63991e-05
6.20572e-05
5.5522e-05
5.75496e-05
1.67992e-05
1.40058e-05
5.68333e-05
6.79789e-05
6.42403e-05
5.71731e-05
1.8524e-05
1.51426e-05
5.60337e-05
5.4669e-05
6.13895e-05
6.17693e-05
1.227e-05
1.67185e-05
5.88562e-05
5.63443e-05
6.77679e-05
5.77194e-05
1.39405e-05
1.86295e-05
5.77305e-05
6.4534e-05
5.49637e-05
5.57662e-05
1.51691e-05
1.21133e-05
6.24336e-05
6.12221e-05
5.66141e-05
5.76447e-05
1.6519e-05
1.32359e-05
5.82343e-05
6.39714e-05
5.78828e-05
5.99522e-05
1.75818e-05
1.46409e-05
5.85927e-05
6.94333e-05
6.61091e-05
5.94407e-05
1.94846e-05
1.586e-05
5.88476e-05
5.73952e-05
6.31997e-05
6.36935e-05
1.30577e-05
1.77963e-05
6.22941e-05
5.90333e-05
6.95017e-05
6.03269e-05
1.49112e-05
1.99089e-05
6.05546e-05
6.64859e-05
5.83771e-05
6.01431e-05
1.63721e-05
1.32614e-05
6.48758e-05
6.40373e-05
5.95485e-05
6.29952e-05
1.79008e-05
1.46123e-05
6.05729e-05
6.99904e-05
6.70727e-05
6.11683e-05
1.99485e-05
1.67409e-05
6.06347e-05
5.89517e-05
6.4451e-05
6.47544e-05
1.36847e-05
1.86085e-05
6.42724e-05
6.05644e-05
7.01742e-05
6.1541e-05
1.54385e-05
2.08422e-05
6.21049e-05
6.73902e-05
6.01512e-05
6.23003e-05
1.69608e-05
1.38354e-05
6.61987e-05
6.49809e-05
6.18247e-05
6.57585e-05
1.88707e-05
1.55878e-05
6.27877e-05
7.14631e-05
6.86488e-05
6.32404e-05
2.09719e-05
1.72137e-05
6.3324e-05
6.12563e-05
6.65012e-05
6.83439e-05
1.35381e-05
1.87848e-05
6.66085e-05
6.27323e-05
7.22119e-05
6.31953e-05
1.58279e-05
2.16641e-05
6.39791e-05
6.94739e-05
6.2925e-05
6.64428e-05
1.83533e-05
1.48788e-05
6.86458e-05
6.80736e-05
6.48231e-05
7.03341e-05
2.00874e-05
1.67392e-05
6.65778e-05
7.49668e-05
7.22116e-05
6.74119e-05
2.24597e-05
1.83867e-05
6.88859e-05
6.5712e-05
7.0704e-05
7.18639e-05
1.49568e-05
2.0491e-05
7.34005e-05
6.78264e-05
7.85855e-05
7.00578e-05
1.69045e-05
2.2511e-05
6.99638e-05
7.57825e-05
6.88926e-05
7.48466e-05
1.96446e-05
1.69463e-05
7.4444e-05
7.7794e-05
7.531e-05
7.42629e-05
2.35206e-05
2.02149e-05
7.4312e-05
7.0154e-05
7.59144e-05
7.62125e-05
1.64692e-05
2.21709e-05
7.81784e-05