/*--------------------------------*- C++ -*----------------------------------*\
| =========                 |                                                 |
| \\      /  F ield         | OpenFOAM: The Open Source CFD Toolbox           |
|  \\    /   O peration     | Version:  v2006                                 |
|   \\  /    A nd           | Website:  www.openfoam.com                      |
|    \\/     M anipulation  |                                                 |
\*---------------------------------------------------------------------------*/
FoamFile
{
    version     2.0;
    format      ascii;
    class       volScalarField;
    location    "0.131";
    object      p;
}
// * * * * * * * * * * * * * * * * * * * * * * * * * * * * * * * * * * * * * //

dimensions      [1 -1 -2 0 0 0 0];


internalField   nonuniform List<scalar> 
16277
(
147985
147991
147994
147980
147990
147987
147988
147991
147995
148000
148005
148011
148017
148023
148030
148036
148043
148051
148058
148066
148074
148082
148091
148100
148109
148119
148128
148138
148149
148159
148170
148181
148192
148204
148215
148227
148239
148251
148263
148276
148288
148301
148313
148326
148339
148352
148364
148377
148390
148403
148416
148428
148441
148454
148466
148479
148491
148503
148515
148527
148539
148550
148561
148572
148583
148594
148604
148614
148624
148634
148643
148652
148660
148669
148677
148684
148691
148698
148705
148711
148717
148723
148728
148732
148734
148736
148736
148736
148735
148737
148736
148740
148745
148755
148771
148783
148790
148779
148778
148774
148771
148772
148773
148767
148767
148767
148762
148762
148762
148758
148758
148758
148754
148754
148754
148752
148752
148752
148750
148749
148749
148748
148748
148748
148747
148746
148746
148746
148746
148746
148745
148745
148745
148745
148745
148745
148745
148745
148745
148745
148745
148745
148746
148745
148745
148746
148747
148747
148748
148747
148747
148749
148749
148749
148750
148750
148750
148752
148752
148752
148754
148753
148753
148756
148756
148756
148758
148758
148757
148760
148760
148761
148763
148762
148762
148765
148766
148766
148768
148768
148768
148771
148772
148772
148774
148774
148774
148778
148778
148778
148781
148781
148781
148785
148785
148785
148789
148789
148788
148793
148793
148793
148797
148797
148797
148801
148801
148802
148806
148805
148805
148810
148810
148811
148815
148815
148815
148820
148820
148820
148825
148825
148824
148830
148830
148830
148835
148835
148835
148841
148841
148841
148846
148846
148846
148852
148853
148853
148858
148858
148858
148864
148865
148865
148871
148870
148870
148877
148877
148878
148884
148883
148883
148890
148891
148891
148897
148897
148897
148904
148905
148905
148912
148911
148911
148919
148919
148919
148926
148926
148926
148934
148934
148935
148942
148942
148942
148950
148950
148951
148958
148958
148958
148967
148967
148967
148975
148975
148975
148984
148984
148984
148992
148992
148992
149001
149001
149002
149010
149010
149010
149019
149020
149020
149029
149028
149028
149038
149038
149039
149048
149047
149047
149057
149057
149058
149067
149066
149066
149076
149077
149077
149086
149086
149086
149096
149096
149096
149106
149105
149105
149115
149116
149116
149125
149125
149125
149135
149135
149135
149145
149144
149144
149154
149154
149154
149163
149163
149163
149173
149173
149173
149182
149181
149181
149190
149190
149191
149199
149198
149198
149207
149207
149207
149214
149214
149214
149222
149222
149222
149228
149228
149228
149235
149235
149235
149240
149240
149240
149245
149246
149246
149250
149250
149249
149254
149254
149254
149256
149256
149256
149259
149259
149259
149260
149259
149259
149260
149260
149260
149260
149260
149260
149259
149259
149259
149256
149256
149257
149254
149254
149254
149249
149249
149250
149245
149245
149245
149239
149239
149240
149234
149234
149234
149227
149227
149227
149221
149221
149220
149212
149213
149213
149206
149206
149205
149197
149197
149197
149190
149189
149189
149180
149181
149181
149173
149173
149172
149163
149164
149164
149156
149156
149155
149146
149147
149147
149139
149139
149139
149130
149130
149130
149123
149123
149123
149114
149115
149115
149108
149108
149108
149100
149100
149100
149094
149094
149094
149087
149087
149087
149082
149082
149082
149075
149076
149076
149071
149071
149071
149065
149066
149066
149062
149062
149062
149057
149057
149057
149054
149054
149054
149049
149050
149050
149047
149047
149047
149043
149044
149044
149041
149041
149041
149038
149038
149038
149036
149037
149037
149034
149034
149034
149032
149032
149032
149030
149030
149030
149029
149029
149029
149027
149027
149027
149026
149026
149026
149024
149024
149024
149023
149023
149023
149022
149022
149022
149021
149021
149021
149019
149019
149019
149019
149019
149019
149017
149017
149017
149017
149017
149017
149016
149015
149015
149015
149015
149015
149014
149014
149014
149013
149013
149013
149012
149012
149012
149012
149012
149012
149010
149010
149010
149010
149010
149010
149008
149009
149008
149008
149008
149008
149007
149007
149007
149006
149006
149006
149005
149005
149005
149005
149005
149005
149003
149004
149004
149003
149003
149003
149002
149002
149002
149000
149000
149000
148999
148999
148999
148999
149000
149000
149007
149008
149006
148981
148978
148979
148987
148995
149000
149001
149000
149001
149000
149000
149000
149000
149000
149000
149000
149000
149001
149000
149002
149001
149001
149002
149004
149003
149010
149004
148999
149008
149004
148995
148995
148999
149000
148985
148996
149009
148997
148998
148999
149000
148999
148997
148998
148998
148999
148999
149000
149000
149000
149000
149000
149001
149001
149001
149002
149001
149001
149001
149002
149002
149002
149002
149002
149003
149003
149003
149003
149003
149003
149003
149003
149003
149004
149004
149004
149004
149004
149004
149005
149004
149004
149005
149005
149004
149005
149005
149005
149005
149005
149006
149006
149006
149005
149006
149006
149006
149006
149006
149006
149006
149007
149007
149007
149007
149007
149007
149007
149008
149007
149008
149008
149008
149008
149008
149008
149008
149009
149008
149008
149008
149009
149009
149008
149009
149009
149009
149009
149009
149010
149010
149010
149009
149010
149010
149009
149010
149010
149011
149011
149010
149010
149011
149011
149010
149011
149011
149011
149011
149011
149012
149012
149011
149011
149011
149012
149012
149012
149012
149012
149012
149012
149012
149013
149012
149012
149012
149013
149013
149013
149013
149013
149013
149013
149013
149013
149013
149013
149013
149013
149014
149014
149014
149013
149013
149014
149014
149014
149014
149013
149014
149014
149014
149014
149014
149014
149014
149014
149014
149014
149014
149014
149014
149014
149014
149014
149014
149015
149014
149014
149014
149014
149014
149014
149014
149014
149014
149014
149014
149014
149014
149014
149013
149013
149013
149014
149013
149013
149013
149013
149013
149013
149013
149013
149012
149012
149012
149012
149012
149012
149012
149011
149011
149011
149011
149011
149010
149010
149010
149010
149010
149009
149009
149008
149009
149009
149008
149008
149007
149006
149006
149007
149004
149005
149006
149005
149004
149003
149002
149002
149004
149002
149001
148999
148998
148999
149001
148995
148998
149000
148997
148996
148993
148991
148993
148994
148986
148989
148993
148989
148987
148985
148980
148983
148986
148981
148979
148978
148978
148975
148971
148972
148966
148962
148958
148959
148962
148955
148955
148955
148947
148949
148952
148950
148948
148945
148947
148949
148951
148953
148951
148949
148953
148954
148956
148958
148956
148955
148957
148959
148962
148967
148966
148965
148972
148973
148973
148976
148977
148977
148982
148982
148980
148989
148986
148983
148989
149002
149009
149006
149026
149029
148829
149037
148981
148996
148998
148997
148999
149005
149017
149016
149014
149012
149013
149019
149026
149041
149026
149014
149027
149033
149045
149033
149050
149060
149061
149055
149039
149066
149057
149051
149049
149060
149078
149091
149076
149062
149108
149107
149086
149079
149177
148855
149124
149101
149063
149056
149106
149145
149120
149109
149085
149131
149112
149098
149122
149123
149125
149132
149131
149129
149149
149149
149151
149152
149166
149169
149218
149063
149147
149125
149173
149204
149201
149182
149147
149191
149188
149188
149189
149197
149210
149225
149215
149204
149232
149247
149245
149257
149339
148979
149207
149241
149278
149310
149257
149216
149281
149280
149273
149310
149298
149287
149310
149324
149330
149333
149421
149069
149322
149344
149371
149394
149358
149335
149389
149395
149385
149422
149427
149415
149127
149550
149456
149476
149468
149459
149477
149486
149491
149530
149527
149521
149556
149561
149561
149594
149587
149577
149635
149646
149658
149690
149698
149688
149830
149660
149771
149816
149828
149819
149898
149902
149890
149995
150003
149997
150147
150124
150087
150120
150170
150189
150274
150219
150163
150123
150178
150227
149991
149989
149957
149684
149688
149634
149308
149379
149394
149220
149167
149079
149059
149085
149096
149012
148974
148914
148942
148961
148969
148938
148918
148898
148410
149113
148899
148902
148788
148851
148843
148846
148852
148860
148854
148841
148820
148831
148846
148818
148809
148804
148833
148831
148825
148777
148837
148881
148819
148809
148805
148841
148824
148795
148756
148804
148870
148807
148793
148784
148854
148833
148821
148783
148831
148865
148806
148801
148800
148842
148843
148827
148801
148816
148834
148801
148797
148794
148831
148844
148849
148874
148812
148780
148792
148797
148809
148846
148845
148840
148808
148822
148853
148814
148803
148801
148839
148849
148863
148829
148836
148847
148940
148866
148741
148775
149063
148538
148783
148837
148910
148963
148793
148678
148907
148641
148846
148856
148865
148848
148883
148850
148801
148786
148980
148640
148897
148862
148824
148764
148858
148910
148965
148698
148831
148869
148857
148833
148794
148832
148891
148840
148660
148953
148890
148869
148819
148725
148863
148960
148650
148973
148779
148869
148842
148823
148777
148821
148925
148826
148966
148530
148768
148832
148913
148960
148801
148686
148301
148986
148867
148881
148801
148867
148796
148810
148826
148812
148853
148870
148820
148824
148824
148809
148786
148780
148836
148838
148834
148807
148826
148838
148814
148803
148795
148818
148833
148847
148858
148824
148769
148778
148779
148789
148786
148824
148841
148869
148785
148724
148774
148778
148792
148856
148820
148783
148696
148775
148905
148795
148948
148316
148801
148752
148822
148759
148765
148769
148788
148795
148798
148794
148777
148777
148751
148747
148753
148776
148787
148791
148789
148768
148757
148709
148911
148484
148768
148744
148780
148740
148732
148725
148771
148775
148778
148747
148754
148765
148716
148710
148709
148731
148752
148767
148779
148736
148694
148666
148883
148460
148740
148703
148746
148703
148702
148694
148749
148746
148733
148724
148711
148710
148668
148667
148671
148675
148708
148741
148749
148701
148608
148660
148451
148919
148661
148752
148665
148673
148644
148636
148710
148701
148674
148652
148673
148707
148465
148759
148590
148666
148632
148682
148612
148615
148623
148633
148638
148639
148626
148626
148607
148610
148502
148674
148629
148652
148622
148600
148603
148609
148621
148618
148610
148573
148598
148596
148685
148430
148578
148569
148617
148567
148542
148547
148551
148570
148576
148570
148557
148547
148562
148494
148650
148375
148604
148547
148580
148531
148524
148520
148530
148541
148541
148525
148512
148484
148714
148251
148500
148469
148645
148412
148481
148458
148477
148490
148492
148488
148461
148459
148463
148491
148507
148512
148479
148472
148471
148415
148457
148383
148462
148441
148455
148417
148414
148410
148429
148431
148427
148398
148413
148403
148645
148151
148393
148366
148554
148299
148372
148354
148386
148400
148412
148416
148378
148368
148361
148369
148380
148380
148366
148344
148351
148270
148454
148132
148364
148292
148348
148296
148299
148298
148325
148322
148313
148280
148278
148278
148310
148310
148302
148285
148294
148281
148400
148128
148278
148259
148341
148251
148238
148234
148236
148243
148253
148252
148211
148208
148207
148222
148232
148231
148217
148197
148202
148130
148256
148055
148217
148171
148204
148163
148156
148154
148198
148195
148184
148145
148151
148159
148170
148171
148159
148146
148131
148152
147784
148284
148061
148168
147997
148215
148054
148080
148061
148086
148093
148094
148046
148049
148054
148072
148080
148075
148062
148046
148065
147985
148233
147698
148164
147942
148114
147994
148014
148007
148027
148016
148008
147970
147971
147969
147979
147984
147981
147945
147938
147936
147960
147963
147958
147930
147943
147920
148121
147675
147918
147877
148064
147828
147878
147863
147891
147899
147906
147900
147879
147866
147864
147873
147883
147884
147837
147832
147830
147839
147851
147851
147836
147807
147819
147729
147961
147517
147871
147702
147839
147742
147749
147739
147768
147768
147761
147724
147724
147724
147744
147747
147740
147703
147699
147698
147744
147740
147724
147707
147700
147737
147372
147853
147613
147732
147541
147795
147606
147632
147621
147635
147640
147646
147583
147591
147590
147605
147610
147606
147560
147561
147567
147582
147587
147586
147533
147558
147548
147533
147249
147787
147418
147719
147483
147512
147489
147491
147513
147519
147511
147460
147456
147465
147468
147472
147463
147419
147417
147419
147436
147437
147429
147388
147390
147395
147409
147411
147400
147383
147370
147407
146889
147579
147296
147441
147129
147520
147273
147312
147284
147318
147319
147329
147281
147285
147275
147290
147301
147302
147236
147236
147242
147248
147255
147253
147199
147199
147203
147207
147217
147217
147198
147168
147176
147083
147276
146955
147227
147083
147187
147101
147101
147095
147115
147111
147110
147062
147064
147059
147077
147081
147074
147031
147029
147032
147055
147055
147046
147000
146998
147000
147019
147018
147006
146981
146972
147022
146540
147156
146877
147034
146765
147088
146875
146893
146880
146897
146896
146912
146840
146851
146844
146859
146869
146870
146799
146801
146809
146822
146829
146826
146776
146775
146778
146783
146793
146791
146789
146746
146754
146642
146864
146461
146808
146634
146765
146658
146661
146651
146671
146663
146664
146613
146615
146607
146632
146633
146624
146569
146561
146559
146583
146585
146577
146529
146526
146527
146545
146547
146536
146511
146494
146544
145967
146714
146410
146578
146216
146648
146384
146402
146389
146409
146411
146426
146355
146365
146356
146363
146369
146371
146306
146305
146308
146313
146321
146317
146264
146260
146262
146265
146273
146269
146208
146208
146212
146217
146226
146225
146183
146185
146173
146115
146027
146160
146109
146189
146118
146083
146069
146076
146072
146085
146074
146017
146010
146017
146025
146029
146020
145965
145964
145967
145972
145976
145969
145918
145917
145919
145929
145932
145922
145888
145882
145918
145646
145926
145775
145876
145763
145909
145759
145769
145777
145784
145787
145794
145711
145720
145720
145722
145732
145731
145663
145659
145662
145656
145663
145659
145591
145590
145594
145591
145597
145589
145547
145562
145546
145490
145380
145567
145471
145554
145485
145444
145444
145441
145441
145456
145442
145382
145378
145387
145393
145395
145383
145317
145312
145313
145322
145326
145315
145255
145254
145256
145263
145262
145251
145203
145198
145225
144985
145177
145084
145156
145068
145198
145029
145042
145057
145054
145047
145056
144988
144994
144991
144998
145006
145000
144939
144935
144936
144933
144941
144939
144862
144863
144865
144867
144880
144878
144836
144821
144818
144706
144743
144645
144780
144722
144757
144669
144679
144669
144675
144667
144664
144582
144585
144579
144569
144570
144565
144478
144462
144445
144483
144490
144482
144452
144437
144506
144062
144554
144307
144444
144287
144485
144300
144306
144309
144313
144308
144326
144226
144240
144235
144234
144238
144238
144154
144156
144159
144152
144168
144171
144084
144111
144082
143982
143788
144121
143952
144084
143957
143914
143902
143892
143847
143888
143863
143768
143734
143731
143782
143789
143783
143720
143714
143712
143730
143733
143719
143680
143663
143748
143165
143805
143523
143660
143449
143685
143461
143476
143494
143494
143482
143510
143389
143408
143401
143384
143382
143388
143275
143284
143284
143269
143281
143286
143221
143193
143194
143002
143128
142826
143032
142985
143057
142942
142916
142910
142983
142975
142968
142893
142885
142885
142895
142899
142890
142805
142803
142801
142810
142814
142799
142735
142747
142761
142444
142651
142575
142643
142590
142701
142513
142518
142524
142493
142497
142515
142359
142367
142377
142350
142358
142351
142296
142255
142258
142007
142145
141664
142094
142047
142119
142022
141998
142011
142045
142036
142028
141940
141940
141938
141938
141938
141927
141823
141822
141818
141818
141822
141807
141717
141733
141735
141594
141518
141559
141557
141614
141565
141482
141462
141473
141413
141434
141418
141262
141256
141270
141200
141211
141204
140957
141011
141050
140918
140895
140870
140999
141007
140991
140915
140913
140913
140906
140914
140902
140794
140790
140792
140778
140785
140770
140669
140678
140684
140508
140496
140494
140514
140525
140530
140388
140390
140398
140342
140358
140357
140214
140203
140188
139941
139932
139947
139837
139868
139881
139731
139686
139650
139740
139763
139763
139692
139688
139689
139710
139717
139699
139616
139619
139635
139382
139451
139423
139453
139430
139472
139309
139323
139312
139264
139279
139283
139121
139120
139109
138865
138872
138866
138908
138846
138866
138698
138688
138674
138444
138498
138521
138345
138294
138223
138167
138146
138202
138297
138322
138315
138194
138199
138206
138189
138213
138209
138095
138071
138067
137796
137846
137736
137873
137820
137835
137664
137661
137647
137612
137602
137579
137366
137371
137366
137057
137029
137041
136969
136909
137050
136395
136549
136663
136677
136642
136578
136581
136617
136614
136443
136340
136532
136491
136533
136477
136367
136356
136373
136328
136343
136310
136139
136148
136177
135753
135823
135806
135803
135799
135851
135528
135551
135570
135357
135388
135379
134894
134954
135030
134586
134452
134317
134653
134686
134697
134658
134680
134635
134618
134411
134516
134492
134552
134531
134339
134321
134333
134245
134275
134280
134030
134024
134004
133615
133607
133604
133586
133557
133556
133266
133313
133280
132612
132503
132721
132522
132407
132326
132331
132410
132431
132291
132184
132342
132398
132409
132364
132226
132206
132204
132164
132172
132144
131889
131904
131914
131431
131411
131424
131300
131318
131328
130938
130958
130949
130279
130050
130048
129740
129879
130028
129951
129868
129797
129768
129801
129813
129918
129952
129939
129796
129797
129788
129409
129392
129404
129294
129289
129256
128878
128890
128903
128110
128097
128167
127648
127463
127270
126862
127128
127327
127200
127111
126997
126917
127123
127073
127210
127265
127231
127040
127095
127036
126548
126412
126555
126241
126207
126146
125584
125468
125415
123756
124150
124476
124037
123846
123614
124326
124378
124373
124438
124436
124418
124380
124255
124276
123786
123987
123528
123441
123493
123368
122657
122371
122049
120538
121081
121502
121153
121096
120702
121742
121796
121744
121765
121736
121704
121557
121449
121457
120644
120724
120462
118369
118313
119072
119220
118972
118882
119449
119333
119468
119490
119420
119434
119156
119187
119291
118535
118168
117622
117297
117683
117944
117901
117587
117926
118888
118885
118845
118993
118742
118337
118080
118642
118946
119148
118991
118742
119646
119795
119797
120657
120548
120258
121397
121521
121548
122418
122444
122410
123126
123143
123122
123669
123679
123665
124117
124129
124124
124522
124525
124516
124872
124878
124877
125196
125196
125191
125480
125484
125485
125750
125748
125744
125987
125990
125992
126217
126213
126211
126418
126420
126422
126613
126611
126609
126785
126787
126790
126955
126952
126949
127101
127104
127108
127251
127247
127245
127379
127380
127383
127509
127506
127505
127622
127624
127626
127737
127735
127733
127836
127839
127841
127941
127938
127934
128027
128030
128033
128122
128118
128116
128200
128201
128204
128284
128281
128280
128356
128356
128358
128430
128428
128427
128495
128496
128497
128562
128561
128560
128621
128622
128623
128683
128681
128680
128736
128737
128738
128792
128790
128790
128840
128841
128842
128892
128890
128889
128936
128936
128937
128982
128981
128980
129023
129023
129024
129065
129064
129064
129102
129103
129103
129141
129140
129140
129175
129176
129176
129211
129210
129210
129242
129243
129243
129275
129274
129274
129304
129304
129304
129334
129333
129333
129360
129360
129360
129388
129387
129387
129412
129412
129412
129437
129437
129437
129460
129460
129460
129483
129483
129483
129504
129504
129504
129525
129525
129524
129544
129544
129544
129563
129563
129563
129581
129581
129581
129599
129599
129599
129615
129615
129615
129632
129632
129632
129647
129647
129647
129662
129662
129662
129676
129676
129676
129690
129691
129690
129703
129703
129703
129716
129716
129716
129728
129728
129728
129740
129740
129740
129751
129751
129751
129762
129763
129762
129772
129773
129772
129783
129783
129783
129792
129792
129792
129801
129802
129802
129810
129810
129810
129819
129819
129819
129827
129827
129827
129835
129835
129835
129842
129842
129842
129850
129850
129850
129857
129857
129856
129864
129864
129864
129870
129870
129870
129876
129876
129876
129882
129882
129882
129888
129888
129888
129893
129893
129893
129899
129899
129899
129904
129904
129904
129909
129909
129909
129914
129914
129913
129918
129918
129918
129923
129923
129922
129927
129927
129927
129931
129931
129931
129935
129935
129935
129939
129939
129938
129943
129943
129943
129946
129946
129946
129950
129949
129949
129952
129952
129952
129956
129956
129956
129959
129959
129958
129962
129962
129962
129964
129964
129964
129967
129967
129967
129970
129969
129969
129972
129972
129972
129974
129974
129974
129977
129977
129977
129979
129979
129979
129981
129981
129981
129983
129983
129983
129985
129985
129985
129987
129986
129986
129989
129988
129988
129990
129990
129990
129992
129992
129992
129993
129993
129993
129995
129995
129995
129996
129996
129996
129998
129997
129997
129999
129998
129998
130000
130000
130000
130001
130001
130001
130002
130002
130002
130003
130003
130003
130004
130004
130004
130005
130005
130005
130006
130006
130006
130007
130007
130007
130008
130008
130008
130008
130008
130008
130009
130009
130009
130010
130010
130010
130010
130010
130010
130011
130011
130011
130011
130011
130011
130012
130012
130012
130012
130012
130012
130012
130012
130012
130013
130013
130013
130013
130013
130013
130013
130013
130013
130013
130013
130013
130014
130014
130014
130014
130014
130014
130014
130014
130014
130014
130014
130014
130014
130014
130014
130014
130014
130014
130014
130014
130014
130014
130014
130014
130014
130014
130014
130014
130014
130013
130014
130014
130014
130013
130013
130013
130013
130013
130013
130013
130013
130013
130013
130013
130013
130012
130012
130012
130012
130012
130012
130011
130011
130011
130011
130011
130011
130010
130010
130010
130010
130010
130010
130009
130009
130009
130009
130009
130009
130008
130008
130008
130007
130007
130007
130006
130006
130006
130005
130005
130005
130004
130004
130004
130003
130003
130003
130002
130002
130002
130001
130001
130001
130000
129999
129999
129998
129998
129998
129997
129997
129997
129996
129996
129996
129994
129994
129994
129993
129993
129993
129992
129992
129991
129990
129990
129990
129989
129989
129989
129988
129988
129988
129986
129986
129986
129985
129985
129985
129983
129983
129983
129982
129982
129982
129980
129980
129980
129980
129980
129980
129979
129979
129979
129977
129977
129977
129973
129973
129973
129967
129967
129968
129965
129964
129963
129972
129973
129973
130004
130006
130007
130031
130027
130024
130040
130067
130036
130014
129986
130035
130070
130028
130003
130029
130055
130044
130028
130019
130014
130012
130011
130012
130012
130012
130012
130013
130013
130013
130013
130012
130012
130012
130011
130011
130010
130011
130010
130008
130010
130016
130021
130029
130037
130047
130058
130071
130083
130094
130102
130106
130109
130113
130118
130125
130132
130141
130151
130161
130173
130186
130201
130218
130236
130257
130281
130307
130338
130373
130412
130457
130508
130565
130629
130702
130783
130874
130976
131090
131216
131355
131509
131678
131863
132064
132282
132516
132767
133033
133315
133612
133922
134244
134577
134918
135267
135622
135981
136342
136704
137065
137424
137780
138132
138478
138818
139151
139477
139794
140104
140404
140696
140979
141253
141517
141773
142020
142258
142487
142708
142921
143126
143323
143512
143694
143869
144037
144198
144354
144503
144646
144783
144915
145042
145164
145281
145393
145501
145605
145705
145800
145892
145981
146066
146148
146226
146301
146374
146444
146511
146575
146637
146697
146754
146810
146863
146914
146963
147010
147056
147099
147142
147182
147221
147259
147295
147329
147363
147395
147426
147455
147484
147511
147538
147563
147587
147611
147633
147654
147675
147695
147714
147732
147749
147766
147782
147797
147811
147825
147838
147851
147862
147874
147884
147894
147904
147912
147921
147928
147935
147942
147948
147954
147958
147963
147967
147970
147976
147983
147989
147992
147992
147994
147981
147989
147989
147997
148005
148009
148014
148018
148023
148028
148033
148038
148044
148050
148057
148064
148071
148078
148086
148095
148103
148112
148121
148131
148141
148151
148161
148172
148183
148194
148205
148217
148228
148240
148252
148264
148276
148289
148301
148314
148327
148339
148352
148365
148378
148391
148403
148416
148429
148441
148454
148466
148479
148491
148503
148515
148527
148539
148550
148561
148572
148583
148593
148604
148614
148623
148633
148642
148650
148659
148667
148675
148682
148689
148695
148701
148707
148713
148718
148723
148727
148731
148732
148733
148735
148740
148749
148755
148758
148754
148752
148750
148748
148747
148746
148746
148746
148745
148746
148746
148747
148748
148750
148751
148753
148754
148756
148758
148761
148763
148766
148769
148772
148775
148779
148782
148786
148789
148794
148797
148802
148806
148811
148815
148821
148825
148831
148836
148842
148847
148853
148859
148865
148871
148878
148884
148891
148898
148905
148912
148920
148927
148935
148942
148951
148958
148967
148975
148985
148993
149002
149011
149020
149029
149039
149048
149058
149067
149077
149086
149097
149106
149116
149126
149136
149145
149155
149164
149174
149182
149191
149199
149208
149215
149223
149229
149236
149241
149246
149250
149254
149256
149259
149260
149261
149260
149259
149257
149254
149249
149245
149239
149234
149226
149220
149212
149205
149196
149189
149179
149172
149162
149155
149145
149138
149129
149122
149114
149107
149099
149093
149086
149081
149075
149070
149065
149061
149056
149053
149049
149047
149043
149041
149038
149036
149034
149032
149030
149029
149027
149026
149024
149023
149021
149021
149019
149019
149017
149017
149015
149015
149014
149013
149012
149011
149010
149010
149009
149008
149007
149007
149005
149005
149003
149003
149002
149002
149001
149002
149005
149003
149003
149004
149003
149001
149001
149002
149002
149002
149004
149003
149004
149006
149005
149006
149007
149006
149007
149008
149008
149008
149010
149009
149010
149011
149011
149011
149013
149013
149013
149014
149014
149014
149016
149016
149016
149018
149018
149018
149020
149020
149020
149022
149022
149023
149025
149025
149026
149028
149027
149029
149031
149031
149032
149035
149034
149036
149040
149039
149041
149045
149044
149048
149052
149050
149055
149060
149058
149063
149069
149066
149073
149079
149077
149084
149091
149089
149096
149105
149103
149111
149120
149118
149126
149136
149134
149142
149152
149151
149160
149170
149169
149177
149187
149187
149194
149203
149204
149210
149219
149220
149225
149233
149234
149238
149245
149248
149249
149255
149258
149257
149260
149263
149261
149262
149265
149261
149261
149264
149258
149257
149259
149252
149249
149251
149243
149239
149239
149231
149226
149226
149217
149211
149210
149201
149195
149193
149184
149177
149175
149166
149159
149157
149147
149140
149137
149127
149120
149117
149108
149101
149098
149088
149081
149078
149069
149062
149059
149050
149042
149040
149031
149024
149021
149012
149006
149003
148994
148988
148985
148977
148971
148968
148960
148954
148952
148944
148938
148936
148928
148923
148921
148913
148908
148906
148899
148894
148892
148885
148881
148879
148872
148868
148866
148860
148856
148854
148848
148844
148843
148837
148833
148832
148826
148823
148822
148816
148813
148812
148807
148804
148803
148798
148796
148795
148790
148788
148787
148783
148780
148780
148776
148774
148774
148770
148768
148768
148764
148763
148763
148759
148758
148758
148755
148754
148754
148752
148751
148751
148749
148748
148749
148747
148747
148747
148746
148746
148747
148746
148747
148747
148747
148748
148748
148749
148751
148749
148753
148743
148745
148746
148747
148748
148750
148753
148756
148760
148764
148770
148775
148782
148789
148797
148805
148814
148823
148834
148844
148856
148868
148880
148893
148907
148922
148937
148952
148969
148986
149003
149022
149040
149059
149079
149099
149119
149139
149159
149178
149197
149215
149231
149246
149258
149267
149272
149274
149272
149266
149254
149239
149222
149205
149186
149167
149149
149131
149114
149098
149085
149073
149063
149054
149047
149041
149037
149033
149029
149027
149024
149022
149020
149018
149016
149014
149013
149011
149010
149008
149007
149005
149004
149003
149002
149002
149001
149002
149002
149000
149002
149000
149001
149001
149001
149000
149001
149002
149003
149004
149005
149006
149008
149009
149011
149012
149013
149015
149016
149018
149020
149022
149020
149019
149017
149016
149014
149013
149012
149010
149009
149008
149006
149005
149004
149003
149002
149001
149001
149000
149001
149001
149000
149001
149001
149002
149003
149004
149004
149003
149002
149001
149000
149001
149002
149000
149000
149001
149001
149001
149002
149003
149005
149005
149005