/*--------------------------------*- C++ -*----------------------------------*\
| =========                 |                                                 |
| \\      /  F ield         | OpenFOAM: The Open Source CFD Toolbox           |
|  \\    /   O peration     | Version:  v2006                                 |
|   \\  /    A nd           | Website:  www.openfoam.com                      |
|    \\/     M anipulation  |                                                 |
\*---------------------------------------------------------------------------*/
FoamFile
{
    version     2.0;
    format      ascii;
    class       volScalarField;
    location    "0.037";
    object      nut;
}
// * * * * * * * * * * * * * * * * * * * * * * * * * * * * * * * * * * * * * //

dimensions      [0 2 -1 0 0 0 0];


internalField   nonuniform List<scalar> 
16277
(
20.9027
14.04
53.013
10.17
15.0623
8.81106
3.68369
1.51873
0.820341
0.553489
0.435042
0.375039
0.339218
0.31323
0.291334
0.271613
0.253659
0.237511
0.223193
0.210604
0.199548
0.189791
0.181112
0.173322
0.166271
0.159845
0.153958
0.148542
0.143543
0.138918
0.13463
0.130647
0.126942
0.123492
0.120278
0.117281
0.114487
0.111883
0.109457
0.107197
0.105096
0.103145
0.101336
0.0996635
0.098122
0.0967067
0.0954132
0.0942385
0.0931798
0.0922352
0.0914032
0.0906831
0.0900747
0.0895785
0.0891949
0.0889255
0.0887746
0.0887464
0.0888445
0.0890725
0.0894358
0.089943
0.0906027
0.0914258
0.0924251
0.0936154
0.0950144
0.0966438
0.0985308
0.10071
0.103229
0.106149
0.109548
0.113518
0.11815
0.123507
0.129593
0.136361
0.143874
0.152788
0.16541
0.188283
0.238235
0.359088
0.66887
1.40646
2.48348
2.6557
1.57363
1.03955
0.511789
0.23335
0.126879
0.0598586
0.014182
0.00255154
8.45445e-05
7.33793e-05
0.00119927
0.00552326
0.00304347
0.000777134
6.42738e-05
5.75531e-05
0.000708561
0.00255938
0.00204223
0.000609053
5.31847e-05
4.97588e-05
0.000590266
0.00193675
0.00167583
0.000531695
4.68406e-05
4.48736e-05
0.000522563
0.00163241
0.0014858
0.000486981
4.29342e-05
4.18858e-05
0.000489924
0.0014707
0.00137576
0.000463875
4.06047e-05
3.99159e-05
0.000468045
0.00136735
0.00129527
0.000447069
3.89706e-05
3.84944e-05
0.000451205
0.00129151
0.00123194
0.000433411
3.77557e-05
3.74103e-05
0.000437429
0.00123077
0.00117916
0.00042177
3.68104e-05
3.65506e-05
0.000425772
0.00117966
0.00113372
0.000411549
3.60433e-05
3.58385e-05
0.000415566
0.00113532
0.00109365
0.000402321
3.53927e-05
3.52258e-05
0.000406291
0.00109597
0.00105766
0.000393811
3.48251e-05
3.46847e-05
0.000397731
0.0010605
0.00102497
0.000385891
3.43169e-05
3.41952e-05
0.000389769
0.0010282
0.00099501
0.000378486
3.38522e-05
3.37442e-05
0.000382329
0.00099857
0.000967353
0.000371535
3.34207e-05
3.33232e-05
0.000375339
0.000971213
0.000941733
0.000364976
3.30152e-05
3.29259e-05
0.000368742
0.00094585
0.00091792
0.000358766
3.26306e-05
3.25476e-05
0.000362494
0.000922264
0.000895746
0.000352872
3.2263e-05
3.21851e-05
0.000356571
0.000900289
0.000875058
0.000347281
3.19095e-05
3.1836e-05
0.000350952
0.000879764
0.000855692
0.000341969
3.15682e-05
3.14985e-05
0.00034561
0.000860522
0.000837489
0.000336906
3.12374e-05
3.1171e-05
0.000340514
0.000842408
0.000820306
0.000332063
3.09153e-05
3.08518e-05
0.000335636
0.000825285
0.000804021
0.000327414
3.06006e-05
3.05394e-05
0.000330949
0.000809037
0.000788528
0.000322932
3.02918e-05
3.02323e-05
0.000326425
0.000793557
0.000773728
0.000318591
2.99874e-05
2.99293e-05
0.000322039
0.000778753
0.000759541
0.000314367
2.96861e-05
2.9629e-05
0.000317768
0.000764547
0.000745897
0.000310242
2.93866e-05
2.93302e-05
0.000313592
0.00075087
0.000732731
0.000306197
2.90878e-05
2.90316e-05
0.000309496
0.00073766
0.000719989
0.000302217
2.87885e-05
2.87322e-05
0.000305464
0.000724867
0.000707625
0.000298291
2.84877e-05
2.8431e-05
0.000301485
0.000712449
0.000695608
0.000294409
2.81845e-05
2.8127e-05
0.000297551
0.000700375
0.000683911
0.000290564
2.78779e-05
2.78196e-05
0.000293656
0.000688623
0.000672516
0.000286753
2.75672e-05
2.75079e-05
0.000289805
0.000677176
0.000661409
0.000282977
2.72517e-05
2.71916e-05
0.000286024
0.000666027
0.000650592
0.000279251
2.69312e-05
2.68702e-05
0.000282281
0.000655174
0.00064006
0.000275559
2.66052e-05
2.65433e-05
0.000278585
0.000644616
0.000629816
0.000271916
2.62735e-05
2.62108e-05
0.000274951
0.000634361
0.00061988
0.000268336
2.59361e-05
2.58728e-05
0.000271396
0.000624436
0.000610284
0.000264842
2.55932e-05
2.55298e-05
0.000267945
0.00061488
0.000601076
0.00026146
2.52456e-05
2.51827e-05
0.000264633
0.000605832
0.000592353
0.000258232
2.48945e-05
2.48329e-05
0.000261505
0.000597373
0.000584194
0.000255208
2.45417e-05
2.44826e-05
0.000258612
0.000589512
0.00057667
0.000252439
2.41896e-05
2.41344e-05
0.000256014
0.000582385
0.000569926
0.000249994
2.38414e-05
2.37918e-05
0.000253785
0.000576154
0.000564138
0.000247953
2.35008e-05
2.34599e-05
0.000252013
0.000571
0.000559499
0.00024642
2.31728e-05
2.31451e-05
0.000250736
0.000567121
0.000556235
0.000245467
2.28675e-05
2.2849e-05
0.000249856
0.000564663
0.000554411
0.000244869
2.2597e-05
2.25813e-05
0.000249394
0.000563907
0.000554307
0.00024476
2.23606e-05
2.23472e-05
0.000249422
0.000564867
0.000555898
0.000245178
2.21778e-05
2.21553e-05
0.000249922
0.000567434
0.000559121
0.00024611
2.20467e-05
2.20174e-05
0.000250826
0.000571389
0.000563669
0.000247319
2.1921e-05
2.19344e-05
0.000251958
0.000576624
0.000569473
0.000248599
2.18396e-05
2.18893e-05
0.000253078
0.000582938
0.000576256
0.000249904
2.18054e-05
2.1899e-05
0.000254019
0.000589596
0.000583168
0.000251034
2.18297e-05
2.19539e-05
0.000254797
0.000595981
0.00058968
0.000251854
2.18989e-05
2.20469e-05
0.00025554
0.000601802
0.00059562
0.000252509
2.20067e-05
2.21756e-05
0.000256133
0.000606926
0.000600886
0.000253112
2.21496e-05
2.23353e-05
0.00025667
0.000611303
0.000605375
0.000253445
2.23211e-05
2.25168e-05
0.000257068
0.000615007
0.000608956
0.00025366
2.25136e-05
2.27142e-05
0.000257337
0.000617887
0.000611462
0.000253771
2.27204e-05
2.29205e-05
0.000257474
0.000620314
0.000613201
0.000253812
2.29344e-05
2.31292e-05
0.000257529
0.000621786
0.000613977
0.000253654
2.31491e-05
2.33345e-05
0.000257502
0.00062225
0.000613299
0.000253231
2.33587e-05
2.3531e-05
0.000257096
0.000621459
0.000611847
0.000252675
2.35564e-05
2.37117e-05
0.000256548
0.00061984
0.000609783
0.000252054
2.37366e-05
2.38728e-05
0.000255918
0.000617515
0.000607131
0.000251411
2.38957e-05
2.4012e-05
0.000255228
0.000614528
0.000603959
0.00025077
2.40319e-05
2.41284e-05
0.000254515
0.000610981
0.000600365
0.000250147
2.41445e-05
2.42223e-05
0.0002538
0.000606996
0.000596421
0.000249545
2.42343e-05
2.42952e-05
0.00025308
0.000602634
0.0005922
0.000248951
2.43031e-05
2.43459e-05
0.000252353
0.000598023
0.00058772
0.00024835
2.4352e-05
2.43808e-05
0.000251612
0.000593291
0.000583146
0.000247731
2.43853e-05
2.44025e-05
0.000250853
0.000588493
0.000578533
0.000247093
2.44052e-05
2.44153e-05
0.000250086
0.000583741
0.000573889
0.000246393
2.44124e-05
2.44186e-05
0.000249295
0.000578997
0.000569223
0.000245611
2.44053e-05
2.44104e-05
0.000248478
0.000574243
0.000564565
0.000244819
2.43906e-05
2.43945e-05
0.000247654
0.000569501
0.00055992
0.000244012
2.43695e-05
2.43723e-05
0.00024681
0.000564775
0.000555286
0.000243174
2.43432e-05
2.4345e-05
0.000245928
0.000560059
0.000550623
0.000242301
2.43124e-05
2.43132e-05
0.000245015
0.000555343
0.000545933
0.000241391
2.42774e-05
2.42774e-05
0.000244059
0.000550622
0.000541265
0.000240441
2.4239e-05
2.42382e-05
0.000243079
0.000545926
0.000536631
0.000239455
2.41976e-05
2.41958e-05
0.000242069
0.000541261
0.000532027
0.000238435
2.41428e-05
2.41606e-05
0.000241067
0.000536674
0.00052711
0.000237405
2.40855e-05
2.41131e-05
0.000239809
0.000532328
0.000522979
0.000235698
2.3995e-05
2.41421e-05
0.000239938
0.000530892
0.000524427
0.00023961
2.40797e-05
2.44739e-05
0.000240026
0.000530238
0.000555399
0.000252426
2.46563e-05
2.62684e-05
0.000236716
0.000539963
0.000824531
0.000343959
2.96257e-05
3.19758e-05
0.000178437
0.000409571
0.00101023
0.00231489
0.00432743
0.00616948
0.00742986
0.00976668
0.0112584
0.0125971
0.0133509
0.0137116
0.0136105
0.0130051
0.0121432
0.0107606
0.00940493
0.00734932
0.00642153
0.00467253
0.00349592
0.00237439
0.00134975
0.000619501
0.000225664
9.39074e-05
1.81108e-05
1.18091e-05
8.69834e-05
0.000204283
0.000193601
8.26635e-05
1.13629e-05
1.09212e-05
7.97524e-05
0.000183817
0.000183495
7.85714e-05
1.08069e-05
1.07365e-05
7.81264e-05
0.000181509
0.000181063
7.73563e-05
1.06318e-05
1.06222e-05
7.73274e-05
0.000181044
0.000181498
7.73699e-05
1.06385e-05
1.06392e-05
7.74822e-05
0.000181925
0.000182201
7.7617e-05
1.06569e-05
1.06652e-05
7.77411e-05
0.00018276
0.000183019
7.78675e-05
1.06747e-05
1.06922e-05
7.80097e-05
0.000183594
0.000183903
7.81422e-05
1.06866e-05
1.07044e-05
7.83066e-05
0.000184487
0.000184805
7.84132e-05
1.07129e-05
1.0732e-05
7.85913e-05
0.000185426
0.000185726
7.86794e-05
1.0733e-05
1.07378e-05
7.89338e-05
0.00018639
0.000186694
7.89929e-05
1.07616e-05
1.07662e-05
7.9226e-05
0.000187367
0.000187681
7.93217e-05
1.0776e-05
1.07799e-05
7.95572e-05
0.000188382
0.000188704
7.96439e-05
1.08055e-05
1.08097e-05
7.98772e-05
0.000189413
0.000189743
7.99911e-05
1.08204e-05
1.08248e-05
8.02355e-05
0.000190474
0.000190811
8.03306e-05
1.08508e-05
1.08553e-05
8.05734e-05
0.000191549
0.000191894
8.06959e-05
1.08668e-05
1.08713e-05
8.09488e-05
0.000192655
0.000193006
8.10499e-05
1.08975e-05
1.09028e-05
8.13057e-05
0.00019378
0.000194146
8.14379e-05
1.09145e-05
1.09193e-05
8.17023e-05
0.000194949
0.000195318
8.18607e-05
1.09395e-05
1.09604e-05
8.20686e-05
0.000196114
0.000196489
8.22066e-05
1.09638e-05
1.09702e-05
8.25051e-05
0.000197297
0.00019767
8.26533e-05
1.09895e-05
1.10105e-05
8.28714e-05
0.000198465
0.000198834
8.30034e-05
1.10135e-05
1.10202e-05
8.33137e-05
0.000199659
0.000200046
8.34583e-05
1.10393e-05
1.10615e-05
8.37016e-05
0.00020089
0.000201282
8.38554e-05
1.10655e-05
1.1073e-05
8.41813e-05
0.00020213
0.000202521
8.43244e-05
1.1092e-05
1.11147e-05
8.45752e-05
0.000203351
0.000203737
8.47166e-05
1.11181e-05
1.11252e-05
8.50463e-05
0.000204574
0.00020495
8.51881e-05
1.11447e-05
1.11669e-05
8.5431e-05
0.000205767
0.000206138
8.55566e-05
1.11695e-05
1.11762e-05
8.58831e-05
0.000206968
0.000207332
8.60184e-05
1.11952e-05
1.12167e-05
8.62486e-05
0.000208128
0.000208466
8.63576e-05
1.12185e-05
1.12244e-05
8.66652e-05
0.000209248
0.000209562
8.67582e-05
1.12412e-05
1.12613e-05
8.69501e-05
0.000210271
0.000210513
8.69977e-05
1.12599e-05
1.12624e-05
8.72285e-05
0.000211138
0.000211328
8.71841e-05
1.12826e-05
1.12818e-05
8.73336e-05
0.000211866
0.000212037
8.73012e-05
1.12858e-05
1.1282e-05
8.73867e-05
0.000212483
0.000212604
8.72779e-05
1.12999e-05
1.12933e-05
8.72733e-05
0.000212895
0.000212948
8.7103e-05
1.12933e-05
1.1283e-05
8.70077e-05
0.000213096
0.000213033
8.6747e-05
1.12866e-05
1.12884e-05
8.64693e-05
0.000213063
0.000212873
8.61126e-05
1.12722e-05
1.12569e-05
8.58248e-05
0.000212837
0.000212386
8.53835e-05
1.1257e-05
1.12521e-05
8.48515e-05
0.000212256
0.000211538
8.41893e-05
1.12294e-05
1.12083e-05
8.36242e-05
0.000211313
0.00021042
8.28014e-05
1.12085e-05
1.11914e-05
8.2158e-05
0.000210183
0.000209258
8.13052e-05
1.11818e-05
1.1171e-05
8.06143e-05
0.000209163
0.000208071
7.97009e-05
1.11759e-05
1.11892e-05
7.88591e-05
0.000207903
0.00020669
7.78916e-05
1.11913e-05
1.12166e-05
7.71417e-05
0.000206656
0.000205709
7.62301e-05
1.12479e-05
1.12986e-05
7.557e-05
0.000206064
0.000205908
7.48597e-05
1.13639e-05
1.14595e-05
7.44872e-05
0.000207108
0.000208133
7.36741e-05
1.15656e-05
1.16709e-05
7.3135e-05
0.000210317
0.00021342
7.39184e-05
1.17905e-05
1.19091e-05
7.42344e-05
0.000216113
0.00021772
7.38246e-05
1.19395e-05
1.20264e-05
7.25235e-05
0.000221229
0.000225043
7.64746e-05
1.21995e-05
1.23191e-05
7.4394e-05
0.000228599
0.000231729
7.63594e-05
1.25245e-05
1.26761e-05
7.73875e-05
0.00023721
0.000238418
7.89407e-05
1.28853e-05
1.31734e-05
8.28398e-05
0.000245276
0.000246496
8.48991e-05
1.34652e-05
1.37223e-05
8.85841e-05
0.000252957
0.000255562
9.18597e-05
1.42443e-05
1.53204e-05
0.000106817
0.000267152
0.000265838
0.000112423
1.14827e-05
8.80343e-06
2.74232e-05
7.48284e-05
0.000208061
6.43933e-05
1.03842e-05
1.09111e-05
5.79251e-05
0.000191253
0.000202113
6.03655e-05
1.11909e-05
1.1388e-05
5.69555e-05
0.000193015
0.000207414
6.13047e-05
1.1696e-05
1.204e-05
6.03514e-05
0.000204301
0.000223777
6.83707e-05
1.24244e-05
1.28482e-05
6.77727e-05
0.000219282
0.000239887
7.90299e-05
1.33581e-05
1.41038e-05
8.15216e-05
0.000241501
0.000271326
9.90529e-05
1.55912e-05
1.18838e-05
0.000108924
0.000278395
7.47032e-05
2.57369e-05
9.45997e-06
1.1332e-05
6.98003e-05
0.000232594
0.000227684
6.49802e-05
1.2333e-05
1.30939e-05
8.52088e-05
0.000281795
0.000287542
8.6231e-05
1.36384e-05
1.44276e-05
0.000100433
0.000319664
0.00032836
0.000106792
1.53762e-05
1.71883e-05
0.000127365
0.000357609
0.000346565
0.000138154
1.3444e-05
1.01746e-05
3.14837e-05
9.15232e-05
0.000283245
8.37465e-05
1.20645e-05
1.30523e-05
7.78815e-05
0.000277809
0.00031995
9.62685e-05
1.3936e-05
1.49563e-05
9.67118e-05
0.000316128
0.00036051
0.000124385
1.72761e-05
1.3713e-05
0.000141946
0.000362451
9.79817e-05
3.12279e-05
1.01497e-05
1.26429e-05
8.82267e-05
0.000321791
0.000331577
9.2767e-05
1.42877e-05
1.66035e-05
0.000131734
0.000427291
0.000447209
0.000154741
1.93626e-05
1.58408e-05
0.000178099
0.000453238
0.000125319
3.64574e-05
1.06519e-05
1.38412e-05
0.000118069
0.000399299
0.000397378
0.000114684
1.61811e-05
2.03224e-05
0.000172141
0.000507172
0.000515907
0.000199218
1.68366e-05
1.12249e-05
4.12979e-05
0.000156457
0.000518141
0.000152251
1.60695e-05
2.03309e-05
0.000161231
0.000557517
0.000773345
0.000272246
2.77926e-05
2.31275e-05
0.000289905
0.000742516
0.00026191
6.87574e-05
1.50663e-05
2.6833e-05
0.000280649
0.0008045
0.000804871
0.000300622
2.50376e-05
1.71094e-05
7.76885e-05
0.000318225
0.0011191
0.0003723
3.73368e-05
3.68056e-05
0.000429121
0.00121593
0.000553337
0.000152831
2.33863e-05
3.72149e-05
0.00049744
0.00144995
0.000957538
0.000317459
2.47798e-05
4.60032e-05
0.000559868
0.00112956
0.000968892
0.000468373
3.78199e-05
3.83131e-05
0.000446492
0.00106275
0.00136338
0.000492857
4.39794e-05
6.07879e-05
0.000920394
0.00227302
0.000506545
0.000157511
3.45655e-05
3.53866e-05
0.000441721
0.00101224
0.000313063
0.00011188
2.46877e-05
2.68259e-05
0.000273237
0.000656553
0.00056083
0.000200873
2.69613e-05
1.46119e-05
5.11888e-05
0.000160696
0.000378704
0.000205133
1.77107e-05
1.67759e-05
6.65376e-05
0.000172491
0.000418639
0.000183028
1.91955e-05
2.04946e-05
0.00014996
0.000379848
0.000123505
4.63308e-05
1.35169e-05
1.60855e-05
0.000145294
0.000327248
0.000300126
0.000121532
1.80583e-05
1.25836e-05
3.94666e-05
0.000100221
0.00027722
0.000123413
1.45926e-05
1.6813e-05
0.00010731
0.000254772
8.83149e-05
3.69343e-05
1.22233e-05
1.37689e-05
0.000109957
0.000245432
0.000222408
9.69878e-05
1.6168e-05
1.20044e-05
3.42021e-05
7.92173e-05
0.000216229
9.88884e-05
1.30328e-05
1.56124e-05
8.72268e-05
0.000197002
7.15438e-05
3.22319e-05
1.18368e-05
1.26729e-05
9.21792e-05
0.000195664
0.000176378
8.08408e-05
1.51152e-05
1.1601e-05
3.02969e-05
6.60266e-05
0.000178453
8.52573e-05
1.21396e-05
1.48445e-05
7.58286e-05
0.000163245
6.41128e-05
3.01874e-05
1.16418e-05
1.21668e-05
8.62067e-05
0.000172101
0.000146491
6.93942e-05
1.52869e-05
1.27253e-05
5.47356e-05
0.000119379
4.73405e-05
2.1446e-05
1.03087e-05
1.01035e-05
5.80554e-05
0.000118377
0.000112937
5.43785e-05
1.30772e-05
1.06848e-05
2.23277e-05
4.59527e-05
0.000109848
5.60285e-05
1.01255e-05
1.28441e-05
5.08989e-05
0.000100993
4.24728e-05
2.10039e-05
1.02689e-05
9.61759e-06
5.14674e-05
9.67523e-05
9.30796e-05
4.94957e-05
1.25079e-05
1.04583e-05
2.08858e-05
4.08111e-05
9.33991e-05
5.04963e-05
9.82042e-06
1.25494e-05
4.71661e-05
8.72887e-05
3.84432e-05
1.98832e-05
1.01497e-05
9.39421e-06
4.63498e-05
8.44285e-05
8.0512e-05
4.43236e-05
1.22549e-05
1.00881e-05
1.93818e-05
3.64502e-05
7.93431e-05
4.44662e-05
9.1678e-06
1.20655e-05
4.17256e-05
7.60077e-05
3.56565e-05
1.96775e-05
1.0002e-05
9.01947e-06
4.18045e-05
7.3558e-05
7.09267e-05
3.8901e-05
1.18588e-05
9.75676e-06
1.79683e-05
3.17738e-05
6.34514e-05
4.51889e-05
8.57995e-06
1.10662e-05
2.21323e-05
3.69154e-05
8.29231e-05
4.81009e-05
1.00077e-05
1.26703e-05
4.40322e-05
7.63531e-05
3.67525e-05
2.11104e-05
1.03213e-05
9.38528e-06
4.54807e-05
7.59392e-05
7.2242e-05
4.22181e-05
1.2354e-05
1.03036e-05
2.12801e-05
3.60498e-05
7.57106e-05
4.56162e-05
9.4037e-06
1.23074e-05
4.24521e-05
7.16864e-05
3.55295e-05
2.14756e-05
1.02635e-05
9.33653e-06
4.30906e-05
6.89881e-05
6.54461e-05
3.90974e-05
1.23923e-05
1.02916e-05
2.09254e-05
3.31121e-05
6.34748e-05
4.01202e-05
9.0692e-06
1.19101e-05
3.63192e-05
6.00968e-05
2.93317e-05
1.91465e-05
9.72055e-06
8.38098e-06
3.95003e-05
5.27007e-05
3.20207e-05
2.17269e-05
1.1009e-05
9.77226e-06
3.9729e-05
6.31042e-05
5.77536e-05
3.60314e-05
1.24635e-05
1.01546e-05
2.11687e-05
3.07844e-05
5.71646e-05
3.72815e-05
9.00559e-06
1.19149e-05
3.43364e-05
5.19022e-05
2.77448e-05
1.98335e-05
9.87206e-06
8.42006e-06
3.68075e-05
4.75397e-05
3.0176e-05
2.1696e-05
1.1124e-05
9.70478e-06
3.81467e-05
5.81296e-05
5.26885e-05
3.4566e-05
1.23255e-05
1.01064e-05
2.14318e-05
2.94053e-05
5.43335e-05
3.61715e-05
8.97677e-06
1.19004e-05
3.28283e-05
4.92717e-05
2.67581e-05
1.99183e-05
9.80497e-06
8.40907e-06
3.45084e-05
4.38933e-05
2.83564e-05
2.13308e-05
1.11371e-05
9.57534e-06
3.53843e-05
5.3612e-05
4.8198e-05
3.23626e-05
1.22394e-05
1.00631e-05
2.1283e-05
2.72872e-05
4.8751e-05
3.32045e-05
8.94315e-06
1.18966e-05
3.05384e-05
4.43028e-05
2.51525e-05
1.98822e-05
9.98418e-06
8.42933e-06
3.21082e-05
3.90118e-05
2.60139e-05
2.12277e-05
1.11055e-05
9.34695e-06
3.14034e-05
4.73635e-05
4.23216e-05
2.858e-05
1.19606e-05
9.69358e-06
2.00132e-05
2.43266e-05
3.83501e-05
3.17233e-05
8.16923e-06
1.09823e-05
2.13504e-05
2.59544e-05
4.72271e-05
3.14623e-05
9.2867e-06
1.21735e-05
2.90587e-05
4.23053e-05
2.46996e-05
2.07388e-05
9.996e-06
8.39773e-06
3.10679e-05
3.78219e-05
2.5914e-05
2.18821e-05
1.10136e-05
9.17318e-06
3.12162e-05
4.63026e-05
4.13913e-05
2.86936e-05
1.20015e-05
9.89399e-06
2.07441e-05
2.43957e-05
3.73695e-05
3.16223e-05
8.21208e-06
1.10526e-05
2.21107e-05
2.57129e-05
4.55618e-05
3.05389e-05
9.31643e-06
1.21435e-05
2.82681e-05
4.09006e-05
2.42888e-05
2.11236e-05
9.94918e-06
8.34172e-06
3.13378e-05
3.68274e-05
2.56426e-05
2.22952e-05
1.10843e-05
9.32314e-06
3.06409e-05
4.49672e-05
4.02113e-05
2.83627e-05
1.21001e-05
1.00761e-05
2.1089e-05
2.41092e-05
3.49914e-05
3.12359e-05
8.31297e-06
1.09262e-05
2.30128e-05
2.53791e-05
3.86368e-05
2.97243e-05
8.7651e-06
1.1363e-05
2.3098e-05
2.67297e-05
4.55612e-05
3.02851e-05
9.52528e-06
1.21075e-05
2.83304e-05
4.06773e-05
2.46958e-05
2.18613e-05
9.87136e-06
8.2267e-06
3.14574e-05
3.65027e-05
2.57491e-05
2.32308e-05
1.11538e-05
9.35957e-06
3.01004e-05
4.40668e-05
3.95702e-05
2.81755e-05
1.22063e-05
1.01248e-05
2.17543e-05
2.42288e-05
3.46658e-05
3.09702e-05
8.44105e-06
1.11036e-05
2.35667e-05
2.5535e-05
3.80024e-05
2.98371e-05
8.96615e-06
1.13294e-05
2.36223e-05
2.66562e-05
4.48266e-05
2.97806e-05
9.38119e-06
1.21392e-05
2.80718e-05
3.99121e-05
2.46279e-05
2.25852e-05
9.95323e-06
8.25688e-06
3.15338e-05
3.58671e-05
2.65216e-05
2.44647e-05
1.11705e-05
8.97204e-06
3.04565e-05
3.91116e-05
2.7711e-05
2.49405e-05
1.14712e-05
9.56749e-06
3.07293e-05
4.58555e-05
4.09534e-05
2.89088e-05
1.23918e-05
1.01256e-05
2.31321e-05
2.5389e-05
3.60409e-05
3.23134e-05
8.37329e-06
1.11464e-05
2.49324e-05
2.68914e-05
3.9184e-05
3.11408e-05
8.9586e-06
1.14783e-05
2.53949e-05
2.79772e-05
4.59214e-05
3.09363e-05
9.56993e-06
1.23144e-05
2.92246e-05
4.09904e-05
2.57454e-05
2.39317e-05
1.01113e-05
8.45599e-06
3.26263e-05
3.68606e-05
2.76305e-05
2.57239e-05
1.13528e-05
9.19751e-06
3.15287e-05
3.99519e-05
2.87148e-05
2.60696e-05
1.15369e-05
9.54313e-06
3.14202e-05
4.62822e-05
4.1408e-05
2.95666e-05
1.2232e-05
1.00337e-05
2.37398e-05
2.57213e-05
3.64807e-05
3.2459e-05
8.43738e-06
1.13471e-05
2.52932e-05
2.72166e-05
3.87931e-05
3.06862e-05
9.15913e-06
1.16092e-05
2.58117e-05
2.80646e-05
4.46134e-05
3.07715e-05
9.61572e-06
1.23942e-05
2.91776e-05
4.01696e-05
2.55677e-05
2.40699e-05
1.0185e-05
8.46923e-06
3.24235e-05
3.61615e-05
2.73016e-05
2.55356e-05
1.12814e-05
8.95412e-06
3.04157e-05
3.8469e-05
2.86438e-05
2.61669e-05
1.1406e-05
9.06593e-06
3.13208e-05
4.00702e-05
2.9467e-05
2.76766e-05
1.15671e-05
9.64932e-06
3.19502e-05
4.61524e-05
4.11946e-05
3.04218e-05
1.23854e-05
1.02274e-05
2.51234e-05
2.65986e-05
3.65972e-05
3.35287e-05
8.55782e-06
1.1367e-05
2.63539e-05
2.79122e-05
3.88367e-05
3.12197e-05
9.14537e-06
1.15356e-05
2.66822e-05
2.92066e-05
4.0277e-05
3.16759e-05
9.15407e-06
1.1617e-05
2.82535e-05
2.98973e-05
4.59984e-05
3.21982e-05
9.64037e-06
1.23647e-05
3.05793e-05
4.1271e-05
2.6908e-05
2.56628e-05
1.02072e-05
8.47384e-06
3.40458e-05
3.74302e-05
2.86931e-05
2.70755e-05
1.14748e-05
9.22777e-06
3.14729e-05
3.97753e-05
3.00133e-05
2.76932e-05
1.16634e-05
9.29964e-06
3.26726e-05
4.11549e-05
3.07878e-05
2.92576e-05
1.17667e-05
9.8039e-06
3.31379e-05
4.69477e-05
4.2153e-05
3.15186e-05
1.25029e-05
1.02054e-05
2.62991e-05
2.77338e-05
3.77114e-05
3.46474e-05
8.52478e-06
1.15341e-05
2.75663e-05
2.924e-05
3.98351e-05
3.18329e-05
9.1948e-06
1.16625e-05
2.7825e-05
3.02333e-05
4.08772e-05
3.25951e-05
9.2569e-06
1.18254e-05
2.93489e-05
3.08448e-05
4.62611e-05
3.27574e-05
9.7841e-06
1.261e-05
3.15841e-05
4.1879e-05
2.82028e-05
2.69744e-05
1.05126e-05
8.84009e-06
3.45936e-05
3.75158e-05
2.95117e-05
2.82824e-05
1.16293e-05
9.19002e-06
3.25987e-05
3.98448e-05
3.0552e-05
2.83659e-05
1.16124e-05
9.16567e-06
3.24138e-05
4.09667e-05
3.15036e-05
2.92749e-05
1.16666e-05
9.3511e-06
3.41858e-05
4.20899e-05
3.19957e-05
3.09014e-05
1.17906e-05
9.79815e-06
3.4204e-05
4.73546e-05
4.29475e-05
3.26462e-05
1.2523e-05
1.02791e-05
2.72214e-05
2.88766e-05
3.80408e-05
3.52726e-05
8.58153e-06
1.17086e-05
2.85351e-05
3.02085e-05
4.01588e-05
3.23836e-05
9.39715e-06
1.18481e-05
2.90476e-05
3.12823e-05
4.10778e-05
3.30388e-05
9.29745e-06
1.17373e-05
2.98951e-05
3.18575e-05
4.24488e-05
3.43545e-05
9.39008e-06
1.18845e-05
3.15661e-05
3.25689e-05
4.82187e-05
3.50508e-05
9.87552e-06
1.26929e-05
3.36386e-05
4.37203e-05
3.00035e-05
2.88278e-05
1.04681e-05
8.66599e-06
3.70363e-05
3.95491e-05
3.14604e-05
3.00817e-05
1.16557e-05
9.24259e-06
3.41524e-05
4.19837e-05
3.26492e-05
3.03252e-05
1.18268e-05
9.39985e-06
3.46145e-05
4.29357e-05
3.33436e-05
3.12641e-05
1.18037e-05
9.40108e-06
3.60317e-05
4.41326e-05
3.40052e-05
3.28651e-05
1.19416e-05
1.00018e-05
3.62451e-05
4.94303e-05
4.50165e-05
3.46913e-05
1.27126e-05
1.04679e-05
2.94672e-05
3.10367e-05
3.99336e-05
3.73113e-05
8.80652e-06
1.18409e-05
3.06977e-05
3.23859e-05
4.20567e-05
3.45164e-05
9.4952e-06
1.20426e-05
3.08718e-05
3.34143e-05
4.28517e-05
3.46069e-05
9.51387e-06
1.19787e-05
3.17541e-05
3.3801e-05
4.40525e-05
3.59826e-05
9.59888e-06
1.20858e-05
3.36242e-05
3.43605e-05
4.94848e-05
3.68779e-05
1.00211e-05
1.28929e-05
3.55538e-05
4.53788e-05
3.18487e-05
3.06261e-05
1.06108e-05
8.84776e-06
3.86668e-05
4.0931e-05
3.33094e-05
3.18098e-05
1.1871e-05
9.47831e-06
3.55977e-05
4.31452e-05
3.44818e-05
3.20697e-05
1.20771e-05
9.56837e-06
3.59012e-05
4.42921e-05
3.51738e-05
3.28921e-05
1.19842e-05
9.59757e-06
3.73658e-05
4.53294e-05
3.55581e-05
3.45218e-05
1.2082e-05
1.00438e-05
3.76137e-05
5.04674e-05
4.61791e-05
3.62457e-05
1.2943e-05
1.06333e-05
3.10359e-05
3.25258e-05
4.07842e-05
3.88652e-05
8.87843e-06
1.19992e-05
3.21876e-05
3.37648e-05
4.24233e-05
3.52141e-05
9.56979e-06
1.2188e-05
3.24564e-05
3.46516e-05
4.3403e-05
3.57842e-05
9.64507e-06
1.20565e-05
3.32208e-05
3.5171e-05
4.45101e-05
3.67735e-05
9.59014e-06
1.2016e-05
3.42441e-05
3.60711e-05
4.61843e-05
3.86707e-05
9.60282e-06
1.21506e-05
3.61261e-05
3.66939e-05
5.19649e-05
3.91281e-05
1.01175e-05
1.3139e-05
3.78828e-05
4.78434e-05
3.43844e-05
3.32945e-05
1.08984e-05
9.06443e-06
4.11979e-05
4.32476e-05
3.58648e-05
3.46392e-05
1.2088e-05
9.63427e-06
3.8327e-05
4.54768e-05
3.69286e-05
3.47078e-05
1.21832e-05
9.65553e-06
3.85719e-05
4.67987e-05
3.78908e-05
3.57264e-05
1.21079e-05
9.68305e-06
4.04658e-05
4.84992e-05
3.8712e-05
3.75921e-05
1.22561e-05
1.02525e-05
4.06714e-05
5.37725e-05
4.93009e-05
3.92834e-05
1.32656e-05
1.09368e-05
3.43501e-05
3.5597e-05
4.42514e-05
4.24579e-05
9.10932e-06
1.21945e-05
3.55843e-05
3.71639e-05
4.58697e-05
3.91433e-05
9.76687e-06
1.23293e-05
3.54528e-05
3.78711e-05
4.65216e-05
3.88736e-05
9.84421e-06
1.22464e-05
3.62962e-05
3.83531e-05
4.7715e-05
4.02183e-05
9.77758e-06
1.23968e-05
3.80783e-05
3.87589e-05
5.30695e-05
4.06229e-05
1.03221e-05
1.35332e-05
3.97068e-05
4.90336e-05
3.63457e-05
3.55339e-05
1.11753e-05
9.22721e-06
4.31211e-05
4.46072e-05
3.78545e-05
3.68757e-05
1.23279e-05
9.83916e-06
4.03004e-05
4.66954e-05
3.88752e-05
3.68464e-05
1.23801e-05
9.79591e-06
4.0184e-05
4.77835e-05
3.96068e-05
3.77984e-05
1.23268e-05
9.90348e-06
4.16998e-05
4.94394e-05
4.04792e-05
3.99021e-05
1.26005e-05
1.04816e-05
4.23942e-05
5.48328e-05
5.04869e-05
4.13161e-05
1.36225e-05
1.12219e-05
3.68778e-05
3.77102e-05
4.59873e-05
4.49002e-05
9.29104e-06
1.23678e-05
3.78629e-05
3.92267e-05
4.7509e-05
4.11164e-05
9.89479e-06
1.25788e-05
3.791e-05
4.00251e-05
4.82556e-05
4.1116e-05
9.95691e-06
1.25901e-05
3.89814e-05
4.0644e-05
4.95579e-05
4.23757e-05
1.00183e-05
1.2866e-05
4.10873e-05
4.11717e-05
5.5047e-05
4.30951e-05
1.07757e-05
1.40576e-05
4.23914e-05
5.10864e-05
3.91247e-05
3.88775e-05
1.1566e-05
9.62617e-06
4.62183e-05
4.73417e-05
4.07491e-05
4.00295e-05
1.26129e-05
1.00579e-05
4.3771e-05
4.96375e-05
4.19528e-05
4.02656e-05
1.28043e-05
1.00672e-05
4.37726e-05
5.10842e-05
4.2479e-05
4.18705e-05
1.30072e-05
1.09211e-05
4.37332e-05
5.59675e-05
5.17123e-05
4.2965e-05
1.43231e-05
1.16821e-05
3.91342e-05
3.96573e-05
4.69756e-05
4.62766e-05
9.68006e-06
1.28198e-05
4.02509e-05
4.10226e-05
4.87439e-05
4.33726e-05
1.02604e-05
1.31205e-05
4.057e-05
4.20584e-05
5.00491e-05
4.31673e-05
1.03509e-05
1.33597e-05
4.26329e-05
4.25371e-05
5.4893e-05
4.38322e-05
1.10454e-05
1.45475e-05
4.34359e-05
5.11835e-05
4.04039e-05
4.04607e-05
1.19297e-05
9.82782e-06
4.72461e-05
4.76442e-05
4.19223e-05
4.17133e-05
1.30202e-05
1.02505e-05
4.41779e-05
4.98462e-05
4.30653e-05
4.201e-05
1.32374e-05
1.04945e-05
4.44824e-05
5.1272e-05
4.37785e-05
4.38454e-05
1.35019e-05
1.11888e-05
4.5001e-05
5.59642e-05
5.21358e-05
4.46578e-05
1.48502e-05
1.20098e-05
4.12423e-05
4.15583e-05
4.78609e-05
4.79751e-05
9.85363e-06
1.32384e-05
4.24854e-05
4.26312e-05
4.97444e-05
4.47703e-05
1.05396e-05
1.3562e-05
4.29853e-05
4.3856e-05
5.14196e-05
4.48478e-05
1.0713e-05
1.39298e-05
4.54113e-05
4.46076e-05
5.65465e-05
4.60409e-05
1.15775e-05
1.52104e-05
4.58088e-05
5.29534e-05
4.28784e-05
4.34457e-05
1.23216e-05
1.01157e-05
4.98536e-05
4.97442e-05
4.44458e-05
4.4908e-05
1.36079e-05
1.08188e-05
4.71964e-05
5.2328e-05
4.60604e-05
4.55143e-05
1.40015e-05
1.11496e-05
4.72695e-05
5.42801e-05
4.71728e-05
4.80017e-05
1.44595e-05
1.20015e-05
4.85789e-05
5.93776e-05
5.56454e-05
4.84802e-05
1.58424e-05
1.28638e-05
4.5755e-05
4.55364e-05
5.19121e-05
5.23374e-05
1.05168e-05
1.39918e-05
4.71021e-05
4.67833e-05
5.43384e-05
4.90723e-05
1.11581e-05
1.47442e-05
4.87905e-05
4.79345e-05
5.93526e-05
4.88906e-05
1.22726e-05
1.61326e-05
4.85329e-05
5.58528e-05
4.59517e-05
4.68515e-05
1.32136e-05
1.07064e-05
5.28183e-05
5.24301e-05
4.75814e-05
4.84144e-05
1.43537e-05
1.14433e-05
5.01608e-05
5.52075e-05
4.93559e-05
4.93599e-05
1.49007e-05
1.18709e-05
5.0551e-05
5.77221e-05
5.0999e-05
5.25088e-05
1.54929e-05
1.28794e-05
5.27555e-05
6.34545e-05
5.95684e-05
5.28856e-05
1.70175e-05
1.38881e-05
5.09684e-05
4.99671e-05
5.64307e-05
5.73414e-05
1.12503e-05
1.50831e-05
5.23997e-05
5.17104e-05
5.95153e-05
5.39841e-05
1.20673e-05
1.58603e-05
5.43065e-05
5.28799e-05
6.5057e-05
5.39813e-05
1.29595e-05
1.73313e-05
5.41806e-05
6.15085e-05
5.19859e-05
5.33718e-05
1.46018e-05
1.19875e-05
5.87328e-05
5.84022e-05
5.37375e-05
5.52527e-05
1.59498e-05
1.27811e-05
5.63544e-05
6.20213e-05
5.55005e-05
5.75348e-05
1.67969e-05
1.40048e-05
5.68216e-05
6.79519e-05
6.42146e-05
5.71632e-05
1.85227e-05
1.51448e-05
5.60298e-05
5.46577e-05
6.13758e-05
6.17611e-05
1.22691e-05
1.67146e-05
5.88467e-05
5.63275e-05
6.77426e-05
5.77053e-05
1.39383e-05
1.86276e-05
5.77193e-05
6.45165e-05
5.49614e-05
5.57635e-05
1.51697e-05
1.21136e-05
6.24259e-05
6.1209e-05
5.66082e-05
5.76418e-05
1.65185e-05
1.3235e-05
5.82243e-05
6.39527e-05
5.78712e-05
5.99462e-05
1.75801e-05
1.46391e-05
5.85821e-05
6.94147e-05
6.60815e-05
5.94212e-05
1.9473e-05
1.59552e-05
5.89276e-05
5.73971e-05
6.32758e-05
6.37091e-05
1.30969e-05
1.77502e-05
6.22119e-05
5.89213e-05
6.94433e-05
6.02291e-05
1.48798e-05
1.98836e-05
6.04806e-05
6.64432e-05
5.83749e-05
6.01559e-05
1.64072e-05
1.32604e-05
6.49022e-05
6.39933e-05
5.95494e-05
6.2991e-05
1.78863e-05
1.46126e-05
6.05571e-05
6.99794e-05
6.7076e-05
6.11649e-05
1.99608e-05
1.66982e-05
6.06078e-05
5.89637e-05
6.4419e-05
6.47897e-05
1.36713e-05
1.86351e-05
6.4327e-05
6.06175e-05
7.02156e-05
6.15822e-05
1.54564e-05
2.08359e-05
6.21427e-05
6.73955e-05
6.0185e-05
6.24897e-05
1.71302e-05
1.38715e-05
6.63219e-05
6.52318e-05
6.15974e-05
6.56669e-05
1.87995e-05
1.55278e-05
6.25892e-05
7.13423e-05
6.85568e-05
6.30767e-05
2.09245e-05
1.72101e-05
6.32759e-05
6.12038e-05
6.64225e-05
6.85172e-05
1.34477e-05
1.88477e-05
6.67832e-05
6.27645e-05
7.22356e-05
6.31509e-05
1.59045e-05
2.17111e-05
6.39241e-05
6.9488e-05
6.29266e-05
6.6308e-05
1.81636e-05
1.48179e-05
6.87712e-05
6.79324e-05
6.49992e-05
7.04641e-05
2.01473e-05
1.67642e-05
6.67238e-05
7.50689e-05
7.22803e-05
6.75411e-05
2.24761e-05
1.85476e-05
6.91374e-05
6.58038e-05
7.09239e-05
7.20506e-05
1.50122e-05
2.04556e-05
7.33768e-05
6.7662e-05
7.84818e-05
6.982e-05
1.68534e-05
2.24481e-05
6.97499e-05
7.56655e-05
6.87496e-05
7.47205e-05
1.96177e-05
1.69236e-05
7.43247e-05
7.76621e-05
7.52588e-05
7.4156e-05
2.35369e-05
1.99856e-05
7.4082e-05
7.01273e-05
7.58415e-05
7.63893e-05
1.63736e-05