/*--------------------------------*- C++ -*----------------------------------*\
| =========                 |                                                 |
| \\      /  F ield         | OpenFOAM: The Open Source CFD Toolbox           |
|  \\    /   O peration     | Version:  v2006                                 |
|   \\  /    A nd           | Website:  www.openfoam.com                      |
|    \\/     M anipulation  |                                                 |
\*---------------------------------------------------------------------------*/
FoamFile
{
    version     2.0;
    format      ascii;
    class       volScalarField;
    location    "0.037";
    object      yPlus;
}
// * * * * * * * * * * * * * * * * * * * * * * * * * * * * * * * * * * * * * //

dimensions      [0 0 0 0 0 0 0];


internalField   uniform 0;

boundaryField
{
    bottomEmptyFaces
    {
        type            empty;
    }
    topEmptyFaces
    {
        type            empty;
    }
    inlet
    {
        type            calculated;
        value           uniform 0;
    }
    outlet
    {
        type            calculated;
        value           uniform 0;
    }
    walls
    {
        type            calculated;
        value           nonuniform List<scalar> 
1055
(
30.3808
29.6365
28.9567
28.3378
27.7812
27.2761
26.822
26.4108
26.0446
25.7184
25.4318
25.1776
24.9565
24.7633
24.5991
24.4571
24.3373
24.2337
24.1478
24.0747
24.016
23.9672
23.9298
23.8993
23.8771
23.8599
23.8489
23.8404
23.8354
23.8313
23.8309
23.83
23.8315
23.8341
23.8373
23.8419
23.8464
23.8515
23.8551
23.8592
23.8612
23.864
23.8636
23.8645
23.862
23.8613
23.8566
23.8544
23.8484
23.8453
23.8384
23.8343
23.827
23.8222
23.8147
23.8091
23.8014
23.7954
23.7874
23.781
23.773
23.7666
23.7582
23.7516
23.7433
23.7367
23.7284
23.7218
23.7135
23.7071
23.6989
23.6926
23.6845
23.6786
23.6708
23.6652
23.6578
23.6528
23.646
23.6416
23.6353
23.6316
23.6258
23.6228
23.6177
23.6155
23.611
23.6095
23.6058
23.605
23.6022
23.6019
23.6002
23.6005
23.5998
23.6006
23.601
23.6023
23.6038
23.6055
23.6078
23.6102
23.613
23.6163
23.6195
23.6236
23.6273
23.6321
23.6363
23.6416
23.6463
23.652
23.6571
23.6634
23.6689
23.6755
23.6813
23.6884
23.6945
23.7019
23.7083
23.716
23.7227
23.7305
23.7374
23.7456
23.7527
23.761
23.7683
23.7768
23.7843
23.7929
23.8006
23.8094
23.8172
23.8261
23.834
23.8429
23.851
23.86
23.8681
23.8771
23.8852
23.8943
23.9025
23.9116
23.9197
23.9288
23.9369
23.9459
23.9541
23.9629
23.9712
23.9801
23.9882
23.9971
24.0052
24.0141
24.0222
24.031
24.0391
24.048
24.056
24.0649
24.0729
24.0818
24.0898
24.0988
24.1068
24.1158
24.1237
24.1328
24.1407
24.1497
24.1576
24.1665
24.1742
24.1831
24.1905
24.1993
24.2064
24.2233
24.2223
24.2229
24.2373
24.2466
24.2521
24.2782
24.2872
24.3149
24.2744
24.2144
23.9977
24.1567
24.5662
8.46497
7.26204
6.59933
11.4183
10.5654
9.66897
7.98644
18.2619
13.3595
11.5842
11.4903
12.7434
9.35061
7.95988
12.5014
11.3838
13.6562
13.6319
10.745
9.21549
9.75786
9.65347
8.54979
7.37467
10.1356
9.90841
8.83333
7.47649
9.13775
7.61427
8.61387
7.39237
9.62104
10.0641
8.55745
7.42678
8.37355
7.29429
8.32046
7.1973
6.46278
10.4469
10.935
9.72877
10.6111
9.4958
10.4249
9.23099
9.95554
9.26139
10.146
10.1276
10.5466
9.32194
10.2154
11.5555
8.38061
8.8454
9.01797
9.73679
10.3273
10.7723
11.875
8.58433
9.07212
9.58071
10.3809
8.37594
9.02183
10.0107
7.29693
7.6313
8.80133
9.0716
10.1706
7.39357
7.77293
8.03332
8.50396
9.16568
9.53705
8.143
8.70578
8.42257
9.13009
8.67021
9.40547
8.35611
8.91846
10.7594
9.39415
9.7711
7.73461
8.18632
10.5531
7.64555
8.08474
10.4402
9.10388
9.40332
8.29387
9.0216
7.98319
8.55461
7.56468
7.89103
9.8836
10.29
11.387
8.26473
8.73216
8.85781
9.75211
11.0311
7.92489
8.39531
8.70281
9.30174
9.12672
9.94428
9.64321
10.1024
8.97769
9.74422
8.64878
9.52272
8.50624
9.19503
9.46043
9.82929
10.8799
8.01815
8.28469
8.66642
9.41521
9.13978
9.9956
8.83457
9.58669
8.67129
9.12759
7.8867
7.69437
7.32101
7.04822
9.57087
7.43053
7.8557
8.34673
8.52659
9.46542
7.01702
7.20363
8.38227
8.58883
9.72386
7.09283
7.42349
7.59694
8.03679
8.16102
8.26066
7.02641
7.25443
7.96821
7.98282
7.83106
7.80989
9.18086
6.87461
7.0262
9.19656
7.86235
7.93061
6.81857
7.01557
9.08222
7.33301
7.03586
8.96962
7.76601
7.73858
8.66085
6.69505
6.70613
7.83675
7.74767
6.66525
6.71174
6.67906
6.80944
9.24901
7.97776
8.04722
9.2867
6.91259
7.11144
6.86957
7.07434
9.02348
8.77201
7.38667
6.97145
8.31332
6.94171
6.50883
8.33221
7.18548
6.56823
8.45032
7.07188
6.51965
8.37967
7.0105
6.45961
8.05362
6.38916
6.25487
8.23942
6.80606
6.44182
7.80305
7.38148
8.37901
7.74594
7.50397
6.46524
6.44218
8.77166
8.69454
7.28415
6.8925
7.39419
6.91991
7.11061
6.83429
8.98674
7.20198
6.93143
8.55123
6.62205
6.67378
8.73073
8.95209
10.0696
7.38103
7.69307
9.90613
7.21124
7.50621
8.58615
8.83017
7.78358
8.2852
7.86107
8.33953
8.71613
9.04003
8.05509
8.57795
13.2279
11.3569
8.65269
11.2584
8.33645
11.6904
9.72455
7.02495
10.6575
10.3552
7.15163
12.2626
9.99533
26.1758
24.6488
8.23547
8.79574
6.11086
25.2885
21.2269
21.2371
20.3819
10.38
20.1382
8.86986
25.4079
7.73276
20.6517
8.9224
6.10306
20.0882
21.4429
20.9057
10.7132
9.57769
8.43226
7.42125
8.28036
5.95333
28.0619
26.4952
21.8371
21.3817
22.103
21.5503
25.0664
22.0391
20.9423
27.1534
23.2836
22.3696
10.0237
9.01306
8.45421
7.96914
7.32522
8.52979
6.07941
10.4883
9.66826
9.1206
8.61352
8.20836
7.668
6.95993
7.82666
5.72142
9.68978
8.92799
8.47559
8.11417
7.81656
7.5235
7.26768
7.04737
6.9257
6.77956
6.41217
7.78162
5.37027
9.8351
9.28736
8.9716
8.79962
8.60159
13.9704
8.38401
8.21166
8.07251
7.9184
7.82139
10.9679
12.0114
7.67709
12.0591
12.5039
10.3975
11.2152
13.4645
11.6634
12.1877
9.69869
10.2835
10.6853
11.7221
7.58421
7.54491
7.42662
7.30499
7.21186
7.128
7.05448
6.99577
14.7098
10.5247
11.1936
12.6084
13.165
11.5786
12.6947
6.9479
6.91154
6.88067
6.85874
6.83527
6.81629
6.80477
6.79478
13.5679
14.1787
12.3977
13.4777
6.78972
6.77986
6.77685
6.77431
6.76791
6.76146
6.7604
6.75945
13.8272
14.2716
13.2474
14.3581
12.538
13.5157
16.1037
11.6434
12.3584
6.75361
15.7941
6.74735
6.74555
11.3601
12.0337
6.74058
6.73773
12.291
13.1651
6.72763
6.72404
6.71814
15.2173
11.8569
12.9429
13.0834
13.6172
11.8136
12.7673
10.9834
11.6115
11.3835
12.2421
11.3203
12.3413
12.1852
12.6645
11.0824
12.1987
14.1097
10.1686
10.7691
10.8979
11.7323
14.4424
11.1532
12.0865
10.4395
10.99
12.3981
12.9398
10.7957
11.6613
10.1595
10.7022
19.2164
14.3644
14.9382
6.71396
6.70376
6.69866
6.69437
20.7146
6.68411
6.6747
6.66844
19.9956
6.6633
14.5136
15.4539
17.3429
17.3983
19.8353
16.8603
17.2308
14.6092
15.3526
16.7177
16.9888
6.65267
6.64277
6.63658
6.63143
6.62068
6.61093
6.60477
6.59932
6.58863
6.57889
6.57226
6.56662
6.55593
6.54617
6.54016
15.4325
6.53511
15.7225
16.2539
16.7826
14.4225
15.4044
18.2111
13.1208
13.9298
6.525
6.51542
6.50971
6.50465
6.49466
6.48497
6.47979
6.47217
17.4685
13.9948
14.9614
12.9027
13.6399
13.3546
14.2878
17.1264
14.6611
15.224
12.2523
13.0321
14.8175
15.4507
18.3931
15.7139
16.2066
13.2997
14.0603
19.2381
19.0432
13.9646
14.629
16.2813
16.4875
16.1432
16.6128
6.46692
14.1294
6.45546
14.8943
6.45038
6.4431
6.43819
6.42691
6.42211
6.41511
21.4023
6.41041
6.39941
15.8952
16.6164
6.39488
6.38833
6.38369
6.37338
6.36867
22.1764
6.36494
21.9178
18.113
17.883
18.7014
18.8887
19.8435
19.9431
23.5447
6.35616
18.8468
6.35066
18.6917
6.34239
6.341
6.33303
22.7621
6.32751
6.32249
18.7457
18.4067
6.31511
22.9854
17.8948
18.4222
16.8259
17.3815
18.0911
18.3577
15.511
16.1545
6.31344
6.30763
6.31089
6.37402
6.41479
6.51014
6.77852
7.12601
29.3132
25.9858
30.2618
23.7721
22.1278
29.9063
27.1145
26.8691
23.347
22.3049
9.91661
10.755
33.32
32.1526
31.0439
32.8785
25.5212
23.4481
30.9315
26.8158
25.3807
22.8707
12.5361
30.6029
9.97718
10.911
10.8469
11.2662
29.1757
35.4986
27.4199
25.4104
10.2509
11.2107
10.0352
11.0002
35.787
12.804
11.1219
11.5909
9.27332
9.78267
36.4281
9.78744
10.5749
9.13035
9.57165
36.8375
36.7286
36.8016
36.4407
35.6924
13.1653
34.7974
10.7566
11.7112
10.4407
11.4846
10.2412
11.0613
9.52587
10.0204
10.4122
11.3887
11.3343
11.776
10.2263
11.1501
33.8781
32.9499
32.0442
31.1851
9.61496
10.5748
11.9874
8.65667
9.15707
9.35718
10.081
9.77531
10.7229
25.0487
7.58029
36.4669
33.1891
30.9978
29.5277
28.4182
27.3857
26.654
25.9437
25.547
25.0716
24.7881
24.4193
24.2057
23.9052
23.7372
23.4827
23.3446
23.1212
23.0032
22.8019
22.6983
22.5129
22.4195
22.2458
22.1596
21.9947
21.9138
21.7558
21.6789
21.5263
21.4524
21.304
21.2324
21.0874
21.0174
20.8752
20.8064
20.6665
20.5986
20.4604
20.3932
20.2563
20.1894
20.0534
19.9865
19.8509
19.7838
19.6482
19.5806
19.4446
19.3763
19.2395
19.1702
19.0322
18.9617
18.8222
18.7503
18.609
18.5355
18.392
18.3167
18.171
18.0938
17.9455
17.8664
17.7154
17.6345
17.4807
17.398
17.2415
17.1573
16.9981
16.9125
16.751
16.6646
16.5011
16.4144
16.2497
16.1635
15.9983
15.9138
15.7494
15.6678
15.5058
15.4289
15.2711
15.201
15.0497
14.989
14.8465
14.7989
14.6689
14.6359
14.5253
14.507
14.419
14.4166
14.3586
14.3689
14.344
14.3667
14.3593
14.4109
14.419
14.4979
14.5218
14.6235
14.6592
14.7764
14.8205
14.9482
14.9986
15.1338
15.1882
15.3276
15.3834
15.523
15.5785
15.7153
15.7687
15.8997
15.9496
16.0724
16.1178
16.2306
16.2708
16.3721
16.4062
16.4947
16.5225
16.5979
16.6192
16.6818
16.697
16.7478
16.7574
16.7975
16.8022
16.8332
16.8337
16.8559
16.8537
16.869
16.8646
16.8744
16.8682
16.8745
16.8655
16.8698
16.8566
16.8599
16.8441
16.8466
16.8288
16.8308
16.8113
16.8128
16.792
16.7931
16.7712
16.7721
16.7492
16.7499
16.7264
16.7269
16.7
16.7064
16.6736
16.6832
16.6378
16.7123
16.741
16.9432
17.2252
18.2699
20.9083
18.9376
39.9351
)
;
    }
    rightWall
    {
        type            calculated;
        value           uniform 0;
    }
    symmetryLine
    {
        type            symmetryPlane;
    }
}


// ************************************************************************* //
