/*--------------------------------*- C++ -*----------------------------------*\
| =========                 |                                                 |
| \\      /  F ield         | OpenFOAM: The Open Source CFD Toolbox           |
|  \\    /   O peration     | Version:  v2006                                 |
|   \\  /    A nd           | Website:  www.openfoam.com                      |
|    \\/     M anipulation  |                                                 |
\*---------------------------------------------------------------------------*/
FoamFile
{
    version     2.0;
    format      ascii;
    class       volScalarField;
    location    "0.01";
    object      turbulenceProperties:I;
}
// * * * * * * * * * * * * * * * * * * * * * * * * * * * * * * * * * * * * * //

dimensions      [0 0 0 0 0 0 0];


internalField   nonuniform List<scalar> 
9148
(
0.150001
0.150003
0.150001
0.150001
0.15
0.15
0.150011
0.150038
0.150069
0.150091
0.150104
0.150107
0.150106
0.150103
0.150098
0.150094
0.15009
0.150086
0.150081
0.150077
0.150073
0.150069
0.150065
0.150061
0.150057
0.150053
0.150049
0.150045
0.150041
0.150036
0.150032
0.150027
0.150021
0.150016
0.150011
0.150006
0.150001
0.149997
0.149993
0.149989
0.149986
0.149982
0.149978
0.149974
0.149971
0.149967
0.149963
0.14996
0.149956
0.149952
0.149948
0.149943
0.149938
0.149933
0.149928
0.149923
0.149922
0.149927
0.149943
0.14997
0.149995
0.150002
0.149994
0.149978
0.149977
0.149962
0.149954
0.149964
0.149983
0.149835
0.149176
0.144417
0.137218
0.144917
0.148405
0.145761
0.139511
0.131723
0.127285
0.134488
0.142883
0.139718
0.129934
0.123769
0.12115
0.126213
0.137038
0.134019
0.122637
0.118898
0.117407
0.120195
0.13194
0.129428
0.117489
0.115914
0.115095
0.11612
0.12788
0.125762
0.114051
0.114099
0.113662
0.113319
0.124667
0.122921
0.111759
0.112989
0.112784
0.111405
0.122156
0.120718
0.110226
0.112331
0.112274
0.110114
0.120211
0.119015
0.109226
0.111972
0.112006
0.109246
0.118696
0.117678
0.10858
0.111801
0.111895
0.108683
0.117489
0.116591
0.108148
0.111747
0.111874
0.108296
0.116467
0.115647
0.107826
0.111758
0.111903
0.108001
0.115558
0.114771
0.107558
0.111806
0.111964
0.107749
0.114701
0.113925
0.107317
0.111882
0.112052
0.107528
0.113874
0.113114
0.107115
0.111993
0.112182
0.107356
0.113093
0.112374
0.106983
0.112154
0.112369
0.107266
0.1124
0.111752
0.106955
0.112378
0.112625
0.107291
0.111843
0.111295
0.107061
0.112676
0.112958
0.107459
0.111464
0.111037
0.10732
0.113051
0.113371
0.107788
0.111291
0.11099
0.107742
0.113503
0.113862
0.108281
0.111334
0.111159
0.108323
0.114031
0.11443
0.108936
0.111593
0.111533
0.109057
0.114635
0.115076
0.109746
0.112055
0.112099
0.109939
0.115317
0.115804
0.11071
0.112712
0.112853
0.110971
0.116085
0.116627
0.111831
0.113565
0.113806
0.112166
0.116953
0.11756
0.113132
0.114631
0.114989
0.113552
0.117944
0.118632
0.114645
0.11595
0.11645
0.115173
0.119088
0.119878
0.116421
0.117575
0.118246
0.117082
0.120423
0.121341
0.118521
0.119571
0.120446
0.119346
0.121998
0.123076
0.121022
0.122013
0.123133
0.12205
0.123875
0.125164
0.124027
0.125
0.126424
0.125315
0.126157
0.127735
0.127688
0.128674
0.130475
0.129317
0.129003
0.130996
0.132232
0.133235
0.135544
0.134344
0.132685
0.135314
0.138048
0.139026
0.142078
0.140908
0.1377
0.14141
0.145842
0.146659
0.150904
0.149941
0.145064
0.150849
0.156966
0.157296
0.163701
0.163477
0.157196
0.167984
0.174718
0.173403
0.184426
0.186591
0.181743
0.212626
0.208999
0.201333
0.223485
0.236566
0.269315
1
0.260264
0.249447
0.251787
0.384822
0.176489
0.184528
0.551713
0.403689
1
0.366372
0.172886
0.157617
0.303339
0.91728
0.632182
0.272733
0.145459
0.118073
0.224494
0.566007
0.210978
0.114599
0.101585
0.124643
0.111607
0.123603
0.105815
0.107965
0.140651
0.161499
0.105418
0.108214
0.101353
0.099938
0.16156
0.152507
0.0973481
0.0979685
0.0919884
0.091773
0.145135
0.132209
0.084736
0.0870538
0.0813126
0.0788313
0.125959
0.122243
0.0759638
0.0789218
0.0747021
0.0736923
0.119896
0.121539
0.0742336
0.0740154
0.0716852
0.0738399
0.125923
0.129411
0.0738224
0.0707813
0.0691426
0.0722989
0.13155
0.132275
0.0710596
0.0680877
0.0664313
0.0689655
0.131693
0.130639
0.0670663
0.0652432
0.0643036
0.0652308
0.129177
0.127617
0.0636078
0.0635241
0.06334
0.0622114
0.12579
0.124141
0.0610381
0.0631293
0.0636496
0.0603244
0.122569
0.120957
0.0596704
0.0640429
0.0653009
0.0602076
0.119373
0.118065
0.0601413
0.0662758
0.0683306
0.0614401
0.117021
0.116194
0.0615053
0.0699392
0.0729379
0.0632502
0.115635
0.115219
0.0632831
0.0755383
0.079886
0.0656395
0.115137
0.115131
0.0663332
0.08372
0.0897185
0.0697386
0.115485
0.115813
0.0711133
0.0948331
0.103023
0.075839
0.116596
0.117129
0.0779852
0.10987
0.121121
0.084483
0.118406
0.118862
0.0878405
0.130362
0.146999
0.0975899
0.120549
0.121254
0.104006
0.161584
0.188915
0.120228
0.124468
0.126173
0.131042
0.210747
0.252171
0.155486
0.131182
0.132131
0.165732
0.277524
0.308973
0.209065
0.145315
0.356219
0.58441
0.530604
0.412749
0.285066
0.225841
0.184597
0.156045
0.136958
0.123593
0.114356
0.107759
0.103848
0.102178
0.102966
0.105013
0.108822
0.115094
0.123661
0.133609
0.153101
0.178929
0.217384
0.234044
0.23635
0.263988
0.271802
0.239859
0.282531
0.338354
0.208438
0.251748
0.261911
0.263198
0.814917
0.161837
0.162932
0.226272
0.178219
0.15396
0.229483
0.151666
0.146661
0.230419
0.142301
0.129009
0.301399
0.141807
0.140506
0.574311
0.149599
0.154607
1
0.139331
0.139794
0.548711
0.222526
0.304673
0.331571
0.14077
0.143611
0.317087
0.498042
0.671842
0.326038
0.147088
0.157034
0.511472
0.701057
0.621342
0.815387
0.16766
0.183315
1
0.541711
0.42321
1
0.186722
0.211975
0.734641
0.358516
0.29039
0.383536
0.236143
0.325063
0.281298
0.265731
0.229682
0.212865
0.483198
1
0.193023
0.221029
0.200014
0.165446
0.538352
0.313846
0.161974
0.198438
0.184994
0.145536
0.237413
0.211058
0.150107
0.188459
0.179821
0.139895
0.191318
0.185234
0.145791
0.186257
0.180722
0.1385
0.177026
0.174953
0.145705
0.189601
0.186319
0.140642
0.170394
0.169684
0.149771
0.19698
0.19466
0.146342
0.165511
0.163963
0.158107
0.207087
0.206508
0.156304
0.159953
0.161016
0.171959
0.223662
0.227015
0.172978
0.159405
0.163213
0.19283
0.248557
0.257729
0.199649
0.164046
0.172102
0.225279
0.285187
0.303756
0.239822
0.177577
0.193774
0.275502
0.342925
0.382793
0.30722
0.210752
0.24815
0.373783
0.438813
0.384808
0.288953
0.205083
0.266841
0.43753
0.527315
0.63752
0.523376
0.314665
0.422568
0.706536
0.842836
1
1
0.587409
1
1
1
1
1
1
1
1
1
0.915354
0.903278
0.619746
0.335907
0.491149
0.559443
0.417196
0.370051
0.252179
0.217276
0.29315
0.312242
0.23576
0.219849
0.161424
0.120241
0.147005
0.172859
0.155017
0.143425
0.112015
0.0971206
0.121327
0.123938
0.118333
0.115182
0.0951784
0.10508
0.105755
0.11674
0.112869
0.104183
0.11782
0.125094
0.114494
0.117979
0.120438
0.116647
0.129955
0.132574
0.109336
0.109016
0.115736
0.116928
0.132717
0.129721
0.111174
0.109328
0.112512
0.11476
0.126871
0.125196
0.107847
0.105639
0.108464
0.108823
0.12031
0.121805
0.107276
0.107082
0.0948399
0.0976738
0.122351
0.115157
0.0989902
0.0988203
0.0918276
0.0944167
0.116234
0.108075
0.0934332
0.0951913
0.0924229
0.0921562
0.107749
0.114353
0.0871247
0.0832278
0.0855173
0.0853739
0.105097
0.110275
0.0839637
0.0802034
0.0824781
0.0818685
0.100536
0.105337
0.0805466
0.0773366
0.0794747
0.0781683
0.0953442
0.0970023
0.0768823
0.0765947
0.0709667
0.0764853
0.10546
0.0961241
0.0729606
0.0722233
0.0685699
0.0745819
0.1034
0.0927931
0.0695831
0.0692022
0.0661508
0.072363
0.0997079
0.0899757
0.0668498
0.0674439
0.0644445
0.0701187
0.0965597
0.0875821
0.0650002
0.0659546
0.0627632
0.067766
0.0935583
0.0841567
0.0630462
0.0644806
0.061601
0.0627859
0.0877153
0.0963886
0.0691457
0.0600598
0.0587918
0.059171
0.0866802
0.0959599
0.0669423
0.0577559
0.057016
0.0566461
0.0845809
0.0927209
0.0651386
0.0562591
0.0556346
0.0553226
0.08294
0.0908066
0.063699
0.0550565
0.0545922
0.0537599
0.0807205
0.0891546
0.0624578
0.0541298
0.0535428
0.0527671
0.0799002
0.0876427
0.0614381
0.0531089
0.052368
0.0515569
0.0781964
0.0866509
0.0607357
0.052303
0.051488
0.0507461
0.0773944
0.0852015
0.0597919
0.0513935
0.0502629
0.0497851
0.076351
0.0848349
0.059296
0.0505983
0.0494126
0.0490242
0.0758156
0.0837345
0.0585183
0.0498102
0.0484618
0.0482298
0.0749988
0.0835628
0.0583182
0.0492072
0.0477827
0.0476887
0.0746203
0.082754
0.0576727
0.0484704
0.0468902
0.0468657
0.0738386
0.0826878
0.0574894
0.0479771
0.0462337
0.0464513
0.0739772
0.0825855
0.0569037
0.0473913
0.0451392
0.0454168
0.0741622
0.0842914
0.0580236
0.0469619
0.0456778
0.0499398
0.0819095
0.0727623
0.0418103
0.0465389
0.0464439
0.0523661
0.0778811
0.0697431
0.0447113
0.0457568
0.0465029
0.0544034
0.0763744
0.0691113
0.0456669
0.0453342
0.0462444
0.0548276
0.0763333
0.0687833
0.0451217
0.0445585
0.0456899
0.0546198
0.0766572
0.0692971
0.0446861
0.0440036
0.0453143
0.0545412
0.0771355
0.0692709
0.0439271
0.0432821
0.044774
0.0542693
0.0776256
0.0699971
0.0431684
0.0424827
0.0446253
0.0553949
0.0797407
0.0776916
0.0476115
0.0428941
0.043264
0.0390579
0.0693287
0.0749088
0.0501885
0.0437093
0.0427817
0.0420291
0.066815
0.0730451
0.052092
0.0438948
0.0423328
0.0430341
0.0657811
0.072654
0.052448
0.0436529
0.0418039
0.0425978
0.0652648
0.072911
0.0522318
0.0433109
0.0411809
0.0420178
0.0661009
0.0747896
0.05312
0.043176
0.0416012
0.0460802
0.0732818
0.0660541
0.0378837
0.0417055
0.0423758
0.0487275
0.0718877
0.0646088
0.0408456
0.0412648
0.0426301
0.050965
0.0712861
0.0643654
0.041905
0.0409267
0.0424693
0.051371
0.0713914
0.0642341
0.041418
0.0403934
0.0421229
0.0511412
0.0717983
0.0651138
0.040725
0.0398169
0.0419791
0.0518818
0.073408
0.0717387
0.0448218
0.0400051
0.0397836
0.0363226
0.0647628
0.0708775
0.0475478
0.0407357
0.0393246
0.03906
0.0633676
0.0702025
0.0496563
0.040915
0.0391422
0.0401497
0.0629688
0.0702955
0.050235
0.0410445
0.0388781
0.0400651
0.0631234
0.0709855
0.0508853
0.0410712
0.0394279
0.0442516
0.0691577
0.0626863
0.0360869
0.0391557
0.0401963
0.0468255
0.0688427
0.0620341
0.0386923
0.0387866
0.0405425
0.0492106
0.0690552
0.0620439
0.0397618
0.038661
0.0406044
0.0499505
0.0694709
0.0623882
0.0398011
0.0385111
0.0405698
0.0498708
0.070032
0.0626386
0.0391634
0.0380712
0.0404909
0.0503973
0.0707408
0.0689636
0.0435487
0.0384096
0.0378454
0.0349093
0.062225
0.0683786
0.0462627
0.0391723
0.0374209
0.0376356
0.0612153
0.068199
0.0484636
0.0393624
0.0374414
0.0386999
0.0611246
0.068705
0.049243
0.0396099
0.0375294
0.0389593
0.0617592
0.0694741
0.0493488
0.0397928
0.037286
0.0385672
0.0621944
0.0703215
0.0500677
0.0398428
0.0378519
0.0433144
0.0686262
0.0619727
0.034259
0.0368602
0.0385158
0.0460496
0.0682923
0.0612506
0.0371241
0.0365912
0.0388371
0.0484223
0.0683269
0.0610916
0.0382118
0.0366305
0.0388587
0.0486741
0.0684114
0.060964
0.0379678
0.0364763
0.0390065
0.0488008
0.0690131
0.0619834
0.0379128
0.0364963
0.0392787
0.0496466
0.0700611
0.0680717
0.0427645
0.0371864
0.0356703
0.0333222
0.0606973
0.0665701
0.0451519
0.0373927
0.0355023
0.0362037
0.0597262
0.0666833
0.0474425
0.0378193
0.0358337
0.0374629
0.0596788
0.0666973
0.0479793
0.0381363
0.0358752
0.0374136
0.0590447
0.0662086
0.047604
0.0381054
0.0357895
0.0372654
0.0592016
0.0668793
0.0477505
0.0381888
0.0358612
0.0372596
0.0598182
0.0672231
0.0477315
0.0382007
0.0356121
0.0368753
0.0593087
0.0666213
0.0472156
0.0379389
0.0352409
0.0365381
0.0591807
0.0671808
0.047374
0.0379202
0.0351915
0.0365615
0.059901
0.0675418
0.0473112
0.0378827
0.034829
0.0359979
0.0593262
0.0669627
0.0466863
0.0376019
0.034427
0.0356745
0.0595935
0.0682396
0.0480111
0.0380235
0.0351571
0.041426
0.0666685
0.0593127
0.0314896
0.0329923
0.0350198
0.0434009
0.0646004
0.0566749
0.0336934
0.0328891
0.0353194
0.0452266
0.0634144
0.0566068
0.0361371
0.0334701
0.0329677
0.0381538
0.0610607
0.0684488
0.0507443
0.0382371
0.0338419
0.0362672
0.0583448
0.0665142
0.0470893
0.0372342
0.0332733
0.0349823
0.0585764
0.0663493
0.0460391
0.0365088
0.032789
0.0342248
0.057839
0.0646019
0.0446272
0.0355625
0.0319304
0.033237
0.055975
0.0639618
0.044696
0.0351904
0.031943
0.0336678
0.0563079
0.0632346
0.044162
0.0348916
0.0313809
0.0324794
0.0535128
0.0605089
0.0432831
0.0341025
0.0311362
0.0338943
0.0539048
0.0584236
0.0354461
0.0305512
0.0356497
0.0475787
0.0655435
0.0552869
0.0330131
0.0307329
0.0343779
0.0442708
0.0637056
0.0549049
0.0319358
0.0301378
0.0327049
0.0418932
0.0609796
0.0516927
0.0315428
0.0290445
0.0282558
0.0326984
0.0556138
0.0631389
0.0458061
0.0332099
0.0285845
0.0317997
0.0525895
0.0558769
0.032005
0.0275524
0.0327763
0.0457311
0.0641283
0.0517531
0.0302582
0.0276649
0.0270277
0.0335605
0.0561217
0.0585196
0.031007
0.026131
0.0335088
0.0486556
0.0681947
0.0559127
0.0311778
0.027511
0.0269435
0.0330301
0.0596652
0.0669769
0.0376939
0.0280017
0.0286466
0.039578
0.0759147
0.0896256
0.0446294
0.031021
0.0336146
0.0496104
0.102584
0.112126
0.0560872
0.0364099
0.0378846
0.0592574
0.115993
0.117656
0.0632284
0.0395593
0.0407071
0.0659887
0.118605
0.119183
0.0695982
0.0424932
0.0436647
0.0727905
0.119318
0.119191
0.0764049
0.045796
0.0471935
0.0800078
0.119023
0.118933
0.0833054
0.050227
0.0519871
0.0863381
0.118994
0.119102
0.089295
0.0557286
0.0576254
0.092163
0.11933
0.119532
0.0949836
0.0614873
0.0634334
0.0977536
0.119843
0.120087
0.100416
0.0673966
0.0693815
0.103056
0.120474
0.12075
0.105547
0.0733288
0.0751999
0.108045
0.121207
0.121494
0.110331
0.0789574
0.0807455
0.112635
0.122044
0.122291
0.114681
0.0842734
0.0859084
0.116747
0.122948
0.122999
0.118507
0.0891926
0.0906983
0.120279
0.123783
0.123801
0.121735
0.0936986
0.0950212
0.123087
0.124387
0.124461
0.124224
0.0977124
0.0987498
0.125267
0.124849
0.124906
0.126098
0.101065
0.101797
0.126823
0.125122
0.125095
0.127349
0.103732
0.104204
0.127837
0.125182
0.125075
0.12812
0.105806
0.106036
0.128362
0.125103
0.124881
0.12844
0.107326
0.107384
0.12851
0.124835
0.124562
0.128436
0.108389
0.108337
0.128336
0.124478
0.124128
0.128135
0.109068
0.108912
0.127924
0.123996
0.123625
0.127635
0.109451
0.109149
0.127311
0.123478
0.123053
0.126939
0.10956
0.109104
0.126547
0.12287
0.122446
0.126115
0.109422
0.10886
0.125651
0.122262
0.1218
0.125154
0.109061
0.108446
0.124655
0.12159
0.121144
0.124117
0.108555
0.1079
0.123578
0.120938
0.120468
0.122995
0.107915
0.107236
0.122444
0.120242
0.119798
0.12184
0.107191
0.106497
0.121271
0.119581
0.119125
0.120644
0.106387
0.105689
0.12008
0.118894
0.118471
0.119449
0.105543
0.104846
0.118883
0.118253
0.117828
0.118247
0.104657
0.103965
0.117694
0.117601
0.117206
0.117065
0.103755
0.103073
0.116518
0.116993
0.116607
0.115901
0.102842
0.102173
0.115377
0.116394
0.116037
0.114777
0.101933
0.101277
0.114259
0.115836
0.11549
0.113679
0.101018
0.10038
0.113189
0.115291
0.114974
0.112631
0.100103
0.0994845
0.112147
0.114786
0.114484
0.111611
0.0991964
0.098599
0.111152
0.114298
0.114022
0.110637
0.0983104
0.0977203
0.110186
0.113847
0.113586
0.109701
0.0974403
0.0968758
0.109278
0.113412
0.113173
0.108812
0.0965962
0.0960422
0.108397
0.11301
0.112787
0.107954
0.0957681
0.0952291
0.107566
0.112626
0.112424
0.107144
0.0949683
0.0944431
0.106764
0.112272
0.112084
0.106367
0.0941963
0.093687
0.106013
0.111936
0.111766
0.10564
0.0934561
0.0929609
0.105294
0.111628
0.111471
0.104947
0.0927461
0.0922674
0.104627
0.111337
0.111197
0.104304
0.0920698
0.0916045
0.103989
0.111071
0.110943
0.103694
0.0914245
0.0909748
0.103403
0.110822
0.110708
0.10313
0.0908126
0.0903752
0.102842
0.110595
0.110491
0.102595
0.0902306
0.0898075
0.102329
0.110381
0.11029
0.102101
0.0896793
0.0892682
0.101837
0.110188
0.110104
0.101632
0.0891589
0.0887581
0.101388
0.110004
0.109931
0.101201
0.0886668
0.088269
0.100956
0.109838
0.10977
0.10079
0.0882031
0.0878069
0.100563
0.109679
0.10962
0.100411
0.0877608
0.0873666
0.100183
0.109535
0.109481
0.100049
0.0873444
0.0869515
0.0998381
0.109398
0.109352
0.0997175
0.0869468
0.0865559
0.0995032
0.109275
0.109233
0.0993994
0.086573
0.0861842
0.099202
0.109157
0.109123
0.0991087
0.0862158
0.08583
0.0989073
0.109052
0.109021
0.098829
0.0858796
0.0854985
0.0986438
0.108951
0.108926
0.0985739
0.0855568
0.0851828
0.0983872
0.10886
0.108838
0.0983261
0.0852519
0.0848889
0.0981558
0.108772
0.108754
0.0981002
0.0849587
0.0846062
0.0979272
0.108692
0.108676
0.0978789
0.0846826
0.0843402
0.0977211
0.108613
0.108601
0.0976772
0.0844164
0.0840828
0.0975153
0.108541
0.108531
0.0974778
0.0841654
0.0838404
0.0973302
0.10847
0.108463
0.0972962
0.0839223
0.0836053
0.0971439
0.108406
0.1084
0.0971158
0.0836939
0.0833845
0.0969776
0.108343
0.108341
0.0969529
0.0834724
0.0831703
0.0968099
0.108287
0.108286
0.0967911
0.0832652
0.0829704
0.0966623
0.108232
0.108236
0.0966468
0.0830647
0.0827768
0.0965131
0.108186
0.108191
0.0965035
0.0828783
0.0825973
0.0963838
0.10814
0.108149
0.0963773
0.0826981
0.0824229
0.0962521
0.108101
0.108111
0.0962507
0.0825309
0.0822607
0.0961387
0.108061
0.108075
0.0961397
0.0823697
0.0821003
0.0960211
0.108027
0.10804
0.0960264
0.0822185
0.0819531
0.0959201
0.107991
0.108007
0.0959273
0.0820716
0.0818064
0.0958136
0.107959
0.107975
0.0958246
0.0819337
0.0816721
0.0957229
0.107926
0.107945
0.0957352
0.0817992
0.0815373
0.0956257
0.107898
0.107916
0.0956414
0.0816726
0.0814142
0.0955435
0.107867
0.107888
0.09556
0.0815486
0.0812894
0.095454
0.107841
0.107861
0.0954737
0.0814318
0.0811758
0.095379
0.107812
0.107834
0.0953991
0.0813166
0.0810596
0.0952959
0.107787
0.107809
0.0953189
0.0812079
0.080954
0.0952267
0.107761
0.107784
0.0952497
0.081099
0.0808446
0.0951486
0.107737
0.10776
0.0951742
0.0809972
0.0807459
0.0950839
0.107711
0.107736
0.0951092
0.0808949
0.0806427
0.0950098
0.107688
0.107712
0.0950374
0.080799
0.0805495
0.0949485
0.107663
0.107688
0.0949757
0.0807018
0.0804511
0.0948774
0.107641
0.107665
0.0949068
0.0806107
0.0803628
0.0948192
0.107616
0.107642
0.0948482
0.0805185
0.0802696
0.0947517
0.107595
0.107621
0.0947832
0.0804329
0.0801872
0.0946975
0.107573
0.1076
0.0947292
0.0803468
0.0801008
0.0946358
0.107555
0.107584
0.0946708
0.0802687
0.0800267
0.0945892
0.107538
0.107569
0.0946252
0.0801917
0.07995
0.0945366
0.107526
0.107559
0.0945753
0.0801242
0.0798833
0.0944886
0.107513
0.107549
0.0945309
0.0800514
0.0798112
0.0944564
0.107495
0.107534
0.0944971
0.0799811
0.0797397
0.0944125
0.107495
0.107545
0.0944594
0.0799116
0.0796419
0.094363
0.10749
0.107556
0.0944123
0.0797679
0.0794248
0.0942644
0.107454
0.107529
0.0943026
0.0794816
0.079036
0.0940811
0.107356
0.107307
0.0940355
0.0789334
0.0779041
0.0933029
0.106906
0.106133
0.0921804
0.0764445
0.0752727
0.0912382
0.105363
0.0597896
0.0499912
0.0487534
0.0493855
0.0517303
0.0546287
0.0567607
0.0578423
0.0610616
0.0624337
0.061992
0.0612363
0.0601382
0.0589518
0.057902
0.0570964
0.0565392
0.056181
0.0559622
0.0558331
0.0557596
0.0557197
0.0556997
0.0556914
0.0556895
0.0556913
0.0556944
0.0556985
0.0557013
0.0557041
0.0557051
0.0557059
0.0557135
0.0557113
0.055708
0.0557053
0.0557036
0.0557046
0.0557084
0.0557157
0.0557273
0.0557439
0.0557661
0.0557942
0.0558278
0.0558699
0.05593
0.0560156
0.056123
0.0562434
0.0563705
0.0565019
0.056639
0.056784
0.0569384
0.057103
0.0572779
0.0574629
0.0576572
0.0578601
0.0580711
0.0582901
0.0585174
0.0587535
0.0589995
0.0592571
0.0595278
0.0598137
0.0601171
0.0604406
0.0607867
0.0611586
0.0615592
0.0619918
0.0624596
0.062966
0.0635141
0.0641072
0.064748
0.065439
0.0661825
0.0669799
0.0678325
0.0687406
0.0697042
0.0707224
0.0717939
0.0729169
0.0740893
0.0753086
0.0765722
0.0778776
0.0792203
0.0805967
0.0820076
0.0834516
0.084921
0.0864049
0.0878996
0.0894047
0.0909185
0.0924371
0.0939562
0.0954724
0.0969827
0.0984847
0.0999757
0.101454
0.102916
0.104363
0.105792
0.107204
0.108597
0.109974
0.111334
0.112679
0.114012
0.115333
0.116646
0.11795
0.119265
0.120588
0.121897
0.123192
0.124482
0.125767
0.127045
0.128315
0.129574
0.13082
0.132053
0.133272
0.134476
0.135664
0.136837
0.137994
0.139133
0.140251
0.141344
0.142404
0.143425
0.144397
0.145308
0.14615
0.146913
0.14759
0.148178
0.148676
0.149078
0.149401
0.14965
0.14983
0.149949
0.150013
0.150026
0.150015
0.150007
0.150006
0.150005
0.150005
0.150018
0.150066
0.150147
0.150231
0.150296
0.150336
0.150355
0.150359
0.150354
0.150345
0.150333
0.150318
0.150302
0.150284
0.150264
0.150242
0.150219
0.150195
0.15017
0.150144
0.150117
0.150089
0.15006
0.150033
0.150007
0.14998
0.14995
0.14992
0.14989
0.14986
0.149831
0.149803
0.149775
0.149748
0.149722
0.149697
0.149673
0.149651
0.14963
0.14961
0.149592
0.149576
0.149561
0.149549
0.14954
0.149533
0.14953
0.149533
0.149544
0.149571
0.149625
0.149712
0.149821
0.149907
0.14991
0.149826
0.1497
0.14946
0.148617
0.147657
0.145175
0.143617
0.142402
0.140874
0.139804
0.138381
0.137489
0.13619
0.135487
0.134323
0.133798
0.132755
0.132375
0.131428
0.131151
0.130265
0.130052
0.129188
0.129012
0.128144
0.127984
0.127102
0.126955
0.126067
0.125944
0.125076
0.125001
0.124187
0.124182
0.123457
0.12354
0.122929
0.123106
0.122626
0.122902
0.122557
0.122935
0.122718
0.123197
0.123097
0.123677
0.123689
0.124376
0.124502
0.125311
0.125567
0.12652
0.126932
0.128055
0.12865
0.129975
0.130784
0.132347
0.133408
0.135263
0.136631
0.138846
0.14058
0.143251
0.145446
0.14873
0.151556
0.155713
0.159477
0.164954
0.170276
0.177691
0.185708
0.196083
0.207129
0.218406
0.225992
0.234932
0.262769
0.344051
0.549976
1
1
0.327026
0.183195
0.156579
0.136708
0.132725
0.125122
0.119626
0.113253
0.109869
0.103317
0.101445
0.0975962
0.0953254
0.0922621
0.0899722
0.0873843
0.0846519
0.0830627
0.0810671
0.0805464
0.0795539
0.0799576
0.0798044
0.0811172
0.0817272
0.0840322
0.0857437
0.0893247
0.0924524
0.0976666
0.102413
0.109785
0.116593
0.126676
0.136479
0.150573
0.164124
0.185101
0.205305
0.239138
0.268244
0.315754
0.344514
0.343354
0.298239
0.250302
0.308483
0.344007
0.333248
0.31293
0.286169
0.293777
0.259345
0.247595
0.236407
0.282556
0.264219
0.208196
0.175123
0.222064
0.233361
0.220681
0.198158
0.15513
0.142106
0.177937
0.189188
0.202663
0.186403
0.199089
0.223781
0.224671
0.202319
0.198459
0.181189
0.179888
0.165014
0.165342
0.167543
0.149368
0.151289
0.149401
0.139217
0.142475
0.130501
0.12786
0.121284
0.128089
0.145149
0.151628
0.116995
0.112964
0.109318
0.121708
0.111036
0.103253
0.102094
0.12145
0.161863
0.171578
0.111636
0.0979294
0.0991794
0.12501
0.115951
0.0964666
0.0993224
0.129035
0.178587
0.18454
0.121222
0.0976655
0.10121
0.134108
0.127486
0.100659
0.105415
0.142234
0.195526
0.207988
0.13704
0.106206
0.112571
0.153164
0.149048
0.114685
0.122688
0.166613
0.221487
0.258551
0.162948
0.125181
0.133918
0.187921
0.183548
0.136349
0.147621
0.231126
0.405963
1
0.21554
0.149338
0.166212
0.322342
0.312117
0.170455
0.181954
0.455696
0.61656
0.323586
0.560517
0.195134
0.207774
0.672208
0.9142
0.254792
0.295357
0.511619
0.253129
0.240987
0.46231
0.768913
0.822141
0.365714
0.33663
0.601619
0.430839
0.278112
0.231045
0.223556
0.26783
0.333786
0.265179
0.234241
0.236955
0.237315
0.224017
0.218405
0.218252
0.21544
0.222916
0.221508
0.214786
0.211669
0.214278
0.212648
0.204686
0.204584
0.212396
0.206927
0.20428
0.199615
0.191184
0.195007
0.193733
0.186243
0.179193
0.185537
0.200005
0.192744
0.184255
0.175405
0.16979
0.177315
0.176325
0.166941
0.162407
0.170402
0.185827
0.179548
0.169708
0.160208
0.156456
0.164568
0.16415
0.15474
0.151574
0.159634
0.17401
0.169211
0.159469
0.150241
0.147535
0.155481
0.155526
0.146522
0.144188
0.151992
0.16509
0.161548
0.15221
0.143447
0.141418
0.149064
0.149421
0.140902
0.139123
0.146623
0.158496
0.155879
0.147089
0.138813
0.137259
0.144586
0.145152
0.137114
0.135746
0.142899
0.153654
0.151777
0.143558
0.135749
0.134548
0.141525
0.142264
0.134676
0.13362
0.140425
0.150208
0.148914
0.141233
0.133855
0.132929
0.139573
0.140443
0.133268
0.132463
0.138953
0.14787
0.14706
0.139887
0.13291
0.132224
0.138562
0.139564
0.132785
0.132215
0.138398
0.146481
0.146119
0.139465
0.132889
0.13243
0.138449
0.139569
0.133208
0.132852
0.13869
0.145946
0.145922
0.139842
0.133716
0.133449
0.139085
0.14024
0.13437
0.134176
0.13959
0.145999
0.146129
0.140714
0.13512
0.13498
0.140153
0.141216
0.135911
0.135806
0.140734
0.146267
0.146381
0.141719
0.136696
0.13661
0.141287
0.142184
0.13745
0.137382
0.141803
0.146472
0.146554
0.142616
0.138185
0.138145
0.142303
0.14305
0.138936
0.138946
0.142826
0.146654
0.146808
0.143532
0.139763
0.13985
0.14342
0.144104
0.140695
0.14091
0.144128
0.14705
0.147401
0.144805
0.141791
0.142156
0.144972
0.145645
0.143076
0.143584
0.145947
0.147861
0.148402
0.146601
0.144524
0.145151
0.147008
0.147619
0.146082
0.146787
0.148083
0.148966
0.149431
0.149118
0.14882
0.14859
0.148452
0.148407
0.148442
0.148529
0.148647
0.148777
0.148909
0.149045
0.149205
0.149423
0.149739
0.150196
0.150834
0.151683
0.152765
0.154103
0.155719
0.157636
0.159882
0.162489
0.165509
0.16899
0.172965
0.177472
0.182587
0.188251
0.194506
0.201223
0.208077
0.214426
0.219557
0.223258
0.225615
0.22828
0.229761
0.231532
0.232156
0.231027
0.265874
0.360104
0.554779
0.870436
0.594684
0.415043
0.353665
0.320571
0.304161
0.291882
0.277734
0.257061
0.226559
0.192854
0.177625
0.23691
0.195663
0.185529
0.187473
0.168677
0.135608
0.131955
0.159919
0.169707
0.175412
0.159195
0.132591
0.135219
0.158362
0.168452
0.190776
0.249998
0.342764
0.226822
0.18348
0.164826
0.141274
0.148186
0.17031
0.183745
0.213383
0.183275
0.158949
0.170529
0.193306
0.213646
0.29444
0.438132
0.570099
0.474082
0.351259
0.450704
0.306143
0.366572
0.408447
0.60601
0.530153
0.706017
0.588723
0.688909
0.807429
0.961905
0.859329
1
0.690628
0.440372
0.467504
0.807097
1
0.501256
0.566382
1
0.999973
1
1
1
1
0.725756
0.72357
0.710342
0.668537
0.594574
0.490189
0.351912
0.253291
0.214052
0.188176
0.210343
0.233185
0.251313
0.289134
0.266958
0.24461
0.279449
0.29294
0.292526
0.391235
0.479193
0.414631
0.397688
0.334279
0.291338
0.306702
0.33183
0.401883
0.408186
0.368375
0.438225
0.256483
0.209193
0.387684
0.28451
0.164427
0.153418
0.267126
0.282998
0.235624
0.219967
0.200865
0.128763
0.144529
0.13946
0.199876
0.2468
0.261614
0.310316
0.332539
0.333658
0.425138
0.428753
0.529707
0.543423
0.534575
0.516766
0.417572
0.415931
0.422673
0.42343
0.430228
0.427783
0.340885
0.339461
0.314732
0.301734
0.328022
0.322484
0.347382
0.331964
0.320011
0.273572
0.224972
0.187523
0.311995
0.353161
0.39144
0.360305
0.341343
0.298731
0.293107
0.26331
0.288324
0.305805
0.282948
0.244026
0.264909
0.249339
0.301116
0.345535
0.343457
0.297007
0.279342
0.23355
0.241385
0.230019
0.279634
0.296752
0.345795
0.344696
0.348973
0.352171
0.414641
0.424728
0.507381
0.525099
0.704536
0.61978
0.959855
0.583656
0.387198
0.528393
0.947886
0.726539
0.922174
0.528611
0.358044
0.596745
0.401999
0.27369
0.233221
0.269877
0.353832
0.287623
0.23863
0.222658
0.217415
0.226827
0.259369
0.341409
0.471058
0.477555
0.556334
0.547734
0.495181
0.462775
0.435204
0.377254
0.361691
0.317857
0.302119
0.308144
0.292261
0.302435
0.285909
0.297781
0.281061
0.231079
0.239686
0.242409
0.236576
0.248817
0.244575
0.257544
0.25468
0.268008
0.267321
0.314271
0.333078
0.336681
0.289673
0.285033
0.311678
0.360342
0.405796
0.449853
0.40027
0.369784
0.322879
0.351839
0.37415
0.421378
0.463298
0.517683
0.608902
0.587656
0.593707
0.534527
0.656259
0.696833
0.737354
0.650236
0.571504
0.50615
0.463963
0.416301
0.53862
0.642844
0.60953
0.507238
0.737895
0.755509
0.901193
0.82975
0.85968
0.783974
1
1
1
0.938287
1
1
1
1
0.746473
0.597291
0.460742
0.415261
0.332617
0.254034
0.219905
0.214195
0.205708
0.211967
0.242657
0.36399
0.346155
0.369868
0.515537
0.573685
0.671737
0.841276
0.485165
0.427073
0.351032
0.34299
0.243311
0.255018
0.247954
0.228754
0.199059
0.233382
0.211983
0.196394
0.236261
0.334521
0.456536
0.206467
0.168763
0.168248
0.188687
0.187347
0.168174
0.167649
0.155083
0.150395
0.14833
0.171384
0.130556
0.1338
0.141131
0.150717
0.160769
0.171881
0.18584
0.199159
0.206159
0.190131
0.190843
0.174187
0.161999
0.15139
0.137331
0.133745
0.123932
0.123946
0.1178
0.115817
0.11667
0.118382
0.121665
0.120969
0.123047
0.116542
0.126361
0.113445
0.127816
0.113813
0.124032
0.120673
0.100683
0.120544
0.101196
0.11825
0.111908
0.0872784
0.112682
0.0851691
0.111881
0.0851441
0.110258
0.0980525
0.0754352
0.0972188
0.0731908
0.0973724
0.071618
0.0957269
0.0698873
0.0960764
0.0694702
0.0974192
0.0769895
0.0614211
0.0811224
0.0613726
0.0808647
0.0600849
0.0803145
0.0592744
0.0777716
0.0578513
0.0767413
0.0569605
0.0747132
0.0558369
0.0733032
0.0548495
0.0716554
0.0538549
0.0702892
0.0529635
0.0685964
0.0520898
0.0672641
0.0512511
0.0654136
0.0504189
0.0636156
0.0493058
0.0603804
0.0506616
0.0541611
0.0792482
0.102785
0.0850901
0.104121
0.0897444
0.107413
0.0917654
0.108152
0.0948904
0.111087
0.0963828
0.111726
0.0991929
0.114407
0.100621
0.114985
0.103222
0.117434
0.104385
0.117866
0.106838
0.119962
0.107725
0.120006
0.109605
0.121649
0.109181
0.12091
0.10964
0.119841
0.127649
0.138689
0.132855
0.136574
0.12906
0.126588
0.13091
0.13427
0.124537
0.128687
0.131482
0.124752
0.121955
0.125953
0.12897
0.119099
0.123306
0.125857
0.118888
0.115799
0.120085
0.123074
0.112201
0.116993
0.119411
0.111623
0.108207
0.0968886
0.0686349
0.0501442
0.0652069
0.0496132
0.0629392
0.0487218
0.0616206
0.0480806
0.0596284
0.0471563
0.0584889
0.0463779
0.0548958
0.0467278
0.0499401
0.0715314
0.0918012
0.074518
0.0924961
0.0809882
0.0970197
0.0819181
0.0973446
0.0867043
0.101679
0.0874072
0.102515
0.0932889
0.10709
0.116489
0.108937
0.112894
0.104703
0.109518
0.100665
0.104808
0.0855286
0.061298
0.046266
0.0590382
0.0461643
0.0572812
0.0454896
0.0553315
0.0446265
0.0524676
0.0453363
0.0475153
0.0579806
0.0446992
0.0549361
0.044276
0.0527114
0.0434919
0.0512734
0.0428161
0.0483597
0.0429609
0.044315
0.0607208
0.081062
0.0634368
0.0822503
0.0695315
0.0863284
0.0711648
0.0873692
0.077348
0.0920497
0.0810652
0.0667562
0.0878229
0.0718186
0.0898369
0.0767181
0.0934303
0.0794256
0.0945857
0.0837558
0.0956814
0.101188
0.112361
0.106285
0.107882
0.100936
0.0978839
0.102366
0.104909
0.0969978
0.0935573
0.0986125
0.100836
0.0936696
0.0977765
0.089678
0.0930164
0.0750629
0.0532327
0.0421782
0.0516106
0.042177
0.0498123
0.0416762
0.0476466
0.0424531
0.0435445
0.0578049
0.0731854
0.0521434