/*--------------------------------*- C++ -*----------------------------------*\
| =========                 |                                                 |
| \\      /  F ield         | OpenFOAM: The Open Source CFD Toolbox           |
|  \\    /   O peration     | Version:  v2006                                 |
|   \\  /    A nd           | Website:  www.openfoam.com                      |
|    \\/     M anipulation  |                                                 |
\*---------------------------------------------------------------------------*/
FoamFile
{
    version     2.0;
    format      ascii;
    class       volScalarField;
    location    "0.01";
    object      yPlus;
}
// * * * * * * * * * * * * * * * * * * * * * * * * * * * * * * * * * * * * * //

dimensions      [0 0 0 0 0 0 0];


internalField   uniform 0;

boundaryField
{
    bottomEmptyFaces
    {
        type            empty;
    }
    topEmptyFaces
    {
        type            empty;
    }
    inlet
    {
        type            calculated;
        value           uniform 0;
    }
    outlet
    {
        type            calculated;
        value           uniform 0;
    }
    walls
    {
        type            calculated;
        value           nonuniform List<scalar> 
599
(
21.3152
21.3773
21.3652
21.4238
21.4116
21.4665
21.4541
21.5056
21.4931
21.5416
21.5289
21.5747
21.5621
21.6055
21.5929
21.6343
21.6218
21.6613
21.6489
21.6869
21.6746
21.7113
21.6991
21.7344
21.7223
21.7566
21.7447
21.778
21.7662
21.7988
21.7872
21.819
21.8075
21.8387
21.8274
21.8578
21.8466
21.8765
21.8653
21.8944
21.8833
21.912
21.9009
21.929
21.9179
21.9456
21.9346
21.9619
21.9509
21.9779
21.967
21.9937
21.9829
22.0095
21.9987
22.025
22.0143
22.0405
22.0298
22.0556
22.045
22.0705
22.0599
22.0849
22.0743
22.0989
22.0883
22.1123
22.1016
22.1253
22.1145
22.1377
22.127
22.1499
22.1391
22.1617
22.1509
22.1734
22.1626
22.1847
22.1739
22.1959
22.1851
22.2068
22.196
22.2177
22.2069
22.2283
22.2176
22.239
22.2283
22.2495
22.2388
22.26
22.2493
22.2704
22.2598
22.2808
22.2703
22.2912
22.2807
22.3017
22.2912
22.312
22.3015
22.3222
22.3117
22.3321
22.3216
22.3416
22.331
22.3505
22.3397
22.3585
22.3472
22.3812
22.3816
22.3988
22.3985
22.463
22.487
22.6325
22.7347
22.9945
23.2094
23.9967
25.1961
12.0098
13.4844
12.5048
14.608
11.0089
12.2659
14.4165
10.6297
11.374
10.5599
12.0246
11.7487
13.8356
11.2719
12.6007
13.7704
10.1654
10.9353
11.0233
8.40531
8.80321
7.90055
8.00457
9.20313
9.50975
8.66508
8.83248
8.95266
9.27725
9.91302
9.86428
9.77905
10.7901
10.2263
11.9274
9.93515
10.9159
8.77227
9.88596
9.02911
9.94397
12.0236
8.88508
9.52792
10.0627
11.3489
10.3775
11.5456
10.6392
11.803
11.0884
12.9426
12.8973
9.5276
10.2197
9.67331
10.7875
9.34795
10.563
9.85378
10.7454
8.99969
9.84003
9.02683
9.786
8.80224
9.5025
8.78144
9.44812
8.90989
9.71196
8.93703
9.66563
9.0156
9.8997
9.0432
9.88251
8.6603
9.35339
8.63414
9.18034
21.9282
22.9516
25.1632
17.4981
18.8927
23.4467
17.2906
18.3139
16.56
18.827
20.5718
24.0284
16.7603
18.7158
16.7733
18.6809
16.5622
18.5406
16.8015
18.7268
16.7808
18.5772
16.5742
18.4498
16.9094
18.9846
17.0127
18.8612
29.7118
25.5501
25.2387
33.0217
28.918
27.5483
19.7627
21.0938
20.7874
22.7762
19.8921
22.1591
23.6117
24.213
21.0107
23.5183
25.3843
26.1208
30.1782
24.4231
24.4056
22.4336
23.5731
34.0655
34.6865
35.422
26.9398
24.8511
38.0165
39.24
39.4174
38.0331
36.3432
34.4832
32.7596
31.1098
29.6208
28.2618
27.0806
26.0077
19.7652
21.6855
18.9706
20.4143
13.7758
12.6893
13.1543
12.36
22.002
14.1947
16.8233
20.8307
21.6089
13.257
12.836
19.5249
9.86841
14.7676
16.417
17.5202
8.8616
9.16998
12.2652
11.3184
10.4088
10.0763
9.57447
9.36744
8.88893
8.60257
14.604
10.2243
9.54165
11.4527
10.4335
8.16889
8.07993
13.3837
8.63917
7.77531
4.65838
25.0621
24.2097
9.75111
8.36281
6.73408
23.4538
22.788
22.1968
21.6953
5.64221
6.58182
3.55601
21.2473
20.8894
7.36594
6.47819
20.5613
20.3272
5.73089
5.32764
20.0897
4.81761
19.9642
4.5228
19.7773
4.13912
3.91523
19.7697
3.58317
19.6367
3.33668
19.6753
19.5983
19.6549
19.6049
2.94345
19.6733
2.60079
19.638
2.21599
1.91639
19.7139
1.57464
19.6835
1.31438
19.7698
1.02208
0.817264
19.7412
19.8321
0.587683
0.464159
19.8052
0.325824
19.9011
0.267796
19.8765
0.25675
0.266424
19.9767
0.254703
19.9544
0.2627
20.0588
20.0391
20.1461
20.1285
0.254315
20.2378
0.245304
20.222
0.210628
0.178649
20.3315
0.143395
20.3168
0.115111
20.426
0.0882778
0.0718952
20.4123
20.5194
0.055755
0.0445902
20.5062
0.0340453
20.6106
0.0248471
20.598
0.0188641
0.012184
20.699
0.00657426
0.00828151
20.6865
20.7838
20.7716
20.8652
20.8531
20.9428
20.9309
21.0167
21.0049
21.0869
21.0752
21.1532
21.1415
21.2155
21.2037
21.2735
21.2615
21.3272
14.3331
16.2698
17.8491
14.9078
16.7854
14.632
16.439
15.4363
18.1695
14.3336
16.9031
16.5625
12.1013
13.8327
12.1937
13.1379
13.2394
14.3207
13.1766
15.0224
13.646
15.2839
13.8564
15.5781
17.1825
20.1039
19.6785
14.5967
15.6044
12.8259
14.4056
15.4845
13.3467
15.7522
12.5875
14.0904
11.4255
12.3487
11.4263
13.0585
0.0155439
26.4278
42.4822
39.5812
37.191
35.7562
34.357
33.3045
32.4107
31.6092
31.0745
30.5205
30.1318
29.6907
29.3886
29.0268
28.7795
28.4714
28.2582
27.9846
27.7922
27.5384
27.3568
27.1126
26.9349
26.6947
26.5174
26.2788
26.101
25.865
25.6879
25.4562
25.2811
25.0547
24.8824
24.6613
24.4911
24.2737
24.1043
23.8879
23.7171
23.4989
23.3245
23.1014
22.9213
22.6908
22.5034
22.2639
22.0678
21.8178
21.6121
21.3502
21.1337
20.8584
20.6295
20.338
20.0942
19.7827
19.5204
19.1841
18.8985
18.5304
18.2144
17.8053
17.4493
16.9865
16.5761
16.0408
15.5538
14.9119
14.3094
13.4977
12.7085
11.5737
10.4364
8.9027
4.94356
5.24819
6.92688
7.97712
8.26841
7.7768
5.36879
3.23876
2.41942
2.11037
2.21674
3.14555
3.95394
4.51531
4.81986
4.8932
4.87792
4.64047
4.46098
4.33291
4.29458
4.31012
4.40951
4.50994
4.61653
4.7078
4.78064
4.81888
4.83206
4.81266
4.75329
4.65752
4.52915
4.37426
4.19091
3.98877
3.76204
3.52701
3.27376
3.02193
2.75689
2.50318
2.23676
1.99322
1.72944
1.49312
1.23963
1.03258
0.810458
0.634076
0.411571
0.238638
46.1477
0.175586
)
;
    }
    rightWall
    {
        type            calculated;
        value           nonuniform List<scalar> 
30
(
0.64657
0.475955
0.828375
3.18712
6.15119
6.62178
6.97
7.31643
7.6479
7.8493
7.85843
7.81012
7.67744
7.45803
7.25442
7.03934
6.8353
6.57791
6.34131
6.00484
5.76496
5.18481
4.60507
3.69705
0.71335
2.09321
2.84438
0.0449354
0.126825
0.273818
)
;
    }
    symmetryLine
    {
        type            symmetryPlane;
    }
}


// ************************************************************************* //
