/*--------------------------------*- C++ -*----------------------------------*\
| =========                 |                                                 |
| \\      /  F ield         | OpenFOAM: The Open Source CFD Toolbox           |
|  \\    /   O peration     | Version:  v2006                                 |
|   \\  /    A nd           | Website:  www.openfoam.com                      |
|    \\/     M anipulation  |                                                 |
\*---------------------------------------------------------------------------*/
FoamFile
{
    version     2.0;
    format      ascii;
    class       volScalarField;
    location    "0.129";
    object      Co;
}
// * * * * * * * * * * * * * * * * * * * * * * * * * * * * * * * * * * * * * //

dimensions      [0 0 0 0 0 0 0];


internalField   nonuniform List<scalar> 
16277
(
0.00667483
0.00636255
0.00690558
0.00716983
0.00720801
0.00705688
0.00705316
0.00693426
0.00688254
0.00686858
0.0068306
0.00681622
0.00680228
0.00679237
0.0067814
0.0067703
0.00675863
0.00674631
0.0067336
0.00672033
0.00670648
0.00669206
0.00667709
0.00666158
0.00664553
0.00662895
0.00661186
0.00659425
0.00657613
0.00655753
0.00653844
0.00651889
0.00649888
0.00647844
0.00645757
0.00643631
0.00641466
0.00639264
0.00637028
0.0063476
0.00632462
0.00630135
0.00627783
0.00625407
0.00623011
0.00620596
0.00618165
0.00615721
0.00613267
0.00610804
0.00608336
0.00605866
0.00603396
0.00600929
0.00598469
0.00596017
0.00593578
0.00591153
0.00588747
0.00586361
0.00584
0.00581666
0.00579362
0.00577091
0.00574855
0.00572659
0.00570504
0.00568394
0.00566331
0.00564317
0.00562355
0.00560447
0.00558596
0.00556805
0.00555077
0.00553413
0.0055181
0.00550262
0.00548614
0.00547123
0.00545798
0.00544854
0.00544639
0.00547939
0.00554327
0.00571694
0.00603087
0.00674869
0.00842037
0.0120066
0.0180044
0.0141647
0.0127255
0.0121902
0.011922
0.0116575
0.0111331
0.0100958
0.0110773
0.0117168
0.0109157
0.0107993
0.0101597
0.00838811
0.00903087
0.00923732
0.00918671
0.00918428
0.00861605
0.00783858
0.00854609
0.00871903
0.00898815
0.00883072
0.00804464
0.00782538
0.00863003
0.00881576
0.00901955
0.00879776
0.00789064
0.00779136
0.00866982
0.00886303
0.00903245
0.00876974
0.00779429
0.00769357
0.00864069
0.00886376
0.00899052
0.00871189
0.00767521
0.00757934
0.00857937
0.00883223
0.00895072
0.00864655
0.00756303
0.00747282
0.00851455
0.00879256
0.00890771
0.0085814
0.00746088
0.00737524
0.00845057
0.00875081
0.00886308
0.00851738
0.0073666
0.00728454
0.00838846
0.00870801
0.00881745
0.00845452
0.00727847
0.00719904
0.00832816
0.00866465
0.00877095
0.00839238
0.00719501
0.00711776
0.00826798
0.00861955
0.00872359
0.00833071
0.00711515
0.00703967
0.00820777
0.00857296
0.00867529
0.00826927
0.00703809
0.00696405
0.00814738
0.00852485
0.00862605
0.00820789
0.00696319
0.0068903
0.00808661
0.00847521
0.00857578
0.00814634
0.0068899
0.00681793
0.00802528
0.00842399
0.00852438
0.00808439
0.00681777
0.00674659
0.0079633
0.0083712
0.00847173
0.00802186
0.00674645
0.00667578
0.00790038
0.00831677
0.00841774
0.00795861
0.00667563
0.00660536
0.0078365
0.00826065
0.00836234
0.00789447
0.00660506
0.00653511
0.00777152
0.00820272
0.00830542
0.00782929
0.00653452
0.00646477
0.00770529
0.00814295
0.00824683
0.00776295
0.00646382
0.00639419
0.00763892
0.00808391
0.00818647
0.00769529
0.00639271
0.00632314
0.00757135
0.00802367
0.00812427
0.00762622
0.00632104
0.00625144
0.0075023
0.00796157
0.00806015
0.0075556
0.00624864
0.00617892
0.00743164
0.00789751
0.00799396
0.00748327
0.00617532
0.00610541
0.00735924
0.00783137
0.0079256
0.0074091
0.00610091
0.00603073
0.00728494
0.00776302
0.00785495
0.00733295
0.00602525
0.00595473
0.00720863
0.00769237
0.00778188
0.0072547
0.00594819
0.00587728
0.00713017
0.00761928
0.00770629
0.00717421
0.00586959
0.00579824
0.00704945
0.00754367
0.00762806
0.00709138
0.00578935
0.00571751
0.00696638
0.00746543
0.00754713
0.00700613
0.00570737
0.00563503
0.00688087
0.00738448
0.0074634
0.00691838
0.0056236
0.00555077
0.00679289
0.00730075
0.00737684
0.00682812
0.00553806
0.00546477
0.00670242
0.00721422
0.00728742
0.00673538
0.00545081
0.00537714
0.00660955
0.0071249
0.00719524
0.00664028
0.00536202
0.00528808
0.00651443
0.00703292
0.00710042
0.00654301
0.00527192
0.00519788
0.00641729
0.00693842
0.00700319
0.00644387
0.00518085
0.00510694
0.00631848
0.00684168
0.00690386
0.00634326
0.0050893
0.00501582
0.00621847
0.00674305
0.00680289
0.00624176
0.00499793
0.00492527
0.00611791
0.00664306
0.00670089
0.00614013
0.00490759
0.00483625
0.00601766
0.00654239
0.00659867
0.00603935
0.00481935
0.00474997
0.00591881
0.00644195
0.00649729
0.00594066
0.00473458
0.00466792
0.00582271
0.00634288
0.00639806
0.00584559
0.00465493
0.00459189
0.00573105
0.00624663
0.00630267
0.00575605
0.00458239
0.00452404
0.00564589
0.00615504
0.00621312
0.00567418
0.00451924
0.00446847
0.0055707
0.0060701
0.0061315
0.00560217
0.0044683
0.00443321
0.00552177
0.00600691
0.00606063
0.00554347
0.00443306
0.00441554
0.00549475
0.00597823
0.00600404
0.00550115
0.00441542
0.00441724
0.00548782
0.00596923
0.00596486
0.00547789
0.00441715
0.00443894
0.00550168
0.00598037
0.00594196
0.00547243
0.00443887
0.00447988
0.00553512
0.00601011
0.00594505
0.00549548
0.00448317
0.00454123
0.00559034
0.00606187
0.0059941
0.00555827
0.00455421
0.00462258
0.00566628
0.00613379
0.00606945
0.00563874
0.00464146
0.00471563
0.00575429
0.00621658
0.00615472
0.00573017
0.00473788
0.00481509
0.00585044
0.00630678
0.00624605
0.00582788
0.0048384
0.0049169
0.00595154
0.00640216
0.00634125
0.00592902
0.00493972
0.00501801
0.00605448
0.00649996
0.00643746
0.00603052
0.00503896
0.00511563
0.00615622
0.00659727
0.00653202
0.00612957
0.00513346
0.00520733
0.00625422
0.00669162
0.0066227
0.00622388
0.0052211
0.00529125
0.00634637
0.00678099
0.00670768
0.00631157
0.00530024
0.00536598
0.00643102
0.00686374
0.00678555
0.00639123
0.00536976
0.00543077
0.00650695
0.00693863
0.00685528
0.00646324
0.00543096
0.0054855
0.00657338
0.00700491
0.00691979
0.00653277
0.00548568
0.00553009
0.00662983
0.00706212
0.00698923
0.00659747
0.00553024
0.00556489
0.00667675
0.00711051
0.00705203
0.00665218
0.00556503
0.00559066
0.0067147
0.00715055
0.00710538
0.00669713
0.00559078
0.00560847
0.00674449
0.00718294
0.00714954
0.00673292
0.00560854
0.00561965
0.0067673
0.00720879
0.0071852
0.00676045
0.00561958
0.00562544
0.0067841
0.00722897
0.00721356
0.006781
0.00562526
0.00562678
0.00679542
0.0072437
0.00723468
0.0067951
0.00562654
0.00562582
0.00680412
0.0072563
0.00725183
0.00680548
0.0056254
0.00562263
0.00680977
0.00726568
0.00726186
0.00681021
0.00562113
0.00561704
0.00681071
0.00726893
0.00727351
0.00681677
0.00561772
0.00561154
0.00681342
0.00727664
0.00727623
0.00681387
0.0056088
0.00560208
0.00680604
0.00727269
0.00727877
0.00681157
0.00560139
0.00559412
0.00680482
0.00727615
0.00728766
0.00681527
0.00559681
0.00558911
0.00680766
0.0072831
0.00729075
0.00681405
0.00558929
0.0055806
0.00680139
0.00727879
0.00728932
0.00680936
0.00558089
0.00557221
0.00679613
0.00727805
0.0072889
0.00680349
0.00557245
0.00556343
0.00678802
0.00727206
0.00728072
0.00679408
0.00556277
0.00555566
0.00678364
0.00727058
0.00727951
0.00679025
0.00555584
0.00554934
0.00678341
0.00727295
0.00728607
0.00679291
0.00555165
0.00554449
0.00678196
0.00727535
0.00727486
0.00677819
0.00553613
0.00552584
0.00675348
0.00724635
0.00721837
0.00671884
0.00548221
0.00546875
0.00668973
0.00719047
0.0070534
0.00652488
0.00531161
0.00541499
0.00662443
0.00711359
0.006813
0.006264
0.00506764
0.0055961
0.00684185
0.00730656
0.00731625
0.00661556
0.00526284
0.00650853
0.00810654
0.00880864
0.00956486
0.00847928
0.00655654
0.00821713
0.01193
0.0149486
0.0140225
0.0182183
0.0155648
0.0146083
0.0139318
0.0137444
0.0136292
0.0136568
0.0136641
0.0136876
0.0136997
0.0137555
0.0138592
0.0140256
0.0143921
0.0152784
0.0195505
0.0279
0.0299276
0.0272865
0.025827
0.023579
0.0210907
0.0180795
0.0124534
0.0110402
0.0165367
0.0198821
0.0177663
0.015472
0.0105749
0.00877739
0.0129457
0.0150946
0.0141059
0.0123409
0.0084781
0.0078417
0.011554
0.0133517
0.0131171
0.0114411
0.00774363
0.00761684
0.0112338
0.0129496
0.0129613
0.0112295
0.00760991
0.00760786
0.0112249
0.0129422
0.0129521
0.0112337
0.0076233
0.00763189
0.0112419
0.0129581
0.0129672
0.0112501
0.00763975
0.00764111
0.0112373
0.0129606
0.0129948
0.0112902
0.00766455
0.007665
0.0112742
0.0129868
0.0129947
0.0112837
0.00767483
0.00767687
0.0112702
0.0129753
0.0130361
0.011313
0.00769392
0.0077116
0.0113217
0.0130158
0.013025
0.0113102
0.00770732
0.00772414
0.0113178
0.0130051
0.0130662
0.0113505
0.00773438
0.00775174
0.0113586
0.0130465
0.0130564
0.0113473
0.00774789
0.0077688
0.0113611
0.0130392
0.013101
0.0113937
0.00777892
0.00779575
0.0114005
0.0130803
0.0130893
0.0113892
0.007792
0.00781028
0.0113981
0.0130701
0.0131319
0.0114316
0.00782167
0.00784098
0.0114418
0.0131127
0.0131231
0.0114308
0.00783736
0.00785434
0.0114373
0.0131044
0.013167
0.0114721
0.00786654
0.00788702
0.0114843
0.0131481
0.0131579
0.011485
0.00789132
0.0078941
0.011471
0.0131398
0.0132035
0.0115174
0.0079146
0.00793514
0.011529
0.0131856
0.0131961
0.0115293
0.0079393
0.00794248
0.0115162
0.0131776
0.01324
0.0115615
0.00796226
0.00798249
0.0115723
0.0132211
0.0132318
0.0115725
0.00798678
0.0079904
0.01156
0.0132152
0.0132812
0.0116088
0.0080119
0.00803323
0.0116221
0.0132651
0.0132771
0.0116222
0.00803706
0.00804069
0.0116107
0.0132593
0.0133222
0.0116564
0.0080598
0.0080773
0.0116632
0.0133026
0.0133146
0.0116645
0.00808196
0.00808757
0.0116564
0.0133006
0.0133683
0.0117047
0.00810736
0.0081276
0.011718
0.0133539
0.0133696
0.0117222
0.00813241
0.00813591
0.0117131
0.0133556
0.0134221
0.01176
0.00815359
0.0081716
0.0117716
0.0134064
0.0134216
0.011775
0.00817511
0.00817855
0.0117677
0.0134101
0.0134803
0.0118184
0.00819715
0.00821547
0.0118338
0.0134691
0.013488
0.0118278
0.00820959
0.00822728
0.0118448
0.0134795
0.0135542
0.0118876
0.00823725
0.00825422
0.0119058
0.0135468
0.0135684
0.0119014
0.00824617
0.0082625
0.0119205
0.0135621
0.0136417
0.0119676
0.00827233
0.00828953
0.0119901
0.0136389
0.0136664
0.0120051
0.00829162
0.00829126
0.0120039
0.0136663
0.0137535
0.0120706
0.00831222
0.00833303
0.0121024
0.0137585
0.0137923
0.0121194
0.00833511
0.00834106
0.0121297
0.0138027
0.0139026
0.0122121
0.00837093
0.0084034
0.0122616
0.0139191
0.0139635
0.0122788
0.00840791
0.00844393
0.0123258
0.0139821
0.0140906
0.0124112
0.00848245
0.00853449
0.0124759
0.0141203
0.0141798
0.0125175
0.00856662
0.00863287
0.012591
0.0142344
0.0143361
0.0126698
0.00869065
0.0087733
0.0127589
0.0143951
0.0144841
0.0128883
0.00888509
0.0089864
0.0129847
0.0145704
0.0146699
0.0131104
0.00911859
0.00926495
0.0132374
0.014777
0.0149181
0.0134052
0.00945396
0.00970061
0.0136311
0.0150649
0.0152136
0.0138177
0.00994757
0.0101142
0.0139238
0.0152694
0.0154182
0.0139773
0.0102675
0.0105974
0.0142537
0.0155032
0.0155921
0.0143003
0.0106669
0.0109041
0.0144025
0.0156437
0.0157739
0.0145718
0.0111262
0.0113663
0.0146669
0.0158767
0.0161281
0.0150391
0.0117601
0.0119669
0.0151477
0.0162261
0.0165878
0.015565
0.0124884
0.0126595
0.0156485
0.0166605
0.016766
0.0162134
0.0135382
0.0131572
0.0150021
0.0146388
0.0436066
0.032088
0.0187957
0.0132237
0.0210654
0.0286513
0.0191816
0.0170513
0.0119457
0.0110709
0.015074
0.0163623
0.0157468
0.0147093
0.0110936
0.0112022
0.01496
0.0162602
0.0160192
0.0148716
0.0113838
0.0118593
0.0153488
0.0165142
0.0162389
0.0151591
0.0120308
0.0127594
0.015956
0.0169753
0.0168558
0.0158162
0.0129171
0.0137213
0.0164201
0.0171798
0.0149971
0.0153736
0.0136651
0.0190215
0.0312364
0.0422125
0.0294792
0.0225496
0.0151946
0.0137752
0.018438
0.0201325
0.0179775
0.0168323
0.013271
0.0132303
0.0164124
0.0174646
0.0172585
0.0163097
0.0134569
0.0135954
0.0163052
0.0171689
0.0171051
0.0165561
0.0141638
0.0137786
0.0150514
0.0144228
0.0420908
0.0314532
0.0193782
0.0146202
0.0223144
0.0299097
0.0200177
0.0183241
0.0141864
0.0137766
0.0167963
0.0174928
0.0168073
0.0162332
0.0137817
0.0141989
0.0165241
0.0170882
0.0147033
0.0153947
0.0141431
0.019331
0.0308217
0.0409686
0.030001
0.0232753
0.0162426
0.0152455
0.0192813
0.0206703
0.0184306
0.017438
0.0145236
0.0148569
0.0170603
0.0175326
0.0142332
0.0150918
0.0142249
0.0197941
0.0308604
0.040784
0.029553
0.0233882
0.016746
0.0150396
0.0185067
0.0197292
0.0172897
0.0169001
0.0146562
0.0144341
0.0152764
0.0144453
0.0390043
0.0296337
0.0192887
0.0171259
0.0234689
0.0294675
0.0201234
0.0188166
0.0154388
0.0149629
0.0169657
0.0174744
0.0135426
0.0146745
0.0144731
0.0193708
0.0288805
0.0366063
0.0275048
0.0221376
0.0164222
0.014702
0.0156753
0.0149862
0.0341886
0.02721
0.0184076
0.0149708
0.0207209
0.0260789
0.0131553
0.0139819
0.0133441
0.0156145
0.0218047
0.0260615
0.0138547
0.0128603
0.0109722
0.0110485
0.0161005
0.0195649
0.00483242
0.00459605
0.00428172
0.00562701
0.00911613
0.0111738
0.0138936
0.0120665
0.00869538
0.0142753
0.0170871
0.0185974
0.0224094
0.0213083
0.0188426
0.0206858
0.021922
0.0215729
0.0370709
0.032191
0.0244734
0.0252098
0.0330959
0.038306
0.0373841
0.0329305
0.0255895
0.0269528
0.0365338
0.0428525
0.0267052
0.0268993
0.023548
0.0268187
0.036672
0.0452038
0.048703
0.0384245
0.0266032
0.0242021
0.0318979
0.0367662
0.0452893
0.0370827
0.0262681
0.0221297
0.0254176
0.0257709
0.0429513
0.033798
0.0240821
0.0259741
0.0384373
0.0489182
0.0251553
0.0249872
0.0215072
0.0234455
0.0333168
0.042091
0.048728
0.038186
0.0254746
0.0206549
0.0238239
0.024469
0.0414609
0.0321481
0.0225852
0.0249973
0.0377036
0.0485425
0.0245708
0.0243219
0.0207578
0.0227728
0.0322895
0.0412034
0.0483668
0.0376188
0.0250895
0.0207309
0.0241348
0.0243218
0.0409561
0.0322218
0.0225343
0.0247118
0.0374168
0.0480593
0.024415
0.0240629
0.0205555
0.0223981
0.031911
0.0407138
0.0479924
0.0372175
0.0246159
0.0200029
0.0232496
0.0238507
0.0395402
0.0306987
0.0216495
0.0243861
0.0369965
0.0475115
0.0211572
0.0212844
0.019034
0.0202167
0.0257135
0.028086
0.0401669
0.0315923
0.0223604
0.0233249
0.0361412
0.0476759
0.0228139
0.0227231
0.0193886
0.0204258
0.0306903
0.0405036
0.0473511
0.0365126
0.0236327
0.0196258
0.023363
0.0237497
0.0403926
0.0317747
0.0221104
0.0237658
0.0367961
0.0475814
0.0234725
0.0230037
0.0194997
0.0206741
0.0309272
0.0409071
0.0478065
0.0367691
0.0237508
0.0195453
0.023258
0.023958
0.0410078
0.0309977
0.020659
0.0238666
0.0368338
0.0477738
0.0237542
0.0232821
0.0194927
0.0225116
0.0321752
0.0405535
0.0478401
0.0368508
0.0240077
0.0199066
0.0238965
0.0243035
0.0411038
0.0323835
0.0227678
0.0242581
0.0370496
0.0481361
0.0244759
0.024171
0.0201755
0.0234519
0.0333436
0.0423284
0.0475283
0.036696
0.0241094
0.0217681
0.0297849
0.0350897
0.0443668
0.0359232
0.0244375
0.020806
0.0246814
0.0254113
0.0418192
0.0326619
0.0227027
0.0248672
0.0376474
0.0482757
0.0250752
0.0243667
0.0204619
0.0225086
0.0325262
0.0414928
0.048494
0.0378909
0.0249161
0.0204346
0.0239654
0.0247815
0.0421959
0.0325326
0.0225569
0.0249445
0.0379247
0.048847
0.0253568
0.0248856
0.020877
0.0229648
0.033153
0.0425459
0.0492125
0.0382306
0.025313
0.0212711
0.0252304
0.0257275
0.0442921
0.0350378
0.0247382
0.0251633
0.0378881
0.0490358
0.0371785
0.0317255
0.0231455
0.0250413
0.0366354
0.045195
0.0263957
0.0255321
0.0213948
0.0237134
0.0343094
0.04385
0.0499548
0.0390782
0.0258095
0.0217765
0.025896
0.0263861
0.0455182
0.0360141
0.0251322
0.0256654
0.0385782
0.0498861
0.0376625
0.0318884
0.0235145
0.0258633
0.037534
0.0462034
0.0273714
0.026499
0.0222919
0.0244705
0.0350153
0.0448998
0.0510074
0.0398668
0.0266095
0.0225366
0.0266998
0.0271454
0.0465521
0.0367182
0.025785
0.0262921
0.0392446
0.0505589
0.0386622
0.0328068
0.024115
0.0264094
0.0382352
0.0469025
0.027712
0.0269258
0.0228618
0.0249791
0.0359611
0.0462208
0.0519981
0.0411441
0.0274043
0.0229893
0.026904
0.0276338
0.04862
0.0365779
0.0242081
0.02671
0.0405665
0.0519146
0.0396538
0.0333807
0.0245378
0.0271765
0.039267
0.0478366
0.0288728
0.0278299
0.0235033
0.0265866
0.037938
0.0488329
0.0524851
0.0411006
0.0276373
0.0255658
0.0345483
0.0407084
0.0487691
0.0399229
0.0279098
0.0238693
0.0281734
0.0292369
0.0497264
0.0381094
0.0260769
0.0277721
0.0413937
0.0528468
0.0412366
0.0349157
0.0258806
0.0284531
0.0404796
0.0493931
0.0300409
0.0289812
0.0245003
0.0265876
0.0388357
0.0509495
0.0540725
0.0425033
0.0286262
0.0264883
0.0356125
0.0421093
0.0501768
0.0412285
0.0288955
0.0248886
0.0292957
0.0303155
0.0510389
0.0399117
0.0277306
0.029054
0.0430372
0.054607
0.0429667
0.0363285
0.0268926
0.0291665
0.0416046
0.0508923
0.0311359
0.0303562
0.0256751
0.026898
0.0405086
0.0533733
0.0554387
0.0436855
0.0288843
0.0276665
0.0378347
0.0451867
0.0508206
0.0417092
0.0294072
0.027405
0.0370535
0.0435328
0.0508848
0.0421451
0.0296977
0.0261857
0.0311069
0.0321768
0.0537015
0.0417354
0.0291844
0.0304586
0.0447745
0.0565717
0.0450538
0.038128
0.0282985
0.030481
0.0434493
0.0524907
0.0322353
0.031457
0.0267992
0.0280097
0.041991
0.0555292
0.0573877
0.0451028
0.0298433
0.0285028
0.0390287
0.0469545
0.0526586
0.0430105
0.0302271
0.0286438
0.0384766
0.0454492
0.0530259
0.0439924
0.031352
0.0272247
0.0322828
0.0334841
0.0562636
0.0443584
0.0312031
0.0317699
0.0463816
0.058667
0.0485289
0.0406163
0.0296818
0.031274
0.0442362
0.0538258
0.0471023
0.0399965
0.0297825
0.0317496
0.044708
0.0537431
0.034212
0.033027
0.0279337
0.0302278
0.0441617
0.0577125
0.0594135
0.0469921
0.0318436
0.0305182
0.041604
0.0495751
0.0551101
0.0454568
0.0321728
0.0305662
0.0408536
0.047905
0.0552441
0.0461434
0.0329022
0.0289044
0.0341338
0.0352193
0.0586446
0.0459802
0.0322619
0.0332912
0.0483173
0.0607781
0.0505541
0.0422661
0.0308867
0.0327382
0.0460861
0.0558723
0.0491627
0.0415614
0.0309825
0.0337829
0.0470159
0.0562998
0.0358934
0.0346761
0.0294872
0.0338402
0.0478802
0.0602761
0.0620155
0.0491405
0.0341463
0.0320066
0.0438884
0.0520095
0.0574922
0.0474546
0.0335069
0.0321282
0.0430424
0.0503758
0.0577121
0.0481161
0.0345281
0.0301014
0.0354815
0.036651
0.0614252
0.0485789
0.0345495
0.0350336
0.0501895
0.0631978
0.0533226
0.0448635
0.0330368
0.0347122
0.0485284
0.058533
0.0537729
0.0454097
0.0332965
0.0349933
0.0485846
0.0585747
0.0523441
0.0444966
0.033094
0.0357805
0.0497292
0.0591411
0.0385305
0.0373218
0.0315706
0.0337903
0.049364
0.064371
0.0652268
0.0515692
0.0349831
0.0338647
0.0460825
0.0549559
0.0595031
0.0493925
0.0353834
0.0339948
0.0460262
0.054966
0.0599017
0.0498356
0.0360988
0.0341109
0.045695
0.0535172
0.0608414
0.0510294
0.036853
0.0322381
0.0379771
0.0392739
0.0655786
0.0522372
0.0370558
0.0373813
0.0534921
0.0667072
0.0566406
0.0477367
0.0351966
0.0367682
0.0511172
0.0617308
0.0568326
0.0481545
0.0353351
0.0370394
0.0513156
0.0614557
0.0552219
0.0470458
0.0352209
0.0378073
0.0521065
0.0623959
0.0406377
0.0392091
0.0331729
0.0382606
0.0537772
0.0674196
0.0685898
0.0547248
0.0385944
0.0362471
0.0490637
0.0583597
0.0631181
0.0523413
0.0378086
0.0366691
0.0496334
0.0588249
0.0633825
0.0528607
0.0383313
0.0362573
0.048167
0.0567842
0.0642335
0.0537904
0.0391772
0.0344865
0.0402942
0.0413134
0.0702923
0.0537575
0.0364678
0.0380569
0.0564123
0.0710128
0.0601367
0.0502433
0.0369982
0.0389605
0.0543339
0.0651891
0.0608201
0.0512051
0.0378543
0.0394937
0.0541901
0.0646848
0.0612591
0.0512934
0.0378129
0.0400129
0.0547521
0.0655061
0.0597831
0.0507382
0.0379433
0.0405277
0.0556814
0.06638
0.0431814
0.0417929
0.0357083
0.0415509
0.057454
0.0721536
0.0728051
0.0584252
0.0420349
0.0388072
0.0525305
0.0621089
0.0671061
0.0560733
0.0403672
0.039193
0.0527715
0.0624165
0.0667034
0.0559751
0.040906
0.0392803
0.0529926
0.0627635
0.0677268
0.0565461
0.0413951
0.039277
0.0519397
0.0613218
0.0689671
0.057837
0.0424068
0.0369665
0.0431535
0.0447704
0.07488
0.0593228
0.0421933
0.04299
0.0609358
0.0757685
0.0647641
0.0550188
0.0408398
0.0423676
0.0583591
0.0698726
0.0649469
0.0551493
0.0409529
0.0426114
0.0580659
0.0692456
0.0656243
0.0554164
0.0411332
0.0431142
0.0587716
0.0700084
0.0640662
0.0541495
0.0407397
0.0437873
0.0596862
0.0709922
0.0464219
0.0451219
0.0385494
0.0443122
0.061741
0.0770741
0.0782833
0.0627089
0.0447754
0.0419721
0.0564933
0.0668614
0.0722867
0.0597481
0.0434929
0.0422435
0.0568697
0.0672623
0.0714505
0.0602279
0.0441097
0.0423623
0.0570076
0.0679696
0.072831
0.0611195
0.0446306
0.0423664
0.0561592
0.0657222
0.0738721
0.0624813
0.0455771
0.0399919
0.0464771
0.0478726
0.0806105
0.0636746
0.045643
0.0460755
0.0648994
0.0816244
0.0695214
0.0589047
0.0437758
0.0455036
0.0626532
0.0750546
0.0699345
0.0588785
0.0439234
0.0458752
0.062171
0.0743097
0.0706223
0.0594707
0.0441864
0.0464015
0.0630025
0.0750016
0.0688009
0.0584865
0.0441731
0.0473127
0.0644935
0.076357
0.0496857
0.0482877
0.0415724
0.0480952
0.0665326
0.0832831
0.0843334
0.0676687
0.04887
0.0455546
0.0610854
0.0720076
0.0775547
0.0649554
0.0472834
0.0456767
0.0614194
0.0724844
0.0771972
0.0648519
0.0475516
0.0459025
0.0617765
0.0732746
0.0777838
0.0655068
0.0482479
0.0462834
0.0619991
0.0733911
0.0786983
0.0662348
0.0488816
0.0461346
0.0606101
0.0711855
0.0800075
0.0674071
0.049826
0.0437092
0.0505473
0.0520116
0.0874654
0.0682746
0.0483391
0.0498044
0.0710168
0.0883531
0.0753443
0.0636592
0.0476556
0.0496324
0.0680871
0.0814584
0.0758133
0.0642699
0.0480853
0.0502654
0.0681877
0.0808006
0.0763602
0.0645944
0.048518
0.0508104
0.068538
0.0819258
0.0741378
0.0632241
0.0480811
0.0514177
0.0697541
0.0827677
0.0544392
0.0527765
0.0454903
0.051374
0.0718058
0.0907424
0.0916219
0.0738311
0.0522557
0.0495294
0.0661296
0.0780824
0.0839582
0.0699702
0.0514018
0.0497704
0.0665455
0.0785745
0.0836591
0.0705191
0.0519614
0.0502287
0.0669758
0.0789835
0.0846639
0.0713132
0.0526314
0.0500086
0.0655979
0.076763
0.0861993
0.0730171
0.0537106
0.0471187
0.0543973
0.0558438
0.0944752
0.0738425
0.0524553
0.0539472
0.0765609
0.0952279
0.0811082
0.0685183
0.0514721
0.0535833
0.0732334
0.0876996
0.0815666
0.0691125
0.0518996
0.0543244
0.0733242
0.0872944
0.082149
0.0694727
0.0521655
0.0548638
0.0740659
0.0882523
0.079861
0.0681892
0.0520555
0.0558515
0.0755105
0.0892181
0.0586941
0.0570222
0.0492902
0.0554807
0.0773242
0.0981092
0.099081
0.0794461
0.0568325
0.0541329
0.0717735
0.0845125
0.0907025
0.0761574
0.0561309
0.0542364
0.0719663
0.0847705
0.0906982
0.0762634
0.0566433
0.0543706
0.0722421
0.0851347
0.091682
0.077301
0.0572233
0.0539064
0.070552
0.0825327
0.0932256
0.0789921
0.0581873
0.0511282
0.0588243
0.0603935
0.101425
0.0798426
0.0571707
0.0587166
0.0825831
0.102992
0.0874166
0.0741324
0.056075
0.0585164
0.0793911
0.0950798
0.0880934
0.0748816
0.0565931
0.0592639
0.0796135
0.0947782
0.0862513
0.0738198
0.0564018
0.0598565
0.0812643
0.0963583
0.0622291
0.0607368
0.0528615
0.0603449
0.083596
0.104851
0.106208
0.0856533
0.0611116
0.0577112
0.0764781
0.0901458
0.0980669
0.0816214
0.0599787
0.058053
0.0767775
0.0901886
0.0980887
0.0824021
0.0609723
0.0577302
0.0753852
0.0879857
0.0996083
0.0842626
0.0622184
0.0545902
0.0625738
0.0639028
0.109252
0.0849102
0.0600438
0.0622672
0.0887919
0.11062
0.0936628
0.0792059
0.0598452
0.0626988
0.0853599
0.101878
0.0940609
0.080071
0.0604373
0.0628823
0.0850362
0.101427
0.0918755
0.0785323
0.0600988
0.0643571
0.0870441
0.103236
0.0659932
0.0645087
0.0562232
0.0649698
0.089464
0.112038
0.114063
0.0915916
0.0658391
0.0615791
0.0816677
0.0961827
0.104913
0.0880659
0.0645723
0.0623025
0.0822277
0.0964662
0.105091
0.0881869
0.065252
0.0618422
0.080625
0.0940369
0.107013
0.0905293
0.0667521
0.0585623
0.0669818
0.0684755
0.116912
0.0925433
0.0665544
0.0680143
0.0960415
0.119413
0.100035
0.0850682
0.0643499
0.0672622
0.0913652
0.109618
0.100297
0.0853022
0.0644832
0.0675103
0.0914335
0.108878
0.0978568
0.0837813
0.0641857
0.06885
0.0931247
0.110449
0.0705912
0.0690029
0.0603098
0.0679786
0.0944165
0.119486
0.122882
0.0983059
0.0699348
0.06635
0.0871778
0.102378
0.113519
0.0946816
0.0696517
0.0660692
0.0856179
0.0992934
0.114616
0.0967697
0.0711046
0.0627412
0.071443
0.0726395
0.124195
0.0989881
0.0717078
0.0729304
0.102761
0.127774
0.106171
0.090228
0.0685029
0.0717487
0.0972093
0.116727
0.10621
0.0904618
0.0686363
0.0724091
0.0979929
0.116624
0.103404
0.0887336
0.0683804
0.0738942
0.0997986
0.118575
0.0760105
0.0741382
0.0645262
0.0725391
0.100573
0.127527
0.130815
0.105122
0.0747158
0.0709509
0.0930723
0.109277
0.1216
0.101486
0.074459
0.0710163
0.0914446
0.105964
0.122747
0.103546
0.0771044
0.0674478
0.0764658
0.0774851
0.131082
0.103436
0.0744081
0.0773197
0.109027
0.135581
0.111873
0.0951456
0.0725932
0.0771694
0.104661
0.12551
0.108245
0.0931008
0.0720079
0.0780819
0.105889
0.125752
0.0797019
0.0778464
0.0679214
0.0765588
0.105671
0.133657
0.140134
0.112175
0.0797935
0.0738362
0.0950789
0.110461
0.130391
0.10926
0.08012
0.0697809
0.0789673
0.0799353
0.138941
0.109479
0.0789861
0.0824601
0.115957
0.143883
0.11898
0.101818
0.0779174
0.0811586
0.110629
0.132686
0.114839
0.0989428
0.0765676
0.0818009
0.111276
0.132538
0.0826687
0.0813102
0.0716488
0.0798415
0.110501
0.140022
0.147512
0.117811
0.0834609
0.0770533
0.0994403
0.115484
0.137411
0.115066
0.0837727
0.0724912
0.0820039
0.0830856
0.144037
0.113602
0.0818553
0.0859403
0.121805
0.152119
0.120582
0.103807
0.0804551
0.087077
0.118767
0.142169
0.0851389
0.0847864
0.0756042
0.0832525
0.115926
0.147547
0.156757
0.125196
0.0880033
0.081086
0.104464
0.1211
0.144804
0.120995
0.0880018
0.0759828
0.0856515
0.086542
0.150556
0.11866
0.0855349
0.0898079
0.127429
0.160156
0.125074
0.107738
0.0833007
0.0901126
0.124235
0.148542
0.0885061
0.0880124
0.0781823
0.088169
0.122252
0.155272
0.166786
0.134201
0.095041
0.0877711
0.112167
0.128537
0.153917
0.128346
0.093327
0.0803218
0.0900632
0.0907578
0.158005
0.12386
0.0890703
0.0940248
0.133879
0.168385
0.130452
0.112146
0.0870017
0.0943312
0.129907
0.156623
0.0925874
0.0919496
0.081796
0.0919578
0.126757
0.16031
0.173024
0.138708
0.0978172
0.0896344
0.114541
0.132217
0.163187
0.136186
0.0993871
0.0857277
0.0950558
0.0950946
0.161048
0.128922
0.0947314
0.100841
0.144147
0.180005
0.0949211
0.0943278
0.0846057
0.0941534
0.130664
0.166334
0.180198
0.143276
0.100092
0.0917088
0.117407
0.13604
0.167067
0.13893
0.100734
0.0864745
0.09696
0.0977832
0.164105
0.13078
0.0961935
0.104881
0.150227
0.18759
0.096451
0.0970517
0.0882871
0.0993145
0.134971
0.170003
0.19425
0.154259
0.108055
0.0888702
0.0983811
0.0983069
0.176049
0.138416
0.0995977
0.107207
0.153868
0.194194
0.143683
0.124344
0.09731
0.107664
0.149135
0.179303
0.103168
0.102503
0.0916536
0.101993
0.137544
0.171791
0.200319
0.160184
0.112287
0.0937189
0.102631
0.102239
0.177659
0.141976
0.105296
0.114382
0.163551
0.205483
0.103195
0.103069
0.0933115
0.10362
0.140281
0.175601
0.207611
0.164712
0.11454
0.0937741
0.10343
0.103476
0.177384
0.141637
0.104728
0.116099
0.167362
0.210366
0.10591
0.10605
0.0960996
0.107683
0.144685
0.18108
0.218035
0.173873
0.121233
0.093922
0.0975143
0.0926736
0.123305
0.115115
0.0980091
0.105961
0.145136
0.1849
0.224907
0.175075
0.119177
0.0960567
0.104726
0.103586
0.182796
0.144811
0.107023
0.12337
0.17966
0.227945
0.092738
0.0977546
0.0957309
0.105582
0.12289
0.130172
0.191632
0.150434
0.109568
0.123544
0.183283
0.236771
0.0933657
0.0977994
0.0939557
0.100461
0.118709
0.127759
0.190311
0.150573
0.110942
0.129789
0.19132
0.243116
0.092143
0.0990558
0.0976839
0.106395
0.123691
0.13001
0.190203
0.148469
0.108254
0.12786
0.190599
0.246705
0.0911078
0.0965748
0.0942923
0.0986375
0.110656
0.114218
0.130048
0.120848
0.10445
0.110927
0.154225
0.198737
0.248761
0.190367
0.125089
0.0906363
0.0935321
0.0891146
0.103871
0.102258
0.092572
0.0916257
0.100273
0.102531
0.107727
0.10559
0.0937358
0.0928904
0.111919
0.120007
0.177613
0.13435
0.0938544
0.123542
0.190348
0.249842
0.0842397
0.0896165
0.0875962
0.0868117
0.0961862
0.0967329
0.0918409
0.0881656
0.0776714
0.0764514
0.0875602
0.0900342
0.0868124
0.0833799
0.0707455
0.0662383
0.0796242
0.0837075
0.0806778
0.076074
0.0619084
0.0590289
0.0737649
0.0788264
0.0768791
0.0715933
0.0563794
0.054196
0.0698131
0.0755534
0.0741762
0.0681623
0.0522467
0.0505917
0.0667664
0.0731441
0.0721018
0.0654653
0.0490934
0.0477268
0.0642451
0.0712065
0.0703385
0.0632151
0.0465692
0.0453346
0.0620002
0.0695291
0.068601
0.0609607
0.0442887
0.0433386
0.0599831
0.0678605
0.0670661
0.0590596
0.0424745
0.041691
0.0581944
0.066388
0.0656521
0.0573767
0.0409783
0.040334
0.056612
0.0650283
0.0643438
0.0558887
0.03975
0.0392252
0.0552139
0.0637672
0.0631283
0.0545756
0.0387511
0.0383271
0.0539807
0.0625938
0.0619944
0.0534168
0.0379452
0.0376067
0.0528934
0.0614974
0.060936
0.0523978
0.0373039
0.0370376
0.0519397
0.0604752
0.0599483
0.0515048
0.0367993
0.0365917
0.0511045
0.0595209
0.059028
0.0507241
0.0364068
0.0362479
0.0503752
0.0586339
0.0581744
0.0500419
0.0361066
0.0359872
0.0497368
0.057813
0.057386
0.0494441
0.0358813
0.0357937
0.0491773
0.0570563
0.0566606
0.04892
0.0357161
0.0356538
0.0486869
0.0563613
0.0559957
0.0484606
0.0355987
0.0355564
0.048257
0.0557259
0.0553897
0.048058
0.0355187
0.0354918
0.04788
0.0551479
0.0548386
0.0477042
0.0354673
0.0354522
0.047548
0.0546233
0.05434
0.0473961
0.0354439
0.0354378
0.0472581
0.0541496
0.0538895
0.0471241
0.0354387
0.035438
0.0470016
0.0537223
0.0534852
0.0468826
0.0354426
0.0354441
0.0467739
0.0533395
0.0531217
0.0466678
0.0354508
0.0354538
0.0465718
0.0529951
0.052797
0.0464779
0.035461
0.0354636
0.0463929
0.052688
0.0525053
0.0463092
0.0354709
0.0354736
0.0462343
0.0524118
0.0522456
0.0461604
0.0354801
0.0354814
0.0460942
0.0521663
0.0520117
0.0460281
0.0354878
0.0354893
0.0459701
0.0519446
0.0518044
0.0459124
0.0354948
0.0354946
0.0458615
0.0517492
0.0516184
0.0458097
0.0354989
0.0354985
0.0457648
0.0515717
0.0514523
0.0457194
0.0355018
0.0354998
0.0456799
0.0514146
0.0513023
0.0456391
0.0355023
0.0355003
0.0456044
0.0512716
0.0511686
0.0455686
0.0355021
0.035499
0.0455376
0.051145
0.0510472
0.0455047
0.0355003
0.0354974
0.045477
0.0510286
0.0509383
0.0454477
0.0354981
0.0354941
0.0454228
0.0509254
0.0508386
0.0453956
0.0354944
0.0354906
0.0453732
0.0508294
0.0507489
0.0453492
0.0354905
0.0354863
0.0453294
0.0507442
0.0506663
0.0453066
0.0354853
0.0354813
0.0452888
0.0506644
0.0505921