/*--------------------------------*- C++ -*----------------------------------*\
| =========                 |                                                 |
| \\      /  F ield         | OpenFOAM: The Open Source CFD Toolbox           |
|  \\    /   O peration     | Version:  v2006                                 |
|   \\  /    A nd           | Website:  www.openfoam.com                      |
|    \\/     M anipulation  |                                                 |
\*---------------------------------------------------------------------------*/
FoamFile
{
    version     2.0;
    format      ascii;
    class       surfaceScalarField;
    location    "0.129";
    object      phi;
}
// * * * * * * * * * * * * * * * * * * * * * * * * * * * * * * * * * * * * * //

dimensions      [1 0 -1 0 0 0 0];
oriented        oriented;


internalField   nonuniform List<scalar> 
32242
(
-2.61592e-05
-0.00135439
0.00133511
4.55311e-05
-0.00127012
0.0012439
8.3495e-06
7.76995e-05
-3.49425e-06
0.00146284
3.80297e-05
0.00159993
-3.29047e-05
0.00165138
-3.66613e-06
0.00169139
-1.63725e-05
0.00168406
-2.32842e-06
0.00168002
-2.42974e-06
0.00166947
-4.47233e-07
0.00166257
-1.01564e-06
0.00165676
-1.15362e-06
0.0016531
-1.27967e-06
0.00164974
-1.48012e-06
0.00164692
-1.51059e-06
0.00164385
-1.61901e-06
0.00164092
-1.72344e-06
0.00163778
-1.82387e-06
0.0016345
-1.92035e-06
0.00163109
-2.01306e-06
0.00162755
-2.10233e-06
0.00162388
-2.18855e-06
0.00162008
-2.27208e-06
0.00161616
-2.3532e-06
0.00161211
-2.43211e-06
0.00160794
-2.50893e-06
0.00160365
-2.58368e-06
0.00159924
-2.65635e-06
0.00159472
-2.72687e-06
0.00159008
-2.79516e-06
0.00158533
-2.86109e-06
0.00158047
-2.92456e-06
0.00157551
-2.98542e-06
0.00157045
-3.04354e-06
0.0015653
-3.09878e-06
0.00156005
-3.151e-06
0.00155472
-3.20006e-06
0.00154931
-3.24584e-06
0.00154383
-3.28821e-06
0.00153827
-3.32706e-06
0.00153265
-3.36227e-06
0.00152697
-3.39374e-06
0.00152124
-3.42135e-06
0.00151546
-3.44501e-06
0.00150964
-3.46463e-06
0.00150378
-3.48012e-06
0.0014979
-3.49139e-06
0.00149199
-3.49835e-06
0.00148606
-3.50094e-06
0.00148013
-3.4991e-06
0.00147419
-3.49279e-06
0.00146826
-3.48204e-06
0.00146234
-3.46671e-06
0.00145643
-3.44525e-06
0.00145055
-3.42002e-06
0.00144471
-3.39052e-06
0.0014389
-3.35617e-06
0.00143314
-3.31708e-06
0.00142744
-3.27322e-06
0.0014218
-3.22462e-06
0.00141622
-3.1713e-06
0.00141072
-3.11329e-06
0.00140531
-3.05059e-06
0.00139998
-2.98325e-06
0.00139476
-2.91125e-06
0.00138963
-2.83453e-06
0.00138462
-2.75298e-06
0.00137973
-2.66639e-06
0.00137495
-2.57445e-06
0.00137031
-2.47682e-06
0.0013658
-2.37315e-06
0.00136144
-2.26323e-06
0.00135722
-2.14696e-06
0.00135316
-2.02406e-06
0.00134927
-1.89332e-06
0.00134552
-1.75124e-06
0.00134191
-9.2196e-07
0.00133773
-1.39991e-06
0.00133426
-1.16976e-06
0.00132816
-2.89537e-06
0.00131955
-4.61647e-06
0.00130742
-1.96294e-05
0.00128696
-3.00953e-05
0.00126105
-8.36235e-05
0.00122473
-0.000143177
0.00120263
-0.000328503
0.00121428
-0.000736198
0.00140183
-0.000202563
0.000361197
2.04325e-05
0.000599542
4.44667e-06
0.000786408
-3.85986e-05
0.000696039
-1.24937e-05
0.000609995
-7.50921e-06
0.000220539
-4.58123e-06
0.000183625
0.000148435
8.5264e-06
0.000139909
1.73475e-05
0.000174804
0.000210944
2.69429e-05
-1.36292e-05
0.000203716
2.08568e-05
-6.80518e-06
0.00016798
0.000133104
2.50442e-06
0.000130599
4.12778e-06
0.000166357
0.000202481
5.36307e-06
-4.65156e-06
0.000200396
6.73662e-06
-2.87149e-06
0.000164577
0.000127728
1.54675e-06
0.000126181
2.02866e-06
0.000164095
0.000200281
2.1436e-06
-4.45897e-06
0.000198717
6.02264e-06
-2.60026e-06
0.000162236
0.000123581
1.26909e-06
0.000122312
1.1465e-06
0.000162358
0.000198482
1.38152e-06
-3.62733e-06
0.000197499
4.61058e-06
-1.77608e-06
0.000160507
0.000120536
4.71934e-07
0.000120064
3.54578e-07
0.000160625
0.00019786
-6.27465e-09
-2.83713e-06
0.00019616
4.53631e-06
-1.60636e-06
0.000159394
0.000118457
3.42446e-07
0.000118115
2.39677e-07
0.000159496
0.000196461
-6.07257e-08
-2.71693e-06
0.000195374
3.80386e-06
-1.48144e-06
0.000158261
0.000116633
2.51181e-07
0.000116382
1.48015e-07
0.000158364
0.00019564
-1.18424e-07
-2.62295e-06
0.000194523
3.74032e-06
-1.38806e-06
0.000157129
0.000114994
1.83389e-07
0.00011481
8.27086e-08
0.00015723
0.000194759
-1.53462e-07
-2.54963e-06
0.000193618
3.69072e-06
-1.31737e-06
0.000155997
0.000113493
1.32269e-07
0.000113361
2.73613e-08
0.000156102
0.000193833
-1.87625e-07
-2.48675e-06
0.000192676
3.64341e-06
-1.26186e-06
0.000154877
0.000112099
9.25798e-08
0.000112006
-1.27025e-08
0.000154983
0.000192872
-2.09098e-07
-2.43709e-06
0.000191704
3.60583e-06
-1.2211e-06
0.000153767
0.000110785
6.11264e-08
0.000110724
-4.21335e-08
0.00015387
0.000191883
-2.22077e-07
-2.39752e-06
0.000190701
3.57963e-06
-1.18739e-06
0.00015266
0.000109537
3.88324e-08
0.000109498
-6.15987e-08
0.00015276
0.000190867
-2.27456e-07
-2.36732e-06
0.000189673
3.5613e-06
-1.1601e-06
0.000151553
0.000108338
2.2857e-08
0.000108315
-7.47184e-08
0.000151651
0.000189825
-2.26386e-07
-2.34314e-06
0.00018862
3.54838e-06
-1.13783e-06
0.000150445
0.000107177
1.16391e-08
0.000107166
-8.11682e-08
0.000150538
0.000188757
-2.18046e-07
-2.32498e-06
0.00018754
3.54189e-06
-1.11993e-06
0.000149333
0.000106046
4.39407e-09
0.000106041
-8.17448e-08
0.000149419
0.000187661
-2.02893e-07
-2.31216e-06
0.000186432
3.54139e-06
-1.10574e-06
0.000148213
0.000104936
4.7809e-10
0.000104935
-7.72092e-08
0.000148291
0.000186536
-1.81592e-07
-2.30384e-06
0.000185294
3.54618e-06
-1.0946e-06
0.000147082
0.000103841
-1.13679e-09
0.000103842
-6.88784e-08
0.000147149
0.000185381
-1.55873e-07
-2.29902e-06
0.000184125
3.55502e-06
-1.08598e-06
0.000145936
0.000102756
-4.18376e-10
0.000102756
-5.69876e-08
0.000145993
0.000184194
-1.257e-07
-2.2973e-06
0.000182923
3.56777e-06
-1.0793e-06
0.000144775
0.000101677
2.10857e-09
0.000101675
-4.17497e-08
0.000144819
0.000182973
-9.10703e-08
-2.29853e-06
0.000181687
3.58443e-06
-1.07441e-06
0.000143595
0.000100601
6.37125e-09
0.000100594
-2.32572e-08
0.000143624
0.000181716
-5.19285e-08
-2.30265e-06
0.000180413
3.60517e-06
-1.07121e-06
0.000142393
9.9523e-05
1.19847e-08
9.9511e-05
-2.36759e-09
0.000142407
0.000180421
-9.64204e-09
-2.30856e-06
0.000179101
3.62808e-06
-1.06925e-06
0.000141168
9.84418e-05
1.98821e-08
9.8422e-05
2.2627e-08
0.000141165
0.000179084
3.93521e-08
-2.31636e-06
0.000177748
3.65306e-06
-1.06836e-06
0.000139918
9.73537e-05
2.92397e-08
9.73245e-05
5.0454e-08
0.000139896
0.000177706
9.25386e-08
-2.32668e-06
0.000176351
3.68162e-06
-1.06879e-06
0.000138639
9.62558e-05
4.0015e-08
9.62158e-05
8.11016e-08
0.000138598
0.000176282
1.4985e-07
-2.33945e-06
0.000174908
3.71374e-06
-1.07052e-06
0.000137329
9.51454e-05
5.2244e-08
9.50932e-05
1.14642e-07
0.000137266
0.000174811
2.11496e-07
-2.35454e-06
0.000173417
3.74923e-06
-1.07346e-06
0.000135985
9.40198e-05
6.58923e-08
9.39539e-05
1.51022e-07
0.0001359
0.00017329
2.77466e-07
-2.37184e-06
0.000171874
3.78796e-06
-1.07755e-06
0.000134606
9.28764e-05
8.08962e-08
9.27956e-05
1.90142e-07
0.000134497
0.000171717
3.47657e-07
-2.39118e-06
0.000170278
3.82969e-06
-1.08269e-06
0.000133188
9.17129e-05
9.71673e-08
9.16157e-05
2.31845e-07
0.000133054
0.000170088
4.21869e-07
-2.41236e-06
0.000168626
3.87412e-06
-1.08875e-06
0.00013173
9.0527e-05
1.14591e-07
9.04124e-05
2.75921e-07
0.000131569
0.000168403
4.99806e-07
-2.4351e-06
0.000166917
3.92089e-06
-1.09561e-06
0.000130229
8.93167e-05
1.33039e-07
8.91837e-05
3.22128e-07
0.00013004
0.000166658
5.81021e-07
-2.45894e-06
0.000165147
3.96933e-06
-1.10304e-06
0.000128684
8.80806e-05
1.52267e-07
8.79284e-05
3.69982e-07
0.000128466
0.000164853
6.64837e-07
-2.48341e-06
0.000163317
4.01874e-06
-1.11081e-06
0.000127094
8.68176e-05
1.71988e-07
8.66456e-05
4.18883e-07
0.000126847
0.000162986
7.50323e-07
-2.50768e-06
0.000161426
4.06787e-06
-1.1185e-06
0.000125458
8.55271e-05
1.91715e-07
8.53354e-05
4.67859e-07
0.000125182
0.000161057
8.36026e-07
-2.53068e-06
0.000159473
4.11509e-06
-1.12555e-06
0.000123777
8.42099e-05
2.10808e-07
8.39991e-05
5.15642e-07
0.000123472
0.000159069
9.19972e-07
-2.55118e-06
0.000157461
4.15839e-06
-1.13147e-06
0.000122052
8.28676e-05
2.28783e-07
8.26388e-05
5.60958e-07
0.00012172
0.000157022
1.00002e-06
-2.56784e-06
0.000155395
4.1956e-06
-1.13566e-06
0.000120288
8.15032e-05
2.44894e-07
8.12582e-05
6.02237e-07
0.00011993
0.000154923
1.07368e-06
-2.579e-06
0.000153278
4.22406e-06
-1.13735e-06
0.000118489
8.01209e-05
2.58226e-07
7.98627e-05
6.37511e-07
0.000118109
0.000152778
1.13779e-06
-2.58257e-06
0.00015112
4.24039e-06
-1.13558e-06
0.000116662
7.87271e-05
2.67634e-07
7.84595e-05
6.64277e-07
0.000116266
0.000150596
1.18835e-06
-2.57592e-06
0.000148932
4.24039e-06
-1.12915e-06
0.000114819
7.73305e-05
2.71698e-07
7.70589e-05
6.79417e-07
0.000114411
0.000148391
1.22036e-06
-2.55584e-06
0.000146728
4.21893e-06
-1.11666e-06
0.000112972
7.59423e-05
2.6873e-07
7.56737e-05
6.79178e-07
0.000112562
0.000146179
1.22779e-06
-2.51865e-06
0.000144528
4.17e-06
-1.09642e-06
0.00011114
7.45774e-05
2.56776e-07
7.43207e-05
6.59301e-07
0.000110738
0.000143984
1.20373e-06
-2.4602e-06
0.000142357
4.08678e-06
-1.06656e-06
0.000109344
7.32543e-05
2.3363e-07
7.30207e-05
6.14942e-07
0.000108963
0.000141832
1.14021e-06
-2.37565e-06
0.000140247
3.96135e-06
-1.02496e-06
0.000107612
7.19959e-05
1.9673e-07
7.17992e-05
5.40366e-07
0.000107269
0.000139759
1.0279e-06
-2.25956e-06
0.000138234
3.78478e-06
-9.69256e-07
0.000105979
7.083e-05
1.43229e-07
7.06868e-05
4.2927e-07
0.000105693
0.000137807
8.56362e-07
-2.10665e-06
0.000136365
3.54833e-06
-8.97195e-07
0.000104483
6.97896e-05
7.09392e-08
6.97186e-05
2.76623e-07
0.000104277
0.000136025
6.1729e-07
-1.91247e-06
0.000134691
3.24556e-06
-8.05115e-07
0.00010317
6.89135e-05
-2.45352e-08
6.89379e-05
7.54568e-08
0.00010307
0.000134467
2.99269e-07
-1.66763e-06
0.000133269
2.86562e-06
-6.86851e-07
0.000102089
6.82509e-05
-1.47919e-07
6.83987e-05
-1.81993e-07
0.000102123
0.000133191
-1.03879e-07
-1.37913e-06
0.000132167
2.40299e-06
-5.53233e-07
0.000101297
6.78454e-05
-2.84863e-07
6.813e-05
-4.79545e-07
0.000101491
0.000132264
-5.77026e-07
-1.05614e-06
0.000131438
1.88149e-06
-4.06139e-07
0.000100841
6.77238e-05
-4.35792e-07
6.81593e-05
-8.11663e-07
0.000101217
0.000131738
-1.11164e-06
-7.16874e-07
0.000131124
1.33064e-06
-2.53741e-07
0.000100753
6.79055e-05
-5.91007e-07
6.84962e-05
-1.15908e-06
0.000101321
0.000131642
-1.67729e-06
-3.73552e-07
0.000131248
7.67228e-07
-1.01346e-07
0.000101048
6.83943e-05
-7.34205e-07
6.91294e-05
-1.48479e-06
0.0001018
0.000131979
-2.2158e-06
-4.03065e-08
0.000131797
2.2177e-07
5.10203e-08
0.000101707
6.91795e-05
-8.95436e-07
7.00756e-05
-1.84843e-06
0.000102661
0.000132764
-2.81566e-06
3.00772e-07
0.000132806
-3.42873e-07
2.00438e-07
0.00010276
7.02748e-05
-1.0537e-06
7.13294e-05
-2.19993e-06
0.000103907
0.000134007
-3.40114e-06
5.41553e-07
0.000134234
-7.68766e-07
2.90192e-07
0.000104158
7.16192e-05
-1.14255e-06
7.27619e-05
-2.42843e-06
0.000105444
0.000135611
-3.80564e-06
6.93045e-07
0.00013597
-1.05161e-06
3.41725e-07
0.000105796
7.31038e-05
-1.18838e-06
7.42924e-05
-2.566e-06
0.000107174
0.00013747
-4.06506e-06
7.67142e-07
0.000137916
-1.21339e-06
3.57449e-07
0.000107584
7.46502e-05
-1.20762e-06
7.58581e-05
-2.64355e-06
0.00010902
0.000139501
-4.2282e-06
7.86668e-07
0.000140001
-1.28628e-06
3.49552e-07
0.000109457
7.62079e-05
-1.20397e-06
7.74121e-05
-2.66833e-06
0.000110922
0.000141638
-4.30454e-06
7.5598e-07
0.000142157
-1.2755e-06
3.2036e-07
0.000111358
7.77326e-05
-1.17865e-06
7.89113e-05
-2.6433e-06
0.000112822
0.000143812
-4.29765e-06
6.80701e-07
0.000144321
-1.18933e-06
2.72162e-07
0.000113231
7.91836e-05
-1.13518e-06
8.03188e-05
-2.57509e-06
0.000114671
0.000145963
-4.21721e-06
5.68734e-07
0.000146434
-1.03949e-06
2.09247e-07
0.000115031
8.05282e-05
-1.07766e-06
8.1606e-05
-2.472e-06
0.000116425
0.000148038
-4.07594e-06
4.28607e-07
0.000148448
-8.39038e-07
1.35569e-07
0.000116718
8.17417e-05
-1.00959e-06
8.27514e-05
-2.34178e-06
0.000118051
0.000149993
-3.88582e-06
2.68271e-07
0.000150325
-6.00705e-07
5.52268e-08
0.000118264
8.28067e-05
-9.36614e-07
8.37435e-05
-2.19238e-06
0.00011952
0.000151793
-3.65955e-06
9.61191e-08
0.000152034
-3.37105e-07
-2.69967e-08
0.000119643
8.37165e-05
-8.64129e-07
8.45808e-05
-2.03396e-06
0.000120813
0.000153411
-3.41078e-06
-7.9888e-08
0.000153551
-6.01515e-08
-1.0824e-07
0.000120841
8.44726e-05
-7.8931e-07
8.52621e-05
-1.87217e-06
0.000121924
0.000154832
-3.153e-06
-2.50172e-07
0.000154872
2.10163e-07
-1.86461e-07
0.000121861
8.50757e-05
-7.17214e-07
8.57932e-05
-1.7135e-06
0.000122857
0.000156055
-2.89633e-06
-4.11647e-07
0.000155996
4.70856e-07
-2.58998e-07
0.000122705
8.55343e-05
-6.51215e-07
8.61857e-05
-1.56501e-06
0.000123619
0.000157084
-2.65228e-06
-5.58318e-07
0.000156931
7.12593e-07
-3.22928e-07
0.000123384
8.58626e-05
-5.93549e-07
8.64557e-05
-1.43166e-06
0.000124222
0.00015793
-2.42872e-06
-6.85628e-07
0.000157691
9.26477e-07
-3.76417e-07
0.000123914
8.60789e-05
-5.46792e-07
8.66237e-05
-1.31927e-06
0.000124686
0.00015861
-2.23522e-06
-7.89793e-07
0.000158296
1.10675e-06
-4.18112e-07
0.000124314
8.62031e-05
-5.09565e-07
8.67092e-05
-1.22621e-06
0.000125029
0.000159146
-2.07143e-06
-8.76344e-07
0.000158768
1.26012e-06
-4.50871e-07
0.000124603
8.62543e-05
-4.76664e-07
8.6727e-05
-1.14232e-06
0.000125268
0.000159552
-1.92143e-06
-9.32541e-07
0.000159131
1.36479e-06
-4.69986e-07
0.000124806
8.62534e-05
-4.64944e-07
8.67076e-05
-1.1009e-06
0.000125436
0.000159871
-1.83395e-06
-9.93749e-07
0.000159396
1.47267e-06
-4.90481e-07
0.000124934
8.62144e-05
-4.62204e-07
8.66482e-05
-1.07927e-06
0.000125535
0.0001601
-1.76994e-06
-9.92562e-07
0.000159603
1.4754e-06
-4.88307e-07
0.000125007
8.61405e-05
-4.23125e-07
8.65858e-05
-9.98158e-07
0.000125612
0.000160255
-1.62711e-06
-1.08409e-06
0.000159727
1.61716e-06
-5.19064e-07
0.000125047
8.60636e-05
-4.47181e-07
8.64637e-05
-1.04245e-06
0.000125598
0.000160358
-1.69131e-06
-1.04271e-06
0.000159798
1.59987e-06
-4.91666e-07
0.000125017
8.59338e-05
-3.6276e-07
8.6384e-05
-8.6979e-07
0.000125611
0.000160475
-1.49907e-06
-1.0068e-06
0.000159867
1.55888e-06
-4.74631e-07
0.000124968
8.57988e-05
-3.86574e-07
8.62462e-05
-9.05751e-07
0.000125552
0.000160508
-1.51189e-06
-1.14183e-06
0.000159917
1.73405e-06
-5.37024e-07
0.000124966
8.57293e-05
-4.53855e-07
8.60882e-05
-1.03745e-06
0.000125455
0.000160492
-1.6503e-06
-1.20927e-06
0.000159928
1.80639e-06
-5.75638e-07
0.000124909
8.56144e-05
-4.18015e-07
8.59769e-05
-9.56135e-07
0.000125397
0.000160488
-1.53145e-06
-1.19139e-06
0.000159895
1.79177e-06
-5.61002e-07
0.000124823
8.54792e-05
-4.12257e-07
8.58581e-05
-9.36176e-07
0.000125312
0.000160487
-1.54828e-06
-1.1649e-06
0.000159894
1.80198e-06
-5.39519e-07
0.00012474
8.53615e-05
-3.40436e-07
8.57739e-05
-8.28776e-07
0.00012527
0.000160451
-1.42199e-06
-1.04151e-06
0.000159821
1.66706e-06
-4.66427e-07
0.000124627
8.52174e-05
-3.61551e-07
8.56572e-05
-8.44204e-07
0.000125184
0.000160443
-1.42162e-06
-1.04885e-06
0.000159779
1.65187e-06
-4.84998e-07
0.000124539
8.5098e-05
-4.35679e-07
8.55073e-05
-9.69892e-07
0.000125061
0.000160361
-1.52026e-06
-1.22388e-06
0.000159755
1.87153e-06
-5.69756e-07
0.000124501
8.50351e-05
-4.51404e-07
8.54007e-05
-1.01787e-06
0.000124977
0.000160322
-1.6396e-06
-1.03867e-06
0.000159663
1.68925e-06
-4.60072e-07
0.000124335
8.48592e-05
-3.07023e-07
8.54086e-05
-7.45148e-07
0.000125013
0.000160378
-1.3055e-06
-8.75045e-07
0.000159607
1.41986e-06
-3.87672e-07
0.000124196
8.4692e-05
-3.27266e-07
8.5314e-05
-7.85475e-07
0.000124958
0.000160916
-1.86619e-06
-4.10432e-07
0.000159671
1.48072e-06
-3.98278e-07
0.000124728
8.47076e-05
-9.39042e-07
8.57561e-05
-1.58754e-06
0.000125496
0.000161543
-3.32541e-06
2.31664e-07
0.000161544
-2.94138e-07
1.17712e-07
0.000125502
8.57534e-05
-1.63474e-06
8.74872e-05
-4.48711e-06
0.000128458
0.000164131
-6.99775e-06
6.23398e-06
0.000168395
-1.05447e-05
3.03243e-06
0.000131522
9.03723e-05
-8.63033e-06
9.91095e-05
-1.96214e-05
0.000142612
0.000182026
-3.32055e-05
4.32427e-05
0.000211545
-7.27324e-05
1.94282e-05
0.000166462
0.000118557
3.93039e-05
9.49315e-05
0.000165928
3.99843e-05
-0.000288197
-5.7272e-05
-0.000326088
-6.18192e-05
-0.000510484
-2.49781e-05
-0.000550536
-1.59351e-05
-0.000577106
-3.11455e-06
-0.000579764
-2.55892e-06
-0.000584699
-1.99439e-07
-0.000585168
-8.00207e-07
-0.000585855
9.67621e-07
-0.000585309
1.5514e-06
-0.00058308
5.0762e-06
-0.000577015
9.78221e-06
-0.000568952
2.14766e-05
-0.000554889
3.83981e-05
-0.000540863
8.52513e-05
-0.000536067
0.000189246
-0.000544796
8.52766e-05
-0.000335929
4.86836e-05
-0.000332987
2.7217e-05
-0.000323194
2.72418e-05
-0.000275551
7.96569e-06
-0.000237177
4.51734e-06
-8.35005e-05
1.84868e-06
-5.6471e-05
-3.05203e-05
-2.10655e-06
-2.82211e-05
-5.7626e-06
-5.27813e-05
-7.84766e-05
-1.11741e-05
4.27307e-06
-7.53523e-05
-7.00121e-06
1.59847e-06
-5.01522e-05
-2.68425e-05
-9.89147e-07
-2.58609e-05
-1.73572e-06
-4.9395e-05
-7.35504e-05
-3.47914e-06
6.04583e-07
-7.29235e-05
-1.33479e-06
9.94238e-08
-4.88555e-05
-2.5681e-05
-4.35955e-07
-2.52477e-05
-5.48789e-07
-4.87335e-05
-7.23053e-05
-1.13542e-06
5.20428e-07
-7.27542e-05
-8.03208e-08
6.3007e-08
-4.82758e-05
-2.51811e-05
-8.32908e-09
-2.51801e-05
-3.32217e-08
-4.82591e-05
-7.27669e-05
-2.91771e-08
-6.98427e-09
-7.27825e-05
1.37628e-08
-3.17282e-09
-4.82703e-05
-2.51911e-05
1.17031e-08
-2.52085e-05
2.43687e-08
-4.829e-05
-7.28032e-05
3.67987e-08
-4.25813e-08
-7.28364e-05
7.57122e-08
-1.86133e-08
-4.8321e-05
-2.52362e-05
2.32012e-08
-2.52617e-05
4.89018e-08
-4.8351e-05
-7.28675e-05
7.3018e-08
-5.80603e-08
-7.29005e-05
1.03423e-07
-2.41375e-08
-4.83827e-05
-2.52879e-05
3.36603e-08
-2.53121e-05
7.04923e-08
-4.84121e-05
-7.29305e-05
9.92137e-08
-7.35092e-08
-7.29709e-05
1.18774e-07
-3.31387e-08
-4.84485e-05
-2.53423e-05
2.60317e-08
-2.53729e-05
6.21463e-08
-4.8487e-05
-7.30112e-05
1.06235e-07
-6.41975e-08
-7.30537e-05
1.10577e-07
-2.76852e-08
-4.85264e-05
-2.54059e-05
3.02684e-08
-2.54347e-05
6.64488e-08
-4.85604e-05
-7.30883e-05
1.05167e-07
-6.96608e-08
-7.31315e-05
1.23064e-07
-2.96555e-08
-4.86004e-05
-2.54684e-05
2.86009e-08
-2.55017e-05
6.52818e-08
-4.86405e-05
-7.3173e-05
1.07595e-07
-7.43322e-08
-7.32191e-05
1.15155e-07
-3.43482e-08
-4.86824e-05
-2.55365e-05
2.88663e-08
-2.55679e-05
6.58597e-08
-4.87201e-05
-7.3257e-05
1.08537e-07
-7.10922e-08
-7.33021e-05
1.21532e-07
-3.08674e-08
-4.87615e-05
-2.56025e-05
2.55121e-08
-2.56366e-05
6.24084e-08
-4.88036e-05
-7.33465e-05
1.1347e-07
-6.96348e-08
-7.33945e-05
1.27137e-07
-2.89393e-08
-4.88491e-05
-2.5676e-05
4.46266e-08
-2.57081e-05
8.94788e-08
-4.88879e-05
-7.34358e-05
1.18905e-07
-9.34836e-08
-7.34815e-05
1.35518e-07
-4.50359e-08
-4.89293e-05
-2.57425e-05
3.5564e-08
-2.57775e-05
7.91235e-08
-4.89707e-05
-7.35226e-05
1.25907e-07
-8.63019e-08
-7.35724e-05
1.27901e-07
-4.13859e-08
-4.9015e-05
-2.58148e-05
3.71532e-08
-2.5851e-05
7.92387e-08
-4.90585e-05
-7.36178e-05
1.17744e-07
-8.11243e-08
-7.36671e-05
1.27867e-07
-3.73098e-08
-4.91043e-05
-2.58898e-05
3.84279e-08
-2.5926e-05
7.97608e-08
-4.91469e-05
-7.37114e-05
1.14352e-07
-8.87192e-08
-7.3763e-05
1.25956e-07
-4.37472e-08
-4.91925e-05
-2.59649e-05
2.82509e-08
-2.60027e-05
7.10667e-08
-4.92369e-05
-7.38062e-05
1.33829e-07
-7.85802e-08
-7.38566e-05
1.46298e-07
-3.22944e-08
-4.92831e-05
-2.6042e-05
4.02956e-08
-2.60781e-05
8.58974e-08
-4.9327e-05
-7.3903e-05
1.2589e-07
-9.40395e-08
-7.39549e-05
1.30885e-07
-4.64655e-08
-4.9373e-05
-2.61162e-05
3.91808e-08
-2.61554e-05
8.51538e-08
-4.942e-05
-7.40044e-05
1.3095e-07
-8.87001e-08
-7.40603e-05
1.45399e-07
-4.01989e-08
-4.94705e-05
-2.61982e-05
4.23003e-08
-2.62368e-05
9.01147e-08
-4.95163e-05
-7.41092e-05
1.35766e-07
-9.78965e-08
-7.41584e-05
1.47336e-07
-4.6387e-08
-4.95609e-05
-2.62744e-05
4.46589e-08
-2.63122e-05
9.50016e-08
-4.96065e-05
-7.4207e-05
1.41241e-07
-9.24546e-08
-7.42644e-05
1.45363e-07
-4.25234e-08
-4.9658e-05
-2.6355e-05
4.02769e-08
-2.63954e-05
8.55329e-08
-4.97082e-05
-7.43193e-05
1.2537e-07
-8.6539e-08
-7.43773e-05
1.31632e-07
-4.03862e-08
-4.97587e-05
-2.64363e-05
3.63588e-08
-2.64761e-05
8.2537e-08
-4.98071e-05
-7.44285e-05
1.36981e-07
-9.64168e-08
-7.44886e-05
1.58798e-07
-4.32885e-08
-4.98593e-05
-2.65189e-05
4.82291e-08
-2.65593e-05
1.02893e-07
-4.99101e-05
-7.45461e-05
1.53188e-07
-1.05805e-07
-7.46021e-05
1.71655e-07
-4.73293e-08
-4.99587e-05
-2.65983e-05
5.05277e-08
-2.66335e-05
1.08504e-07
-5.00045e-05
-7.46536e-05
1.60148e-07
-1.05476e-07
-7.47159e-05
1.57151e-07
-4.9102e-08
-5.00565e-05
-2.66731e-05
2.93604e-08
-2.67158e-05
7.46497e-08
-5.01136e-05
-7.47816e-05
1.38905e-07
-7.21677e-08
-7.4851e-05
1.41511e-07
-2.67092e-08
-5.01729e-05
-2.67604e-05
3.53992e-08
-2.67981e-05
8.39228e-08
-5.02247e-05
-7.49118e-05
1.41147e-07
-9.01763e-08
-7.49814e-05
1.67447e-07
-3.5215e-08
-5.02815e-05
-2.68385e-05
3.47696e-08
-2.6879e-05
9.06586e-08
-5.03399e-05
-7.50511e-05
1.67022e-07
-1.04852e-07
-7.5124e-05
1.87342e-07
-4.14315e-08
-5.0398e-05
-2.6918e-05
4.57583e-08
-2.69519e-05
1.10966e-07
-5.04529e-05
-7.51926e-05
1.83628e-07
-1.04778e-07
-7.52672e-05
1.91624e-07
-3.93569e-08
-5.05114e-05
-2.69874e-05
3.04311e-08
-2.70254e-05
9.01603e-08
-5.05757e-05
-7.53481e-05
1.76008e-07
-9.00147e-08
-7.54354e-05
1.7957e-07
-2.96611e-08
-5.06437e-05
-2.70654e-05
3.22678e-08
-2.70998e-05
9.46005e-08
-5.07078e-05
-7.55179e-05
1.77394e-07
-9.63002e-08
-7.56083e-05
1.88842e-07
-3.12107e-08
-5.07764e-05
-2.71361e-05
2.83435e-08
-2.71704e-05
9.38274e-08
-5.08461e-05
-7.56998e-05
1.87363e-07
-1.02191e-07
-7.57975e-05
2.01359e-07
-3.13401e-08
-5.09179e-05
-2.72037e-05
2.86248e-08
-2.72363e-05
1.03186e-07
-5.09936e-05
-7.5898e-05
2.10068e-07
-1.10182e-07
-7.60082e-05
2.24153e-07
-3.02545e-08
-5.10734e-05
-2.72682e-05
2.77444e-08
-2.72963e-05
1.0946e-07
-5.11519e-05
-7.61154e-05
2.2845e-07
-1.14852e-07
-7.62301e-05
2.4286e-07
-2.7839e-08
-5.12344e-05
-2.73236e-05
2.35926e-08
-2.73536e-05
1.10956e-07
-5.13241e-05
-7.6353e-05
2.42869e-07
-1.19437e-07
-7.64901e-05
2.58487e-07
-2.57248e-08
-5.14229e-05
-2.73863e-05
2.36749e-08
-2.74137e-05
1.20005e-07
-5.15181e-05
-7.66199e-05
2.65303e-07
-1.42684e-07
-7.67611e-05
2.79065e-07
-3.63806e-08
-5.1618e-05
-2.74408e-05
2.47716e-08
-2.74771e-05
1.33357e-07
-5.1734e-05
-7.69171e-05
2.9632e-07
-1.48751e-07
-7.70859e-05
3.18869e-07
-3.11509e-08
-5.18592e-05
-2.75178e-05
3.86689e-08
-2.75521e-05
1.65558e-07
-5.19824e-05
-7.72522e-05
3.31286e-07
-1.63513e-07
-7.74356e-05
3.63966e-07
-3.08399e-08
-5.21199e-05
-2.7595e-05
2.78702e-08
-2.76492e-05
1.71068e-07
-5.22751e-05
-7.76369e-05
4.0211e-07
-2.21383e-07
-7.78434e-05
4.46321e-07
-5.67335e-08
-5.24358e-05
-2.7707e-05
9.64926e-08
-2.77679e-05
2.80595e-07
-5.26006e-05
-7.80573e-05
4.65797e-07
-2.89863e-07
-7.82872e-05
5.12754e-07
-9.57772e-08
-5.27847e-05
-2.78478e-05
9.61457e-08
-2.79487e-05
2.98982e-07
-5.29944e-05
-7.85391e-05
5.45062e-07
-3.50574e-07
-7.88002e-05
5.66098e-07
-1.3102e-07
-5.32192e-05
-2.80672e-05
1.68142e-07
-2.81998e-05
4.0647e-07
-5.34559e-05
-7.90841e-05
6.11118e-07
-3.95828e-07
-7.93776e-05
7.09281e-07
-1.43152e-07
-5.37197e-05
-2.83631e-05
1.66779e-07
-2.85586e-05
4.49226e-07
-5.40116e-05
-7.96991e-05
8.12513e-07
-5.00642e-07
-8.00298e-05
9.36473e-07
-1.83634e-07
-5.43288e-05
-2.87852e-05
2.31207e-07
-2.90546e-05
5.69703e-07
-5.46607e-05
-8.03659e-05
1.03325e-06
-8.06577e-07
-8.07668e-05
1.05862e-06
-4.00812e-07
-5.50307e-05
-2.93488e-05
4.03282e-07
-2.97178e-05
8.32855e-07
-5.54546e-05
-8.11827e-05
1.18333e-06
-9.46393e-07
-8.164e-05
1.30453e-06
-4.75827e-07
-5.59216e-05
-3.01495e-05
5.03976e-07
-3.06554e-05
1.01614e-06
-5.64446e-05
-8.2132e-05
1.47996e-06
-1.08567e-06
-8.26966e-05
1.76666e-06
-5.19987e-07
-5.70438e-05
-3.12556e-05
8.42758e-07
-3.20866e-05
1.58992e-06
-5.77867e-05
-8.28048e-05
1.67911e-06
-1.53665e-06
-8.33065e-05
2.06386e-06
-9.42586e-07
-5.83668e-05
-3.30207e-05
7.45752e-07
-3.37585e-05
1.40841e-06
-5.90242e-05
-8.38514e-05
1.94956e-06
-1.23598e-06
-8.53362e-05
2.72739e-06
-2.94019e-07
-5.99683e-05
-3.4058e-05
1.2944e-06
-3.53407e-05
1.69195e-06
-6.03642e-05
-8.61446e-05
2.46251e-06
-1.96264e-06
-8.69334e-05
2.75211e-06
-5.83162e-07
-6.17564e-05
-3.59399e-05
9.2199e-07
-3.68602e-05
1.69153e-06
-6.25259e-05
-8.81997e-05
2.95087e-06
-2.3409e-06
-8.88927e-05
3.04158e-06
-1.02168e-06
-6.38422e-05
-3.78813e-05
1.09363e-06
-3.89742e-05
1.93332e-06
-6.46776e-05
-9.06818e-05
3.73524e-06
-2.6484e-06
-9.1867e-05
3.85971e-06
-1.38499e-06
-6.59307e-05
-4.03564e-05
1.33619e-06
-4.16863e-05
2.5716e-06
-6.71589e-05
-9.29725e-05
3.67018e-06
-2.4871e-06
-9.47712e-05
4.33011e-06
-1.07881e-06
-6.85858e-05
-4.28047e-05
9.85781e-07
-4.38629e-05
2.7518e-06
-7.03881e-05
-9.66173e-05
4.65133e-06
-4.17922e-06
-9.96238e-05
7.32534e-06
-2.34812e-06
-7.22801e-05
-4.63056e-05
2.40652e-06
-4.88499e-05
6.24551e-06
-7.61687e-05
-0.000103706
1.05838e-05
6.77269e-05
-5.05803e-05
-0.00012113
2.70793e-05
-3.53404e-05
-2.16924e-05
6.21377e-06
-2.60932e-05
1.38353e-05
-4.58639e-05
-6.59027e-05
3.0494e-05
-8.99139e-06
-7.30334e-05
1.55841e-05
-3.22414e-06
-5.14603e-05
-2.90798e-05
1.0663e-06
-3.01542e-05
2.39443e-06
-5.27942e-05
-7.43124e-05
3.58507e-06
-9.22743e-08
-7.44743e-05
2.62993e-07
-2.94839e-07
-5.26171e-05
-3.0478e-05
1.41967e-06
-3.19586e-05
3.17339e-06
-5.43994e-05
-7.61618e-05
4.94097e-06
-2.3906e-06
-7.73868e-05
3.56501e-06
-1.16122e-06
-5.56447e-05
-3.31155e-05
2.31858e-06
-3.53157e-05
4.42931e-06
-5.77378e-05
-7.9816e-05
6.57516e-06
-2.94093e-06
-8.19232e-05
4.67996e-06
-1.70345e-06
-5.89204e-05
-3.68159e-05
2.45675e-06
-3.91824e-05
5.0633e-06
-6.15076e-05
-8.45067e-05
7.45455e-06
-4.34805e-06
-8.72475e-05
7.1937e-06
-1.9696e-06
-6.38908e-05
-4.11931e-05
2.69208e-06
-4.39131e-05
6.38367e-06
-6.75802e-05
-9.2302e-05
1.15677e-05
-9.55175e-06
-9.90834e-05
1.65375e-05
-4.19609e-06
-7.29435e-05
-4.83005e-05
-2.50978e-05
-2.2599e-05
-6.22464e-05
-3.53899e-05
-4.95938e-05
-0.000112982
-1.64089e-05
-6.54665e-05
3.34814e-05
-9.60903e-06
-4.63851e-05
-2.90095e-05
5.77609e-06
-3.34163e-05
1.41565e-05
-5.41337e-05
-7.42446e-05
2.02193e-05
-8.48219e-06
-8.07634e-05
1.32555e-05
-4.50209e-06
-5.7879e-05
-3.7053e-05
2.6418e-06
-3.96232e-05
6.57932e-06
-6.17905e-05
-8.45501e-05
1.01327e-05
-5.32665e-06
-8.80438e-05
9.04827e-06
-2.32243e-06
-6.48409e-05
-4.20894e-05
2.68715e-06
-4.47797e-05
5.74433e-06
-6.79252e-05
-9.17467e-05
9.40122e-06
-7.17155e-06
-9.69306e-05
1.20895e-05
-3.07272e-06
-7.19897e-05
-4.77521e-05
3.17243e-06
-5.08932e-05
7.03019e-06
-7.5794e-05
-0.000101498
1.14706e-05
6.55751e-05
-5.03574e-05
-0.000116829
2.66933e-05
-3.70045e-05
-2.39881e-05
5.19617e-06
-3.07453e-05
1.89545e-05
-4.79947e-05
-6.6188e-05
3.35081e-05
-1.23046e-05
-7.56669e-05
2.05411e-05
-5.17293e-06
-5.50203e-05
-3.51148e-05
3.27275e-06
-3.78967e-05
6.697e-06
-5.82953e-05
-7.90686e-05
9.06204e-06
-3.8639e-06
-8.09889e-05
5.81978e-06
-1.77347e-06
-6.0405e-05
-3.97246e-05
3.16541e-06
-4.29364e-05
6.54328e-06
-6.38086e-05
-8.6676e-05
1.23166e-05
-9.37129e-06
-9.26363e-05
1.53811e-05
-4.27886e-06
-6.89288e-05
-4.73258e-05
-2.38634e-05
-2.31574e-05
-5.82726e-05
-3.41892e-05
-4.68916e-05
-0.000104891
-1.75694e-05
-6.21187e-05
3.40961e-05
-9.88149e-06
-4.60877e-05
-2.98853e-05
7.41943e-06
-3.59177e-05
1.58797e-05
-5.3862e-05
-7.23637e-05
2.32702e-05
-1.07712e-05
-8.09081e-05
1.75903e-05
-4.91354e-06
-5.94715e-05
-4.00438e-05
4.23339e-06
-4.47374e-05
9.13919e-06
-6.45331e-05
-8.72811e-05
1.64765e-05
-7.6824e-06
-9.16157e-05
1.20036e-05
-3.36815e-06
-6.88136e-05
-4.81232e-05
-2.49188e-05
-2.31064e-05
-5.91866e-05
-3.42379e-05
-4.612e-05
-0.000105212
-1.67752e-05
-6.04215e-05
3.24194e-05
-1.00945e-05
-4.49792e-05
-3.02671e-05
5.98373e-06
-3.5407e-05
1.32956e-05
-5.18147e-05
-6.97361e-05
2.07812e-05
-9.64261e-06
-7.61395e-05
1.50956e-05
-4.42806e-06
-5.69069e-05
-3.94703e-05
4.52681e-06
-4.4187e-05
1.03656e-05
-6.28327e-05
-8.27377e-05
1.72789e-05
5.25547e-05
-4.25864e-05
-9.38198e-05
2.18203e-05
-3.17124e-05
-2.19191e-05
1.04603e-05
-2.92179e-05
1.70409e-05
-4.28093e-05
-5.6437e-05
3.25273e-05
-1.61004e-05
-6.83917e-05
2.57576e-05
-7.49367e-06
-5.08545e-05
-3.56606e-05
5.30846e-06
-4.12127e-05
1.23482e-05
-5.79849e-05
-7.68203e-05
2.11243e-05
-7.70375e-06
-8.14293e-05
1.23152e-05
-4.0021e-06
-6.16605e-05
-4.51976e-05
-2.25597e-05
-2.25893e-05
-5.25247e-05
-3.16841e-05
-4.18759e-05
-9.21383e-05
-1.88204e-05
-5.59853e-05
3.29201e-05
-7.59174e-06
-4.29247e-05
-3.01683e-05
6.78092e-06
-3.69815e-05
1.39762e-05
-5.0111e-05
-6.54272e-05
2.34169e-05
4.26068e-05
-3.41182e-05
-7.35927e-05
1.79964e-05
-2.58234e-05
-1.89829e-05
5.19179e-06
-2.60078e-05
1.81758e-05
-3.58488e-05
-4.73955e-05
3.01425e-05
-1.37685e-05
-5.55464e-05
2.18818e-05
-6.73862e-06
-4.30912e-05
-3.2596e-05
-1.63519e-05
-1.62292e-05
-3.78565e-05
-2.15717e-05
-2.7845e-05
-6.5602e-05
-1.07908e-05
-3.52689e-05
1.82189e-05
-5.06895e-06
-2.73009e-05
-2.13015e-05
-1.27153e-05
-8.59396e-06
-2.85141e-05
-1.15101e-05
-1.52051e-05
-4.85855e-05
7.94055e-07
-1.6533e-05
5.19264e-07
5.67794e-07
-1.12931e-05
-8.03314e-06
-1.36284e-05
5.57296e-06
-3.24489e-05
7.51265e-06
9.60633e-06
-5.85558e-05
2.54035e-05
2.64228e-05
-4.22086e-05
1.17435e-05
2.117e-05
1.731e-05
-1.08399e-05
2.8149e-05
-2.39431e-05
3.42719e-05
4.28886e-05
-4.04089e-05
2.75656e-05
6.34851e-05
-4.81656e-05
1.15338e-05
5.03042e-05
3.96848e-05
-1.34828e-05
5.31683e-05
-3.28844e-05
6.97076e-05
8.96938e-05
-5.90878e-05
-4.88781e-05
5.5669e-05
8.29026e-05
-2.13127e-05
4.21442e-05
3.18574e-05
-1.9148e-05
5.0992e-05
-4.37195e-05
6.67086e-05
8.72911e-05
-7.53238e-05
-4.03882e-05
5.92438e-05
6.84691e-05
-1.83697e-05
4.47115e-05
3.2604e-05
-2.43183e-05
5.65854e-05
-5.60508e-05
7.63291e-05
9.9728e-05
-9.59782e-05
-3.80076e-05
7.4939e-05
6.19668e-05
-1.6624e-05
5.56938e-05
3.98638e-05
1.81503e-05
2.64594e-05
3.01499e-05
3.64392e-05
4.91077e-05
5.86904e-05
4.67916e-05
8.61886e-05
-8.54162e-05
2.04057e-05
6.48348e-05
4.62159e-05
1.47625e-05
3.23622e-05
3.39429e-05
4.57193e-05
6.01173e-05
5.88217e-05
5.97502e-05
0.000107308
-0.000107054
2.46636e-05
8.07886e-05
5.70747e-05
1.41047e-05