/*--------------------------------*- C++ -*----------------------------------*\
| =========                 |                                                 |
| \\      /  F ield         | OpenFOAM: The Open Source CFD Toolbox           |
|  \\    /   O peration     | Version:  v2006                                 |
|   \\  /    A nd           | Website:  www.openfoam.com                      |
|    \\/     M anipulation  |                                                 |
\*---------------------------------------------------------------------------*/
FoamFile
{
    version     2.0;
    format      ascii;
    class       volScalarField;
    location    "0.129";
    object      turbulenceProperties:L;
}
// * * * * * * * * * * * * * * * * * * * * * * * * * * * * * * * * * * * * * //

dimensions      [0 1 0 0 0 0 0];


internalField   nonuniform List<scalar> 
16277
(
1998.7
1998.69
1999.07
1999.2
1999.56
1999.48
1999.47
1999.27
1998.8
1998.12
1997.37
1996.68
1996.09
1995.58
1995.13
1994.72
1994.32
1993.93
1993.54
1993.17
1992.81
1992.45
1992.11
1991.77
1991.44
1991.12
1990.8
1990.49
1990.19
1989.89
1989.59
1989.31
1989.03
1988.75
1988.49
1988.23
1987.98
1987.74
1987.51
1987.29
1987.08
1986.88
1986.69
1986.52
1986.36
1986.21
1986.07
1985.95
1985.85
1985.76
1985.69
1985.63
1985.59
1985.57
1985.57
1985.58
1985.62
1985.67
1985.75
1985.84
1985.95
1986.06
1986.18
1986.25
1986.18
1985.75
1984.4
1980.76
1971.2
1947.5
1896.71
1794.46
1607.82
1316.45
954.799
611.962
356.487
195.399
103.486
54.2253
28.4189
15.2657
9.11444
7.01365
5.13214
4.27826
3.52598
1.93579
1.11832
0.886131
0.988431
0.37419
0.121356
0.032075
0.0037253
0.000676235
4.70418e-05
4.51109e-05
0.000325013
0.00146002
0.000819233
0.000221171
4.31574e-05
4.18663e-05
0.000207442
0.000698858
0.000573418
0.000187013
4.15216e-05
4.10403e-05
0.000185002
0.000550564
0.000489886
0.000173553
4.07296e-05
4.03716e-05
0.000173034
0.000482192
0.00044974
0.000166465
4.01594e-05
4.00757e-05
0.000168994
0.00044878
0.0004286
0.000163764
3.99808e-05
3.99174e-05
0.00016628
0.000428798
0.000413559
0.000161754
3.98363e-05
3.97865e-05
0.000164
0.000414578
0.000401805
0.000159924
3.97153e-05
3.96745e-05
0.000161965
0.000403228
0.000391935
0.000158198
3.96113e-05
3.95762e-05
0.000160129
0.000393602
0.000383336
0.000156562
3.95184e-05
3.94872e-05
0.000158432
0.00038515
0.000375644
0.00015499
3.94332e-05
3.94049e-05
0.000156802
0.000377548
0.00036864
0.000153467
3.93535e-05
3.93271e-05
0.000155237
0.000370606
0.000362204
0.000152004
3.92774e-05
3.92524e-05
0.000153744
0.000364216
0.000356242
0.000150607
3.92039e-05
3.91797e-05
0.000152326
0.000358304
0.000350689
0.000149279
3.91319e-05
3.91083e-05
0.000150979
0.000352808
0.000345518
0.000148014
3.90608e-05
3.90376e-05
0.000149698
0.000347689
0.000340693
0.000146811
3.89902e-05
3.89671e-05
0.000148481
0.000342911
0.000336184
0.000145666
3.89197e-05
3.88965e-05
0.000147327
0.000338444
0.000331963
0.000144581
3.88488e-05
3.88254e-05
0.000146234
0.000334257
0.000327999
0.000143554
3.87773e-05
3.87536e-05
0.000145197
0.000330319
0.00032426
0.000142578
3.8705e-05
3.8681e-05
0.000144214
0.000326599
0.00032072
0.000141651
3.86315e-05
3.86071e-05
0.000143278
0.000323071
0.000317355
0.000140767
3.85567e-05
3.85317e-05
0.000142386
0.000319715
0.000314147
0.000139922
3.84803e-05
3.84545e-05
0.000141533
0.00031651
0.000311076
0.000139112
3.84018e-05
3.83752e-05
0.000140714
0.000313439
0.000308127
0.000138332
3.8321e-05
3.82934e-05
0.000139925
0.000310487
0.000305286
0.000137579
3.82375e-05
3.82088e-05
0.000139163
0.000307641
0.000302544
0.00013685
3.8151e-05
3.8121e-05
0.000138426
0.00030489
0.000299889
0.000136143
3.8061e-05
3.80296e-05
0.000137711
0.000302227
0.000297314
0.000135456
3.79672e-05
3.79342e-05
0.000137016
0.000299644
0.000294816
0.000134787
3.78691e-05
3.78344e-05
0.000136341
0.000297138
0.000292391
0.000134138
3.77664e-05
3.77298e-05
0.000135686
0.000294707
0.00029004
0.000133507
3.76585e-05
3.76199e-05
0.000135056
0.000292352
0.000287763
0.000132899
3.75452e-05
3.75045e-05
0.000134462
0.000290076
0.000285567
0.000132318
3.74261e-05
3.73832e-05
0.000133892
0.000287886
0.000283456
0.00013176
3.73009e-05
3.72558e-05
0.000133352
0.000285784
0.000281436
0.000131233
3.71694e-05
3.71221e-05
0.000132848
0.000283782
0.000279519
0.000130744
3.70315e-05
3.69821e-05
0.000132389
0.000281893
0.000277725
0.000130302
3.68873e-05
3.68361e-05
0.000131986
0.000280139
0.000276076
0.000129917
3.67373e-05
3.66847e-05
0.000131652
0.000278585
0.000274616
0.000129607
3.65822e-05
3.65288e-05
0.000131406
0.000277266
0.000273379
0.000129389
3.64232e-05
3.63699e-05
0.000131266
0.000276186
0.000272397
0.000129284
3.62623e-05
3.62104e-05
0.000131256
0.000275406
0.000271732
0.000129317
3.61021e-05
3.60533e-05
0.000131405
0.000274995
0.000271459
0.000129518
3.59461e-05
3.59025e-05
0.000131743
0.000275032
0.000271658
0.000129925
3.57987e-05
3.57635e-05
0.00013228
0.000275597
0.000272418
0.000130558
3.56663e-05
3.56413e-05
0.000132967
0.000276744
0.000273772
0.000131339
3.55568e-05
3.55426e-05
0.000133827
0.000278613
0.000275848
0.000132313
3.54742e-05
3.54723e-05
0.000134872
0.0002812
0.000278625
0.000133478
3.54268e-05
3.54349e-05
0.000136073
0.000284444
0.000282051
0.000134803
3.54212e-05
3.54331e-05
0.000137376
0.000288221
0.000285976
0.000136178
3.54273e-05
3.54678e-05
0.000138698
0.000292478
0.000290362
0.000137506
3.54742e-05
3.55354e-05
0.000139924
0.000297091
0.000295039
0.000138745
3.5554e-05
3.56317e-05
0.000140947
0.000301677
0.000299589
0.000139769
3.56588e-05
3.57466e-05
0.000141752
0.000305923
0.000303736
0.000140493
3.57793e-05
3.58728e-05
0.000142399
0.000309674
0.000307375
0.000140976
3.59092e-05
3.60057e-05
0.000142804
0.000312842
0.000310432
0.000141282
3.6044e-05
3.61408e-05
0.000143006
0.000315384
0.000312854
0.000141326
3.61792e-05
3.62736e-05
0.000142984
0.000317297
0.00031459
0.000141162
3.63107e-05
3.64007e-05
0.000142758
0.000318569
0.000315614
0.00014082
3.64355e-05
3.65195e-05
0.000142352
0.000319405
0.00031605
0.000140336
3.65512e-05
3.66282e-05
0.000141813
0.000319582
0.000315835
0.000139667
3.66563e-05
3.67254e-05
0.000141166
0.000319113
0.000314767
0.000138811
3.67499e-05
3.68107e-05
0.00014031
0.000317944
0.000313258
0.000137884
3.68311e-05
3.68833e-05
0.000139385
0.000316344
0.000311442
0.000136934
3.68997e-05
3.69435e-05
0.000138438
0.000314421
0.000309374
0.000135999
3.69559e-05
3.69919e-05
0.000137497
0.000312238
0.000307123
0.000135103
3.70007e-05
3.70295e-05
0.000136591
0.000309877
0.000304768
0.000134265
3.7035e-05
3.70577e-05
0.000135738
0.000307416
0.000302365
0.000133494
3.70605e-05
3.70777e-05
0.000134943
0.000304903
0.000299971
0.000132796
3.70782e-05
3.70908e-05
0.000134222
0.000302426
0.000297587
0.000132145
3.70895e-05
3.70983e-05
0.000133545
0.00029999
0.000295332
0.000131585
3.70963e-05
3.71001e-05
0.000132945
0.000297661
0.00029309
0.000131031
3.70973e-05
3.71018e-05
0.000132381
0.000295446
0.000290986
0.000130508
3.70953e-05
3.70978e-05
0.000131843
0.000293321
0.000288999
0.000130034
3.70919e-05
3.70922e-05
0.000131362
0.000291314
0.000287079
0.000129585
3.70837e-05
3.7086e-05
0.000130933
0.000289409
0.000285245
0.000129158
3.70758e-05
3.70756e-05
0.000130496
0.000287538
0.0002835
0.000128796
3.7067e-05
3.70671e-05
0.000130121
0.000285797
0.000281778
0.000128384
3.70527e-05
3.70565e-05
0.000129741
0.000284105
0.00028011
0.000127984
3.70431e-05
3.7043e-05
0.000129319
0.000282394
0.000278502
0.000127674
3.70349e-05
3.70276e-05
0.000128991
0.000280814
0.000276934
0.000127302
3.70179e-05
3.702e-05
0.000128622
0.000279304
0.000275442
0.000126904
3.69957e-05
3.70121e-05
0.00012825
0.000277803
0.00027384
0.000126606
3.69806e-05
3.69944e-05
0.000127805
0.000276449
0.000272623
0.000125947
3.69348e-05
3.71177e-05
0.000128157
0.00027673
0.000274156
0.000128006
3.72229e-05
3.77423e-05
0.000128402
0.000277342
0.000290718
0.000134781
3.84479e-05
4.11137e-05
0.00012756
0.000283191
0.000420867
0.00023561
4.70795e-05
4.18581e-05
9.89406e-05
0.000220316
0.000497193
0.00104748
0.00181639
0.00244928
0.00284783
0.00358552
0.00402909
0.00441529
0.00461624
0.00469699
0.00464215
0.004436
0.00416165
0.00372759
0.00331059
0.00266399
0.00237937
0.00181495
0.00142328
0.00102174
0.000619302
0.000300004
0.000116194
5.024e-05
1.28671e-05
1.18205e-05
4.62892e-05
0.000105485
9.97863e-05
4.38302e-05
1.10134e-05
1.04033e-05
4.19933e-05
9.46251e-05
9.47336e-05
4.16805e-05
1.02042e-05
1.00855e-05
4.13976e-05
9.31673e-05
9.30844e-05
4.09962e-05
9.96404e-06
9.95409e-06
4.09229e-05
9.28467e-05
9.30354e-05
4.09551e-05
9.96374e-06
9.96239e-06
4.096e-05
9.31278e-05
9.31968e-05
4.09816e-05
9.97388e-06
9.97917e-06
4.10062e-05
9.33506e-05
9.34204e-05
4.1028e-05
9.98479e-06
9.99664e-06
4.10637e-05
9.35863e-05
9.36854e-05
4.10851e-05
9.9918e-06
1.00048e-05
4.11354e-05
9.38536e-05
9.39559e-05
4.11567e-05
1.0011e-05
1.0024e-05
4.11997e-05
9.41364e-05
9.42223e-05
4.12177e-05
1.00246e-05
1.00263e-05
4.12758e-05
9.44164e-05
9.4506e-05
4.12931e-05
1.00445e-05
1.00464e-05
4.13515e-05
9.47114e-05
9.48064e-05
4.13712e-05
1.00538e-05
1.00557e-05
4.14351e-05
9.50136e-05
9.51056e-05
4.14529e-05
1.00746e-05
1.00763e-05
4.15055e-05
9.53078e-05
9.54024e-05
4.15275e-05
1.00836e-05
1.00853e-05
4.15884e-05
9.56183e-05
9.5718e-05
4.16128e-05
1.01048e-05
1.01068e-05
4.16725e-05
9.5931e-05
9.60275e-05
4.16974e-05
1.01149e-05
1.01171e-05
4.17602e-05
9.62333e-05
9.63268e-05
4.17787e-05
1.01366e-05
1.01386e-05
4.18351e-05
9.65499e-05
9.66547e-05
4.18631e-05
1.01466e-05
1.01491e-05
4.19332e-05
9.68804e-05
9.6983e-05
4.19609e-05
1.01635e-05
1.01775e-05
4.20159e-05
9.72084e-05
9.73123e-05
4.20493e-05
1.01799e-05
1.01828e-05
4.21139e-05
9.75322e-05
9.76324e-05
4.21391e-05
1.01965e-05
1.02108e-05
4.21964e-05
9.78573e-05
9.79621e-05
4.22302e-05
1.02132e-05
1.02169e-05
4.23027e-05
9.81891e-05
9.82932e-05
4.23306e-05
1.02309e-05
1.02458e-05
4.23906e-05
9.85153e-05
9.86145e-05
4.24179e-05
1.0248e-05
1.02513e-05
4.24848e-05
9.88254e-05
9.89199e-05
4.25083e-05
1.0265e-05
1.02796e-05
4.25718e-05
9.91331e-05
9.92303e-05
4.25978e-05
1.0282e-05
1.0286e-05
4.26704e-05
9.94439e-05
9.95375e-05
4.26934e-05
1.03002e-05
1.03152e-05
4.27563e-05
9.97386e-05
9.98232e-05
4.27729e-05
1.03172e-05
1.03204e-05
4.28364e-05
0.000100019
0.000100096
4.2851e-05
1.03341e-05
1.03485e-05
4.29102e-05
0.000100289
0.000100358
4.29225e-05
1.03503e-05
1.03536e-05
4.29856e-05
0.000100543
0.000100606
4.29895e-05
1.03672e-05
1.03812e-05
4.30356e-05
0.00010077
0.000100813
4.30317e-05
1.03821e-05
1.03844e-05
4.30743e-05
0.000100962
0.000100992
4.30626e-05
1.04028e-05
1.0404e-05
4.30845e-05
0.00010111
0.000101124
4.3064e-05
1.04101e-05
1.04103e-05
4.30681e-05
0.000101214
0.00010122
4.30265e-05
1.04272e-05
1.04259e-05
4.30035e-05
0.000101285
0.000101263
4.29466e-05
1.04308e-05
1.04293e-05
4.29054e-05
0.000101292
0.000101263
4.28196e-05
1.04394e-05
1.04492e-05
4.27483e-05
0.000101263
0.000101195
4.26401e-05
1.04478e-05
1.04458e-05
4.25341e-05
0.000101176
0.000101072
4.23911e-05
1.04553e-05
1.04648e-05
4.22495e-05
0.000101064
0.000100908
4.20533e-05
1.04635e-05
1.04634e-05
4.18801e-05
0.00010091
0.000100744
4.16471e-05
1.04807e-05
1.04836e-05
4.14476e-05
0.000100743
0.000100533
4.11841e-05
1.04951e-05
1.05036e-05
4.0955e-05
0.000100545
0.000100329
4.06428e-05
1.05256e-05
1.05539e-05
4.03843e-05
0.000100445
0.000100395
4.00874e-05
1.05745e-05
1.06081e-05
3.98406e-05
0.000100671
0.000100636
3.95449e-05
1.06465e-05
1.0696e-05
3.92843e-05
0.000100946
0.000101128
3.89754e-05
1.07531e-05
1.08235e-05
3.87786e-05
0.000101836
0.000102588
3.86072e-05
1.0906e-05
1.09986e-05
3.86055e-05
0.000103735
0.000105444
3.92512e-05
1.1177e-05
1.13511e-05
3.97925e-05
0.000106838
0.00010772
3.99658e-05
1.13313e-05
1.14725e-05
3.94913e-05
0.000108958
0.000110779
4.17077e-05
1.17327e-05
1.18814e-05
4.0922e-05
0.000111694
0.000112883
4.2069e-05
1.21571e-05
1.24052e-05
4.26751e-05
0.000114557
0.000114785
4.35532e-05
1.27613e-05
1.32286e-05
4.54252e-05
0.000116618
0.00011645
4.6322e-05
1.36189e-05
1.39238e-05
4.74313e-05
0.000117383
0.000117148
4.82293e-05
1.45838e-05
1.57449e-05
5.38138e-05
0.000119105
0.000117496
5.54055e-05
1.08412e-05
6.17843e-06
1.58245e-05
4.19292e-05
9.98722e-05
3.58799e-05
8.35682e-06
9.22318e-06
3.20758e-05
9.24395e-05
9.67543e-05
3.36653e-05
9.4434e-06
9.62734e-06
3.2225e-05
9.3168e-05
9.87972e-05
3.46232e-05
1.00272e-05
1.04982e-05
3.42262e-05
9.74248e-05
0.000104347
3.83009e-05
1.10862e-05
1.17046e-05
3.78607e-05
0.000102064
0.000108005
4.26624e-05
1.24452e-05
1.33513e-05
4.31539e-05
0.000107527
0.000114637
4.92888e-05
1.48775e-05
1.05372e-05
5.26573e-05
0.000115293
4.12831e-05
1.50218e-05
6.4382e-06
9.01662e-06
3.76583e-05
0.000104417
0.000101325
3.50853e-05
1.0644e-05
1.18223e-05
4.42581e-05
0.000118812
0.000119574
4.42576e-05
1.26763e-05
1.37236e-05
4.97175e-05
0.000128257
0.00012963
5.21017e-05
1.48648e-05
1.643e-05
5.88776e-05
0.000135939
0.000130771
6.15177e-05
1.16443e-05
7.03514e-06
1.78348e-05
4.66815e-05
0.000114277
4.23114e-05
9.63968e-06
1.10791e-05
3.93669e-05
0.000110726
0.00012139
4.61855e-05
1.19943e-05
1.30446e-05
4.55415e-05
0.000118738
0.000127066
5.37752e-05
1.48607e-05
1.07707e-05
5.85288e-05
0.000125772
4.58935e-05
1.65333e-05
6.63654e-06
9.60389e-06
4.12965e-05
0.000116722
0.000117444
4.21907e-05
1.17345e-05
1.38859e-05
5.45826e-05
0.00014073
0.000143519
6.08946e-05
1.5928e-05
1.1527e-05
6.54375e-05
0.000141282
5.21044e-05
1.78497e-05
6.83275e-06
9.90942e-06
4.91181e-05
0.000128495
0.000125795
4.64797e-05
1.2167e-05
1.45967e-05
6.10092e-05
0.000146909
0.000145987
6.66953e-05
1.08652e-05
6.68842e-06
1.85193e-05
5.66975e-05
0.000146169
5.48332e-05
1.0427e-05
1.36815e-05
5.5521e-05
0.000152226
0.000193433
8.11786e-05
1.6886e-05
1.27957e-05
8.33016e-05
0.000183014
7.67367e-05
2.58726e-05
8.22475e-06
1.35019e-05
7.85032e-05
0.000190092
0.000185928
8.03849e-05
1.12124e-05
7.75378e-06
2.69889e-05
8.33119e-05
0.000236815
9.07897e-05
1.40478e-05
1.24414e-05
9.88893e-05
0.000249204
0.000119975
4.20355e-05
9.66858e-06
1.10677e-05
0.00010066
0.000272844
0.000186726
7.29876e-05
1.01028e-05
1.36148e-05
0.000107821
0.000319917
0.00026618
9.03168e-05
1.12647e-05
1.11417e-05
8.69518e-05
0.00025687
0.000280049
9.6844e-05
1.3047e-05
1.70709e-05
0.000171701
0.000472463
0.000104834
3.92153e-05
1.41116e-05
1.31156e-05
9.56302e-05
0.000203425
7.48836e-05
3.15524e-05
1.21623e-05
1.35122e-05
6.92912e-05
0.000148284
0.000132889
5.57705e-05
1.47583e-05
8.06944e-06
1.85979e-05
4.87735e-05
9.93219e-05
6.03502e-05
9.90615e-06
1.05099e-05
2.42557e-05
5.45148e-05
0.000115694
5.87381e-05
1.28488e-05
1.4771e-05
5.16444e-05
0.000109732
4.61348e-05
1.97827e-05
8.93741e-06
1.17284e-05
5.31042e-05
0.00010079
9.68006e-05
4.73544e-05
1.39874e-05
8.54723e-06
1.83651e-05
4.18633e-05
9.32189e-05
4.94763e-05
1.12517e-05
1.36156e-05
4.52117e-05
8.98592e-05
3.99094e-05
1.80225e-05
8.50565e-06
1.10926e-05
4.73045e-05
8.86392e-05
8.47293e-05
4.34972e-05
1.34514e-05
8.41945e-06
1.73266e-05
3.80534e-05
8.39768e-05
4.5107e-05
1.09722e-05
1.34691e-05
4.1494e-05
8.05944e-05
3.65158e-05
1.70416e-05
8.52508e-06
1.11198e-05
4.41621e-05
8.04393e-05
7.66383e-05
4.04024e-05
1.35531e-05
8.50332e-06
1.6635e-05
3.53951e-05
7.75964e-05
4.27864e-05
1.10495e-05
1.3702e-05
3.94916e-05
7.44825e-05
3.5651e-05
1.70711e-05
8.85381e-06
1.16465e-05
4.46459e-05
7.82447e-05
7.17517e-05
3.78197e-05
1.50643e-05
1.11096e-05
3.12963e-05
6.25803e-05
2.8609e-05
1.26714e-05
7.01101e-06
9.08518e-06
3.31685e-05
6.06609e-05
6.00557e-05
3.17285e-05
1.15911e-05
7.36565e-06
1.39522e-05
2.85804e-05
5.96026e-05
3.39819e-05
9.34329e-06
1.17657e-05
3.14889e-05
5.73636e-05
2.77513e-05
1.32302e-05
7.34748e-06
9.20686e-06
3.22692e-05
5.57276e-05
5.49665e-05
3.10331e-05
1.16739e-05
7.43866e-06
1.36125e-05
2.72125e-05
5.51986e-05
3.25089e-05
9.38662e-06
1.17912e-05
3.05545e-05
5.34119e-05
2.65832e-05
1.336e-05
7.3321e-06
9.19556e-06
3.11277e-05
5.27023e-05
5.16449e-05
2.99637e-05
1.17655e-05
7.3993e-06
1.26923e-05
2.57957e-05
5.09417e-05
3.02787e-05
9.17586e-06
1.17212e-05
2.85124e-05
4.98052e-05
2.51938e-05
1.26367e-05
7.27592e-06
8.83098e-06
2.88901e-05
4.82543e-05
4.74365e-05
2.70058e-05
1.11982e-05
6.84201e-06
1.15744e-05
2.29853e-05
4.27288e-05
3.09882e-05
7.87063e-06
9.37624e-06
1.51832e-05
2.70007e-05
5.42652e-05
3.36431e-05
1.12086e-05
1.36135e-05
3.08745e-05
5.18022e-05
2.69998e-05
1.42611e-05
8.42028e-06
1.02499e-05
3.2095e-05
5.15341e-05
4.99949e-05
2.99637e-05
1.30161e-05
8.28656e-06
1.42307e-05
2.65365e-05
5.1045e-05
3.18727e-05
1.01734e-05
1.2838e-05
3.00237e-05
4.96662e-05
2.59811e-05
1.39746e-05
8.10111e-06
9.83474e-06
3.06462e-05
4.83393e-05
4.7003e-05
2.82473e-05
1.2538e-05
7.91108e-06
1.36316e-05
2.48552e-05
4.60007e-05
2.90611e-05
9.43221e-06
1.18187e-05
2.67149e-05
4.428e-05
2.22247e-05
1.19798e-05
7.12076e-06
8.00241e-06
2.93248e-05
3.91317e-05
2.49614e-05
1.49158e-05
9.45991e-06
1.09614e-05
2.97024e-05
4.66546e-05
4.41281e-05
2.71527e-05
1.32941e-05
8.16197e-06
1.38601e-05
2.39626e-05
4.33122e-05
2.80414e-05
9.6674e-06
1.21771e-05
2.62216e-05
4.11658e-05
2.18428e-05
1.24699e-05
7.50099e-06
8.29085e-06
2.85827e-05
3.72927e-05
2.43027e-05
1.49292e-05
9.78857e-06
1.13214e-05
2.93043e-05
4.48213e-05
4.21303e-05
2.66109e-05
1.36065e-05
8.33344e-06
1.3972e-05
2.34543e-05
4.2156e-05
2.76111e-05
9.87992e-06
1.23188e-05
2.52186e-05
3.99524e-05
2.1247e-05
1.23924e-05
7.46263e-06
8.27176e-06
2.73043e-05
3.54104e-05
2.32484e-05
1.46033e-05
9.7378e-06
1.10724e-05
2.77124e-05
4.23651e-05
3.97799e-05
2.53028e-05
1.32965e-05
8.16588e-06
1.3745e-05
2.22197e-05
3.92095e-05
2.59228e-05
9.77057e-06
1.21283e-05
2.38622e-05
3.72586e-05
2.03476e-05
1.26867e-05
7.37525e-06
8.15659e-06
2.69818e-05
3.29239e-05
2.19093e-05
1.43958e-05
9.56933e-06
1.08717e-05
2.54135e-05
3.92136e-05
3.65284e-05
2.29821e-05
1.29425e-05
7.56772e-06
1.24412e-05
1.99971e-05
3.24993e-05
2.61142e-05
8.22204e-06
9.62095e-06
1.44616e-05
2.18716e-05
3.89446e-05
2.53627e-05
1.08693e-05
1.32299e-05
2.32475e-05
3.64028e-05
2.01906e-05
1.29168e-05
7.92502e-06
8.52972e-06
2.57365e-05
3.22721e-05
2.1968e-05
1.47799e-05
9.87832e-06
1.09995e-05
2.54318e-05
3.8638e-05
3.59195e-05
2.30155e-05
1.32698e-05
7.84711e-06
1.28307e-05
1.99474e-05
3.18343e-05
2.62788e-05
8.33953e-06
9.80116e-06
1.46963e-05
2.16496e-05
3.789e-05
2.47414e-05
1.10521e-05
1.32546e-05
2.25357e-05
3.53779e-05
1.97368e-05
1.2747e-05
7.90252e-06
8.48698e-06
2.55974e-05
3.12948e-05
2.15088e-05
1.47745e-05
9.85824e-06
1.08946e-05
2.46804e-05
3.73257e-05
3.46542e-05
2.24325e-05
1.29426e-05
7.72587e-06
1.28035e-05
1.93854e-05
2.98628e-05
2.62642e-05
8.16754e-06
9.24051e-06
1.45457e-05
2.08064e-05
3.29068e-05
2.5088e-05
9.55017e-06
1.09012e-05
1.52534e-05
2.24194e-05
3.78468e-05
2.45777e-05
1.18137e-05
1.37445e-05
2.23626e-05
3.50159e-05
1.97884e-05
1.29609e-05
8.0448e-06
8.56617e-06
2.54216e-05
3.08205e-05
2.13111e-05
1.49767e-05
1.0034e-05
1.10666e-05
2.40713e-05
3.63588e-05
3.38633e-05
2.19419e-05
1.30954e-05
7.75357e-06
1.2871e-05
1.91699e-05
2.93086e-05
2.55706e-05
8.21975e-06
9.3492e-06
1.45915e-05
2.06178e-05
3.21259e-05
2.48454e-05
9.61934e-06
1.07258e-05
1.52908e-05
2.2113e-05
3.70133e-05
2.39311e-05
1.1612e-05
1.37192e-05
2.20301e-05
3.42075e-05
1.94384e-05
1.29544e-05
8.09318e-06
8.45779e-06
2.50352e-05
2.99501e-05
2.11578e-05
1.50191e-05
9.75528e-06
9.91575e-06
2.53271e-05
3.2672e-05
2.255e-05
1.58258e-05
1.1063e-05
1.1867e-05
2.4167e-05
3.72828e-05
3.43658e-05
2.1971e-05
1.38838e-05
8.19924e-06
1.32105e-05
1.96301e-05
2.97641e-05
2.58158e-05
8.52356e-06
9.68958e-06
1.51001e-05
2.11524e-05
3.23901e-05
2.55003e-05
9.9488e-06
1.11403e-05
1.58322e-05
2.24938e-05
3.70629e-05
2.41566e-05
1.20529e-05
1.4082e-05
2.21353e-05
3.42153e-05
1.97437e-05
1.33473e-05
8.36369e-06
8.7893e-06
2.53026e-05
3.00348e-05
2.1395e-05
1.53099e-05
1.0037e-05
1.01738e-05
2.53601e-05
3.25679e-05
2.26823e-05
1.5985e-05
1.11546e-05
1.18366e-05
2.41053e-05
3.69085e-05
3.40042e-05
2.19151e-05
1.37028e-05
8.05315e-06
1.29059e-05
1.93099e-05
2.91817e-05
2.46499e-05
8.41195e-06
9.59074e-06
1.47406e-05
2.06582e-05
3.13587e-05
2.46748e-05
9.8792e-06
1.09217e-05
1.55151e-05
2.18911e-05
3.54435e-05
2.34088e-05
1.17763e-05
1.37914e-05
2.14703e-05
3.28352e-05
1.90273e-05
1.2857e-05
8.18944e-06
8.53537e-06
2.42272e-05
2.87108e-05
2.04931e-05
1.46184e-05
9.61197e-06
9.7315e-06
2.41699e-05
3.08408e-05
2.1808e-05
1.54405e-05
1.06805e-05
1.05036e-05
2.48046e-05
3.21886e-05
2.26957e-05
1.64317e-05
1.15974e-05
1.23848e-05
2.40652e-05
3.61403e-05
3.31527e-05
2.19363e-05
1.42415e-05
8.36052e-06
1.34136e-05
1.93682e-05
2.87418e-05
2.53485e-05
8.59311e-06
9.64686e-06
1.49563e-05
2.0684e-05
3.06065e-05
2.42247e-05
9.79339e-06
1.06555e-05
1.54084e-05
2.17944e-05
3.18123e-05
2.45899e-05
1.05672e-05
1.1636e-05
1.63556e-05
2.25799e-05
3.56036e-05
2.38073e-05
1.22826e-05
1.42202e-05
2.18735e-05
3.28688e-05
1.93679e-05
1.32942e-05
8.45276e-06
8.70053e-06
2.46996e-05
2.88231e-05
2.07629e-05
1.49535e-05
9.86773e-06
1.00407e-05
2.4079e-05
3.08148e-05
2.19969e-05
1.57164e-05
1.09598e-05
1.08655e-05
2.49626e-05
3.20032e-05
2.28353e-05
1.66256e-05
1.18867e-05
1.25365e-05
2.40552e-05
3.57841e-05
3.29215e-05
2.20168e-05
1.43935e-05
8.48555e-06
1.33211e-05
1.95061e-05
2.85899e-05
2.46005e-05
8.71046e-06
9.84008e-06
1.49295e-05
2.07235e-05
3.03333e-05
2.39636e-05
9.85254e-06
1.06775e-05
1.53606e-05
2.16596e-05
3.12174e-05
2.42889e-05
1.05754e-05
1.16648e-05
1.63021e-05
2.24249e-05
3.47523e-05
2.34122e-05
1.23842e-05
1.42513e-05
2.16034e-05
3.22618e-05
1.93396e-05
1.36624e-05
8.52476e-06
8.90726e-06
2.49133e-05
2.81331e-05
2.06786e-05
1.51937e-05
9.94394e-06
9.99586e-06
2.43171e-05
3.00795e-05
2.15923e-05
1.54744e-05
1.07613e-05
1.03813e-05
2.39204e-05
3.0879e-05
2.22803e-05
1.60004e-05
1.12269e-05
1.10852e-05
2.49771e-05
3.16668e-05
2.28063e-05
1.68821e-05
1.20397e-05
1.25354e-05
2.38355e-05
3.50452e-05
3.24022e-05
2.18245e-05
1.43021e-05
8.39507e-06
1.30988e-05
1.93648e-05
2.78108e-05
2.39857e-05
8.67553e-06
9.83771e-06
1.4725e-05
2.0394e-05
2.94315e-05
2.33411e-05
1.0015e-05
1.08195e-05
1.5346e-05
2.14216e-05
3.02915e-05
2.37473e-05
1.05136e-05
1.13413e-05
1.59823e-05
2.20573e-05
3.12924e-05
2.46166e-05
1.1126e-05
1.20906e-05
1.68678e-05
2.27562e-05
3.49345e-05
2.39263e-05
1.27611e-05
1.47215e-05
2.21552e-05
3.24244e-05
1.97549e-05
1.37689e-05
8.84264e-06
9.1646e-06
2.49524e-05
2.84078e-05
2.08183e-05
1.52455e-05
1.02324e-05
1.01691e-05
2.39733e-05
3.00992e-05
2.18412e-05
1.57214e-05
1.10534e-05
1.08485e-05
2.4301e-05
3.08867e-05
2.24524e-05
1.63055e-05
1.16101e-05
1.13013e-05
2.50465e-05
3.16759e-05
2.30965e-05
1.72015e-05
1.23258e-05
1.29606e-05
2.41341e-05
3.49784e-05
3.24398e-05
2.21216e-05
1.47008e-05
8.77433e-06
1.36007e-05
1.98202e-05
2.79996e-05
2.42514e-05
9.0886e-06
1.01457e-05
1.51581e-05
2.08389e-05
2.95541e-05
2.37112e-05
1.0112e-05
1.09187e-05
1.55809e-05
2.17253e-05
3.02211e-05
2.38159e-05
1.07079e-05
1.15183e-05
1.61735e-05
2.22263e-05
3.11025e-05
2.46556e-05
1.14633e-05
1.24114e-05
1.71314e-05
2.28243e-05
3.43612e-05
2.40626e-05
1.309e-05
1.49695e-05
2.22311e-05
3.21268e-05
1.99159e-05
1.38844e-05
8.9615e-06
9.25789e-06
2.47107e-05
2.81851e-05
2.0963e-05
1.53898e-05
1.03153e-05
1.03533e-05
2.39687e-05
2.97501e-05
2.19861e-05
1.59055e-05
1.12192e-05
1.09585e-05
2.41691e-05
3.05992e-05
2.25493e-05
1.64167e-05
1.1701e-05
1.14979e-05
2.49367e-05
3.12852e-05
2.3003e-05
1.71838e-05
1.23983e-05
1.2976e-05
2.39372e-05
3.43325e-05
3.19391e-05
2.1986e-05
1.474e-05
8.76574e-06
1.35568e-05
1.97088e-05
2.74271e-05
2.40913e-05
9.12336e-06
1.01778e-05
1.50594e-05
2.05881e-05
2.87026e-05
2.31321e-05
1.02517e-05
1.1117e-05
1.56174e-05
2.14806e-05
2.9479e-05
2.35333e-05
1.08352e-05
1.15294e-05
1.61326e-05
2.19988e-05
3.01767e-05
2.41375e-05
1.12638e-05
1.1973e-05
1.66784e-05
2.25792e-05
3.11571e-05
2.50856e-05
1.17258e-05
1.27035e-05
1.75332e-05
2.31923e-05
3.45647e-05
2.43378e-05
1.35114e-05
1.54296e-05
2.25498e-05
3.23596e-05
2.03283e-05
1.44871e-05
9.33967e-06
9.70665e-06
2.52739e-05
2.84231e-05
2.14898e-05
1.60139e-05
1.07997e-05
1.08795e-05
2.4567e-05
3.00307e-05
2.23996e-05
1.64182e-05
1.16936e-05
1.14835e-05
2.46777e-05
3.08559e-05
2.30305e-05
1.69298e-05
1.22098e-05
1.19691e-05
2.54245e-05
3.17944e-05
2.36958e-05
1.78586e-05
1.29854e-05
1.36909e-05
2.467e-05
3.48919e-05
3.24645e-05
2.27369e-05
1.55062e-05
9.36069e-06
1.44416e-05
2.04149e-05
2.82938e-05
2.51087e-05
9.71769e-06
1.0804e-05
1.59228e-05
2.15188e-05
2.95445e-05
2.4277e-05
1.07597e-05
1.15406e-05
1.62405e-05
2.22605e-05
3.00892e-05
2.42362e-05
1.14247e-05
1.21179e-05
1.67679e-05
2.27199e-05
3.08328e-05
2.48856e-05
1.19026e-05
1.2869e-05
1.76156e-05
2.32205e-05
3.39376e-05
2.4175e-05
1.37095e-05
1.56673e-05
2.25342e-05
3.18309e-05
2.03418e-05
1.46308e-05
9.51256e-06
9.86377e-06
2.50614e-05
2.80611e-05
2.154e-05
1.61721e-05
1.10069e-05
1.11142e-05
2.45521e-05
2.96157e-05
2.24539e-05
1.65818e-05
1.19051e-05
1.16452e-05
2.45586e-05
3.03729e-05
2.30109e-05
1.71168e-05
1.24023e-05
1.22823e-05
2.52157e-05
3.1308e-05
2.36962e-05
1.80413e-05
1.32516e-05
1.39711e-05
2.464e-05
3.43549e-05
3.20449e-05
2.27964e-05
1.57894e-05
9.60288e-06
1.46989e-05
2.05851e-05
2.81972e-05
2.52823e-05
9.89702e-06
1.09177e-05
1.60627e-05
2.16058e-05
2.93323e-05
2.42648e-05
1.10414e-05
1.18494e-05
1.64408e-05
2.23587e-05
2.98946e-05
2.42748e-05
1.16732e-05
1.24518e-05
1.70563e-05
2.28589e-05
3.06774e-05
2.49122e-05
1.22712e-05
1.33069e-05
1.80059e-05
2.34323e-05
3.37553e-05
2.44492e-05
1.42125e-05
1.61006e-05
2.28779e-05
3.17502e-05
2.08311e-05
1.51161e-05
9.9387e-06
1.03461e-05
2.53643e-05
2.83895e-05
2.19485e-05
1.6594e-05
1.13368e-05
1.14759e-05
2.51758e-05
2.99338e-05
2.28949e-05
1.71131e-05
1.2297e-05
1.20941e-05
2.5198e-05
3.08446e-05
2.34002e-05
1.77899e-05
1.31015e-05
1.39157e-05
2.40596e-05
3.35912e-05
3.13965e-05
2.2427e-05
1.57309e-05
9.61678e-06
1.45472e-05
2.03498e-05
2.74625e-05
2.44624e-05
1.00118e-05
1.10593e-05
1.61417e-05
2.14055e-05
2.87995e-05
2.43644e-05
1.12304e-05
1.20412e-05
1.66508e-05
2.22817e-05
2.97309e-05
2.42622e-05
1.20747e-05
1.31236e-05
1.76041e-05
2.29025e-05
3.25215e-05
2.37246e-05
1.39438e-05
1.58427e-05
2.2309e-05
3.06946e-05
2.03339e-05
1.4929e-05
9.80868e-06
1.01805e-05
2.48576e-05
2.74529e-05
2.15145e-05
1.64445e-05
1.12168e-05
1.14141e-05
2.44544e-05
2.90037e-05
2.24258e-05
1.69309e-05
1.22957e-05
1.21947e-05
2.45162e-05
2.98797e-05
2.29791e-05
1.76419e-05
1.30891e-05
1.38785e-05
2.36766e-05
3.2476e-05
3.05201e-05
2.21707e-05
1.57722e-05
9.6531e-06
1.44795e-05
2.02576e-05
2.68823e-05
2.4102e-05
1.00548e-05
1.11691e-05
1.61586e-05
2.12302e-05
2.82801e-05
2.40791e-05
1.1432e-05
1.22476e-05
1.67812e-05
2.217e-05
2.93508e-05
2.40541e-05
1.22591e-05
1.33006e-05
1.77637e-05
2.2883e-05
3.21897e-05
2.37448e-05
1.41808e-05
1.60242e-05
2.24402e-05
3.04691e-05
2.05214e-05
1.5069e-05
9.95867e-06
1.04597e-05
2.47636e-05
2.73914e-05
2.15947e-05
1.66214e-05
1.15394e-05
1.17595e-05
2.46186e-05
2.89865e-05
2.26792e-05
1.73054e-05
1.26312e-05
1.27092e-05
2.46714e-05
3.00826e-05
2.34028e-05
1.82091e-05
1.36594e-05
1.44674e-05
2.41862e-05
3.27894e-05
3.09639e-05
2.27867e-05
1.63078e-05
1.0173e-05
1.52722e-05
2.09182e-05
2.76593e-05
2.49865e-05
1.06661e-05
1.17067e-05
1.69195e-05
2.19748e-05
2.92841e-05
2.47207e-05
1.21119e-05
1.3272e-05
1.79133e-05
2.30351e-05
3.21311e-05
2.38576e-05
1.43625e-05
1.6227e-05
2.26537e-05
3.05146e-05
2.06067e-05
1.50732e-05
1.01709e-05
1.07333e-05
2.45412e-05
2.736e-05
2.18372e-05
1.69063e-05
1.1843e-05
1.21306e-05
2.47384e-05
2.90982e-05
2.29818e-05
1.76946e-05
1.30122e-05
1.3193e-05
2.49961e-05
3.04324e-05
2.3947e-05
1.87785e-05
1.41831e-05
1.52111e-05
2.49162e-05
3.33798e-05
3.14909e-05
2.35344e-05
1.71399e-05
1.08062e-05
1.60527e-05
2.16239e-05
2.85282e-05
2.57772e-05
1.12444e-05
1.23566e-05
1.77204e-05
2.28528e-05
3.02879e-05
2.55901e-05
1.28202e-05
1.39135e-05
1.87397e-05
2.39273e-05
3.32759e-05
2.48352e-05
1.49504e-05
1.70198e-05
2.35956e-05
3.16751e-05
2.1846e-05
1.62856e-05
1.10577e-05
1.16381e-05
2.5773e-05
2.87359e-05
2.30479e-05
1.80476e-05
1.26772e-05
1.32027e-05
2.58519e-05
3.07156e-05
2.4359e-05
1.92147e-05
1.43432e-05
1.55844e-05
2.53485e-05
3.38137e-05
3.20713e-05
2.40266e-05
1.75666e-05
1.12365e-05
1.65163e-05
2.22204e-05
2.93486e-05
2.60687e-05
1.18791e-05
1.32395e-05
1.85771e-05
2.35422e-05
3.27918e-05
2.49979e-05
1.47054e-05
1.67534e-05
2.37458e-05
3.14293e-05
2.17513e-05
1.60465e-05
1.0696e-05
1.13345e-05
2.60693e-05
2.8601e-05
2.28367e-05
1.76758e-05
1.24685e-05
1.30291e-05
2.52265e-05
3.02011e-05
2.39833e-05
1.88466e-05
1.41981e-05
1.54114e-05
2.47776e-05
3.30577e-05
3.1569e-05
2.3618e-05
1.73525e-05
1.11972e-05
1.64439e-05
2.21013e-05
2.89235e-05
2.56257e-05
1.19842e-05
1.332e-05
1.86608e-05
2.34337e-05
3.23934e-05
2.5024e-05
1.49341e-05
1.70166e-05
2.38785e-05
3.11605e-05
2.20005e-05
1.63982e-05
1.11133e-05
1.18664e-05
2.5763e-05
2.87455e-05
2.31383e-05
1.84246e-05
1.30753e-05
1.44377e-05
2.44152e-05
3.20019e-05
3.08052e-05
2.32529e-05
1.65366e-05
1.0807e-05
1.59022e-05
2.14784e-05
2.82236e-05
2.49912e-05
1.1776e-05
1.31065e-05
1.8211e-05
2.28703e-05
3.15646e-05
2.44092e-05
1.46998e-05
1.68293e-05
2.33707e-05
3.04428e-05
2.16287e-05
1.61484e-05
1.10193e-05
1.18555e-05
2.51487e-05
2.81906e-05
2.28872e-05
1.83144e-05
1.31257e-05
1.45871e-05
2.43464e-05
3.15108e-05
3.03788e-05
2.32153e-05
1.66341e-05
1.08473e-05
1.59606e-05
2.14829e-05
2.80964e-05
2.58568e-05
1.16433e-05
1.30007e-05
1.80555e-05
2.26839e-05
3.13508e-05
2.3904e-05
1.47795e-05
1.69779e-05
2.30278e-05
3.02873e-05
2.16329e-05
1.64047e-05
1.12967e-05
1.22618e-05
2.50493e-05
2.82933e-05
2.31489e-05
1.87894e-05
1.35889e-05
1.52496e-05
2.48861e-05
3.19272e-05
3.08368e-05
2.38698e-05
1.73412e-05
1.148e-05
1.6671e-05
2.21843e-05
2.89142e-05
2.56182e-05
1.24711e-05
1.38532e-05
1.91425e-05
2.36763e-05
3.28492e-05
2.5597e-05
1.57466e-05
1.7985e-05
2.4758e-05
3.18718e-05
2.29849e-05
1.76667e-05
1.24151e-05
1.44388e-05
2.55989e-05
3.14897e-05
3.06921e-05
2.46046e-05
1.68574e-05
1.15131e-05
1.69012e-05
2.2305e-05
2.94782e-05
2.58753e-05
1.26763e-05
1.40636e-05
1.94157e-05
2.41201e-05