/*--------------------------------*- C++ -*----------------------------------*\
| =========                 |                                                 |
| \\      /  F ield         | OpenFOAM: The Open Source CFD Toolbox           |
|  \\    /   O peration     | Version:  v2006                                 |
|   \\  /    A nd           | Website:  www.openfoam.com                      |
|    \\/     M anipulation  |                                                 |
\*---------------------------------------------------------------------------*/
FoamFile
{
    version     2.0;
    format      ascii;
    class       volScalarField;
    location    "0.086";
    object      rho;
}
// * * * * * * * * * * * * * * * * * * * * * * * * * * * * * * * * * * * * * //

dimensions      [1 -3 0 0 0 0 0];


internalField   nonuniform List<scalar> 
10108
(
1.71029
1.71033
1.71027
1.71036
1.71029
1.71032
1.71035
1.71041
1.7105
1.71059
1.7107
1.7108
1.71091
1.71102
1.71114
1.71126
1.71139
1.71152
1.71166
1.7118
1.71195
1.7121
1.71226
1.71242
1.71258
1.71275
1.71292
1.71309
1.71327
1.71345
1.71363
1.71381
1.71399
1.71418
1.71436
1.71454
1.71472
1.71491
1.71509
1.71527
1.71544
1.71562
1.71579
1.71595
1.71612
1.71628
1.71643
1.71659
1.71673
1.71687
1.71701
1.71714
1.71726
1.71738
1.71749
1.7176
1.7177
1.71778
1.71785
1.7179
1.71791
1.71792
1.71792
1.71792
1.71789
1.71794
1.71799
1.71808
1.71832
1.71868
1.71886
1.7187
1.71835
1.71874
1.71878
1.7187
1.71858
1.7181
1.71786
1.71842
1.71858
1.71844
1.71825
1.71766
1.7175
1.7181
1.71831
1.7182
1.71797
1.71737
1.71728
1.71787
1.71811
1.71803
1.71778
1.7172
1.71714
1.71771
1.71796
1.7179
1.71765
1.71709
1.71706
1.7176
1.71785
1.71781
1.71756
1.71704
1.71703
1.71752
1.71778
1.71775
1.7175
1.71702
1.71702
1.71748
1.71773
1.71772
1.71748
1.71704
1.71706
1.71748
1.71772
1.71773
1.71749
1.71708
1.71711
1.7175
1.71773
1.71775
1.71752
1.71714
1.71718
1.71754
1.71777
1.71779
1.71757
1.71723
1.71727
1.7176
1.71782
1.71786
1.71765
1.71732
1.71738
1.71768
1.71789
1.71794
1.71774
1.71744
1.7175
1.71778
1.71799
1.71804
1.71785
1.71757
1.71764
1.7179
1.7181
1.71816
1.71798
1.71772
1.7178
1.71804
1.71822
1.7183
1.71812
1.71789
1.71797
1.71819
1.71837
1.71845
1.71828
1.71806
1.71815
1.71836
1.71853
1.71862
1.71846
1.71826
1.71835
1.71854
1.7187
1.7188
1.71865
1.71847
1.71857
1.71874
1.7189
1.719
1.71886
1.71869
1.7188
1.71896
1.7191
1.71922
1.71908
1.71893
1.71905
1.71919
1.71933
1.71946
1.71933
1.71919
1.71931
1.71944
1.71957
1.71971
1.71958
1.71946
1.71959
1.71971
1.71983
1.71997
1.71986
1.71975
1.71989
1.71999
1.72011
1.72026
1.72015
1.72006
1.7202
1.72029
1.7204
1.72056
1.72047
1.72038
1.72054
1.72061
1.72071
1.72089
1.7208
1.72072
1.72089
1.72095
1.72104
1.72123
1.72115
1.72109
1.72126
1.72131
1.72139
1.72159
1.72152
1.72147
1.72165
1.72169
1.72177
1.72197
1.72191
1.72187
1.72206
1.72209
1.72216
1.72237
1.72232
1.72229
1.7225
1.72251
1.72257
1.7228
1.72275
1.72274
1.72295
1.72295
1.723
1.72324
1.7232
1.7232
1.72343
1.72342
1.72346
1.72371
1.72368
1.72369
1.72392
1.7239
1.72393
1.72419
1.72417
1.7242
1.72444
1.72441
1.72443
1.7247
1.72469
1.72472
1.72498
1.72493
1.72494
1.72522
1.72522
1.72527
1.72553
1.72547
1.72548
1.72576
1.72577
1.72583
1.7261
1.72603
1.72603
1.72632
1.72634
1.72641
1.72669
1.72661
1.72659
1.72689
1.72692
1.727
1.72729
1.7272
1.72717
1.72748
1.72751
1.7276
1.72789
1.72779
1.72775
1.72806
1.72811
1.72821
1.7285
1.72839
1.72834
1.72865
1.72871
1.72882
1.7291
1.72898
1.72893
1.72924
1.7293
1.72942
1.7297
1.72957
1.72951
1.72981
1.72988
1.73
1.73027
1.73014
1.73007
1.73036
1.73043
1.73057
1.73082
1.73069
1.73061
1.73088
1.73096
1.7311
1.73134
1.7312
1.73112
1.73137
1.73146
1.7316
1.73182
1.73167
1.73159
1.73181
1.73191
1.73205
1.73224
1.7321
1.73201
1.73221
1.73231
1.73245
1.73262
1.73247
1.73238
1.73255
1.73265
1.73279
1.73293
1.73279
1.73269
1.73284
1.73294
1.73307
1.73319
1.73305
1.73296
1.73307
1.73317
1.7333
1.7334
1.73326
1.73317
1.73326
1.73336
1.73349
1.73356
1.73343
1.73333
1.7334
1.7335
1.73362
1.73367
1.73355
1.73345
1.73351
1.7336
1.73372
1.73375
1.73364
1.73355
1.73358
1.73367
1.73379
1.73381
1.7337
1.73361
1.73364
1.73372
1.73383
1.73384
1.73374
1.73366
1.73367
1.73376
1.73385
1.73386
1.73377
1.73369
1.7337
1.73378
1.73386
1.73387
1.73378
1.73371
1.73372
1.73379
1.73387
1.73387
1.73379
1.73372
1.73372
1.73379
1.73386
1.73386
1.73379
1.73373
1.73373
1.73379
1.73386
1.73385
1.73379
1.73373
1.73373
1.73379
1.73385
1.73384
1.73378
1.73373
1.73373
1.73378
1.73383
1.73383
1.73378
1.73373
1.73373
1.73377
1.73382
1.73382
1.73377
1.73373
1.73373
1.73377
1.73381
1.73381
1.73377
1.73373
1.73373
1.73377
1.73381
1.7338
1.73376
1.73372
1.73373
1.73377
1.7338
1.7338
1.73376
1.73372
1.73367
1.73363
1.73361
1.73363
1.73365
1.73367
1.73369
1.73371
1.73374
1.73376
1.73378
1.73381
1.73383
1.73385
1.73386
1.73388
1.73389
1.7339
1.73392
1.73393
1.7339
1.7339
1.73388
1.73387
1.73403
1.73469
1.733
1.73265
1.73533
1.73395
1.73327
1.73708
1.72817
1.73487
1.73309
1.73378
1.73378
1.73383
1.73357
1.73381
1.7338
1.73383
1.73382
1.7338
1.73377
1.7338
1.73382
1.73385
1.73384
1.73381
1.73379
1.73381
1.73383
1.73386
1.73385
1.73383
1.7338
1.73381
1.73385
1.73388
1.73387
1.73385
1.73381
1.73383
1.73386
1.73389
1.73389
1.73386
1.73383
1.73384
1.73388
1.73391
1.73391
1.73388
1.73384
1.73385
1.73389
1.73392
1.73392
1.73389
1.73385
1.73386
1.73391
1.73394
1.73394
1.7339
1.73386
1.73388
1.73392
1.73395
1.73395
1.73392
1.73387
1.73389
1.73393
1.73397
1.73397
1.73393
1.73388
1.7339
1.73394
1.73398
1.73398
1.73394
1.73389
1.73391
1.73396
1.734
1.73399
1.73395
1.7339
1.73391
1.73397
1.73401
1.73401
1.73396
1.73391
1.73392
1.73398
1.73402
1.73402
1.73398
1.73392
1.73392
1.73399
1.73404
1.73403
1.73398
1.73392
1.73392
1.73399
1.73405
1.73405
1.73399
1.73392
1.73392
1.734
1.73406
1.73406
1.734
1.73391
1.73391
1.734
1.73407
1.73406
1.734
1.7339
1.73389
1.734
1.73407
1.73406
1.73399
1.73387
1.73386
1.73398
1.73406
1.73404
1.73396
1.73383
1.73377
1.73392
1.73399
1.73393
1.73384
1.73368
1.7336
1.7338
1.73389
1.73395
1.73385
1.73364
1.73373
1.73398
1.73407
1.7343
1.73421
1.734
1.73421
1.73444
1.73452
1.73475
1.73466
1.73443
1.73468
1.7349
1.73499
1.73526
1.73518
1.73495
1.7352
1.73544
1.73552
1.73579
1.73571
1.73547
1.73568
1.73596
1.73604
1.73635
1.73626
1.73599
1.73628
1.73656
1.73667
1.73701
1.73686
1.73659
1.73694
1.7372
1.73746
1.73794
1.73748
1.73741
1.73725
1.73691
1.73817
1.73811
1.73823
1.73766
1.73834
1.73851
1.73858
1.739
1.73896
1.73863
1.73903
1.73944
1.73948
1.74003
1.74002
1.73941
1.73988
1.74076
1.74069
1.74119
1.74168
1.74038
1.73897
1.74326
1.74194
1.74224
1.74227
1.74274
1.74286
1.74312
1.74308
1.74388
1.74394
1.74381
1.74478
1.74472
1.74466
1.74611
1.74551
1.74589
1.74703
1.74703
1.74652
1.74723
1.74801
1.74843
1.75175
1.75047
1.749
1.7488
1.75022
1.75127
1.75281
1.75058
1.74859
1.74643
1.74652
1.75718
1.72467
1.72648
1.72777
1.71313
1.71068
1.70498
1.69824
1.70391
1.7073
1.7061
1.7043
1.70159
1.70249
1.70455
1.70594
1.7052
1.70418
1.70212
1.70527
1.70637
1.70709
1.70781
1.70697
1.70563
1.7065
1.70592
1.70675
1.70919
1.70831
1.70856
1.7088
1.70844
1.70937
1.70913
1.70965
1.70678
1.70931
1.71094
1.71064
1.71105
1.71105
1.70954
1.71046
1.71002
1.71068
1.71235
1.71187
1.71188
1.71189
1.71181
1.71224
1.71204
1.71193
1.71146
1.71298
1.71339
1.71336
1.71334
1.71317
1.71274
1.71264
1.71279
1.71313
1.71434
1.71426
1.71394
1.71367
1.71397
1.71423
1.71405
1.71377
1.71368
1.71475
1.71508
1.71512
1.71494
1.71473
1.71445
1.71433
1.71442
1.7147
1.71569
1.71564
1.71528
1.71506
1.71532
1.71553
1.71518
1.71491
1.7148
1.71578
1.71614
1.71618
1.71595
1.71577
1.71543
1.71546
1.7154
1.71565
1.71656
1.71656
1.71598
1.71665
1.71558
1.71586
1.71654
1.71904
1.71064
1.71474
1.71869
1.71698
1.71673
1.71678
1.7138
1.71602
1.71748
1.71723
1.71708
1.71703
1.71574
1.71515
1.7157
1.71634
1.71721
1.71706
1.71608
1.71713
1.71629
1.71666
1.71686
1.71884
1.71117
1.71469
1.71867
1.71726
1.71692
1.71677
1.71377
1.71626
1.71772
1.71744
1.71718
1.71697
1.7156
1.71468
1.7154
1.71617
1.71706
1.71686
1.71594
1.71569
1.71608
1.71654
1.717
1.71696
1.71632
1.71564
1.7162
1.71655
1.71557
1.71516
1.71481
1.71612
1.71665
1.71667
1.71609
1.71579
1.71549
1.71579
1.71635
1.71639
1.71592
1.71561
1.71513
1.71456
1.71478
1.71506
1.7161
1.71613
1.71578
1.71482
1.71512
1.7154
1.71566
1.71562
1.71511
1.71443
1.71488
1.71518
1.71438
1.71415
1.71396
1.7149
1.71528
1.71526
1.71453
1.71428
1.71393
1.71435
1.71474
1.71479
1.71408
1.71413
1.71296
1.71533
1.71229
1.7135
1.71417
1.71444
1.71459
1.71361
1.71361
1.7131
1.71349
1.71354
1.71345
1.71258
1.71275
1.71271
1.71329
1.7134
1.71289
1.7134
1.71258
1.71246
1.71284
1.71384
1.70888
1.71102
1.71291
1.71306
1.71237
1.71164
1.71001
1.71105
1.71241
1.71233
1.71166
1.71117
1.71043
1.71093
1.71199
1.71187
1.71077
1.71062
1.71089
1.70604
1.71185
1.71095
1.71131
1.71067
1.70908
1.70816
1.70957
1.71066
1.71068
1.71079
1.70951
1.70823
1.70904
1.70976
1.70975
1.70972
1.70867
1.70769
1.70836
1.70885
1.70904
1.70908
1.70802
1.70811
1.70785
1.70795
1.70843
1.7095
1.70369
1.70699
1.70779
1.7087
1.70809
1.70665
1.70562
1.70618
1.7075
1.70769
1.70672
1.70593
1.70509
1.70566
1.70683
1.70683
1.70606
1.70563
1.70501
1.70515
1.70617
1.7061
1.70492
1.70468
1.70461
1.70126
1.70518
1.70465
1.70496
1.70424
1.70326
1.70238
1.70312
1.70442
1.70438
1.70422
1.70314
1.70207
1.70267
1.7034
1.70325
1.70319
1.70212
1.70085
1.70154
1.70212
1.70224
1.70222
1.70121
1.70028
1.70089
1.70134
1.70135
1.70138
1.70037
1.69988
1.70006
1.70052
1.69981
1.70002
1.69724
1.69884
1.69947
1.70007
1.69938
1.69833
1.6977
1.69792
1.69897
1.69919
1.69811
1.69723
1.69665
1.69689
1.69805
1.69814
1.69709
1.69654
1.69586
1.69612
1.69718
1.69714
1.69606
1.69554
1.69475
1.69508
1.69595
1.69592
1.69519
1.69481
1.69373
1.69321
1.69301
1.69349
1.69385
1.69389
1.69332
1.69237
1.69293
1.69287
1.69301
1.69312
1.69231
1.69109
1.69167
1.69188
1.69183
1.69178
1.69086
1.68936
1.69014
1.69049
1.69081
1.69074
1.68985
1.68869
1.68937
1.6897
1.68971
1.68973
1.68869
1.68756
1.68797
1.68851
1.68751
1.68762
1.68474
1.68676
1.68739
1.6882
1.68715
1.68613
1.68528
1.68552
1.68677
1.68691
1.68561
1.68467
1.684
1.68408
1.68543
1.68541
1.68401
1.68324
1.68229
1.68269
1.68394
1.6839
1.68266
1.68203
1.68116
1.68156
1.68256
1.68254
1.68179
1.68118
1.67962
1.67964
1.67904
1.67945
1.67981
1.6799
1.67951
1.67783
1.6784
1.67834
1.67856
1.67858
1.67756
1.67605
1.67685
1.67708
1.67726
1.67725
1.67621
1.67434
1.67529
1.67574
1.67566
1.67562
1.67467
1.6727
1.67365
1.67422
1.67394
1.6738
1.67284
1.67065
1.67206
1.67278
1.67031
1.66975
1.66976
1.67019
1.67107
1.67088
1.66954
1.66958
1.66873
1.66891
1.66987
1.66972
1.66818
1.66792
1.66695
1.66642
1.66767
1.66764
1.66573
1.66503
1.66386
1.66399
1.66545
1.66573
1.66413
1.6634
1.66226
1.66284
1.66411
1.66421
1.6631
1.66245
1.66111
1.65899
1.65935
1.66021
1.66059
1.66075
1.65959
1.65758
1.65878
1.65906
1.65838
1.65785
1.65604
1.65348
1.65505
1.65603
1.65664
1.65641
1.65473
1.65314
1.65441
1.65514
1.65491
1.65485
1.6532
1.65119
1.65253
1.65334
1.65014
1.64932
1.64828
1.64897
1.65053
1.65053
1.64851
1.64703
1.64637
1.64654
1.64822
1.64846
1.64642
1.6454
1.64433
1.64453
1.6465
1.64648
1.64451
1.64358
1.64229
1.64201
1.64377
1.64386
1.64206
1.64127
1.63955
1.63536
1.63642
1.63771
1.6383
1.63767
1.63574
1.63366
1.6354
1.63629
1.6365
1.63633
1.63448
1.63207
1.63383
1.6345
1.63387
1.63358
1.63184
1.62883
1.63078
1.63165
1.62724
1.62612
1.62512
1.62382
1.62637
1.62722
1.62457
1.62312
1.62104
1.6229
1.62526
1.62549
1.62371
1.62268
1.62091
1.62022
1.62239
1.62259
1.62005
1.61907
1.61686
1.61294
1.61429
1.61536
1.61467
1.61355
1.61069
1.60761
1.61
1.61182
1.61234
1.61191
1.60938
1.60806
1.61039
1.61159
1.60705
1.60579
1.60484
1.60501
1.60655
1.60647
1.60296
1.60308
1.60149
1.5963
1.59946
1.60078
1.5978
1.59542
1.59276
1.58987
1.59161
1.59345
1.59514
1.59573
1.59224
1.58984
1.59182
1.59317
1.59089
1.59089
1.5886
1.58279
1.58593
1.58773
1.57863
1.57631
1.57325
1.57631
1.57881
1.58008
1.57763
1.57668
1.57403
1.57418
1.57689
1.57745
1.57494
1.57328
1.57104
1.56413
1.56615
1.56821
1.56376
1.5621
1.55726
1.55286
1.55679
1.5596
1.56034
1.5595
1.55572
1.55426
1.55765
1.55934
1.55329
1.55208
1.54991
1.54763
1.54971
1.55045
1.54433
1.54095
1.53472
1.52829
1.5326
1.53641
1.53775
1.53659
1.53269
1.53096
1.53586
1.53604
1.53088
1.52889
1.52571
1.52045
1.5236
1.52623
1.51806
1.51361
1.5057
1.50163
1.50564
1.50992
1.51088
1.50973
1.50577
1.50409
1.50718
1.50786
1.50285
1.49856
1.4909
1.4788
1.48923
1.49251
1.48778
1.48423
1.47588
1.47183
1.47684
1.48106
1.47755
1.47636
1.47335
1.45007
1.46341
1.46938
1.46007
1.45533
1.44472
1.44334
1.44944
1.45347
1.45098
1.4491
1.44538
1.41996
1.43686
1.44293
1.43502
1.42991
1.41796
1.4195
1.42696
1.43013
1.41581
1.40743
1.3929
1.40064
1.41161
1.41711
1.41794
1.4115
1.39813
1.38523
1.40528
1.41387
1.4108
1.40409
1.38594
1.38191
1.40266
1.41007
1.41124
1.4042
1.3836
1.40049
1.41731
1.42339
1.44462
1.43838
1.42313
1.43822
1.45189
1.45906
1.46718
1.45881
1.44577
1.45307
1.46475
1.47352
1.47901
1.46953
1.45866
1.46463
1.4743
1.48369
1.48748
1.4777
1.46897
1.47345
1.48126
1.49064
1.49335
1.48384
1.47698
1.48066
1.48685
1.49581
1.49801
1.48912
1.48377
1.48693
1.49177
1.50004
1.5019
1.49388
1.4897
1.49239
1.49617
1.5036
1.50516
1.49809
1.49481
1.4971
1.50007
1.50661
1.50799
1.50186
1.49924
1.50122
1.50359
1.50927
1.51055
1.50524
1.50313
1.50486
1.50678
1.51168
1.51293
1.50833
1.50661
1.50815
1.5097
1.51395
1.51518
1.51114
1.50975
1.51113
1.51237
1.51609
1.5173
1.51372
1.51261
1.51386
1.51486
1.51815
1.51934
1.51613
1.51521
1.51634
1.51719
1.52013
1.52129
1.51838
1.51759
1.51862
1.51937
1.52207
1.52317
1.5205
1.51978
1.52072
1.52142
1.52394
1.52498
1.52249
1.52181
1.52266
1.52336
1.52573
1.5267
1.52436
1.52367
1.52447
1.52517
1.52741
1.52832
1.52612
1.5254
1.52615
1.52687
1.529
1.52985
1.52778
1.52703
1.52774
1.52849
1.5305
1.53129
1.52933
1.52855
1.52921
1.52999
1.5319
1.53265
1.53079
1.52999
1.53062
1.53143
1.53321
1.53392
1.53217
1.53133
1.53193
1.53277
1.53443
1.53513
1.53347
1.53261
1.53318
1.53403
1.53557
1.53624
1.53468
1.53381
1.53435
1.53521
1.53667
1.53729
1.53583
1.53496
1.53547
1.53633
1.53771
1.53826
1.5369
1.53603
1.53652
1.53737
1.53866
1.53919
1.53792
1.53706
1.53752
1.53836
1.53956
1.54004
1.53886
1.53801
1.53845
1.53927
1.54039
1.54085
1.53975
1.53893
1.53934
1.54014
1.54117
1.5416
1.54057
1.53978
1.54018
1.54094
1.5419
1.54231
1.54136
1.54059
1.54097
1.5417
1.54259
1.54297
1.54208
1.54135
1.5417
1.54241
1.54323
1.54359
1.54277
1.54207
1.5424
1.54307
1.54384
1.54417
1.54341
1.54274
1.54305
1.54369
1.5444
1.54471
1.544
1.54337
1.54366
1.54427
1.54493
1.54523
1.54456
1.54396
1.54423
1.54481
1.54543
1.54571
1.54508
1.54451
1.54477
1.54532
1.54589
1.54616
1.54557
1.54503
1.54527
1.54579
1.54633
1.54658
1.54603
1.54551
1.54574
1.54623
1.54674
1.54698
1.54645
1.54596
1.54617
1.54664
1.54713
1.54735
1.54685
1.54639
1.54659
1.54704
1.5475
1.54771
1.54722
1.54678
1.54696
1.5474
1.54784
1.54804
1.54758
1.54715
1.54732
1.54774
1.54817
1.54835
1.54791
1.5475
1.54766
1.54806
1.54848
1.54864
1.54822
1.54782
1.54797
1.54837
1.54876
1.54892
1.54851
1.54813
1.54826
1.54865
1.54904
1.54918
1.54878
1.54841
1.54854
1.54892
1.54929
1.54943
1.54904
1.54868
1.5488
1.54917
1.54953
1.54966
1.54928
1.54893
1.54905
1.54941
1.54976
1.54988
1.54951
1.54917
1.54928
1.54963
1.54998
1.55009
1.54973
1.5494
1.5495
1.54984
1.55018
1.55029
1.54993
1.54961
1.5497
1.55004
1.55037
1.55047
1.55013
1.54981
1.5499
1.55023
1.55055
1.55065
1.55031
1.54999
1.55008
1.5504
1.55072
1.55081
1.55048
1.55017
1.55025
1.55057
1.55089
1.55097
1.55064
1.55034
1.55042
1.55073
1.55104
1.55111
1.5508
1.5505
1.55058
1.55088
1.55119
1.55126
1.55094
1.55065
1.55072
1.55102
1.55132
1.55139
1.55108
1.5508
1.55086
1.55116
1.55146
1.55152
1.55121
1.55093
1.551
1.55129
1.55158
1.55164
1.55134
1.55106
1.55112
1.55141
1.5517
1.55175
1.55146
1.55118
1.55124
1.55153
1.55181
1.55186
1.55157
1.5513
1.55136
1.55164
1.55192
1.55197
1.55168
1.55141
1.55146
1.55174
1.55202
1.55206
1.55178
1.55152
1.55157
1.55184
1.55212
1.55216
1.55188
1.55162
1.55166
1.55193
1.55221
1.55224
1.55197
1.55171
1.55176
1.55202
1.5523
1.55233
1.55205
1.5518
1.55184
1.55211
1.55238
1.55241
1.55214
1.55189
1.55193
1.55219
1.55246
1.55249
1.55221
1.55197
1.552
1.55226
1.55253
1.55255
1.55229
1.55204
1.55208
1.55234
1.5526
1.55262
1.55236
1.55211
1.55215
1.5524
1.55267
1.55268
1.55242
1.55218
1.55222
1.55247
1.55273
1.55275
1.55249
1.55225
1.55228
1.55253
1.55279
1.5528
1.55255
1.55231
1.55234
1.55259
1.55285
1.55286
1.5526
1.55237
1.5524
1.55264
1.5529
1.55291
1.55266
1.55243
1.55245
1.5527
1.55295
1.55296
1.55271
1.55248
1.5525
1.55275
1.553
1.55301
1.55276
1.55253
1.55256
1.5528
1.55305
1.55306
1.5528
1.55258
1.5526
1.55284
1.55309
1.5531
1.55285
1.55263
1.55265
1.55288
1.55314
1.55314
1.55289
1.55267
1.55269
1.55293
1.55318
1.55317
1.55293
1.55271
1.55273
1.55296
1.55321
1.55321
1.55297
1.55275
1.55277
1.553
1.55325
1.55324
1.553
1.55278
1.5528
1.55303
1.55327
1.55327
1.55303
1.55281
1.55283
1.55306
1.5533
1.55329
1.55305
1.55284
1.55285
1.55308
1.55332
1.55332
1.55307
1.55286
1.55287
1.5531
1.55334
1.55333
1.55309
1.55288
1.55289
1.55311
1.55335
1.55334
1.5531
1.55289
1.5529
1.55312
1.55336
1.55335
1.55311
1.5529
1.55291
1.55313
1.55337
1.55336
1.55312
1.55291
1.55291
1.55314
1.55338
1.55336
1.55313
1.55292
1.55292
1.55314
1.55338
1.55337
1.55313
1.55292
1.55293
1.55315
1.55338
1.55337
1.55313
1.55294
1.55293
1.55315
1.55339
1.55339
1.55314
1.55293
1.55293
1.55316
1.55339
1.55341
1.55315
1.55295
1.55294
1.55318
1.55342
1.55344
1.5532
1.55297
1.55296
1.5532
1.55345
1.5535
1.55323
1.55298
1.55304
1.55331
1.55358
1.55413
1.55365
1.55338
1.55434
1.55457
1.555
1.55522
1.55491
1.55484
1.5558
1.55896
1.5598
1.55992
1.56274
1.56458
1.56506
1.56565
1.56687
1.56769
1.56866
1.56925
1.56979
1.57027
1.57065
1.57094
1.57117
1.57133
1.57144
1.57152
1.57158
1.57162
1.57164
1.57166
1.57166
1.57165
1.57164
1.57162
1.5716
1.5716
1.57158
1.57158
1.57169
1.57174
1.57178
1.57185
1.57191
1.572
1.57211
1.57223
1.57238
1.57256
1.57277
1.57301
1.57326
1.57352
1.57376
1.57394
1.57404
1.57409
1.57415
1.57425
1.57437
1.57451
1.57467
1.57483
1.575
1.57519
1.57539
1.57562
1.57587
1.57617
1.5765
1.57688
1.57732
1.57783
1.57841
1.57906
1.5798
1.58064
1.58158
1.58263
1.5838
1.58511
1.58655
1.58813
1.58987
1.59175
1.59379
1.59598
1.59832
1.6008
1.60342
1.60615
1.60899
1.61193
1.61494
1.61801
1.62113
1.62427
1.62742
1.63056
1.63369
1.63678
1.63982
1.64282
1.64574
1.6486
1.65138
1.65408
1.65669
1.65922
1.66165
1.664
1.66626
1.66843
1.67051
1.6725
1.67441
1.67624
1.67798
1.67965
1.68125
1.68277
1.68422
1.6856
1.68692
1.68818
1.68938
1.69052
1.69161
1.69264
1.69363
1.69457
1.69547
1.69632
1.69713
1.6979
1.69863
1.69933
1.7
1.70063
1.70123
1.7018
1.70235
1.70286
1.70336
1.70382
1.70427
1.70469
1.70509
1.70547
1.70583
1.70617
1.7065
1.7068
1.70709
1.70737
1.70762
1.70787
1.7081
1.70831
1.70851
1.7087
1.70888
1.70904
1.7092
1.70934
1.70946
1.70958
1.70968
1.70978
1.70986
1.70996
1.7101
1.71023
1.71029
1.71032
1.7103
1.71032
1.7103
1.71041
1.71059
1.71075
1.71084
1.71092
1.71099
1.71107
1.71116
1.71125
1.71134
1.71145
1.71155
1.71167
1.71179
1.71192
1.71206
1.7122
1.71234
1.71249
1.71265
1.71281
1.71298
1.71314
1.71331
1.71349
1.71366
1.71384
1.71402
1.7142
1.71437
1.71455
1.71473
1.71491
1.71509
1.71526
1.71543
1.7156
1.71577
1.71593
1.71609
1.71624
1.71639
1.71653
1.71667
1.7168
1.71692
1.71704
1.71715
1.71726
1.71736
1.71746
1.71755
1.71765
1.71774
1.71781
1.71784
1.71787
1.71794
1.71814
1.71832
1.71839
1.71841
1.71832
1.71825
1.71819
1.71813
1.71809
1.71805
1.71802
1.71799
1.71797
1.71796
1.71795
1.71796
1.71796
1.71797
1.71799
1.71801
1.71803
1.71806
1.71809
1.71813
1.71818
1.71822
1.71827
1.71833
1.71839
1.71845
1.71852
1.71859
1.71867
1.71875
1.71883
1.71892
1.71901
1.71911
1.7192
1.71931
1.71942
1.71953
1.71964
1.71976
1.71989
1.72001
1.72015
1.72028
1.72043
1.72057
1.72072
1.72088
1.72104
1.7212
1.72137
1.72154
1.72173
1.72191
1.7221
1.72229
1.72249
1.72269
1.72291
1.72312
1.72334
1.72356
1.7238
1.72403
1.72427
1.72451
1.72477
1.72502
1.72528
1.72554
1.72581
1.72608
1.72636
1.72663
1.72692
1.7272
1.72749
1.72777
1.72807
1.72835
1.72864
1.72892
1.72921
1.72949
1.72977
1.73003
1.73031
1.73056
1.73082
1.73106
1.7313
1.73151
1.73173
1.73192
1.73212
1.73228
1.73245
1.73259
1.73273
1.73285
1.73296
1.73305
1.73314
1.73321
1.73328
1.73334
1.73339
1.73343
1.73346
1.7335
1.73352
1.73354
1.73356
1.73358
1.73359
1.7336
1.73362
1.73362
1.73363
1.73364
1.73364
1.73365
1.73365
1.73365
1.73366
1.73366
1.73366
1.73366
1.73367
1.73367
1.73368
1.73367
1.73367
1.73363
1.73362
1.73363
1.73363
1.73364
1.73364
1.73363
1.73364
1.73362
1.73361
1.73362
1.73364
1.73365
1.73364
1.73364
1.73362
1.73362
1.73371
1.7337
1.73369
1.73367
1.73367
1.73368
1.7337
1.73369
1.73361
1.73362
1.73362
1.73362
1.7336
1.73361
1.73361
1.73361
1.73359
1.73361
1.7336
1.7336
1.73361
1.7336
1.73358
1.73359
1.7336
1.73359
1.73357
1.7336
1.73358
1.73358
1.73358
1.73357
1.73355
1.73356
1.73357
1.73355
1.73354
1.73357
1.73356
1.73354
1.73354
1.73353
1.73351
1.73352
1.73352
1.7335
1.73349
1.73354
1.73352
1.73349
1.73349
1.73346
1.73345
1.73345
1.73344
1.7334
1.7334
1.73349
1.73345
1.7334
1.73338
1.73333
1.73334
1.73333
1.73329
1.73323
1.73325
1.73339
1.7333
1.73322
1.73317
1.7331
1.73313
1.73308
1.73302
1.73293
1.73297
1.73318
1.73301
1.7329
1.73282
1.73271
1.73277
1.73267
1.73257
1.73244
1.73252
1.73279
1.73251
1.73239
1.73227
1.73212
1.73221
1.73206
1.73192
1.73174
1.73184
1.73216
1.73176
1.73167
1.73152
1.73132
1.73142
1.73124
1.73107
1.73085
1.73096
1.73132
1.73083
1.73076
1.73059
1.73035
1.73047
1.73025
1.73007
1.72982
1.72994
1.73032
1.72978
1.72972
1.72953
1.72927
1.7294
1.72917
1.72897
1.72871
1.72884
1.72922
1.72866
1.72861
1.72841
1.72814
1.72827
1.72805
1.72784
1.72757
1.7277
1.7281
1.72754
1.72748
1.72728
1.72701
1.72714
1.72693
1.72672
1.72645
1.72659
1.72698
1.72644
1.72638
1.72618
1.72591
1.72605
1.72585
1.72565
1.72539
1.72553
1.72591
1.7254
1.72533
1.72513
1.72488
1.72502
1.72483
1.72463
1.72439
1.72453
1.7249
1.72443
1.72435
1.72415
1.72392
1.72406
1.72389
1.72369
1.72347
1.72361
1.72397
1.72353
1.72345
1.72325
1.72304
1.72318
1.72303
1.72283
1.72263
1.72277
1.72311
1.72271
1.72262
1.72243
1.72224
1.72237
1.72224
1.72205
1.72187
1.722
1.72233
1.72197
1.72188
1.7217
1.72152
1.72165
1.72154
1.72135
1.72119
1.72132
1.72163
1.72131
1.72121
1.72103
1.72087
1.72101
1.7209
1.72073
1.72058
1.72071
1.72101
1.72072
1.72061
1.72044
1.7203
1.72043
1.72034
1.72018
1.72004
1.72017
1.72045
1.72019
1.72009
1.71992
1.7198
1.71992
1.71985
1.71969
1.71957
1.71969
1.71995
1.71973
1.71963
1.71947
1.71936
1.71948
1.71942
1.71927
1.71916
1.71928
1.71952
1.71933
1.71923
1.71908
1.71898
1.7191
1.71905
1.71891
1.71882
1.71893
1.71915
1.71899
1.71889
1.71875
1.71867
1.71878
1.71874
1.71861
1.71854
1.71864
1.71884
1.7187
1.71861
1.71849
1.71842
1.71852
1.71849
1.71837
1.71832
1.71841
1.71858
1.71847
1.71839
1.71828
1.71823
1.71832
1.7183
1.7182
1.71816
1.71824
1.71838
1.71831
1.71823
1.71814
1.71811
1.71818
1.71818
1.7181
1.71808
1.71814
1.71825
1.71819
1.71814
1.71807
1.71806
1.71811
1.71812
1.71806
1.71806
1.71811
1.71817
1.71816
1.71812
1.71808
1.71809
1.71813
1.71815
1.71812
1.71815
1.71816
1.71817
1.71818
1.71819
1.71818
1.71822
1.71822
1.71826
1.71827
1.71833
1.7183
1.71818
1.71802
1.7181
1.71815
1.71818
1.71822
1.71826
1.71832
1.71839
1.71848
1.71858
1.71869
1.71882
1.71896
1.71912
1.71928
1.71947
1.71966
1.71987
1.7201
1.72034
1.7206
1.72087
1.72116
1.72147
1.72179
1.72213
1.72249
1.72286
1.72326
1.72368
1.72411
1.72457
1.72504
1.72553
1.72604
1.72656
1.7271
1.72766
1.72822
1.7288
1.72937
1.72994
1.7305
1.73104
1.73154
1.73201
1.73242
1.73276
1.73305
1.73326
1.73342
1.73352
1.73359
1.73363
1.73365
1.73366
1.73368
1.73368
1.73369
1.73369
1.73369
1.73369
1.73369
1.73377
1.73376
1.73375
1.73375
1.73374
1.73372
1.73373
1.73373
1.73374
1.7338
1.73379
1.73377
1.73378
1.73379
1.73379
1.73381
1.73382
1.73387
1.73385
1.73385
1.73383
1.73382
1.73383
1.73383
1.73384
1.73389
1.73388
1.73386
1.73387
1.73387
1.73388
1.7339
1.73392
1.73394
1.73389
1.73383
1.73385
1.73378
1.73378
1.73379
1.73389
1.73387
1.73394
1.73391
1.73397
1.73399
1.73403
1.73396
1.73399
1.73391
1.7338
1.73381
1.73393
1.73397
1.73383
1.73384
1.73401
1.73416
1.73409
1.73403
1.73411
1.73406
1.73411
1.73407
1.73404
1.73401
1.73398
1.73396
1.73393
1.73392
1.73391
1.73389
1.7339
1.73391
1.73391
1.73394
1.73393
1.73392
1.73393
1.73394
1.73395
1.73397
1.734
1.73399
1.73398
1.73396
1.73395
1.73394
1.73393
1.7339
1.73388
1.73386
1.73377
1.73368
1.73376
1.73386
1.73387
1.73382
1.73387
1.73391
1.73392
1.73393
1.73392
1.7339
1.73386
1.73388
1.73388
1.73391
1.73394
1.73395
1.73397
1.73398
1.734
1.73401
1.73403
1.73403
1.73406
1.73409
1.73413
1.73413
1.73412
1.73409
1.73408
1.73406
1.73405
1.73404
1.73402
1.73401
1.73398
1.73399
1.73396
1.73397
1.73394
1.73395
1.73393
1.7339
1.7339
1.73392
1.73391
1.73393
1.73393
1.73395
1.73395
1.73397
1.73396
1.734
1.73403
1.73401
1.73398
1.73398
1.734
1.73404
1.73405
1.73408
1.73406
1.73403
1.734
1.73402
1.73401
1.73405
1.73408
1.73409
1.73411
1.73413
1.73415
1.73415
1.73416
1.73416
1.73421
1.73417
1.73425
1.73418
1.73429
1.73444
1.73426
1.73406
1.73387
1.73388
1.73414
1.73421
1.73387
1.73386
1.73422
1.7347
1.73457
1.73439
1.73465
1.73495
1.73527
1.73601
1.73541
1.73495
1.73462
1.73439
1.73441
1.73427
1.73422
1.73422
1.73419
1.73419
1.73419
1.73416
1.73414
1.73412
1.73413
1.7341
1.73411
1.73408
1.73409
1.73407
1.73403
1.73403
1.73405
1.73405
1.73407
1.73406
1.73408
1.73408
1.7341
1.7341
1.73414
1.73416
1.73415
1.73411
1.73411
1.73412
1.73417
1.7342
1.73422
1.73418
1.73416
1.73412
1.73414
1.73414
1.73417
1.73418
1.73422
1.73423
1.73425
1.73427
1.73442
1.73434
1.73424
1.73415
1.73417
1.73418
1.73418
1.73414
1.73414
1.73413
1.73412
1.73408
1.73404
1.73414
1.73414
1.73423
1.73409
1.73403
1.73422
1.73431
1.73454
1.73455
1.73471
1.73518
1.73584
1.73661
1.73688
1.73644
1.73594
1.7356
1.73515
1.7349
1.73487
1.73525
1.73568
1.73555
1.73538
1.73508
1.73491
1.73466
1.73452
1.73441
1.73462
1.73484
1.73507
1.73534
1.73558
1.73585
1.73585
1.73606
1.73615
1.73666
1.73722
1.73775
1.73733
1.73776
1.7372
1.73625
1.73538
1.73471
1.73421
1.73379
1.73366
1.73412
1.73392
1.73346
1.73317
1.73357
1.73394
1.73443
1.73469
1.73535
1.73501
1.73435
1.7336
1.73334
1.73309
1.73279
1.73233
1.73253
1.73193
1.7318
1.73124
1.7313
1.73129
1.73199
1.73268
1.73281
1.73201
1.73123
1.73047
1.7306
1.73066
1.73065
1.73005
1.73003
1.7294
1.72945
1.72886
1.72879
1.72862
1.72926
1.72992
1.72975
1.72906
1.7284
1.72778
1.72801
1.72819
1.72827
1.7277
1.7276
1.72704
1.72715
1.72661
1.7265
1.72632
1.72686
1.72742
1.72718
1.72662
1.72608
1.72579
1.72632
1.72687
1.72746
1.72809
1.72876
1.72948
1.73025
1.73108
1.73197
1.73292
1.73391
1.73493
1.73582
1.73618
1.7373
1.73722
1.7358
1.73657
1.73921
1.7382
1.73818
1.73795
1.73877
1.73829
1.73851
1.7382
1.73785
1.73756
1.73723
1.73696
1.73661
1.73638
1.73641
1.73611
1.73671
1.73704
1.73738
1.73768
1.73803
1.7384
1.73854
1.73814
1.73785
1.73894
1.73876
1.73913
1.73883
1.73913
1.73933
1.73986
1.73952
1.73987
1.73937
1.74038
1.7408
1.74023
1.73966
1.73957
1.74036
1.74144
1.73994
1.74082
1.74141
1.74197
1.74143
1.74277
1.74203
1.7425
1.74342
1.74371
1.74308
1.74189
1.74096
1.7434
1.74315
1.74422
1.74458
1.74418
1.7425
1.74193
1.73959
1.73675
1.73418
1.73803
1.73979
1.74137
1.74297
1.74361
1.74498
1.74608
1.74547
1.74501
1.74897
1.74529
1.74299
1.74159
1.73855
1.73374
1.73699
1.74345
1.74616
1.74275
1.73878
1.73398
1.73115
1.72005
1.72574
1.73196
1.72829
1.72494
1.72216
1.71618
1.71031
1.71202
1.70864
1.70742
1.70976
1.70904
1.70878
1.71021
1.71023
1.71013
1.71115
1.71147
1.71162
1.71231
1.71265
1.71269
1.71323
1.71357
1.71366
1.71407
1.71442
1.71448
1.71477
1.71507
1.71509
1.71536
1.71563
1.71559
1.71579
1.71603
1.716
1.71619
1.71624
1.71626
1.7163
1.71649
1.71646
1.71675
1.71669
1.71664
1.71673
1.71665
1.7166
1.71674
1.71659
1.71676
1.71659
1.7165
1.7166
1.71632
1.7164
1.71615
1.71607
1.71613
1.71585
1.71583
1.71557
1.71544
1.71544
1.71511
1.71509
1.71481
1.71466
1.71455
1.7143
1.71408
1.714
1.7137
1.71353
1.71323
1.71294
1.7127
1.71258
1.71227
1.71196
1.71179
1.71148
1.71142
1.7109
1.71068
1.71022
1.70998
1.70988
1.70941
1.70933
1.70875
1.70864
1.70815
1.70795
1.70752
1.70715
1.70698
1.70651
1.70631
1.70577
1.7057
1.70496
1.70471
1.7041
1.70376
1.70359
1.703
1.70291
1.70207
1.70188
1.70117
1.70108
1.70024
1.70017
1.69956
1.69902
1.69874
1.69812
1.69784
1.69709
1.6969
1.69602
1.69593
1.69498
1.69465
1.69404
1.69345
1.69319
1.6923
1.69198
1.69115
1.69073
1.68999
1.68967
1.68879
1.68842
1.68745
1.68702
1.6865
1.68582
1.68532
1.6844
1.68393
1.68306
1.68265
1.68177
1.68113
1.68041
1.67953
1.67905
1.67806
1.67751
1.67643
1.67595
1.67484
1.67426
1.67321
1.67242
1.67145
1.67077
1.67022
1.6691
1.66843
1.66715
1.66618
1.66529
1.66443
1.66347
1.66247
1.6611
1.66016
1.65927
1.65805
1.65679
1.65614
1.65527
1.65416
1.65289
1.65107
1.65041
1.64909
1.64825
1.64693
1.64585
1.64458
1.6432
1.64141
1.63916
1.63857
1.63706
1.63611
1.63469
1.63313
1.63116
1.62857
1.62791
1.6258
1.62528
1.62358
1.62198
1.6196
1.61657
1.61571
1.61308
1.61289
1.61084
1.60837
1.60681
1.60381
1.60236
1.59892
1.59568
1.59517
1.59294
1.59101
1.5872
1.58214
1.58213
1.57898
1.57796
1.5744
1.56871
1.56771
1.56234
1.56279
1.55927
1.55436
1.55273
1.54651
1.54016
1.54134
1.53688
1.53101
1.52926
1.52101
1.51397
1.51569
1.50987
1.50144
1.50194
1.49196
1.48408
1.48598
1.47543
1.46657
1.45816
1.46302
1.45234
1.44431
1.43755
1.42741
1.43786
1.42981
1.4261
1.42528
1.42509
1.42761
1.43591
1.4527
1.46589
1.47482
1.48141
1.48765
1.49237
1.49705
1.50029
1.50404
1.50647
1.50976
1.51165
1.51461
1.51597
1.51855
1.51952
1.52185
1.52247
1.52457
1.52496
1.52691
1.52711
1.5289
1.52898
1.53065
1.53061
1.53216
1.53204
1.53351
1.53331
1.5347
1.53446
1.53577
1.53552
1.53672
1.53648
1.53759
1.53735
1.53839
1.53818
1.53912
1.53893
1.5398
1.53966
1.54045
1.54031
1.54108
1.54095
1.54164
1.54155
1.54221
1.54214
1.54272
1.54268
1.54324