/*--------------------------------*- C++ -*----------------------------------*\
| =========                 |                                                 |
| \\      /  F ield         | OpenFOAM: The Open Source CFD Toolbox           |
|  \\    /   O peration     | Version:  v2006                                 |
|   \\  /    A nd           | Website:  www.openfoam.com                      |
|    \\/     M anipulation  |                                                 |
\*---------------------------------------------------------------------------*/
FoamFile
{
    version     2.0;
    format      ascii;
    class       volScalarField;
    location    "0.113";
    object      alphat;
}
// * * * * * * * * * * * * * * * * * * * * * * * * * * * * * * * * * * * * * //

dimensions      [1 -1 -1 0 0 0 0];


internalField   nonuniform List<scalar> 
16277
(
41.1529
29.4685
90.9363
21.0113
30.5819
16.2438
6.45438
2.62314
1.41275
0.953704
0.750214
0.64686
0.584926
0.539995
0.502265
0.468356
0.437494
0.409723
0.385082
0.363405
0.34436
0.32755
0.312593
0.299167
0.287015
0.275941
0.265794
0.256459
0.247843
0.239871
0.232478
0.225612
0.219225
0.213279
0.207738
0.202572
0.197756
0.193268
0.189086
0.185193
0.181572
0.17821
0.175094
0.172213
0.169559
0.167122
0.164896
0.162874
0.161053
0.159429
0.157999
0.156763
0.155719
0.15487
0.154214
0.153759
0.153508
0.153468
0.153646
0.154048
0.154685
0.155571
0.156721
0.158154
0.159893
0.161961
0.164392
0.16722
0.170494
0.174275
0.178643
0.183705
0.189596
0.196475
0.204501
0.213783
0.224324
0.236048
0.249058
0.264494
0.286353
0.325976
0.412493
0.621768
1.15808
2.43463
4.29818
4.59626
2.72367
1.79902
0.885896
0.403961
0.219655
0.103638
0.0245576
0.00441852
0.0001464
0.000127054
0.00207673
0.0095644
0.00527016
0.00134567
0.00011128
9.96368e-05
0.00122688
0.00443177
0.00353617
0.00105454
9.20689e-05
8.61342e-05
0.00102197
0.00335343
0.00290156
0.000920532
8.108e-05
7.76729e-05
0.000904697
0.00282631
0.00257243
0.000843075
7.43145e-05
7.24986e-05
0.000848155
0.00254625
0.00238183
0.000803044
7.02802e-05
6.90876e-05
0.000810252
0.00236724
0.00224243
0.000773928
6.7451e-05
6.66267e-05
0.000781082
0.0022359
0.00213273
0.000750272
6.5348e-05
6.47502e-05
0.000757221
0.00213071
0.00204133
0.000730109
6.37119e-05
6.32626e-05
0.000737034
0.0020422
0.00196266
0.000712412
6.23848e-05
6.20308e-05
0.000719366
0.00196542
0.00189328
0.000696439
6.12597e-05
6.09713e-05
0.000703313
0.00189731
0.00183098
0.000681711
6.02783e-05
6.0036e-05
0.000688501
0.00183591
0.0017744
0.000668009
5.93999e-05
5.91901e-05
0.000674728
0.00178
0.00172256
0.000655202
5.85971e-05
5.84111e-05
0.000661861
0.00172874
0.00167471
0.000643181
5.7852e-05
5.76842e-05
0.000649776
0.00168141
0.00163039
0.000631843
5.71521e-05
5.69984e-05
0.000638373
0.00163754
0.0015892
0.000621111
5.64884e-05
5.63459e-05
0.000627577
0.00159675
0.00155086
0.000610929
5.58544e-05
5.57208e-05
0.000617344
0.00155876
0.0015151
0.000601272
5.52449e-05
5.51189e-05
0.00060764
0.00152328
0.00148163
0.0005921
5.46566e-05
5.45374e-05
0.000598417
0.00149002
0.00145017
0.000583359
5.40866e-05
5.39731e-05
0.00058962
0.00145872
0.00142048
0.000575001
5.3532e-05
5.34234e-05
0.000581202
0.00142913
0.00139234
0.000566979
5.29902e-05
5.28856e-05
0.000573115
0.00140106
0.00136558
0.000559246
5.24585e-05
5.23571e-05
0.000565311
0.00137432
0.00134001
0.000551759
5.19345e-05
5.18356e-05
0.000557746
0.00134875
0.00131551
0.000544475
5.14159e-05
5.13187e-05
0.000550381
0.00132422
0.00129195
0.000537362
5.09006e-05
5.08045e-05
0.000543182
0.0013006
0.00126922
0.000530389
5.03865e-05
5.02907e-05
0.00053612
0.0012778
0.00124722
0.000523529
4.98716e-05
4.97757e-05
0.000529171
0.00125571
0.00122588
0.000516763
4.93541e-05
4.92575e-05
0.000522313
0.00123428
0.00120514
0.000510072
4.88325e-05
4.87348e-05
0.000515533
0.00121344
0.00118495
0.000503447
4.83052e-05
4.8206e-05
0.000508822
0.00119316
0.00116529
0.00049688
4.77707e-05
4.76699e-05
0.000502189
0.0011734
0.00114612
0.000490377
4.7228e-05
4.71257e-05
0.000495675
0.00115417
0.00112746
0.000483959
4.66767e-05
4.65728e-05
0.000489229
0.00113545
0.0011093
0.000477601
4.61158e-05
4.60104e-05
0.000482866
0.00111724
0.00109163
0.000471327
4.55451e-05
4.54383e-05
0.000476609
0.00109955
0.0010745
0.000465164
4.49644e-05
4.48568e-05
0.000470489
0.00108244
0.00105796
0.000459149
4.43743e-05
4.42664e-05
0.000464549
0.00106597
0.00104208
0.000453328
4.37759e-05
4.36687e-05
0.000458849
0.00105037
0.00102705
0.000447773
4.31711e-05
4.30662e-05
0.000453468
0.0010358
0.001013
0.000442571
4.25633e-05
4.24625e-05
0.000448494
0.00102226
0.00100004
0.000437811
4.19565e-05
4.18623e-05
0.000444029
0.00100999
0.000988432
0.000433609
4.1356e-05
4.12717e-05
0.000440204
0.000999274
0.000978479
0.000430107
4.07688e-05
4.06992e-05
0.000437166
0.00099042
0.000970514
0.000427483
4.02029e-05
4.01562e-05
0.000434986
0.000983771
0.000964923
0.000425862
3.96761e-05
3.96454e-05
0.00043349
0.000979577
0.000961825
0.000424851
3.92093e-05
3.91832e-05
0.000432715
0.000978327
0.000961698
0.000424685
3.88011e-05
3.87788e-05
0.000432784
0.000980041
0.0009645
0.000425427
3.84854e-05
3.84468e-05
0.000433666
0.000984533
0.000970121
0.000427056
3.82587e-05
3.82079e-05
0.000435243
0.000991419
0.000978029
0.000429158
3.80408e-05
3.80637e-05
0.000437209
0.00100051
0.000988104
0.000431379
3.7899e-05
3.79845e-05
0.000439146
0.00101146
0.000999858
0.000433632
3.78382e-05
3.79998e-05
0.000440765
0.00102299
0.00101182
0.000435576
3.78784e-05
3.80927e-05
0.000442093
0.00103403
0.00102307
0.000436977
3.79962e-05
3.82514e-05
0.000443358
0.00104408
0.00103333
0.000438088
3.81804e-05
3.8472e-05
0.000444359
0.00105291
0.00104241
0.000439105
3.84254e-05
3.8746e-05
0.000445261
0.00106045
0.00105014
0.000439652
3.872e-05
3.90579e-05
0.000445922
0.00106681
0.00105628
0.000439995
3.90509e-05
3.93971e-05
0.000446357
0.00107175
0.00106057
0.000440157
3.94064e-05
3.97519e-05
0.000446564
0.00107589
0.00106352
0.000440198
3.97745e-05
4.01107e-05
0.00044663
0.00107839
0.00106482
0.000439898
4.01438e-05
4.04639e-05
0.000446559
0.00107915
0.0010636
0.00043914
4.05046e-05
4.0802e-05
0.000445834
0.00107773
0.00106104
0.000438156
4.0845e-05
4.11131e-05
0.000444865
0.00107489
0.00105743
0.000437059
4.11551e-05
4.13904e-05
0.000443756
0.00107084
0.00105282
0.000435949
4.14303e-05
4.16323e-05
0.000442563
0.00106563
0.00104731
0.00043484
4.16663e-05
4.18314e-05
0.00044132
0.0010595
0.001041
0.000433674
4.18546e-05
4.19839e-05
0.000440008
0.0010526
0.0010342
0.000432593
4.20054e-05
4.21111e-05
0.000438749
0.001045
0.00102689
0.000431564
4.21249e-05
4.21983e-05
0.00043749
0.00103702
0.00101915
0.000430541
4.22098e-05
4.22604e-05
0.000436221
0.00102881
0.00101121
0.000429443
4.22669e-05
4.22923e-05
0.000434876
0.00102052
0.0010032
0.0004283
4.22962e-05
4.23136e-05
0.000433528
0.00101227
0.000995183
0.00042712
4.23107e-05
4.2323e-05
0.000432198
0.00100407
0.000987088
0.000425763
4.22999e-05
4.23057e-05
0.000430747
0.000995816
0.000979022
0.000424372
4.22712e-05
4.22799e-05
0.000429338
0.000987631
0.000971014
0.000422998
4.22379e-05
4.22427e-05
0.000427891
0.000979466
0.000962998
0.000421562
4.21925e-05
4.2196e-05
0.000426376
0.000971311
0.000954925
0.000420044
4.21399e-05
4.21376e-05
0.000424758
0.000963112
0.000946784
0.000418432
4.20746e-05
4.20768e-05
0.000423086
0.0009549
0.000938562
0.0004169
4.20201e-05
4.20254e-05
0.00042153
0.000946759
0.000930689
0.000415205
4.19488e-05
4.19313e-05
0.000419609
0.000938581
0.000922437
0.000413229
4.18389e-05
4.18794e-05
0.000417845
0.000930436
0.000913893
0.000411705
4.17653e-05
4.18122e-05
0.000415887
0.000923173
0.000906973
0.000408651
4.15927e-05
4.18311e-05
0.00041589
0.000920329
0.000909499
0.000415365
4.1731e-05
4.24242e-05
0.000416125
0.000919336
0.000963011
0.000437621
4.27508e-05
4.55378e-05
0.00041039
0.00093618
0.00142961
0.000596223
5.13552e-05
5.54197e-05
0.000309257
0.000709886
0.00175137
0.00401362
0.00750337
0.0106975
0.0128831
0.016934
0.0195203
0.021841
0.0231475
0.0237724
0.0235967
0.0225468
0.0210522
0.0186549
0.0163046
0.0127412
0.0111326
0.0081006
0.00606065
0.00411626
0.0023399
0.00107448
0.000391197
0.000163749
3.15763e-05
2.05928e-05
0.000151762
0.000354956
0.000335317
0.000143452
1.97541e-05
1.89528e-05
0.000138118
0.000317859
0.000318937
0.000136213
1.87382e-05
1.8601e-05
0.000135423
0.000313939
0.000314039
0.00013405
1.84142e-05
1.84106e-05
0.000133931
0.000313556
0.000314466
0.000134002
1.84292e-05
1.8437e-05
0.00013429
0.000315211
0.000315723
0.000134452
1.84637e-05
1.84817e-05
0.000134722
0.000316671
0.000317151
0.000134933
1.84975e-05
1.85261e-05
0.000135185
0.000318194
0.000318761
0.00013544
1.85194e-05
1.85493e-05
0.00013573
0.000319794
0.000320349
0.000135913
1.85661e-05
1.85991e-05
0.000136205
0.000321387
0.000321873
0.000136346
1.85983e-05
1.86065e-05
0.000136768
0.000322983
0.000323492
0.000136861
1.86468e-05
1.86541e-05
0.00013726
0.000324668
0.000325239
0.000137459
1.86718e-05
1.86792e-05
0.000137886
0.000326519
0.000327111
0.000138041
1.87266e-05
1.87351e-05
0.000138451
0.000328346
0.000328924
0.000138641
1.87513e-05
1.87587e-05
0.000139069
0.000330181
0.000330758
0.000139239
1.8804e-05
1.8811e-05
0.000139641
0.000332005
0.000332589
0.000139837
1.88299e-05
1.88389e-05
0.000140275
0.000333864
0.000334457
0.000140419
1.8882e-05
1.88915e-05
0.000140875
0.00033574
0.000336376
0.000141095
1.89102e-05
1.89207e-05
0.000141564
0.000337784
0.000338442
0.000141846
1.89568e-05
1.89915e-05
0.000142209
0.000339858
0.000340523
0.00014248
1.89994e-05
1.90107e-05
0.00014299
0.000341944
0.000342601
0.000143223
1.90442e-05
1.90837e-05
0.000143615
0.000344007
0.000344673
0.000143841
1.90858e-05
1.90998e-05
0.000144434
0.000346117
0.000346849
0.000144722
1.91336e-05
1.91735e-05
0.000145137
0.000348316
0.000349011
0.000145375
1.91815e-05
1.91943e-05
0.000145933
0.000350473
0.000351138
0.000146185
1.92252e-05
1.92644e-05
0.000146634
0.000352562
0.000353218
0.000146869
1.92677e-05
1.92826e-05
0.000147468
0.000354667
0.00035533
0.000147697
1.93165e-05
1.93566e-05
0.0001481
0.000356757
0.000357345
0.000148282
1.93596e-05
1.93695e-05
0.000148862
0.000358728
0.00035935
0.000149089
1.93998e-05
1.94386e-05
0.000149499
0.000360736
0.000361358
0.000149692
1.94437e-05
1.94527e-05
0.000150218
0.000362748
0.000363341
0.000150424
1.94858e-05
1.95194e-05
0.000150748
0.000364592
0.000365021
0.000150825
1.9517e-05
1.95202e-05
0.00015121
0.000366087
0.000366406
0.000151137
1.95528e-05
1.95556e-05
0.000151416
0.000367319
0.000367537
0.000151312
1.95605e-05
1.95543e-05
0.000151458
0.000368269
0.00036847
0.000151276
1.95844e-05
1.95715e-05
0.000151291
0.000368954
0.000369049
0.00015099
1.95713e-05
1.95516e-05
0.000150797
0.000369294
0.000369166
0.000150315
1.95578e-05
1.95609e-05
0.000149798
0.000369166
0.0003687
0.000149125
1.95315e-05
1.94985e-05
0.00014857
0.000368575
0.000367792
0.000147821
1.94958e-05
1.94882e-05
0.000146952
0.000367664
0.000366646
0.000145885
1.94557e-05
1.94264e-05
0.000144946
0.000366214
0.000364522
0.000143406
1.94216e-05
1.93829e-05
0.000142128
0.000363841
0.000362032
0.0001406
1.93605e-05
1.93399e-05
0.00013946
0.000361783
0.00036034
0.000138046
1.9353e-05
1.9392e-05
0.000136772
0.00036049
0.000358733
0.000135113
1.94087e-05
1.94517e-05
0.00013366
0.00035861
0.00035702
0.000132082
1.94996e-05
1.9574e-05
0.000131023
0.000357454
0.000356997
0.000129934
1.96901e-05
1.98532e-05
0.000129191
0.000358836
0.000360955
0.000127787
2.0045e-05
2.02286e-05
0.000126883
0.000364763
0.000370195
0.000128284
2.04287e-05
2.06331e-05
0.000128865
0.000374915
0.000377659
0.000128101
2.06863e-05
2.0834e-05
0.000125779
0.000383363
0.000389723
0.000132557
2.11304e-05
2.13421e-05
0.000128745
0.00039524
0.000400401
0.000131991
2.16931e-05
2.19492e-05
0.000133692
0.000409913
0.000412264
0.000136417
2.23161e-05
2.28283e-05
0.000143433
0.000424702
0.000427224
0.000147198
2.33355e-05
2.37814e-05
0.000153531
0.000438864
0.000442622
0.000159085
2.46653e-05
2.64794e-05
0.000184354
0.00046231
0.000458371
0.000194533
1.98729e-05
1.51194e-05
4.7199e-05
0.000128745
0.000359064
0.000110204
1.79975e-05
1.8873e-05
9.97041e-05
0.00032986
0.000348369
0.000103918
1.93568e-05
1.97063e-05
9.83597e-05
0.000333156
0.000358571
0.000106169
2.02888e-05
2.08726e-05
0.000104522
0.000353536
0.000388911
0.000118651
2.15574e-05
2.22602e-05
0.000117838
0.000381581
0.000418141
0.000138045
2.31747e-05
2.44874e-05
0.000142317
0.000421734
0.000471093
0.000172572
2.70894e-05
2.06591e-05
0.000189326
0.00048032
0.000129442
4.44924e-05
1.6162e-05
1.96838e-05
0.000121723
0.000404232
0.000395194
0.000112849
2.13533e-05
2.27054e-05
0.000147936
0.000488658
0.000498479
0.000149448
2.36444e-05
2.4993e-05
0.000173796
0.00055376
0.000569159
0.000185523
2.66935e-05
2.99647e-05
0.000221965
0.000622287
0.000605637
0.000239685
2.3262e-05
1.77156e-05
5.46425e-05
0.000159867
0.000492521
0.000145534
2.09281e-05
2.26399e-05
0.00013535
0.000482882
0.000555086
0.000167102
2.41752e-05
2.59259e-05
0.000167488
0.000547514
0.000623162
0.000214115
2.99033e-05
2.38417e-05
0.000247256
0.000624497
0.000169672
5.3812e-05
1.73121e-05
2.1956e-05
0.00015309
0.00055814
0.000575629
0.000160894
2.47571e-05
2.8801e-05
0.000228593
0.000742385
0.000777002
0.000269238
3.36703e-05
2.7538e-05
0.000310944
0.000782891
0.000217978
6.343e-05
1.82427e-05
2.40989e-05
0.000205833
0.000697046
0.000693553
0.000199676
2.81142e-05
3.53746e-05
0.000299489
0.000878441
0.000891962
0.000347173
2.92421e-05
1.90844e-05
7.14736e-05
0.000272369
0.000900989
0.000265368
2.79684e-05
3.53005e-05
0.000280404
0.000969607
0.00134334
0.000472853
4.82715e-05
4.01923e-05
0.0005037
0.00129018
0.000455729
0.000119636
2.62165e-05
4.6749e-05
0.000488718
0.00140482
0.00140566
0.000522935
4.36177e-05
2.9998e-05
0.000135503
0.000552402
0.00194907
0.00064731
6.49701e-05
6.40879e-05
0.00074731
0.00211758
0.000964431
0.000266388
4.07526e-05
6.49197e-05
0.000867569
0.00252802
0.00166998
0.000553868
4.32317e-05
8.02903e-05
0.000976813
0.00196945
0.00168933
0.000817161
6.60131e-05
6.67774e-05
0.000778167
0.00185133
0.00237187
0.000857631
7.64698e-05
0.000105528
0.00159896
0.00394921
0.000879062
0.000273259
5.99295e-05
6.13418e-05
0.00076605
0.00175547
0.000542666
0.000193899
4.27574e-05
4.6377e-05
0.000472982
0.00113719
0.000971647
0.000348828
4.66228e-05
2.44426e-05
8.79278e-05
0.000278905
0.000655861
0.000361985
3.10046e-05
2.90023e-05
0.000116924
0.000299311
0.000726089
0.000318059
3.32227e-05
3.54037e-05
0.000258546
0.000656633
0.000212943
7.96952e-05
2.33504e-05
2.78238e-05
0.000251699
0.000567498
0.000521171
0.000210883
3.1258e-05
2.17859e-05
6.82824e-05
0.000173729
0.000480484
0.000213581
2.52528e-05
2.91755e-05
0.000186007
0.000441498
0.000153205
6.41301e-05
2.11703e-05
2.38324e-05
0.000190448
0.000424167
0.000384265
0.00016768
2.79527e-05
2.07702e-05
5.92109e-05
0.000136957
0.000375029
0.000171242
2.25578e-05
2.69572e-05
0.000150858
0.000341151
0.000123825
5.58199e-05
2.04796e-05
2.19308e-05
0.000159348
0.000337547
0.000304838
0.000139797
2.61489e-05
2.00737e-05
5.26506e-05
0.000114689
0.000308877
0.000147835
2.104e-05
2.56638e-05
0.00013097
0.000281137
0.000109647
5.18815e-05
2.00972e-05
2.10369e-05
0.000148741
0.000298432
0.000253516
0.000120226
2.63827e-05
2.20076e-05
9.50216e-05
0.000205745
8.19357e-05
3.71415e-05
1.72657e-05
1.76378e-05
0.000100437
0.000204235
0.000193795
9.38916e-05
2.26327e-05
1.85498e-05
3.8149e-05
7.95106e-05
0.000190526
9.70232e-05
1.73627e-05
2.22535e-05
8.92618e-05
0.000177329
7.45454e-05
3.70587e-05
1.76467e-05
1.68817e-05
8.99442e-05
0.000168884
0.000161182
8.54926e-05
2.17446e-05
1.80818e-05
3.55969e-05
6.98968e-05
0.000159685
8.66356e-05
1.67326e-05
2.15482e-05
8.15908e-05
0.00015072
6.74089e-05
3.47276e-05
1.78471e-05
1.6288e-05
7.991e-05
0.000146856
0.000140435
7.78695e-05
2.12094e-05
1.73372e-05
3.33976e-05
6.31507e-05
0.000137458
7.72327e-05
1.60519e-05
2.10156e-05
7.38747e-05
0.000131335
6.12434e-05
3.30616e-05
1.69438e-05
1.56969e-05
7.23656e-05
0.000125383
0.000122024
6.94888e-05
2.06634e-05
1.63542e-05
3.01552e-05
5.49843e-05
0.000108797
8.09449e-05
1.51012e-05
1.93419e-05
3.84939e-05
6.30141e-05
0.000143808
8.15989e-05
1.7238e-05
2.16624e-05
7.56879e-05
0.000132995
6.45941e-05
3.72852e-05
1.78502e-05
1.64284e-05
7.96075e-05
0.000132578
0.000125577
7.36765e-05
2.16374e-05
1.78338e-05
3.64377e-05
6.18488e-05
0.000130128
7.82561e-05
1.61376e-05
2.11837e-05
7.29531e-05
0.000123037
6.09674e-05
3.6761e-05
1.76908e-05
1.60857e-05
7.41925e-05
0.000118782
0.000112265
6.71723e-05
2.13801e-05
1.78003e-05
3.62389e-05
5.72046e-05
0.000110239
6.93967e-05
1.57281e-05
2.06732e-05
6.29663e-05
0.000102706
5.09077e-05
3.30107e-05
1.6348e-05
1.46569e-05
6.87609e-05
9.18696e-05
5.57204e-05
3.82869e-05
1.90565e-05
1.69258e-05
6.77506e-05
0.000108962
0.000100572
6.15579e-05
2.16076e-05
1.75317e-05
3.65859e-05
5.33674e-05
9.93645e-05
6.48411e-05
1.55146e-05
2.06024e-05
5.98061e-05
8.9858e-05
4.83973e-05
3.44801e-05
1.68238e-05
1.46801e-05
6.41606e-05
8.2321e-05
5.20862e-05
3.78427e-05
1.92527e-05
1.67761e-05
6.49666e-05
9.97826e-05
9.1252e-05
5.90068e-05
2.13587e-05
1.74221e-05
3.68971e-05
5.08154e-05
9.42824e-05
6.28179e-05
1.54109e-05
2.05511e-05
5.70823e-05
8.51175e-05
4.66453e-05
3.45875e-05
1.6761e-05
1.46573e-05
6.01172e-05
7.58126e-05
4.89783e-05
3.72822e-05
1.92654e-05
1.65591e-05
6.05357e-05
9.22026e-05
8.35158e-05
5.54628e-05
2.12229e-05
1.73833e-05
3.68094e-05
4.72674e-05
8.46025e-05
5.77195e-05
1.53921e-05
2.05046e-05
5.28486e-05
7.66533e-05
4.32233e-05
3.41621e-05
1.75595e-05
1.44866e-05
5.47624e-05
6.74299e-05
4.48965e-05
3.60894e-05
1.92047e-05
1.62104e-05
5.50338e-05
8.22178e-05
7.34306e-05
5.03072e-05
2.07868e-05
1.67006e-05
3.4893e-05
4.22623e-05
6.61523e-05
5.50979e-05
1.42289e-05
1.89493e-05
3.70645e-05
4.4748e-05
8.13211e-05
5.39824e-05
1.60476e-05
2.10751e-05
4.99055e-05
7.32808e-05
4.26858e-05
3.56894e-05
1.72828e-05
1.4389e-05
5.37275e-05
6.54996e-05
4.48996e-05
3.7711e-05
1.90333e-05
1.58971e-05
5.42926e-05
8.019e-05
7.18617e-05
4.98711e-05
2.08368e-05
1.71977e-05
3.57408e-05
4.2105e-05
6.45549e-05
5.44121e-05
1.40995e-05
1.91137e-05
3.78953e-05
4.4396e-05
7.88151e-05
5.30957e-05
1.61387e-05
2.10706e-05
4.9338e-05
7.09253e-05
4.22506e-05
3.67518e-05
1.71107e-05
1.44995e-05
5.44205e-05
6.36738e-05
4.43259e-05
3.886e-05
1.91883e-05
1.61038e-05
5.26287e-05
7.77158e-05
6.92082e-05
4.85577e-05
2.08268e-05
1.77014e-05
3.64724e-05
4.12801e-05
6.15122e-05
5.39073e-05
1.42414e-05
1.89329e-05
3.94669e-05
4.41334e-05
6.70098e-05
5.13415e-05
1.5174e-05
1.96381e-05
3.97954e-05
4.63443e-05
7.89806e-05
5.26226e-05
1.64577e-05
2.08834e-05
4.90271e-05
7.02949e-05
4.26165e-05
3.77385e-05
1.71266e-05
1.42676e-05
5.42379e-05
6.30443e-05
4.45329e-05
4.02785e-05
1.93196e-05
1.61868e-05
5.21962e-05
7.6257e-05
6.83152e-05
4.86849e-05
2.10054e-05
1.77674e-05
3.75242e-05
4.1523e-05
6.0599e-05
5.34455e-05
1.44082e-05
1.92279e-05
4.01712e-05
4.42444e-05
6.5829e-05
5.08743e-05
1.55329e-05
1.96035e-05
4.08602e-05
4.62762e-05
7.76058e-05
5.21623e-05
1.62173e-05
2.09833e-05
4.88752e-05
6.91222e-05
4.26477e-05
3.91154e-05
1.70789e-05
1.4381e-05
5.44028e-05
6.19348e-05
4.58698e-05
4.23666e-05
1.92946e-05
1.5478e-05
5.27256e-05
6.76457e-05
4.78983e-05
4.32299e-05
1.98037e-05
1.65245e-05
5.29245e-05
7.92457e-05
7.06306e-05
4.98513e-05
2.13652e-05
1.75611e-05
4.00477e-05
4.37981e-05
6.28145e-05
5.62004e-05
1.43859e-05
1.92491e-05
4.28582e-05
4.65839e-05
6.7766e-05
5.33583e-05
1.54835e-05
1.98266e-05
4.36442e-05
4.83179e-05
7.93462e-05
5.35944e-05
1.65228e-05
2.12802e-05
5.05752e-05
7.08799e-05
4.45784e-05
4.14302e-05
1.74037e-05
1.4674e-05
5.64956e-05
6.37071e-05
4.77317e-05
4.44656e-05
1.95947e-05
1.58582e-05
5.45903e-05
6.90082e-05
4.95528e-05
4.50788e-05
1.99007e-05
1.64639e-05
5.40593e-05
8.00279e-05
7.14594e-05
5.09665e-05
2.1157e-05
1.7021e-05
4.10857e-05
4.45648e-05
6.27363e-05
5.61073e-05
1.47387e-05
1.95323e-05
4.38917e-05
4.70114e-05
6.71188e-05
5.34831e-05
1.57546e-05
2.00109e-05
4.47633e-05
4.85238e-05
7.73254e-05
5.28787e-05
1.65913e-05
2.1445e-05
5.02022e-05
6.92201e-05
4.41817e-05
4.16209e-05
1.72577e-05
1.48214e-05
5.58152e-05
6.232e-05
4.71399e-05
4.42287e-05
1.94245e-05
1.53825e-05
5.27976e-05
6.65142e-05
4.95042e-05
4.51668e-05
1.96384e-05
1.56489e-05
5.40791e-05
6.92427e-05
5.09207e-05
4.78575e-05
1.99647e-05
1.66369e-05
5.51118e-05
7.95244e-05
7.09633e-05
5.23407e-05
2.12892e-05
1.78608e-05
4.31548e-05
4.56536e-05
6.37141e-05
5.83921e-05
1.45885e-05
1.96191e-05
4.53575e-05
4.83931e-05
6.71051e-05
5.36165e-05
1.58177e-05
1.9919e-05
4.58874e-05
5.0373e-05
6.94277e-05
5.45188e-05
1.57708e-05
2.00005e-05
4.85843e-05
5.14801e-05
7.93912e-05
5.54947e-05
1.6598e-05
2.13472e-05
5.27761e-05
7.12094e-05
4.66222e-05
4.43995e-05
1.73537e-05
1.47742e-05
5.88132e-05
6.43467e-05
4.9379e-05
4.67823e-05
1.97382e-05
1.5833e-05
5.43622e-05
6.85494e-05
5.17032e-05
4.76277e-05
2.00525e-05
1.60201e-05
5.62804e-05
7.09699e-05
5.30835e-05
5.04768e-05
2.02771e-05
1.68851e-05
5.71599e-05
8.09674e-05
7.26443e-05
5.43401e-05
2.15817e-05
1.72816e-05
4.5425e-05
4.80131e-05
6.51556e-05
5.9834e-05
1.4907e-05
1.98037e-05
4.76087e-05
5.04278e-05
6.85971e-05
5.50215e-05
1.57518e-05
2.0037e-05
4.7817e-05
5.19979e-05
7.03994e-05
5.59342e-05
1.59412e-05
2.03793e-05
5.06054e-05
5.315e-05
7.95977e-05
5.65033e-05
1.68564e-05
2.16436e-05
5.4315e-05
7.20142e-05
4.82926e-05
4.61782e-05
1.84314e-05
1.49907e-05
5.9885e-05
6.47489e-05
5.08494e-05
4.8579e-05
2.00117e-05
1.58809e-05
5.60705e-05
6.88785e-05
5.277e-05
4.88354e-05
2.00475e-05
1.57752e-05
5.58069e-05
7.05681e-05
5.41343e-05
5.01901e-05
2.00364e-05
1.60633e-05
5.85775e-05
7.23623e-05
5.49868e-05
5.31213e-05
2.02655e-05
1.68347e-05
5.89081e-05
8.1621e-05
7.38981e-05
5.62969e-05
2.16005e-05
1.71776e-05
4.6986e-05
4.99764e-05
6.56616e-05
6.07871e-05
1.50942e-05
2.00352e-05
4.92693e-05
5.20853e-05
6.88016e-05
5.58957e-05
1.60579e-05
2.03256e-05
4.97727e-05
5.35112e-05
7.05056e-05
5.63678e-05
1.59808e-05
2.01994e-05
5.14634e-05
5.47638e-05
7.29867e-05
5.92976e-05
1.61634e-05
2.04229e-05
5.43389e-05
5.59806e-05
8.29467e-05
6.02063e-05
1.69571e-05
2.18391e-05
5.78048e-05
7.51948e-05
5.17605e-05
4.96521e-05
1.78098e-05
1.50304e-05
6.3747e-05
6.78765e-05
5.40434e-05
5.17846e-05
2.00273e-05
1.58245e-05
5.87616e-05
7.20159e-05
5.59661e-05
5.19619e-05
2.02489e-05
1.61225e-05
5.92783e-05
7.37193e-05
5.73059e-05
5.37488e-05
2.02754e-05
1.61579e-05
6.20836e-05
7.58677e-05
5.84134e-05
5.64857e-05
2.04986e-05
1.71515e-05
6.22311e-05
8.50328e-05
7.73197e-05
5.96167e-05
2.18786e-05
1.75197e-05
5.06974e-05
5.35351e-05
6.87717e-05
6.4004e-05
1.54184e-05
2.02776e-05
5.27644e-05
5.56203e-05
7.21134e-05
5.94428e-05
1.61945e-05
2.05809e-05
5.27578e-05
5.71683e-05
7.33621e-05
5.89471e-05
1.62999e-05
2.05683e-05
5.45318e-05
5.80084e-05
7.56292e-05
6.19946e-05
1.64933e-05
2.07333e-05
5.78015e-05
5.89833e-05
8.50202e-05
6.32981e-05
1.71762e-05
2.21475e-05
6.10131e-05
7.79032e-05
5.48105e-05
5.26072e-05
1.79198e-05
1.53338e-05
6.63521e-05
7.0364e-05
5.71349e-05
5.45851e-05
2.03573e-05
1.61886e-05
6.11083e-05
7.39445e-05
5.89777e-05
5.47693e-05
2.06132e-05
1.63614e-05
6.12434e-05
7.58263e-05
6.02877e-05
5.63949e-05
2.05321e-05
1.64583e-05
6.42324e-05
7.77404e-05
6.09643e-05
5.92291e-05
2.06961e-05
1.71828e-05
6.44266e-05
8.65064e-05
7.92033e-05
6.21323e-05
2.22378e-05
1.75952e-05
5.32178e-05
5.60074e-05
7.01872e-05
6.63875e-05
1.55983e-05
2.04792e-05
5.5224e-05
5.7937e-05
7.25682e-05
6.06613e-05
1.62741e-05
2.07665e-05
5.53274e-05
5.91059e-05
7.41155e-05
6.06763e-05
1.64621e-05
2.06481e-05
5.68421e-05
6.01323e-05
7.61994e-05
6.31878e-05
1.64384e-05
2.05648e-05
5.87451e-05
6.17614e-05
7.90727e-05
6.62836e-05
1.64338e-05
2.07743e-05
6.17541e-05
6.27674e-05
8.89147e-05
6.68769e-05
1.72956e-05
2.24624e-05
6.47531e-05
8.1855e-05
5.8733e-05
5.68566e-05
1.86776e-05
1.54597e-05
7.04645e-05
7.39075e-05
6.12762e-05
5.91668e-05
2.06324e-05
1.64565e-05
6.54729e-05
7.77352e-05
6.31308e-05
5.93394e-05
2.08368e-05
1.65071e-05
6.59972e-05
7.99942e-05
6.47195e-05
6.10088e-05
2.06693e-05
1.65277e-05
6.90727e-05
8.2839e-05
6.60815e-05
6.41343e-05
2.09124e-05
1.74918e-05
6.94196e-05
9.18276e-05
8.41889e-05
6.70637e-05
2.26746e-05
1.84606e-05
5.86491e-05
6.08427e-05
7.56769e-05
7.24426e-05
1.56563e-05
2.08165e-05
6.07289e-05
6.34658e-05
7.82467e-05
6.68561e-05
1.66276e-05
2.0972e-05
6.03368e-05
6.45073e-05
7.92947e-05
6.6104e-05
1.67581e-05
2.08726e-05
6.18852e-05
6.53954e-05
8.13594e-05
6.8672e-05
1.66773e-05
2.11334e-05
6.49796e-05
6.60952e-05
9.04613e-05
6.92933e-05
1.7596e-05
2.3046e-05
6.76627e-05
8.35667e-05
6.18362e-05
6.04434e-05
1.91299e-05
1.56651e-05
7.34449e-05
7.59397e-05
6.44419e-05
6.27526e-05
2.09463e-05
1.67458e-05
6.8647e-05
7.95673e-05
6.62623e-05
6.2814e-05
2.10997e-05
1.66907e-05
6.85776e-05
8.14352e-05
6.74326e-05
6.43325e-05
2.09711e-05
1.68472e-05
7.09406e-05
8.41914e-05
6.88724e-05
6.78329e-05
2.14213e-05
1.78149e-05
7.21137e-05
9.33262e-05
8.59285e-05
7.02968e-05
2.31744e-05
1.88949e-05
6.26797e-05
6.41742e-05
7.83312e-05
7.63039e-05
1.58785e-05
2.10178e-05
6.43683e-05
6.67435e-05
8.07767e-05
7.00063e-05
1.6794e-05
2.13235e-05
6.43245e-05
6.79634e-05
8.1975e-05
6.9745e-05
1.68893e-05
2.13777e-05
6.6189e-05
6.90333e-05
8.4207e-05
7.20316e-05
1.70206e-05
2.18501e-05
6.98221e-05
6.99487e-05
9.35026e-05
7.32344e-05
1.82952e-05
2.38728e-05
7.19964e-05
8.67644e-05
6.64074e-05
6.59255e-05
1.94992e-05
1.63556e-05
7.84286e-05
8.04271e-05
6.91754e-05
6.79175e-05
2.14043e-05
1.70608e-05
7.43274e-05
8.42395e-05
7.11184e-05
6.82184e-05
2.16821e-05
1.70516e-05
7.41603e-05
8.66234e-05
7.19833e-05
7.09167e-05
2.20222e-05
1.8487e-05
7.41318e-05
9.48716e-05
8.76727e-05
7.28213e-05
2.43457e-05
1.93019e-05
6.62744e-05
6.7295e-05
7.99088e-05
7.84874e-05
1.65497e-05
2.17939e-05
6.83651e-05
6.9785e-05
8.26498e-05
7.38455e-05
1.73721e-05
2.20913e-05
6.85697e-05
7.11213e-05
8.46285e-05
7.29487e-05
1.74431e-05
2.25595e-05
7.20138e-05
7.18561e-05
9.29133e-05
7.41381e-05
1.86909e-05
2.45674e-05
7.34551e-05
8.6517e-05
6.81491e-05
6.83556e-05
2.04688e-05
1.65491e-05
7.98267e-05
8.0366e-05
7.07375e-05
7.03548e-05
2.18916e-05
1.72928e-05
7.45043e-05
8.42023e-05
7.28158e-05
7.1071e-05
2.23883e-05
1.7768e-05
7.53257e-05
8.67017e-05
7.40076e-05
7.41124e-05
2.2813e-05
1.88691e-05
7.59591e-05
9.45117e-05
8.81103e-05
7.53275e-05
2.51512e-05
1.95693e-05
6.94537e-05
7.02285e-05
8.10364e-05
8.11172e-05
1.676e-05
2.24692e-05
7.20154e-05
7.25022e-05
8.40545e-05
7.60661e-05
1.77855e-05
2.27277e-05
7.24246e-05
7.38478e-05
8.65089e-05
7.54782e-05
1.79564e-05
2.33602e-05
7.62482e-05
7.4901e-05
9.52076e-05
7.73371e-05
1.94429e-05
2.56321e-05
7.70301e-05
8.9064e-05
7.21055e-05
7.30132e-05
2.03827e-05
1.70519e-05
8.39643e-05
8.37416e-05
7.50308e-05
7.57253e-05
2.2982e-05
1.82313e-05
7.96848e-05
8.81471e-05
7.74501e-05
7.6493e-05
2.34952e-05
1.87023e-05
7.94395e-05
9.12463e-05
7.91954e-05
8.05421e-05
2.4231e-05
2.0119e-05
8.15702e-05
9.978e-05
9.34774e-05
8.14351e-05
2.65996e-05
2.12852e-05
7.66857e-05
7.64327e-05
8.72456e-05
8.78905e-05
1.77098e-05
2.35196e-05
7.91535e-05
7.87115e-05
9.12464e-05
8.25256e-05
1.87453e-05
2.46457e-05
8.17843e-05
8.03595e-05
9.94379e-05
8.18734e-05
2.04957e-05
2.7058e-05
8.12477e-05
9.35777e-05
7.68951e-05
7.8145e-05
2.14632e-05
1.79098e-05
8.8599e-05
8.76684e-05
8.0294e-05
8.14618e-05
2.42588e-05
1.92542e-05
8.4438e-05
9.2608e-05
8.26004e-05
8.26699e-05
2.48982e-05
1.98171e-05
8.45633e-05
9.64913e-05
8.50583e-05
8.7569e-05
2.58025e-05
2.14685e-05
8.79737e-05
0.000106033
9.94248e-05
8.81525e-05
2.83659e-05
2.3211e-05
8.49587e-05
8.32323e-05
9.41254e-05
9.56611e-05
1.87215e-05
2.51334e-05
8.73366e-05
8.61469e-05
9.92586e-05
8.99449e-05
2.01019e-05
2.64016e-05
9.04335e-05
8.81425e-05
0.00010849
9.00098e-05
2.15867e-05
2.88283e-05
9.02412e-05
0.00010248
8.65243e-05
8.87789e-05
2.42713e-05
1.99492e-05
9.78448e-05
9.72804e-05
8.94243e-05
9.19041e-05
2.65063e-05
2.12424e-05
9.37834e-05
0.000103227
9.22767e-05
9.55983e-05
2.78852e-05
2.32572e-05
9.44659e-05
0.000113008
0.000106726
9.49439e-05
3.07353e-05
2.51016e-05
9.29283e-05
9.06957e-05
0.000101911
0.000102532
2.03514e-05
2.76911e-05
9.75729e-05
9.34375e-05
0.000112382
9.57162e-05
2.30949e-05
3.08322e-05
9.56174e-05
0.000106936
9.0926e-05
9.22123e-05
2.50694e-05
2.001e-05
0.00010325
0.000101283
9.35507e-05
9.51829e-05
2.72446e-05
2.18512e-05
9.62599e-05
0.000105766
9.56429e-05
9.90094e-05
2.90097e-05
2.41665e-05
9.6836e-05
0.00011476
0.00010921
9.81343e-05
3.21484e-05
2.61494e-05
9.711e-05
9.46982e-05
0.000104477
0.0001052
2.15902e-05
2.92867e-05
0.000102659
9.7296e-05
0.000114598
9.94558e-05
2.45523e-05
3.27412e-05
9.96628e-05
0.000109524
9.59857e-05
9.88705e-05
2.69149e-05
2.18135e-05
0.000106748
0.000105366
9.7868e-05
0.000103481
2.93561e-05
2.39535e-05
9.94639e-05
0.00011497
0.000110065
0.000100263
3.26571e-05
2.73642e-05
9.92184e-05
9.6569e-05
0.000105688
0.000106185
2.23894e-05
3.04495e-05
0.00010529
9.92744e-05
0.00011508
0.000100892
2.52769e-05
3.40927e-05
0.000101715
0.000110417
9.8433e-05
0.000101993
2.77159e-05
2.26954e-05
0.000108529
0.000106684
0.000100929
0.000107412
3.07254e-05
2.5388e-05
0.00010253
0.00011672
0.000111992
0.000103034
3.41091e-05
2.79652e-05
0.000102994
9.96637e-05
0.000108198
0.000111301
2.20169e-05
3.03727e-05
0.00010818
0.00010197
0.000117441
0.000102746
2.57054e-05
3.52197e-05
0.000103808
0.000112922
0.000102005
0.00010756
2.96749e-05
2.40285e-05
0.000111405
0.000110426
0.000105186
0.000114067
3.25588e-05
2.71279e-05
0.000108005
0.000121663
0.000117112
0.0001093
3.63511e-05
2.97309e-05
0.000111555
0.000106468
0.000114763
0.000116616
2.428e-05
3.3048e-05
0.00011867
0.00010959
0.00012687
0.000113055
2.72399e-05
3.61487e-05
0.000112535
0.000122103
0.000110509
0.000119905
3.14092e-05
2.71782e-05
0.00011947
0.00012497
0.000121018
0.000119161
3.77418e-05
3.22749e-05
0.0001189
0.000112495
0.000121903
0.000122415
2.62682e-05
3.54689e-05
0.000125386
0.000116507
0.000132773
0.000118153
2.96362e-05
3.94802e-05
0.000119855
0.000127971
0.000117626
0.000127708
3.32021e-05
2.82423e-05
0.000127174
0.000132224
0.000128268