/*--------------------------------*- C++ -*----------------------------------*\
| =========                 |                                                 |
| \\      /  F ield         | OpenFOAM: The Open Source CFD Toolbox           |
|  \\    /   O peration     | Version:  v2006                                 |
|   \\  /    A nd           | Website:  www.openfoam.com                      |
|    \\/     M anipulation  |                                                 |
\*---------------------------------------------------------------------------*/
FoamFile
{
    version     2.0;
    format      ascii;
    class       volScalarField;
    location    "0.113";
    object      Co;
}
// * * * * * * * * * * * * * * * * * * * * * * * * * * * * * * * * * * * * * //

dimensions      [0 0 0 0 0 0 0];


internalField   nonuniform List<scalar> 
16277
(
0.00667695
0.00636456
0.00690775
0.00717211
0.00721029
0.00705912
0.0070554
0.00693646
0.00688471
0.00687073
0.00683275
0.00681836
0.00680442
0.0067945
0.00678353
0.00677243
0.00676075
0.00674842
0.00673571
0.00672243
0.00670858
0.00669416
0.00667918
0.00666367
0.00664761
0.00663103
0.00661393
0.00659631
0.00657819
0.00655958
0.00654049
0.00652093
0.00650092
0.00648047
0.0064596
0.00643833
0.00641667
0.00639465
0.00637229
0.0063496
0.0063266
0.00630333
0.0062798
0.00625604
0.00623207
0.00620791
0.0061836
0.00615915
0.00613459
0.00610996
0.00608527
0.00606056
0.00603585
0.00601118
0.00598657
0.00596204
0.00593764
0.00591339
0.00588932
0.00586546
0.00584184
0.00581849
0.00579544
0.00577272
0.00575036
0.00572839
0.00570684
0.00568573
0.00566509
0.00564494
0.00562531
0.00560623
0.00558772
0.0055698
0.00555251
0.00553587
0.00551983
0.00550434
0.00548785
0.00547295
0.00545969
0.00545024
0.00544809
0.00548111
0.00554501
0.00571874
0.00603276
0.00675081
0.00842301
0.0120104
0.01801
0.0141691
0.0127295
0.012194
0.0119257
0.0116611
0.0111366
0.010099
0.0110807
0.0117204
0.0109191
0.0108027
0.0101629
0.00839074
0.00903369
0.0092402
0.00918958
0.00918715
0.00861875
0.00784103
0.00854876
0.00872176
0.00899096
0.00883349
0.00804716
0.00782783
0.00863273
0.00881852
0.00902238
0.00880052
0.00789312
0.0077938
0.00867254
0.00886582
0.00903529
0.0087725
0.00779674
0.00769599
0.00864341
0.00886655
0.00899335
0.00871464
0.00767764
0.00758174
0.00858208
0.00883502
0.00895355
0.00864929
0.00756542
0.00747519
0.00851725
0.00879535
0.00891054
0.00858413
0.00746325
0.00737758
0.00845325
0.00875358
0.00886589
0.00852009
0.00736894
0.00728686
0.00839112
0.00871078
0.00882025
0.00845721
0.00728079
0.00720134
0.00833081
0.00866741
0.00877374
0.00839505
0.0071973
0.00712003
0.00827061
0.0086223
0.00872637
0.00833336
0.00711742
0.00704191
0.00821039
0.00857569
0.00867805
0.00827191
0.00704034
0.00696627
0.00814997
0.00852756
0.00862879
0.00821051
0.00696541
0.00689249
0.00808918
0.0084779
0.00857851
0.00814893
0.00689209
0.0068201
0.00802783
0.00842667
0.00852709
0.00808696
0.00681994
0.00674873
0.00796583
0.00837386
0.00847441
0.00802441
0.0067486
0.0066779
0.0079029
0.00831942
0.00842041
0.00796113
0.00667774
0.00660745
0.00783898
0.00826327
0.00836499
0.00789697
0.00660716
0.00653717
0.00777397
0.00820532
0.00830804
0.00783177
0.00653659
0.00646681
0.00770772
0.00814552
0.00824943
0.0077654
0.00646585
0.00639619
0.00764132
0.00808645
0.00818904
0.00769771
0.00639471
0.00632511
0.00757372
0.00802619
0.00812682
0.00762861
0.00632302
0.00625339
0.00750464
0.00796406
0.00806266
0.00755795
0.00625058
0.00618084
0.00743396
0.00789997
0.00799645
0.0074856
0.00617723
0.0061073
0.00736152
0.0078338
0.00792807
0.0074114
0.0061028
0.0060326
0.0072872
0.00776544
0.00785739
0.00733523
0.00602711
0.00595658
0.00721087
0.00769476
0.0077843
0.00725695
0.00595003
0.0058791
0.00713238
0.00762166
0.00770869
0.00717644
0.00587142
0.00580004
0.00705164
0.00754602
0.00763044
0.00709359
0.00579115
0.00571928
0.00696854
0.00746775
0.00754948
0.0070083
0.00570914
0.00563677
0.006883
0.00738677
0.00746572
0.00692053
0.00562534
0.00555248
0.00679498
0.00730301
0.00737912
0.00683023
0.00553976
0.00546644
0.00670448
0.00721644
0.00728967
0.00673746
0.00545249
0.00537879
0.00661158
0.0071271
0.00719746
0.00664232
0.00536367
0.0052897
0.00651643
0.00703508
0.00710261
0.00654502
0.00527353
0.00519946
0.00641925
0.00694055
0.00700534
0.00644584
0.00518243
0.00510849
0.0063204
0.00684378
0.00690598
0.0063452
0.00509085
0.00501734
0.00622036
0.00674512
0.00680498
0.00624367
0.00499945
0.00492677
0.00611977
0.00664509
0.00670294
0.006142
0.00490908
0.00483772
0.00601949
0.00654439
0.00660068
0.00604119
0.00482081
0.00475141
0.00592061
0.00644391
0.00649928
0.00594247
0.00473602
0.00466934
0.0058245
0.00634483
0.00640004
0.00584739
0.00465636
0.00459331
0.00573282
0.00624857
0.00630463
0.00575785
0.00458382
0.00452546
0.00564766
0.00615697
0.00621507
0.00567597
0.00452067
0.00446988
0.00557246
0.00607202
0.00613344
0.00560394
0.00446971
0.00443461
0.00552351
0.0060088
0.00606255
0.00554522
0.00443447
0.00441693
0.00549647
0.0059801
0.00600594
0.00550287
0.00441681
0.00441863
0.00548954
0.0059711
0.00596674
0.00547959
0.00441853
0.00444033
0.00550339
0.00598224
0.00594388
0.00547418
0.00444029
0.00448133
0.00553693
0.00601207
0.00594699
0.00549724
0.00448455
0.00454268
0.00559216
0.00606383
0.00599602
0.00556005
0.00455568
0.00462415
0.00566822
0.00613591
0.00607139
0.00564054
0.00464298
0.0047172
0.00575618
0.00621862
0.00615676
0.00573204
0.00473945
0.00481669
0.00585236
0.00630887
0.00624812
0.00582978
0.00483999
0.00491852
0.00595349
0.00640428
0.00634334
0.00593093
0.00494133
0.00501965
0.00605645
0.00650209
0.00643956
0.00603245
0.00504059
0.00511729
0.00615822
0.00659942
0.00653415
0.00613155
0.00513513
0.00520902
0.00625625
0.00669379
0.00662485
0.00622588
0.00522278
0.00529296
0.00634843
0.00678319
0.00670985
0.0063136
0.00530195
0.00536772
0.0064331
0.00686596
0.00678774
0.00639328
0.00537149
0.00543252
0.00650904
0.00694088
0.00685749
0.00646532
0.0054327
0.00548727
0.0065755
0.00700717
0.00692201
0.00653485
0.00548743
0.00553186
0.00663197
0.0070644
0.00699146
0.00659961
0.00553204
0.00556665
0.00667884
0.00711279
0.00705426
0.0066543
0.00556682
0.00559261
0.0067171
0.00715289
0.00710758
0.00669882
0.00559222
0.00561011
0.00674683
0.00718525
0.00715198
0.00673515
0.00561019
0.00562092
0.00676871
0.00721104
0.00718771
0.00676409
0.00562208
0.00562537
0.0067839
0.00723152
0.00721579
0.00678613
0.00562861
0.0056265
0.00679493
0.00724681
0.00723743
0.00680038
0.00562994
0.00562505
0.00680279
0.00725816
0.00725408
0.00680978
0.00562798
0.00562127
0.00680724
0.00726661
0.00726634
0.00681641
0.00562471
0.00561494
0.00680773
0.00727258
0.00727468
0.00682102
0.00562016
0.00560805
0.00680719
0.00727641
0.00728052
0.00682083
0.00561303
0.00560178
0.00680736
0.00727946
0.00728493
0.00681988
0.00560601
0.00559361
0.00680414
0.00728037
0.00728677
0.0068184
0.00559859
0.00558597
0.00680107
0.00728098
0.00728821
0.00681508
0.00559081
0.00557867
0.00679807
0.00728054
0.00728811
0.00681104
0.00558284
0.0055713
0.00679465
0.00727995
0.00728746
0.00680675
0.00557503
0.00556287
0.00678838
0.00727756
0.00728502
0.00680202
0.00556775
0.00555707
0.00678689
0.00727453
0.00728339
0.00679614
0.00555877
0.00555152
0.00678497
0.00727506
0.00728375
0.00678673
0.00554897
0.00554098
0.0067738
0.00727046
0.00727874
0.00678528
0.00554117
0.00552779
0.00676033
0.00725435
0.00723204
0.00672578
0.00548499
0.00547737
0.00670487
0.00720407
0.00706158
0.00652965
0.00531355
0.00541624
0.00662488
0.00711503
0.00681175
0.00625887
0.00506464
0.00559586
0.00684275
0.0073101
0.00731576
0.00662055
0.0052666
0.00651409
0.0081152
0.00881366
0.00957015
0.00848428
0.00655921
0.0082188
0.0119345
0.014956
0.0140284
0.0182234
0.0155693
0.0146119
0.0139356
0.0137485
0.0136331
0.0136609
0.0136682
0.0136917
0.0137038
0.0137596
0.0138634
0.0140298
0.0143965
0.0152827
0.0195562
0.0279083
0.0299369
0.0272948
0.02584
0.023568
0.0210866
0.0181418
0.0125081
0.0110785
0.0165656
0.0198537
0.0177324
0.0153817
0.0105344
0.00876613
0.0129265
0.0150942
0.0141219
0.0123652
0.00849274
0.00785159
0.0115643
0.0133626
0.0131197
0.0114461
0.00774975
0.00761884
0.0112349
0.0129517
0.0129682
0.0112345
0.00761256
0.00761305
0.0112335
0.012952
0.0129571
0.0112388
0.00762611
0.00763471
0.0112471
0.0129637
0.0129704
0.011255
0.00764281
0.0076441
0.0112412
0.0129642
0.0129994
0.0112962
0.00766876
0.0076701
0.0112814
0.0129921
0.0130005
0.0112899
0.00767863
0.00767861
0.0112726
0.0129789
0.0130397
0.0113158
0.00769616
0.00771261
0.0113229
0.0130185
0.0130274
0.0113105
0.00770755
0.00772537
0.0113198
0.0130081
0.0130711
0.0113554
0.00773795
0.00775704
0.0113663
0.013052
0.0130585
0.0113517
0.00775068
0.00776843
0.0113599
0.0130388
0.0131013
0.0113925
0.0077795
0.0077975
0.0114014
0.0130822
0.0130916
0.0113893
0.0077931
0.00781212
0.0113998
0.0130743
0.0131353
0.0114324
0.00782275
0.00784197
0.0114428
0.013117
0.0131257
0.0114302
0.00783724
0.00785766
0.0114423
0.0131088
0.013173
0.011479
0.00787097
0.00789045
0.01149
0.0131541
0.013164
0.0114903
0.00789491
0.00789923
0.0114788
0.0131468
0.0132113
0.0115261
0.00791989
0.00793908
0.0115359
0.0131928
0.0132006
0.0115333
0.00794145
0.00794412
0.0115187
0.0131816
0.0132435
0.0115628
0.00796358
0.00798414
0.0115743
0.0132257
0.0132376
0.0115774
0.00799036
0.0079952
0.0115675
0.0132216
0.0132838
0.011612
0.00801404
0.0080323
0.0116198
0.0132646
0.013275
0.011619
0.00803593
0.00804107
0.0116094
0.0132604
0.0133283
0.0116599
0.00806314
0.00808442
0.0116747
0.0133139
0.013325
0.0116756
0.00808792
0.00809067
0.0116636
0.0133086
0.0133722
0.0117081
0.00810858
0.00812891
0.0117205
0.0133572
0.0133727
0.0117252
0.00813407
0.00813825
0.0117173
0.013359
0.0134275
0.0117679
0.00815873
0.00817727
0.0117804
0.0134124
0.0134276
0.0117837
0.00818028
0.00818268
0.0117745
0.0134154
0.0134875
0.0118254
0.00820111
0.00821858
0.0118393
0.0134771
0.0134948
0.0118314
0.00821121
0.0082282
0.0118473
0.0134845
0.0135574
0.0118881
0.00823727
0.00825392
0.0119046
0.0135469
0.0135684
0.0119022
0.00824785
0.00826767
0.0119269
0.0135652
0.01365
0.0119789
0.00827949
0.00829689
0.0120032
0.0136496
0.0136773
0.0120154
0.00829718
0.00829597
0.0120138
0.0136767
0.0137596
0.0120729
0.00831206
0.00833073
0.0120995
0.01376
0.0137984
0.012125
0.00833874
0.00834937
0.0121425
0.0138108
0.0139063
0.0122214
0.00837674
0.00840398
0.0122603
0.0139174
0.0139674
0.0122809
0.00841044
0.00844395
0.0123258
0.0139894
0.0141005
0.0124064
0.00847894
0.00853349
0.0124738
0.0141319
0.0141966
0.0125388
0.00858082
0.0086513
0.0126199
0.0142474
0.0143396
0.0126935
0.00870608
0.00877417
0.0127612
0.0143874
0.014465
0.0128428
0.00886048
0.00897163
0.0129518
0.0145589
0.0146721
0.0130893
0.00910993
0.00927211
0.013249
0.0147942
0.0149353
0.0134429
0.00947328
0.00970504
0.0136422
0.0150708
0.0152204
0.0138276
0.00995219
0.0101162
0.0139287
0.0152764
0.015428
0.0139842
0.0102693
0.0105983
0.0142577
0.0155123
0.0156015
0.0143077
0.0106691
0.0109036
0.0144037
0.0156464
0.0157733
0.0145723
0.011127
0.0113667
0.0146657
0.0158733
0.0161236
0.0150377
0.0117604
0.0119706
0.0151489
0.0162259
0.0165959
0.0155782
0.012502
0.0126778
0.0156718
0.0166765
0.0167908
0.0162536
0.0135635
0.0131817
0.0150615
0.0146796
0.0435798
0.0320677
0.0187665
0.0134353
0.0214162
0.0287782
0.0191605
0.0169491
0.0118554
0.0110875
0.0151018
0.0163942
0.0157253
0.0146956
0.011083
0.0111863
0.0149301
0.0162068
0.0159621
0.0148216
0.0113601
0.011803
0.0152475
0.0164375
0.0161035
0.0149784
0.0119375
0.0126689
0.0157602
0.0168259
0.0167719
0.0156972
0.012873
0.0137387
0.0164225
0.0172059
0.0150659
0.015456
0.0137008
0.0190471
0.031326
0.042206
0.029623
0.0230117
0.015519
0.0134175
0.0179115
0.0199855
0.0179452
0.0166439
0.0131913
0.0132729
0.0164679
0.0174927
0.0173135
0.0164207
0.0135151
0.013591
0.0163162
0.017195
0.017104
0.0165061
0.0141273
0.0137605
0.0150156
0.014399
0.0421376
0.0315097
0.0194118
0.0144943
0.0220629
0.0297942
0.0199436
0.0180735
0.014071
0.0137012
0.0166409
0.0174575
0.0168169
0.0162437
0.0138005
0.0142381
0.0165826
0.0171241
0.0147515
0.0154621
0.0141787
0.0193246
0.0308524
0.0409683
0.0301708
0.0237587
0.016577
0.0148751
0.0187086
0.0205012
0.0183218
0.0171117
0.0143773
0.0149074
0.0170998
0.0175353
0.0142794
0.015149
0.0142628
0.019787
0.0308626
0.0407862
0.0297409
0.0238815
0.0171045
0.0148277
0.0182371
0.0196855
0.0172968
0.0169043
0.0146858
0.014495
0.0153866
0.0144853
0.0390359
0.0296976
0.0192856
0.0176892
0.0242419
0.029708
0.0200302
0.0184379
0.0151777
0.0150135
0.0170153
0.0174802
0.0135496
0.0146747
0.0144727
0.0193825
0.0288996
0.0366157
0.027521
0.0221493
0.0164304
0.0147107
0.0156812
0.0149882
0.034186
0.0271841
0.0184085
0.0148796
0.020545
0.0259805
0.0131629
0.0139801
0.0133524
0.015619
0.021805
0.0260574
0.0138685
0.0128718
0.0109778
0.0110461
0.0160948
0.0195596
0.00483361
0.00459333
0.00428074
0.00562495
0.00911124
0.0111729
0.0138962
0.0120672
0.00869681
0.0142807
0.0170935
0.0186042
0.0224201
0.0213189
0.0188512
0.0206921
0.0219293
0.0215813
0.0370795
0.0321983
0.0244789
0.025219
0.0331065
0.038322
0.037399
0.0329556
0.0256068
0.0269228
0.0364601
0.04285
0.0266948
0.0268637
0.0234677
0.0276792
0.0376962
0.0454719
0.0487374
0.0386515
0.0267642
0.0240582
0.0316343
0.0367007
0.0453267
0.0372055
0.0263499
0.0220578
0.0252857
0.0257486
0.0429291
0.033742
0.0240495
0.026081
0.0385979
0.0489654
0.0250379
0.0246056
0.021298
0.0232572
0.0330227
0.0420102
0.0487724
0.0381685
0.0254383
0.0208202
0.024099
0.0245105
0.0415385
0.0324062
0.0227308
0.0250441
0.0377525
0.0485152
0.0245343
0.0240872
0.0206092
0.022647
0.0321164
0.041188
0.0483281
0.0376082
0.0250956
0.0206818
0.02407
0.0243564
0.0409909
0.0320917
0.022435
0.0246555
0.0373179
0.0479457
0.0245101
0.0241216
0.020568
0.0223726
0.0318313
0.0407654
0.0480161
0.0373625
0.024702
0.0199688
0.0232118
0.0238738
0.0395276
0.0307659
0.0216834
0.0243839
0.036992
0.047556
0.0210967
0.0212759
0.0190571
0.019762
0.0250714
0.0278884
0.0404249
0.032675
0.0231422
0.0234736
0.0364892
0.0478378
0.0228257
0.0224857
0.0192667
0.020204
0.0303505
0.0403916
0.047333
0.0366441
0.023755
0.0194077
0.0230558
0.023662
0.0404739
0.0319248
0.0222678
0.0237888
0.03687
0.0476467
0.0234575
0.023016
0.0195427
0.0205838
0.0307883
0.0408402
0.047809
0.0367285
0.0237491
0.0196131
0.0233142
0.0239655
0.0408963
0.0308464
0.0205924
0.023939
0.0368874
0.0478282
0.0236804
0.0231398
0.0193811
0.0225831
0.0321752
0.0405336
0.0478668
0.036997
0.0240852
0.0197398
0.0237057
0.0242955
0.041188
0.0326056
0.0229848
0.0243832
0.0372724
0.0482106
0.0244475
0.0238534
0.0199206
0.0241766
0.0343223
0.0426315
0.0477295
0.0370034
0.0242294
0.0216658
0.0295925
0.0350423
0.044329
0.035703
0.0242855
0.0210321
0.0250717
0.0255384
0.0419823
0.0328489
0.0228495
0.0250233
0.0378224
0.0482465
0.025002
0.0239272
0.0202111
0.0222996
0.0321732
0.0413714
0.0486555
0.0380872
0.025022
0.02045
0.0239108
0.0246555
0.0421314
0.03266
0.0226194
0.0250399
0.0380615
0.048891
0.0251547
0.0244058
0.0206068
0.0227548
0.0328213
0.042366
0.0493271
0.0384189
0.0254071
0.0210479
0.0249766
0.0256984
0.0445072
0.0357013
0.0253002
0.0252573
0.0381349
0.0491473
0.0370982
0.031487
0.0230211
0.0251382
0.0367624
0.0452057
0.026325
0.0252437
0.0212324
0.0235947
0.0341429
0.0438184
0.0499945
0.0392583
0.0259405
0.0215306
0.0255123
0.0262569
0.0455126
0.0359812
0.0252043
0.0257333
0.0387577
0.0500051
0.0376429
0.0318288
0.0235121
0.026037
0.037756
0.0462747
0.0272686
0.0261219
0.0221073
0.0243293
0.0348039
0.0448113
0.0510431
0.0399829
0.0266941
0.0223369
0.0263841
0.0270229
0.0465316
0.0367001
0.0258824
0.0263678
0.0394373
0.0506474
0.0386391
0.0326977
0.0240721
0.0265824
0.038466
0.0469459
0.0276225
0.0265693
0.0226731
0.024869
0.0358075
0.0461745
0.0519672
0.041044
0.0273563
0.0231113
0.0270095
0.0276146
0.0483472
0.0361282
0.0239234
0.0267215
0.0404836
0.0519654
0.0396716
0.0335016
0.0246055
0.0270564
0.0390777
0.0478248
0.0289553
0.0281439
0.0236524
0.0267504
0.0381133
0.0489178
0.0524881
0.0411885
0.0276765
0.0255354
0.0345187
0.0407806
0.0488261
0.0402046
0.0280616
0.0238403
0.0281179
0.0291976
0.0497603
0.0382648
0.026106
0.0277298
0.0412478
0.0527851
0.0411663
0.0348718
0.0258854
0.0285295
0.0406509
0.0494862
0.0299727
0.0290149
0.0245402
0.026625
0.0389788
0.0509051
0.0540036
0.0423495
0.0285681
0.0265267
0.0356934
0.0421399
0.0501964
0.0412481
0.0288925
0.0249518
0.0294491
0.0303302
0.0510965
0.0401538
0.0279565
0.0290749
0.0430797
0.0546092
0.0429781
0.0363198
0.0268924
0.0291703
0.0415965
0.0508969
0.031223
0.0304314
0.0257333
0.0266856
0.0401818
0.0532188
0.0554892
0.0435262
0.0288435
0.0277641
0.0379412
0.0452406
0.0507981
0.0416515
0.0294046
0.0274411
0.037126
0.0435742
0.0508901
0.0420798
0.0296522
0.0262888
0.0312611
0.0322364
0.0537848
0.0417118
0.0290538
0.0304401
0.0448162
0.0566129
0.0450516
0.0380993
0.0282756
0.0304607
0.0434074
0.052465
0.0322932
0.0315466
0.0268898
0.0277879
0.0416531
0.0553505
0.0574449
0.0449158
0.0298034
0.0286167
0.0391351
0.0469922
0.0526629
0.0429845
0.0302549
0.0286699
0.0385325
0.04545
0.0530416
0.0439341
0.0313121
0.0272552
0.0324116
0.0335246
0.0562875
0.044416
0.0313243
0.0317963
0.046461
0.0586941
0.0485556
0.0405953
0.0296454
0.0313036
0.0442831
0.0538444
0.0471285
0.0399858
0.0297816
0.0317551
0.0447147
0.0537551
0.0342472
0.0331152
0.0280094
0.0302231
0.0442077
0.0577314
0.0594392
0.0469907
0.0318783
0.0305566
0.041653
0.0495965
0.0551128
0.045445
0.0321785
0.0305964
0.0408993
0.0479285
0.055263
0.0461224
0.0328952
0.0288991
0.0341682
0.0352252
0.058669
0.0459792
0.0323056
0.0333081
0.0483715
0.0608067
0.0505746
0.042284
0.0308902
0.0327422
0.0461009
0.0558887
0.0491973
0.0415887
0.0309978
0.0337913
0.0470089
0.0563088
0.0358866
0.0346907
0.0294546
0.0341639
0.048095
0.0603565
0.0620281
0.0493008
0.0342162
0.0318881
0.0437791
0.0519889
0.0575243
0.0475189
0.0335295
0.0321322
0.0430186
0.0503857
0.057744
0.0481409
0.0345541
0.0300655
0.035499
0.0366359
0.0615101
0.0487926
0.0348732
0.0350734
0.0503282
0.0632318
0.0533089
0.0447832
0.0329389
0.0347517
0.0485961
0.0585629
0.0537758
0.045378
0.0333008
0.03502
0.0486247
0.0586062
0.052357
0.0444945
0.0330877
0.0357704
0.0497183
0.0591453
0.0385702
0.0374065
0.0316522
0.0336955
0.0493279
0.0643126
0.0652601
0.0514257
0.0349617
0.0339227
0.046083
0.0549623
0.0594866
0.049353
0.0353855
0.0340269
0.0460796
0.0549932
0.0599268
0.0498486
0.0361083
0.0341296
0.0457208
0.0535387
0.0608652
0.0510183
0.0368585
0.032219
0.0380202
0.0392762
0.0656318
0.0523213
0.0372728
0.0374471
0.053619
0.066744
0.0566417
0.0477059
0.0351324
0.0367749
0.0511484
0.0617425
0.0568357
0.0481243
0.035328
0.0370648
0.051352
0.0614796
0.05525
0.047064
0.0352282
0.037809
0.0520922
0.0624176
0.0406486
0.0392667
0.0331472
0.0385951
0.05395
0.0674666
0.0685589
0.0548714
0.0387069
0.0361645
0.0490288
0.0583548
0.0631363
0.0524043
0.0378545
0.0366864
0.049607
0.0588297
0.063427
0.052915
0.038363
0.0362435
0.0481532
0.0567927
0.0642348
0.0537962
0.0391781
0.0345607
0.0403608
0.0413423
0.0701723
0.0536637
0.0363473
0.0380047
0.0562036
0.0710334
0.0601449
0.0502385
0.0370711
0.0389601
0.05428
0.0651704
0.0608571
0.0512786
0.0378984
0.0395016
0.0541927
0.0647028
0.0612757
0.0513188
0.0378362
0.0400176
0.0547623
0.065528
0.0598036
0.0507671
0.0379577
0.0405138
0.055638
0.0663912
0.0432011
0.041871
0.0356654
0.0421141
0.0578775
0.0723104
0.0727927
0.0587208
0.042223
0.0387257
0.052548
0.0621213
0.0671466
0.0561632
0.0404154
0.0391724
0.0526996
0.0623893
0.0667524
0.0560381
0.0409431
0.0392672
0.0529816
0.0627701
0.0677513
0.0565657
0.0414062
0.0392921
0.0519604
0.0613359
0.0689837
0.0578122
0.0424007
0.03694
0.0432111
0.0447882
0.0748811
0.0593293
0.0423611
0.0430647
0.0610503
0.0758127
0.064803
0.0550517
0.0408053
0.0423863
0.0583801
0.0698798
0.0649592
0.0551499
0.04098
0.0426283
0.0580967
0.0692786
0.0656472
0.0554292
0.0411414
0.0431336
0.0587996
0.0700395
0.0640915
0.0541784
0.0407558
0.043775
0.0596406
0.0710052
0.0464464
0.0452171
0.0385159
0.0447612
0.0620339
0.0771903
0.0782518
0.0629099
0.0449371
0.041906
0.0565215
0.0668655
0.0723152
0.0598373
0.0435604
0.0422452
0.0568084
0.0672483
0.0714968
0.0602905
0.044146
0.0423591
0.0570082
0.0679891
0.0728671
0.061152
0.0446531
0.042384
0.0561848
0.0657386
0.0738935
0.0624474
0.0455656
0.0399663
0.046562
0.0478986
0.0806331
0.0637299
0.0458747
0.0461779
0.065015
0.0816561
0.0695477
0.0589332
0.0437354
0.045532
0.0626898
0.0750612
0.069953
0.0588748
0.0439485
0.0458872
0.062198
0.0743413
0.0706508
0.0594922
0.0442021
0.0464239
0.0630331
0.0750376
0.0688302
0.0585225
0.0441928
0.0473009
0.0644419
0.0763657
0.04971
0.0483817
0.041514
0.0487197
0.0670177
0.0834789
0.0842663
0.0679207
0.0491161
0.0455031
0.061149
0.0719999
0.0775942
0.0650366
0.0473463
0.0456639
0.0613694
0.0724792
0.0772401
0.064908
0.0475911
0.0459074
0.0617845
0.0732974
0.0778109
0.0655305
0.0482675
0.0463052
0.0620265
0.0734105
0.0787325
0.0662603
0.0488995
0.0461437
0.0606245
0.0712076
0.0800277
0.0674373
0.0498563
0.0437089
0.0505592
0.0520234
0.0875413
0.0683785
0.0483382
0.0498554
0.0710486
0.0883972
0.0753561
0.0637151
0.0477183
0.0496519
0.0680952
0.0814763
0.075828
0.0642816
0.0480983
0.0502955
0.0682286
0.0808369
0.0763733
0.0646077
0.0485327
0.0508253
0.068563
0.0819616
0.0741617
0.0632501
0.0480984
0.0514287
0.0697515
0.082792
0.0544647
0.0528284
0.0454584
0.0516075
0.0718815
0.0907502
0.0916696
0.0739443
0.0523839
0.0494913
0.0661866
0.07812
0.0839628
0.0699963
0.0514344
0.0497828
0.0665263
0.0785744
0.0837026
0.0705585
0.0519796
0.050243
0.0669927
0.0790129
0.0846888
0.0713359
0.0526485
0.0500237
0.0656231
0.0767876
0.0862314
0.0730447
0.0537284
0.0471229
0.0543917
0.0558564
0.0945313
0.0738862
0.0524068
0.0540111
0.0766289
0.0952725
0.0811354
0.068563
0.0515302
0.053608
0.0732315
0.0876891
0.0815896
0.0691376
0.0519246
0.0543593
0.0733625
0.087326
0.082177
0.069502
0.0521895
0.0548786
0.0740901
0.0882855
0.0798848
0.0682172
0.0520748
0.0558679
0.0755257
0.0892458
0.0586889
0.0570624
0.0493192
0.0557139
0.0775185
0.0982125
0.0991931
0.0795907
0.056902
0.0540836
0.0718326
0.0845857
0.0907264
0.0761982
0.0561617
0.0542389
0.0719472
0.0847799
0.0907382
0.0762963
0.0566615
0.0543868
0.0722562
0.0851588
0.0917139
0.0773248
0.0572396
0.0539211
0.0705845
0.0825593
0.0932517
0.0790011
0.0581953
0.0511507
0.0588603
0.060397
0.101512
0.0800127
0.0573475
0.0587733
0.0826302
0.103017
0.0874528
0.0741793
0.0560743
0.0585521
0.0794357
0.0951206
0.0881228
0.0748885
0.0565988
0.0592891
0.0796598
0.0948304
0.0862726
0.0738374
0.0564053
0.0598668
0.0812494
0.0963846
0.0622544
0.0607942
0.0527581
0.0607383
0.083785
0.104874
0.106245
0.0857137
0.0612616
0.0576278
0.076546
0.0901961
0.0980867
0.0816638
0.0600192
0.0580601
0.0767376
0.0901942
0.0981402
0.0824556
0.0610036
0.0577568
0.0754217
0.0880277
0.0996443
0.0843036
0.0622452
0.0546402
0.0625654
0.0638899
0.109276
0.0848306
0.0598538
0.062375
0.088867
0.110683
0.0936594
0.0792606
0.0599767
0.0627507
0.0854105
0.101892
0.0940873
0.0801098
0.0604745
0.0629075
0.0850739
0.101469
0.0918986
0.0785562
0.0601109
0.0643613
0.0870059
0.103254
0.0660515
0.0646077
0.0561086
0.0655241
0.0898151
0.112103
0.114063
0.091577
0.0659871
0.061482
0.0818033
0.0962711
0.104899
0.0880824
0.0646377
0.0623457
0.0822289
0.0964733
0.105154
0.0882446
0.0652879
0.0618945
0.0806959
0.0940775
0.107046
0.0905379
0.0667719
0.0585887
0.0670104
0.0684492
0.117079
0.0928796
0.0669106
0.0680479
0.0960508
0.119481
0.100096
0.0850624
0.0642311
0.0672707
0.0913766
0.109635
0.10034
0.0853392
0.0644923
0.0675327
0.091464
0.108911
0.0979128
0.0838314
0.0642179
0.0688657
0.0931353
0.110472
0.0705802
0.0690467
0.0603453
0.0682368
0.0946944
0.119657
0.123051
0.0984395
0.0699687
0.0662676
0.0872473
0.102476
0.113571
0.0946769
0.0696186
0.066049
0.0856653
0.0993621
0.114654
0.0967633
0.0711017
0.0627187
0.0714166
0.0726128
0.124518
0.0994674
0.0721405
0.0729519
0.102691
0.127874
0.106213
0.0902266
0.0684041
0.0717696
0.0972379
0.116752
0.106231
0.090478
0.0686347
0.0724448
0.0980446
0.116671
0.10344
0.0887638
0.0684054
0.0739171
0.0998263
0.118609
0.0760281
0.0741589
0.064543
0.0724605
0.100613
0.127634
0.130909
0.105202
0.0747578
0.0709965
0.0930402
0.10927
0.121676
0.101574
0.0745117
0.0710528
0.0914759
0.105995
0.122783
0.103577
0.0771281
0.0674641
0.0764817
0.0775035
0.131118
0.103461
0.0744263
0.0773381
0.10906
0.135629
0.111908
0.0951755
0.0726138
0.0771911
0.104691
0.125549
0.108279
0.0931314
0.0720306
0.078106
0.105921
0.125792
0.0797264
0.0778713
0.0679419
0.0765894
0.105705
0.133697
0.140172
0.112204
0.0798305
0.0738572
0.0951137
0.110496
0.130432
0.109298
0.0801505
0.0697999
0.0789892
0.079959
0.138985
0.109513
0.0790099
0.0824846
0.115991
0.143927
0.119019
0.101852
0.077943
0.0811832
0.110664
0.132728
0.114872
0.0989725
0.0765895
0.0818282
0.111308
0.13258
0.0826927
0.0813489
0.0716548
0.079967
0.110612
0.140066
0.147548
0.117868
0.0835862
0.0770385
0.0994273
0.115474
0.137491
0.115149
0.0838225
0.0724832
0.082018
0.0831177
0.144096
0.113646
0.081901
0.085961
0.121833
0.152148
0.120614
0.103811
0.0804186
0.0870907
0.118807
0.142224
0.0851602
0.084795
0.0756331
0.0832037
0.115926
0.147624
0.15679
0.125246
0.0880016
0.0811235
0.104498
0.121137
0.144856
0.121044
0.0880461
0.0759648
0.0856357
0.0865277
0.150676
0.118915
0.0857791
0.0897184
0.127465
0.160246
0.125153
0.10781
0.0831991
0.0900679
0.124234
0.148618
0.0885557
0.0880433
0.0781618
0.0882106
0.122257
0.155318
0.167031
0.134234
0.0949506
0.0876295
0.112305
0.128733
0.153911
0.128304
0.0933402
0.0802488
0.0900225
0.0907429
0.158046
0.123885
0.089032
0.0941905
0.134061
0.168367
0.130458
0.112203
0.0871144
0.0944295
0.130033
0.156698
0.0925919
0.0919528
0.0818074
0.092066
0.12697
0.160477
0.173094
0.138711
0.0977367
0.0895189
0.114516
0.132254
0.1633
0.136187
0.0993619
0.0856921
0.0950383
0.0951489
0.161101
0.128954
0.0947545
0.100876
0.144233
0.180069
0.0949055
0.0942732
0.0846214
0.0940546
0.130654
0.166466
0.180187
0.143558
0.100324
0.0918433
0.117548
0.136068
0.167121
0.139012
0.100789
0.0865329
0.0970235
0.0977879
0.164166
0.130861
0.0962532
0.104951
0.15028
0.18762
0.0964008
0.0969053
0.0881697
0.0993381
0.135069
0.170093
0.194239
0.154329
0.108081
0.0889295
0.0983274
0.0982994
0.176097
0.138381
0.0996305
0.107211
0.153887
0.194151
0.143754
0.124463
0.0974468
0.107711
0.149193
0.179363
0.103203
0.10253
0.0916766
0.102034
0.137603
0.171861
0.200383
0.160221
0.112299
0.0937077
0.102626
0.102259
0.177689
0.14213
0.105437
0.114424
0.163626
0.205514
0.103231
0.103115
0.0933605
0.103683
0.140353
0.175663
0.207666
0.164746
0.11457
0.0938159
0.103465
0.103509
0.177453
0.14166
0.104737
0.116113
0.1674
0.210436
0.105949
0.106032
0.0960651
0.107819
0.144791
0.181066
0.218101
0.173903
0.121254
0.0939639
0.0975327
0.0927104
0.123356
0.115137
0.0979673
0.105964
0.145249
0.185012
0.225051
0.175123
0.11917
0.0959191
0.104613
0.103537
0.182814
0.144941
0.10708
0.123518
0.180008
0.228049
0.0927468
0.0976614
0.095684
0.105846
0.122992
0.130229
0.191709
0.150496
0.109658
0.123599
0.183407
0.236874
0.0934092
0.0977664
0.0940357
0.100303
0.118667
0.127839
0.190107
0.15034
0.110628
0.129005
0.190761
0.243584
0.0922928
0.0989666
0.0973861
0.106421
0.123872
0.130218
0.190353
0.14899
0.108823
0.127575
0.190352
0.246984
0.0911999
0.0967589
0.0943517
0.0987388
0.110653
0.114074
0.129593
0.120096
0.103594
0.111569
0.154
0.198475
0.248609
0.19063
0.125433
0.0907091
0.0936934
0.0892148
0.103923
0.102349
0.0926286
0.091714
0.100352
0.102575
0.107799
0.105715
0.0937569
0.0929911
0.111778
0.120026
0.178304
0.134641
0.0943397
0.12396
0.190818
0.250234
0.0842512
0.0895716
0.0874807
0.0868016
0.0962003
0.0968057
0.0919284
0.0881886
0.0776606
0.0764625
0.0875677
0.0900673
0.0868381
0.0833993
0.070758
0.0662578
0.0796443
0.0837259
0.0806907
0.0760942
0.06194
0.0590575
0.0737777
0.0788383
0.0768955
0.0716003
0.0563959
0.0542091
0.069823
0.0755757
0.074201
0.0681788
0.0522638
0.0506108
0.0667856
0.073168
0.0721236
0.0654821
0.0491111
0.0477422
0.0642572
0.0712261
0.0703556
0.0632239
0.0465824
0.0453469
0.062009
0.0695437
0.0686141
0.0609708
0.044301
0.0433493
0.0599926
0.0678728
0.0670777
0.0590656
0.0424812
0.041695
0.0581984
0.0663994
0.0656645
0.0573835
0.0409841
0.0403445
0.0566245
0.0650426
0.0643599
0.0559048
0.039763
0.039237
0.0552293
0.0637845
0.0631454
0.0545878
0.0387596
0.038334
0.0539902
0.0626096
0.0620079
0.053424
0.0379515
0.0376131
0.0529005
0.0615093
0.0609476
0.0524088
0.037313
0.0370491
0.0519537
0.0604877
0.0599623
0.0515199
0.0368108
0.0366021
0.0511195
0.0595367
0.0590447
0.0507384
0.0364162
0.0362564
0.0503878
0.05865
0.0581884
0.0500519
0.036114
0.0359944
0.0497455
0.0578248
0.0573964
0.0494526
0.0358894
0.0358029
0.049187
0.0570669
0.0566727
0.0489317
0.035727
0.0356661
0.0487009
0.0563758
0.0560125
0.0484767
0.035612
0.0355707
0.0482747
0.0557446
0.0554093
0.0480767
0.0355337
0.0355071
0.0478992
0.055168
0.0548585
0.0477232
0.0354826
0.035467
0.0475666
0.0546433
0.0543602
0.0474143
0.0354578
0.0354519
0.0472764
0.05417
0.05391
0.0471426
0.0354533
0.0354528
0.0470204
0.0537428
0.0535056
0.0469014
0.0354576
0.0354586
0.0467925
0.0533597
0.0531417
0.0466862
0.0354651
0.0354677
0.0465898
0.0530151
0.0528171
0.0464959
0.0354747
0.0354771
0.0464107
0.052708
0.0525255
0.046327
0.0354844
0.0354868
0.0462518
0.0524317
0.0522653
0.0461776
0.0354933
0.0354942
0.0461111
0.0521855
0.0520307
0.0460447
0.0355003
0.0355015
0.0459865
0.0519632
0.051823
0.0459285
0.0355067
0.0355062
0.0458775
0.0517676
0.0516369
0.0458256
0.0355103
0.0355098
0.0457807
0.05159
0.0514705
0.0457353
0.0355132
0.0355114
0.0456957
0.0514326
0.05132
0.0456549
0.0355141
0.0355123
0.0456201
0.0512891
0.0511859
0.0455841
0.0355143
0.0355113
0.0455532
0.0511622
0.0510643
0.0455202
0.0355127
0.0355099
0.0454925
0.0510458
0.0509555
0.0454633
0.0355106
0.0355065
0.0454384
0.0509427
0.0508559
0.0454113
0.0355068
0.035503
0.045389
0.0508469
0.0507666
0.045365
0.0355027
0.0354985
0.0453453
0.050762
0.0506841
0.0453224
0.0354974
0.0354936
0.0453048
0.0506824
0.0506101
0.0452847
0.0354923