/*--------------------------------*- C++ -*----------------------------------*\
| =========                 |                                                 |
| \\      /  F ield         | OpenFOAM: The Open Source CFD Toolbox           |
|  \\    /   O peration     | Version:  v2006                                 |
|   \\  /    A nd           | Website:  www.openfoam.com                      |
|    \\/     M anipulation  |                                                 |
\*---------------------------------------------------------------------------*/
FoamFile
{
    version     2.0;
    format      ascii;
    class       volScalarField;
    location    "0.113";
    object      omega;
}
// * * * * * * * * * * * * * * * * * * * * * * * * * * * * * * * * * * * * * //

dimensions      [0 0 -1 0 0 0 0];


internalField   nonuniform List<scalar> 
16277
(
0.00810614
0.00810622
0.00810503
0.00810461
0.00810348
0.00810349
0.0081028
0.00810124
0.00809761
0.00809141
0.00808287
0.00807268
0.00806156
0.00804991
0.00803788
0.00802547
0.00801256
0.00799908
0.00798496
0.00797015
0.00795464
0.00793845
0.00792157
0.00790403
0.00788583
0.00786699
0.00784751
0.00782741
0.00780669
0.00778538
0.00776347
0.00774099
0.00771796
0.00769438
0.00767028
0.00764568
0.0076206
0.00759505
0.00756907
0.00754268
0.0075159
0.00748875
0.00746126
0.00743346
0.00740538
0.00737705
0.00734849
0.00731973
0.00729081
0.00726175
0.0072326
0.00720337
0.0071741
0.00714484
0.0071156
0.00708643
0.00705735
0.0070284
0.00699964
0.00697108
0.00694277
0.00691478
0.00688719
0.00686017
0.00683406
0.00680969
0.00678897
0.00677662
0.00678511
0.00684363
0.00700287
0.00737728
0.00820709
0.00999217
0.0137351
0.0213669
0.036575
0.066543
0.125306
0.23851
0.453926
0.842996
1.40906
1.82891
2.49802
2.9967
3.63727
6.62662
11.4701
14.4731
12.9725
34.2415
105.413
397.791
3406.78
18601.1
254898
251709
37848.5
8637.97
15117.7
52962.8
248574
245279
54893.2
17469.9
20706
58055.5
236456
232035
57495
21300.6
23279.4
58848.2
226110
223289
58184.9
23405.8
24488.9
58586.6
218920
216054
57190.3
24344
24967.3
57662.9
212520
210464
56434
24791.7
25247.6
56963.7
207750
206195
55926.7
25050.7
25438.4
56494.8
204001
202775
55590.6
25235.3
25590.3
56183
200921
199916
55356.6
25384.8
25720.4
55973
198292
197434
55192.9
25514.4
25837.5
55833.7
195972
195221
55088.4
25631.9
25945.6
55741.9
193877
193200
55020.1
25740
26045
55677.3
191943
191319
54970.9
25839.2
26137
55626.3
190129
189544
54930.3
25929.5
26221.4
55580.8
188404
187849
54892.5
26010.8
26296.6
55536.4
186750
186217
54853.9
26082.8
26362.8
55489.9
185150
184634
54812
26146
26420.7
55439.3
183594
183090
54764.6
26201.2
26470.9
55382.6
182071
181577
54710.5
26249.1
26514.5
55318.9
180576
180089
54649.2
26290.8
26552.2
55248
179102
178620
54580.4
26327
26584.7
55169.3
177644
177166
54503.4
26358.1
26612.2
55082
176197
175720
54417.6
26384.4
26635.1
54985.8
174756
174278
54322.5
26406.1
26653.6
54880.1
173315
172835
54217.9
26423.6
26667.9
54764.5
171871
171386
54103.2
26437
26678.1
54638.6
170419
169928
53977.9
26446.4
26684.2
54501.7
168955
168457
53841.3
26451.7
26686.2
54353.2
167475
166968
53692.8
26452.8
26683.8
54192.2
165975
165458
53531.6
26449.5
26676.7
54017.9
164453
163925
53356.8
26441.3
26664.5
53829.5
162907
162367
53167.3
26427.9
26646.7
53625.7
161334
160782
52960.6
26408.5
26622.5
53404.8
159733
159171
52731.8
26382.4
26591
53164.8
158106
157533
52485.3
26348.5
26551.3
52906.3
156453
155871
52218.2
26306.2
26502.4
52626.3
154777
154189
51927.9
26254
26442.8
52322.3
153082
152490
51611.8
26190.3
26370.6
51991.8
151375
150783
51267.1
26113.1
26283.6
51631.7
149664
149078
50890
26016.5
26178
51238.5
147961
147388
50476.8
25897.6
26051.4
50808.6
146282
145732
50024.4
25756.9
25901.6
50338.8
144646
144130
49529.1
25589.8
25724
49825.5
143077
142609
48987
25391.5
25513.9
49265.3
141603
141200
48395.3
25157.6
25267
48655
140257
139941
47759.7
24884.4
24979.7
47997.6
139085
138866
47101.7
24571.6
24652.2
47313.1
138140
138018
46412.5
24210.8
24278.2
46598.2
137441
137423
45701
23807.9
23865
45867.1
137045
137110
44988.2
23373.9
23424.1
45140.5
136901
137093
44299.1
22924.2
22971
44451.8
137044
137380
43654.7
22466.1
22512
43823
137433
137949
43083.4
22012.3
22064
43270.2
138106
138772
42619.4
21592.5
21656
42831.1
139007
139778
42265.8
21224.9
21304.1
42530
140070
140914
42005.1
20916.4
21012.6
42349.3
141248
142145
41864.3
20669.8
20783.2
42266.9
142507
143436
41833.8
20485
20616
42296.9
143810
144744
41912.8
20361.8
20510.1
42431.4
145117
146035
42089.7
20294.6
20461.6
42657.1
146396
147279
42353.8
20268.3
20463.6
42959.3
147617
148447
42686
20294.4
20518
43345.7
148756
149521
43074.1
20369.7
20635.2
43809.9
149796
150484
43533.8
20494.4
20785.7
44304.4
150718
151321
44020.1
20648.9
20958.6
44811.6
151511
152027
44516
20824.5
21147.4
45313.5
152175
152605
45005.9
21014.2
21346
45799.2
152711
153057
45478.1
21213.6
21553.2
46266.6
153118
153386
45929.1
21418.9
21756.2
46693.2
153421
153634
46339.1
21617.1
21949.4
47077.8
153639
153792
46710.2
21806.8
22131.9
47420.1
153780
153887
47040.5
21984.9
22303.6
47728.8
153856
153919
47337.3
22153.6
22463.9
47999.6
153876
153920
47595.9
22308
22605
48231.7
153864
153894
47817.7
22444.3
22734.3
48442.8
153805
153827
48016.6
22571.2
22852.2
48624.1
153720
153739
48181.8
22683.9
22954.9
48774.9
153620
153636
48323.2
22783.6
23047.4
48905.6
153504
153517
48446.1
22873
23132
49020.6
153375
153382
48555.1
22954.9
23211.2
49123.6
153230
153238
48648.5
23027.9
23274.1
49197.5
153098
153114
48715.4
23080.1
23326.8
49270
152946
152930
48804.6
23148.8
23397.2
49355.1
152797
152755
48858.7
23196.1
23437.3
49387.4
152708
152624
48930.8
23211.8
23461.5
49568.6
152643
151948
48757.8
23143.8
23275.5
48766.3
151418
149530
48554.9
22988.3
21909.4
46323.7
147116
138336
48501
22447.4
15522.7
27062.8
124071
139427
60776.5
28136.4
13627.2
7036.21
4374.25
3429.6
3055.13
2533.26
2312.58
2154.64
2089.05
2072.32
2105.9
2203.58
2337.73
2582.08
2861.12
3452.96
3781.96
4730.06
5753.98
7584.7
11741.3
22986.2
55378.1
128397
406561
435666
139039
60943.6
64585.1
146968
461153
483173
153601
68251.3
68352.4
155081
489415
495229
156302
69544.3
69720.9
157821
498918
499527
158315
70018.2
69931.2
158280
499303
499708
158326
69945
69920.4
158330
499509
499646
158328
69898.1
69880.9
158330
499763
499602
158308
69844.2
69814
158313
500314
500175
158272
69786.7
69761.3
158270
500314
500198
158260
69736
69720.8
158269
500611
501051
158199
69689.4
69675.2
158247
500622
501059
158177
69635.9
69615.2
158236
501219
501640
158108
69556.8
69533.5
158145
501226
501682
158067
69499.2
69480.5
158116
501855
502301
158016
69443
69429.3
158070
501900
502344
157979
69393
69379.9
158030
502507
502968
157936
69349.7
69334.7
157977
502556
503021
157919
69308.9
69287.6
157962
503180
503620
157848
69247.1
69231.4
157893
503515
503408
157850
69189.6
69174.6
157853
503874
504346
157772
69138
69125.7
157802
504232
504169
157787
69107.3
69096.3
157794
504632
505126
157751
69072.3
69050.1
157772
505010
504908
157743
69021.4
69013.4
157748
505375
505877
157701
69003.1
69003
157768
505775
505701
157761
68992.8
68988.9
157807
506153
506628
157770
68973.2
68971.3
157824
506509
506431
157835
68968.1
68984
157918
506900
507404
157928
68990.5
68992.9
158040
507287
507190
158068
68991.2
68996.6
158177
507658
508137
158180
68991.9
69002.4
158342
508041
507947
158398
69001.7
69029.1
158561
508399
508882
158657
69045.9
69079.7
158862
508442
508897
158999
69100.1
69138.6
159253
509032
509460
159390
69153.4
69176.6
159693
509023
509414
159873
69182.6
69197.9
160204
509521
509878
160403
69200
69230.8
160789
509676
509480
161090
69242.6
69273.7
161515
509871
510266
161847
69276.8
69279.4
162302
510121
509938
162647
69225.8
69174.9
163071
510306
510706
163393
69135.2
69121.3
163910
510251
510733
164280
69080.3
69047.6
164845
511031
511690
165126
68908.6
68741.9
165496
511801
512013
165634
68476.7
68296.4
165843
512911
513724
166012
68077.6
67906.8
166165
514758
515923
166194
67588.5
67182.7
166089
517328
518977
165559
66599.9
65939
164719
521116
523591
163585
65160.7
64087.8
160171
520915
518244
156582
63249.8
62715.3
154508
524631
522025
155421
62217.4
61183.8
146821
514278
511320
148031
61031.2
60458.7
143468
503268
496365
141108
60095.3
60177.9
138271
484671
469908
133487
59958.8
60305.8
131107
459492
452753
130031
60814.9
61688.8
130353
434855
406555
121272
62402.1
64118.9
120571
595734
972720
359918
141795
69590.6
172847
728856
656906
187396
74645.1
71731.4
176883
649431
643098
182096
73924.8
70748.2
169635
624380
602217
171040
71771.2
68770.5
155452
575148
548446
157853
70350.9
68184.2
144458
520117
489258
144890
68999.4
68416.5
133436
446070
636815
128857
69743.2
146998
377120
998279
718787
164985
71360.9
74153
176653
605500
548189
145219
66571.8
67116.2
146795
513364
478439
136036
65169
65549.4
132891
446824
412989
124134
65045.1
67948.1
123230
597585
940481
336059
140724
72525.5
156331
684048
594394
167774
75569
71808
149691
556847
518255
154043
73978.4
73277.5
140717
468383
666257
134321
75758.1
154372
375544
1.00746e+06
705483
172471
78504
79773.5
173082
578474
501868
145835
71220.6
71738.1
136699
451034
654416
136124
75295.5
153459
375703
993412
705254
162615
79954.8
82948.3
175965
580969
512615
151527
77394.1
79887
145999
719034
1.03645e+06
396712
161849
80844.5
169189
705705
551968
174354
80251.6
69066
137798
486273
664782
139531
74181.7
149086
343479
902452
623561
153336
74822.8
78235.9
156961
788674
988530
363183
154198
66497.3
150724
656363
792533
146255
65268.6
128140
288397
833949
1.01279e+06
163629
64915.9
91556.4
198686
809461
827210
160514
58690.4
71128.7
191383
993487
1.02878e+06
196838
73011.6
65745.2
175157
915616
800500
104079
39070.7
153621
341376
806635
935777
160985
81526.6
186075
374634
846913
781308
189839
99473.3
105740
214968
673422
1.10358e+06
502815
226318
127596
178058
960703
827756
367977
190815
103120
175473
696908
575818
186192
104385
193319
392829
916335
716944
171602
107419
106779
180686
575085
928086
390045
190690
106436
168003
713637
571685
174883
105075
184920
379317
912197
698709
163703
103783
103121
170972
564457
908303
379381
181889
102290
161886
685544
551176
169137
101239
178492
369555
885409
658355
157274
100474
100193
165340
535158
874798
365142
175606
98273
154689
646676
519900
161346
97687.5
169027
345005
828283
601779
145186
95028.1
96420.9
163046
461867
635463
187139
102742
193122
446085
1.03611e+06
748354
171141
105529
102658
174042
598522
990215
384296
184673
102400
162892
715476
578564
173073
101962
183714
397425
967230
710721
162262
103472
102080
168516
576862
962160
377563
182277
101530
159987
695092
567132
169913
101640
183221
378246
968683
701506
162716
102304
101582
167781
564088
951337
399543
183003
102146
160756
694987
563094
170153
102112
183340
403466
965026
722520
163298
103240
102706
173194
592986
1.03202e+06
446506
194150
112222
145365
817936
732973
318076
165173
92755.8
142259
558106
476462
153743
93870.1
166482
346421
825521
615588
147023
94939.9
95878.4
157082
502958
843804
350386
171603
96600.4
148993
621326
512771
156122
96412.6
174768
363605
874857
651296
152775
98311.5
98706.8
163198
531196
901615
374695
178238
99928.6
158418
679043
566442
169095
100686
194463
441990
1.0078e+06
810221
144484
113634
171383
325135
741452
579410
152899
96392.6
98329.1
163988
498003
870302
365804
179451
102321
158702
662220
550711
167142
102656
192208
422324
961916
783143
144240
113289
169123
322134
719486
558352
148879
95534.5
98140.6
162484
486681
858447
365069
179100
102538
158274
651015
549974
172065
103441
195625
430384
981229
796020
148290
116010
173857
330399
734852
578488
154696
98774.4
100941
168825
506873
893749
376304
185219
106303
164688
668760
568741
179422
107105
205579
417432
1.02833e+06
822063
155226
120505
180711
343707
760769
593354
159808
103123
106471
179693
526082
977557
430340
201639
120429
151453
808002
761407
337614
179997
103193
163323
599288
520754
179181
106052
203061
415738
949755
785466
159106
121855
180011
335614
743223
591266
160673
103623
107334
181017
520824
970824
423919
206257
123481
156663
811183
762818
342387
183411
105847
165458
598414
529303
185331
109074
206851
433269
966455
803659
156266
125046
184644
339616
763593
614787
167877
107414
111428
188300
549557
1.02213e+06
429347
215490
129375
159148
855040
836276
368732
195438
119229
157113
715290
684369
329709
177755
106561
167816
562790
513843
189621
111050
210182
432067
967656
810570
161279
127832
188649
344932
768108
618315
172791
111087
115114
195769
556179
1.04542e+06
437927
221833
133982
166277
873360
847907
375808
200811
123039
162050
731598
715818
335010
182074
109540
173318
587358
528957
193549
114266
217273
452116
986502
846512
164724
133200
196835
357386
817229
714649
157654
122020
181567
332034
701852
583602
175055
109933
115507
199484
531031
992598
439239
219604
135073
165101
852453
836140
368440
200706
124609
160739
722326
707454
337248
184331
111584
176616
581054
529415
198901
116946
220199
449499
982890
837022
168473
136306
200999
363799
815791
717698
162684
125494
185950
340140
716133
601130
180288
113202
119135
204726
554746
1.03935e+06
481156
228691
142851
173186
901066
880351
381199
211147
131319
166306
757411
750922
357104
195294
118460
187786
616749
560984
210796
123981
234267
492209
1.03493e+06
893558
178686
145850
214957
391173
885907
772956
172129
134614
200937
365442
778259
706252
169928
128981
190837
342022
704796
587561
183708
117715
124910
210938
546184
1.04427e+06
459344
237015
146795
179786
906739
903986
400386
218613
138456
179155
790347
798896
375279
205141
132707
174492
715582
715019
351878
195480
121088
189465
603849
557395
212817
127465
238252
488998
1.03683e+06
908242
182351
150352
220666
398190
898247
781649
179644
139365
206616
372989
788842
708291
174802
133889
196757
352884
711670
602617
190926
122231
129541
216407
560162
1.04897e+06
500897
242185
153716
186588
925975
919068
406467
225140
143799
182880
814851
832532
392176
214317
139620
183956
747286
745864
367944
204255
127529
198805
624056
580169
225778
134106
252430
474155
1.09223e+06
927120
192724
157472
231776
417378
926072
814202
186253
147355
219069
396032
837485
774898
188725
143375
211628
381162
794959
719163
182857
140029
205136
361176
729424
627632
200940
128807
136465
228418
589037
1.10985e+06
540692
256014
163652
198762
976872
963507
430016
239097
153399
194365
837907
855744
408925
225977
148816
194942
782926
803744
389914
217918
144215
188739
733340
744309
369881
209329
131504
203909
628799
582273
228035
138574
255528
511403
1.07557e+06
929180
196113
163787
241241
427679
935901
834117
196627
154106
227670
408136
852069
772806
195301
149840
220390
391904
799024
734690
191376
146578
212462
370451
743085
632893
207632
134704
142598
235998
596894
1.10603e+06
541040
262505
169677
206937
970580
975242
438422
246001
159476
201318
870985
892833
421945
234925
155853
203019
809653
831969
404292
227656
151577
197034
745236
756740
382067
219675
139596
212370
639186
598780
239550
146610
266939
535795
1.10996e+06
968779
208584
171665
251219
443624
976970
862743
204728
161934
237158
421375
881526
803992
204707
157428
230385
406612
833371
758665
200135
154276
223941
389802
775642
662222
218915
142642
150886
249629
626805
1.16573e+06
577133
278377
180938
218484
1.01837e+06
1.0225e+06
465578
262537
170256
215460
898550
916797
440917
248918
165897
214945
838440
872214
425019
241701
162612
209824
797142
830126
410586
235593
158374
204895
758550
772232
391782
227183
144848
219917
645953
608464
248332
152261
277581
527166
1.12835e+06
967077
215969
178480
259289
451934
974847
856456
212337
168270
245616
429842
881944
798796
211299
163922
238161
415634
830898
758556
208700
159923
229785
392830
770383
652997
222771
147262
156096
253118
621483
1.14863e+06
553877
284124
184451
223144
993349
1.00133e+06
465295
266775
174752
219994
893959
922962
447119
254133
171059
220385
830003
863709
430174
247501
167222
216398
786097
803510
409132
239580
153536
231671
670337
632557
260896
161323
292977
550470
1.17022e+06
1.00126e+06
229957
188905
272536
472092
1.00399e+06
879973
223729
177768
257418
447559
907343
825804
222216
172762
249431
430177
859472
775225
218725
168195
240360
408742
796003
672833
232752
154887
164000
265242
643342
1.18139e+06
572321
296511
193022
233577
1.02768e+06
1.04413e+06
487490
279786
183838
231840
913761
943206
466908
266456
179806
232329
850713
884762
446405
259087
175491
227479
800221
819674
422496
249961
161018
240349
682783
651101
270182
168936
300464
569213
1.1744e+06
1.00749e+06
239210
195968
281763
483749
1.02511e+06
895441
229551
184496
266482
457822
927913
837360
229652
178895
258490
440808
861691
723569
251893
165300
175030
284134
693279
1.25174e+06
627296
318106
207873
257135
1.08165e+06
1.09172e+06
510889
297327
195213
240712
949834
983539
485733
281248
188384
243645
865829
884823
458293
270021
172835
259675
738875
703742
291795
181154
326421
597765
1.27656e+06
1.08425e+06
255242
210638
302933
517680
1.10149e+06
950499
248076
197899
286203
490284
985607
880374
247488
191641
276703
470123
913784
765327
267827
176992
186860
302348
731430
1.31054e+06
671292
336531
220518
275440
1.13131e+06
1.14174e+06
537132
314443
206528
253251
979593
1.01839e+06
506022
295880
198499
257219
899878
925355
479341
283577
181554
272446
771102
740424
303980
190069
339104
643996
1.31455e+06
1.11266e+06
271507
220655
317449
539118
1.13374e+06
977754
258179
207294
297946
505279
1.01583e+06
894001
258217
199691
286841
482172
928902
780188
276753
183903
193431
311820
751042
1.33068e+06
657839
346801
226152
279634
1.12603e+06
1.14812e+06
546512
323009
211041
266455
976143
994161
505482
300693
191337
285743
813327
780063
315380
199756
360153
696104
1.37299e+06
1.15039e+06
293901
232812
332662
561872
1.16993e+06
1.00388e+06
270725
217011
310725
523835
1.04628e+06
912378
268806
207446
296104
495811
949026
785080
283164
189529
200061
318443
755054
1.33509e+06
656757
356152
230926
287360
1.12817e+06
1.15356e+06
556327
330004
216203
275017
979050
1.00908e+06
515814
308036
195889
292056
827162
788842
324677
204451
363316
671146
1.35911e+06
1.13625e+06
294868
235808
337242
565502
1.16742e+06
985313
281075
219139
311790
519415
1.01106e+06
822849
294783
198120
208125
330101
789528
1.37183e+06
684827
369027
237596
302958
1.13843e+06
1.14351e+06
568393
338777
210013
307784
904512
858978
341180
217711
387182
721815
1.49832e+06
1.23125e+06
306161
249422
361804
614963
1.26058e+06
1.05825e+06
305001
233753
335404
562601
1.08372e+06
882432
318095
211779
221076
355276
848455
1.4581e+06
728462
391583
252324
323500
1.19958e+06
1.20641e+06
595345
357691
220567
320505
944086
894708
353255
228049
401713
745731
1.52203e+06
1.24683e+06
325553
258330
370626
618134
1.26574e+06
1.00198e+06
338618
227733
235547
376944
949640
1.62588e+06
797079
425834
269547
345138
1.29634e+06
1.29916e+06
646543
386171
234895
344641
1.01092e+06
953782
379510
242491
428755
801781
1.61058e+06
1.31193e+06
350844
273802
392427
651830
1.3219e+06
1.04216e+06
351961
239600
247695
389752
988376
1.68937e+06
827700
441612
280868
340989
1.35831e+06
1.36844e+06
681250
406379
245061
368539
1.05339e+06
991992
401720
252713
447466
816638
1.66584e+06
1.33175e+06
363190
283054
404023
665845
1.34015e+06
1.04423e+06
359532
245366
253426
395980
990907
1.65753e+06
830795
446167
283182
367265
1.33343e+06
1.34003e+06
667375
402941
242616
355800
1.02575e+06
965378
379149
248493
433855
797895
1.57268e+06
1.17709e+06
378070
261130
266289
408739
1.08494e+06
1.77302e+06
858598
470053
291117
377609
1.39383e+06
1.39649e+06
693133
416893
249981
367140
1.06698e+06
1.00592e+06
401934
257974
445420
815429
1.61827e+06
1.2182e+06
390018
266630
268779
407634
1.11684e+06
1.79647e+06
870950
471774
277632
410282
1.31447e+06
1.19003e+06
437851
279914
502283
931289
1.91114e+06
1.47131e+06
403839
308052
443342
733087
1.46396e+06
1.10085e+06
383333
260027
267861
415835
1.03072e+06
1.63629e+06
831176
458921
270172
397246
1.21615e+06
1.11123e+06
409558
272386
472978
863840
1.76396e+06
1.27427e+06
407178
276119
279190
432245
1.14955e+06
1.77237e+06
886085
483081
278551
413250
1.28028e+06
1.1555e+06
435101
280988
482127
882511
1.76896e+06
1.28784e+06
413171
279982
283659
437089
1.17458e+06
1.8225e+06
899631
488269
281019
416290
1.30638e+06
1.11942e+06
453237
286414
299577
511724
1.47182e+06
2.18827e+06
1.07918e+06
544533
304875
474956
1.50367e+06
1.33253e+06
487930
302782
524898
963490
1.99627e+06
1.38924e+06
446022
294997
295086
456561
1.18455e+06
1.53986e+06
526707
308472
570647
1.12114e+06
2.26502e+06
1.50853e+06
485331
308970
311587
507592
1.26672e+06
1.64259e+06
562948
326454
592476
1.21145e+06
2.36667e+06
1.59177e+06
502754
315362
318305
515793
1.3348e+06
1.68222e+06
579586
325629
590555
1.18849e+06
2.38828e+06
1.54519e+06
503265
313465
304654
491481
1.26941e+06
1.55943e+06
608528
332661
326943
571495
1.90955e+06
2.77095e+06
1.24454e+06
642972
330907
537048
1.72102e+06
1.38482e+06
542853
327219
335297
619330
1.59836e+06
1.79963e+06
591424
318790
343352
726427
1.95576e+06
2.15247e+06
733492
326861
633017
1.2682e+06
2.80909e+06
1.64409e+06
517191
313125
303657
515390
1.29536e+06
1.39739e+06
562431
303613
296985
559364
1.46627e+06
1.52094e+06
571886
292132
289696
599350
1.53341e+06
1.51728e+06
608335
288025
285129
613552
1.49541e+06
1.46011e+06
612216
283392
280601
607208
1.42377e+06
1.38586e+06
598393
278497
276160
591642
1.34825e+06
1.31195e+06
586817
274928
273918
583600
1.27796e+06
1.24645e+06
581799
273953
274115
580910
1.21744e+06
1.19088e+06
580674
274993
275981
580617
1.16667e+06
1.14489e+06
580459
277620
279043
580081
1.1252e+06
1.1075e+06
579406
280830
282237
578252
1.0915e+06
1.07721e+06
576738
283773
284871
574637
1.06446e+06
1.05323e+06
572152
285939
286529
569091
1.04327e+06
1.03454e+06
565789
286998
286928
561962
1.02686e+06
1.0202e+06
557990
286753
286150
553575
1.01439e+06
1.00944e+06
549111
285432
284050
544183
1.00514e+06
1.00153e+06
539275
282898
281144
533977
998410
995819
528655
280056
278374
523073
993577
991741
517599
277340
275713
511935
990163
988888
506450
274700
273099
500824
987791
986920
495443
272088
270482
489963
986168
985580
484786
269446
267824
479546
985067
984705
474638
266762
265120
469691
984347
984086
465074
264026
262367
460464
983867
983684
456184
261254
259584
451913
983543
983387
447967
258467
256800
444029
983262
983082
440421
255690
254047
436812
982940
982726
433524
252947
251322
430229
982565
982300
427257
250247
248659
424264
982104
981787
421582
247606
246067
418874
981556
981185
416470
245045
243565
414025
980918
980516
411864
242572
241154
409654
980228
979799
407724
240191
238824
405735
979480
979038
404002
237873
236543
402202
978699
978244
400653
235623
234336
399023
977881
977423
397630
233445
232204
396149
977052
976591
394909
231351
230157
393570
976216
975760
392453
229340
228194
391235
975392
974936
390233
227422
226325
389122
974568
974118
388214
225591
224542
387194
973759
973317
386383
223851
222850
385446
972965
972531
384706
222197
221239
383838
972193
971775
383180
220626
219722
382382
971449
971042
381776
219137
218275
381034
970734
970345
380496
217731
216912
379812
970055
969680
379318
216401
215621
378687
969415
969064
378236
215141
214404
377658
968825
968494
377245
213955
213255
376715
968284
967978
376330
212833
212172
375846
967798
967517
375491
211775
211150
375044
967366
967114
374713
210777
210188
374301
966991
966770
373997
209838
209281
373611
966672
966486
373332
208953
208426
372971
966410
966262
372712
208119
207618
372370
966207
966100
372129
207332
206856
371806
966066
965996
371580
206590
206136
371273
965982
965954
371061
205887
205455
370771
965958
965956
370572
205223
204810
370297
965986
966003
370109
204594
204200
369851
966064
966098
369673
203998
203621
369428
966188
966237
369260
203433
203073
369031
966353
966421
368871
202897
202552
368655
966558
966642
368504
202388
202057
368302
966796
966895
368160
201906
201586
367969
967065
967177
367835
201446
201139
367658
967362
967486
367531
201010
200713
367364
967685
967820
367245
200593
200308
367091
968029
968174
366978
200196
199922
366834
968394
968548
366727
199817
199553
366595
968775
968936
366493
199454
199201
366370
969171
969341
366272
199107
198864
366161
969583
969761
366067
198775
198541
365965
970009
970193
365876
198456
198231
365784
970446
970637
365700
198151
197933
365616
970897
971094
365536
197857
197647
365462
971355
971555
365387
197576
197373
365319
971818
972023
365249
197305
197109
365190
972290
972498
365125
197045
196855
365073
972769
972979
365016
196795
196612
364968
973250
973458
364915
196555
196376
364871
973729
973939
364825
196323
196151
364788
974211
974422
364746
196100
195934
364716
974693
974902
364678
195887
195726
364654
975171
975381
364619
195681
195524
364599
975652
975862
364568
195482
195331
364552
976132
976339
364525
195291
195142
364511
976609
976816
364489
195105
194961
364477
977088
977295
364460
194925
194784
364449
977568
977775
364436
194751
194613
364428
978050
978257
364419
194582
194447
364412
978535
978743
364408
194418
194286
364405
979021
979230
364403
194259
194130
364404
979512
979721
364406
194104
193978
364409
980004
980213
364417
193954
193831
364424
980496
980704
364439
193810
193692
364449
980985
981187
364470
193673
193558
364483
981467
981662
364508
193542
193453
364532
981939
982123
364558
193390
193316
364578
982031
982590
364615
193304
193195
364636
983233
983021
364677
193204
193065
364704
983316
983447
364872
193092
192923
364500
983337
983270
364745
192883
192539
363960
982883
985050
365417
193119
193333
366407
988907
998175
371128
195204
196116
372104
993410
981208
361239
191022
188852
356492
963709
105125
57856.9
31233.8
19284
17991.8
12110.4
8885.28
7355.43
6959.85
5245.86
3817.37
2988.66
2263.52
1648.91
1168.01
815.091
573.643
411.568
303.352
229.995
179.254
143.362
117.438
98.3558
84.1041
73.327
65.1975
59.0589
54.614
51.4835
49.4718
48.3076
47.7825
47.2655
46.3374
45.0634
43.5282
41.8429
40.0489
38.2117
36.3235
34.3943
32.4052
30.3406
28.1719
25.4115
21.3983
16.3571
11.427
7.47697
4.67414
2.82297
1.66621
0.986276
0.622012
0.446495
0.367779
0.334591
0.320928
0.314978
0.312018
0.309696
0.307543
0.305492
0.303502
0.301536
0.299561
0.297548
0.295468
0.293294
0.290998
0.288556
0.285941
0.283128
0.280094
0.276814
0.273271
0.269444
0.26532
0.260888
0.256141
0.25108
0.245708
0.240039
0.234089
0.227881
0.221443
0.214807
0.208009
0.201085
0.194075
0.187019
0.179954
0.172917
0.165941
0.159059
0.152299
0.145684
0.139235
0.132972
0.126904
0.121046
0.115404
0.109983
0.104785
0.0998109
0.095059
0.0905284
0.0862117
0.0821062
0.0782047
0.0745008
0.0709872
0.0676567
0.0645014
0.0615138
0.058686
0.0560104
0.0534795
0.0510858
0.048822
0.0466821
0.0446583
0.0427451
0.0409357
0.039225
0.0376068
0.0360765
0.0346287
0.0332585
0.0319621
0.0307345
0.0295725
0.0284716
0.0274288
0.0264408
0.025504
0.0246159
0.0237738
0.0229748
0.0222165
0.0214968
0.0208134
0.0201642
0.0195475
0.0189614
0.0184043
0.0178745
0.0173705
0.0168912
0.016435
0.0160007
0.0155873
0.0151936
0.0148185
0.0144612
0.0141208
0.0137963
0.0134869
0.013192
0.0129109
0.0126427
0.012387
0.012143
0.0119103
0.0116884
0.0114767
0.0112747
0.0110821
0.0108983
0.0107231
0.010556
0.0103967
0.0102448
0.0101001
0.00996223
0.00983094
0.00970596
0.00958706
0.00947399
0.00936655
0.00926452
0.00916771
0.00907595
0.00898906
0.00890688
0.00882926
0.00875606
0.00868716
0.00862243
0.00856177
0.00850506
0.00845223
0.00840319
0.00835788
0.00831625
0.00827827
0.00824393
0.00821325
0.00818631
0.00816325
0.00814434
0.00812969
0.0081197
0.0081138
0.00811111
0.00810924
0.00810778
0.00810779
0.00810767
0.00810782
0.00810862
0.00811029
0.0081129
0.00811566
0.00811717
0.00811648
0.00811363
0.00810912
0.00810346
0.00809696
0.00808974
0.00808183
0.00807318
0.00806376
0.00805353
0.00804247
0.00803057
0.00801785
0.00800431
0.00798998
0.00797485
0.00795894
0.00794227
0.00792485
0.00790668
0.0078878
0.0078682
0.0078479
0.00782693
0.00780529
0.00778301
0.00776011
0.0077366
0.00771251
0.00768785
0.00766265
0.00763692
0.0076107
0.007584
0.00755686
0.00752928
0.00750131
0.00747296
0.00744427
0.00741527
0.00738598
0.00735643
0.00732665
0.00729669
0.00726657
0.00723635
0.00720605
0.00717577
0.00714567
0.00711607
0.00708772
0.00706229
0.00704364
0.00704039
0.00707207
0.00718174
0.00746279
0.00811337
0.00954291
0.0126142
0.0190736
0.0323367
0.0588958
0.110764
0.20974
0.394467
0.733138
1.34741
2.45583
4.43414
7.81201
12.9524
19.3048
25.4082
30.6258
37.2012
54.6505
111.237
353.231
1710.35
5117.11
6290.98
6386.7
7291.31
7250.98
7981.89
7894.45
8501.63
8379.84
8920.39
8774.98
9266.53
9104.27
9558.24
9383.6
9807.91
9623.87
10024.4
9832.79
10213.9
10016.3
10381.3
10178.7
10529.7
10322.8
10661.4
10451
10779
10565.7
10884.6
10669
10980.1
10762.7
11067.2
10848.5
11147.5
10927.6
11221.8
11001.3
11291.2
11070.4
11356.6
11135.5
11418.4
11197.2
11477.1
11255.9
11533.2
11312
11587.1
11366
11638.8
11417.9
11688.7
11467.5
11737.1
11515
11782.9
11560.2
11826.5
11603.3
11868
11644.3
11907.3
11683.1
11944.1
11719.3
11978.1
11752.4
12008.6
11781.7
12034.6
11806
12055
11824.1
12067.9
11833.9
12071.1
11833.1
12062.4
11819
12038.8
11788.6
11996.8
11738.4
11932.8
11664.8
11843.3
11563.2
11725.2
11426
11577.1
11264.9
11404.9
11081.2
11210.9
10879.1
10999.3
10661.2
10775.1
10436.9
10548.1
10217.5
10328.1
10009.4
10120.7
9816.31
9929.55
9641.14
9757.34
9485.99
9605.93
9352.13
9476.4
9239.94
9368.92
9148.89
9282.73
9073.32
9215.48
9015.75
9168.44
8978.39
9142.83
8961.6
9137.43
8963.44
9149.55
8981.06
9175.96
9011.04
9212.92
9050.16
9258.49
9096.56
9311.15
9147.83
9365.76
9200.78
9420.68
9253.76
9474.68
9306.02
9527.52
9356.83
9578
9405.04
9625.47
9450.45
9671
9493.36
9713.41
9533.08
9752.53
9569.82
9788.23
9603.61
9821.74
9635.15
9852.36
9662.35
9878.11
9685.18
9912.72
9703.33
9946.32
9706.94
9955.23
9551.73
9875.73
8918.1
8756.54
7015.78
4674.84
5045.39
5504.49
3490.28
5967.05
5553.39
3508.23
6016.1
5556.94
3541.22
6029.17
5568.79
3536.57
6023.55
5562.3
3531.99
6009.32
5551.01
3522.88
5995.55
5538.29
3512.36
5980.93
5523.93
3501.51
5964.7
5508.77
3490.33