/*--------------------------------*- C++ -*----------------------------------*\
| =========                 |                                                 |
| \\      /  F ield         | OpenFOAM: The Open Source CFD Toolbox           |
|  \\    /   O peration     | Version:  v2006                                 |
|   \\  /    A nd           | Website:  www.openfoam.com                      |
|    \\/     M anipulation  |                                                 |
\*---------------------------------------------------------------------------*/
FoamFile
{
    version     2.0;
    format      ascii;
    class       volScalarField;
    location    "0.113";
    object      T;
}
// * * * * * * * * * * * * * * * * * * * * * * * * * * * * * * * * * * * * * //

dimensions      [0 0 0 1 0 0 0];


internalField   nonuniform List<scalar> 
16277
(
298.839
298.839
298.839
298.839
298.839
298.839
298.839
298.84
298.841
298.844
298.847
298.851
298.854
298.858
298.862
298.866
298.87
298.874
298.879
298.883
298.888
298.893
298.898
298.903
298.909
298.914
298.92
298.926
298.932
298.938
298.945
298.951
298.957
298.964
298.971
298.978
298.985
298.992
298.999
299.006
299.013
299.021
299.028
299.035
299.043
299.05
299.058
299.065
299.073
299.08
299.088
299.095
299.102
299.11
299.117
299.124
299.131
299.139
299.146
299.152
299.159
299.166
299.172
299.179
299.185
299.191
299.197
299.203
299.209
299.214
299.22
299.225
299.23
299.235
299.24
299.244
299.248
299.252
299.256
299.26
299.264
299.268
299.271
299.273
299.273
299.274
299.273
299.273
299.273
299.273
299.273
299.274
299.276
299.279
299.285
299.291
299.316
299.322
299.29
299.281
299.281
299.292
299.331
299.341
299.295
299.282
299.282
299.298
299.346
299.353
299.301
299.284
299.286
299.304
299.355
299.359
299.308
299.289
299.291
299.311
299.361
299.363
299.314
299.293
299.296
299.316
299.364
299.365
299.319
299.298
299.3
299.321
299.365
299.366
299.324
299.303
299.305
299.326
299.366
299.367
299.328
299.307
299.309
299.33
299.367
299.368
299.332
299.312
299.314
299.333
299.368
299.369
299.336
299.316
299.318
299.337
299.369
299.369
299.34
299.321
299.322
299.341
299.37
299.371
299.343
299.325
299.327
299.344
299.371
299.372
299.347
299.329
299.331
299.348
299.372
299.374
299.35
299.334
299.335
299.351
299.374
299.376
299.354
299.338
299.34
299.355
299.376
299.378
299.358
299.343
299.345
299.359
299.378
299.38
299.362
299.348
299.35
299.363
299.381
299.383
299.366
299.353
299.355
299.368
299.384
299.386
299.371
299.358
299.36
299.372
299.387
299.39
299.376
299.363
299.365
299.377
299.391
299.393
299.38
299.369
299.371
299.382
299.394
299.397
299.386
299.375
299.377
299.387
299.398
299.402
299.391
299.381
299.383
299.393
299.403
299.406
299.397
299.387
299.389
299.398
299.407
299.411
299.403
299.394
299.396
299.404
299.412
299.416
299.409
299.401
299.403
299.411
299.418
299.422
299.415
299.408
299.41
299.417
299.423
299.427
299.422
299.415
299.418
299.424
299.429
299.433
299.429
299.423
299.425
299.431
299.435
299.44
299.436
299.431
299.433
299.438
299.442
299.446
299.444
299.439
299.442
299.446
299.448
299.453
299.452
299.447
299.45
299.454
299.455
299.46
299.46
299.456
299.459
299.462
299.463
299.468
299.468
299.465
299.468
299.47
299.47
299.476
299.477
299.474
299.477
299.479
299.478
299.484
299.485
299.484
299.487
299.488
299.486
299.492
299.494
299.493
299.496
299.497
299.494
299.5
299.503
299.503
299.506
299.506
299.502
299.508
299.512
299.513
299.516
299.515
299.511
299.517
299.521
299.522
299.525
299.524
299.519
299.525
299.53
299.532
299.534
299.533
299.527
299.533
299.539
299.541
299.543
299.541
299.535
299.541
299.547
299.55
299.552
299.549
299.543
299.548
299.555
299.558
299.56
299.557
299.55
299.555
299.562
299.565
299.567
299.563
299.556
299.561
299.568
299.572
299.574
299.569
299.562
299.566
299.573
299.578
299.579
299.574
299.567
299.569
299.577
299.582
299.582
299.578
299.57
299.572
299.58
299.585
299.585
299.58
299.572
299.573
299.581
299.586
299.585
299.58
299.573
299.573
299.58
299.585
299.583
299.578
299.572
299.571
299.578
299.583
299.58
299.575
299.569
299.568
299.574
299.579
299.574
299.57
299.564
299.563
299.568
299.573
299.568
299.563
299.559
299.557
299.561
299.565
299.56
299.556
299.553
299.551
299.554
299.557
299.551
299.548
299.546
299.543
299.545
299.548
299.541
299.539
299.538
299.536
299.536
299.538
299.531
299.53
299.531
299.528
299.527
299.528
299.521
299.521
299.523
299.521
299.518
299.518
299.511
299.511
299.515
299.513
299.509
299.508
299.501
299.503
299.508
299.506
299.5
299.498
299.492
299.495
299.501
299.5
299.492
299.489
299.483
299.487
299.495
299.493
299.485
299.481
299.476
299.481
299.489
299.488
299.479
299.474
299.469
299.475
299.484
299.483
299.473
299.468
299.463
299.47
299.48
299.479
299.469
299.462
299.458
299.465
299.477
299.475
299.464
299.458
299.456
299.461
299.471
299.47
299.461
299.455
299.453
299.458
299.468
299.467
299.458
299.452
299.45
299.456
299.465
299.465
299.455
299.449
299.448
299.454
299.464
299.463
299.454
299.447
299.446
299.452
299.461
299.46
299.451
299.446
299.446
299.45
299.457
299.457
299.449
299.445
299.444
299.448
299.457
299.457
299.448
299.443
299.442
299.447
299.456
299.455
299.447
299.442
299.442
299.446
299.453
299.454
299.446
299.441
299.44
299.445
299.453
299.453
299.445
299.439
299.439
299.444
299.452
299.452
299.444
299.438
299.438
299.444
299.452
299.451
299.443
299.438
299.439
299.443
299.448
299.448
299.442
299.44
299.435
299.443
299.45
299.455
299.444
299.434
299.437
299.442
299.45
299.446
299.441
299.44
299.44
299.442
299.448
299.449
299.442
299.436
299.433
299.442
299.45
299.453
299.442
299.433
299.434
299.441
299.449
299.441
299.438
299.439
299.435
299.439
299.445
299.445
299.44
299.431
299.432
299.438
299.443
299.43
299.431
299.429
299.435
299.44
299.43
299.421
299.431
299.432
299.437
299.43
299.424
299.422
299.421
299.422
299.423
299.423
299.424
299.424
299.425
299.427
299.428
299.43
299.432
299.434
299.437
299.44
299.444
299.45
299.461
299.467
299.349
299.497
299.62
299.562
299.499
299.374
299.413
299.488
299.514
299.491
299.476
299.438
299.461
299.474
299.487
299.482
299.476
299.468
299.468
299.472
299.476
299.479
299.476
299.474
299.471
299.473
299.475
299.476
299.478
299.476
299.474
299.474
299.468
299.47
299.475
299.475
299.474
299.474
299.469
299.468
299.473
299.473
299.474
299.474
299.469
299.47
299.473
299.472
299.469
299.473
299.473
299.48
299.473
299.467
299.468
299.474
299.483
299.484
299.476
299.469
299.471
299.477
299.485
299.486
299.478
299.471
299.474
299.479
299.485
299.477
299.478
299.475
299.474
299.475
299.474
299.475
299.475
299.47
299.467
299.474
299.481
299.485
299.475
299.469
299.471
299.477
299.486
299.487
299.478
299.472
299.472
299.479
299.487
299.489
299.481
299.474
299.475
299.482
299.489
299.491
299.483
299.477
299.48
299.483
299.486
299.477
299.482
299.481
299.48
299.481
299.474
299.474
299.479
299.478
299.477
299.479
299.474
299.475
299.479
299.477
299.475
299.478
299.474
299.484
299.48
299.472
299.471
299.481
299.491
299.493
299.483
299.475
299.478
299.483
299.487
299.479
299.48
299.477
299.473
299.479
299.478
299.486
299.479
299.471
299.472
299.481
299.491
299.494
299.484
299.475
299.478
299.484
299.492
299.485
299.484
299.481
299.481
299.482
299.478
299.478
299.482
299.478
299.476
299.482
299.485
299.492
299.487
299.478
299.484
299.489
299.492
299.485
299.489
299.486
299.485
299.489
299.484
299.483
299.487
299.483
299.483
299.487
299.485
299.485
299.487
299.481
299.478
299.487
299.489
299.5
299.488
299.476
299.476
299.489
299.503
299.504
299.491
299.479
299.48
299.492
299.504
299.505
299.494
299.481
299.485
299.496
299.507
299.5
299.496
299.489
299.488
299.494
299.493
299.484
299.486
299.482
299.477
299.482
299.479
299.479
299.481
299.473
299.472
299.484
299.489
299.504
299.494
299.475
299.483
299.5
299.516
299.516
299.5
299.488
299.486
299.493
299.498
299.478
299.478
299.475
299.455
299.47
299.472
299.485
299.468
299.448
299.452
299.478
299.514
299.528
299.49
299.464
299.484
299.493
299.517
299.477
299.494
299.489
299.481
299.481
299.453
299.459
299.47
299.452
299.428
299.463
299.508
299.52
299.463
299.432
299.447
299.465
299.508
299.449
299.46
299.462
299.454
299.452
299.438
299.456
299.45
299.432
299.423
299.444
299.464
299.464
299.44
299.42
299.42
299.439
299.466
299.477
299.442
299.42
299.423
299.445
299.484
299.488
299.447
299.424
299.424
299.447
299.488
299.472
299.442
299.422
299.42
299.437
299.446
299.437
299.434
299.419
299.417
299.431
299.437
299.439
299.427
299.411
299.409
299.426
299.435
299.436
299.421
299.407
299.412
299.371
299.43
299.45
299.558
299.327
299.427
299.515
299.569
299.506
299.458
299.436
299.465
299.46
299.505
299.436
299.474
299.502
299.505
299.479
299.416
299.423
299.477
299.475
299.427
299.472
299.498
299.513
299.459
299.418
299.445
299.451
299.472
299.46
299.453
299.429
299.35
299.427
299.543
299.496
299.314
299.412
299.3
299.569
299.503
299.547
299.532
299.469
299.456
299.486
299.535
299.538
299.486
299.431
299.424
299.498
299.55
299.505
299.482
299.445
299.474
299.47
299.453
299.479
299.476
299.446
299.431
299.502
299.456
299.522
299.465
299.444
299.395
299.488
299.642
299.622
299.497
299.387
299.434
299.494
299.567
299.58
299.505
299.44
299.429
299.483
299.618
299.597
299.36
299.457
299.315
299.672
299.699
299.708
299.583
299.48
299.466
299.517
299.609
299.533
299.518
299.52
299.472
299.505
299.594
299.601
299.391
299.484
299.382
299.63
299.669
299.54
299.591
299.57
299.528
299.531
299.54
299.639
299.539
299.487
299.519
299.418
299.662
299.752
299.661
299.399
299.597
299.617
299.635
299.617
299.582
299.569
299.579
299.586
299.616
299.652
299.604
299.594
299.616
299.643
299.695
299.679
299.656
299.637
299.652
299.725
299.653
299.75
299.646
299.749
299.702
299.719
299.758
299.732
299.739
299.744
299.764
299.764
299.76
299.766
299.78
299.799
299.849
299.85
299.858
299.86
299.868
299.873
299.816
299.795
299.77
299.739
299.734
299.744
299.619
299.604
299.627
299.499
299.519
299.53
299.478
299.475
299.485
299.423
299.421
299.42
299.399
299.414
299.451
299.418
299.395
299.368
299.397
299.379
299.405
299.76
299.57
299.163
299.298
299.139
299.673
299.501
299.303
299.282
299.37
299.337
299.376
299.359
299.358
299.389
299.356
299.385
299.388
299.387
299.343
299.339
299.289
299.35
299.483
299.564
299.478
299.305
299.301
299.352
299.472
299.509
299.39
299.359
299.348
299.335
299.409
299.372
299.331
299.322
299.375
299.34
299.314
299.241
299.269
299.389
299.352
299.359
299.299
299.272
299.388
299.455
299.454
299.249
299.195
299.285
299.377
299.377
299.427
299.367
299.201
299.105
299.179
299.399
299.397
299.367
299.23
299.265
299.329
299.367
299.33
299.39
299.39
299.335
299.352
299.342
299.548
299.285
299.117
299.261
299.276
299.467
299.034
299.485
299.744
299.569
299.08
299.244
299.242
299.2
299.586
299.256
299.208
299.381
299.323
299.484
299.21
299.212
299.451
299.462
299.299
299.481
299.565
299.521
299.232
299.363
299.333
299.301
299.602
299.312
299.227
299.36
299.282
299.387
299.244
299.263
299.33
299.27
299.347
299.191
299.161
299.174
299.402
299.269
299.307
299.373
299.225
299.515
299.402
299.189
299.304
299.234
299.519
299.363
299.26
299.334
299.197
299.435
299.592
299.536
299.244
299.311
299.36
299.22
299.509
299.744
299.589
299.16
299.267
299.203
299.571
299.426
299.265
299.297
299.228
299.235
299.352
299.481
299.376
299.11
299.201
299.314
299.381
299.363
299.344
299.307
299.263
299.293
299.39
299.481
299.434
299.216
299.26
299.261
299.384
299.582
299.285
299.143
299.17
299.578
299.708
299.442
299.25
299.172
299.27
299.3
299.507
299.41
299.262
299.282
299.239
299.317
299.407
299.281
299.308
299.311
299.132
299.542
299.62
299.527
299.099
299.247
299.285
299.311
299.572
299.455
299.295
299.305
299.268
299.293
299.457
299.513
299.433
299.215
299.184
299.227
299.354
299.372
299.238
299.197
299.057
299.337
299.477
299.342
299.054
299.214
299.242
299.22
299.372
299.256
299.287
299.334
299.373
299.222
299.201
299.333
299.338
299.274
299.182
299.206
299.274
299.355
299.24
299.214
299.09
299.363
299.496
299.385
299.066
299.225
299.264
299.253
299.396
299.3
299.251
299.282
299.219
299.241
299.378
299.45
299.384
299.148
299.12
299.135
299.244
299.436
299.186
299.115
299.316
298.992
299.264
299.099
299.339
299.137
299.191
299.238
299.189
299.182
299.177
299.1
299.241
299.136
298.981
298.833
299.042
299.137
299.226
299.074
299.114
299.124
299.15
299.237
299.232
299.205
299.177
299.384
299.237
299.13
299.165
299.262
299.327
299.112
299.155
299.084
299.087
299.222
299.294
299.214
299.113
299.094
299.071
299.143
299.329
299.202
299.104
299.146
299.048
299.148
299.008
299.205
299.169
299.07
299.057
299.096
299.164
299.235
299.113
299.069
298.975
299.201
299.272
299.19
298.953
299.055
299.068
299.054
299.135
299.071
299.02
299.037
299.07
299.079
299.069
298.864
298.766
299.265
299.068
299.289
298.845
299.103
299.006
299.088
299.003
299.033
299.049
299.115
299.068
299.015
298.96
298.991
299.099
299.118
299.034
298.947
298.982
298.981
298.981
298.99
299.022
298.98
299.006
299.012
299.005
298.989
298.989
298.965
298.98
299.033
299.099
298.946
298.709
299.157
298.992
299.244
298.822
299.115
298.962
299.036
298.947
298.993
299.032
299.043
299.015
298.946
298.903
298.935
299.02
299.008
298.961
298.923
298.825
299.03
298.938
299.099
298.839
298.918
298.913
298.93
299.007
298.972
298.915
298.914
298.93
298.939
298.975
298.954
298.925
298.894
298.908
298.969
299.048
298.908
298.845
298.987
298.901
299.023
298.819
298.957
298.925
298.926
298.877
298.908
298.965
298.983
298.919
298.874
298.853
298.866
298.954
298.979
298.909
298.859
298.814
298.969
298.951
298.971
298.793
298.85
298.854
298.88
298.954
298.934
298.86
298.838
298.838
298.865
298.909
298.898
298.872
298.826
298.833
298.884
298.94
299.069
299.071
298.658
298.801
298.557
299.191
298.938
298.865
298.753
298.783
298.783
298.898
298.9
298.814
298.788
298.767
298.814
298.877
298.917
298.835
298.8
298.601
299.03
299.029
299.12
298.5
298.778
298.7
298.802
298.861
298.821
298.729
298.735
298.744
298.77
298.832
298.808
298.738
298.717
298.726
298.772
298.824
298.778
298.708
298.689
298.692
298.766
298.903
298.835
298.498
298.826
298.656
298.96
298.576
298.831
298.658
298.733
298.667
298.703
298.785
298.797
298.715
298.669
298.653
298.667
298.764
298.767
298.699
298.649
298.63
298.658
298.734
298.769
298.701
298.657
298.492
298.865
298.743
298.943
298.415
298.636
298.577
298.664
298.738
298.704
298.602
298.605
298.616
298.631
298.711
298.689
298.612
298.592
298.598
298.655
298.704
298.7
298.609
298.576
298.6
298.649
298.717
298.72
298.895
298.429
298.577
298.279
298.949
298.643
298.651
298.498
298.527
298.528
298.646
298.66
298.59
298.552
298.526
298.55
298.634
298.644
298.585
298.537
298.496
298.511
298.587
298.722
298.57
298.489
298.662
298.207
298.766
298.283
298.834
298.442
298.537
298.419
298.639
298.566
298.475
298.453
298.449
298.501
298.571
298.569
298.464
298.432
298.443
298.485
298.567
298.537
298.447
298.424
298.415
298.458
298.528
298.561
298.449
298.394
298.41
298.45
298.516
298.593
298.783
298.209
298.393
297.938
298.923
298.411
298.535
298.297
298.334
298.351
298.477
298.472
298.415
298.364
298.337
298.368
298.464
298.449
298.401
298.339
298.31
298.341
298.425
298.445
298.361
298.313
298.286
298.301
298.404
298.454
298.369
298.3
298.181
298.519
298.361
298.582
298.124
298.296
298.219
298.337
298.401
298.372
298.244
298.232
298.254
298.287
298.392
298.381
298.264
298.244
298.252
298.303
298.378
298.338
298.253
298.22
298.214
298.266
298.345
298.356
298.222
298.186
298.201
298.27
298.352
298.305
298.599
298.006
298.201
297.771
298.698
298.262
298.317
298.088
298.11
298.106
298.278
298.294
298.194
298.138
298.118
298.148
298.283
298.257
298.189
298.129
298.089
298.127
298.222
298.236
298.151
298.093
298.059
298.079
298.202
298.26
298.156
298.07
297.926
298.373
298.12
298.434
297.846
298.075
297.982
298.146
298.197
298.161
298.002
297.985
298.007
298.051
298.185
298.161
298.011
298.001
298.01
298.058
298.151
298.107
298.013
297.975
297.978
298.027
298.11
298.131
297.981
297.937
297.957
298.035
298.134
298.046
298.424
297.734
297.983
297.377
298.557
297.95
298.13
297.812
297.846
297.85
298.026
298.033
297.945
297.873
297.854
297.889
298.047
298.006
297.939
297.874
297.828
297.87
297.986
297.994
297.902
297.834
297.802
297.829
297.952
297.963
297.866
297.805
297.776
297.797
297.913
297.981
297.847
297.77
297.825
297.759
297.967
297.807
297.857
297.706
297.763
297.784
297.922
297.888
297.75
297.703
297.72
297.788
297.909
297.86
297.723
297.677
297.691
297.762
297.871
297.822
297.686
297.655
297.667
297.724
297.833
297.774
297.645
297.621
297.644
297.723
297.833
297.689
297.891
297.525
297.622
297.438
297.963
297.779
297.74
297.551
297.537
297.562
297.761
297.766
297.621
297.553
297.531
297.552
297.735
297.726
297.6
297.543
297.493
297.529
297.674
297.674
297.567
297.505
297.454
297.487
297.61
297.705
297.534
297.467
297.531
297.373
297.723
297.483
297.592
297.397
297.45
297.455
297.608
297.569
297.429
297.389
297.41
297.471
297.604
297.554
297.394
297.346
297.364
297.443
297.567
297.503
297.353
297.314
297.327
297.391
297.521
297.451
297.298
297.275
297.268
297.387
297.506
297.384
297.492
297.222
297.246
297.121
297.576
297.405
297.362
297.201
297.173
297.208
297.411
297.426
297.291
297.193
297.157
297.188
297.382
297.397
297.25
297.181
297.117
297.159
297.327
297.338
297.216
297.137
297.075
297.114
297.264
297.321
297.178
297.062
297.053
297.256
297.264
297.29
296.985
297.029
297.018
297.16
297.241
297.23
296.997
296.963
296.972
297.076
297.204
297.158
296.939
296.912
296.938
297.009
297.147
297.105
296.904
296.87
296.904
296.992
297.157
296.89
297.397
296.696
296.901
296.527
297.407
297.094
297.037
296.797
296.759
296.781
297.061
297.074
296.888
296.759
296.737
296.747
297
297.008
296.827
296.764
296.702
296.729
296.896
296.996
296.809
296.711
296.843
296.42
297.094
296.63
296.939
296.59
296.649
296.595
296.806
296.799
296.664
296.587
296.613
296.627
296.819
296.716
296.572
296.53
296.542
296.612
296.746
296.701
296.495
296.466
296.499
296.595
296.797
296.416
297.118
296.216
296.495
295.963
297.078
296.674
296.628
296.359
296.321
296.334
296.641
296.639
296.443
296.301
296.28
296.284
296.577
296.571
296.364
296.298
296.229
296.245
296.473
296.528
296.365
296.208
296.064
296.548
296.262
296.609
296.032
296.141
296.134
296.284
296.464
296.393
296.11
296.07
296.079
296.209
296.407
296.311
296.08
296.027
296.043
296.137
296.328
296.219
296.01
295.979
295.982
296.129
296.296
296.132
296.249
295.903
295.929
295.795
296.293
296.123
296.041
295.881
295.825
295.868
296.164
296.11
295.939
295.812
295.718
295.745
296.015
296.06
295.846
295.707
295.523
296.199
295.76
296.143
295.475
295.661
295.656
295.815
296.056
295.966
295.622
295.567
295.581
295.761
295.989
295.864
295.577
295.507
295.521
295.631
295.863
295.74
295.494
295.462
295.439
295.598
295.805
295.792
295.515
295.519
295.312
295.486
295.533
295.653
295.382
295.365
295.252
295.336
295.585
295.613
295.346
295.243
295.136
295.202
295.413
295.461
295.203
295.08
295.182
295.302
295.479
295.389
295.133
295.055
295.085
295.217
295.435
295.356
295.041
294.972
295.001
295.13
295.376
295.248
294.961
294.901
294.862
295.029
295.308
295.259
295.075
294.929
294.782
294.848
295.142
295.151
294.929
294.797
294.68
294.736
295.044
295.047
294.773
294.606
294.618
294.736
294.936
294.839
294.549
294.458
294.511
294.645
294.905
294.818
294.481
294.401
294.442
294.602
294.874
294.73
294.408
294.336
294.313
294.536
294.835
294.746
294.613
294.34
294.233
294.192
294.667
294.593
294.396
294.224
294.112
294.168
294.519
294.542
294.262
294.045
294.096
294.258
294.474
294.359
293.897
293.902
293.876
294.021
294.221
294.095
293.79
293.709
293.659
293.843
294.216
294.275
293.922
293.822
293.633
293.799
294.066
294.142
293.864
293.682
293.552
293.628
293.967
294.109
293.759
293.523
293.471
293.814
293.898
293.96
293.349
293.393
293.357
293.548
293.775
293.73
293.27
293.215
293.106
293.354
293.737
293.544
293.252
293.092
292.934
292.835
293.64
293.37
293.174
292.824
292.745
292.818
293.254
293.444
292.997
292.78
292.987
292.822
293.472
293.028
292.911
292.627
292.708
292.848
293.207
293.02
292.642
292.522
292.465
292.731
293.169
292.961
292.814
292.456
292.29
292.245
292.886
292.64
292.407
292.209
291.992
292.096
292.499
292.386
291.928
291.768
291.886
292.124
292.449
292.272
291.866
291.713
291.695
291.947
292.486
292.595
291.811
291.945
291.567
291.872
292.082
292.233
291.77
291.656
291.391
291.536
292.001
292.113
291.565
291.286
291.305
291.58
291.94
291.701
291.189
291.054
290.802
291.102
291.58
291.536
290.746
290.921
290.522
290.738
291.154
291.489
290.868
290.541
290.861
290.8
291.655
291.148
290.76
290.427
290.534
290.796
291.275
290.979
290.405
290.243
290.098
290.426
291.022
290.824
290.411
290.105
289.802
289.981
290.523
290.345
289.777
289.49
289.52
289.543
290.241
289.861
289.375
289.158
289.185
289.455
290.266
290.292
289.816
289.376
289.129
289.346
289.977
290.11
289.383
288.993
289.123
289.484
289.965
289.576
288.957
288.707
288.451
288.785
289.555
289.054
288.632
288.276
287.819
287.952
288.582
288.779
287.969
287.707
287.776
288.32
289.082
289.017
288.75
287.931
287.766
287.901
288.89
288.888
288.003
287.477
287.706
287.742
288.765
288.011
287.276
286.967
286.526
286.761
287.473
287.478
286.443
286.153
286.515
286.952
287.687
287.375
286.605
286.267
286.226
286.572
287.758
287.768
286.647
286.141
285.855
287.431
286.955
286.957
285.573
285.602
285.015
285.202
286.157
286.564
285.048
284.616
284.924
286.041
286.512
286.481
285.108
284.905
284.755
285.06
286.514
286.78
285.166
284.506
283.805
284.701
285.079
287.127
283.203
284.257
283.628
284.345
285.199
285.992
284.481
283.74
283.742
284.631
286.114
285.624
284.23
283.274
283.152
284.085
285.788
286.871
284.772
283.348
284.355
284.237
287.052
285.446
284.374
283.536
283.648
284.389
285.715
286.677
284.963
283.893
284.475
285.329
287.125
287.877
285.939
284.833
285.484
286.743
288.687
289.658
287.552
286.162
286.792
288.266
290.472
291.024
288.834
287.32
287.755
289.312
291.406
291.71
289.743
288.127
288.453
290.153
291.996
292.241
290.527
288.757
289.049
290.864
292.445
292.606
291.154
289.331
289.595
291.408
292.736
292.85
291.628
289.841
290.076
291.837
292.972
293.088
292.036
290.306
290.531
292.221
293.172
293.213
292.373
290.746
290.943
292.5
293.243
293.287
292.609
291.122
291.289
292.714
293.342
293.385
292.809
291.448
291.604
292.899
293.403
293.405
292.97
291.757
291.902
293.029
293.403
293.404
293.076
292.037
292.16
293.125
293.419
293.452
293.167
292.266
292.363
293.208
293.478
293.491
293.244
292.451
292.54
293.28
293.494
293.492
293.307
292.622
292.702
293.333
293.484
293.474
293.35
292.771
292.834
293.366
293.47
293.469
293.376
292.882
292.925
293.388
293.471
293.473
293.396
292.957
292.989
293.406
293.475
293.478
293.413
293.014
293.042
293.423
293.484
293.489
293.43
293.062
293.082
293.437
293.493
293.496
293.441
293.096
293.111
293.447
293.497
293.497
293.449
293.121
293.131
293.449
293.495
293.489
293.448
293.137
293.142
293.445
293.483
293.474
293.437
293.143
293.142
293.431
293.469
293.46
293.42
293.14
293.137
293.412
293.455
293.445
293.399
293.13
293.126
293.391
293.439
293.428
293.377
293.118
293.113
293.368
293.421
293.41
293.352
293.104
293.099
293.342
293.403
293.393
293.327
293.088
293.083
293.317
293.387
293.378
293.302
293.072
293.067
293.293
293.373
293.364
293.28
293.057
293.053
293.272
293.36
293.35
293.26
293.045
293.042
293.252
293.343
293.332
293.24
293.034
293.031
293.232
293.324
293.311
293.219
293.025
293.022
293.212
293.304
293.291
293.199
293.015
293.012
293.191
293.283
293.27
293.179
293.005
293.002
293.172
293.263
293.25
293.16
292.995
292.992
293.153
293.243
293.232
293.142
292.985
292.982
293.136
293.226
293.216
293.125
292.976
292.973
293.12
293.21
293.2
293.11
292.966
292.964
293.105
293.195
293.185
293.096
292.958
292.955
293.092
293.181
293.171
293.083
292.95
292.947
293.079
293.166
293.156
293.07
292.941
292.938
293.066
293.152
293.142
293.057
292.931
292.928
293.052
293.137
293.127
293.043
292.921
292.918
293.039
293.121
293.11
293.03
292.911
292.907
293.025
293.104
293.093
293.015
292.9
292.896
293.01
293.086
293.075
293
292.888
292.884
292.994
293.068
293.057
292.984
292.874
292.87
292.978
293.049
293.038
292.967
292.86
292.855
292.961
293.031
293.02
292.95
292.844
292.839
292.943
293.014
293.003
292.932
292.828
292.822
292.926
292.996
292.986
292.915
292.811
292.806
292.909
292.979
292.969
292.899
292.794
292.789
292.892
292.963
292.952
292.881
292.777
292.772
292.875
292.946
292.935
292.864
292.76
292.754
292.857
292.929
292.918
292.847
292.743
292.736
292.839
292.912
292.901
292.829
292.725
292.717
292.822
292.894
292.883
292.811
292.708
292.698
292.804
292.877
292.866
292.793
292.689
292.679
292.786
292.86
292.849
292.774
292.67
292.661
292.768
292.843
292.831
292.756
292.65
292.643
292.749
292.825
292.814
292.738
292.631
292.624
292.731
292.808
292.796
292.719
292.612
292.606
292.713
292.79
292.779
292.701
292.593
292.587
292.695
292.773
292.761
292.683
292.575
292.568
292.676
292.754
292.742
292.664
292.556
292.55
292.657
292.736
292.724
292.645
292.537
292.531
292.638
292.717
292.704
292.626
292.518
292.511
292.618
292.697
292.684
292.606
292.499
292.492
292.598
292.677
292.664
292.586
292.479
292.472
292.578
292.657
292.644
292.565
292.459
292.452
292.558
292.636
292.623
292.545
292.439
292.432
292.537
292.615
292.602
292.524
292.419
292.412
292.516
292.595
292.582
292.504
292.399
292.392
292.496
292.574
292.561
292.483
292.379
292.372
292.475
292.553
292.54
292.462
292.359
292.352
292.454
292.533
292.52
292.442
292.339
292.332
292.434
292.512
292.499
292.421
292.319
292.313
292.414
292.492
292.479
292.401
292.3
292.293
292.394
292.471
292.458
292.381
292.281
292.274
292.374
292.451
292.438
292.361
292.261
292.255
292.354
292.431
292.418
292.341
292.242
292.236
292.334
292.411
292.398
292.321
292.224
292.217
292.314
292.391
292.378
292.302
292.205
292.199
292.295
292.371
292.358
292.282
292.186
292.18
292.275
292.352
292.338
292.263
292.168
292.161
292.256
292.332
292.319
292.243
292.149
292.143
292.237
292.312
292.299
292.224
292.131
292.125
292.217
292.292
292.279
292.205
292.112
292.106
292.198
292.273
292.26
292.186
292.094
292.088
292.179
292.254
292.241
292.167
292.076
292.07
292.16
292.234
292.222
292.148
292.058
292.053
292.142
292.215
292.203
292.13
292.041
292.035
292.124
292.196
292.184
292.112
292.023
292.018
292.105
292.178
292.166
292.094
292.006
292.001
292.088
292.159
292.147
292.076
291.989
291.984
292.07
292.141
292.129
292.058
291.973
291.967
292.052
292.121
292.111
292.042
291.957
291.951
292.034
292.102
292.094
292.026
291.943
291.935
292.016
292.077
292.072
292.01
291.927
291.898
291.993
292.06
292.052
291.984
291.871
291.853
291.967
292.036
291.647
291.332
290.35
289.89
289.793
289.378
289.123
288.963
288.878
288.74
288.676
288.521
288.398
288.301
288.226
288.171
288.133
288.107
288.089
288.077
288.068
288.062
288.058
288.055
288.053
288.051
288.05
288.049
288.048
288.048
288.047
288.047
288.047
288.047
288.047
288.047
288.047
288.047
288.046
288.046
288.046
288.046
288.046
288.045
288.045
288.045
288.044
288.042
288.041
288.041
288.042
288.044
288.048
288.054
288.06
288.069
288.078
288.089
288.102
288.117
288.133
288.152
288.172
288.196
288.222
288.252
288.285
288.322
288.363
288.409
288.461
288.519
288.583
288.654
288.732
288.819
288.914
289.018
289.132
289.256
289.39
289.533
289.687
289.851
290.024
290.206
290.396
290.593
290.797
291.007
291.221
291.439
291.659
291.88
292.102
292.323
292.543
292.761
292.976
293.188
293.396
293.599
293.798
293.992
294.18
294.363
294.54
294.712
294.878
295.038
295.193
295.342
295.486
295.624
295.757
295.885
296.008
296.127
296.24
296.349
296.454
296.554
296.651
296.744
296.832
296.918
296.999
297.078
297.153
297.225
297.295
297.361
297.425
297.486
297.545
297.601
297.656
297.708
297.757
297.805
297.851
297.896
297.938
297.979
298.018
298.055
298.092
298.126
298.16
298.192
298.222
298.252
298.28
298.308
298.334
298.359
298.383
298.406
298.429
298.45
298.471
298.491
298.51
298.528
298.545
298.562
298.578
298.594
298.608
298.623
298.636
298.649
298.662
298.674
298.685
298.696
298.706
298.716
298.726
298.735
298.743
298.751
298.759
298.766
298.773
298.78
298.786
298.792
298.797
298.802
298.807
298.811
298.815
298.819
298.822
298.826
298.828
298.831
298.833
298.834
298.836
298.837
298.838
298.838
298.838
298.839
298.839
298.839
298.839
298.839
298.839
298.839
298.839
298.84
298.842
298.845
298.848
298.852
298.856
298.859
298.863
298.867
298.872
298.876
298.881
298.886
298.891
298.896
298.901
298.907
298.912
298.918
298.924
298.93
298.937
298.943
298.949
298.956
298.963
298.97
298.977
298.984
298.991
298.998
299.005
299.012
299.02
299.027
299.035
299.042
299.05
299.057
299.065
299.072
299.08
299.087
299.095
299.102
299.11
299.117
299.124
299.131
299.139
299.146
299.153
299.159
299.166
299.173
299.179
299.186
299.192
299.198
299.204
299.21
299.215
299.221
299.226
299.231
299.236
299.241
299.245
299.25
299.254
299.258
299.262
299.265
299.268
299.271
299.272
299.273
299.273
299.273
299.273
299.273
299.273
299.274
299.275
299.276
299.277
299.278
299.279
299.281
299.282
299.284
299.286
299.288
299.289
299.292
299.293
299.296
299.298
299.3
299.302
299.304
299.306
299.309
299.311
299.313
299.316
299.318
299.321
299.323
299.326
299.328
299.331
299.333
299.337
299.339
299.342
299.344
299.348
299.35
299.354
299.357
299.361
299.363
299.367
299.37
299.374
299.377
299.382
299.384
299.389
299.392
299.397
299.399
299.405
299.408
299.413
299.416
299.422
299.425
299.431
299.434
299.44
299.443
299.449
299.452
299.459
299.462
299.469
299.472
299.479
299.482
299.489
299.493
299.5
299.503
299.51
299.514
299.521
299.524
299.531
299.534
299.541
299.544
299.55
299.553
299.56
299.562
299.568
299.57
299.575
299.577
299.581
299.582
299.586
299.587
299.589
299.589
299.59
299.59
299.59
299.588
299.587
299.585
299.583
299.579
299.577
299.572
299.569
299.563
299.56
299.553
299.55
299.543
299.539
299.532
299.528
299.521