/*--------------------------------*- C++ -*----------------------------------*\
| =========                 |                                                 |
| \\      /  F ield         | OpenFOAM: The Open Source CFD Toolbox           |
|  \\    /   O peration     | Version:  v2006                                 |
|   \\  /    A nd           | Website:  www.openfoam.com                      |
|    \\/     M anipulation  |                                                 |
\*---------------------------------------------------------------------------*/
FoamFile
{
    version     2.0;
    format      ascii;
    class       volScalarField;
    location    "0.113";
    object      turbulenceProperties:L;
}
// * * * * * * * * * * * * * * * * * * * * * * * * * * * * * * * * * * * * * //

dimensions      [0 1 0 0 0 0 0];


internalField   nonuniform List<scalar> 
16277
(
1998.75
1998.74
1999.12
1999.24
1999.59
1999.5
1999.49
1999.28
1998.8
1998.12
1997.36
1996.67
1996.08
1995.58
1995.13
1994.72
1994.32
1993.93
1993.54
1993.17
1992.81
1992.45
1992.11
1991.77
1991.44
1991.12
1990.8
1990.49
1990.19
1989.89
1989.59
1989.31
1989.03
1988.75
1988.49
1988.23
1987.98
1987.74
1987.51
1987.29
1987.08
1986.88
1986.69
1986.52
1986.36
1986.21
1986.07
1985.95
1985.85
1985.76
1985.69
1985.63
1985.59
1985.57
1985.57
1985.58
1985.62
1985.67
1985.75
1985.84
1985.95
1986.06
1986.18
1986.25
1986.18
1985.75
1984.4
1980.76
1971.2
1947.5
1896.71
1794.46
1607.8
1316.43
954.796
611.974
356.507
195.42
103.502
54.2352
28.4243
15.2683
9.11532
7.0126
5.13087
4.27665
3.524
1.93465
1.11784
0.885881
0.988254
0.374154
0.121351
0.0320747
0.0037253
0.000676234
4.70418e-05
4.51109e-05
0.000325013
0.00146001
0.000819232
0.000221171
4.31574e-05
4.18663e-05
0.000207442
0.000698857
0.000573417
0.000187013
4.15216e-05
4.10403e-05
0.000185002
0.000550563
0.000489886
0.000173553
4.07296e-05
4.03716e-05
0.000173034
0.000482192
0.000449741
0.000166466
4.01594e-05
4.00757e-05
0.000168994
0.000448781
0.000428601
0.000163765
3.99808e-05
3.99174e-05
0.000166281
0.0004288
0.00041356
0.000161754
3.98363e-05
3.97865e-05
0.000164001
0.000414579
0.000401806
0.000159924
3.97153e-05
3.96745e-05
0.000161965
0.000403229
0.000391935
0.000158198
3.96113e-05
3.95762e-05
0.000160129
0.000393602
0.000383336
0.000156562
3.95184e-05
3.94872e-05
0.000158432
0.00038515
0.000375644
0.00015499
3.94332e-05
3.94049e-05
0.000156802
0.000377548
0.00036864
0.000153467
3.93535e-05
3.93271e-05
0.000155237
0.000370606
0.000362204
0.000152004
3.92774e-05
3.92524e-05
0.000153744
0.000364216
0.000356242
0.000150607
3.92039e-05
3.91797e-05
0.000152326
0.000358304
0.000350689
0.000149279
3.91319e-05
3.91083e-05
0.000150979
0.000352808
0.000345518
0.000148014
3.90609e-05
3.90376e-05
0.000149698
0.000347689
0.000340693
0.000146811
3.89903e-05
3.89671e-05
0.000148481
0.000342911
0.000336184
0.000145666
3.89197e-05
3.88965e-05
0.000147327
0.000338444
0.000331963
0.000144581
3.88488e-05
3.88254e-05
0.000146233
0.000334257
0.000327999
0.000143554
3.87773e-05
3.87537e-05
0.000145197
0.000330319
0.00032426
0.000142578
3.8705e-05
3.8681e-05
0.000144214
0.000326599
0.00032072
0.000141651
3.86316e-05
3.86071e-05
0.000143278
0.000323071
0.000317355
0.000140767
3.85568e-05
3.85317e-05
0.000142386
0.000319715
0.000314147
0.000139922
3.84803e-05
3.84545e-05
0.000141533
0.00031651
0.000311076
0.000139112
3.84018e-05
3.83752e-05
0.000140714
0.000313439
0.000308127
0.000138332
3.8321e-05
3.82934e-05
0.000139925
0.000310487
0.000305286
0.000137579
3.82375e-05
3.82088e-05
0.000139163
0.000307641
0.000302544
0.00013685
3.8151e-05
3.8121e-05
0.000138426
0.00030489
0.000299889
0.000136143
3.8061e-05
3.80296e-05
0.000137711
0.000302227
0.000297314
0.000135456
3.79672e-05
3.79342e-05
0.000137016
0.000299644
0.000294816
0.000134787
3.78691e-05
3.78344e-05
0.000136341
0.000297138
0.000292391
0.000134138
3.77664e-05
3.77298e-05
0.000135686
0.000294707
0.00029004
0.000133507
3.76585e-05
3.76199e-05
0.000135056
0.000292352
0.000287763
0.000132899
3.75452e-05
3.75045e-05
0.000134462
0.000290076
0.000285567
0.000132318
3.7426e-05
3.73832e-05
0.000133892
0.000287886
0.000283456
0.00013176
3.73008e-05
3.72558e-05
0.000133352
0.000285784
0.000281436
0.000131234
3.71693e-05
3.71221e-05
0.000132848
0.000283782
0.000279519
0.000130744
3.70314e-05
3.69821e-05
0.000132389
0.000281893
0.000277725
0.000130302
3.68873e-05
3.68361e-05
0.000131986
0.000280139
0.000276076
0.000129918
3.67373e-05
3.66847e-05
0.000131652
0.000278585
0.000274616
0.000129607
3.65821e-05
3.65287e-05
0.000131406
0.000277266
0.000273379
0.000129389
3.64232e-05
3.63699e-05
0.000131266
0.000276186
0.000272397
0.000129285
3.62623e-05
3.62104e-05
0.000131256
0.000275406
0.000271732
0.000129318
3.61021e-05
3.60532e-05
0.000131405
0.000274995
0.000271459
0.000129519
3.59461e-05
3.59025e-05
0.000131743
0.000275032
0.000271659
0.000129925
3.57986e-05
3.57634e-05
0.00013228
0.000275597
0.000272418
0.000130559
3.56662e-05
3.56413e-05
0.000132967
0.000276744
0.000273772
0.000131339
3.55568e-05
3.55426e-05
0.000133827
0.000278613
0.000275848
0.000132314
3.54742e-05
3.54723e-05
0.000134873
0.0002812
0.000278626
0.000133478
3.54268e-05
3.54349e-05
0.000136073
0.000284444
0.000282051
0.000134804
3.54212e-05
3.54331e-05
0.000137376
0.000288221
0.000285977
0.000136177
3.54273e-05
3.54678e-05
0.000138698
0.000292478
0.000290363
0.000137506
3.54742e-05
3.55355e-05
0.000139925
0.000297093
0.00029504
0.000138745
3.5554e-05
3.56318e-05
0.000140947
0.000301677
0.000299589
0.00013977
3.56588e-05
3.57466e-05
0.000141752
0.000305923
0.000303737
0.000140493
3.57794e-05
3.58728e-05
0.000142399
0.000309675
0.000307375
0.000140976
3.59093e-05
3.60057e-05
0.000142804
0.000312843
0.000310433
0.000141282
3.60441e-05
3.61409e-05
0.000143007
0.000315385
0.000312855
0.000141326
3.61793e-05
3.62737e-05
0.000142984
0.000317298
0.000314591
0.000141163
3.63108e-05
3.64008e-05
0.000142759
0.00031857
0.000315614
0.00014082
3.64356e-05
3.65196e-05
0.000142352
0.000319405
0.00031605
0.000140336
3.65513e-05
3.66282e-05
0.000141813
0.000319582
0.000315835
0.000139667
3.66564e-05
3.67255e-05
0.000141166
0.000319114
0.000314767
0.000138811
3.675e-05
3.68108e-05
0.00014031
0.000317944
0.000313258
0.000137884
3.68312e-05
3.68834e-05
0.000139385
0.000316344
0.00031144
0.000136933
3.68997e-05
3.69435e-05
0.000138438
0.00031442
0.000309378
0.000136003
3.69561e-05
3.69921e-05
0.0001375
0.000312243
0.000307135
0.000135111
3.70009e-05
3.70296e-05
0.000136595
0.000309883
0.00030474
0.000134249
3.70348e-05
3.70567e-05
0.000135723
0.000307394
0.000302328
0.000133469
3.70595e-05
3.70769e-05
0.00013493
0.000304879
0.000299932
0.000132767
3.70774e-05
3.70897e-05
0.000134201
0.000302393
0.000297567
0.000132131
3.70887e-05
3.70973e-05
0.000133536
0.000299974
0.000295267
0.000131537
3.70948e-05
3.70998e-05
0.000132913
0.000297626
0.000293046
0.000130991
3.70964e-05
3.70998e-05
0.000132347
0.000295395
0.000290962
0.000130497
3.70953e-05
3.70975e-05
0.000131838
0.000293304
0.000288953
0.000130006
3.70903e-05
3.70919e-05
0.000131344
0.000291276
0.000287029
0.000129552
3.70832e-05
3.70846e-05
0.000130905
0.000289356
0.000285213
0.000129142
3.70749e-05
3.7076e-05
0.000130493
0.000287527
0.000283464
0.000128751
3.70652e-05
3.70661e-05
0.000130097
0.000285769
0.000281758
0.000128369
3.70544e-05
3.70548e-05
0.000129705
0.000284053
0.000280078
0.000127989
3.70425e-05
3.70431e-05
0.000129325
0.000282393
0.000278482
0.000127659
3.70312e-05
3.70321e-05
0.000129
0.000280868
0.000276999
0.000127306
3.70186e-05
3.70171e-05
0.000128588
0.000279241
0.000275356
0.000126894
3.69956e-05
3.70125e-05
0.000128247
0.000277743
0.000273842
0.000126619
3.69776e-05
3.70013e-05
0.000127853
0.000276563
0.000272665
0.000125918
3.69323e-05
3.71156e-05
0.000128079
0.000276546
0.000274136
0.000127989
3.72217e-05
3.77417e-05
0.000128385
0.00027733
0.000290746
0.000134793
3.84484e-05
4.11156e-05
0.000127566
0.000283209
0.000420852
0.0002356
4.70799e-05
4.18583e-05
9.89321e-05
0.000220295
0.00049719
0.00104741
0.00181629
0.0024492
0.00284774
0.00358547
0.00402904
0.00441524
0.0046162
0.00469695
0.0046421
0.00443596
0.00416161
0.00372755
0.00331055
0.00266394
0.00237933
0.00181486
0.00142329
0.00102166
0.000619115
0.000299853
0.000116539
5.03447e-05
1.29011e-05
1.18414e-05
4.6394e-05
0.000105826
9.99222e-05
4.38984e-05
1.10225e-05
1.04075e-05
4.20205e-05
9.46418e-05
9.47362e-05
4.16888e-05
1.02069e-05
1.00864e-05
4.13949e-05
9.31825e-05
9.30789e-05
4.10024e-05
9.96271e-06
9.95296e-06
4.08991e-05
9.28099e-05
9.30026e-05
4.09381e-05
9.96174e-06
9.96215e-06
4.09555e-05
9.31034e-05
9.31954e-05
4.09746e-05
9.97293e-06
9.97953e-06
4.1009e-05
9.33498e-05
9.34318e-05
4.1031e-05
9.98539e-06
9.99724e-06
4.10711e-05
9.36097e-05
9.37132e-05
4.1094e-05
9.99263e-06
1.00052e-05
4.11454e-05
9.38829e-05
9.39808e-05
4.11662e-05
1.00116e-05
1.00244e-05
4.1208e-05
9.41496e-05
9.42309e-05
4.12236e-05
1.00245e-05
1.00261e-05
4.12789e-05
9.44148e-05
9.44988e-05
4.12921e-05
1.0044e-05
1.00456e-05
4.13421e-05
9.46972e-05
9.47949e-05
4.1362e-05
1.00533e-05
1.00553e-05
4.14327e-05
9.50212e-05
9.51229e-05
4.14591e-05
1.00746e-05
1.00769e-05
4.15125e-05
9.53252e-05
9.54213e-05
4.15327e-05
1.00842e-05
1.00857e-05
4.1594e-05
9.56292e-05
9.57227e-05
4.16158e-05
1.01049e-05
1.01067e-05
4.16711e-05
9.59278e-05
9.60214e-05
4.16937e-05
1.01143e-05
1.01166e-05
4.17553e-05
9.62264e-05
9.63223e-05
4.17765e-05
1.01353e-05
1.0138e-05
4.18286e-05
9.6525e-05
9.66316e-05
4.18545e-05
1.0146e-05
1.01487e-05
4.1926e-05
9.68621e-05
9.69671e-05
4.19551e-05
1.01632e-05
1.01774e-05
4.20115e-05
9.71986e-05
9.73041e-05
4.20464e-05
1.018e-05
1.01828e-05
4.21151e-05
9.75324e-05
9.76343e-05
4.2143e-05
1.01965e-05
1.02112e-05
4.21984e-05
9.7847e-05
9.79493e-05
4.22246e-05
1.02127e-05
1.02163e-05
4.22911e-05
9.81717e-05
9.82919e-05
4.2327e-05
1.02306e-05
1.02458e-05
4.23908e-05
9.85197e-05
9.8623e-05
4.24249e-05
1.02484e-05
1.02516e-05
4.24917e-05
9.88361e-05
9.89302e-05
4.25127e-05
1.02649e-05
1.02799e-05
4.25748e-05
9.91383e-05
9.92336e-05
4.25961e-05
1.02819e-05
1.02857e-05
4.26699e-05
9.94487e-05
9.95429e-05
4.2699e-05
1.02999e-05
1.03149e-05
4.27584e-05
9.97445e-05
9.98148e-05
4.27708e-05
1.03165e-05
1.03195e-05
4.28317e-05
0.000100003
0.000100089
4.28469e-05
1.0333e-05
1.03481e-05
4.2908e-05
0.000100284
0.000100366
4.29219e-05
1.03505e-05
1.03533e-05
4.29879e-05
0.000100562
0.000100636
4.29984e-05
1.03673e-05
1.03816e-05
4.30503e-05
0.00010081
0.000100848
4.30451e-05
1.03826e-05
1.0384e-05
4.3079e-05
0.000100983
0.000101002
4.30651e-05
1.0401e-05
1.04025e-05
4.30827e-05
0.000101113
0.000101116
4.30565e-05
1.04084e-05
1.04085e-05
4.30631e-05
0.000101206
0.000101217
4.30236e-05
1.04258e-05
1.04254e-05
4.30083e-05
0.00010128
0.000101282
4.29524e-05
1.0431e-05
1.04293e-05
4.2917e-05
0.000101313
0.000101272
4.28263e-05
1.04394e-05
1.0449e-05
4.27511e-05
0.000101263
0.000101177
4.26254e-05
1.04464e-05
1.04432e-05
4.25136e-05
0.000101158
0.00010105
4.23724e-05
1.04534e-05
1.04636e-05
4.22395e-05
0.000101073
0.00010097
4.2066e-05
1.04635e-05
1.0465e-05
4.19082e-05
0.000100938
0.000100712
4.16524e-05
1.04823e-05
1.04831e-05
4.14206e-05
0.000100647
0.000100421
4.11274e-05
1.0492e-05
1.05001e-05
4.0909e-05
0.00010049
0.000100415
4.06475e-05
1.0524e-05
1.05557e-05
4.04451e-05
0.000100632
0.000100519
4.01508e-05
1.05783e-05
1.06113e-05
3.98668e-05
0.000100659
0.000100559
3.95252e-05
1.06477e-05
1.06939e-05
3.92478e-05
0.000100858
0.000101101
3.89602e-05
1.0752e-05
1.08246e-05
3.87876e-05
0.000101808
0.00010262
3.8632e-05
1.09088e-05
1.10008e-05
3.86293e-05
0.000103773
0.000105414
3.92538e-05
1.11783e-05
1.13527e-05
3.97913e-05
0.000106785
0.000107632
3.99388e-05
1.13311e-05
1.14706e-05
3.94589e-05
0.000108874
0.000110697
4.16774e-05
1.17299e-05
1.18794e-05
4.09054e-05
0.000111616
0.000112872
4.2071e-05
1.21559e-05
1.24049e-05
4.26928e-05
0.000114548
0.000114794
4.35648e-05
1.27633e-05
1.32319e-05
4.54633e-05
0.000116723
0.00011673
4.64711e-05
1.36255e-05
1.39343e-05
4.76551e-05
0.00011781
0.00011747
4.84491e-05
1.4596e-05
1.5749e-05
5.40681e-05
0.000119359
0.000117243
5.56931e-05
1.08388e-05
6.16131e-06
1.58867e-05
4.17847e-05
9.96163e-05
3.5789e-05
8.3562e-06
9.21597e-06
3.19885e-05
9.2186e-05
9.66452e-05
3.36139e-05
9.43919e-06
9.6321e-06
3.22316e-05
9.31038e-05
9.8733e-05
3.46944e-05
1.00367e-05
1.05081e-05
3.42821e-05
9.73299e-05
0.000104274
3.83117e-05
1.10921e-05
1.17091e-05
3.78878e-05
0.000102117
0.000108583
4.28646e-05
1.24626e-05
1.33834e-05
4.34556e-05
0.000108395
0.000115028
4.98575e-05
1.48992e-05
1.05392e-05
5.31277e-05
0.000115046
4.11362e-05
1.50647e-05
6.40875e-06
9.02202e-06
3.76649e-05
0.000104354
0.000101213
3.5043e-05
1.06406e-05
1.18223e-05
4.42509e-05
0.000118773
0.000119467
4.42361e-05
1.26753e-05
1.37138e-05
4.9552e-05
0.000127785
0.000129175
5.17966e-05
1.48503e-05
1.64317e-05
5.86177e-05
0.00013558
0.000130858
6.11352e-05
1.16379e-05
7.04242e-06
1.76765e-05
4.67222e-05
0.000114215
4.22946e-05
9.6417e-06
1.10824e-05
3.93706e-05
0.000110782
0.00012185
4.63095e-05
1.20023e-05
1.30646e-05
4.57027e-05
0.000119225
0.000127792
5.40603e-05
1.48716e-05
1.07746e-05
5.94434e-05
0.000125815
4.59342e-05
1.65959e-05
6.60522e-06
9.61219e-06
4.12948e-05
0.000116849
0.000117705
4.22511e-05
1.17427e-05
1.39046e-05
5.48622e-05
0.000141474
0.00014419
6.14902e-05
1.59461e-05
1.15264e-05
6.62032e-05
0.000141269
5.22082e-05
1.80077e-05
6.80212e-06
9.93074e-06
4.92954e-05
0.000129367
0.000126676
4.66665e-05
1.2187e-05
1.46131e-05
6.15832e-05
0.000147565
0.000146353
6.75282e-05
1.08616e-05
6.64052e-06
1.8597e-05
5.68093e-05
0.000146219
5.48555e-05
1.04355e-05
1.36805e-05
5.55383e-05
0.000152221
0.000193111
8.11144e-05
1.68831e-05
1.27914e-05
8.31896e-05
0.000182595
7.65456e-05
2.584e-05
8.21864e-06
1.34971e-05
7.81518e-05
0.000189674
0.000185525
7.98998e-05
1.12126e-05
7.77174e-06
2.67288e-05
8.28411e-05
0.000236882
9.06752e-05
1.40437e-05
1.24394e-05
9.88822e-05
0.000249181
0.000119978
4.20298e-05
9.66737e-06
1.10667e-05
0.000100659
0.000272845
0.000186725
7.29857e-05
1.01019e-05
1.36144e-05
0.000107822
0.00031991
0.000266175
9.03167e-05
1.12645e-05
1.11416e-05
8.69518e-05
0.000256872
0.000280055
9.68445e-05
1.30471e-05
1.70711e-05
0.000171697
0.000472459
0.000104836
3.92167e-05
1.41118e-05
1.31157e-05
9.56349e-05
0.000203429
7.48849e-05
3.15517e-05
1.21625e-05
1.35116e-05
6.92277e-05
0.000148277
0.00013296
5.58761e-05
1.4771e-05
7.98948e-06
1.83535e-05
4.86826e-05
9.94473e-05
6.25262e-05
9.92438e-06
1.05163e-05
2.47276e-05
5.49373e-05
0.000116408
5.90613e-05
1.28614e-05
1.47775e-05
5.17001e-05
0.000110037
4.60489e-05
1.97639e-05
8.93494e-06
1.17281e-05
5.31349e-05
0.000100838
9.69179e-05
4.73999e-05
1.39929e-05
8.54891e-06
1.83627e-05
4.18771e-05
9.32112e-05
4.94693e-05
1.12514e-05
1.36111e-05
4.52527e-05
8.99372e-05
3.99375e-05
1.80411e-05
8.50166e-06
1.10918e-05
4.73192e-05
8.86912e-05
8.46979e-05
4.34494e-05
1.34588e-05
8.42982e-06
1.73321e-05
3.80766e-05
8.40059e-05
4.51216e-05
1.09669e-05
1.34644e-05
4.14382e-05
8.05551e-05
3.65516e-05
1.70499e-05
8.52992e-06
1.11184e-05
4.41601e-05
8.04159e-05
7.65372e-05
4.03417e-05
1.35508e-05
8.5147e-06
1.66562e-05
3.5461e-05
7.77827e-05
4.28889e-05
1.10664e-05
1.37066e-05
3.95263e-05
7.44276e-05
3.53372e-05
1.7016e-05
8.84195e-06
1.1641e-05
4.44045e-05
7.77442e-05
7.1163e-05
3.76703e-05
1.50556e-05
1.11059e-05
3.12603e-05
6.20984e-05
2.85655e-05
1.26649e-05
6.9284e-06
9.09718e-06
3.35906e-05
6.10184e-05
6.02679e-05
3.22158e-05
1.15938e-05
7.39691e-06
1.38201e-05
2.87912e-05
5.98388e-05
3.38652e-05
9.33419e-06
1.17855e-05
3.15124e-05
5.78687e-05
2.79469e-05
1.34022e-05
7.33486e-06
9.24562e-06
3.26557e-05
5.60495e-05
5.51282e-05
3.12472e-05
1.16843e-05
7.44946e-06
1.34688e-05
2.71703e-05
5.50112e-05
3.22842e-05
9.35796e-06
1.17775e-05
3.04001e-05
5.34172e-05
2.66134e-05
1.32905e-05
7.37444e-06
9.19062e-06
3.07467e-05
5.25557e-05
5.15814e-05
2.989e-05
1.17617e-05
7.37337e-06
1.26875e-05
2.57675e-05
5.08871e-05
3.04012e-05
9.19141e-06
1.17387e-05
2.89029e-05
4.97537e-05
2.53526e-05
1.2563e-05
7.23072e-06
8.85504e-06
2.91991e-05
4.83445e-05
4.78223e-05
2.7784e-05
1.12343e-05
6.77392e-06
1.14088e-05
2.33436e-05
4.31908e-05
3.27283e-05
7.93049e-06
9.41122e-06
1.52616e-05
2.70982e-05
5.46176e-05
3.32194e-05
1.1204e-05
1.3579e-05
3.07844e-05
5.22051e-05
2.73235e-05
1.43936e-05
8.43089e-06
1.02891e-05
3.22823e-05
5.18397e-05
5.02028e-05
3.0045e-05
1.30631e-05
8.29266e-06
1.4152e-05
2.63364e-05
5.09137e-05
3.17918e-05
1.01618e-05
1.28264e-05
2.99912e-05
4.95483e-05
2.59106e-05
1.39587e-05
8.08624e-06
9.81896e-06
3.05708e-05
4.82148e-05
4.67888e-05
2.81485e-05
1.25333e-05
7.91359e-06
1.36448e-05
2.48568e-05
4.60751e-05
2.90377e-05
9.43367e-06
1.1835e-05
2.67737e-05
4.43139e-05
2.24457e-05
1.19985e-05
7.04983e-06
8.03465e-06
3.02567e-05
3.9447e-05
2.50189e-05
1.50578e-05
9.45489e-06
1.09679e-05
2.92048e-05
4.66469e-05
4.43704e-05
2.6882e-05
1.33092e-05
8.15856e-06
1.38808e-05
2.39268e-05
4.32309e-05
2.80424e-05
9.64548e-06
1.21756e-05
2.62461e-05
4.10476e-05
2.20122e-05
1.25414e-05
7.46588e-06
8.32109e-06
2.92528e-05
3.73993e-05
2.43509e-05
1.5039e-05
9.79628e-06
1.13366e-05
2.8984e-05
4.48447e-05
4.23166e-05
2.6441e-05
1.363e-05
8.32254e-06
1.39537e-05
2.33763e-05
4.20707e-05
2.76408e-05
9.8434e-06
1.23058e-05
2.52749e-05
3.98042e-05
2.14242e-05
1.24448e-05
7.43056e-06
8.29538e-06
2.79304e-05
3.54717e-05
2.32932e-05
1.47418e-05
9.74412e-06
1.10828e-05
2.74484e-05
4.23961e-05
3.99129e-05
2.51527e-05
1.33128e-05
8.1553e-06
1.37302e-05
2.2168e-05
3.91423e-05
2.59748e-05
9.73721e-06
1.20953e-05
2.38173e-05
3.71213e-05
2.01286e-05
1.25502e-05
7.40745e-06
8.13651e-06
2.60719e-05
3.28239e-05
2.18756e-05
1.42227e-05
9.56945e-06
1.08718e-05
2.57506e-05
3.91784e-05
3.64505e-05
2.32185e-05
1.29513e-05
7.56265e-06
1.24957e-05
2.0092e-05
3.25287e-05
2.64647e-05
8.24227e-06
9.62112e-06
1.45418e-05
2.18859e-05
3.89638e-05
2.52333e-05
1.08805e-05
1.3236e-05
2.3167e-05
3.64818e-05
2.01256e-05
1.28627e-05
7.91419e-06
8.49773e-06
2.55035e-05
3.21741e-05
2.19196e-05
1.47153e-05
9.866e-06
1.09986e-05
2.55122e-05
3.86075e-05
3.5912e-05
2.30403e-05
1.32677e-05
7.84372e-06
1.27453e-05
1.98347e-05
3.17328e-05
2.58687e-05
8.31278e-06
9.79285e-06
1.46057e-05
2.15959e-05
3.78736e-05
2.48645e-05
1.10514e-05
1.32593e-05
2.26496e-05
3.53956e-05
1.98364e-05
1.27889e-05
7.88144e-06
8.49923e-06
2.58954e-05
3.13199e-05
2.15082e-05
1.4849e-05
9.85844e-06
1.08896e-05
2.45748e-05
3.73363e-05
3.45985e-05
2.22931e-05
1.29296e-05
7.76749e-06
1.27886e-05
1.92224e-05
3.02701e-05
2.55601e-05
8.13803e-06
9.24564e-06
1.43625e-05
2.08644e-05
3.29097e-05
2.50951e-05
9.55206e-06
1.08974e-05
1.52543e-05
2.24174e-05
3.77899e-05
2.458e-05
1.1806e-05
1.37323e-05
2.23237e-05
3.4926e-05
1.97706e-05
1.29761e-05
8.05628e-06
8.57578e-06
2.54612e-05
3.08314e-05
2.1334e-05
1.5005e-05
1.00411e-05
1.10686e-05
2.41309e-05
3.63763e-05
3.38263e-05
2.18984e-05
1.30782e-05
7.78799e-06
1.2847e-05
1.90042e-05
2.95302e-05
2.49058e-05
8.18186e-06
9.34949e-06
1.43569e-05
2.06145e-05
3.21165e-05
2.46027e-05
9.62113e-06
1.07225e-05
1.53378e-05
2.21385e-05
3.69583e-05
2.4089e-05
1.16056e-05
1.37187e-05
2.20686e-05
3.41553e-05
1.94547e-05
1.29215e-05
8.07776e-06
8.47891e-06
2.52335e-05
2.99455e-05
2.12014e-05
1.51221e-05
9.75583e-06
9.91581e-06
2.53968e-05
3.2699e-05
2.25598e-05
1.58492e-05
1.10663e-05
1.187e-05
2.41484e-05
3.72876e-05
3.43461e-05
2.19585e-05
1.38778e-05
8.20889e-06
1.32612e-05
1.96195e-05
2.99521e-05
2.56309e-05
8.50854e-06
9.68894e-06
1.4983e-05
2.11641e-05
3.23926e-05
2.53086e-05
9.94865e-06
1.11397e-05
1.58048e-05
2.24916e-05
3.70418e-05
2.41977e-05
1.20501e-05
1.40843e-05
2.21541e-05
3.42012e-05
1.9767e-05
1.33419e-05
8.35511e-06
8.80131e-06
2.54365e-05
3.00336e-05
2.14104e-05
1.53612e-05
1.00375e-05
1.0172e-05
2.54482e-05
3.25768e-05
2.26808e-05
1.59955e-05
1.11555e-05
1.18367e-05
2.40588e-05
3.69398e-05
3.40302e-05
2.19252e-05
1.37165e-05
8.01511e-06
1.28482e-05
1.93935e-05
2.9119e-05
2.49973e-05
8.44012e-06
9.59113e-06
1.49135e-05
2.07338e-05
3.14144e-05
2.49181e-05
9.87531e-06
1.09235e-05
1.55604e-05
2.19059e-05
3.55029e-05
2.33197e-05
1.17777e-05
1.3807e-05
2.1449e-05
3.28391e-05
1.90819e-05
1.27881e-05
8.15039e-06
8.5748e-06
2.45478e-05
2.87272e-05
2.05802e-05
1.47801e-05
9.61001e-06
9.72455e-06
2.43395e-05
3.08929e-05
2.18179e-05
1.54542e-05
1.06808e-05
1.05072e-05
2.47959e-05
3.22043e-05
2.27074e-05
1.64451e-05
1.16003e-05
1.23844e-05
2.40746e-05
3.61275e-05
3.31335e-05
2.18997e-05
1.42261e-05
8.38455e-06
1.34696e-05
1.92996e-05
2.89592e-05
2.50649e-05
8.55782e-06
9.6463e-06
1.4797e-05
2.06869e-05
3.06048e-05
2.40503e-05
9.79941e-06
1.06574e-05
1.53752e-05
2.17868e-05
3.1799e-05
2.45742e-05
1.05638e-05
1.16335e-05
1.63397e-05
2.25643e-05
3.56009e-05
2.37956e-05
1.228e-05
1.42308e-05
2.18999e-05
3.28677e-05
1.94495e-05
1.32583e-05
8.42403e-06
8.73317e-06
2.49631e-05
2.87686e-05
2.08029e-05
1.50761e-05
9.86723e-06
1.00338e-05
2.41908e-05
3.08421e-05
2.20019e-05
1.57175e-05
1.09591e-05
1.08681e-05
2.49548e-05
3.20192e-05
2.28465e-05
1.66372e-05
1.18899e-05
1.25353e-05
2.40644e-05
3.57948e-05
3.29395e-05
2.2043e-05
1.44056e-05
8.44724e-06
1.32564e-05
1.95823e-05
2.8639e-05
2.48946e-05
8.74838e-06
9.83762e-06
1.50589e-05
2.08185e-05
3.03823e-05
2.41277e-05
9.84403e-06
1.06775e-05
1.53648e-05
2.16721e-05
3.12402e-05
2.42602e-05
1.0579e-05
1.1669e-05
1.63198e-05
2.24456e-05
3.47585e-05
2.34549e-05
1.23869e-05
1.42362e-05
2.15841e-05
3.22437e-05
1.92537e-05
1.37248e-05
8.5575e-06
8.86175e-06
2.45432e-05
2.82124e-05
2.06142e-05
1.50117e-05
9.93866e-06
1.00039e-05
2.41435e-05
3.00845e-05
2.16003e-05
1.54562e-05
1.07672e-05
1.03786e-05
2.39321e-05
3.08747e-05
2.22618e-05
1.59735e-05
1.12226e-05
1.10826e-05
2.49113e-05
3.16393e-05
2.27898e-05
1.68826e-05
1.20397e-05
1.25312e-05
2.38332e-05
3.50375e-05
3.23945e-05
2.18557e-05
1.43193e-05
8.33502e-06
1.29894e-05
1.94463e-05
2.78861e-05
2.43235e-05
8.72446e-06
9.83943e-06
1.49078e-05
2.0547e-05
2.94822e-05
2.36076e-05
1.00057e-05
1.08197e-05
1.53631e-05
2.14265e-05
3.03047e-05
2.36753e-05
1.05175e-05
1.13467e-05
1.59998e-05
2.2075e-05
3.13246e-05
2.46813e-05
1.11298e-05
1.20904e-05
1.68811e-05
2.27741e-05
3.49733e-05
2.3928e-05
1.27587e-05
1.47284e-05
2.21769e-05
3.24435e-05
1.9821e-05
1.37316e-05
8.81997e-06
9.18857e-06
2.51028e-05
2.83545e-05
2.08476e-05
1.533e-05
1.02352e-05
1.01639e-05
2.40787e-05
3.01102e-05
2.18427e-05
1.57207e-05
1.10495e-05
1.08481e-05
2.42703e-05
3.08994e-05
2.24671e-05
1.63184e-05
1.16127e-05
1.1304e-05
2.50931e-05
3.16952e-05
2.31035e-05
1.72071e-05
1.23263e-05
1.2956e-05
2.41213e-05
3.50053e-05
3.24483e-05
2.215e-05
1.4716e-05
8.72259e-06
1.35026e-05
1.98968e-05
2.8057e-05
2.44877e-05
9.14174e-06
1.01457e-05
1.52944e-05
2.09545e-05
2.96339e-05
2.39454e-05
1.01002e-05
1.09147e-05
1.55884e-05
2.17443e-05
3.02397e-05
2.37504e-05
1.0709e-05
1.15243e-05
1.61925e-05
2.2253e-05
3.11363e-05
2.47263e-05
1.1469e-05
1.24127e-05
1.71495e-05
2.28444e-05
3.44029e-05
2.40668e-05
1.30877e-05
1.49786e-05
2.22538e-05
3.21393e-05
1.9977e-05
1.38264e-05
8.93053e-06
9.28594e-06
2.48577e-05
2.82305e-05
2.10288e-05
1.5472e-05
1.03192e-05
1.03475e-05
2.40907e-05
2.97968e-05
2.19942e-05
1.59023e-05
1.12141e-05
1.09571e-05
2.41223e-05
3.06078e-05
2.25651e-05
1.64295e-05
1.1704e-05
1.15019e-05
2.49887e-05
3.13104e-05
2.30176e-05
1.71978e-05
1.23997e-05
1.29708e-05
2.39308e-05
3.43516e-05
3.19651e-05
2.20135e-05
1.4758e-05
8.69682e-06
1.34129e-05
1.97856e-05
2.74833e-05
2.4294e-05
9.18622e-06
1.01789e-05
1.52045e-05
2.07269e-05
2.88059e-05
2.34111e-05
1.02366e-05
1.11111e-05
1.56356e-05
2.15055e-05
2.94968e-05
2.34477e-05
1.08338e-05
1.15355e-05
1.61445e-05
2.20167e-05
3.02133e-05
2.42219e-05
1.12701e-05
1.19744e-05
1.67e-05
2.26025e-05
3.11905e-05
2.51071e-05
1.17268e-05
1.27036e-05
1.75305e-05
2.32066e-05
3.45886e-05
2.43451e-05
1.35107e-05
1.54292e-05
2.25493e-05
3.23738e-05
2.03165e-05
1.45029e-05
9.34488e-06
9.70088e-06
2.52275e-05
2.84136e-05
2.14711e-05
1.59816e-05
1.0795e-05
1.08782e-05
2.45245e-05
3.00168e-05
2.23952e-05
1.64149e-05
1.16969e-05
1.14859e-05
2.46865e-05
3.08556e-05
2.30302e-05
1.69283e-05
1.22104e-05
1.19693e-05
2.54149e-05
3.17941e-05
2.36944e-05
1.78548e-05
1.29855e-05
1.36894e-05
2.46628e-05
3.48873e-05
3.24522e-05
2.27479e-05
1.55131e-05
9.3371e-06
1.43895e-05
2.04486e-05
2.83079e-05
2.51709e-05
9.73521e-06
1.08079e-05
1.59725e-05
2.15571e-05
2.95728e-05
2.43633e-05
1.07563e-05
1.15371e-05
1.62414e-05
2.22717e-05
3.0096e-05
2.42094e-05
1.14227e-05
1.2119e-05
1.67717e-05
2.27271e-05
3.08382e-05
2.49064e-05
1.19051e-05
1.28703e-05
1.76255e-05
2.32269e-05
3.3941e-05
2.41839e-05
1.37104e-05
1.5665e-05
2.25249e-05
3.18307e-05
2.03248e-05
1.46549e-05
9.52025e-06
9.8573e-06
2.50032e-05
2.80418e-05
2.15123e-05
1.61296e-05
1.09999e-05
1.11131e-05
2.45039e-05
2.95945e-05
2.24489e-05
1.65781e-05
1.19084e-05
1.16476e-05
2.45784e-05
3.03748e-05
2.30093e-05
1.7116e-05
1.24024e-05
1.22813e-05
2.52013e-05
3.13067e-05
2.3692e-05
1.80324e-05
1.32505e-05
1.39688e-05
2.46341e-05
3.43535e-05
3.2041e-05
2.27922e-05
1.57915e-05
9.58307e-06
1.46591e-05
2.05969e-05
2.82043e-05
2.52979e-05
9.90922e-06
1.09215e-05
1.60955e-05
2.16276e-05
2.93509e-05
2.43324e-05
1.10394e-05
1.1847e-05
1.64423e-05
2.23682e-05
2.99025e-05
2.42652e-05
1.16709e-05
1.24529e-05
1.70593e-05
2.28658e-05
3.0682e-05
2.49256e-05
1.22731e-05
1.33085e-05
1.80136e-05
2.34372e-05
3.37583e-05
2.4454e-05
1.42121e-05
1.61026e-05
2.28763e-05
3.17536e-05
2.08364e-05
1.50892e-05
9.92564e-06
1.03493e-05
2.53713e-05
2.83902e-05
2.19629e-05
1.66131e-05
1.13407e-05
1.14764e-05
2.52216e-05
2.99496e-05
2.29041e-05
1.71177e-05
1.22965e-05
1.20938e-05
2.51943e-05
3.08505e-05
2.34038e-05
1.77917e-05
1.31028e-05
1.39131e-05
2.40569e-05
3.35941e-05
3.13907e-05
2.24566e-05
1.57442e-05
9.57073e-06
1.44345e-05
2.03978e-05
2.75048e-05
2.44903e-05
1.00327e-05
1.10715e-05
1.62358e-05
2.14929e-05
2.88649e-05
2.45705e-05
1.12307e-05
1.20338e-05
1.66761e-05
2.23138e-05
2.97403e-05
2.4279e-05
1.2068e-05
1.31245e-05
1.75967e-05
2.28968e-05
3.25412e-05
2.37144e-05
1.39488e-05
1.58395e-05
2.22772e-05
3.06796e-05
2.02968e-05
1.50087e-05
9.83281e-06
1.01737e-05
2.48448e-05
2.74247e-05
2.14634e-05
1.6373e-05
1.12033e-05
1.14135e-05
2.43452e-05
2.89732e-05
2.24133e-05
1.69195e-05
1.23009e-05
1.2203e-05
2.45107e-05
2.98822e-05
2.29813e-05
1.76458e-05
1.30916e-05
1.38729e-05
2.36616e-05
3.24672e-05
3.0518e-05
2.21859e-05
1.57848e-05
9.59064e-06
1.43175e-05
2.02986e-05
2.69493e-05
2.40993e-05
1.00706e-05
1.11881e-05
1.62869e-05
2.1348e-05
2.83603e-05
2.43625e-05
1.14346e-05
1.22398e-05
1.68277e-05
2.22155e-05
2.93573e-05
2.40886e-05
1.22511e-05
1.3297e-05
1.77448e-05
2.28629e-05
3.22129e-05
2.36993e-05
1.4179e-05
1.6031e-05
2.24048e-05
3.04591e-05
2.05228e-05
1.49996e-05
9.93058e-06
1.04636e-05
2.47507e-05
2.74239e-05
2.16474e-05
1.66928e-05
1.15534e-05
1.17665e-05
2.47324e-05
2.90296e-05
2.27036e-05
1.73302e-05
1.26308e-05
1.27073e-05
2.46983e-05
3.00986e-05
2.34039e-05
1.82072e-05
1.36575e-05
1.44653e-05
2.41791e-05
3.28058e-05
3.09693e-05
2.27717e-05
1.63108e-05
1.0149e-05
1.52242e-05
2.09198e-05
2.76786e-05
2.49752e-05
1.06716e-05
1.17158e-05
1.69681e-05
2.20032e-05
2.93094e-05
2.48074e-05
1.21163e-05
1.32705e-05
1.79402e-05
2.30517e-05
3.21439e-05
2.38673e-05
1.43563e-05
1.62335e-05
2.26455e-05
3.053e-05
2.06167e-05
1.49702e-05
1.0126e-05
1.07298e-05
2.44935e-05
2.73853e-05
2.19293e-05
1.7001e-05
1.18671e-05
1.21437e-05
2.49239e-05
2.91526e-05
2.30167e-05
1.77402e-05
1.30126e-05
1.31907e-05
2.50387e-05
3.04438e-05
2.39339e-05
1.87708e-05
1.41799e-05
1.52098e-05
2.48897e-05
3.33998e-05
3.14883e-05
2.35065e-05
1.71398e-05
1.08129e-05
1.60755e-05
2.16076e-05
2.85246e-05
2.57853e-05
1.12427e-05
1.23558e-05
1.7712e-05
2.28388e-05
3.02872e-05
2.55661e-05
1.28202e-05
1.39124e-05
1.87294e-05
2.39229e-05
3.32844e-05
2.48312e-05
1.49522e-05
1.70218e-05
2.35976e-05
3.16787e-05
2.18497e-05
1.62889e-05
1.10597e-05
1.16399e-05
2.57811e-05
2.87441e-05
2.3052e-05
1.80511e-05
1.2678e-05
1.32031e-05
2.58567e-05
3.07203e-05
2.43608e-05
1.92152e-05
1.43433e-05
1.55844e-05
2.53482e-05
3.38166e-05
3.20731e-05
2.40263e-05
1.75666e-05
1.12362e-05
1.6515e-05
2.22203e-05
2.93457e-05
2.60681e-05
1.18791e-05
1.32399e-05
1.85775e-05
2.35419e-05
3.27917e-05
2.4999e-05
1.47056e-05
1.67539e-05
2.37466e-05
3.14299e-05
2.17521e-05
1.60471e-05
1.06964e-05
1.13347e-05
2.60704e-05
2.86016e-05
2.28375e-05
1.76761e-05
1.24686e-05
1.30292e-05
2.52268e-05
3.02014e-05
2.39836e-05
1.88467e-05
1.41981e-05
1.5411e-05
2.4777e-05
3.30551e-05
3.15693e-05
2.36148e-05
1.73537e-05
1.11875e-05
1.6419e-05
2.21034e-05
2.8916e-05
2.56212e-05
1.19833e-05
1.33268e-05
1.8675e-05
2.34474e-05
3.24051e-05
2.50441e-05
1.49372e-05
1.70186e-05
2.38974e-05
3.11691e-05
2.20063e-05
1.63972e-05
1.11106e-05
1.18665e-05
2.5769e-05
2.87432e-05
2.31398e-05
1.84301e-05
1.3079e-05
1.44381e-05
2.44195e-05
3.20066e-05
3.08093e-05
2.32568e-05
1.65359e-05
1.08105e-05
1.59185e-05
2.14802e-05
2.82257e-05
2.50077e-05
1.1777e-05
1.31047e-05
1.82041e-05
2.28644e-05
3.15591e-05
2.43965e-05
1.46981e-05
1.68307e-05
2.33608e-05
3.0438e-05
2.16292e-05
1.61102e-05
1.10044e-05
1.18535e-05
2.51005e-05
2.81755e-05
2.29023e-05
1.8338e-05
1.31307e-05
1.45903e-05
2.43765e-05
3.15218e-05
3.03853e-05
2.32431e-05
1.66349e-05
1.08451e-05
1.59636e-05
2.14921e-05
2.8084e-05
2.58454e-05
1.16502e-05
1.29971e-05
1.80608e-05
2.26822e-05
3.13431e-05
2.39108e-05
1.47715e-05
1.69805e-05
2.30325e-05
3.0275e-05
2.16423e-05
1.64448e-05
1.13045e-05
1.22666e-05
2.5097e-05
2.8291e-05
2.31261e-05
1.87644e-05
1.35869e-05
1.52493e-05
2.48418e-05
3.19109e-05
3.08238e-05
2.38322e-05
1.73392e-05
1.14698e-05
1.66444e-05
2.21746e-05
2.88939e-05
2.55708e-05
1.24685e-05
1.38595e-05
1.91593e-05
2.3686e-05
3.28573e-05
2.56156e-05
1.57492e-05
1.79872e-05
2.47868e-05
3.18766e-05
2.29928e-05
1.76767e-05
1.2415e-05
1.44392e-05
2.55994e-05
3.14944e-05
3.06933e-05
2.45943e-05
1.68562e-05
1.15211e-05
1.69544e-05
2.22958e-05
2.94723e-05
2.59441e-05
1.26838e-05
1.406e-05
1.9392e-05
2.40971e-05