/*--------------------------------*- C++ -*----------------------------------*\
| =========                 |                                                 |
| \\      /  F ield         | OpenFOAM: The Open Source CFD Toolbox           |
|  \\    /   O peration     | Version:  v2006                                 |
|   \\  /    A nd           | Website:  www.openfoam.com                      |
|    \\/     M anipulation  |                                                 |
\*---------------------------------------------------------------------------*/
FoamFile
{
    version     2.0;
    format      ascii;
    class       volScalarField;
    location    "0.113";
    object      turbulenceProperties:I;
}
// * * * * * * * * * * * * * * * * * * * * * * * * * * * * * * * * * * * * * //

dimensions      [0 0 0 0 0 0 0];


internalField   nonuniform List<scalar> 
16277
(
0.149976
0.149976
0.149983
0.149986
0.149992
0.149991
0.149992
0.149995
0.150002
0.15001
0.150016
0.150018
0.150018
0.150017
0.150015
0.150013
0.150011
0.150009
0.150008
0.150007
0.150006
0.150005
0.150005
0.150004
0.150004
0.150003
0.150003
0.150003
0.150002
0.150002
0.150002
0.150002
0.150002
0.150002
0.150002
0.150002
0.150002
0.150002
0.150002
0.150002
0.150001
0.150001
0.150001
0.150001
0.150001
0.150001
0.150001
0.150001
0.150001
0.150001
0.150001
0.150001
0.150001
0.150001
0.150001
0.150001
0.150001
0.150001
0.150001
0.150001
0.150001
0.150001
0.150001
0.150001
0.150001
0.150001
0.150001
0.150001
0.15
0.15
0.15
0.15
0.15
0.15
0.149999
0.149999
0.149998
0.149997
0.149995
0.149995
0.149998
0.150005
0.150018
0.150031
0.150035
0.150024
0.150006
0.149987
0.149966
0.149968
0.149981
0.149977
0.149989
0.150008
0.149873
0.149304
0.14506
0.13908
0.145978
0.148746
0.14598
0.139197
0.133277
0.129405
0.135533
0.143821
0.139875
0.129547
0.125376
0.123121
0.127253
0.138208
0.13454
0.122608
0.120471
0.119191
0.121243
0.133289
0.130277
0.117866
0.11744
0.116713
0.117168
0.12941
0.126996
0.114913
0.115549
0.115164
0.114557
0.126377
0.124399
0.112922
0.11435
0.114173
0.11277
0.123969
0.122298
0.111519
0.113571
0.113516
0.111488
0.121994
0.120553
0.110494
0.113058
0.113089
0.110551
0.120351
0.119086
0.109736
0.112727
0.112809
0.10985
0.118957
0.11782
0.109151
0.112502
0.112616
0.109299
0.117745
0.116713
0.108685
0.112352
0.112489
0.10886
0.116682
0.115736
0.10831
0.112254
0.112407
0.108505
0.115741
0.114868
0.108006
0.112194
0.112358
0.108219
0.114905
0.114094
0.107762
0.112163
0.112336
0.10799
0.114157
0.113401
0.107571
0.112155
0.112337
0.107814
0.11349
0.112785
0.107427
0.112168
0.112356
0.107684
0.112899
0.112242
0.107327
0.112198
0.112394
0.1076
0.112381
0.111771
0.107272
0.112246
0.112448
0.10756
0.111934
0.111369
0.10726
0.11231
0.11252
0.107565
0.111556
0.111032
0.107291
0.11239
0.112608
0.107613
0.111242
0.110757
0.107364
0.112486
0.112712
0.107702
0.11099
0.110542
0.107476
0.112599
0.112833
0.10783
0.110797
0.110383
0.107626
0.112727
0.11297
0.107998
0.11066
0.11028
0.107814
0.112871
0.113124
0.108203
0.110579
0.11023
0.108038
0.11303
0.113293
0.108446
0.110552
0.110233
0.108299
0.113205
0.113478
0.108725
0.110578
0.110288
0.108595
0.113396
0.11368
0.109042
0.110656
0.110395
0.108928
0.113603
0.113898
0.109396
0.110788
0.110554
0.109299
0.113825
0.114132
0.109789
0.110972
0.110766
0.109707
0.114064
0.114383
0.11022
0.11121
0.11103
0.110154
0.114319
0.114651
0.110692
0.111502
0.111349
0.11064
0.11459
0.114935
0.111205
0.111848
0.111721
0.111167
0.114875
0.115234
0.111759
0.112249
0.112148
0.111736
0.115175
0.115547
0.112355
0.112704
0.112627
0.112344
0.115487
0.115872
0.11299
0.113212
0.113157
0.11299
0.115809
0.116204
0.113662
0.113769
0.113733
0.113669
0.116136
0.116541
0.114365
0.11437
0.114351
0.114377
0.116463
0.116874
0.115094
0.11501
0.115003
0.115107
0.116782
0.117195
0.115839
0.115678
0.115677
0.115846
0.117084
0.117494
0.116586
0.116363
0.11636
0.116581
0.117357
0.117756
0.117319
0.117045
0.11703
0.117292
0.117584
0.117965
0.118014
0.117702
0.117661
0.117952
0.117748
0.118097
0.11864
0.118304
0.118222
0.118528
0.117824
0.118132
0.11916
0.118814
0.118672
0.118984
0.117787
0.118037
0.119531
0.119191
0.118972
0.119276
0.117618
0.117757
0.119687
0.119392
0.119067
0.119301
0.117291
0.117289
0.119541
0.119349
0.118902
0.119016
0.116784
0.116625
0.119064
0.119022
0.118442
0.118398
0.116129
0.115785
0.118244
0.118387
0.117674
0.117449
0.115301
0.114826
0.11711
0.117455
0.116629
0.1162
0.114282
0.113753
0.115655
0.116221
0.115268
0.114595
0.113077
0.112522
0.113851
0.114676
0.113624
0.112689
0.111785
0.111302
0.111846
0.11293
0.111839
0.11067
0.110575
0.110161
0.109779
0.111081
0.109992
0.108639
0.109473
0.109133
0.107752
0.109212
0.108158
0.106689
0.108505
0.108246
0.105842
0.107385
0.106395
0.104875
0.10769
0.107512
0.104109
0.105656
0.104749
0.103216
0.107033
0.106928
0.102576
0.104078
0.103249
0.101771
0.106532
0.106492
0.101258
0.10266
0.101904
0.100547
0.106178
0.106193
0.10016
0.10142
0.100743
0.099547
0.105959
0.10602
0.0992792
0.100363
0.099767
0.098765
0.105857
0.105953
0.0986079
0.0994843
0.0989692
0.0981813
0.105849
0.105974
0.0981058
0.0987695
0.0983278
0.0977581
0.105921
0.106062
0.0977557
0.0981983
0.0978233
0.0974801
0.106051
0.1062
0.0975401
0.0977505
0.0974334
0.0973276
0.106224
0.106374
0.0974353
0.0974012
0.0971351
0.0972768
0.106422
0.106561
0.0974157
0.0971352
0.0969148
0.0973021
0.106619
0.106741
0.0974615
0.0969364
0.0967464
0.0973828
0.106816
0.106928
0.0975484
0.0967645
0.096597
0.0974948
0.107007
0.107093
0.0976561
0.0966122
0.0964545
0.097619
0.107178
0.107247
0.0977705
0.0964705
0.0963211
0.0977462
0.107331
0.107374
0.0978797
0.096339
0.0961936
0.0978641
0.107459
0.107496
0.0979821
0.0962104
0.0960501
0.0979639
0.107574
0.10761
0.0980723
0.0960665
0.095896
0.0980459
0.107664
0.107687
0.0981361
0.0959097
0.0957294
0.0981008
0.107726
0.107758
0.0981895
0.0957444
0.0955493
0.0981446
0.107786
0.107808
0.0982186
0.0955568
0.0953504
0.0981642
0.107826
0.107846
0.0982282
0.0953543
0.0951376
0.0981661
0.107858
0.107864
0.0982131
0.0951351
0.094913
0.0981437
0.107863
0.107881
0.098184
0.0949049
0.0946527
0.0981064
0.107889
0.107905
0.0981428
0.0946349
0.0943809
0.0980467
0.107888
0.107873
0.09807
0.0943826
0.0941368
0.097966
0.10785
0.107858
0.0979832
0.0940974
0.0937988
0.097871
0.107851
0.107845
0.0978735
0.0937568
0.0934668
0.0977203
0.107787
0.107677
0.0976844
0.0934237
0.093166
0.0976349
0.107653
0.107434
0.0972673
0.0928957
0.0926412
0.0971441
0.107006
0.106291
0.0955924
0.0918944
0.0928236
0.0958698
0.104162
0.105113
0.093393
0.0905867
0.0953299
0.100924
0.107145
0.112691
0.11635
0.120711
0.12352
0.125771
0.127336
0.128391
0.128919
0.12895
0.128436
0.127318
0.125554
0.122568
0.12026
0.115115
0.11026
0.105073
0.100394
0.0992566
0.101769
0.11601
0.131766
0.133801
0.117483
0.102762
0.103869
0.119165
0.135471
0.136375
0.120342
0.104677
0.105259
0.120965
0.137144
0.13734
0.121241
0.105459
0.105773
0.121475
0.137665
0.137815
0.12172
0.105932
0.10599
0.121767
0.137798
0.137803
0.121793
0.106084
0.10612
0.121796
0.137789
0.137763
0.12181
0.106207
0.106234
0.121803
0.137737
0.137705
0.12182
0.106328
0.106348
0.121807
0.137683
0.137643
0.121827
0.106435
0.106455
0.1218
0.137612
0.137587
0.121821
0.106547
0.106559
0.121779
0.137532
0.137504
0.121793
0.106658
0.106673
0.121772
0.137457
0.13742
0.121766
0.106774
0.106787
0.121761
0.137369
0.137328
0.121766
0.106886
0.106908
0.121778
0.13731
0.137264
0.121761
0.107011
0.107021
0.121747
0.137205
0.137169
0.12175
0.107135
0.107154
0.121751
0.137128
0.137082
0.121736
0.107259
0.10728
0.121738
0.137042
0.137003
0.121734
0.107391
0.107409
0.121723
0.136953
0.136903
0.121712
0.10752
0.107539
0.121711
0.136852
0.136818
0.121723
0.107663
0.107684
0.121726
0.136778
0.13673
0.12174
0.1078
0.107821
0.121727
0.136684
0.13665
0.121749
0.107942
0.107965
0.121744
0.13661
0.136583
0.121773
0.108093
0.108111
0.121732
0.136514
0.136478
0.121768
0.108239
0.108259
0.121767
0.136424
0.136396
0.121809
0.108384
0.108406
0.121791
0.136356
0.136325
0.121823
0.108539
0.108561
0.121812
0.136269
0.136233
0.121854
0.108684
0.108697
0.121824
0.136172
0.136153
0.121884
0.10882
0.108832
0.121882
0.136115
0.136097
0.121929
0.10895
0.108959
0.121897
0.136052
0.136008
0.121931
0.109067
0.109066
0.121924
0.135959
0.135941
0.121979
0.10917
0.109159
0.121955
0.135902
0.135877
0.121995
0.109251
0.109233
0.121998
0.13585
0.135822
0.122026
0.109294
0.109251
0.121973
0.135773
0.135746
0.121977
0.10929
0.109235
0.121934
0.135699
0.135686
0.121918
0.109245
0.109159
0.121855
0.13564
0.135601
0.121787
0.109121
0.109007
0.121705
0.135552
0.135489
0.121583
0.108907
0.108753
0.121458
0.135441
0.135376
0.121283
0.108599
0.108407
0.121082
0.135316
0.135243
0.120844
0.108203
0.107938
0.120536
0.135146
0.13502
0.120176
0.107687
0.107328
0.119799
0.13489
0.134731
0.119344
0.107004
0.106548
0.11882
0.134577
0.134396
0.118227
0.106156
0.105583
0.117468
0.134133
0.133861
0.116653
0.105133
0.104515
0.115768
0.133549
0.133205
0.114845
0.104019
0.103319
0.113832
0.132827
0.132459
0.112779
0.102744
0.101938
0.111482
0.132035
0.131552
0.11014
0.101308
0.100482
0.108572
0.130952
0.130287
0.10705
0.0998142
0.0989366
0.105366
0.129624
0.128949
0.103662
0.0982036
0.0973574
0.101681
0.128098
0.126818
0.099779
0.096551
0.0957518
0.0980959
0.125353
0.124051
0.0961228
0.0951079
0.0945534
0.0943206
0.122881
0.121681
0.0932457
0.0945533
0.0942794
0.092346
0.120596
0.11964
0.0909892
0.0946151
0.094629
0.090261
0.11854
0.117304
0.0896685
0.0952985
0.0956098
0.0893679
0.116091
0.115178
0.0897607
0.0968705
0.0974421
0.0898116
0.114338
0.113493
0.0910613
0.0991867
0.100358
0.0925481
0.112426
0.112448
0.0958797
0.103358
0.105058
0.0987382
0.113542
0.13254
0.091435
0.0856715
0.0975297
0.0949201
0.126706
0.125729
0.0916607
0.0966779
0.0975605
0.0907498
0.125477
0.124244
0.0894597
0.0970431
0.0983933
0.0891856
0.122795
0.120978
0.0884945
0.0984019
0.100952
0.0893514
0.119161
0.117349
0.0894348
0.101264
0.104317
0.0920373
0.115803
0.114654
0.0931963
0.105458
0.111174
0.0982652
0.114602
0.115205
0.101529
0.114153
0.0883325
0.0897554
0.127727
0.121934
0.094415
0.106286
0.107014
0.0936379
0.119155
0.117289
0.0965352
0.112688
0.114319
0.0972349
0.11585
0.115032
0.100706
0.118874
0.12103
0.10249
0.11446
0.116131
0.108342
0.126485
0.128421
0.112581
0.118625
0.128052
0.0935581
0.0972205
0.120447
0.101244
0.121185
0.119608
0.100831
0.121951
0.128002
0.105757
0.119352
0.119028
0.107485
0.129602
0.138178
0.116044
0.120482
0.123571
0.122574
0.142102
0.108088
0.1004
0.127888
0.123304
0.111545
0.137695
0.141366
0.114257
0.121331
0.122847
0.125105
0.152558
0.15765
0.131611
0.12549
0.131663
0.142614
0.164207
0.126183
0.111446
0.12949
0.128595
0.129465
0.161648
0.165904
0.133447
0.128866
0.134787
0.152523
0.182366
0.190019
0.163392
0.140768
0.134082
0.12678
0.152511
0.195846
0.15777
0.138258
0.141167
0.166805
0.206048
0.22985
0.195544
0.153707
0.161849
0.208487
0.240949
0.209701
0.166552
0.151515
0.170698
0.228581
0.267269
0.287651
0.249548
0.185136
0.174172
0.205555
0.265938
0.345792
0.302892
0.212138
0.245381
0.353945
0.398756
0.43819
0.347697
0.237625
0.414365
0.610751
0.648761
0.9183
0.847608
0.510924
1
1
1
0.82504
0.797018
0.508902
0.275466
0.424542
0.4717
0.342286
0.308857
0.213197
0.211387
0.276977
0.289225
0.23945
0.199206
0.171735
0.17768
0.216345
0.232952
0.192643
0.164804
0.149182
0.14972
0.17792
0.198301
0.187059
0.162079
0.142225
0.129722
0.126134
0.147278
0.166363
0.148488
0.136857
0.129361
0.12353
0.13869
0.155687
0.136724
0.12761
0.122614
0.127891
0.148872
0.1169
0.105304
0.122079
0.120814
0.120273
0.139857
0.133999
0.114198
0.117692
0.120188
0.0976964
0.104967
0.128093
0.109886
0.116578
0.115007
0.105812
0.122472
0.0974706
0.093956
0.119267
0.113847
0.103078
0.119322
0.113393
0.0996171
0.112988
0.118657
0.090727
0.0916466
0.111699
0.0976293
0.110912
0.110486
0.0941909
0.106045
0.086519
0.0870854
0.117168
0.108807
0.0931724
0.105313
0.1
0.0900082
0.108828
0.115888
0.0842374
0.082757
0.0997413
0.0889833
0.106294
0.107278
0.0862335
0.0949512
0.0795075
0.0815817
0.11474
0.104314
0.08667
0.0965181
0.0897224
0.0830636
0.104821
0.10903
0.080124
0.0839499
0.0745088
0.0802952
0.11685
0.104403
0.0784714
0.085016
0.0815057
0.0769079
0.107764
0.119447
0.0751204
0.0715774
0.0807695
0.0750831
0.102809
0.106765
0.0749794
0.0779045
0.0693886
0.075682
0.116305
0.101258
0.0723359
0.076606
0.0743069
0.0723892
0.105147
0.117298
0.0721309
0.0668267
0.0736802
0.0704526
0.100658
0.104584
0.0711397
0.0716739
0.0657417
0.0712862
0.116862
0.0993796
0.0680866
0.0707919
0.0690323
0.0687974
0.103779
0.114667
0.0720558
0.063638
0.0684692
0.0667093
0.0984584
0.103419
0.0674935
0.0668974
0.0625605
0.0717887
0.113557
0.0980196
0.0647742
0.0654991
0.0643995
0.0657277
0.10388
0.114077
0.0721618
0.0609817
0.0635618
0.0646188
0.0999015
0.1097
0.0673193
0.0593844
0.0655826
0.0631392
0.0935783
0.0973484
0.0635481
0.0634394
0.0600799
0.0687772
0.108366
0.0938713
0.0630904
0.0635222
0.0621763
0.0633388
0.0989899
0.109529
0.0683965
0.0595028
0.0631907
0.0626274
0.0930517
0.0978072
0.0622063
0.0612034
0.059142
0.0693851
0.109384
0.0941376
0.0615532
0.0605772
0.0591489
0.0610967
0.0995359
0.111238
0.0701144
0.0579184
0.0587156
0.0605545
0.0943116
0.0996437
0.0597071
0.0566843
0.0566753
0.0720774
0.109495
0.0955961
0.0571788
0.0568292
0.055111
0.0654546
0.106237
0.0920218
0.0577993
0.056581
0.0548954
0.0575462
0.0971862
0.107555
0.0679991
0.0549693
0.0553247
0.0572703
0.0916062
0.0972826
0.0566852
0.0526148
0.053952
0.0705924
0.108167
0.0935878
0.0541128
0.0527488
0.0519977
0.0635861
0.104466
0.0893412
0.0547977
0.0529492
0.0511767
0.054795
0.0941098
0.104728
0.0665987
0.0524444
0.0528976
0.0551556
0.0895086
0.0955762
0.055061
0.0504122
0.0523642
0.0698257
0.106859
0.0926906
0.0520609
0.0502471
0.0501639
0.0626949
0.103863
0.0886505
0.052933
0.0508546
0.0487263
0.0531051
0.0936978
0.104549
0.066128
0.0504232
0.0500485
0.0528362
0.0891118
0.0948877
0.0531366
0.0477543
0.0506366
0.066873
0.109506
0.0923611
0.0498131
0.047368
0.0480029
0.0616842
0.103489
0.0876273
0.0503421
0.0480478
0.0460954
0.0512262
0.0930405
0.104134
0.0677021
0.0489907
0.0462348
0.0486072
0.0898271
0.101099
0.0605749
0.0469095
0.0468552
0.0491644
0.0857762
0.0918528
0.0500294
0.0451435
0.0486225
0.0663676
0.104185
0.0891929
0.0487
0.0457693
0.0465315
0.0604058
0.100196
0.0844545
0.0483991
0.0460944
0.0443651
0.0495807
0.0904419
0.103212
0.0658563
0.047875
0.0448883
0.0476142
0.0877359
0.0994017
0.0598623
0.0458255
0.0454928
0.0478129
0.0844875
0.0907635
0.049211
0.0438913
0.0476103
0.0668864
0.102358
0.0881886
0.0472051
0.0445401
0.0454487
0.0596462
0.0989853
0.0843207
0.0472713
0.0448887
0.0430981
0.0483766
0.0899277
0.104128
0.0647544
0.0470801
0.0436256
0.0464302
0.0882776
0.100197
0.0617953
0.0459264
0.0433307
0.0445866
0.0852751
0.0955616
0.0581709
0.0445749
0.0443211
0.0465079
0.0821813
0.0875009
0.0478722
0.0425791
0.0462706
0.0647135
0.0992654
0.0853994
0.0458478
0.0429775
0.0442619
0.0587894
0.096798
0.0826908
0.0459994
0.0435976
0.042042
0.0477069
0.0885964
0.102714
0.0640101
0.0462549
0.0425877
0.0456558
0.0874533
0.0994996
0.0609482
0.0451498
0.0423261
0.0437273
0.0853207
0.0945897
0.0572343
0.043508
0.042818
0.0451242
0.0804636
0.086302
0.0463732
0.0412245
0.0453464
0.0648926
0.0973464
0.0848992
0.0447455
0.0419553
0.0443465
0.0592707
0.0966663
0.0828171
0.0426297
0.0415843
0.0430957
0.0570241
0.0924849
0.0799868
0.0447436
0.0424598
0.0411788
0.0468159
0.0860252
0.0980671
0.0636117
0.0453895
0.0417744
0.0446702
0.0841677
0.0957108
0.0592419
0.0441983
0.0411975
0.0423705
0.0819136
0.0914204
0.0564183
0.0426497
0.0418
0.0440903
0.0784287
0.0841564
0.0457235
0.0404414
0.0446668
0.0636098
0.0952698
0.0830879
0.0441897
0.0412922
0.0438902
0.0587567
0.0946283
0.081885
0.0424014
0.0409753
0.0425901
0.0565914
0.0910553
0.0781604
0.0439152
0.0415058
0.0401774
0.0456335
0.0842147
0.0946494
0.0642376
0.0446015
0.0410998
0.043668
0.0838744
0.095327
0.058241
0.043625
0.0403777
0.0413272
0.0816214
0.0911297
0.056361
0.0422227
0.0408676
0.043378
0.0780372
0.0840743
0.0450805
0.0395962
0.0442176
0.0643852
0.0943083
0.0832394
0.0436293
0.0407545
0.0433336
0.0583203
0.0943416
0.0802047
0.0409962
0.0399035
0.0423814
0.0561317
0.0901054
0.0780323
0.0407934
0.0394718
0.0415023
0.0552892
0.0873935
0.0754505
0.0424833
0.0401117
0.0390447
0.0446954
0.0810365
0.0939167
0.0609993
0.043722
0.0399747
0.043234
0.0813216
0.0932021
0.0579327
0.0429413
0.039596
0.041083
0.0806329
0.0903286
0.0559921
0.0421443
0.0391202
0.0405122
0.0775168
0.0865154
0.0550867
0.04116
0.0395837
0.0421327
0.0746283
0.0804015
0.0437339
0.0384283
0.0430661
0.0620977
0.0906714
0.0801736
0.0424196
0.0395308
0.0422942
0.0568039
0.0915167
0.0786191
0.0400962
0.0389355
0.0415337
0.0549903
0.0881525
0.0763014
0.0399578
0.0385767
0.0407919
0.0546556
0.085281
0.0740988
0.0418785
0.03916
0.0381634
0.0436481
0.0796962
0.0894172
0.0619807
0.0429562
0.0392203
0.0421775
0.0796176
0.0907454
0.0563549
0.0420536
0.0385156
0.0395783
0.0780276
0.0878361
0.0548875
0.0412494
0.0381778
0.0397461
0.0760747
0.0851124
0.0542906
0.0404315
0.0385446
0.0412489
0.0734195
0.0788342
0.043401
0.0375964
0.0427702
0.0589378
0.0917289
0.0789805
0.0417855
0.0385198
0.0417842
0.056353
0.0900147
0.0772368
0.0393497
0.0381037
0.0409551
0.0543602
0.086728
0.0752509
0.0391339
0.0376997
0.0404212
0.0535336
0.0847446
0.0738049
0.0391698
0.0374576
0.0397967
0.0531541
0.0824541
0.0718647
0.0408597
0.0378826
0.0370805
0.0427668
0.0776849
0.0870125
0.0614001
0.0422963
0.0381942
0.0412005
0.0782338
0.0890683
0.0554006
0.0414443
0.0375741
0.0387802
0.0766712
0.0860927
0.0539679
0.0405476
0.0371856
0.0387185
0.0744497
0.0835471
0.0530485
0.0399247
0.0369372
0.0387193
0.0728883
0.081385
0.0525439
0.0392042
0.0372774
0.040174
0.0705095
0.0758679
0.0418102
0.0364163
0.0415073
0.0591158
0.0857686
0.0753675
0.0404406
0.0374859
0.040883
0.0546137
0.0860661
0.0740997
0.0384812
0.0371094
0.0400561
0.052908
0.0835278
0.0726619
0.038264
0.0367735
0.0396341
0.0524028
0.0816381
0.0713328
0.0385234
0.036676
0.0389706
0.0517338
0.0796174
0.0694879
0.0398289
0.036935
0.0362038
0.0417067
0.074914
0.0838822
0.0593512
0.0413311
0.0371457
0.0402072
0.0755211
0.0858622
0.0538673
0.0404777
0.0365341
0.0378422
0.074324
0.0835766
0.0523693
0.0397568
0.0361696
0.0375807
0.0725416
0.0812868
0.0517127
0.0391407
0.0359863
0.0377219
0.0708347
0.07881
0.0513669
0.0384958
0.036347
0.0392588
0.0683589
0.0737415
0.0410982
0.0356279
0.040756
0.0580787
0.083098
0.0737796
0.0397115
0.0365029
0.0400284
0.0531996
0.0840284
0.0724838
0.0373395
0.0359875
0.0391572
0.0514303
0.0814387
0.0708404
0.0371126
0.0356746
0.0387271
0.0508392
0.0793875
0.0694835
0.0373094
0.0355058
0.0381014
0.0506035
0.0774931
0.0675174
0.0387829
0.035762
0.0351659
0.0408155
0.0732375
0.0817438
0.0585151
0.0405923
0.0361442
0.0391899
0.073747
0.08365
0.052868
0.0397908
0.0353336
0.0368813
0.0720744
0.0809341
0.051084
0.0388048
0.0349737
0.0365575
0.0704959
0.0790643
0.050408
0.0382652
0.0348617
0.0365928
0.0690562
0.0773329
0.049987
0.0380114
0.0347839
0.0367408
0.0676021
0.0753594
0.0495794
0.037305
0.035006
0.0379226
0.0654145
0.0706945
0.0398134
0.0343879
0.0396864
0.0550765
0.0808633
0.0705001
0.0384006
0.0352088
0.0388695
0.0515231
0.0801243
0.0692345
0.0363275
0.0347486
0.0380555
0.0498174
0.0775817
0.0675361
0.0361156
0.0345381
0.0376651
0.0492924
0.0755159
0.066181
0.0364591
0.0344768
0.0371009
0.048713
0.0737012
0.0644005
0.0374738
0.0345856
0.0340678
0.0394109
0.0698702
0.0790023
0.0553075
0.0394197
0.0349594
0.0381535
0.0698276
0.0793717
0.0510943
0.0387342
0.034333
0.0360932
0.0689336
0.0772064
0.0494536
0.037793
0.0339407
0.0356479
0.0673225
0.0750931
0.0487297
0.0372606
0.0337105
0.0356866
0.0656642
0.0732418
0.0481906
0.0365169
0.0337889
0.0367728
0.063619
0.0690329
0.0387604
0.0332675
0.0388917
0.0538762
0.0789446
0.0685655
0.0375955
0.0341448
0.0380076
0.0503967
0.0777349
0.0673018
0.0355335
0.0336399
0.0371468
0.0486445
0.0752069
0.0655122
0.0351114
0.0332937
0.0365805
0.0478151
0.0733071
0.0641686
0.0351435
0.0331466
0.0359869
0.0474287
0.0717737
0.0625162
0.0362282
0.0332137
0.0327282
0.0382885
0.067871
0.0767254
0.0537678
0.0383104
0.0337029
0.0370703
0.0676193
0.0766868
0.0497355
0.0376426
0.0331361
0.0350839
0.0664713
0.0745354
0.0483098
0.0368042
0.0328144
0.0348538
0.0649529
0.0728481
0.0475827
0.0363345
0.0326108
0.034767
0.0635744
0.0713094
0.0470911
0.0356184
0.0326667
0.0357436
0.062081
0.0673365
0.0376672
0.0321592
0.0378011
0.0529431
0.0759066
0.0666295
0.0366731
0.0331736
0.0370559
0.0490308
0.0751242
0.0649235
0.0346103
0.03263
0.0361601
0.0472659
0.072746
0.0630283
0.0341952
0.0322553
0.0354766
0.0467404
0.0708883
0.0621363
0.0355834
0.0322358
0.0318856
0.0376146
0.0678945
0.0755984
0.0541018
0.0379722
0.0330449
0.0368883
0.0671866
0.0758675
0.0490623
0.037111
0.0322998
0.0343145
0.0655053
0.0734673
0.0474797
0.0361282
0.0318471
0.0340377
0.0634474
0.0712199
0.0468266
0.0352723
0.0317052
0.0351229
0.0618007
0.0670378
0.037162
0.0312394
0.0374633
0.0517845
0.0765427
0.0659579
0.0358407
0.0322358
0.0363955
0.0483307
0.0744394
0.0637738
0.0336748
0.0316223
0.0355287
0.0467219
0.0720338
0.062797
0.033642
0.0313866
0.0350226
0.0464785
0.0707098
0.0614776
0.0349258
0.031296
0.0310206
0.0370715
0.067324
0.0742142
0.0537998
0.0374428
0.0321448
0.0363836
0.0658266
0.0748424
0.0483798
0.0364676
0.0314092
0.0334766
0.06418
0.0720758
0.0466117
0.0353592
0.0309198
0.0332614
0.0623429
0.070219
0.0460241
0.0344901
0.0307298
0.034301
0.0609751
0.0663672
0.0361801
0.0302893
0.0365784
0.0517419
0.073631
0.0643345
0.035258
0.0313781
0.0358492
0.0477759
0.0734943
0.0633481
0.0333419
0.0310491
0.0350667
0.0461781
0.0714035
0.0619846
0.0330479
0.0307853
0.0345125
0.0459015
0.0698999
0.0609015
0.0344036
0.0306683
0.0303855
0.0365908
0.0664166
0.0741005
0.0521477
0.0370315
0.03155
0.0356438
0.0645923
0.0730895
0.0477172
0.0359391
0.0308426
0.0333237
0.0627418
0.070597
0.0460376
0.0346201
0.0303146
0.0339606
0.0609626
0.0661159
0.0354866
0.029887
0.0365932
0.0522963
0.0732789
0.064036
0.035529
0.0310784
0.0357829
0.0476786
0.073104
0.0629671
0.0330977
0.0306651
0.0348074
0.0460047
0.0710328
0.061499
0.0327193
0.0303576
0.0341585
0.0455955
0.0693515
0.0602451
0.0339395
0.03015
0.0299089
0.0360982
0.0654986
0.0738674
0.0513723
0.0367334
0.0310504
0.0353516
0.063587
0.0720927
0.0473595
0.0356137
0.0304946
0.0330862
0.0619938
0.0697742
0.0456906
0.0343179
0.0299533
0.0335895
0.059703
0.0648687
0.0354721
0.0296281
0.0365777
0.0512298
0.0738378
0.0641471
0.0351107
0.0309407
0.0356479
0.0475956
0.072637
0.0625519
0.0332805
0.0304891
0.0344885
0.0460465
0.0703587
0.0608939
0.0338856
0.0300634
0.029852
0.036009
0.0660811
0.0742318
0.0518131
0.0368596
0.0309667
0.0354918
0.0637678
0.0720479
0.0477733
0.0354894
0.0302136
0.0341086
0.0617414
0.0668226
0.0358306
0.0298088
0.0367718
0.0514941
0.0748961
0.0635466
0.0346875
0.0307059
0.0357092
0.0476909
0.0724017
0.0626351
0.033293
0.0302082
0.0345939
0.0463512
0.0707669
0.0613199
0.0339102
0.0297864
0.0296302
0.0361794
0.0666939
0.0747289
0.0520566
0.0369466
0.0307481
0.0353515
0.0644287
0.0727461
0.0477339
0.0354178
0.0297668
0.0337819
0.0622272
0.0673006
0.0354907
0.029429
0.0367456
0.0518051
0.0754695
0.0644424
0.0347838
0.030439
0.0351203
0.0473904
0.0724488
0.0613593
0.0335867
0.0293684
0.0291602
0.0356877
0.0669249
0.076306
0.0523415
0.0370564
0.0305226
0.0350508
0.0652126
0.0736064
0.0482462
0.0355752
0.0294922
0.0338283
0.0627184
0.0680046
0.0356906
0.029245
0.0369141
0.0524484
0.0758676
0.0650147
0.0349972
0.0302808
0.0353385
0.0478166
0.0732515
0.0623888
0.0335701
0.0292466
0.028922
0.0353511
0.0674771
0.0757003
0.0518279
0.0365308
0.029865
0.033659
0.0631723
0.0715078
0.0472431
0.0349305
0.0287935
0.0333577
0.061615
0.0673406
0.0352306
0.0286995
0.0365821
0.0517153
0.076434
0.0649045
0.0344225
0.0298743
0.0349629
0.0475581
0.073073
0.0623106
0.0333285
0.0289017
0.0286723
0.0351851
0.0673615
0.0751902
0.0519263
0.0364355
0.0296969
0.0344721
0.0640443
0.07193
0.0470703
0.0345806
0.0283793
0.0326942
0.0603641
0.0643138
0.0334054
0.0278748
0.0352221
0.0504957
0.0730006
0.0629247
0.0342585
0.0287977
0.0286593
0.0357999
0.0684065
0.0775069
0.052379
0.0369809
0.0298671
0.0345079
0.0654959
0.0733801
0.0476561
0.0350295
0.0285305
0.0329597
0.0621971
0.066792
0.034663
0.0282614
0.0357065
0.0512887
0.0744699
0.0630848
0.0345754
0.0288544
0.0282251
0.0346926
0.0672464
0.0757023
0.0511623
0.035857
0.02859
0.0340905
0.0638316
0.0693416
0.0353698
0.0283429
0.0370033
0.0528169
0.0787586
0.0660385
0.0343247
0.0295863
0.0349634
0.0478063
0.0737255
0.062083
0.0327556
0.0281986
0.0279262
0.0343181
0.0664725
0.0738694
0.0509046
0.0353157
0.028343
0.0340653
0.0621021
0.0657282
0.0338538
0.0276854
0.03507
0.050032
0.0738176
0.0623459
0.033368
0.027953
0.0277754
0.034651
0.0676656
0.0763401
0.0519816
0.0358259
0.0284776
0.034518
0.0642033
0.0687191
0.0351487
0.0281473
0.0359395
0.0518401
0.0763944
0.0637478
0.0341663
0.0283154
0.0277772
0.0345586
0.0677413
0.0746764
0.0505354
0.0351495
0.0275237
0.0330255
0.0617433
0.0660771
0.0359684
0.0276571
0.0278507
0.0378364
0.0724465
0.080938
0.0550706
0.0372661
0.0285317
0.035198
0.0671903
0.0716609
0.0353984
0.0280137
0.0359749
0.0520432
0.0793175
0.0645601
0.0334388
0.0275026
0.0268511
0.0342829
0.0664114
0.0706984
0.0359787
0.0266589
0.0361838
0.053872
0.0802263
0.0668909
0.0341224
0.027426
0.0275921
0.0367381
0.0710169
0.0766787
0.0379617
0.0276969
0.0370487
0.0565407
0.0824348
0.0659744
0.0341074
0.0272902
0.0267221
0.034948
0.0678955
0.0730118
0.036335
0.0264747
0.0358495
0.0544974
0.0824674
0.0679544
0.0340209
0.0268119
0.0262608
0.0333419
0.0715006
0.0772808
0.0394166
0.0268893
0.0258927
0.0360589
0.0766141
0.0869922
0.0537094
0.0363497
0.0265381
0.0335434
0.0703608
0.0745115
0.034476
0.0262822
0.0263881
0.038465
0.079295
0.0820765
0.0361431
0.0254738
0.0259968
0.0406525
0.0852513
0.0891399
0.0401898
0.0252262
0.0364319
0.0569494
0.0993104
0.0734066
0.0338062
0.0258509
0.0252937
0.0338664
0.0750347
0.0800839
0.0377667
0.0253087
0.0252572
0.0382549
0.0859281
0.0914099
0.0397034
0.0255196
0.026046
0.0424425
0.0960514
0.100974
0.0448173
0.0266271
0.0272121
0.0470651
0.104819
0.106824
0.0494177
0.0277857
0.0282968
0.0514253
0.10801
0.108716
0.0536596
0.0288885
0.0294672
0.0558658
0.109101
0.10925
0.0584027
0.0302502
0.0309503
0.0608917
0.109306
0.109312
0.0633461
0.0319582
0.0328181
0.065752
0.10929
0.109264
0.0681104
0.0339864
0.0349775
0.0704146
0.109231
0.109216
0.0726563
0.0362699
0.0375022
0.0747076
0.109209
0.10922
0.0766888
0.0390168
0.040412
0.0784968
0.109236
0.109267
0.0802584
0.0420297
0.0434186
0.0819318
0.109311
0.109381
0.0835572
0.0450228
0.0464011
0.0850989
0.109465
0.109569
0.0865952
0.0479969
0.0493823
0.0880047
0.109678
0.109801
0.0893606
0.0509906
0.0523957
0.0906207
0.109924
0.110057
0.0918199
0.0540088
0.0554144
0.0929129
0.110186
0.110323
0.093949
0.0570159
0.0584022
0.0948835
0.110452
0.110583
0.0957627
0.059981
0.0613126
0.0965557
0.110701
0.110817
0.0973015
0.0628113
0.0640697
0.0979678
0.110918
0.111014
0.0985896
0.0654835
0.0666572
0.0991349
0.111094
0.111168
0.0996421
0.0679715
0.069041
0.100076
0.111227
0.111279
0.100472
0.0702408
0.0711985
0.100824
0.111318
0.111356
0.101146
0.072286
0.0731354
0.101402
0.111377
0.111394
0.101663
0.0741102
0.074855
0.101846
0.111401
0.111402
0.102042
0.0757191
0.0763618
0.102166
0.111394
0.11138
0.102302
0.0771178
0.0776628
0.102374
0.111361
0.111334
0.102459
0.0783175
0.0787759
0.102492
0.111306
0.111269
0.102536
0.0793376
0.0797181
0.102536
0.111234
0.11119
0.102546
0.0801973
0.080512
0.102523
0.111151
0.1111
0.102504
0.0809126
0.0811709
0.102461
0.111058
0.111003
0.10242
0.0815004
0.0817139
0.102364
0.110958
0.110899
0.102303
0.0819785
0.0821541
0.102235
0.110852
0.110792
0.102162
0.0823637
0.0825084
0.102087
0.110745
0.110686
0.102004
0.0826648
0.082783
0.10192
0.110638
0.110581
0.101832
0.082903
0.0829928
0.101743
0.110533
0.110477
0.101653
0.0830904
0.0831518
0.10156
0.110429
0.110375
0.101472
0.0832275
0.0832579
0.101379
0.110329
0.110276
0.101291
0.0833159
0.0833233
0.101197
0.110231
0.11018
0.10111
0.0833688
0.0833606
0.101018
0.110139
0.110089
0.10093
0.0833956
0.0833763
0.100841
0.110048
0.110001
0.100753
0.0834044
0.0833797
0.100669
0.109963
0.109917
0.100581
0.0833999
0.0833729
0.100501
0.10988
0.109837
0.100415
0.0833878
0.0833644
0.100341
0.109804
0.109762
0.100258
0.083374
0.083352
0.100189
0.10973
0.109691
0.10011
0.0833614
0.0833422
0.100047
0.109663
0.109626
0.0999725
0.0833511
0.0833343
0.0999153
0.109599
0.109563
0.0998455
0.0833439
0.0833321
0.0997943
0.10954
0.109507
0.0997306
0.0833435
0.0833354
0.0996851
0.109486
0.109454
0.0996268
0.0833485
0.0833455
0.0995869
0.109436
0.109407
0.0995344
0.0833608
0.0833624
0.0995
0.109391
0.109364
0.0994524
0.08338
0.0833866
0.0994233
0.10935
0.109325
0.0993809
0.0834068
0.0834177
0.0993566
0.109312
0.10929
0.0993187
0.0834401
0.0834554
0.0992987
0.109278
0.109258
0.0992649
0.0834807
0.0834984
0.0992482
0.109246
0.109229
0.0992177
0.0835248
0.0835468
0.099204
0.109217
0.109203
0.0991773
0.083574
0.0835989
0.0991654
0.109191
0.109179
0.0991425
0.0836266
0.0836545
0.0991318
0.109168
0.109157
0.0991129
0.0836828
0.0837127
0.0991031
0.109146
0.109136
0.0990876
0.0837412
0.0837734
0.0990786
0.109127
0.109116
0.0990663
0.083802
0.0838355
0.0990579
0.109109
0.109098
0.0990489
0.0838639
0.0838989
0.0990415
0.109093
0.109083
0.0990341
0.0839271
0.0839626
0.0990275
0.109078
0.109068
0.0990203
0.0839902
0.0840264
0.0990159
0.109064
0.109054
0.0990091
0.0840535
0.0840896
0.0990062
0.109051
0.109041
0.0989993
0.0841156
0.0841517
0.098998
0.109039
0.10903
0.0989912
0.084177
0.0842124
0.0989909
0.109027
0.109018
0.0989839
0.0842365
0.0842713
0.0989846
0.109017
0.109008
0.0989775
0.0842945
0.0843282
0.0989789
0.109007
0.108998
0.0989717
0.0843503
0.0843829
0.0989737
0.108997
0.108988
0.0989662
0.0844038
0.0844349
0.0989683
0.108987
0.108978
0.0989602
0.0844544
0.084484
0.0989626
0.108977
0.108969
0.0989541
0.0845023