/*--------------------------------*- C++ -*----------------------------------*\
| =========                 |                                                 |
| \\      /  F ield         | OpenFOAM: The Open Source CFD Toolbox           |
|  \\    /   O peration     | Version:  v2006                                 |
|   \\  /    A nd           | Website:  www.openfoam.com                      |
|    \\/     M anipulation  |                                                 |
\*---------------------------------------------------------------------------*/
FoamFile
{
    version     2.0;
    format      ascii;
    class       volScalarField;
    location    "0.046";
    object      alphat;
}
// * * * * * * * * * * * * * * * * * * * * * * * * * * * * * * * * * * * * * //

dimensions      [1 -1 -1 0 0 0 0];


internalField   nonuniform List<scalar> 
9148
(
136.94
790.606
2667.77
231.178
20.0598
3.87389
1.46814
0.839735
0.609293
0.503034
0.442612
0.398743
0.362322
0.331074
0.304374
0.281712
0.262485
0.246072
0.231908
0.219539
0.208623
0.198906
0.190206
0.182382
0.175327
0.168957
0.163202
0.158007
0.153325
0.149115
0.145342
0.141976
0.138991
0.136364
0.134079
0.13212
0.130479
0.129148
0.128124
0.127413
0.127024
0.12697
0.12727
0.127945
0.129027
0.130556
0.13258
0.135165
0.138392
0.142374
0.14726
0.153239
0.160511
0.169287
0.179693
0.192012
0.207238
0.22906
0.267778
0.351839
0.547263
0.974891
1.64393
4.01336
1.80569
1.1048
0.618617
0.321341
0.137036
0.026318
0.00484964
0.000163839
0.000142133
0.00235401
0.0103102
0.0066585
0.00174492
0.00012795
0.000114785
0.00148934
0.00527941
0.0044871
0.00135661
0.000107724
0.000100369
0.00123905
0.00399892
0.00359204
0.00116512
9.55426e-05
9.14448e-05
0.0011024
0.00337966
0.00315032
0.00105231
8.79838e-05
8.56895e-05
0.00103037
0.00303843
0.00286874
0.000989086
8.32836e-05
8.17578e-05
0.000977038
0.00280569
0.00267888
0.000943777
7.99209e-05
7.88181e-05
0.000936002
0.00263323
0.00253038
0.000908139
7.73696e-05
7.65217e-05
0.000902222
0.0024952
0.00240768
0.000878518
7.53411e-05
7.46572e-05
0.000873364
0.0023797
0.00230306
0.000852845
7.36593e-05
7.30872e-05
0.000848274
0.00228031
0.00221185
0.000830041
7.22175e-05
7.17232e-05
0.000825906
0.00219282
0.00213097
0.000809388
7.09452e-05
7.05065e-05
0.000805591
0.00211435
0.00205813
0.000790373
6.9795e-05
6.93971e-05
0.000786886
0.00204336
0.00199169
0.00077269
6.87352e-05
6.8368e-05
0.000769476
0.00197838
0.00193046
0.000756085
6.77434e-05
6.73998e-05
0.000753106
0.00191833
0.00187354
0.000740348
6.68032e-05
6.64773e-05
0.000737565
0.00186235
0.00182018
0.000725302
6.59006e-05
6.55875e-05
0.000722682
0.00180976
0.00176981
0.000710798
6.50237e-05
6.47187e-05
0.000708312
0.00175999
0.00172192
0.000696707
6.41614e-05
6.38606e-05
0.000694329
0.00171259
0.0016761
0.000682917
6.33044e-05
6.30044e-05
0.000680622
0.00166713
0.00163196
0.00066932
6.24447e-05
6.21434e-05
0.00066708
0.00162325
0.00158912
0.000655814
6.15766e-05
6.12728e-05
0.000653595
0.00158059
0.00154728
0.000642293
6.06961e-05
6.03889e-05
0.00064006
0.00153883
0.00150615
0.000628652
5.97995e-05
5.9488e-05
0.000626369
0.00149766
0.00146543
0.000614794
5.88826e-05
5.85651e-05
0.000612416
0.0014568
0.00142481
0.000600623
5.79396e-05
5.76138e-05
0.000598108
0.00141595
0.001384
0.000586036
5.69627e-05
5.66259e-05
0.000583348
0.00137485
0.00134273
0.00057091
5.59433e-05
5.55921e-05
0.000567971
0.00133314
0.00130054
0.000555047
5.48694e-05
5.44979e-05
0.000551807
0.00129038
0.00125697
0.000538259
5.37259e-05
5.33298e-05
0.000534576
0.00124603
0.00121133
0.0005202
5.24993e-05
5.20722e-05
0.000515893
0.00119934
0.00116269
0.000500427
5.11738e-05
5.07049e-05
0.000495243
0.00114928
0.00111019
0.000478342
4.97356e-05
4.91979e-05
0.000471841
0.00109454
0.00105199
0.0004534
4.81814e-05
4.75125e-05
0.000443755
0.00103277
0.000985298
0.000423923
4.6462e-05
4.56012e-05
0.000409337
0.000959027
0.000905873
0.000387035
4.45115e-05
4.33552e-05
0.000364841
0.000866081
0.000805678
0.00033806
4.21184e-05
4.0687e-05
0.000300507
0.000740336
0.000664049
0.000265007
4.09562e-05
3.42501e-05
0.000186646
0.000551738
0.000358378
7.03222e-05
1.5401e-05
2.53139e-05
6.0738e-05
0.000187369
0.000179764
0.000167305
3.65837e-05
4.10146e-05
0.000270168
0.000355127
0.000476973
0.000348874
3.92733e-05
3.18121e-05
0.000391632
0.000550355
0.000540198
0.000242712
1.49027e-05
6.62969e-06
5.80153e-05
0.000196211
0.000100035
3.05222e-05
3.94408e-06
3.07847e-06
2.44648e-05
8.45672e-05
7.92046e-05
2.01882e-05
2.85118e-06
5.86608e-06
2.65666e-05
0.000100386
0.000118522
3.32326e-05
8.88488e-06
1.18404e-05
4.78842e-05
0.000163319
0.000183606
5.52988e-05
1.30556e-05
1.27022e-05
6.48486e-05
0.000202722
0.000199639
6.45205e-05
1.19815e-05
1.11624e-05
6.20802e-05
0.00018544
0.000158621
5.40228e-05
9.68991e-06
8.85161e-06
4.93512e-05
0.000145372
0.000132499
4.42148e-05
8.50742e-06
9.1405e-06
4.16152e-05
0.000133067
0.000137654
4.28138e-05
1.0516e-05
1.22543e-05
4.52338e-05
0.00014641
0.000159671
4.94382e-05
1.38801e-05
1.50366e-05
5.42441e-05
0.000174216
0.000194754
6.02191e-05
1.60849e-05
1.69683e-05
6.58253e-05
0.000212507
0.000239624
7.25529e-05
1.77214e-05
1.83161e-05
7.84767e-05
0.000258983
0.000290502
8.61294e-05
1.88028e-05
1.91456e-05
9.21167e-05
0.000309329
0.000342733
0.000100136
1.94094e-05
1.95513e-05
0.000106123
0.000360225
0.000392148
0.000113464
1.95531e-05
1.94789e-05
0.000118945
0.000406403
0.000431115
0.000125329
1.94052e-05
1.91216e-05
0.000127006
0.000439664
0.000455558
0.000130389
1.88047e-05
1.83329e-05
0.000129005
0.000456477
0.00046232
0.000130631
1.78174e-05
1.71313e-05
0.000125575
0.000449095
0.000441904
0.000124687
1.64147e-05
1.54789e-05
0.000115248
0.000409403
0.000388799
0.000112309
1.45379e-05
1.33383e-05
0.000100016
0.000336346
0.000308573
9.62402e-05
1.19656e-05
9.06045e-06
8.48369e-05
0.000249643
0.000221672
8.29536e-05
6.83158e-06
3.90184e-06
6.80061e-05
0.000157776
0.00013379
6.5652e-05
2.41442e-06
3.5763e-06
7.82839e-05
9.95784e-05
0.000127574
0.000156645
0.000153397
0.000153461
0.00014399
0.000141232
0.000136091
0.000134548
0.000132836
0.00013321
0.000134157
0.000136792
0.000140756
0.000146101
0.000152178
0.000159487
0.000166812
0.000172677
0.000193845
0.000186922
8.32763e-05
1.19522e-05
1.97659e-05
2.33789e-05
1.90675e-05
1.2201e-05
6.45052e-07
9.68748e-08
7.77444e-07
5.43563e-06
1.14829e-05
7.80653e-07
7.6607e-08
1.69614e-07
9.03344e-07
1.46665e-05
1.67334e-05
8.65847e-07
1.59492e-07
1.63601e-07
9.04681e-07
1.83561e-05
1.38005e-05
7.11431e-07
1.19307e-07
1.00101e-07
7.62625e-07
1.54001e-05
1.83357e-05
1.00527e-06
1.13421e-07
2.52268e-07
4.74812e-06
5.60802e-05
6.57481e-05
8.31274e-06
4.69959e-07
4.857e-07
7.70863e-06
5.5189e-05
3.83644e-05
5.20194e-06
4.16962e-07
2.50404e-07
2.07902e-06
1.48784e-05
1.4243e-05
1.45727e-06
1.66517e-07
1.31039e-07
2.75538e-06
2.63498e-05
3.43389e-05
3.70318e-06
1.23331e-07
7.45338e-08
5.20451e-06
4.72034e-05
5.5193e-05
6.98174e-06
1.33061e-07
3.79487e-07
1.13989e-05
7.36299e-05
7.83056e-05
1.3451e-05
7.03845e-07
1.20634e-06
1.88189e-05
9.92229e-05
0.000102914
2.02567e-05
1.69594e-06
2.34821e-06
2.61996e-05
0.000125848
0.000128848
2.72462e-05
2.92748e-06
3.6861e-06
3.35461e-05
0.000153888
0.000156042
3.41627e-05
4.33037e-06
5.16383e-06
4.09694e-05
0.000183655
0.000184971
4.08989e-05
5.88686e-06
6.87445e-06
4.88645e-05
0.000217626
0.000220015
4.89039e-05
7.76364e-06
9.03646e-06
5.97126e-05
0.000261347
0.000266994
6.09699e-05
1.02046e-05
1.16456e-05
7.9038e-05
0.00032605
0.000332187
8.11618e-05
1.24356e-05
1.3754e-05
0.000105354
0.000409965
0.000416208
0.000107521
1.45824e-05
1.63564e-05
0.000137799
0.000513
0.000529878
0.000146526
1.76902e-05
2.03542e-05
0.000190451
0.000647797
0.000677896
0.000205719
2.24611e-05
2.69882e-05
0.000263878
0.00081246
0.00087166
0.000285097
3.27256e-05
2.67474e-05
0.000359771
0.000943232
0.000329711
7.98364e-05
8.89481e-06
1.99316e-05
0.000303345
0.000924792
0.00106695
0.000352997
2.6773e-05
3.83537e-05
0.000474519
0.00135332
0.00157073
0.000569387
4.80211e-05
3.3141e-05
0.000518112
0.00142617
0.000965048
0.000306162
1.35903e-05
4.07975e-05
0.00056424
0.00152461
0.00165313
0.000964096
7.7381e-05
4.23516e-05
0.000298047
0.000915428
0.000994196
0.00051446
4.38102e-05
9.23055e-05
0.000766374
0.000977764
0.000893174
0.000826478
6.6436e-05
2.88704e-05
0.00022668
0.00053255
0.000515566
0.000331448
4.13e-05
5.26939e-05
0.000396337
0.000776107
0.000865709
0.000702745
5.42208e-05
4.39056e-05
0.000188585
0.000452166
0.000525776
0.000233226
3.87592e-05
6.60214e-05
0.000486255
0.000927885
0.000667805
0.000339889
6.79922e-05
3.87406e-05
0.00012754
0.00023901
0.000415586
0.000290461
3.92829e-05
3.66127e-05
0.000132511
0.000236301
0.000396465
0.000286559
3.75307e-05
3.62798e-05
0.000133947
0.000233961
0.00039223
0.000251106
3.72703e-05
4.18324e-05
0.000207032
0.000343294
0.000155226
8.1122e-05
2.65195e-05
2.63176e-05
0.000205652
0.000267991
0.000163009
9.51934e-05
2.79814e-05
2.82307e-05
0.000186119
0.000284736
0.000250892
0.000156959
3.14273e-05
2.23955e-05
6.30152e-05
0.000118795
0.000201529
0.0001597
2.12351e-05
2.39306e-05
7.3943e-05
0.000123499
0.000210481
0.000162545
2.21004e-05
2.47185e-05
7.65847e-05
0.000128997
0.000217104
0.000140088
2.28484e-05
2.64698e-05
0.000115772
0.000189357
9.03807e-05
5.0436e-05
1.96248e-05
1.7958e-05
0.000124674
0.000152436
9.45731e-05
6.05223e-05
2.12977e-05
1.86268e-05
0.000126745
0.000153741
9.56972e-05
6.24556e-05
2.16417e-05
1.8764e-05
0.000119349
0.000156133
9.63901e-05
6.17446e-05
2.15789e-05
1.88403e-05
0.000116358
0.000158086
9.85962e-05
6.28458e-05
2.1836e-05
1.96085e-05
0.00010507
0.000168116
0.000145776
8.92373e-05
2.37319e-05
1.8078e-05
4.77342e-05
7.4545e-05
0.000116602
9.67031e-05
1.60108e-05
2.00528e-05
5.52617e-05
7.62769e-05
0.000118986
9.91017e-05
1.67818e-05
2.02903e-05
5.67105e-05
7.75411e-05
0.000122089
9.35887e-05
1.69425e-05
2.02252e-05
5.67238e-05
7.93581e-05
0.000123766
9.37626e-05
1.66513e-05
2.01416e-05
5.66449e-05
7.96562e-05
0.000122336
9.29841e-05
1.67366e-05
1.99599e-05
5.72929e-05
7.94762e-05
0.000121749
9.14636e-05
1.64465e-05
2.00997e-05
5.77826e-05
7.98077e-05
0.000120718
9.24987e-05
1.65815e-05
1.99263e-05
5.79331e-05
7.94772e-05
0.000118792
9.08845e-05
1.63567e-05
2.00028e-05
5.83789e-05
7.91664e-05
0.000117163
9.08504e-05
1.64705e-05
1.98964e-05
5.8211e-05
7.82214e-05
0.000115293
8.94891e-05
1.6271e-05
1.99425e-05
5.85742e-05
7.74198e-05
0.000113256
8.89974e-05
1.62677e-05
1.98141e-05
5.80589e-05
7.62607e-05
0.000111033
8.71872e-05
1.60723e-05
1.98847e-05
5.8151e-05
7.51546e-05
0.0001078
8.64686e-05
1.61374e-05
1.97214e-05
5.63035e-05
7.30243e-05
0.00010071
8.45374e-05
1.5756e-05
1.92545e-05
5.32014e-05
6.72644e-05
8.78969e-05
5.68335e-05
1.73061e-05
2.18768e-05
7.81732e-05
0.00014008
9.31236e-05
6.83151e-05
2.24364e-05
1.72577e-05
0.000106974
0.000130308
8.98503e-05
6.93524e-05
2.01687e-05
1.65989e-05
0.000106349
0.000128263
8.80325e-05
6.79342e-05
1.99801e-05
1.6315e-05
0.000102629
0.00012383
8.51914e-05
6.66701e-05
2.00239e-05
1.65278e-05
9.72386e-05
0.00011942
8.27922e-05
6.56199e-05
2.01742e-05
1.62619e-05
9.59421e-05
0.000114417
7.85762e-05
6.21985e-05
1.98725e-05
1.58502e-05
9.08435e-05
0.000105787
7.20368e-05
5.85959e-05
1.95281e-05
1.76366e-05
6.15605e-05
9.10268e-05
0.000141128
8.02492e-05
2.24921e-05
2.34937e-05
7.44483e-05
9.65781e-05
0.000133394
0.000111289
1.79806e-05
2.08774e-05
7.55137e-05
9.35984e-05
0.0001307
0.000111646
1.69373e-05
2.03531e-05
7.33759e-05
9.10371e-05
0.000125508
0.000107944
1.64299e-05
2.00881e-05
6.9767e-05
8.71601e-05
0.000116339
0.000101341
1.61343e-05
1.96327e-05
6.51189e-05
7.95744e-05
0.000100113
6.90639e-05
1.77831e-05
2.29515e-05
8.88859e-05
0.000149736
0.000104494
8.19888e-05
2.41218e-05
1.84302e-05
0.000119215
0.000139228
9.95262e-05
8.16082e-05
2.17391e-05
1.75873e-05
0.000116285
0.00013479
9.59725e-05
7.87753e-05
2.12191e-05
1.71592e-05
0.000111108
0.000128442
9.1165e-05
7.45534e-05
2.0893e-05
1.67088e-05
0.000105435
0.000118156
8.24136e-05
6.86997e-05
2.00428e-05
1.82294e-05
7.20354e-05
0.000101115
0.000148993
8.92544e-05
2.3581e-05
2.51258e-05
8.62487e-05
0.000105914
0.000140717
0.000120726
1.92642e-05
2.29374e-05
8.70616e-05
0.000102016
0.000138474
0.000121409
1.83491e-05
2.21917e-05
8.329e-05
9.92277e-05
0.000129447
0.000116874
1.74927e-05
2.10047e-05
7.71991e-05
9.11245e-05
0.000113049
8.08471e-05
1.88757e-05
2.44868e-05
0.000100656
0.000164143
0.000117569
9.59981e-05
2.62927e-05
2.0147e-05
0.000133659
0.000152705
0.000111578
9.55593e-05
2.41105e-05
1.93179e-05
0.00013106
0.000148071
0.000108263
9.27656e-05
2.37305e-05
1.90535e-05
0.000124999
0.000142655
0.000103881
8.83908e-05
2.34285e-05
1.84033e-05
0.000120109
0.000132507
9.53531e-05
8.2161e-05
2.22515e-05
2.00674e-05
8.49589e-05
0.000114347
0.000165161
0.000101955
2.59039e-05
2.80036e-05
0.000102574
0.000120618
0.000155817
0.000137242
2.12914e-05
2.57644e-05
0.000103486
0.000116182
0.000155078
0.000137477
2.05516e-05
2.54761e-05
0.000101359
0.000115015
0.000151474
0.000133046
2.04286e-05
2.52462e-05
9.70852e-05
0.000111726
0.00014216
0.000128075
1.98479e-05
2.4094e-05
9.11562e-05
0.000103524
0.000125146
9.43344e-05
2.16695e-05
2.78753e-05
0.000110297
0.00017318
0.000129012
0.000112112
3.00669e-05
2.29399e-05
0.000145273
0.00016378
0.000124531
0.000112485
2.77852e-05
2.2076e-05
0.00014424
0.000161161
0.000121969
0.000109502
2.72657e-05
2.16489e-05
0.000139831
0.000157155
0.000119083
0.000106155
2.71888e-05
2.1544e-05
0.000135487
0.000150303
0.000112666
0.000100914
2.6165e-05
2.3668e-05
0.00010356
0.000134942
0.00018443
0.000118422
3.01041e-05
3.24952e-05
0.000125419
0.000139068
0.000179646
0.000158348
2.49566e-05
3.02944e-05
0.000127895
0.000137829
0.000181627
0.000160884
2.42878e-05
3.00014e-05
0.000127053
0.0001385
0.000181329
0.000160331
2.36969e-05
2.96908e-05
0.000124634
0.00013772
0.000179462
0.000155884
2.37827e-05
3.01434e-05
0.000125491
0.000137678
0.000178426
0.000155076
2.43066e-05
3.04153e-05
0.000125458
0.000137882
0.000176957
0.000155254
2.4088e-05
3.02248e-05
0.000123749
0.000136825
0.000174088
0.00015241
2.40315e-05
3.06683e-05
0.000125116
0.000136766
0.000173101
0.000151874
2.46511e-05
3.09633e-05
0.000124958
0.000137054
0.000171053
0.000152869
2.42943e-05
3.0458e-05
0.000120713
0.000135048
0.00016377
0.000148317
2.38512e-05
2.98488e-05
0.000119175
0.000130826
0.000148812
0.000122176
2.7379e-05
3.48325e-05
0.000130185
0.00019615
0.000154658
0.000149058
3.7572e-05
2.82509e-05
0.000176704
0.000198262
0.000157772
0.000159785
3.53233e-05
2.99679e-05
0.000176263
0.000223003
0.000203995
0.000168476
3.85941e-05
3.06788e-05
0.000141824
0.000149066
0.000180088
0.000181242
2.43911e-05
3.28362e-05
0.000142318
0.000148501
0.000186303
0.000163496
2.66816e-05
3.46141e-05
0.00014135
0.00015161
0.000187905
0.000161854
2.74468e-05
3.44454e-05
0.000141777
0.000152301
0.00018777
0.000163724
2.67161e-05
3.50242e-05
0.000148989
0.000155308
0.000192844
0.000169105
2.79883e-05
3.56269e-05
0.000154016
0.000159608
0.000198082
0.000175019
2.70189e-05
3.54144e-05
0.000161205
0.000161866
0.000218042
0.000172746
3.04441e-05
4.01351e-05
0.000169054
0.000201785
0.000154729
0.000154446
3.23581e-05
2.57962e-05
0.000180348
0.000184143
0.000158708
0.000158772
3.59186e-05
2.90244e-05
0.000170635
0.000195523
0.000163811
0.000167377
3.82233e-05
3.10137e-05
0.00017538
0.000221461
0.000205525
0.000173318
4.16379e-05
3.59779e-05
0.000172002
0.00016054
0.000209184
0.000183126
2.99326e-05
4.12731e-05
0.000179131
0.00020096
0.000164027
0.000175988
3.77706e-05
3.05344e-05
0.000185463
0.000210227
0.000200777
0.000189684
4.61088e-05
4.06026e-05
0.000178135
0.000188248
0.000158039
0.000169712
3.92029e-05
3.42812e-05
0.000173882
0.000200574
0.000194355
0.000176934
5.0393e-05
5.61844e-05
0.00019554
0.000188068
0.00018461
0.000192148
6.42634e-05
8.00581e-05
0.000203131
0.000190641
0.000197692
0.000211377
9.29434e-05
0.000100885
0.000235219
0.000206717
0.000211544
0.000243881
9.97168e-05
9.58286e-05
0.000255999
0.000216042
0.000223254
0.000268403
9.08097e-05
8.59373e-05
0.000276719
0.000229392
0.000238025
0.000292062
8.11395e-05
7.66358e-05
0.000299826
0.000247804
0.000257998
0.000311727
7.25548e-05
6.91327e-05
0.000314082
0.000276547
0.000289358
0.000314779
6.60672e-05
6.34741e-05
0.000316776
0.000314748
0.000327799
0.000318431
6.11537e-05
5.91816e-05
0.000321625
0.000353849
0.000367044
0.000325141
5.74511e-05
5.59868e-05
0.000329789
0.000393652
0.000404937
0.000334887
5.47623e-05
5.3733e-05
0.000340787
0.000430606
0.000432689
0.000347553
5.29692e-05
5.23029e-05
0.000354693
0.000457997
0.000460864
0.000362604
5.1932e-05
5.15227e-05
0.000370504
0.000485537
0.0004885
0.000379307
5.15155e-05
5.11833e-05
0.000387801
0.000512776
0.000515408
0.000397312
5.16126e-05
5.14249e-05
0.000405709
0.000538929
0.000541842
0.000415456
5.19323e-05
5.19222e-05
0.000423542
0.000564487
0.000566777
0.000432459
5.24081e-05
5.24551e-05
0.000439697
0.000587784
0.000589875
0.000447785
5.28972e-05
5.29402e-05
0.000454196
0.000609177
0.000610965
0.000461142
5.33351e-05
5.33406e-05
0.000466579
0.000628978
0.000630884
0.000472479
5.3721e-05
5.36663e-05
0.000477307
0.000647611
0.00064948
0.000482075
5.40109e-05
5.39219e-05
0.000486166
0.000665495
0.000668289
0.00049008
5.42428e-05
5.41135e-05
0.000493831
0.00068278
0.000685984
0.000496915
5.44128e-05
5.42677e-05
0.000500193
0.000699934
0.0007031
0.000502705
5.4559e-05
5.43874e-05
0.000505776
0.000716885
0.000718994
0.000507717
5.46643e-05
5.44888e-05
0.000510342
0.000733083
0.000734658
0.000511936
5.47593e-05
5.45664e-05
0.000514311
0.000748329
0.000749416
0.000515496
5.48226e-05
5.46326e-05
0.000517394
0.000762951
0.000763922
0.000518357
5.48813e-05
5.4679e-05
0.000519991
0.000776786
0.000777213
0.000520626
5.49114e-05
5.47159e-05
0.000521791
0.000790022
0.000790275
0.000522258
5.49386e-05
5.47353e-05
0.00052319
0.000802389
0.00080205
0.000523377
5.49407e-05
5.47473e-05
0.000523896
0.000814158
0.000813602
0.000523953
5.49426e-05
5.47456e-05
0.000524298
0.000824997
0.000823817
0.000524108
5.49248e-05
5.47388e-05
0.000524107
0.000835187
0.000833802
0.000523843
5.49088e-05
5.47223e-05
0.000523733
0.000844547
0.000842436
0.00052325
5.48774e-05
5.47018e-05
0.000522881
0.000853203
0.000850896
0.000522368
5.4848e-05
5.46764e-05
0.000521939
0.000860582
0.000858112
0.000521217
5.48115e-05
5.46523e-05
0.000520572
0.000862799
0.000864572
0.000519827
5.47774e-05
5.46225e-05
0.000519136
0.000864241
0.000869451
0.000518146
5.47354e-05
5.45922e-05
0.000517237
0.000865045
0.000873763
0.000516107
5.4695e-05
5.45564e-05
0.000515241
0.0008655
0.000874786
0.000514041
5.46487e-05
5.45201e-05
0.000513008
0.000865228
0.000874286
0.000511862
5.46055e-05
5.44812e-05
0.000510806
0.000864306
0.000872941
0.00050944
5.45562e-05
5.44402e-05
0.000508246
0.000863037
0.000871475
0.000506927
5.45081e-05
5.43967e-05
0.000505766
0.000861308
0.0008694
0.000504256
5.44558e-05
5.43521e-05
0.000503017
0.000859404
0.000867366
0.000501585
5.44057e-05
5.43063e-05
0.00050043
0.000857173
0.000864856
0.00049884
5.43533e-05
5.4261e-05
0.000497652
0.000854924
0.000862523
0.000496168
5.43049e-05
5.42168e-05
0.000495111
0.000852454
0.00085982
0.000493488
5.42563e-05
5.41748e-05
0.000492426
0.00085006
0.000857374
0.000490925
5.42126e-05
5.4135e-05
0.00049002
0.000847577
0.000854524
0.00048839
5.417e-05
5.40984e-05
0.000487492
0.000845219
0.000852206
0.000485994
5.41326e-05
5.40644e-05
0.000485263
0.000842867
0.000849377
0.000483657
5.40966e-05
5.40338e-05
0.000482934
0.00084052
0.000847168
0.000481469
5.40658e-05
5.4006e-05
0.000480913
0.000838239
0.00084441
0.000479345
5.40368e-05
5.39817e-05
0.00047879
0.000835953
0.000842291
0.000477367
5.40125e-05
5.39599e-05
0.000476975
0.000833746
0.000839645
0.000475457
5.39897e-05
5.39412e-05
0.000475057
0.000831544
0.000837663
0.000473688
5.39714e-05
5.39248e-05
0.000473442
0.000829423
0.000835176
0.000471981
5.39543e-05
5.39116e-05
0.000471715
0.000827306
0.000833384
0.000470397
5.3941e-05
5.38999e-05
0.000470283
0.000825254
0.00083112
0.000468885
5.39288e-05
5.3891e-05
0.00046873
0.000823225
0.000829529
0.000467512
5.39203e-05
5.38836e-05
0.000467462
0.000821312
0.000827406
0.000466163
5.39123e-05
5.38786e-05
0.000466067
0.000819426
0.000825948
0.000464942
5.39076e-05
5.38747e-05
0.00046495
0.000817657
0.000823951
0.00046374
5.39031e-05
5.38729e-05
0.000463699
0.000815907
0.00082262
0.000462656
5.39015e-05
5.3872e-05
0.000462715
0.000814278
0.000820748
0.000461584
5.39e-05
5.38729e-05
0.000461591
0.000812662
0.000819539
0.000460621
5.39011e-05
5.38746e-05
0.000460727
0.000811159
0.000817782
0.000459664
5.39021e-05
5.38778e-05
0.000459716
0.000809661
0.000816683
0.000458811
5.39054e-05
5.38816e-05
0.000458958
0.000808275
0.000815038
0.000457958
5.39085e-05
5.38866e-05
0.000458049
0.000806898
0.000814054
0.000457202
5.39136e-05
5.3892e-05
0.000457387
0.000805635
0.000812526
0.000456443
5.39184e-05
5.38986e-05
0.000456571
0.000804392
0.00081163
0.000455774
5.39251e-05
5.39056e-05
0.000455995
0.000803251
0.000810187
0.000455097
5.39314e-05
5.39135e-05
0.00045526
0.000802124
0.000809355
0.000454506
5.39395e-05
5.39218e-05
0.000454761
0.000801076
0.000808007
0.000453903
5.39471e-05
5.39309e-05
0.000454098
0.000800044
0.000807274
0.000453381
5.39563e-05
5.39401e-05
0.000453666
0.00079909
0.000806018
0.000452845
5.39649e-05
5.39502e-05
0.000453068
0.000798141
0.000805365
0.000452385
5.39751e-05
5.39603e-05
0.000452697
0.000797266
0.000804189
0.000451908
5.39845e-05
5.39711e-05
0.000452156
0.000796395
0.000803613
0.000451502
5.39955e-05
5.39819e-05
0.000451836
0.000795584
0.000802501
0.000451075
5.40057e-05
5.39934e-05
0.000451344
0.000794743
0.000801971
0.000450716
5.40173e-05
5.40048e-05
0.00045107
0.000793992
0.000800933
0.000450335
5.4028e-05
5.40167e-05
0.000450623
0.000793238
0.000800497
0.000450018
5.404e-05
5.40283e-05
0.000450391
0.000792575
0.000799531
0.000449678
5.40512e-05
5.40406e-05
0.000449983
0.000791868
0.000799121
0.0004494
5.40637e-05
5.40527e-05
0.00044979
0.000791228
0.000798192
0.000449101
5.40756e-05
5.40655e-05
0.000449424
0.000790587
0.000797878
0.000448862
5.40889e-05
5.40784e-05
0.000449268
0.000790058
0.000797055
0.000448597
5.41016e-05
5.4092e-05
0.000448932
0.000789489
0.000796771
0.000448384
5.41159e-05
5.41059e-05
0.000448801
0.000788955
0.000795924
0.000448143
5.41298e-05
5.4121e-05
0.000448489
0.000788373
0.000795652
0.000447954
5.41453e-05
5.41363e-05
0.000448381
0.000787883
0.000794872
0.000447732
5.41603e-05
5.41528e-05
0.000448087
0.000787365
0.000794645
0.000447555
5.41767e-05
5.41692e-05
0.00044797
0.000786816
0.000793932
0.000447351
5.41904e-05
5.41845e-05
0.00044779
0.000786421
0.000793434
0.000447458
5.4244e-05
5.42651e-05
0.00044779
0.000786175
0.000793198
0.00044708
5.42841e-05
5.43087e-05
0.000447651
0.000785749
0.000793466
0.000447394
5.44612e-05
5.44657e-05
0.00044846
0.000785735
0.000799075
0.000449601
5.48496e-05
5.50561e-05
0.000451223
0.000791544
0.00081028
0.000455041
5.58168e-05
5.60725e-05
0.000457675
0.000804979
0.00082977
0.000466013
5.80714e-05
6.01372e-05
0.000480665
0.000880252
0.000922061
0.000502954
6.29014e-05
0.00148876
0.00238019
0.00344318
0.00379721
0.00469441
0.00902541
0.0116848
0.0128198
0.0138844
0.0246584
0.0302627
0.036932
0.0455793
0.0583927
0.07875
0.110191
0.156372
0.219802
0.302199
0.404112
0.525075
0.663488
0.816879
0.981466
1.15321
1.32477
1.49033
1.63718
1.75912
1.84764
1.90321
1.92951
1.95282
1.99446
2.0529
2.12613
2.21132
2.30835
2.41578
2.53587
2.6702
2.8227
2.99785
3.20239
3.44585
3.74346
2.64554
1.72759
1.28356
1.06789
0.942233
0.847126
0.762331
0.684221
0.61318
0.549109
0.491215
0.438716
0.391141
0.348252
0.309853
0.275685
0.245416
0.218664
0.195045
0.1742
0.155807
0.139584
0.12528
0.112677
0.101582
0.0918251
0.083255
0.0757383
0.0691572
0.063407
0.0583953
0.05404
0.0502679
0.047014
0.0442206
0.0418365
0.0398165
0.0381204
0.0367133
0.0355644
0.0346467
0.0339375
0.0334164
0.0330665
0.0328733
0.0328243
0.0329091
0.0331191
0.0334472
0.0338873
0.0344347
0.0350858
0.0358376
0.0366883
0.0376365
0.0386817
0.0398238
0.0410632
0.0424009
0.0438386
0.0453783
0.0470224
0.0487739
0.0506364
0.0526136
0.0547102
0.0569307
0.0592809
0.061767
0.064396
0.0671755
0.0701145
0.0732226
0.0765114
0.0799933
0.0836831
0.0875976
0.091756
0.0961796
0.100893
0.105923
0.1113
0.117059
0.123236
0.129874
0.137023
0.14474
0.153093
0.16216
0.172036
0.182837
0.194704
0.207815
0.222391
0.238716
0.257154
0.278168
0.302372
0.330606
0.364061
0.404474
0.454458
0.518465
0.605175
0.733399
0.942259
1.30839
2.04051
3.9755
12.1243
81.5925
29.1676
9.149
3.27406
1.51226
0.900892
0.665202
0.566367
0.515549
0.477417
0.441435
0.406914
0.37521
0.347148
0.322791
0.301752
0.283499
0.267539
0.253481
0.241022
0.229928
0.220037
0.211216
0.203326
0.196255
0.189915
0.184231
0.179141
0.174593
0.170541
0.166951
0.163792
0.161041
0.158681
0.1567
0.155092
0.153864
0.153014
0.152548
0.152493
0.152873
0.153718
0.155065
0.156962
0.159469
0.162665
0.166646
0.17153
0.177469
0.184634
0.193134
0.202873
0.213376
0.223911
0.234759
0.250705
0.286552
0.377202
0.600931
1.04892
0.974379
0.447863
0.121317
0.0537102
0.0183084
0.0155891
0.0143158
0.0128109
0.0121242
0.0111478
0.0107193
0.0100111
0.00971752
0.00917281
0.00895263
0.00851852
0.0083468
0.00798834
0.00785009
0.00754508
0.00743107
0.0071654
0.00706939
0.00683396
0.00675118
0.00653999
0.00646695
0.00627548
0.00621007
0.00603441
0.00597509
0.00581239
0.00575801
0.00560609
0.00555572
0.00541278
0.00536564
0.00523019
0.00518563
0.0050564
0.00501386
0.00488975
0.00484872
0.00472874
0.00468878
0.00457206
0.00453277
0.00441857
0.00437959
0.00426725
0.00422821
0.00411699
0.00407746
0.00396658
0.00392605
0.00381453
0.00377261
0.00365969
0.00361572
0.00350019
0.00345333
0.00333368
0.00328285
0.0031572
0.00310085
0.00296661
0.00290235
0.00275563
0.00267948
0.00251414
0.00241908
0.00222752
0.00209464
0.00182072
0.00157403
0.00128018
0.00101868
0.000695526
0.000594982
0.000615842
0.000747203
0.000901318
0.000309395
0.000167294
0.000170439
0.000263693
0.000418244
0.000467407
0.000609768
0.000661029
0.000709138
0.000686344
0.00066165
0.000603589
0.000576175
0.000549286
0.00055817
0.000580225
0.000610222
0.000665558
0.00071216
0.000782832
0.000835432
0.000912439
0.000962607
0.00103772
0.00107837
0.00114159
0.00117024
0.00121028
0.00122418
0.00124152
0.00123296
0.00122911
0.00119905
0.00117498
0.00110816
0.00106121
0.00095272
0.000880824
0.000725409
0.000640208
0.000468361
0.000389604
0.000234948
0.000169644
0.000224466
0.000289298
0.000577427
0.000369546
0.000668056
0.00100869
0.0012515
0.00080788
0.0011139
0.00156078
0.00206917
0.00130894
0.000847972
0.000382213
0.000489944
0.0010958
0.00147816
0.00203062
0.00136309
0.000625454
0.00075369
0.00153393
0.00215771
0.00284622
0.00363484
0.00288733
0.00179173
0.00127407
0.00153442
0.00198616
0.0021699
0.00160981
0.00180125
0.00249475
0.00334934
0.0036129
0.00243958
0.00183771
0.00196902
0.00270934
0.00261707
0.00198055
0.00207174
0.00283726
0.00376711
0.00385357
0.00269567
0.0020499
0.00211275
0.00288497
0.0027183
0.002065
0.0020985
0.00287156
0.00385258
0.00380548
0.00269409
0.00203186
0.00203302
0.00281765
0.00263294
0.0019509
0.00193781
0.00273072
0.00369309
0.00355829
0.00253626
0.00183254
0.00180817
0.00261202
0.00238921
0.00168489
0.00165424
0.0024636
0.003089
0.00256998
0.00223166
0.00152435
0.00149379
0.00230533
0.00208475
0.00137752
0.00135856
0.0021465
0.00190604
0.00116581
0.00171754
0.00128746
0.00129991
0.001694
0.00112193
0.00129731
0.00119539
0.0011873
0.00087951
0.00133689
0.000745088
0.00134141
0.00119889
0.00109169
0.00070626
0.00137579
0.00072729
0.000713773
0.00157793
0.00172659
0.00049775
0.000575393
0.000353576
0.000519214
0.000670822
0.000291675
0.000217927
0.000910406
0.00253583
0.00341117
0.00127603
0.000439916
0.00085885
0.00162654
0.00194692
0.00103577
0.0012105
0.00206156
0.0049085
0.00682807
0.00270417
0.00121313
0.0012907
0.00287193
0.00420367
0.00175862
0.00200047
0.00409074
0.00883022
0.0110338
0.00566871
0.00271196
0.00303574
0.00550173
0.00686112
0.0037355
0.00399243
0.00680253
0.0129925
0.0147869
0.00800927
0.00455169
0.00470741
0.00786692
0.00928691
0.00519856
0.00528714
0.00876685
0.0164767
0.0180641
0.0101632
0.00573884
0.0057863
0.0095593
0.0109606
0.00621254
0.0062305
0.0102831
0.0195604
0.0210139
0.0117074
0.00664393
0.00664249
0.0109627
0.0124075
0.00704668
0.00703196
0.0116113
0.0224513
0.0238869
0.0130857
0.00742919
0.00740339
0.0122391
0.0137496
0.00779781
0.00776265
0.0128537
0.0253311
0.0267935
0.0144048
0.00815755
0.0081145
0.0134608
0.0150558
0.00851278
0.00846319
0.0140657
0.0282816
0.0298019
0.0157082
0.00886673
0.00881056
0.0146749
0.016369
0.00922149
0.00915982
0.015289
0.031357
0.032951
0.0170449
0.00958056
0.00951427
0.0159146
0.0177401
0.00994739
0.00987745
0.0165628
0.0345909
0.0362919
0.0184631
0.0103255
0.0102528
0.0172456
0.0192293
0.0107179
0.0106428
0.0179676
0.0380897
0.0400077
0.0200417
0.0111276
0.0110505
0.018732
0.0209048
0.0115583
0.0114802
0.0195476
0.0420782
0.0443312
0.0218291
0.0120147
0.0119365
0.0204245
0.0228271
0.0125022
0.0124252
0.0213754
0.0468053
0.0495483
0.0239139
0.0130275
0.0129531
0.0224157
0.0251085
0.0135988
0.0135288
0.0235649
0.0526201
0.0560947
0.0264347
0.014226
0.0141625
0.0248471
0.0279228
0.0149211
0.0148665
0.0262869
0.0600575
0.0646019
0.0296032
0.0157003
0.015659
0.0279163
0.031535
0.016588
0.0165657
0.0298039
0.0699137
0.0762716
0.0337953
0.0176161
0.0176213
0.0320316
0.0364913
0.0188291
0.0188749
0.0347214
0.084068
0.0938902
0.0397845
0.020292
0.0203979
0.0380588
0.0439374
0.0221148
0.0223425
0.0423416
0.106689
0.12412
0.0493506
0.0244672
0.0248951
0.048051
0.0567952
0.0276678
0.0284329
0.0561656
0.149435
0.190131
0.0677267
0.0323096
0.0338416
0.0688503
0.085558
0.0396187
0.0433869
0.0924928
0.266495
0.585851
0.410695
0.317479
0.260314
0.221356
0.19288
0.171044
0.153737
0.139611
0.127675
0.117495
0.108711
0.101057
0.0943209
0.0883386
0.0829776
0.0781321
0.0737176
0.0696634
0.0659146
0.0624111
0.0576649
0.0528769
0.0484645
0.0444302
0.0407216
0.0373098
0.0341717
0.0312811
0.0286289
0.0262275
0.0241237
0.022377