/*--------------------------------*- C++ -*----------------------------------*\
| =========                 |                                                 |
| \\      /  F ield         | OpenFOAM: The Open Source CFD Toolbox           |
|  \\    /   O peration     | Version:  v2006                                 |
|   \\  /    A nd           | Website:  www.openfoam.com                      |
|    \\/     M anipulation  |                                                 |
\*---------------------------------------------------------------------------*/
FoamFile
{
    version     2.0;
    format      ascii;
    class       volScalarField;
    location    "0.046";
    object      T;
}
// * * * * * * * * * * * * * * * * * * * * * * * * * * * * * * * * * * * * * //

dimensions      [0 0 0 1 0 0 0];


internalField   nonuniform List<scalar> 
9148
(
298.086
298.086
298.086
298.086
298.086
298.086
298.089
298.094
298.103
298.112
298.122
298.132
298.143
298.154
298.165
298.177
298.19
298.203
298.217
298.232
298.246
298.262
298.278
298.294
298.311
298.328
298.345
298.363
298.381
298.399
298.417
298.435
298.454
298.472
298.491
298.509
298.527
298.546
298.564
298.581
298.599
298.616
298.633
298.65
298.666
298.682
298.697
298.712
298.727
298.74
298.754
298.766
298.778
298.789
298.8
298.81
298.82
298.829
298.837
298.843
298.847
298.848
298.848
298.848
298.848
298.848
298.849
298.851
298.855
298.863
298.872
298.913
298.921
298.872
298.858
298.859
298.875
298.935
298.947
298.879
298.859
298.862
298.885
298.957
298.964
298.89
298.866
298.87
298.897
298.971
298.976
298.903
298.875
298.879
298.909
298.981
298.984
298.915
298.884
298.89
298.92
298.988
298.992
298.926
298.895
298.9
298.931
298.995
298.998
298.937
298.906
298.911
298.942
299.001
299.005
298.949
298.917
298.923
298.953
299.007
299.011
298.96
298.929
298.934
298.964
299.014
299.018
298.97
298.941
298.946
298.974
299.02
299.024
298.98
298.952
298.957
298.984
299.025
299.03
298.99
298.963
298.968
298.994
299.031
299.036
299
298.974
298.979
299.004
299.038
299.043
299.011
298.986
298.992
299.015
299.046
299.053
299.023
299
299.006
299.028
299.057
299.064
299.038
299.016
299.023
299.044
299.069
299.078
299.054
299.033
299.042
299.061
299.084
299.093
299.072
299.053
299.062
299.08
299.099
299.109
299.091
299.073
299.081
299.098
299.115
299.123
299.108
299.092
299.1
299.115
299.129
299.137
299.125
299.11
299.118
299.131
299.142
299.149
299.14
299.127
299.135
299.146
299.154
299.162
299.156
299.144
299.152
299.162
299.168
299.178
299.173
299.163
299.173
299.181
299.186
299.197
299.194
299.186
299.198
299.205
299.208
299.222
299.221
299.214
299.228
299.234
299.235
299.251
299.252
299.246
299.263
299.267
299.266
299.282
299.286
299.282
299.299
299.302
299.297
299.313
299.32
299.318
299.335
299.335
299.327
299.341
299.352
299.353
299.368
299.366
299.355
299.366
299.38
299.384
299.397
299.393
299.379
299.389
299.405
299.411
299.424
299.418
299.402
299.412
299.43
299.438
299.452
299.444
299.427
299.439
299.457
299.466
299.484
299.476
299.459
299.474
299.492
299.502
299.525
299.516
299.5
299.519
299.536
299.546
299.576
299.566
299.548
299.565
299.584
299.596
299.627
299.613
299.594
299.582
299.598
299.625
299.646
299.746
300.075
300.231
300.119
299.759
300.041
300.185
300.21
300.21
300.171
300.111
300.094
300.164
300.214
300.248
300.194
300.112
300.205
300.262
300.273
300.281
300.293
300.293
300.307
300.304
300.297
300.292
300.301
300.303
300.309
300.309
300.307
300.306
300.301
300.299
300.295
300.296
300.305
300.29
300.282
300.282
300.282
300.278
300.284
300.273
300.27
300.276
300.281
300.274
300.27
300.263
300.272
300.28
300.289
300.279
300.262
300.266
300.287
300.29
300.287
300.288
300.272
300.278
300.285
300.282
300.271
300.281
300.283
300.284
300.273
300.257
300.243
300.26
300.281
300.271
300.245
300.228
300.214
300.229
300.256
300.242
300.218
300.204
300.195
300.207
300.232
300.219
300.195
300.184
300.175
300.184
300.206
300.2
300.178
300.17
300.163
300.169
300.19
300.187
300.167
300.162
300.163
300.168
300.188
300.191
300.171
300.166
300.169
300.175
300.195
300.201
300.179
300.173
300.18
300.186
300.21
300.218
300.192
300.186
300.192
300.198
300.226
300.235
300.205
300.197
300.203
300.212
300.244
300.252
300.217
300.207
300.211
300.222
300.259
300.266
300.226
300.214
300.216
300.228
300.27
300.276
300.231
300.217
300.218
300.233
300.278
300.286
300.236
300.217
300.218
300.238
300.289
300.298
300.247
300.222
300.206
300.183
300.13
300.094
300.081
300.076
300.077
300.081
300.088
300.094
300.1
300.11
300.119
300.129
300.139
300.148
300.156
300.162
300.167
300.164
300.168
300.168
300.154
300.148
300.139
300.101
300.144
299.912
300.363
300.132
300.167
300.303
299.667
299.7
300.185
300.185
300.161
300.085
299.867
300.023
300.076
300.144
300.123
300.121
300.059
300.098
300.168
300.107
300.104
300.072
300.177
300.003
300.139
300.166
300.156
300.189
300.042
300.067
300.163
300.133
300.114
300.074
300.135
300.099
300.049
300.128
300.099
299.983
300.121
300.127
300.002
300.077
299.962
299.796
300.117
300.326
299.861
299.973
299.995
300.003
300.327
300.389
300.103
300.069
300.093
300.251
300.371
300.295
300.275
300.117
300.095
300.227
299.959
299.922
300.036
300.112
300.089
299.991
299.969
299.979
299.974
300.041
300.029
299.937
300.059
300.205
299.965
300.019
300.022
299.981
300.248
300.126
300.074
299.989
299.983
300.073
300.019
299.989
300.041
299.987
299.98
300.034
299.984
299.998
299.981
299.984
299.975
299.977
299.991
299.986
299.974
299.973
299.971
299.972
299.988
299.992
299.975
299.973
299.976
299.979
299.998
300.001
299.983
299.981
299.986
299.987
299.997
299.99
299.99
299.989
299.988
299.995
299.992
299.997
300
299.984
300.011
299.884
300.172
299.991
300.029
299.999
299.998
299.997
299.995
300.003
300
300.001
300
300.002
300.006
299.984
300.004
299.995
300.013
299.939
300.064
299.994
299.992
299.975
299.917
299.91
299.895
299.952
299.894
299.875
299.751
299.867
299.678
299.672
299.619
299.668
299.341
299.294
299.486
299.43
298.679
298.989
298.573
298.65
298.333
297.601
297.722
297.979
297.347
297.116
297.306
298.195
297.612
297.661
297.745
297.889
298.227
298.407
297.948
297.813
298.155
298.352
298.665
298.839
298.663
298.481
298.485
298.69
298.997
299.045
298.883
298.706
298.652
298.852
299.015
299.115
299.047
298.797
298.746
298.856
299.1
299.162
298.997
298.851
298.836
299.373
299.016
299.224
298.817
298.949
298.972
299.166
299.196
299.18
299.003
298.936
298.993
299.1
299.193
299.19
299.127
299.01
298.978
299.248
299.014
299.184
299.133
298.984
299.04
299.046
299.194
299.2
299.036
299.024
299.013
299.035
299.091
299.086
299.066
299.047
299.045
299.063
299.117
299.156
298.966
299.021
299.1
299.049
299.119
299.095
299.081
298.987
299.068
299.131
299.078
299.056
299.062
298.962
298.989
299.069
299.071
299.047
298.995
298.945
298.965
299.019
299.059
299.041
298.985
298.943
298.973
299.012
299.062
299.097
299.023
298.943
298.894
299.206
298.91
299.021
299.069
298.901
298.946
298.974
299.008
299.109
298.918
298.849
298.896
298.85
299.025
299.032
298.851
298.871
298.853
298.846
298.942
298.95
298.886
298.864
298.816
298.839
298.911
298.91
298.859
298.825
298.775
298.806
298.875
298.894
298.836
298.796
298.723
298.759
298.853
298.845
298.786
298.732
298.662
298.705
298.782
298.774
298.721
298.67
298.612
298.642
298.717
298.697
298.654
298.606
298.58
298.604
298.681
298.697
298.639
298.596
298.558
298.586
298.668
298.673
298.61
298.571
298.516
298.545
298.642
298.636
298.577
298.535
298.45
298.56
298.519
298.648
298.536
298.456
298.417
298.535
298.479
298.516
298.587
298.336
298.269
298.534
298.353
298.523
298.262
298.293
298.284
298.324
298.484
298.399
298.288
298.26
298.277
298.321
298.361
298.333
298.274
298.245
298.256
298.284
298.338
298.303
298.215
298.183
298.194
298.23
298.292
298.25
298.162
298.129
298.142
298.181
298.267
298.195
298.09
298.052
298.071
298.109
298.208
298.152
298.021
297.991
298.021
298.052
298.165
298.058
298.013
297.936
297.877
297.895
298.051
298.05
297.949
297.885
297.82
297.849
297.979
297.976
297.887
297.838
297.759
297.794
297.911
297.919
297.821
297.777
297.695
297.733
297.841
297.853
297.753
297.71
297.622
297.647
297.79
297.822
297.67
297.639
297.602
297.486
297.773
297.644
297.522
297.457
297.506
297.551
297.712
297.586
297.469
297.401
297.442
297.482
297.624
297.492
297.39
297.33
297.348
297.393
297.519
297.429
297.314
297.262
297.283
297.317
297.461
297.351
297.226
297.172
297.201
297.275
297.389
297.239
297.248
297.126
297.049
297.059
297.288
297.262
297.157
297.04
296.959
296.965
297.148
297.142
297.041
296.959
296.864
296.889
297.061
297.056
296.942
296.863
296.776
296.774
296.981
297.011
296.823
296.786
296.722
296.617
296.931
296.805
296.652
296.573
296.64
296.686
296.893
296.713
296.582
296.482
296.531
296.58
296.789
296.602
296.48
296.407
296.438
296.473
296.655
296.506
296.369
296.302
296.314
296.369
296.554
296.383
296.263
296.195
296.203
296.313
296.425
296.186
296.232
296.113
296.02
296.009
296.305
296.274
296.123
295.988
295.889
295.9
296.144
296.117
295.984
295.858
295.766
295.797
296.037
296.018
295.882
295.758
295.639
295.641
295.906
295.897
295.762
295.636
295.52
295.546
295.82
295.772
295.641
295.498
295.401
295.495
295.676
295.602
295.303
295.252
295.262
295.354
295.609
295.418
295.167
295.102
295.1
295.222
295.443
295.257
295.022
294.965
294.924
295.042
295.254
295.105
294.848
294.767
294.778
294.894
295.123
294.909
294.666
294.613
294.622
294.73
294.954
294.823
294.595
294.496
294.278
294.316
294.638
294.629
294.366
294.24
294.089
294.166
294.434
294.454
294.211
294.076
293.895
293.96
294.236
294.249
293.991
293.869
293.651
293.724
293.989
293.97
293.714
293.598
293.394
293.489
293.769
293.791
293.529
293.399
293.194
293.251
293.572
293.581
293.294
293.163
292.932
292.999
293.32
293.297
292.99
292.852
292.607
292.708
293.054
293.061
292.752
292.611
292.381
292.439
292.802
292.828
292.494
292.32
292.062
292.127
292.515
292.439
292.11
291.954
291.681
291.805
292.197
292.227
291.941
291.655
291.492
291.632
291.69
291.766
291.111
291.254
291.04
291.307
291.629
291.196
290.755
290.712
290.643
290.795
291.127
290.805
290.495
290.385
290.11
290.382
290.784
290.567
290.282
290.039
289.585
289.678
290.04
290.004
289.573
289.519
289.104
289.231
289.724
289.722
289.219
289.063
288.544
288.623
289.127
289.081
288.535
288.291
287.743
287.793
288.308
288.33
287.831
287.749
287.278
287.385
287.913
287.891
287.295
287.107
286.358
286.375
287.049
286.614
286.156
285.989
285.753
285.847
286.31
286.12
285.458
285.023
285.181
284.865
286.514
284.606
284.296
283.887
283.841
284.056
284.645
283.773
283.365
283.299
282.317
283.155
283.526
282.232
281.381
281.869
280.965
281.19
282.062
281.284
280.682
280.508
279.475
279.388
280.185
279.289
278.519
278.74
277.673
277.996
278.868
276.94
276.551
277.076
275.964
275.787
276.636
274.451
274.308
274.752
274.133
274.115
275.232
273.75
273.563
273.908
273.853
273.505
274.337
275.83
274.313
274.353
275.98
276.729
279.483
282.453
279.003
278.52
281.52
282.729
286.572
288.636
285.142
283.736
285.213
286.861
290.088
290.776
287.985
286.211
287.209
289.136
291.616
291.993
289.902
287.964
288.759
290.752
292.549
292.773
291.246
289.331
289.988
291.897
293.184
293.33
292.245
290.459
291.035
292.759
293.611
293.698
292.983
291.43
291.907
293.343
293.883
293.948
293.481
292.197
292.567
293.739
294.11
294.159
293.834
292.778
293.076
294.024
294.266
294.283
294.085
293.234
293.465
294.215
294.346
294.366
294.25
293.575
293.736
294.345
294.445
294.47
294.372
293.81
293.917
294.452
294.54
294.55
294.472
293.969
294.047
294.536
294.589
294.588
294.544
294.086
294.149
294.584
294.608
294.599
294.572
294.161
294.194
294.59
294.61
294.597
294.563
294.179
294.198
294.567
294.599
294.586
294.534
294.17
294.18
294.528
294.581
294.563
294.49
294.145
294.15
294.48
294.556
294.531
294.437
294.111
294.112
294.425
294.523
294.492
294.383
294.077
294.07
294.366
294.481
294.443
294.318
294.04
294.026
294.302
294.43
294.389
294.253
293.999
293.982
294.238
294.374
294.33
294.19
293.953
293.934
294.173
294.313
294.265
294.124
293.907
293.889
294.108
294.247
294.197
294.059
293.862
293.845
294.043
294.178
294.127
293.994
293.818
293.803
293.979
294.108
294.058
293.931
293.773
293.761
293.917
294.04
293.991
293.871
293.731
293.72
293.858
293.974
293.926
293.813
293.688
293.679
293.802
293.909
293.863
293.758
293.647
293.639
293.748
293.848
293.803
293.705
293.606
293.598
293.696
293.788
293.746
293.655
293.567
293.56
293.646
293.732
293.692
293.607
293.528
293.521
293.599
293.679
293.641
293.562
293.491
293.484
293.555
293.629
293.592
293.519
293.455
293.448
293.512
293.581
293.546
293.478
293.42
293.414
293.472
293.536
293.503
293.439
293.386
293.38
293.433
293.494
293.463
293.402
293.353
293.347
293.397
293.454
293.424
293.367
293.32
293.315
293.361
293.415
293.387
293.333
293.29
293.285
293.328
293.379
293.352
293.301
293.26
293.255
293.296
293.345
293.319
293.27
293.231
293.226
293.266
293.312
293.288
293.24
293.203
293.198
293.236
293.281
293.259
293.212
293.176
293.171
293.208
293.252
293.23
293.185
293.149
293.144
293.181
293.224
293.204
293.159
293.124
293.119
293.155
293.198
293.178
293.133
293.099
293.095
293.13
293.173
293.154
293.109
293.076
293.071
293.106
293.149
293.13
293.086
293.052
293.048
293.083
293.125
293.108
293.063
293.03
293.026
293.061
293.103
293.085
293.042
293.008
293.004
293.039
293.081
293.065
293.021
292.987
292.983
293.018
293.06
293.044
293
292.967
292.963
292.998
293.039
293.024
292.981
292.948
292.944
292.978
293.02
293.005
292.962
292.929
292.925
292.959
293
292.987
292.943
292.911
292.907
292.941
292.982
292.968
292.925
292.893
292.889
292.923
292.964
292.95
292.908
292.875
292.872
292.906
292.946
292.933
292.891
292.859
292.855
292.89
292.929
292.916
292.875
292.842
292.839
292.873
292.912
292.9
292.858
292.826
292.823
292.857
292.896
292.884
292.843
292.81
292.808
292.842
292.88
292.869
292.827
292.795
292.792
292.827
292.865
292.854
292.812
292.779
292.777
292.812
292.85
292.839
292.797
292.765
292.762
292.798
292.835
292.824
292.783
292.75
292.749
292.784
292.821
292.81
292.769
292.736
292.734
292.77
292.807
292.796
292.755
292.722
292.721
292.756
292.793
292.782
292.742
292.709
292.707
292.743
292.78
292.769
292.729
292.695
292.695
292.73
292.766
292.756
292.715
292.682
292.681
292.717
292.753
292.743
292.703
292.668
292.669
292.704
292.74
292.73
292.69
292.656
292.655
292.691
292.727
292.717
292.677
292.643
292.644
292.679
292.715
292.704
292.665
292.63
292.63
292.667
292.703
292.692
292.652
292.618
292.619
292.655
292.69
292.68
292.64
292.605
292.606
292.642
292.678
292.668
292.628
292.593
292.595
292.631
292.666
292.656
292.617
292.581
292.582
292.619
292.654
292.644
292.605
292.569
292.571
292.607
292.643
292.632
292.593
292.557
292.558
292.596
292.631
292.621
292.582
292.546
292.548
292.584
292.619
292.609
292.57
292.534
292.535
292.573
292.608
292.598
292.559
292.523
292.525
292.561
292.597
292.586
292.547
292.511
292.513
292.55
292.585
292.575
292.536
292.5
292.502
292.539
292.574
292.563
292.525
292.488
292.49
292.527
292.562
292.552
292.513
292.477
292.479
292.516
292.551
292.541
292.502
292.465
292.467
292.505
292.54
292.529
292.491
292.453
292.456
292.493
292.528
292.518
292.479
292.442
292.444
292.482
292.517
292.507
292.468
292.43
292.433
292.47
292.506
292.495
292.456
292.419
292.421
292.459
292.494
292.484
292.445
292.408
292.411
292.448
292.484
292.473
292.434
292.397
292.399
292.437
292.473
292.463
292.424
292.386
292.388
292.428
292.461
292.454
292.415
292.375
292.377
292.418
292.452
292.446
292.405
292.367
292.367
292.409
292.444
292.44
292.398
292.357
292.36
292.4
292.438
292.434
292.39
292.349
292.346
292.39
292.432
292.425
292.384
292.332
292.278
292.36
292.405
292.366
292.33
292.249
292.249
292.315
292.336
292.156
291.595
291.317
291.228
290.792
290.413
290.142
290.022
289.735
289.553
289.222
288.949
288.727
288.54
288.393
288.285
288.21
288.16
288.128
288.106
288.091
288.081
288.073
288.068
288.065
288.062
288.06
288.058
288.057
288.057
288.056
288.056
288.056
288.056
288.055
288.054
288.053
288.053
288.052
288.051
288.05
288.05
288.049
288.049
288.048
288.048
288.047
288.045
288.044
288.043
288.044
288.048
288.055
288.065
288.077
288.092
288.11
288.131
288.154
288.181
288.212
288.246
288.284
288.328
288.376
288.431
288.492
288.559
288.635
288.718
288.811
288.913
289.025
289.149
289.283
289.429
289.586
289.756
289.937
290.13
290.333
290.547
290.77
291
291.237
291.48
291.726
291.975
292.224
292.473
292.72
292.964
293.204
293.439
293.668
293.891
294.107
294.315
294.516
294.71
294.895
295.073
295.242
295.404
295.559
295.706
295.847
295.98
296.107
296.227
296.342
296.451
296.554
296.652
296.745
296.833
296.916
296.995
297.07
297.14
297.206
297.269
297.327
297.383
297.435
297.483
297.529
297.572
297.613
297.652
297.688
297.723
297.755
297.786
297.815
297.843
297.869
297.893
297.915
297.936
297.955
297.973
297.989
298.003
298.016
298.028
298.039
298.049
298.057
298.064
298.071
298.076
298.08
298.083
298.085
298.085
298.085
298.085
298.086
298.086
298.088
298.091
298.098
298.106
298.116
298.125
298.136
298.147
298.159
298.171
298.184
298.197
298.211
298.226
298.241
298.257
298.273
298.29
298.307
298.324
298.342
298.36
298.378
298.396
298.415
298.433
298.452
298.47
298.489
298.508
298.526
298.544
298.563
298.581
298.599
298.616
298.634
298.651
298.667
298.684
298.699
298.714
298.729
298.743
298.757
298.77
298.782
298.794
298.804
298.815
298.824
298.833
298.84
298.845
298.847
298.848
298.849
298.848
298.849
298.849
298.852
298.854
298.856
298.859
298.862
298.866
298.87
298.874
298.879
298.884
298.889
298.894
298.9
298.905
298.911
298.916
298.922
298.927
298.933
298.939
298.944
298.951
298.957
298.964
298.971
298.979
298.988
298.997
299.006
299.016
299.027
299.037
299.048
299.058
299.068
299.078
299.088
299.097
299.107
299.116
299.125
299.135
299.146
299.157
299.17
299.183
299.199
299.215
299.233
299.251
299.27
299.289
299.309
299.327
299.346
299.363
299.38
299.395
299.41
299.424
299.439
299.453
299.469
299.486
299.506
299.528
299.551
299.578
299.603
299.63
299.646
299.65
299.665
299.708
299.789
299.857
299.904
299.999
300.243
300.309
300.307
300.313
300.3
300.3
300.288
300.29
300.281
300.285
300.283
300.286
300.282
300.278
300.272
300.258
300.243
300.23
300.218
300.206
300.198
300.19
300.182
300.175
300.171
300.166
300.165
300.167
300.17
300.173
300.177
300.183
300.188
300.194
300.198
300.203
300.206
300.209
300.211
300.213
300.212
300.209
300.207
300.205
300.184
300.136
300.151
300.19
300.198
300.166
300.19
300.209
300.211
300.193
300.151
300.139
300.123
300.106
300.095
300.11
300.116
300.109
300.103
300.091
300.091
300.099
300.1
300.108
300.119
300.176
300.205
300.213
300.213
300.206
300.212
300.213
300.213
300.213
300.194
300.206
300.216
300.211
300.21
300.215
300.214
300.205
300.201
300.212
300.212
300.212
300.208
300.195
300.191
300.205
300.201
300.187
300.184
300.199
300.208
300.205
300.195
300.181
300.181
300.194
300.192
300.182
300.183
300.191
300.199
300.195
300.193
300.188
300.193
300.194
300.2
300.2
300.206
300.204
300.199
300.212
300.214
300.218
300.227
300.221
300.234
300.239
300.252
300.243
300.229
300.26
300.255
300.265
300.272
300.269
300.272
300.276
300.281
300.282
300.275
300.265
300.275
300.279
300.286
300.298
300.285
300.285
300.297
300.318
300.181
299.949
300.295
300.298
300.319
300.312
300.246
300.324
300.32
300.122
299.783
299.71
299.873
300.226
300.098
299.828
299.743
299.882
299.798
299.741
299.685
299.664
299.715
299.76
299.729
299.698
299.681
299.695
299.673
299.664
299.636
299.604
299.654
299.661
299.649
299.635
299.621
299.64
299.616
299.594
299.565
299.524
299.575
299.593
299.566
299.546
299.527
299.542
299.517
299.502
299.484
299.448
299.484
299.497
299.477
299.464
299.449
299.461
299.444
299.431
299.416
299.387
299.418
299.429
299.413
299.401
299.387
299.399
299.383
299.37
299.357
299.324
299.355
299.367
299.35
299.337
299.319
299.332
299.313
299.3
299.288
299.25
299.281
299.294
299.274
299.261
299.242
299.255
299.236
299.222
299.212
299.176
299.204
299.217
299.199
299.187
299.17
299.183
299.168
299.155
299.145
299.118
299.141
299.154
299.141
299.129
299.117
299.129
299.119
299.106
299.095
299.075
299.096
299.108
299.099
299.087
299.077
299.089
299.08
299.068
299.056
299.037
299.057
299.07
299.06
299.048
299.038
299.05
299.04
299.028
299.017
298.997
299.017
299.029
299.019
299.007
298.996
299.008
298.998
298.987
298.977
298.959
298.977
298.988
298.979
298.968
298.959
298.97
298.962
298.951
298.942
298.928
298.943
298.954
298.947
298.936
298.93
298.94
298.934
298.924
298.916
298.906
298.918
298.928
298.922
298.913
298.908
298.917
298.912
298.903
298.896
298.888
298.898
298.906
298.901
298.894
298.889
298.896
298.891
298.885
298.88
298.872
298.88
298.886
298.882
298.876
298.872
298.877
298.873
298.868
298.865
298.859
298.864
298.868
298.865
298.861
298.858
298.861
298.858
298.856
298.854
298.851
298.853
298.856
298.854
298.852
298.85
298.852
298.85
298.849
298.849
298.849
298.851
298.853
298.857
298.862
298.869
298.875
298.883
298.891
298.9
298.909
298.92
298.933
298.949
298.966
298.985
299.005
299.024
299.043
299.061
299.081
299.102
299.128
299.157
299.191
299.227
299.264
299.299
299.331
299.361
299.389
299.418
299.449
299.484
299.521
299.557
299.59
299.619
299.641
299.656
299.674
299.715
299.802
299.974
300.169
300.244
300.236
300.202
300.187
300.186
300.19
300.193
300.19
300.181
300.169
300.154
300.136
300.11
300.1
300.098
300.098
300.098
300.094
300.098
300.101
300.101
300.103
300.104
300.102
300.108
300.108
300.108
300.103
300.104
300.119
300.115
300.112
300.113
300.114
300.12
300.119
300.119
300.127
300.126
300.128
300.137
300.132
300.133
300.136
300.144
300.154
300.13
300.112
300.126
300.125
300.142
300.158
300.156
300.142
300.158
300.144
300.164
300.171
300.177
300.169
300.176
300.166
300.17
300.178
300.174
300.18
300.178
300.179
300.19
300.19
300.187
300.181
300.181
300.18
300.161
300.162
300.16
300.162
300.163
300.16
300.153
300.14
300.139
300.144
300.151
300.146
300.145
300.15
300.149
300.155
300.157
300.152
300.154
300.163
300.164
300.161
300.166
300.162
300.154
300.149
300.154
300.144
300.179
300.153
300.155
300.089
300.117
300.133
300.131
300.122
300.127
300.133
300.146
300.146
300.126
300.129
300.123
300.117
300.114
300.125
300.126
300.154
300.162
300.155
300.146
300.153
300.144
300.153
300.135
300.119
300.108
300.066
300.069
300.085
300.095
300.114
300.128
300.113
300.133
300.14
300.15
300.157
300.161
300.163
300.166
300.162
300.15
300.132
300.109
300.147
300.165
300.166
300.165
300.155
300.14
300.131
300.122
300.125
300.111
300.094
300.097
300.107
300.084
300.089
300.094
300.077
300.071
300.079
300.077
300.07
300.057
300.059
300.053
300.062
300.047
300.036
300.021
300.051
300.052
300.105
300.107
300.161
300.153
300.182
300.17
300.112
300.177
300.201
300.19
300.221
300.193
300.099
300.208
300.107
299.921
299.776
299.935
300.098
299.969
299.794
299.681
299.605
299.688
299.835
300.004
300.108
300.048
300.103
300.051
300.047
300.05
300.046
300.012
300.016
299.999
300
300.009
300.013
300.025
300.028
300.037
300.041
300.033
300.043
300.029
300.02
300.015
300.003
299.999
299.99
299.986
299.98
299.991
299.991
299.987
299.976
299.979
299.977
299.99
300.013
300.014
299.993
299.989
299.979
299.983
299.988
299.995
300.001
300.019
300.024
300.046
300.024
299.997
300.005
300.02
300.014
300.012
300.008
300.005
299.996
299.993
299.997
300.004
299.998
299.991
300.001
300.009
300.011
300.015
300.009
300.002
300.001
300.007
300.001
300.005
299.994
299.991
299.975
299.975
299.977
299.975
299.944
299.943
299.922
299.768
299.615
299.526
299.424
299.473
299.63
299.954
299.863
299.783
299.957
299.924
299.923
299.924
299.828
299.806
299.763
299.735
299.491
299.522
299.527
299.593
299.452
299.559
299.488
299.322
299.436
299.665
299.8
299.106
299.069
299.139
299.349
299.294
299.097
299.15
298.845
298.786
298.442
298.464
298.165
298.344
298.715
298.755
298.96
299.092
299.3
299.401
299.435
299.316
299.25
298.976
298.668
298.687
298.395
298.419
298.105
297.508
297.515
297.559
297.672
297.691
297.786
297.813
298.034
298.374
298.265
298.574
298.427
298.724
298.562
298.731
298.922
298.791
298.909
298.832
298.899
298.989
298.925
298.997
298.924
299.013
298.927
299
299.031
298.984
299.005
298.954
298.976
298.932
298.958
298.92
298.953
298.894
298.923
298.959
298.911
298.916
298.877
298.879
298.843
298.853
298.806
298.831
298.778
298.778
298.73
298.738
298.682
298.671
298.632
298.629
298.595
298.591
298.558
298.578
298.531
298.531
298.469
298.461
298.412
298.404
298.351
298.352
298.315
298.289
298.248
298.327
298.285
298.382
298.355
298.436
298.395
298.486
298.443
298.525
298.478
298.563
298.525
298.608
298.563
298.65
298.606
298.692
298.638
298.718
298.671
298.75
298.701
298.78
298.738
298.819
298.765
298.839
298.809
298.719
298.59
298.63
298.539
298.692
298.651
298.575
298.484
298.59
298.514
298.423
298.568
298.52
298.444
298.356
298.439
298.371
298.277
298.41
298.357
298.291
298.199
298.263
298.208
298.113
298.227
298.158
298.2
298.254
298.267
298.217
298.257
298.177
298.196
298.113
298.142
298.053
298.074
297.991
298
297.925
297.946
297.895
297.836
297.813
297.9
297.864
297.966
297.934
298.014
297.974
298.079
298.038
298.114
298.07
298.168
298.138
298.023
298.021
297.933
297.918
297.827
297.799
297.717
297.739
297.79
297.836
297.732
297.773
297.68
297.706
297.611
297.631
297.542
297.579
297.477
297.395
297.416
297.328
297.344
297.26
297.267
297.174
297.18
297.114
297.122
297.045
297.025
297.016
297.115
297.095
297.178
297.172
297.249
297.239
297.314
297.31
297.396
297.459
297.449
297.521
297.511
297.584
297.571
297.645
297.631
297.693
297.677
297.624
297.618
297.573
297.498
297.567
297.503
297.453
297.359
297.445
297.377
297.311
297.23
297.183
297.072
297.021
296.919
296.931
296.951
296.962
296.859
296.861
296.778
296.781
296.678
296.703
296.608
296.608
296.53
296.513
296.495
296.429
296.421
296.325
296.307
296.218
296.208
296.094
296.077
295.999
295.906
295.886
295.781
295.765
295.643
295.64
295.535
295.518
295.394
295.381
295.261
295.289
295.165
295.138
295.102
295.009
294.958
294.83
294.772
294.647
294.637
294.486
294.481
294.274
294.149
294.089
293.946
293.903
293.741
293.652
293.502
293.401
293.285
293.198
293.063
292.938
292.777
292.644
292.501
292.371
292.236
292.096
291.862
291.709
291.544
291.481
291.214
291.376
291.236
291.022
290.802
290.617
290.36
290.196
289.983
289.734
289.477
289.102
289.04
288.684
288.502
287.89
287.875
287.279
287.285
286.577
286.59
285.763
285.772
285.175
284.243
284.328
283.258
283.347
282.151
282.022
281.055
280.211
279.851
278.98
277.738
277.632
276.222
275.362
274.462
275.431
274.828
275.439
276.475
278.404
280.749
282.535
283.897
284.678
285.534
286.107
286.754
287.184
287.681
288.047
288.457
288.788
289.138
289.436
289.721
289.977
290.207
290.435
290.63
290.842
291.014
291.206
291.35
291.518
291.636
291.785
291.881
292.022
292.107
292.242
292.315
292.442
292.499
292.617
292.654
292.761
292.784
292.882
292.897
292.982
292.994
293.073
293.081
293.142
293.151
293.201
293.21
293.246
293.257
293.284
293.298
293.309
293.326
293.326
293.34
293.332
293.347
293.335
293.347
293.329
293.341
293.321
293.332
293.308
293.32
293.293
293.305
293.275
293.288
293.257
293.269
293.236
293.248
293.215
293.227
293.192
293.205
293.17
293.182
293.145
293.159
293.123
293.136
293.099
293.114
293.077
293.091
293.053
293.069
293.032
293.047
293.009
293.025
292.988
293.004
292.966
292.983
292.947
292.962
292.925
292.942
292.906
292.922
292.886
292.902
292.868
292.883
292.848
292.864
292.83
292.846
292.812
292.828
292.795
292.81
292.777
292.793
292.76
292.775
292.743
292.758
292.727
292.742
292.71
292.725
292.695
292.709
292.678
292.693
292.663
292.678
292.648
292.663
292.634
292.648
292.619
292.634
292.605
292.619
292.59
292.605
292.577
292.591
292.563
292.577
292.55
292.564
292.536
292.55
292.523
292.537
292.509
292.523
292.497
292.511
292.484
292.498
292.472
292.485
292.459
292.473
292.447
292.46
292.434
292.448
292.423
292.436
292.41
292.424
292.399
292.412
292.386
292.4
292.375
292.388
292.362
292.375
292.351
292.363
292.338
292.351
292.326
292.339
292.314
292.327
292.302
292.315
292.29
292.303
292.279
292.292
292.267
292.281
292.257
292.27
292.245
292.258
292.239
292.232
292.236
292.21
292.181
291.632
291.653
291.336
291.78
291.733
291.476
291.842
291.81
291.556
291.886
291.845
291.612
291.912
291.871
291.644
291.93
291.884
291.662
291.944
291.9
291.679
291.956
291.91
291.684
291.97
291.924
291.708
291.979
291.934
291.703
291.994
291.948
291.732
292.003
291.957
291.723
292.018
291.971
291.753
292.026
291.98
291.743
292.042
291.994
291.774
292.05
292.003
291.762
292.065
292.016
291.793
292.072
292.025
291.781
292.087
292.038
291.812
292.095
292.047
291.799
292.11
292.06
291.83
292.117
292.069
291.818
292.133
292.082
291.848
292.14
292.091
291.836
292.156
292.105
291.866
292.164
292.113
291.854
292.18
292.127
291.884
292.188
292.136
291.871
292.203
292.15
291.901
292.211
292.158
291.888
292.227
292.172
291.917
292.235
292.18
291.904
292.25
292.194
291.932
292.258
292.202
291.919
292.273
292.215
291.947
292.281
292.223
291.934
292.297
292.237
291.96
292.305
292.245
291.948
292.32
292.258
291.973
292.328
292.266
291.96
292.343
292.279
291.983
292.351
292.286
291.971
292.366
292.299
291.992
292.373
292.305
291.98
292.386
292.316
291.998
292.393
292.322
291.987
292.405
292.332
292.001
292.411
292.336
291.991
292.422
292.344
292.001
292.427
292.347
291.99
292.436
292.354
291.999
292.439
292.355
291.986
292.446
292.36
291.992
292.447
292.358
291.977
292.452
292.359
291.981
292.449
292.354
291.963
292.451
292.352
291.963
292.445
292.343
291.942
292.443
292.338
291.94
292.434
292.324
291.914
292.427
292.314
291.91
292.413
292.295
291.878
292.402
292.279
291.869
292.381
292.253
291.833
292.363
292.23
291.819
292.335
292.197
291.777
292.31
292.166
291.758
292.274
292.126
291.711
292.241
292.087
291.689
292.195
292.037
291.631
292.153
291.988
291.605
292.096
291.929
291.536
292.045
291.87
291.503
291.978
291.8
291.423
291.915
291.731
291.381
291.837
291.649