/*--------------------------------*- C++ -*----------------------------------*\
| =========                 |                                                 |
| \\      /  F ield         | OpenFOAM: The Open Source CFD Toolbox           |
|  \\    /   O peration     | Version:  v2006                                 |
|   \\  /    A nd           | Website:  www.openfoam.com                      |
|    \\/     M anipulation  |                                                 |
\*---------------------------------------------------------------------------*/
FoamFile
{
    version     2.0;
    format      ascii;
    class       volScalarField;
    location    "0.046";
    object      turbulenceProperties:I;
}
// * * * * * * * * * * * * * * * * * * * * * * * * * * * * * * * * * * * * * //

dimensions      [0 0 0 0 0 0 0];


internalField   nonuniform List<scalar> 
9148
(
0.149998
0.149999
0.15
0.149999
0.149999
0.149999
0.150004
0.150014
0.150023
0.150026
0.150024
0.15002
0.150016
0.150013
0.15001
0.150008
0.150007
0.150006
0.150005
0.150004
0.150003
0.150002
0.150002
0.150002
0.150001
0.150002
0.150002
0.150002
0.150002
0.150002
0.150002
0.150002
0.150002
0.150002
0.150001
0.150001
0.15
0.15
0.149999
0.149999
0.149999
0.149998
0.149999
0.149999
0.149999
0.149999
0.15
0.15
0.15
0.15
0.15
0.15
0.15
0.149999
0.149997
0.149995
0.149994
0.149997
0.150007
0.150029
0.150044
0.150041
0.150019
0.149994
0.149986
0.149973
0.149965
0.149972
0.149987
0.149835
0.149176
0.144445
0.137328
0.144942
0.148428
0.145862
0.139628
0.131937
0.127601
0.134717
0.1431
0.14008
0.130301
0.124187
0.121655
0.126712
0.137555
0.134701
0.123277
0.119477
0.118052
0.120979
0.132787
0.130429
0.118401
0.116608
0.115822
0.117143
0.129017
0.127003
0.115149
0.114835
0.11441
0.114489
0.125998
0.124308
0.112961
0.113729
0.113514
0.112633
0.123578
0.122135
0.111431
0.113029
0.112942
0.111293
0.121606
0.120362
0.110352
0.112598
0.112594
0.110327
0.11999
0.118906
0.109585
0.112349
0.112403
0.109644
0.118658
0.117707
0.109048
0.112227
0.112324
0.109173
0.117557
0.116724
0.10869
0.112201
0.112331
0.108867
0.116646
0.115925
0.108473
0.112249
0.112407
0.108698
0.11591
0.115286
0.10838
0.112358
0.112542
0.108649
0.115329
0.114792
0.108395
0.112524
0.112732
0.108707
0.11489
0.114432
0.108512
0.112741
0.112975
0.108867
0.114586
0.114201
0.108725
0.113009
0.113268
0.109124
0.114409
0.114094
0.109031
0.113326
0.113609
0.109475
0.114357
0.114108
0.109428
0.11369
0.113999
0.109919
0.114426
0.114242
0.109917
0.114101
0.114437
0.110458
0.114619
0.114498
0.1105
0.114561
0.114928
0.111097
0.114937
0.114882
0.111186
0.115077
0.11548
0.111846
0.115392
0.115407
0.111986
0.115659
0.116108
0.11272
0.115996
0.116091
0.11292
0.116325
0.11683
0.113742
0.116772
0.116956
0.114011
0.117092
0.117664
0.114936
0.117744
0.118028
0.115286
0.11798
0.118632
0.116333
0.118941
0.119339
0.116777
0.119012
0.119758
0.11797
0.120397
0.120927
0.118525
0.120215
0.121076
0.119891
0.122157
0.122841
0.120578
0.121624
0.122623
0.122155
0.124273
0.125139
0.123002
0.123284
0.12446
0.124841
0.126824
0.127918
0.125894
0.125275
0.126687
0.128074
0.129926
0.131319
0.129404
0.127723
0.129466
0.13205
0.133762
0.135575
0.133781
0.130851
0.133075
0.137093
0.138634
0.14108
0.1395
0.135081
0.138046
0.143677
0.145056
0.148546
0.147342
0.141176
0.145508
0.152912
0.153887
0.159356
0.158898
0.150884
0.158251
0.167049
0.166982
0.176556
0.178084
0.169008
0.186316
0.19168
0.188679
0.207984
0.217577
0.22744
0.276449
0.239708
0.230446
0.250487
0.277368
0.306549
0.202899
0.794377
0.267247
0.587349
0.53591
0.198249
0.181965
0.394624
1
0.969834
0.333742
0.168346
0.15541
0.308687
0.724168
0.595578
0.227965
0.119101
0.114784
0.120186
0.207816
0.123815
0.112977
0.141539
0.160896
0.113733
0.118463
0.116366
0.111654
0.189606
0.180992
0.114339
0.119428
0.114576
0.113108
0.172176
0.156979
0.110294
0.111532
0.108035
0.106646
0.146717
0.137816
0.103349
0.105491
0.105385
0.103108
0.134986
0.135102
0.105054
0.10626
0.106556
0.10706
0.138939
0.146013
0.108872
0.106987
0.106609
0.1085
0.153571
0.156811
0.106693
0.107575
0.107486
0.106233
0.157883
0.156489
0.104843
0.107586
0.107343
0.103967
0.153974
0.150642
0.102612
0.10671
0.106509
0.10158
0.147054
0.143375
0.0999586
0.105738
0.105958
0.0988074
0.139882
0.136581
0.0972625
0.105258
0.105791
0.0965666
0.133627
0.130908
0.0952934
0.105257
0.106062
0.0949012
0.128558
0.126456
0.0940928
0.106051
0.107137
0.0937631
0.124467
0.122782
0.0934905
0.10784
0.109241
0.0936457
0.121603
0.120276
0.0935352
0.110768
0.113062
0.0945085
0.119345
0.118537
0.0949035
0.115349
0.118721
0.0967125
0.118188
0.117945
0.0975567
0.121727
0.126817
0.100609
0.118299
0.118652
0.102113
0.130761
0.139022
0.107897
0.12008
0.121409
0.112058
0.145027
0.160889
0.124177
0.125056
0.128803
0.137793
0.175252
0.211018
0.168322
0.13917
0.153297
0.215221
0.253109
0.391715
0.361593
0.222385
0.773258
0.85678
0.670013
0.505969
0.347475
0.274543
0.228077
0.199969
0.181056
0.168307
0.160111
0.154745
0.152299
0.152076
0.154449
0.159476
0.167876
0.180237
0.200037
0.229429
0.28277
0.399701
0.555764
0.647246
0.47752
0.327999
0.30351
0.389273
0.415109
0.284754
0.162671
0.141923
0.207198
0.219393
0.109673
0.149051
0.147968
0.0810764
0.171771
0.174785
0.0747089
0.152343
0.149797
0.0713944
0.168848
0.160412
0.0701939
0.153753
0.152077
0.0733233
0.175001
0.205168
0.0840966
0.150207
0.152981
0.169287
0.526262
0.593314
0.19001
0.157615
0.15899
0.183028
0.768488
0.864079
0.169164
0.161548
0.159088
0.139667
0.966466
0.300332
0.185653
0.15735
0.172443
0.387158
0.221964
0.188798
0.192894
0.195685
0.424307
0.151187
0.177073
0.164293
0.134815
0.345567
0.230397
0.13958
0.163566
0.154596
0.132287
0.198175
0.187544
0.136559
0.156533
0.150988
0.130132
0.178168
0.17504
0.133937
0.154633
0.151004
0.129209
0.169999
0.168146
0.132506
0.155502
0.153154
0.128651
0.16464
0.163494
0.131928
0.158744
0.157374
0.128716
0.160774
0.160057
0.133163
0.164311
0.163924
0.130869
0.158074
0.157899
0.137098
0.172346
0.172281
0.135604
0.155347
0.15416
0.14438
0.182483
0.18378
0.143991
0.151352
0.152474
0.157468
0.198901
0.203654
0.159639
0.151681
0.155328
0.177572
0.223509
0.233254
0.184601
0.156463
0.163707
0.208367
0.259005
0.276997
0.221838
0.168831
0.183829
0.255327
0.313897
0.351354
0.284692
0.199466
0.234916
0.347743
0.405163
0.356448
0.26987
0.197474
0.252049
0.40727
0.489332
0.592123
0.487659
0.295875
0.399884
0.664401
0.787915
1
0.968225
0.557951
0.985774
1
1
1
1
1
1
1
1
0.826879
0.81337
0.558998
0.309629
0.447946
0.514066
0.386284
0.340265
0.2341
0.203516
0.274502
0.29243
0.222905
0.207264
0.152745
0.115652
0.140212
0.163637
0.148432
0.136703
0.107809
0.0938586
0.116478
0.119849
0.114969
0.110082
0.0922609
0.102762
0.102191
0.112945
0.110064
0.10112
0.11562
0.122775
0.111433
0.116202
0.117957
0.113955
0.127837
0.130928
0.10768
0.106654
0.113325
0.1147
0.130906
0.12832
0.109473
0.107282
0.110163
0.112639
0.125173
0.123902
0.106186
0.103673
0.106308
0.10691
0.118819
0.120312
0.105685
0.105039
0.0934179
0.0961218
0.122057
0.114209
0.0973398
0.0967022
0.0902626
0.0931963
0.115921
0.107599
0.0919795
0.0932625
0.0906767
0.0908251
0.107109
0.114123
0.0862325
0.082055
0.0840778
0.0840651
0.104833
0.110551
0.0830714
0.0790276
0.0810995
0.0807191
0.100373
0.105473
0.0797828
0.0761631
0.0777315
0.0768626
0.0950536
0.0969432
0.0758262
0.075114
0.0699767
0.0761246
0.105733
0.0961402
0.0721709
0.0707012
0.0675633
0.0744289
0.10365
0.092725
0.0684353
0.0679445
0.0652364
0.0720474
0.0999014
0.0898758
0.0657323
0.0663136
0.0636086
0.0697692
0.0967654
0.0875736
0.0640953
0.0649412
0.0620201
0.0674404
0.0938645
0.0842641
0.0624531
0.0635135
0.0608237
0.06228
0.0879773
0.0968755
0.0690617
0.0595924
0.0582304
0.0586225
0.0869546
0.0966305
0.0667367
0.0573195
0.056482
0.0561698
0.0848202
0.0932858
0.0649035
0.0558636
0.0552213
0.0549068
0.083195
0.0912588
0.063612
0.0547976
0.0542997
0.0534964
0.0809553
0.0895583
0.0624385
0.0539389
0.0533354
0.0525831
0.0801356
0.088024
0.0614254
0.0529759
0.052241
0.0514335
0.0784367
0.0870359
0.0607698
0.052238
0.051449
0.0506979
0.0776537
0.085573
0.0598655
0.0513853
0.0502906
0.049792
0.0766146
0.0851911
0.0593855
0.0506273
0.0494674
0.0490463
0.076067
0.0840649
0.0586088
0.0498373
0.0485464
0.0482631
0.0752404
0.0838847
0.0584038
0.049256
0.0478722
0.0477189
0.074856
0.0830599
0.0577491
0.0485197
0.0469663
0.0468817
0.0740596
0.0829618
0.057568
0.0480085
0.0463116
0.0464247
0.0741937
0.0828945
0.0569461
0.0474145
0.0451953
0.0453424
0.0743304
0.0846522
0.0579476
0.0469709
0.0457622
0.0497897
0.0822993
0.0728981
0.0417409
0.0465916
0.0463795
0.0522826
0.0779503
0.069754
0.0445953
0.0456874
0.0464017
0.0543171
0.076447
0.0691426
0.045533
0.0452568
0.0461573
0.054766
0.0764521
0.0688448
0.044989
0.044437
0.0455717
0.0545934
0.076797
0.0693798
0.0445691
0.0438743
0.045194
0.054509
0.077274
0.0693373
0.0437675
0.0431163
0.0446198
0.0542063
0.0777614
0.0700647
0.0429872
0.0423089
0.0444813
0.0553594
0.0798828
0.0778464
0.047498
0.042721
0.0430707
0.0388498
0.0693703
0.0749368
0.0500681
0.0435332
0.0425409
0.0418162
0.0667841
0.072994
0.0519511
0.0436769
0.0420691
0.0427946
0.0657095
0.0726646
0.0523124
0.0434227
0.0415267
0.0423404
0.0652272
0.0729655
0.0521073
0.0430758
0.0409044
0.041769
0.0660984
0.0748811
0.0530121
0.0429638
0.0412866
0.0459741
0.0733244
0.0660866
0.0375823
0.0413955
0.0421142
0.0485977
0.0718666
0.0644947
0.0405572
0.0409211
0.0423317
0.0507963
0.0711382
0.0642465
0.0416243
0.0406104
0.0421943
0.0511965
0.0712918
0.0641358
0.0411328
0.0400893
0.0418611
0.0509729
0.0717169
0.0650315
0.0404389
0.0395181
0.0417343
0.0517681
0.0734209
0.0718264
0.0446023
0.0397444
0.0394871
0.0360445
0.064756
0.0708681
0.0473832
0.0404916
0.0390122
0.0388168
0.0632566
0.070095
0.0494889
0.0406557
0.0388591
0.0399232
0.0628241
0.0701597
0.050052
0.040803
0.0386064
0.0398365
0.0629825
0.0708963
0.0507139
0.0408479
0.0391286
0.0441292
0.0690756
0.0626531
0.0358147
0.0388714
0.0399555
0.0467092
0.0687716
0.0618996
0.0384345
0.0385054
0.0403012
0.0490725
0.0689059
0.0619133
0.0395362
0.0384084
0.0403863
0.0498095
0.0693287
0.0622427
0.039578
0.0382724
0.0403596
0.0497175
0.0698743
0.0624859
0.038943
0.0378407
0.040286
0.0502403
0.0705766
0.0688508
0.0433095
0.0382042
0.0375794
0.0347078
0.0620857
0.0682694
0.0461007
0.0389586
0.0371473
0.037434
0.0610328
0.0680601
0.0482912
0.0391357
0.0371965
0.0385075
0.0609673
0.068579
0.0490763
0.039404
0.0373003
0.0387737
0.0615939
0.0693395
0.0491762
0.0395955
0.0370709
0.0383917
0.0620275
0.0701932
0.0499026
0.0396574
0.0376658
0.0431622
0.0685002
0.0618336
0.0340556
0.03661
0.0383051
0.0459159
0.0681626
0.0611143
0.0369425
0.0363798
0.0386557
0.0482867
0.0682034
0.0609618
0.0380404
0.0364394
0.038693
0.0485446
0.0682945
0.0608428
0.0378111
0.0363045
0.0388625
0.0486799
0.0689035
0.0618695
0.0377713
0.0363452
0.0391627
0.0495329
0.069957
0.0679791
0.0426649
0.0370689
0.0354913
0.0331832
0.0606006
0.0664812
0.0450629
0.0372462
0.0353441
0.0360734
0.059633
0.0666
0.047348
0.0376863
0.0356869
0.0373346
0.0595883
0.0666161
0.0478831
0.0380159
0.0357427
0.0372934
0.0589577
0.0661306
0.0475125
0.0379975
0.0356697
0.0371552
0.0591187
0.0668043
0.0476646
0.0380906
0.0357501
0.0371567
0.0597381
0.0671506
0.0476427
0.0381283
0.0354921
0.0367667
0.0592306
0.0665515
0.0471271
0.0378614
0.0351207
0.0364295
0.0591043
0.0671118
0.0472859
0.0378433
0.0350767
0.0364551
0.0598238
0.0674716
0.0472225
0.0378117
0.0347197
0.0358952
0.0592507
0.0668944
0.046598
0.0375395
0.0342762
0.0355409
0.0595088
0.0681711
0.0479197
0.0379126
0.0350485
0.0412404
0.0666749
0.0592592
0.0314088
0.0328293
0.0349087
0.0433065
0.0646124
0.0565954
0.0335889
0.0327484
0.0352104
0.0451469
0.0633504
0.0565371
0.0360287
0.0333442
0.0328476
0.0380575
0.0610035
0.0683851
0.0506871
0.0381641
0.033724
0.0361424
0.0583044
0.0664472
0.0470343
0.0371548
0.0331372
0.0348647
0.0585212
0.0662858
0.0459716
0.036421
0.032641
0.0341059
0.0577765
0.0645428
0.0445504
0.0354669
0.0317774
0.0331192
0.0559082
0.0639057
0.0446167
0.0350926
0.0317833
0.0335451
0.0562391
0.0631762
0.0440788
0.0347886
0.0312166
0.0323505
0.0534404
0.0604407
0.0431978
0.0339948
0.0309615
0.03376
0.0538372
0.0583912
0.0353041
0.030385
0.0355327
0.0477811
0.0652797
0.0552639
0.0327872
0.0306083
0.0342827
0.04413
0.0636417
0.0547747
0.0319159
0.0299616
0.0326486
0.0415941
0.0610279
0.0516123
0.0315167
0.028857
0.0281029
0.0326119
0.055539
0.0630322
0.0457771
0.0331051
0.0284398
0.0316803
0.0525186
0.0558072
0.0319044
0.0274106
0.0327066
0.045653
0.0640715
0.0516812
0.030142
0.0275133
0.026895
0.0334747
0.0560494
0.0584478
0.0309206
0.0260074
0.0334564
0.0485989
0.0681327
0.055852
0.0310724
0.0273683
0.0267939
0.0329282
0.0595876
0.0669137
0.0376086
0.0278735
0.0285151
0.0394934
0.075828
0.0895524
0.0445301
0.0308852
0.0334659
0.0494991
0.102497
0.11205
0.0559778
0.036266
0.0377341
0.0591399
0.115945
0.117605
0.0631079
0.0394062
0.0405473
0.065852
0.118546
0.119115
0.0694531
0.0423325
0.0434917
0.07263
0.119243
0.119112
0.076229
0.0456173
0.0469945
0.0798218
0.118935
0.118839
0.0831115
0.0500019
0.0517447
0.0861364
0.118887
0.11898
0.0890798
0.0554745
0.0573495
0.0919237
0.119194
0.119386
0.0947204
0.061191
0.0631098
0.0974634
0.119687
0.119921
0.100098
0.0670436
0.0690003
0.102706
0.120288
0.120544
0.105161
0.0729201
0.0747592
0.10762
0.120982
0.121248
0.109867
0.0784844
0.0802382
0.112129
0.121779
0.122006
0.114136
0.0837314
0.0853313
0.116161
0.122643
0.122671
0.117885
0.0885798
0.0900499
0.119618
0.123434
0.123433
0.121039
0.0930153
0.0942978
0.122355
0.123997
0.124057
0.123463
0.0969549
0.0979556
0.124474
0.124425
0.124471
0.125281
0.100246
0.100947
0.125981
0.124672
0.124641
0.126491
0.102862
0.103308
0.126961
0.124716
0.124607
0.127232
0.104891
0.1051
0.127461
0.124628
0.124409
0.127531
0.106372
0.106401
0.127593
0.124358
0.124091
0.127515
0.107422
0.107337
0.127413
0.124003
0.123662
0.127212
0.108077
0.107903
0.127003
0.123529
0.12317
0.126719
0.108448
0.108145
0.1264
0.123026
0.122615
0.126038
0.108558
0.108114
0.125654
0.12244
0.12203
0.125237
0.108436
0.107882
0.124784
0.121852
0.121407
0.124307
0.108095
0.107489
0.123822
0.121206
0.120776
0.123307
0.107613
0.106969
0.122782
0.12058
0.120128
0.122227
0.107002
0.106334
0.121691
0.119914
0.119486
0.121115
0.106309
0.105627
0.120561
0.119281
0.118842
0.119964
0.105538
0.104852
0.119415
0.118624
0.118215
0.118814
0.104728
0.104042
0.118261
0.11801
0.1176
0.117657
0.103878
0.103197
0.117118
0.117386
0.117008
0.116521
0.103013
0.102341
0.115986
0.116808
0.116434
0.115398
0.102135
0.101471
0.114885
0.116229
0.115884
0.114313
0.10126
0.100607
0.113808
0.115693
0.11536
0.113254
0.100386
0.099754
0.112777
0.115171
0.114866
0.112246
0.0995097
0.0988956
0.111774
0.114688
0.114394
0.111262
0.098637
0.0980438
0.110814
0.114217
0.113951
0.110323
0.0977843
0.0971982
0.109883
0.113786
0.113534
0.109419
0.0969449
0.0963886
0.109007
0.11337
0.113141
0.108564
0.0961378
0.0955911
0.108159
0.112987
0.112771
0.107737
0.0953434
0.0948102
0.107358
0.112619
0.112423
0.106956
0.0945737
0.0940532
0.106584
0.11228
0.112098
0.106206
0.0938288
0.0933243
0.105861
0.111957
0.111795
0.105505
0.0931141
0.0926229
0.105166
0.111663
0.111512
0.104835
0.0924269
0.0919516
0.104521
0.111382
0.111248
0.104212
0.0917722
0.0913096
0.103903
0.111127
0.111003
0.103621
0.0911464
0.090699
0.103335
0.110886
0.110776
0.103074
0.0905528
0.0901168
0.102791
0.110667
0.110565
0.102554
0.089991
0.0895601
0.102293
0.110459
0.110371
0.102075
0.0894594
0.0890313
0.101814
0.110272
0.110191
0.10162
0.0889574
0.088533
0.101379
0.110095
0.110024
0.101202
0.0884808
0.0880586
0.10096
0.109934
0.10987
0.100804
0.0880317
0.0876126
0.100581
0.109783
0.109727
0.10044
0.0876048
0.0871875
0.100215
0.109646
0.109595
0.100092
0.0872022
0.0867885
0.0998843
0.109515
0.109472
0.0997731
0.0868186
0.0864077
0.099562
0.109397
0.109358
0.0994665
0.0864563
0.0860513
0.0992722
0.109283
0.109252
0.0991871
0.0861099
0.0857121
0.0989884
0.109182
0.109152
0.098917
0.0857817
0.0853968
0.0987357
0.109083
0.10906
0.0986713
0.0854681
0.0850951
0.0984884
0.108995
0.108974
0.0984321
0.0851732
0.0848122
0.0982656
0.108909
0.108894
0.098215
0.0848909
0.0845402
0.0980458
0.108833
0.108818
0.0980024
0.0846257
0.0842854
0.0978487
0.108757
0.108748
0.0978101
0.0843709
0.0840397
0.0976527
0.108689
0.108681
0.0976206
0.0841322
0.0838099
0.097478
0.108623
0.108619
0.0974499
0.083902
0.0835877
0.0973027
0.108564
0.108561
0.0972805
0.0836865
0.0833802
0.0971475
0.108504
0.108506
0.0971287
0.0834782
0.0831788
0.0969905
0.108452
0.108454
0.096977
0.0832834
0.0829913
0.0968524
0.1084
0.108405
0.0968417
0.0830948
0.0828088
0.0967113
0.108354
0.108359
0.0967054
0.0829188
0.0826392
0.0965882
0.108307
0.108316
0.0965847
0.0827486
0.0824723
0.0964609
0.108265
0.108275
0.0964618
0.0825897
0.0823177
0.0963508
0.108223
0.108236
0.0963537
0.0824357
0.0821642
0.0962356
0.108187
0.108199
0.0962426
0.0822914
0.082024
0.0961369
0.108149
0.108164
0.0961456
0.0821513
0.081884
0.0960324
0.108116
0.108131
0.0960449
0.0820199
0.0817564
0.0959438
0.108082
0.108099
0.0959575
0.0818919
0.0816281
0.0958486
0.108052
0.108069
0.0958657
0.0817719
0.0815118
0.0957686
0.108021
0.108041
0.0957867
0.0816545
0.0813938
0.0956815
0.107994
0.108014
0.0957027
0.0815441
0.081287
0.095609
0.107966
0.107988
0.0956308
0.0814344
0.0811773
0.0955287
0.107941
0.107962
0.0955533
0.0813326
0.0810794
0.0954626
0.107915
0.107938
0.0954875
0.0812319
0.0809783
0.0953878
0.107892
0.107914
0.0954152
0.0811382
0.0808875
0.0953263
0.107867
0.107891
0.0953535
0.0810431
0.0807909
0.0952553
0.107844
0.107867
0.0952847
0.0809535
0.0807044
0.0951972
0.107819
0.107844
0.0952262
0.0808636
0.0806138
0.0951291
0.107797
0.107821
0.0951598
0.0807802
0.0805331
0.095073
0.107772
0.107797
0.095103
0.0806946
0.080445
0.0950061
0.10775
0.107774
0.0950378
0.0806123
0.0803652
0.0949516
0.107726
0.107752
0.0949831
0.0805285
0.0802806
0.0948879
0.107706
0.107731
0.0949218
0.0804519
0.0802083
0.0948383
0.107685
0.107713
0.0948729
0.0803767
0.0801329
0.0947812
0.10767
0.107699
0.094818
0.0803097
0.0800669
0.0947288
0.107654
0.107687
0.0947697
0.0802376
0.0799957
0.0946932
0.107635
0.107672
0.0947332
0.0801686
0.0799266
0.0946488
0.107637
0.107689
0.0946975
0.0801026
0.0798338
0.094604
0.107638
0.107708
0.0946576
0.0799665
0.0796305
0.0945145
0.107613
0.107692
0.0945613
0.0796956
0.0792539
0.0943436
0.107528
0.107491
0.094311
0.0791539
0.0781416
0.0935957
0.107116
0.106361
0.0924804
0.0766685
0.0755078
0.0915481
0.105588
0.0597906
0.0497196
0.0484107
0.0490001
0.0511672
0.0538585
0.0559359
0.0569173
0.0599133
0.0610697
0.0605116
0.0596861
0.0584801
0.0573151
0.0564305
0.0558975
0.0556363
0.0555397
0.055527
0.0555519
0.0555909
0.0556327
0.0556725
0.0557082
0.0557392
0.0557653
0.0557868
0.0558034
0.0558159
0.0558241
0.0558291
0.0558314
0.0558335
0.0558399
0.0558492
0.0558613
0.0558757
0.0558925
0.0559113
0.0559325
0.0559564
0.0559834
0.056014
0.0560484
0.0560866
0.0561284
0.056184
0.0562741
0.0564071
0.0565667
0.0567314
0.0568896
0.0570381
0.0571776
0.0573095
0.0574357
0.0575578
0.0576773
0.0577959
0.0579153
0.0580374
0.0581641
0.0582976
0.05844
0.0585935
0.0587605
0.0589431
0.059144
0.0593657
0.0596109
0.0598827
0.0601839
0.0605179
0.0608879
0.0612972
0.0617491
0.0622471
0.0627941
0.0633931
0.0640468
0.0647574
0.0655267
0.0663561
0.0672462
0.0681974
0.0692095
0.0702814
0.0714121
0.0725998
0.0738423
0.0751372
0.0764817
0.0778728
0.0793074
0.0807822
0.0822937
0.0838385
0.085413
0.0870138
0.0886374
0.0902803
0.0919393
0.0936109
0.0952921
0.0969796
0.0986705
0.100362
0.102051
0.103735
0.105411
0.107078
0.108731
0.110371
0.111993
0.113597
0.11518
0.11674
0.118275
0.119785
0.121266
0.122718
0.124139
0.125529
0.126885
0.128207
0.129495
0.130746
0.131961
0.13314
0.134281
0.135385
0.136451
0.137478
0.138468
0.139418
0.140329
0.1412
0.142031
0.142822
0.143573
0.144284
0.144954
0.145584
0.146173
0.146723
0.147233
0.147703
0.148134
0.148525
0.148875
0.149182
0.149441
0.149649
0.149811
0.149926
0.149984
0.149997
0.149992
0.149976
0.149944
0.149913
0.149905
0.149917
0.149931
0.149938
0.149938
0.149935
0.149931
0.149928
0.149926
0.149925
0.149925
0.149925
0.149925
0.149925
0.149925
0.149926
0.149927
0.149929
0.149932
0.149935
0.149938
0.149942
0.149946
0.149951
0.149955
0.14996
0.149965
0.149969
0.149975
0.14998
0.149986
0.149992
0.149998
0.150005
0.150013
0.150021
0.150029
0.150038
0.150047
0.150057
0.150067
0.150077
0.150088
0.150099
0.150111
0.150124
0.150137
0.150154
0.150179
0.150218
0.150277
0.150343
0.150369
0.150302
0.150155
0.149963
0.149704
0.148967
0.14806
0.145655
0.144281
0.143244
0.141897
0.140981
0.139691
0.13891
0.137694
0.137041
0.135893
0.135362
0.134286
0.133864
0.132864
0.132538
0.13161
0.131371
0.130513
0.130354
0.129565
0.129474
0.128757
0.128727
0.128083
0.128112
0.127537
0.127625
0.127118
0.127266
0.126825
0.127033
0.126658
0.126928
0.126617
0.12695
0.126704
0.127106
0.126927
0.127403
0.127298
0.127859
0.127835
0.128493
0.128562
0.12933
0.129503
0.130397
0.130687
0.131724
0.132148
0.133351
0.133924
0.13532
0.136067
0.137696
0.138658
0.140578
0.141814
0.144114
0.145718
0.148535
0.150664
0.154224
0.157145
0.161826
0.166009
0.172483
0.178845
0.187964
0.197839
0.209395
0.217329
0.227564
0.237076
0.285928
0.385931
0.645674
1
1
0.284092
0.177637
0.147924
0.147101
0.140376
0.141033
0.138416
0.136294
0.13673
0.139131
0.140643
0.141292
0.141039
0.141433
0.141409
0.140777
0.140674
0.139251
0.138952
0.137232
0.136939
0.135371
0.135425
0.134383
0.134971
0.13482
0.136115
0.137
0.13917
0.141289
0.144525
0.148095
0.153056
0.157684
0.165132
0.170996
0.182356
0.189384
0.209039
0.221005
0.258655
0.281961
0.377717
0.319062
0.276147
0.306046
0.298964
0.310673
0.336217
0.309199
0.276025
0.269254
0.308291
0.336033
0.331986
0.297215
0.245771
0.226072
0.276729
0.31549
0.306983
0.265141
0.214392
0.205463
0.25059
0.290982
0.345412
0.375851
0.319999
0.276024
0.241712
0.233034
0.2731
0.248579
0.215551
0.2085
0.247104
0.295962
0.27413
0.229208
0.196921
0.19149
0.228491
0.214849
0.183705
0.180208
0.215395
0.257344
0.245919
0.204278
0.174523
0.173
0.206557
0.197796
0.16917
0.169071
0.201501
0.238368
0.236324
0.194922
0.166694
0.167859
0.200232
0.195644
0.16683
0.169422
0.202625
0.239651
0.248661
0.199971
0.169567
0.173426
0.208836
0.207407
0.174403
0.179206
0.21803
0.26215
0.277225
0.217082
0.180463
0.185796
0.229212
0.228038
0.186838
0.192207
0.242088
0.296527
0.353027
0.240396
0.192658
0.198615
0.26318
0.25699
0.198506
0.203391
0.29521
0.580776
1
0.275058
0.197836
0.203956
0.386743
0.398205
0.202813
0.208233
0.560083
0.441869
0.28556
0.75837
0.221928
0.232881
0.692953
0.646933
0.340872
0.445165
0.445343
0.256159
0.237979
0.402992
1
0.643965
0.328768
0.304596
0.461352
0.357205
0.258412
0.227089
0.219341
0.250734
0.28374
0.239515
0.224514
0.227484
0.228834
0.215379
0.212206
0.214088
0.211534
0.21617
0.215493
0.208371
0.206172
0.207932
0.205778
0.19776
0.198781
0.207716
0.202312
0.198269
0.192832
0.185173
0.189739
0.188907
0.181176
0.175041
0.181605
0.196054
0.189979
0.181034
0.172192
0.167344
0.174863
0.174631
0.165326
0.161399
0.169345
0.184404
0.179488
0.169392
0.159955
0.156688
0.164791
0.165043
0.155647
0.152869
0.160985
0.175189
0.171442
0.161389
0.152118
0.149715
0.157771
0.158286
0.149184
0.147078
0.155033
0.168171
0.165311
0.155634
0.146721
0.14486
0.152696
0.153367
0.144643
0.142988
0.150708
0.162811
0.160626
0.151431
0.142902
0.141434
0.149007
0.149777
0.141454
0.140147
0.147568
0.158719
0.157053
0.148373
0.140262
0.139098
0.146358
0.147191
0.139297
0.138261
0.145352
0.155593
0.154313
0.146205
0.138536
0.137614
0.144532
0.1454
0.137952
0.13713
0.143874
0.153212
0.152259
0.144747
0.137524
0.13679
0.143356
0.144228
0.137232
0.13658
0.142963
0.151439
0.150736
0.14383
0.137066
0.13649
0.142685
0.143544
0.137018
0.136516
0.142516
0.150141
0.149647
0.143366
0.137086
0.136655
0.142451
0.143292
0.137266
0.136906
0.14249
0.149246
0.148931
0.143321
0.137558
0.137267
0.142629
0.143453
0.137954
0.137726
0.142853
0.148691
0.148526
0.143663
0.138446
0.138282
0.143153
0.143946
0.139034
0.138933
0.143526
0.148427
0.148388
0.144298
0.139716
0.139679
0.143967
0.144714
0.140492
0.140521
0.144479
0.148405
0.148476
0.145189
0.141362
0.141463
0.14506
0.145718
0.142309
0.142501
0.145694
0.148594
0.148757
0.146298
0.143334
0.143625
0.146375
0.146925
0.144437
0.14482
0.147094
0.148962
0.149204
0.147589
0.145605
0.146075
0.147838
0.148279
0.146825
0.147362
0.148586
0.149464
0.149922
0.149887
0.149872
0.149897
0.149969
0.15009
0.150262
0.150488
0.15077
0.151111
0.15152
0.152009
0.152584
0.153254
0.154025
0.154905
0.1559
0.157019
0.158277
0.159687
0.161268
0.163043
0.165049
0.167318
0.169878
0.172762
0.176003
0.179639
0.183706
0.188244
0.19327
0.198764
0.204555
0.21031
0.215435
0.219441
0.222608
0.225299
0.229076
0.231155
0.236162
0.2389
0.253124
0.313794
0.441365
0.665751
0.691803
0.487102
0.402908
0.36699
0.349212
0.341176
0.3416
0.348507
0.357793
0.369136
0.377337
0.467724
0.414497
0.342125
0.28896
0.24561
0.201229
0.199144
0.239699
0.280434
0.287343
0.241409
0.20074
0.20426
0.242381
0.282963
0.344501
0.441919
0.457556
0.357778
0.297922
0.251159
0.211436
0.221038
0.257468
0.294951
0.316431
0.272065
0.235191
0.253166
0.284726
0.315156
0.3727
0.454616
0.53094
0.582611
0.552888
0.695874
0.505451
0.526513
0.534845
1
0.877912
1
0.774637
0.608515
0.681335
0.744764
1
1
1
0.533569
0.533196
1
0.919756
0.539849
0.567815
0.741658
0.493133
0.800239
1
0.636681
0.745845
0.419909
0.421814
0.431041
0.446003
0.444657
0.421589
0.377926
0.335602
0.306148
0.279521
0.308221
0.319319
0.333622
0.345814
0.342986
0.352486
0.393215
0.332444
0.325032
0.3572
0.363424
0.305418
0.300789
0.302972
0.308445
0.340048
0.468539
0.865726
0.79849
0.915725
0.533811
0.408474
0.347409
0.872656
1
0.419298
0.404853
1
0.381042
0.289063
0.932373
1
0.469122
0.649171
1
0.55907
0.430146
0.257155
0.246476
0.251091
0.252609
0.302359
0.306457
0.361304
0.349585
0.337739
0.330653
0.308248
0.301389
0.302052
0.29871
0.3031
0.301518
0.255413
0.257221
0.230496
0.218504
0.23504
0.221888
0.244696
0.239823
0.282079
0.318349
0.768577
1
0.427633
0.308297
0.245265
0.22039
0.214754
0.19649
0.198312
0.18701
0.21603
0.227741
0.216475
0.184396
0.191873
0.19031
0.227914
0.2576
0.257159
0.229152
0.217694
0.184823
0.191798
0.188086
0.221324
0.233074
0.260979
0.263937
0.270543
0.278943
0.313923
0.324887
0.33836
0.365907
0.412058
0.389953
0.488806
0.368425
0.294455
0.351204
0.503035
0.629312
0.617303
0.366715
0.297622
0.429398
0.337135
0.26227
0.241168
0.255191
0.285492
0.258052
0.240828
0.23367
0.228426
0.234338
0.251177
0.285951
0.336552
0.374607
0.402599
0.435685
0.393618
0.363778
0.34034
0.310787
0.291268
0.266463
0.252642
0.255051
0.241857
0.246143
0.23368
0.238345
0.226282
0.193078
0.195774
0.201742
0.20023
0.209672
0.208842
0.21924
0.219059
0.230474
0.232116
0.266151
0.283441
0.28804
0.253801
0.247836
0.274548
0.309487
0.339848
0.380467
0.347908
0.320947
0.286363
0.313452
0.335313
0.369612
0.406575
0.439675
0.517698
0.472431
0.479149
0.453654
0.572125
0.5956
0.65375
0.578011
0.506364
0.448108
0.419506
0.3746
0.487385
0.580705
0.560069
0.466179
0.679292
0.685083
0.825203
0.740282
0.75994
0.693753
0.923435
0.953113
1
0.867179
1
1
1
0.91405
0.661586
0.529562
0.417023
0.368487
0.301203
0.249494
0.228555
0.224247
0.214683
0.220869
0.245916
0.33094
0.326451
0.35249
0.467482
0.524086
0.61051
0.764449
0.4505
0.400798
0.336164
0.324997
0.239529
0.252943
0.250036
0.231348
0.203709
0.23323
0.212147
0.195372
0.228818
0.31398
0.421725
0.197696
0.168042
0.171601
0.191343
0.188959
0.173844
0.171185
0.157238
0.151412
0.145575
0.164629
0.128353
0.136069
0.144235
0.155392
0.166442
0.178069
0.19294
0.207109
0.214032
0.196844
0.198133
0.180322
0.167326
0.15704
0.14198
0.135914
0.125498
0.123094
0.117324
0.114388
0.116025
0.119051
0.122871
0.121412
0.122816
0.114282
0.125956
0.111011
0.127454
0.11164
0.123076
0.119189
0.0982788
0.119122
0.099153
0.117176
0.109478
0.0855557
0.110727
0.0836984
0.110216
0.0829776
0.109045
0.0958656
0.0740039
0.0951432
0.0718015
0.0957757
0.0704704
0.0942586
0.0688452
0.0947475
0.068499
0.0965723
0.0761955
0.0608034
0.0806259
0.0608979
0.0805171
0.0597047
0.0801602
0.0590323
0.0778803
0.057734
0.0769717
0.0569189
0.0751378
0.055902
0.0738191
0.0549769
0.0722293
0.0540193
0.0708924
0.0531369
0.0691815
0.0522672
0.0678311
0.051421
0.0659214
0.0505548
0.0640544
0.0494113
0.0607062
0.0507873
0.0543583
0.0799007
0.104029
0.0858517
0.105423
0.0907029
0.108862
0.0927761
0.109633
0.0960018
0.11266
0.0974993
0.113295
0.100333
0.116009
0.101712
0.116539
0.104248
0.118955
0.1053
0.119266
0.107601
0.121243
0.108337
0.121108
0.109994
0.122502
0.109315
0.121431
0.109547
0.120453
0.128655
0.141182
0.134664
0.139019
0.130415
0.12811
0.132884
0.136749
0.126313
0.130806
0.133951
0.126632
0.123845
0.128113
0.131424
0.120995
0.125457
0.128245
0.120806
0.117613
0.122157
0.125357
0.113861
0.118944
0.121479
0.113237
0.109667
0.0978015
0.0690714
0.0501832
0.0656253
0.0496494
0.0631725
0.0486892
0.0619309
0.0480701
0.0596761
0.0470464
0.058572
0.0462741
0.0547639
0.0465693
0.049842
0.0715407
0.0920003
0.0743837
0.0927809
0.0811619
0.0976177
0.0820845
0.0979795
0.0872233
0.102646
0.0879396
0.103553
0.0940921
0.108419
0.118379
0.110384
0.114521
0.105837
0.110893
0.101509
0.105795
0.0852982
0.0610937
0.0460606
0.0587657
0.0459134
0.0569223
0.0452055
0.0549411
0.0443377
0.052048
0.0449918
0.0471377
0.0574992
0.0443554
0.0545076
0.0439421
0.0522099
0.0431566
0.050677
0.0424597
0.0478564
0.0426291
0.0439419
0.060198
0.0805629
0.0628107
0.0817922
0.068886
0.0859898
0.0704659
0.0870562
0.0768249
0.0919968
0.0805737
0.0662962
0.0876315
0.0712631
0.0897694
0.0763173
0.0935999
0.0790329
0.0948039
0.083525
0.0961365
0.101881
0.113757
0.107317
0.108891
0.101546
0.098254
0.103042
0.105707
0.0972971
0.093597
0.0990212
0.101264
0.0937298
0.0980319
0.0895997
0.092866
0.074259
0.0526741
0.0418456
0.0510867
0.0418493
0.0492722
0.0413577
0.0471428
0.0421109
0.0431265
0.0570674
0.0723761
0.0516967
0.041451
0.048412
0.0409722
0.0470598
0.0406847
0.0452652
0.0400707