/*--------------------------------*- C++ -*----------------------------------*\
| =========                 |                                                 |
| \\      /  F ield         | OpenFOAM: The Open Source CFD Toolbox           |
|  \\    /   O peration     | Version:  v2006                                 |
|   \\  /    A nd           | Website:  www.openfoam.com                      |
|    \\/     M anipulation  |                                                 |
\*---------------------------------------------------------------------------*/
FoamFile
{
    version     2.0;
    format      ascii;
    class       volVectorField;
    location    "0.046";
    object      U;
}
// * * * * * * * * * * * * * * * * * * * * * * * * * * * * * * * * * * * * * //

dimensions      [0 1 -1 0 0 0 0];


internalField   nonuniform List<vector> 
9148
(
(62.0288 5.16559e-05 -9.11561e-20)
(62.0288 -6.7129e-05 8.33985e-21)
(62.0288 5.9903e-05 0)
(62.0287 -3.83253e-05 -4.93366e-20)
(62.0277 1.54858e-05 6.65993e-19)
(62.0164 -0.00190364 3.55157e-23)
(61.9672 -0.0107831 -6.05554e-19)
(61.8684 -0.026244 -3.44894e-19)
(61.7287 -0.0448349 -1.4697e-18)
(61.5711 -0.0622098 1.53392e-18)
(61.4071 -0.0776882 -2.01259e-19)
(61.2411 -0.0910451 2.0443e-19)
(61.0702 -0.103287 0)
(60.8918 -0.114692 3.27481e-21)
(60.7037 -0.125544 8.25776e-22)
(60.5049 -0.135874 0)
(60.2952 -0.1457 0)
(60.0748 -0.155028 0)
(59.8441 -0.16388 0)
(59.6033 -0.172291 0)
(59.3528 -0.180295 0)
(59.0928 -0.187916 0)
(58.8238 -0.195164 0)
(58.546 -0.202039 0)
(58.26 -0.208529 0)
(57.9661 -0.214615 0)
(57.6651 -0.220276 0)
(57.3573 -0.225484 0)
(57.0435 -0.230212 0)
(56.7242 -0.234434 0)
(56.4002 -0.238124 0)
(56.0721 -0.241263 0)
(55.7407 -0.243832 0)
(55.4067 -0.245817 0)
(55.0709 -0.247206 0)
(54.7339 -0.247993 0)
(54.3965 -0.248172 0)
(54.0594 -0.247741 0)
(53.7235 -0.246677 0)
(53.3894 -0.244984 0)
(53.0579 -0.242675 0)
(52.7298 -0.239733 0)
(52.4059 -0.236153 0)
(52.0869 -0.231932 0)
(51.7736 -0.227069 0)
(51.4668 -0.221563 0)
(51.1673 -0.215411 0)
(50.8759 -0.208609 0)
(50.5932 -0.201154 0)
(50.3201 -0.193021 0)
(50.0571 -0.184195 0)
(49.8052 -0.17467 0)
(49.5648 -0.164404 5.55089e-20)
(49.3365 -0.15344 -4.84595e-20)
(49.1201 -0.141594 0)
(48.9146 -0.128605 5.53608e-20)
(48.7185 -0.113613 1.10986e-19)
(48.5319 -0.095979 0)
(48.3602 -0.0750549 3.16877e-18)
(48.2201 -0.0539628 4.62669e-18)
(48.1327 -0.0368045 -7.10005e-18)
(48.1007 -0.0269523 -3.2966e-18)
(48.1021 -0.020727 0)
(48.1135 -0.0138656 0)
(48.1224 -0.00677484 0)
(48.1205 -0.0102126 1.17429e-17)
(48.1013 -0.0139206 -4.01329e-18)
(48.0484 -0.0226249 0)
(47.9484 -0.0462695 -4.72358e-19)
(47.7564 -0.0706591 1.71412e-18)
(47.5105 -0.0862241 0)
(46.5675 -0.124843 2.80398e-19)
(45.9732 -0.103323 -2.56446e-19)
(47.5322 -0.131639 0)
(47.8226 -0.113896 1.07948e-17)
(47.8629 -0.14163 -8.74993e-20)
(47.481 -0.154944 1.75844e-18)
(45.3548 -0.102265 -2.11156e-18)
(44.7292 -0.0931084 8.73187e-19)
(47.3912 -0.154305 -7.71719e-19)
(47.8799 -0.149214 7.98439e-20)
(47.8627 -0.152568 0)
(47.2705 -0.146767 0)
(44.1736 -0.0835152 0)
(43.6263 -0.0733336 -9.12429e-19)
(47.1085 -0.136181 6.621e-19)
(47.813 -0.15063 -1.10333e-18)
(47.7386 -0.150218 4.87459e-19)
(46.9372 -0.12933 9.86673e-20)
(43.1307 -0.0669972 -4.79821e-19)
(42.6601 -0.061595 4.73202e-19)
(46.7443 -0.121725 0)
(47.6512 -0.148003 -6.50346e-19)
(47.552 -0.146794 -7.4367e-19)
(46.5596 -0.117118 0)
(42.2199 -0.0577376 -6.06921e-20)
(41.814 -0.0540546 6.07048e-20)
(46.3696 -0.112366 0)
(47.4434 -0.145724 4.15343e-20)
(47.3247 -0.144252 4.16624e-20)
(46.1742 -0.108103 0)
(41.4272 -0.0508111 0)
(41.063 -0.0476816 0)
(45.9736 -0.103994 0)
(47.2011 -0.143237 0)
(47.0624 -0.141661 6.68229e-19)
(45.7685 -0.100726 -8.06403e-19)
(40.706 -0.0454309 0)
(40.3698 -0.0430724 0)
(45.5617 -0.097918 0)
(46.9243 -0.141542 0)
(46.7733 -0.140372 0)
(45.3525 -0.0956459 0)
(40.0387 -0.0416322 0)
(39.7229 -0.0397377 0)
(45.141 -0.0935943 0)
(46.6234 -0.140672 0)
(46.4602 -0.139875 0)
(44.9263 -0.0919819 0)
(39.4089 -0.0388091 0)
(39.1072 -0.037282 0)
(44.7098 -0.0906016 0)
(46.2996 -0.140694 0)
(46.1255 -0.140299 0)
(44.4899 -0.0895483 0)
(38.8056 -0.0367476 0)
(38.5138 -0.0354896 0)
(44.2684 -0.0886805 0)
(45.955 -0.141573 0)
(45.7705 -0.141534 0)
(44.0429 -0.0880725 0)
(38.2206 -0.035263 0)
(37.9353 -0.0342104 0)
(43.8158 -0.0876169 0)
(45.5904 -0.143223 0)
(45.3955 -0.143506 0)
(43.5842 -0.0873814 0)
(37.6474 -0.0342326 0)
(37.3657 -0.0333363 0)
(43.3506 -0.0872598 0)
(45.2055 -0.145573 0)
(45 -0.146152 0)
(43.1121 -0.0873403 0)
(37.0803 -0.0335646 0)
(36.7996 -0.0327883 0)
(42.8713 -0.0875046 0)
(44.7997 -0.148577 0)
(44.5831 -0.149459 0)
(42.6248 -0.0878734 0)
(36.5143 -0.0331963 0)
(36.2325 -0.0325218 0)
(42.3756 -0.0883071 0)
(44.3719 -0.152261 0)
(44.1435 -0.153466 0)
(42.1201 -0.088951 0)
(35.945 -0.0330947 0)
(35.6601 -0.0325129 0)
(41.8613 -0.089653 0)
(43.9204 -0.156679 0)
(43.6794 -0.158232 0)
(41.5958 -0.0905661 0)
(35.3686 -0.0332414 0)
(35.0786 -0.0327451 0)
(41.3263 -0.0915376 0)
(43.4437 -0.161885 0)
(43.1892 -0.163802 0)
(41.0495 -0.0927138 0)
(34.7813 -0.033621 0)
(34.4847 -0.0332039 0)
(40.7683 -0.0939531 0)
(42.94 -0.167913 0)
(42.6713 -0.170199 0)
(40.4793 -0.0953832 0)
(34.1802 -0.0342184 0)
(33.8758 -0.0338767 0)
(40.1854 -0.0968878 0)
(42.4079 -0.17478 0)
(42.1243 -0.17744 0)
(39.8832 -0.098566 0)
(33.5626 -0.0350223 0)
(33.249 -0.0347556 0)
(39.5756 -0.100338 0)
(41.8458 -0.182509 0)
(41.5463 -0.18556 0)
(39.2592 -0.102269 0)
(32.926 -0.0360289 0)
(32.6018 -0.0358428 0)
(38.9367 -0.104325 0)
(41.2518 -0.191153 0)
(40.9352 -0.194638 0)
(38.6047 -0.106528 0)
(32.2672 -0.0372477 0)
(31.9306 -0.037154 0)
(38.2656 -0.108902 0)
(40.623 -0.200824 0)
(40.2876 -0.204819 0)
(37.916 -0.111418 0)
(31.5823 -0.0387034 0)
(31.2308 -0.03872 0)
(37.5581 -0.114164 0)
(39.9557 -0.211699 0)
(39.599 -0.216307 0)
(37.1883 -0.117047 0)
(30.8662 -0.0404337 0)
(30.4969 -0.0405805 0)
(36.8087 -0.120233 0)
(39.2447 -0.224007 0)
(38.8639 -0.229323 0)
(36.4157 -0.123532 0)
(30.1127 -0.0424767 0)
(29.7222 -0.0427628 0)
(36.0111 -0.127205 0)
(38.4842 -0.237932 0)
(38.0761 -0.243976 0)
(35.5916 -0.13093 0)
(29.3151 -0.0448462 0)
(28.9003 -0.0452686 0)
(35.1589 -0.135113 0)
(37.6679 -0.253541 0)
(37.2295 -0.260401 0)
(34.7096 -0.139306 0)
(28.467 -0.0475573 0)
(28.0244 -0.0481434 0)
(34.2453 -0.144096 0)
(36.7897 -0.271104 0)
(36.3178 -0.278967 0)
(33.7627 -0.148857 0)
(27.5616 -0.0506748 0)
(27.0878 -0.0514722 0)
(33.2632 -0.1544 0)
(35.8429 -0.291087 0)
(35.3338 -0.300197 0)
(32.7435 -0.159864 0)
(26.5916 -0.0543 0)
(26.0824 -0.0553917 0)
(32.2043 -0.166373 0)
(34.8197 -0.314137 0)
(34.2689 -0.324511 0)
(31.6426 -0.172583 0)
(25.5481 -0.0585299 0)
(24.999 -0.0598727 0)
(31.0592 -0.180062 0)
(33.7115 -0.340224 0)
(33.1144 -0.353054 0)
(30.4503 -0.18757 0)
(24.4216 -0.0635019 0)
(23.826 -0.0653075 0)
(29.8159 -0.196541 0)
(32.5074 -0.371503 0)
(31.8562 -0.387355 0)
(29.1512 -0.205669 0)
(23.1969 -0.0695639 0)
(22.5445 -0.0720171 0)
(28.4555 -0.216619 0)
(31.1905 -0.409385 0)
(30.4741 -0.429407 0)
(27.7229 -0.228023 0)
(21.8516 -0.0771486 0)
(21.1276 -0.080577 0)
(26.9514 -0.241853 0)
(29.7365 -0.456605 0)
(28.9389 -0.48286 0)
(26.1327 -0.256692 0)
(20.3524 -0.087008 0)
(19.5342 -0.0919295 0)
(25.2629 -0.274958 0)
(28.1096 -0.517961 0)
(27.2059 -0.554128 0)
(24.3301 -0.295284 0)
(18.6484 -0.100539 0)
(17.699 -0.107897 0)
(23.3271 -0.320788 0)
(26.2548 -0.601988 0)
(25.2062 -0.654598 0)
(22.2352 -0.350307 0)
(16.6574 -0.120075 0)
(15.5167 -0.131718 0)
(21.0413 -0.388135 0)
(24.085 -0.724177 0)
(22.8286 -0.805872 0)
(19.7154 -0.434132 0)
(14.2416 -0.150294 0)
(12.8037 -0.17008 0)
(18.2294 -0.495044 0)
(21.4559 -0.915488 0)
(19.8827 -1.05529 0)
(16.5333 -0.575343 0)
(11.1536 -0.203031 0)
(9.20382 -0.245358 0)
(14.5615 -0.688928 0)
(18.1164 -1.25207 0)
(16.0129 -1.51898 0)
(12.1871 -0.826974 0)
(6.75036 -0.283359 0)
(4.33323 -0.613422 0)
(9.41451 -1.29358 0)
(13.6381 -2.06661 0)
(10.9106 -2.34952 0)
(5.52801 -1.4887 0)
(-2.39835 -0.440816 0)
(-4.88444 0.0658691 0)
(1.51346 -0.992746 0)
(7.9172 -2.18999 0)
(3.55238 -1.81319 0)
(-3.80381 -0.459502 0)
(-6.23587 -0.04759 0)
(-7.29745 -0.085412 0)
(-5.55996 -0.272519 0)
(-0.897095 -0.93319 0)
(-3.32145 -0.213417 0)
(-6.77116 -0.217248 0)
(-8.01834 0.0589558 0)
(-7.76412 0.211376 0)
(-6.87047 0.0502014 0)
(-4.21633 0.498286 0)
(-4.18925 0.82768 0)
(-6.12269 0.427008 0)
(-6.41479 0.283291 0)
(-4.13968 0.293798 0)
(-5.13844 0.569978 0)
(-4.77795 0.821513 0)
(-5.38533 0.127022 0)
(-4.56794 0.274737 0)
(-2.57075 0.106487 0)
(-1.99361 0.0231596 0)
(-4.45921 0.252043 0)
(-5.54167 0.0490377 0)
(-5.74342 -0.373158 0)
(-4.51891 -0.0756556 0)
(-1.62599 -0.0624961 0)
(-2.46887 -0.0716012 0)
(-5.14381 -0.207532 0)
(-6.31524 -0.290808 0)
(-6.90121 -0.542382 0)
(-5.82174 -0.300117 0)
(-3.22636 -0.106728 0)
(-4.12713 -0.0750254 0)
(-6.65188 -0.178917 0)
(-7.58166 -0.314179 0)
(-7.97524 -0.352836 0)
(-7.12722 -0.161445 0)
(-4.66634 -0.078822 0)
(-5.05572 -0.0296214 0)
(-7.48017 -0.0068546 0)
(-8.2631 -0.0726858 0)
(-8.15923 0.0326887 0)
(-7.38072 0.0607134 0)
(-4.97769 -0.00169317 0)
(-4.69079 0.05272 0)
(-7.12321 0.132035 0)
(-7.95074 0.203667 0)
(-7.72225 0.162744 0)
(-6.7995 0.113709 0)
(-4.18851 0.0592164 0)
(-3.79873 0.054916 0)
(-6.60603 0.0847012 0)
(-7.62689 0.125908 0)
(-7.637 0.00916092 0)
(-6.5432 0.00625559 0)
(-3.53726 0.0229395 0)
(-3.59858 -0.00952584 0)
(-6.63671 -0.0545876 0)
(-7.75383 -0.0817426 0)
(-7.95869 -0.167115 0)
(-6.85569 -0.102272 0)
(-3.85143 -0.0290211 0)
(-4.21907 -0.0399651 0)
(-7.18643 -0.129495 0)
(-8.23472 -0.215808 0)
(-8.56336 -0.250476 0)
(-7.58188 -0.148213 0)
(-4.66316 -0.04822 0)
(-5.14866 -0.0529365 0)
(-8.01438 -0.154784 0)
(-8.91065 -0.260111 0)
(-9.26782 -0.264748 0)
(-8.45433 -0.15745 0)
(-5.65217 -0.0551876 0)
(-6.15273 -0.0550097 0)
(-8.88701 -0.151628 0)
(-9.61171 -0.25241 0)
(-9.93869 -0.239703 0)
(-9.29496 -0.144537 0)
(-6.63785 -0.0536795 0)
(-7.09302 -0.0507165 0)
(-9.66911 -0.131262 0)
(-10.2324 -0.214492 0)
(-10.4904 -0.191056 0)
(-9.99827 -0.118249 0)
(-7.51121 -0.0472478 0)
(-7.88316 -0.042586 0)
(-10.2792 -0.100673 0)
(-10.7033 -0.158375 0)
(-10.8688 -0.128132 0)
(-10.5044 -0.0839431 0)
(-8.20666 -0.0379134 0)
(-8.47272 -0.0324232 0)
(-10.671 -0.0641247 0)
(-10.9797 -0.0917445 0)
(-11.0336 -0.057245 0)
(-10.7742 -0.0448446 0)
(-8.68098 -0.0270992 0)
(-8.82769 -0.0209179 0)
(-10.8129 -0.0231361 0)
(-11.0271 -0.0182296 0)
(-10.9548 0.0226554 0)
(-10.7816 -0.00130063 0)
(-8.9105 -0.014946 0)
(-8.92394 -0.00825176 0)
(-10.6752 0.0224832 0)
(-10.8159 0.067352 0)
(-10.6045 0.113174 0)
(-10.4901 0.0476905 0)
(-8.86548 -0.000914871 0)
(-8.72205 0.00787313 0)
(-10.2266 0.0737082 0)
(-10.3226 0.160546 0)
(-9.96107 0.210807 0)
(-9.88248 0.101587 0)
(-8.49458 0.0168047 0)
(-8.17691 0.0263261 0)
(-9.45428 0.127615 0)
(-9.52335 0.259214 0)
(-8.99756 0.314611 5.14891e-19)
(-8.93892 0.157487 -6.17271e-19)
(-7.77194 0.0369526 0)
(-7.26723 0.0467931 0)
(-8.32844 0.181777 -2.05524e-19)
(-8.38632 0.362765 1.71103e-19)
(-7.67355 0.426373 1.34585e-18)
(-7.62128 0.213967 0)
(-6.67082 0.0604172 0)
(-5.95485 0.0692856 -9.74883e-19)
(-6.80234 0.233492 1.21188e-18)
(-6.85989 0.468444 2.79734e-23)
(-5.9516 0.537985 -3.85224e-18)
(-5.90081 0.268075 1.14505e-18)
(-5.17686 0.0843933 -1.81856e-18)
(-4.27054 0.0842044 1.96856e-18)
(-4.8898 0.27948 0)
(-4.9546 0.562276 5.25547e-18)
(-3.90985 0.657786 2.5446e-18)
(-3.85915 0.330133 -7.57349e-19)
(-3.38619 0.100346 -1.23306e-23)
(-2.27638 0.116396 1.06628e-18)
(-2.65151 0.370009 0)
(-2.73474 0.73862 2.80795e-18)
(-1.52243 0.739355 1.78098e-19)
(-1.45733 0.366992 0)
(-1.21381 0.114036 0)
(-0.293732 0.0884151 0)
(-0.478457 0.284957 1.82044e-18)
(-0.555328 0.648424 -1.70426e-18)
(-0.587302 1.27139 0)
(-0.574446 2.37651 0)
(-0.544873 3.43026 0)
(-0.496543 4.53416 0)
(-0.433359 5.50792 0)
(-0.372454 6.39111 1.85252e-18)
(-0.301339 7.11209 -1.95615e-18)
(-0.232028 7.68609 2.32475e-19)
(-0.15898 8.10179 -1.1645e-19)
(-0.0871619 8.36061 0)
(-0.011414 8.45554 0)
(0.0722537 8.38187 0)
(0.165985 8.13282 0)
(0.269969 7.69273 0)
(0.381838 7.05234 1.93668e-18)
(0.511461 6.20521 -5.91043e-18)
(0.635136 5.15817 4.13512e-18)
(0.792008 3.92425 0)
(0.944426 2.53221 -2.24294e-18)
(1.35949 1.34951 7.05713e-17)
(1.11298 -0.577491 -1.6447e-16)
(0.205588 -0.912351 9.43259e-18)
(0.0919539 -1.43145 0)
(-0.440583 -1.29159 2.63763e-17)
(-0.560443 -0.743816 0)
(-0.675715 -0.37585 0)
(-0.59595 -0.127279 1.78274e-17)
(-0.747142 -0.0297052 7.11059e-17)
(-1.08439 -0.111606 -2.44612e-16)
(-1.11971 -0.336781 1.24731e-21)
(-1.47914 -0.290141 -4.02523e-17)
(-1.57072 -0.0580948 9.09976e-17)
(-1.0131 0.0296911 -3.24897e-17)
(-1.29557 0.00700854 -1.13106e-17)
(-2.12584 -0.0236947 3.32507e-17)
(-2.04778 -0.137156 -4.7372e-17)
(-2.15988 -0.0295038 -2.80571e-17)
(-2.19178 0.0375825 -2.13335e-22)
(-1.14359 0.00771767 0)
(-1.17471 0.0055866 -1.21384e-18)
(-2.33701 -0.00344573 0)
(-2.38403 -0.0355457 -8.29165e-18)
(-2.3344 0.100436 1.69308e-18)
(-2.19101 0.0529418 2.55656e-19)
(-0.98324 0.011514 1.2361e-18)
(-0.916891 0.00242104 0)
(-2.10691 -0.035533 7.8829e-18)
(-2.23828 -0.00999369 -1.3558e-17)
(-2.10348 0.0039235 0)
(-2.07886 -0.0373325 2.06649e-18)
(-0.99443 -0.0217669 -2.46306e-18)
(-1.46469 -0.0621627 3.08185e-19)
(-2.17351 -0.147257 0)
(-1.5487 -0.20573 0)
(-1.68187 -0.134647 0)
(-2.63184 -0.0182231 0)
(-1.95464 -0.025535 -3.10691e-19)
(-1.97101 -0.0273162 0)
(-2.73447 0.0366441 0)
(-1.38267 -0.0682374 -3.44957e-18)
(-1.09306 0.187717 3.43499e-18)
(-2.59696 0.0880275 0)
(-1.79743 0.0318659 0)
(-1.41282 0.0504481 0)
(-2.0358 0.022857 0)
(0.566543 0.353286 -3.43519e-18)
(2.11303 0.563884 3.428e-18)
(-1.30893 0.116829 0)
(-1.16536 -0.0114015 0)
(-0.938786 -0.0922761 0)
(0.891198 0.166771 0)
(3.88161 0.586622 -3.42157e-18)
(5.2527 0.493842 3.41556e-18)
(2.27478 0.171568 0)
(-0.805671 -0.0352797 0)
(-0.288843 0.0174919 0)
(3.58063 0.222197 0)
(6.49031 0.49226 -3.41105e-18)
(7.49865 0.454098 3.40698e-18)
(4.75247 0.223257 0)
(0.473011 0.0419906 0)
(1.20339 0.0448901 0)
(5.84498 0.218364 0)
(8.43827 0.426106 -3.4043e-18)
(9.20192 0.375069 3.40119e-18)
(6.76198 0.200857 0)
(1.90798 0.0537135 0)
(2.64362 0.0534455 0)
(7.65225 0.19801 0)
(9.93173 0.357799 -3.39842e-18)
(10.5216 0.309526 3.39522e-18)
(8.38656 0.176975 0)
(3.30015 0.0575889 0)
(3.96151 0.0278223 0)
(9.10441 0.169486 0)
(11.0853 0.318563 3.3927e-18)
(11.5571 0.282354 3.38975e-18)
(9.69671 0.156316 0)
(4.56439 0.0292119 0)
(5.19186 0.0304554 0)
(10.3064 0.156155 0)
(12.0213 0.279452 -3.38665e-18)
(12.4063 0.246891 3.38401e-18)
(10.8036 0.144224 0)
(5.76181 0.0315884 0)
(6.35814 0.0329086 0)
(11.3242 0.146097 0)
(12.7831 0.247798 -3.38138e-18)
(13.1016 0.227199 3.379e-18)
(11.7462 0.138892 0)
(6.92172 0.0338587 0)
(7.5337 0.0643599 0)
(12.2054 0.154804 0)
(13.4183 0.224444 -3.3758e-18)
(13.6893 0.204686 3.37658e-18)
(12.5939 0.147373 0)
(8.12682 0.0723569 0)
(8.81368 0.0817598 0)
(13.0389 0.16497 0)
(13.9711 0.233576 0)
(14.2503 0.262649 0)
(13.459 0.191868 0)
(9.55674 0.122537 0)
(10.337 0.250057 0)
(13.8966 0.349469 1.65188e-17)
(14.4915 0.428483 -1.36602e-17)
(14.6049 0.644495 0)
(14.133 0.602333 -3.29386e-17)
(10.9002 0.485465 1.78082e-22)
(11.2858 0.746478 0)
(14.1792 0.892666 -2.54575e-19)
(14.541 0.899565 -8.40161e-19)
(14.3713 1.07706 8.26451e-19)
(14.0796 1.09936 2.49344e-19)
(11.4884 0.948897 0)
(11.6538 1.14091 0)
(13.8762 1.28027 6.30785e-17)
(14.0891 1.23098 -1.05867e-16)
(13.7198 1.3468 -4.94142e-17)
(13.5598 1.43802 0)
(11.6534 1.32089 0)
(11.5491 1.44775 7.39911e-17)
(13.1339 1.52447 -6.15051e-17)
(13.2349 1.40547 0)
(12.6677 1.42765 -4.22895e-17)
(12.6103 1.57874 1.18369e-16)
(11.2838 1.55624 4.44316e-18)
(10.9015 1.61626 -6.54774e-17)
(11.9577 1.55674 0)
(11.9574 1.37511 -5.11633e-17)
(11.1373 1.33789 0)
(11.2024 1.57836 0)
(10.3953 1.74206 1.18373e-16)
(9.72969 1.73383 1.76358e-16)
(10.2434 1.49396 0)
(10.18 1.16515 8.24821e-18)
(9.59628 1.42355 -2.93787e-17)
(9.459 1.60834 0)
(8.21191 1.5793 0)
(7.99494 1.58157 1.8177e-16)
(8.63902 1.53986 2.86052e-19)
(8.67106 1.24384 3.72107e-18)
(7.5247 0.873911 0)
(7.51366 1.29837 1.26751e-16)
(7.08369 1.47806 1.90426e-21)
(5.8645 1.26121 0)
(6.09675 0.901931 0)
(6.10301 0.354339 1.14103e-17)
(4.44234 -0.372303 1.55394e-16)
(4.51762 0.37041 0)
(4.44707 0.986323 1.30306e-16)
(2.50083 0.560997 -1.86253e-16)
(2.21745 -0.181077 0)
(2.16698 -0.992543 -4.27297e-17)
(1.03064 -1.11375 1.18345e-17)
(1.00152 -0.407844 -3.23094e-18)
(1.10328 0.199344 2.36804e-16)
(-1.87927 -1.23646 -1.45472e-18)
(-1.94539 -2.23226 1.46716e-16)
(-1.59498 -3.16231 -1.1443e-16)
(-4.91814 -5.76364 -3.30827e-16)
(-5.53795 -4.40331 3.34651e-16)
(-5.86936 -3.42006 -3.07013e-16)
(-8.72748 -4.58549 2.12775e-16)
(-8.8255 -5.67867 0)
(-8.72313 -7.27354 9.42862e-18)
(-11.7435 -11.5707 -1.75456e-16)
(-13.0493 -10.0345 1.07092e-16)
(-13.7003 -8.46696 1.58145e-17)
(-19.8357 -14.9954 1.61916e-16)
(-17.9449 -16.7855 3.07184e-17)
(-14.9134 -18.554 1.45016e-16)
(-20.4161 -25.9028 2.47186e-16)
(-22.3451 -24.3848 -3.37823e-17)
(-24.0651 -22.3809 1.87225e-16)
(-27.8541 -32.628 3.27814e-16)
(-25.0428 -33.9748 -2.69903e-16)
(-23.8113 -34.5587 2.33788e-16)
(-16.3929 -49.3193 1.32659e-16)
(-19.7305 -51.3522 0)
(-26.8331 -53.9565 2.62523e-16)
(-13.5526 -72.1984 0)
(-1.82246 -67.8936 0)
(-3.12163 -64.8456 2.48788e-17)
(14.2626 -70.6064 -9.63271e-17)
(21.4446 -72.7594 1.32221e-16)
(9.60929 -76.9188 0)
(23.886 -65.4915 2.4293e-16)
(35.025 -61.822 -3.80532e-16)
(28.3974 -62.583 -1.03701e-17)
(37.4176 -57.5935 1.24507e-17)
(41.1964 -53.774 -2.34295e-16)
(32.3411 -49.7779 2.86875e-16)
(35.8615 -42.432 5.09692e-16)
(42.7556 -47.7182 -2.43e-16)
(41.0866 -51.778 1.76566e-16)
(42.4128 -43.5355 -3.41754e-16)
(42.2782 -40.3802 2.37367e-16)
(35.6787 -37.3305 -1.67411e-16)
(33.5175 -31.5905 0)
(40.2951 -34.017 2.20587e-16)
(41.5753 -36.9205 -1.90772e-16)
(41.5022 -36.65 0)
(40.1648 -33.0393 0)
(33.9845 -28.3112 0)
(31.6914 -25.1948 -4.54447e-16)
(37.5109 -29.0531 1.86266e-16)
(39.7943 -31.6383 0)
(40.5568 -32.3487 3.5834e-17)
(38.562 -29.3472 -3.49899e-16)
(33.0601 -24.708 2.11684e-16)
(31.1957 -22.647 1.27468e-17)
(36.3655 -26.5412 1.64766e-16)
(38.8391 -28.759 -1.66354e-17)
(39.4557 -29.9085 -4.56223e-17)
(37.3409 -27.2965 0)
(32.1623 -22.7981 -1.16896e-17)
(31.003 -21.7471 -3.24852e-16)
(35.8132 -25.4745 2.3094e-16)
(38.2191 -27.6615 1.977e-16)
(36.191 -25.3915 9.27602e-17)
(33.7471 -23.3749 -1.98889e-16)
(29.2174 -19.9933 2.56377e-16)
(30.0862 -21.1143 -4.57473e-16)
(34.8383 -24.8158 3.47468e-16)
(36.9016 -26.8048 1.5745e-16)
(35.3883 -24.8669 0)
(33.0588 -23.2419 -1.38062e-16)
(28.6742 -19.9031 2.09162e-16)
(29.9639 -20.9103 0)
(34.2387 -24.5311 -9.39264e-18)
(36.1017 -26.3495 0)
(35.1847 -25.2503 -1.10283e-17)
(33.1955 -23.602 2.3201e-16)
(29.1756 -20.4155 -3.24919e-16)
(27.5464 -19.5486 0)
(31.3792 -22.3773 2.6611e-17)
(33.6336 -23.679 2.32527e-17)
(34.31 -25.2947 1.9968e-16)
(32.6638 -23.6396 -3.89868e-16)
(28.7326 -20.3247 4.28254e-16)
(27.4467 -19.6076 2.68845e-17)
(31.2579 -22.6926 -1.75291e-16)
(33.1659 -24.049 1.08286e-16)
(34.0834 -25.432 0)
(32.4568 -24.0333 4.13048e-17)
(28.6546 -20.833 -3.8134e-16)
(27.633 -20.2955 -3.99243e-16)
(31.1665 -23.2074 1.17976e-16)
(33.0223 -24.4166 3.02964e-21)
(33.8355 -25.7904 2.06598e-16)
(32.2805 -24.4812 3.27612e-16)
(28.8195 -21.4487 -3.71646e-16)
(28.33 -21.2544 0)
(31.5828 -24.027 -2.65489e-16)
(33.2087 -25.3382 1.08972e-17)
(32.0462 -24.3036 -8.17625e-17)
(30.2027 -23.2089 2.26456e-16)
(27.0259 -20.6183 -2.46978e-16)
(27.8742 -21.6006 0)
(31.3286 -24.5341 1.19179e-17)
(32.824 -25.6711 1.01042e-17)
(31.8927 -24.9806 -1.46767e-16)
(30.1425 -23.9489 -1.11599e-17)
(26.8598 -21.2034 -4.45295e-16)
(28.1183 -22.3738 4.04653e-16)
(31.3701 -25.2512 1.0729e-17)
(32.7336 -26.3209 0)
(31.9302 -25.5711 -1.36867e-16)
(30.3891 -24.5358 -2.08305e-17)
(27.3019 -21.8856 4.46607e-16)
(28.2486 -23.0391 -1.26877e-17)
(31.296 -25.8204 0)
(32.5739 -26.8037 3.39333e-17)
(31.8518 -26.1463 -4.94425e-17)
(30.4314 -25.1398 3.20887e-16)
(27.5807 -22.6054 -3.91231e-16)
(28.3789 -23.6683 0)
(31.2857 -26.3845 3.98037e-17)
(32.5433 -27.3574 -1.14167e-16)
(31.8426 -26.9167 -1.09696e-16)
(30.4368 -25.9527 1.13907e-16)
(27.7325 -23.4181 0)
(28.7402 -24.47 -2.21395e-17)
(31.4748 -27.0868 0)
(32.6569 -28.0555 -1.2972e-16)
(32.2799 -28.0827 0)
(30.9842 -26.9976 0)
(28.3889 -24.4449 -3.02521e-16)
(27.4956 -23.9591 -4.73492e-16)
(30.0158 -26.4411 0)
(31.4824 -27.441 0)
(32.1987 -28.7046 0)
(31.1809 -27.6663 0)
(28.4393 -24.836 0)
(27.5971 -24.4443 6.87115e-18)
(30.3559 -27.2158 -1.79141e-16)
(31.614 -28.3054 1.47333e-16)
(32.4547 -29.4837 -1.41186e-16)
(31.3827 -28.624 -3.65328e-16)
(28.6254 -25.8612 4.17994e-16)
(28.1207 -25.4658 -4.17167e-16)
(30.7333 -28.0754 3.59932e-16)
(31.9211 -29.1018 -1.38947e-16)
(32.688 -30.1788 4.45192e-16)
(31.6206 -29.33 -3.36716e-16)
(28.8641 -26.5794 4.13538e-16)
(28.2567 -26.3754 -4.20524e-16)
(30.8277 -28.9766 1.66646e-16)
(32.0966 -29.9216 -3.0682e-16)
(32.9384 -30.9972 1.36505e-16)
(31.8987 -30.2501 -3.32635e-16)
(29.2763 -27.6173 1.28533e-17)
(28.7784 -27.1835 0)
(31.2795 -29.6555 0)
(32.4406 -30.5882 0)
(33.0507 -31.7334 3.0408e-16)
(31.9846 -31.0047 -2.87898e-16)
(29.4165 -28.3496 0)
(29.0417 -28.2312 1.26813e-17)
(31.4225 -30.7117 -5.1298e-17)
(32.5773 -31.5873 -3.37228e-17)
(33.4524 -32.5658 -1.34265e-16)
(32.5108 -31.8337 1.02745e-17)
(30.0125 -29.2713 -1.26639e-17)
(29.439 -28.8765 -8.02913e-16)
(31.8264 -31.341 3.38835e-16)
(32.9429 -32.2485 1.33974e-16)
(33.5662 -33.3483 3.34006e-17)
(32.5621 -32.6838 -1.02565e-17)
(30.1317 -30.1018 2.49545e-17)
(29.8138 -29.9655 -3.77569e-17)
(32.0724 -32.3659 -1.64274e-16)
(33.1571 -33.2288 2.35616e-16)
(33.9901 -34.1913 0)
(33.0793 -33.5087 0)
(30.6769 -30.9832 1.26048e-17)
(30.1807 -30.6132 0)
(32.4825 -33.046 0)
(33.5419 -33.9347 0)
(34.1796 -34.9904 3.34667e-17)
(33.2235 -34.355 0)
(30.8604 -31.7939 -2.49935e-17)
(30.5507 -31.6452 2.54075e-17)
(32.7595 -34.0478 3.30096e-16)
(33.7982 -34.8984 -3.21844e-16)
(34.6201 -35.8391 3.19813e-16)
(33.7474 -35.1879 -1.43076e-16)
(31.393 -32.6559 0)
(30.9134 -32.2889 -1.28163e-17)
(33.1689 -34.7315 -2.07726e-17)
(34.1912 -35.6109 -3.38965e-17)
(34.8254 -36.6579 1.00858e-16)
(33.9033 -36.0567 3.30421e-16)
(31.5778 -33.48 -4.18352e-16)
(31.2866 -33.3394 2.58613e-17)
(33.47 -35.7704 -1.04898e-17)
(34.4768 -36.6158 -3.76573e-16)
(35.3308 -37.5348 -1.71098e-16)
(34.5006 -36.9278 1.03699e-17)
(32.179 -34.3917 -4.11301e-16)
(31.7409 -33.983 0)
(33.9717 -36.4107 3.36777e-16)
(34.9537 -37.2883 -2.58509e-16)
(35.5145 -38.336 -8.64659e-17)
(34.686 -37.6911 -3.58752e-16)
(32.4019 -35.0324 6.56718e-20)
(32.0244 -34.8614 4.2411e-16)
(34.2096 -37.3862 -3.23672e-16)
(35.1715 -38.2839 1.06002e-16)
(35.9324 -39.2925 1.46594e-16)
(35.1858 -38.618 2.0142e-16)
(32.9063 -35.8994 -4.65558e-16)
(32.553 -35.3971 4.85543e-16)
(34.7778 -37.9887 -5.79708e-16)
(35.621 -39.0518 1.59041e-16)
(36.117 -39.7206 2.26376e-17)
(35.3959 -38.8375 -2.18983e-16)
(32.9082 -35.7984 2.42507e-16)
(33.609 -37.3691 -2.91763e-16)
(36.1033 -40.2695 2.30526e-16)
(36.9594 -40.7626 -1.61867e-16)
(36.6314 -40.7048 7.10512e-17)
(35.6856 -39.8758 0)
(33.5341 -37.3882 -3.72182e-16)
(34.2938 -38.3622 3.45128e-16)
(36.5452 -40.9052 -1.49487e-16)
(37.3919 -41.5204 1.07194e-16)
(37.0073 -41.355 2.8614e-16)
(36.0484 -40.4761 -9.74913e-18)
(33.9492 -38.0715 2.39663e-17)
(34.575 -39.1877 3.80528e-16)
(36.7704 -41.7375 -2.9241e-17)
(37.6524 -42.3241 0)
(37.3089 -42.3856 1.63525e-17)
(36.3399 -41.5417 4.01824e-17)
(34.3085 -39.1221 -3.96141e-16)
(35.2258 -40.3126 -3.93397e-16)
(37.3918 -42.7969 0)
(38.2142 -43.3272 -1.62591e-17)
(37.9667 -43.2127 -1.66404e-17)
(37.0762 -42.3825 -1.02127e-17)
(34.9956 -40.0263 0)
(35.6588 -40.8763 0)
(37.9013 -43.4566 -1.51631e-16)
(38.6814 -44.0692 1.65829e-17)
(38.2675 -44.0549 2.71216e-16)
(37.3059 -43.1763 -3.31015e-16)
(35.1921 -40.641 0)
(35.9852 -41.8885 -2.58348e-17)
(38.2103 -44.5324 0)
(39.0579 -45.0578 0)
(38.811 -45.0334 -8.72836e-18)
(37.9016 -44.1682 3.41984e-16)
(35.7719 -41.6663 -3.99969e-16)
(36.5567 -42.6252 8.80853e-16)
(38.9026 -45.341 -3.54094e-16)
(39.6668 -45.9082 9.08417e-18)
(39.3551 -45.6495 -1.58299e-16)
(38.4332 -44.7327 1.88178e-16)
(36.1398 -42.1325 4.57764e-16)
(36.4434 -42.7785 -2.44251e-16)
(38.9812 -45.6996 2.2061e-16)
(39.9129 -46.3864 -9.01134e-17)
(40.7192 -47.4963 -1.49853e-16)
(39.935 -47.0445 2.24692e-16)
(37.4572 -44.17 -3.12445e-16)
(37.3741 -44.0909 0)
(39.5776 -46.6453 0)
(40.4692 -47.4663 8.56122e-17)
(41.2841 -48.3029 -3.0426e-17)
(40.4658 -47.7542 0)
(38.2054 -45.1582 0)
(37.9733 -44.9199 0)
(40.0667 -47.3644 0)
(40.9786 -48.2394 3.16037e-17)
(41.7613 -49.1854 9.49534e-17)
(40.9272 -48.6294 -1.16241e-16)
(38.7365 -46.0529 0)
(38.4903 -45.9229 -1.23933e-17)
(40.5291 -48.3902 2.79175e-16)
(41.4511 -49.2574 -2.26973e-16)
(42.3402 -50.2079 1.30508e-16)
(41.5523 -49.7165 0)
(39.4111 -47.1875 -3.86325e-16)
(39.2312 -46.9302 0)
(41.2825 -49.3208 -3.3034e-16)
(42.1368 -50.1667 2.86383e-16)
(42.9126 -51.0271 1.57785e-16)
(42.1504 -50.4919 2.1399e-17)
(39.9028 -47.8659 0)
(39.5488 -47.5391 -4.42451e-16)
(41.7149 -50.0843 -2.28676e-17)
(42.594 -50.9482 1.14254e-16)
(43.3757 -51.5887 -1.74252e-16)
(42.4156 -51.0464 2.28028e-16)
(39.8984 -48.3208 0)
(41.0116 -49.4524 0)
(43.418 -52.2269 2.13754e-16)
(44.1097 -52.6521 -3.37305e-16)
(43.9136 -52.6268 1.39213e-17)
(43.061 -51.8546 0)
(40.876 -49.3738 0)
(41.7444 -50.3205 3.42418e-16)
(43.9472 -52.8755 1.47718e-16)
(44.668 -53.3858 -1.35324e-16)
(44.4198 -53.33 0)
(43.5578 -52.4955 -3.19501e-16)
(41.4578 -50.0627 8.04368e-16)
(42.2116 -51.0874 -1.20162e-17)
(44.3899 -53.6787 4.74489e-16)
(45.1454 -54.1906 -1.25722e-20)
(44.8821 -54.2975 0)
(44.0069 -53.458 0)
(41.9351 -50.9423 1.24922e-17)
(42.8977 -52.0883 3.62544e-16)
(45.1015 -54.7065 2.01843e-17)
(45.8185 -55.1841 3.29042e-17)
(45.6126 -55.1785 -1.61185e-16)
(44.7549 -54.3365 -1.04522e-17)
(42.6133 -51.8107 2.58505e-17)
(43.3618 -52.8497 4.30372e-16)
(45.6787 -55.6085 -1.08162e-17)
(46.4186 -56.0644 -8.83086e-18)
(46.2326 -55.9968 0)
(45.3916 -55.1204 0)
(43.1328 -52.5119 7.06049e-18)
(43.7335 -53.041 2.33182e-16)
(46.2405 -55.9986 2.04609e-16)
(46.9642 -56.6664 0)
(47.8676 -57.6858 -1.68925e-16)
(47.1437 -57.3384 0)
(44.6053 -54.3913 0)
(44.5701 -54.2432 0)
(46.8443 -56.9181 -2.86875e-16)
(47.6737 -57.7534 4.6161e-16)
(48.5819 -58.5785 -1.50062e-17)
(47.7686 -58.1345 -2.85766e-16)
(45.431 -55.4508 3.42467e-16)
(45.3203 -55.2041 -3.56197e-16)
(47.5106 -57.7712 3.06696e-16)
(48.374 -58.6538 1.40011e-16)
(49.3219 -59.5424 1.10548e-16)
(48.5374 -59.0678 0)
(46.2251 -56.3969 2.39959e-17)
(46.0184 -56.1366 -4.2256e-16)
(48.2159 -58.7389 0)
(49.0897 -59.6265 0)
(50.0437 -60.5234 1.01996e-16)
(49.2386 -60.1009 1.66418e-16)
(46.8985 -57.4066 -2.32361e-16)
(46.7526 -57.0396 2.69586e-17)
(49.0232 -59.6267 1.76894e-16)
(49.8623 -60.4857 -1.01538e-16)
(50.7158 -61.094 5.24624e-17)
(49.7577 -60.5879 -2.43823e-17)
(47.1426 -57.8315 -2.31576e-16)
(48.321 -58.9203 -2.99077e-16)
(50.8445 -61.7636 1.38678e-17)
(51.5171 -62.1526 3.07675e-17)
(51.3473 -62.2479 -2.69654e-17)
(50.4782 -61.4623 8.421e-18)
(48.1639 -58.864 1.05655e-17)
(49.2139 -59.9623 1.1148e-17)
(51.5388 -62.6216 -4.49345e-17)
(52.2364 -63.0305 1.1732e-16)
(52.129 -63.041 0)
(51.2863 -62.2426 3.76994e-17)
(49.0141 -59.719 -2.35575e-17)
(49.9933 -60.8384 -3.76865e-16)
(52.3074 -63.4672 0)
(53.0232 -63.8837 0)
(52.8969 -63.9392 -1.42533e-16)
(52.0547 -63.0976 -9.75258e-18)
(49.7847 -60.5505 0)
(50.7311 -61.6921 2.44991e-17)
(53.0719 -64.3862 -9.75334e-18)
(53.7984 -64.8128 1.59995e-17)
(53.6456 -64.9323 1.31026e-16)
(52.7839 -64.0758 3.0335e-17)
(50.4862 -61.43 -2.52696e-17)
(51.5591 -62.7447 2.60876e-17)
(53.9561 -65.4927 -1.05057e-17)
(54.688 -65.8665 -1.36608e-16)
(54.64 -65.8237 1.47621e-16)
(53.834 -64.9438 -1.78334e-16)
(51.4547 -62.3415 -2.7238e-17)
(52.1076 -62.8401 2.32875e-16)
(54.726 -65.8215 1.96713e-16)
(55.4112 -66.4491 -6.33498e-17)
(56.4887 -67.469 1.02519e-17)
(55.7734 -67.1572 0)
(53.0691 -64.192 -2.99017e-16)
(53.0074 -64.095 0)
(55.4209 -66.8434 0)
(56.2909 -67.6979 -1.33443e-16)
(57.3631 -68.4849 2.30036e-16)
(56.566 -68.1325 -1.0655e-16)
(54.0913 -65.4261 0)
(54.0572 -65.2035 0)
(56.3999 -67.8222 -3.34555e-16)
(57.2577 -68.6796 2.39505e-16)
(58.4479 -69.4601 3.0072e-17)
(57.7199 -69.0981 -1.86154e-17)
(55.2477 -66.4529 -2.31627e-17)
(55.1171 -66.0239 2.40161e-17)
(57.5337 -68.6261 2.87068e-17)
(58.3644 -69.501 -3.08641e-17)
(59.3369 -70.2925 9.32157e-17)
(58.5516 -69.8827 -1.43624e-16)
(56.0073 -67.1228 -3.85602e-16)
(55.8092 -66.7846 0)
(58.2544 -69.5534 -9.9177e-18)
(59.1323 -70.4861 1.59464e-16)
(60.3058 -71.3985 -1.33468e-16)
(59.5194 -71.0179 4.64132e-16)
(56.9001 -68.143 -4.09131e-16)
(56.7409 -67.7784 4.27004e-16)
(59.2819 -70.5823 -3.26847e-16)
(60.1608 -71.5189 0)
(61.1857 -72.1765 0)
(60.3614 -71.6545 0)
(57.5101 -68.6602 0)
(58.9078 -70.0158 3.1716e-16)
(61.814 -72.9815 -1.91179e-16)
(62.4577 -73.2083 2.02951e-17)
(62.4286 -73.2689 7.89316e-17)
(61.5826 -72.4631 -2.86727e-16)
(58.8802 -69.7495 -2.09949e-17)
(59.9229 -70.7637 -2.20512e-17)
(62.6573 -73.5954 -8.78363e-18)
(63.4418 -74.002 0)
(63.2664 -74.2574 2.51018e-16)
(62.3169 -73.3333 -2.93418e-16)
(59.7168 -70.525 1.15346e-17)
(61.0422 -72.0176 1.15601e-17)
(63.7247 -74.8727 0)
(64.5539 -75.2165 -4.47225e-17)
(64.5624 -75.6467 -2.14052e-16)
(63.6258 -74.7838 3.03168e-16)
(61.0313 -71.9862 1.1951e-17)
(62.7702 -73.2594 -4.19839e-16)
(65.5156 -76.0265 0)
(66.1996 -76.3612 0)
(66.2045 -76.2647 1.56589e-17)
(65.3264 -75.37 -3.11374e-16)
(62.5305 -72.6266 4.1624e-16)
(63.4643 -73.72 0)
(66.3954 -76.7326 1.40813e-16)
(67.2595 -77.1396 -1.46492e-16)
(67.0733 -77.3821 -1.3156e-16)
(66.1028 -76.3803 -1.37907e-16)
(63.267 -73.4055 4.1902e-16)
(64.2812 -74.5379 0)
(67.4097 -77.6786 1.16257e-17)
(68.3406 -78.1944 -1.0923e-16)
(69.9281 -79.4811 2.93662e-17)
(69.1543 -79.4275 1.99142e-16)
(66.09 -76.5002 1.79292e-17)
(66.4719 -76.3969 -2.00006e-17)
(69.3164 -78.9586 2.51934e-16)
(70.1561 -79.7224 -2.1348e-16)
(71.5504 -80.4029 -4.05562e-17)