/*--------------------------------*- C++ -*----------------------------------*\
| =========                 |                                                 |
| \\      /  F ield         | OpenFOAM: The Open Source CFD Toolbox           |
|  \\    /   O peration     | Version:  v2006                                 |
|   \\  /    A nd           | Website:  www.openfoam.com                      |
|    \\/     M anipulation  |                                                 |
\*---------------------------------------------------------------------------*/
FoamFile
{
    version     2.0;
    format      ascii;
    class       volScalarField;
    location    "0.04";
    object      nut;
}
// * * * * * * * * * * * * * * * * * * * * * * * * * * * * * * * * * * * * * //

dimensions      [0 2 -1 0 0 0 0];


internalField   nonuniform List<scalar> 
16277
(
23.0664
16.0969
52.7803
11.5253
16.8507
9.15757
3.70406
1.51665
0.81903
0.553097
0.434982
0.375059
0.339221
0.313193
0.291273
0.271552
0.253611
0.237481
0.223178
0.210599
0.199552
0.189802
0.181128
0.173342
0.166294
0.159871
0.153985
0.148569
0.143571
0.138945
0.134656
0.130672
0.126966
0.123515
0.120299
0.117301
0.114505
0.111899
0.109471
0.107211
0.105108
0.103156
0.101346
0.099673
0.0981308
0.0967147
0.0954206
0.0942454
0.0931863
0.0922414
0.0914091
0.0906888
0.0900804
0.0895843
0.0892011
0.088932
0.0887819
0.0887545
0.0888535
0.0890826
0.0894473
0.0899559
0.0906172
0.0914418
0.0924428
0.0936348
0.0950357
0.0966671
0.0985561
0.100738
0.103259
0.106181
0.109582
0.113555
0.118191
0.123552
0.129643
0.136416
0.143933
0.152852
0.165479
0.188367
0.238351
0.359293
0.669381
1.40804
2.48707
2.65929
1.57521
1.04057
0.512058
0.233426
0.126913
0.0598705
0.0141843
0.00255196
8.45578e-05
7.33908e-05
0.00119947
0.00552419
0.003044
0.00077727
6.4284e-05
5.75623e-05
0.000708688
0.00255983
0.0020426
0.000609165
5.31932e-05
4.97668e-05
0.000590377
0.00193711
0.00167615
0.000531798
4.68483e-05
4.4881e-05
0.000522665
0.00163272
0.00148609
0.000487076
4.29414e-05
4.18929e-05
0.00049002
0.00147098
0.00137602
0.000463966
4.06116e-05
3.99228e-05
0.000468137
0.00136761
0.00129552
0.000447156
3.89773e-05
3.85011e-05
0.000451293
0.00129176
0.00123217
0.000433496
3.77623e-05
3.74168e-05
0.000437514
0.00123101
0.00117938
0.000421851
3.68168e-05
3.65571e-05
0.000425854
0.00117988
0.00113393
0.000411627
3.60495e-05
3.58447e-05
0.000415644
0.00113553
0.00109384
0.000402396
3.53988e-05
3.52318e-05
0.000406365
0.00109616
0.00105784
0.000393882
3.4831e-05
3.46905e-05
0.000397802
0.00106068
0.00102514
0.000385958
3.43226e-05
3.42008e-05
0.000389836
0.00102836
0.000995167
0.00037855
3.38577e-05
3.37497e-05
0.000382393
0.000998726
0.000967499
0.000371595
3.3426e-05
3.33285e-05
0.0003754
0.000971358
0.000941869
0.000365033
3.30205e-05
3.2931e-05
0.0003688
0.000945986
0.000918048
0.000358821
3.26357e-05
3.25527e-05
0.000362549
0.000922391
0.000895867
0.000352925
3.2268e-05
3.21901e-05
0.000356623
0.000900409
0.000875171
0.000347331
3.19144e-05
3.18409e-05
0.000351002
0.000879876
0.000855799
0.000342018
3.1573e-05
3.15033e-05
0.000345658
0.000860628
0.000837589
0.000336952
3.12421e-05
3.11757e-05
0.00034056
0.000842506
0.000820399
0.000332107
3.092e-05
3.08565e-05
0.00033568
0.000825376
0.000804106
0.000327456
3.06053e-05
3.0544e-05
0.00033099
0.00080912
0.000788604
0.000322971
3.02963e-05
3.02369e-05
0.000326464
0.000793632
0.000773796
0.000318627
2.99918e-05
2.99337e-05
0.000322075
0.000778819
0.0007596
0.000314401
2.96904e-05
2.96333e-05
0.000317801
0.000764604
0.000745946
0.000310272
2.93907e-05
2.93342e-05
0.000313622
0.000750916
0.000732769
0.000306224
2.90917e-05
2.90354e-05
0.000309522
0.000737695
0.000720016
0.000302241
2.87922e-05
2.87357e-05
0.000305486
0.00072489
0.000707639
0.000298311
2.84912e-05
2.84343e-05
0.000301503
0.000712459
0.00069561
0.000294424
2.81877e-05
2.81301e-05
0.000297565
0.000700372
0.0006839
0.000290575
2.78808e-05
2.78224e-05
0.000293665
0.000688607
0.000672491
0.000286759
2.75698e-05
2.75104e-05
0.00028981
0.000677146
0.000661371
0.00028298
2.72541e-05
2.71937e-05
0.000286024
0.000665983
0.00065054
0.000279249
2.69332e-05
2.6872e-05
0.000282277
0.000655117
0.000639996
0.000275553
2.66069e-05
2.65448e-05
0.000278578
0.000644546
0.00062974
0.000271906
2.62748e-05
2.62119e-05
0.000274939
0.00063428
0.000619792
0.000268322
2.59371e-05
2.58737e-05
0.00027138
0.000624343
0.000610186
0.000264824
2.55939e-05
2.55304e-05
0.000267926
0.000614776
0.000600968
0.000261439
2.52461e-05
2.51831e-05
0.00026461
0.000605718
0.000592235
0.000258208
2.48947e-05
2.4833e-05
0.000261479
0.00059725
0.000584068
0.000255181
2.45416e-05
2.44823e-05
0.000258583
0.000589381
0.000576536
0.00025241
2.41892e-05
2.41337e-05
0.000255983
0.000582247
0.000569785
0.000249962
2.38406e-05
2.37909e-05
0.000253752
0.000576009
0.000563992
0.000247919
2.34997e-05
2.34586e-05
0.000251977
0.00057085
0.000559348
0.000246384
2.31714e-05
2.31435e-05
0.000250698
0.000566966
0.000556079
0.000245429
2.28658e-05
2.28472e-05
0.000249817
0.000564504
0.000554252
0.000244829
2.2595e-05
2.25792e-05
0.000249354
0.000563745
0.000554145
0.000244718
2.23584e-05
2.23449e-05
0.00024938
0.000564702
0.000555735
0.000245135
2.21753e-05
2.21528e-05
0.000249879
0.000567269
0.000558957
0.000246066
2.20441e-05
2.20147e-05
0.000250782
0.000571225
0.000563507
0.000247275
2.19184e-05
2.19317e-05
0.000251915
0.000576463
0.000569315
0.000248556
2.18369e-05
2.18866e-05
0.000253035
0.000582781
0.000576103
0.000249861
2.18026e-05
2.18963e-05
0.000253977
0.000589444
0.000583019
0.000250992
2.18269e-05
2.19511e-05
0.000254754
0.000595834
0.000589537
0.000251813
2.18961e-05
2.2044e-05
0.000255499
0.000601662
0.000595485
0.00025247
2.20037e-05
2.21727e-05
0.000256093
0.000606794
0.000600761
0.000253075
2.21466e-05
2.23323e-05
0.000256633
0.000611182
0.000605262
0.00025341
2.23182e-05
2.25139e-05
0.000257034
0.000614899
0.000608854
0.000253628
2.25108e-05
2.27114e-05
0.000257306
0.000617791
0.000611373
0.000253742
2.27176e-05
2.29178e-05
0.000257446
0.000620233
0.000613126
0.000253786
2.29317e-05
2.31266e-05
0.000257504
0.000621721
0.000613918
0.000253633
2.31465e-05
2.33321e-05
0.000257482
0.000622203
0.000613261
0.000253214
2.33563e-05
2.35287e-05
0.000257082
0.000621433
0.000611828
0.000252664
2.35543e-05
2.37097e-05
0.00025654
0.000619835
0.000609786
0.000252049
2.37348e-05
2.38713e-05
0.000255918
0.000617533
0.000607157
0.000251414
2.38942e-05
2.40105e-05
0.000255234
0.000614572
0.000604
0.000250765
2.40297e-05
2.41257e-05
0.000254518
0.000611054
0.000600426
0.000250129
2.41411e-05
2.4218e-05
0.000253796
0.0006071
0.000596513
0.000249521
2.42298e-05
2.42917e-05
0.00025308
0.000602746
0.000592344
0.000248968
2.43013e-05
2.43473e-05
0.000252393
0.000598156
0.000587915
0.000248449
2.43556e-05
2.43864e-05
0.000251704
0.00059347
0.000583367
0.000247868
2.43915e-05
2.44085e-05
0.000250979
0.000588709
0.000578745
0.000247227
2.44112e-05
2.44197e-05
0.000250177
0.000583927
0.000574064
0.0002465
2.4418e-05
2.44246e-05
0.000249379
0.000579168
0.000569411
0.000245713
2.44107e-05
2.44172e-05
0.000248579
0.000574456
0.000564818
0.000244945
2.43974e-05
2.44009e-05
0.000247781
0.000569757
0.000560186
0.000244157
2.43771e-05
2.43783e-05
0.000246915
0.00056502
0.000555521
0.000243279
2.43496e-05
2.43525e-05
0.000246014
0.000560288
0.000550864
0.000242418
2.43216e-05
2.43204e-05
0.000245114
0.000555599
0.000546237
0.000241533
2.42858e-05
2.4285e-05
0.000244175
0.00055092
0.000541518
0.000240543
2.42448e-05
2.42441e-05
0.000243157
0.000546153
0.000536833
0.000239534
2.42013e-05
2.42021e-05
0.000242157
0.000541487
0.000532266
0.000238523
2.41468e-05
2.4162e-05
0.000241133
0.000536907
0.000527358
0.000237479
2.40886e-05
2.41147e-05
0.000239879
0.000532604
0.000523236
0.000235733
2.39921e-05
2.41451e-05
0.000239997
0.00053117
0.000524635
0.000239656
2.40794e-05
2.44714e-05
0.000240057
0.000530531
0.000555586
0.000252415
2.46549e-05
2.62635e-05
0.000236708
0.000540178
0.000825017
0.000344163
2.96287e-05
3.19805e-05
0.000178455
0.000409711
0.00101072
0.0023162
0.00432962
0.00617227
0.00743321
0.00977022
0.0112623
0.0126012
0.0133549
0.0137155
0.0136142
0.0130086
0.0121463
0.0107633
0.00940735
0.00735157
0.00642346
0.00467414
0.00349712
0.00237532
0.00135016
0.000619823
0.000225849
9.39959e-05
1.81194e-05
1.18557e-05
8.73332e-05
0.000205472
0.000194141
8.27028e-05
1.13926e-05
1.08995e-05
7.95312e-05
0.000182532
0.000183982
7.86359e-05
1.08051e-05
1.07475e-05
7.81592e-05
0.000181216
0.000181069
7.73202e-05
1.06304e-05
1.06206e-05
7.73052e-05
0.000181014
0.00018151
7.73506e-05
1.06367e-05
1.06365e-05
7.74623e-05
0.000181902
0.000182185
7.7608e-05
1.06551e-05
1.06641e-05
7.77238e-05
0.000182731
0.000182986
7.78466e-05
1.06738e-05
1.06903e-05
7.79817e-05
0.000183562
0.000183876
7.81192e-05
1.06849e-05
1.07035e-05
7.8289e-05
0.000184468
0.000184788
7.83969e-05
1.07124e-05
1.07307e-05
7.85717e-05
0.000185402
0.000185703
7.86597e-05
1.07319e-05
1.07364e-05
7.89102e-05
0.000186367
0.000186673
7.89702e-05
1.07605e-05
1.07651e-05
7.92062e-05
0.000187351
0.000187668
7.93033e-05
1.07752e-05
1.0779e-05
7.95409e-05
0.000188368
0.000188688
7.96255e-05
1.08044e-05
1.08086e-05
7.98584e-05
0.00018939
0.000189719
7.9969e-05
1.08195e-05
1.08233e-05
8.02114e-05
0.000190451
0.000190788
8.03076e-05
1.08494e-05
1.08542e-05
8.05532e-05
0.000191526
0.000191871
8.06736e-05
1.08656e-05
1.087e-05
8.0928e-05
0.000192634
0.000192985
8.10303e-05
1.08965e-05
1.09017e-05
8.12856e-05
0.00019375
0.000194108
8.14127e-05
1.09133e-05
1.09182e-05
8.16789e-05
0.000194902
0.000195269
8.18331e-05
1.09382e-05
1.09591e-05
8.20456e-05
0.000196079
0.000196462
8.21962e-05
1.09633e-05
1.09699e-05
8.25039e-05
0.000197315
0.00019771
8.26609e-05
1.099e-05
1.10123e-05
8.28975e-05
0.000198533
0.000198911
8.30379e-05
1.10163e-05
1.10219e-05
8.33372e-05
0.000199731
0.00020011
8.34748e-05
1.10383e-05
1.10622e-05
8.37352e-05
0.00020096
0.000201352
8.38785e-05
1.10658e-05
1.10732e-05
8.42085e-05
0.000202205
0.000202596
8.43567e-05
1.10926e-05
1.11153e-05
8.46073e-05
0.000203434
0.000203821
8.47496e-05
1.11185e-05
1.11262e-05
8.50831e-05
0.00020466
0.00020504
8.52208e-05
1.1145e-05
1.11677e-05
8.54691e-05
0.000205866
0.000206239
8.55977e-05
1.11702e-05
1.11775e-05
8.59293e-05
0.000207071
0.000207425
8.60505e-05
1.11955e-05
1.12169e-05
8.62797e-05
0.000208204
0.0002085
8.63768e-05
1.12181e-05
1.12233e-05
8.66654e-05
0.000209245
0.000209523
8.67384e-05
1.12391e-05
1.12576e-05
8.69163e-05
0.000210214
0.000210514
8.69786e-05
1.12563e-05
1.12617e-05
8.72401e-05
0.000211157
0.000211399
8.72111e-05
1.12852e-05
1.12834e-05
8.73516e-05
0.000211909
0.000212087
8.73154e-05
1.12874e-05
1.12836e-05
8.74e-05
0.000212533
0.000212626
8.72853e-05
1.13013e-05
1.12947e-05
8.72778e-05
0.000212926
0.000212976
8.7113e-05
1.12939e-05
1.12836e-05
8.70223e-05
0.000213118
0.000213094
8.67672e-05
1.12878e-05
1.12895e-05
8.64876e-05
0.000213118
0.000212863
8.61287e-05
1.12734e-05
1.12568e-05
8.57919e-05
0.000212772
0.000212188
8.52496e-05
1.12523e-05
1.1241e-05
8.46419e-05
0.000211903
0.000211187
8.39875e-05
1.12132e-05
1.11991e-05
8.35301e-05
0.000211053
0.000210278
8.27496e-05
1.12074e-05
1.11903e-05
8.20659e-05
0.000209969
0.000208907
8.11618e-05
1.11775e-05
1.11677e-05
8.04558e-05
0.000208748
0.000207671
7.95476e-05
1.11735e-05
1.11893e-05
7.87582e-05
0.000207602
0.00020668
7.78774e-05
1.11963e-05
1.12254e-05
7.71874e-05
0.000206885
0.000206226
7.63559e-05
1.1263e-05
1.13192e-05
7.57208e-05
0.000206596
0.000206235
7.48885e-05
1.138e-05
1.14521e-05
7.43769e-05
0.000206921
0.000208093
7.36168e-05
1.15548e-05
1.16822e-05
7.33302e-05
0.00021071
0.000213504
7.39978e-05
1.17921e-05
1.19107e-05
7.43883e-05
0.000216418
0.000217984
7.39324e-05
1.19415e-05
1.20266e-05
7.25752e-05
0.000221245
0.00022494
7.64773e-05
1.21985e-05
1.23181e-05
7.43108e-05
0.000228242
0.000231408
7.62223e-05
1.25224e-05
1.26718e-05
7.72702e-05
0.000237119
0.000238561
7.89654e-05
1.2885e-05
1.31794e-05
8.28977e-05
0.000245537
0.000246489
8.49241e-05
1.34698e-05
1.3718e-05
8.82943e-05
0.000252623
0.000254305
9.13833e-05
1.42246e-05
1.52792e-05
0.000105905
0.000265779
0.000264168
0.000111978
1.14654e-05
8.93767e-06
2.76998e-05
7.37562e-05
0.000207663
6.41434e-05
1.03821e-05
1.09142e-05
5.79936e-05
0.000191008
0.000202355
6.06492e-05
1.12066e-05
1.14238e-05
5.73506e-05
0.000193325
0.000207941
6.18881e-05
1.17617e-05
1.20922e-05
6.07324e-05
0.000204871
0.000223971
6.83101e-05
1.24262e-05
1.27983e-05
6.77367e-05
0.000219651
0.000240882
7.93607e-05
1.33591e-05
1.41593e-05
8.17573e-05
0.000242562
0.000269589
9.79146e-05
1.5507e-05
1.18774e-05
0.000109229
0.000275247
7.3339e-05
2.60907e-05
9.67276e-06
1.12735e-05
6.95217e-05
0.000232088
0.000227284
6.49766e-05
1.22972e-05
1.31353e-05
8.53087e-05
0.000281834
0.000287454
8.59791e-05
1.36447e-05
1.43594e-05
0.000100005
0.000318583
0.000329055
0.000107838
1.54575e-05
1.72883e-05
0.000128369
0.000359866
0.000350227
0.000138561
1.34276e-05
1.00442e-05
3.13232e-05
9.31339e-05
0.000284433
8.45112e-05
1.21231e-05
1.30945e-05
7.8074e-05
0.000278303
0.000318357
9.55079e-05
1.38746e-05
1.49064e-05
9.61419e-05
0.000315118
0.00035877
0.00012326
1.7225e-05
1.37637e-05
0.000143232
0.000360808
9.76462e-05
3.21583e-05
1.04436e-05
1.26972e-05
8.87445e-05
0.000322399
0.000331792
9.2719e-05
1.43034e-05
1.64753e-05
0.000130105
0.000426957
0.000446791
0.000155524
1.94697e-05
1.57964e-05
0.000178322
0.000448703
0.00012428
3.73043e-05
1.09236e-05
1.37837e-05
0.000117646
0.000399802
0.000397508
0.000114416
1.61397e-05
2.03545e-05
0.000171645
0.000503135
0.000510765
0.000199555
1.68055e-05
1.15498e-05
4.26349e-05
0.000154916
0.0005176
0.00015231
1.60494e-05
2.03275e-05
0.000161315
0.000557713
0.000773619
0.000272161
2.77749e-05
2.31427e-05
0.000290126
0.000743383
0.000262447
6.89836e-05
1.5113e-05
2.69276e-05
0.000281873
0.000809442
0.000810158
0.000300509
2.50835e-05
1.67694e-05
7.63889e-05
0.000318345
0.00111942
0.000372062
3.73323e-05
3.67955e-05
0.000429039
0.00121582
0.00055339
0.00015286
2.33823e-05
3.72115e-05
0.000497373
0.00144972
0.000957716
0.000317534
2.47789e-05
4.59911e-05
0.000559788
0.0011291
0.000968578
0.000468311
3.78171e-05
3.83125e-05
0.000446445
0.00106245
0.00136312
0.000492808
4.39603e-05
6.07663e-05
0.000920438
0.00227277
0.000506478
0.000157497
3.45606e-05
3.53793e-05
0.000441683
0.00101208
0.000313016
0.000111896
2.46867e-05
2.67898e-05
0.000273151
0.000656429
0.000560594
0.000201755
2.67922e-05
1.53826e-05
5.27183e-05
0.000160426
0.00037698
0.000215836
1.76812e-05
1.67129e-05
6.77227e-05
0.000171705
0.000417145
0.000181297
1.91114e-05
2.04385e-05
0.000148392
0.000378052
0.000123031
4.61991e-05
1.35068e-05
1.6003e-05
0.000144904
0.000326915
0.000300393
0.000122127
1.82604e-05
1.26976e-05
3.99782e-05
0.000101049
0.000278834
0.000124011
1.46994e-05
1.71623e-05
0.000109
0.000256758
8.97443e-05
3.77307e-05
1.24002e-05
1.38973e-05
0.000111094
0.000247018
0.00022426
9.83701e-05
1.64292e-05
1.21742e-05
3.46445e-05
8.01669e-05
0.000218213
9.97892e-05
1.31439e-05
1.58139e-05
8.83549e-05
0.000199247
7.2354e-05
3.25591e-05
1.19721e-05
1.27351e-05
9.27318e-05
0.000196225
0.000177608
8.15453e-05
1.52677e-05
1.16849e-05
3.05173e-05
6.65982e-05
0.000178606
8.56271e-05
1.21794e-05
1.4768e-05
7.5686e-05
0.000162702
6.35046e-05
2.99595e-05
1.15836e-05
1.21432e-05
8.59138e-05
0.000172606
0.000146539
6.94505e-05
1.52909e-05
1.27217e-05
5.48934e-05
0.00011885
4.62385e-05
2.19649e-05
1.08318e-05
1.02714e-05
5.7701e-05
0.000117847
0.000111798
5.41234e-05
1.30488e-05
1.0331e-05
2.19296e-05
4.64807e-05
0.000109848
5.64256e-05
1.00409e-05
1.28936e-05
5.14996e-05
0.000102249
4.24005e-05
2.14111e-05
1.05723e-05
9.7509e-06
5.15009e-05
9.72101e-05
9.27009e-05
4.89879e-05
1.24466e-05
1.01224e-05
2.0562e-05
4.07729e-05
9.23931e-05
5.01374e-05
9.69018e-06
1.26425e-05
4.75459e-05
8.7543e-05
3.92701e-05
2.01328e-05
1.00738e-05
9.38667e-06
4.63118e-05
8.46233e-05
8.11536e-05
4.52599e-05
1.22715e-05
1.03314e-05
1.92418e-05
3.62491e-05
7.97485e-05
4.4766e-05
9.27054e-06
1.19388e-05
4.20167e-05
7.54311e-05
3.48419e-05
1.89322e-05
1.00724e-05
9.01635e-06
4.16089e-05
7.21872e-05
6.91649e-05
3.90911e-05
1.17546e-05
1.00467e-05
1.72737e-05
3.12386e-05
6.20312e-05
4.79409e-05
8.71863e-06
1.10021e-05
2.16377e-05
3.60261e-05
8.23372e-05
4.68784e-05
9.87415e-06
1.25605e-05
4.39477e-05
7.63923e-05
3.69909e-05
2.13217e-05
1.03157e-05
9.4283e-06
4.57745e-05
7.68447e-05
7.25822e-05
4.25525e-05
1.24469e-05
1.03791e-05
2.14837e-05
3.64058e-05
7.62485e-05
4.58355e-05
9.46132e-06
1.24403e-05
4.26466e-05
7.19434e-05
3.58018e-05
2.16766e-05
1.03811e-05
9.41371e-06
4.30831e-05
6.85275e-05
6.55125e-05
3.90242e-05
1.23348e-05
1.01467e-05
2.05541e-05
3.25935e-05
6.28859e-05
3.95617e-05
8.91871e-06
1.16675e-05
3.59754e-05
5.89086e-05
2.89114e-05
1.85741e-05
9.94167e-06
8.42424e-06
4.08305e-05
5.23482e-05
3.18444e-05
2.1689e-05
1.08751e-05
9.68515e-06
3.8717e-05
6.29341e-05
5.7322e-05
3.55842e-05
1.23901e-05
1.01401e-05
2.12261e-05
3.07882e-05
5.68714e-05
3.72123e-05
9.04901e-06
1.188e-05
3.4289e-05
5.21618e-05
2.78049e-05
1.97033e-05
1.00735e-05
8.44128e-06
3.77469e-05
4.7614e-05
3.0125e-05
2.18093e-05
1.09886e-05
9.6151e-06
3.74847e-05
5.81032e-05
5.24848e-05
3.42875e-05
1.22579e-05
1.00938e-05
2.15009e-05
2.94279e-05
5.41603e-05
3.61227e-05
9.00878e-06
1.18957e-05
3.27845e-05
4.93286e-05
2.67901e-05
1.99048e-05
1.0062e-05
8.42845e-06
3.51396e-05
4.37272e-05
2.82579e-05
2.15039e-05
1.10381e-05
9.51718e-06
3.48608e-05
5.35324e-05
4.8116e-05
3.21938e-05
1.21999e-05
1.00639e-05
2.14264e-05
2.73891e-05
4.90526e-05
3.34234e-05
8.97764e-06
1.19747e-05
3.06375e-05
4.42046e-05
2.50286e-05
1.99188e-05
9.61156e-06
8.4039e-06
3.1054e-05
3.91017e-05
2.6061e-05
2.08987e-05
1.11745e-05
9.43113e-06
3.22378e-05
4.77157e-05
4.25304e-05
2.91228e-05
1.21131e-05
1.0017e-05
2.02255e-05
2.44959e-05
3.8201e-05
3.21041e-05
8.26691e-06
1.09497e-05
2.14663e-05
2.58529e-05
4.70781e-05
3.10697e-05
9.27522e-06
1.21736e-05
2.88626e-05
4.21303e-05
2.46327e-05
2.07642e-05
9.88533e-06
8.38109e-06
3.09447e-05
3.78058e-05
2.5924e-05
2.18271e-05
1.10529e-05
9.20322e-06
3.14331e-05
4.63526e-05
4.14564e-05
2.88144e-05
1.20351e-05
9.72548e-06
2.07961e-05
2.43511e-05
3.74316e-05
3.11678e-05
8.20956e-06
1.10901e-05
2.19438e-05
2.57506e-05
4.55089e-05
3.07966e-05
9.35568e-06
1.21391e-05
2.84551e-05
4.10966e-05
2.4367e-05
2.11451e-05
1.00936e-05
8.3618e-06
3.15967e-05
3.67397e-05
2.5583e-05
2.23979e-05
1.10169e-05
9.29419e-06
3.03145e-05
4.4898e-05
4.00507e-05
2.80995e-05
1.20668e-05
9.6016e-06
2.10009e-05
2.38844e-05
3.53706e-05
2.9978e-05
8.30058e-06
1.09336e-05
2.27514e-05
2.54478e-05
3.86753e-05
3.01485e-05
8.77119e-06
1.13773e-05
2.31678e-05
2.67985e-05
4.56553e-05
3.03684e-05
9.53283e-06
1.21141e-05
2.83586e-05
4.07339e-05
2.46635e-05
2.18128e-05
9.88978e-06
8.24123e-06
3.13856e-05
3.64998e-05
2.57782e-05
2.32865e-05
1.11566e-05
9.3617e-06
3.02104e-05
4.41362e-05
3.95669e-05
2.81724e-05
1.21843e-05
9.61733e-06
2.15807e-05
2.40058e-05
3.50582e-05
2.98739e-05
8.44291e-06
1.11121e-05
2.32474e-05
2.56465e-05
3.8079e-05
3.00777e-05
8.97887e-06
1.13523e-05
2.37796e-05
2.67599e-05
4.49395e-05
3.0028e-05
9.39523e-06
1.21565e-05
2.82167e-05
4.00125e-05
2.47003e-05
2.25389e-05
1.01989e-05
8.32839e-06
3.20607e-05
3.57601e-05
2.65158e-05
2.45554e-05
1.11165e-05
8.94901e-06
3.03735e-05
3.9121e-05
2.76973e-05
2.49475e-05
1.14709e-05
9.56687e-06
3.06512e-05
4.58061e-05
4.08863e-05
2.88375e-05
1.23839e-05
9.92669e-06
2.31451e-05
2.53026e-05
3.63033e-05
3.2016e-05
8.35057e-06
1.11697e-05
2.4809e-05
2.69515e-05
3.92095e-05
3.1045e-05
8.96897e-06
1.14839e-05
2.53847e-05
2.7994e-05
4.59813e-05
3.10175e-05
9.57284e-06
1.23214e-05
2.92914e-05
4.1051e-05
2.5825e-05
2.39148e-05
1.02615e-05
8.50346e-06
3.30241e-05
3.68594e-05
2.7637e-05
2.57991e-05
1.13192e-05
9.18037e-06
3.15678e-05
3.99672e-05
2.87194e-05
2.60843e-05
1.15333e-05
9.53974e-06
3.13078e-05
4.62771e-05
4.13413e-05
2.95248e-05
1.22369e-05
1.03867e-05
2.37641e-05
2.58192e-05
3.62838e-05
3.32158e-05
8.49868e-06
1.12467e-05
2.54801e-05
2.71998e-05
3.88519e-05
3.08103e-05
9.11754e-06
1.16108e-05
2.58256e-05
2.8092e-05
4.46618e-05
3.06015e-05
9.61579e-06
1.24024e-05
2.90879e-05
4.00685e-05
2.56632e-05
2.41125e-05
1.05693e-05
8.57425e-06
3.31035e-05
3.59998e-05
2.72689e-05
2.5678e-05
1.11696e-05
8.90245e-06
3.04347e-05
3.85221e-05
2.86675e-05
2.6117e-05
1.14078e-05
9.07343e-06
3.12954e-05
4.00985e-05
2.94878e-05
2.77218e-05
1.15684e-05
9.64646e-06
3.19407e-05
4.60899e-05
4.11891e-05
3.03345e-05
1.23641e-05
9.84741e-06
2.49028e-05
2.64281e-05
3.70193e-05
3.31169e-05
8.56893e-06
1.13788e-05
2.6299e-05
2.80721e-05
3.88667e-05
3.12977e-05
9.15713e-06
1.1546e-05
2.6622e-05
2.9202e-05
4.02678e-05
3.16045e-05
9.14834e-06
1.16088e-05
2.82189e-05
2.9877e-05
4.60728e-05
3.22262e-05
9.6388e-06
1.23808e-05
3.06452e-05
4.12838e-05
2.70524e-05
2.56934e-05
1.05389e-05
8.57048e-06
3.48141e-05
3.71956e-05
2.86267e-05
2.72131e-05
1.13867e-05
9.17961e-06
3.14356e-05
3.97771e-05
3.00054e-05
2.764e-05
1.16572e-05
9.30151e-06
3.26244e-05
4.11487e-05
3.07905e-05
2.92813e-05
1.17682e-05
9.80323e-06
3.31294e-05
4.69102e-05
4.21009e-05
3.15292e-05
1.25158e-05
1.05652e-05
2.63517e-05
2.78972e-05
3.77321e-05
3.54565e-05
8.60917e-06
1.14346e-05
2.77414e-05
2.92119e-05
3.98033e-05
3.1829e-05
9.1456e-06
1.16678e-05
2.77663e-05
3.01914e-05
4.08556e-05
3.24845e-05
9.26418e-06
1.18276e-05
2.93762e-05
3.08458e-05
4.61578e-05
3.27626e-05
9.7851e-06
1.25852e-05
3.14886e-05
4.18518e-05
2.79457e-05
2.66168e-05
1.00188e-05
8.82849e-06
3.40017e-05
3.77114e-05
2.96621e-05
2.82602e-05
1.16656e-05
9.2188e-06
3.29395e-05
4.00516e-05
3.06599e-05
2.83622e-05
1.16316e-05
9.16532e-06
3.23676e-05
4.10047e-05
3.14786e-05
2.92238e-05
1.16566e-05
9.34366e-06
3.41325e-05
4.20913e-05
3.20029e-05
3.09072e-05
1.17887e-05
9.8035e-06
3.42452e-05
4.74577e-05
4.29582e-05
3.27523e-05
1.25502e-05
1.07776e-05
2.74197e-05
2.91245e-05
3.8061e-05
3.60691e-05
8.68419e-06
1.15562e-05
2.87481e-05
3.01706e-05
3.99368e-05
3.24434e-05
9.31664e-06
1.18493e-05
2.89176e-05
3.11099e-05
4.09715e-05
3.27354e-05
9.30042e-06
1.17426e-05
2.99236e-05
3.18437e-05
4.23999e-05
3.44657e-05
9.39655e-06
1.18822e-05
3.15928e-05
3.25329e-05
4.81471e-05
3.49523e-05
9.87156e-06
1.27003e-05
3.36207e-05
4.37057e-05
3.01576e-05
2.89906e-05
1.07145e-05
8.74955e-06
3.75031e-05
3.94309e-05
3.14561e-05
3.01513e-05
1.15977e-05
9.2052e-06
3.40995e-05
4.19496e-05
3.26195e-05
3.02977e-05
1.18164e-05
9.39773e-06
3.45779e-05
4.29476e-05
3.33733e-05
3.12894e-05
1.18063e-05
9.40441e-06
3.61118e-05
4.41598e-05
3.40121e-05
3.28794e-05
1.19402e-05
1.00004e-05
3.62105e-05
4.94603e-05
4.5006e-05
3.47357e-05
1.27332e-05
1.0915e-05
2.96448e-05
3.12723e-05
3.98598e-05
3.80697e-05
8.94182e-06
1.17037e-05
3.08284e-05
3.23259e-05
4.19989e-05
3.44934e-05
9.41508e-06
1.20386e-05
3.07928e-05
3.33213e-05
4.27757e-05
3.44118e-05
9.51627e-06
1.19859e-05
3.17765e-05
3.38225e-05
4.4052e-05
3.60972e-05
9.60769e-06
1.20867e-05
3.36696e-05
3.43613e-05
4.94473e-05
3.68151e-05
1.00188e-05
1.2906e-05
3.55537e-05
4.53639e-05
3.20258e-05
3.08203e-05
1.09081e-05
8.95156e-06
3.90554e-05
4.08185e-05
3.32609e-05
3.18455e-05
1.18007e-05
9.43185e-06
3.55004e-05
4.31223e-05
3.44377e-05
3.20403e-05
1.20644e-05
9.56437e-06
3.58469e-05
4.42731e-05
3.51941e-05
3.29149e-05
1.19869e-05
9.60247e-06
3.74528e-05
4.53597e-05
3.55655e-05
3.45526e-05
1.20824e-05
1.00427e-05
3.75685e-05
5.0471e-05
4.62004e-05
3.62896e-05
1.29697e-05
1.1167e-05
3.13136e-05
3.28144e-05
4.06666e-05
3.95467e-05
9.04067e-06
1.18353e-05
3.2333e-05
3.37169e-05
4.23356e-05
3.53482e-05
9.47334e-06
1.21801e-05
3.24036e-05
3.45356e-05
4.32987e-05
3.55083e-05
9.64105e-06
1.20659e-05
3.3212e-05
3.51522e-05
4.45076e-05
3.69115e-05
9.60353e-06
1.20206e-05
3.43245e-05
3.60709e-05
4.61549e-05
3.86649e-05
9.60266e-06
1.21492e-05
3.60751e-05
3.66506e-05
5.19347e-05
3.90786e-05
1.01189e-05
1.31407e-05
3.78663e-05
4.78355e-05
3.43388e-05
3.32329e-05
1.08124e-05
9.04226e-06
4.11353e-05
4.3279e-05
3.59022e-05
3.46665e-05
1.21156e-05
9.65593e-06
3.84146e-05
4.55223e-05
3.69645e-05
3.47357e-05
1.21908e-05
9.65937e-06
3.86215e-05
4.68409e-05
3.7899e-05
3.57263e-05
1.21041e-05
9.67782e-06
4.04416e-05
4.85137e-05
3.871e-05
3.75705e-05
1.22536e-05
1.0254e-05
4.06776e-05
5.38091e-05
4.93403e-05
3.93409e-05
1.32766e-05
1.11338e-05
3.45481e-05
3.575e-05
4.42274e-05
4.26838e-05
9.17467e-06
1.21396e-05
3.55544e-05
3.71274e-05
4.58245e-05
3.9029e-05
9.73003e-06
1.23181e-05
3.54313e-05
3.78139e-05
4.6479e-05
3.8811e-05
9.83701e-06
1.22477e-05
3.6285e-05
3.83472e-05
4.77037e-05
4.02485e-05
9.7821e-06
1.24014e-05
3.81177e-05
3.87652e-05
5.30598e-05
4.06369e-05
1.03262e-05
1.35325e-05
3.96799e-05
4.90203e-05
3.62477e-05
3.54163e-05
1.10608e-05
9.18677e-06
4.30052e-05
4.45925e-05
3.78619e-05
3.68934e-05
1.23541e-05
9.85809e-06
4.04107e-05
4.67205e-05
3.89109e-05
3.68557e-05
1.23882e-05
9.80201e-06
4.02064e-05
4.78263e-05
3.96233e-05
3.78176e-05
1.23263e-05
9.90065e-06
4.17053e-05
4.9466e-05
4.04813e-05
3.98829e-05
1.25983e-05
1.04826e-05
4.23897e-05
5.48628e-05
5.05215e-05
4.13581e-05
1.36266e-05
1.13419e-05
3.70069e-05
3.78166e-05
4.60029e-05
4.50317e-05
9.32996e-06
1.23262e-05
3.7839e-05
3.92155e-05
4.74979e-05
4.10612e-05
9.86787e-06
1.25728e-05
3.79182e-05
3.99949e-05
4.82375e-05
4.10979e-05
9.95115e-06
1.25888e-05
3.89606e-05
4.06362e-05
4.95601e-05
4.23807e-05
1.00198e-05
1.28696e-05
4.11139e-05
4.11803e-05
5.50527e-05
4.31091e-05
1.07801e-05
1.4063e-05
4.24098e-05
5.10927e-05
3.91698e-05
3.89419e-05
1.16371e-05
9.64848e-06
4.62608e-05
4.73312e-05
4.07357e-05
4.00193e-05
1.26002e-05
1.00487e-05
4.37188e-05
4.96362e-05
4.19447e-05
4.02725e-05
1.28043e-05
1.00652e-05
4.37707e-05
5.10869e-05
4.2482e-05
4.18664e-05
1.30079e-05
1.09241e-05
4.37303e-05
5.59689e-05
5.17365e-05
4.30474e-05
1.43425e-05
1.20348e-05
3.95124e-05
3.99093e-05
4.69612e-05
4.65743e-05
9.82705e-06
1.27386e-05
4.02066e-05
4.10406e-05
4.87275e-05
4.31847e-05
1.01997e-05
1.30866e-05
4.06249e-05
4.19962e-05
4.99809e-05
4.32058e-05
1.03253e-05
1.33462e-05
4.25807e-05
4.24724e-05
5.48984e-05
4.38003e-05
1.10462e-05
1.45434e-05
4.33824e-05
5.11595e-05
4.02504e-05
4.01994e-05
1.16902e-05
9.72869e-06
4.68809e-05
4.71457e-05
4.21515e-05
4.17538e-05
1.30857e-05
1.02964e-05
4.44728e-05
4.9903e-05
4.31022e-05
4.19965e-05
1.32481e-05
1.05003e-05
4.44582e-05
5.13069e-05
4.3805e-05
4.38675e-05
1.35112e-05
1.11942e-05
4.49821e-05
5.59838e-05
5.2201e-05
4.47452e-05
1.48857e-05
1.24773e-05
4.17898e-05
4.19082e-05
4.7906e-05
4.84157e-05
1.00599e-05
1.31396e-05
4.2455e-05
4.26948e-05
4.97567e-05
4.46041e-05
1.04624e-05
1.35179e-05
4.3078e-05
4.37928e-05
5.1336e-05
4.48965e-05
1.06781e-05
1.39051e-05
4.53131e-05
4.45017e-05
5.65091e-05
4.5904e-05
1.15658e-05
1.52142e-05
4.57956e-05
5.29208e-05
4.29951e-05
4.36947e-05
1.25321e-05
1.02109e-05
4.99774e-05
4.9754e-05
4.44681e-05
4.48741e-05
1.35832e-05
1.0793e-05
4.7003e-05
5.23182e-05
4.60187e-05
4.55502e-05
1.3972e-05
1.11271e-05
4.73291e-05
5.4222e-05
4.71056e-05
4.79636e-05
1.44384e-05
1.19901e-05
4.85085e-05
5.93489e-05
5.56391e-05
4.84852e-05
1.58469e-05
1.30266e-05
4.59401e-05
4.56516e-05
5.19759e-05
5.24497e-05
1.05904e-05
1.39717e-05
4.71128e-05
4.68273e-05
5.43585e-05
4.916e-05
1.11493e-05
1.4725e-05
4.87931e-05
4.78988e-05
5.93236e-05
4.88031e-05
1.22511e-05
1.61184e-05
4.85559e-05
5.58365e-05
4.61246e-05
4.7213e-05
1.34965e-05
1.08669e-05
5.29829e-05
5.26043e-05
4.7653e-05
4.84274e-05
1.43729e-05
1.14399e-05
5.02237e-05
5.52292e-05
4.93292e-05
4.94144e-05
1.48852e-05
1.18564e-05
5.05629e-05
5.76753e-05
5.0904e-05
5.24203e-05
1.54643e-05
1.28567e-05
5.26342e-05
6.3402e-05
5.95241e-05
5.27819e-05
1.6994e-05
1.38225e-05
5.08637e-05
4.98818e-05
5.62739e-05
5.72181e-05
1.1214e-05
1.50818e-05
5.23685e-05
5.17438e-05
5.95455e-05
5.39764e-05
1.20767e-05
1.5864e-05
5.43238e-05
5.29127e-05
6.51151e-05
5.40442e-05
1.29664e-05
1.73381e-05
5.42317e-05
6.15397e-05
5.19895e-05
5.33904e-05
1.46051e-05
1.19876e-05
5.87503e-05
5.84241e-05
5.37272e-05
5.52468e-05
1.59455e-05
1.27773e-05
5.63479e-05
6.2027e-05
5.55008e-05
5.75283e-05
1.67951e-05
1.40046e-05
5.68307e-05
6.79744e-05
6.42363e-05
5.71778e-05
1.85249e-05
1.51503e-05
5.60449e-05
5.46749e-05
6.14052e-05
6.1788e-05
1.22726e-05
1.6718e-05
5.88617e-05
5.63405e-05
6.77697e-05
5.77229e-05
1.39405e-05
1.86296e-05
5.77321e-05
6.45397e-05
5.49686e-05
5.57678e-05
1.51704e-05
1.21141e-05
6.24371e-05
6.12258e-05
5.66145e-05
5.76457e-05
1.65188e-05
1.32356e-05
5.82346e-05
6.39708e-05
5.788e-05
5.99516e-05
1.7582e-05
1.46412e-05
5.85837e-05
6.94378e-05
6.61012e-05
5.94452e-05
1.94708e-05
1.60293e-05
5.90206e-05
5.74346e-05
6.3484e-05
6.38247e-05
1.31291e-05
1.77603e-05
6.22645e-05
5.88978e-05
6.94472e-05
6.02365e-05
1.48902e-05
1.98905e-05
6.04876e-05
6.6444e-05
5.83644e-05
6.01481e-05
1.64062e-05
1.32498e-05
6.49251e-05
6.40422e-05
5.95155e-05
6.29973e-05
1.78742e-05
1.46071e-05
6.05608e-05
6.99802e-05
6.70774e-05
6.11549e-05
1.99549e-05
1.6652e-05
6.05398e-05
5.89348e-05
6.42999e-05
6.47073e-05
1.36371e-05
1.86287e-05
6.43009e-05
6.06251e-05
7.02427e-05
6.15783e-05
1.54564e-05
2.08387e-05
6.21852e-05
6.74208e-05
6.02717e-05
6.26603e-05
1.72512e-05
1.39417e-05
6.64589e-05
6.54863e-05
6.16007e-05
6.57454e-05
1.88375e-05
1.555e-05
6.26042e-05
7.13574e-05
6.85645e-05
6.30954e-05
2.09468e-05
1.71998e-05
6.32572e-05
6.11947e-05
6.63677e-05
6.84977e-05
1.34209e-05
1.88295e-05
6.67679e-05
6.27126e-05
7.22043e-05
6.31362e-05
1.58831e-05
2.1682e-05
6.38213e-05
6.94749e-05
6.28418e-05
6.6085e-05
1.80256e-05
1.473e-05
6.84459e-05
6.74765e-05
6.50393e-05
7.038e-05
2.0149e-05
1.67907e-05
6.67496e-05
7.51136e-05
7.23285e-05
6.75949e-05
2.25069e-05
1.86257e-05
6.9255e-05
6.59013e-05
7.11794e-05
7.22165e-05
1.50483e-05
2.04821e-05
7.34803e-05
6.77014e-05
7.85298e-05
6.98935e-05
1.68744e-05
2.24818e-05
6.98319e-05
7.57144e-05
6.87937e-05
7.47754e-05
1.96282e-05
1.69238e-05
7.43155e-05
7.7685e-05
7.52619e-05
7.41114e-05
2.35107e-05
1.97902e-05
7.38094e-05
7.00373e-05
7.52925e-05
7.60233e-05
1.62492e-05