/*--------------------------------*- C++ -*----------------------------------*\
| =========                 |                                                 |
| \\      /  F ield         | OpenFOAM: The Open Source CFD Toolbox           |
|  \\    /   O peration     | Version:  v2006                                 |
|   \\  /    A nd           | Website:  www.openfoam.com                      |
|    \\/     M anipulation  |                                                 |
\*---------------------------------------------------------------------------*/
FoamFile
{
    version     2.0;
    format      ascii;
    class       volScalarField;
    location    "0.004";
    object      alphat;
}
// * * * * * * * * * * * * * * * * * * * * * * * * * * * * * * * * * * * * * //

dimensions      [1 -1 -1 0 0 0 0];


internalField   nonuniform List<scalar> 
10108
(
0.246653
0.240517
0.325306
0.336864
0.415414
0.47588
0.442191
0.455502
0.434011
0.384977
0.326006
0.277816
0.240018
0.210846
0.187571
0.168508
0.152486
0.138828
0.127117
0.117039
0.108317
0.100711
0.0940362
0.0881626
0.0829908
0.0784349
0.0744153
0.0708572
0.0676911
0.0648535
0.0622899
0.0599564
0.0578196
0.0558567
0.054052
0.0523956
0.0508825
0.0495114
0.0482827
0.0471964
0.0462517
0.0454474
0.0447817
0.0442528
0.0438595
0.0436022
0.0434842
0.0435123
0.0436983
0.0440603
0.0446249
0.0454294
0.0465199
0.0479763
0.049876
0.0523486
0.0555236
0.0597671
0.0652499
0.0731841
0.0844744
0.108103
0.167792
0.169858
0.161373
0.283865
0.316419
0.239125
0.104051
0.0173395
0.00306922
0.000110215
0.000102331
0.00152852
0.00678598
0.00433549
0.00114787
9.74055e-05
9.1569e-05
0.00102201
0.00354076
0.0030918
0.000953228
8.94306e-05
8.569e-05
0.000887173
0.00280893
0.00260052
0.000858877
8.36783e-05
8.17381e-05
0.000830122
0.00248526
0.00238732
0.000818917
8.0073e-05
7.89851e-05
0.00081437
0.00233568
0.00227803
0.00080071
7.74592e-05
7.63221e-05
0.000797935
0.0022583
0.00219816
0.000778453
7.44552e-05
7.30157e-05
0.000768371
0.00216311
0.00207652
0.000738902
7.10227e-05
6.96371e-05
0.000723991
0.00202888
0.00193359
0.00069295
6.78818e-05
6.67425e-05
0.000677967
0.00187925
0.00178868
0.000649538
6.52685e-05
6.43285e-05
0.000636868
0.00173899
0.001659
0.000612059
6.30659e-05
6.22806e-05
0.000601557
0.00161721
0.00154746
0.000580105
6.12294e-05
6.06438e-05
0.000571627
0.00151305
0.00145115
0.000553941
5.9855e-05
5.9491e-05
0.000547965
0.00142442
0.00137188
0.00053422
5.89048e-05
5.86445e-05
0.000530245
0.00135466
0.0013122
0.000518629
5.8079e-05
5.77378e-05
0.000514578
0.00129837
0.00125917
0.000502113
5.69879e-05
5.642e-05
0.000496141
0.00124124
0.00119647
0.000480543
5.54439e-05
5.46513e-05
0.000472729
0.0011753
0.0011259
0.000455496
5.3484e-05
5.24883e-05
0.000445211
0.00109883
0.00104386
0.000426383
5.12214e-05
5.02097e-05
0.000414735
0.00101071
0.000954634
0.000396647
4.90786e-05
4.8278e-05
0.000386796
0.000920378
0.000874983
0.000372573
4.74136e-05
4.68515e-05
0.00036654
0.000850582
0.00082043
0.000356156
4.61846e-05
4.57648e-05
0.000352717
0.000806666
0.000786103
0.000344793
4.5244e-05
4.49778e-05
0.000343068
0.00078079
0.000768626
0.00033721
4.46061e-05
4.44873e-05
0.000337355
0.000770749
0.000766082
0.000333649
4.42017e-05
4.41311e-05
0.000334018
0.000780208
0.000773855
0.000329062
4.37279e-05
4.36244e-05
0.000326366
0.00077737
0.00076523
0.000316801
4.31988e-05
4.32353e-05
0.000310119
0.000758101
0.000734689
0.000295414
4.29158e-05
4.31585e-05
0.000284027
0.000716486
0.000676964
0.00026264
4.30758e-05
3.93284e-05
0.000241534
0.000639087
0.000582609
0.000215658
3.21999e-05
2.42645e-05
0.000192429
0.000532566
0.000467689
0.00016427
1.69239e-05
1.49338e-05
0.000133909
0.000406556
0.000327887
0.000114888
1.50528e-05
1.63346e-05
0.000109068
0.000268954
0.000237468
0.000105084
1.72687e-05
1.75862e-05
9.66855e-05
0.000223471
0.000204104
8.11783e-05
1.76053e-05
1.77267e-05
6.65827e-05
0.000168725
0.000132955
5.6215e-05
1.81636e-05
1.80334e-05
5.09225e-05
0.000109483
9.68309e-05
4.6397e-05
1.78715e-05
1.7642e-05
4.28769e-05
9.12778e-05
8.7747e-05
3.93541e-05
1.66359e-05
1.52273e-05
3.74751e-05
8.37217e-05
8.1416e-05
3.51395e-05
1.35085e-05
1.15569e-05
3.12904e-05
7.77962e-05
7.61063e-05
2.88267e-05
9.41894e-06
7.32206e-06
2.45219e-05
7.07674e-05
6.81854e-05
2.39284e-05
5.20714e-06
3.50659e-06
2.03531e-05
6.1292e-05
6.06751e-05
2.04448e-05
2.30469e-06
1.9606e-06
1.92557e-05
5.40378e-05
5.67307e-05
2.14691e-05
2.04165e-06
2.23592e-06
2.06155e-05
5.40202e-05
6.03973e-05
2.09503e-05
2.52048e-06
3.27995e-06
2.12879e-05
6.35599e-05
7.33295e-05
2.34162e-05
4.34898e-06
5.70514e-06
2.49941e-05
8.52551e-05
0.000102318
3.07657e-05
6.76064e-06
8.21804e-06
3.69049e-05
0.000125515
0.000148863
4.86335e-05
9.22534e-06
1.02679e-05
7.78095e-05
0.000210281
0.000346
0.000165429
1.28737e-05
1.79025e-05
0.000254987
0.000359764
0.000284012
0.000243234
1.93411e-05
1.88487e-05
0.000197442
0.000227298
0.000164535
0.000127947
1.87994e-05
1.78896e-05
0.00010207
0.000140969
0.000126067
6.7712e-05
1.75641e-05
1.79917e-05
5.34418e-05
0.000140445
0.000171276
7.66723e-05
1.88578e-05
2.58471e-05
0.000109531
0.000203405
0.00022574
0.000142305
3.05054e-05
3.7026e-05
0.000161247
0.000243354
0.000250688
0.000175031
4.50414e-05
5.2209e-05
0.000182619
0.000248522
0.000241472
0.000187137
4.93577e-05
4.64902e-05
0.000189462
0.000235561
0.000224256
0.000189915
4.46098e-05
4.32561e-05
0.000189521
0.000214666
0.000203005
0.000187541
4.21578e-05
4.1205e-05
0.000185186
0.000193694
0.000181738
0.000181915
4.03724e-05
3.95664e-05
0.000177378
0.000174564
0.000163474
0.000172698
3.88176e-05
3.80827e-05
0.00016701
0.000158477
0.000149052
0.000161756
3.74006e-05
3.67323e-05
0.000155617
0.000145163
0.00013761
0.000149709
3.60674e-05
3.54001e-05
0.000142847
0.000134761
0.000128983
0.000136608
3.47731e-05
3.41793e-05
0.000130626
0.000126873
0.000120059
0.000123804
3.35702e-05
3.30042e-05
0.000117829
0.0001182
0.000110297
0.000109969
3.23477e-05
3.17603e-05
0.000104864
0.000108921
0.00010206
9.61232e-05
3.10191e-05
3.03175e-05
9.16494e-05
0.000101068
9.52618e-05
8.26041e-05
2.93306e-05
2.83468e-05
7.83732e-05
9.45323e-05
8.94874e-05
6.94079e-05
2.69851e-05
2.55256e-05
6.52559e-05
8.86209e-05
8.35316e-05
5.6419e-05
2.35492e-05
2.15894e-05
5.21658e-05
8.22031e-05
7.71913e-05
4.3225e-05
1.95833e-05
1.80533e-05
3.88362e-05
7.54008e-05
6.94572e-05
2.95214e-05
1.5805e-05
1.29421e-05
2.55721e-05
6.7344e-05
6.17622e-05
1.8508e-05
9.55322e-06
1.50692e-05
1.55203e-05
6.11231e-05
0.000274718
0.000865323
0.000864843
0.000864535
0.000864476
0.000864519
0.00086453
0.000864818
0.000864816
0.000864923
0.000864392
0.000864995
0.000294343
0.000157457
0.000141555
0.00018514
0.000368478
0.000865188
0.000864909
0.000865464
0.000864944
0.000865302
7.5477e-05
2.83367e-05
3.74942e-05
6.47812e-06
3.93874e-06
3.92721e-06
1.5344e-05
2.40556e-05
2.62137e-05
9.45697e-06
6.50124e-06
1.24675e-05
1.31319e-05
2.70095e-05
2.74743e-05
1.37053e-05
1.71169e-05
2.0114e-05
2.36787e-05
2.61151e-05
2.58226e-05
2.31387e-05
2.18162e-05
2.27155e-05
3.20534e-05
2.55314e-05
2.52333e-05
3.17326e-05
2.30069e-05
2.32161e-05
3.97509e-05
2.61136e-05
2.54923e-05
3.96454e-05
2.30523e-05
2.31065e-05
4.6732e-05
2.81662e-05
2.77439e-05
4.70386e-05
2.29353e-05
2.2861e-05
5.40898e-05
3.09603e-05
3.06026e-05
5.47881e-05
2.26453e-05
2.25658e-05
6.19929e-05
3.47902e-05
3.4559e-05
6.3075e-05
2.24012e-05
2.23395e-05
6.96953e-05
3.96221e-05
3.95757e-05
7.29032e-05
2.22508e-05
2.22216e-05
7.82518e-05
4.63313e-05
4.65169e-05
8.2483e-05
2.22053e-05
2.22036e-05
8.66166e-05
5.46922e-05
5.5081e-05
9.08241e-05
2.22409e-05
2.22676e-05
9.44884e-05
6.38425e-05
6.4399e-05
9.84387e-05
2.235e-05
2.24087e-05
0.000102068
7.32346e-05
7.39503e-05
0.00010572
2.25154e-05
2.2606e-05
0.000109224
8.27183e-05
8.35455e-05
0.000112379
2.27169e-05
2.28125e-05
0.000115628
9.18218e-05
9.28514e-05
0.000118112
2.2915e-05
2.29971e-05
0.000120935
0.000100574
0.00010176
0.000122708
2.3088e-05
2.31563e-05
0.000125102
0.00010885
0.000110196
0.000126315
2.32348e-05
2.32896e-05
0.000128329
0.000116678
0.000118275
0.000129114
2.33539e-05
2.34025e-05
0.000130845
0.000124064
0.000125741
0.000131308
2.34507e-05
2.34997e-05
0.000132866
0.00013084
0.000132556
0.000133187
2.35344e-05
2.35864e-05
0.000134651
0.000136924
0.000138626
0.000134779
2.3624e-05
2.36538e-05
0.000136233
0.000142068
0.000143716
0.000136329
2.3692e-05
2.37055e-05
0.000137784
0.000145967
0.000146423
0.000138707
2.37343e-05
2.37814e-05
0.000140936
0.000149142
0.000146753
0.00014139
2.39469e-05
2.41179e-05
0.000142503
0.000149849
0.000147162
0.000141908
2.44577e-05
2.49144e-05
0.000143138
0.000147633
0.000145745
0.000142292
2.51288e-05
2.5415e-05
0.000145379
0.000145485
0.00014218
0.000145637
2.5734e-05
2.59796e-05
0.000147441
0.000141671
0.00013706
0.000148579
2.62128e-05
2.65241e-05
0.000151605
0.000136112
0.000132554
0.000154757
2.6971e-05
2.79948e-05
0.000157961
0.000127085
0.000125683
0.000162468
3.02357e-05
3.1365e-05
0.000128842
6.66091e-05
0.000108406
0.000105646
2.54307e-05
2.05154e-05
0.000107275
0.000116842
0.000113412
0.000108726
2.49719e-05
2.68181e-05
0.00010733
0.000107326
0.000105282
0.000106196
2.94421e-05
3.08696e-05
0.000102597
0.000101344
9.99819e-05
0.000100842
3.3965e-05
3.29876e-05
6.62591e-05
0.0001071
8.86771e-05
8.45991e-05
2.8224e-05
2.08601e-05
8.09584e-05
8.90158e-05
8.98473e-05
7.84623e-05
2.48978e-05
2.86626e-05
7.7628e-05
8.80615e-05
9.77724e-05
5.38633e-05
2.76024e-05
2.51665e-05
7.68772e-05
8.06604e-05
8.22678e-05
7.35907e-05
1.91043e-05
2.40879e-05
7.3386e-05
8.20323e-05
8.78058e-05
4.18378e-05
2.34437e-05
2.45941e-05
8.527e-05
8.51428e-05
6.95505e-05
6.79822e-05
1.52121e-05
2.28304e-05
9.5377e-05
7.94392e-05
8.0304e-05
6.65032e-05
2.62284e-05
3.32643e-05
4.8528e-05
6.32467e-05
3.63062e-05
5.00905e-05
1.4943e-05
1.64797e-05
4.17274e-05
6.25209e-05
4.84768e-05
3.69812e-05
2.50022e-05
2.79219e-05
5.94121e-05
6.60663e-05
6.02519e-05
4.25118e-05
2.0912e-05
2.61799e-05
4.53974e-05
5.80256e-05
7.54063e-05
6.85009e-05
2.91292e-05
2.16612e-05
5.55629e-05
7.3035e-05
6.72355e-05
5.56031e-05
2.60755e-05
2.87151e-05
7.61033e-05
8.74197e-05
8.36758e-05
6.49716e-05
2.13945e-05
2.57397e-05
6.35405e-05
7.4788e-05
9.83437e-05
8.27811e-05
2.78362e-05
2.13896e-05
7.16877e-05
9.24195e-05
8.10279e-05
6.93042e-05
2.55027e-05
2.72666e-05
8.84143e-05
0.000107947
9.89647e-05
7.62646e-05
2.12833e-05
2.54745e-05
7.36056e-05
8.56976e-05
0.000115833
9.21462e-05
2.69969e-05
2.11288e-05
7.9375e-05
0.000103565
8.96019e-05
7.62409e-05
2.52965e-05
2.65638e-05
9.50027e-05
0.000122208
0.000107254
8.09292e-05
2.09265e-05
2.5083e-05
7.75732e-05
9.11643e-05
0.000127429
9.57288e-05
2.60975e-05
2.05493e-05
8.09337e-05
0.000109189
9.1206e-05
7.73367e-05
2.45204e-05
2.54444e-05
9.50217e-05
0.000130358
0.000109178
7.93728e-05
2.01392e-05
2.38762e-05
7.55179e-05
9.05052e-05
0.000132168
9.24351e-05
2.4806e-05
1.95947e-05
7.64602e-05
0.000107325
8.84818e-05
7.18536e-05
2.28166e-05
2.37286e-05
8.81188e-05
0.000132865
0.00010306
7.07914e-05
1.85789e-05
2.00032e-05
6.54381e-05
8.287e-05
0.000128439
0.000123957
1.80518e-05
2.39757e-05
7.97755e-05
0.000107179
0.000159119
0.000104905
2.37941e-05
1.87284e-05
7.6974e-05
0.000116333
9.63963e-05
7.01091e-05
2.19485e-05
2.31404e-05
9.57665e-05
0.000152267
0.000110869
6.99039e-05
1.80237e-05
1.94506e-05
6.28751e-05
8.89917e-05
0.000146258
0.00013469
1.75867e-05
2.29198e-05
7.79102e-05
0.000116032
0.000186968
0.000117726
2.29999e-05
1.79152e-05
7.45236e-05
0.000128882
9.90125e-05
6.52567e-05
1.98201e-05
1.77287e-05
0.00014357
0.000166813
0.000123227
7.82269e-05
2.24236e-05
2.29445e-05
0.000129585
0.00021326
0.00013513
7.37034e-05
1.77824e-05
1.99524e-05
6.41298e-05
0.000103371
0.000184292
0.000162472
1.77987e-05
2.23047e-05
7.79234e-05
0.000133216
0.000245444
0.000143037
2.31475e-05
1.76264e-05
7.20305e-05
0.000149386
0.000105609
6.07795e-05
1.97558e-05
1.76406e-05
0.000177043
0.000202576
0.000134933
7.28827e-05
2.17077e-05
2.24488e-05
0.000143858
0.000263354
0.000143012
6.40839e-05
1.69523e-05
1.91079e-05
5.24811e-05
9.78745e-05
0.000197694
0.000167332
1.7161e-05
2.12191e-05
6.25347e-05
0.000121502
0.000254465
0.00012898
2.205e-05
1.65843e-05
5.46214e-05
0.00012698
8.65323e-05
4.61793e-05
1.90352e-05
1.73898e-05
0.000139308
0.000181742
0.000112203
5.59021e-05
2.03462e-05
1.95685e-05
0.000189354
0.000246669
0.000150404
7.03983e-05
2.29268e-05
2.50496e-05
0.000178964
0.000347107
0.000186252
6.95895e-05
1.7499e-05
2.02361e-05
5.32847e-05
0.000123424
0.000311272
0.000203204
2.04232e-05
2.18211e-05
6.91639e-05
0.000166082
0.000421918
0.000266804
2.28599e-05
2.3355e-05
8.67445e-05
0.000229313
0.000535924
0.000302236
2.71475e-05
1.64009e-05
8.20352e-05
0.000245833
0.000131954
4.7049e-05
1.82536e-05
2.03808e-05
0.000210905
0.000374984
0.000145505
5.03057e-05
1.93091e-05
2.11385e-05
0.000215193
0.000403508
0.00016263
5.31394e-05
1.8566e-05
2.08545e-05
0.000228944
0.000435922
0.000183845
5.80162e-05
1.89539e-05
2.44102e-05
0.000253286
0.000486513
0.000217186
6.81603e-05
9.51031e-06
1.12892e-05
3.86496e-05
0.000137702
0.000469747
0.000233656
1.63154e-05
1.40341e-05
6.80349e-05
0.000233159
0.000722515
0.000335692
2.2112e-05
1.43039e-05
0.000109814
0.000370144
0.000926952
0.000398736
2.62622e-05
1.54426e-05
0.000219932
0.000663391
0.00104174
0.000428501
2.97975e-05
5.38907e-06
0.000180587
0.000602263
0.000664808
0.000208544
6.74556e-06
4.54361e-06
0.000123082
0.000466018
0.000715973
0.000246911
1.02411e-05
5.49004e-06
0.000107998
0.000427433
0.000867118
0.000331778
1.83364e-05
8.7366e-06
9.89349e-05
0.000370146
0.00090049
0.000371025
2.16965e-05
1.19304e-05
9.59577e-05
0.000351689
0.000854548
0.000366815
2.77298e-05
2.64188e-05
0.000264035
0.000730468
0.000211319
4.73332e-05
9.6261e-06
1.89242e-05
0.000290202
0.00056857
0.000222247
6.14344e-05
1.51105e-05
2.2161e-05
0.000291773
0.00053533
0.000209234
6.35876e-05
1.78897e-05
2.14544e-05
0.000270516
0.000487561
0.000192135
6.40757e-05
1.85623e-05
2.11387e-05
0.00026536
0.000464616
0.000192115
7.00896e-05
1.9641e-05
2.20452e-05
0.000216632
0.000481539
0.000404725
0.000155295
2.27142e-05
1.56047e-05
3.80488e-05
0.0001094
0.000276613
0.000195664
1.66936e-05
1.79845e-05
5.27001e-05
0.000121448
0.00030049
0.000180551
1.79375e-05
1.914e-05
5.64143e-05
0.000128127
0.000292091
0.000174814
1.80324e-05
1.98042e-05
5.9344e-05
0.000129917
0.00028362
0.000173485
1.83521e-05
2.03663e-05
6.22241e-05
0.000132039
0.000296124
0.000141541
1.91498e-05
2.21859e-05
0.000108716
0.000232531
8.25673e-05
3.96711e-05
1.67295e-05
1.50513e-05
0.000126798
0.000156977
8.4418e-05
5.00441e-05
1.86714e-05
1.59285e-05
0.000115266
0.000165366
8.81949e-05
5.22944e-05
1.91511e-05
1.61127e-05
0.000111672
0.000167842
9.01096e-05
5.347e-05
1.92084e-05
1.61743e-05
0.000110963
0.000167906
9.19764e-05
5.49774e-05
1.95619e-05
1.7149e-05
9.98809e-05
0.000183085
0.000149955
8.34144e-05
2.10778e-05
1.69092e-05
4.51621e-05
6.96752e-05
0.000110274
9.04897e-05
1.41945e-05
1.87209e-05
5.32529e-05
6.94469e-05
0.000115898
8.46698e-05
1.51486e-05
1.91021e-05
5.44449e-05
7.25473e-05
0.000117365
8.35464e-05
1.53213e-05
1.90443e-05
5.63749e-05
7.45375e-05
0.00011845
8.60534e-05
1.53366e-05
1.91768e-05
5.84457e-05
7.6001e-05
0.000133487
8.43018e-05
1.61562e-05
2.04082e-05
7.44147e-05
0.000113461
6.25344e-05
5.20677e-05
1.69368e-05
1.41497e-05
7.96134e-05
9.16194e-05
6.45701e-05
5.69492e-05
1.91279e-05
1.52222e-05
7.47428e-05
9.48382e-05
6.65262e-05
5.7997e-05
1.93347e-05
1.51281e-05
7.3862e-05
9.52388e-05
6.77758e-05
6.01564e-05
1.92382e-05
1.53482e-05
7.63393e-05
9.743e-05
6.94702e-05
6.44545e-05
1.95358e-05
1.62699e-05
7.72469e-05
0.000111496
9.92823e-05
7.22911e-05
2.10085e-05
1.75361e-05
5.9321e-05
6.31742e-05
8.83445e-05
7.94777e-05
1.44661e-05
1.9456e-05
6.33406e-05
6.72988e-05
9.42989e-05
7.65649e-05
1.5412e-05
1.97395e-05
6.51964e-05
7.10371e-05
9.7688e-05
7.845e-05
1.57395e-05
2.00752e-05
6.92323e-05
7.34483e-05
0.000107922
7.83891e-05
1.65418e-05
2.16229e-05
7.47097e-05
9.77592e-05
6.71517e-05
6.40386e-05
1.80059e-05
1.46994e-05
8.0781e-05
8.44891e-05
6.99301e-05
6.75263e-05
1.99196e-05
1.57821e-05
7.5989e-05
8.82118e-05
7.25837e-05
6.93316e-05
2.05165e-05
1.61103e-05
7.64246e-05
9.09767e-05
7.50163e-05
7.41107e-05
2.10404e-05
1.74793e-05
7.84671e-05
0.000100206
9.29397e-05
7.70312e-05
2.2871e-05
1.88715e-05
7.15408e-05
7.1731e-05
8.5299e-05
8.35956e-05
1.54081e-05
2.11131e-05
7.57566e-05
7.54274e-05
8.96025e-05
8.02013e-05
1.67107e-05
2.20944e-05
7.93831e-05
7.84203e-05
9.69505e-05
7.97241e-05
1.81894e-05
2.4053e-05
8.01471e-05
9.10065e-05
7.58662e-05
7.65969e-05
1.97326e-05
1.59758e-05
8.63186e-05
8.49371e-05
7.8847e-05
8.0207e-05
2.20636e-05
1.75692e-05
8.11363e-05
8.82318e-05
8.14701e-05
8.43706e-05
2.34321e-05
1.92311e-05
8.14169e-05
9.4053e-05
8.99455e-05
8.34254e-05
2.57893e-05
2.13536e-05
8.41321e-05
8.12193e-05
8.62325e-05
8.96389e-05
1.70816e-05
2.40424e-05
8.90512e-05
8.37771e-05
9.31008e-05
8.34618e-05
1.99959e-05
2.72283e-05
8.58054e-05
9.01423e-05
8.43028e-05
8.73918e-05
2.27341e-05
1.82842e-05
9.11313e-05
8.72893e-05
8.66626e-05
9.28408e-05
2.52224e-05
2.06184e-05
8.54363e-05
9.24515e-05
9.01562e-05
8.80918e-05
2.8455e-05
2.4245e-05
9.27856e-05
8.79224e-05
8.87119e-05
9.38117e-05
1.95296e-05
2.69906e-05
9.85742e-05
9.05716e-05
9.48861e-05
8.98656e-05
2.18632e-05
2.93344e-05
9.14526e-05
9.29333e-05
9.18928e-05
9.68261e-05
2.50116e-05
2.03979e-05
9.65548e-05
9.16165e-05
9.496e-05
0.000104074
2.85311e-05
2.33969e-05
9.31884e-05
9.68898e-05
9.53748e-05
9.70547e-05
3.18602e-05
2.6433e-05
0.000105149
9.79577e-05
9.57651e-05
0.000103053
2.09808e-05
2.99119e-05
0.000112095
0.000101084
0.000102185
9.94037e-05
2.49085e-05
3.4074e-05
0.000104255
0.000101104
0.000106186
0.000117261
2.91921e-05
2.40634e-05
0.00010977
0.000105032
0.000103958
0.000111275
3.34835e-05
3.03254e-05
0.000121241
0.000110686
0.000108687
0.000112995
2.58713e-05
3.65193e-05
0.000113713
0.000107994
0.000114197
0.000124057
3.17998e-05
2.61518e-05
0.000114513
0.000110877
0.000110007
0.000116095
3.68469e-05
3.3213e-05
0.000130274
0.000118382
0.000114318
0.000118878
2.81845e-05
3.91129e-05
0.000117042
0.000113747
0.000120223
0.000131269
3.40391e-05
2.85446e-05
0.000120957
0.000115748
0.000115209
0.000122297
4.12333e-05
3.67301e-05
0.000144157
0.000127278
0.00012051
0.000125476
2.98895e-05
4.28699e-05
0.000141628
0.000121947
0.000121371
0.000141196
4.17625e-05
3.8932e-05
0.000151627
0.000136499
0.00012721
0.000133649
3.29665e-05
4.74882e-05
0.000133064
0.000125846
0.000129678
0.000157777
5.02094e-05
4.52048e-05
0.00014584
0.00012807
0.000141983
0.000154396
4.30616e-05
3.76546e-05
0.00013865
0.000133334
0.00013254
0.000136345
5.65058e-05
5.76556e-05
0.000158483
0.000133968
0.00013224
0.000151662
6.1606e-05
6.65253e-05
0.000162475
0.000136147
0.000135052
0.00015779
7.32564e-05
7.90581e-05
0.00016889
0.000139925
0.000141539
0.000172048
8.27165e-05
8.25548e-05
0.000184349
0.000146478
0.000147866
0.000191375
7.99405e-05
7.70701e-05
0.000201815
0.000153593
0.000156267
0.000212187
7.37756e-05
7.07184e-05
0.000223315
0.000164194
0.0001676
0.000233568
6.75685e-05
6.48846e-05
0.000245618
0.000178321
0.000182185
0.000245042
6.23385e-05
6.0207e-05
0.000253201
0.000195148
0.000200269
0.000256121
5.82534e-05
5.65886e-05
0.000260485
0.000218297
0.000224827
0.000263717
5.50711e-05
5.37839e-05
0.000267597
0.000245839
0.000252918
0.000270864
5.26227e-05
5.16455e-05
0.00027542
0.000274208
0.000282206
0.000279333
5.07921e-05
5.00661e-05
0.000284203
0.000303685
0.00031212
0.000288625
4.94809e-05
4.89379e-05
0.000293937
0.000333742
0.000335953
0.000298702
4.86004e-05
4.81553e-05
0.000304144
0.000357828
0.000358345
0.000309418
4.80706e-05
4.76993e-05
0.000314992
0.000379673
0.000380192
0.000320282
4.77991e-05
4.7519e-05
0.000325318
0.000400536
0.000400694
0.000330358
4.7659e-05
4.74956e-05
0.000335238
0.000420063
0.000419934
0.00033981
4.76481e-05
4.75724e-05
0.00034434
0.000437893
0.00043741
0.00034848
4.77143e-05
4.76816e-05
0.000352752
0.00045414
0.000453431
0.000356301
4.78107e-05
4.78117e-05
0.000360178
0.000468971
0.000467964
0.000363221
4.79278e-05
4.79257e-05
0.000366896
0.000482396
0.00048113
0.000369321
4.80458e-05
4.80425e-05
0.000372606
0.000494667
0.000493067
0.000374582
4.81719e-05
4.81501e-05
0.000377562
0.000505655
0.000503787
0.000379109
4.82743e-05
4.8247e-05
0.000381747
0.000515785
0.000513625
0.000382889
4.83686e-05
4.83322e-05
0.000385321
0.000524961
0.00052253
0.000386118
4.845e-05
4.84113e-05
0.000388301
0.000533326
0.000530718
0.000388819
4.85276e-05
4.84859e-05
0.000390845
0.000541161
0.000538221
0.000391025
4.8596e-05
4.85542e-05
0.000392736
0.000548195
0.000544964
0.000392951
4.86218e-05
4.86556e-05
0.0003945
0.000554778
0.000551673
0.000394368
4.87193e-05
4.86738e-05
0.000395973
0.000561121
0.000557926
0.000395735
4.87709e-05
4.87211e-05
0.000397313
0.00056729
0.000563961
0.000396901
4.88087e-05
4.87501e-05
0.000398299
0.000573112
0.000569501
0.00039783
4.88253e-05
4.87526e-05
0.000399245
0.000578746
0.000574852
0.000398599
4.88227e-05
4.87448e-05
0.000399851
0.000583803
0.000579975
0.000399237
4.88273e-05
4.87499e-05
0.000400477
0.000588868
0.00058487
0.000399703
4.8841e-05
4.87671e-05
0.000400781
0.000593608
0.000589615
0.000400042
4.88647e-05
4.87901e-05
0.000401117
0.000598312
0.00059407
0.00040022
4.88913e-05
4.88234e-05
0.000401169
0.000602676
0.000598615
0.000400347
4.89328e-05
4.88717e-05
0.000401306
0.000607173
0.000602792
0.000400358
4.89844e-05
4.89331e-05
0.000401216
0.000611204
0.000606944
0.000400367
4.90535e-05
4.90077e-05
0.000401247
0.000615315
0.000610739
0.000400282
4.91266e-05
4.90879e-05
0.000401077
0.000619014
0.000614608
0.00040023
4.92102e-05
4.91746e-05
0.00040106
0.000622865
0.000618138
0.000400105
4.92929e-05
4.92619e-05
0.000400859
0.000626295
0.000621701
0.000400026
4.93813e-05
4.93516e-05
0.000400821
0.000629998
0.000625115
0.000399887
4.94658e-05
4.94396e-05
0.00040061
0.000633219
0.000628579
0.000399798
4.95546e-05
4.95287e-05
0.000400559
0.000636568
0.00063184
0.00039964
4.96377e-05
4.96147e-05
0.000400329
0.000638545
0.000635038
0.000399521
4.97241e-05
4.97012e-05
0.000400244
0.000640356
0.000637932
0.000399313
4.98041e-05
4.97837e-05
0.00039995
0.000642007
0.00064076
0.000399117
4.98867e-05
4.98663e-05
0.000399778
0.000643503
0.000643246
0.000398813
4.99627e-05
4.99448e-05
0.000399385
0.000644828
0.00064567
0.000398515
5.00417e-05
5.00239e-05
0.000399111
0.000646003
0.000647775
0.000398109
5.0114e-05
5.00989e-05
0.000398618
0.000647013
0.00064984
0.000397713
5.01895e-05
5.01747e-05
0.000398249
0.000647888
0.000651576
0.00039722
5.02585e-05
5.02465e-05
0.000397681
0.000648619
0.000653185
0.000396763
5.03312e-05
5.03196e-05
0.00039726
0.000649247
0.000653611
0.000396233
5.03979e-05
5.03889e-05
0.000396661
0.000649719
0.000654271
0.000395748
5.04682e-05
5.04597e-05
0.000396213
0.00065009
0.000654447
0.000395191
5.05325e-05
5.05268e-05
0.000395594
0.000650338
0.000654894
0.000394694
5.06012e-05
5.05963e-05
0.000395141
0.000650522
0.000654897
0.000394141
5.06647e-05
5.06629e-05
0.000394536
0.000650623
0.000655204
0.000393662
5.07338e-05
5.07329e-05
0.00039411
0.000650676
0.000655073
0.000393144
5.07982e-05
5.08006e-05
0.000393547
0.000650674
0.000655308
0.000392714
5.08689e-05
5.08723e-05
0.000393174
0.000650704
0.000655184
0.000392253
5.09351e-05
5.09417e-05
0.000392672
0.000650725
0.000655424
0.000391873
5.10075e-05
5.1015e-05
0.000392367
0.000650737
0.000655247
0.000391475
5.10753e-05
5.1086e-05
0.00039193
0.000650695
0.000655419
0.000391137
5.11494e-05
5.1161e-05
0.000391692
0.000650652
0.000655194
0.000390814
5.12194e-05
5.12343e-05
0.000391338
0.000650583
0.00065535
0.000390561
5.12961e-05
5.13118e-05
0.000391187
0.000650545
0.000655138
0.000390327
5.13685e-05
5.13873e-05
0.000390923
0.000650503
0.000655313
0.000390166
5.14478e-05
5.14673e-05
0.000390865
0.000650481
0.00065511
0.000390027
5.15228e-05
5.15452e-05
0.000390698
0.000650462
0.000655336
0.000389966
5.16044e-05
5.16274e-05
0.000390738
0.000650534
0.000655253
0.000389925
5.16811e-05
5.17064e-05
0.000390655
0.000650642
0.000655576
0.000389942
5.17645e-05
5.179e-05
0.00039077
0.000650764
0.000655479
0.000389975
5.18417e-05
5.18695e-05
0.000390769
0.000650817
0.000655746
0.000390065
5.19265e-05
5.19537e-05
0.000390963
0.000650944
0.000655726
0.000390187
5.20027e-05
5.20319e-05
0.000391047
0.000651141
0.000656168
0.000390343
5.20877e-05
5.21174e-05
0.000391305
0.000651431
0.000656264
0.000390549
5.21659e-05
5.21998e-05
0.000391471
0.000651685
0.000656711
0.000390782
5.22595e-05
5.22973e-05
0.000391807
0.000651977
0.000656816
0.000391084
5.23484e-05
5.23856e-05
0.000392084
0.000652279
0.000657346
0.000391412
5.24369e-05
5.24751e-05
0.0003925
0.000652634
0.000657492
0.000391813
5.25183e-05
5.25541e-05
0.000392852
0.000652968
0.000658047
0.000392248
5.25957e-05
5.26311e-05
0.000393372
0.000653369
0.000658284
0.000392704
5.26688e-05
5.27027e-05
0.00039376
0.000653846
0.000659007
0.000393192
5.27374e-05
5.27706e-05
0.000394335
0.000654399
0.000659352
0.000393702
5.28036e-05
5.28365e-05
0.000394769
0.000654927
0.000660086
0.000394232
5.28673e-05
5.28996e-05
0.000395386
0.000655469
0.000660407
0.000394796
5.29299e-05
5.29631e-05
0.000395868
0.000655993
0.000661173
0.000395372
5.29923e-05
5.30252e-05
0.00039652
0.000656674
0.000661667
0.000395958
5.30541e-05
5.30887e-05
0.000397013
0.000657325
0.000662539
0.000396539
5.31177e-05
5.31539e-05
0.000397666
0.000657994
0.000662944
0.000397133
5.31845e-05
5.32263e-05
0.000398196
0.000658554
0.000663716
0.000397775
5.32596e-05
5.33052e-05
0.00039891
0.000659128
0.000664252
0.000398445
5.33392e-05
5.33914e-05
0.00039963
0.00066002
0.000665024
0.000399544
5.34624e-05
5.35456e-05
0.000400601
0.000660959
0.000666202
0.000400084
5.35838e-05
5.36735e-05
0.000401398
0.000661864
0.0006675
0.000401375
5.37892e-05
5.39619e-05
0.000402971
0.000663473
0.000670632
0.000403497
5.42169e-05
5.42714e-05
0.000405686
0.000666949
0.000676757
0.0004071
5.48568e-05
5.50039e-05
0.000408835
0.000672798
0.000692461
0.000415677
5.67979e-05
5.89341e-05
0.000427854
0.000722765
0.000739595
0.000448083
6.17968e-05
0.000873911
0.000747686
0.000711513
0.000721696
0.00056924
0.000972251
0.0011555
0.0012348
0.00110073
0.00213554
0.00185979
0.00168334
0.00156495
0.00149783
0.00148637
0.00151636
0.00156621
0.00161577
0.00164513
0.00163414
0.00159707
0.00155391
0.00151532
0.00148513
0.00146447
0.00145324
0.00144998
0.00145297
0.00145783
0.00146579
0.00146896
0.00147291
0.0015507
0.0015901
0.00169411
0.00179261
0.00195234
0.00213942
0.00239481
0.00270648
0.00310684
0.00359588
0.00420116
0.00492721
0.00579372
0.00680523
0.00797304
0.00929587
0.0107771
0.0124163
0.014225
0.0162171
0.0184126
0.020834
0.0235025
0.0264253
0.0295838
0.0327655
0.0357276
0.0365922
0.0372117
0.0376836
0.0380291
0.0383096
0.0385966
0.0389441
0.0393979
0.0399482
0.0405108
0.0409163
0.0409467
0.0404191
0.0392568
0.0375669
0.0355372
0.0333716
0.0312374
0.0292234
0.0273772
0.0257103
0.0242223
0.0229264
0.0218258
0.020922
0.02021
0.0196824
0.0193362
0.0191651
0.0191634
0.0193228
0.0196385
0.0200993
0.0206989
0.0214253
0.022266
0.0232053
0.0242254
0.0253055
0.026422
0.0275468
0.0286476
0.029688
0.0306384
0.0314945
0.0323415
0.0332171
0.0341078
0.0350156
0.0358816
0.036652
0.03738
0.0380883
0.0387534
0.0393718
0.0399283
0.0404147
0.0408232
0.0411515
0.0413989
0.0415595
0.0416352
0.0416274
0.0415486
0.0414016
0.0411958
0.0409428
0.0406598
0.040367
0.0400874
0.0398508
0.0396951
0.039666
0.0398824
0.04077
0.0421051
0.0436732
0.0457007
0.0484294
0.0519643
0.0564156
0.0619719
0.0686818
0.0759353
0.0824135
0.0910598
0.107067
0.125172
0.135539
0.143061
0.154215
0.167785
0.181478
0.195944
0.212991
0.235959
0.269853
0.322417
0.407203
0.54734
0.771711
1.08657
1.44324
1.76456
2.00498
2.08016
1.73579
1.06579
0.693487
0.458501
0.466866
0.50515
0.513349
0.523289
0.500257
0.479442
0.454013
0.423804
0.391209
0.360055
0.331672
0.306052
0.282504
0.260545
0.240104
0.221327
0.204299
0.188958
0.175153
0.162751
0.151659
0.141797
0.133067
0.125357
0.118539
0.112501
0.107137
0.102319
0.0979735
0.0940449
0.0904697
0.0872238
0.0842818
0.0816225
0.0792343
0.0771159
0.0752699
0.0736973
0.0723971
0.0713668
0.0706039
0.0701052
0.0698689
0.0698958
0.0701903
0.0707622
0.0716284
0.072812
0.0743433
0.0762629
0.0786045
0.0813856
0.0845857
0.0880989
0.0919203
0.0964914
0.103742
0.118405
0.151146
0.216623
0.213262
0.0720942
0.0345867
0.0124396
0.0108181
0.0100555
0.00922469
0.00885176
0.00838027
0.00820421
0.00791015
0.00773877
0.00740734
0.00719738
0.00685797
0.00662623
0.00628748
0.00607422
0.00577018
0.00558966
0.0053201
0.00516556
0.00491525
0.00478601
0.00456019
0.00446282
0.00428424
0.00421683
0.00407557
0.00400884
0.00386981
0.00379791
0.00365402
0.00359016
0.00343486
0.00335178
0.00317965
0.00306731
0.00290618
0.00280806
0.00268911
0.0026187
0.0025141
0.00246885
0.00237699
0.00235323
0.00229075
0.00231832
0.00226269
0.00227271
0.0022144
0.00219451
0.00212299
0.00207614
0.00198349
0.00190017
0.00176536
0.0016601
0.00150178
0.00136711
0.00117369
0.000949259
0.000742702
0.000623083
0.000563619
0.000531612
0.000496867
0.000425544
0.000298873
0.000212808
0.000174703
0.000163155
0.000160502
0.000160663
0.000163661
0.000151693
0.000141868
0.000134621
0.000143321
0.000114034
0.000108086
0.000108821
0.000116735
0.000130686
0.000141381
0.000158419
0.000199231
0.000217217
0.000272514
0.000400843
0.000476775
0.000441405
0.000370864
0.000299108
0.000265531
0.000251336
0.000249964
0.000262583
0.000261488
0.00024475
0.000224341
0.000209444
0.000193602
0.000188953
0.000181426
0.000177365
0.000177113
0.000174466
0.000177795
0.000176587
0.000181442
0.000182343
0.000187766
0.000189406
0.000195868
0.000199576
0.000204425
0.000209466
0.000214058
0.000218685
0.000223245
0.000227098
0.000231325
0.000234664
0.000238241
0.000241007
0.000244033
0.000246181
0.000247852
0.000248826
0.000248457
0.000249751
0.000247926
0.000253946
0.000256049
0.000260152
0.0002607
0.000865156
0.000864466
0.000864246
0.000865488
0.000865541
0.000863822
0.00086394
0.000863515
0.000863153
0.000862987
0.000861597