/*--------------------------------*- C++ -*----------------------------------*\
| =========                 |                                                 |
| \\      /  F ield         | OpenFOAM: The Open Source CFD Toolbox           |
|  \\    /   O peration     | Version:  v2006                                 |
|   \\  /    A nd           | Website:  www.openfoam.com                      |
|    \\/     M anipulation  |                                                 |
\*---------------------------------------------------------------------------*/
FoamFile
{
    version     2.0;
    format      ascii;
    class       volScalarField;
    location    "0.004";
    object      Ma;
}
// * * * * * * * * * * * * * * * * * * * * * * * * * * * * * * * * * * * * * //

dimensions      [0 0 0 0 0 0 0];


internalField   nonuniform List<scalar> 
32857
(
0.131815
0.131804
0.131822
0.131829
0.131834
0.131823
0.1318
0.131783
0.131791
0.131827
0.131858
0.13188
0.131898
0.131913
0.131959
0.132169
0.132496
0.13279
0.132858
0.132873
0.132927
0.133012
0.132973
0.132918
0.132881
0.132836
0.132783
0.132719
0.132645
0.132559
0.132459
0.132344
0.132214
0.132067
0.131903
0.131723
0.131525
0.13131
0.131077
0.130826
0.130557
0.130269
0.129963
0.129638
0.129296
0.128936
0.128557
0.128162
0.127749
0.12732
0.126875
0.126415
0.125941
0.125454
0.124953
0.124439
0.123912
0.123373
0.122821
0.122257
0.121682
0.121095
0.120497
0.119888
0.119269
0.118639
0.117999
0.11735
0.116691
0.116024
0.115347
0.114663
0.113971
0.113272
0.112567
0.111856
0.11114
0.110419
0.109696
0.108969
0.108241
0.107513
0.106784
0.106057
0.105332
0.104609
0.103891
0.103178
0.102471
0.10177
0.101077
0.100392
0.0997157
0.099049
0.0983924
0.0977465
0.0971117
0.0964884
0.095877
0.0952779
0.0946915
0.0941181
0.0935579
0.0930112
0.0924785
0.0919599
0.0914558
0.0909664
0.0904921
0.0900332
0.08959
0.0891628
0.088752
0.0883582
0.0879813
0.0876214
0.0872784
0.0869534
0.0866487
0.0863671
0.086109
0.085876
0.0856813
0.085553
0.0855029
0.0855058
0.0855344
0.0855781
0.0855711
0.0855328
0.0854585
0.0853256
0.085115
0.0847255
0.0842314
0.0821062
0.0804332
0.0841523
0.0848256
0.084802
0.0838228
0.0783643
0.0762334
0.0834119
0.0847443
0.0846138
0.0828701
0.0741988
0.072156
0.0822606
0.0843979
0.0841251
0.0815933
0.0702655
0.0685313
0.0808976
0.0838029
0.0834315
0.080175
0.0669091
0.0654526
0.0794649
0.0830687
0.0826316
0.078744
0.0640908
0.0628689
0.0780468
0.0822273
0.0817539
0.0773388
0.0617249
0.0606905
0.0766602
0.0813264
0.0808296
0.0759718
0.0597011
0.0587935
0.0753116
0.0803894
0.0798789
0.0746377
0.0578968
0.0570531
0.0739897
0.079432
0.0789126
0.0733212
0.0561921
0.0553607
0.0726751
0.0784615
0.0779351
0.072001
0.0544907
0.0536385
0.0713473
0.0774803
0.0769466
0.0706601
0.0527341
0.0518493
0.0699947
0.0764887
0.075948
0.0692935
0.0509096
0.0500032
0.0686183
0.075487
0.0749373
0.0679059
0.04905
0.0481486
0.0672255
0.0744713
0.0739099
0.0665068
0.0472124
0.0463438
0.0658268
0.0734375
0.072863
0.0651075
0.0454506
0.0446325
0.0644323
0.0723828
0.0717936
0.0637168
0.0437956
0.0430331
0.0630494
0.0713049
0.0707026
0.0623419
0.0422532
0.0415411
0.0616853
0.0702077
0.069596
0.0609882
0.0408093
0.0401361
0.0603429
0.0690973
0.0684792
0.059656
0.0394382
0.0387899
0.05902
0.0679783
0.0673552
0.05834
0.0381119
0.0374777
0.0577091
0.0668515
0.0662218
0.0570311
0.0368107
0.0361856
0.0564005
0.0657123
0.0650723
0.0557198
0.0355263
0.0349091
0.0550855
0.0645527
0.0638983
0.0543986
0.0342576
0.0336477
0.0537578
0.0633653
0.062694
0.0530625
0.0330027
0.0323974
0.0524139
0.062146
0.0614581
0.0517098
0.0317553
0.031151
0.0510532
0.0608961
0.0601936
0.0503414
0.0305083
0.0299012
0.0496795
0.0596203
0.058907
0.0489629
0.0292557
0.0286457
0.0482982
0.0583265
0.0576075
0.0475797
0.0279975
0.0273856
0.046916
0.0570246
0.0563051
0.0461988
0.0267346
0.0261221
0.0455397
0.0557247
0.055009
0.0448262
0.0254683
0.0248571
0.0441747
0.0544349
0.0537264
0.0434673
0.0242034
0.0235993
0.0428266
0.0531613
0.0524618
0.0421289
0.0229524
0.0223621
0.0415032
0.0519082
0.0512201
0.0408196
0.021728
0.0211566
0.0402121
0.0506799
0.050005
0.0395451
0.0205389
0.0199897
0.0389573
0.0494796
0.0488181
0.0383075
0.0193915
0.0188699
0.0377391
0.0483052
0.0476525
0.0371053
0.0182977
0.0178097
0.0365548
0.0471468
0.0464987
0.0359365
0.0172691
0.0168157
0.0354028
0.045997
0.0453518
0.0347996
0.016307
0.0158835
0.0342797
0.0448512
0.044206
0.0336881
0.0154007
0.0149979
0.0331759
0.0437016
0.0430508
0.0325889
0.0145314
0.0141386
0.0320766
0.0425354
0.0418721
0.0314867
0.0136774
0.0132813
0.0309657
0.0413397
0.040659
0.0303627
0.0128094
0.0123937
0.0298201
0.0401019
0.0393935
0.0291889
0.011893
0.0114406
0.0286095
0.0387998
0.038051
0.0279339
0.0108932
0.0103874
0.0273021
0.0374098
0.0366079
0.026566
0.009775
0.00920375
0.0258673
0.0359065
0.0350379
0.0250578
0.00851899
0.0078842
0.0242859
0.0342642
0.0333222
0.0233986
0.0071293
0.00643323
0.0225512
0.0324728
0.0314555
0.0215829
0.00560779
0.00485104
0.020656
0.0305283
0.0294328
0.019602
0.00395229
0.00313645
0.0185908
0.028424
0.0272465
0.0174465
0.00216257
0.00129585
0.0163478
0.0261513
0.0248895
0.0151146
0.000265948
0.000674476
0.0139258
0.0237046
0.0223613
0.0126078
0.0017729
0.00271917
0.0113395
0.0210904
0.0196618
0.00992821
0.00384913
0.00482674
0.00859388
0.0183131
0.0168065
0.00709633
0.00598146
0.00698702
0.00570798
0.01539
0.0138171
0.00413429
0.00815526
0.00917698
0.00271345
0.0123456
0.010718
0.00110124
0.0103458
0.0113479
0.000579542
0.00920117
0.00752576
0.00223861
0.0124523
0.0133775
0.00375106
0.00595224
0.00420505
0.00563469
0.0143692
0.0151539
0.00728841
0.00258533
0.000995621
0.00918868
0.0159296
0.0164952
0.0107158
0.00133727
0.00303322
0.0123027
0.0170034
0.0173577
0.0135573
0.00455333
0.0061561
0.014827
0.0176533
0.0178368
0.0158794
0.00751656
0.00891731
0.0169747
0.0179782
0.0180466
0.0179643
0.0101457
0.0114282
0.0190103
0.0180981
0.0180675
0.0199303
0.0125457
0.0137321
0.0208233
0.0179986
0.0178316
0.0215186
0.0147435
0.0157831
0.022056
0.0175773
0.0172628
0.0223913
0.0166079
0.0174018
0.0225912
0.0168663
0.0164763
0.0226735
0.0179826
0.0185496
0.0227093
0.0160386
0.0156579
0.0226983
0.0189299
0.0193215
0.0226725
0.0152424
0.0148751
0.022583
0.0195169
0.0196981
0.0224412
0.0144239
0.0140609
0.0222335
0.0197206
0.0196775
0.0219177
0.0135459
0.0131268
0.0214792
0.0194135
0.0191101
0.0209375
0.0125162
0.012006
0.0202574
0.0184976
0.017955
0.0195033
0.0112899
0.0106528
0.0186197
0.0171278
0.0164178
0.0177043
0.0098337
0.00908263
0.0166414
0.0153944
0.0145343
0.0155775
0.00816842
0.00729713
0.0143364
0.0133273
0.012343
0.0131487
0.00629863
0.00531403
0.0117548
0.0109828
0.00991187
0.0104949
0.0042797
0.0031714
0.00895505
0.00840633
0.00729248
0.00768289
0.00218323
0.000918463
0.00597883
0.00563384
0.00443353
0.00466088
8.78257e-05
0.00134856
0.00292935
0.00279072
0.00136926
0.0013967
0.00250314
0.00361768
0.00050887
0.000944186
0.0023499
0.00220729
0.00509169
0.00615154
0.00382025
0.00394079
0.00592191
0.0058967
0.00774102
0.00894437
0.00765436
0.00766418
0.00973186
0.0097858
0.010546
0.0118856
0.0116824
0.011603
0.0136757
0.0138043
0.0134565
0.0148585
0.01576
0.0155903
0.0176171
0.0178282
0.0163646
0.017761
0.0197698
0.0194952
0.0214405
0.021762
0.0191925
0.020574
0.0236737
0.0232543
0.0251583
0.025654
0.0220189
0.02355
0.0276891
0.0270451
0.0291281
0.0298984
0.0252748
0.0272368
0.0323087
0.0313476
0.0338235
0.0349541
0.0294661
0.0318838
0.0377902
0.0364373
0.0392271
0.0407768
0.0344665
0.0368451
0.0437044
0.0419638
0.0445541
0.0463984
0.0388998
0.0397542
0.0483035
0.0466252
0.04778
0.0490144
0.0393792
0.0375415
0.0480337
0.047483
0.0463604
0.0462851
0.0349164
0.0321564
0.0440268
0.044929
0.0434869
0.0421847
0.0298734
0.0286652
0.0408591
0.0424451
0.0413742
0.040101
0.0285985
0.0294407
0.0399477
0.0405694
0.0386699
0.0403935
0.0316629
0.0346168
0.0414812
0.0369471
0.0342646
0.0417356
0.0376696
0.0404485
0.0419373
0.0325971
0.0305761
0.0420882
0.0430764
0.0454566
0.0428924
0.0298537
0.0290657
0.0435589
0.0468837
0.047047
0.0431016
0.026762
0.0229647
0.0409378
0.0457855
0.0433513
0.0370837
0.0172376
0.00932075
0.0315526
0.0401763
0.0367712
0.0245313
0.00399922
0.0135558
0.0151305
0.0330045
0.0284132
0.00411679
0.02366
0.032841
0.00848179
0.0208892
0.00928316
0.0184241
0.0410247
0.0488296
0.0274483
0.00197207
0.00911154
0.0351051
0.0556989
0.0620759
0.0419086
0.0156183
0.0211854
0.0479213
0.0676052
0.0727882
0.0533222
0.0261837
0.0305366
0.058197
0.0773094
0.0816721
0.0626482
0.0344938
0.0380596
0.066721
0.0854963
0.0892797
0.0704993
0.0413569
0.0444069
0.0740103
0.0926108
0.0959862
0.0773238
0.0472773
0.0499807
0.0804467
0.0989696
0.102049
0.0834256
0.05255
0.0549999
0.0862597
0.104771
0.107628
0.0889883
0.057349
0.0596108
0.0916032
0.110153
0.11284
0.0941411
0.0617919
0.0639051
0.0965828
0.115207
0.117755
0.0989631
0.0659489
0.0679364
0.101261
0.119991
0.122421
0.103505
0.0698607
0.0717343
0.105677
0.124544
0.126871
0.107799
0.073547
0.0753116
0.109855
0.128895
0.131132
0.111865
0.0770153
0.0786717
0.113815
0.133067
0.135226
0.115721
0.0802658
0.0818136
0.117575
0.137084
0.139176
0.119389
0.0832989
0.0847425
0.12116
0.140967
0.143005
0.1229
0.0861276
0.0874788
0.124609
0.144744
0.14674
0.126297
0.0887756
0.0900414
0.127965
0.148436
0.150399
0.129619
0.0912575
0.0924405
0.131262
0.152058
0.153996
0.132896
0.0935799
0.0946944
0.134532
0.155629
0.157552
0.136171
0.0957817
0.096866
0.137829
0.159169
0.161087
0.139505
0.0979482
0.0990472
0.14122
0.162698
0.164617
0.142965
0.100173
0.101336
0.144765
0.166226
0.168144
0.146606
0.102555
0.103832
0.14852
0.169747
0.171649
0.150483
0.105188
0.106612
0.152531
0.173227
0.175084
0.154631
0.108126
0.10971
0.156817
0.176603
0.178365
0.159036
0.111387
0.113145
0.161317
0.179776
0.181395
0.163605
0.115002
0.116944
0.16593
0.182666
0.184113
0.168241
0.118959
0.121037
0.170556
0.185223
0.18647
0.172822
0.123147
0.125311
0.175049
0.187395
0.188422
0.177199
0.127475
0.129661
0.179287
0.189162
0.18997
0.181289
0.131868
0.134179
0.183242
0.190535
0.191136
0.18513
0.136564
0.139105
0.18698
0.191542
0.191953
0.188773
0.141771
0.144621
0.19053
0.192226
0.192455
0.192208
0.147582
0.150614
0.193781
0.192539
0.192542
0.195277
0.153733
0.157107
0.196772
0.192615
0.192763
0.198672
0.160555
0.163371
0.199317
0.193082
0.194855
0.200536
0.162497
0.156495
0.204646
0.200019
0.197802
0.22144
0.158411
0.169209
0.13586
0.13036
0.132514
0.131338
0.13168
0.131496
0.131691
0.13198
0.13231
0.132839
0.133346
0.134019
0.134612
0.135338
0.13595
0.136673
0.137271
0.137964
0.138533
0.139179
0.139707
0.140289
0.140764
0.14127
0.141681
0.142103
0.142478
0.142902
0.143312
0.143821
0.14445
0.145355
0.146495
0.149086
0.152739
0.161648
0.162687
0.162983
0.162415
0.16088
0.160716
0.162625
0.163729
0.165394
0.246992
0.319853
0.344786
0.190642
0.187485
0.309877
0.313408
0.301631
0.303393
0.207714
0.212621
0.302596
0.299151
0.298475
0.301624
0.209138
0.204221
0.298524
0.298437
0.298135
0.294935
0.199169
0.194492
0.289939
0.297349
0.296684
0.286253
0.189974
0.185879
0.281257
0.295498
0.294842
0.277499
0.18175
0.178018
0.273876
0.293493
0.29247
0.271133
0.175498
0.172375
0.266078
0.290742
0.28951
0.262268
0.16893
0.165886
0.258744
0.287404
0.28588
0.255917
0.164621
0.162205
0.251203
0.283547
0.281962
0.247764
0.159628
0.157257
0.244643
0.27936
0.277449
0.241983
0.156902
0.154955
0.237728
0.274627
0.272617
0.234739
0.1528
0.15079
0.231936
0.269582
0.267344
0.229512
0.150714
0.148984
0.22564
0.264157
0.261822
0.222995
0.146984
0.145104
0.220418
0.258513
0.256074
0.218208
0.144983
0.14328
0.214622
0.252703
0.250191
0.212171
0.141292
0.139366
0.20973
0.246766
0.244256
0.207668
0.13902
0.137269
0.204253
0.240833
0.238269
0.201883
0.135185
0.133158
0.199496
0.234833
0.232332
0.197529
0.132545
0.130692
0.194215
0.228954
0.22642
0.191854
0.128502
0.126347
0.189483
0.223043
0.220602
0.187579
0.125494
0.123549
0.184336
0.217323
0.214867
0.181981
0.121267
0.119016
0.179626
0.211594
0.209256
0.177788
0.118002
0.116014
0.17463
0.206114
0.20377
0.17233
0.1137
0.11142
0.170028
0.200638
0.198449
0.168276
0.110367
0.108404
0.165236
0.195473
0.19327
0.163051
0.106137
0.103913
0.160837
0.190314
0.188322
0.159178
0.102947
0.101077
0.156278
0.185535
0.183491
0.154255
0.0989278
0.0968332
0.152163
0.180735
0.178987
0.150614
0.0960471
0.0943104
0.147883
0.176399
0.174535
0.146067
0.0923236
0.0903954
0.144135
0.172003
0.17054
0.142752
0.0898429
0.088261
0.14023
0.168165
0.166487
0.138661
0.0864523
0.084698
0.136903
0.164176
0.162991
0.135724
0.0843989
0.0829781
0.133415
0.160833
0.159343
0.132105
0.0813601
0.0797887
0.130528
0.157256
0.156366
0.129557
0.079746
0.0784794
0.127468
0.154428
0.153148
0.126423
0.0770448
0.0756505
0.125042
0.151296
0.15072
0.12429
0.075867
0.0747534
0.122417
0.149007
0.148016
0.121651
0.0734941
0.0722702
0.120469
0.146378
0.146111
0.119962
0.0727609
0.0718079
0.118322
0.144619
0.143929
0.11787
0.0707377
0.0696986
0.116901
0.142507
0.142553
0.116664
0.0704878
0.0697055
0.115273
0.141292
0.140923
0.115164
0.0688454
0.0680086
0.114433
0.139737
0.140118
0.114499
0.0691402
0.068557
0.113397
0.139119
0.139119
0.11368
0.0680321
0.0675497
0.113216
0.138221
0.139016
0.113698
0.0690911
0.0687791
0.113023
0.138384
0.138925
0.113845
0.0688641
0.0690253
0.11388
0.138553
0.139711
0.115232
0.0702373
0.0708039
0.115457
0.139592
0.140867
0.116859
0.0732913
0.0734567
0.116968
0.141011
0.142754
0.118566
0.0747739
0.0744062
0.11861
0.142378
0.143527
0.119437
0.0745006
0.0740463
0.119173
0.143208
0.144313
0.12006
0.0740842
0.0735097
0.119696
0.14368
0.144734
0.120202
0.0741938
0.0744142
0.120075
0.144719
0.145628
0.121104
0.0747717
0.0755361
0.121177
0.145675
0.146842
0.122655
0.0771172
0.0777322
0.123255
0.147291
0.148573
0.124316
0.0807029
0.0805506
0.125053
0.14896
0.150186
0.126458
0.0830386
0.084216
0.127907
0.151319
0.153243
0.13049
0.0884196
0.0967016
0.137178
0.158046
0.145429
0.127152
0.0947537
0.0964426
0.131799
0.148076
0.150816
0.135593
0.0996275
0.100943
0.138253
0.153121
0.154892
0.139635
0.101911
0.102211
0.140847
0.15612
0.157151
0.141716
0.102649
0.10338
0.142651
0.158347
0.159806
0.144185
0.10475
0.110551
0.148466
0.163497
0.153031
0.1384
0.108628
0.109736
0.142388
0.155153
0.157731
0.14545
0.110567
0.110284
0.147258
0.159718
0.161928
0.149225
0.111182
0.111796
0.150709
0.163693
0.165772
0.152685
0.113831
0.11972
0.158282
0.170468
0.162152
0.149013
0.118217
0.12188
0.154092
0.165454
0.169284
0.158892
0.124618
0.128077
0.162877
0.172895
0.176301
0.166261
0.130936
0.133863
0.16934
0.179438
0.184816
0.175392
0.139618
0.139256
0.167357
0.178595
0.182139
0.172764
0.142818
0.148918
0.17867
0.186858
0.191882
0.184175
0.153051
0.156889
0.189117
0.196809
0.20521
0.19859
0.166333
0.167767
0.193534
0.202691
0.208915
0.202432
0.176424
0.188083
0.213508
0.219149
0.227497
0.228307
0.202305
0.235748
0.240435
0.237645
0.242867
0.249382
0.247726
0.251698
0.253254
0.247773
0.251142
0.256738
0.25713
0.265667
0.261151
0.25423
0.256213
0.265458
0.27314
0.277776
0.26653
0.256733
0.25304
0.264289
0.279027
0.277626
0.261924
0.250758
0.246655
0.25678
0.274108
0.26733
0.248255
0.237694
0.231625
0.241749
0.258847
0.24915
0.231917
0.22349
0.211302
0.220212
0.23896
0.227385
0.211441
0.203003
0.197487
0.20249
0.21188
0.192163
0.189038
0.19029
0.173654
0.168687
0.170007
0.147989
0.14324
0.148189
0.124578
0.122565
0.126744
0.106695
0.0977637
0.10537
0.0314103
0.0360673
0.0444043
0.00378237
0.0121741
0.0298267
0.0203212
0.0137407
0.00277201
0.0032554
0.015491
0.024074
0.0226
0.0157535
0.00343813
0.00361574
0.016702
0.0259192
0.0269931
0.0173712
0.00372253
0.00343379
0.0184964
0.0281186
0.0317408
0.0204208
0.00315411
0.0037147
0.0216727
0.0332377
0.034733
0.0238655
0.00617953
0.00892192
0.0268045
0.0387332
0.0406191
0.0289644
0.0120422
0.0165374
0.031719
0.042212
0.0461556
0.0351205
0.0206641
0.0230969
0.0339372
0.0472464
0.0497244
0.035536
0.0114872
0.0172459
0.0426476
0.0522006
0.0518343
0.0431242
0.0172095
0.0256807
0.0461331
0.0535411
0.0619744
0.0549968
0.0309643
0.0302601
0.0548026
0.0626824
0.0645944
0.0573525
0.0369929
0.0424136
0.0662189
0.0727807
0.0737437
0.0663048
0.0425204
0.0488422
0.0685235
0.0755385
0.0834761
0.0773704
0.0542968
0.0546057
0.0775375
0.0845403
0.0863376
0.0794959
0.0600232
0.0651748
0.0881818
0.0939201
0.0949213
0.0881869
0.0655744
0.0705369
0.0899961
0.0966771
0.104193
0.0987151
0.075908
0.0762923
0.0988841
0.105361
0.106976
0.100359
0.0808548
0.0857985
0.108705
0.114107
0.115237
0.108768
0.0863148
0.0910287
0.110333
0.116939
0.123991
0.118868
0.095958
0.0954028
0.118484
0.124837
0.126571
0.119797
0.0989896
0.104267
0.129078
0.133989
0.135209
0.129641
0.10566
0.107448
0.13036
0.136379
0.137153
0.130651
0.112218
0.11858
0.138565
0.14343
0.14436
0.138371
0.120302
0.125288
0.146325
0.150653
0.151792
0.146381
0.125525
0.128969
0.14722
0.15311
0.158909
0.154773
0.133347
0.132303
0.15379
0.159288
0.160568
0.154484
0.135563
0.140646
0.162556
0.166715
0.167375
0.162043
0.140592
0.143674
0.162376
0.168356
0.173786
0.16978
0.147931
0.146385
0.168207
0.173688
0.174624
0.168313
0.148825
0.153842
0.176375
0.180529
0.180921
0.175618
0.15359
0.156353
0.175661
0.18168
0.186873
0.183024
0.160806
0.15915
0.181079
0.1864
0.18667
0.180264
0.160711
0.16549
0.18783
0.191847
0.191631
0.186615
0.16527
0.168081
0.185767
0.191601
0.196077
0.192279
0.173369
0.172721
0.190099
0.19544
0.199179
0.195815
0.175773
0.173346
0.193626
0.198452
0.19874
0.193057
0.174905
0.179071
0.199842
0.203197
0.202277
0.197688
0.177285
0.178331
0.19589
0.201583
0.205205
0.201514
0.182913
0.181
0.198389
0.203867
0.206746
0.203327
0.18321
0.180313
0.20094
0.205693
0.205464
0.199942
0.181938
0.185657
0.206022
0.20914
0.207248
0.202903
0.182809
0.182617
0.200088
0.205811
0.208656
0.20516
0.18669
0.184212
0.201488
0.206742
0.208953
0.205853
0.186132
0.183032
0.202902
0.207248
0.206651
0.201429
0.183765
0.18707
0.206883
0.209615
0.207079
0.203083
0.18339
0.182878
0.199761
0.205142
0.20715
0.203907
0.186226
0.182926
0.199429
0.204568
0.206138
0.20326
0.184523
0.180737
0.199648
0.2037
0.202227
0.197132
0.180768
0.184357
0.20133
0.204224
0.202147
0.197595
0.181799
0.183664
0.201314
0.203489
0.200067
0.196572
0.178569
0.176378
0.192378
0.197459
0.198359
0.19535
0.178717
0.175486
0.191269
0.195915
0.197327
0.195169
0.177691
0.173041
0.190856
0.194247
0.192165
0.187345
0.171428
0.174501
0.190834
0.193403
0.19102
0.186817
0.17144
0.172743
0.189778
0.191571
0.187364
0.184095
0.166369
0.163017
0.179257
0.184335
0.184896
0.181977
0.165318
0.162932
0.178216
0.182474
0.18332
0.181603
0.164802
0.158751
0.176276
0.179441
0.17696
0.172344
0.156578
0.159077
0.175146
0.177538
0.174624
0.170451
0.15537
0.156565
0.173042
0.174678
0.169788
0.166635
0.149113
0.145824
0.161751
0.166662
0.167134
0.164523
0.148704
0.145254
0.159481
0.163791
0.163912
0.161804
0.147271
0.143524
0.15766
0.161329
0.161227
0.159963
0.144541
0.137684
0.154283
0.157097
0.154323
0.149906
0.134785
0.136585
0.151937
0.154218
0.150693
0.146603
0.131744
0.132367
0.148574
0.15029
0.146154
0.143001
0.126028
0.124283
0.139157
0.143541
0.143748
0.141672
0.126914
0.122609
0.136308
0.1403
0.139909
0.13807
0.124399
0.120366
0.13363
0.137054
0.136469
0.135435
0.121082
0.114361
0.129796
0.132297
0.129454
0.125429
0.111298
0.112949
0.126924
0.128848
0.125441
0.1215
0.107982
0.109767
0.123161
0.124973
0.122057
0.118725
0.105626
0.106261
0.120268
0.121326
0.117169
0.114706
0.0994113
0.0968076
0.110602
0.11442
0.113988
0.112293
0.0989241
0.0944563
0.106994
0.110543
0.109594
0.108087
0.0957315
0.0912335
0.103527
0.106614
0.105578
0.104631
0.0915467
0.0851495
0.0994475
0.101765
0.0995014
0.0958887
0.0829388
0.0850282
0.0975926
0.099095
0.0962006
0.0928908
0.0808848
0.0821741
0.0938396
0.0952606
0.0925162
0.089581
0.0777498
0.0784723
0.0908345
0.0915714
0.0877699
0.0856763
0.0716077
0.069396
0.0818536
0.085297
0.0845798
0.0831717
0.0713249
0.0671224
0.0784518
0.0815051
0.0803595
0.0791972
0.0684504
0.0643489
0.0750291
0.0777235
0.0765866
0.0756717
0.0656376
0.0619679
0.0721043
0.0743953
0.0732751
0.0729402
0.0626122
0.0565699
0.0685184
0.070039
0.0680179
0.0652307
0.0544414
0.0560945
0.0660861
0.066983
0.0645013
0.0621578
0.0522267
0.0535463
0.0625201
0.063113
0.0609373
0.0587773
0.04964
0.050334
0.0586904
0.0592721
0.0572342
0.0553163
0.0461955
0.0467612
0.0556333
0.0557785
0.0528778
0.0517143
0.0408802
0.0387291
0.0487355
0.0510833
0.0498668
0.049186
0.0403386
0.0370341
0.0457753
0.047732
0.0462614
0.0458913
0.0383537
0.0349123
0.0427613
0.0443826
0.0426835
0.0424611
0.0357917
0.0326848
0.0397613
0.0410671
0.0394216
0.0396097
0.0331912
0.0277451
0.0364656
0.0370209
0.0356107
0.0339563
0.0258257
0.0271401
0.0338786
0.03414
0.0326214
0.0313648
0.0244867
0.0255509
0.0309513
0.0308903
0.0296373
0.028697
0.0226316
0.0232915
0.0278802
0.0276911
0.0264799
0.0258836
0.0203759
0.0207964
0.025108
0.0244828
0.0228258
0.0228268
0.0162624
0.0146233
0.0209268
0.0218443
0.0200076
0.020191
0.0155742
0.0130846
0.0182356
0.0187866
0.016541
0.0169385
0.0136222
0.0108928
0.0151569
0.0153517
0.0128812
0.0134947
0.011129
0.00883768
0.0121334
0.0119348
0.00943593
0.0102134
0.00878045
0.00682112
0.00903746
0.00847291
0.00566556
0.00675342
0.00635948
0.00407946
0.00574577
0.00474585
0.00373725
0.00421096
0.00195483
0.00193783
0.00227462
0.00157496
0.00144395
0.00071021
0.000618419
0.000747767
0.00160079
0.00291296
0.00434386
0.0030546
0.00258115
0.00323154
0.00498522
0.00659073
0.00841745
0.00635686
0.00401721
0.00734615
0.00987988
0.0116646
0.0112075
0.00853727
0.00489822
0.00877525
0.0121965
0.0138059
0.0152529
0.012798
0.00840178
0.0120108
0.016127
0.0178816
0.0193084
0.0165874
0.0114279
0.0154418
0.0203367
0.0222366
0.0234324
0.0204777
0.0144744
0.0187551
0.0243451
0.0265439
0.0274451
0.0242269
0.0176065
0.0210721
0.027759
0.030577
0.0330808
0.0297067
0.0226966
0.0188832
0.0276691
0.0319533
0.0354993
0.0327493
0.0249936
0.0231577
0.0321055
0.0360491
0.0399243
0.0371108
0.0294255
0.0276792
0.0364476
0.0403612
0.0444218
0.0414822
0.0335057
0.0319234
0.0408868
0.0447763
0.0487307
0.0457917
0.0375741
0.0357489
0.0449324
0.0488551
0.0528127
0.0497276
0.041205
0.0395818
0.04888
0.0529182
0.0568028
0.0535025
0.0443405
0.0450159
0.0545537
0.0586489
0.0569442
0.0519496
0.0407523
0.0464134
0.0573798
0.0608911
0.0605273
0.055834
0.0439476
0.0502876
0.0612478
0.0647855
0.0641713
0.0594868
0.0478739
0.0537456
0.0649038
0.068573
0.0679803
0.0632887
0.0516327
0.0573706
0.0685498
0.0721877
0.0716523
0.0669601
0.0553804
0.0610834
0.0722876
0.0760584
0.0774412
0.0727407
0.0613355
0.0569647
0.0697799
0.075329
0.079674
0.075746
0.0628276
0.059989
0.0735729
0.0787718
0.0832969
0.0793586
0.0663152
0.0638483
0.0770736
0.082214
0.0865738
0.082705
0.0696712
0.0672609
0.0804859
0.0854713
0.0897955
0.085894
0.0729548
0.0706112
0.0837023
0.0887451
0.0928443
0.0889293
0.0759755
0.0758879
0.0889041
0.0938494
0.0912732
0.0853714
0.0709339
0.0763883
0.0911556
0.0954922
0.0941168
0.0883939
0.0732432
0.0794685
0.0945913
0.0987363
0.097184
0.0916902
0.0764876
0.0826177
0.0975714
0.101794
0.10023
0.0946312
0.0798798
0.0860795
0.100409
0.104642
0.103244
0.0978113
0.0834794
0.0893524
0.103485
0.107672
0.108512
0.103217
0.0891592
0.0841577
0.099421
0.105701
0.110237
0.105607
0.0898462
0.0866202
0.1025
0.108651
0.113772
0.10916
0.0931344
0.0899456
0.105985
0.111975
0.116736
0.112247
0.0963508
0.0935747
0.109131
0.114983
0.119702
0.115243
0.099751
0.0970547
0.112431
0.118145
0.122573
0.118136
0.103083
0.102533
0.117568
0.123193
0.120165
0.113539
0.0974149
0.10293
0.120161
0.124906
0.123227
0.116913
0.0995497
0.106492
0.123769
0.128306
0.126292
0.120099
0.10313
0.109358
0.126604
0.131233
0.129295
0.123237
0.106271
0.112766
0.129589
0.134086
0.132319
0.126443
0.109799
0.116763
0.132632
0.137142
0.137735
0.132003
0.116224
0.111183
0.12769
0.134609
0.139584
0.134695
0.117111
0.113669
0.131315
0.137773
0.143123
0.138317
0.1206
0.11744
0.134778
0.14118
0.14618
0.141545
0.124309
0.121446
0.138223
0.14435
0.149252
0.144719
0.128201
0.125125
0.141295
0.147322
0.15169
0.147114
0.131272
0.130578
0.146289
0.15212
0.148911
0.141935
0.125049
0.13054
0.148572
0.15358
0.151575
0.144929
0.12681
0.133724
0.152066
0.156677
0.154569
0.148347
0.130203
0.136632
0.154756
0.159441
0.157437
0.151145
0.133634
0.140216
0.157649
0.162255
0.160607
0.154457
0.137539
0.144585
0.160923
0.165526
0.166174
0.160268
0.144009
0.139195
0.156273
0.163185
0.167988
0.163101
0.144942
0.141003
0.159195
0.165739
0.171
0.166295
0.147736
0.144517
0.162631
0.168938
0.173864
0.169215
0.151176
0.148196
0.165824
0.171992
0.176803
0.172198
0.155332
0.154498
0.171212
0.177206
0.173955
0.166814
0.14939
0.155441
0.173922
0.178911
0.17679
0.170025
0.151463
0.158591
0.177445
0.1822
0.180332
0.173892
0.155502
0.162576
0.180798
0.185391
0.183817
0.177642
0.159977
0.167669
0.184402
0.188897
0.189075
0.183092
0.166338
0.160694
0.178204
0.185518
0.190458
0.185368
0.166512
0.162565
0.181442
0.18828
0.193858
0.188984
0.170188
0.166681
0.184987
0.191642
0.196653
0.191827
0.173663
0.170871
0.18849
0.1948
0.199713
0.194985
0.177777
0.176906
0.194028
0.200161
0.196954
0.189568
0.171831
0.178128
0.197091
0.202131
0.200268
0.193417
0.174416
0.182355
0.201378
0.205949
0.204111
0.197828
0.179323
0.185802
0.204216
0.20885
0.206613
0.200164
0.182139
0.189176
0.206568
0.211353
0.211737
0.205536
0.188197
0.182779
0.200937
0.208341
0.213316
0.208111
0.188881
0.185236
0.204391
0.211298
0.217075
0.212084
0.193111
0.189847
0.208274
0.215007
0.220311
0.215507
0.197384
0.19454
0.212099
0.218556
0.223718
0.21896
0.202145
0.201974
0.218592
0.224723
0.222149
0.21507
0.197713
0.204595
0.222904
0.227521
0.225488
0.219121
0.200886
0.207083
0.225725
0.230498
0.228289
0.221741
0.203452
0.210891
0.228303
0.233053
0.233433
0.227177
0.209742
0.204828
0.222789
0.230269
0.235686
0.230527
0.211383
0.20743
0.226621
0.233555
0.239188
0.23426
0.215257
0.212356
0.230848
0.237531
0.243027
0.238203
0.220688
0.219977
0.237473
0.243839
0.241075
0.233411
0.215318
0.223287
0.24208
0.246891
0.245403
0.238955
0.220349
0.227262
0.246389
0.250964
0.248482
0.241963
0.222882
0.230067
0.248151
0.252887
0.253159
0.246879
0.228857
0.223587
0.242341
0.249908
0.255395
0.250184
0.230431
0.226673
0.246435
0.253373
0.259093
0.254234
0.234744
0.231799
0.250767
0.257476
0.262988
0.258186
0.240405
0.240097
0.257769
0.264111
0.261405
0.253815
0.235656
0.243285
0.261974
0.267022
0.266247
0.259702
0.241107
0.250519
0.268175
0.27244
0.272486
0.266338
0.24837
0.241687
0.260766
0.268488
0.273525
0.268297
0.247971
0.243935
0.264309
0.271337
0.277142
0.272121
0.251784
0.248788
0.268658
0.275435
0.280829
0.275992
0.257208
0.256688
0.275368
0.281895
0.278994
0.271223
0.251759
0.260063
0.279557
0.284789
0.283676
0.276733
0.257159
0.267362
0.285517
0.290025
0.292954
0.287205
0.269206
0.265104
0.283341
0.290255
0.295139
0.289893
0.269689
0.264455
0.284878
0.292181
0.297385
0.292135
0.272816
0.271911
0.291262
0.298094
0.294769
0.286611
0.266478
0.273871
0.294952
0.300537
0.298857
0.291483
0.27035
0.280744
0.300304
0.30526
0.307035
0.300308
0.280535
0.275867
0.296039
0.304347
0.311091
0.305667
0.285396
0.283455
0.303609
0.310643
0.31783
0.313729
0.295517
0.294599
0.312956
0.318827
0.314681
0.306948
0.286935
0.293159
0.314145
0.319696
0.317455
0.309956
0.288808
0.298462
0.318081
0.323328
0.324665
0.317722
0.297954
0.293549
0.313685
0.321829
0.32838
0.322838
0.302316
0.299618
0.31998
0.327383
0.334487
0.329702
0.311016
0.311752
0.330958
0.337407
0.336855
0.329471
0.310186
0.321503
0.339776
0.344053
0.344196
0.337851
0.318452
0.310914
0.331654
0.3399
0.345337
0.339503
0.318048
0.31371
0.335356
0.343066
0.349585
0.344302
0.324567
0.324124
0.344155
0.351185
0.348855
0.340478
0.31998
0.330649
0.349999
0.355417
0.358463
0.351498
0.331228
0.328608
0.349569
0.357787
0.366083
0.362069
0.344249
0.345726
0.363905
0.369269
0.365191
0.357571
0.337332
0.34245
0.364044
0.369839
0.366992
0.359182
0.337356
0.34761
0.36779
0.373168
0.374808
0.367692
0.347087
0.34339
0.36437
0.372762
0.379627
0.374155
0.35425
0.354546
0.375596
0.382835
0.382854
0.374461
0.352815
0.371577
0.388513
0.392175
0.396047
0.391113
0.37367
0.365123
0.384959
0.392299
0.396777
0.390966
0.370558
0.367015
0.388997
0.396444
0.393549
0.384523
0.361794
0.373726
0.395042
0.400923
0.404024
0.396366
0.373931
0.371511
0.394331
0.403206
0.412147
0.407241
0.387195
0.394353
0.414592
0.419788
0.418851
0.412328
0.392636
0.397425
0.418319
0.423981
0.422642
0.415185
0.391549
0.387921
0.412768
0.421933
0.418475
0.407704
0.381588
0.396872
0.420497
0.427173
0.431648
0.423392
0.398063
0.39894
0.423731
0.433032
0.4447
0.44124
0.423461
0.424017
0.443455
0.448244
0.446162
0.438351
0.414844
0.40273
0.429512
0.440034
0.446256
0.439271
0.414612
0.413551
0.441272
0.449321
0.454211
0.444502
0.415496
0.41838
0.446832
0.456871
0.469462
0.465077
0.441741
0.434458
0.461466
0.468764
0.465143
0.455035
0.424698
0.413602
0.445873
0.458785
0.466656
0.458863
0.431221
0.433414
0.463454
0.47155
0.479627
0.472447
0.442393
0.441217
0.473256
0.482761
0.473506
0.459814
0.423111
0.436429
0.468124
0.477637
0.477247
0.468395
0.433252
0.439255
0.47418
0.481962
0.48437
0.474492
0.437482
0.420331
0.467343
0.480849
0.476095
0.460008
0.406394
0.401741
0.458071
0.473935
0.469503
0.450224
0.390316
0.368204
0.437315
0.46027
0.4488
0.423099
0.348862
0.32954
0.407629
0.436596
0.423216
0.390124
0.30654
0.286955
0.374233
0.410553
0.399682
0.360716
0.27149
0.258456
0.34878
0.390057
0.380973
0.337769
0.246923
0.23639
0.327399
0.372319
0.364108
0.317719
0.226662
0.217676
0.30866
0.356318
0.348795
0.300224
0.209402
0.201758
0.292291
0.341636
0.334881
0.284943
0.194776
0.18841
0.278075
0.328445
0.322235
0.271712
0.182635
0.177371
0.265745
0.316342
0.31078
0.260216
0.172629
0.16837
0.255044
0.305494
0.300372
0.250238
0.164559
0.161125
0.245714
0.295517
0.290929
0.241509
0.15806
0.155347
0.237586
0.286583
0.282354
0.233927
0.152943
0.150799
0.230489
0.278357
0.274585
0.227291
0.148906
0.147263
0.224335
0.271042
0.26759
0.221574
0.145829
0.144554
0.218993
0.264359
0.261323
0.216589
0.143437
0.142481