/*--------------------------------*- C++ -*----------------------------------*\
| =========                 |                                                 |
| \\      /  F ield         | OpenFOAM: The Open Source CFD Toolbox           |
|  \\    /   O peration     | Version:  v2006                                 |
|   \\  /    A nd           | Website:  www.openfoam.com                      |
|    \\/     M anipulation  |                                                 |
\*---------------------------------------------------------------------------*/
FoamFile
{
    version     2.0;
    format      ascii;
    class       volScalarField;
    location    "0.004";
    object      nut;
}
// * * * * * * * * * * * * * * * * * * * * * * * * * * * * * * * * * * * * * //

dimensions      [0 2 -1 0 0 0 0];


internalField   nonuniform List<scalar> 
10108
(
0.142592
0.139036
0.188482
0.195182
0.240699
0.27574
0.256226
0.263935
0.251487
0.223077
0.188905
0.160978
0.139072
0.122163
0.108672
0.0976214
0.0883334
0.0804155
0.0736257
0.0677828
0.0627259
0.0583154
0.0544452
0.0510391
0.0480397
0.0453972
0.0430656
0.0410013
0.0391642
0.0375174
0.0360295
0.0346749
0.0334344
0.0322946
0.0312467
0.0302846
0.0294057
0.028609
0.0278948
0.0272631
0.0267134
0.0262449
0.0258566
0.0255475
0.0253168
0.0251648
0.0250933
0.0251062
0.0252104
0.0254162
0.025739
0.0262002
0.0268265
0.0276638
0.0287568
0.03018
0.0320083
0.0344524
0.0376109
0.0421823
0.0486881
0.0623045
0.0967034
0.0979023
0.0930202
0.163622
0.182383
0.137827
0.0599701
0.00999295
0.00176877
6.35189e-05
5.8961e-05
0.000880622
0.00390951
0.00249691
0.000661113
5.61071e-05
5.27284e-05
0.000588424
0.00203846
0.00177932
0.000548621
5.14789e-05
4.9307e-05
0.000510406
0.00161589
0.00149539
0.000493927
4.81299e-05
4.69946e-05
0.000477196
0.00142853
0.00137167
0.000470564
4.60184e-05
4.53748e-05
0.000467763
0.00134146
0.00130783
0.000459733
4.44802e-05
4.38093e-05
0.000457955
0.00129597
0.00126094
0.000446592
4.27198e-05
4.18757e-05
0.000440623
0.00124032
0.00119017
0.000423544
4.07148e-05
3.9903e-05
0.000414818
0.00116237
0.0011073
0.00039686
3.888e-05
3.82106e-05
0.00038811
0.00107571
0.00102342
0.000371671
3.73499e-05
3.67951e-05
0.000364259
0.000994554
0.000948385
0.000349911
3.60563e-05
3.55909e-05
0.000343753
0.000924086
0.000883835
0.000331345
3.49743e-05
3.46244e-05
0.000326358
0.000863801
0.000828107
0.000316123
3.41591e-05
3.39372e-05
0.000312581
0.000812508
0.000782219
0.000304615
3.35895e-05
3.34286e-05
0.000302232
0.000772096
0.000747613
0.000295502
3.30945e-05
3.28887e-05
0.000293091
0.000739471
0.000716898
0.000285894
3.24505e-05
3.21163e-05
0.000282402
0.000706458
0.000680757
0.000273436
3.15501e-05
3.10889e-05
0.000268905
0.000668506
0.000640214
0.000259021
3.04149e-05
2.98392e-05
0.000253095
0.000624636
0.000593211
0.000242317
2.91097e-05
2.8526e-05
0.000235627
0.000574204
0.000542183
0.000225283
2.78748e-05
2.74118e-05
0.000219623
0.000522577
0.000496659
0.000211486
2.6913e-05
2.65862e-05
0.000208002
0.000482674
0.000465437
0.000202053
2.62002e-05
2.59547e-05
0.000200048
0.000457507
0.00044573
0.000195501
2.56524e-05
2.54946e-05
0.000194474
0.000442607
0.000435606
0.000191105
2.52776e-05
2.52045e-05
0.000191142
0.000436707
0.000433965
0.000189
2.50374e-05
2.49927e-05
0.00018917
0.000441874
0.000438188
0.000186328
2.47599e-05
2.46972e-05
0.000184768
0.000440096
0.000433149
0.000179323
2.44526e-05
2.44698e-05
0.000175514
0.000429043
0.000415733
0.000167168
2.42857e-05
2.44191e-05
0.000160703
0.000405377
0.000382965
0.000148578
2.43678e-05
2.2246e-05
0.000136618
0.000361483
0.000329507
0.000121984
1.82223e-05
1.37513e-05
0.000108896
0.000301226
0.000264636
9.30574e-05
9.60715e-06
8.48874e-06
7.5951e-05
0.000230193
0.000185817
6.52436e-05
8.56401e-06
9.29764e-06
6.19999e-05
0.000152575
0.000134849
5.97773e-05
9.83105e-06
1.00121e-05
5.50219e-05
0.000127005
0.00011608
4.62085e-05
1.00229e-05
1.00918e-05
3.79049e-05
9.60072e-05
7.56768e-05
3.20046e-05
1.03406e-05
1.02667e-05
2.89915e-05
6.23279e-05
5.51313e-05
2.64153e-05
1.01748e-05
1.00444e-05
2.44115e-05
5.19707e-05
4.99609e-05
2.24064e-05
9.47172e-06
8.66989e-06
2.13373e-05
4.76705e-05
4.63596e-05
2.00083e-05
7.69162e-06
6.58084e-06
1.78175e-05
4.42997e-05
4.33392e-05
1.64154e-05
5.36383e-06
4.17007e-06
1.39649e-05
4.03009e-05
3.88332e-05
1.3628e-05
2.96585e-06
1.99748e-06
1.15929e-05
3.49103e-05
3.45625e-05
1.16466e-05
1.31298e-06
1.11711e-06
1.09709e-05
3.07865e-05
3.23271e-05
1.22341e-05
1.16346e-06
1.27441e-06
1.17499e-05
3.07886e-05
3.44293e-05
1.19432e-05
1.43691e-06
1.87032e-06
1.21382e-05
3.62398e-05
4.18201e-05
1.33547e-05
2.48049e-06
3.2549e-06
1.4259e-05
4.86381e-05
5.83874e-05
1.75566e-05
3.85815e-06
4.69131e-06
2.10672e-05
7.16498e-05
8.49967e-05
2.77709e-05
5.2678e-06
5.86507e-06
4.44418e-05
0.000120053
0.0001975
9.4484e-05
7.35493e-06
1.02318e-05
0.000145668
0.000205414
0.000162247
0.000139025
1.10597e-05
1.07847e-05
0.000112929
0.000129959
9.41495e-05
7.32279e-05
1.07616e-05
1.0244e-05
5.84457e-05
8.07035e-05
7.20918e-05
3.87844e-05
1.00608e-05
1.03094e-05
3.05862e-05
8.01595e-05
9.77047e-05
4.37851e-05
1.07964e-05
1.47597e-05
6.2499e-05
0.000116056
0.000128871
8.12329e-05
1.74147e-05
2.11468e-05
9.21001e-05
0.000139018
0.00014331
0.00010005
2.57429e-05
2.98604e-05
0.000104461
0.000142171
0.000138234
0.000107124
2.82499e-05
2.66272e-05
0.000108528
0.000134939
0.000128549
0.000108864
2.55679e-05
2.48092e-05
0.00010871
0.000123131
0.000116518
0.000107647
2.41956e-05
2.36643e-05
0.000106362
0.000111241
0.000104438
0.000104548
2.32009e-05
2.27515e-05
0.000102
0.000100373
9.40505e-05
9.93678e-05
2.23343e-05
2.19238e-05
9.61474e-05
9.12235e-05
8.58439e-05
9.31726e-05
2.15428e-05
2.11685e-05
8.96802e-05
8.36441e-05
7.9329e-05
8.63167e-05
2.07953e-05
2.04196e-05
8.23948e-05
7.77193e-05
7.44177e-05
7.88283e-05
2.00661e-05
1.97307e-05
7.54029e-05
7.32263e-05
6.93175e-05
7.14898e-05
1.93857e-05
1.90646e-05
6.80597e-05
6.82645e-05
6.37168e-05
6.35359e-05
1.86903e-05
1.83548e-05
6.05989e-05
6.29355e-05
5.89817e-05
5.55571e-05
1.79294e-05
1.75261e-05
5.29781e-05
5.84162e-05
5.50667e-05
4.77544e-05
1.69572e-05
1.63896e-05
4.53119e-05
5.46498e-05
5.17363e-05
4.01305e-05
1.5603e-05
1.47594e-05
3.77306e-05
5.12369e-05
4.82956e-05
3.26216e-05
1.36167e-05
1.24833e-05
3.01624e-05
4.75281e-05
4.46312e-05
2.4993e-05
1.13233e-05
1.04382e-05
2.24548e-05
4.3595e-05
4.01574e-05
1.70684e-05
9.1379e-06
7.48225e-06
1.47841e-05
3.89336e-05
3.57052e-05
1.06997e-05
5.52281e-06
8.71113e-06
8.97191e-06
3.53337e-05
0.000158806
0.000500219
0.000499939
0.000499763
0.000499729
0.000499754
0.000499761
0.000499927
0.000499927
0.000499989
0.000499682
0.000500036
0.000170152
9.10238e-05
8.18292e-05
0.000107028
0.00021301
0.000500154
0.000499991
0.000500308
0.000499992
0.000500194
4.36297e-05
1.63811e-05
2.16695e-05
3.74648e-06
2.27646e-06
2.26963e-06
8.87658e-06
1.3912e-05
1.51529e-05
5.46552e-06
3.75464e-06
7.2028e-06
7.5905e-06
1.56144e-05
1.58866e-05
7.92469e-06
9.8951e-06
1.163e-05
1.36939e-05
1.51024e-05
1.49343e-05
1.33833e-05
1.26167e-05
1.31382e-05
1.85413e-05
1.47668e-05
1.45954e-05
1.83582e-05
1.33091e-05
1.34314e-05
2.29993e-05
1.51056e-05
1.47473e-05
2.2941e-05
1.33383e-05
1.33706e-05
2.70439e-05
1.62952e-05
1.60519e-05
2.72237e-05
1.32726e-05
1.32301e-05
3.13063e-05
1.79137e-05
1.77079e-05
3.17128e-05
1.3106e-05
1.30602e-05
3.58846e-05
2.01318e-05
1.99994e-05
3.65132e-05
1.29655e-05
1.29301e-05
4.03467e-05
2.29305e-05
2.29051e-05
4.22061e-05
1.28793e-05
1.28626e-05
4.53035e-05
2.68162e-05
2.69255e-05
4.77558e-05
1.28539e-05
1.28533e-05
5.015e-05
3.16592e-05
3.18864e-05
5.25889e-05
1.28757e-05
1.28914e-05
5.47112e-05
3.696e-05
3.72841e-05
5.7001e-05
1.29398e-05
1.29738e-05
5.91021e-05
4.24005e-05
4.28161e-05
6.12187e-05
1.30361e-05
1.30883e-05
6.32463e-05
4.78925e-05
4.83717e-05
6.50739e-05
1.31527e-05
1.32076e-05
6.69524e-05
5.31622e-05
5.37578e-05
6.83903e-05
1.32669e-05
1.33136e-05
7.00208e-05
5.82264e-05
5.89112e-05
7.10453e-05
1.33658e-05
1.34042e-05
7.24251e-05
6.30114e-05
6.37857e-05
7.31231e-05
1.34488e-05
1.3479e-05
7.42798e-05
6.75314e-05
6.84483e-05
7.4728e-05
1.3515e-05
1.35413e-05
7.57195e-05
7.179e-05
7.27513e-05
7.59794e-05
1.35678e-05
1.35942e-05
7.68694e-05
7.56913e-05
7.66732e-05
7.70466e-05
1.36127e-05
1.36409e-05
7.78815e-05
7.91893e-05
8.01622e-05
7.79469e-05
1.36611e-05
1.36766e-05
7.87767e-05
8.21424e-05
8.30836e-05
7.88247e-05
1.36973e-05
1.37037e-05
7.96559e-05
8.43753e-05
8.46288e-05
8.01828e-05
1.37193e-05
1.3747e-05
8.14685e-05
8.61958e-05
8.48085e-05
8.173e-05
1.38427e-05
1.39423e-05
8.2376e-05
8.66007e-05
8.50353e-05
8.2024e-05
1.4138e-05
1.43995e-05
8.27219e-05
8.52966e-05
8.41794e-05
8.22126e-05
1.45201e-05
1.46831e-05
8.39802e-05
8.40137e-05
8.20806e-05
8.41143e-05
1.48638e-05
1.50034e-05
8.51336e-05
8.17714e-05
7.90838e-05
8.577e-05
1.51338e-05
1.53114e-05
8.74993e-05
7.85207e-05
7.64472e-05
8.92986e-05
1.55657e-05
1.6154e-05
9.11359e-05
7.3276e-05
7.24435e-05
9.37044e-05
1.74415e-05
1.80867e-05
7.42997e-05
3.83645e-05
6.25229e-05
6.09591e-05
1.46734e-05
1.18241e-05
6.18279e-05
6.73149e-05
6.5315e-05
6.26475e-05
1.43897e-05
1.5457e-05
6.1847e-05
6.18065e-05
6.06298e-05
6.11995e-05
1.69727e-05
1.77983e-05
5.91273e-05
5.83628e-05
5.75795e-05
5.81181e-05
1.95853e-05
1.90245e-05
3.81839e-05
6.16597e-05
5.11348e-05
4.88189e-05
1.62928e-05
1.20352e-05
4.66972e-05
5.13171e-05
5.17997e-05
4.52653e-05
1.43707e-05
1.6559e-05
4.48115e-05
5.07948e-05
5.64343e-05
3.11121e-05
1.59652e-05
1.4586e-05
4.4516e-05
4.66628e-05
4.76543e-05
4.2659e-05
1.10842e-05
1.39916e-05
4.25674e-05
4.75496e-05
5.10355e-05
2.43287e-05
1.3657e-05
1.43987e-05
4.97534e-05
4.95618e-05
4.07245e-05
3.98765e-05
8.93765e-06
1.35423e-05
5.61063e-05
4.65854e-05
4.72161e-05
3.92017e-05
1.56402e-05
1.96232e-05
2.85837e-05
3.71773e-05
2.13171e-05
2.93982e-05
8.76711e-06
9.69392e-06
2.4541e-05
3.67619e-05
2.85087e-05
2.1752e-05
1.47061e-05
1.64411e-05
3.4987e-05
3.89027e-05
3.55067e-05
2.50542e-05
1.23247e-05
1.54476e-05
2.67829e-05
3.42237e-05
4.45284e-05
4.04552e-05
1.72051e-05
1.28043e-05
3.28413e-05
4.31653e-05
3.97823e-05
3.29103e-05
1.54377e-05
1.70157e-05
4.50824e-05
5.17768e-05
4.96083e-05
3.85254e-05
1.26873e-05
1.52846e-05
3.77176e-05
4.43812e-05
5.84079e-05
4.91714e-05
1.65422e-05
1.2718e-05
4.26183e-05
5.49328e-05
4.82042e-05
4.12404e-05
1.51818e-05
1.62398e-05
5.26309e-05
6.42501e-05
5.89446e-05
4.54328e-05
1.26807e-05
1.5193e-05
4.3882e-05
5.10791e-05
6.90694e-05
5.49466e-05
1.61063e-05
1.26095e-05
4.73574e-05
6.1783e-05
5.34803e-05
4.55153e-05
1.51067e-05
1.58644e-05
5.67085e-05
7.29526e-05
6.40518e-05
4.83347e-05
1.25022e-05
1.49921e-05
4.63504e-05
5.44635e-05
7.61366e-05
5.71883e-05
1.55991e-05
1.22858e-05
4.83711e-05
6.52539e-05
5.45192e-05
4.62346e-05
1.46632e-05
1.52159e-05
5.67898e-05
7.79181e-05
6.52625e-05
4.74482e-05
1.20436e-05
1.42785e-05
4.51504e-05
5.41051e-05
7.90008e-05
5.5244e-05
1.48332e-05
1.1719e-05
4.57073e-05
6.4153e-05
5.28851e-05
4.295e-05
1.36421e-05
1.41829e-05
5.26469e-05
7.93847e-05
6.1584e-05
4.23043e-05
1.11067e-05
1.19542e-05
3.90961e-05
4.95106e-05
7.66972e-05
7.40133e-05
1.07825e-05
1.43242e-05
4.76452e-05
6.4006e-05
9.49762e-05
6.26179e-05
1.42109e-05
1.11811e-05
4.59384e-05
6.94239e-05
5.75112e-05
4.18257e-05
1.30974e-05
1.38044e-05
5.71011e-05
9.07872e-05
6.60898e-05
4.16714e-05
1.07473e-05
1.15899e-05
3.74578e-05
5.30209e-05
8.70831e-05
8.01794e-05
1.04707e-05
1.36478e-05
4.63798e-05
6.90738e-05
0.000111226
7.00304e-05
1.36858e-05
1.06528e-05
4.43074e-05
7.6629e-05
5.88354e-05
3.87727e-05
1.17777e-05
1.05287e-05
8.52498e-05
9.90637e-05
7.31428e-05
4.64305e-05
1.33116e-05
1.36103e-05
7.68495e-05
0.000126487
8.00981e-05
4.36843e-05
1.05403e-05
1.1822e-05
3.79927e-05
6.12442e-05
0.000109124
9.61918e-05
1.0539e-05
1.32008e-05
4.61121e-05
7.88345e-05
0.000145152
8.45799e-05
1.36904e-05
1.0419e-05
4.25748e-05
8.83033e-05
6.24009e-05
3.59111e-05
1.16738e-05
1.04183e-05
0.000104543
0.000119631
7.96527e-05
4.30206e-05
1.2815e-05
1.32447e-05
8.48583e-05
0.000155356
8.43446e-05
3.77928e-05
9.99741e-06
1.12661e-05
3.09402e-05
5.77053e-05
0.000116511
9.86081e-05
1.01133e-05
1.25016e-05
3.68408e-05
7.15862e-05
0.000149866
7.5956e-05
1.29859e-05
9.76381e-06
3.21587e-05
7.47666e-05
5.09393e-05
2.71834e-05
1.12057e-05
1.02333e-05
8.19782e-05
0.000106958
6.60091e-05
3.28859e-05
1.19695e-05
1.15077e-05
0.000111355
0.000145074
8.84206e-05
4.13844e-05
1.34779e-05
1.47215e-05
0.000105173
0.000203997
0.000109418
4.08805e-05
1.02801e-05
1.18837e-05
3.12911e-05
7.2482e-05
0.000182731
0.00011928
1.19879e-05
1.28035e-05
4.05839e-05
9.74613e-05
0.000247521
0.000156508
1.34084e-05
1.36941e-05
5.08666e-05
0.000134484
0.000314212
0.000177189
1.59129e-05
9.60984e-06
4.80756e-05
0.000144087
7.73193e-05
2.7564e-05
1.06926e-05
1.19357e-05
0.000123549
0.000219712
8.52258e-05
2.94588e-05
1.13054e-05
1.23759e-05
0.000126031
0.000236371
9.52284e-05
3.11091e-05
1.08668e-05
1.22075e-05
0.00013406
0.000255307
0.000107641
3.39616e-05
1.10933e-05
1.42915e-05
0.000148332
0.000284959
0.000127194
3.99119e-05
5.56785e-06
6.6111e-06
2.26352e-05
8.06494e-05
0.000275148
0.000136855
9.55512e-06
8.21809e-06
3.98439e-05
0.000136561
0.000423171
0.000196601
1.29481e-05
8.37395e-06
6.43019e-05
0.000216763
0.000542842
0.000233487
1.53749e-05
9.03766e-06
0.00012876
0.000388449
0.000610055
0.000250911
1.74428e-05
3.1529e-06
0.000105714
0.000352649
0.000389243
0.000122061
3.94533e-06
2.65845e-06
7.20521e-05
0.000272893
0.000419268
0.000144537
5.99048e-06
3.21213e-06
6.3225e-05
0.000250332
0.000507943
0.000194305
1.07336e-05
5.11319e-06
5.79327e-05
0.000216825
0.000527608
0.00021733
1.27018e-05
6.98352e-06
5.61955e-05
0.000206041
0.000500747
0.000214877
1.62344e-05
1.54701e-05
0.000154705
0.000428148
0.000123839
2.77279e-05
5.63695e-06
1.10853e-05
0.000170078
0.000333323
0.000130296
3.60051e-05
8.85273e-06
1.29875e-05
0.00017108
0.000313974
0.000122716
3.72835e-05
1.0486e-05
1.25791e-05
0.00015868
0.000286068
0.00011273
3.75855e-05
1.0885e-05
1.23984e-05
0.000155709
0.000272698
0.000112763
4.11296e-05
1.1522e-05
1.29346e-05
0.000127167
0.000282749
0.000237729
9.11895e-05
1.33311e-05
9.15937e-06
2.23391e-05
6.42501e-05
0.000162522
0.000114926
9.80088e-06
1.05611e-05
3.09563e-05
7.13557e-05
0.000176649
0.000106113
1.05375e-05
1.1247e-05
3.31591e-05
7.53255e-05
0.000171803
0.000102799
1.05996e-05
1.16447e-05
3.49031e-05
7.64238e-05
0.000166918
0.000102078
1.07942e-05
1.1983e-05
3.662e-05
7.77202e-05
0.000174383
8.33327e-05
1.12701e-05
1.30627e-05
6.40351e-05
0.000136995
4.86469e-05
2.33694e-05
9.85307e-06
8.86659e-06
7.47162e-05
9.25209e-05
4.97634e-05
2.94968e-05
1.10035e-05
9.39051e-06
6.79713e-05
9.75319e-05
5.20269e-05
3.08458e-05
1.12946e-05
9.50527e-06
6.58931e-05
9.90533e-05
5.3191e-05
3.15611e-05
1.13365e-05
9.54829e-06
6.55196e-05
9.91581e-05
5.43304e-05
3.2473e-05
1.15531e-05
1.01297e-05
5.90138e-05
0.000108192
8.86594e-05
4.93112e-05
1.24574e-05
9.99751e-06
2.67054e-05
4.12048e-05
6.52294e-05
5.35169e-05
8.39361e-06
1.10764e-05
3.15089e-05
4.10913e-05
6.86092e-05
5.01177e-05
8.96609e-06
1.13116e-05
3.22416e-05
4.29598e-05
6.95267e-05
4.94868e-05
9.07461e-06
1.12858e-05
3.34092e-05
4.41712e-05
7.02262e-05
5.10127e-05
9.09093e-06
1.13742e-05
3.46655e-05
4.5075e-05
7.92042e-05
5.00148e-05
9.58395e-06
1.2115e-05
4.41792e-05
6.73631e-05
3.71421e-05
3.09269e-05
1.00598e-05
8.40436e-06
4.72874e-05
5.4425e-05
3.83705e-05
3.38454e-05
1.13685e-05
9.05004e-06
4.44346e-05
5.6386e-05
3.95703e-05
3.45023e-05
1.15027e-05
9.00272e-06
4.39522e-05
5.66769e-05
4.03524e-05
3.58235e-05
1.14576e-05
9.1429e-06
4.54697e-05
5.80342e-05
4.13973e-05
3.84168e-05
1.1645e-05
9.6984e-06
4.60464e-05
6.64661e-05
5.92245e-05
4.31249e-05
1.25329e-05
1.04689e-05
3.54148e-05
3.77074e-05
5.27433e-05
4.74463e-05
8.63719e-06
1.16249e-05
3.78414e-05
4.01974e-05
5.63667e-05
4.57674e-05
9.21503e-06
1.18123e-05
3.90058e-05
4.24858e-05
5.84432e-05
4.69313e-05
9.41785e-06
1.20208e-05
4.14491e-05
4.39622e-05
6.46267e-05
4.69396e-05
9.90657e-06
1.29618e-05
4.47764e-05
5.8587e-05
4.02733e-05
3.84182e-05
1.08026e-05
8.82134e-06
4.84647e-05
5.06894e-05
4.19828e-05
4.05562e-05
1.19675e-05
9.4825e-06
4.56415e-05
5.29829e-05
4.36224e-05
4.16838e-05
1.23381e-05
9.68916e-06
4.59483e-05
5.46989e-05
4.51346e-05
4.46036e-05
1.26666e-05
1.05246e-05
4.72336e-05
6.0319e-05
5.59979e-05
4.64179e-05
1.37862e-05
1.13922e-05
4.31758e-05
4.32676e-05
5.14674e-05
5.04438e-05
9.30191e-06
1.27571e-05
4.57587e-05
4.55389e-05
5.41228e-05
4.84431e-05
1.0098e-05
1.33651e-05
4.80039e-05
4.74033e-05
5.86368e-05
4.82184e-05
1.10052e-05
1.45714e-05
4.85334e-05
5.51012e-05
4.59897e-05
4.64559e-05
1.19705e-05
9.69849e-06
5.23676e-05
5.15194e-05
4.78642e-05
4.87218e-05
1.34102e-05
1.06735e-05
4.92637e-05
5.35743e-05
4.95061e-05
5.12882e-05
1.42495e-05
1.17008e-05
4.95092e-05
5.71906e-05
5.47607e-05
5.08023e-05
1.57135e-05
1.30307e-05
5.13222e-05
4.95158e-05
5.26178e-05
5.47121e-05
1.04346e-05
1.47064e-05
5.44337e-05
5.11697e-05
5.68731e-05
5.09887e-05
1.22242e-05
1.66605e-05
5.24708e-05
5.51109e-05
5.16233e-05
5.35499e-05
1.39348e-05
1.12088e-05
5.58312e-05
5.34742e-05
5.31555e-05
5.6982e-05
1.54905e-05
1.26867e-05
5.25084e-05
5.67995e-05
5.54423e-05
5.42193e-05
1.75333e-05
1.49575e-05
5.72114e-05
5.41686e-05
5.46327e-05
5.77728e-05
1.20378e-05
1.66572e-05
6.08034e-05
5.5832e-05
5.85635e-05
5.54718e-05
1.35067e-05
1.81674e-05
5.65691e-05
5.74624e-05
5.699e-05
6.01391e-05
1.5553e-05
1.26655e-05
5.98897e-05
5.68122e-05
5.89372e-05
6.46385e-05
1.7733e-05
1.45488e-05
5.78876e-05
6.01772e-05
5.93303e-05
6.03915e-05
1.98494e-05
1.65225e-05
6.56685e-05
6.11059e-05
5.98527e-05
6.44548e-05
1.31429e-05
1.87732e-05
7.02676e-05
6.32713e-05
6.39652e-05
6.22431e-05
1.56156e-05
2.13841e-05
6.53558e-05
6.3339e-05
6.67042e-05
7.37269e-05
1.83659e-05
1.51531e-05
6.90676e-05
6.60698e-05
6.55781e-05
7.02732e-05
2.12024e-05
1.92597e-05
7.6859e-05
7.00376e-05
6.87562e-05
7.15042e-05
1.63948e-05
2.31706e-05
7.20442e-05
6.8354e-05
7.25425e-05
7.88803e-05
2.02377e-05
1.6693e-05
7.29765e-05
7.061e-05
7.02609e-05
7.42827e-05
2.36627e-05
2.13604e-05
8.36144e-05
7.58366e-05
7.32213e-05
7.61781e-05
1.80886e-05
2.51488e-05
7.50846e-05
7.28984e-05
7.74747e-05
8.47561e-05
2.20138e-05
1.85682e-05
7.83893e-05
7.48636e-05
7.46314e-05
7.93612e-05
2.68362e-05
2.39356e-05
9.37871e-05
8.26517e-05
7.84135e-05
8.16867e-05
1.94811e-05
2.82585e-05
9.27749e-05
7.96579e-05
7.96178e-05
9.28339e-05
2.75858e-05
2.57288e-05
9.99387e-05
8.97769e-05
8.38095e-05
8.81212e-05
2.17781e-05
3.1751e-05
8.82525e-05
8.32203e-05
8.6052e-05
0.000104958
3.35867e-05
3.01974e-05
9.71178e-05
8.51597e-05
9.50892e-05
0.000103876
2.91804e-05
2.53897e-05
9.30252e-05
8.92306e-05
8.86246e-05
9.14675e-05
3.81482e-05
3.91839e-05
0.000106672
8.97679e-05
8.87325e-05
0.000102092
4.18355e-05
4.52804e-05
0.000109474
9.13756e-05
9.05211e-05
0.000106129
4.97545e-05
5.31832e-05
0.000112726
9.31074e-05
9.33451e-05
0.000113826
5.51086e-05
5.4647e-05
0.000121274
9.60186e-05
9.65843e-05
0.000125509
5.2736e-05
5.0671e-05
0.000131993
0.000100034
0.000101534
0.000138484
4.83826e-05
4.6252e-05
0.00014543
0.000106456
0.000108484
0.000151872
4.41031e-05
4.22628e-05
0.000159439
0.000115249
0.000117602
0.00015887
4.0536e-05
3.90829e-05
0.000163928
0.00012582
0.000128997
0.000165639
3.77591e-05
3.66273e-05
0.00016826
0.000140474
0.000144561
0.000170179
3.55994e-05
3.47254e-05
0.000172507
0.000157947
0.000162386
0.000174456
3.39379e-05
3.32738e-05
0.000177235
0.00017594
0.000180962
0.000179605
3.2692e-05
3.21967e-05
0.000182597
0.000194627
0.000199919
0.000185299
3.17927e-05
3.14203e-05
0.000188585
0.000213668
0.000214966
0.00019151
3.11796e-05
3.08739e-05
0.000194886
0.000228869
0.000229076
0.000198142
3.07985e-05
3.05435e-05
0.00020161
0.000242626
0.000242832
0.00020488
3.0589e-05
3.03948e-05
0.000208008
0.000255743
0.000255717
0.000211122
3.04681e-05
3.03509e-05
0.000214156
0.000267999
0.000267797
0.000216979
3.04343e-05
3.03751e-05
0.000219793
0.00027917
0.000278749
0.000222345
3.04531e-05
3.04229e-05
0.000225001
0.000289337
0.000288784
0.000227184
3.04947e-05
3.04873e-05
0.000229593
0.00029861
0.000297873
0.000231457
3.05517e-05
3.05437e-05
0.000233744
0.000306996
0.000306108
0.000235225
3.06121e-05
3.06044e-05
0.00023727
0.000314665
0.000313571
0.000238467
3.06796e-05
3.06611e-05
0.000240325
0.000321532
0.000320279
0.00024126
3.07344e-05
3.07132e-05
0.000242908
0.000327875
0.000326439
0.000243592
3.07857e-05
3.07592e-05
0.00024511
0.00033362
0.000332024
0.000245583
3.08303e-05
3.08029e-05
0.000246949
0.000338865
0.000337166
0.00024725
3.08738e-05
3.08449e-05
0.000248519
0.000343787
0.000341884
0.000248611
3.09124e-05
3.08837e-05
0.000249681
0.00034821
0.00034613
0.0002498
3.09247e-05
3.09445e-05
0.000250772
0.00035236
0.000350364
0.000250674
3.09836e-05
3.09535e-05
0.000251685
0.000356368
0.000354323
0.000251525
3.10145e-05
3.09823e-05
0.000252526
0.000360284
0.000358163
0.000252263
3.10381e-05
3.10014e-05
0.000253158
0.000363999
0.000361717
0.000252871
3.10508e-05
3.1007e-05
0.000253792
0.000367638
0.000365195
0.000253406
3.10547e-05
3.10091e-05
0.000254237
0.00037095
0.000368558
0.000253878
3.10655e-05
3.10209e-05
0.000254707
0.000374286
0.000371796
0.000254253
3.10836e-05
3.10421e-05
0.000254987
0.000377438
0.00037496
0.000254562
3.11098e-05
3.10686e-05
0.0002553
0.000380588
0.000377964
0.000254782
3.11396e-05
3.11033e-05
0.000255447
0.000383546
0.000381038
0.000254978
3.11798e-05
3.11479e-05
0.00025565
0.000386593
0.000383886
0.000255103
3.12269e-05
3.12015e-05
0.000255714
0.000389355
0.000386721
0.000255229
3.12852e-05
3.12632e-05
0.000255852
0.000392165
0.000389333
0.000255295
3.13463e-05
3.13291e-05
0.000255867
0.000394722
0.000391996
0.000255384
3.14143e-05
3.13992e-05
0.000255978
0.000397376
0.000394449
0.000255429
3.14822e-05
3.14703e-05
0.000255977
0.000399772
0.000396926
0.000255505
3.15541e-05
3.15433e-05
0.000256081
0.000402343
0.000399318
0.000255547
3.16242e-05
3.16161e-05
0.000256081
0.000404619
0.000401747
0.000255626
3.16977e-05
3.169e-05
0.000256185
0.00040698
0.000404056
0.000255664
3.17682e-05
3.17628e-05
0.000256181
0.000408475
0.000406331
0.00025573
3.18413e-05
3.18363e-05
0.00025627
0.000409866
0.00040842
0.000255744
3.1911e-05
3.1908e-05
0.000256232
0.000411166
0.000410471
0.000255768
3.19829e-05
3.198e-05
0.000256272
0.000412367
0.000412312
0.000255726
3.20511e-05
3.20503e-05
0.000256178
0.000413469
0.000414119
0.000255691
3.21218e-05
3.21211e-05
0.000256159
0.000414476
0.000415729
0.000255591
3.21887e-05
3.21902e-05
0.000256006
0.000415389
0.000417318
0.0002555
3.22581e-05
3.22598e-05
0.000255933
0.000416215
0.000418703
0.000255349
3.23237e-05
3.23275e-05
0.000255736
0.000416957
0.000420009
0.000255222
3.2392e-05
3.23959e-05
0.000255632
0.000417629
0.000420558
0.000255048
3.24564e-05
3.24623e-05
0.000255416
0.000418209
0.000421257
0.000254903
3.25233e-05
3.25292e-05
0.000255293
0.000418718
0.000421644
0.000254712
3.25861e-05
3.2594e-05
0.000255062
0.000419152
0.000422204
0.000254556
3.26517e-05
3.26597e-05
0.000254933
0.000419537
0.000422477
0.000254363
3.27137e-05
3.27238e-05
0.000254707
0.000419873
0.000422942
0.000254215
3.2779e-05
3.27893e-05
0.00025459
0.000420168
0.000423121
0.000254039
3.2841e-05
3.28534e-05
0.000254385
0.000420428
0.000423529
0.000253915
3.29065e-05
3.2919e-05
0.000254294
0.000420697
0.0004237
0.000253767
3.29686e-05
3.2983e-05
0.000254119
0.000420958
0.000424097
0.000253665
3.3034e-05
3.30483e-05
0.000254061
0.000421199
0.000424217
0.000253546
3.30956e-05
3.31119e-05
0.000253916
0.000421402
0.000424552
0.000253459
3.31606e-05
3.31768e-05
0.00025389
0.000421589
0.00042462
0.000253376
3.3222e-05
3.32401e-05
0.000253785
0.000421754
0.000424924
0.000253331
3.32869e-05
3.33049e-05
0.000253801
0.000421923
0.00042498
0.000253291
3.33481e-05
3.33678e-05
0.00025374
0.000422085
0.000425275
0.000253292
3.34129e-05
3.34324e-05
0.000253802
0.000422241
0.000425313
0.0002533
3.34739e-05
3.34951e-05
0.00025379
0.000422395
0.000425618
0.000253352
3.35385e-05
3.35592e-05
0.000253902
0.00042259
0.000425712
0.000253409
3.35987e-05
3.36208e-05
0.00025393
0.000422804
0.000426057
0.000253498
3.36627e-05
3.36841e-05
0.000254077
0.000423006
0.000426118
0.00025359
3.37215e-05
3.37442e-05
0.000254145
0.000423163
0.000426406
0.000253712
3.37845e-05
3.3806e-05
0.000254328
0.000423346
0.000426492
0.000253848
3.38409e-05
3.38637e-05
0.000254439
0.000423572
0.000426871
0.000253999
3.39023e-05
3.39242e-05
0.000254647
0.000423835
0.000427003
0.000254171
3.39577e-05
3.3982e-05
0.000254791
0.000424065
0.000427348
0.00025435
3.40215e-05
3.40467e-05
0.000255024
0.000424282
0.000427439
0.000254557
3.40802e-05
3.41048e-05
0.000255211
0.000424498
0.000427799
0.000254775
3.41379e-05
3.41624e-05
0.000255482
0.000424733
0.000427892
0.000255033
3.41898e-05
3.42126e-05
0.000255706
0.000424947
0.000428249
0.00025531
3.42389e-05
3.42613e-05
0.000256037
0.0004252
0.000428391
0.000255597
3.42847e-05
3.4306e-05
0.000256279
0.000425496
0.000428847
0.000255903
3.43274e-05
3.4348e-05
0.00025664
0.000425839
0.000429051
0.000256222
3.43682e-05
3.43884e-05
0.000256906
0.00042616
0.000429504
0.000256549
3.44069e-05
3.44264e-05
0.000257288
0.000426484
0.000429679
0.000256894
3.44444e-05
3.44642e-05
0.000257578
0.000426788
0.000430138
0.000257242
3.44809e-05
3.45004e-05
0.000257973
0.000427187
0.000430409
0.000257592
3.45167e-05
3.4537e-05
0.000258261
0.000427558
0.000430922
0.000257935
3.4553e-05
3.4574e-05
0.000258649
0.000427934
0.00043112
0.00025828
3.45906e-05
3.46147e-05
0.000258947
0.000428224
0.000431534
0.000258643
3.46318e-05
3.46572e-05
0.000259348
0.000428497
0.000431762
0.000259004
3.46734e-05
3.47019e-05
0.000259735
0.000428946
0.000432108
0.000259625
3.47403e-05
3.47881e-05
0.000260265
0.00042939
0.000432694
0.000259867
3.48045e-05
3.48558e-05
0.000260668
0.000429795
0.000433339
0.000260586
3.49211e-05
3.50254e-05
0.000261561
0.000430631
0.000435146
0.000261829
3.51806e-05
3.52076e-05
0.000263185
0.000432659
0.000438884
0.000264029
3.55781e-05
3.56635e-05
0.000265078
0.000436186
0.000448628
0.000269358
3.68058e-05
3.81596e-05
0.000277043
0.000467923
0.000478737
0.000290067
3.99997e-05
0.000565594
0.000482889
0.000459264
0.000465864
0.000366676
0.000625453
0.000743437
0.00079456
0.000707554
0.00137156
0.00119385
0.00108005
0.00100367
0.000960299
0.000952731
0.000971799
0.00100362
0.00103529
0.00105404
0.00104696
0.00102315
0.00099546
0.000970708
0.000951347
0.000938084
0.000930857
0.000928747
0.000930636
0.000933721
0.000938793
0.00094082
0.000943358
0.000993299
0.00101903
0.00108621
0.00115031
0.00125328
0.00137364
0.00153772
0.00173786
0.0019949
0.00230867
0.00269664
0.00316145
0.00371576
0.00436157
0.00510654
0.00594832
0.0068899
0.00792907
0.00907447
0.010332
0.0117164
0.0132382
0.0149135
0.0167424
0.0187163
0.0206957
0.0225303
0.023036
0.0233854
0.0236399
0.0238142
0.023947
0.0240832
0.0242569
0.0244969
0.024798
0.0251084
0.0253238
0.0253104
0.0249562
0.0242142
0.0231508
0.0218816
0.0205317
0.0192037
0.0179516
0.0168043
0.0157685
0.0148436
0.0140374
0.0133515
0.0127866
0.0123392
0.0120045
0.0117804
0.0116627
0.0116477
0.0117298
0.0119058
0.0121683
0.0125132
0.0129328
0.013419
0.0139622
0.0145512
0.0151733
0.0158143
0.0164572
0.0170827
0.0176694
0.0181998
0.0186717
0.019136
0.0196149
0.0201006
0.0205941
0.0210609
0.0214697
0.0218522
0.0222218
0.0225652
0.0228806
0.0231595
0.0233977
0.0235909
0.0237383
0.02384
0.0238927
0.0238981
0.0238572
0.0237775
0.0236607
0.0235126
0.0233398
0.0231522
0.0229614
0.0227803
0.0226257
0.022519
0.0224857
0.0225928
0.023081
0.0238225
0.0246955
0.0258273
0.027354
0.0293338
0.0318282
0.034943
0.0387051
0.0427705
0.0463969
0.0512418
0.0602318
0.070407
0.0762338
0.0804635
0.0867456
0.0943975
0.102132
0.110319
0.11998
0.133005
0.152231
0.182056
0.230184
0.309795
0.437418
0.616874
0.820803
1.00543
1.14468
1.19008
0.995203
0.612395
0.39934
0.264556
0.269396
0.2915
0.296237
0.301979
0.2887
0.276703
0.262039
0.244612
0.225803
0.207823
0.191441
0.176654
0.163062
0.150388
0.138591
0.127754
0.117927
0.109073
0.101107
0.0939495
0.0875481
0.0818561
0.0768167
0.0723652
0.0684283
0.0649414
0.0618428
0.0590587
0.0565473
0.0542761
0.0522087
0.0503312
0.0486288
0.0470894
0.0457064
0.0444789
0.0434083
0.0424955
0.0417396
0.0411393
0.0406932
0.0403995
0.0402571
0.0402666
0.0404305
0.0407544
0.0412481
0.041925
0.0428025
0.0439039
0.0452486
0.0468466
0.0486861
0.0507061
0.0529037
0.0555329
0.0597039
0.0681406
0.0869797
0.124653
0.122708
0.0414686
0.0198947
0.00715561
0.00622032
0.00577944
0.00529975
0.0050834
0.00481066
0.00470765
0.00453705
0.00443689
0.00424509
0.004123
0.0039269
0.00379256
0.00359713
0.0034736
0.00329829
0.0031937
0.00303836
0.00294881
0.00280472
0.00272982
0.00259995
0.00254342
0.00244072
0.00240143
0.00232018
0.00228143
0.0022016
0.00216002
0.00207756
0.00204064
0.0019518
0.00190404
0.00180574
0.00174145
0.00164951
0.00159337
0.00152547
0.00148515
0.00142547
0.00139947
0.00134709
0.00133332
0.00129763
0.00131297
0.00128121
0.00128663
0.0012534
0.00124193
0.00120126
0.00117459
0.00112203
0.00107476
0.000998402
0.000938803
0.000849294
0.000773228
0.000664003
0.00053723
0.000420575
0.00035309
0.000319673
0.000301775
0.000282309
0.000241994
0.000170082
0.000121148
9.94742e-05
9.2909e-05
9.14044e-05
9.14963e-05
9.31994e-05
8.63841e-05
8.0796e-05
7.66761e-05
8.16383e-05
6.49655e-05
6.15893e-05
6.20202e-05
6.65415e-05
7.45115e-05
8.06263e-05
9.03737e-05
0.000113655
0.000123953
0.000155477
0.000228563
0.000271857
0.000251801
0.000211579
0.000170697
0.000151545
0.000143403
0.000142557
0.000149751
0.000149158
0.00013966
0.000128075
0.00011964
0.000110662
0.000108076
0.000103837
0.000101578
0.000101498
0.000100046
0.000102019
0.00010139
0.000104241
0.00010482
0.000108
0.000109003
0.000112782
0.000114974
0.000117824
0.000120783
0.000123482
0.000126199
0.000128876
0.000131142
0.000133619
0.000135578
0.000137671
0.00013929
0.000141055
0.00014231
0.000143285
0.000143854
0.000143645
0.000144396
0.000143344
0.000146823
0.000148034
0.0001504
0.00015071
0.000500153
0.000499751
0.000499639
0.000500363