/*--------------------------------*- C++ -*----------------------------------*\
| =========                 |                                                 |
| \\      /  F ield         | OpenFOAM: The Open Source CFD Toolbox           |
|  \\    /   O peration     | Version:  v2006                                 |
|   \\  /    A nd           | Website:  www.openfoam.com                      |
|    \\/     M anipulation  |                                                 |
\*---------------------------------------------------------------------------*/
FoamFile
{
    version     2.0;
    format      ascii;
    class       volScalarField;
    location    "0.004";
    object      yPlus;
}
// * * * * * * * * * * * * * * * * * * * * * * * * * * * * * * * * * * * * * //

dimensions      [0 0 0 0 0 0 0];


internalField   uniform 0;

boundaryField
{
    bottomEmptyFaces
    {
        type            empty;
    }
    topEmptyFaces
    {
        type            empty;
    }
    inlet
    {
        type            calculated;
        value           uniform 0;
    }
    outlet
    {
        type            calculated;
        value           uniform 0;
    }
    walls
    {
        type            calculated;
        value           nonuniform List<scalar> 
681
(
19.7238
19.7646
19.7569
19.8038
19.7965
19.8431
19.8363
19.8838
19.8776
19.9282
19.9232
19.977
19.9732
20.0299
20.027
20.0853
20.0835
20.1435
20.1426
20.2029
20.2033
20.2642
20.2655
20.3261
20.3277
20.3876
20.3897
20.4485
20.4507
20.5088
20.5111
20.568
20.5703
20.6264
20.6288
20.6839
20.6861
20.7404
20.7427
20.796
20.7982
20.8507
20.8529
20.9043
20.9063
20.957
20.9589
21.0084
21.0101
21.0586
21.0602
21.1076
21.1089
21.1553
21.1566
21.2018
21.2029
21.2471
21.2482
21.2911
21.292
21.334
21.3349
21.3757
21.3764
21.4164
21.4171
21.4561
21.4568
21.495
21.4957
21.5331
21.5338
21.5705
21.5712
21.607
21.6078
21.6429
21.6437
21.678
21.6787
21.7124
21.7132
21.7461
21.7468
21.7793
21.78
21.8117
21.8123
21.8435
21.8441
21.8745
21.875
21.905
21.9054
21.9345
21.9348
21.9635
21.9637
21.9915
21.9914
22.0188
22.0188
22.0453
22.0451
22.0714
22.0712
22.0969
22.0966
22.1216
22.1212
22.1456
22.1448
22.1681
22.1672
22.1902
22.189
22.2112
22.2097
22.2313
22.2296
22.2508
22.2489
22.2696
22.2675
22.2881
22.286
22.3061
22.3037
22.3234
22.3207
22.3398
22.3368
22.3555
22.3523
22.3706
22.3674
22.3851
22.3815
22.4133
22.4211
22.4356
22.442
22.4932
22.5328
22.6231
22.6655
22.8291
22.985
23.7464
24.9939
7.82315
7.72755
7.33351
7.18681
5.90374
4.6442
6.37321
6.55737
4.08276
5.26274
3.63984
7.97668
6.71508
5.85382
7.59617
6.55565
6.92899
6.48877
6.20638
5.55698
6.27565
5.33381
13.0935
12.1112
10.03
9.20376
12.651
10.2746
12.572
11.904
10.1987
10.5512
9.62148
12.9454
11.436
9.86036
11.1756
11.6467
9.52219
8.68185
10.7624
9.12379
10.2337
8.11926
7.4555
9.32441
7.88326
7.15205
7.4268
6.77238
9.0035
7.77736
9.91944
8.57418
8.96212
8.22926
12.1374
11.3078
9.55849
9.94935
9.13241
11.8357
9.74126
6.84064
6.08421
3.96141
3.61497
4.50384
5.7457
4.69769
6.34781
4.45711
4.84206
8.16828
5.3393
5.57606
5.37312
5.1493
7.27239
7.00296
9.1785
8.69733
7.78739
6.97996
6.38319
7.61407
7.41032
5.26656
5.55888
5.20613
5.60217
11.3304
12.3251
5.68554
3.4567
5.16864
2.71082
14.7819
3.76089
2.45808
3.01686
2.68434
11.9247
12.8045
10.8344
11.4173
12.6649
13.1045
20.4572
18.3346
18.483
15.2107
15.9988
22.0638
17.7802
17.7622
21.7323
18.4441
18.1528
9.23738
22.7033
18.8015
18.6598
23.1258
19.7535
19.3472
24.1779
20.4664
19.9264
25.6122
21.9963
21.4715
12.9487
11.7382
10.7437
9.4389
7.462
10.5559
8.49015
12.4014
11.3251
9.29079
11.9223
9.80081
5.65834
7.30768
16.959
7.19437
6.18322
4.86499
7.85239
5.91477
14.5946
14.8971
11.198
12.3775
13.1309
13.2144
15.0805
11.2528
15.3335
13.882
13.5395
10.6748
18.2389
18.9078
14.3762
14.9628
15.9357
16.4151
13.7324
14.4294
17.4045
12.9757
13.6155
15.1516
15.5124
12.6366
13.4967
15.668
15.1218
14.3791
13.3787
13.8907
11.3761
12.0336
12.4604
13.6098
10.2346
14.3304
14.7901
17.0665
17.3051
16.0864
15.6069
14.3316
13.4608
27.9586
25.7514
30.1848
23.5541
22.1237
32.6792
29.7132
26.1035
24.9671
22.8047
31.7767
31.958
32.3002
33.087
33.4067
33.2431
32.4805
31.3358
30.2101
29.0399
27.9783
26.9401
26.0342
25.1881
24.448
23.7757
13.3576
13.224
12.2866
10.1985
12.505
10.4013
13.2971
12.5159
10.4629
12.3314
10.3948
12.2808
11.1212
11.5561
9.12767
23.1778
22.6425
14.092
22.1647
13.1379
21.7434
12.2453
11.7042
21.3663
11.3478
21.0441
20.7505
20.5136
11.1088
10.8711
10.7095
10.4855
20.285
20.1245
10.3117
10.1934
19.9387
10.0068
19.8536
9.8707
19.7027
19.6757
19.5581
19.5562
9.80696
9.69218
19.4756
19.4889
9.63347
9.55341
19.4357
9.53826
19.4577
9.49615
9.49765
19.4226
9.47434
19.4495
19.4263
19.457
9.48292
9.47139
9.4877
9.48112
19.4402
19.4769
9.50303
9.49886
19.4629
9.52327
19.5051
9.52024
19.4924
19.537
19.5255
19.5714
9.54495
9.54251
19.5609
19.6083
9.56702
9.5654
19.5989
9.59006
19.647
9.59027
9.61964
19.6381
9.62584
19.6858
19.6776
19.7183
9.66634
9.68351
9.73584
9.77002
9.83382
9.88635
9.9605
10.0356
10.121
10.2187
10.3109
10.4236
10.5175
10.6206
10.6838
10.8277
10.8986
10.9286
10.8225
10.4912
9.71729
8.06737
4.97283
5.41262
10.4
9.13995
9.80379
11.3476
9.9095
10.1899
8.36978
8.71339
9.04153
9.72546
8.69349
9.36364
8.29912
8.78206
7.59841
7.85919
11.5342
12.0517
10.594
11.4993
12.5856
9.86637
10.6626
10.8506
11.2344
10.1024
10.8541
9.27309
9.74192
13.4296
9.84694
10.3789
10.7459
11.5604
9.41956
10.3311
7.57386
7.77787
8.27785
8.66968
9.174
9.18446
7.93065
8.33644
9.48733
8.61974
8.30728
6.94587
6.91095
26.319
3.86449
28.0576
26.858
25.8287
25.3302
24.631
24.1355
23.6741
23.2452
22.9429
22.5775
22.272
21.8583
21.5077
21.0727
20.7279
20.3258
20.0173
19.6573
19.3795
19.0519
18.798
18.5029
18.2801
18.0258
17.8373
17.6138
17.4393
17.2159
17.0243
16.7676
16.5356
16.2388
15.9673
15.6368
15.3318
14.9854
14.6796
14.3574
14.0884
13.8113
13.581
13.3339
13.1216
12.8889
12.6869
12.4585
12.2527
12.0045
11.7649
11.4535
11.1527
10.7727
10.4079
9.94033
9.46499
8.84604
8.12448
7.18093
6.06907
4.94332
4.61022
4.62847
4.84087
4.99231
5.04321
5.0463
5.06582
5.13536
5.16904
5.14483
5.05269
4.89039
4.65717
4.36167
4.00836
3.59312
3.14607
2.63454
2.14979
1.7359
1.59926
1.63245
1.80454
2.14173
2.64459
3.25879
3.93254
4.45754
5.07729
5.51245
5.97035
6.92031
8.54645
9.28749
9.31759
9.10555
8.48867
7.9154
7.2791
6.40628
6.3006
6.95435
7.82856
8.86217
9.76263
10.4698
11.065
11.5642
11.987
12.3384
12.6298
12.8742
13.0695
13.2289
13.3528
13.4531
13.5285
13.5805
13.6099
13.6265
13.6322
13.6199
13.6012
13.5466
13.4937
13.397
13.301
13.132
12.9559
12.679
12.3649
11.9005
11.431
10.9287
10.5591
9.93468
9.01245
7.80102
29.5086
6.4309
)
;
    }
    rightWall
    {
        type            calculated;
        value           uniform 0;
    }
    symmetryLine
    {
        type            symmetryPlane;
    }
}


// ************************************************************************* //
