/*--------------------------------*- C++ -*----------------------------------*\
| =========                 |                                                 |
| \\      /  F ield         | OpenFOAM: The Open Source CFD Toolbox           |
|  \\    /   O peration     | Version:  v2006                                 |
|   \\  /    A nd           | Website:  www.openfoam.com                      |
|    \\/     M anipulation  |                                                 |
\*---------------------------------------------------------------------------*/
FoamFile
{
    version     2.0;
    format      ascii;
    class       volScalarField;
    location    "0.08";
    object      k;
}
// * * * * * * * * * * * * * * * * * * * * * * * * * * * * * * * * * * * * * //

dimensions      [0 2 -2 0 0 0 0];


internalField   nonuniform List<scalar> 
38932
(
122.351
122.349
122.662
122.657
122.64
122.613
122.569
122.516
122.447
122.367
122.274
122.17
122.053
121.925
121.785
121.634
121.47
121.295
121.109
120.911
120.702
120.481
120.249
120.007
119.753
119.489
119.214
118.929
118.633
118.328
118.012
117.687
117.352
117.008
116.655
116.293
115.922
115.542
115.154
114.758
114.354
113.942
113.523
113.097
112.664
112.224
111.777
111.325
110.866
110.402
109.932
109.457
108.978
108.493
108.005
107.512
107.016
106.517
106.014
105.508
105
104.49
103.978
103.464
102.949
102.433
101.916
101.399
100.882
100.365
99.8487
99.3333
98.8192
98.3066
97.7959
97.2874
96.7813
96.2781
95.778
95.2814
94.7885
94.2996
93.8151
93.3353
92.8605
92.391
91.927
91.4689
91.0169
90.5714
90.1326
89.7007
89.2762
88.8591
88.4499
88.0487
87.6557
87.2713
86.8956
86.5289
86.1714
85.8233
85.4848
85.1561
84.8373
84.5286
84.2302
83.9423
83.6649
83.3981
83.1421
82.897
82.6629
82.4397
82.2278
82.027
81.8378
81.6602
81.4949
81.3429
81.206
81.0882
80.998
80.9547
81.003
81.2372
82.041
83.7331
89.8365
94.499
112.671
56.2525
64.8668
98.3083
94.8812
91.1404
86.1926
63.9547
60.8153
76.5774
84.2735
78.3434
68.7793
56.4007
52.2927
62.3474
73.1294
68.6892
57.3979
48.8387
45.9606
53.4025
64.9646
61.8469
50.3554
43.6066
41.6895
47.9664
59.2135
56.9751
46.0561
40.1066
38.7861
44.5022
55.0514
53.3805
43.2123
37.6703
36.7167
42.1221
51.9139
50.6118
41.1824
35.8905
35.1645
40.3573
49.4442
48.3866
39.6204
34.5174
33.9326
38.9522
47.4202
46.5301
38.3384
33.3973
32.9017
37.7686
45.7042
44.933
37.2349
32.4381
32.0006
36.7315
44.209
43.5261
36.2539
31.5846
31.1865
35.7988
42.8794
42.2647
35.3634
30.8034
30.433
34.9455
41.6786
41.1183
34.5433
30.0734
29.7231
34.1553
40.5814
40.0656
33.7801
29.3809
29.0455
33.4167
39.5692
39.0906
33.0639
28.716
28.3915
32.7208
38.6282
38.1809
32.3866
28.0713
27.7547
32.0605
37.7474
37.3267
31.7417
27.441
27.1297
31.4296
36.9178
36.5199
31.1235
26.8202
26.512
30.8229
36.1322
35.754
30.5273
26.2047
25.8977
30.2361
35.3845
35.0231
29.9489
25.5907
25.2832
29.6652
34.6694
34.3227
29.3846
24.9748
24.6653
29.1066
33.9825
33.6484
28.8311
24.3541
24.041
28.5574
33.32
32.9968
28.2854
23.7256
23.4076
28.0146
32.6784
32.3646
27.7448
23.0867
22.7625
27.4757
32.0549
31.749
27.2069
22.4348
22.1032
26.9381
31.4467
31.1477
26.6692
21.7674
21.4271
26.3997
30.8517
30.5584
26.1295
21.0821
20.7321
25.8582
30.2676
29.9792
25.5857
20.3767
20.0157
25.3116
29.6928
29.4083
25.0357
19.6489
19.276
24.7577
29.1256
28.8444
24.4775
18.8967
18.5108
24.1947
28.5646
28.2861
23.9092
18.1182
17.7185
23.6206
28.0087
27.7323
23.3288
17.3116
16.8975
23.0337
27.4568
27.1822
22.7348
16.4758
16.0468
22.4321
26.9084
26.6353
22.1254
15.6102
15.1662
21.8146
26.3631
26.0915
21.4994
14.7148
14.2564
21.18
25.821
25.5513
20.856
13.7912
13.3199
20.528
25.2829
25.0152
20.1953
12.8429
12.3612
19.8588
24.7494
24.4845
19.518
11.8757
11.388
19.1739
24.2217
23.96
18.8264
10.8996
10.4125
18.4764
23.7002
23.4415
18.1243
9.92904
9.45257
17.7718
23.1841
22.9255
17.4182
8.98565
8.53228
17.0652
22.6651
22.3989
16.7127
8.09587
7.68116
16.3615
22.1223
21.8187
16.0016
7.28719
6.91782
15.6336
21.483
21.0911
15.2447
6.5708
6.24329
14.8241
20.6282
20.077
14.3677
5.93374
5.61487
13.808
19.3658
18.5907
13.2816
5.4236
5.36243
12.7224
17.7542
16.7954
12.0705
5.23571
5.01507
11.278
15.6329
14.2317
10.3065
4.68624
4.26649
9.16194
12.6127
10.8612
7.90792
3.78349
3.27142
6.62396
9.08865
7.43969
5.41843
2.78317
2.36499
4.38265
6.03275
4.91874
3.54971
2.02881
1.84644
2.95481
4.12049
3.65222
2.66335
1.79385
1.79354
2.5467
3.4264
3.33733
2.51451
1.83366
1.88066
2.51344
3.31358
3.32514
2.547
1.93627
1.98883
2.59325
3.36051
3.40767
2.64415
2.03538
2.07251
2.68871
3.45074
3.49023
2.7287
2.10152
2.116
2.75793
3.52
3.5366
2.77429
2.12091
2.11826
2.78091
3.54329
3.54197
2.78183
2.10426
2.0781
2.7647
3.52061
3.48786
2.73949
2.04326
1.99838
2.70114
3.43981
3.37832
2.6524
1.94518
1.8839
2.59261
3.30318
3.21531
2.52262
1.81574
1.74112
2.44345
3.11563
3.00461
2.35518
1.66088
1.57587
2.25885
2.88345
2.75307
2.1555
1.48656
1.39367
2.04533
2.61411
2.4676
1.92927
1.29767
1.19882
1.80778
2.3139
2.15284
1.6804
1.09694
0.991119
1.54722
1.98403
1.80568
1.40647
0.882701
0.767209
1.25553
1.61523
1.40576
1.08987
0.645039
0.513838
0.906766
1.17327
0.906276
0.697693
0.373419
0.226203
0.463795
0.606851
0.293395
0.222585
0.122852
0.0493243
0.069118
0.0887124
0.143424
0.251945
0.387908
0.53338
0.659826
0.780907
0.883521
0.979294
1.06089
1.13336
1.19803
1.25188
1.28752
1.31385
1.31283
1.37731
1.31716
1.25381
1.14147
0.825739
0.689817
0.783586
0.791797
0.507798
0.387798
0.417321
0.392233
0.337264
0.27763
0.210411
0.159367
0.126753
0.0932867
0.0565282
0.065226
0.075699
0.111953
0.161156
0.235191
0.337548
0.26025
0.186369
0.118727
0.0830378
0.122505
0.194988
0.280874
0.361238
0.444717
0.530873
0.440396
0.354739
0.25659
0.157112
0.185001
0.309125
0.41862
0.512499
0.606068
0.671519
0.574404
0.472387
0.351652
0.207176
0.2237
0.385388
0.51624
0.623955
0.724143
0.76922
0.665744
0.552585
0.412433
0.235992
0.245966
0.436599
0.584825
0.703068
0.810002
0.847276
0.738354
0.615431
0.459862
0.254108
0.262379
0.483962
0.647583
0.775404
0.887952
0.935311
0.816669
0.682517
0.510447
0.269927
0.279655
0.539048
0.719804
0.860664
0.985397
1.03849
0.90637
0.757933
0.567258
0.287528
0.295488
0.594639
0.795407
0.952494
1.09298
1.1412
0.99291
0.827822
0.616829
0.301513
0.318389
0.635491
0.854105
1.02661
1.18322
1.21473
1.04753
0.865732
0.640784
0.331575
0.336869
0.620975
0.853727
1.04985
1.23368
1.23114
1.02548
0.793733
0.537427
0.320485
0.302629
0.451171
0.718144
0.957246
1.19273
1.08982
0.821108
0.629186
0.429494
0.327491
0.456493
0.405464
0.563066
0.771396
0.979134
1.02622
0.79169
0.688313
0.904833
1.56514
1.23926
0.80174
0.674826
0.82
1.0802
1.14728
0.871394
0.716706
0.766225
1.23455
1.62124
0.964238
0.841642
0.963929
1.25264
1.35541
1.09208
1.09213
1.64066
3.23607
2.70958
1.5024
1.07056
1.11991
1.42545
1.49998
1.20091
1.11788
1.45703
2.1409
1.67896
1.21625
1.10609
1.2687
1.58506
1.66249
1.31646
1.2165
1.42089
2.18138
2.41434
1.54266
1.33393
1.39054
1.76725
1.88245
1.54833
1.54049
1.88786
3.5187
3.77365
2.16453
1.79589
1.7237
2.04006
2.06922
1.71243
1.52911
1.60243
2.14982
2.17789
1.53151
1.57656
1.78836
2.1728
2.28097
1.87176
1.76121
1.86596
2.68381
3.073
2.20132
2.0756
2.08156
2.474
2.57337
2.2146
2.12123
2.23553
2.97453
2.60065
2.19473
2.23688
2.33411
2.71219
2.77263
2.33718
2.14596
2.05276
3.20537
3.84007
2.53425
2.58748
2.57211
2.96497
2.98543
2.51355
2.11748
1.82663
2.2962
3.0566
2.1096
2.43805
2.71069
3.18661
3.26491
2.74021
2.3745
2.05738
2.73053
2.90005
2.27186
2.65085
2.98593
3.46647
3.55285
2.99588
2.76097
2.43317
3.27092
3.64464
2.87065
3.16661
3.28766
3.78483
3.83324
3.22951
2.80114
2.3154
2.81145
4.05411
3.23736
3.64523
3.49969
4.08648
4.08929
3.44201
2.83063
2.12966
2.72572
2.66717
2.39879
3.06158
3.63408
4.31738
4.41743
3.72152
2.98433
2.20237
2.32776
2.83854
2.58375
3.34658
3.97555
4.68519
4.80337
4.06361
3.38184
2.59156
2.90747
4.01296
3.42017
4.18366
4.40857
5.1375
5.24613
4.52876
3.96849
3.1275
3.96996
4.02179
3.73218
4.52737
4.86604
5.55268
5.63598
4.8872
4.33713
3.29826
4.51604
4.82914
4.19998
5.1328
5.36274
6.00436
6.01319
5.20216
4.41204
3.23661
4.14922
6.06681
4.43839
5.74454
5.76207
6.42796
6.40634
5.53837
4.60585
3.37944
3.95226
5.77253
4.14609
5.67065
6.02526
6.82867
6.89227
5.94632
5.08781
3.784
4.47185
5.20042
4.14856
5.62649
6.40682
7.27806
7.3811
6.3579
5.5797
4.15664
4.85995
5.4257
4.66307
6.16365
6.9335
7.80777
7.92081
6.82379
6.16356
4.62248
5.26023
6.6654
5.91859
7.55961
7.58367
8.44667
8.44136
7.30625
6.37401
4.75439
5.16894
7.32576
6.84695
8.76454
8.14178
9.08471
9.08172
7.98625
6.93294
5.20014
5.92996
6.81113
6.62369
8.60518
8.50426
9.66507
9.80629
8.68461
7.83774
5.75299
7.27798
6.87391
6.85482
8.77725
9.35599
10.3344
10.3614
9.16267
8.08431
5.70674
7.30967
8.63968
7.44812
9.97037
10.1756
11.0619
10.9778
9.66334
8.25046
5.88689
7.08536
10.0928
7.54459
10.9075
10.7351
11.6972
11.6339
10.2103
8.71051
6.31324
7.25998
9.49704
6.97857
10.2833
10.9796
12.278
12.3556
10.7342
9.26164
6.73719
7.58171
8.68718
6.99751
9.95189
11.4634
12.9471
13.1895
11.5028
10.364
7.61721
8.37841
8.89349
8.05716
10.9377
12.31
13.7828
13.8016
11.9744
10.3801
7.84308
8.36466
9.45461
8.97036
12.0576
12.7047
14.6103
14.9225
12.9714
11.667
8.79479
9.26396
11.2789
12.1449
15.9255
13.8747
15.6952
15.664
14.3209
14.5323
10.6847
15.6428
10.9564
8.22642
10.0743
12.1091
14.3182
16.2357
13.4621
10.833
8.90347
11.5622
11.1397
10.7128
13.6284
17.0692
20.2765
22.2296
19.0492
15.6393
11.982
10.6945
10.6729
13.6795
17.7857
21.2538
24.4351
26.4059
23.212
19.6378
15.2233
10.9041
11.2749
16.6627
21.3622
25.071
28.3209
30.1712
26.85
22.9721
17.9079
11.6477
12.0621
19.1387
24.5119
28.5561
31.952
33.5849
30.1695
25.9919
20.3452
12.5013
12.9654
21.5869
27.5338
31.8956
35.438
37.2997
33.5948
29.0146
22.7047
13.4037
13.9174
23.848
30.566
35.378
39.2657
41.3028
37.2346
32.1901
25.1573
14.6519
15.5501
26.4657
33.8554
39.0703
43.2065
45.16
41.0192
35.7049
28.1275
16.3996
17.2669
29.8915
37.7292
43.2138
47.4881
49.8823
45.4708
39.7978
31.6305
18.1336
18.9941
33.4823
41.879
47.7504
52.3068
54.8541
50.0522
43.9316
35.2974
19.7502
20.2946
36.7553
45.7125
52.165
57.6042
58.5341
53.3197
46.7717
37.5563
20.708
21.0069
38.2121
47.5325
53.919
58.6291
60.8081
55.7018
49.1053
39.5112
21.7827
22.5132
41.2381
51.1025
57.9166
63.1805
65.6563
60.2097
53.1867
43.0898
23.2882
24.055
44.6691
55.2067
62.4891
68.1615
70.6812
64.7284
57.1369
46.2601
25.0383
25.56
47.4495
58.7357
66.7316
73.1807
75.2192
68.0858
59.8073
48.3568
26.1746
26.1428
48.4918
60.0169
68.1756
74.7461
73.3603
67.5061
59.6577
48.2369
26.0947
26.0272
48.0065
59.4566
67.5441
74.2818
74.2356
67.6938
59.5057
47.8458
25.969
25.9106
47.8648
59.5587
67.5787
73.5681
75.1532
68.592
60.3377
48.4732
26.3718
26.8101
49.4464
61.659
70.1738
76.9224
78.4867
71.6704
63.014
50.5851
27.5112
28.0607
51.7361
64.3726
73.1974
80.166
81.9482
74.8179
65.7792
52.9014
28.7591
29.156
54.0836
67.3168
76.5987
83.9698
86.1782
78.2146
68.7243
55.314
29.9498
30.1637
55.903
69.442
78.9186
86.4583
86.1739
79.2478
69.8462
56.0898
30.2127
30.9589
57.4488
71.5621
81.2114
88.7256
91.5455
83.8551
73.944
59.5049
32.0381
32.9881
61.7734
76.5126
86.657
94.5219
97.6239
89.4658
79.0338
63.8728
33.8156
34.4469
65.3193
80.915
91.8041
100.779
101.313
92.8214
81.9253
66.052
34.9003
34.9381
66.4224
82.604
93.3543
101.187
104.231
95.6917
84.5156
67.8335
35.793
37.1436
69.8067
87.1003
98.7013
107.619
111.091
101.892
89.9048
71.9961
37.9943
38.9967
74.2294
92.6175
105.086
114.699
118.5
107.87
94.9153
76.1265
39.9415
40.252
77.2399
96.2416
109.213
119.289
119.432
110.16
97.434
78.2132
40.6426
41.5895
80.1671
100.019
113.206
123.229
127.558
117.167
103.486
82.9353
42.9288
44.6065
85.9731
107.22
121.346
132.113
136.854
125.605
110.902
89.1781
46.1876
47.0884
91.5218
114.088
129.416
141.947
143.402
131.496
116.153
93.4367
47.9653
48.4193
95.1282
118.147
133.196
144.061
148.988
137.227
121.586
97.7424
49.6516
51.4444
101.369
126.157
142.422
154.635
160.746
147.871
130.835
105.155
53.3542
55.1425
108.637
134.976
152.788
167.256
169.52
155.783
137.995
111.152
56.2806
56.993
113.502
140.677
158.324
170.875
177.126
163.466
145.035
116.841
58.5802
60.8031
121.332
150.6
169.888
184.427
192.403
175.95
155.734
125.732
63.3329
64.3611
128.949
159.59
179.934
195.597
197.799
183.518
163.418
132.127
65.7855
68.1857
136.861
169.28
190.194
205.546
214.635
198.297
176.262
142.61
71.2042
73.6102
147.88
182.783
206.09
224.845
229.51
211.636
188.311
152.549
75.5977
77.8635
157.607
193.874
216.87
233.017
242.912
225.553
201.63
163.884
80.8423
84.1534
171.222
210.9
236.262
254.696
268.153
246.861
219.889
178.904
88.914
92.1168
186.016
227.777
254.814
275.353
280.965
262.354
235.619
193.008
95.8758
100.277
201.512
245.421
273.626
293.835
309.843
286.162
256.239
210.618
104.922
109.37
219.562
266.213
296.443
319.236
326.959
306.322
276.327
228.297
112.663
117.52
237.605
288.411
320.435
342.838
363
336.086
301.418
246.851
120.889
128.224
256.869
313.845
349.654
375.989
387.281
362.84
326.693
268.251
134.732
142.183
280.667
341.224
379.69
409.042
425.138
396.288
356.795
294.497
150.395
160.303
310.451
374.052
413.835
440.126
467.492
435.946
393.881
327.899
170.653
182.644
347.565
415.663
458.686
489.638
510.433
483.073
440.09
369.611
195.562
211.245
395.333
468.697
513.895
545.816
577.685
546.873
501.322
425.095
229.378
251.712
460.164
538.434
582.583
606.965
651.646
625.477
580.994
501.049
278.6
300.921
544.97
626.18
669.019
694.435
729.736
708.22
669.302
594.065
343.402
370.676
624.206
698.755
737.51
758.978
785.334
762.754
719.078
636.176
379.278
386.292
651.254
741.444
787.276
810.441
839.136
818.26
769.69
669.203
384.27
401.124
701.57
803.755
849.325
869.153
892.848
873.413
830.875
738.468
435.515
464.672
759.145
847.392
888.695
907.696
918.325
900.148
861.492
778.174
492.083
512.164
795.768
871.259
908.377
925.691
927.244
909.611
871.512
789.647
506.817
492.95
747.665
850.706
897.637
919.557
902.399
872.551
815.159
694.583
471.755
445.46
643.172
777.555
845.533
880.617
859.106
816.99
745.423
613.489
422.666
398.819
569.9
710.088
788.924
835.232
807.927
755.297
672.265
530.049
373.273
347.35
491.529
638.786
727.623
783.456
752.978
691.205
598.44
449.001
319.121
293.518
414.884
568.557
666.945
731.774
702.106
635.858
538.392
384.893
268.892
249.115
375.306
521.897
618.509
686.289
658.276
592.151
499.965
363.037
231.216
216.42
352.989
484.549
577.117
645.198
619.313
551.335
463.658
340.72
204.337
192.805
323.337
437.399
518.636
575.441
566.548
504.684
423.931
313.059
182.723
176.324
306.985
410.151
486.768
547.196
543.845
481.176
404.091
304.621
171.987
167.125
299.749
393.538
466.02
527.325
495.285
445.507
380.326
294.196
162.992
158.222
286.931
372.209
438.166
492.604
479.621
424.856
361.946
280.005
153.777
148.823
269.746
348.527
407.256
452.486
450.837
400.958
340.477
260.258
143.506
138.722
253.261
331.075
389.467
440.36
416.389
374.43
319.735
244.63
133.683
129.695
239.353
314.134
369.689
415.473
406.969
362.826
309.273
237.611
126.83
125.881
238.009
308.559
363.194
409.722
402.964
356.702
304.452
236.884
124.776
123.268
233.477
297.94
346.015
384.134
385.453
344
294.917
231.1
121.548
120.714
228.799
290.667
338.07
380.093
363.517
328.615
284.34
224.492
118.594
117.426
222.484
281.949
327.031
365.107
360.694
321.536
277.446
218.921
115.866
114.035
215.055
271.625
313.083
345.937
347.542
311.596
268.923
212.27
112.477
110.907
208.784
264.973
306.95
343.933
330.344
299.126
259.446
204.871
108.846
107.116
202.38
257.237
297.948
332.089
329.073
293.737
253.685
199.903
106
103.742
195.776
248.633
286.821
316.586
318.519
286.073
247.195
195.05
102.776
101.895
192.781
244.081
282.31
316.146
304.56
276.001
239.639
189.781
100.6
99.6092
187.818
238.296
275.556
306.789
304.757
272.112
235.066
185.358
98.4982
96.518
180.451
229.347
264.698
294.03
283.186
257.121
223.208
175.415
94.2505
92.5014
173.349
221.145
255.929
284.648
283.025
252.814
218.488
171.729
91.2373
89.9408
169.66
214.931
247.662
273.337
275.589
247.705
214.271
169.052
89.5693
89.0919
167.519
212.178
245.168
274.367
265.205
240.486
209.026
165.578
88.1882
87.4538
164.361
208.326
240.605
267.5
266.599
238.431
206.593
163.755
87.1466
86.1301
161.147
203.585
234.071
257.881
260.19
234.248
203.1
160.725
85.6257
85.0757
159.408
201.289
232.08
259.33
250.977
227.917
198.476
157.452
84.0891
83.6223
156.878
197.954
228.092
253.193
252.441
226.14
196.281
155.525
83.1664
82.1482
153.443
193.481
222.042
244.401
246.541
222.197
192.918
152.904
81.6354
81.0181
151.567
191.276
220.351
245.916
238.159
216.398
188.464
149.249
80.0608
79.4182
148.699
187.959
216.485
240.202
239.545
214.582
186.329
147.79
78.9179
77.9889
145.6
183.685
210.885
232.083
234.096
211.032
183.238
145.008
77.2976
76.8175
144.081
181.707
209.325
233.513
226.366
205.807
179.403
142.218
75.9704
75.2617
141.348
178.856
205.978
228.384
227.947
204.335
177.416
140.658
74.7429
73.7973
138.667
175.269
201.178
221.245
223.476
201.612
175.077
138.427
73.373
73.3192
137.465
173.977
200.412
223.476
217.718
197.875
172.514
136.696
73.1185
73.3461
136.943
172.961
199.088
220.697
221.413
198.725
172.7
137.135
73.18
73.9786
136.968
172.662
197.744
217.421
221.792
200.525
174.559
139.333
72.9095
76.5885
140.39
176.4
202.334
225.265
223.29
203.285
178.014
142.957
73.7787
79.0409
145.556
182.293
207.651
227.685
234.536
213.916
187.679
149.822
78.1203
82.3778
154.684
194.609
223.538
248.311
254.25
227.242
197.401
156.825
83.0406
83.6432
156.18
196.132
225.403
250.715
243.355
221.317
193.228
153.882
82.9505
82.9557
153.274
192.934
221.657
245.559
244.954
221.318
192.94
153.393
83.3778
84.0073
154.697
194.481
224.163
249.164
249.096
223.282
194.078
154.701
84.198
84.4239
153.508
191.811
219.493
241.289
243.717
219.996
191.62
152.84
82.039
80.635
151.509
190.004
218.235
243.087
235.135
214.012
186.908
148.85
78.9108
78.1064
148.086
186.416
214.266
237.252
236.524
212.461
184.911
147.253
77.7755
76.8513
145.113
182.044
208.348
228.835
230.914
208.593
181.564
144.351
76.253
75.8927
143.537
180.163
206.942
230.314
223.008
203.061
177.417
141.244
75.0625
74.7994
140.976
177.197
203.478
225.183
224.792
202.081
176.057
140.416
74.4793
73.9698
138.671
173.641
198.484
217.825
220.012
198.937
173.451
138.272
73.7666
73.4633
137.331
172.184
197.579
219.696
212.908
194.087
169.834
135.664
72.822
72.3514
135.065
169.576
194.502
215.041
214.623
193.128
168.407
134.315
72.106
71.6987
132.93
166.18
189.732
207.954
209.63
190.056
166.195
132.939
71.7374
72.1624
133.135
166.185
189.666
208.888
212.138
191.873
167.391
133.964
72.6126
72.5338
133.712
167.018
191.099
212.061
205.741
187.936
164.937
132.482
72.1271
71.7434
132.156
164.878
188.4
207.744
207.325
187.074
163.682
131.322
71.4431
71.0226
129.596
161.484
183.867
201.033
202.551
184.06
161.324
129.4
70.9124
71.0407
129.38
161.217
183.607
201.789
204.784
185.627
162.31
130.117
71.3525
71.3618
130.001
161.825
184.768
204.6
198.499
181.623
159.713
128.529
70.9521
70.7145
128.177
159.55
182.008
200.33
199.847
180.638
158.339
127.222
70.3977
70.0215
125.768
156.189
177.479
193.759
195.189
177.642
155.987
125.455
69.8429
69.97
125.478
155.877
177.146
194.38
197.196
179.05
156.823
126.064
70.2413
70.1834
125.858
156.333
178.199
196.966
191.028
175.079
154.245
124.482
69.8961
69.6312
124.054
153.982
175.359
192.707
192.155
174.03
152.822
123.151
69.3132
68.8286
121.327
150.569
170.827
186.256
187.58
170.957
150.236
121.024
68.6733
68.6496
120.913
150.058
170.296
186.616
189.227
171.953
150.757
121.401
68.8649
68.7944
121.175
150.174
170.97
188.813
183.042
167.942
148.19
119.888
68.4663
68.4518
119.622
148.001
168.136
184.366
183.421
167.6
147.96
119.772
68.6918
68.8702
120.176
148.591
169.125
185.936
185.519
168.209
147.958
119.757
68.7634
68.3621
118.09
145.889
165.12
179.775
181.064
165.245
145.526
117.639
68.1554
68.0319
117.475
145.273
164.56
179.988
182.429
166.006
145.888
117.881
68.1818
68.1715
117.605
145.256
165.035
181.923
176.244
161.97
143.219
116.279
67.9523
67.8317
115.84
142.885
162.076
177.495
176.402
161.404
142.703
115.787
67.9179
68.1269
116.146
143.287
162.845
178.806
178.329
161.882
142.612
115.829
68.1
67.6691
114.18
140.567
158.857
172.755
174.019
158.963
140.195
113.617
67.3093
67.3735
113.731
140.059
158.368
172.981
175.339
159.782
140.658
114.058
67.4517
67.3866
113.707
139.996
158.834
174.838
169.313
155.769
137.902
112.156
67.125
66.9259
111.594
137.485
155.832
170.516
169.328
155.09
137.177
111.422
66.9745
67.1366
111.656
137.588
156.305
171.591
171.029
155.351
136.932
111.101
66.9248
66.5063
109.281
134.705
152.223
165.481
166.671
152.252
134.258
108.749
66.2253
66.4082
108.84
134.029
151.599
165.495
167.587
152.855
134.917
109.767
66.7092
67.0683
110.121
135.122
152.59
166.559
168.951
154.077
135.829
110.698
67.4494
67.4343
110.425
135.352
153.212
168.389
162.974
150.108
133.162
108.65
67.113
66.8572
108.117
132.704
150.201
164.214
162.989
149.464
132.404
107.936
66.7736
66.7382
108.069
132.767
150.659
165.196
164.589
149.707
132.153
107.425
66.5492
66.2541
105.97
129.984
146.617
159.238
160.416
146.704
129.53
105.448
66.0533
66.1065
105.285
129.26
145.974
159.171
161.213
147.118
129.979
106.067
66.5158
66.8215
106.419
130.14
146.804
160.07
162.359
148.181
130.712
106.694
66.9958
66.999
106.54
130.242
147.303
161.767
156.458
144.221
128.053
104.573
66.6798
66.4981
104.04
127.493
144.229
157.607
156.336
143.518
127.234
103.772
66.3084
66.5648
104.514
127.917
144.675
158.397
157.232
144.339
128.105
104.94
66.8774
67.0878
105.372
128.651
145.705
159.542
158.929
144.843
128.134
104.983
67.0826
66.8733
103.419
126.139
141.832
153.734
154.901
141.86
125.571
102.734
66.6805
66.6236
102.447
125.231
141.106
153.572
155.568
142.13
125.753
102.855
66.7949
67.0467
103.265
125.891
141.745
154.313
156.593
143.019
126.333
103.493
67.077
67.0713
103.149
125.868
142.221
155.998
150.851
139.206
123.813
101.425
66.8303
66.6636
100.886
123.303
139.296
152.08
150.746
138.58
123.039
100.86
66.7692
66.9932
101.372
123.649
139.645
152.806
151.569
139.31
123.839
101.864
67.3364
67.4596
102.155
124.301
140.568
153.825
153.224
139.756
123.826
101.807
67.4829
67.3034
100.294
121.784
136.742
148.091
149.277
136.783
121.179
99.5064
67.117
67.0362
99.2248
120.816
136.003
147.839
149.811
136.968
121.383
99.7232
67.1588
67.307
99.8156
121.391
136.56
148.521
150.674
137.78
122.105
100.542
67.6891
67.9601
100.937
122.341
137.416
149.318
151.556
138.642
122.806
101.333
68.1935
68.3077
100.983
122.29
137.8
150.865
145.754
134.748
120.249
99.258
68.1474
67.9658
98.3766
119.603
134.753
146.935
145.458
134.003
119.249
98.2423
67.9579
68.0197
98.5156
119.602
134.808
147.345
145.945
134.323
119.538
98.6379
68.2518
68.5193
99.1791
120.161
135.474
148.067
146.63
135.035
120.296
99.518
68.6669
68.7639
99.795
120.684
136.194
148.811
148.109
135.369
120.176
99.3762
68.7874
68.6739
98.0004
118.175
132.314
143.057
144.225
132.329
117.593
96.9259
68.4887
68.5445
96.778
117.202
131.568
142.727
144.666
132.359
117.433
96.8582
68.6471
68.8969
97.168
117.504
131.931
143.198
145.346
133.008
118.115
97.7605
69.1734
69.41
98.0702
118.179
132.563
143.867
146.076
133.681
118.531
98.2614
69.4919
69.5687
97.8735
118.08
132.952
145.403
140.431
129.92
116.108
96.3223
69.4539
69.2541
95.2147
115.507
130.017
141.728
140.199
129.299
115.165
95.0898
69.2963
69.4602
95.564
115.626
130.181
142.231
140.812
129.76
115.624
95.7325
69.6003
69.9056
96.478
116.342
130.971
143.041
141.588
130.564
116.449
96.7687
70.1067
70.3625
97.2761
116.926
131.692
143.815
143.189
130.983
116.415
96.6639
70.4736
70.4067
95.3841
114.513
127.991
138.257
139.551
128.042
113.906
94.4718
70.3136
70.3094
94.2898
113.562
127.321
137.959
139.986
128.115
113.832
94.4161
70.3291
70.5514
94.5642
113.783
127.671
138.447
140.669
128.787
114.493
95.2031
70.7679
70.9706
95.6019
114.633
128.432
139.197
141.441
129.573
115.328
96.1613
71.3108
71.633
96.5067
115.454
129.152
139.895
142.106
130.268
115.823
96.7344
71.7498
71.9496
96.354
115.394
129.573
141.479
136.672
126.684
113.574
95.052
71.9625
71.9355
94.1862
112.978
126.753
138.012
136.36
126.047
112.661
93.9804
71.9204
72.0989
94.1979
112.986
126.873
138.448
136.896
126.443
112.987
94.3101
72.2745
72.5599
94.8863
113.585
127.535
139.141
137.583
127.137
113.718
95.2357
72.8144
72.9102
95.5747
114.086
128.215
139.813
139.186
127.518
113.685
95.1916
73.081
73.064
93.7411
111.802
124.66
134.419
135.804
124.783
111.301
93.0147
73.0425
73.0292
92.7771
110.967
124.046
134.126
136.233
124.839
111.217
92.9184
73.2181
73.4368
93.1179
111.197
124.389
134.565
136.825
125.39
111.734
93.5628
73.6489
73.9055
93.794
111.785
124.96
135.185
137.485
126.055
112.395
94.3234
74.1721
74.4424
94.6096
112.488
125.615
135.779
138.032
126.607
112.804
95.0086
74.618
74.8086
94.59
112.371
125.903
137.355
132.553
123.008
110.49
93.1055
74.8508
74.8453
92.1322
109.906
123.102
133.978
132.164
122.345
109.483
91.8521
74.8554
74.9625
91.9823
109.724
123.089
134.308
132.518
122.548
109.632
92.0307
75.0989
75.3848
92.4354
110.124
123.547
134.819
133.094
123.098
110.146
92.6317
75.5368
75.8074
93.1917
110.716
124.09
135.381
133.669
123.664
110.77
93.4252
76.0952
76.446
93.9332
111.35
124.73
136.015
134.316
124.311
111.459
94.2203
76.7334
76.9089
94.6352
111.87
125.395
136.642
136.036
124.782
111.555
94.3896
77.1554
77.2399
93.3156
109.849
122.069
131.386
132.922
122.218
109.448
92.6291
77.3907
77.427
92.2509
109.094
121.601
131.174
133.442
122.441
109.425
92.3858
77.6402
77.9154
92.5605
109.412
122.007
131.734
134.153
123.117
110.071
93.0313
78.1313
78.4751
93.3139
110.1
122.71
132.462
134.917
123.849
110.758
93.7929
78.6771
79.0134
94.1577
110.9
123.442
133.199
135.529
124.48
111.223
94.4957
79.2174
79.4405
94.2312
110.872
123.874
134.931
130.365
121.214
109.25
93.2924
79.594
79.7339
92.5616
108.846
121.389
131.919
130.091
120.743
108.53
92.2295
79.8336
80.0586
92.2741
108.797
121.544
132.362
130.59
121.103
108.758
92.3483
80.2551
80.5793
92.7645
109.319
122.137
133.007
131.241
121.744
109.362
92.9953
80.8244
81.1002
93.538
109.949
122.807
133.735
131.954
122.423
110.08
93.8012
81.3566
81.5595
94.1011
110.341
123.384
134.278
133.674
122.801
110.008
93.8702
81.8071
81.9751
92.9961
108.425
120.121
129.056
130.714
120.286
107.994
92.3786
82.1601
82.3139
92.1243
107.714
119.646
128.794
131.181
120.489
107.986
92.1683
82.4994
82.8216
92.2808
107.97
120.068
129.362
131.908
121.115
108.519
92.6277
83.038
83.4014
92.877
108.579
120.72
130.044
132.66
121.837
109.222
93.3611
83.6055
83.9641
93.6504
109.284
121.417
130.797
133.201
122.426
109.644
93.9739
84.1754
84.4606
93.6983
109.281
121.873
132.62
128.02
119.217
107.745
92.9502
84.6698
84.9692
92.2115
107.272
119.392
129.766
127.811
118.779
106.982
91.9116
85.1054
85.3894
92.0054
107.334
119.659
130.308
128.399
119.223
107.311
92.1354
85.6214
85.923
92.5074
107.919
120.358
131.065
129.185
119.982
107.973
92.7161
86.171
86.5158
93.2257
108.607
121.13
131.905
130.039
120.761
108.778
93.5494
86.7627
87.072
93.9573
109.18
121.864
132.533
132.009
121.341
108.903
93.8087
87.3437
87.6279
93.3107
107.451
118.802
127.487
129.374
119.083
107.114
92.83
87.8955
88.2043
92.5137
106.873
118.457
127.357
129.994
119.427
107.314
92.6036
88.5187
88.8493
92.6964
107.324
119.03
128.035
130.806
120.178
107.914
93.0019
89.1299
89.4531
93.2812
108.032
119.809
128.864
131.677
120.951
108.624
93.7295
89.7547
90.0542
94.049
108.774
120.582
129.735
132.241
121.631
109.189
94.504
90.3254
90.6193
94.4101
108.851
121.139
131.714
127.115
118.525
107.267
93.9408
90.9291
91.2864
93.5173
106.874
118.752
129.045
126.945
118.181
106.682
93.0336
91.6163
91.9857
93.0523
107.083
119.064
129.583
127.555
118.671
107.089
93.0942
92.3303
92.6716
93.2816
107.637
119.781
130.392
128.345
119.386
107.723
93.5221
92.9984
93.324
93.8758
108.316
120.534
131.222
129.22
120.155
108.454
94.169
93.6765
93.9704
94.5359
108.9
121.231
131.764
131.258
120.732
108.555
94.6572
94.3037
94.6407
94.3408
106.844
118.146
126.686
128.689
118.402
106.585
94.0639
95.041
95.4134
93.6836
106.476
117.859
126.576
129.336
118.813
106.911
93.6714
95.7705
96.0859
93.7437
106.96
118.423
127.259
130.219
119.642
107.661
93.9768
96.3958
96.6784
94.2114
107.736
119.269
128.185
131.21
120.548
108.438
94.6409
97.0049
97.3048
94.9422
108.672
120.22
129.205
131.944
121.375
109.129
95.3236
97.6862
98.0349
95.5359
108.826
120.944
131.494
127.071
118.556
107.382
95.4362
98.4868
98.8987
95.2459
107.245
118.909
129.23
127.104
118.401
107.183
95.0056
99.4015
99.756
95.077
107.743
119.566
130.039
128.031
119.214
107.897
95.2848
100.108
100.459
95.5119
108.619
120.545
131.136
129.187
120.237
108.848
95.7909
100.76
101.138
96.0496
109.325
121.442
132.001
131.602
121.065
109.094
96.4898
101.51
101.982
96.2647
107.713
118.752
127.186
129.435
119.139
107.629
96.0702
102.462
103.006
95.8752
107.564
118.675
127.326
130.288
119.841
108.142
95.9799
103.307
103.812
96.1384
108.284
119.528
128.308
131.439
120.845
108.989
96.3738
104.044
104.49
96.6787
109.261
120.569
129.522
132.351
121.766
109.714
96.8639
104.876
105.496
97.1214
109.402
121.347
131.94
127.44
118.946
107.903
96.8734
105.985
106.704
96.6953
107.789
119.323
129.694
127.513
118.825
107.691
96.454
107.114
107.623
96.5811
108.328
120.02
130.483
128.483
119.688
108.446
96.7248
107.855
108.196
97.0153
109.211
121.076
131.667
129.734
120.8
109.45
97.2994
108.469
108.847
97.6181
110.056
122.059
132.688
132.302
121.713
109.81
98.1531
109.368
109.865
98.1239
108.518
119.478
127.907
130.26
119.904
108.49
98.0177
110.588
111.105
97.7659
108.419
119.459
128.129
131.139
120.622
109.021
97.832
111.64
112.004
97.8802
109.142
120.318
129.109
132.342
121.628
109.783
98.1215
112.487
112.867
98.3405
110.022
121.333
130.359
133.366
122.627
110.563
98.5724
113.291
113.878
99.1816
110.41
122.326
133.021
128.617
120.148
109.23
99.236
114.411
115.126
99.1566
109.244
120.584
130.995
128.894
120.157
109.182
99.0612
115.636
116.246
99.2351
109.876
121.457
131.989
130.059
121.187
110.074
99.447
116.338
116.758
99.7719
110.93
122.735
133.421
131.581
122.519
111.276
100.137
116.944
117.438
100.398
111.9
123.944
134.749
134.491
123.686
111.799
100.732
118.143
118.779
101.049
110.74