/*--------------------------------*- C++ -*----------------------------------*\
| =========                 |                                                 |
| \\      /  F ield         | OpenFOAM: The Open Source CFD Toolbox           |
|  \\    /   O peration     | Version:  v2006                                 |
|   \\  /    A nd           | Website:  www.openfoam.com                      |
|    \\/     M anipulation  |                                                 |
\*---------------------------------------------------------------------------*/
FoamFile
{
    version     2.0;
    format      ascii;
    class       surfaceScalarField;
    location    "0.055";
    object      phi;
}
// * * * * * * * * * * * * * * * * * * * * * * * * * * * * * * * * * * * * * //

dimensions      [1 0 -1 0 0 0 0];
oriented        oriented;


internalField   nonuniform List<scalar> 
45630
(
-2.38003e-05
-0.00100042
0.000982454
4.1839e-05
-0.000935197
0.000911356
9.61996e-06
6.12984e-05
9.39651e-06
0.00109293
3.76013e-05
0.0012056
-1.08151e-05
0.00126611
2.46424e-06
0.00131042
-6.71673e-06
0.00131983
-1.05427e-06
0.0013244
-7.692e-07
0.00132259
-3.58813e-07
0.00132023
-5.35155e-07
0.00131754
-6.34277e-07
0.00131546
-7.22891e-07
0.00131337
-8.03737e-07
0.00131148
-8.79416e-07
0.00130957
-9.5169e-07
0.00130763
-1.02147e-06
0.00130563
-1.08907e-06
0.00130355
-1.1545e-06
0.00130139
-1.21774e-06
0.00129915
-1.27883e-06
0.00129682
-1.33793e-06
0.00129441
-1.39527e-06
0.00129192
-1.45114e-06
0.00128934
-1.50578e-06
0.00128669
-1.55943e-06
0.00128395
-1.61223e-06
0.00128113
-1.60046e-06
0.00127816
-1.65201e-06
0.00127524
-1.70294e-06
0.00127218
-1.81665e-06
0.00126909
-1.86623e-06
0.00126581
-1.91514e-06
0.0012625
-1.96338e-06
0.00125912
-2.01089e-06
0.00125566
-2.05763e-06
0.00125213
-2.10353e-06
0.00124852
-2.14855e-06
0.00124484
-2.19264e-06
0.00124109
-2.23572e-06
0.00123727
-2.27776e-06
0.00123338
-2.31868e-06
0.00122943
-2.35845e-06
0.00122541
-2.397e-06
0.00122134
-2.43427e-06
0.0012172
-2.47022e-06
0.001213
-2.50479e-06
0.00120875
-2.53794e-06
0.00120445
-2.56962e-06
0.0012001
-2.59978e-06
0.00119569
-2.62837e-06
0.00119125
-2.65536e-06
0.00118676
-2.68069e-06
0.00118222
-2.70433e-06
0.00117765
-2.72623e-06
0.00117305
-2.74635e-06
0.00116841
-2.76466e-06
0.00116374
-2.7811e-06
0.00115904
-2.79564e-06
0.00115433
-2.80824e-06
0.00114958
-2.81885e-06
0.00114483
-2.82743e-06
0.00114005
-2.83394e-06
0.00113527
-2.83833e-06
0.00113047
-2.84057e-06
0.00112567
-2.8406e-06
0.00112087
-2.8384e-06
0.00111607
-2.83393e-06
0.00111127
-2.82717e-06
0.00110648
-2.81811e-06
0.00110171
-2.80681e-06
0.00109695
-2.79295e-06
0.0010922
-2.77618e-06
0.00108749
-2.75697e-06
0.00108279
-2.73551e-06
0.00107813
-2.71164e-06
0.0010735
-2.68534e-06
0.00106891
-2.6564e-06
0.00106436
-2.62489e-06
0.00105986
-2.59081e-06
0.00105541
-2.55414e-06
0.00105101
-2.51487e-06
0.00104667
-2.47301e-06
0.00104239
-2.42858e-06
0.00103817
-2.3816e-06
0.00103403
-2.3321e-06
0.00102996
-2.28011e-06
0.00102597
-2.22563e-06
0.00102205
-2.1687e-06
0.00101823
-2.10932e-06
0.00101449
-2.04745e-06
0.00101084
-1.98302e-06
0.00100729
-1.9159e-06
0.00100384
-1.84587e-06
0.00100049
-1.77268e-06
0.000997242
-1.69609e-06
0.000994103
-1.61592e-06
0.000991075
-1.53209e-06
0.000988163
-1.44453e-06
0.00098537
-1.35273e-06
0.000982692
-1.25495e-06
0.000980117
-1.14727e-06
0.000977621
-5.35847e-07
0.000974683
-8.74327e-07
0.000972252
-6.99927e-07
0.00096793
-1.96795e-06
0.000961884
-3.26135e-06
0.000953461
-1.42694e-05
0.000938593
-2.14678e-05
0.000919134
-6.29881e-05
0.000891345
-0.000103581
0.000870877
-0.000239365
0.000871117
-0.000513263
0.000986146
-0.000144948
0.000252474
1.39201e-05
0.000416267
-6.62515e-07
0.000526447
-2.2942e-05
0.000462358
-1.11541e-05
0.000395315
-7.03112e-06
0.000141161
-3.88065e-06
0.000117574
9.42751e-05
6.29826e-06
8.79765e-05
1.37283e-05
0.000110144
0.000133157
2.17328e-05
-1.10327e-05
0.000127357
1.68331e-05
-5.50152e-06
0.000104612
8.2475e-05
2.37935e-06
8.00978e-05
3.64842e-06
0.000103344
0.00012641
4.59137e-06
-5.85052e-06
0.000123383
8.87836e-06
-3.04855e-06
0.000100541
7.70483e-05
1.61971e-06
7.54189e-05
2.02447e-06
0.000100135
0.000122788
2.63758e-06
-4.21472e-06
0.000120651
6.34599e-06
-2.35845e-06
9.82789e-05
7.30638e-05
5.0753e-07
7.25627e-05
4.17602e-07
9.83695e-05
0.000120481
5.77488e-07
-3.03971e-06
0.000119266
4.3174e-06
-1.6699e-06
9.69951e-05
7.08565e-05
-1.18371e-07
7.09603e-05
-2.20202e-07
9.70958e-05
0.000120014
-9.44314e-07
-2.99896e-06
0.000118738
4.1441e-06
-1.60794e-06
9.57114e-05
6.94311e-05
-2.26357e-07
6.96477e-05
-3.3018e-07
9.5815e-05
0.000119456
-1.03334e-06
-2.31723e-06
0.000118179
3.63648e-06
-1.40029e-06
9.48946e-05
6.82218e-05
-2.92982e-07
6.85165e-05
-4.07264e-07
9.50091e-05
0.000118866
-1.09828e-06
-2.24945e-06
0.000117577
3.53539e-06
-1.34585e-06
9.41056e-05
6.71731e-05
-3.4003e-07
6.75249e-05
-4.64254e-07
9.42304e-05
0.000118252
-1.15849e-06
-2.09416e-06
0.00011697
3.51662e-06
-1.21342e-06
9.33417e-05
6.6228e-05
-3.36674e-07
6.66225e-05
-4.73258e-07
9.34807e-05
0.000117614
-1.21305e-06
-2.005e-06
0.000116335
3.47665e-06
-1.13271e-06
9.25989e-05
6.5376e-05
-4.84778e-07
6.5775e-05
-6.36378e-07
9.27423e-05
0.000117033
-1.19126e-06
-2.27806e-06
0.000115675
3.25834e-06
-1.41593e-06
9.18943e-05
6.45867e-05
-4.46011e-07
6.50057e-05
-5.92456e-07
9.20387e-05
0.000116352
-1.22713e-06
-1.90089e-06
0.000115065
3.41215e-06
-1.05842e-06
9.11841e-05
6.38126e-05
-4.04215e-07
6.4271e-05
-5.59266e-07
9.13428e-05
0.00011569
-1.27161e-06
-1.85065e-06
0.000114417
3.38405e-06
-1.02029e-06
9.04992e-05
6.30961e-05
-4.32508e-07
6.3559e-05
-5.88655e-07
9.06573e-05
0.000115051
-1.271e-06
-1.91246e-06
0.000113762
3.30398e-06
-1.07707e-06
8.98156e-05
6.24192e-05
-4.59372e-07
6.28801e-05
-6.16652e-07
8.99728e-05
0.000114418
-1.27388e-06
-2.00144e-06
0.000113096
3.23297e-06
-1.16686e-06
8.91411e-05
6.17664e-05
-5.02201e-07
6.22087e-05
-6.6409e-07
8.92974e-05
0.000113762
-1.23164e-06
-2.08038e-06
0.000112408
3.16708e-06
-1.25442e-06
8.84797e-05
6.11173e-05
-5.09915e-07
6.15626e-05
-6.66489e-07
8.86313e-05
0.00011307
-1.2213e-06
-2.01367e-06
0.000111747
3.16261e-06
-1.1817e-06
8.78055e-05
6.04856e-05
-4.46696e-07
6.09593e-05
-5.90088e-07
8.79516e-05
0.000112387
-1.2719e-06
-1.77238e-06
0.000111082
3.29362e-06
-9.68449e-07
8.71369e-05
5.98604e-05
-4.34883e-07
6.03376e-05
-5.79706e-07
8.7283e-05
0.00011168
-1.24912e-06
-1.84994e-06
0.000110385
3.22359e-06
-1.026e-06
8.6455e-05
5.9267e-05
-5.19218e-07
5.9714e-05
-6.67128e-07
8.65973e-05
0.000111011
-1.17027e-06
-2.05659e-06
0.000109631
3.13602e-06
-1.23964e-06
8.57891e-05
5.86548e-05
-4.84733e-07
5.90846e-05
-6.21404e-07
8.59213e-05
0.000110255
-1.15303e-06
-1.96796e-06
0.000108925
3.16562e-06
-1.13526e-06
8.50931e-05
5.80295e-05
-4.29404e-07
5.84619e-05
-5.53511e-07
8.52185e-05
0.000109531
-1.15966e-06
-1.90215e-06
0.000108217
3.21912e-06
-1.06579e-06
8.43819e-05
5.73946e-05
-4.18452e-07
5.78032e-05
-5.44407e-07
8.45068e-05
0.000108778
-1.09008e-06
-1.93393e-06
0.000107453
3.22418e-06
-1.08913e-06
8.3663e-05
5.67337e-05
-3.70325e-07
5.71335e-05
-4.81362e-07
8.37765e-05
0.000107991
-1.06778e-06
-1.82605e-06
0.000106661
3.31184e-06
-9.9182e-07
8.2934e-05
5.60487e-05
-3.92074e-07
5.64439e-05
-4.86848e-07
8.30295e-05
0.0001072
-1.0297e-06
-1.92941e-06
0.000105867
3.25058e-06
-1.07352e-06
8.21743e-05
5.53781e-05
-3.75086e-07
5.57477e-05
-4.67212e-07
8.22661e-05
0.000106382
-9.72723e-07
-1.95765e-06
0.000105034
3.25278e-06
-1.09448e-06
8.14048e-05
5.46839e-05
-3.66364e-07
5.50401e-05
-4.46011e-07
8.1484e-05
0.000105538
-9.32096e-07
-1.97521e-06
0.00010418
3.25461e-06
-1.10616e-06
8.06181e-05
5.39806e-05
-3.49508e-07
5.43269e-05
-4.16233e-07
8.0685e-05
0.000104669
-8.98419e-07
-1.9419e-06
0.000103317
3.27816e-06
-1.06776e-06
7.98116e-05
5.32682e-05
-3.25678e-07
5.36067e-05
-3.82426e-07
7.98692e-05
0.000103775
-8.61452e-07
-1.88394e-06
0.00010242
3.32069e-06
-1.01063e-06
7.8991e-05
5.25469e-05
-3.41179e-07
5.2871e-05
-3.88036e-07
7.90363e-05
0.000102869
-8.07861e-07
-2.00664e-06
0.000101486
3.26093e-06
-1.12251e-06
7.81571e-05
5.18248e-05
-3.09147e-07
5.21393e-05
-3.405e-07
7.81896e-05
0.000101928
-7.88923e-07
-1.90859e-06
0.000100566
3.31035e-06
-1.02365e-06
7.73025e-05
5.10922e-05
-3.05176e-07
5.13978e-05
-3.31271e-07
7.73286e-05
0.000100975
-7.4143e-07
-1.92336e-06
9.96068e-05
3.30228e-06
-1.03409e-06
7.64386e-05
5.03572e-05
-2.92723e-07
5.06532e-05
-3.09642e-07
7.64558e-05
0.000100001
-7.09322e-07
-1.90845e-06
9.86321e-05
3.30339e-06
-1.01831e-06
7.55642e-05
4.96194e-05
-2.9252e-07
4.99057e-05
-3.02598e-07
7.55738e-05
9.90152e-05
-6.75454e-07
-1.94614e-06
9.76421e-05
3.26752e-06
-1.05309e-06
7.4683e-05
4.88838e-05
-2.73774e-07
4.91656e-05
-2.77095e-07
7.46869e-05
9.80105e-05
-6.58954e-07
-1.8599e-06
9.66477e-05
3.29133e-06
-9.75545e-07
7.37985e-05
4.8149e-05
-2.76442e-07
4.84278e-05
-2.76895e-07
7.37993e-05
9.70065e-05
-6.39277e-07
-1.87127e-06
9.56474e-05
3.24974e-06
-9.89544e-07
7.29164e-05
4.74268e-05
-2.77208e-07
4.77026e-05
-2.78677e-07
7.29176e-05
9.60024e-05
-6.3182e-07
-1.8648e-06
9.46519e-05
3.20224e-06
-9.91096e-07
7.20442e-05
4.67189e-05
-2.76048e-07
4.69978e-05
-2.81807e-07
7.205e-05
9.50052e-05
-6.40439e-07
-1.80704e-06
9.36729e-05
3.16518e-06
-9.49257e-07
7.11905e-05
4.60327e-05
-2.87225e-07
4.63188e-05
-3.03339e-07
7.12063e-05
9.40318e-05
-6.61086e-07
-1.78493e-06
9.2719e-05
3.08454e-06
-9.45612e-07
7.03673e-05
4.53807e-05
-3.02797e-07
4.5679e-05
-3.36065e-07
7.03998e-05
9.30929e-05
-7.03272e-07
-1.74129e-06
9.18085e-05
2.98763e-06
-9.28458e-07
6.95883e-05
4.47731e-05
-3.27328e-07
4.50909e-05
-3.85828e-07
6.96457e-05
9.22058e-05
-7.68021e-07
-1.68299e-06
9.09557e-05
2.86686e-06
-9.06159e-07
6.88708e-05
4.4224e-05
-3.57884e-07
4.45715e-05
-4.498e-07
6.89622e-05
9.13892e-05
-8.65599e-07
-1.58071e-06
9.01916e-05
2.73034e-06
-8.50053e-07
6.82329e-05
4.375e-05
-3.96406e-07
4.41389e-05
-5.35638e-07
6.83717e-05
9.06698e-05
-1.00119e-06
-1.46437e-06
8.95329e-05
2.5563e-06
-7.92352e-07
6.7701e-05
4.33732e-05
-4.69219e-07
4.38142e-05
-6.70446e-07
6.79007e-05
9.00782e-05
-1.16818e-06
-1.31915e-06
8.90282e-05
2.34221e-06
-7.18188e-07
6.73006e-05
4.31119e-05
-4.43354e-07
4.36328e-05
-7.13551e-07
6.75757e-05
8.96311e-05
-1.44276e-06
-9.9994e-07
8.86864e-05
2.17695e-06
-5.09739e-07
6.70756e-05
4.29827e-05
-5.10462e-07
4.35838e-05
-8.60024e-07
6.74322e-05
8.93995e-05
-1.72603e-06
-1.07502e-06
8.8531e-05
1.72577e-06
-6.54341e-07
6.70199e-05
4.30604e-05
-8.23032e-07
4.37109e-05
-1.30333e-06
6.7489e-05
8.93997e-05
-1.88493e-06
-7.94788e-07
8.86654e-05
1.4573e-06
-4.83052e-07
6.718e-05
4.32724e-05
-6.83803e-07
4.40567e-05
-1.2722e-06
6.77768e-05
8.9611e-05
-2.38678e-06
-4.30087e-07
8.90786e-05
1.13173e-06
-2.47046e-07
6.75869e-05
4.37053e-05
-7.28301e-07
4.46369e-05
-1.45007e-06
6.83228e-05
9.0178e-05
-2.88829e-06
-2.56126e-07
8.97625e-05
7.03361e-07
-2.2293e-07
6.8286e-05
4.43934e-05
-1.01143e-06
4.54348e-05
-1.90229e-06
6.91801e-05
9.10556e-05
-3.2506e-06
-4.18857e-08
9.07738e-05
2.97901e-07
-1.41586e-07
6.92816e-05
4.53078e-05
-1.26842e-06
4.64662e-05
-2.31172e-06
7.03165e-05
9.22843e-05
-3.63322e-06
1.93393e-07
9.21308e-05
-4.52719e-08
-3.93395e-08
7.05486e-05
4.64287e-05
-1.26005e-06
4.77096e-05
-2.43514e-06
7.17266e-05
9.3781e-05
-4.12181e-06
3.72256e-07
9.37856e-05
-3.90972e-07
3.33814e-08
7.20669e-05
4.77509e-05
-1.42218e-06
4.91371e-05
-2.72746e-06
7.33681e-05
9.56029e-05
-4.48322e-06
5.47346e-07
9.57237e-05
-6.48076e-07
1.10717e-07
7.38035e-05
4.92358e-05
-1.43661e-06
5.07098e-05
-2.83842e-06
7.52095e-05
9.76715e-05
-4.85028e-06
6.31094e-07
9.78784e-05
-8.47087e-07
1.25681e-07
7.57153e-05
5.08407e-05
-1.54269e-06
5.23709e-05
-3.02745e-06
7.7199e-05
9.99424e-05
-5.07027e-06
6.92831e-07
0.000100205
-9.50607e-07
1.4317e-07
7.77484e-05
5.25111e-05
-1.56066e-06
5.40797e-05
-3.09614e-06
7.92843e-05
0.000102349
-5.25366e-06
6.90501e-07
0.000102639
-9.90051e-07
1.22144e-07
7.9853e-05
5.42072e-05
-1.6014e-06
5.57909e-05
-3.16692e-06
8.1417e-05
0.00010484
-5.3393e-06
6.5684e-07
0.00010513
-9.56895e-07
9.20928e-08
8.19823e-05
5.58888e-05
-1.60375e-06
5.7473e-05
-3.17557e-06
8.35522e-05
0.000107358
-5.37067e-06
5.9866e-07
0.000107628
-8.61634e-07
5.65845e-08
8.40936e-05
5.75255e-05
-1.55955e-06
5.90985e-05
-3.116e-06
8.5651e-05
0.000109857
-5.36844e-06
4.991e-07
0.000110083
-7.32061e-07
-5.54037e-09
8.61535e-05
5.90979e-05
-1.57535e-06
6.065e-05
-3.10508e-06
8.76809e-05
0.000112304
-5.28675e-06
3.91431e-07
0.000112472
-5.63829e-07
-5.95149e-08
8.8132e-05
6.05924e-05
-1.53959e-06
6.21198e-05
-3.03029e-06
8.96209e-05
0.000114664
-5.20092e-06
2.78091e-07
0.00011477
-3.72646e-07
-1.14962e-07
9.00132e-05
6.19976e-05
-1.46699e-06
6.34946e-05
-2.90761e-06
9.14576e-05
0.000116922
-5.11201e-06
1.39011e-07
0.000116954
-1.75932e-07
-1.89982e-07
9.17863e-05
6.33068e-05
-1.46584e-06
6.4763e-05
-2.86167e-06
9.31806e-05
0.00011907
-4.96056e-06
3.33883e-09
0.000119026
4.12636e-08
-2.60467e-07
9.34447e-05
6.45019e-05
-1.39572e-06
6.59069e-05
-2.74082e-06
9.4791e-05
0.000121094
-4.82578e-06
-1.39797e-07
0.000120978
2.54525e-07
-3.39366e-07
9.49904e-05
6.55682e-05
-1.35133e-06
6.69199e-05
-2.64442e-06
9.62836e-05
0.000122998
-4.66674e-06
-2.79162e-07
0.000122804
4.76205e-07
-4.10551e-07
9.64147e-05
6.65073e-05
-1.29705e-06
6.78078e-05
-2.5322e-06
9.76499e-05
0.000124769
-4.50286e-06
-4.14813e-07
0.000124493
7.08153e-07
-4.752e-07
9.77092e-05
6.73216e-05
-1.2308e-06
6.8569e-05
-2.40225e-06
9.8882e-05
0.000126393
-4.33062e-06
-5.54601e-07
0.000126031
9.46323e-07
-5.40297e-07
9.88662e-05
6.80099e-05
-1.15759e-06
6.92039e-05
-2.26036e-06
9.99722e-05
0.000127858
-4.14874e-06
-6.78978e-07
0.000127408
1.1993e-06
-5.87619e-07
9.98775e-05
6.85731e-05
-1.09238e-06
6.97128e-05
-2.12371e-06
0.000100913
0.000129156
-3.95212e-06
-8.18072e-07
0.000128611
1.44548e-06
-6.47186e-07
0.000100738
6.90154e-05
-1.05668e-06
7.00967e-05
-2.01682e-06
0.0001017
0.000130283
-3.73045e-06
-9.99672e-07
0.000129633
1.66462e-06
-7.45937e-07
0.000101445
6.93407e-05
-1.04395e-06
7.03602e-05
-1.93314e-06
0.000102332
0.000131232
-3.4923e-06
-1.20514e-06
0.000130477
1.8642e-06
-8.68069e-07
0.000101998
6.95501e-05
-9.86299e-07
7.05159e-05
-1.80171e-06
0.000102811
0.000131993
-3.28446e-06
-1.29829e-06
0.000131153
2.10688e-06
-8.87178e-07
0.000102401
6.96474e-05
-8.8795e-07
7.05726e-05
-1.62972e-06
0.000103146
0.000132573
-3.11208e-06
-1.30651e-06
0.000131663
2.3702e-06
-8.32852e-07
0.000102665
6.96483e-05
-8.48085e-07
7.05369e-05
-1.52307e-06
0.000103342
0.000133015
-2.93865e-06
-1.4615e-06
0.000132006
2.52829e-06
-9.25647e-07
0.000102804
6.95738e-05
-8.84119e-07
7.04093e-05
-1.51214e-06
0.000103429
0.000133305
-2.73098e-06
-1.68088e-06
0.000132221
2.58744e-06
-1.08291e-06
0.000102836
6.9434e-05
-8.35128e-07
7.02471e-05
-1.41261e-06
0.000103411
0.000133473
-2.62855e-06
-1.57926e-06
0.000132341
2.80084e-06
-9.57483e-07
0.000102783
6.92327e-05
-7.2054e-07
7.00549e-05
-1.24152e-06
0.00010331
0.000133533
-2.59894e-06
-1.56552e-06
0.000132384
2.92443e-06
-9.22037e-07
0.000102657
6.90071e-05
-7.53222e-07
6.97855e-05
-1.27331e-06
0.000103178
0.000133513
-2.45192e-06
-1.82852e-06
0.000132278
2.85407e-06
-1.14091e-06
0.0001025
6.87727e-05
-9.11098e-07
6.95327e-05
-1.39666e-06
0.000102978
0.000133466
-2.33753e-06
-1.7483e-06
0.000132213
2.94648e-06
-1.0643e-06
0.000102295
6.85005e-05
-6.15723e-07
6.92944e-05
-1.08676e-06
0.000102777
0.000133295
-2.46278e-06
-1.58111e-06
0.000132094
3.05881e-06
-8.85414e-07
0.000102068
6.82403e-05
-7.06623e-07
6.8995e-05
-1.2059e-06
0.000102568
0.000133151
-2.34731e-06
-1.90979e-06
0.000131868
2.88568e-06
-1.17592e-06
0.000101846
6.80066e-05
-9.26713e-07
6.87492e-05
-1.40671e-06
0.000102315
0.000133012
-2.2454e-06
-1.74983e-06
0.000131739
2.96982e-06
-1.0389e-06
0.000101606
6.77428e-05
-5.87257e-07
6.8537e-05
-1.05706e-06
0.000102089
0.000132779
-2.44e-06
-1.55331e-06
0.000131567
3.06485e-06
-8.48092e-07
0.000101369
6.75075e-05
-7.41958e-07
6.82707e-05
-1.24348e-06
0.000101869
0.000132608
-2.32483e-06
-1.84895e-06
0.000131319
2.88967e-06
-1.11717e-06
0.000101147
6.7306e-05
-9.40019e-07
6.80562e-05
-1.42862e-06
0.000101624
0.000132456
-2.24893e-06
-1.78866e-06
0.000131173
2.89862e-06
-1.0767e-06
0.000100918
6.70841e-05
-6.2644e-07
6.78836e-05
-1.11208e-06
0.000101414
0.000132211
-2.4352e-06
-1.49949e-06
0.000131016
3.03674e-06
-7.99667e-07
0.0001007
6.6877e-05
-6.49305e-07
6.767e-05
-1.14362e-06
0.000101201
0.00013205
-2.42312e-06
-1.80761e-06
0.000130751
2.87265e-06
-1.1024e-06
0.000100508
6.67095e-05
-9.68703e-07
6.74758e-05
-1.46141e-06
0.000100987
0.000131899
-2.27309e-06
-1.75436e-06
0.000130625
2.85033e-06
-1.05723e-06
0.000100296
6.65287e-05
-6.58909e-07
6.73316e-05
-1.16026e-06
0.000100807
0.000131678
-2.44924e-06
-1.55423e-06
0.000130469
2.9449e-06
-8.63819e-07
0.000100107
6.63551e-05
-6.82137e-07
6.71705e-05
-1.18381e-06
0.000100617
0.000131508
-2.44437e-06
-1.50374e-06
0.000130304
2.96434e-06
-8.20731e-07
9.99238e-05
6.61968e-05
-7.03128e-07
6.69892e-05
-1.22122e-06
0.000100444
0.000131352
-2.42388e-06
-1.78284e-06
0.00013008
2.79542e-06
-1.08422e-06
9.97595e-05
6.60653e-05
-9.54295e-07
6.68428e-05
-1.46611e-06
0.00010026
0.000131224
-2.31669e-06
-1.63702e-06
0.000129971
2.85111e-06
-9.56918e-07
9.95818e-05
6.59065e-05
-6.68548e-07
6.67109e-05
-1.18093e-06
0.000100104
0.000131045
-2.47723e-06
-1.66954e-06
0.000129795
2.83298e-06
-9.88772e-07
9.94266e-05
6.57718e-05
-8.6438e-07
6.65637e-05
-1.39088e-06
9.99493e-05
0.00013088
-2.36074e-06
-1.4341e-06
0.000129695
2.92886e-06
-7.65228e-07
9.92674e-05
6.56151e-05
-6.57767e-07
6.64326e-05
-1.17424e-06
9.97929e-05
0.000130752
-2.49804e-06
-1.75098e-06
0.000129478
2.76292e-06
-1.07677e-06
9.91297e-05
6.55122e-05
-9.76506e-07
6.62946e-05
-1.49566e-06
9.96367e-05
0.000130643
-2.33494e-06
-1.64788e-06
0.0001294
2.78944e-06
-9.78532e-07
9.89718e-05
6.53776e-05
-6.6227e-07
6.61956e-05
-1.18376e-06
9.95033e-05
0.000130462
-2.5046e-06
-1.44979e-06
0.000129288
2.88575e-06
-7.91305e-07
9.88333e-05
6.52462e-05
-6.78212e-07
6.60619e-05
-1.20309e-06
9.93649e-05
0.000130351
-2.49883e-06
-1.63002e-06
0.000129111
2.80372e-06
-9.63059e-07
9.87018e-05
6.51369e-05
-9.30033e-07
6.59225e-05
-1.46064e-06
9.92242e-05
0.000130251
-2.36171e-06
-1.6786e-06
0.00012899
2.75279e-06
-1.0115e-06
9.85649e-05
6.50246e-05
-8.79438e-07
6.58115e-05
-1.42036e-06
9.91026e-05
0.000130097
-2.37319e-06
-1.49025e-06
0.000128884
2.85739e-06
-8.35843e-07
9.84436e-05
6.48825e-05
-6.5977e-07
6.57154e-05
-1.17415e-06
9.89667e-05
0.000129961
-2.53736e-06
-1.46184e-06
0.000128774
2.84691e-06
-8.1232e-07
9.83093e-05
6.47839e-05
-8.22464e-07
6.55755e-05
-1.37138e-06
9.88522e-05
0.000129874
-2.41975e-06
-1.77533e-06
0.000128622
2.66045e-06
-1.09939e-06
9.81891e-05
6.46963e-05
-9.72978e-07
6.54722e-05
-1.51906e-06
9.87219e-05
0.000129778
-2.34744e-06
-1.57098e-06
0.000128553
2.77758e-06
-9.16428e-07
9.80703e-05
6.45667e-05
-6.40065e-07
6.53809e-05
-1.17208e-06
9.86128e-05
0.000129642
-2.55142e-06
-1.61862e-06
0.000128417
2.7179e-06
-9.88696e-07
9.79864e-05
6.44655e-05
-9.9844e-07
6.5259e-05
-2.06469e-06
9.90409e-05
0.000129621
-2.92501e-06
-9.96365e-07
0.00012902
1.63099e-06
-4.53944e-07
9.84983e-05
6.47878e-05
-1.07358e-06
6.60995e-05
-2.71511e-06
0.000100158
0.000131322
-5.41473e-06
1.25205e-06
0.000132594
-2.29655e-06
6.15211e-07
0.000100789
6.65774e-05
-3.42912e-06
7.02202e-05
-8.87029e-06
0.000106249
0.00013951
-1.61594e-05
7.19643e-06
0.000144182
-1.16676e-05
2.82075e-06
0.000110617
7.29241e-05
-1.352e-06
7.43216e-05
-3.52063e-06
0.00011279
0.000146453
-5.87183e-06
5.91229e-06
0.000150969
-1.03958e-05
2.62512e-06
0.000116077
7.69289e-05
-4.2692e-07
-1.89807e-06
-3.48819e-06
-2.64954e-05
-0.000433403
-1.69119e-06
-0.000481981
-1.55102e-05
-0.000532474
7.12253e-06
-0.000556345
-3.65101e-07
-0.000576566
4.1873e-06
-0.000577633
1.83956e-06
-0.000576543
2.37951e-06
-0.000570699
8.07357e-06
-0.000560671
1.31977e-05
-0.000548683
3.65113e-05
-0.000530348
6.25012e-05
-0.000518986
0.000140155
-0.00051674
0.00030455
-0.000586268
8.18174e-05
-0.000155292
-1.27836e-05
-0.000250249
-7.80884e-06
-0.000326818
1.08247e-05
-0.000290178
2.68866e-06
-0.000244558
1.58688e-06
-8.54419e-05
5.8837e-07
-5.68077e-05
-3.03309e-05
-2.08425e-06
-2.82469e-05
-5.17772e-06
-5.37199e-05
-8.149e-05
-9.12957e-06
3.85878e-06
-7.80189e-05
-7.32924e-06
1.32977e-06
-5.1185e-05
-2.69181e-05
-5.34172e-07
-2.63776e-05
-7.60835e-07
-5.09661e-05
-7.6852e-05
-1.92612e-06
1.95739e-06
-7.55957e-05
-3.22384e-06
5.3229e-07
-4.95183e-05
-2.58598e-05
-4.24777e-07
-2.54236e-05
-5.90792e-07
-4.93758e-05
-7.54917e-05
-6.86735e-07
9.99684e-07
-7.39062e-05
-2.58698e-06
4.69412e-07
-4.88392e-05
-2.49549e-05
-5.39622e-08
-2.4898e-05
-4.75458e-07
-4.84138e-05
-7.3833e-05
-5.47541e-07
8.89773e-07
-7.32227e-05
-1.50098e-06
3.86275e-07
-4.79138e-05
-2.45143e-05
-1.91746e-08
-2.44971e-05
4.13816e-07
-4.83487e-05
-7.28273e-05
1.88355e-08
4.17707e-07
-7.23154e-05
-9.30356e-07
1.44003e-08
-4.79445e-05
-2.44816e-05
4.24192e-08
-2.45177e-05
4.95748e-07
-4.83916e-05
-7.28478e-05
1.03089e-06
8.53693e-07
-7.27747e-05
-9.283e-07
1.99409e-08
-4.75615e-05
-2.45013e-05
4.37937e-08
-2.45504e-05
4.7669e-07
-4.79993e-05
-7.33217e-05
1.02283e-06
4.016e-07
-7.28002e-05
-9.22356e-07
9.72045e-09
-4.76041e-05
-2.45372e-05
4.75363e-08
-2.45781e-05
9.13857e-07
-4.84643e-05
-7.29103e-05
1.02577e-06
8.63387e-07
-7.28526e-05
-9.22099e-07
2.77556e-08
-4.76327e-05
-2.45545e-05
4.25411e-08
-2.46029e-05
4.76064e-07
-4.80717e-05
-7.34031e-05
1.02532e-06
4.00459e-07
-7.28818e-05
-9.20506e-07
8.71846e-09
-4.76753e-05
-2.45893e-05
4.75846e-08
-2.46308e-05
9.14675e-07
-4.85367e-05
-7.29914e-05
1.02607e-06
8.64729e-07
-7.29342e-05
-9.23356e-07
2.79322e-08
-4.77048e-05
-2.46078e-05
4.29573e-08
-2.46558e-05
4.7768e-07
-4.81442e-05
-7.34848e-05
1.02728e-06
4.00121e-07
-7.29636e-05
-9.19979e-07
8.23872e-09
-4.77475e-05
-2.46425e-05
4.75058e-08
-2.46844e-05
9.15491e-07
-4.86102e-05
-7.30731e-05
1.02669e-06
8.64839e-07
-7.30167e-05
-9.22821e-07
2.7476e-08
-4.77779e-05
-2.46621e-05
4.36372e-08
-2.47101e-05
4.79695e-07
-4.8218e-05
-7.35678e-05
1.03011e-06
4.00064e-07
-7.30471e-05
-9.19678e-07
7.94897e-09
-4.78215e-05
-2.46975e-05
4.76994e-08
-2.47399e-05
9.17159e-07
-4.86859e-05
-7.31568e-05
1.02856e-06
8.63967e-07
-7.31014e-05
-9.2097e-07
2.64724e-08
-4.78532e-05
-2.47181e-05
4.4219e-08
-2.47664e-05
4.81297e-07
-4.8294e-05
-7.36532e-05
1.03261e-06
4.00535e-07
-7.3133e-05
-9.20062e-07
8.0076e-09
-4.7898e-05
-2.47548e-05
4.80247e-08
-2.47976e-05
9.19148e-07
-4.87641e-05
-7.32429e-05
1.03065e-06
8.62632e-07
-7.31882e-05
-9.1865e-07
2.51671e-08
-4.79305e-05
-2.47762e-05
4.45796e-08
-2.48248e-05
4.82463e-07
-4.83722e-05
-7.37408e-05
1.03447e-06
4.01374e-07
-7.32209e-05
-9.20945e-07
8.20252e-09
-4.79765e-05
-2.4814e-05
4.82643e-08
-2.48571e-05
9.21056e-07
-4.88443e-05
-7.33308e-05
1.03254e-06
8.61471e-07
-7.32767e-05
-9.16657e-07
2.38683e-08
-4.80096e-05
-2.48361e-05
4.47318e-08
-2.48851e-05
4.83159e-07
-4.84521e-05
-7.38299e-05
1.03566e-06
4.02173e-07
-7.33101e-05
-9.21906e-07
8.32587e-09
-4.80565e-05
-2.4875e-05
4.84889e-08
-2.49181e-05
9.22927e-07
-4.89258e-05
-7.34198e-05
1.03428e-06
8.60728e-07
-7.33661e-05
-9.15228e-07
2.2737e-08
-4.80898e-05
-2.48974e-05
4.46966e-08
-2.49468e-05
4.83456e-07
-4.85332e-05
-7.39199e-05
1.03626e-06
4.02953e-07
-7.33999e-05
-9.22941e-07
8.38697e-09
-4.81374e-05
-2.49373e-05
4.86835e-08
-2.49804e-05
9.246e-07
-4.9008e-05
-7.35093e-05
1.03567e-06
8.60389e-07
-7.34558e-05
-9.14393e-07
2.18281e-08
-4.81708e-05
-2.49599e-05
4.472e-08
-2.50096e-05
4.83884e-07
-4.86148e-05
-7.40099e-05
1.03685e-06
4.03893e-07
-7.34895e-05
-9.24263e-07
8.4703e-09
-4.82186e-05
-2.50004e-05
4.86486e-08
-2.50436e-05
9.25659e-07
-4.90904e-05
-7.35985e-05
1.03623e-06
8.60481e-07
-7.35451e-05
-9.14163e-07
2.11308e-08
-4.82519e-05
-2.50233e-05
4.48815e-08
-2.5073e-05
4.84659e-07
-4.86963e-05
-7.40993e-05
1.03772e-06
4.04936e-07
-7.35785e-05
-9.25782e-07
8.55634e-09
-4.82996e-05
-2.50641e-05
4.83498e-08
-2.51074e-05
9.26095e-07
-4.91724e-05
-7.36869e-05
1.03597e-06
8.61071e-07
-7.36335e-05
-9.1458e-07
2.06724e-08
-4.83324e-05
-2.50872e-05
4.51265e-08
-2.51366e-05
4.8554e-07
-4.87771e-05
-7.41876e-05
1.03862e-06
4.06085e-07
-7.36663e-05
-9.27583e-07
8.63932e-09
-4.83796e-05
-2.5128e-05
4.79355e-08
-2.51714e-05
9.26164e-07
-4.92534e-05
-7.37739e-05
1.03514e-06
8.61888e-07
-7.37204e-05
-9.15448e-07
2.02793e-08
-4.84119e-05
-2.51512e-05
4.53986e-08
-2.52003e-05
4.86421e-07
-4.88566e-05
-7.42741e-05
1.03931e-06
4.07605e-07
-7.37522e-05
-9.29894e-07
8.91282e-09
-4.84583e-05
-2.51919e-05
4.737e-08
-2.52354e-05
9.25843e-07
-4.93329e-05
-7.38589e-05
1.03371e-06
8.62751e-07
-7.3805e-05
-9.16555e-07
1.99311e-08
-4.84899e-05
-2.52151e-05
4.56302e-08
-2.52638e-05
4.87311e-07
-4.89346e-05
-7.43582e-05
1.03976e-06
4.09403e-07
-7.38355e-05
-9.32606e-07
9.33016e-09
-4.85354e-05
-2.52555e-05
4.64601e-08
-2.52989e-05
9.24942e-07
-4.94109e-05
-7.39413e-05
1.03162e-06
8.63822e-07
-7.38873e-05
-9.17599e-07
1.98201e-08
-4.85661e-05
-2.52783e-05
4.56257e-08
-2.53262e-05
4.87899e-07
-4.90107e-05
-7.44403e-05
1.04025e-06
4.11662e-07
-7.39171e-05
-9.35505e-07
1.00447e-08
-4.86105e-05
-2.53176e-05
4.5199e-08
-2.53609e-05
9.23352e-07
-4.94867e-05
-7.40223e-05
1.02907e-06
8.6518e-07
-7.39681e-05
-9.18934e-07
1.98934e-08
-4.864e-05
-2.53395e-05
4.54495e-08
-2.53864e-05
4.88153e-07
-4.90843e-05
-7.45208e-05
1.04036e-06
4.14471e-07
-7.3997e-05
-9.39033e-07
1.10793e-08
-4.86827e-05
-2.53773e-05
4.35746e-08
-2.542e-05
9.21055e-07
-4.95593e-05
-7.41014e-05
1.02575e-06
8.6705e-07
-7.4047e-05
-9.20839e-07
2.02915e-08
-4.87105e-05
-2.53977e-05
4.49591e-08
-2.54431e-05
4.87874e-07
-4.9154e-05
-7.45993e-05
1.03988e-06
4.17922e-07
-7.40747e-05
-9.43255e-07
1.2497e-08
-4.8751e-05
-2.54331e-05
4.14918e-08
-2.54749e-05
9.17886e-07
-4.96276e-05
-7.41784e-05
1.0215e-06
8.69674e-07
-7.41236e-05
-9.23608e-07
2.11721e-08
-4.87764e-05
-2.5451e-05
4.41827e-08
-2.54945e-05
4.87025e-07
-4.92187e-05
-7.46753e-05
1.03879e-06
4.22186e-07
-7.415e-05
-9.48376e-07
1.44553e-08
-4.88139e-05
-2.54831e-05
3.8824e-08
-2.55234e-05
9.13714e-07
-4.96901e-05
-7.42528e-05
1.01622e-06
8.73322e-07
-7.41976e-05
-9.27498e-07
2.27009e-08
-4.88363e-05
-2.54976e-05
4.29072e-08
-2.55385e-05
4.85316e-07
-4.92769e-05
-7.47488e-05
1.03684e-06
4.27325e-07
-7.42227e-05
-9.54328e-07
1.70517e-08
-4.887e-05
-2.55249e-05
3.53807e-08
-2.5563e-05
9.08313e-07
-4.97454e-05
-7.43248e-05
1.00988e-06
8.78148e-07
-7.42694e-05
-9.32509e-07
2.50434e-08
-4.88887e-05
-2.55344e-05
4.08928e-08
-2.55722e-05
4.82344e-07
-4.93272e-05
-7.48201e-05
1.03378e-06
4.33508e-07
-7.42935e-05
-9.61132e-07
2.05077e-08
-4.8918e-05
-2.55556e-05
3.12016e-08
-2.55904e-05
9.01984e-07
-4.97922e-05
-7.43953e-05
1.00295e-06
8.84121e-07
-7.43399e-05
-9.38386e-07
2.83225e-08
-4.89324e-05
-2.55582e-05
3.77607e-08
-2.55919e-05
4.77642e-07
-4.93684e-05
-7.48905e-05
1.02929e-06
4.41205e-07
-7.43639e-05
-9.69076e-07
2.5213e-08
-4.89568e-05
-2.55712e-05
2.62181e-08
-2.56014e-05
8.9481e-07
-4.98293e-05
-7.44658e-05
9.95925e-07
8.91356e-07
-7.44112e-05
-9.44842e-07
3.28109e-08
-4.89662e-05
-2.55642e-05
3.28686e-08
-2.55924e-05
4.70529e-07
-4.93995e-05
-7.49625e-05
1.02308e-06
4.51347e-07
-7.44367e-05
-9.78788e-07
3.19466e-08
-4.89854e-05
-2.55659e-05
1.94219e-08
-2.55895e-05
8.85498e-07
-4.98555e-05
-7.45398e-05
9.8776e-07
9.01014e-07
-7.44869e-05
-9.52689e-07
3.94965e-08
-4.89889e-05
-2.55449e-05
2.52899e-08
-2.55653e-05
4.59921e-07
-4.9419e-05
-7.50401e-05
1.01455e-06
4.64618e-07
-7.45163e-05
-9.90527e-07
4.15064e-08
-4.90021e-05
-2.55302e-05
1.00887e-08
-2.55442e-05
8.73379e-07
-4.98691e-05
-7.4622e-05
9.78276e-07
9.14197e-07
-7.45722e-05
-9.62578e-07
4.9177e-08
-4.89984e-05
-2.54891e-05
1.41012e-08
-2.54993e-05
4.44615e-07
-4.94252e-05
-7.51296e-05
1.00297e-06
4.80593e-07
-7.46096e-05
-1.00285e-06
5.36292e-08
-4.90053e-05
-2.54529e-05
-7.6833e-10
-2.54547e-05
8.59951e-07
-4.98692e-05
-7.47206e-05
9.70685e-07
9.28954e-07
-7.46768e-05
-9.70809e-07
6.07326e-08
-4.89942e-05
-2.53869e-05
5.04453e-10
-2.53851e-05
4.25737e-07
-4.94188e-05
-7.52424e-05
9.91848e-07
4.98388e-07
-7.473e-05
-1.01293e-06
6.79182e-08
-4.89961e-05
-2.53254e-05
-1.65204e-08
-2.53117e-05
8.44344e-07
-4.98595e-05
-7.48516e-05
9.65522e-07
9.42941e-07
-7.48196e-05
-9.72683e-07
7.61179e-08
-4.89846e-05
-2.52266e-05
-1.58579e-08
-2.52062e-05
4.12382e-07
-4.9409e-05
-7.53988e-05
9.9204e-07
5.19962e-07
-7.49005e-05
-1.02249e-06
9.02905e-08
-4.89903e-05
-2.51277e-05
-3.95643e-08
-2.50957e-05
8.21737e-07
-4.98591e-05
-7.50389e-05
9.59173e-07
9.56654e-07
-7.50239e-05
-9.67978e-07
9.51547e-08
-4.89888e-05
-2.49888e-05
-2.95285e-08
-2.49465e-05
4.12078e-07
-4.94173e-05
-7.56208e-05
1.01156e-06
5.34766e-07
-7.51419e-05
-1.01868e-06
1.13657e-07
-4.90069e-05
-2.48465e-05
-6.66831e-08
-2.47968e-05
7.99122e-07
-4.98903e-05
-7.53013e-05
9.54462e-07
9.6456e-07
-7.53106e-05
-9.54151e-07
1.15796e-07
-4.90322e-05
-2.46719e-05
-3.7748e-08
-2.46114e-05
4.28304e-07
-4.9475e-05
-7.5929e-05
1.05336e-06
5.20448e-07
-7.54721e-05
-9.81038e-07
1.2238e-07
-4.90823e-05
-2.44986e-05
-7.64285e-08
-2.44458e-05
8.10677e-07
-4.99938e-05
-7.56582e-05
9.88634e-07
9.47774e-07
-7.56939e-05
-9.12228e-07
1.1728e-07
-4.91609e-05
-2.43254e-05
-1.93932e-08
-2.42826e-05
4.78579e-07
-4.96348e-05
-7.63432e-05
1.13551e-06
4.3442e-07
-7.59088e-05
-8.66603e-07
7.62474e-08
-4.92719e-05
-2.42014e-05
-1.74701e-08
-2.42079e-05
9.12544e-07
-5.02238e-05
-7.61271e-05
1.12113e-06
8.45289e-07
-7.61895e-05
-7.83735e-07
4.09468e-08
-4.94262e-05
-2.41739e-05
7.34753e-08
-2.42346e-05
6.11357e-07
-4.99518e-05
-7.68782e-05
1.30375e-06
2.41117e-07
-7.6471e-05
-6.40753e-07
-5.279e-08
-4.96397e-05
-2.42693e-05
1.20027e-07
-2.44011e-05
1.13196e-06
-5.06604e-05
-7.67308e-05
1.38392e-06
6.4408e-07
-7.68371e-05
-5.40625e-07
-8.93821e-08
-4.99409e-05
-2.45029e-05
2.16296e-07
-2.47197e-05
8.40839e-07
-5.05633e-05
-7.75749e-05
1.57936e-06
-2.0642e-08
-7.72152e-05
-3.35366e-07
-2.08735e-07
-5.03583e-05
-2.49157e-05
3.20512e-07
-2.52193e-05
1.44474e-06
-5.15079e-05
-7.75212e-05
1.75849e-06