/*--------------------------------*- C++ -*----------------------------------*\
| =========                 |                                                 |
| \\      /  F ield         | OpenFOAM: The Open Source CFD Toolbox           |
|  \\    /   O peration     | Version:  v2006                                 |
|   \\  /    A nd           | Website:  www.openfoam.com                      |
|    \\/     M anipulation  |                                                 |
\*---------------------------------------------------------------------------*/
FoamFile
{
    version     2.0;
    format      ascii;
    class       volScalarField;
    location    "0.139";
    object      isentropic(p);
}
// * * * * * * * * * * * * * * * * * * * * * * * * * * * * * * * * * * * * * //

dimensions      [1 -1 -2 0 0 0 0];


internalField   nonuniform List<scalar> 
16277
(
150008
150014
150017
150003
150012
150010
150011
150012
150013
150013
150013
150012
150012
150011
150011
150011
150010
150010
150010
150010
150010
150010
150010
150009
150009
150009
150009
150009
150009
150009
150009
150009
150008
150008
150008
150008
150008
150008
150008
150008
150007
150007
150007
150007
150007
150007
150007
150007
150006
150006
150006
150006
150006
150006
150006
150006
150005
150005
150005
150005
150005
150005
150005
150005
150005
150004
150004
150004
150004
150004
150004
150004
150004
150004
150004
150003
150003
150003
150003
150002
150002
150001
150001
150000
150001
150003
150004
150005
150004
150006
150005
150007
150008
150011
150017
150015
149976
149936
150011
150022
150021
150002
149897
149860
149993
150018
150013
149981
149826
149796
149971
150008
150002
149959
149768
149744
149949
149997
149991
149938
149721
149703
149929
149986
149979
149919
149684
149669
149911
149975
149968
149901
149653
149640
149893
149964
149958
149884
149627
149616
149877
149953
149947
149868
149605
149595
149862
149943
149937
149854
149585
149577
149849
149934
149928
149841
149568
149561
149836
149925
149919
149829
149553
149547
149824
149916
149911
149817
149540
149534
149813
149908
149903
149807
149528
149523
149803
149901
149896
149797
149517
149513
149794
149893
149889
149788
149508
149504
149785
149887
149882
149779
149499
149496
149776
149880
149876
149771
149492
149489
149769
149874
149870
149763
149485
149483
149761
149868
149864
149756
149479
149477
149755
149863
149859
149750
149474
149473
149748
149857
149853
149744
149470
149469
149743
149852
149848
149738
149466
149465
149737
149847
149844
149733
149463
149463
149732
149843
149839
149728
149461
149461
149727
149839
149835
149724
149459
149459
149723
149835
149831
149720
149458
149458
149719
149831
149827
149716
149457
149458
149715
149827
149824
149712
149457
149458
149712
149824
149821
149709
149458
149459
149709
149820
149817
149706
149459
149460
149706
149817
149814
149704
149460
149462
149704
149814
149811
149702
149462
149464
149702
149811
149809
149700
149465
149467
149700
149809
149806
149698
149468
149470
149699
149807
149804
149697
149471
149474
149698
149804
149802
149696
149475
149478
149697
149802
149800
149695
149480
149483
149696
149801
149799
149695
149485
149488
149696
149799
149797
149695
149490
149493
149697
149798
149796
149696
149496
149499
149697
149797
149795
149696
149502
149506
149698
149796
149795
149698
149508
149512
149700
149796
149795
149700
149515
149519
149702
149796
149795
149702
149522
149526
149704
149796
149796
149704
149530
149534
149707
149797
149797
149708
149537
149541
149711
149799
149799
149711
149545
149549
149715
149801
149801
149716
149552
149557
149719
149804
149804
149721
149560
149564
149724
149807
149807
149726
149567
149571
149729
149810
149811
149731
149573
149578
149735
149814
149815
149737
149579
149584
149741
149819
149820
149742
149585
149588
149746
149823
149824
149748
149589
149591
149752
149828
149828
149753
149591
149593
149756
149832
149832
149757
149593
149594
149760
149835
149836
149760
149592
149593
149763
149839
149839
149763
149591
149591
149766
149842
149842
149765
149589
149588
149767
149844
149844
149767
149585
149584
149768
149846
149846
149767
149581
149580
149768
149848
149847
149767
149575
149574
149768
149849
149848
149766
149570
149568
149767
149850
149849
149765
149564
149562
149766
149850
149849
149764
149558
149556
149764
149850
149849
149762
149552
149550
149762
149850
149848
149760
149546
149545
149760
149849
149847
149757
149541
149539
149757
149848
149846
149755
149535
149534
149754
149847
149845
149752
149530
149529
149752
149845
149843
149749
149525
149524
149749
149844
149842
149746
149521
149520
149746
149842
149840
149743
149516
149515
149743
149840
149838
149741
149512
149512
149741
149839
149837
149738
149509
149508
149738
149837
149835
149735
149505
149505
149735
149835
149832
149732
149501
149501
149733
149833
149830
149729
149498
149499
149730
149831
149829
149727
149495
149493
149726
149828
149826
149725
149493
149491
149724
149827
149824
149722
149490
149488
149721
149825
149823
149720
149488
149486
149719
149823
149821
149716
149483
149485
149718
149820
149818
149712
149479
149481
149714
149819
149817
149712
149478
149477
149712
149818
149816
149712
149478
149478
149713
149819
149821
149717
149484
149496
149727
149832
149868
149775
149551
149516
149697
149792
149863
149921
149955
149966
149972
149984
149989
149994
149997
149999
149999
149998
149997
149993
149989
149979
149974
149967
149960
149946
149913
149844
149702
149542
149278
149261
149525
149684
149669
149508
149243
149232
149496
149659
149655
149493
149226
149227
149492
149654
149652
149491
149224
149225
149491
149653
149654
149492
149226
149227
149492
149655
149656
149493
149227
149229
149495
149657
149658
149496
149229
149230
149496
149659
149660
149498
149231
149233
149499
149661
149662
149500
149233
149234
149501
149663
149664
149502
149235
149236
149503
149665
149666
149504
149237
149238
149506
149667
149668
149507
149239
149240
149508
149670
149671
149510
149241
149242
149511
149672
149673
149512
149243
149244
149513
149674
149675
149514
149245
149246
149515
149676
149677
149516
149247
149248
149518
149679
149680
149519
149249
149249
149520
149681
149683
149522
149251
149252
149523
149684
149685
149524
149253
149254
149525
149686
149687
149527
149255
149256
149528
149688
149689
149529
149256
149257
149530
149691
149692
149531
149258
149259
149533
149693
149694
149534
149261
149262
149535
149696
149697
149537
149263
149264
149538
149698
149699
149539
149265
149266
149540
149701
149702
149542
149267
149268
149543
149703
149704
149544
149269
149269
149545
149706
149707
149547
149270
149271
149548
149708
149710
149549
149272
149272
149550
149711
149713
149552
149273
149274
149553
149714
149716
149554
149275
149275
149556
149717
149719
149557
149276
149276
149559
149721
149722
149560
149277
149277
149561
149724
149726
149563
149278
149278
149564
149727
149729
149566
149278
149279
149567
149731
149733
149569
149279
149279
149571
149735
149737
149572
149280
149279
149574
149739
149741
149576
149279
149279
149578
149744
149747
149580
149279
149279
149582
149750
149753
149585
149279
149279
149587
149756
149759
149590
149279
149280
149593
149762
149766
149596
149280
149280
149599
149769
149773
149603
149281
149283
149607
149777
149781
149612
149285
149288
149617
149785
149789
149623
149293
149296
149628
149792
149796
149633
149299
149303
149640
149801
149807
149646
149307
149314
149655
149812
149820
149667
149327
149337
149678
149827
149835
149690
149351
149367
149699
149842
149850
149714
149383
149400
149724
149857
149862
149733
149417
149435
149743
149868
149874
149754
149456
149476
149765
149880
149886
149775
149494
149513
149785
149892
149900
149794
149533
149558
149812
149907
149904
149829
149582
149307
149648
149797
149864
149722
149391
149410
149753
149892
149900
149768
149435
149459
149775
149902
149909
149790
149486
149514
149803
149915
149927
149821
149547
149568
149829
149932
149943
149846
149598
149622
149854
149945
149941
149870
149658
149691
149896
149950
149874
149765
149478
149578
149830
149934
149955
149858
149605
149636
149876
149960
149965
149889
149665
149689
149901
149973
149987
149914
149710
149746
149934
149993
149994
149941
149760
149609
149822
149932
149984
149903
149673
149705
149924
149996
150000
149937
149736
149763
149944
150001
150013
149959
149790
149833
149988
150021
149974
149905
149677
149766
149944
150011
150028
149975
149809
149834
149987
150037
150052
150006
149863
149897
150026
150052
150015
149962
149763
149858
150001
150051
150061
150025
149890
149924
150042
150070
150076
150060
149957
149851
150020
150058
150088
150052
149951
149977
150073
150098
150117
150096
150018
150038
150103
150114
150111
150083
149998
150068
150129
150144
150134
150132
150087
150087
150114
150143
150177
150177
150143
150180
150192
150177
150210
150215
150198
150275
150251
150217
150180
150221
150233
150277
150227
150186
150215
150260
150311
150294
150272
150233
150189
150214
150182
150036
150105
150104
150005
149951
149841
149886
149963
149975
149922
149868
149742
149810
149913
149934
149908
149865
149747
149629
149835
149869
149885
149822
149668
149629
149791
149852
149893
149847
149690
149650
149813
149880
149823
149750
149581
149661
149829
149875
149851
149800
149639
149566
149741
149812
149871
149817
149638
149603
149789
149868
149808
149722
149532
149623
149810
149869
149867
149782
149590
149514
149708
149798
149863
149805
149622
149581
149773
149862
149794
149702
149508
149610
149800
149861
149868
149777
149583
149510
149704
149798
149860
149810
149629
149605
149779
149830
149775
149699
149513
149611
149795
149856
149874
149802
149612
149566
149759
149855
149788
149710
149444
149565
149778
149843
149823
149745
149533
149466
149631
149750
149846
149780
149576
149545
149748
149830
149766
149690
149437
149571
149782
149841
149821
149742
149529
149461
149637
149752
149844
149782
149580
149547
149758
149833
149768
149651
149486
149584
149788
149851
149828
149747
149543
149447
149692
149769
149861
149805
149591
149572
149767
149845
149780
149704
149454
149575
149796
149863
149839
149750
149546
149412
149680
149763
149845
149765
149547
149483
149704
149791
149870
149811
149610
149576
149775
149855
149786
149694
149496
149629
149820
149871
149840
149790
149607
149523
149715
149793
149881
149820
149619
149575
149784
149881
149799
149698
149493
149607
149812
149874
149852
149778
149575
149502
149704
149796
149885
149828
149625
149596
149789
149865
149799
149725
149460
149576
149797
149873
149812
149727
149505
149618
149829
149885
149865
149798
149598
149512
149717
149806
149894
149840
149633
149599
149799
149870
149804
149735
149477
149600
149821
149887
149824
149742
149516
149643
149847
149902
149889
149814
149614
149516
149722
149816
149900
149845
149639
149605
149802
149874
149811
149739
149480
149595
149820
149891
149826
149741
149511
149640
149850
149908
149904
149815
149602
149513
149728
149825
149903
149847
149632
149577
149801
149881
149805
149675
149531
149599
149837
149887
149830
149741
149515
149640
149859
149914
149901
149813
149602
149489
149747
149826
149905
149843
149615
149518
149754
149843
149909
149842
149616
149569
149803
149898
149817
149698
149502
149606
149842
149900
149846
149756
149533
149650
149866
149919
149889
149822
149606
149527
149709
149823
149905
149846
149608
149526
149754
149845
149918
149856
149627
149580
149804
149902
149820
149736
149472
149627
149857
149913
149853
149765
149523
149635
149864
149918
149891
149813
149574
149524
149675
149809
149889
149853
149581
149500
149743
149833
149908
149848
149600
149514
149755
149845
149924
149872
149647
149603
149824
149903
149829
149734
149499
149606
149849
149913
149851
149759
149514
149617
149858
149917
149888
149804
149556
149507
149662
149803
149881
149843
149552
149467
149726
149821
149910
149854
149593
149514
149767
149856
149926
149869
149627
149582
149812
149893
149818
149738
149455
149567
149829
149903
149836
149736
149473
149590
149854
149913
149848
149753
149497
149609
149858
149920
149895
149808
149554
149486
149691
149821
149902
149846
149566
149472
149736
149834
149908
149848
149582
149492
149752
149846
149919
149860
149610
149568
149806
149890
149811
149718
149441
149557
149827
149900
149826
149722
149449
149571
149847
149910
149847
149749
149484
149607
149862
149919
149884
149802
149565
149402
149728
149807
149902
149816
149550
149420
149714
149822
149901
149841
149550
149451
149732
149833
149908
149849
149581
149537
149785
149871
149786
149704
149365
149536
149804
149892
149816
149701
149413
149537
149830
149897
149824
149718
149440
149544
149830
149897
149829
149730
149453
149570
149839
149902
149872
149780
149505
149438
149626
149783
149864
149819
149490
149391
149690
149796
149881
149811
149499
149410
149705
149812
149891
149823
149526
149435
149720
149825
149898
149837
149561
149508
149768
149861
149772
149686
149346
149492
149784
149873
149792
149673
149362
149488
149805
149876
149799
149688
149385
149504
149809
149878
149805
149696
149401
149540
149824
149888
149853
149758
149494
149322
149677
149765
149874
149772
149484
149338
149660
149783
149869
149799
149473
149355
149671
149788
149865
149794
149477
149373
149681
149793
149869
149800
149507
149424
149734
149835
149733
149557
149359
149406
149779
149822
149757
149644
149311
149443
149780
149851
149770
149652
149328
149444
149778
149853
149772
149655
149333
149450
149777
149851
149777
149664
149351
149477
149787
149855
149817
149714
149432
149223
149636
149724
149847
149720
149424
149252
149602
149739
149831
149751
149394
149277
149619
149746
149838
149761
149418
149297
149630
149754
149836
149759
149421
149311
149639
149758
149839
149766
149449
149385
149689
149800
149698
149590
149218
149378
149716
149813
149722
149588
149241
149371
149732
149813
149727
149598
149250
149375
149733
149814
149728
149602
149261
149394
149740
149818
149741
149620
149283
149418
149750
149823
149785
149672
149368
149151
149585
149681
149809
149685
149352
149184
149559
149703
149794
149708
149321
149181
149562
149698
149793
149712
149333
149199
149570
149703
149792
149710
149339
149228
149584
149711
149797
149718
149370
149314
149639
149758
149646
149530
149113
149299
149667
149774
149674
149528
149141
149280
149681
149771
149675
149536
149146
149298
149689
149772
149678
149540
149160
149301
149686
149771
149686
149553
149181
149333
149697
149776
149732
149604
149269
149027
149522
149620
149766
149617
149265
149072
149483
149643
149742
149645
149223
149082
149494
149641
149743
149652
149230
149094
149500
149645
149741
149649
149233
149107
149502
149645
149741
149651
149249
149124
149514
149654
149749
149663
149289
149209
149585
149712
149589
149414
149054
149190
149621
149708
149612
149457
149041
149193
149624
149718
149615
149464
149050
149201
149624
149719
149621
149473
149070
149211
149624
149718
149629
149487
149088
149242
149636
149725
149685
149547
149170
148963
149414
149553
149690
149571
149146
148969
149411
149576
149688
149590
149138
148975
149422
149581
149683
149587
149137
149000
149430
149585
149686
149590
149151
149016
149443
149592
149686
149590
149174
149081
149508
149644
149513
149316
148933
149060
149538
149640
149536
149366
148908
149075
149550
149655
149542
149373
148919
149093
149555
149657
149549
149386
148938
149103
149557
149658
149561
149404
148962
149141
149569
149665
149622
149475
149050
148836
149313
149479
149622
149496
149034
148830
149318
149498
149613
149499
148999
148835
149319
149495
149610
149500
149008
148859
149332
149503
149618
149512
149032
148873
149347
149514
149623
149524
149068
148977
149431
149585
149426
149243
148751
148963
149458
149584
149461
149276
148767
148962
149474
149588
149471
149292
148790
148991
149485
149590
149469
149291
148791
148974
149468
149579
149529
149355
148888
148607
149219
149370
149542
149386
148867
148654
149205
149405
149538
149414
148858
148665
149216
149408
149537
149418
148876
148700
149234
149423
149546
149434
148929
148801
149340
149502
149326
149060
148619
148786
149377
149486
149364
149158
148589
148797
149380
149501
149344
149137
148571
148781
149353
149481
149361
149162
148598
148820
149372
149496
149439
149237
148714
148403
149104
149267
149461
149282
148716
148457
149074
149300
149450
149317
148710
148495
149100
149314
149455
149323
148720
148518
149116
149325
149463
149342
148770
148650
149226
149418
149220
149016
148361
148581
149217
149384
149219
148985
148332
148601
149247
149389
149245
149019
148379
148614
149255
149397
149264
149041
148410
148663
149274
149410
149355
149145
148529
148243
148920
149153
149349
149179
148538
148283
148958
149199
149355
149206
148539
148307
148981
149210
149367
149234
148596
148480
149111
149320
149067
148838
148066
148385
149079
149263
149098
148841
148130
148411
149122
149284
149125
148873
148167
148435
149139
149294
149147
148901
148205
148485
149158
149311
149264
149037
148351
148055
148723
149021
149230
149076
148345
148080
148809
149079
149255
149101
148363
148118
148850
149104
149255
149131
148479
148205
148927
149167
148908
148608
147875
148195
148964
149141
148986
148710
147933
148225
149008
149181
149022
148752
147973
148281
149036
149202
149154
148901
148130
147786
148556
148878
149111
148921
148130
147841
148659
148956
149151
148982
148199
148042
148856
149119
148813
148479
147662
147968
148823
149018
148781
148454
147579
147904
148793
149004
148833
148523
147646
147998
148850
149043
148991
148693
147830
147442
148345
148696
148968
148747
147852
147510
148453
148785
149005
148812
147922
147729
148661
148963
148622
148248
147307
147742
148684
148909
148753
148413
147439
147779
148707
148907
148779
148442
147449
147024
148031
148448
148762
148525
147505
147154
148200
148573
148830
148610
147620
147406
148431
148778
148422
148021
146945
147410
148468
148738
148529
148142
147043
147530
148565
148789
148741
148387
147297
146821
147920
148354
148655
148403
147403
146763
147919
148332
148598
148330
147228
146981
148127
148502
148172
147686
146581
147078
148268
148529
148312
147877
146680
147195
148347
148597
148549
148151
146974
146434
147648
148125
148488
148201
147026
146613
147859
148290
148530
148337
147265
146992
148147
148500
147914
147381
146114
146724
147955
148276
148203
147778
146461
146016
147278
147855
148235
147942
146582
146122
147504
147994
148334
148062
146765
146520
147866
148300
147824
147279
145904
146622
147913
148204
148265
147850
146438
145669
147073
147695
147953
147533
146019
145667
147273
147819
147375
146696
145145
145922
147500
147876
147610
147029
145418
146204
147684
148018
147998
147495
145957
145284
146833
147465
147878
147557
146140
145983
147525
147975
147303
146621
145040
145410
147088
147564
147413
146808
145035
144478
146262
146978
147522
147103
145427
145138
146925
147516
147013
146273
144457
145455
147132
147521
147588
147015
145192
144505
146316
147011
147246
146788
145033
144283
146356
147029
146765
145968
143806
143067
145408
146269
146957
146455
144389
144032
146298
147001
146452
145515
143304
144626
146567
146975
147265
146737
144639
142977
145534
146470
145572
144488
141847
143344
145713
146346
146357
145580
142951
142545
145220
146246
145594
144620
141546
143578
145823
146363
146593
145908
143224
141294
144454
145618
144680
143457
140176
142291
145007
145702
145791
144953
141890
141493
144777
145851
145908
144965
141367
138697
142135
144102
144981
143783
140369
139989
143664
144931
144914
143550
139455
139374
143821
145159
144769
142954
137717
136369
141893
143953
142901
140430
135482
139356
143260
144436
144418
142967
138574
137379
142340
144093
143705
141922
136602
136193
141720
143495
143356
141270
135325
134897
141026
143259
143244
140872
134622
134342
140685
143219
143155
140461
134058
133802
140227
143066
142967
139997
133581
133397
139774
142861
142750
139559
133239
133103
139351
142634
142515
139152
132988
132893
138962
142393
142271
138784
132817
132756
138617
142149
142027
138462
132710
132675
138318
141904
141782
138184
132651
132636
138059
141659
141538
137944
132630
132632
137838
141418
141302
137742
132640
132654
137653
141186
141074
137573
132673
132696
137500
140964
140856
137434
132724
132754
137373
140751
140649
137319
132788
132824
137271
140549
140453
137228
132862
132902
137189
140360
140272
137155
132943
132985
137124
140186
140105
137097
133028
133070
137073
140027
139953
137052
133114
133157
137034
139881
139815
137018
133200
133243
137003
139750
139691
136992
133285
133327
136981
139633
139580
136973
133368
133408
136966
139529
139483
136960
133448
133487
136954
139438
139397
136951
133525
133562
136947
139358
139322
136946
133598
133633
136944
139288
139258
136944
133667
133699
136943
139228
139202
136944
133730
133760
136945
139176
139154
136947
133789
133816
136949
139132
139113
136952
133843
133868
136955
139094
139078
136958
133892
133915
136962
139062
139048
136966
133938
133959
136970
139034
139023
136975
133980
133999
136979
139011
139002
136984
134018
134035
136989
138992
138984
136994
134053
134068
136999
138976
138969
137004
134084
134099
137009
138962
138956
137014
134113
134127
137018
138950
138945
137023
134140
134152
137028
138939
138935
137033
134164
134175
137037
138930
138927
137041
134186
134196
137045
138922
138919
137050
134206
134216
137053
138916
138913
137058
134225
134233
137061
138910
138908
137065
134242
134249
137069
138905
138903
137073
134257
134264
137076
138900
138899
137080
134271
134278
137083
138897
138896
137087
134285
134290
137090
138894
138894
137094
134297
134302
137097
138892
138892
137101
134308
134313
137104
138890
138891
137107
134318
134323
137110
138889
138890
137114
134328
134333
137117
138889
138889
137120
134338
134342
137123
138888
138890
137127
134347
134351
137130
138889
138890
137133
134356
134360
137136
138889
138891
137140
134364
134368
137143
138890
138892
137146
134373
134377
137149
138892
138894
137153
134381
134385
137156
138893
138896
137160
134389
134393
137163
138896
138898
137167
134397
134401
137170
138898
138901
137174
134406
134409
137177
138901
138904
137181
134414
134417
137184
138904
138907
137188
134422
134425
137191
138908
138911
137195
134430
134433
137199
138912
138915
137203
134437
134441
137206
138916
138920
137210
134445
134449
137214
138920
138924
137218
134453
134457
137221
138925
138929
137226
134461
134465
137229
138930
138935
137234
134469
134472
137237
138936
138940
137241
134476
134480
137245
138942
138946
137249
134484
134488
137253
138948
138952
137258
134491
134495
137261
138954
138958
137266
134499
134503
137270
138960
138965
137274
134507
134510
137278
138967
138972
137282
134514
134517
137286
138973
138978
137291
134521
134525
137295
138980
138985
137299
134529
134532
137303
138988
138993
137308
134536
134539
137312
138995
139000
137316
134543
134546
137320
139002
139007
137324
134550
134553
137328
139010
139015
137333
134557
134560
137337
139017
139022
137341
134563
134567
137345
139025
139030
137350
134570
134573
137354
139033
139038
137358
134576
134580
137362
139040
139046
137366
134583
134586
137370
139048
139053
137374
134589
134592
137378
139056
139061
137383
134595
134598
137386
139064
139069
137391
134601
134604
137395
139071
139077
137399
134607
134610
137403
139079
139085
137407
134613
134615
137411
139087
139093
137415
134618
134621
137419
139095
139101
137423
134624
134626
137426
139103
139108
137431
134629
134631
137434
139111
139116
137438
134634
134636
137442
139119
139124
137446
134639
134641
137449
139126
139132
137453
134644
134646
137457
139134
139140
137461
134648
134650
137464
139142
139147
137468
134652
134654
137471
139149
139155
137475
134656
134658
137478
139157
139162
137482
134660
134662
137485
139164
139169
137489
134664
134665
137492
139171
139177
137495
134667
134668
137498
139179
139185
137503
134673
134675
137506
139189
139192
137511
134678
134680
137509
139189
139176
137498
134678
134670
137482
139159
139203
137503
134685
134760
137599
139355
139448
137673
134818
142056
144691
146369
146740
146890
147546
147883
148029
148173
148587
148855
149138
149349
149505
149620
149703
149763
149805
149836
149859
149877
149890
149901
149909
149916
149922
149926
149929
149931
149933
149934
149936
149936
149932
149934
149941
149946
149954
149962
149972
149983
149994
150005
150015
150021
150023
150022
150020
150017
150015
150013
150012
150010
150008
150007
150005
150003
150000
149998
149996
149994
149992
149990
149989
149988
149987
149986
149986
149986
149986
149987
149989
149991
149993
149997
150000
150005
150010
150015
150021
150027
150033
150040
150046
150052
150058
150063
150068
150072
150075
150078
150080
150081
150081
150081
150080
150079
150077
150074
150071
150068
150064
150061
150057
150053
150048
150044
150040
150036
150032
150028
150024
150020
150016
150013
150009
150006
150002
149999
149997
149994
149991
149989
149986
149984
149982
149980
149978
149977
149975
149974
149972
149971
149970
149969
149968
149967
149966
149965
149965
149964
149964
149963
149963
149963
149962
149962
149962
149962
149962
149962
149962
149962
149962
149962
149962
149962
149963
149963
149963
149963
149964
149964
149965
149965
149965
149966
149966
149967
149968
149968
149969
149969
149970
149971
149971
149972
149973
149973
149974
149975
149975
149976
149977
149978
149979
149980
149980
149981
149982
149983
149984
149985
149986
149987
149988
149989
149990
149991
149993
149994
149996
150000
150007
150013
150015
150015
150017
150004
150012
150012
150020
150026
150029
150029
150027
150026
150024
150022
150021
150020
150019
150018
150017
150016
150016
150015
150015
150014
150014
150013
150013
150012
150012
150012
150011
150011
150011
150011
150010
150010
150010
150010
150009
150009
150009
150009
150008
150008
150008
150008
150008
150007
150007
150007
150007
150006
150006
150006
150006
150006
150005
150005
150005
150005
150005
150004
150004
150004
150004
150003
150003
150003
150003
150002
150002
150002
150001
150001
150000
150000
149999
149999
149998
149997
149995
149994
149994
149995
149997
149999
150000
150004
150009
150019
150024
150024
150021
150019
150016
150013
150010
150008
150005
150003
150000
149998
149995
149993
149990
149988
149985
149983
149980
149979
149976
149975
149971
149971
149967
149966
149963
149963
149959
149959
149956
149955
149952
149952
149949
149949
149945
149945
149942
149942
149939
149939
149936
149936
149933
149934
149930
149931
149928
149928
149925
149926
149923
149923
149920
149921
149918
149918
149915
149916
149913
149914
149911
149911
149908
149909
149906
149907
149904
149905
149902
149903
149900
149901
149899
149899
149897
149898
149895
149896
149894
149895
149893
149894
149892
149893
149891
149893
149891
149893
149891
149893
149891
149894
149892
149895
149893
149896
149895
149898
149897
149900
149899
149902
149901
149905
149903
149907
149906
149910
149909
149912
149911
149915
149914
149917
149916
149919
149918
149921
149920
149923
149922
149925
149923
149926
149924
149927
149925
149927
149925
149927
149926
149927
149925
149927
149925
149927
149925
149926
149924
149926
149924
149925
149923
149924
149922
149923
149921
149922
149921
149921
149920
149919
149918
149920
149916
149918
149914
149918
149913
149916
149915
149911
149915
149911
149911
149914
149907
149913
149909
149914
149923
149932
149956
149954
149953
149965
149950
149950
149965
149950
149951
149966
149949
149955
149967
149948
149957
149968
149950
149956
149969
149953
149954
149970
149954
149956
149971
149955
149957
149971
149955
149959
149972
149956
149959
149973
149957
149960
149974
149957
149961
149975
149958
149962
149975
149959
149962
149976
149959
149963
149976
149960
149963
149977
149960
149964
149977
149960
149964
149978
149960
149964
149978
149960
149964
149978
149960
149964
149978
149960
149964
149978
149959
149963
149977
149958
149962
149976
149957
149961
149976
149956
149960
149974
149954
149958
149973
149952
149956
149972
149950
149955
149970
149949
149953
149968
149947
149951
149967
149945
149949
149966
149943
149947
149965
149941
149945
149964
149940
149944
149964
149939
149943
149962
149938
149942
149962
149938
149942
149963
149938
149943
149964
149938
149943
149964
149939
149944
149965
149939
149945
149966
149940
149946
149967
149941
149947
149969
149942
149948
149970
149944
149950
149971
149945
149951
149972
149946
149952
149974
149948
149954
149975
149949
149955
149976
149951
149957
149977
149952
149958
149979
149954
149960
149980
149955
149961
149981
149957
149963
149982
149958
149964
149983
149960
149965
149985
149961
149967
149986
149963
149968
149987
149965
149970
149988
149966
149972
149989
149968
149973
149990
149970
149975
149992
149971
149976
149993
149973
149978
149994
149975
149980
149995
149977
149981
149996
149979
149983
149998
149981
149985
149999
149983
149987
150000
149985
149989
150002
149987
149991
150003
149989
149993
150004
149991
149995
150006
149994
149997
150007
149996
150000
150008
149999
150002
150010
150002
150004
150011
150004
150007
150013
150007
150010
150014
150010
150013
150016
150013
150015
150017
150017
150018
150019
150020
150022
150020
150023
150013
150015
150015
150015
150015
150014
150014
150013
150013
150013
150012
150012
150011
150011
150011
150011
150010
150010
150010
150009
150009
150009
150008
150008
150008
150007
150007
150006
150006
150005
150005
150004
150004
150003
150002
150001
150001
150000
149999
149997
149996
149995
149994
149993
149992
149991
149991
149990
149992
149994
149996
149997
150000
150002
150005
150007
150009
150011
150012
150012
150012
150011
150011
150010
150008
150007
150006
150005
150004
150003
150001
150000
149999
149998
149997
149996
149995
149994
149993
149992
149991
149990
149989
149988
149988
149986
149969
149966
149966
149970
149985
149989
149989
149995
149995
149997
149997
149997
149998
149999
150000
150001
150002
150003
150004
150005
150006
150007
150008
150009
150010
150011
150015
150014
150012
150011
150010
150009
150008
150007
150006
150005
150004
150003
150002
150001
150001
150000
149999
149999
150000
149999
149999
149997
149998
150000
150000
150001
149994
149993
149993
149993
149993
149990
149990
149975
149977
149972
149972
149972
149973
149974
149975
149996