/*--------------------------------*- C++ -*----------------------------------*\
| =========                 |                                                 |
| \\      /  F ield         | OpenFOAM: The Open Source CFD Toolbox           |
|  \\    /   O peration     | Version:  v2006                                 |
|   \\  /    A nd           | Website:  www.openfoam.com                      |
|    \\/     M anipulation  |                                                 |
\*---------------------------------------------------------------------------*/
FoamFile
{
    version     2.0;
    format      ascii;
    class       volScalarField;
    location    "0.139";
    object      omega;
}
// * * * * * * * * * * * * * * * * * * * * * * * * * * * * * * * * * * * * * //

dimensions      [0 0 -1 0 0 0 0];


internalField   nonuniform List<scalar> 
16277
(
0.00810633
0.00810639
0.00810519
0.00810476
0.00810357
0.00810358
0.00810286
0.00810127
0.00809762
0.00809141
0.00808286
0.00807266
0.00806154
0.0080499
0.00803788
0.00802546
0.00801256
0.00799908
0.00798496
0.00797015
0.00795464
0.00793845
0.00792157
0.00790403
0.00788583
0.00786699
0.00784752
0.00782742
0.0078067
0.00778538
0.00776348
0.007741
0.00771796
0.00769439
0.00767029
0.00764569
0.0076206
0.00759506
0.00756908
0.00754269
0.0075159
0.00748875
0.00746127
0.00743347
0.00740539
0.00737705
0.00734849
0.00731974
0.00729082
0.00726176
0.0072326
0.00720337
0.00717411
0.00714484
0.00711561
0.00708643
0.00705735
0.00702841
0.00699964
0.00697108
0.00694278
0.00691479
0.0068872
0.00686018
0.00683407
0.0068097
0.00678898
0.00677664
0.00678512
0.00684365
0.00700289
0.00737729
0.0082071
0.00999216
0.0137351
0.0213667
0.0365746
0.066542
0.125302
0.238492
0.453847
0.842654
1.40749
1.82855
2.49772
2.99631
3.63659
6.62521
11.4682
14.4714
12.9714
34.2406
105.411
397.79
3406.78
18601.1
254899
251710
37848.6
8637.97
15117.7
52962.9
248574
245279
54893.3
17469.9
20706
58055.6
236457
232035
57495.1
21300.6
23279.4
58848.3
226111
223289
58185.1
23405.8
24489
58586.7
218920
216054
57190.4
24344
24967.4
57663.1
212520
210464
56434.2
24791.7
25247.7
56963.8
207750
206196
55926.8
25050.7
25438.5
56494.9
204001
202776
55590.7
25235.3
25590.4
56183
200922
199916
55356.7
25384.8
25720.5
55973.1
198292
197434
55192.9
25514.5
25837.5
55833.7
195973
195221
55088.4
25631.9
25945.6
55741.9
193877
193200
55020.2
25740.1
26045.1
55677.4
191943
191319
54971
25839.2
26137
55626.3
190128
189544
54930.4
25929.5
26221.4
55580.8
188404
187849
54892.6
26010.8
26296.6
55536.3
186750
186217
54853.9
26082.8
26362.8
55489.9
185150
184634
54812
26146
26420.6
55439.3
183594
183090
54764.6
26201.1
26470.9
55382.6
182071
181577
54710.4
26249.1
26514.4
55318.8
180576
180089
54649.2
26290.8
26552.2
55248
179102
178620
54580.4
26327
26584.7
55169.2
177644
177166
54503.4
26358.1
26612.2
55082
176197
175720
54417.6
26384.3
26635.1
54985.7
174756
174278
54322.5
26406.1
26653.6
54880
173315
172835
54217.9
26423.6
26667.9
54764.5
171871
171386
54103.2
26437
26678.1
54638.6
170419
169928
53977.9
26446.4
26684.2
54501.7
168955
168457
53841.3
26451.7
26686.2
54353.1
167475
166968
53692.8
26452.8
26683.8
54192.2
165975
165458
53531.6
26449.5
26676.7
54017.9
164454
163925
53356.8
26441.3
26664.5
53829.5
162907
162367
53167.3
26427.9
26646.7
53625.7
161334
160782
52960.6
26408.5
26622.5
53404.8
159733
159171
52731.7
26382.4
26591
53164.8
158106
157533
52485.3
26348.5
26551.3
52906.2
156453
155871
52218.2
26306.2
26502.4
52626.3
154777
154188
51927.9
26254
26442.8
52322.3
153082
152490
51611.8
26190.3
26370.6
51991.7
151375
150783
51267
26113.1
26283.6
51631.7
149663
149078
50889.9
26016.5
26178
51238.4
147961
147388
50476.7
25897.6
26051.4
50808.5
146282
145732
50024.3
25756.9
25901.5
50338.7
144646
144130
49529
25589.7
25723.9
49825.5
143077
142609
48987
25391.5
25513.9
49265.3
141603
141200
48395.3
25157.6
25267
48655
140257
139941
47759.7
24884.4
24979.7
47997.6
139085
138866
47101.6
24571.6
24652.2
47313
138140
138018
46412.4
24210.8
24278.1
46598.1
137442
137423
45701
23807.9
23865
45867.1
137045
137110
44988.2
23373.9
23424.1
45140.5
136901
137094
44299.1
22924.2
22971
44451.7
137044
137381
43654.7
22466
22511.9
43823.1
137434
137949
43083.4
22012.3
22063.9
43270.2
138106
138773
42619.4
21592.5
21655.9
42831.1
139007
139779
42265.9
21224.9
21304.1
42530
140070
140914
42005.1
20916.4
21012.6
42349.4
141248
142145
41864.4
20669.8
20783.2
42266.9
142507
143436
41833.9
20485.1
20616
42297
143810
144744
41912.9
20361.9
20510.2
42431.5
145117
146035
42089.8
20294.7
20461.7
42657.2
146395
147278
42354
20268.4
20463.7
42959.4
147617
148447
42686.2
20294.5
20518
43346
148756
149521
43074.4
20369.8
20635.3
43810
149795
150484
43533.9
20494.5
20785.7
44304.5
150718
151321
44020.2
20649
20958.5
44811.4
151512
152027
44516
20824.5
21148
45315.1
152174
152603
45006.7
21015.2
21347.5
45801.9
152708
153056
45479.2
21214.2
21550.2
46261
153123
153399
45923.6
21415
21750.8
46685.2
153433
153646
46333.4
21612.5
21944.5
47070.5
153651
153804
46704.7
21802.4
22127.8
47415.1
153790
153896
47036.5
21981.4
22298.6
47720
153867
153936
47330.1
22147.8
22455.6
47986.7
153894
153938
47587.1
22300.3
22598.6
48223.4
153878
153908
47812.2
22439.1
22727.9
48432.6
153819
153842
48006
22564.2
22844.1
48610.7
153737
153753
48170.7
22676.4
22948.4
48763.8
153634
153646
48314.6
22777.4
23042.2
48897.2
153515
153524
48439.7
22868.4
23127.2
49013
153383
153395
48548.3
22949.5
23204.3
49112
153240
153254
48642.4
23021.3
23272.3
49198.8
153094
153101
48725.2
23085
23333.4
49275.3
152943
152949
48796.4
23142.1
23386.2
49341.9
152817
152756
48852.7
23191.1
23445.9
49400.5
152686
152591
48947.1
23225.9
23467.9
49571.5
152635
151969
48744.1
23131.6
23268
48759.7
151429
149532
48555.4
22988.9
21917.5
46329.2
147098
138327
48504.9
22452.6
15523.5
27062.6
124070
139430
60773.2
28132.3
13626.1
7036.12
4374.11
3429.57
3055.11
2533.26
2312.58
2154.64
2089.04
2072.3
2105.88
2203.55
2337.71
2582.05
2861.08
3452.91
3781.99
4729.73
5754.18
7585.15
11739.3
22976.9
55481
128443
406211
435361
139131
61083.1
64697.6
147081
460944
483046
153665
68300.4
68335
155066
489329
495184
156318
69543.6
69722.6
157853
498941
499560
158271
69992.1
69914.6
158269
499350
499712
158313
69927.8
69919.6
158336
499544
499650
158322
69892.6
69882.2
158328
499758
499600
158314
69854.5
69824.9
158316
500305
500189
158289
69804.4
69778.8
158289
500337
500218
158278
69748.8
69727.6
158281
500637
501074
158199
69678.7
69656.6
158233
500633
501059
158149
69619.2
69604.2
158207
501199
501629
158100
69570.4
69556.8
158164
501208
501652
158076
69517.6
69500.1
158134
501826
502298
158022
69455.6
69435.8
158077
501909
502365
157983
69392.4
69374.4
158041
502534
502969
157925
69334.3
69320.3
157981
502532
502976
157891
69293.3
69282.5
157956
503149
503617
157842
69247.8
69235.1
157901
503532
503454
157863
69194.1
69175.1
157862
503918
504392
157783
69138.5
69124.9
157818
504270
504163
157790
69094.6
69083.2
157795
504611
505092
157723
69061.4
69055.3
157767
504987
504912
157744
69036.6
69028.9
157769
505388
505888
157710
69008.2
69000.9
157760
505790
505709
157747
68988.2
68986.4
157796
506169
506645
157757
68977.7
68977.9
157836
506523
506428
157836
68971.8
68974.6
157920
506886
507374
157903
68968.9
68975.2
158009
507268
507183
158045
68975.5
68992.8
158169
507637
508117
158189
68999.2
69018
158352
507997
507902
158422
69023
69044.4
158587
508348
508816
158660
69052.3
69079.4
158867
508397
508852
158983
69090
69117.2
159235
509002
509431
159365
69127.8
69170.9
159664
508985
509386
159862
69192.2
69231.2
160214
509497
509879
160433
69243
69257.1
160819
509688
509496
161116
69257
69275.6
161524
509871
510244
161846
69276.9
69287.9
162331
510034
509837
162708
69266.8
69254.8
163175
510217
510639
163508
69187.3
69152.9
163992
510231
510744
164316
69053.2
68985.5
164786
511012
511632
165034
68835.2
68726.6
165445
511723
511925
165681
68548.1
68443.2
165996
512824
513651
166114
68203.6
67945.6
166189
514645
515909
166148
67510.3
67075.2
165943
517371
519142
165501
66547
65995.2
164804
521175
523486
163661
65215.7
64117.7
160241
520825
518179
156621
63266.9
62722.5
154530
524581
521939
155453
62232.8
61203.8
146854
514178
511159
148076
61054.3
60477.4
143556
503110
496269
141224
60109
60184
138388
484634
469864
133644
59966.8
60377.1
131405
459384
452652
130429
60912.6
61682.6
130668
434856
406799
121612
62365.1
64134.3
120232
595787
975134
346549
141366
69492.9
172854
729043
657062
186924
74418.1
71838.8
176791
649676
643351
182181
74133
70920
170274
624223
602039
171382
71792.5
68666.7
155580
574771
548106
158146
70328
68711.3
145343
519587
488471
146026
69626
68760.8
134740
445712
636889
128418
69804.9
146811
354641
1.00366e+06
719139
165894
71512.7
74200.9
176644
605469
548129
145139
66538.6
66990.2
146607
513580
478604
135553
64982.3
65389.4
132326
447130
413117
123575
64870.7
67856.9
123206
597666
938003
345946
140368
72499.9
156142
683565
594190
167793
75612
72062.2
149945
556823
517925
154495
74290.5
73747
142178
467918
666038
134171
76174.7
154272
352768
1.01246e+06
705111
172684
78457.4
79771.6
173108
578154
501971
146273
71490.1
71979.9
137876
450660
654279
135685
75551.8
153523
354095
998149
704855
163590
80554.5
83702
176612
579986
511670
153117
78123.6
80391.3
145769
718511
1.04271e+06
368519
161336
80889.9
169188
705663
551777
174282
80290.1
68994.6
137776
486356
664933
139363
73959.6
148595
343160
903239
624399
152728
74391.2
77865.8
156816
789497
985193
376845
153571
66512.4
150539
656394
792535
146296
65282.8
128147
288399
833969
1.01282e+06
163619
64911.2
91552.7
198678
809452
827198
160514
58690.9
71129.8
191384
993484
1.02878e+06
196842
73014.5
65748.3
175160
915607
800480
104073
39067.7
153625
341386
806631
935793
161023
81533.6
186100
374639
846897
781075
189762
99472.9
105691
214703
673211
1.12112e+06
457718
224065
127573
175169
959572
826080
366737
191589
104201
177087
695256
574501
187841
105516
194022
393428
915972
716508
171637
107713
106980
180800
575403
926775
389619
189731
106064
167903
713522
570860
174929
105023
185982
379730
913374
699411
164042
104032
103077
170841
564970
909743
379750
182254
102120
162028
686569
551749
168876
100923
179098
369614
886533
659151
157381
100317
99837.9
164974
535607
875486
365384
176439
98779.9
155053
646877
520853
161279
97580.1
166755
344589
828623
602412
144595
94354.4
97197.6
163777
459939
634230
187737
103383
192086
400038
1.04688e+06
748560
169869
105472
102872
175913
597119
985414
408451
185888
103052
164744
715431
579210
172688
102485
183344
374209
974292
711283
161374
103313
102255
169600
576591
958130
395218
182957
101989
161127
694736
567224
169105
101850
181636
396704
965007
702813
162323
101563
100754
166180
565846
957345
380277
182404
101786
159613
695034
562883
171688
102087
184832
380784
970233
720736
163442
104047
103722
175802
590685
1.04115e+06
406471
195106
113609
144896
817261
732753
319034
166900
93636.2
144029
557936
475685
155078
94864.9
168791
346545
823635
614179
147200
95707
96249.6
157011
502577
844663
349744
169334
95774.2
148428
622493
512618
156055
95933.9
175030
363620
873943
651390
152720
98128.3
98649.2
163165
531237
901534
374544
178036
99917.4
158175
678585
565964
169078
100748
193608
403889
1.01738e+06
810165
142813
114101
172503
325070
740468
578054
154679
97424.8
99281.5
165626
496126
868657
365566
179026
101854
158299
662685
550883
167075
102298
192478
397851
968494
782818
143140
113481
170129
321360
719006
557476
150163
96234.5
98712.5
163850
485387
858156
364924
178138
101805
157964
652271
550594
171984
102858
195621
405569
988300
795632
147256
116139
174633
329688
734341
577510
155848
99524
101699
170056
505063
892359
376134
185280
105903
164503
669516
569245
179450
106751
205205
454238
1.01735e+06
822521
157257
120356
179981
343733
761405
594022
158523
102454
105788
178615
527733
984434
415140
202380
120681
151338
807748
761869
337523
180440
103605
163930
598669
519579
179392
106433
202534
424210
946009
786062
158790
121414
179267
335520
743379
591431
160063
103234
106945
180321
520759
967079
436444
204349
122808
156418
812898
762790
343080
182612
105741
165308
598569
529284
184993
108944
207920
419488
969837
802793
156158
125200
184916
338944
763715
614737
168296
107520
111607
188987
549946
1.01115e+06
464487
216060
130518
161438
857193
836183
368102
195975
118826
156100
715492
684709
329159
177121
106028
167446
562981
514212
189278
110646
210306
431776
967874
810265
161437
128123
189016
344612
768065
618290
172983
111162
115237
195914
556622
1.03313e+06
475702
222128
134989
168895
876202
847779
375241
201162
122611
160914
731769
716137
334274
181428
108970
172905
587572
529265
193422
113709
217594
436343
992192
845464
163087
133089
196963
357374
816889
714257
158210
122351
182055
332347
701467
583382
175480
110196
115827
199521
531074
988008
452692
219345
135415
166192
853989
836372
368526
200947
124446
160509
722451
707694
336986
184086
111331
176353
581183
529429
199056
116695
220492
440941
985693
836382
167778
136152
200928
363659
815690
717529
162862
125659
186229
340441
715987
600959
180489
113436
119383
205312
554306
1.0496e+06
453175
229048
142031
170730
897925
880375
381398
210943
131599
167178
757054
750474
357819
195756
118931
188035
616508
560373
211424
124491
235036
461849
1.04612e+06
890714
176206
145122
214679
391762
885832
772692
173018
134845
201295
365959
777799
705959
170254
129396
191230
342057
704551
587478
183939
117954
125084
210935
546475
1.03291e+06
488439
236285
147938
182274
909779
904024
399979
219098
138257
178320
790411
799146
374764
204879
132341
174319
715852
715133
351867
195134
120830
189200
603881
557130
213246
127233
239062
465527
1.04622e+06
905670
179889
149651
220305
398166
898299
781426
180102
139512
206863
373372
788499
708047
175160
134255
197127
353026
711537
602529
191127
122557
129774
217147
559706
1.05999e+06
473192
243146
152460
184705
921730
919454
406841
224913
143872
183534
814660
832038
392874
214487
139901
184225
746930
745640
367930
204587
127744
199067
623974
580652
225750
134342
251835
513684
1.07547e+06
930995
196756
159136
232535
416303
926328
814360
185225
147304
218910
395264
837624
775180
188526
142993
211199
381106
795102
719269
182599
139770
204961
361175
729559
627673
200806
128660
136326
228949
588461
1.12878e+06
497692
256476
161401
195434
969272
963970
431046
238776
153571
195805
837577
855231
409768
226328
149247
195227
782409
803448
390060
218413
144610
189102
733206
744234
369960
209641
131776
203948
628805
581842
228996
138709
256807
494079
1.08309e+06
926902
194430
163174
240981
427982
935844
833957
196918
154115
227734
408040
851828
772521
195328
149988
220571
391957
798809
734614
191594
146746
212601
370514
743097
632895
207575
134826
142602
236820
596199
1.12336e+06
503206
263552
167717
203340
964522
975143
439216
245652
159541
202461
870681
892429
422356
235020
156141
203198
809093
831542
404382
228008
151896
197324
745042
756686
382123
219947
139825
212405
639250
598170
240627
146692
268374
513039
1.12064e+06
965897
205928
170958
251027
443976
976842
862624
205183
161945
237221
421173
881212
803612
204702
157590
230587
406549
832975
758452
200343
154493
224128
389927
775582
662182
218924
142806
150965
250485
625893
1.18993e+06
528362
279337
177824
213660
1.00963e+06
1.02265e+06
466406
262067
170289
216841
898209
916571
441418
248985
166121
215069
837848
871612
425001
242010
162928
210227
796792
830046
410684
235884
158620
205031
758500
772161
391752
227370
145028
220044
645926
608585
248442
152460
277230
534346
1.12469e+06
968006
216416
178893
259390
452376
974947
856620
212449
168278
245575
429905
881701
798805
211179
163897
238132
415544
830852
758565
208665
159903
229752
392799
770346
653063
222653
147245
155929
254082
620888
1.15624e+06
538384
285357
183561
221656
990601
1.00145e+06
465420
266504
174667
220072
893912
922846
446802
254120
171127
220391
829800
863435
430169
247586
167326
216518
785920
803463
409198
239677
153648
231862
670341
632858
260459
161476
292290
562008
1.16433e+06
1.00264e+06
231414
189289
272671
472147
1.0045e+06
880335
223567
177760
257347
447825
907211
825913
222242
172757
249414
430205
859567
775324
218674
168155
240306
408680
796003
672885
232713
154860
163983
265379
643173
1.18678e+06
561864
296999
192209
232900
1.0251e+06
1.04461e+06
487186
279635
183751
231922
913634
943143
466213
266446
179877
232243
850478
884354
446392
259153
175560
227612
799965
819528
422491
250030
161107
240375
682727
650907
270357
169031
300903
563224
1.17731e+06
1.00646e+06
238664
195483
281739
483533
1.02535e+06
895233
229770
184520
266541
457533
927884
837153
229677
178904
258497
440611
861544
723607
251676
165334
174905
285920
691800
1.27134e+06
592599
319996
206314
250490
1.07842e+06
1.09111e+06
510697
296989
195121
241498
949240
983596
484967
281411
188455
243662
865597
883908
457903
270020
172965
259635
738042
704016
290566
181401
325131
623887
1.26126e+06
1.08543e+06
260481
211332
303242
518104
1.10236e+06
951073
247381
197868
286153
491033
985416
880612
247630
191695
276760
470214
914527
766179
267632
177016
186640
304524
730269
1.33933e+06
624023
338586
218227
264606
1.1284e+06
1.1408e+06
536943
313671
206282
254423
979017
1.01859e+06
505267
295994
198433
257325
899710
924359
478924
283408
181621
271962
770173
738985
303617
190201
339892
624064
1.32525e+06
1.11095e+06
267028
220350
317195
539215
1.13232e+06
976876
258596
207287
298011
504971
1.01542e+06
893748
258270
199814
286867
482032
928403
779848
276697
184019
193590
311585
750610
1.33827e+06
644577
347449
225381
277395
1.12351e+06
1.148e+06
546711
322612
210890
266815
975544
994179
505100
300608
191270
285748
813338
779275
315490
199852
361728
665435
1.39193e+06
1.15045e+06
284471
232065
332384
561571
1.16797e+06
1.00287e+06
271959
216985
310948
523555
1.04605e+06
912280
268798
207507
296022
495892
948216
784262
283137
189581
200123
317963
754234
1.33083e+06
660858
355870
231394
287659
1.12838e+06
1.15268e+06
556909
329907
216215
275154
978862
1.00849e+06
515835
307953
195926
291730
826911
788572
324578
204405
363281
671051
1.35913e+06
1.13628e+06
294866
235831
337279
565575
1.16755e+06
985421
281124
219165
311821
519468
1.01119e+06
822946
294797
198138
208131
330133
789591
1.37203e+06
684657
369060
237511
303018
1.13834e+06
1.14361e+06
568404
338778
210003
307813
904549
859027
341190
217710
387187
721856
1.49837e+06
1.23125e+06
306172
249412
361792
614963
1.26058e+06
1.05825e+06
304991
233747
335376
562586
1.08372e+06
882507
318069
211784
221107
355539
848220
1.46175e+06
722933
392107
251761
322444
1.19869e+06
1.20671e+06
594937
357518
220558
320550
944063
894657
353344
228015
401900
744666
1.5228e+06
1.24611e+06
326113
257862
370478
617940
1.26616e+06
1.00202e+06
338287
227689
235556
376680
949721
1.62334e+06
800284
425836
269657
346359
1.29607e+06
1.29934e+06
646530
386141
234899
344278
1.01115e+06
953231
379793
242495
429092
791868
1.6176e+06
1.31094e+06
347978
273175
392019
651306
1.3227e+06
1.04193e+06
352102
239493
247658
389771
988628
1.69051e+06
826654
442026
279224
342922
1.35528e+06
1.3711e+06
680471
406220
244759
367351
1.05405e+06
991794
401490
252498
447689
829236
1.65567e+06
1.33072e+06
367188
283722
404117
666652
1.34039e+06
1.04476e+06
359042
245545
253402
396397
990548
1.66267e+06
824840
446167
282285
365124
1.3325e+06
1.34088e+06
666338
402478
242541
355554
1.02587e+06
965587
379270
248406
433952
798337
1.57307e+06
1.1773e+06
378564
261122
266380
407789
1.08582e+06
1.7602e+06
875334
469108
291662
383895
1.39324e+06
1.3971e+06
694374
417243
250172
366184
1.06733e+06
1.00598e+06
401811
258010
445192
813618
1.61965e+06
1.21818e+06
390630
266460
268910
405862
1.11727e+06
1.78653e+06
888598
471355
277463
413109
1.31292e+06
1.1908e+06
437755
279950
501483
945126
1.89971e+06
1.47026e+06
409648
308231
443155
734473
1.46459e+06
1.10105e+06
382505
260126
267907
416069
1.0305e+06
1.63678e+06
830587
458831
270075
397699
1.21615e+06
1.11231e+06
408415
272430
472235
873955
1.75729e+06
1.27318e+06
409794
276009
279199
433200
1.14956e+06
1.77328e+06
885254
483172
278567
413175
1.28071e+06
1.15567e+06
435061
281003
482155
882414
1.76918e+06
1.28801e+06
413217
280013
283698
437033
1.17455e+06
1.82368e+06
898967
488370
281027
416134
1.30672e+06
1.11997e+06
452945
286398
299456
513144
1.47069e+06
2.20164e+06
1.05784e+06
544984
305119
471094
1.50642e+06
1.33345e+06
486243
302958
524015
982287
1.98618e+06
1.38623e+06
447665
295052
295186
457905
1.18383e+06
1.54097e+06
526185
308351
570029
1.11982e+06
2.26761e+06
1.50938e+06
485223
308822
311553
505215
1.26884e+06
1.63397e+06
571348
325632
594694
1.12505e+06
2.41324e+06
1.59794e+06
492936
315570
317829
510856
1.34405e+06
1.68658e+06
577097
324725
591250
1.15695e+06
2.40785e+06
1.54999e+06
498503
312596
304167
490089
1.27078e+06
1.5477e+06
610147
332996
329783
546677
1.93884e+06
2.67076e+06
1.39629e+06
648902
331512
553193
1.69163e+06
1.37871e+06
553797
327539
335408
621297
1.59821e+06
1.80258e+06
593439
318922
343507
728194
1.9528e+06
2.1598e+06
726281
328074
634592
1.38087e+06
2.7423e+06
1.62028e+06
528023
312739
303607
517614
1.2913e+06
1.39671e+06
565098
303866
297322
561475
1.46684e+06
1.52089e+06
573030
292515
289924
599769
1.53392e+06
1.51809e+06
608536
288130
285032
613939
1.49661e+06
1.46116e+06
612749
283194
280458
607961
1.42457e+06
1.38652e+06
599105
278351
276002
592230
1.34882e+06
1.31241e+06
587347
274743
273769
584127
1.2783e+06
1.24677e+06
582263
273842
274018
581269
1.21782e+06
1.1913e+06
580931
274902
275881
580853
1.16703e+06
1.14514e+06
580690
277524
278930
580278
1.12539e+06
1.10769e+06
579509
280703
282104
578260
1.09172e+06
1.07741e+06
576672
283671
284813
574539
1.06461e+06
1.05329e+06
572068
285917
286548
569040
1.04326e+06
1.0345e+06
565755
287005
286930
561928
1.02683e+06
1.02022e+06
557945
286739
286102
553480
1.01444e+06
1.0095e+06
548997
285370
283995
544091
1.00518e+06
1.00155e+06
539227
282868
281139
533965
998422
995826
528663
280066
278389
523098
993598
991775
517627
277350
275713
511965
990208
988935
506484
274692
273089
500863
987835
986953
495492
272084
270491
490023
986192
985584
484847
269466
267852
479605
985047
984663
474691
266792
265147
469737
984288
984019
465109
264047
262381
460484
983791
983608
456189
261264
259593
451903
983467
983320
447946
258474
256805
443996
983199
983031
440380
255691
254045
436766
982896
982691
433479
252942
251315
430187
982532
982272
427221
250241
248654
424235
982082
981772
421558
247602
246064
418854
981552
981190
416451
245042
243562
414006
980933
980535
411843
242567
241149
409634
980247
979815
407703
240184
238818
405715
979491
979041
403984
237867
236538
402187
978694
978232
400641
235620
234333
399013
977866
977405
397623
233444
232204
396143
977034
976574
394905
231351
230157
393566
976200
975747
392449
229339
228193
391231
975377
974922
390230
227419
226322
389119
974555
974107
388211
225585
224537
387190
973751
973314
386375
223844
222842
385439
972967
972534
384697
222188
221231
383829
972200
971782
383170
220616
219712
382373
971460
971050
381766
219128
218266
381026
970750
970357
380487
217722
216903
379805
970076
969696
379310
216393
215613
378681
969438
969083
378231
215134
214398
377655
968845
968511
377245
213950
213251
376716
968298
967990
376335
212831
212170
375852
967806
967526
375498
211776
211151
375054
967374
967123
374723
210780
210191
374312
967002
966782
374008
209842
209285
373622
966687
966503
373342
208957
208430
372981
966428
966282
372722
208123
207622
372380
966229
966122
372138
207336
206861
371816
966088
966017
371590
206594
206141
371283
966003
965974
371071
205892
205460
370782
965978
965976
370582
205228
204815
370307
966004
966020
370118
204599
204205
369860
966079
966112
369681
204003
203626
369436
966199
966248
369267
203437
203077
369037
966362
966428
368877
202901
202556
368660
966563
966646
368509
202392
202061
368306
966798
966895
368163
201909
201590
367972
967064
967175
367837
201449
201141
367659
967359
967481
367532
201012
200715
367364
967678
967811
367244
200595
200308
367090
968020
968164
366976
200197
199921
366832
968382
968535
366725
199816
199553
366593
968762
968924
366490
199453
199200
366368
969159
969330
366270
199106
198862
366159
969572
969751
366066
198773
198539
365963
970000
970186
365875
198455
198229
365783
970441
970633
365699
198149
197932
365615
970893
971091
365536
197856
197646
365462
971354
971556
365387
197575
197372
365320
971821
972028
365250
197304
197109
365192
972295
972504
365127
197045
196855
365074
972773
972983
365017
196795
196612
364969
973254
973464
364917
196555
196377
364874
973736
973946
364828
196324
196152
364791
974219
974428
364750
196102
195936
364719
974699
974910
364682
195889
195728
364658
975179
975389
364623
195684
195527
364603
975658
975867
364573
195486
195334
364556
976136
976343
364530
195294
195146
364515
976613
976820
364493
195109
194964
364482
977090
977297
364464
194929
194788
364453
977569
977776
364440
194755
194617
364432
978050
978257
364423
194586
194451
364415
978533
978741
364411
194422
194290
364407
979019
979227
364405
194262
194132
364404
979509
979718
364407
194107
193981
364409
980001
980210
364417
193957
193834
364424
980493
980700
364439
193813
193695
364448
980980
981182
364469
193676
193560
364482
981461
981656
364507
193544
193455
364530
981932
982116
364556
193391
193317
364575
982023
982581
364612
193305
193196
364632
983224
983012
364673
193205
193066
364701
983307
983438
364868
193092
192924
364497
983328
983261
364741
192884
192539
363956
982874
985040
365413
193118
193332
366402
988898
998165
371123
195203
196117
372099
993401
981199
361232
191015
188847
356487
963699
105144
57954
31249.2
19291.1
17997.3
12112.4
8885.4
7355.26
6959.67
5245.83
3817.41
2988.68
2263.53
1648.92
1168.02
815.096
573.646
411.57
303.354
229.996
179.255
143.362
117.439
98.3559
84.104
73.3269
65.1972
59.0586
54.6136
51.4831
49.4714
48.3072
47.782
47.265
46.3369
45.0629
43.5277
41.8423
40.0483
38.2111
36.3229
34.3936
32.4044
30.3399
28.1711
25.4104
21.397
16.356
11.4262
7.47662
4.67409
2.82308
1.66636
0.986405
0.622086
0.446532
0.367796
0.334599
0.320932
0.314981
0.312021
0.309698
0.307545
0.305495
0.303505
0.301538
0.299564
0.297551
0.29547
0.293296
0.291001
0.288559
0.285943
0.28313
0.280096
0.276816
0.273273
0.269446
0.265322
0.260889
0.256142
0.251081
0.24571
0.24004
0.234091
0.227882
0.221444
0.214808
0.208009
0.201085
0.194076
0.187019
0.179954
0.172917
0.165941
0.159059
0.152298
0.145683
0.139234
0.132971
0.126903
0.121046
0.115403
0.109982
0.104784
0.0998098
0.0950579
0.0905273
0.0862105
0.082105
0.0782035
0.0744995
0.070986
0.0676555
0.0645002
0.0615126
0.0586849
0.0560094
0.0534785
0.0510849
0.0488211
0.0466813
0.0446575
0.0427444
0.0409351
0.0392244
0.0376062
0.0360759
0.0346283
0.0332581
0.0319617
0.0307342
0.0295722
0.0284714
0.0274287
0.0264407
0.025504
0.0246158
0.0237738
0.0229748
0.0222166
0.0214969
0.0208135
0.0201643
0.0195477
0.0189616
0.0184045
0.0178747
0.0173707
0.0168914
0.0164351
0.0160009
0.0155874
0.0151937
0.0148186
0.0144613
0.0141208
0.0137962
0.0134868
0.0131919
0.0129107
0.0126426
0.0123868
0.0121429
0.0119102
0.0116882
0.0114765
0.0112746
0.0110819
0.0108982
0.010723
0.0105559
0.0103966
0.0102447
0.0101
0.0099622
0.00983092
0.00970596
0.00958706
0.009474
0.00936656
0.00926453
0.00916772
0.00907595
0.00898905
0.00890687
0.00882924
0.00875604
0.00868713
0.00862239
0.00856172
0.00850501
0.00845218
0.00840315
0.00835784
0.00831622
0.00827823
0.00824386
0.00821317
0.00818625
0.00816325
0.0081444
0.00812981
0.00811986
0.008114
0.00811134
0.00810948
0.00810801
0.00810802
0.00810788
0.00810802
0.00810879
0.00811043
0.00811298
0.00811567
0.00811715
0.00811645
0.0081136
0.00810911
0.00810346
0.00809696
0.00808974
0.00808182
0.00807317
0.00806375
0.00805352
0.00804246
0.00803056
0.00801784
0.00800431
0.00798997
0.00797484
0.00795894
0.00794227
0.00792485
0.00790669
0.0078878
0.0078682
0.00784791
0.00782693
0.0078053
0.00778302
0.00776012
0.00773661
0.00771252
0.00768786
0.00766266
0.00763693
0.00761071
0.00758401
0.00755686
0.00752929
0.00750132
0.00747297
0.00744428
0.00741528
0.00738599
0.00735644
0.00732666
0.0072967
0.00726659
0.00723636
0.00720607
0.00717579
0.00714568
0.00711609
0.00708774
0.0070623
0.00704366
0.00704041
0.00707209
0.00718176
0.00746282
0.00811341
0.00954297
0.0126143
0.0190736
0.0323366
0.0588952
0.110762
0.209738
0.394461
0.733123
1.34737
2.45569
4.43374
7.81112
12.951
19.3034
25.4069
30.6241
37.1983
54.6461
111.23
353.219
1710.33
5117.1
6290.97
6386.69
7291.31
7250.98
7981.9
7894.46
8501.65
8379.87
8920.41
8775
9266.55
9104.29
9558.25
9383.61
9807.91
9623.87
10024.4
9832.79
10213.9
10016.3
10381.3
10178.7
10529.6
10322.8
10661.4
10451
10778.9
10565.7
10884.5
10669
10980.1
10762.6
11067.2
10848.4
11147.5
10927.6
11221.8
11001.3
11291.2
11070.4
11356.6
11135.5
11418.4
11197.2
11477.1
11255.9
11533.2
11312.1
11587.1
11366
11638.8
11417.9
11688.8
11467.5
11737.1
11515
11782.9
11560.2
11826.5
11603.4
11868
11644.3
11907.3
11683.1
11944.1
11719.3
11978.1
11752.4
12008.6
11781.7
12034.6
11806
12054.9
11824
12067.9
11833.9
12071.1
11833
12062.4
11819
12038.8
11788.6
11996.8
11738.4
11932.8
11664.8
11843.3
11563.2
11725.1
11426
11577
11264.9
11404.9
11081.2
11210.9
10879.1
10999.2
10661.2
10775.1
10436.9
10548.1
10217.5
10328.1
10009.4
10120.7
9816.32
9929.56
9641.15
9757.34
9486
9605.94
9352.14
9476.41
9239.95
9368.92
9148.9
9282.74
9073.33
9215.48
9015.75
9168.44
8978.4
9142.84
8961.62
9137.46
8963.46
9149.54
8981
9175.86
9011.05
9213.21
9050.6
9259.11
9097.06
9311.7
9148.28
9366.22
9201.19
9421.27
9254.47
9475.65
9306.9
9528.31
9357.53
9578.5
9405.72
9626.08
9451.27
9671.5
9494.24
9713.96
9534.25
9753.38
9570.57
9789.81
9603.7
9822.56
9634.26
9852.66
9662.47
9878.32
9685.55
9910.08
9703.08
9945.16
9706.6
9956.55
9551.53
9877.03
8916.64
8756.14
7015.77
4674.67
5045.28
5504.58
3490.2
5966.98
5554.14
3508.21
6015.72
5557.01
3541.15
6028.91
5567.87
3536.47
6023.8
5561.53
3531.95
6009.33
5551.07
3522.89
5995.38
5538.62
3512.38
5980.69
5524.35
3501.52
5964.48
5508.83
3490.35
5947.36
5492.39
3478.84