/*--------------------------------*- C++ -*----------------------------------*\
| =========                 |                                                 |
| \\      /  F ield         | OpenFOAM: The Open Source CFD Toolbox           |
|  \\    /   O peration     | Version:  v2006                                 |
|   \\  /    A nd           | Website:  www.openfoam.com                      |
|    \\/     M anipulation  |                                                 |
\*---------------------------------------------------------------------------*/
FoamFile
{
    version     2.0;
    format      ascii;
    class       volVectorField;
    location    "0.139";
    object      U;
}
// * * * * * * * * * * * * * * * * * * * * * * * * * * * * * * * * * * * * * //

dimensions      [0 1 -1 0 0 0 0];


internalField   nonuniform List<vector> 
16277
(
(48.3133 0.00149135 -3.25543e-19)
(48.3137 -0.00410978 0)
(48.3133 0.0044692 0)
(48.3129 -0.0039085 0)
(48.3127 0.000439968 -5.21962e-21)
(48.311 -0.00146584 -7.84557e-19)
(48.3061 -0.00143559 9.11079e-19)
(48.2905 -0.00373541 0)
(48.2552 -0.00807821 0)
(48.1993 -0.0140874 0)
(48.1283 -0.0207941 -3.42985e-21)
(48.0502 -0.0271765 -6.9908e-21)
(47.9697 -0.0328978 1.77011e-21)
(47.8888 -0.0379524 0)
(47.8072 -0.0425152 0)
(47.7241 -0.0467456 0)
(47.6385 -0.0507548 0)
(47.5496 -0.0546028 0)
(47.4569 -0.0583085 0)
(47.3603 -0.0618752 0)
(47.2598 -0.065302 0)
(47.1554 -0.0685927 0)
(47.0472 -0.0717569 0)
(46.9352 -0.0748079 0)
(46.8196 -0.0777593 0)
(46.7003 -0.0806225 0)
(46.5774 -0.0834061 0)
(46.4509 -0.0861151 0)
(46.3209 -0.0887519 0)
(46.1875 -0.0913165 0)
(46.0508 -0.0938073 0)
(45.9109 -0.0962213 0)
(45.7679 -0.0985552 0)
(45.6218 -0.100805 0)
(45.4728 -0.102966 0)
(45.3211 -0.105033 0)
(45.1668 -0.107003 0)
(45.01 -0.108869 0)
(44.8508 -0.110628 0)
(44.6894 -0.112274 0)
(44.526 -0.113804 0)
(44.3608 -0.115212 0)
(44.1938 -0.116496 0)
(44.0253 -0.117651 0)
(43.8554 -0.118674 0)
(43.6844 -0.11956 0)
(43.5123 -0.120307 0)
(43.3394 -0.120911 0)
(43.1659 -0.12137 0)
(42.9919 -0.121681 0)
(42.8177 -0.12184 0)
(42.6435 -0.121845 0)
(42.4694 -0.121696 0)
(42.2957 -0.121393 0)
(42.1226 -0.120933 0)
(41.9502 -0.120286 0)
(41.7788 -0.119465 0)
(41.6086 -0.118504 0)
(41.4399 -0.117387 0)
(41.2727 -0.116105 0)
(41.1074 -0.114656 0)
(40.9441 -0.113041 0)
(40.7831 -0.111263 0)
(40.6245 -0.109321 0)
(40.4686 -0.107217 0)
(40.3156 -0.104951 0)
(40.1657 -0.102523 0)
(40.019 -0.099934 0)
(39.8758 -0.0971798 0)
(39.7362 -0.0942548 0)
(39.6004 -0.0911502 0)
(39.4686 -0.0878542 0)
(39.341 -0.0843543 0)
(39.2178 -0.080641 0)
(39.0993 -0.07671 0)
(38.9854 -0.0725594 0)
(38.8761 -0.068172 0)
(38.7708 -0.0634768 0)
(38.6684 -0.0582818 -3.00539e-20)
(38.5679 -0.0522711 2.99888e-20)
(38.4686 -0.0449844 0)
(38.373 -0.0362091 8.95639e-20)
(38.289 -0.0265777 -5.91729e-20)
(38.23 -0.018197 0)
(38.2039 -0.0128868 -1.71875e-18)
(38.2034 -0.0105385 1.11694e-18)
(38.2136 -0.00964129 0)
(38.2258 -0.00943621 0)
(38.2355 -0.00935746 0)
(38.2345 -0.00738605 1.73931e-17)
(38.2272 -0.00459657 -1.02955e-17)
(38.2028 -0.0102857 -1.26074e-17)
(38.1411 -0.0202389 -3.78944e-18)
(38.038 -0.0398383 2.12423e-18)
(37.8702 -0.0576764 0)
(37.6772 -0.0669742 0)
(36.9673 -0.102504 -2.76501e-19)
(36.5115 -0.0930303 2.32529e-18)
(37.6857 -0.113576 1.73418e-18)
(37.9173 -0.0967241 -5.82618e-18)
(37.9413 -0.11928 0)
(37.6343 -0.133698 1.79698e-18)
(35.9973 -0.0920246 1.93198e-18)
(35.4886 -0.0845119 7.19843e-19)
(37.5735 -0.133343 4.0121e-19)
(37.9636 -0.124081 1.3379e-18)
(37.9612 -0.121239 1.33887e-18)
(37.4801 -0.122897 0)
(35.0208 -0.0739645 -1.25593e-18)
(34.5896 -0.0643158 1.16925e-19)
(37.381 -0.112505 0)
(37.9471 -0.118002 0)
(37.908 -0.113521 1.65997e-19)
(37.253 -0.103539 0)
(34.187 -0.0571964 2.47782e-24)
(33.8232 -0.0518371 1.35737e-19)
(37.1364 -0.0967124 0)
(37.867 -0.111141 -1.66841e-19)
(37.8075 -0.10765 1.0556e-20)
(37.004 -0.0912534 3.94239e-19)
(33.4789 -0.0475947 -5.07059e-19)
(33.1772 -0.0430715 4.92703e-19)
(36.8893 -0.0858035 3.96173e-19)
(37.7547 -0.107179 -6.88854e-19)
(37.6833 -0.103007 -6.81695e-19)
(36.7504 -0.0811023 -7.95395e-19)
(32.885 -0.0400387 0)
(32.6241 -0.0364108 4.95126e-19)
(36.6334 -0.0770816 -4.10852e-19)
(37.6188 -0.102233 -1.06797e-20)
(37.5367 -0.0979761 6.94705e-19)
(36.4914 -0.0731236 -4.11092e-19)
(32.3667 -0.0343524 -4.95408e-19)
(32.1341 -0.0316044 0)
(36.3736 -0.0703014 0)
(37.4651 -0.0973878 0)
(37.3768 -0.0938557 6.84392e-19)
(36.2315 -0.0671188 0)
(31.9033 -0.0301983 0)
(31.6946 -0.0279266 0)
(36.1168 -0.065165 0)
(37.3022 -0.0939984 0)
(37.2071 -0.0907364 0)
(35.9733 -0.0625682 0)
(31.4817 -0.0270664 0)
(31.2879 -0.0251978 0)
(35.8583 -0.0610066 0)
(37.1275 -0.0907352 0)
(37.0263 -0.0878931 0)
(35.7132 -0.0589364 0)
(31.0877 -0.0247464 0)
(30.9064 -0.0229765 0)
(35.5992 -0.0577691 0)
(36.9437 -0.0884082 0)
(36.8401 -0.0857683 0)
(35.4556 -0.056219 0)
(30.7192 -0.0230551 0)
(30.5484 -0.0211441 0)
(35.3434 -0.0551499 0)
(36.7555 -0.0866307 0)
(36.6489 -0.0843077 0)
(35.1999 -0.0540743 0)
(30.37 -0.0216454 0)
(30.2067 -0.01973 0)
(35.0884 -0.0532115 0)
(36.562 -0.0853531 0)
(36.4523 -0.0833475 0)
(34.9446 -0.0524831 0)
(30.0351 -0.0205119 0)
(29.8777 -0.0186429 0)
(34.8334 -0.0516985 0)
(36.3633 -0.0844385 0)
(36.2506 -0.0827264 0)
(34.689 -0.0512534 0)
(29.7113 -0.0196268 0)
(29.5584 -0.017769 0)
(34.5778 -0.0505483 0)
(36.1594 -0.0839348 0)
(36.0439 -0.0824978 0)
(34.4326 -0.0503638 0)
(29.396 -0.0189298 0)
(29.2465 -0.0170651 0)
(34.3208 -0.0497124 0)
(35.9503 -0.0838084 0)
(35.8317 -0.0826184 0)
(34.1743 -0.0497623 0)
(29.087 -0.018384 0)
(28.9399 -0.0164961 0)
(34.0617 -0.0491403 0)
(35.7356 -0.0840138 0)
(35.6137 -0.083046 0)
(33.9136 -0.0494025 0)
(28.7825 -0.0179609 0)
(28.6371 -0.016119 0)
(33.7996 -0.0487871 0)
(35.5149 -0.0844556 0)
(35.3898 -0.0837129 0)
(33.6497 -0.0492313 0)
(28.4811 -0.0176805 0)
(28.3367 -0.0158147 0)
(33.5341 -0.0485896 0)
(35.2881 -0.0851539 0)
(35.1595 -0.0846174 0)
(33.3822 -0.0492175 0)
(28.1815 -0.0174746 0)
(28.0376 -0.0156407 0)
(33.2646 -0.048555 0)
(35.0548 -0.0860875 0)
(34.9226 -0.0857486 6.86211e-19)
(33.1104 -0.0493474 0)
(27.8828 -0.0173674 0)
(27.7388 -0.0155637 0)
(32.9904 -0.0486559 0)
(34.8146 -0.0872666 0)
(34.6786 -0.0871119 0)
(32.8338 -0.0496118 0)
(27.5839 -0.0173441 0)
(27.4396 -0.0155478 0)
(32.7111 -0.0488324 0)
(34.5671 -0.0886735 0)
(34.4271 -0.0886216 0)
(32.5517 -0.0499565 0)
(27.2841 -0.017382 0)
(27.1389 -0.0156011 0)
(32.4263 -0.0492155 0)
(34.3118 -0.0901176 0)
(34.1677 -0.0902376 0)
(32.2637 -0.0504447 0)
(26.9825 -0.0174578 0)
(26.836 -0.0156818 0)
(32.1352 -0.0497382 0)
(34.0485 -0.0917522 0)
(33.8999 -0.0920563 6.86645e-19)
(31.9693 -0.0510666 0)
(26.6783 -0.017569 0)
(26.5302 -0.0158029 0)
(31.8374 -0.0503776 0)
(33.7766 -0.0936039 0)
(33.6233 -0.0940812 0)
(31.6679 -0.0518069 0)
(26.3708 -0.0177248 0)
(26.2208 -0.0159674 0)
(31.5323 -0.0511348 0)
(33.4956 -0.0956656 0)
(33.3375 -0.0963039 0)
(31.3588 -0.0526619 0)
(26.0592 -0.0179247 0)
(25.9068 -0.0161732 0)
(31.2193 -0.0520075 0)
(33.2051 -0.0979299 0)
(33.042 -0.0987171 0)
(31.0416 -0.0536271 0)
(25.7428 -0.0181656 0)
(25.5878 -0.0164166 0)
(30.8977 -0.0529915 0)
(32.9047 -0.100388 0)
(32.7362 -0.101311 6.87073e-19)
(30.7156 -0.0546962 0)
(25.421 -0.0184434 0)
(25.263 -0.0166922 0)
(30.5672 -0.0540808 0)
(32.5938 -0.103029 0)
(32.4198 -0.10407 0)
(30.3804 -0.0558612 0)
(25.0932 -0.0187531 0)
(24.9318 -0.0169954 0)
(30.2271 -0.0552657 0)
(32.2719 -0.105835 0)
(32.0923 -0.106976 0)
(30.0354 -0.057111 0)
(24.7586 -0.0190899 0)
(24.5938 -0.0173277 0)
(29.8771 -0.056525 0)
(31.9389 -0.108774 0)
(31.7534 -0.109997 0)
(29.6803 -0.0584227 0)
(24.417 -0.0194507 0)
(24.2485 -0.0176819 0)
(29.5168 -0.0578349 0)
(31.5942 -0.111818 0)
(31.4027 -0.113098 6.87514e-19)
(29.3148 -0.0597743 0)
(24.068 -0.0198285 0)
(23.8957 -0.0180482 0)
(29.1459 -0.0591692 0)
(31.2378 -0.114915 0)
(31.0403 -0.116216 0)
(28.9387 -0.0611308 0)
(23.7114 -0.0202086 0)
(23.5353 -0.0184088 0)
(28.7645 -0.0604859 0)
(30.8696 -0.117995 0)
(30.6662 -0.119272 0)
(28.5522 -0.0624451 0)
(23.3473 -0.0205701 0)
(23.1676 -0.0187406 0)
(28.3728 -0.0617305 0)
(30.4897 -0.120963 0)
(30.2805 -0.122171 0)
(28.1555 -0.0636635 0)
(22.9762 -0.0208991 0)
(22.7931 -0.0190347 0)
(27.9713 -0.0628522 0)
(30.0986 -0.12372 0)
(29.8841 -0.124805 0)
(27.7495 -0.0647324 0)
(22.5987 -0.0211783 0)
(22.4129 -0.0192658 0)
(27.5608 -0.0637876 0)
(29.6971 -0.126148 0)
(29.4778 -0.127045 0)
(27.3352 -0.0655808 0)
(22.2159 -0.0213805 0)
(22.0281 -0.0194049 0)
(27.1429 -0.0644556 0)
(29.2865 -0.128096 0)
(29.0632 -0.128722 0)
(26.9142 -0.0661175 0)
(21.8296 -0.0214733 0)
(21.6407 -0.0194165 0)
(26.7192 -0.0647533 0)
(28.8685 -0.129374 0)
(28.6422 -0.129626 0)
(26.4887 -0.0662293 0)
(21.4418 -0.0214174 0)
(21.2533 -0.0192576 0)
(26.2923 -0.0645535 0)
(28.4452 -0.129745 0)
(28.2175 -0.129504 0)
(26.0615 -0.0657775 0)
(21.0555 -0.0211663 0)
(20.8692 -0.0188779 0)
(25.8656 -0.0637042 0)
(28.02 -0.128927 0)
(27.7926 -0.128054 0)
(25.6366 -0.0646028 0)
(20.6746 -0.020664 0)
(20.4928 -0.0182175 0)
(25.4434 -0.0620344 0)
(27.5966 -0.126595 0)
(27.372 -0.124938 0)
(25.2187 -0.0625288 0)
(20.3038 -0.0198456 0)
(20.1294 -0.0172089 0)
(25.0311 -0.0593534 0)
(27.1803 -0.12238 0)
(26.9614 -0.119767 0)
(24.8139 -0.0593466 0)
(19.9493 -0.0186362 0)
(19.7857 -0.0157785 0)
(24.6355 -0.0554308 0)
(26.7772 -0.115861 0)
(26.5678 -0.112104 0)
(24.4297 -0.0548164 0)
(19.6184 -0.0169465 0)
(19.47 -0.0138411 0)
(24.2648 -0.0500128 0)
(26.3952 -0.106562 0)
(26.1997 -0.101509 0)
(24.075 -0.0486962 0)
(19.3199 -0.0146699 0)
(19.1914 -0.0113283 0)
(23.9285 -0.042894 0)
(26.0434 -0.0940897 0)
(25.8666 -0.0876189 0)
(23.7599 -0.0407855 0)
(19.0637 -0.0117805 0)
(18.9618 -0.00823135 0)
(23.6368 -0.0336621 0)
(25.7319 -0.077958 0)
(25.5795 -0.069826 0)
(23.4956 -0.030526 0)
(18.8616 -0.0080919 0)
(18.7966 -0.0042996 0)
(23.4018 -0.0225034 0)
(25.4713 -0.0578574 0)
(25.3495 -0.0480055 0)
(23.2942 -0.0186726 0)
(18.728 -0.00395633 0)
(18.7044 0.000154239 0)
(23.2368 -0.0102768 0)
(25.2759 -0.0337821 0)
(25.189 -0.0230863 0)
(23.1678 -0.0056053 0)
(18.6709 0.000628675 0)
(18.6928 0.00491617 0)
(23.1519 0.00354045 0)
(25.155 -0.00730367 0)
(25.1069 0.00336378 0)
(23.1251 0.00825702 0)
(18.6969 0.00516234 0)
(18.7656 0.00977365 0)
(23.153 0.0180117 0)
(25.1153 0.0200544 0)
(25.1088 0.0304379 0)
(23.1706 0.0223268 0)
(18.8085 0.0094462 0)
(18.9191 0.0139236 6.22037e-20)
(23.2395 0.0313731 0)
(25.1573 0.0453886 0)
(25.1895 0.0568846 0)
(23.2972 0.0364635 0)
(18.9994 0.0138771 -6.22038e-20)
(19.1564 0.0187203 6.21991e-20)
(23.4129 0.0461673 0)
(25.2842 0.0734224 0)
(25.3606 0.0840308 0)
(23.5165 0.0504821 0)
(19.2817 0.0189915 -6.2199e-20)
(19.4831 0.0236875 6.21928e-20)
(23.68 0.0601176 0)
(25.5033 0.100651 0)
(25.6216 0.104495 0)
(23.8251 0.0598212 0)
(19.6441 0.0216336 -6.21928e-20)
(19.8678 0.0257952 6.21855e-20)
(24.0189 0.0681676 0)
(25.7956 0.11845 0)
(25.9429 0.118487 0)
(24.191 0.0657755 0)
(20.0474 0.0230227 -6.21858e-20)
(20.2842 0.0264597 6.21777e-20)
(24.4066 0.0724242 0)
(26.1411 0.129482 0)
(26.3091 0.126632 0)
(24.5965 0.0685043 0)
(20.4729 0.0231947 -6.21782e-20)
(20.7143 0.0262766 6.21696e-20)
(24.8251 0.0741346 0)
(26.5233 0.135657 0)
(26.7052 0.130497 0)
(25.0254 0.0690606 0)
(20.9047 0.0226388 -6.21704e-20)
(21.1445 0.0253945 6.21615e-20)
(25.2601 0.0736807 0)
(26.9291 0.137598 0)
(27.1185 0.130383 0)
(25.464 0.0675876 0)
(21.3306 0.021468 -6.21627e-20)
(21.563 0.0238672 6.21536e-20)
(25.6982 0.0712084 0)
(27.3457 0.135572 0)
(27.5362 0.126707 0)
(25.8995 0.0643164 0)
(21.739 0.0197214 -6.21551e-20)
(21.9589 0.0218302 6.21461e-20)
(26.1275 0.0670357 0)
(27.7608 0.130131 0)
(27.947 0.120044 0)
(26.3206 0.0595916 0)
(22.1201 0.0175562 -6.2148e-20)
(22.3236 0.0194169 6.21392e-20)
(26.5375 0.0615365 0)
(28.1639 0.121912 0)
(28.341 0.110987 0)
(26.7179 0.0537654 0)
(22.4664 0.0150824 -6.21414e-20)
(22.6507 0.0167362 6.2133e-20)
(26.9199 0.0550569 0)
(28.546 0.111496 0)
(28.7102 0.100129 0)
(27.084 0.0471512 0)
(22.7727 0.0124083 -6.21355e-20)
(22.9359 0.0140059 6.21275e-20)
(27.2682 0.0479901 0)
(28.9001 0.09949 0)
(29.0483 0.0880415 0)
(27.4127 0.0401832 0)
(23.0367 0.00988537 -6.21301e-20)
(23.1778 0.0114526 5.59118e-19)
(27.5773 0.0407693 4.13e-19)
(29.2207 0.0865906 -1.3764e-18)
(29.3503 0.0753749 0)
(27.7001 0.0332718 0)
(23.2587 0.0077596 -6.21253e-20)
(23.3767 0.00896839 6.21189e-20)
(27.8443 0.033466 0)
(29.5038 0.0734271 -6.88139e-19)
(29.6146 0.0627333 0)
(27.9463 0.0266377 0)
(23.4379 0.00552317 -6.21212e-20)
(23.5335 0.00652444 6.21158e-20)
(28.07 0.0265051 0)
(29.7488 0.0604829 0)
(29.841 0.0505471 0)
(28.1514 0.0203138 0)
(23.5761 0.00344861 -6.21178e-20)
(23.6511 0.00439978 6.21133e-20)
(28.2556 0.0201146 0)
(29.956 0.0482944 0)
(30.0301 0.0393039 0)
(28.3177 0.0145793 0)
(23.6768 0.00164399 -6.21152e-20)
(23.7335 0.00261658 6.21115e-20)
(28.4036 0.014448 0)
(30.1271 0.0372157 0)
(30.1845 0.02946 0)
(28.4482 0.00966744 0)
(23.7448 0.000178259 -6.21131e-20)
(23.7862 0.00122562 6.21103e-20)
(28.5181 0.00971455 0)
(30.2654 0.0276733 0)
(30.308 0.0211272 0)
(28.5475 0.00562445 0)
(23.7857 -0.000944378 -6.21117e-20)
(23.8148 0.000203513 6.21094e-20)
(28.6038 0.00591467 0)
(30.3749 0.019726 0)
(30.4049 0.0142774 0)
(28.6204 0.00240987 0)
(23.8051 -0.00176071 -6.21107e-20)
(23.8247 -0.000515363 6.2109e-20)
(28.6653 0.0029412 0)
(30.46 0.0132794 0)
(30.4793 0.00878049 0)
(28.6715 -8.14348e-05 0)
(23.808 -0.00232869 -6.21101e-20)
(23.8206 -0.00100248 6.21088e-20)
(28.7072 0.000642626 0)
(30.5247 0.00815288 0)
(30.5352 0.00443265 0)
(28.7049 -0.00199268 0)
(23.7988 -0.00270235 -6.21097e-20)
(23.8062 -0.00133151 6.21087e-20)
(28.7334 -0.0011399 0)
(30.5727 0.00408664 0)
(30.5761 0.0010426 0)
(28.7244 -0.0034469 0)
(23.7807 -0.00294415 -6.21095e-20)
(23.7843 -0.00158443 6.21086e-20)
(28.747 -0.00260541 0)
(30.6071 0.000727756 0)
(30.6047 -0.00137576 0)
(28.7328 -0.00440081 0)
(23.7562 -0.00301045 -6.21092e-20)
(23.7574 -0.00171977 6.21085e-20)
(28.7511 -0.00362841 0)
(30.6308 -0.00166728 0)
(30.624 -0.0031318 0)
(28.7331 -0.00513869 0)
(23.7278 -0.00311034 -6.21092e-20)
(23.7274 -0.00191382 6.21088e-20)
(28.7481 -0.0046094 0)
(30.6462 -0.00351952 0)
(30.6359 -0.00436346 0)
(28.7272 -0.00560169 0)
(23.6967 -0.00305439 -6.21094e-20)
(23.6956 -0.00209529 6.21086e-20)
(28.7398 -0.00555274 0)
(30.6551 -0.00519074 0)
(30.642 -0.00494478 0)
(28.7166 -0.00573021 0)
(23.6641 -0.0028586 -6.21093e-20)
(23.6626 -0.00233993 6.21085e-20)
(28.7273 -0.00668895 0)
(30.6586 -0.0074651 0)
(30.6431 -0.00479114 0)
(28.7024 -0.00528533 0)
(23.6309 -0.00256437 -6.21095e-20)
(23.6295 -0.00208732 6.21087e-20)
(28.7123 -0.00597597 0)
(30.6585 -0.00725652 0)
(30.6418 -0.00453484 0)
(28.6861 -0.0043357 0)
(23.5976 -0.0021001 -6.21098e-20)
(23.5959 -0.00226633 6.21096e-20)
(28.6946 -0.00701256 0)
(30.6554 -0.00972332 0)
(30.6377 -0.00608269 0)
(28.6696 -0.00478321 0)
(23.567 -0.00216711 -6.21099e-20)
(23.5635 0.00041135 6.21112e-20)
(28.6763 -0.000598659 0)
(30.6508 -0.00254947 -6.88085e-19)
(30.6315 -0.010395 0)
(28.6491 -0.00799612 0)
(23.5325 -0.00351352 -6.21098e-20)
(23.5323 -0.000341135 6.21111e-20)
(28.6576 -0.00199469 0)
(30.6444 -0.00361753 0)
(30.6244 -0.0104034 0)
(28.6304 -0.00810145 0)
(23.5018 -0.00347176 -6.21123e-20)
(23.5 -2.88504e-05 6.21103e-20)
(28.6371 6.12796e-05 0)
(30.6362 -0.000167291 0)
(30.616 -0.0129626 0)
(28.6091 -0.0100327 0)
(23.469 -0.00386904 -6.2113e-20)
(23.4723 -0.000669468 6.21109e-20)
(28.6194 -0.00317318 0)
(30.6282 -0.00441204 0)
(30.609 -0.00266786 0)
(28.5904 -0.00214949 0)
(23.4395 -0.00100209 -6.20802e-20)
(23.4446 -0.0036641 6.20203e-20)
(28.6014 -0.0115502 0)
(30.6212 -0.0162603 -6.86779e-19)
(30.6005 0.00575665 -6.83775e-19)
(28.5735 0.0043217 3.07408e-19)
(23.414 0.00134967 -5.5403e-19)
(23.414 -0.00325763 0)
(28.5821 -0.00804559 -3.635e-26)
(30.6189 -0.00934522 0)
(30.6059 -0.000802295 -6.6786e-19)
(28.5648 -0.00121688 9.95261e-20)
(23.3915 -0.000390256 0)
(23.4225 0.00360961 -9.67786e-19)
(28.5883 0.0064234 -3.99341e-24)
(30.6359 0.00944134 -6.65984e-19)
(30.6293 0.00431452 0)
(28.5907 -0.000357836 0)
(23.4158 -0.000323746 9.04845e-19)
(23.4936 0.0142078 -2.45034e-19)
(28.6636 0.0286762 -4.0193e-18)
(30.695 0.0387944 -2.56503e-23)
(30.752 0.0634086 5.11522e-18)
(28.7446 0.0491206 0)
(23.6377 0.0264604 -1.5599e-18)
(23.9308 0.0676937 -2.01075e-18)
(28.9444 0.0985328 1.59573e-17)
(30.9365 0.102444 5.21495e-23)
(31.4726 0.0710836 -3.71603e-17)
(29.7411 0.134578 1.04367e-18)
(25.0778 0.126346 0)
(24.8307 0.0643151 0)
(28.7918 0.128368 -8.81947e-19)
(30.5994 0.190952 7.39187e-19)
(31.7831 0.284733 -7.49218e-18)
(32.6549 0.13583 -4.39603e-22)
(33.161 0.0303222 1.31355e-17)
(33.3341 0.00797869 -1.9135e-19)
(33.4404 0.0188041 -2.83248e-18)
(33.6502 0.0239641 2.83672e-18)
(33.7343 0.0192669 0)
(33.8267 0.0213125 0)
(33.8683 0.0199685 6.10603e-19)
(33.9039 0.0217598 7.87844e-19)
(33.9118 0.0203893 -1.75619e-19)
(33.9009 0.021717 8.90405e-19)
(33.8754 0.0197482 -1.44772e-18)
(33.8079 0.0198599 7.45464e-19)
(33.738 0.0127902 0)
(33.5625 0.0115521 -1.27946e-17)
(33.4625 0.00571004 -1.48618e-17)
(33.3512 0.00634201 0)
(33.2144 0.0184606 -5.29033e-19)
(32.9784 0.00995363 0)
(32.3758 -0.0268948 0)
(31.0839 -0.0592162 2.67833e-18)
(28.3651 -0.0799425 -6.93489e-18)
(24.9116 -0.102178 0)
(17.788 -0.0824437 -3.65582e-19)
(17.2322 -0.0504152 3.45145e-19)
(24.5508 -0.0933992 -8.5364e-18)
(28.072 -0.0888603 2.00742e-17)
(27.7866 -0.0871074 8.11778e-19)
(24.2112 -0.0716696 2.68944e-18)
(16.7744 -0.0457988 -2.84123e-18)
(16.4955 -0.0337281 0)
(23.9926 -0.0569908 -1.43998e-18)
(27.6028 -0.0689091 -3.70438e-18)
(27.514 -0.0418325 0)
(23.9052 -0.0356931 9.46335e-19)
(16.2921 -0.0196979 0)
(16.2588 -0.0105021 0)
(23.8606 -0.0170514 2.22545e-19)
(27.4753 -0.0193556 -1.20521e-18)
(27.4374 -0.0101033 3.90556e-25)
(23.8228 -0.0104942 -2.22615e-19)
(16.1462 -0.00569219 0)
(16.1416 0.000977624 0)
(23.7985 -0.00160879 0)
(27.4413 -0.00244689 -1.68585e-19)
(27.4447 0.00386299 0)
(23.8016 0.00205835 0)
(16.1462 0.000727112 0)
(16.1553 0.000763787 0)
(23.8095 0.00263585 0)
(27.4519 0.005503 0)
(27.4629 0.00757376 0)
(23.8234 0.00337286 0)
(16.1713 0.000959316 0)
(16.1871 0.000932242 0)
(23.8384 0.00350874 0)
(27.4752 0.00765591 0)
(27.485 0.00920029 0)
(23.8517 0.00435552 0)
(16.202 0.00131952 0)
(16.2207 0.0017226 0)
(23.8694 0.00531346 0)
(27.4999 0.0091647 -1.68235e-19)
(27.5146 0.0110881 1.68566e-19)
(23.8875 0.0066945 0)
(16.2403 0.00227137 0)
(16.2585 0.00212811 0)
(23.9048 0.00639711 0)
(27.5289 0.0104816 0)
(27.5426 0.0113452 0)
(23.9223 0.00682771 0)
(16.2777 0.00237939 0)
(16.2983 0.00248648 0)
(23.9412 0.00693477 0)
(27.5583 0.0111555 0)
(27.5726 0.0123159 0)
(23.9596 0.00768696 0)
(16.3185 0.00283821 0)
(16.3398 0.00255965 0)
(23.9794 0.00693248 0)
(27.589 0.0108684 0)
(27.6042 0.0113615 0)
(23.9985 0.00724991 0)
(16.3607 0.00269024 0)
(16.3823 0.00197095 0)
(24.0187 0.00577016 0)
(27.621 0.0104524 0)
(27.6373 0.011596 0)
(24.0392 0.00524488 0)
(16.405 0.00162303 0)
(16.4269 0.00143236 0)
(24.0598 0.00499519 0)
(27.6543 0.0111161 0)
(27.6695 0.0121834 0)
(24.079 0.00563341 0)
(16.4481 0.00173347 0)
(16.4701 0.00209687 0)
(24.0995 0.00632226 0)
(27.6862 0.0119899 0)
(27.7028 0.0133836 0)
(24.1203 0.00814104 0)
(16.4931 0.00292624 0)
(16.5162 0.00273071 0)
(24.1419 0.00756821 0)
(27.7209 0.0121152 0)
(27.7369 0.0127683 0)
(24.1623 0.00789631 0)
(16.539 0.00291461 0)
(16.5624 0.00283332 0)
(24.1836 0.0077627 0)
(27.7545 0.0121609 0)
(27.7724 0.0130945 0)
(24.2057 0.00794096 0)
(16.587 0.00286915 0)
(16.611 0.00208444 0)
(24.228 0.00603496 0)
(27.791 0.0118124 0)
(27.8073 0.0125354 0)
(24.2486 0.00580059 0)
(16.634 0.00184701 0)
(16.6583 0.00162604 0)
(24.2712 0.00554766 0)
(27.8261 0.0120587 0)
(27.8444 0.0132307 0)
(24.2938 0.00591772 0)
(16.6833 0.00179241 0)
(16.7076 0.00193896 0)
(24.3163 0.0062398 0)
(27.8628 0.0126619 0)
(27.8803 0.0141806 0)
(24.3379 0.00846827 0)
(16.7316 0.00294562 -1.44098e-19)
(16.7564 0.00313329 1.43957e-19)
(24.3609 0.00866378 0)
(27.8998 0.0137542 0)
(27.918 0.0147163 0)
(24.3836 0.00929947 0)
(16.7814 0.00341591 0)
(16.8067 0.00312849 0)
(24.4069 0.00851825 0)
(27.9376 0.0132966 0)
(27.9571 0.0133468 0)
(24.4304 0.00773461 0)
(16.8325 0.00278192 0)
(16.8593 0.00181916 0)
(24.4551 0.00581204 0)
(27.9779 0.0123971 0)
(27.9969 0.0137714 0)
(24.4786 0.00621855 0)
(16.8852 0.00184115 0)
(16.9109 0.00159912 0)
(24.5026 0.00564299 0)
(28.0175 0.0126444 0)
(28.0376 0.0134266 0)
(24.5267 0.00586785 0)
(16.9367 0.00168911 0)
(16.963 0.00168963 0)
(24.5514 0.00596142 0)
(28.0588 0.0134524 0)
(28.0789 0.0150897 0)
(24.5756 0.00763911 0)
(16.9888 0.00246081 0)
(17.0146 0.00313786 0)
(24.6005 0.00884437 0)
(28.1009 0.0145822 0)
(28.1219 0.015263 0)
(24.6248 0.00918779 0)
(17.0395 0.00329432 0)
(17.0652 0.0031166 0)
(24.6501 0.00890317 0)
(28.1444 0.014842 0)
(28.1667 0.0158904 0)
(24.6757 0.00947024 0)
(17.0909 0.00332874 0)
(17.1167 0.00312665 0)
(24.702 0.00890231 0)
(28.1905 0.0149727 0)
(28.2132 0.0158295 0)
(24.7275 0.00926911 0)
(17.1414 0.00326252 0)
(17.1667 0.00306519 0)
(24.7543 0.00907172 0)
(28.2378 0.0155182 0)
(28.2625 0.016596 0)
(24.7816 0.00959174 0)
(17.1919 0.00319033 0)
(17.217 0.00294583 0)
(24.8094 0.00903928 0)
(28.2886 0.015647 0)
(28.3142 0.0160925 0)
(24.837 0.009098 0)
(17.241 0.00287648 0)
(17.2661 0.00212731 0)
(24.8666 0.00762462 0)
(28.3428 0.0152314 0)
(28.3712 0.0159298 0)
(24.8968 0.006164 0)
(17.2912 0.00123566 0)
(17.3157 0.00091116 0)
(24.9273 0.00580809 0)
(28.4008 0.0156942 0)
(28.4305 0.0166392 0)
(24.9579 0.00604803 0)
(17.3388 0.000882322 0)
(17.3625 0.00065455 0)
(24.9903 0.00593701 0)
(28.4628 0.0164642 0)
(28.4952 0.0174396 0)
(25.0232 0.00615409 0)
(17.3852 0.000601343 0)
(17.407 0.000300174 0)
(25.0567 0.00558705 0)
(28.5295 0.0167065 0)
(28.5644 0.0172269 0)
(25.0913 0.00541651 0)
(17.4281 3.56619e-05 0)
(17.4497 -0.000312772 0)
(25.1282 0.00520558 0)
(28.6026 0.0171195 0)
(28.6415 0.0186341 0)
(25.166 0.00561009 0)
(17.4701 -0.000380419 0)
(17.4891 -0.000629742 0)
(25.2049 0.00552271 0)
(28.6828 0.0187522 0)
(28.7251 0.0199519 0)
(25.245 0.00555422 0)
(17.5072 -0.000910031 0)
(17.5255 -0.00121803 0)
(25.2877 0.00553097 0)
(28.7709 0.0205997 0)
(28.818 0.0226572 0)
(25.3326 0.00630905 0)
(17.544 -0.000978057 0)
(17.5618 -0.000127665 0)
(25.3799 0.00850028 0)
(28.8684 0.0238127 0)
(28.9203 0.0258714 0)
(25.4288 0.0110302 0)
(17.579 0.000863058 0)
(17.5981 0.000690459 0)
(25.4822 0.0113155 0)
(28.9772 0.0261296 0)
(29.0377 0.0283485 0)
(25.54 0.0120705 0)
(17.62 0.000514521 0)
(17.6437 -0.000879887 0)
(25.6018 0.00963846 0)
(29.1021 0.028802 0)
(29.1685 0.0323542 0)
(25.6673 0.00950202 0)
(17.6707 -0.00160554 0)
(17.7015 -0.00152389 0)
(25.7382 0.011254 0)
(29.2401 0.0355295 0)
(29.3149 0.0394065 0)
(25.8139 0.01323 0)
(17.7366 -0.00111092 0)
(17.7784 -0.000870143 0)
(25.8965 0.0142482 0)
(29.3952 0.0415551 0)
(29.4801 0.0454128 0)
(25.9858 0.0159493 0)
(17.8279 -0.000570082 0)
(17.8862 -2.22061e-05 0)
(26.083 0.018287 0)
(29.5709 0.0493903 0)
(29.6671 0.054592 0)
(26.1882 0.0208786 0)
(17.9549 0.000829853 0)
(18.0366 0.00207367 0)
(26.3034 0.0240574 0)
(29.7703 0.0598278 0)
(29.879 0.0668746 0)
(26.4273 0.0278678 0)
(18.132 0.00356564 0)
(18.2449 0.00495857 0)
(26.5627 0.0322345 0)
(29.9954 0.0742583 1.67936e-19)
(30.1175 0.0830077 -1.68257e-19)
(26.7097 0.0368064 0)
(18.3775 0.00710891 0)
(18.5368 0.0121221 0)
(26.8731 0.0470044 0)
(30.2478 0.0945048 0)
(30.3854 0.111943 0)
(27.0483 0.0699387 0)
(18.7176 0.0227402 0)
(18.9267 0.0289984 0)
(27.2402 0.0811288 0)
(30.5339 0.123711 0)
(30.6966 0.139049 0)
(27.4559 0.0914103 0)
(19.1752 0.0350214 0)
(19.4715 0.040971 0)
(27.7002 0.098054 0)
(30.8794 0.156374 0)
(31.0855 0.178705 1.68122e-19)
(27.9859 0.098883 0)
(19.8394 0.0469611 0)
(20.3021 0.0760617 0)
(28.3159 0.132708 0)
(31.3153 0.232001 -1.68646e-19)
(31.5456 0.345931 -2.70928e-18)
(28.6551 0.253468 1.69181e-23)
(20.7638 0.175935 2.29274e-18)
(21.2022 0.245062 -9.11909e-18)
(28.9814 0.348156 -5.29243e-23)
(31.753 0.462207 2.537e-18)
(31.919 0.626319 -2.52251e-18)
(29.2514 0.514123 -7.02526e-18)
(21.6271 0.38144 9.03306e-18)
(21.9974 0.545484 1.42544e-19)
(29.4028 0.699979 -7.0004e-18)
(32.0282 0.79952 5.334e-18)
(32.1134 0.967826 -5.46479e-18)
(29.6217 0.851751 0)
(22.3592 0.658396 0)
(22.6884 0.800151 1.80013e-17)
(29.7435 1.01207 -1.37479e-17)
(32.1788 1.12632 -5.09372e-18)
(32.2216 1.2719 0)
(29.878 1.14914 -1.36042e-17)
(23.0552 0.919701 1.78707e-17)
(23.4468 1.04525 1.77419e-17)
(30.0129 1.29132 -4.22003e-19)
(32.269 1.41979 0)
(32.2716 1.57981 0)
(30.1052 1.47095 4.22625e-19)
(23.801 1.20548 -5.53817e-19)
(24.1078 1.31964 -1.6362e-17)
(30.1904 1.60395 0)
(32.264 1.71433 0)
(32.261 1.8197 -1.02964e-17)
(30.285 1.68837 1.35214e-17)
(24.4397 1.40194 -1.82893e-17)
(24.7972 1.50896 0)
(30.3769 1.78233 1.65873e-18)
(32.2626 1.92434 0)
(32.2337 2.03259 -9.7463e-18)
(30.4488 1.86709 -1.64309e-18)
(25.1613 1.60555 -4.44144e-18)
(25.3847 1.67912 2.04803e-17)
(30.5117 2.0205 -3.46971e-17)
(32.1328 2.17477 2.41364e-17)
(31.9162 2.14853 2.98845e-17)
(30.3676 2.02701 -5.55026e-17)
(25.3728 1.57976 -2.0341e-17)
(20.222 1.10059 -3.16367e-17)
(28.0001 1.50883 -3.12487e-18)
(30.889 1.66043 -1.59573e-17)
(31.7176 2.22937 -3.52727e-18)
(29.0651 2.15537 4.69643e-18)
(21.5022 1.6207 -3.10716e-18)
(21.4985 1.712 1.39607e-18)
(29.1961 2.31469 -2.11685e-18)
(31.7618 2.51009 -1.61048e-18)
(31.688 2.65939 5.26003e-17)
(29.232 2.44361 -1.65535e-22)
(21.8091 1.81979 -4.46637e-17)
(22.2175 1.98154 3.33529e-19)
(29.2342 2.58513 6.49183e-17)
(31.6027 2.78375 -2.63244e-23)
(31.6183 2.89034 2.46429e-17)
(29.39 2.6796 -3.18303e-17)
(22.7324 2.09302 4.18184e-17)
(23.3012 2.21899 -3.18468e-19)
(29.5059 2.77535 1.20843e-19)
(31.6084 2.98808 2.33465e-17)
(31.6136 3.11233 -2.38931e-17)
(29.6648 2.91746 3.02631e-17)
(23.8314 2.38036 -3.09513e-19)
(24.3294 2.48061 6.17282e-19)
(29.7421 2.96448 2.82965e-17)
(31.5619 3.18491 -2.36349e-17)
(31.5536 3.30074 -1.80542e-17)
(29.8834 3.08723 -2.72468e-17)
(24.8355 2.6306 4.04687e-17)
(25.3176 2.72976 -2.37074e-18)
(29.989 3.14714 0)
(31.5054 3.36013 -2.62725e-18)
(31.4471 3.50655 0)
(30.0798 3.3692 2.41368e-17)
(25.7409 2.88208 -6.88771e-17)
(25.8769 2.85345 5.08654e-17)
(30.0139 3.43452 0)
(31.2644 3.55181 -1.26574e-16)
(30.4834 3.18328 1.06694e-17)
(28.2551 2.81007 -3.13864e-18)
(22.3317 2.17187 -3.77415e-18)
(23.6791 2.90624 0)
(29.1921 3.50942 -2.30778e-18)
(31.1206 3.61906 -6.95075e-18)
(31.1217 3.84863 0)
(29.3322 3.63947 -3.2058e-17)
(23.9655 3.02572 4.23527e-17)
(24.4889 3.15821 6.33378e-19)
(29.5126 3.76203 -9.62206e-19)
(31.1065 3.96339 0)
(31.0853 4.09099 7.13024e-23)
(29.5973 3.95633 2.80013e-17)
(24.8864 3.36771 -3.89172e-17)
(25.2833 3.47904 3.45967e-17)
(29.6705 4.03582 3.49174e-18)
(31.0514 4.1801 0)
(30.9971 4.29295 1.98589e-17)
(29.7629 4.1323 -1.66699e-18)
(25.6985 3.60506 -2.25006e-18)
(25.8831 3.75883 4.11044e-18)
(29.727 4.35427 0)
(30.8637 4.46227 -3.21885e-17)
(30.6498 4.41999 -3.70479e-18)
(29.6001 4.28604 2.28223e-18)
(25.9794 3.71496 4.60582e-17)
(22.8583 3.5337 0)
(28.0739 4.09777 -3.07984e-18)
(29.9586 4.12411 7.91537e-18)
(30.4006 4.62868 3.78797e-17)
(28.8866 4.43197 -7.45288e-17)
(24.0078 3.76726 9.69467e-17)
(24.2928 3.96368 -4.36971e-17)
(28.9132 4.63529 -3.19165e-17)
(30.3037 4.83593 1.54677e-18)
(30.1563 4.98282 -2.38959e-17)
(28.9005 4.82298 -3.15778e-17)
(24.6573 4.20013 8.41489e-17)
(25.0169 4.37054 0)
(28.8572 4.9291 3.73104e-18)
(30.0055 5.10182 0)
(29.8522 5.25365 0)
(28.882 5.06021 9.55281e-18)
(25.4296 4.54671 0)
(25.5196 4.68749 0)
(28.6865 5.3082 -1.98096e-17)
(29.5183 5.42132 0)
(28.8865 5.22222 -2.50735e-17)
(27.3973 4.7464 2.59289e-17)
(22.9418 3.97273 0)
(24.2137 4.73016 1.01034e-16)
(28.0145 5.33414 2.94695e-19)
(29.2531 5.50374 -1.78675e-18)
(29.1251 5.81309 -2.44518e-17)
(28.0495 5.67149 3.24152e-17)
(24.4939 5.06565 -8.7232e-17)
(24.8058 5.21947 8.10335e-17)
(27.9949 5.7368 -6.00174e-17)
(28.9406 5.9253 -2.18092e-17)
(28.6973 6.11307 -3.4673e-17)
(27.9362 5.94277 8.86132e-17)
(25.02 5.43916 -1.52766e-16)
(24.9844 5.54654 2.11305e-16)
(27.6255 6.13697 9.80876e-17)
(28.2847 6.25383 -5.15152e-21)
(27.7263 6.18368 -7.0787e-19)
(26.563 5.6348 -8.26506e-19)
(22.8052 4.85852 -1.00269e-18)
(23.7015 5.86397 1.02263e-16)
(26.8827 6.46035 6.00425e-19)
(27.8442 6.54017 0)
(27.494 6.79443 9.76977e-17)
(26.7039 6.65691 -6.65403e-17)
(23.7798 6.09803 -2.45594e-18)
(23.9822 6.42125 2.48643e-18)
(26.4716 6.91484 0)
(27.105 7.033 -5.61155e-17)
(26.5807 7.21408 -3.37871e-17)
(26.0607 7.17015 0)
(23.8506 6.62406 3.31286e-18)
(22.1621 5.90027 -1.39866e-16)
(25.1568 6.63958 1.10361e-16)
(25.9833 7.24808 0)
(25.8608 7.58267 -5.78731e-17)
(25.1431 7.54568 7.72943e-17)
(22.8321 7.09952 2.02236e-19)
(22.7674 7.35503 8.85063e-17)
(24.8021 7.68868 0)
(25.3413 7.78099 0)
(24.6801 8.0296 0)
(24.2563 8.06118 -5.40356e-17)
(22.5648 7.82611 1.55685e-16)
(22.1022 8.00319 0)
(23.5219 8.19253 0)
(23.8161 8.0772 -8.03657e-18)
(22.8271 8.43386 1.09661e-17)
(22.3456 8.29151 0)
(20.3991 7.97122 -1.32146e-16)
(20.3094 8.60784 -1.20788e-17)
(21.7429 8.76256 -1.32758e-16)
(22.1133 8.64367 1.00744e-21)
(20.8614 8.57971 -4.65519e-18)
(20.6112 8.86628 5.91425e-18)
(19.4843 8.82252 1.88035e-17)
(17.5449 9.01752 -4.52014e-18)
(19.0291 9.14178 -1.46991e-17)
(19.498 8.94741 1.7959e-17)
(18.3462 8.86503 -8.52867e-17)
(17.9826 9.22839 1.22623e-16)
(16.9482 9.41548 -1.24234e-17)
(15.3122 9.41026 2.46801e-16)
(16.0033 8.82799 -1.52643e-16)
(16.3418 8.12021 0)
(13.39 8.18646 -7.22911e-17)
(12.9576 8.67993 -1.20311e-17)
(12.1245 9.13257 0)
(9.3121 7.72916 0)
(9.92743 6.85761 1.78649e-17)
(10.7066 5.87829 -9.03087e-18)
(7.33415 3.94114 -1.32515e-16)
(5.87244 4.90545 3.63426e-16)
(4.96477 5.15683 -2.44774e-16)
(1.89537 0.810112 1.99208e-16)
(3.16429 -0.218115 -2.70684e-16)
(5.08358 -1.1455 1.83619e-16)
(3.77031 -9.54291 0)
(1.55841 -9.57048 -4.39466e-17)
(-0.182161 -9.83034 1.27295e-16)
(3.37711 -18.2955 -9.6056e-19)
(5.06687 -17.2986 4.64791e-17)
(6.51147 -16.5419 -3.20355e-17)