/*--------------------------------*- C++ -*----------------------------------*\
| =========                 |                                                 |
| \\      /  F ield         | OpenFOAM: The Open Source CFD Toolbox           |
|  \\    /   O peration     | Version:  v2006                                 |
|   \\  /    A nd           | Website:  www.openfoam.com                      |
|    \\/     M anipulation  |                                                 |
\*---------------------------------------------------------------------------*/
FoamFile
{
    version     2.0;
    format      ascii;
    class       surfaceScalarField;
    location    "0.016";
    object      phi;
}
// * * * * * * * * * * * * * * * * * * * * * * * * * * * * * * * * * * * * * //

dimensions      [1 0 -1 0 0 0 0];
oriented        oriented;


internalField   nonuniform List<scalar> 
19982
(
-2.63901e-05
-0.00181548
0.00179662
4.53415e-05
-0.0017065
0.0016802
4.12377e-06
9.41563e-05
-2.76558e-05
0.00193919
3.19122e-05
0.00210462
-6.7422e-05
0.0021364
-1.42777e-05
0.00216764
-3.07912e-05
0.00213436
-4.53336e-06
0.00211678
-5.47197e-06
0.0020924
-1.08887e-06
0.00207786
-2.35002e-06
0.00206651
-2.4482e-06
0.0020592
-2.93863e-06
0.00205282
-3.21347e-06
0.00204678
-3.45915e-06
0.00204073
-3.68477e-06
0.00203441
-3.89595e-06
0.0020278
-4.09644e-06
0.00202091
-4.28883e-06
0.00201374
-4.47541e-06
0.00200629
-4.65587e-06
0.00199857
-4.82969e-06
0.00199058
-4.99647e-06
0.00198233
-5.15574e-06
0.00197383
-5.30694e-06
0.00196509
-5.4494e-06
0.00195612
-5.58241e-06
0.00194693
-5.70517e-06
0.00193755
-5.8168e-06
0.00192798
-5.91638e-06
0.00191824
-6.00305e-06
0.00190835
-6.07595e-06
0.00189833
-6.13418e-06
0.00188819
-6.17697e-06
0.00187797
-6.20352e-06
0.00186769
-6.21304e-06
0.00185736
-6.20478e-06
0.00184702
-6.17761e-06
0.00183669
-6.13114e-06
0.0018264
-6.0668e-06
0.00181617
-5.98309e-06
0.00180604
-5.87941e-06
0.00179605
-5.75543e-06
0.00178621
-5.61108e-06
0.00177656
-5.44643e-06
0.00176714
-5.26156e-06
0.00175797
-5.05659e-06
0.00174908
-4.83159e-06
0.00174049
-4.58669e-06
0.00173223
-4.23632e-06
0.00172425
-3.18167e-06
0.00171604
-3.73397e-06
0.00170881
-3.40273e-06
0.00169863
-5.57017e-06
0.00168538
-7.65288e-06
0.00166735
-2.64661e-05
0.00163701
-3.84181e-05
0.00159813
-0.000109001
0.00154472
-0.00017965
0.00150749
-0.00041602
0.00150871
-0.000888366
0.00171972
-0.000261852
0.000448057
5.76373e-05
0.000755277
-6.81689e-06
0.000956012
-1.87715e-06
0.000908841
-5.04511e-05
0.000766776
-4.95772e-06
0.000694531
-3.64192e-06
0.00025266
-3.29325e-06
0.000210227
0.000169247
6.55288e-06
0.000162692
1.35735e-05
0.000203204
0.000245538
2.06918e-05
-7.97364e-06
0.000242175
1.13308e-05
-4.36245e-06
0.000199588
0.000158325
2.13472e-06
0.000156183
2.53934e-06
0.000199175
0.000242213
2.49142e-06
-3.28638e-06
0.000241995
3.49057e-06
-1.85852e-06
0.000197736
0.000154316
2.61482e-06
0.000151689
3.29973e-06
0.000197037
0.000240871
4.40679e-06
-3.17542e-06
0.000239634
4.39207e-06
-1.63438e-06
0.000195479
0.000150041
2.32575e-06
0.0001477
2.27471e-06
0.000195512
0.000239176
2.71073e-06
-2.19634e-06
0.000237831
3.51697e-06
-1.44222e-06
0.000194738
0.000146241
1.36714e-06
0.000144857
2.14955e-06
0.000193935
0.000237267
2.69005e-06
-2.90179e-06
0.000237477
2.66596e-06
-1.29327e-06
0.000192305
0.000143547
1.22861e-06
0.000142301
1.23257e-06
0.00019228
0.000236028
2.65561e-06
-2.80272e-06
0.000236167
2.63792e-06
-1.18179e-06
0.000190638
0.000141102
1.13504e-06
0.000139951
1.16885e-06
0.000190584
0.000234653
2.65823e-06
-2.74181e-06
0.000234728
2.6434e-06
-1.10621e-06
0.000188929
0.000138829
1.06844e-06
0.000137747
1.1293e-06
0.000188851
0.000233165
2.67058e-06
-2.69762e-06
0.000233184
2.65846e-06
-1.04959e-06
0.000187186
0.000136684
1.01918e-06
0.000135652
1.10612e-06
0.000187084
0.000231578
2.69322e-06
-2.6687e-06
0.000231544
2.68527e-06
-1.00789e-06
0.000185409
0.000134633
9.83569e-07
0.000133638
1.09813e-06
0.000185281
0.000229897
2.72828e-06
-2.65445e-06
0.000229811
2.72574e-06
-9.79038e-07
0.000183592
0.000132649
9.60272e-07
0.000131679
1.10527e-06
0.000183436
0.000228124
2.77777e-06
-2.65523e-06
0.000227983
2.78243e-06
-9.62015e-07
0.000181731
0.000130708
9.47992e-07
0.000129752
1.12744e-06
0.000181542
0.000226255
2.84348e-06
-2.66951e-06
0.000226058
2.85493e-06
-9.54885e-07
0.000179818
0.000128789
9.44344e-07
0.000127837
1.16199e-06
0.000179591
0.000224287
2.92298e-06
-2.69476e-06
0.000224031
2.94057e-06
-9.5562e-07
0.000177844
0.000126874
9.48266e-07
0.000125919
1.20788e-06
0.000177576
0.000222213
3.0154e-06
-2.73079e-06
0.000221894
3.03968e-06
-9.63664e-07
0.000175801
0.000124949
9.59184e-07
0.000123982
1.26513e-06
0.000175486
0.000220028
3.12163e-06
-2.77746e-06
0.000219642
3.15305e-06
-9.7842e-07
0.000173678
0.000122996
9.76735e-07
0.000122012
1.33401e-06
0.000173312
0.000217722
3.24301e-06
-2.83496e-06
0.000217264
3.282e-06
-9.99512e-07
0.000171467
0.000121004
1.00042e-06
0.000119996
1.41453e-06
0.000171044
0.000215287
3.38044e-06
-2.903e-06
0.000214752
3.42704e-06
-1.02639e-06
0.000169157
0.000118961
1.02972e-06
0.000117924
1.50643e-06
0.000168671
0.000212713
3.53422e-06
-2.98146e-06
0.000212094
3.58861e-06
-1.0587e-06
0.000166739
0.000116857
1.06445e-06
0.000115785
1.60992e-06
0.000166184
0.000209988
3.7051e-06
-3.07075e-06
0.00020928
3.7679e-06
-1.09645e-06
0.000164201
0.000114681
1.10485e-06
0.000113569
1.72593e-06
0.000163571
0.0002071
3.89492e-06
-3.17211e-06
0.000206294
3.96739e-06
-1.14004e-06
0.00016153
0.000112422
1.15155e-06
0.000111264
1.85625e-06
0.000160817
0.000204034
4.10675e-06
-3.28763e-06
0.000203122
4.19072e-06
-1.19031e-06
0.000158713
0.000110068
1.20551e-06
0.000108857
2.00331e-06
0.000157908
0.000200772
4.34461e-06
-3.4198e-06
0.000199741
4.44211e-06
-1.24836e-06
0.00015573
0.000107604
1.26788e-06
0.000106331
2.1698e-06
0.000154822
0.000197291
4.61272e-06
-3.57096e-06
0.000196129
4.72542e-06
-1.31533e-06
0.00015256
0.00010501
1.33955e-06
0.000103665
2.35761e-06
0.000151536
0.000193565
4.91395e-06
-3.74185e-06
0.000192257
5.04189e-06
-1.39167e-06
0.000149179
0.000102268
1.42073e-06
0.000100842
2.56722e-06
0.000148026
0.000189568
5.24877e-06
-3.93412e-06
0.0001881
5.39417e-06
-1.4782e-06
0.000145564
9.93573e-05
1.51314e-06
9.78379e-05
2.80243e-06
0.000144267
0.000185271
5.62292e-06
-4.15242e-06
0.000183626
5.78966e-06
-1.57717e-06
0.000141684
9.62542e-05
1.61942e-06
9.46282e-05
3.06902e-06
0.000140227
0.00018064
6.04532e-06
-4.40298e-06
0.000178796
6.23856e-06
-1.69145e-06
0.000137508
9.29302e-05
1.74286e-06
9.11809e-05
3.37459e-06
0.000135868
0.000175633
6.52805e-06
-4.69378e-06
0.000173564
6.75389e-06
-1.82462e-06
0.000132992
8.935e-05
1.88725e-06
8.74567e-05
3.72788e-06
0.000131144
0.000170199
7.08452e-06
-5.03618e-06
0.000167872
7.35403e-06
-1.98189e-06
0.000128083
8.54692e-05
2.05892e-06
8.34049e-05
4.14315e-06
0.000125992
0.000164271
7.73664e-06
-5.44964e-06
0.000161643
8.07015e-06
-2.17211e-06
0.000122708
8.12279e-05
2.27069e-06
7.89526e-05
4.64876e-06
0.000120324
0.000157755
8.52899e-06
-5.96475e-06
0.000154763
8.95102e-06
-2.40945e-06
0.000116764
7.65393e-05
2.53934e-06
7.39962e-05
5.28188e-06
0.000114017
0.00015052
9.51908e-06
-6.63053e-06
0.000147072
1.00738e-05
-2.7167e-06
0.000110099
7.1276e-05
2.89593e-06
6.83766e-05
6.11057e-06
0.00010688
0.000142367
1.08103e-05
-7.53744e-06
0.000138323
1.15777e-05
-3.13643e-06
0.000102476
6.52374e-05
3.39899e-06
6.18362e-05
7.25885e-06
9.86137e-05
0.000132991
1.25884e-05
-8.84942e-06
0.000128125
1.37133e-05
-3.74491e-06
9.35072e-05
5.80896e-05
4.15533e-06
5.3933e-05
8.95736e-06
8.87039e-05
0.000121884
1.51967e-05
-1.08971e-05
0.000115807
1.69724e-05
-4.69913e-06
8.25047e-05
4.92328e-05
5.3986e-06
4.38332e-05
1.17011e-05
7.62009e-05
0.000108154
1.93526e-05
-1.44883e-05
0.000100154
2.24859e-05
-6.41409e-06
6.81244e-05
3.7417e-05
7.69155e-06
2.97245e-05
1.67148e-05
5.90994e-05
9.01085e-05
2.67577e-05
-2.21715e-05
7.91869e-05
3.30905e-05
-1.0408e-05
4.73345e-05
1.93158e-05
1.59825e-05
3.32447e-06
2.91085e-05
3.42026e-05
6.72286e-05
4.10605e-05
-2.81579e-05
5.30779e-05
4.22997e-05
-1.26153e-05
1.86492e-05
-9.29815e-06
4.66855e-06
-1.39742e-05
2.13319e-05
1.97641e-06
3.51541e-05
3.92439e-05
-1.55378e-05
1.70963e-05
3.35823e-05
-3.37788e-06
-1.01931e-05
-1.73598e-05
2.62295e-06
-1.99895e-05
8.35291e-06
-1.59313e-05
2.39225e-06
2.3047e-05
-3.98988e-06
-6.18248e-06
1.25556e-05
-1.08465e-06
-1.88433e-05
-2.10798e-05
-8.85548e-07
-2.0198e-05
-6.6713e-07
-1.90664e-05
-9.58459e-06
2.72861e-06
2.99033e-06
-1.11227e-05
-1.46142e-06
1.93096e-06
-1.80146e-05
-1.82732e-05
-2.91747e-06
-1.5364e-05
-4.35897e-06
-1.65831e-05
-1.23539e-05
-3.13981e-06
7.23806e-07
-1.51575e-05
2.06506e-06
1.0047e-06
-1.68761e-05
-1.43693e-05
-4.36174e-07
-1.39435e-05
-2.04362e-07
-1.71206e-05
-1.66846e-05
1.3071e-06
-4.13543e-06
-2.02754e-05
7.70694e-06
-1.76804e-06
-1.95038e-05
-1.57246e-05
7.5569e-07
-1.64956e-05
1.8096e-06
-2.05762e-05
-2.17195e-05
3.23158e-06
-5.36185e-06
-2.5523e-05
9.14099e-06
-2.48692e-06
-2.34714e-05
-1.89994e-05
7.65268e-07
-1.9782e-05
1.67305e-06
-2.44e-05
-2.65618e-05
2.68672e-06
-3.92583e-06
-2.93283e-05
6.66798e-06
-1.88909e-06
-2.64571e-05
-2.1688e-05
-2.97785e-07
-2.14076e-05
-6.91825e-07
-2.60841e-05
-2.87727e-05
-1.27268e-06
-1.19169e-06
-2.96502e-05
2.04409e-06
-6.80466e-07
-2.66162e-05
-2.21055e-05
-1.26123e-06
-2.0863e-05
-2.82661e-06
-2.50734e-05
-2.76567e-05
-4.84718e-06
1.13098e-06
-2.70462e-05
-1.76756e-06
3.88242e-07
-2.43523e-05
-2.04928e-05
-1.59015e-06
-1.8921e-05
-3.55916e-06
-2.24055e-05
-2.45911e-05
-6.04091e-06
2.88309e-06
-2.28351e-05
-4.66468e-06
1.18412e-06
-2.07278e-05
-1.77545e-05
-1.9302e-06
-1.58421e-05
-4.3124e-06
-1.8367e-05
-1.99331e-05
-7.24014e-06
4.69263e-06
-1.7018e-05
-7.63317e-06
2.0253e-06
-1.57209e-05
-1.38344e-05
-2.67126e-06
-1.11808e-05
-5.92867e-06
-1.24848e-05
-1.31625e-05
-9.80987e-06
7.15299e-06
-8.74626e-06
-1.15953e-05
3.19548e-06
-8.54891e-06
-8.00328e-06
-3.92507e-06
-4.09666e-06
-8.63848e-06
-3.85781e-06
-3.32866e-06
-1.4083e-05
9.72194e-06
2.67201e-06
-1.57497e-05
4.42107e-06
1.42054e-06
3.05724e-07
-4.67697e-06
4.96374e-06
-1.0344e-05
7.06471e-06
9.17454e-06
-1.68739e-05
1.01017e-05
1.57633e-05
-1.67187e-05
4.53539e-06
1.26075e-05
9.47964e-06
-4.69457e-06
1.41541e-05
-1.0545e-05
1.84338e-05
2.25027e-05
-1.73134e-05
9.87743e-06
2.90564e-05
-1.6461e-05
4.44099e-06
2.38453e-05
1.85744e-05
-4.34064e-06
2.28934e-05
-9.84792e-06
2.93265e-05
3.52858e-05
-1.61085e-05
8.73099e-06
4.11985e-05
-1.4676e-05
3.92071e-06
3.41099e-05
2.67917e-05
-3.59498e-06
3.03639e-05
-8.32463e-06
3.88122e-05
4.64091e-05
-1.35679e-05
6.954e-06
5.13115e-05
-1.18894e-05
3.09141e-06
4.26472e-05
3.34323e-05
-2.69829e-06
3.61075e-05
-6.48807e-06
4.64092e-05
5.53763e-05
-1.05859e-05
5.08649e-06
5.92135e-05
-8.9571e-06
2.2081e-06
4.92596e-05
3.82922e-05
-1.8027e-06
4.00712e-05
-4.65535e-06
5.2084e-05
6.21718e-05
-7.6474e-06
3.36507e-06
6.50416e-05
-6.26911e-06
1.38905e-06
5.40313e-05
4.14362e-05
-1.03862e-06
4.24504e-05
-3.08579e-06
5.60493e-05
6.70482e-05
-5.12718e-06
1.94898e-06
6.91115e-05
-4.04778e-06
7.18415e-07
5.725e-05
4.31439e-05
-4.47056e-07
4.35657e-05
-1.84662e-06
5.86194e-05
7.03523e-05
-3.12342e-06
8.7645e-07
7.17743e-05
-2.33506e-06
2.29322e-07
5.92359e-05
4.37695e-05
-6.06797e-08
4.38042e-05
-9.68476e-07
6.01125e-05
7.24239e-05
-1.65533e-06
1.76748e-07
7.33612e-05
-1.15219e-06
-4.63239e-08
6.03036e-05
4.37314e-05
1.18992e-07
4.35853e-05
-4.56317e-07
6.08463e-05
7.35937e-05
-7.2803e-07
-1.70817e-07
7.42072e-05
-4.82705e-07
-1.40983e-07
6.0783e-05
4.34167e-05
1.42654e-07
4.3246e-05
-2.60225e-07
6.1152e-05
7.41908e-05
-2.84477e-07
-2.41297e-07
7.46357e-05
-2.44531e-07
-1.06795e-07
6.09834e-05
4.3111e-05
6.8891e-08
4.3014e-05
-2.854e-07
6.13037e-05
7.45133e-05
-2.03904e-07
-1.44702e-07
7.49127e-05
-2.94871e-07
-4.84567e-09
6.11303e-05
4.29814e-05
-4.77373e-08
4.30022e-05
-4.30579e-07
6.14805e-05
7.47885e-05
-3.45656e-07
3.44262e-08
7.52296e-05
-5.13338e-07
1.15058e-07
6.13684e-05
4.30911e-05
-1.60018e-07
4.32264e-05
-6.26422e-07
6.1805e-05
7.51719e-05
-6.04731e-07
2.36293e-07
7.57059e-05
-8.03762e-07
2.20707e-07
6.17928e-05
4.34239e-05
-2.55909e-07
4.36584e-05
-8.28097e-07
6.23393e-05
7.57458e-05
-8.98974e-07
7.13613e-07
7.61186e-05
-1.11517e-06
3.32722e-07
6.26959e-05
4.39708e-05
-5.94433e-07
4.45472e-05
-1.01245e-06
6.30924e-05
7.70452e-05
-1.96498e-06
1.69848e-06
7.8039e-05
-2.71529e-06
6.85122e-07
6.40863e-05
4.52158e-05
-1.09272e-06
4.62959e-05
-2.09513e-06
6.50736e-05
7.93057e-05
-3.38035e-06
1.51173e-06
8.02373e-05
-2.45758e-06
5.60811e-07
6.60125e-05
4.68464e-05
-5.71157e-07
4.74113e-05
-1.46786e-06
6.69018e-05
8.1138e-05
-2.37756e-06
3.27241e-06
8.3353e-05
-5.49235e-06
1.53593e-06
6.8634e-05
4.89433e-05
-4.79518e-07
-1.25867e-06
-1.79431e-06
-1.322e-05
-0.000215728
-1.24279e-06
-0.000211981
-6.92153e-06
-0.000203783
3.42248e-06
-0.00019285
2.1169e-06
-0.000189884
3.69982e-06
-0.000121251
3.75433e-06
-0.000110452
3.72048e-06
-7.40673e-05
3.45506e-06
-6.55132e-05
2.96237e-06
-3.36958e-05
2.50627e-06
-2.22286e-05
2.41246e-06
1.8017e-05
2.04767e-06
2.96834e-05
9.5943e-07
0.000165332
-1.70959e-06
0.00023979
-3.95158e-06
0.000286174
-1.58876e-05
0.00027601
-2.71315e-05
0.000269721
-6.72638e-05
0.00026978
-0.00014755
0.000306239
-4.25426e-05
8.65023e-05
1.5768e-05
0.000130894
7.37067e-06
0.000159582
-9.82751e-06
0.000201897
-5.06959e-06
6.90474e-05
-1.04975e-06
5.63343e-05
3.08248e-05
1.6655e-05
1.41697e-05
4.77233e-05
2.52659e-05
3.18207e-05
8.495e-05
1.1407e-05
4.03468e-05
-1.9933e-05
4.20995e-06
3.2463e-05
1.83797e-05
-9.31742e-07
1.93115e-05
-3.18736e-06
3.47186e-05
4.41511e-05
-6.99165e-06
5.6676e-07
4.58573e-05
-2.27305e-06
-2.3689e-07
3.55222e-05
1.90745e-05
1.47001e-06
1.76044e-05
2.65455e-06
3.43375e-05
4.49154e-05
3.59628e-06
-1.3104e-06
4.42967e-05
1.92891e-06
-6.06351e-07
3.36333e-05
1.6998e-05
1.26266e-06
1.57352e-05
2.74051e-06
3.21553e-05
4.36396e-05
3.39741e-06
-1.17635e-06
4.37276e-05
1.08823e-06
-4.86748e-07
3.14655e-05
1.52483e-05
1.10151e-06
1.41467e-05
1.8664e-06
3.07005e-05
4.26804e-05
2.91347e-06
-6.6959e-07
4.23444e-05
1.00545e-06
-3.85999e-07
3.04167e-05
1.37605e-05
7.71455e-07
1.2989e-05
2.06367e-06
2.91244e-05
4.19522e-05
2.45568e-06
-5.46542e-07
4.19595e-05
5.39086e-07
-2.92256e-07
2.887e-05
1.26968e-05
6.53325e-07
1.20436e-05
1.56645e-06
2.79568e-05
4.11995e-05
2.32642e-06
-3.99714e-07
4.11861e-05
4.13265e-07
-2.01921e-07
2.77592e-05
1.18419e-05
5.60048e-07
1.12822e-05
1.4099e-06
2.69096e-05
4.04008e-05
2.19543e-06
-2.78872e-07
4.03694e-05
3.10678e-07
-1.29748e-07
2.67609e-05
1.1153e-05
4.84463e-07
1.06691e-05
1.27697e-06
2.5969e-05
3.95678e-05
2.07916e-06
-1.67305e-07
3.95317e-05
2.0419e-07
-6.73969e-08
2.58698e-05
1.06024e-05
4.23853e-07
1.01792e-05
1.16347e-06
2.51311e-05
3.87222e-05
1.97391e-06
-9.03494e-08
3.86768e-05
1.36908e-07
-2.73848e-08
2.50691e-05
1.01527e-05
3.74193e-07
9.77936e-06
1.06977e-06
2.43746e-05
3.78643e-05
1.88355e-06
-9.27641e-09
3.78251e-05
5.00232e-08
1.58486e-08
2.43507e-05
9.79619e-06
3.31459e-07
9.46581e-06
9.82763e-07
2.37008e-05
3.70107e-05
1.79887e-06
4.37573e-08
3.69685e-05
1.97442e-10
4.1697e-08
2.37042e-05
9.50861e-06
3.06509e-07
9.20323e-06
9.20626e-07
2.30915e-05
3.61652e-05
1.7257e-06
9.37001e-08
3.61322e-05
-5.89455e-08
6.25294e-08
2.31241e-05
9.26688e-06
2.9024e-07
8.97777e-06
8.7141e-07
2.25443e-05
3.53475e-05
1.65788e-06
1.14764e-07
3.53249e-05
-9.03573e-08
6.69248e-08
2.25935e-05
9.04586e-06
2.78308e-07
8.76878e-06
8.32272e-07
2.2041e-05
3.45664e-05
1.59253e-06
1.49924e-07
3.45684e-05
-1.50068e-07
7.90532e-08
2.21134e-05
8.84912e-06
2.67243e-07
8.58321e-06
7.94733e-07
2.15875e-05
3.38411e-05
1.524e-06
1.66453e-07
3.38659e-05
-1.89396e-07
8.13876e-08
2.16741e-05
8.66596e-06
2.55244e-07
8.41211e-06
7.57895e-07
2.1173e-05
3.31757e-05
1.45002e-06
2.05636e-07
3.32374e-05
-2.65412e-07
9.58262e-08
2.12845e-05
8.50933e-06
2.39782e-07
8.27096e-06
7.1405e-07
2.08118e-05
3.25896e-05
1.36374e-06
2.36675e-07
3.26861e-05
-3.31252e-07
1.05505e-07
2.09447e-05
8.3779e-06
2.19793e-07
8.15954e-06
6.61478e-07
2.05047e-05
3.20865e-05
1.26312e-06
3.00513e-07
3.2238e-05
-4.5005e-07
1.30956e-07
2.06759e-05
8.29193e-06
1.90447e-07
8.10288e-06
5.87362e-07
2.02807e-05
3.16975e-05
1.12987e-06
3.74939e-07
3.19076e-05
-5.83149e-07
1.6008e-07
2.04972e-05
8.2643e-06
1.47803e-07
8.11778e-06
4.85462e-07
2.01611e-05
3.14418e-05
9.53181e-07
5.10231e-07
3.17459e-05
-8.12546e-07
2.17219e-07
2.04555e-05
8.33621e-06
7.42349e-08
8.26312e-06
3.21234e-07
2.02099e-05
3.13838e-05
6.85073e-07
7.17185e-07
3.18108e-05
-1.14258e-06
3.21325e-07
2.06071e-05
8.58553e-06
-6.29982e-08
8.64954e-06
4.28146e-08
2.05026e-05
3.15799e-05
2.75235e-07
1.10028e-06
3.19034e-05
-1.42231e-06
5.05793e-07
2.10983e-05
9.15629e-06
-8.23604e-08
9.23949e-06
-7.7951e-08
2.10949e-05
3.18227e-05
4.10457e-09
8.65488e-07
3.27269e-05
-1.76853e-06
3.46711e-07
2.16147e-05
9.58697e-06
1.65145e-07
9.42243e-06
8.67497e-08
2.16938e-05
3.25508e-05
2.63848e-07
7.61321e-07
3.35728e-05
-1.78251e-06
1.91993e-07
2.22637e-05
9.61488e-06
-4.85133e-08
9.66365e-06
-8.95971e-08
2.23051e-05
3.36449e-05
-1.61243e-07
1.06878e-06
3.47007e-05
-2.12444e-06
2.46459e-07
2.31275e-05
9.91012e-06
-4.26833e-07
1.03367e-05
-5.76402e-07
2.32767e-05
3.51732e-05
-1.04929e-06
1.52164e-06
3.66466e-05
-2.9957e-06
5.18119e-07
2.42796e-05
1.08542e-05
-4.93529e-07
1.1347e-05
-1.29075e-06
2.50759e-05
3.72601e-05
-1.90533e-06
2.5196e-06
3.9023e-05
-4.28381e-06
9.98414e-07
2.6596e-05
1.23445e-05
-8.50397e-07
1.31939e-05
-1.95635e-06
2.77007e-05
4.04403e-05
-3.37499e-06
3.16987e-06
4.28404e-05
-5.57142e-06
1.53674e-06
2.93326e-05
1.47296e-05
-1.54832e-06
1.62767e-05
-3.65044e-06
3.14332e-05
4.49892e-05
-5.80094e-06
5.81619e-06
4.86352e-05
-9.46416e-06
2.66511e-06
3.45827e-05
1.89406e-05
-4.11959e-06
2.30587e-05
-8.38715e-06
3.88481e-05
5.3304e-05
-1.30586e-05
-3.18194e-05
2.59811e-05
5.91407e-05
-1.16763e-05
1.87036e-05
1.1381e-05
-4.69467e-06
1.60749e-05
-1.28829e-05
2.6891e-05
3.51007e-05
-2.20034e-05
8.58364e-06
4.17734e-05
-1.52576e-05
3.28941e-06
3.21841e-05
1.93635e-05
-2.81213e-06
2.21747e-05
-6.55105e-06
3.5922e-05
4.68897e-05
-1.16686e-05
6.4941e-06
5.14176e-05
-1.10232e-05
2.66941e-06
3.97455e-05
2.48431e-05
-3.15575e-06
2.79977e-05
-7.38044e-06
4.39689e-05
5.64048e-05
-1.23692e-05
9.39874e-06
6.25306e-05
-1.55267e-05
3.91822e-06
4.94476e-05
3.19143e-05
-5.55909e-06
3.74711e-05
-1.06095e-05
5.4495e-05
6.94458e-05
-1.75285e-05
-4.50848e-05
3.5359e-05
7.91686e-05
-1.83483e-05
2.77558e-05
1.91204e-05
-8.71497e-06
2.78332e-05
-1.98414e-05
3.88799e-05
4.83502e-05
-3.28352e-05
1.7266e-05
5.92207e-05
-2.81414e-05
7.33162e-06
4.88103e-05
3.51614e-05
-7.74164e-06
4.28984e-05
-1.69683e-05
5.80312e-05
7.10895e-05
-2.88441e-05
2.51214e-05
8.81143e-05
-4.21568e-05
1.12547e-05
7.189e-05
5.4147e-05
2.39998e-05
3.01421e-05
5.61834e-05
3.97005e-05
4.84013e-05
9.58898e-05
3.77671e-05
6.9098e-05
-5.84691e-05
1.77168e-05
5.97459e-05
4.78545e-05
-2.22627e-05
7.01107e-05
-4.80481e-05
8.55237e-05
9.86254e-05
-7.7585e-05
6.34533e-05
0.000138791
-0.000103635
2.8812e-05
0.000120153
9.89134e-05
3.54393e-05
6.34658e-05
7.87379e-05
7.68458e-05
8.86164e-05
0.000128902
0.000110899
0.000146063
-0.000168355
5.47544e-05
0.000132982
0.000118212
2.06443e-05
9.75615e-05
3.92266e-05
0.000114392
0.000134598
5.06794e-05
-2.65062e-05
0.000123497
3.7607e-05
-1.39639e-05
0.000101846
8.35923e-05
1.75801e-05
6.60114e-05
1.99249e-05
9.95123e-05
0.000126888
1.65613e-05
-2.31733e-05
0.000120963
2.91674e-05
-1.97462e-05
9.61231e-05
4.63097e-05
4.97332e-05
-3.41269e-06
0.000116914
2.89553e-05
5.13972e-05
0.000186499
-2.83512e-05
6.558e-05
1.41711e-05
-1.69741e-05
1.75772e-05
-2.03811e-05
5.64618e-06
-2.60224e-05
4.67835e-05
-2.35579e-05
-1.17438e-05
0.000124086
-3.99475e-06
-2.42575e-05
1.65062e-05
2.83112e-07
-2.78358e-05
-2.57373e-05
1.87888e-05
-4.45206e-05
3.63449e-05
-4.53895e-05
-3.36021e-05
4.56882e-05
1.08186e-05
-3.38455e-05
-1.05209e-05
5.545e-06
-4.00779e-05
-3.89387e-05
-1.39985e-05
-2.49337e-05
-2.66992e-05
-2.73676e-05
-2.70258e-05
-3.35069e-05
-2.81799e-05
-4.03894e-05
4.15225e-05
-1.33817e-05
-4.21795e-05
-3.83264e-05
-1.12449e-05
-2.70895e-05
-2.35707e-05
-2.98643e-05
-2.84788e-05
-3.54928e-05
1.7637e-05
-2.28745e-05
-2.32514e-05
9.07761e-06
-2.13136e-05
-1.8019e-05
1.25535e-05
-3.05808e-05
2.78494e-05
-3.66185e-05
-4.02201e-05
4.51868e-05
1.6265e-05
-2.96475e-05
-2.68628e-05
7.30616e-06
-2.76796e-05
-2.32894e-05
-6.50688e-06
-1.67905e-05
-1.39668e-05
-2.02285e-05
-2.24439e-05
-2.11803e-05
-2.92692e-05
-3.96665e-05
4.6478e-05
-1.33556e-05
-3.61542e-05
-3.0157e-05
-4.91267e-06
-2.52597e-05
-1.07543e-05
-3.03331e-05
-3.31232e-05
-1.73243e-05
1.36939e-05
-2.54364e-05
-2.1397e-05
6.2461e-06
-2.29002e-05
-1.90267e-05
1.59114e-05
-3.49554e-05
3.43337e-05
-4.13426e-05
-4.55426e-05
5.44166e-05
1.2744e-05
-3.75841e-05
-2.07424e-05
5.75395e-06
-3.43825e-05
-2.92242e-05
-7.72499e-06
-2.15165e-05
-1.6423e-05
-2.57039e-05
-2.8385e-05
-2.56435e-05
-3.68068e-05
-5.05538e-05
5.89482e-05
-1.70258e-05
-4.55084e-05
-3.85623e-05
-7.15734e-06
-3.14278e-05
-1.61626e-05
-3.65331e-05
-4.02784e-05
-2.64772e-05
1.81735e-05
-2.98268e-05
-2.86435e-05
8.59093e-06
-2.69672e-05
-2.28518e-05
1.75412e-05
-4.04093e-05
3.77955e-05
-4.72405e-05
-5.25716e-05
6.05182e-05
1.89086e-05
-4.00082e-05
-3.15037e-05
8.48186e-06
-3.68383e-05
-3.19462e-05
-9.64248e-06
-2.23144e-05
-2.03224e-05
-2.61703e-05
-2.90756e-05
-3.12681e-05
-3.44368e-05
-4.96262e-05
5.49737e-05
-1.60273e-05
-4.45918e-05
-3.83519e-05
-9.23e-06
-2.91323e-05
-2.04736e-05
-3.3362e-05
-3.62033e-05
-3.39149e-05
1.84329e-05
-2.60998e-05
-2.85453e-05
8.69583e-06
-2.36328e-05
-2.04435e-05
1.43855e-05
-3.48368e-05
3.10052e-05
-4.02619e-05
-4.42111e-05
4.91055e-05
1.80778e-05
-3.23843e-05
-2.99214e-05
8.08515e-06
-3.02819e-05
-2.67611e-05
-8.47452e-06
-1.82947e-05
-1.77248e-05
-2.10408e-05
-2.30846e-05
-2.70348e-05
-2.63733e-05
-3.81825e-05
4.14556e-05
-1.22714e-05
-3.51562e-05
-3.05778e-05
-8.17731e-06
-2.24167e-05
-1.81389e-05
-2.52162e-05
-2.63985e-05
-2.99512e-05
1.56472e-05
-1.84231e-05
-2.3637e-05
7.58811e-06
-1.717e-05
-1.48401e-05
9.4458e-06
-2.42981e-05
1.96153e-05
-2.73538e-05
-2.92265e-05
3.04026e-05
1.63401e-05
-1.96741e-05
-2.59093e-05
7.48739e-06
-1.85147e-05
-1.68219e-05
9.17119e-06
-2.60039e-05
1.86541e-05
-2.80106e-05
-2.84876e-05
2.74521e-05
1.7199e-05
-1.74514e-05
-2.82538e-05
7.75112e-06
-1.85758e-05
-1.82626e-05
-6.99637e-06
-1.1271e-05
-1.36159e-05
-1.19617e-05
-1.1953e-05
-1.91204e-05
-9.99068e-06
-1.55266e-05
1.3559e-05
-5.29937e-06
-1.66577e-05
-1.65745e-05
-5.26062e-06
-1.13184e-05
-1.16912e-05
-1.02331e-05
-7.98694e-06
-1.92385e-05
7.59136e-06
-5.77473e-06
-9.80696e-06
4.18749e-06
-6.83223e-06
-7.13366e-06
2.79049e-06
-9.92693e-06
4.61217e-06
-8.65735e-06
-6.31923e-06
5.15274e-06
6.78641e-06
-2.75929e-06
-1.03485e-05
3.28977e-06
-5.16271e-06
-6.6387e-06
6.4611e-07
-7.2886e-06
-1.12499e-06
-3.39624e-06
2.22843e-06
-6.11824e-06
5.83266e-06
5.52463e-06
-9.13549e-06
2.75028e-06
-3.18224e-07
-4.54135e-06
-2.88694e-06
-1.65624e-06
-3.99904e-06
7.91857e-07
3.7152e-06
-2.19169e-06
8.40182e-06
1.16803e-05
-1.63716e-05
2.91723e-06
6.27231e-06
1.25736e-06
-6.19191e-08
1.31532e-06
1.04555e-06
5.15976e-06
9.38137e-06
3.33797e-06
1.47806e-05
2.2946e-05
-2.8352e-05
5.73516e-06
1.41997e-05
7.04603e-06
2.12193e-06
4.91744e-06
4.87579e-06
1.14374e-05
1.92191e-05
8.59064e-06
-4.03564e-06
1.29323e-05
1.03171e-05
-8.95556e-07
8.29264e-06
4.01795e-06
-7.44098e-06
1.14536e-05
-1.79525e-05
1.87978e-05
2.69478e-05
-3.19754e-05
-7.95462e-06
1.98622e-05
1.50309e-05
-3.07013e-06
1.39057e-05
8.3771e-06
-1.07983e-05
1.91685e-05
-2.61309e-05
2.92299e-05
4.06563e-05
-4.69351e-05
-1.1802e-05
3.15833e-05
2.08614e-05
-4.84242e-06
2.22604e-05
1.43185e-05
4.42526e-06
9.88916e-06
1.13647e-05
1.53164e-05
2.14162e-05
2.15268e-05
2.63251e-05
4.08655e-05
-4.57797e-05
1.11005e-05
3.05365e-05
2.09857e-05
6.11863e-06
1.48635e-05
1.50381e-05
2.16129e-05
2.9278e-05
2.66205e-05
3.50171e-05
5.56298e-05
-6.13737e-05
1.46993e-05
4.19267e-05
2.95596e-05
7.70808e-06
2.18483e-05
1.84653e-05
3.11653e-05
4.17166e-05
3.23727e-05
-1.75829e-05
2.78392e-05
3.14584e-05
-7.27498e-06
2.08557e-05
1.45717e-05
-1.34489e-05
2.80191e-05
-3.17999e-05
3.92049e-05
5.08675e-05
-5.48302e-05
-2.04165e-05
3.56917e-05
3.559e-05
-8.63906e-06
2.74256e-05
1.93785e-05
-1.73333e-05
3.671e-05
-4.09728e-05
5.10629e-05
6.59174e-05
-7.12011e-05
-2.31706e-05
4.91828e-05
3.9901e-05
-9.67096e-06
3.756e-05
2.70366e-05
9.31934e-06
1.77153e-05
2.18731e-05
2.50041e-05
3.23096e-05
3.87439e-05
3.61087e-05
5.83001e-05
-6.21023e-05
1.54291e-05
4.56809e-05
3.3142e-05
1.11242e-05
2.20149e-05
2.62368e-05
3.0565e-05
3.91451e-05
4.53879e-05
4.08424e-05
6.85663e-05
-7.02679e-05
1.76748e-05
5.3729e-05
3.96866e-05
1.28641e-05
2.68192e-05
2.98421e-05
3.67469e-05
4.71436e-05
5.12601e-05
5.06622e-05
8.40413e-05
-8.75651e-05
2.15341e-05
6.58707e-05
4.83496e-05
1.32581e-05
3.50873e-05
3.18009e-05
4.73225e-05
6.0663e-05
5.51722e-05
-2.84469e-05
3.9693e-05
4.94139e-05
-1.22559e-05
3.11288e-05
2.2829e-05
-1.87667e-05
4.1593e-05
-4.33333e-05
5.56924e-05
7.07843e-05
-7.4428e-05
-3.26857e-05
4.72269e-05
5.62394e-05
-1.41365e-05
3.71401e-05
2.74539e-05
-2.04793e-05
4.79305e-05
-4.75705e-05
6.42282e-05
8.14055e-05
-8.17529e-05
-3.57836e-05
5.53709e-05
6.18142e-05
-1.53297e-05
4.37709e-05
3.2598e-05
-2.54068e-05
5.80017e-05
-5.87085e-05
7.7069e-05
9.68215e-05
-0.000100163
-3.7279e-05
7.04017e-05
6.36929e-05
-1.5931e-05
5.57165e-05
4.20673e-05
1.48524e-05
2.72127e-05
3.40343e-05
3.65322e-05
4.60704e-05
5.8363e-05
5.00337e-05
8.09797e-05
-8.49461e-05
2.13754e-05
6.51877e-05
4.85858e-05
1.66878e-05
3.18956e-05
3.87884e-05
4.30841e-05
5.39411e-05
6.58235e-05
5.36179e-05
9.17491e-05
-9.14295e-05
2.35138e-05
7.31852e-05
5.54069e-05
1.91009e-05
3.63035e-05
4.43732e-05
4.79099e-05
5.99394e-05
7.61794e-05
5.73772e-05
9.98591e-05
-9.73003e-05
2.47943e-05
8.049e-05
6.10954e-05
2.01917e-05
4.09013e-05
4.64775e-05
5.42013e-05
6.76804e-05
7.86527e-05
6.85137e-05
0.000115749
-0.000116585
3.00519e-05
9.26602e-05
7.09508e-05
2.01902e-05
5.0758e-05
4.61704e-05
6.66765e-05
8.34282e-05
7.84862e-05
-4.07707e-05
5.4197e-05
7e-05
-1.78886e-05
4.37927e-05
3.28678e-05
-2.49103e-05
5.77765e-05
-5.70521e-05
7.59327e-05
9.44422e-05
-9.72994e-05
-4.58886e-05
6.28036e-05
7.75251e-05
-1.98906e-05
4.99328e-05
3.78845e-05
-2.65167e-05
6.43999e-05
-6.1328e-05
8.47423e-05
0.000104315
-0.000102841
-5.16682e-05
6.84963e-05
8.74847e-05
-2.21029e-05
5.51754e-05
4.22957e-05
-2.81071e-05
7.04017e-05
-6.50257e-05
9.20924e-05
0.000114017
-0.000110548
-5.27401e-05
7.71779e-05
8.95778e-05
-2.29449e-05
6.22959e-05
4.74557e-05
-3.47672e-05
8.22219e-05
-7.92754e-05
0.000106803
0.000131901
-0.000134
-5.26494e-05
9.54128e-05
8.91363e-05
-2.28244e-05
7.69769e-05
5.93967e-05
2.12869e-05
3.81096e-05
4.80613e-05
5.02022e-05
6.27475e-05
8.07263e-05
6.62976e-05
0.000107712
-0.000111262
2.89224e-05
8.75772e-05
6.70318e-05
2.3015e-05
4.40169e-05
5.3201e-05
5.73912e-05
7.1362e-05
8.95509e-05
6.91233e-05
0.000118998
-0.000116759
3.05115e-05
9.60031e-05
7.45287e-05
2.63323e-05
4.81968e-05
5.96047e-05
6.27312e-05
7.74355e-05
0.000101168
7.21325e-05
0.000126562
-0.000121258
3.18611e-05
0.000103003
8.00586e-05
2.82453e-05
5.18144e-05
6.36843e-05
6.75656e-05
8.2929e-05
0.000107318
7.66565e-05
0.000135929
-0.000129655
3.40046e-05
0.000110219
8.58202e-05
2.84031e-05
5.74186e-05
6.40283e-05
7.45954e-05
9.17582e-05
0.000108201
9.19846e-05
0.000155295
-0.000155519
4.04776e-05
0.000126104
9.78981e-05
2.78552e-05
7.00453e-05
6.36932e-05
9.02695e-05
0.000110435
0.000108557
-5.63422e-05
7.22826e-05
9.44969e-05
-2.47996e-05
5.8729e-05
4.52475e-05
-3.33246e-05
7.85741e-05
-7.53878e-05
0.000100795
0.000123239
-0.000126342
-6.19039e-05
8.1541e-05
0.000103606
-2.71752e-05
6.60687e-05
5.14014e-05
-3.38782e-05
8.52823e-05
-7.79742e-05
0.000110168
0.00013424
-0.000130669
-6.86434e-05
8.76929e-05
0.000115195
-2.99016e-05
7.14298e-05
5.53839e-05
-3.51672e-05
9.05544e-05
-8.01353e-05
0.000116402
0.000142249
-0.000134687
-7.19443e-05
9.33018e-05
0.000120896
-3.14356e-05
7.58972e-05
5.91223e-05
-3.7858e-05
9.69841e-05
-8.63002e-05
0.000124344
0.000151246
-0.000144239
-7.1756e-05
0.000102372
0.000120636
-3.10348e-05
8.36275e-05
6.59536e-05
-4.55036e-05
0.000111462
-0.000103558
0.000141687
0.000173503
-0.000174682
-7.07971e-05
0.000125418
0.000118892
-3.08158e-05
0.000101713
8.06515e-05
2.82458e-05
5.24094e-05
6.39297e-05
6.6033e-05
8.23296e-05
0.000107023
8.52207e-05
0.000139748
-0.000142633
3.71813e-05
0.000114077
8.95948e-05
3.09702e-05
5.86289e-05
6.95178e-05
7.55345e-05
9.19526e-05
0.000117319
8.87611e-05
0.000151907
-0.000148709
3.91133e-05
0.000125188
9.77468e-05
3.44599e-05
6.3292e-05
7.86912e-05
8.09625e-05
9.96094e-05
0.000130996
9.14162e-05
0.00016099
-0.00015279
4.00853e-05
0.000132299
0.000103382
3.54366e-05
6.79513e-05
8.20477e-05
8.56948e-05
0.000105015
0.000138031
9.65141e-05
0.000170828
-0.000162319
4.25184e-05
0.000139697
0.000110475
3.60226e-05
7.44587e-05
8.17658e-05
9.39608e-05
0.000115106
0.000137496
0.000114879
0.000192636
-0.0001924
5.03671e-05
0.00015848
0.000124832
3.54774e-05
8.9362e-05
8.11689e-05
0.000112798
0.000137804
0.000136013
-7.07722e-05
9.01109e-05
0.000118472
-3.17246e-05
7.37556e-05
5.76421e-05
-4.11661e-05
9.88132e-05
-9.32e-05
0.000125795
0.000152706
-0.000155789
-7.78493e-05
0.000100147
0.000130416
-3.44909e-05
8.24431e-05
6.43276e-05
-4.28617e-05
0.000107195
-9.60978e-05
0.000135686
0.00016528
-0.000161223
-8.55171e-05
0.000107885
0.000142921
-3.76145e-05
8.77897e-05
6.9586e-05
-4.32798e-05
0.000112871
-9.83986e-05
0.000142915
0.000173464
-0.00016397
-8.90294e-05
0.000113601
0.0001489
-3.9715e-05
9.36076e-05
7.31622e-05
-4.64941e-05
0.000119662
-0.000104497
0.000151617
0.000184239
-0.000175127
-8.85027e-05
0.000124604
0.000148147
-3.86574e-05
0.00010178
8.10107e-05
-5.55517e-05
0.000136569
-0.000125434
0.000171669
0.000209322
-0.000210142
-8.59571e-05
0.00015164
0.000143652
-3.77457e-05
0.000123467
9.88303e-05
3.48827e-05
6.39522e-05
7.77523e-05