/*--------------------------------*- C++ -*----------------------------------*\
| =========                 |                                                 |
| \\      /  F ield         | OpenFOAM: The Open Source CFD Toolbox           |
|  \\    /   O peration     | Version:  v2006                                 |
|   \\  /    A nd           | Website:  www.openfoam.com                      |
|    \\/     M anipulation  |                                                 |
\*---------------------------------------------------------------------------*/
FoamFile
{
    version     2.0;
    format      ascii;
    class       volScalarField;
    location    "0.038";
    object      omega;
}
// * * * * * * * * * * * * * * * * * * * * * * * * * * * * * * * * * * * * * //

dimensions      [0 0 -1 0 0 0 0];


internalField   nonuniform List<scalar> 
24416
(
0.0137826
0.0137825
0.0137825
0.0137825
0.0137825
0.0137826
0.0137826
0.0137827
0.0137827
0.0137828
0.0137829
0.013783
0.0137831
0.0137833
0.0137834
0.0137835
0.0137835
0.0137829
0.0137803
0.013775
0.0137672
0.0137575
0.0137464
0.0137346
0.0137223
0.0137097
0.013697
0.0136841
0.013671
0.0136577
0.0136441
0.0136301
0.0136159
0.0136014
0.0135865
0.0135714
0.0135561
0.0135405
0.0135247
0.0135088
0.0134927
0.0134765
0.0134603
0.0134441
0.0134279
0.0134119
0.0133961
0.0133808
0.0133661
0.0133522
0.0133396
0.0133288
0.0133203
0.013315
0.0133142
0.0133195
0.0133331
0.0133581
0.0133986
0.0134603
0.013551
0.0136812
0.0138656
0.0141237
0.0144824
0.0149782
0.0156606
0.0165966
0.0178765
0.0196217
0.0219947
0.0252121
0.0295599
0.0354133
0.0432581
0.0537151
0.0675635
0.0857637
0.109476
0.140076
0.179173
0.228645
0.290663
0.367359
0.458428
0.547368
0.522662
0.596407
0.676071
0.684453
0.582553
0.410343
0.245118
0.129898
0.0240587
0.116046
0.570508
1.73782
4.2663
10.0377
24.4748
35.0209
30.1944
79.1869
213.847
533.577
1750.39
14682.5
78603.8
1.1046e+06
1.07707e+06
163527
37831.5
57649.9
203248
1.04941e+06
1.01727e+06
218015
69343
78245.2
226874
977421
947153
225139
83843.9
89134.3
228605
916350
898691
228285
91746
95204.8
232297
885444
876588
230986
96503.2
98712.9
229368
863166
853370
227780
99050.4
100324
226694
843227
835960
225633
100418
101273
224910
827984
822346
224172
101269
101928
223719
815873
811297
223190
101888
102456
222929
805892
802033
222553
102394
102905
222411
797385
794037
222144
102829
103299
222061
789939
786965
221878
103212
103649
221828
783278
780586
221699
103553
103962
221667
777215
774742
221573
103859
104243
221546
771623
769330
221468
104132
104495
221452
766415
764261
221385
104377
104722
221376
761511
759473
221315
104598
104924
221305
756865
754927
221241
104794
105103
221230
752440
750587
221164
104967
105261
221151
748206
746428
221081
105120
105399
221066
744139
742426
220991
105254
105521
220973
740220
738564
220893
105372
105627
220872
736432
734828
220786
105474
105719
220762
732762
731203
220671
105563
105799
220643
729197
727678
220546
105640
105866
220515
725727
724245
220411
105705
105927
220376
722343
720895
220265
105760
105977
220227
719039
717621
220109
105806
106017
220068
715805
714415
219943
105842
106049
219897
712636
711270
219764
105871
106074
219714
709523
708178
219574
105892
106091
219521
706459
705134
219373
105906
106102
219315
703439
702130
219160
105914
106107
219098
700456
699160
218935
105916
106105
218868
697505
696220
218696
105911
106096
218625
694581
693306
218445
105900
106082
218369
691679
690411
218180
105883
106062
218100
688795
687531
217902
105861
106036
217817
685922
684661
217611
105832
106004
217520
683056
681796
217305
105799
105967
217209
680193
678933
216984
105759
105924
216883
677328
676065
216649
105715
105876
216542
674457
673189
216298
105665
105823
216186
671574
670300
215932
105609
105764
215814
668677
667393
215550
105548
105700
215427
665759
664465
215151
105482
105630
215022
662818
661512
214735
105410
105554
214600
659850
658529
214303
105333
105473
214161
656849
655513
213852
105248
105385
213704
653814
652461
213382
105158
105292
213227
650742
649370
212894
105060
105192
212732
647627
646235
212386
104954
105083
212217
644468
643055
211858
104841
104967
211682
641260
639824
211311
104720
104844
211127
638000
636540
210742
104592
104714
210551
634685
633198
210151
104458
104577
209952
631308
629794
209537
104315
104432
209329
627867
626322
208899
104165
104280
208682
624358
622781
208236
104007
104119
208010
620775
619165
207548
103841
103949
207312
617116
615471
206832
103666
103771
206586
613377
611695
206089
103482
103584
205833
609554
607833
205318
103289
103388
205051
605642
603881
204520
103087
103183
204237
601639
599835
203691
102875
102967
203391
597541
595693
202830
102652
102741
202513
593344
591452
201936
102419
102504
201601
589047
587108
201007
102175
102255
200654
584645
582659
200042
101918
101994
199669
580135
578100
199040
101649
101721
198646
575514
573430
197998
101366
101433
197582
570780
568644
196915
101069
101131
196478
565929
563742
195790
100758
100814
195331
560959
558719
194622
100431
100482
194139
555867
553574
193408
100087
100132
192901
550652
548305
192147
99726.1
99764.9
191614
545314
542914
190837
99346.3
99378.4
190277
539855
537404
189474
98946.3
98971.2
188887
534277
531776
188058
98524.5
98541.6
187441
528585
526037
186585
98079.4
98088.4
185940
522782
520189
185054
97609.3
97609.6
184380
516875
514238
183465
97117.2
97105
182761
510872
508187
181814
96595.6
96570.9
181084
504783
502038
180101
96044.1
96008
179352
498633
495773
178343
95466.7
95426.1
177624
492833
490652
176713
94887.7
94852.6
176084
488019
485955
175244
94331.4
94303.1
174668
483359
481285
173862
93799.2
93774.3
173305
478668
476563
172508
93281.5
93255.7
171950
473919
471788
171141
92765.2
92734.1
170569
469124
466978
169736
92237.7
92196.8
169138
464308
462160
168272
91686.9
91631.9
167641
459495
457359
166733
91100.9
91027.5
166062
454716
452609
165105
90467.5
90371.8
164389
450003
447941
163378
89775.6
89654.3
162614
445389
443388
161547
89016.2
88866.6
160734
440908
438985
159609
88182.1
88002.2
158749
436592
434763
157568
87268.2
87056.6
156662
432473
430751
155429
86271.2
86027.5
154482
428578
426976
153204
85190.9
84915.8
152224
424930
423455
150905
84028.9
83726.2
149907
421546
420205
148559
82790.6
82481.6
147556
418437
417231
146193
81495.2
81166.1
145188
415603
414529
143828
80152.9
79808.5
142836
413041
412097
141489
78776.5
78422.8
140524
410743
409921
139205
77382.9
77026.3
138280
408692
407980
137000
75989.6
75636.1
136123
406868
406256
134897
74613.2
74268.4
134074
405250
404726
132912
73272.8
72926.4
132146
403817
403369
131055
71976.1
71646.5
130353
402546
402162
129337
70733.3
70424
128703
401413
401073
127765
69553.4
69268.6
127203
400387
400079
126340
68438.9
68182.4
125852
399448
399162
125067
67399.2
67173.2
124650
398570
398297
123943
66442.6
66248.1
123595
397725
397449
122968
65575.5
65411.8
122687
396854
396599
122028
64752.5
64845
122206
396165
395654
121480
64147.3
64191.8
121490
394808
394598
121296
63731.6
63876.1
121497
392857
393725
121685
63667.4
63174.1
120739
388325
379174
116879
61235
59342.9
114244
364598
30496.7
19974.8
15113
12257.8
11005.7
9666.76
8809.17
8067.58
7517.81
7028.24
6632.64
6276.06
5974.96
5702
5465.69
5250.99
5062.7
4892.04
4742.02
4607.4
4490.35
4387.77
4301.51
4229.8
4174.5
4135.02
4113.24
4109.9
4126.83
4166.19
4231.51
4326.31
4455.76
4626.57
4846.28
5127.63
5482.81
5936.96
6509.6
7254
8197.87
9459.14
11081
13388.1
15626.4
20286.7
26283.7
37016.5
61875.2
133859
294352
1.12401e+06
1.24273e+06
330617
149949
162201
363692
1.38928e+06
1.53896e+06
401901
179694
188585
422784
1.62214e+06
1.67199e+06
429591
190406
197872
441674
1.69272e+06
1.70702e+06
439042
195401
198472
445342
1.7046e+06
1.70974e+06
438033
195652
199281
447314
1.71227e+06
1.71479e+06
439079
196753
199215
445564
1.71143e+06
1.71413e+06
436551
196491
199947
445703
1.7168e+06
1.71976e+06
437589
197414
199772
444106
1.71654e+06
1.71763e+06
435062
197127
200589
444273
1.72437e+06
1.72575e+06
436090
198100
200477
442656
1.7226e+06
1.72401e+06
433626
197893
201389
442901
1.7308e+06
1.73254e+06
434767
198967
201389
441412
1.72946e+06
1.7312e+06
432449
198886
202438
441820
1.73801e+06
1.74011e+06
433792
200113
202612
440553
1.73709e+06
1.7392e+06
431714
200221
203871
441225
1.74602e+06
1.74858e+06
433359
201674
204279
440282
1.74563e+06
1.74821e+06
431621
202003
205819
441328
1.75507e+06
1.75822e+06
433676
203740
206532
440823
1.75538e+06
1.75854e+06
432401
204359
208480
442428
1.76547e+06
1.76935e+06
435124
206534
209744
442781
1.76669e+06
1.77266e+06
434922
207759
212485
445908
1.77587e+06
1.78333e+06
439631
210786
214397
448556
1.7816e+06
1.79081e+06
441076
212377
216000
452364
1.7975e+06
1.81636e+06
443072
212886
215448
448354
1.81321e+06
1.81356e+06
433782
210765
214168
439311
1.7817e+06
1.74841e+06
426537
211824
214900
430366
1.69613e+06
1.63933e+06
426305
216250
223109
433642
1.56468e+06
1.44772e+06
435067
226391
235530
422150
2.15376e+06
3.29622e+06
1.04123e+06
458957
260762
513799
2.37811e+06
2.05113e+06
542181
268555
248272
510103
1.92957e+06
1.90624e+06
480206
241459
169727
476783
1.08225e+06
785189
239559
125973
117099
235635
672588
629840
188410
98478.4
101348
189320
636356
612938
204855
116771
101919
185787
586812
533366
166997
92395.1
84059.3
150979
498614
457039
134195
71816.9
58486
116979
431350
399913
93967.1
48464
43534.5
78149.7
381766
332865
59342.4
34176.6
27889.2
47202.8
298385
263677
39783.2
26078.8
24391.6
34072.1
240317
204805
29692.1
20789.3
18479.1
25285.8
183740
162002
22801.6
17196.6
15361.1
21174
149954
146864
22689.4
16050.3
16630.1
22841.1
155070
172105
41945.9
17547.9
50538.5
120800
198657
246722
200302
142529
163010
235411
281741
344829
290101
202084
284331
347132
405147
488607
405361
291014
316675
450420
556937
681288
550195
412544
397869
576189
757677
854745
606670
409091
502337
698501
981605
1.06798e+06
690476
453736
465908
684377
1.1974e+06
1.95523e+06
1.15249e+06
644836
556646
946004
2.84159e+06
2.15627e+06
936487
577428
850366
1.49539e+06
3.26673e+06
2.4503e+06
746688
559709
540682
757192
1.92455e+06
3.15495e+06
1.39176e+06
744546
488385
658420
2.34533e+06
1.83847e+06
672420
471744
693063
1.28998e+06
3.05926e+06
2.28033e+06
607644
437040
429461
635410
1.80745e+06
3.10572e+06
1.33543e+06
663867
414323
583163
2.33807e+06
1.88334e+06
613017
406599
681501
1.45151e+06
3.39864e+06
2.68829e+06
494181
422544
589487
1.07351e+06
2.39039e+06
1.84171e+06
497471
354112
357094
551345
1.53192e+06
2.72223e+06
1.20248e+06
592496
354338
511696
2.05787e+06
1.66724e+06
559556
355384
603966
1.24095e+06
2.90458e+06
2.17044e+06
521891
355244
357593
567570
1.79148e+06
3.25268e+06
1.41694e+06
655755
401981
466408
2.63969e+06
2.42903e+06
1.06842e+06
585447
340196
499380
1.93396e+06
1.66119e+06
572174
349616
655428
1.39928e+06
3.11257e+06
2.56257e+06
469154
400691
582265
1.04955e+06
2.33499e+06
1.82274e+06
490073
336994
344044
551167
1.5622e+06
2.79965e+06
1.22947e+06
621637
361793
525160
2.19297e+06
1.85871e+06
601917
367449
710947
1.44919e+06
3.43641e+06
2.88124e+06
483446
429108
649853
1.21699e+06
2.74587e+06
2.37547e+06
494846
385384
578275
1.06978e+06
2.24044e+06
1.84504e+06
520591
343094
357266
592247
1.64983e+06
3.07853e+06
1.41157e+06
682210
414268
511327
2.57182e+06
2.43064e+06
1.10395e+06
612839
356330
527332
1.99333e+06
1.7672e+06
607431
370425
723196
1.5351e+06
3.35812e+06
2.78207e+06
535036
438843
663121
1.20052e+06
2.68116e+06
2.38046e+06
488616
400283
603845
1.09328e+06
2.29673e+06
1.89012e+06
555251
358167
377151
640722
1.68573e+06
3.19742e+06
1.46667e+06
737772
448942
527857
2.77525e+06
2.67505e+06
1.21666e+06
676945
410688
521604
2.3737e+06
2.31887e+06
1.12553e+06
619397
371257
574645
1.93809e+06
1.77564e+06
661248
391592
767864
1.58881e+06
3.42754e+06
2.89062e+06
554129
478593
720084
1.28626e+06
2.82719e+06
2.49063e+06
545403
436090
657714
1.17987e+06
2.4137e+06
1.99683e+06
604595
393353
413217
692957
1.81624e+06
3.50688e+06
1.64726e+06
804761
499359
580536
2.95391e+06
2.89796e+06
1.3338e+06
750813
456341
569742
2.56062e+06
2.55976e+06
1.23245e+06
693399
436948
564057
2.35755e+06
2.35131e+06
1.17566e+06
658375
399230
614123
1.96734e+06
1.81457e+06
724448
426992
834013
1.69818e+06
3.54276e+06
3.05011e+06
623657
512087
773558
1.38938e+06
2.97381e+06
2.67183e+06
602696
482310
731698
1.32112e+06
2.74264e+06
2.56279e+06
603205
469539
712528
1.28322e+06
2.61631e+06
2.37988e+06
589741
458137
681572
1.19804e+06
2.37873e+06
1.98834e+06
636868
417874
441731
729624
1.82713e+06
3.48549e+06
1.63888e+06
855605
532309
634776
3.04962e+06
2.98038e+06
1.38292e+06
792594
496474
623339
2.63531e+06
2.68578e+06
1.32452e+06
745304
480758
614859
2.50475e+06
2.5693e+06
1.27369e+06
720671
467441
598447
2.33768e+06
2.36967e+06
1.21261e+06
696977
431844
655256
2.01813e+06
1.87118e+06
762056
461350
881869
1.71318e+06
3.56847e+06
3.06213e+06
662210
551802
822619
1.45469e+06
3.03528e+06
2.77049e+06
653524
523021
790612
1.4118e+06
2.86441e+06
2.6284e+06
664630
514449
764461
1.34345e+06
2.67135e+06
2.42606e+06
642007
500179
739132
1.27191e+06
2.466e+06
2.0852e+06
691354
459422
485952
790611
1.92813e+06
3.63329e+06
1.78156e+06
918204
580973
685029
3.15151e+06
3.1413e+06
1.47529e+06
858596
541970
676977
2.81788e+06
2.87987e+06
1.40534e+06
810966
528490
673136
2.63513e+06
2.71689e+06
1.35951e+06
788891
515830
656466
2.46404e+06
2.51053e+06
1.29446e+06
761676
476919
714388
2.13395e+06
2.00044e+06
834426
509094
960912
1.81214e+06
3.80565e+06
3.25263e+06
715460
616337
908301
1.53671e+06
3.28952e+06
2.9041e+06
716063
576190
854568
1.47068e+06
2.94775e+06
2.73008e+06
712656
562370
836857
1.44717e+06
2.84642e+06
2.5751e+06
708130
551259
807897
1.36903e+06
2.59802e+06
2.21237e+06
758670
505041
534336
857868
2.05385e+06
3.83625e+06
1.89897e+06
999146
639496
740058
3.31828e+06
3.32553e+06
1.62253e+06
939897
597444
746060
2.95808e+06
3.0319e+06
1.53442e+06
889531
581310
738643
2.72422e+06
2.80798e+06
1.46219e+06
860223
565370
715261
2.57041e+06
2.60709e+06
1.38301e+06
822178
516649
772120
2.20417e+06
2.07604e+06
890459
551021
1.02665e+06
1.92272e+06
3.90381e+06
3.38268e+06
778789
653152
959021
1.6554e+06
3.43433e+06
2.97128e+06
760284
617583
909443
1.56305e+06
3.03897e+06
2.75238e+06
760188
599072
872228
1.46291e+06
2.76249e+06
2.33677e+06
814042
546831
578050
918839
2.18848e+06
3.96663e+06
1.96634e+06
1.05983e+06
673157
807451
3.42522e+06
3.43801e+06
1.65726e+06
979575
629190
769579
2.94809e+06
3.02643e+06
1.54743e+06
921448
605835
762638
2.73793e+06
2.77686e+06
1.47487e+06
880854
552221
823230
2.29233e+06
2.1613e+06
946452
586634
1.08502e+06
1.97006e+06
3.9926e+06
3.40865e+06
829623
691897
1.00197e+06
1.67192e+06
3.43233e+06
2.98671e+06
783978
643373
941525
1.56198e+06
3.00671e+06
2.44103e+06
870841
586928
616616
979449
2.27728e+06
4.17632e+06
2.10809e+06
1.13472e+06
721422
855718
3.55213e+06
3.56205e+06
1.74338e+06
1.0443e+06
665787
817104
3.04046e+06
3.04204e+06
1.59162e+06
965278
600910
889569
2.51562e+06
2.37074e+06
1.01145e+06
634348
1.16603e+06
2.14532e+06
4.31442e+06
3.60919e+06
887259
739425
1.07238e+06
1.78105e+06
3.61939e+06
3.1181e+06
845080
684504
996047
1.63507e+06
3.15123e+06
2.55479e+06
913903
617413
647141
1.02104e+06
2.36208e+06
4.19718e+06
2.13257e+06
1.1698e+06
740989
915873
3.50691e+06
3.43545e+06
1.73436e+06
1.06174e+06
645354
928257
2.72969e+06
2.54737e+06
1.02642e+06
669607
1.2349e+06
2.29706e+06
4.58334e+06
3.72199e+06
961267
771498
1.11712e+06
1.8267e+06
3.61549e+06
2.80333e+06
954950
668502
692991
1.05606e+06
2.58271e+06
4.57994e+06
2.26765e+06
1.24404e+06
779984
941777
3.75814e+06
3.68571e+06
1.85928e+06
1.13693e+06
679059
993522
2.86999e+06
2.65021e+06
1.10239e+06
703064
1.27579e+06
2.31088e+06
4.64941e+06
3.7219e+06
984660
793388
1.13932e+06
1.82468e+06
3.65194e+06
2.8163e+06
974876
673796
692172
1.05646e+06
2.54171e+06
4.18026e+06
2.15357e+06
1.20038e+06
711303
1.00375e+06
3.1663e+06
2.82071e+06
1.06592e+06
721650
1.2658e+06
2.28798e+06
4.66009e+06
3.3999e+06
1.05077e+06
733234
738656
1.11577e+06
2.97008e+06
4.81425e+06
2.36797e+06
1.30517e+06
752263
1.09433e+06
3.5189e+06
3.11475e+06
1.11181e+06
759858
1.37209e+06
2.5733e+06
5.09254e+06
3.6562e+06
1.13846e+06
778248
783045
1.19092e+06
3.18305e+06
5.09068e+06
2.53087e+06
1.38357e+06
785689
1.12581e+06
3.68154e+06
3.24547e+06
1.19848e+06
788376
1.41691e+06
2.59356e+06
5.14263e+06
3.60743e+06
1.1604e+06
785497
783963
1.1757e+06
3.15461e+06
4.98316e+06
2.49208e+06
1.36178e+06
760061
1.11342e+06
3.40562e+06
2.82115e+06
1.18179e+06
765978
797418
1.2523e+06
3.75021e+06
5.74445e+06
2.83285e+06
1.46249e+06
784017
1.19298e+06
3.74041e+06
3.03353e+06
1.21126e+06
778956
770735
1.28149e+06
3.58807e+06
4.17261e+06
1.58431e+06
823311
774935
1.4637e+06
4.57898e+06
4.99557e+06
1.86075e+06
848616
785775
1.65465e+06
5.51725e+06
7.16347e+06
3.67585e+06
1.72581e+06
820899
1.36099e+06
4.02406e+06
3.0315e+06
1.35755e+06
805829
795371
1.36919e+06
3.14488e+06
3.15838e+06
1.36477e+06
774973
753317
1.35538e+06
3.12701e+06
3.07534e+06
1.33438e+06
731810
712675
1.31769e+06
3.00549e+06
2.9166e+06
1.29649e+06
695267
680512
1.28103e+06
2.83042e+06
2.7442e+06
1.26772e+06
668382
658376
1.25632e+06
2.65978e+06
2.57937e+06
1.2468e+06
650617
644808
1.23848e+06
2.5038e+06
2.4338e+06
1.23103e+06
640406
637527
1.22402e+06
2.36921e+06
2.31e+06
1.21691e+06
635214
633944
1.20971e+06
2.25565e+06
2.20588e+06
1.20175e+06
632474
631629
1.19344e+06
2.16051e+06
2.11928e+06
1.18449e+06
630660
630065
1.17508e+06
2.08196e+06
2.0483e+06
1.16494e+06
629122
628532
1.15439e+06
2.01807e+06
1.99097e+06
1.14302e+06
627359
626569
1.13142e+06
1.96677e+06
1.94521e+06
1.11898e+06
625010
623725
1.10646e+06
1.9261e+06
1.90919e+06
1.0933e+06
621809
620128
1.08021e+06
1.8943e+06
1.88124e+06
1.06647e+06
617730
615556
1.05287e+06
1.8698e+06
1.85983e+06
1.03885e+06
612791
610215
1.02514e+06
1.85111e+06
1.84356e+06
1.01101e+06
606979
603923
997312
1.83693e+06
1.83121e+06
983408
600319
596905
970097
1.82616e+06
1.8218e+06
956572
592919
589150
943720
1.8179e+06
1.81448e+06
930824
584920
580928
918715
1.81135e+06
1.80859e+06
906516
576478
572304
895144
1.806e+06
1.80366e+06
883792
567766
563519
873324
1.80139e+06
1.79932e+06
862795
558915
554628
853144
1.79724e+06
1.79531e+06
843502
550055
545802
834753
1.79333e+06
1.79148e+06
825929
541273
537075
817945
1.78955e+06
1.78774e+06
809965
532653
528558
802757
1.78577e+06
1.78405e+06
795539
524234
520256
788956
1.78208e+06
1.78044e+06
782471
516060
512224
776537
1.77852e+06
1.77694e+06
770653
508148
504451
765281
1.77509e+06
1.77359e+06
759932
500504
496949
755070
1.77178e+06
1.77035e+06
750192
493128
489704
745769
1.76863e+06
1.76732e+06
741311
486014
482731
737300
1.76567e+06
1.76448e+06
733212
479170
476004
729542
1.76296e+06
1.76191e+06
725773
472578
469543
722427
1.76051e+06
1.75961e+06
718927
466242
463314
715826
1.75836e+06
1.75763e+06
712562
460140
457333
709722
1.75652e+06
1.75595e+06
706678
454272
451573
704011
1.75502e+06
1.75456e+06
701185
448652
446080
698763
1.75381e+06
1.75346e+06
696138
443293
440825
693897
1.75292e+06
1.75268e+06
691525
438185
435848
689514
1.75233e+06
1.75218e+06
687341
433351
431134
685497
1.75198e+06
1.75191e+06
683493
428781
426701
681826
1.75178e+06
1.75184e+06
679980
424479
422505
678420
1.75177e+06
1.75194e+06
676731
420424
418571
675316
1.75194e+06
1.7522e+06
673764
416615
414864
672453
1.75226e+06
1.75263e+06
671024
413025
411383
669841
1.75274e+06
1.7532e+06
668532
409655
408104
667438
1.75337e+06
1.75393e+06
666234
406479
405027
665259
1.75416e+06
1.7548e+06
664159
403499
402127
663261
1.75512e+06
1.75583e+06
662251
400690
399405
661461
1.75624e+06
1.757e+06
660541
398053
396837
659817
1.75751e+06
1.75834e+06
658974
395564
394426
658346
1.75893e+06
1.7598e+06
657580
393226
392148
657007
1.76048e+06
1.76141e+06
656305
391015
390007
655817
1.76215e+06
1.76312e+06
655181
388935
387979
654739
1.76392e+06
1.76495e+06
654155
386964
386074
653786
1.76579e+06
1.76686e+06
653263
385111
384250
652922
1.76775e+06
1.76885e+06
652451
383350
382542
652170
1.76977e+06
1.7709e+06
651752
381680
380895
651496
1.77185e+06
1.773e+06
651126
380088
379343
650918
1.77397e+06
1.77514e+06
650590
378575
377864
650409
1.77612e+06
1.7773e+06
650118
377131
376460
649981
1.77829e+06
1.77948e+06
649728
375760
375120
649611
1.78048e+06
1.78167e+06
649393
374451
373855
649309
1.78267e+06
1.78386e+06
649132
373211
372628
649062
1.78486e+06
1.78605e+06
648919
372026
371482
648874
1.78704e+06
1.78822e+06
648770
370903
370366
648737
1.78921e+06
1.79038e+06
648662
369829
369320
648650
1.79135e+06
1.7925e+06
648611
368807
368319
648610
1.79347e+06
1.79461e+06
648602
367829
367371
648623
1.79556e+06
1.79667e+06
648631
366899
366465
648668
1.79761e+06
1.79871e+06
648691
366007
365614
648762
1.79962e+06
1.8007e+06
648795
365166
364777
648880
1.8016e+06
1.80266e+06
648928
364359
364007
649045
1.80354e+06
1.80457e+06
649102
363598
363248
649230
1.80543e+06
1.80644e+06
649300
362868
362548
649455
1.80728e+06
1.80826e+06
649534
362185
361873
649699
1.80909e+06
1.81005e+06
649788
361520
361240
649976
1.81085e+06
1.81178e+06
650072
360889
360644
650271
1.81256e+06
1.81347e+06
650374
360276
360052
650592
1.81423e+06
1.81511e+06
650704
359745
359490
650931
1.81585e+06
1.81671e+06
651052
359212
358975
651297
1.81743e+06
1.81826e+06
651423
358708
358486
651674
1.81896e+06
1.81978e+06
651805
358225
358031
652069
1.82045e+06
1.82124e+06
652209
357779
357575
652473
1.8219e+06
1.82267e+06
652619
357351
357161
652896
1.82331e+06
1.82406e+06
653048
356950
356769
653328
1.82468e+06
1.8254e+06
653481
356567
356401
653777
1.82601e+06
1.82671e+06
653930
356211
356052
654274
1.8273e+06
1.82797e+06
654307
355877
355717
654805
1.82855e+06
1.82921e+06
654914
355546
355425
655235
1.82977e+06
1.83041e+06
655275
355249
355164
655607
1.83092e+06
1.83155e+06
655791
354975
354877
656107
1.83206e+06
1.83267e+06
656285
354704
354636
656606
1.83316e+06
1.83375e+06
656786
354461
354385
657101
1.83424e+06
1.83482e+06
657279
354225
354182
657599
1.83528e+06
1.83584e+06
657783
354017
353955
658098
1.8363e+06
1.83684e+06
658279
353810
353791
658599
1.83728e+06
1.83781e+06
658788
353636
353585
659101
1.83824e+06
1.83875e+06
659287
353463
353454
659606
1.83917e+06
1.83967e+06
659798
353308
353269
660108
1.84007e+06
1.84055e+06
660299
353169
353166
660614
1.84094e+06
1.84141e+06
660810
353034
353004
661116
1.84179e+06
1.84225e+06
661310
352923
352922
661620
1.84261e+06
1.84305e+06
661820
352811
352786
662120
1.84341e+06
1.84384e+06
662318
352718
352709
662619
1.84419e+06
1.8446e+06
662820
352643
352630
663118
1.84494e+06
1.84535e+06
663312
352544
352550
663607
1.84567e+06
1.84606e+06
663807
352474
352457
664093
1.84638e+06
1.84676e+06
664291
352415
352409
664575
1.84707e+06
1.84743e+06
664776
352371
352361
665055
1.84773e+06
1.84809e+06
665249
352305
352296
665522
1.84838e+06
1.84872e+06
665722
352283
352256
665989
1.849e+06
1.84933e+06
666182
352241
352224
666448
1.84961e+06
1.84993e+06
666639
352204
352205
666903
1.85019e+06
1.8505e+06
667086
352164
352177
667347
1.85075e+06
1.85105e+06
667534
352151
352147
667789
1.85129e+06
1.85158e+06
667971
352138
352150
668224
1.85181e+06
1.85209e+06
668408
352133
352130
668653
1.85232e+06
1.85259e+06
668833
352133
352131
669076
1.8528e+06
1.85306e+06
669257
352137
352137
669498
1.85327e+06
1.85352e+06
669669
352134
352162
669911
1.85372e+06
1.85397e+06
670082
352145
352167
670316
1.85416e+06
1.8544e+06
670486
352175
352179
670713
1.85458e+06
1.85481e+06
670885
352195
352201
671110
1.85499e+06
1.85521e+06
671273
352217
352224
671496
1.85538e+06
1.85559e+06
671658
352238
352266
671882
1.85576e+06
1.85596e+06
672033
352251
352292
672253
1.85612e+06
1.85631e+06
672409
352304
352331
672626
1.85647e+06
1.85666e+06
672771
352320
352366
672985
1.8568e+06
1.85699e+06
673134
352370
352398
673343
1.85713e+06
1.8573e+06
673485
352409
352456
673693
1.85743e+06
1.8576e+06
673836
352461
352493
674038
1.85773e+06
1.8579e+06
674175
352504
352556
674377
1.85802e+06
1.85818e+06
674513
352562
352596
674709
1.85829e+06
1.85844e+06
674840
352609
352665
675037
1.85855e+06
1.8587e+06
675167
352671
352709
675357
1.85881e+06
1.85895e+06
675482
352722
352784
675674
1.85905e+06
1.85919e+06
675798
352790
352831
675983
1.85929e+06
1.85942e+06
676102
352845
352910
676289
1.85951e+06
1.85964e+06
676408
352917
352960
676588
1.85972e+06
1.85985e+06
676702
352975
353044
676883
1.85993e+06
1.86005e+06
676998
353052
353097
677171
1.86013e+06
1.86024e+06
677282
353113
353184
677454
1.86032e+06
1.86043e+06
677570
353202
353226
677732
1.8605e+06
1.86061e+06
677844
353275
353308
678008
1.86068e+06
1.86078e+06
678115
353343
353396
678282
1.86085e+06
1.86095e+06
678379
353405
353488
678548
1.86101e+06
1.86111e+06
678644
353478
353562
678808
1.86117e+06
1.86126e+06
678902
353556
353636
679060
1.86132e+06
1.86141e+06
679161
353658
353712
679313
1.86147e+06
1.86155e+06
679405
353708
353792
679553
1.86161e+06
1.86169e+06
679657
353814
353842
679793
1.86174e+06
1.86182e+06
679896
353901
353927
680030
1.86187e+06
1.86195e+06
680133
353986
354011
680265
1.862e+06
1.86207e+06
680364
354068
354094
680494
1.86212e+06
1.86219e+06
680592
354152
354177
680719
1.86224e+06
1.86231e+06
680814
354234
354260
680941
1.86235e+06
1.86242e+06
681034
354318
354343
681157
1.86246e+06
1.86252e+06
681247
354400
354426
681369
1.86256e+06
1.86263e+06
681459
354483
354509
681578
1.86266e+06
1.86273e+06
681664
354566
354593
681782
1.86276e+06
1.86282e+06
681868
354649
354681
681983
1.86285e+06
1.86291e+06
682064
354730
354758
682178
1.86294e+06
1.863e+06
682260
354815
354847
682371
1.86303e+06
1.86309e+06
682448
354896
354924
682559
1.86311e+06
1.86317e+06
682637
354984
355010
682745
1.86319e+06
1.86325e+06
682819
355066
355091
682926
1.86327e+06
1.86333e+06
682999
355148
355173
683104
1.86335e+06
1.8634e+06
683172
355227
355253
683277
1.86342e+06
1.86348e+06
683344
355309
355334
683449
1.8635e+06
1.86355e+06
683510
355385
355420
683617
1.86357e+06
1.86362e+06
683675
355458
355509
683781
1.86364e+06
1.86369e+06
683834
355524
355604
683943
1.86371e+06
1.86376e+06
683994
355612
355666
684097
1.86378e+06
1.86383e+06
684148
355680
355759
684254
1.86384e+06
1.86389e+06
684303
355767
355820
684402
1.86391e+06
1.86396e+06
684451
355834
355911
684552
1.86397e+06
1.86402e+06
684598
355918
355969
684694
1.86404e+06
1.86409e+06
684740
355983
356059
684837
1.86411e+06
1.86416e+06
684882
356076
356100
684973
1.86418e+06
1.86423e+06
685018
356147
356176
685110
1.86425e+06
1.8643e+06
685153
356212
356255
685242
1.86432e+06
1.86437e+06
685283
356269
356338
685372
1.8644e+06
1.86445e+06
685414
356361
356380
685511
1.86449e+06
1.86453e+06
685461
356456
356387
685743
1.86458e+06
1.86464e+06
685640
356499
356526
685729
1.86467e+06
1.86474e+06
685767
356513
356583
685851
1.86477e+06
1.86484e+06
685889
356587
356629
685970
1.86488e+06
1.86496e+06
686009
356639
356703
686093
1.865e+06
1.86508e+06
686131
356707
356748
686211
1.86513e+06
1.86521e+06
686250
356756
356820
686335
1.86526e+06
1.86535e+06
686374
356823
356867
686457
1.8654e+06
1.86548e+06
686499
356875
356944
686590
1.86553e+06
1.86561e+06
686633
356956
356984
686723
1.86566e+06
1.86574e+06
686768
357026
357049
686861
1.86578e+06
1.86585e+06
686908
357098
357120
687001
1.8659e+06
1.86596e+06
687045
357168
357191
687136
1.86601e+06
1.86606e+06
687183
357247
357236
687262
1.86613e+06
1.86618e+06
687299
357326
357306
687366
1.86632e+06
1.86793e+06
687365
357344
357273
686765
1.86496e+06
1.87046e+06
688897
357839
358013
689520
1.86787e+06
1.87265e+06
690228
358767
352325
680392
1.83445e+06
1.78244e+06
658584
339424
323418
631497
1.72142e+06
151718
75719.1
45968.3
34276.8
28235.2
20158.3
17224.3
16367.7
13700.8
11357.9
9791.07
8470.82
7319.89
6322.72
5449.93
4696.18
4043.31
3481.63
2999.1
2585.87
2232.88
1932.08
1676.22
1458.88
1274.34
1117.63
984.406
870.983
774.213
691.449
620.471
559.424
506.762
461.2
421.665
387.265
357.255
331.013
308.018
287.833
270.09
254.478
240.737
228.644
218.011
208.678
200.508
193.372
187.179
181.817
177.27
173.449
170.426
168.126
166.563
165.622
165.189
164.829
164.121
163.058
161.662
160.017
158.17
156.205
154.144
152.017
149.833
147.604
145.333
143.027
140.69
138.326
135.937
133.525
131.09
128.634
126.156
123.658
121.137
118.596
116.029
113.44
110.825
108.183
105.512
102.809
100.074
97.3025
94.4909
91.6336
88.7251
85.7582
82.7221
79.6031
75.9123
70.9889
64.8049
57.7429
50.3167
42.9805
36.062
29.7571
24.1621
19.3075
15.1822
11.7447
8.93561
6.68352
4.91287
3.54792
2.51736
1.75686
1.2084
0.82317
0.559889
0.385268
0.272939
0.202847
0.16041
0.13531
0.120651
0.112054
0.106849
0.103504
0.101177
0.0994189
0.0979955
0.0967833
0.0957132
0.094744
0.0938483
0.093007
0.0922056
0.0914331
0.0906807
0.0899414
0.0892089
0.0884787
0.0877469
0.0870098
0.0862648
0.0855091
0.0847408
0.0839581
0.0831596
0.0823439
0.0815101
0.0806574
0.0797855
0.0788938
0.0779821
0.0770506
0.0760994
0.075129
0.0741396
0.0731324
0.0721081
0.0710677
0.0700123
0.0689431
0.0678615
0.0667686
0.0656666
0.0645569
0.0634407
0.0623201
0.0611966
0.0600723
0.0589484
0.0578264
0.0567084
0.0555961
0.0544906
0.0533938
0.052307
0.0512312
0.050168
0.0491185
0.0480838
0.0470644
0.0460616
0.0450765
0.0441092
0.0431607
0.0422314
0.0413218
0.0404321
0.0395624
0.0387134
0.037885
0.0370773
0.0362903
0.0355239
0.0347781
0.0340526
0.0333473
0.0326622
0.0319968
0.0313509
0.0307242
0.0301164
0.0295271
0.028956
0.0284026
0.0278666
0.0273476
0.0268452
0.0263589
0.0258884
0.0254333
0.0249932
0.0245675
0.024156
0.0237582
0.0233738
0.0230023
0.0226433
0.0222965
0.0219616
0.021638
0.0213255
0.0210237
0.0207323
0.020451
0.0201794
0.0199171
0.019664
0.0194197
0.0191839
0.0189563
0.0187367
0.0185247
0.0183202
0.0181229
0.0179325
0.0177488
0.0175717
0.0174008
0.0172359
0.0170769
0.0169236
0.0167757
0.0166332
0.0164958
0.0163633
0.0162356
0.0161126
0.0159941
0.0158799
0.01577
0.0156641
0.0155622
0.0154642
0.0153699
0.0152793
0.0151921
0.0151084
0.015028
0.0149508
0.0148768
0.0148058
0.0147378
0.0146726
0.0146103
0.0145507
0.0144937
0.0144394
0.0143875
0.0143382
0.0142912
0.0142466
0.0142043
0.0141642
0.0141263
0.0140907