/*--------------------------------*- C++ -*----------------------------------*\
| =========                 |                                                 |
| \\      /  F ield         | OpenFOAM: The Open Source CFD Toolbox           |
|  \\    /   O peration     | Version:  v2006                                 |
|   \\  /    A nd           | Website:  www.openfoam.com                      |
|    \\/     M anipulation  |                                                 |
\*---------------------------------------------------------------------------*/
FoamFile
{
    version     2.0;
    format      ascii;
    class       volScalarField;
    location    "0.038";
    object      omega;
}
// * * * * * * * * * * * * * * * * * * * * * * * * * * * * * * * * * * * * * //

dimensions      [0 0 -1 0 0 0 0];


internalField   nonuniform List<scalar> 
31566
(
0.0138265
0.0138265
0.0138264
0.0138264
0.0138265
0.0138265
0.0138265
0.0138265
0.0138266
0.0138266
0.0138267
0.0138267
0.0138268
0.0138268
0.0138269
0.0138269
0.0138262
0.0138237
0.0138186
0.013811
0.0138014
0.0137905
0.0137787
0.0137666
0.0137542
0.0137416
0.0137288
0.0137159
0.0137026
0.0136891
0.0136753
0.0136612
0.0136467
0.013632
0.0136169
0.0136016
0.013586
0.0135703
0.0135543
0.0135381
0.0135218
0.0135054
0.0134889
0.0134723
0.0134558
0.0134394
0.0134233
0.0134074
0.0133921
0.0133775
0.013364
0.013352
0.013342
0.0133349
0.0133317
0.0133338
0.0133432
0.0133625
0.0133955
0.0134472
0.0135244
0.0136366
0.0137965
0.0140217
0.0143358
0.0147714
0.0153724
0.0161981
0.0173289
0.0188724
0.020973
0.0238225
0.0276743
0.0328599
0.0398078
0.0490628
0.0613043
0.0773624
0.0982271
0.125051
0.159147
0.201992
0.255223
0.320321
0.396551
0.469387
0.444635
0.49753
0.549207
0.531441
0.420766
0.272854
0.157494
0.0873192
0.0294766
0.173704
0.655038
1.84678
4.5007
10.5072
25.1799
35.5309
30.4739
79.688
214.422
534.394
1752.99
14703.1
78728.3
1.10642e+06
1.07881e+06
163788
37891.4
57744.2
203575
1.05108e+06
1.01887e+06
218368
69459.4
78380.4
227247
978944
948613
225512
83991.6
89292.9
228986
917748
900045
228665
91910.4
95375
232682
886761
877876
231366
96675.1
98886.4
229742
864421
854599
228147
99222.7
100495
227055
844434
837148
225989
100587
101440
225260
829157
823508
224518
101433
102090
224061
817026
812443
223529
102049
102614
223265
807035
803173
222887
102552
103061
222744
798524
795175
222476
102985
103454
222392
791078
788104
222208
103367
103803
222158
784420
781728
222029
103708
104117
221996
778360
775889
221902
104014
104398
221875
772773
770482
221796
104287
104651
221781
767567
765414
221714
104534
104880
221705
762664
760627
221643
104756
105083
221633
758018
756080
221569
104953
105263
221557
753591
751738
221491
105128
105422
221477
749354
747574
221406
105281
105562
221391
745282
743567
221315
105417
105684
221296
741357
739699
221215
105535
105791
221193
737562
735954
221106
105638
105884
221081
733883
732320
220989
105728
105964
220960
730308
728785
220861
105805
106032
220829
726826
725340
220724
105870
106092
220688
723430
721977
220575
105926
106142
220536
720112
718689
220417
105971
106183
220374
716864
715468
220247
106008
106215
220200
713679
712307
220066
106036
106239
220015
710551
709200
219873
106057
106256
219818
707471
706138
219668
106071
106266
219609
704433
703116
219452
106078
106270
219389
701433
700129
219223
106079
106268
219155
698463
697170
218981
106074
106259
218909
695520
694236
218727
106063
106244
218649
692598
691322
218458
106045
106223
218377
689693
688421
218177
106021
106196
218090
686799
685529
217881
105992
106163
217789
683911
682642
217571
105958
106125
217474
681025
679755
217246
105917
106082
217144
678137
676863
216907
105872
106033
216799
675241
673962
216552
105821
105978
216438
672334
671047
216181
105764
105918
216062
669410
668114
215794
105702
105853
215669
666465
665158
215390
105635
105782
215260
663495
662175
214969
105562
105705
214833
660496
659162
214531
105484
105623
214388
657465
656114
214075
105397
105534
213924
654397
653030
213598
105306
105439
213441
651291
649903
213104
105206
105337
212940
648141
646733
212589
105098
105226
212418
644944
643514
212055
104982
105108
211877
641698
640245
211500
104860
104984
211314
638398
636919
210924
104730
104852
210730
635039
633533
210325
104594
104713
210122
631618
630082
209702
104450
104566
209491
628129
626562
209055
104298
104412
208835
624569
622969
208383
104138
104249
208153
620933
619299
207684
103969
104077
207444
617219
615548
206958
103792
103897
206708
613421
611712
206203
103606
103708
205943
609536
607786
205422
103410
103509
205148
605560
603768
204611
103206
103301
204321
601488
599652
203768
102991
103082
203461
597318
595437
202893
102765
102853
202568
593047
591120
201984
102529
102613
201640
588671
586696
201039
102281
102360
200676
584187
582164
200056
102020
102095
199673
579593
577518
199036
101747
101817
198632
574883
572757
197975
101460
101525
197548
570056
567878
196872
101159
101219
196423
565109
562877
195725
100842
100897
195254
560039
557752
194534
100509
100559
194038
554843
552502
193296
100160
100203
192774
549521
547125
192008
99792
99828.5
191460
544073
541623
190669
99404.4
99433.8
190093
538502
536000
189276
98995.7
99017.6
188671
532811
530260
187827
98564.2
98578
187192
527005
524407
186320
98108.3
98113.5
185654
521088
518448
184753
97628.1
97622.8
184055
515065
512389
183127
97122.4
97104.1
182395
508942
506242
181439
96586.1
96554.7
180672
502720
500027
179689
96019.1
95977
178900
496390
493877
177912
95429.3
95387.5
177218
491078
488944
176327
94849.9
94814.5
175710
486308
484221
174875
94294.8
94265
174298
481590
479481
173486
93760
93731.5
172917
476824
474687
172106
93233.9
93202.1
171529
472006
469849
170699
92702.5
92662.9
170104
467156
464991
169243
92152.9
92100.9
168617
462300
460141
167719
91573
91504.3
167056
457466
455330
166110
90950.4
90860.8
165404
452687
450591
164406
90272.8
90158.4
163652
447997
445959
162598
89530
89387.8
161795
443433
441469
160682
88714.1
88541.8
159829
439028
437155
158659
87818.6
87614.5
157759
434815
433047
156534
86839.6
86603.2
155592
430824
429173
154318
85775.9
85507.4
153338
427079
425558
152024
84629.3
84330.6
151017
423600
422215
149670
83405.1
83080.8
148653
420399
419152
147285
82110.7
81782.6
146271
417482
416371
144898
80766.8
80422
143892
414843
413865
142531
79385.6
79029.6
141547
412476
411626
140209
77981.8
77620.7
139261
410369
409636
137961
76572.4
76212.9
137060
408501
407875
135808
75175.3
74823.1
134962
406852
406319
133772
73806.6
73466.9
132985
405398
404946
131865
72484
72145.6
131137
404117
403735
130093
71213.1
70894.1
129433
402990
402660
128466
70003.3
69707.1
127880
401988
401696
126988
68850.8
68583.6
126477
401090
400829
125661
67772.8
67535.8
125221
400274
400033
124482
66775.2
66568.8
124108
399511
399277
123445
65861.5
65685.9
123135
398769
398529
122552
65035.8
64889.8
122298
397996
397777
121672
64255.6
64361.2
121885
397409
396933
121196
63696.9
63749.9
121227
396146
395985
121044
63304.9
63458
121292
394299
395217
121388
63252
62757.2
120547
389935
380822
116690
60814.8
58913.1
114073
366288
30104.7
19696.6
14917
12119.4
10883.9
9570.78
8728.33
8000.7
7460.31
6979.29
6590.16
6239.56
5943.33
5674.94
5442.59
5231.69
5046.87
4879.62
4732.86
4601.52
4487.68
4388.34
4305.26
4236.78
4184.62
4148.21
4129.29
4128.61
4147.89
4189.19
4255.64
4350.61
4478.48
4644.98
4855.32
5118.34
5437.97
5827.5
6285.5
6829.18
7433.37
8105.96
8862.07
9714.94
10684.5
11809.7
13163.6
14857.4
17048.6
20059.7
24324.9
31061.5
42936.6
70156.4
161086
357153
1.36318e+06
1.40062e+06
361675
165382
171594
375918
1.42234e+06
1.42427e+06
374323
170192
166729
365108
1.39449e+06
1.38522e+06
360865
166202
165453
359085
1.37797e+06
1.37818e+06
358134
165564
165852
358348
1.38067e+06
1.3802e+06
357867
165871
166192
357911
1.38118e+06
1.38236e+06
357743
166329
166573
357716
1.38353e+06
1.38479e+06
357625
166758
166980
357432
1.38603e+06
1.38739e+06
357375
167212
167420
357275
1.38874e+06
1.39019e+06
357197
167689
167924
357131
1.39164e+06
1.39322e+06
357135
168195
168464
357027
1.39472e+06
1.39641e+06
357102
168760
169056
357020
1.398e+06
1.39979e+06
357139
169384
169713
357109
1.40148e+06
1.40337e+06
357278
170075
170441
357301
1.40516e+06
1.40716e+06
357541
170866
171250
357676
1.40913e+06
1.41113e+06
357811
171714
172190
358207
1.4133e+06
1.41547e+06
358469
172676
173220
358687
1.41768e+06
1.42003e+06
359290
173810
174413
359665
1.4224e+06
1.42489e+06
360280
175099
175811
360932
1.42745e+06
1.43015e+06
361676
176606
177468
362584
1.43293e+06
1.4359e+06
363635
178401
179468
364894
1.43902e+06
1.44245e+06
366395
180615
181866
368199
1.4462e+06
1.45047e+06
370361
183171
184431
372826
1.45545e+06
1.46137e+06
375456
185754
186303
377088
1.46924e+06
1.48161e+06
377553
186663
186899
376791
1.48537e+06
1.48507e+06
373600
186877
187151
372488
1.46673e+06
1.44236e+06
370001
187809
189150
370440
1.41025e+06
1.38033e+06
373976
192595
196550
380287
1.34336e+06
1.29909e+06
385332
200897
214119
392719
1.97259e+06
3.04132e+06
965681
434219
241997
496228
2.23042e+06
1.93678e+06
505590
245350
225114
459065
1.81405e+06
1.71482e+06
442388
221886
216565
429682
1.63117e+06
1.55691e+06
417656
213013
211850
414156
1.47617e+06
1.40524e+06
412019
211493
224550
428012
2.09786e+06
3.02756e+06
903122
435597
260852
541261
2.25828e+06
1.91464e+06
498806
249433
229953
458081
1.77012e+06
1.63976e+06
438093
219978
216382
436947
1.55512e+06
2.2376e+06
479359
233582
374918
744431
2.9426e+06
2.24477e+06
561977
274502
244498
498549
1.94655e+06
2.48726e+06
615917
299664
367723
775754
3.60147e+06
2.80738e+06
615297
286148
449549
862460
2.94965e+06
4.43788e+06
782229
332417
352356
889623
4.28775e+06
5.03082e+06
1.1392e+06
496394
452495
1.02756e+06
4.38887e+06
3.13764e+06
703664
331632
490837
1.04747e+06
2.93854e+06
4.25108e+06
2.2268e+06
1.18527e+06
685427
1.12256e+06
3.45974e+06
2.73226e+06
1.12266e+06
680985
1.06851e+06
1.93699e+06
3.72034e+06
2.99462e+06
918959
638810
615787
929164
2.3374e+06
3.45303e+06
1.54824e+06
913071
550689
784733
2.77882e+06
2.17599e+06
799683
535864
802225
1.53686e+06
3.28644e+06
2.60472e+06
706801
494934
483221
738576
2.04052e+06
3.18933e+06
1.3534e+06
748445
451746
651644
2.50488e+06
1.96338e+06
680058
443791
706558
1.30062e+06
3.07022e+06
2.40145e+06
611887
422663
416779
646455
1.89447e+06
3.04281e+06
1.27525e+06
680942
403177
587124
2.33824e+06
1.83608e+06
620628
398832
664185
1.25869e+06
2.99028e+06
2.33444e+06
574878
389373
386638
608373
1.83996e+06
3.01646e+06
1.26638e+06
657902
383270
565901
2.35179e+06
1.88048e+06
612933
383023
693056
1.35393e+06
3.2719e+06
2.68096e+06
490937
407192
587350
1.10539e+06
2.36211e+06
1.92937e+06
515568
344655
351862
569699
1.60497e+06
2.66335e+06
1.2133e+06
604682
355565
522671
2.1018e+06
1.71863e+06
568909
358056
624784
1.30255e+06
2.87633e+06
2.25179e+06
545043
362056
365498
589209
1.83015e+06
3.18265e+06
1.46863e+06
680563
413997
481511
2.69398e+06
2.44561e+06
1.08072e+06
601731
343228
504628
1.94335e+06
1.65412e+06
578908
354874
657974
1.40606e+06
2.99493e+06
2.56071e+06
477908
401986
588139
1.06496e+06
2.3435e+06
1.88285e+06
501253
339470
349715
557260
1.61572e+06
2.82609e+06
1.30067e+06
628935
365715
548539
2.2135e+06
1.83946e+06
609691
373736
708192
1.54781e+06
3.32197e+06
2.82167e+06
491229
445311
656459
1.14202e+06
2.66432e+06
2.33247e+06
470635
397097
585079
1.04793e+06
2.2134e+06
1.84825e+06
522221
346296
362233
599881
1.63699e+06
3.02314e+06
1.34194e+06
691875
414330
509663
2.57321e+06
2.38845e+06
1.09574e+06
605192
355676
519888
1.9304e+06
1.71244e+06
602342
370851
719906
1.41535e+06
3.23639e+06
2.75373e+06
513554
438093
646499
1.1847e+06
2.61565e+06
2.31085e+06
477653
401965
597787
1.08611e+06
2.24019e+06
1.89201e+06
551189
357524
378574
636379
1.69337e+06
3.1438e+06
1.50672e+06
727256
465354
519971
2.74066e+06
2.6694e+06
1.16235e+06
680171
423293
490973
2.33894e+06
2.26248e+06
1.08691e+06
622493
371700
566054
1.8815e+06
1.69866e+06
652368
390989
754255
1.44452e+06
3.20609e+06
2.81598e+06
518590
487122
710449
1.18844e+06
2.75676e+06
2.40863e+06
509152
443477
650553
1.12114e+06
2.33219e+06
1.94161e+06
583837
389417
409966
679221
1.76939e+06
3.38e+06
1.5087e+06
792512
492073
560661
2.90533e+06
2.84031e+06
1.32462e+06
735528
456099
555065
2.52904e+06
2.54202e+06
1.22934e+06
686715
434725
543669
2.35145e+06
2.33492e+06
1.16112e+06
652408
396449
605571
1.95649e+06
1.78527e+06
705549
422209
825022
1.5759e+06
3.42513e+06
2.99878e+06
578896
530424
775180
1.28064e+06
2.93287e+06
2.59325e+06
572815
481162
724458
1.26155e+06
2.64859e+06
2.47363e+06
583477
460098
694571
1.22196e+06
2.49686e+06
2.28507e+06
562729
447153
661976
1.14697e+06
2.28583e+06
1.92069e+06
613252
408613
434307
717781
1.78449e+06
3.40174e+06
1.58344e+06
829681
535108
598584
2.94056e+06
2.92304e+06
1.32722e+06
787847
496494
594205
2.62178e+06
2.66746e+06
1.27811e+06
742749
477460
599964
2.45522e+06
2.49435e+06
1.23465e+06
713458
462933
582565
2.26929e+06
2.29441e+06
1.17497e+06
682830
423920
640476
1.97629e+06
1.83091e+06
741294
452130
860323
1.63158e+06
3.45271e+06
3.0056e+06
628846
552361
819695
1.36571e+06
2.98732e+06
2.6761e+06
625317
511070
769544
1.3242e+06
2.73217e+06
2.50855e+06
627281
496913
742464
1.29191e+06
2.57565e+06
2.34594e+06
612236
485214
718538
1.23448e+06
2.37811e+06
2.04435e+06
673023
446252
475622
777577
1.89861e+06
3.52186e+06
1.65201e+06
893717
564478
657293
3.02625e+06
3.09299e+06
1.48325e+06
841785
534814
659441
2.75568e+06
2.82436e+06
1.4041e+06
798292
522419
664071
2.57703e+06
2.65471e+06
1.35699e+06
775972
509729
654798
2.40635e+06
2.44717e+06
1.28875e+06
751701
468800
707893
2.10048e+06
1.95131e+06
810104
499596
938533
1.82023e+06
3.65429e+06
3.1958e+06
721834
597844
878912
1.51214e+06
3.18711e+06
2.81487e+06
691462
559922
832911
1.44489e+06
2.8827e+06
2.63142e+06
687571
546097
815431
1.41362e+06
2.73546e+06
2.52065e+06
689516
535863
784012
1.32248e+06
2.52212e+06
2.12714e+06
731637
491202
522489
839946
1.98437e+06
3.73385e+06
1.82168e+06
981371
620097
729104
3.27957e+06
3.26393e+06
1.55836e+06
919127
584220
725598
2.90257e+06
2.97937e+06
1.47714e+06
866957
567852
714058
2.6782e+06
2.78313e+06
1.43155e+06
840682
554515
705038
2.55055e+06
2.56129e+06
1.34828e+06
808222
508933
749438
2.12884e+06
2.00818e+06
863709
541793
1.00127e+06
1.88715e+06
3.75719e+06
3.25135e+06
768810
637859
940467
1.62084e+06
3.29308e+06
2.90167e+06
751276
601765
883901
1.51125e+06
2.94217e+06
2.63563e+06
733162
579603
848759
1.41867e+06
2.66344e+06
2.25948e+06
789637
530185
563410
904773
2.12472e+06
3.9141e+06
1.94289e+06
1.04189e+06
668613
788011
3.32503e+06
3.33639e+06
1.63501e+06
975472
624155
762156
2.91882e+06
2.99529e+06
1.52956e+06
913682
598865
755593
2.71045e+06
2.74407e+06
1.46059e+06
874954
548439
810048
2.25804e+06
2.1232e+06
929507
581054
1.06437e+06
1.92921e+06
3.93345e+06
3.34013e+06
799536
679197
992311
1.65057e+06
3.37079e+06
2.88371e+06
761991
631248
925158
1.52432e+06
2.90816e+06
2.39076e+06
851185
572524
605986
964460
2.24101e+06
4.10625e+06
2.07761e+06
1.11475e+06
709319
858931
3.45347e+06
3.43297e+06
1.6972e+06
1.02931e+06
655197
798834
2.94556e+06
2.97178e+06
1.56921e+06
951655
589363
874982
2.44304e+06
2.28726e+06
995586
622289
1.13452e+06
2.07323e+06
4.12917e+06
3.5028e+06
872050
721277
1.04705e+06
1.72144e+06
3.5265e+06
2.99985e+06
816051
665455
962176
1.58137e+06
3.03683e+06
2.4611e+06
880616
595856
626877
992227
2.3e+06
4.0911e+06
2.06232e+06
1.14172e+06
721557
887833
3.40677e+06
3.35874e+06
1.69084e+06
1.03663e+06
625093
891811
2.63772e+06
2.45139e+06
985762
650605
1.18571e+06
2.17927e+06
4.33358e+06
3.53756e+06
927908
743858
1.07364e+06
1.76151e+06
3.45811e+06
2.69813e+06
919860
643682
671338
1.03111e+06
2.50356e+06
4.449e+06
2.23721e+06
1.21607e+06
760512
928440
3.63932e+06
3.5573e+06
1.82946e+06
1.11185e+06
660248
958381
2.74529e+06
2.52557e+06
1.07159e+06
686585
1.23949e+06
2.21116e+06
4.4362e+06
3.5586e+06
933735
771771
1.11065e+06
1.7927e+06
3.53993e+06
2.73418e+06
953440
656707
677543
1.04607e+06
2.48253e+06
4.13759e+06
2.12517e+06
1.19332e+06
701345
988052
3.0892e+06
2.75205e+06
1.03776e+06
713619
1.23765e+06
2.25887e+06
4.49925e+06
3.32161e+06
1.03736e+06
719837
728639
1.09282e+06
2.92134e+06
4.71098e+06
2.37623e+06
1.28827e+06
740515
1.07207e+06
3.47351e+06
3.04602e+06
1.1119e+06
744865
1.35691e+06
2.48491e+06
4.99581e+06
3.61239e+06
1.11546e+06
768960
774987
1.17583e+06
3.13786e+06
5.01076e+06
2.49651e+06
1.37232e+06
772276
1.12261e+06
3.62688e+06
3.19452e+06
1.17947e+06
776595
1.39903e+06
2.56445e+06
5.03766e+06
3.56167e+06
1.14634e+06
777722
779703
1.16235e+06
3.11805e+06
4.88438e+06
2.47861e+06
1.35524e+06
750513
1.10361e+06
3.33919e+06
2.74895e+06
1.15778e+06
751957
778795
1.22179e+06
3.58615e+06
5.42197e+06
2.67579e+06
1.41455e+06
750118
1.13365e+06
3.44927e+06
2.74608e+06
1.10793e+06
719147
708971
1.1405e+06
3.14743e+06
3.64624e+06
1.41849e+06
759727
729297
1.34523e+06
4.09194e+06
4.67042e+06
1.81746e+06
847256
800739
1.65079e+06
5.32353e+06
6.97985e+06
3.59934e+06
1.72161e+06
815906
1.34353e+06
3.91922e+06
2.94319e+06
1.32802e+06
797996
785462
1.33143e+06
3.03072e+06
3.04431e+06
1.32701e+06
766752
743502
1.30821e+06
3.00961e+06
2.95141e+06
1.28718e+06
721004
700000
1.26179e+06
2.87882e+06
2.79238e+06
1.24416e+06
681551
664949
1.22368e+06
2.70959e+06
2.62492e+06
1.20844e+06
650941
639565
1.1962e+06
2.54558e+06
2.4702e+06
1.18451e+06
629827
622514
1.17636e+06
2.40016e+06
2.3353e+06
1.16683e+06
616402
612058
1.16059e+06
2.27609e+06
2.22164e+06
1.15236e+06
608468
606034
1.14656e+06
2.17212e+06
2.12655e+06
1.13852e+06
603845
602452
1.13223e+06
2.08521e+06
2.04728e+06
1.12387e+06
600985
600219
1.11651e+06
2.01304e+06
1.98171e+06
1.10749e+06
599114
598360
1.09952e+06
1.95361e+06
1.92797e+06
1.08926e+06
597494
596700
1.08019e+06
1.90506e+06
1.88432e+06
1.06937e+06
595650
594678
1.05911e+06
1.86583e+06
1.84924e+06
1.04792e+06
593357
591885
1.03705e+06
1.83449e+06
1.82143e+06
1.02541e+06
590369
588537
1.01333e+06
1.80973e+06
1.79952e+06
1.0021e+06
586634
584421
989471
1.79042e+06
1.78245e+06
977806
582180
579576
965235
1.77538e+06
1.76926e+06
953848
576803
573966
941166
1.76376e+06
1.75904e+06
929937
570821
567627
917674
1.75471e+06
1.75105e+06
906722
564262
560732
895085
1.74761e+06
1.74466e+06
884408
557179
553443
873495
1.74187e+06
1.73939e+06
863532
549608
545832
853221
1.73713e+06
1.73485e+06
843685
541886
537970
834449
1.73297e+06
1.73083e+06
825290
534045
530055
816914
1.72914e+06
1.72711e+06
808252
526154
522161
800717
1.72543e+06
1.72357e+06
792820
518261
514320
785811
1.72182e+06
1.72011e+06
778735
510456
506611
772090
1.71826e+06
1.71661e+06
765828
502821
499003
759699
1.71475e+06
1.71312e+06
754047
495361
491640
748399
1.71129e+06
1.70974e+06
743287
488054
484503
738077
1.70795e+06
1.70644e+06
733484
480945
477564
728699
1.70474e+06
1.70319e+06
724361
474109
470795
720178
1.7016e+06
1.70012e+06
716025
467516
464285
712134
1.69848e+06
1.69715e+06
708458
461108
457938
704780
1.69557e+06
1.69432e+06
701478
454913
451866
698003
1.69283e+06
1.69169e+06
695015
448892
445988
691789
1.69033e+06
1.68924e+06
688891
443138
440311
685955
1.68797e+06
1.68702e+06
683290
437571
434850
680473
1.68585e+06
1.685e+06
678078
432208
429580
675417
1.68401e+06
1.6832e+06
673087
427075
424526
670681
1.68235e+06
1.68163e+06
668521
422100
419707
666230
1.68088e+06
1.68019e+06
664259
417333
415092
662127
1.67958e+06
1.67885e+06
660140
412851
410678
658363
1.67836e+06
1.67767e+06
656308
408597
406506
654711
1.67715e+06
1.67661e+06
652880
404531
402566
651282
1.67604e+06
1.67565e+06
649756
400650
398846
648133
1.6751e+06
1.67478e+06
646797
396999
395332
645195
1.67428e+06
1.67398e+06
644004
393562
391972
642599
1.67362e+06
1.67334e+06
641376
390345
388804
640160
1.67307e+06
1.67287e+06
639020
387266
385816
637889
1.67266e+06
1.67254e+06
636852
384376
382965
635884
1.67245e+06
1.67236e+06
634784
381669
380342
633883
1.67233e+06
1.6723e+06
632924
379081
377841
632136
1.67238e+06
1.67241e+06
631184
376644
375470
630548
1.67257e+06
1.67271e+06
629650
374342
373264
628969
1.67289e+06
1.67313e+06
628211
372194
371133
627581
1.67336e+06
1.67371e+06
627024
370149
369171
626265
1.67401e+06
1.67438e+06
625771
368254
367330
625118
1.67477e+06
1.6752e+06
624615
366423
365568
624356
1.6757e+06
1.67617e+06
623499
364763
363921
623371
1.67672e+06
1.67729e+06
622776
363173
362386
622437
1.67789e+06
1.67853e+06
622087
361682
360918
621715
1.67918e+06
1.67989e+06
621421
360281
359545
621089
1.6806e+06
1.68137e+06
620834
358936
358252
620547
1.68214e+06
1.68296e+06
620326
357659
357030
620083
1.68378e+06
1.68465e+06
619893
356449
355861
619687
1.68552e+06
1.68644e+06
619528
355303
354753
619352
1.68734e+06
1.68832e+06
619227
354207
353691
619069
1.68924e+06
1.69026e+06
618990
353167
352686
618784
1.69121e+06
1.69227e+06
618902
352161
351723
618618
1.69328e+06
1.69434e+06
618714
351223
350792
618531
1.69539e+06
1.69643e+06
618538
350333
349882
618578
1.69755e+06
1.69859e+06
618372
349484
349035
618503
1.69971e+06
1.7008e+06
618409
348641
348234
618418
1.70188e+06
1.70301e+06
618438
347841
347446
618455
1.7041e+06
1.70524e+06
618491
347071
346691
618518
1.70635e+06
1.7075e+06
618571
346328
345967
618609
1.70861e+06
1.70978e+06
618681
345618
345277
618730
1.71087e+06
1.71206e+06
618818
344935
344606
618873
1.71313e+06
1.71434e+06
619002
344277
343969
618956
1.7154e+06
1.71661e+06
619302
343631
343355
619145
1.71768e+06
1.71888e+06
619490
343033
342758
619373
1.71994e+06
1.72114e+06
619690
342461
342175
619648
1.7222e+06
1.72336e+06
619883
341921
341644
619869
1.72441e+06
1.72557e+06
620232
341343
341121
620158
1.72664e+06
1.72777e+06
620487
340834
340603
620561
1.72884e+06
1.72996e+06
620727
340339
340127
620840
1.731e+06
1.73212e+06
621123
339855
339682
621042
1.73314e+06
1.73424e+06
621470
339393
339232
621402
1.73527e+06
1.73633e+06
621817
338951
338801
621776
1.73739e+06
1.73839e+06
622166
338529
338385
622334
1.73947e+06
1.74045e+06
622370
338120
338021
622625
1.74149e+06
1.74246e+06
622780
337716
337630
623031
1.7435e+06
1.74446e+06
623179
337330
337254
623436
1.74549e+06
1.74643e+06
623572
336956
336859
623868
1.74745e+06
1.74836e+06
623910
336642
336465
624328
1.74938e+06
1.75029e+06
624340
336293
336138
624656
1.75125e+06
1.75214e+06
624699
335948
335788
625115
1.75308e+06
1.75399e+06
625173
335599
335483
625354
1.75485e+06
1.75575e+06
625591
335280
335101
625728
1.75659e+06
1.75746e+06
626020
335005
334803
626059
1.75828e+06
1.75913e+06
626466
334665
334485
626518
1.75994e+06
1.76072e+06
626696
334391
334198
626925
1.76152e+06
1.76227e+06
627058
334033
333961
627341
1.76303e+06
1.76376e+06
627381
333770
333641
627777
1.7645e+06
1.76522e+06
627958
333507
333393
627891
1.76591e+06
1.7666e+06
628331
333248
333140
628282
1.76728e+06
1.76792e+06
628677
333008
332901
628833
1.76858e+06
1.76919e+06
628882
332781
332703
629076
1.76981e+06
1.77039e+06
629270
332545
332506
629436
1.77097e+06
1.77154e+06
629648
332345
332233
629771
1.77209e+06
1.77264e+06
630048
332224
332064
630046
1.77315e+06
1.77369e+06
630472
331983
331927
630401
1.77417e+06
1.77467e+06
630784
331822
331756
630807
1.77513e+06
1.77558e+06
631025
331684
331600
631151
1.77601e+06
1.77645e+06
631413
331533
331465
631447
1.77685e+06
1.77727e+06
631825
331383
331330
631825
1.77766e+06
1.77804e+06
632106
331276
331213
632140
1.77841e+06
1.77876e+06
632520
331151
331095
632691
1.77913e+06
1.77945e+06
632624
331064
330995
633025
1.7798e+06
1.78011e+06
633065
330968
330922
633254
1.78042e+06
1.78073e+06
633439
330878
330840
633619
1.78102e+06
1.78131e+06
633804
330800
330768
633980
1.7816e+06
1.78187e+06
634164
330735
330707
634334
1.78214e+06
1.7824e+06
634522
330679
330653
634683
1.78266e+06
1.78291e+06
634879
330632
330607
635028
1.78315e+06
1.78339e+06
635238
330593
330569
635360
1.78362e+06
1.78386e+06
635632
330560
330541
635613
1.78406e+06
1.78431e+06
636085
330520
330517
635951
1.7845e+06
1.78473e+06
636402
330502
330502
636309
1.78491e+06
1.78512e+06
636704
330491
330487
636694
1.78531e+06
1.7855e+06
636969
330502
330506
637001
1.78567e+06
1.78586e+06
637373
330470
330476
637469
1.78605e+06
1.78622e+06
637583
330478
330484
637867
1.7864e+06
1.78654e+06
637785
330497
330496
638174
1.78671e+06
1.78686e+06
638186
330475
330558
638403
1.78701e+06
1.78716e+06
638520
330493
330555
638778
1.78731e+06
1.78745e+06
638780
330532
330538
639167
1.78761e+06
1.78775e+06
639131
330554
330578
639406
1.78789e+06
1.78801e+06
639374
330583
330591
639836
1.78816e+06
1.78827e+06
639679
330617
330624
640108
1.78842e+06
1.78853e+06
640003
330652
330658
640355
1.78866e+06
1.78878e+06
640425
330674
330698
640662
1.7889e+06
1.789e+06
640542
330720
330742
640936
1.78912e+06
1.78922e+06
640892
330741
330806
641155
1.78932e+06
1.78941e+06
641119
330796
330809
641572
1.78954e+06
1.78962e+06
641403
330844
330856
641818
1.78974e+06
1.78982e+06
641705
330891
330902
642038
1.78992e+06
1.79001e+06
642102
330927
330951
642355
1.79011e+06
1.79017e+06
642143
330989
331002
642637
1.79028e+06
1.79034e+06
642417
331036
331050
642902
1.79044e+06
1.7905e+06
642683
331086
331100
643156
1.79059e+06
1.79065e+06
642945
331138
331152
643397
1.79074e+06
1.79079e+06
643209
331191
331205
643621
1.79088e+06
1.79094e+06
643485
331239
331270
643815
1.79101e+06
1.79108e+06
643795
331260
331375
643950
1.79113e+06
1.7912e+06
644048
331310
331424
644194
1.79125e+06
1.79131e+06
644285
331367
331471
644431
1.79137e+06
1.79143e+06
644510
331433
331512
644686
1.79149e+06
1.79153e+06
644680
331515
331532
644964
1.7916e+06
1.79164e+06
644965
331588
331572
645056
1.79169e+06
1.79173e+06
645195
331675
331637
645269
1.79178e+06
1.79182e+06
645436
331716
331717
645428
1.79186e+06
1.79191e+06
645699
331740
331767
645826
1.79196e+06
1.79199e+06
645692
331819
331834
645977
1.79203e+06
1.79207e+06
646073
331879
331871
646035
1.7921e+06
1.79213e+06
646179
331976
331931
646251
1.79216e+06
1.79219e+06
646412
332016
332005
646390
1.79221e+06
1.79226e+06
646685
332043
332050
646640
1.79228e+06
1.79231e+06
646753
332138
332119
646835
1.79233e+06
1.79236e+06
646945
332174
332158
647013
1.79238e+06
1.79241e+06
647129
332263
332223
647189
1.79243e+06
1.79245e+06
647325
332305
332302
647303
1.79246e+06
1.7925e+06
647566
332331
332349
647538
1.79251e+06
1.79253e+06
647601
332421
332424
647735
1.79255e+06
1.79256e+06
647663
332451
332470
648060
1.79259e+06
1.79259e+06
647825
332514
332531
648174
1.79262e+06
1.79262e+06
648018
332575
332590
648256
1.79264e+06
1.79265e+06
648289
332617
332652
648487
1.79267e+06
1.79267e+06
648202
332688
332705
648654
1.79268e+06
1.79268e+06
648367
332742
332759
648801
1.7927e+06
1.7927e+06
648529
332796
332813
648933
1.79272e+06
1.79271e+06
648697
332852
332867
649042
1.79273e+06
1.79273e+06
648884
332908
332921
649114
1.79274e+06
1.79275e+06
649274
332948
332988
648981
1.79275e+06
1.79275e+06
649423
333003
333039
649131
1.79275e+06
1.79276e+06
649556
333055
333092
649279
1.79276e+06
1.79276e+06
649675
333108
333146
649434
1.79276e+06
1.79276e+06
649772
333161
333200
649610
1.79276e+06
1.79276e+06
649830
333213
333241
649857
1.79277e+06
1.79276e+06
649918
333270
333297
649959
1.79277e+06
1.79276e+06
650162
333324
333363
649860
1.79275e+06
1.79274e+06
650304
333378
333413
650001
1.79272e+06
1.79271e+06
650429
333429
333466
650137
1.7927e+06
1.79269e+06
650541
333482
333520
650277
1.79268e+06
1.79266e+06
650633
333536
333575
650431
1.79265e+06
1.79263e+06
650692
333588
333627
650620
1.79262e+06
1.7926e+06
650690
333642
333717
650739
1.79258e+06
1.79256e+06
650832
333600
333520
650858
1.79256e+06
1.79257e+06
650913
333695
333396
650775
1.79264e+06
1.79425e+06
651069
333786
333387
650958
1.79517e+06
1.80793e+06
656891
335430
337381
658348
1.82078e+06
1.85702e+06
677889
343951
348708
683500
1.8654e+06
1.86785e+06
672275
342689
341868
668030
1.84492e+06
158352
89559.7
60970.1
45140.1
35864.2
29559.5
25227.8
22000
19528.4
17538.5
15881.2
14437.3
13140.2
12037.9
11130
10064.3
9418.54
8342.04
7470
6594.23
5810.72
5089.65
4434.54
3843.95
3324.06
2869.8
2478.09
2142.24
1855.71
1611.9
1404.74
1228.8
1079.31
952.151
843.794
751.256
672.026
604
545.423
494.83
451.005
412.931
379.763
350.795
325.436
303.191
283.644
266.445
251.298
237.954
226.201
215.86
206.776
198.82
191.866
185.828
180.597
176.16
172.43
169.478
167.231
165.704
164.785
164.362
164.01
163.317
162.277
160.909
159.295
157.483
155.552
153.526
151.435
149.287
147.094
144.86
142.59
140.29
137.964
135.613
133.24
130.845
128.429
125.993
123.537
121.06
118.562
116.042
113.5
110.934
108.342
105.725
103.078
100.401
97.6901
94.9437
92.1561
89.3235
86.4402
83.4995
80.4945
77.225
73.1392
67.7679
61.2521
54.0529
46.6723
39.5233
32.8813
26.9002
21.6471
17.1355
13.34
10.2111
7.68212
5.67827
4.12185
2.9378
2.05729
1.41725
0.964028
0.651728
0.442919
0.307602
0.222661
0.171064
0.140584
0.122932
0.112768
0.106794
0.103101
0.100634
0.0988294
0.0974017
0.096202
0.0951506
0.094202
0.093327
0.0925058
0.0917238
0.0909698
0.0902349
0.0895124
0.088796
0.0880813
0.0873643
0.0866416
0.0859104
0.0851683
0.0844132
0.0836432
0.0828572
0.0820539
0.0812323
0.0803917
0.0795318
0.0786518
0.0777516
0.0768316
0.0758917
0.0749325
0.0739542
0.0729576
0.0719442
0.0709143
0.0698691
0.0688102
0.0677384
0.0666553
0.0655629
0.0644622
0.0633552
0.062243
0.0611277
0.0600114
0.0588952
0.057781
0.0566703
0.0555648
0.054466
0.0533757
0.0522949
0.0512249
0.0501673
0.049123
0.0480934
0.0470788
0.0460805
0.0450996
0.0441365
0.0431918
0.0422661
0.0413599
0.0404735
0.0396068
0.0387606
0.0379349
0.0371297
0.036345
0.0355808
0.034837
0.0341133
0.0334098
0.0327262
0.0320623
0.0314178
0.0307923
0.0301856
0.0295972
0.0290269
0.0284743
0.027939
0.0274205
0.0269186
0.0264327
0.0259625
0.0255076
0.0250676
0.024642
0.0242305
0.0238326
0.0234481
0.0230764
0.0227171
0.02237
0.0220347
0.0217107
0.0213978
0.0210956
0.0208037
0.0205218
0.0202497
0.0199869
0.0197332
0.0194883
0.0192518
0.0190237
0.0188034
0.0185909
0.0183858
0.0181879
0.0179969
0.0178127
0.0176349
0.0174635
0.0172982
0.0171387
0.0169849
0.0168366
0.0166937
0.0165558
0.016423
0.016295
0.0161716
0.0160528
0.0159383
0.015828