/*--------------------------------*- C++ -*----------------------------------*\
| =========                 |                                                 |
| \\      /  F ield         | OpenFOAM: The Open Source CFD Toolbox           |
|  \\    /   O peration     | Version:  v2006                                 |
|   \\  /    A nd           | Website:  www.openfoam.com                      |
|    \\/     M anipulation  |                                                 |
\*---------------------------------------------------------------------------*/
FoamFile
{
    version     2.0;
    format      ascii;
    class       volScalarField;
    location    "0.038";
    object      turbulenceProperties:I;
}
// * * * * * * * * * * * * * * * * * * * * * * * * * * * * * * * * * * * * * //

dimensions      [0 0 0 0 0 0 0];


internalField   nonuniform List<scalar> 
31566
(
0.15
0.15
0.15
0.15
0.15
0.15
0.15
0.15
0.15
0.15
0.15
0.15
0.15
0.15
0.149999
0.149999
0.149998
0.149999
0.15
0.150002
0.150005
0.150006
0.150007
0.150008
0.150007
0.150007
0.150007
0.150006
0.150005
0.150005
0.150005
0.150004
0.150004
0.150004
0.150003
0.150003
0.150003
0.150003
0.150003
0.150002
0.150002
0.150002
0.150002
0.150002
0.150002
0.150002
0.150002
0.150001
0.150001
0.150001
0.150001
0.150001
0.150001
0.150001
0.150001
0.150001
0.150001
0.150001
0.150001
0.150001
0.15
0.15
0.15
0.15
0.15
0.15
0.15
0.15
0.15
0.15
0.15
0.15
0.149999
0.149999
0.149999
0.149999
0.149999
0.149999
0.149999
0.149998
0.149998
0.149997
0.149997
0.149997
0.149998
0.15
0.150005
0.150011
0.15002
0.150029
0.150037
0.150039
0.150032
0.150016
0.15
0.149986
0.149972
0.149964
0.149959
0.149954
0.149948
0.149968
0.149989
0.149989
0.15
0.150007
0.15001
0.149861
0.149317
0.145301
0.139123
0.145679
0.148753
0.146557
0.140666
0.13404
0.1301
0.136432
0.144146
0.14136
0.131834
0.126521
0.124019
0.128733
0.138981
0.136261
0.125163
0.121653
0.120113
0.123025
0.134342
0.131972
0.120186
0.118537
0.117488
0.118566
0.130488
0.128358
0.116564
0.116376
0.115716
0.115602
0.127265
0.125465
0.11412
0.114931
0.114526
0.113548
0.124666
0.123115
0.112399
0.113959
0.113711
0.112062
0.122533
0.121176
0.111148
0.113292
0.113139
0.110937
0.12074
0.119544
0.110203
0.112823
0.112728
0.110057
0.119191
0.118139
0.109455
0.112481
0.112423
0.109351
0.117846
0.116902
0.108841
0.112224
0.11219
0.108767
0.116655
0.115798
0.108322
0.112023
0.112005
0.108269
0.115587
0.114799
0.107873
0.111861
0.111853
0.107835
0.114617
0.113885
0.107476
0.111725
0.111725
0.10745
0.113726
0.113046
0.107125
0.111612
0.111619
0.10711
0.112909
0.11227
0.10681
0.111516
0.111526
0.106802
0.112151
0.111548
0.106524
0.111431
0.111444
0.106523
0.111444
0.110873
0.106264
0.111356
0.111372
0.10627
0.110784
0.110242
0.106027
0.11129
0.111308
0.106039
0.110166
0.109652
0.105812
0.111232
0.111252
0.10583
0.109587
0.109098
0.105617
0.111181
0.111202
0.10564
0.109045
0.10858
0.105441
0.111136
0.111159
0.105469
0.108537
0.108094
0.105283
0.111097
0.111123
0.105317
0.108062
0.107641
0.105142
0.111065
0.111092
0.105181
0.107619
0.107219
0.105018
0.111037
0.111066
0.105063
0.107208
0.106828
0.104912
0.111016
0.111046
0.104961
0.106825
0.106464
0.104821
0.111
0.111032
0.104875
0.106471
0.106127
0.104745
0.110989
0.111022
0.104804
0.106142
0.105815
0.104683
0.110982
0.111018
0.104747
0.105839
0.105527
0.104635
0.110981
0.111018
0.104703
0.105559
0.105262
0.104599
0.110984
0.111023
0.104672
0.105301
0.105019
0.104576
0.110991
0.111032
0.104654
0.105066
0.104798
0.104565
0.111003
0.111045
0.104647
0.104852
0.104597
0.104565
0.111019
0.111063
0.104652
0.104659
0.104416
0.104577
0.111038
0.111084
0.104668
0.104485
0.104254
0.104599
0.111062
0.111109
0.104695
0.10433
0.10411
0.104632
0.111089
0.111139
0.104733
0.104194
0.103984
0.104675
0.111121
0.111172
0.10478
0.104075
0.103877
0.104729
0.111156
0.111209
0.104838
0.103974
0.103786
0.104792
0.111194
0.111249
0.104906
0.10389
0.103711
0.104865
0.111237
0.111294
0.104984
0.103822
0.103652
0.104947
0.111283
0.111342
0.105071
0.103771
0.10361
0.105039
0.111333
0.111394
0.105168
0.103736
0.103584
0.105141
0.111386
0.11145
0.105275
0.103717
0.103573
0.105252
0.111444
0.11151
0.105392
0.103715
0.103579
0.105374
0.111505
0.111574
0.105519
0.103728
0.103601
0.105506
0.11157
0.111641
0.105657
0.103759
0.10364
0.105648
0.11164
0.111714
0.105806
0.103806
0.103696
0.105802
0.111713
0.11179
0.105967
0.103871
0.103768
0.105967
0.111792
0.111871
0.106139
0.103952
0.103858
0.106145
0.111874
0.111957
0.106325
0.104051
0.103966
0.106335
0.111962
0.112049
0.106523
0.104168
0.104091
0.106539
0.112055
0.112145
0.106735
0.104303
0.104235
0.106757
0.112154
0.112247
0.106961
0.104457
0.104398
0.106988
0.112258
0.112355
0.107202
0.10463
0.10458
0.107233
0.112367
0.112469
0.107457
0.104823
0.104782
0.107494
0.112482
0.112589
0.107727
0.105036
0.105005
0.10777
0.112604
0.112715
0.108014
0.105272
0.105249
0.108062
0.112731
0.112847
0.108318
0.105529
0.105517
0.108372
0.112866
0.112987
0.10864
0.10581
0.105808
0.108701
0.113007
0.113134
0.108981
0.106116
0.106125
0.10905
0.113156
0.113288
0.109343
0.106448
0.106469
0.109419
0.113313
0.113451
0.109727
0.106808
0.106841
0.109812
0.113478
0.113623
0.110135
0.107197
0.107243
0.110228
0.113652
0.113803
0.110568
0.107617
0.107676
0.11067
0.113835
0.113993
0.111027
0.10807
0.108142
0.111139
0.114028
0.114193
0.111514
0.108556
0.108642
0.111636
0.11423
0.114404
0.11203
0.109078
0.109179
0.112163
0.114443
0.114625
0.112577
0.109637
0.109754
0.112721
0.114667
0.114858
0.113158
0.110236
0.110369
0.113313
0.114903
0.115103
0.113772
0.110876
0.111027
0.11394
0.11515
0.115361
0.114424
0.111561
0.111729
0.114605
0.11541
0.115631
0.115115
0.112292
0.11248
0.11531
0.115683
0.115915
0.115848
0.113073
0.113281
0.116058
0.11597
0.116213
0.116626
0.113907
0.114138
0.116852
0.11627
0.116526
0.117451
0.114798
0.115052
0.117694
0.116585
0.116853
0.118327
0.115749
0.116027
0.118589
0.116915
0.117196
0.119257
0.116762
0.117066
0.119538
0.117259
0.117555
0.120244
0.117842
0.118172
0.120545
0.117619
0.11793
0.12129
0.118991
0.119348
0.121612
0.117995
0.118322
0.122398
0.120212
0.120599
0.122742
0.118385
0.118733
0.123571
0.121511
0.121928
0.123939
0.118788
0.119169
0.124815
0.122891
0.123342
0.125205
0.119198
0.119708
0.126137
0.124358
0.124842
0.126576
0.120161
0.120916
0.127583
0.125913
0.126438
0.128096
0.12152
0.122386
0.129186
0.127572
0.128145
0.129776
0.123072
0.124012
0.130949
0.129345
0.12997
0.131615
0.12476
0.125765
0.132873
0.131239
0.131919
0.133613
0.126569
0.127635
0.134956
0.133259
0.133994
0.135768
0.128489
0.129613
0.137193
0.135406
0.136196
0.138073
0.130513
0.13169
0.139576
0.137677
0.138521
0.14052
0.132631
0.133855
0.142095
0.140068
0.14096
0.143093
0.134826
0.136089
0.144731
0.142567
0.143501
0.145775
0.137082
0.138372
0.147464
0.14516
0.146125
0.148539
0.139375
0.140679
0.150263
0.147824
0.148808
0.151353
0.141676
0.142979
0.153093
0.150532
0.15152
0.154179
0.143954
0.145237
0.155913
0.153252
0.154226
0.156972
0.146171
0.147414
0.158675
0.155946
0.156885
0.159683
0.148286
0.14947
0.161327
0.158572
0.159456
0.162259
0.150261
0.151364
0.163817
0.161085
0.161888
0.164645
0.152056
0.153061
0.166093
0.163443
0.164143
0.166798
0.153639
0.15453
0.168109
0.1656
0.166181
0.168667
0.15498
0.155746
0.169824
0.167519
0.167968
0.170223
0.156064
0.156698
0.171213
0.169171
0.169476
0.171445
0.156882
0.157385
0.172259
0.170533
0.170686
0.17232
0.157438
0.157814
0.172959
0.171592
0.171594
0.172854
0.157746
0.158003
0.173323
0.172349
0.172204
0.173064
0.157829
0.157978
0.173373
0.172809
0.172531
0.172973
0.157712
0.157769
0.173139
0.172995
0.172591
0.17262
0.157432
0.157406
0.172659
0.172926
0.172407
0.172031
0.157023
0.156931
0.171968
0.172612
0.172009
0.171267
0.156519
0.15638
0.171121
0.172109
0.171437
0.170362
0.155955
0.155787
0.170152
0.171454
0.170728
0.169352
0.155359
0.15518
0.169101
0.170688
0.169928
0.168279
0.154762
0.154594
0.168009
0.169856
0.169066
0.167148
0.154183
0.154062
0.166988
0.169034
0.168234
0.165962
0.153676
0.153613
0.165865
0.168198
0.167495
0.165033
0.15335
0.153313
0.164946
0.167489
0.166937
0.164307
0.153321
0.153294
0.163952
0.166649
0.166241
0.163605
0.153267
0.153114
0.16412
0.166116
0.166512
0.164489
0.152988
0.174029
0.178695
0.18409
0.19243
0.201677
0.208458
0.215294
0.220494
0.225911
0.230455
0.235155
0.239254
0.243438
0.247166
0.250933
0.254333
0.257739
0.260833
0.26391
0.266708
0.269471
0.271973
0.274425
0.27662
0.278752
0.280623
0.282418
0.283938
0.285363
0.286489
0.287494
0.288171
0.288687
0.288819
0.288736
0.288194
0.287386
0.286072
0.284556
0.282452
0.280065
0.277444
0.27441
0.271018
0.267258
0.263065
0.258284
0.252706
0.246114
0.238079
0.228396
0.216266
0.201169
0.181283
0.157283
0.143389
0.142323
0.143116
0.143885
0.157776
0.158006
0.143812
0.143707
0.143892
0.145092
0.159371
0.160821
0.146497
0.144077
0.144197
0.147266
0.161837
0.163028
0.148063
0.144375
0.144521
0.148669
0.163963
0.165052
0.149312
0.1447
0.144898
0.150039
0.166095
0.16716
0.150669
0.145044
0.145237
0.151397
0.168271
0.169386
0.152112
0.145408
0.145595
0.152865
0.170535
0.171703
0.153605
0.145771
0.145973
0.154409
0.172906
0.174143
0.155201
0.146165
0.146381
0.156057
0.175404
0.176714
0.156906
0.146592
0.146836
0.157829
0.178053
0.179429
0.158733
0.147059
0.147333
0.159723
0.180853
0.182311
0.160697
0.14758
0.147882
0.161758
0.183825
0.185375
0.16281
0.14816
0.148494
0.163949
0.186988
0.188642
0.165085
0.148806
0.149176
0.166304
0.190352
0.192132
0.167561
0.149541
0.149923
0.168843
0.193955
0.195859
0.170201
0.150348
0.150779
0.171598
0.197814
0.199839
0.173041
0.151228
0.151714
0.174535
0.201942
0.204115
0.176086
0.152205
0.152728
0.17769
0.206359
0.208705
0.179333
0.153265
0.153828
0.181048
0.211112
0.213629
0.182786
0.154396
0.154989
0.184592
0.216245
0.218934
0.186418
0.155584
0.156206
0.188323
0.221756
0.224691
0.19027
0.156836
0.157508
0.192308
0.227767
0.230973
0.194432
0.158216
0.158874
0.196519
0.234214
0.237527
0.198707
0.159384
0.159544
0.200944
0.24093
0.244724
0.203543
0.159899
0.160566
0.207112
0.249376
0.254919
0.211056
0.161833
0.163776
0.216031
0.261376
0.268806
0.221539
0.166432
0.170153
0.227734
0.276967
0.286823
0.236299
0.17618
0.186977
0.250606
0.298802
0.307045
0.271163
0.203047
0.173146
0.193339
0.250818
0.307004
0.253402
0.184822
0.188285
0.257239
0.316203
0.337793
0.280054
0.197498
0.202434
0.290278
0.352247
0.37287
0.308816
0.212377
0.220917
0.325769
0.393939
0.420496
0.348072
0.234457
0.255912
0.380741
0.455153
0.484008
0.424235
0.287008
0.228742
0.317584
0.420611
0.524791
0.441862
0.281181
0.308398
0.482766
0.577091
0.656853
0.5585
0.355554
0.406885
0.64441
0.757305
0.909457
0.773715
0.487004
0.609767
1
1
1
0.988252
0.56496
1
1
1
1
1
1
1
1
1
1
1
1
0.717469
1
1
0.648893
0.559608
0.349108
0.308111
0.451229
0.495589
0.309584
0.280035
0.192826
0.144469
0.208746
0.232113
0.207952
0.185591
0.141585
0.166781
0.199491
0.212671
0.21967
0.199099
0.178613
0.177348
0.162651
0.191652
0.210857
0.198965
0.18846
0.18828
0.198242
0.215191
0.175171
0.156061
0.167587
0.174211
0.190294
0.201946
0.20329
0.187922
0.169992
0.161913
0.145258
0.163516
0.193744
0.183054
0.165573
0.160792
0.177486
0.192682
0.15358
0.142642
0.152275
0.157885
0.172684
0.18491
0.181947
0.166399
0.152429
0.14953
0.130858
0.14484
0.174624
0.161411
0.150157
0.145431
0.154946
0.170692
0.135163
0.124091
0.14445
0.143549
0.150846
0.163989
0.159524
0.144152
0.139307
0.139702
0.11752
0.125719
0.153324
0.140246
0.137483
0.133557
0.133849
0.14859
0.117346
0.111496
0.136328
0.132708
0.130688
0.143821
0.138677
0.124376
0.128881
0.133436
0.105171
0.10966
0.135041
0.12153
0.128657
0.124735
0.115863
0.129394
0.103
0.0987479
0.13228
0.124853
0.114494
0.122653
0.104976
0.104682
0.125622
0.12078
0.113716
0.125154
0.118871
0.108428
0.119545
0.122852
0.0975696
0.096514
0.116729
0.105047
0.116709
0.116981
0.101492
0.110962
0.0912638
0.0944171
0.121537
0.114384
0.0991421
0.10912
0.104014
0.0957377
0.115508
0.120985
0.0909388
0.0872178
0.100542
0.0930112
0.113691
0.119894
0.0870923
0.0870018
0.103213
0.0925887
0.109217
0.110547
0.0897529
0.0968831
0.0830192
0.0868243
0.116629
0.107488
0.0866603
0.0928338
0.0816039
0.0828644
0.115102
0.104881
0.0868196
0.0957856
0.0900251
0.0840252
0.106319
0.113135
0.0824436
0.0781716
0.0879285
0.0825979
0.102409
0.106262
0.0802634
0.083893
0.0748685
0.0809553
0.114464
0.102936
0.0768202
0.0812575
0.0740291
0.0758537
0.112359
0.100619
0.0755185
0.0802521
0.072437
0.0754172
0.108346
0.0967747
0.0758143
0.0829173
0.0776025
0.0747973
0.0992438
0.109889
0.0736234
0.0707227
0.0745107
0.072889
0.0986385
0.106157
0.0735139
0.0686767
0.0755945
0.0709038
0.0939195
0.0969544
0.0713795
0.0721185
0.0670415
0.0715924
0.1088
0.0966118
0.0677425
0.0691396
0.0652148
0.0725433
0.104489
0.0929184
0.0668664
0.06853
0.0641544
0.0697174
0.100443
0.0896053
0.0662995
0.0697252
0.0661112
0.0656417
0.0941304
0.103025
0.0733477
0.0629822
0.0653342
0.0631425
0.092269
0.102448
0.0682825
0.0620308
0.0645738
0.0617909
0.08979
0.0978296
0.0666384
0.0611334
0.0645569
0.0622764
0.0870622
0.0911149
0.0620568
0.0612018
0.0601197
0.0688085
0.1017
0.0899895
0.0585614
0.0609969
0.0588467
0.0660366
0.100954
0.0881642
0.0579198
0.0604893
0.0579091
0.0646116
0.0963093
0.0847279
0.0590079
0.0601442
0.0571741
0.0589275
0.0887173
0.100286
0.0671166
0.0574789
0.0555794
0.0558336
0.0876619
0.0968076
0.0673429
0.055379
0.0552506
0.0544924
0.0857548
0.0944551
0.0645033
0.0546413
0.0556546
0.0539854
0.0832632
0.0915416
0.0615969
0.0540842
0.0558208
0.055508
0.0808895
0.0856324
0.0560026
0.0532508
0.0547943
0.0661379
0.0972152
0.085127
0.0523756
0.0529339
0.0530897
0.0628132
0.0966642
0.0835188
0.0507477
0.0518227
0.0522206
0.0620861
0.0926554
0.0810844
0.0505103
0.0514784
0.0516629
0.0611031
0.0901052
0.0797195
0.0506686
0.0518799
0.0509571
0.0588624
0.087396
0.0768502
0.0519859
0.051981
0.0496037
0.0527946
0.0814546
0.0921169
0.0642227
0.051709
0.0494329
0.0495304
0.0812585
0.092571
0.0611906
0.0503264
0.0489395
0.0481841
0.0804789
0.0892387
0.0596558
0.0495553
0.0484556
0.0475639
0.0780031
0.0865099
0.05873
0.0490216
0.0481275
0.0477104
0.0763519
0.0839269
0.057482
0.0483772
0.0486196
0.0494379
0.0742257
0.0787915
0.0503459
0.0466715
0.0493857
0.0626858
0.0894332
0.0785705
0.0475501
0.0466853
0.0481454
0.0591494
0.0896286
0.0774581
0.0459514
0.046124
0.0473918
0.0577948
0.0862901
0.075626
0.0456518
0.045722
0.0469478
0.0573892
0.0840801
0.07394
0.0457953
0.0454735
0.0462481
0.0565649
0.0814826
0.0716191
0.0471952
0.0460861
0.0443323
0.0483219
0.0762835
0.0871076
0.0606715
0.0474492
0.0441977
0.0460002
0.0764001
0.0859073
0.0588529
0.0461075
0.0438061
0.0443661
0.0751138
0.0837769
0.0567826
0.0453796
0.0433254
0.0439308
0.0733945
0.0816318
0.0559517
0.0448892
0.0430737
0.043983
0.0717782
0.0792951
0.0553747
0.0442568
0.0438712
0.0452909
0.0695362
0.0742217
0.0464232
0.0423939
0.0456478
0.0609404
0.0834771
0.0743702
0.0449493
0.0428434
0.0446999
0.0567325
0.0840819
0.0733996
0.0427169
0.0420996
0.0439198
0.0551184
0.0816708
0.0712117
0.0422505
0.0416353
0.0434782
0.0545946
0.079209
0.0698388
0.0425755
0.041444
0.0427358
0.0537616
0.0773764
0.0680635
0.0436299
0.0422484
0.040849
0.0450511
0.0725762
0.082546
0.058789
0.0445712
0.0411578
0.0434017
0.0719557
0.0819187
0.0552487
0.0434574
0.0406229
0.0413294
0.071539
0.079803
0.053485
0.0426408
0.0402318
0.0409695
0.0699369
0.0775896
0.053091
0.0422268
0.0400307
0.0411687
0.0678397
0.0749689
0.0522467
0.0414208
0.0406236
0.0420643
0.0654885
0.0700528
0.0435944
0.0394239
0.0431197
0.0578619
0.0791656
0.0699939
0.0426264
0.040103
0.0423514
0.0545348
0.0789722
0.0689051
0.0408027
0.0396212
0.0415154
0.0523999
0.076473
0.0665459
0.0400064
0.0391229
0.0405918
0.0513606
0.0734377
0.064457
0.0411616
0.0395794
0.0384542
0.0426789
0.0692058
0.0785718
0.0567955
0.0423031
0.0393063
0.0414439
0.0689445
0.0775618
0.0532375
0.0415776
0.0387772
0.0396463
0.067548
0.0746353
0.0510843
0.0406837
0.0381329
0.0390922
0.0650763
0.0721355
0.0504111
0.039741
0.0386088
0.040222
0.063274
0.0679527
0.0420085
0.0376254
0.0415352
0.0553063
0.0771795
0.0672637
0.0404432
0.0383218
0.0406171
0.0518578
0.0755517
0.064691
0.0384608
0.0377001
0.0394039
0.0499737
0.0717429
0.0627377
0.0395947
0.0379317
0.0369651
0.0411551
0.0676964
0.0760973
0.0555425
0.0410452
0.037872
0.0402388
0.0665658
0.0744182
0.0512218
0.040145
0.0372101
0.0380591
0.0639731
0.0708672
0.0493807
0.0388463
0.0371675
0.0388947
0.0616697
0.0665284
0.0405819
0.0362635
0.0404958
0.0544226
0.0751603
0.0661699
0.0395768
0.037205
0.0395888
0.0504798
0.0738164
0.063255
0.0374819
0.0365437
0.0380985
0.0484079
0.0699371
0.0609121
0.0380378
0.0364076
0.0355324
0.0396529
0.0658098
0.0738908
0.0535112
0.0398752
0.0365761
0.0390463
0.0646161
0.0720292
0.0493297
0.0383836
0.0363726
0.0380484
0.0615132
0.0654694
0.0388245
0.0350321
0.0396199
0.0533018
0.0735107
0.0641795
0.0386321
0.0359598
0.0382102
0.0493281
0.0719759
0.0618736
0.0377846
0.0359268
0.0348642
0.0390836
0.0662737
0.0732758
0.053113
0.0393032
0.0352021
0.0377429
0.0622967
0.0703543
0.0488996
0.0377185
0.0352642
0.037152
0.0608422
0.0655174
0.0387897
0.0344011
0.0390598
0.0523979
0.0731195
0.0620292
0.0371636
0.0348048
0.0369945
0.0477843
0.068947
0.0588519
0.0361009
0.0343127
0.0334313
0.0374418
0.0637365
0.0718167
0.0513446
0.0377704
0.0341721
0.0373957
0.061397
0.0655568
0.0375048
0.0332133
0.0375069
0.0517672
0.0723794
0.0615773
0.0367173
0.0332713
0.0325692
0.0372123
0.0665958
0.0748115
0.0527263
0.0376463
0.0332052
0.0369439
0.0633949
0.066331
0.0366079
0.0320968
0.0374416
0.0520415
0.0743532
0.0629199
0.0362557
0.0325602
0.0317806
0.0367885
0.0676036
0.0757145
0.0523314
0.0371905
0.0320473
0.0358756
0.0617349
0.0650914
0.0358108
0.0309992
0.0366675
0.0517789
0.0738127
0.0624014
0.0358132
0.0316199
0.0308526
0.0354294
0.0663201
0.0731187
0.0510575
0.0358497
0.0308004
0.0346072
0.060425
0.0653826
0.0366481
0.0299432
0.0293496
0.0365086
0.069393
0.0768175
0.0524596
0.0361266
0.0301615
0.0343722
0.0626909
0.0676305
0.0343129
0.0292281
0.0282107
0.0345553
0.0702929
0.0758671
0.0395046
0.028124
0.0273599
0.0374761
0.0796199
0.0858082
0.0447274
0.0290202
0.0282335
0.0413514
0.0890767
0.0975295
0.0635824
0.0406673
0.0314642
0.039256
0.077883
0.0865897
0.0418668
0.03239
0.033304
0.0457163
0.0957326
0.102644
0.0492545
0.0342036
0.0348473
0.0519423
0.107978
0.111548
0.0544937
0.0353299
0.0358504
0.0567806
0.113703
0.115162
0.0592297
0.036389
0.0370809
0.0616057
0.116056
0.116544
0.0640872
0.0378666
0.0387433
0.0666998
0.116725
0.116681
0.069284
0.0397462
0.0409167
0.0720494
0.116525
0.116299
0.0745959
0.0421742
0.0435714
0.0771739
0.116069
0.115824
0.0794236
0.045158
0.0469587
0.0815921
0.115607
0.115385
0.0835009
0.0488462
0.0507903
0.0854603
0.1152
0.11502
0.0872848
0.0527062
0.0546864
0.0891424
0.114888
0.114765
0.0908764
0.0566239
0.0585959
0.0926469
0.114692
0.11463
0.0942771
0.0605547
0.0625247
0.0959385
0.114614
0.114615
0.0974859
0.0644645
0.0663838
0.0990361
0.114651
0.114707
0.100498
0.068242
0.0700615
0.101944
0.114788
0.114894
0.103309
0.0718422
0.0735796
0.104608
0.115006
0.115145
0.105882
0.0752604
0.0769049
0.107059
0.115285
0.115435
0.108185
0.0784934
0.080032
0.109247
0.115584
0.115742
0.110243
0.0814997
0.0829346
0.11117
0.115885
0.116036
0.112029
0.0842886
0.0856007
0.11282
0.116162
0.116297
0.113568
0.0868412
0.0880267
0.114219
0.116403
0.11651
0.114845
0.0891495
0.0902111
0.11537
0.116592
0.116666
0.115883
0.0911973
0.0921477
0.116299
0.116729
0.116757
0.116675
0.0930117
0.0938371
0.117022
0.116802
0.116794
0.117272
0.0945934
0.0953033
0.11754
0.116811
0.116776
0.117684
0.0959554
0.0965491
0.117876
0.116758
0.11671
0.117957
0.0970974
0.09759
0.118057
0.116656
0.116597
0.118095
0.0980455
0.0984489
0.118101
0.116511
0.116438
0.118106
0.0988208
0.0991483
0.118053
0.116334
0.116245
0.118019
0.099456
0.0997085
0.117919
0.116126
0.116027
0.117849
0.0999498
0.10015
0.117706
0.115896
0.115786
0.117612
0.100328
0.100486
0.117442
0.115652
0.115526
0.1173
0.100616
0.100728
0.117138
0.11539
0.115263
0.116957
0.100829
0.100901
0.116766
0.115112
0.114988
0.116595
0.100969
0.101006
0.116379
0.114834
0.114711
0.11621
0.101053
0.101067
0.115978
0.114556
0.114434
0.115811
0.101086
0.101087
0.115576
0.114284
0.114159
0.115384
0.101092
0.101074
0.115156
0.114011
0.113892
0.114968
0.101067
0.101037
0.114729
0.113746
0.113628
0.114555
0.101019
0.100976
0.114319
0.113492
0.113371
0.114127
0.100938
0.100869
0.113905
0.113241
0.113121
0.113712
0.100809
0.100734
0.113487
0.112997
0.112877
0.113298
0.10065
0.100577
0.113079
0.112765
0.112637
0.112865
0.100485
0.1004
0.112684
0.112534
0.112411
0.112443
0.100311
0.100216
0.112269
0.112302
0.112193
0.112048
0.100126
0.100032
0.111859
0.112079
0.111982
0.111673
0.0999343
0.0998505
0.111468
0.111869
0.111778
0.1113
0.0997485
0.0996752
0.111088
0.111669
0.111578
0.110933
0.0995697
0.0994979
0.110743
0.111482
0.111392
0.110577
0.0994049
0.0993265
0.110408
0.111301
0.111217
0.110249
0.0992403
0.0991652
0.110086
0.111131
0.111053
0.109939
0.0990884
0.0990068
0.109797
0.110976
0.110899
0.109635
0.0989487
0.0988733
0.109499
0.110826
0.110753
0.109356
0.0988098
0.0987446
0.109233
0.110689
0.110618
0.10909
0.0986804
0.0986217
0.108983
0.110559
0.110497
0.108847
0.0985621
0.0985127
0.108736
0.110438
0.110383
0.108617
0.0984565
0.0984016
0.108511
0.110326
0.11028
0.108413
0.0983561
0.0983073
0.108291
0.110227
0.11018
0.108199
0.098267
0.0982196
0.108095
0.110134
0.110089
0.10801
0.0981772
0.0981381
0.107921
0.110051
0.110008
0.107824
0.0981003
0.0980607
0.107746
0.109971
0.109935
0.107659
0.0980262
0.0979898
0.10758
0.109899
0.109867
0.107502
0.0979571
0.0979191
0.107425
0.109834
0.109806
0.107357
0.0978932
0.0978534
0.107281
0.109776
0.10975
0.107217
0.0978258
0.0977907
0.107144
0.109723
0.1097
0.107082
0.0977579
0.0977306
0.107014
0.109675
0.109654
0.106954
0.0976923
0.0976653
0.106888
0.109631
0.109612
0.10683
0.0976291
0.0975993
0.106766
0.10959
0.109574
0.10671
0.0975643
0.0975315
0.106646
0.109552
0.109539
0.106594
0.0974973
0.097465
0.106528
0.109518
0.109506
0.106486
0.0974269
0.0973962
0.106419
0.109488
0.109474
0.106371
0.0973571
0.0973239
0.106304
0.10946
0.109443
0.106251
0.0972844
0.0972464
0.106201
0.109433
0.109415
0.106134
0.09721
0.097169
0.10609
0.109404
0.109391
0.106023
0.0971298
0.0970889
0.105966
0.109376
0.109364
0.105914
0.0970491
0.0970037
0.105857
0.10935
0.109339
0.105805
0.0969637
0.0969161
0.105747
0.109325
0.109315
0.105694
0.096873
0.0968261
0.105635
0.109301
0.109292
0.105584
0.0967818
0.0967364
0.105524
0.109276
0.10927
0.105474
0.0966874
0.0966389
0.105411
0.109253
0.109248
0.105364
0.0965904
0.0965417
0.105297
0.109229
0.109225
0.10526
0.0964897
0.096442
0.105191
0.109208
0.109204
0.105147
0.0963896
0.0963387
0.105078
0.109186
0.109182
0.105036
0.0962874
0.0962322
0.104964
0.109165
0.109158
0.104917
0.0961843
0.0961277
0.10485
0.109142
0.109136
0.104812
0.0960687
0.0960203
0.104745
0.109122
0.109113
0.104697
0.0959595
0.095907
0.104639
0.109101
0.109093
0.104586
0.0958481
0.095797
0.104527
0.109079
0.109072
0.104478
0.0957337
0.0956865
0.104412
0.109057
0.10905
0.104369
0.0956202
0.0955711
0.104304
0.109037
0.109027
0.104261
0.0955047
0.0954541
0.104196
0.109018
0.109003
0.104144
0.0953884
0.0953337
0.104101
0.108998
0.108984
0.104032
0.0952723
0.0952193
0.103986
0.108976
0.108962
0.103925
0.0951529
0.0950978
0.103881
0.108955
0.10894
0.10382
0.0950312
0.0949749
0.103775
0.108933
0.108919
0.103713
0.0949079
0.0948504
0.103668
0.108912
0.108897
0.103605
0.0947832
0.0947182
0.103567
0.108891
0.108877
0.1035
0.0946562
0.0945913
0.103448
0.108869
0.108854
0.103386
0.0945254
0.0944589
0.103348
0.108845
0.108834
0.10328
0.0943922
0.0943292
0.103225
0.108821
0.108811
0.103171
0.094258
0.0941896
0.103112
0.108797
0.108787
0.103061
0.0941223
0.0940523
0.103
0.108773
0.108763
0.102956
0.0939802
0.0939131
0.10289
0.108751
0.108737
0.102832
0.0938439
0.0937723
0.102776
0.108725
0.108712
0.102717
0.093701
0.0936323
0.102664
0.1087
0.108686
0.102605
0.093559
0.0934884
0.102556
0.108674
0.108662
0.102498
0.0934161
0.0933477
0.102439
0.108649
0.108636
0.102385
0.0932759
0.0932036
0.102327
0.108623
0.108609
0.102271
0.0931356
0.0930568
0.102216
0.108597
0.108582
0.102155
0.0929917
0.0929178
0.102098
0.108569
0.108554
0.102039
0.0928442
0.0927771
0.101989
0.108541
0.108527
0.101931
0.092699
0.0926277
0.101877
0.108513
0.1085
0.101821
0.0925565
0.0924851
0.101768
0.108485
0.108474
0.101719
0.0924075
0.0923421
0.101658
0.108459
0.108447
0.101609
0.0922652
0.0921991
0.101548
0.108432
0.108418
0.101494
0.092124
0.0920569
0.101442
0.108404
0.108391
0.101389
0.0919854
0.0919146
0.101339
0.108377
0.108365
0.101292
0.0918462
0.0917755
0.101235
0.108351
0.108337
0.101185
0.0917114
0.0916409
0.101136
0.108324
0.108311
0.101092
0.0915746
0.0915056
0.101042
0.1083
0.108286
0.100989
0.0914436
0.091375
0.100947
0.108274
0.108261
0.100895
0.0913125
0.0912475
0.10085
0.108249
0.108236
0.100805
0.0911843
0.0911211
0.100761
0.108225
0.108213
0.100717
0.0910589
0.0909999
0.100675
0.108202
0.10819
0.100632
0.0909362
0.0908796
0.100591
0.108179
0.108168
0.10055
0.0908159
0.0907621
0.10051
0.108157
0.108146
0.100469
0.090698
0.0906474
0.100431
0.108136
0.108126
0.100391
0.0905829
0.0905332
0.100354
0.108115
0.108106
0.100314
0.0904699
0.0904234
0.100279
0.108094
0.108087
0.100247
0.0903617
0.090314
0.100206
0.108076
0.108068
0.100175
0.090256
0.090208
0.100135
0.108057
0.108049
0.100106
0.0901531
0.0901038
0.100067
0.10804
0.108031
0.100034
0.090054
0.0900048
0.100002
0.108022
0.108013
0.0999746
0.0899516
0.0899007
0.0999425
0.108006
0.107997
0.0999117
0.0898565
0.0898057
0.0998782
0.10799
0.10798
0.099843
0.0897623
0.0897158
0.0998194
0.107974
0.107965
0.0997843
0.0896673
0.0896291
0.0997569
0.107958
0.10795
0.0997294
0.0895771
0.0895368
0.099702
0.107943
0.107935
0.0996752
0.0894915
0.0894442
0.0996529
0.107929
0.107922
0.099622
0.0894056
0.0893611
0.0995936
0.107915
0.107907
0.0995696
0.0893237
0.0892751
0.0995482
0.107902
0.107894
0.0995181
0.0892415
0.0891942
0.0994978
0.107889
0.107882
0.0994681
0.0891613
0.0891147
0.0994491
0.107876
0.10787
0.0994259
0.0890814
0.089037
0.0993998
0.107865
0.107857
0.0993719
0.0890055
0.0889639
0.0993548
0.107852
0.107846
0.0993272
0.0889286
0.088893
0.0993055
0.10784
0.107833
0.0992854
0.0888574
0.0888145
0.0992682
0.10783
0.107823
0.099242
0.0887857
0.0887431
0.0992255
0.107819
0.107812
0.0991996
0.0887151
0.0886747
0.0991845
0.107808
0.107802
0.099165
0.0886463
0.0886071
0.0991425
0.107799
0.107791
0.0991185
0.0885803
0.0885406
0.0991039
0.107788
0.107781
0.0990807
0.0885146
0.0884759
0.0990665
0.107779
0.107772
0.0990437
0.0884505
0.0884126
0.09903
0.107769
0.107762
0.0990075
0.0883879
0.0883507
0.0989943
0.10776
0.107754
0.0989721
0.0883265
0.0882901
0.0989596
0.107751
0.107745
0.0989375
0.0882665
0.0882303
0.098926
0.107742
0.107737
0.0989038
0.0882079
0.0881768
0.0988884
0.107733
0.107729
0.0988728
0.0881506
0.0881194
0.0988575
0.107725
0.10772
0.0988417
0.0880929
0.0880639
0.0988266
0.107717
0.107713
0.0988111
0.0880367
0.0880097
0.0987961
0.107709
0.107705
0.0987806
0.0879828
0.0879525
0.0987708
0.107702
0.107698
0.0987508
0.087931
0.0879018
0.0987356
0.107694
0.107691
0.0987223
0.0878819
0.0878499
0.0987079
0.107687
0.107683
0.0986946
0.0878309
0.087802
0.0986805
0.10768
0.107677
0.0986723
0.0877772
0.0877521
0.0986571
0.107674
0.10767
0.0986383
0.0877309
0.087705
0.098631
0.107666
0.107664
0.0986171
0.0876823
0.0876579
0.0985984
0.10766
0.107657
0.0985871
0.08764
0.0876118
0.0985752
0.107653
0.10765
0.0985636
0.0875917
0.0875697
0.0985517
0.107646
0.107645
0.0985446
0.0875415
0.0875252
0.0985268
0.107641
0.107638
0.098516
0.0875032
0.0874806
0.0985044
0.107635
0.107632
0.0984937
0.0874596
0.0874359
0.0984813
0.107629
0.107627
0.098471
0.0874204
0.0873938
0.0984593
0.107623
0.107621
0.098449
0.0873785
0.0873559
0.0984377
0.107617
0.107616
0.0984321
0.0873331
0.0873149
0.098415
0.107613
0.107609
0.0984056
0.0872999
0.0872737
0.0983946
0.107607
0.107604
0.0983852
0.0872583
0.0872346
0.0983791
0.107602
0.107599
0.0983637
0.0872203
0.0871973
0.0983584
0.107597
0.107594
0.0983429
0.0871832
0.0871598
0.0983385
0.107591
0.107589
0.0983296
0.0871454
0.0871234
0.0983174
0.107587
0.107584
0.0983024
0.08711
0.0870884
0.0982979
0.107582
0.107578
0.0982843
0.087075
0.0870531
0.0982799
0.107576
0.107573
0.0982662
0.08704
0.0870185
0.098262
0.107571
0.107568
0.0982481
0.0870056
0.0869839
0.0982442
0.107566
0.107564
0.0982299
0.0869706
0.0869536
0.0982272
0.107561
0.10756
0.098217
0.0869336
0.0869217
0.0982037
0.107557
0.107555
0.0981998
0.086901
0.0868894
0.0981871
0.107552
0.10755
0.0981834
0.0868691
0.0868577
0.0981706
0.107548
0.107546
0.0981672
0.0868377
0.0868266
0.0981544
0.107543
0.107542
0.0981515
0.086807
0.0867961
0.0981383
0.107539
0.107537
0.0981364
0.0867775
0.0867655
0.0981298
0.107536
0.107534
0.0981208
0.0867484
0.086737
0.0981141
0.107532
0.10753
0.0981044
0.0867191
0.086709
0.098092
0.107528
0.107526
0.0980899
0.0866904
0.0866806
0.098079
0.107524
0.107523
0.098077
0.0866627
0.0866533
0.0980661
0.107521
0.10752
0.0980645
0.0866358
0.0866267
0.0980535
0.107518
0.107517
0.0980523
0.0866096
0.0866008
0.098041
0.107515
0.107514
0.0980405
0.086585
0.0865737
0.0980288
0.107512
0.10751
0.0980238
0.0865632
0.0865459
0.0980174
0.107508
0.107506
0.0980123
0.0865289
0.086519
0.0980057
0.107502
0.107496
0.0979959
0.0865035
0.0864885
0.0979867
0.107489
0.107462
0.0979611
0.0864709
0.0864717
0.0979762
0.107449
0.107398
0.0979109
0.0864888
0.0866081
0.0979856
0.107373
0.107342
0.0979176
0.0867484
0.0867359
0.0977445
0.107411
0.107296
0.0974924
0.0865541
0.0864588
0.0974003
0.107201
0.0802021
0.0749274
0.0725965
0.0714835
0.0711054
0.0709984
0.071108
0.0713251
0.0716128
0.0719513
0.0723253
0.072747
0.0732508
0.0738602
0.0745922
0.0754962
0.0761936
0.0772067
0.0781496
0.0788502
0.0793821
0.0797767
0.0800231
0.0801426
0.0801522
0.0800815
0.0799565
0.0797987
0.0796247
0.0794461
0.0792705
0.0791029
0.0789459
0.0788009
0.0786681
0.0785475
0.0784382
0.0783396