/*--------------------------------*- C++ -*----------------------------------*\
| =========                 |                                                 |
| \\      /  F ield         | OpenFOAM: The Open Source CFD Toolbox           |
|  \\    /   O peration     | Version:  v2006                                 |
|   \\  /    A nd           | Website:  www.openfoam.com                      |
|    \\/     M anipulation  |                                                 |
\*---------------------------------------------------------------------------*/
FoamFile
{
    version     2.0;
    format      ascii;
    class       volScalarField;
    location    "0.038";
    object      alphat;
}
// * * * * * * * * * * * * * * * * * * * * * * * * * * * * * * * * * * * * * //

dimensions      [1 -1 -1 0 0 0 0];


internalField   nonuniform List<scalar> 
16277
(
43.5702
32.9819
90.4299
23.307
33.6622
17.0546
6.59215
2.64879
1.41893
0.955634
0.750957
0.647098
0.584999
0.540115
0.502445
0.468537
0.437644
0.409839
0.385168
0.363465
0.344399
0.327572
0.312604
0.299171
0.287013
0.275936
0.265787
0.25645
0.247834
0.239861
0.232469
0.225602
0.219216
0.21327
0.207729
0.202564
0.19775
0.193263
0.189082
0.185191
0.181571
0.17821
0.175095
0.172216
0.169562
0.167127
0.164902
0.162882
0.161063
0.159441
0.158013
0.156779
0.155739
0.154892
0.154241
0.153787
0.153539
0.153502
0.153681
0.154085
0.154725
0.155615
0.156769
0.158207
0.15995
0.162023
0.164456
0.167289
0.170568
0.174354
0.178726
0.183793
0.189689
0.196574
0.204606
0.213893
0.22444
0.236167
0.249178
0.26462
0.286499
0.326179
0.412835
0.622416
1.15936
2.43696
4.3017
4.59948
2.72451
1.7987
0.885982
0.403952
0.219618
0.103625
0.024557
0.00441849
0.0001464
0.000127052
0.00207672
0.00956432
0.00527013
0.00134566
0.000111278
9.96345e-05
0.00122687
0.00443176
0.00353617
0.00105453
9.20661e-05
8.61311e-05
0.00102196
0.00335343
0.00290155
0.000920517
8.10767e-05
7.76694e-05
0.000904677
0.00282629
0.00257239
0.00084305
7.43108e-05
7.24949e-05
0.000848129
0.0025462
0.00238177
0.000803012
7.02764e-05
6.90837e-05
0.000810217
0.00236716
0.00224234
0.000773887
6.7447e-05
6.66226e-05
0.000781039
0.0022358
0.00213262
0.000750223
6.53438e-05
6.47457e-05
0.000757167
0.00213058
0.00204119
0.000730049
6.37071e-05
6.32577e-05
0.000736971
0.00204204
0.0019625
0.000712345
6.238e-05
6.20258e-05
0.000719297
0.00196525
0.00189309
0.000696367
6.12547e-05
6.09662e-05
0.000703237
0.00189711
0.00183077
0.000681635
6.02732e-05
6.00309e-05
0.000688421
0.0018357
0.00177418
0.000667929
5.93949e-05
5.9185e-05
0.000674647
0.00177978
0.00172234
0.00065512
5.85921e-05
5.84061e-05
0.000661778
0.00172851
0.00167448
0.000643099
5.78471e-05
5.76793e-05
0.000649694
0.00168119
0.00163017
0.000631763
5.71474e-05
5.69937e-05
0.000638292
0.00163732
0.00158899
0.000621033
5.64839e-05
5.63414e-05
0.000627497
0.00159654
0.00155066
0.000610852
5.58501e-05
5.57165e-05
0.000617266
0.00155855
0.0015149
0.000601197
5.52408e-05
5.51148e-05
0.000607565
0.00152307
0.00148143
0.000592028
5.46527e-05
5.45334e-05
0.000598344
0.00148982
0.00144998
0.000583289
5.40828e-05
5.39693e-05
0.00058955
0.00145853
0.00142029
0.000574933
5.35283e-05
5.34197e-05
0.000581134
0.00142895
0.00139216
0.000566913
5.29865e-05
5.28819e-05
0.000573048
0.00140088
0.0013654
0.000559182
5.24549e-05
5.23536e-05
0.000565246
0.00137415
0.00133984
0.000551696
5.19311e-05
5.18322e-05
0.000557683
0.00134858
0.00131535
0.000544415
5.14127e-05
5.13156e-05
0.00055032
0.00132406
0.0012918
0.000537304
5.08976e-05
5.08015e-05
0.000543124
0.00130045
0.00126907
0.000530333
5.03837e-05
5.0288e-05
0.000536064
0.00127765
0.00124708
0.000523476
4.98689e-05
4.9773e-05
0.000529117
0.00125557
0.00122574
0.000516712
4.93516e-05
4.9255e-05
0.000522262
0.00123414
0.00120501
0.000510023
4.88301e-05
4.87323e-05
0.000515485
0.00121331
0.00118483
0.0005034
4.83027e-05
4.82035e-05
0.000508775
0.00119304
0.00116517
0.000496836
4.77683e-05
4.76674e-05
0.000502145
0.00117329
0.00114602
0.000490335
4.72256e-05
4.71232e-05
0.000495633
0.00115406
0.00112736
0.000483919
4.66743e-05
4.65704e-05
0.00048919
0.00113535
0.0011092
0.000477564
4.61136e-05
4.60082e-05
0.000482829
0.00111715
0.00109155
0.000471292
4.55429e-05
4.54362e-05
0.000476574
0.00109947
0.00107442
0.000465131
4.49624e-05
4.48547e-05
0.000470456
0.00108236
0.00105789
0.000459118
4.43724e-05
4.42645e-05
0.000464518
0.0010659
0.00104202
0.0004533
4.3774e-05
4.36669e-05
0.000458821
0.00105031
0.001027
0.000447747
4.31694e-05
4.30644e-05
0.000453442
0.00103575
0.00101295
0.000442546
4.25616e-05
4.24609e-05
0.00044847
0.00102222
0.001
0.000437789
4.1955e-05
4.18609e-05
0.000444008
0.00100996
0.000988405
0.00043359
4.13548e-05
4.12706e-05
0.000440185
0.00099925
0.000978462
0.00043009
4.07677e-05
4.06982e-05
0.00043715
0.000990406
0.000970507
0.00042747
4.0202e-05
4.01553e-05
0.000434972
0.000983768
0.000964927
0.00042585
3.96753e-05
3.96445e-05
0.000433479
0.000979584
0.000961839
0.000424842
3.92085e-05
3.91824e-05
0.000432708
0.000978345
0.000961723
0.000424679
3.88003e-05
3.8778e-05
0.000432779
0.000980071
0.000964538
0.000425424
3.84846e-05
3.84461e-05
0.000433665
0.000984576
0.000970175
0.000427058
3.8258e-05
3.82073e-05
0.000435247
0.000991477
0.000978097
0.000429165
3.80403e-05
3.80632e-05
0.000437218
0.00100059
0.000988187
0.000431391
3.78986e-05
3.79843e-05
0.000439159
0.00101155
0.000999953
0.000433647
3.78381e-05
3.79996e-05
0.000440781
0.00102309
0.00101192
0.000435595
3.78784e-05
3.80926e-05
0.000442113
0.00103414
0.00102319
0.000437
3.79962e-05
3.82516e-05
0.000443382
0.0010442
0.00103346
0.000438114
3.81806e-05
3.84722e-05
0.000444387
0.00105304
0.00104255
0.000439134
3.84257e-05
3.87462e-05
0.000445293
0.00106059
0.00105028
0.000439684
3.87202e-05
3.9058e-05
0.000445957
0.00106696
0.00105643
0.000440029
3.90509e-05
3.93971e-05
0.000446394
0.0010719
0.00106073
0.000440194
3.94063e-05
3.97518e-05
0.000446603
0.00107606
0.00106368
0.000440235
3.97743e-05
4.01105e-05
0.00044667
0.00107856
0.00106498
0.000439937
4.01437e-05
4.04637e-05
0.000446599
0.00107931
0.00106376
0.00043918
4.05043e-05
4.08017e-05
0.000445874
0.0010779
0.0010612
0.000438195
4.08446e-05
4.11126e-05
0.000444904
0.00107506
0.00105759
0.0004371
4.11547e-05
4.13899e-05
0.000443796
0.001071
0.00105297
0.000435972
4.14287e-05
4.16296e-05
0.000442585
0.00106579
0.00104744
0.000434846
4.16633e-05
4.18298e-05
0.000441336
0.00105962
0.00104119
0.000433754
4.1857e-05
4.19911e-05
0.000440082
0.00105269
0.00103433
0.000432699
4.20112e-05
4.21156e-05
0.000438821
0.00104511
0.001027
0.000431658
4.21288e-05
4.22025e-05
0.000437551
0.0010371
0.00101923
0.000430607
4.2213e-05
4.22628e-05
0.000436258
0.00102889
0.0010113
0.000429531
4.22704e-05
4.23003e-05
0.000434939
0.00102058
0.00100331
0.00042842
4.23045e-05
4.23221e-05
0.000433605
0.00101234
0.000995256
0.000427202
4.23168e-05
4.2327e-05
0.000432232
0.00100412
0.000987165
0.00042585
4.23041e-05
4.23121e-05
0.000430815
0.000995861
0.000979076
0.00042447
4.22787e-05
4.22874e-05
0.000429386
0.000987634
0.000970992
0.000423046
4.22429e-05
4.22488e-05
0.000427908
0.000979411
0.000962961
0.000421602
4.22008e-05
4.22015e-05
0.00042639
0.00097124
0.000954854
0.0004201
4.21452e-05
4.21469e-05
0.000424793
0.000963023
0.00094668
0.00041849
4.2082e-05
4.20801e-05
0.000423094
0.000954779
0.000938499
0.000416816
4.2012e-05
4.20104e-05
0.00042139
0.000946567
0.000930377
0.000415079
4.19386e-05
4.19366e-05
0.00041961
0.000938362
0.000922278
0.000413279
4.18419e-05
4.18759e-05
0.000417831
0.000930287
0.000913711
0.000411495
4.17472e-05
4.17948e-05
0.000415683
0.000922809
0.000906646
0.00040857
4.15896e-05
4.18437e-05
0.000415922
0.000920431
0.000909293
0.000415399
4.17367e-05
4.24181e-05
0.0004161
0.000919363
0.000962822
0.000437529
4.27337e-05
4.55281e-05
0.000410303
0.000935986
0.00142927
0.000596235
5.13487e-05
5.5412e-05
0.000309218
0.000709743
0.0017509
0.00401246
0.00750139
0.0106948
0.0128801
0.0169307
0.0195167
0.0218373
0.0231439
0.023769
0.0235935
0.0225439
0.0210496
0.0186527
0.0163026
0.0127395
0.0111312
0.00809953
0.00605986
0.00411599
0.00233966
0.00107413
0.000391835
0.000163252
3.13773e-05
2.04364e-05
0.000150668
0.000354577
0.000335127
0.000142827
1.97004e-05
1.89534e-05
0.00013801
0.000317989
0.000319116
0.000136275
1.87514e-05
1.86198e-05
0.000135524
0.000313807
0.00031408
0.000134132
1.84223e-05
1.84044e-05
0.000134023
0.000313674
0.000314566
0.000134076
1.84336e-05
1.84361e-05
0.000134272
0.00031528
0.00031572
0.000134496
1.84637e-05
1.84766e-05
0.000134694
0.000316681
0.000317128
0.000134918
1.84935e-05
1.85225e-05
0.000135162
0.000318129
0.000318662
0.000135393
1.85125e-05
1.85445e-05
0.00013568
0.000319674
0.000320226
0.000135863
1.85593e-05
1.85924e-05
0.000136166
0.000321298
0.000321816
0.000136315
1.85935e-05
1.86019e-05
0.00013675
0.000322964
0.00032349
0.000136853
1.86435e-05
1.86513e-05
0.000137261
0.000324654
0.000325198
0.000137426
1.86688e-05
1.86756e-05
0.000137836
0.000326409
0.000326962
0.000137984
1.87193e-05
1.87266e-05
0.000138386
0.000328185
0.000328759
0.000138587
1.8746e-05
1.87535e-05
0.000139009
0.000330042
0.000330634
0.000139181
1.87988e-05
1.88069e-05
0.000139609
0.000331932
0.000332537
0.000139828
1.8827e-05
1.88346e-05
0.000140272
0.000333858
0.000334463
0.000140441
1.88797e-05
1.88887e-05
0.000140873
0.000335787
0.000336453
0.000141107
1.89127e-05
1.89239e-05
0.00014158
0.000337832
0.000338468
0.000141848
1.89585e-05
1.89936e-05
0.000142211
0.000339857
0.00034051
0.000142465
1.90007e-05
1.90115e-05
0.000142979
0.000341938
0.000342598
0.000143239
1.90458e-05
1.90836e-05
0.000143633
0.00034403
0.0003447
0.000143888
1.90901e-05
1.91024e-05
0.000144439
0.000346161
0.000346833
0.0001447
1.91365e-05
1.91754e-05
0.000145119
0.000348289
0.00034897
0.000145375
1.91817e-05
1.91945e-05
0.000145949
0.000350457
0.000351141
0.000146208
1.92285e-05
1.9268e-05
0.000146648
0.000352603
0.000353279
0.000146896
1.92735e-05
1.92869e-05
0.00014748
0.00035474
0.000355403
0.000147725
1.93203e-05
1.93592e-05
0.000148155
0.00035683
0.000357467
0.000148373
1.93632e-05
1.93755e-05
0.00014894
0.000358883
0.000359485
0.000149146
1.94071e-05
1.94446e-05
0.000149538
0.000360836
0.000361425
0.000149708
1.94467e-05
1.94571e-05
0.000150232
0.000362769
0.000363266
0.000150393
1.9486e-05
1.95172e-05
0.00015072
0.000364496
0.000364888
0.000150781
1.95103e-05
1.95135e-05
0.000151172
0.000365981
0.000366358
0.000151119
1.95497e-05
1.95498e-05
0.000151388
0.000367293
0.000367558
0.000151314
1.95558e-05
1.95496e-05
0.00015145
0.000368301
0.000368448
0.000151223
1.95785e-05
1.9567e-05
0.000151194
0.000368941
0.000368976
0.000150879
1.95649e-05
1.9546e-05
0.000150713
0.00036924
0.000369143
0.000150274
1.95507e-05
1.9554e-05
0.000149797
0.000369176
0.000368741
0.000149191
1.95274e-05
1.94989e-05
0.000148646
0.000368647
0.000367883
0.000147795
1.94927e-05
1.94835e-05
0.000146906
0.000367637
0.000366499
0.000145801
1.9443e-05
1.9407e-05
0.000144856
0.000366075
0.000364521
0.000143419
1.94119e-05
1.93984e-05
0.00014232
0.000364247
0.000362713
0.000140856
1.93897e-05
1.93635e-05
0.000139611
0.000362146
0.000360164
0.000137949
1.93599e-05
1.93955e-05
0.000136556
0.000359948
0.000358821
0.000135117
1.9409e-05
1.94306e-05
0.000133858
0.000358612
0.000356998
0.000132327
1.94662e-05
1.95607e-05
0.000131034
0.00035743
0.000357244
0.000129726
1.97075e-05
1.98951e-05
0.000129156
0.000359611
0.000361268
0.000128013
2.00676e-05
2.02207e-05
0.000126816
0.000364569
0.000370207
0.000128263
2.04238e-05
2.06328e-05
0.000128948
0.000375099
0.000377886
0.000128207
2.06894e-05
2.08346e-05
0.000125823
0.000383371
0.000389645
0.000132528
2.113e-05
2.13334e-05
0.000128545
0.000394792
0.000399816
0.000131672
2.1681e-05
2.19341e-05
0.000133396
0.000409717
0.0004129
0.00013637
2.22996e-05
2.28216e-05
0.000143637
0.000426363
0.000428813
0.000147538
2.33481e-05
2.38279e-05
0.00015383
0.000439667
0.000442107
0.000158747
2.46771e-05
2.63064e-05
0.000181897
0.000459758
0.000456759
0.000191515
1.97353e-05
1.49209e-05
4.60603e-05
0.000127314
0.000359418
0.000109531
1.80576e-05
1.88706e-05
9.98239e-05
0.000330352
0.000348724
0.000103901
1.93625e-05
1.96538e-05
9.81302e-05
0.00033319
0.000359403
0.000106115
2.0286e-05
2.08527e-05
0.000104579
0.000354509
0.000389761
0.000118909
2.15587e-05
2.22502e-05
0.000118022
0.000382381
0.000419127
0.000137594
2.31665e-05
2.43367e-05
0.000140738
0.000421365
0.00046635
0.000167356
2.66352e-05
2.04069e-05
0.000186191
0.00048025
0.000127986
4.34906e-05
1.59981e-05
1.98579e-05
0.000122685
0.000404351
0.000395834
0.000112853
2.1347e-05
2.26937e-05
0.00014793
0.000487909
0.000497157
0.000149564
2.36951e-05
2.49852e-05
0.000173714
0.000552997
0.000569221
0.00018556
2.66562e-05
3.00364e-05
0.000223765
0.00062305
0.000608679
0.000242489
2.34532e-05
1.79309e-05
5.59456e-05
0.000162002
0.000492807
0.000145561
2.09055e-05
2.26099e-05
0.000134987
0.000483086
0.000554248
0.000166155
2.40813e-05
2.57127e-05
0.000165783
0.000546277
0.000615395
0.000208947
2.94719e-05
2.34742e-05
0.000240088
0.000619565
0.000166533
5.25967e-05
1.71379e-05
2.21606e-05
0.00015471
0.00055853
0.00057632
0.000161261
2.47578e-05
2.87336e-05
0.000227628
0.00074053
0.000773548
0.000262551
3.32138e-05
2.72266e-05
0.000304433
0.000779283
0.000214312
6.1337e-05
1.80833e-05
2.41416e-05
0.000206182
0.00069577
0.000691991
0.000198288
2.79079e-05
3.48809e-05
0.000292597
0.000869821
0.00087957
0.000336482
2.8584e-05
1.86885e-05
6.78703e-05
0.000263804
0.000897293
0.000265047
2.8041e-05
3.52964e-05
0.000280093
0.000968721
0.00134349
0.000472725
4.82572e-05
4.01813e-05
0.000504296
0.00129195
0.000456308
0.00011975
2.62022e-05
4.69529e-05
0.000493301
0.00141221
0.00141707
0.000529042
4.39954e-05
3.02246e-05
0.000138531
0.000561243
0.00194933
0.00064727
6.49466e-05
6.4136e-05
0.000747687
0.00211798
0.000964547
0.000266416
4.07544e-05
6.49239e-05
0.000867558
0.00252803
0.00167022
0.000553942
4.32347e-05
8.02913e-05
0.000976858
0.00197017
0.00168959
0.000817205
6.60176e-05
6.67832e-05
0.000778216
0.00185172
0.00237232
0.000857676
7.64842e-05
0.000105533
0.00159898
0.0039467
0.000879074
0.000273267
5.99197e-05
6.13501e-05
0.000766076
0.00175544
0.00054279
0.000193894
4.27975e-05
4.61923e-05
0.000473805
0.00113824
0.000970365
0.000347842
4.65763e-05
2.42002e-05
8.59781e-05
0.000275399
0.000651997
0.000352823
2.9859e-05
2.8686e-05
0.000114134
0.000294556
0.000716966
0.000309421
3.31063e-05
3.57028e-05
0.000256914
0.00065226
0.000213654
8.07763e-05
2.35457e-05
2.80897e-05
0.000253379
0.000566741
0.000520306
0.000208936
3.07366e-05
2.1508e-05
6.70213e-05
0.000171862
0.000480783
0.000212016
2.50493e-05
2.9331e-05
0.000186312
0.000442417
0.000154555
6.48051e-05
2.13361e-05
2.39491e-05
0.000191711
0.000424683
0.000383897
0.000167048
2.7642e-05
2.05238e-05
5.83174e-05
0.000135638
0.000373584
0.000170207
2.23889e-05
2.6428e-05
0.000148479
0.000339209
0.000122121
5.46953e-05
2.00841e-05
2.16987e-05
0.000158102
0.00033698
0.000302795
0.000137934
2.57342e-05
1.97774e-05
5.17391e-05
0.000112911
0.000307025
0.000146221
2.08126e-05
2.52311e-05
0.000128952
0.000279597
0.000109478
5.14353e-05
1.98548e-05
2.09544e-05
0.000147818
0.000298996
0.000255989
0.00012125
2.63391e-05
2.21193e-05
9.49303e-05
0.000205972
7.88689e-05
3.56235e-05
1.68087e-05
1.69927e-05
9.65422e-05
0.000199647
0.000191637
9.03626e-05
2.20271e-05
1.85086e-05
3.87762e-05
8.0021e-05
0.000192677
9.87081e-05
1.76915e-05
2.2628e-05
9.02679e-05
0.000177233
7.30942e-05
3.61044e-05
1.75893e-05
1.65116e-05
8.80172e-05
0.000166207
0.000159861
8.3666e-05
2.12649e-05
1.80321e-05
3.61797e-05
7.06983e-05
0.000162842
8.79241e-05
1.70708e-05
2.19232e-05
8.33863e-05
0.000152973
6.84332e-05
3.52518e-05
1.81266e-05
1.64976e-05
8.10914e-05
0.000148243
0.000139227
7.75544e-05
2.14945e-05
1.73284e-05
3.33963e-05
6.28299e-05
0.000136835
7.72095e-05
1.58004e-05
2.06792e-05
7.04017e-05
0.000128607
5.99107e-05
3.30162e-05
1.6642e-05
1.52471e-05
7.19855e-05
0.000123555
0.000118358
6.53392e-05
2.02826e-05
1.58728e-05
2.9925e-05
5.30995e-05
0.000106734
7.79616e-05
1.44909e-05
1.87813e-05
3.78086e-05
6.2726e-05
0.000143948
8.25403e-05
1.71288e-05
2.18306e-05
7.69478e-05
0.000133491
6.45119e-05
3.72338e-05
1.79244e-05
1.63737e-05
7.95192e-05
0.000133354
0.000125728
7.42757e-05
2.1805e-05
1.81879e-05
3.73106e-05
6.29659e-05
0.000130861
7.9239e-05
1.64415e-05
2.13568e-05
7.36082e-05
0.000124237
6.08099e-05
3.678e-05
1.76825e-05
1.59868e-05
7.39285e-05
0.000118952
0.00011151
6.73044e-05
2.15267e-05
1.80732e-05
3.66375e-05
5.76849e-05
0.000110307
6.96754e-05
1.58866e-05
2.08588e-05
6.29445e-05
0.000102806
5.02872e-05
3.26077e-05
1.62643e-05
1.43377e-05
6.83e-05
8.997e-05
5.46042e-05
3.76799e-05
1.87363e-05
1.67444e-05
6.69435e-05
0.00010877
9.88739e-05
6.21862e-05
2.16805e-05
1.78037e-05
3.72907e-05
5.37846e-05
9.9646e-05
6.51093e-05
1.57076e-05
2.08163e-05
5.9888e-05
9.0187e-05
4.79504e-05
3.42919e-05
1.68182e-05
1.45242e-05
6.37217e-05
8.17629e-05
5.17054e-05
3.75524e-05
1.90192e-05
1.66312e-05
6.44614e-05
9.99848e-05
9.07971e-05
5.92199e-05
2.12199e-05
1.74899e-05
3.7313e-05
5.09337e-05
9.42893e-05
6.28057e-05
1.55106e-05
2.07151e-05
5.69957e-05
8.48996e-05
4.6131e-05
3.44396e-05
1.67538e-05
1.45363e-05
5.98715e-05
7.55713e-05
4.86418e-05
3.70237e-05
1.90941e-05
1.64643e-05
5.97768e-05
9.22458e-05
8.3069e-05
5.5492e-05
2.12362e-05
1.75356e-05
3.73396e-05
4.74212e-05
8.4288e-05
5.75437e-05
1.56198e-05
2.062e-05
5.28131e-05
7.68502e-05
4.37108e-05
3.47913e-05
1.76601e-05
1.46651e-05
5.54446e-05
6.76599e-05
4.51752e-05
3.64809e-05
1.94367e-05
1.63169e-05
5.56642e-05
8.26143e-05
7.34065e-05
5.03033e-05
2.10161e-05
1.67659e-05
3.4717e-05
4.20893e-05
6.59519e-05
5.4834e-05
1.41788e-05
1.88699e-05
3.6865e-05
4.45202e-05
8.12123e-05
5.3505e-05
1.60122e-05
2.08791e-05
4.98342e-05
7.30726e-05
4.28276e-05
3.59991e-05
1.73119e-05
1.45058e-05
5.40305e-05
6.56211e-05
4.50004e-05
3.78928e-05
1.91456e-05
1.59397e-05
5.43923e-05
8.03522e-05
7.18238e-05
4.98578e-05
2.08753e-05
1.73896e-05
3.62186e-05
4.24159e-05
6.49631e-05
5.48715e-05
1.43528e-05
1.9258e-05
3.82599e-05
4.46712e-05
7.91574e-05
5.33553e-05
1.61801e-05
2.1228e-05
4.92117e-05
7.07169e-05
4.19684e-05
3.66029e-05
1.71914e-05
1.44938e-05
5.41281e-05
6.33929e-05
4.40667e-05
3.86361e-05
1.9072e-05
1.60717e-05
5.2247e-05
7.75195e-05
6.91344e-05
4.86985e-05
2.09561e-05
1.8028e-05
3.71073e-05
4.19529e-05
6.08627e-05
5.40273e-05
1.46049e-05
1.90489e-05
3.97479e-05
4.38503e-05
6.68402e-05
5.15393e-05
1.51797e-05
1.96814e-05
4.02649e-05
4.6434e-05
7.90363e-05
5.27885e-05
1.65112e-05
2.09671e-05
4.92004e-05
7.05241e-05
4.26291e-05
3.76949e-05
1.7071e-05
1.42298e-05
5.41978e-05
6.30496e-05
4.45207e-05
4.02099e-05
1.92607e-05
1.61876e-05
5.2102e-05
7.61951e-05
6.84466e-05
4.8725e-05
2.10269e-05
1.79321e-05
3.79421e-05
4.20488e-05
6.02571e-05
5.32828e-05
1.46965e-05
1.92778e-05
4.04617e-05
4.41337e-05
6.57302e-05
5.16882e-05
1.54973e-05
1.96182e-05
4.13063e-05
4.63029e-05
7.76418e-05
5.1954e-05
1.62433e-05
2.11023e-05
4.8803e-05
6.91977e-05
4.24867e-05
3.88981e-05
1.70412e-05
1.42529e-05
5.42002e-05
6.17233e-05
4.56545e-05
4.21399e-05
1.91544e-05
1.54544e-05
5.2418e-05
6.75427e-05
4.78259e-05
4.31249e-05
1.97906e-05
1.65157e-05
5.29257e-05
7.9106e-05
7.05239e-05
4.98158e-05
2.13953e-05
1.77188e-05
4.02226e-05
4.40039e-05
6.23376e-05
5.59069e-05
1.45403e-05
1.93748e-05
4.30577e-05
4.63907e-05
6.76538e-05
5.373e-05
1.55128e-05
1.98355e-05
4.39653e-05
4.8378e-05
7.94354e-05
5.36205e-05
1.65272e-05
2.13044e-05
5.066e-05
7.09813e-05
4.44998e-05
4.12804e-05
1.7336e-05
1.45824e-05
5.62916e-05
6.35611e-05
4.75835e-05
4.42819e-05
1.94881e-05
1.58367e-05
5.43449e-05
6.89309e-05
4.95551e-05
4.49915e-05
1.99221e-05
1.64441e-05
5.40937e-05
7.97699e-05
7.11939e-05
5.09544e-05
2.12007e-05
1.70132e-05
4.08337e-05
4.42562e-05
6.277e-05
5.60379e-05
1.45646e-05
1.94264e-05
4.36498e-05
4.69182e-05
6.71326e-05
5.29181e-05
1.57626e-05
2.00471e-05
4.45474e-05
4.85077e-05
7.69887e-05
5.2912e-05
1.65712e-05
2.14683e-05
5.01674e-05
6.89781e-05
4.39481e-05
4.13348e-05
1.72524e-05
1.46445e-05
5.58009e-05
6.22302e-05
4.70201e-05
4.40439e-05
1.92683e-05
1.53735e-05
5.24411e-05
6.65157e-05
4.95008e-05
4.51904e-05
1.96853e-05
1.56561e-05
5.41397e-05
6.91902e-05
5.08443e-05
4.76883e-05
1.99401e-05
1.66326e-05
5.4956e-05
7.94434e-05
7.09899e-05
5.23345e-05
2.12965e-05
1.80075e-05
4.34872e-05
4.60096e-05
6.35187e-05
5.79843e-05
1.48318e-05
1.97762e-05
4.5515e-05
4.8204e-05
6.6857e-05
5.39003e-05
1.58239e-05
1.98785e-05
4.59806e-05
5.03032e-05
6.94247e-05
5.46788e-05
1.57715e-05
2.00237e-05
4.87621e-05
5.15266e-05
7.93968e-05
5.55719e-05
1.65937e-05
2.13917e-05
5.27747e-05
7.11893e-05
4.63759e-05
4.41736e-05
1.73273e-05
1.46247e-05
5.86393e-05
6.41847e-05
4.9205e-05
4.64772e-05
1.95819e-05
1.58112e-05
5.39624e-05
6.85575e-05
5.17472e-05
4.7691e-05
2.00816e-05
1.60281e-05
5.63735e-05
7.09697e-05
5.31013e-05
5.04182e-05
2.02837e-05
1.68659e-05
5.70337e-05
8.07574e-05
7.24942e-05
5.42443e-05
2.15923e-05
1.72438e-05
4.51198e-05
4.7752e-05
6.476e-05
5.95627e-05
1.4708e-05
1.96687e-05
4.7325e-05
5.01286e-05
6.85639e-05
5.45507e-05
1.5759e-05
2.00937e-05
4.78889e-05
5.20418e-05
7.0441e-05
5.61703e-05
1.59551e-05
2.03554e-05
5.05154e-05
5.3151e-05
7.95681e-05
5.634e-05
1.68589e-05
2.16466e-05
5.4315e-05
7.20156e-05
4.85722e-05
4.65714e-05
1.85603e-05
1.52536e-05
5.97522e-05
6.49902e-05
5.10018e-05
4.88383e-05
2.02552e-05
1.59195e-05
5.65706e-05
6.89394e-05
5.2788e-05
4.8891e-05
1.99857e-05
1.57714e-05
5.58729e-05
7.05832e-05
5.41731e-05
5.04225e-05
2.00374e-05
1.6059e-05
5.8835e-05
7.2401e-05
5.50306e-05
5.30622e-05
2.02834e-05
1.6818e-05
5.88704e-05
8.15428e-05
7.38882e-05
5.62906e-05
2.16182e-05
1.71543e-05
4.66259e-05
4.96492e-05
6.50846e-05
6.04552e-05
1.47848e-05
1.98355e-05
4.87519e-05
5.15409e-05
6.84679e-05
5.49127e-05
1.60397e-05
2.03888e-05
4.97838e-05
5.35341e-05
7.04654e-05
5.67384e-05
1.60001e-05
2.01876e-05
5.14029e-05
5.47493e-05
7.2966e-05
5.90376e-05
1.61618e-05
2.04305e-05
5.4291e-05
5.6001e-05
8.27287e-05
6.02475e-05
1.69405e-05
2.18234e-05
5.77573e-05
7.5161e-05
5.1609e-05
4.94245e-05
1.77796e-05
1.49187e-05
6.36455e-05
6.77854e-05
5.39273e-05
5.15632e-05
1.98815e-05
1.57966e-05
5.84736e-05
7.20268e-05
5.60648e-05
5.20306e-05
2.02832e-05
1.61353e-05
5.9588e-05
7.38567e-05
5.73633e-05
5.37148e-05
2.02661e-05
1.61544e-05
6.19158e-05
7.59039e-05
5.84551e-05
5.6459e-05
2.05138e-05
1.7129e-05
6.22353e-05
8.47944e-05
7.72901e-05
5.95232e-05
2.18734e-05
1.75082e-05
5.03486e-05
5.33066e-05
6.8295e-05
6.37254e-05
1.51799e-05
2.00415e-05
5.23527e-05
5.51884e-05
7.18067e-05
5.8588e-05
1.61502e-05
2.06495e-05
5.27837e-05
5.71059e-05
7.33856e-05
5.93701e-05
1.63266e-05
2.05575e-05
5.45236e-05
5.80304e-05
7.56561e-05
6.1782e-05
1.649e-05
2.07439e-05
5.77254e-05
5.90443e-05
8.47408e-05
6.32756e-05
1.71579e-05
2.21366e-05
6.09217e-05
7.77968e-05
5.46386e-05
5.23383e-05
1.79191e-05
1.5195e-05
6.60991e-05
7.00726e-05
5.68256e-05
5.42566e-05
2.01497e-05
1.61289e-05
6.05611e-05
7.37237e-05
5.89408e-05
5.47967e-05
2.06416e-05
1.63758e-05
6.16079e-05
7.58628e-05
6.03105e-05
5.64161e-05
2.05252e-05
1.64578e-05
6.41054e-05
7.77896e-05
6.10154e-05
5.91725e-05
2.07126e-05
1.71631e-05
6.44588e-05
8.63728e-05
7.91012e-05
6.20842e-05
2.22223e-05
1.76193e-05
5.28586e-05
5.57898e-05
6.96163e-05
6.61496e-05
1.53126e-05
2.0197e-05
5.47232e-05
5.73627e-05
7.22024e-05
5.96178e-05
1.6206e-05
2.08362e-05
5.53048e-05
5.90613e-05
7.40202e-05
6.11614e-05
1.64978e-05
2.06385e-05
5.69063e-05
6.00941e-05
7.61849e-05
6.28987e-05
1.64344e-05
2.05761e-05
5.86511e-05
6.1789e-05
7.90601e-05
6.63323e-05
1.64411e-05
2.076e-05
6.18157e-05
6.27087e-05
8.87935e-05
6.67688e-05
1.72685e-05
2.24461e-05
6.46315e-05
8.17937e-05
5.87662e-05
5.6891e-05
1.86768e-05
1.55073e-05
7.05079e-05
7.40061e-05
6.13728e-05
5.93173e-05
2.07156e-05
1.64845e-05
6.57322e-05
7.78305e-05
6.31403e-05
5.93223e-05
2.08008e-05
1.64836e-05
6.5889e-05
8.00482e-05
6.47471e-05
6.09679e-05
2.06629e-05
1.65268e-05
6.91295e-05
8.28633e-05
6.60987e-05
6.41798e-05
2.09144e-05
1.74767e-05
6.94094e-05
9.17988e-05
8.41828e-05
6.70606e-05
2.26838e-05
1.84993e-05
5.85672e-05
6.08118e-05
7.55144e-05
7.24127e-05
1.55972e-05
2.06719e-05
6.05778e-05
6.32776e-05
7.8079e-05
6.65311e-05
1.6579e-05
2.09892e-05
6.03052e-05
6.44502e-05
7.92277e-05
6.62295e-05
1.67678e-05
2.08674e-05
6.19114e-05
6.53696e-05
8.13233e-05
6.85932e-05
1.66718e-05
2.11346e-05
6.49239e-05
6.60845e-05
9.04096e-05
6.92677e-05
1.75908e-05
2.30301e-05
6.76617e-05
8.35282e-05
6.18571e-05
6.04905e-05
1.91047e-05
1.57065e-05
7.34458e-05
7.60218e-05
6.45422e-05
6.28862e-05
2.10686e-05
1.67924e-05
6.8869e-05
7.96578e-05
6.62741e-05
6.28102e-05
2.10775e-05
1.66722e-05
6.84352e-05
8.14572e-05
6.74396e-05
6.42681e-05
2.09641e-05
1.68478e-05
7.09844e-05
8.42044e-05
6.8889e-05
6.7899e-05
2.14216e-05
1.77989e-05
7.21188e-05
9.33068e-05
8.59212e-05
7.02889e-05
2.31759e-05
1.89338e-05
6.26329e-05
6.41769e-05
7.82412e-05
7.63025e-05
1.58554e-05
2.09081e-05
6.42729e-05
6.66101e-05
8.06625e-05
6.98025e-05
1.67498e-05
2.13234e-05
6.42706e-05
6.7908e-05
8.1927e-05
6.9786e-05
1.68907e-05
2.13662e-05
6.6208e-05
6.90151e-05
8.41839e-05
7.20049e-05
1.70137e-05
2.18501e-05
6.97862e-05
6.99475e-05
9.34619e-05
7.32064e-05
1.82899e-05
2.38743e-05
7.20055e-05
8.67182e-05
6.63719e-05
6.59041e-05
1.95334e-05
1.63283e-05
7.83817e-05
8.03436e-05
6.90768e-05
6.78112e-05
2.1326e-05
1.70233e-05
7.42038e-05
8.41717e-05
7.10939e-05
6.81865e-05
2.1669e-05
1.70498e-05
7.42038e-05
8.66055e-05
7.19938e-05
7.09469e-05
2.20176e-05
1.84678e-05
7.40921e-05
9.48169e-05
8.76441e-05
7.28298e-05
2.43344e-05
1.94164e-05
6.61774e-05
6.72383e-05
7.97395e-05
7.8405e-05
1.6461e-05
2.14673e-05
6.7944e-05
6.92982e-05
8.23366e-05
7.31777e-05
1.72015e-05
2.20479e-05
6.81987e-05
7.08907e-05
8.45333e-05
7.27444e-05
1.74272e-05
2.25393e-05
7.20668e-05
7.1889e-05
9.2758e-05
7.42192e-05
1.86574e-05
2.45642e-05
7.35094e-05
8.65508e-05
6.83289e-05
6.84346e-05
2.03951e-05
1.66046e-05
7.99451e-05
8.05631e-05
7.09545e-05
7.06621e-05
2.2128e-05
1.73992e-05
7.48321e-05
8.434e-05
7.28293e-05
7.1126e-05
2.23838e-05
1.77318e-05
7.52383e-05
8.67166e-05
7.3975e-05
7.39198e-05
2.27802e-05
1.88445e-05
7.58889e-05
9.45541e-05
8.80364e-05
7.54061e-05
2.51222e-05
1.97298e-05
6.93995e-05
7.00813e-05
8.09627e-05
8.10041e-05
1.66779e-05
2.20464e-05
7.14686e-05
7.18237e-05
8.36662e-05
7.54216e-05
1.75505e-05
2.26551e-05
7.19333e-05
7.35245e-05
8.63854e-05
7.50943e-05
1.79339e-05
2.33483e-05
7.62587e-05
7.4936e-05
9.50271e-05
7.74611e-05
1.94102e-05
2.55955e-05
7.7127e-05
8.90294e-05
7.21804e-05
7.30195e-05
2.0484e-05
1.70748e-05
8.38924e-05
8.38204e-05
7.47543e-05
7.5506e-05
2.28045e-05
1.81141e-05
7.94571e-05
8.79517e-05
7.72459e-05
7.62296e-05
2.33866e-05
1.86461e-05
7.92306e-05
9.11055e-05
7.91208e-05
8.04747e-05
2.42026e-05
2.00782e-05
8.15093e-05
9.96217e-05
9.33779e-05
8.13987e-05
2.65691e-05
2.1393e-05
7.66878e-05
7.64034e-05
8.72609e-05
8.78342e-05
1.77063e-05
2.33953e-05
7.90054e-05
7.84961e-05
9.11262e-05
8.2388e-05
1.86701e-05
2.46138e-05
8.16515e-05
8.02425e-05
9.93881e-05
8.17358e-05
2.04579e-05
2.69961e-05
8.12335e-05
9.34818e-05
7.67711e-05
7.81876e-05
2.16554e-05
1.7924e-05
8.85334e-05
8.78999e-05
7.98012e-05
8.1082e-05
2.39481e-05
1.90548e-05
8.41824e-05
9.23551e-05
8.23103e-05
8.23062e-05
2.47167e-05
1.97247e-05
8.42828e-05
9.63468e-05
8.49585e-05
8.73906e-05
2.57405e-05
2.14034e-05
8.78796e-05
0.000105836
9.93274e-05
8.80666e-05
2.83158e-05
2.31612e-05
8.4906e-05
8.33067e-05
9.41579e-05
9.56556e-05
1.87115e-05
2.51983e-05
8.74124e-05
8.62965e-05
9.93395e-05
9.0064e-05
2.01415e-05
2.64308e-05
9.05304e-05
8.82009e-05
0.000108447
9.00217e-05
2.15898e-05
2.88087e-05
9.02102e-05
0.000102457
8.64976e-05
8.87315e-05
2.42577e-05
1.99414e-05
9.77772e-05
9.72357e-05
8.9386e-05
9.18715e-05
2.6503e-05
2.12375e-05
9.37465e-05
0.000103184
9.2244e-05
9.55776e-05
2.78772e-05
2.32505e-05
9.44429e-05
0.000112972
0.0001067
9.49267e-05
3.07299e-05
2.51055e-05
9.29204e-05
9.06919e-05
0.000101911
0.000102526
2.03523e-05
2.76853e-05
9.75751e-05
9.34403e-05
0.000112386
9.57348e-05
2.30961e-05
3.08322e-05
9.56318e-05
0.000106945
9.09348e-05
9.22105e-05
2.50678e-05
2.001e-05
0.000103259
0.000101293
9.35553e-05
9.51822e-05
2.72439e-05
2.18518e-05
9.62605e-05
0.000105766
9.56436e-05
9.90062e-05
2.90091e-05
2.41603e-05
9.68215e-05
0.000114749
0.000109196
9.81607e-05
3.21354e-05
2.62097e-05
9.71438e-05
9.46686e-05
0.000104536
0.000105204
2.15682e-05
2.91782e-05
0.000102549
9.71863e-05
0.0001145
9.93614e-05
2.44945e-05
3.26747e-05
9.95623e-05
0.000109431
9.59206e-05
9.87813e-05
2.68938e-05
2.17885e-05
0.000106681
0.000105332
9.78138e-05
0.000103456
2.9305e-05
2.39343e-05
9.94503e-05
0.000114891
0.000110007
0.000100199
3.2655e-05
2.73225e-05
9.91836e-05
9.65731e-05
0.000105658
0.000106206
2.23765e-05
3.04733e-05
0.000105339
9.93347e-05
0.000115114
0.000100939
2.53001e-05
3.4101e-05
0.000101805
0.000110423
9.84042e-05
0.000102087
2.78298e-05
2.27134e-05
0.000108506
0.000106813
0.000100752
0.000107309
3.06514e-05
2.53361e-05
0.000102395
0.000116591
0.000111882
0.0001029
3.40509e-05
2.79244e-05
0.000102866
9.96077e-05
0.000108144
0.00011125
2.19885e-05
3.03759e-05
0.000108261
0.000101907
0.000117344
0.000102659
2.57165e-05
3.51729e-05
0.000103758
0.00011285
0.000102026
0.000107396
2.94675e-05
2.38845e-05
0.000111516
0.000110295
0.000105331
0.000114091
3.25799e-05
2.7154e-05
0.000108133
0.000121787
0.0001172
0.000109445
3.64014e-05
2.98795e-05
0.000111759
0.000106485
0.000114908
0.000116639
2.43142e-05
3.301e-05
0.000118611
0.000109458
0.00012679
0.000112943
2.72249e-05
3.61236e-05
0.000112472
0.00012206
0.000110498
0.000119844
3.1394e-05
2.7162e-05
0.000119523
0.000124983
0.00012101
0.000119189
3.77027e-05
3.21393e-05
0.000118799
0.000112518
0.00012181
0.00012251
2.61609e-05
3.548e-05
0.000125383
0.000116515
0.000132778
0.000118168
2.96326e-05
3.95392e-05
0.000119877
0.000127991
0.000117722
0.000127998
3.33299e-05
2.83041e-05
0.000127046
0.000132224
0.000128281
0.000124142
3.85275e-05