/*--------------------------------*- C++ -*----------------------------------*\
| =========                 |                                                 |
| \\      /  F ield         | OpenFOAM: The Open Source CFD Toolbox           |
|  \\    /   O peration     | Version:  v2006                                 |
|   \\  /    A nd           | Website:  www.openfoam.com                      |
|    \\/     M anipulation  |                                                 |
\*---------------------------------------------------------------------------*/
FoamFile
{
    version     2.0;
    format      ascii;
    class       volScalarField;
    location    "0.038";
    object      p;
}
// * * * * * * * * * * * * * * * * * * * * * * * * * * * * * * * * * * * * * //

dimensions      [1 -1 -2 0 0 0 0];


internalField   nonuniform List<scalar> 
16277
(
147985
147991
147994
147980
147990
147988
147988
147991
147995
148000
148005
148011
148017
148024
148030
148037
148044
148051
148058
148066
148074
148082
148091
148100
148109
148119
148129
148139
148149
148159
148170
148181
148192
148204
148215
148227
148239
148251
148263
148276
148288
148301
148313
148326
148339
148352
148365
148377
148390
148403
148416
148429
148441
148454
148466
148479
148491
148503
148515
148527
148539
148550
148561
148573
148583
148594
148604
148614
148624
148634
148643
148652
148660
148669
148677
148684
148691
148698
148705
148711
148717
148723
148728
148732
148734
148736
148736
148736
148735
148737
148736
148740
148745
148755
148771
148783
148790
148779
148778
148774
148771
148772
148773
148767
148767
148767
148762
148762
148762
148758
148758
148758
148754
148754
148754
148752
148752
148752
148750
148749
148749
148748
148748
148748
148747
148746
148746
148746
148746
148746
148745
148745
148745
148745
148745
148745
148745
148745
148744
148745
148745
148745
148746
148745
148745
148746
148746
148747
148747
148747
148747
148749
148749
148749
148750
148750
148750
148752
148752
148752
148753
148753
148753
148755
148756
148756
148758
148757
148757
148760
148760
148760
148762
148762
148762
148765
148765
148766
148768
148768
148768
148771
148771
148771
148774
148774
148774
148778
148778
148778
148781
148781
148781
148785
148785
148785
148788
148788
148788
148793
148793
148793
148797
148796
148796
148801
148801
148801
148805
148805
148805
148810
148810
148810
148815
148814
148814
148820
148820
148820
148824
148824
148824
148830
148830
148830
148835
148835
148835
148841
148841
148841
148846
148846
148846
148852
148852
148852
148858
148858
148858
148864
148864
148865
148870
148870
148870
148877
148877
148877
148883
148883
148883
148890
148890
148891
148897
148897
148897
148904
148904
148905
148911
148911
148911
148919
148919
148919
148926
148926
148926
148934
148934
148934
148942
148942
148941
148950
148950
148950
148958
148958
148958
148966
148967
148967
148975
148974
148974
148983
148984
148984
148992
148992
148992
149001
149001
149001
149010
149010
149010
149019
149019
149020
149028
149028
149028
149038
149038
149038
149047
149047
149047
149057
149057
149057
149066
149066
149066
149076
149076
149077
149086
149086
149086
149096
149096
149096
149105
149105
149105
149115
149115
149116
149125
149125
149125
149135
149135
149135
149144
149144
149144
149154
149154
149154
149163
149163
149163
149172
149172
149173
149181
149181
149181
149190
149190
149190
149198
149198
149198
149206
149207
149207
149214
149214
149214
149221
149222
149222
149228
149228
149228
149234
149235
149235
149240
149240
149240
149245
149245
149246
149249
149249
149249
149253
149253
149253
149256
149256
149256
149258
149258
149258
149259
149259
149259
149260
149260
149260
149259
149259
149259
149259
149258
149259
149256
149256
149256
149253
149253
149253
149249
149249
149249
149245
149245
149245
149239
149239
149239
149234
149234
149233
149226
149227
149227
149220
149220
149220
149212
149212
149213
149205
149205
149205
149196
149197
149197
149189
149189
149189
149180
149180
149180
149172
149172
149172
149163
149163
149163
149155
149155
149155
149146
149146
149146
149138
149138
149138
149129
149130
149130
149122
149122
149122
149114
149114
149114
149107
149107
149107
149099
149100
149100
149094
149094
149093
149086
149087
149087
149081
149081
149081
149075
149075
149075
149070
149070
149070
149065
149065
149065
149061
149061
149061
149056
149056
149057
149053
149053
149053
149049
149049
149049
149046
149046
149046
149043
149043
149043
149041
149041
149041
149038
149038
149038
149036
149036
149036
149033
149033
149033
149032
149032
149032
149029
149030
149030
149028
149028
149028
149026
149026
149027
149025
149025
149025
149023
149024
149024
149023
149023
149023
149021
149021
149021
149021
149020
149020
149019
149019
149019
149018
149018
149018
149017
149017
149018
149016
149016
149016
149015
149015
149015
149015
149015
149015
149013
149013
149013
149013
149013
149013
149012
149011
149011
149011
149011
149011
149010
149010
149010
149009
149009
149009
149008
149008
149008
149008
149008
149008
149006
149007
149007
149006
149006
149006
149005
149005
149005
149005
149005
149005
149004
149004
149004
149002
149002
149003
149002
149001
149001
149000
149000
149000
148999
148999
148998
148998
148999
149000
149008
149008
149006
148981
148978
148979
148987
148995
149000
149001
149000
149001
149000
149000
149000
149000
149000
149000
149000
149000
149001
149000
149002
149001
149001
149001
149003
149004
149002
149005
149008
149006
149004
148999
148998
148999
149000
148997
148997
148998
148998
148997
148996
148997
148998
148999
148999
148998
148998
148999
148999
148999
149000
149000
149000
149001
149001
149001
149001
149001
149001
149002
149002
149002
149002
149002
149002
149002
149002
149002
149003
149003
149003
149003
149003
149003
149004
149004
149004
149004
149004
149004
149004
149004
149004
149005
149005
149005
149005
149005
149005
149005
149005
149005
149005
149006
149006
149006
149006
149006
149006
149006
149006
149007
149006
149006
149007
149007
149007
149007
149007
149007
149007
149007
149007
149008
149008
149008
149008
149008
149008
149008
149008
149008
149008
149009
149009
149009
149009
149009
149009
149009
149009
149009
149009
149009
149010
149010
149009
149010
149010
149010
149010
149010
149010
149010
149010
149011
149011
149011
149011
149011
149011
149011
149011
149011
149011
149011
149011
149012
149012
149012
149012
149012
149012
149012
149012
149012
149012
149012
149012
149012
149013
149013
149012
149013
149013
149013
149013
149013
149013
149013
149013
149013
149013
149013
149013
149013
149013
149014
149014
149014
149013
149014
149014
149014
149014
149014
149014
149014
149014
149014
149014
149014
149014
149014
149014
149014
149014
149014
149014
149014
149014
149014
149014
149014
149014
149014
149013
149013
149013
149013
149013
149013
149013
149013
149013
149013
149013
149013
149013
149013
149012
149012
149013
149012
149012
149012
149012
149012
149012
149011
149011
149011
149011
149011
149011
149010
149010
149010
149009
149009
149010
149009
149009
149008
149007
149008
149008
149007
149007
149006
149005
149006
149006
149005
149005
149004
149003
149003
149004
149002
149002
149002
149001
149001
149000
148999
148999
149000
148997
148997
148997
148994
148995
148995
148993
148992
148992
148990
148990
148990
148986
148987
148987
148983
148983
148982
148979
148978
148978
148973
148974
148976
148969
148967
148966
148957
148959
148961
148956
148954
148953
148947
148949
148951
148950
148947
148945
148946
148948
148950
148952
148950
148948
148951
148953
148955
148957
148955
148953
148957
148960
148961
148967
148967
148966
148974
148974
148974
148978
148978
148976
148977
148980
148984
148990
148985
148982
149010
149004
148997
149014
149032
149035
148995
148961
148959
148998
148993
148987
149009
149009
149009
149018
149018
149016
149027
149027
149027
149034
149034
149033
149037
149038
149038
149046
149047
149047
149049
149050
149051
149057
149059
149060
149071
149068
149060
149065
149083
149093
149118
149109
149087
149044
149045
149093
149066
149079
149089
149095
149096
149098
149099
149103
149107
149117
149113
149111
149117
149120
149125
149130
149129
149128
149148
149148
149150
149161
149162
149157
149111
149137
149146
149163
149161
149161
149173
149175
149175
149188
149191
149193
149208
149203
149195
149208
149220
149224
149255
149248
149232
149205
149208
149258
149220
149236
149250
149263
149264
149265
149279
149279
149277
149293
149303
149308
149336
149331
149317
149298
149297
149338
149330
149341
149344
149364
149366
149366
149388
149390
149387
149417
149432
149443
149465
149412
149403
149460
149457
149448
149480
149486
149487
149529
149526
149520
149555
149561
149562
149597
149588
149580
149646
149651
149654
149693
149694
149687
149710
149747
149753
149813
149821
149818
149897
149900
149887
149996
150004
149998
150148
150125
150088
150120
150170
150188
150273
150218
150163
150122
150178
150226
149991
149988
149957
149683
149687
149633
149308
149379
149394
149220
149167
149079
149057
149083
149094
149012
148974
148914
148949
148965
148969
148924
148904
148868
148947
148868
148869
148861
148883
148869
148834
148841
148857
148865
148851
148832
148809
148828
148853
148821
148808
148801
148814
148825
148829
148820
148831
148838
148816
148813
148809
148833
148836
148829
148805
148812
148822
148807
148798
148795
148826
148829
148827
148815
148824
148830
148808
148806
148804
148830
148847
148853
148841
148829
148806
148806
148812
148817
148865
148858
148837
148815
148840
148855
148819
148814
148808
148833
148852
148859
148854
148837
148810
148803
148812
148820
148870
148865
148847
148827
148847
148861
148815
148825
148827
148799
148816
148914
148903
148880
148842
148823
148827
148838
148777
148821
148823
148853
148865
148855
148838
148840
148837
148815
148812
148865
148879
148866
148852
148834
148835
148841
148783
148822
148824
148855
148862
148847
148849
148841
148839
148825
148818
148777
148846
148856
148848
148831
148830
148827
148846
148799
148805
148852
148863
148875
148841
148839
148834
148812
148814
148871
148886
148867
148843
148825
148826
148821
148899
148801
148786
148827
148873
148882
148811
148809
148811
148839
148848
148846
148823
148823
148824
148794
148789
148790
148825
148834
148839
148836
148810
148796
148787
148788
148802
148826
148821
148814
148807
148807
148809
148773
148771
148775
148818
148822
148818
148807
148793
148785
148774
148773
148783
148814
148813
148813
148784
148789
148788
148745
148744
148830
148817
148814
148781
148769
148763
148763
148790
148801
148804
148797
148780
148776
148742
148742
148755
148783
148782
148780
148751
148755
148757
148723
148713
148776
148772
148771
148754
148736
148731
148733
148782
148780
148768
148746
148751
148758
148712
148708
148710
148747
148755
148758
148718
148722
148723
148684
148671
148734
148726
148729
148714
148697
148690
148693
148743
148745
148738
148719
148711
148708
148668
148666
148674
148698
148698
148691
148684
148674
148672
148660
148662
148599
148685
148683
148687
148650
148648
148645
148701
148700
148696
148671
148657
148651
148643
148603
148620
148645
148654
148648
148613
148611
148617
148630
148639
148636
148629
148619
148611
148597
148605
148584
148640
148639
148630
148598
148601
148606
148614
148617
148613
148587
148582
148583
148528
148560
148558
148581
148575
148574
148537
148540
148545
148573
148572
148568
148532
148542
148555
148521
148506
148545
148576
148577
148561
148524
148520
148522
148532
148538
148536
148505
148500
148502
148410
148482
148484
148510
148487
148503
148459
148465
148474
148486
148488
148487
148454
148455
148459
148490
148503
148507
148477
148470
148464
148423
148422
148430
148452
148455
148448
148414
148412
148413
148422
148428
148423
148398
148401
148410
148319
148390
148384
148411
148393
148414
148365
148369
148375
148398
148407
148413
148362
148358
148359
148373
148377
148375
148335
148339
148344
148303
148292
148340
148326
148336
148323
148298
148295
148299
148321
148323
148316
148281
148277
148276
148307
148311
148305
148285
148284
148289
148241
148270
148260
148283
148276
148282
148229
148233
148239
148244
148248
148248
148203
148203
148207
148223
148231
148230
148195
148195
148195
148161
148154
148186
148195
148203
148188
148157
148155
148158
148195
148194
148183
148146
148147
148150
148175
148173
148164
148129
148123
148119
148141
148070
148084
148102
148133
148110
148076
148070
148071
148087
148098
148093
148044
148045
148048
148075
148081
148082
148036
148041
148047
148006
147989
148064
148058
148076
148038
148003
148006
148015
148017
148022
148011
147967
147965
147966
147981
147984
147979
147942
147939
147939
147957
147961
147955
147925
147925
147934
147843
147908
147894
147922
147902
147925
147868
147876
147885
147898
147901
147901
147872
147864
147863
147872
147880
147879
147830
147828
147829
147842
147851
147852
147797
147803
147805
147764
147751
147816
147787
147807
147779
147747
147747
147754
147767
147772
147762
147723
147721
147722
147743
147745
147738
147700
147698
147697
147746
147741
147728
147692
147695
147695
147712
147638
147652
147660
147697
147666
147636
147625
147623
147637
147650
147647
147581
147583
147589
147604
147610
147607
147562
147561
147565
147577
147585
147582
147549
147540
147542
147512
147531
147448
147548
147517
147543
147504
147497
147491
147518
147516
147510
147459
147455
147457
147467
147470
147464
147418
147414
147414
147430
147433
147427
147386
147386
147388
147414
147411
147400
147360
147361
147357
147401
147301
147321
147329
147385
147333
147313
147297
147296
147321
147337
147331
147280
147277
147277
147291
147301
147302
147237
147236
147240
147246
147254
147253
147199
147198
147200
147209
147219
147220
147164
147169
147168
147127
147114
147168
147147
147166
147139
147101
147102
147110
147114
147119
147109
147060
147057
147057
147076
147080
147073
147030
147028
147031
147053
147053
147043
146997
146996
146998
147022
147020
147008
146963
146965
146963
146987
146896
146918
146925
146978
146936
146907
146890
146887
146899
146914
146909
146838
146840
146844
146859
146869
146867
146798
146801
146808
146818
146827
146824
146776
146773
146773
146784
146795
146795
146742
146744
146740
146694
146677
146739
146719
146739
146703
146658
146660
146670
146669
146674
146663
146609
146605
146605
146633
146633
146623
146568
146561
146558
146580
146582
146574
146525
146524
146525
146552
146549
146536
146486
146488
146483
146524
146412
146440
146440
146511
146449
146422
146400
146398
146413
146429
146423
146358
146356
146356
146364
146373
146370
146304
146303
146308
146312
146320
146316
146262
146259
146260
146263
146271
146268
146207
146207
146210
146216
146226
146224
146173
146169
146167
146110
146121
146106
146136
146130
146132
146077
146073
146071
146081
146083
146076
146016
146009
146009
146024
146028
146020
145965
145961
145962
145968
145973
145967
145915
145913
145916
145931
145933
145922
145875
145878
145878
145850
145805
145818
145821
145848
145825
145781
145771
145771
145781
145796
145796
145709
145712
145717
145721
145731
145728
145661
145658
145661
145655
145662
145658
145590
145589
145593
145591
145597
145589
145549
145543
145541
145481
145498
145478
145497
145493
145500
145445
145442
145440
145451
145454
145445
145380
145376
145377
145393
145393
145383
145316
145310
145308
145320
145323
145314
145252
145251
145254
145263
145263
145250
145191
145192
145194
145144
145110
145118
145113
145135
145116
145047
145044
145050
145051
145062
145054
144986
144984
144988
144997
145007
145002
144938
144934
144936
144931
144940
144936
144859
144859
144863
144866
144879
144879
144815
144809
144808
144722
144716
144735
144760
144767
144742
144672
144667
144673
144674
144678
144664
144583
144578
144581
144565
144569
144561
144475
144460
144446
144484
144491
144482
144433
144435
144432
144419
144341
144369
144369
144412
144383
144324
144309
144307
144308
144323
144321
144228
144228
144232
144230
144242
144238
144154
144153
144156
144150
144168
144170
144088
144077
144073
143978
144007
143958
143997
143978
143989
143904
143897
143889
143847
143858
143860
143761
143743
143730
143781
143786
143778
143718
143714
143713
143736
143738
143723
143656
143661
143657
143649
143541
143577
143560
143611
143571
143502
143486
143482
143487
143511
143516
143393
143395
143399
143378
143390
143381
143285
143283
143285
143268
143286
143290
143173
143169
143173
143043
143021
143071
142977
143009
143008
142940
142930
142931
142985
142985
142969
142895
142890
142888
142898
142903
142891
142806
142805
142805
142819
142818
142800
142722
142721
142727
142641
142604
142613
142612
142643
142626
142526
142517
142523
142488
142501
142493
142373
142371
142374
142345
142364
142367
142226
142220
142225
142067
142015
142051
142066
142092
142069
142009
142002
142011
142042
142040
142024
141938
141932
141933
141933
141938
141924
141824
141820
141820
141817
141821
141805
141713
141722
141729
141569
141567
141559
141581
141591
141602
141451
141459
141464
141414
141422
141418
141260
141262
141270
141199
141207
141203
140954
141010
141048
140916
140892
140870
140998
141006
140988
140913
140912
140912
140904
140913
140900
140792
140789
140792
140776
140783
140769
140668
140677
140683
140509
140493
140494
140510
140529
140527
140388
140390
140397
140341
140358
140356
140213
140200
140188
139940
139931
139946
139837
139867
139880
139730
139685
139649
139738
139761
139761
139690
139686
139687
139708
139714
139696
139606
139612
139618
139449
139426
139431
139442
139478
139473
139303
139300
139313
139262
139280
139277
139123
139119
139109
138867
138866
138886
138878
138886
138859
138697
138679
138678
138445
138494
138519
138344
138290
138227
138140
138174
138202
138298
138321
138315
138195
138201
138206
138188
138211
138208
138065
138063
138057
137826
137822
137857
137827
137844
137813
137664
137657
137668
137584
137592
137573
137361
137370
137378
137056
137034
137040
136920
136933
136896
136487
136583
136676
136668
136653
136600
136571
136579
136588
136460
136479
136463
136535
136523
136505
136360
136354
136343
136326
136330
136312
136134
136145
136150
135843
135815
135822
135785
135821
135810
135553
135552
135569
135352
135367
135357
134909
134965
135025
134584
134452
134318
134651
134688
134695
134663
134659
134658
134511
134534
134509
134524
134538
134552
134303
134321
134335
134248
134268
134267
134019
134017
134006
133608
133594
133608
133567
133565
133542
133268
133262
133279
132543
132637
132708
132527
132427
132310
132339
132382
132435
132279
132284
132249
132405
132405
132378
132220
132205
132193
132162
132169
132142
131890
131905
131910
131434
131414
131428
131298
131325
131325
130943
130931
130948
130252
130126
129998
129729
129887
130028
129950
129872
129796
129776
129797
129817
129917
129951
129941
129798
129796
129786
129408
129395
129403
129295
129287
129256
128875
128881
128890
128116
128110
128168
127645
127463
127270
126868
127132
127327
127199
127113
126978
127035
127057
127088
127209
127272
127254
127057
127047
127038
126524
126529
126508
126163
126162
126158
125589
125495
125435
123728
124126
124457
124031
123844
123620
124335
124385
124375
124462
124458
124455
124273
124282
124267
123791
123695
123815
123283
123358
123383
122609
122391
122138
120530
121071
121466
121206
121024
120815
121785
121804
121729
121767
121766
121766
121428
121437
121454
120637
120529
120640
118028
118716
119071
119221
118994
118845
119420
119398
119482
119509
119443
119434
119157
119194
119303
118541
118169
117622
117332
117689
117990
118030
117954
117714
118822
118845
118785
119002
118773
118337
118086
118656
118957
119155
119001
118743
119650
119796
119801
120662
120552
120264
121401
121524
121551
122420
122446
122411
123125
123143
123122
123667
123678
123664
124117
124126
124121
124519
124522
124515
124870
124876
124875
125195
125194
125189
125477
125483
125484
125749
125746
125742
125985
125988
125991
126215
126212
126210
126417
126419
126421
126613
126610
126607
126783
126786
126790
126954
126950
126948
127101
127103
127106
127249
127246
127244
127378
127380
127383
127508
127505
127503
127621
127622
127626
127737
127733
127732
127836
127838
127840
127939
127936
127935
128028
128029
128031
128120
128117
128116
128200
128201
128203
128282
128280
128279
128354
128355
128357
128429
128427
128426
128493
128495
128496
128562
128560
128559
128620
128621
128623
128682
128680
128679
128735
128736
128737
128791
128790
128789
128840
128840
128841
128891
128889
128889
128935
128936
128936
128982
128980
128980
129022
129023
129023
129065
129064
129063
129102
129102
129103
129141
129140
129139
129175
129175
129176
129210
129210
129209
129242
129242
129242
129274
129274
129273
129303
129303
129303
129333
129332
129332
129359
129360
129360
129387
129387
129386
129411
129412
129411
129436
129436
129436
129459
129459
129459
129482
129482
129482
129503
129503
129503
129524
129524
129524
129543
129543
129543
129563
129563
129562
129580
129581
129580
129598
129598
129598
129615
129615
129614
129631
129631
129631
129646
129646
129646
129662
129662
129662
129676
129676
129675
129690
129690
129690
129703
129703
129702
129716
129716
129716
129728
129728
129727
129740
129740
129740
129751
129751
129750
129762
129762
129762
129772
129772
129772
129782
129782
129782
129792
129792
129791
129801
129801
129801
129810
129810
129809
129818
129819
129818
129826
129826
129826
129834
129835
129834
129842
129842
129842
129849
129849
129849
129856
129856
129856
129863
129863
129863
129869
129869
129869
129876
129876
129876
129882
129882
129881
129888
129888
129888
129893
129893
129893
129899
129899
129898
129903
129903
129903
129909
129909
129909
129913
129913
129913
129918
129918
129918
129922
129922
129922
129927
129927
129927
129930
129930
129930
129935
129935
129935
129938
129938
129938
129942
129942
129942
129945
129945
129945
129949
129949
129949
129952
129952
129952
129956
129955
129955
129958
129958
129958
129961
129961
129961
129964
129964
129964
129967
129967
129967
129969
129969
129969
129972
129972
129972
129974
129974
129974
129977
129976
129976
129978
129978
129978
129981
129981
129981
129982
129982
129982
129985
129985
129985
129986
129986
129986
129988
129988
129988
129990
129990
129989
129991
129991
129991
129993
129993
129993
129994
129994
129994
129996
129996
129995
129997
129997
129997
129998
129998
129998
130000
130000
130000
130001
130001
130000
130002
130002
130002
130003
130003
130003
130004
130004
130004
130005
130005
130005
130006
130006
130006
130007
130006
130006
130008
130007
130007
130008
130008
130008
130009
130009
130009
130009
130009
130009
130010
130010
130010
130011
130010
130010
130011
130011
130011
130012
130011
130011
130012
130012
130012
130012
130012
130012
130013
130013
130013
130013
130013
130013
130013
130013
130013
130013
130013
130013
130014
130014
130014
130014
130014
130013
130014
130014
130014
130014
130014
130014
130014
130014
130014
130014
130014
130014
130014
130014
130014
130014
130014
130014
130014
130014
130014
130014
130013
130013
130013
130013
130013
130013
130013
130013
130013
130013
130013
130013
130013
130012
130012
130012
130012
130012
130012
130012
130012
130012
130012
130011
130011
130011
130011
130011
130011
130010
130010
130010
130010
130010
130010
130009
130009
130009
130008
130008
130008
130008
130008
130007
130007
130007
130007
130006
130006
130006
130005
130005
130005
130004
130004
130004
130003
130003
130003
130002
130002
130002
130001
130001
130001
130000
129999
129999
129998
129998
129998
129997
129997
129997
129996
129996
129996
129994
129994
129994
129993
129993
129993
129992
129992
129991
129990
129990
129990
129989
129989
129989
129988
129988
129988
129986
129986
129986
129985
129985
129985
129983
129983
129983
129982
129982
129982
129980
129980
129980
129980
129980
129980
129979
129979
129978
129977
129977
129977
129973
129973
129973
129967
129967
129968
129965
129964
129963
129972
129973
129973
130004
130006
130007
130031
130027
130024
130040
130067
130036
130014
129986
130035
130070
130028
130003
130028
130055
130044
130028
130019
130014
130012
130011
130012
130012
130012
130012
130013
130013
130013
130013
130012
130012
130012
130011
130011
130010
130011
130010
130008
130010
130016
130021
130029
130037
130047
130058
130070
130082
130093
130101
130106
130109
130113
130118
130124
130132
130141
130150
130161
130173
130186
130200
130217
130235
130256
130280
130307
130337
130372
130411
130456
130507
130564
130628
130701
130782
130873
130975
131089
131215
131354
131508
131677
131862
132063
132281
132515
132765
133032
133314
133611
133921
134243
134576
134917
135266
135621
135979
136341
136702
137064
137423
137779
138130
138477
138817
139150
139475
139793
140102
140403
140695
140978
141251
141516
141772
142019
142257
142486
142707
142920
143124
143321
143511
143693
143867
144036
144197
144352
144501
144644
144782
144914
145041
145163
145280
145392
145500
145604
145703
145799
145891
145979
146064
146146
146224
146300
146372
146442
146509
146574
146636
146696
146753
146808
146861
146912
146961
147009
147054
147098
147140
147181
147220
147257
147293
147328
147361
147393
147424
147454
147483
147510
147536
147562
147586
147610
147632
147653
147674
147694
147713
147731
147749
147765
147781
147796
147811
147825
147838
147850
147862
147873
147884
147894
147903
147912
147921
147928
147935
147942
147948
147953
147958
147963
147967
147970
147976
147983
147989
147992
147992
147994
147982
147989
147990
147998
148005
148010
148014
148018
148023
148028
148033
148039
148044
148051
148057
148064
148071
148079
148086
148095
148103
148112
148121
148131
148141
148151
148161
148172
148183
148194
148205
148217
148228
148240
148252
148264
148277
148289
148301
148314
148327
148339
148352
148365
148378
148391
148403
148416
148429
148441
148454
148466
148479
148491
148503
148515
148527
148538
148550
148561
148572
148583
148593
148604
148614
148623
148633
148642
148650
148659
148667
148674
148682
148689
148695
148701
148707
148713
148718
148723
148727
148731
148732
148733
148735
148740
148749
148755
148757
148754
148752
148750
148748
148747
148746
148745
148745
148745
148746
148746
148747
148748
148749
148750
148752
148754
148756
148758
148761
148763
148766
148768
148772
148775
148778
148781
148786
148789
148793
148797
148802
148806
148811
148815
148820
148825
148831
148835
148841
148846
148853
148858
148865
148871
148878
148884
148891
148897
148905
148912
148920
148927
148935
148942
148951
148958
148967
148975
148984
148992
149002
149010
149020
149029
149039
149048
149058
149067
149077
149086
149097
149106
149116
149125
149136
149145
149155
149163
149173
149182
149191
149199
149207
149214
149222
149229
149235
149240
149246
149250
149254
149256
149259
149259
149260
149260
149259
149256
149254
149249
149245
149238
149233
149226
149220
149211
149205
149196
149188
149179
149171
149162
149154
149145
149138
149128
149122
149113
149107
149099
149093
149086
149081
149074
149070
149064
149061
149056
149053
149048
149046
149042
149040
149037
149036
149033
149032
149029
149028
149026
149025
149023
149022
149021
149020
149019
149018
149016
149017
149015
149014
149014
149013
149012
149011
149010
149010
149008
149008
149006
149007
149005
149005
149004
149003
149003
149000
149001
149003
149005
149003
149003
149004
149003
149001
149001
149002
149002
149003
149002
149003
149004
149005
149005
149004
149007
149006
149007
149008
149008
149009
149008
149009
149009
149012
149011
149010
149013
149012
149013
149014
149014
149015
149016
149016
149017
149018
149017
149018
149020
149019
149020
149022
149022
149023
149025
149024
149025
149028
149027
149029
149031
149030
149032
149035
149034
149036
149040
149038
149041
149045
149043
149047
149052
149049
149054
149059
149057
149062
149068
149066
149072
149079
149076
149083
149091
149088
149096
149104
149102
149110
149119
149117
149126
149135
149133
149142
149152
149151
149159
149169
149168
149176
149186
149186
149193
149203
149203
149209
149218
149219
149224
149232
149234
149237
149245
149247
149248
149254
149258
149257
149260
149263
149261
149262
149264
149261
149261
149263
149258
149257
149258
149252
149249
149250
149242
149239
149239
149231
149226
149226
149217
149211
149210
149201
149195
149193
149184
149177
149175
149165
149158
149156
149147
149139
149137
149127
149120
149117
149108
149100
149098
149088
149081
149078
149069
149061
149058
149049
149042
149039
149030
149024
149021
149012
149005
149003
148994
148988
148985
148977
148970
148968
148960
148954
148951
148944
148938
148936
148928
148923
148920
148913
148908
148906
148899
148894
148892
148885
148880
148879
148872
148868
148866
148859
148855
148854
148848
148844
148843
148836
148833
148832
148826
148823
148822
148816
148813
148812
148807
148804
148803
148798
148795
148795
148790
148787
148787
148782
148780
148780
148776
148774
148773
148769
148768
148768
148764
148762
148762
148759
148758
148758
148755
148754
148754
148751
148751
148751
148749
148748
148748
148747
148747
148747
148746
148746
148747
148746
148747
148746
148747
148748
148747
148749
148751
148749
148753
148743
148745
148746
148747
148748
148750
148752
148756
148760
148764
148769
148775
148782
148789
148796
148805
148814
148823
148833
148844
148855
148867
148880
148893
148907
148921
148936
148952
148969
148986
149003
149021
149040
149059
149079
149099
149119
149139
149158
149178
149197
149214
149231
149245
149257
149267
149272
149273
149272
149266
149253
149238
149222
149204
149186
149167
149148
149130
149113
149098
149084
149072
149062
149054
149047
149041
149036
149032
149029
149026
149023
149021
149019
149017
149016
149014
149012
149011
149009
149008
149007
149005
149004
149003
149002
149002
149001
149002
149002
149000
149002
149000
149001
149001
149001
149000
149001
149002
149003
149004
149005
149006
149007
149009
149010
149012
149013
149014
149016
149018
149019
149021
149020
149018
149017
149015
149014
149013
149011
149010
149009
149007
149006
149005
149004
149003
149002
149001
149001
149000
149001
149001
149000
149001
149001
149002
149003
149004
149004
149003
149002
149001
149000
149001
149002
149000
149000
149001
149001
149001
149002
149003
149004
149005
149005