/*--------------------------------*- C++ -*----------------------------------*\
| =========                 |                                                 |
| \\      /  F ield         | OpenFOAM: The Open Source CFD Toolbox           |
|  \\    /   O peration     | Version:  v2006                                 |
|   \\  /    A nd           | Website:  www.openfoam.com                      |
|    \\/     M anipulation  |                                                 |
\*---------------------------------------------------------------------------*/
FoamFile
{
    version     2.0;
    format      ascii;
    class       volVectorField;
    location    "0.038";
    object      U;
}
// * * * * * * * * * * * * * * * * * * * * * * * * * * * * * * * * * * * * * //

dimensions      [0 1 -1 0 0 0 0];


internalField   nonuniform List<vector> 
16277
(
(48.3106 0.00152181 -2.96511e-19)
(48.3109 -0.00372785 0)
(48.3105 0.00394944 0)
(48.3102 -0.00331136 0)
(48.3101 0.000466348 -4.55498e-21)
(48.3085 -0.00130576 -7.34859e-19)
(48.3037 -0.00127483 8.88856e-19)
(48.2884 -0.00356599 0)
(48.2532 -0.00793452 0)
(48.1973 -0.0139995 0)
(48.1264 -0.0207566 -3.42898e-21)
(48.0483 -0.0271699 -6.9897e-21)
(47.9679 -0.0329008 1.76992e-21)
(47.8869 -0.0379494 0)
(47.8053 -0.0425007 0)
(47.7222 -0.0467216 0)
(47.6365 -0.0507261 0)
(47.5476 -0.0545739 0)
(47.455 -0.0582824 0)
(47.3584 -0.0618535 0)
(47.2578 -0.065285 0)
(47.1534 -0.0685801 0)
(47.0452 -0.071748 0)
(46.9333 -0.0748017 0)
(46.8176 -0.077755 0)
(46.6983 -0.0806193 0)
(46.5754 -0.0834033 0)
(46.449 -0.0861123 0)
(46.319 -0.0887489 0)
(46.1856 -0.091313 0)
(46.0489 -0.0938032 0)
(45.909 -0.0962168 0)
(45.7659 -0.0985503 0)
(45.6199 -0.1008 0)
(45.4709 -0.10296 0)
(45.3192 -0.105028 0)
(45.1649 -0.106997 0)
(45.0081 -0.108862 0)
(44.8489 -0.11062 0)
(44.6876 -0.112265 0)
(44.5242 -0.113794 0)
(44.3589 -0.115202 0)
(44.192 -0.116484 0)
(44.0235 -0.117638 0)
(43.8536 -0.11866 0)
(43.6826 -0.119544 0)
(43.5105 -0.12029 0)
(43.3377 -0.120892 0)
(43.1642 -0.121349 0)
(42.9903 -0.121657 0)
(42.8161 -0.121814 0)
(42.6419 -0.121817 0)
(42.4679 -0.121665 0)
(42.2942 -0.121356 0)
(42.1211 -0.120881 0)
(41.9487 -0.120238 0)
(41.7774 -0.119437 0)
(41.6072 -0.118481 0)
(41.4385 -0.117358 0)
(41.2714 -0.11607 0)
(41.1061 -0.114617 0)
(40.9429 -0.113 0)
(40.7819 -0.111219 0)
(40.6234 -0.109274 0)
(40.4676 -0.107168 0)
(40.3146 -0.104901 0)
(40.1648 -0.102473 0)
(40.0182 -0.0998834 0)
(39.875 -0.0971285 0)
(39.7355 -0.0942032 0)
(39.5998 -0.0910987 0)
(39.468 -0.0878032 0)
(39.3405 -0.0843042 0)
(39.2174 -0.0805923 0)
(39.0988 -0.0766632 0)
(38.985 -0.0725149 0)
(38.8757 -0.0681304 0)
(38.7705 -0.0634386 0)
(38.6682 -0.0582476 -3.00493e-20)
(38.5677 -0.052241 2.99843e-20)
(38.4685 -0.0449587 0)
(38.3729 -0.0361889 8.95491e-20)
(38.289 -0.0265661 -5.91617e-20)
(38.2301 -0.0181953 0)
(38.2041 -0.0128895 -1.71821e-18)
(38.2035 -0.0105381 1.11653e-18)
(38.2138 -0.00963699 0)
(38.2259 -0.00942956 0)
(38.2357 -0.00934775 0)
(38.2347 -0.00737794 1.73932e-17)
(38.2273 -0.00459128 -1.02947e-17)
(38.2028 -0.0102781 -1.26065e-17)
(38.1411 -0.0202354 -3.7891e-18)
(38.038 -0.0398367 2.12399e-18)
(37.8701 -0.0576752 0)
(37.6772 -0.0669749 0)
(36.9673 -0.10251 -2.76464e-19)
(36.5115 -0.0930336 2.32498e-18)
(37.6856 -0.113582 1.73395e-18)
(37.9172 -0.0967235 -5.82541e-18)
(37.9413 -0.119281 0)
(37.6343 -0.133697 1.79674e-18)
(35.9973 -0.0920259 1.93172e-18)
(35.4886 -0.0845102 7.19745e-19)
(37.5735 -0.133333 4.01157e-19)
(37.9636 -0.124066 1.33772e-18)
(37.9612 -0.121227 1.33869e-18)
(37.4801 -0.122889 0)
(35.0209 -0.0739627 -1.25576e-18)
(34.5897 -0.0643117 1.16909e-19)
(37.3811 -0.112495 0)
(37.9472 -0.117986 0)
(37.9081 -0.113505 1.65975e-19)
(37.2531 -0.10353 0)
(34.1871 -0.0571911 2.48864e-24)
(33.8233 -0.0518314 1.35719e-19)
(37.1366 -0.096701 0)
(37.8671 -0.111121 -1.66819e-19)
(37.8077 -0.107628 1.05546e-20)
(37.0042 -0.0912408 3.94186e-19)
(33.4791 -0.0475888 -5.0699e-19)
(33.1775 -0.0430667 4.92637e-19)
(36.8895 -0.0857931 3.96119e-19)
(37.7549 -0.107156 -6.88761e-19)
(37.6835 -0.102985 -6.81603e-19)
(36.7507 -0.0810903 -7.95288e-19)
(32.8853 -0.0400338 0)
(32.6245 -0.0364056 4.95058e-19)
(36.6337 -0.0770683 -4.10797e-19)
(37.6191 -0.102209 -1.06783e-20)
(37.537 -0.0979512 6.94611e-19)
(36.4918 -0.0731101 -4.11036e-19)
(32.3671 -0.0343475 -4.95341e-19)
(32.1345 -0.0315979 0)
(36.3739 -0.0702865 0)
(37.4654 -0.0973536 0)
(37.3771 -0.0938516 6.84299e-19)
(36.2318 -0.0671199 0)
(31.9036 -0.0301979 0)
(31.695 -0.0279279 0)
(36.1171 -0.0651652 0)
(37.3026 -0.093993 0)
(37.2076 -0.0907187 0)
(35.9739 -0.0625607 0)
(31.4822 -0.0270651 0)
(31.2885 -0.0251987 0)
(35.8589 -0.061 0)
(37.128 -0.0907161 0)
(37.0268 -0.0878748 0)
(35.7138 -0.0589233 0)
(31.0882 -0.02474 0)
(30.9069 -0.0229798 0)
(35.5998 -0.0577663 0)
(36.9442 -0.088391 0)
(36.8406 -0.085755 0)
(35.4562 -0.0562138 0)
(30.7198 -0.0230491 0)
(30.5489 -0.0211521 0)
(35.344 -0.0551411 0)
(36.7561 -0.0866072 0)
(36.6494 -0.0842858 0)
(35.2005 -0.0540629 0)
(30.3705 -0.0216482 0)
(30.2072 -0.0197293 0)
(35.089 -0.0532028 0)
(36.5625 -0.085337 0)
(36.4528 -0.0833307 0)
(34.9451 -0.0524748 0)
(30.0356 -0.0205105 0)
(29.8781 -0.0186408 0)
(34.834 -0.0516905 0)
(36.3638 -0.0844227 0)
(36.2512 -0.082711 0)
(34.6896 -0.051246 0)
(29.7117 -0.0196249 0)
(29.5588 -0.017766 0)
(34.5784 -0.0505402 0)
(36.16 -0.0839187 0)
(36.0444 -0.0824809 0)
(34.4331 -0.0503554 0)
(29.3964 -0.018927 0)
(29.2469 -0.0170608 0)
(34.3214 -0.0497033 0)
(35.9508 -0.0837915 0)
(35.8322 -0.082601 0)
(34.1749 -0.0497534 0)
(29.0874 -0.0183806 0)
(28.9403 -0.0164926 0)
(34.0622 -0.0491306 0)
(35.7361 -0.0839957 0)
(35.6142 -0.0830282 0)
(33.9141 -0.049393 0)
(28.7829 -0.0179576 0)
(28.6374 -0.0161186 0)
(33.8 -0.048778 0)
(35.5154 -0.0844365 0)
(35.3902 -0.0836944 0)
(33.6502 -0.0492212 0)
(28.4814 -0.0176789 0)
(28.337 -0.0158113 0)
(33.5345 -0.0485788 0)
(35.2885 -0.085135 0)
(35.1599 -0.0845995 0)
(33.3826 -0.0492078 0)
(28.1818 -0.0174718 0)
(28.0379 -0.0156358 0)
(33.265 -0.0485452 0)
(35.0552 -0.0860699 0)
(34.9229 -0.0857313 6.86118e-19)
(33.1108 -0.0493387 0)
(27.883 -0.017364 0)
(27.7391 -0.0155593 0)
(32.9908 -0.048647 0)
(34.8149 -0.087249 0)
(34.6789 -0.0870947 0)
(32.8341 -0.0496034 0)
(27.5841 -0.0173408 0)
(27.4398 -0.0155437 0)
(32.7115 -0.0488241 0)
(34.5673 -0.0886555 0)
(34.4274 -0.0886048 0)
(32.552 -0.0499485 0)
(27.2843 -0.0173786 0)
(27.1391 -0.0155967 0)
(32.4266 -0.0492057 0)
(34.3121 -0.090101 0)
(34.1679 -0.0902212 0)
(32.264 -0.0504359 0)
(26.9827 -0.0174544 0)
(26.8362 -0.0156774 0)
(32.1355 -0.0497278 0)
(34.0487 -0.0917345 0)
(33.9001 -0.0920389 6.86552e-19)
(31.9696 -0.051057 0)
(26.6784 -0.0175654 0)
(26.5304 -0.0157983 0)
(31.8377 -0.0503665 0)
(33.7768 -0.093585 0)
(33.6235 -0.0940632 0)
(31.6681 -0.0517969 0)
(26.3709 -0.017721 0)
(26.2209 -0.0159628 0)
(31.5325 -0.0511236 0)
(33.4958 -0.0956463 0)
(33.3377 -0.0962866 0)
(31.3591 -0.0526522 0)
(26.0593 -0.0179209 0)
(25.9069 -0.0161689 0)
(31.2194 -0.0519967 0)
(33.2053 -0.0979112 0)
(33.0421 -0.0987014 0)
(31.0418 -0.0536182 0)
(25.7429 -0.018162 0)
(25.5879 -0.0164125 0)
(30.8979 -0.0529815 0)
(32.9048 -0.100371 0)
(32.7363 -0.101297 6.8698e-19)
(30.7158 -0.0546883 0)
(25.4211 -0.0184401 0)
(25.2631 -0.0166886 0)
(30.5673 -0.0540717 0)
(32.5938 -0.103013 0)
(32.4199 -0.104057 0)
(30.3805 -0.0558538 0)
(25.0932 -0.0187499 0)
(24.9319 -0.0169921 0)
(30.2272 -0.0552572 0)
(32.272 -0.105819 0)
(32.0923 -0.106963 0)
(30.0355 -0.0571037 0)
(24.7587 -0.0190867 0)
(24.5939 -0.0173244 0)
(29.8772 -0.0565165 0)
(31.9389 -0.108759 0)
(31.7534 -0.109983 0)
(29.6804 -0.058415 0)
(24.4171 -0.0194474 0)
(24.2486 -0.0176785 0)
(29.5169 -0.057826 0)
(31.5943 -0.111802 0)
(31.4029 -0.113082 6.87421e-19)
(29.3149 -0.0597659 0)
(24.0682 -0.0198248 0)
(23.8958 -0.0180445 0)
(29.1461 -0.0591595 0)
(31.2379 -0.114897 0)
(31.0405 -0.1162 0)
(28.9389 -0.0611218 0)
(23.7116 -0.0202046 0)
(23.5355 -0.0184049 0)
(28.7648 -0.0604754 0)
(30.8697 -0.117975 0)
(30.6663 -0.119254 0)
(28.5524 -0.0624354 0)
(23.3475 -0.0205658 0)
(23.1678 -0.0187364 0)
(28.373 -0.0617189 0)
(30.4898 -0.120941 0)
(30.2807 -0.12215 0)
(28.1558 -0.0636526 0)
(22.9764 -0.0208944 0)
(22.7934 -0.0190299 0)
(27.9715 -0.0628388 0)
(30.0987 -0.123695 0)
(29.8842 -0.124781 0)
(27.7497 -0.0647197 0)
(22.5989 -0.0211729 0)
(22.4131 -0.0192603 0)
(27.561 -0.0637722 0)
(29.6972 -0.126118 0)
(29.4779 -0.127017 0)
(27.3354 -0.0655662 0)
(22.2161 -0.0213744 0)
(22.0282 -0.0193989 0)
(27.143 -0.0644385 0)
(29.2865 -0.128063 0)
(29.0631 -0.128693 0)
(26.9143 -0.0661021 0)
(21.8297 -0.0214669 0)
(21.6408 -0.0194105 0)
(26.7192 -0.0647362 0)
(28.8684 -0.129341 0)
(28.642 -0.129601 0)
(26.4887 -0.0662152 0)
(21.4418 -0.0214114 0)
(21.2533 -0.0192521 0)
(26.2923 -0.0645383 0)
(28.4451 -0.129716 0)
(28.2173 -0.129483 0)
(26.0614 -0.0657661 0)
(21.0555 -0.0211611 0)
(20.8692 -0.0188733 0)
(25.8655 -0.0636919 0)
(28.0197 -0.128904 0)
(27.7923 -0.128039 0)
(25.6365 -0.0645941 0)
(20.6745 -0.0206597 0)
(20.4927 -0.0182137 0)
(25.4433 -0.0620248 0)
(27.5964 -0.126577 0)
(27.3717 -0.124926 0)
(25.2186 -0.0625224 0)
(20.3038 -0.019842 0)
(20.1294 -0.0172057 0)
(25.031 -0.0593461 0)
(27.18 -0.122366 0)
(26.9611 -0.119759 0)
(24.8138 -0.0593418 0)
(19.9493 -0.018633 0)
(19.7857 -0.0157757 0)
(24.6354 -0.0554253 0)
(26.7769 -0.115851 0)
(26.5675 -0.112099 0)
(24.4296 -0.0548127 0)
(19.6184 -0.0169428 0)
(19.47 -0.0138384 0)
(24.2646 -0.0500087 0)
(26.3949 -0.106555 0)
(26.1993 -0.101506 0)
(24.0748 -0.0486936 0)
(19.3199 -0.014667 0)
(19.1914 -0.0113258 0)
(23.9283 -0.04289 0)
(26.043 -0.0940846 0)
(25.8662 -0.0876165 0)
(23.7597 -0.040783 0)
(19.0637 -0.0117786 0)
(18.9617 -0.00822943 0)
(23.6366 -0.0336615 0)
(25.7315 -0.0779589 0)
(25.5791 -0.0698291 0)
(23.4954 -0.0305268 0)
(18.8616 -0.00809123 0)
(18.7965 -0.00429855 0)
(23.4015 -0.0225036 0)
(25.4708 -0.0578616 0)
(25.349 -0.0480095 0)
(23.2939 -0.0186739 0)
(18.7279 -0.00395601 0)
(18.7043 0.000152775 0)
(23.2365 -0.0102808 0)
(25.2754 -0.0337888 0)
(25.1884 -0.0230929 0)
(23.1674 -0.0056097 0)
(18.6707 0.000629367 0)
(18.6926 0.00493741 0)
(23.1514 0.00354379 0)
(25.1544 -0.00731751 0)
(25.1063 0.0033492 0)
(23.1246 0.00824476 0)
(18.6967 0.00516262 0)
(18.7654 0.00979635 0)
(23.1525 0.0180117 0)
(25.1146 0.0200319 0)
(25.108 0.0304324 0)
(23.17 0.022316 0)
(18.8082 0.00944447 0)
(18.9188 0.0139293 6.21952e-20)
(23.2389 0.0313523 0)
(25.1564 0.0453473 0)
(25.1886 0.0568712 0)
(23.2966 0.0364463 0)
(18.999 0.0138697 -6.21952e-20)
(19.1561 0.0187259 6.21905e-20)
(23.4122 0.0461548 0)
(25.2833 0.0733958 0)
(25.3596 0.084019 0)
(23.5158 0.050473 0)
(19.2814 0.0189928 -6.21904e-20)
(19.4827 0.0236909 6.21842e-20)
(23.6793 0.0601033 0)
(25.5023 0.100628 0)
(25.6206 0.104468 0)
(23.8243 0.0598004 0)
(19.6436 0.0216261 -6.21843e-20)
(19.8673 0.025785 6.2177e-20)
(24.0181 0.0681527 0)
(25.7946 0.118428 0)
(25.9418 0.118473 0)
(24.1901 0.065775 0)
(20.0469 0.0230231 -6.21773e-20)
(20.2836 0.0264561 6.21692e-20)
(24.4057 0.0724239 0)
(26.1399 0.12947 0)
(26.3079 0.126634 0)
(24.5956 0.0685235 0)
(20.4723 0.0232051 -6.21698e-20)
(20.7136 0.0262776 6.21612e-20)
(24.8241 0.074155 0)
(26.5221 0.135669 0)
(26.7039 0.130514 0)
(25.0243 0.0690948 0)
(20.904 0.0226543 -6.21621e-20)
(21.1437 0.0253972 6.21531e-20)
(25.2589 0.0737155 0)
(26.9278 0.137634 0)
(27.117 0.13043 0)
(25.4627 0.0676405 0)
(21.3298 0.0214887 -6.21543e-20)
(21.562 0.023873 6.21453e-20)
(25.6969 0.0712591 0)
(27.3441 0.135639 0)
(27.5345 0.126778 0)
(25.898 0.0643808 0)
(21.7379 0.0197446 -6.21468e-20)
(21.9577 0.0218359 6.21378e-20)
(26.1259 0.0670908 0)
(27.759 0.130214 0)
(27.9451 0.120118 0)
(26.3189 0.0596521 0)
(22.1188 0.0175782 -6.21397e-20)
(22.3222 0.0194292 6.21309e-20)
(26.5357 0.0615843 0)
(28.1619 0.121984 0)
(28.3389 0.111044 0)
(26.716 0.053807 0)
(22.465 0.0150994 -6.21331e-20)
(22.6491 0.0167555 6.21247e-20)
(26.918 0.0550901 0)
(28.5439 0.111541 0)
(28.7079 0.100164 0)
(27.0819 0.0471723 0)
(22.7711 0.0124179 -6.21271e-20)
(22.9342 0.0140244 6.21191e-20)
(27.266 0.0480103 0)
(28.8977 0.0995128 0)
(29.0459 0.0880577 0)
(27.4105 0.0401913 0)
(23.0348 0.00988839 -6.21217e-20)
(23.1759 0.0114624 5.59042e-19)
(27.5749 0.0407776 4.12944e-19)
(29.2181 0.086597 -1.37621e-18)
(29.3477 0.0753759 0)
(27.6977 0.0332741 0)
(23.2567 0.00776048 -6.21168e-20)
(23.3746 0.00896771 6.21105e-20)
(27.8418 0.0334661 0)
(29.5011 0.0734244 -6.88046e-19)
(29.6119 0.0627258 0)
(27.9437 0.026636 0)
(23.4358 0.00552167 -6.21128e-20)
(23.5314 0.00652489 6.21074e-20)
(28.0674 0.0265065 0)
(29.746 0.0604757 0)
(29.8382 0.0505442 0)
(28.1488 0.0203231 0)
(23.574 0.0034539 -6.21095e-20)
(23.6489 0.00440511 6.2105e-20)
(28.253 0.0201289 0)
(29.9532 0.0483041 0)
(30.0273 0.0393299 0)
(28.3151 0.0145911 0)
(23.6747 0.00164539 -6.21068e-20)
(23.7313 0.00261551 6.21031e-20)
(28.401 0.0144636 0)
(30.1243 0.0372791 0)
(30.1817 0.0295339 0)
(28.4455 0.00966484 0)
(23.7426 0.000168967 -6.21047e-20)
(23.784 0.00122115 6.21019e-20)
(28.5155 0.00971916 0)
(30.2625 0.0277896 0)
(30.3051 0.021272 0)
(28.5448 0.00565365 0)
(23.7834 -0.000942562 -6.21034e-20)
(23.8125 0.000202542 6.21013e-20)
(28.601 0.00592303 0)
(30.372 0.0198835 0)
(30.4018 0.014448 0)
(28.6175 0.00243777 0)
(23.8027 -0.00175242 -6.21027e-20)
(23.8223 -0.00053967 6.2101e-20)
(28.6624 0.00289038 0)
(30.4569 0.0134225 0)
(30.4761 0.00898204 0)
(28.6684 -6.89377e-05 0)
(23.8055 -0.00231808 -6.21022e-20)
(23.8179 -0.00104052 6.21009e-20)
(28.7041 0.000566659 0)
(30.5213 0.00831756 0)
(30.5318 0.00465782 0)
(28.7016 -0.00200179 0)
(23.796 -0.00271263 -6.21019e-20)
(23.8033 -0.00138221 6.21008e-20)
(28.73 -0.00122631 0)
(30.5691 0.00420327 0)
(30.5725 0.00139766 0)
(28.721 -0.00335082 0)
(23.7778 -0.00292934 -6.21016e-20)
(23.7813 -0.00153292 6.21009e-20)
(28.7435 -0.0023813 0)
(30.6034 0.00120206 0)
(30.6011 -0.00103371 0)
(28.7294 -0.00421276 0)
(23.7533 -0.00300332 -6.21017e-20)
(23.7545 -0.00160882 6.21013e-20)
(28.7476 -0.00318915 0)
(30.6271 -0.00112307 0)
(30.6203 -0.00263061 0)
(28.7295 -0.0046885 0)
(23.7247 -0.00297494 -6.2102e-20)
(23.7246 -0.00179631 6.21017e-20)
(28.7447 -0.00426571 0)
(30.6424 -0.0034006 0)
(30.6322 -0.00344855 0)
(28.7237 -0.00465567 0)
(23.6938 -0.00280066 -6.21025e-20)
(23.6924 -0.00200335 6.2102e-20)
(28.7361 -0.00510597 0)
(30.6512 -0.00527872 0)
(30.6383 -0.00454464 0)
(28.7135 -0.00492025 0)
(23.6618 -0.00268777 -6.21019e-20)
(23.6588 -0.00124064 6.21011e-20)
(28.7233 -0.00352387 0)
(30.6549 -0.00390175 0)
(30.6398 -0.00815822 0)
(28.6991 -0.00734416 0)
(23.6281 -0.00346992 -6.21012e-20)
(23.6269 -0.00129777 6.21012e-20)
(28.7089 -0.00366788 0)
(30.655 -0.00440786 0)
(30.6377 -0.00638676 0)
(28.6819 -0.005795 0)
(23.5938 -0.00277397 -6.21019e-20)
(23.5935 -0.00205324 6.21017e-20)
(28.6916 -0.00614634 0)
(30.6519 -0.0081967 0)
(30.6337 -0.00526728 0)
(28.6648 -0.00434979 0)
(23.5619 -0.00205767 -6.21026e-20)
(23.5592 -0.00150415 6.21035e-20)
(28.6719 -0.0048341 0)
(30.6461 -0.00666422 -6.88e-19)
(30.6273 -0.00662567 0)
(28.645 -0.00526802 0)
(23.5285 -0.002467 -6.21043e-20)
(23.5274 -0.00143262 6.21052e-20)
(28.6528 -0.00464987 0)
(30.6397 -0.0064502 0)
(30.6195 -0.00738409 0)
(28.6251 -0.00547555 0)
(23.4964 -0.00236971 -6.21053e-20)
(23.4956 -0.000775283 6.21049e-20)
(28.6328 -0.00323193 0)
(30.6318 -0.00518298 0)
(30.6117 -0.00736789 0)
(28.605 -0.00571907 0)
(23.4648 -0.00256389 -6.21056e-20)
(23.4648 -0.00117316 6.21045e-20)
(28.6127 -0.00440157 0)
(30.6233 -0.0065022 0)
(30.6032 -0.00775623 0)
(28.5857 -0.0061875 0)
(23.4356 -0.00276146 -6.20743e-20)
(23.4371 -0.00117115 6.20119e-20)
(28.5943 -0.00403801 0)
(30.6154 -0.00555939 -6.86707e-19)
(30.5954 -0.00620045 -6.83694e-19)
(28.5678 -0.00489605 3.07381e-19)
(23.4085 -0.00224371 -5.53986e-19)
(23.413 -0.000606292 0)
(28.58 -0.00191623 5.14001e-25)
(30.6155 -0.00222854 0)
(30.6018 -0.00163744 -6.67791e-19)
(28.5587 -0.00167553 9.95159e-20)
(23.3846 -0.000454698 0)
(23.4196 0.00160412 -9.67717e-19)
(28.5845 0.00166765 -5.36969e-25)
(30.6308 0.00322977 -6.65911e-19)
(30.626 0.0136361 0)
(28.5867 0.00792634 0)
(23.4117 0.00259909 9.04765e-19)
(23.4882 0.0117996 -2.45013e-19)
(28.6589 0.0214044 -4.01896e-18)
(30.6917 0.0294978 8.52204e-25)
(30.7477 0.0662007 5.11463e-18)
(28.7413 0.0510699 0)
(23.6347 0.0274164 -1.55979e-18)
(23.9238 0.0677763 -2.01061e-18)
(28.938 0.0990357 1.59557e-17)
(30.9313 0.10374 8.79632e-23)
(31.4675 0.0685471 -3.71567e-17)
(29.7359 0.133604 1.04357e-18)
(25.0723 0.126327 0)
(24.826 0.0645088 0)
(28.7874 0.128823 -8.81868e-19)
(30.5949 0.19175 7.39122e-19)
(31.7793 0.285756 -7.49144e-18)
(32.6522 0.135185 -4.21798e-22)
(33.1567 0.029845 1.31341e-17)
(33.3302 0.00829056 -1.9133e-19)
(33.4366 0.0187712 -2.83218e-18)
(33.6464 0.0240293 2.83641e-18)
(33.7304 0.0192788 0)
(33.8227 0.0213254 0)
(33.8643 0.0199811 6.10538e-19)
(33.8998 0.0217235 7.87759e-19)
(33.9077 0.0203679 -1.75601e-19)
(33.8967 0.0216664 8.90308e-19)
(33.8711 0.0197037 -1.44756e-18)
(33.8037 0.0197755 7.45382e-19)
(33.7338 0.0126999 0)
(33.5583 0.0113497 -1.27932e-17)
(33.4584 0.00553597 -1.48602e-17)
(33.3472 0.00612056 0)
(33.2103 0.0182022 -5.28975e-19)
(32.9746 0.0101535 0)
(32.374 -0.027144 0)
(31.0809 -0.0774575 2.678e-18)
(28.3485 -0.0558765 -6.9349e-18)
(24.9019 -0.0277404 0)
(17.7842 -0.0484215 -3.65621e-19)
(17.202 -0.0221993 3.45129e-19)
(24.5367 -0.0366136 -8.53664e-18)
(28.0811 -0.0728381 2.00746e-17)
(27.7952 -0.0835944 8.11709e-19)
(24.2049 -0.0476622 2.68935e-18)
(16.7573 -0.0330392 -2.84111e-18)
(16.4911 -0.0315781 0)
(23.9897 -0.0540585 -1.43985e-18)
(27.6036 -0.067884 -3.70396e-18)
(27.5088 -0.0446094 0)
(23.9021 -0.044339 9.4624e-19)
(16.2935 -0.0238042 0)
(16.2592 -0.0141518 0)
(23.8567 -0.0246555 2.22518e-19)
(27.4689 -0.022323 -1.20505e-18)
(27.4319 -0.0128262 3.49422e-25)
(23.8186 -0.0143764 -2.22585e-19)
(16.1436 -0.00731186 0)
(16.1383 0.000705167 0)
(23.7943 -0.00233641 0)
(27.4366 -0.00320908 -1.68563e-19)
(27.44 0.00404042 0)
(23.797 0.00162136 0)
(16.1417 0.000606512 0)
(16.1513 0.00082161 0)
(23.8053 0.00279208 0)
(27.4475 0.00613662 0)
(27.4574 0.00889194 0)
(23.8179 0.00505411 0)
(16.1662 0.00160679 0)
(16.1811 0.00191491 0)
(23.8317 0.0057106 0)
(27.469 0.00810858 0)
(27.4806 0.00914302 0)
(23.8466 0.00659596 0)
(16.1977 0.00233855 0)
(16.2162 0.00230807 0)
(23.864 0.00656909 0)
(27.495 0.00852957 -1.68216e-19)
(27.5085 0.0102544 1.68546e-19)
(23.8808 0.00749509 0)
(16.2348 0.00271278 0)
(16.2543 0.00250784 0)
(23.8991 0.00709194 0)
(27.5236 0.00956666 0)
(27.5373 0.0107541 0)
(23.9166 0.00756138 0)
(16.2731 0.00268604 0)
(16.293 0.0026622 0)
(23.9349 0.00746933 0)
(27.5525 0.0101412 0)
(27.5679 0.0113503 0)
(23.9543 0.00815779 0)
(16.3139 0.00297709 0)
(16.3349 0.00277116 0)
(23.9739 0.0075731 0)
(27.5842 0.0103429 0)
(27.5991 0.0109316 0)
(23.9927 0.00770802 0)
(16.3555 0.00283681 0)
(16.3773 0.00270496 0)
(24.013 0.00744314 0)
(27.6158 0.0103045 0)
(27.6317 0.011499 0)
(24.033 0.0079401 0)
(16.3993 0.00291918 0)
(16.4215 0.00268531 0)
(24.0537 0.00734675 0)
(27.6488 0.0102803 0)
(27.6647 0.0111691 0)
(24.0737 0.0078197 0)
(16.4436 0.00288851 0)
(16.4661 0.00284014 0)
(24.0945 0.00774686 0)
(27.6818 0.0106895 0)
(27.6986 0.0118266 0)
(24.1155 0.0082266 0)
(16.4894 0.00305447 0)
(16.5126 0.00278052 0)
(24.1371 0.00756462 0)
(27.7164 0.0106341 0)
(27.7329 0.0114113 0)
(24.1579 0.00791497 0)
(16.5357 0.00292889 0)
(16.5594 0.00290911 0)
(24.1797 0.00798294 0)
(27.7508 0.0112062 0)
(27.768 0.012638 0)
(24.2013 0.00873597 0)
(16.5836 0.00322028 0)
(16.6078 0.00312232 0)
(24.2236 0.00857463 0)
(27.7866 0.0119445 0)
(27.8037 0.0133401 0)
(24.2449 0.00944948 0)
(16.6314 0.00347298 0)
(16.6555 0.00315653 0)
(24.2675 0.00884308 0)
(27.8227 0.0132824 0)
(27.841 0.0145574 0)
(24.2904 0.00779012 0)
(16.6802 0.00265451 0)
(16.7048 0.00180294 0)
(24.3134 0.0059589 0)
(27.8598 0.0135203 0)
(27.8774 0.0142285 0)
(24.3355 0.00566277 0)
(16.7294 0.00169508 -1.44078e-19)
(16.7545 0.00168149 1.43932e-19)
(24.3585 0.00574917 0)
(27.8966 0.0140494 0)
(27.9152 0.0152273 0)
(24.3815 0.00639265 0)
(16.7798 0.00195023 0)
(16.8054 0.00174325 0)
(24.4052 0.00582396 0)
(27.9353 0.0142037 0)
(27.9538 0.0149217 0)
(24.4279 0.0060433 0)
(16.8303 0.0018315 0)
(16.856 0.00162788 0)
(24.4518 0.00562579 0)
(27.974 0.0142229 0)
(27.9937 0.015218 0)
(24.4757 0.00601631 0)
(16.882 0.00177134 0)
(16.9082 0.00155506 0)
(24.5002 0.0054249 0)
(28.0146 0.0141394 0)
(28.0342 0.0149297 0)
(24.5238 0.00572126 0)
(16.9336 0.0016596 0)
(16.9594 0.00154686 0)
(24.5482 0.00554995 0)
(28.0553 0.0145055 0)
(28.0761 0.0154769 0)
(24.5731 0.00598228 0)
(16.9858 0.00170643 0)
(17.0121 0.00155393 0)
(24.5983 0.0055583 0)
(28.0982 0.0145898 0)
(28.1189 0.015334 0)
(24.6225 0.00585617 0)
(17.0373 0.00166316 0)
(17.0634 0.00152469 0)
(24.6481 0.00565706 0)
(28.1416 0.014872 0)
(28.1641 0.0160142 0)
(24.674 0.00617297 0)
(17.0896 0.00169731 0)
(17.1154 0.00147871 0)
(24.7002 0.00565373 0)
(28.1877 0.015213 0)
(28.2104 0.0159653 0)
(24.7257 0.00585623 0)
(17.1401 0.00150989 0)
(17.1657 0.00134897 0)
(24.7529 0.00569892 0)
(28.2353 0.0156914 0)
(28.2601 0.0169859 0)
(24.7803 0.00624595 0)
(17.1911 0.0014976 0)
(17.2161 0.00134178 0)
(24.8081 0.00590847 0)
(28.2863 0.0164965 0)
(28.312 0.017249 0)
(24.8356 0.00604977 0)
(17.24 0.00132412 0)
(17.2646 0.00106788 0)
(24.8648 0.00569114 0)
(28.3401 0.0167602 0)
(28.3682 0.0173787 0)
(24.8945 0.00561918 0)
(17.2888 0.000954955 0)
(17.3127 0.000523725 0)
(24.9249 0.00461197 0)
(28.3979 0.016178 0)
(28.4275 0.0164045 0)
(24.9556 0.00475063 0)
(17.3359 0.000466954 0)
(17.3595 0.000884652 0)
(24.9874 0.00608047 0)
(28.4594 0.0161654 0)
(28.4917 0.0172623 0)
(25.0196 0.00869937 0)
(17.3818 0.00194063 0)
(17.4037 0.00217707 0)
(25.0534 0.00931667 0)
(28.5268 0.0164859 0)
(28.5623 0.01721 0)
(25.0882 0.00974483 0)
(17.4247 0.00222377 0)
(17.4459 0.00188813 0)
(25.125 0.00947343 0)
(28.6004 0.0171464 0)
(28.6394 0.0186547 0)
(25.1628 0.00987465 0)
(17.4664 0.00187392 0)
(17.4861 0.00156266 0)
(25.2024 0.00955665 0)
(28.6812 0.018473 0)
(28.7239 0.0198517 0)
(25.2433 0.00990375 0)
(17.5051 0.00145078 0)
(17.524 0.00104301 0)
(25.2866 0.009732 0)
(28.7699 0.0203693 0)
(28.8177 0.0218581 0)
(25.3324 0.00985124 0)
(17.5434 0.000825357 0)
(17.5631 0.000525594 0)
(25.3807 0.00968677 0)
(28.8689 0.0218174 0)
(28.9218 0.0234886 0)
(25.4314 0.0109247 0)
(17.5835 0.000908375 0)
(17.6046 0.000983567 0)
(25.4852 0.0120238 0)
(28.9787 0.0246444 0)
(29.038 0.0265522 0)
(25.5427 0.0131445 0)
(17.6274 0.00116284 0)
(17.6522 0.00104514 0)
(25.6046 0.0134048 0)
(29.102 0.0271603 0)
(29.1683 0.0299023 0)
(25.6701 0.0150419 0)
(17.679 0.00142619 0)
(17.7104 0.00184063 0)
(25.7419 0.0173974 0)
(29.2406 0.0327672 0)
(29.3161 0.0386697 0)
(25.8183 0.0218085 0)
(17.7462 0.00317943 0)
(17.7867 0.00463328 0)
(25.8999 0.0258901 0)
(29.3968 0.0439153 0)
(29.4832 0.0495914 0)
(25.9893 0.0260085 0)
(17.8339 0.00437934 0)
(17.8907 0.00143104 0)
(26.0881 0.0206886 0)
(29.5747 0.0528643 0)
(29.6691 0.0573323 0)
(26.1933 0.0194965 0)
(17.9588 0.000425229 0)
(18.0408 0.0027837 0)
(26.3068 0.0249293 0)
(29.7702 0.0621684 0)
(29.8788 0.0698367 0)
(26.429 0.0331239 0)
(18.1352 0.00693842 0)
(18.2478 0.00629304 0)
(26.5662 0.0328058 0)
(29.9955 0.0743357 1.67905e-19)
(30.1159 0.0829123 -1.68222e-19)
(26.7143 0.0402903 0)
(18.3833 0.0087984 0)
(18.5422 0.0174288 0)
(26.8725 0.0589976 0)
(30.2447 0.0945346 0)
(30.3848 0.109393 0)
(27.0462 0.0787617 0)
(18.7247 0.0262573 0)
(18.9364 0.0302679 0)
(27.2433 0.0852349 0)
(30.5405 0.123405 0)
(30.7062 0.136779 0)
(27.4645 0.075771 0)
(19.1827 0.0279075 0)
(19.4794 0.0278487 0)
(27.7102 0.070935 0)
(30.8827 0.152183 0)
(31.0826 0.176988 1.68104e-19)
(27.9923 0.0844693 0)
(19.8496 0.0394879 0)
(20.3116 0.0751433 0)
(28.3195 0.131767 0)
(31.3128 0.232976 -1.6863e-19)
(31.5455 0.34812 -2.70892e-18)
(28.6577 0.257902 1.33003e-23)
(20.7704 0.177756 2.2927e-18)
(21.2054 0.245517 -9.11903e-18)
(28.9835 0.349513 -5.05682e-23)
(31.7536 0.463509 2.53658e-18)
(31.9192 0.626598 -2.52207e-18)
(29.2528 0.513391 -7.0245e-18)
(21.6282 0.380971 9.03297e-18)
(21.9956 0.54467 1.42546e-19)
(29.4023 0.698256 -6.9997e-18)
(32.0269 0.798175 5.33305e-18)
(32.1108 0.964921 -5.46379e-18)
(29.6198 0.849474 0)
(22.3556 0.657491 0)
(22.6865 0.800034 1.80032e-17)
(29.743 1.01108 -1.37468e-17)
(32.1772 1.12278 -5.09273e-18)
(32.2235 1.27067 0)
(29.8822 1.15118 -1.36032e-17)
(23.059 0.920946 1.78729e-17)
(23.4543 1.04862 1.77439e-17)
(30.0192 1.29937 -4.21973e-19)
(32.2717 1.42586 0)
(32.2719 1.5929 0)
(30.1096 1.48664 4.22593e-19)
(23.8081 1.21143 -5.53892e-19)
(24.1123 1.32658 -1.63653e-17)
(30.1907 1.6238 0)
(32.2608 1.72876 0)
(32.2539 1.82872 -1.02945e-17)
(30.2814 1.70613 1.35203e-17)
(24.441 1.40688 -1.82921e-17)
(24.8066 1.50873 0)
(30.3735 1.79415 1.6585e-18)
(32.2458 1.92418 0)
(32.2105 2.04851 -9.74494e-18)
(30.4455 1.93115 -1.64262e-18)
(25.1975 1.62915 -4.44152e-18)
(25.4006 1.77833 2.04815e-17)
(30.491 2.19445 -3.4677e-17)
(32.1378 2.23742 2.41318e-17)
(31.9212 2.17337 2.98804e-17)
(30.3183 2.14012 -5.54991e-17)
(25.3592 1.69003 -2.03522e-17)
(20.1501 1.59557 -3.16365e-17)
(27.8634 1.99534 -3.12406e-18)
(30.8992 1.69664 -1.59373e-17)
(31.7297 2.23819 -3.52748e-18)
(29.0836 2.05428 4.69865e-18)
(21.4363 1.53978 -3.10677e-18)
(21.4828 1.72415 1.39648e-18)
(29.1648 2.34492 -2.11697e-18)
(31.7314 2.52324 -1.61013e-18)
(31.6882 2.65135 5.25967e-17)
(29.2301 2.43848 -2.37706e-22)
(21.8022 1.81667 -4.46646e-17)
(22.2222 1.98563 3.33639e-19)
(29.2405 2.58912 6.49156e-17)
(31.6074 2.77806 -6.11846e-23)
(31.6179 2.88064 2.4632e-17)
(29.3958 2.67166 -3.18298e-17)
(22.7328 2.08775 4.18334e-17)
(23.3053 2.21689 -3.18685e-19)
(29.5099 2.77194 1.20845e-19)
(31.6045 2.97999 2.33338e-17)
(31.6095 3.1048 -2.38833e-17)
(29.6716 2.93097 3.02622e-17)
(23.8469 2.38838 -3.09666e-19)
(24.3528 2.50529 6.17449e-19)
(29.7475 3.01528 2.8293e-17)
(31.5535 3.18817 -2.36263e-17)
(31.5371 3.3019 -1.8045e-17)
(29.886 3.18013 -2.72414e-17)
(24.8656 2.67455 4.04821e-17)
(25.3476 2.80578 -2.37119e-18)
(29.9791 3.31809 0)
(31.493 3.40319 -2.62555e-18)
(31.4544 3.57053 0)
(30.0437 3.54449 2.41231e-17)
(25.7419 2.98222 -6.88534e-17)
(25.8531 3.00903 5.08749e-17)
(29.9302 3.56218 0)
(31.2502 3.56245 -1.26556e-16)
(30.4865 3.12809 1.06574e-17)
(28.0749 3.42589 -3.13546e-18)
(22.1858 2.89556 -3.76976e-18)
(23.6178 2.76067 0)
(29.2536 3.31174 -2.30881e-18)
(31.1432 3.57795 -6.95471e-18)
(31.1147 3.84243 0)
(29.3239 3.66387 -3.20508e-17)
(23.9853 3.03622 4.23397e-17)
(24.4888 3.13385 6.33215e-19)
(29.525 3.70499 -9.62121e-19)
(31.1292 3.93369 0)
(31.0941 4.08014 3.45663e-22)
(29.6118 3.89638 2.80011e-17)
(24.8937 3.34052 -3.89162e-17)
(25.2877 3.45798 3.45982e-17)
(29.6757 3.98536 3.49161e-18)
(31.0371 4.169 0)
(30.9865 4.30405 1.98528e-17)
(29.7521 4.16204 -1.66679e-18)
(25.6815 3.61353 -2.25077e-18)
(25.8642 3.72901 4.11128e-18)
(29.7286 4.3172 0)
(30.8673 4.4473 -3.2185e-17)
(30.6632 4.41498 -3.70468e-18)
(29.6338 4.24364 2.28202e-18)
(25.9686 3.6501 4.60551e-17)
(22.9321 3.1253 0)
(28.1753 3.72619 -3.08003e-18)
(29.9637 4.13128 7.9227e-18)
(30.3747 4.61565 3.78852e-17)
(28.8552 4.44476 -7.45098e-17)
(24.0443 3.78038 9.69251e-17)
(24.2971 3.95712 -4.36811e-17)
(28.9069 4.62656 -3.19139e-17)
(30.294 4.81487 1.54671e-18)
(30.1417 4.98885 -2.38918e-17)
(28.8955 4.85592 -3.15726e-17)
(24.6848 4.21151 8.41515e-17)
(25.0434 4.41787 0)
(28.8394 5.0252 3.73001e-18)
(29.9826 5.13068 0)
(29.841 5.30419 0)
(28.8332 5.21293 9.5479e-18)
(25.4197 4.63443 0)
(25.4912 4.83802 0)
(28.6019 5.41191 -1.9811e-17)
(29.499 5.41524 0)
(28.9103 5.18562 -2.50426e-17)
(27.2151 5.41528 2.59064e-17)
(22.7569 4.72562 0)
(24.1604 4.60367 1.00939e-16)
(28.088 5.15537 2.94786e-19)
(29.2987 5.46012 -1.78759e-18)
(29.0991 5.80498 -2.44503e-17)
(28.0485 5.6735 3.24122e-17)
(24.537 5.06866 -8.72351e-17)
(24.84 5.25808 8.10383e-17)
(27.9875 5.80843 -6.00059e-17)
(28.9142 5.94498 -2.1805e-17)
(28.6867 6.17864 -3.46704e-17)
(27.8867 6.11368 8.85619e-17)
(25.0075 5.53567 -1.5274e-16)
(24.9529 5.67748 2.11435e-16)
(27.5466 6.22565 9.8082e-17)
(28.2782 6.2474 -7.31542e-21)
(27.7375 6.13112 -7.06812e-19)
(26.3969 6.22778 -8.26442e-19)
(22.6276 5.54007 -1.00174e-18)
(23.6627 5.7627 1.02213e-16)
(26.9436 6.37399 6.00534e-19)
(27.8726 6.5543 0)
(27.478 6.79692 9.76854e-17)
(26.6824 6.66733 -6.65239e-17)
(23.7969 6.11488 -2.45585e-18)
(24.0046 6.48894 2.48588e-18)
(26.4649 6.95022 0)
(27.1025 7.04464 -5.61132e-17)
(26.531 7.22032 -3.37772e-17)
(25.9769 7.31111 0)
(23.8564 6.83995 3.31631e-18)
(21.8641 6.78991 -1.39763e-16)
(24.8846 7.50358 1.10312e-16)
(25.9744 7.2788 0)
(25.9048 7.59279 -5.78628e-17)
(25.1927 7.49116 7.73106e-17)
(22.7397 7.02661 2.02205e-19)
(22.765 7.36151 8.84913e-17)
(24.7839 7.69617 0)
(25.33 7.78339 0)
(24.6746 8.02439 0)
(24.2483 8.05541 -5.40298e-17)
(22.552 7.82193 1.55642e-16)
(22.0982 7.99964 0)
(23.5224 8.1874 0)
(23.8217 8.07377 -8.03594e-18)
(22.8306 8.43171 1.09661e-17)
(22.3507 8.28152 0)
(20.4011 7.96824 -1.32062e-16)
(20.3065 8.5932 -1.20743e-17)
(21.7463 8.76366 -1.32751e-16)
(22.1125 8.64442 8.85262e-22)
(20.8726 8.59571 -4.65502e-18)
(20.6571 8.83444 5.91409e-18)
(19.4844 8.73166 1.87908e-17)
(17.7837 8.54621 -4.52338e-18)
(19.2121 8.73653 -1.46966e-17)
(19.4847 8.99852 1.79687e-17)
(18.3229 8.87067 -8.52683e-17)
(17.9439 9.24157 1.22611e-16)
(16.9936 9.44217 -1.24219e-17)
(15.3115 9.39984 2.46744e-16)
(16.0089 8.81982 -1.52617e-16)
(16.3439 8.12092 0)
(13.3852 8.18968 -7.22808e-17)
(12.9546 8.68159 -1.20296e-17)
(12.1235 9.13329 0)
(9.30734 7.72565 0)
(9.92157 6.85531 1.78628e-17)
(10.6999 5.87799 -9.02984e-18)
(7.3309 3.94028 -1.32498e-16)
(5.86921 4.90418 3.63379e-16)
(4.96211 5.15455 -2.44742e-16)
(1.89352 0.807878 1.99182e-16)
(3.162 -0.219728 -2.70649e-16)
(5.08057 -1.1463 1.83595e-16)
(3.76952 -9.5443 0)
(1.55772 -9.57242 -4.39408e-17)
(-0.182807 -9.83261 1.27278e-16)
(3.37764 -18.2985 -9.6043e-19)
(5.06812 -17.3012 4.64728e-17)
(6.51326 -16.5441 -3.20312e-17)
(11.7628 -20.9823 -9.08792e-19)