/*--------------------------------*- C++ -*----------------------------------*\
| =========                 |                                                 |
| \\      /  F ield         | OpenFOAM: The Open Source CFD Toolbox           |
|  \\    /   O peration     | Version:  v2006                                 |
|   \\  /    A nd           | Website:  www.openfoam.com                      |
|    \\/     M anipulation  |                                                 |
\*---------------------------------------------------------------------------*/
FoamFile
{
    version     2.0;
    format      ascii;
    class       volScalarField;
    location    "0.099";
    object      turbulenceProperties:L;
}
// * * * * * * * * * * * * * * * * * * * * * * * * * * * * * * * * * * * * * //

dimensions      [0 1 0 0 0 0 0];


internalField   nonuniform List<scalar> 
16277
(
1998.47
1998.52
1998.9
1999.03
1999.43
1999.37
1999.4
1999.22
1998.77
1998.11
1997.36
1996.67
1996.09
1995.58
1995.13
1994.72
1994.32
1993.93
1993.54
1993.17
1992.81
1992.45
1992.11
1991.77
1991.44
1991.12
1990.8
1990.49
1990.19
1989.89
1989.59
1989.31
1989.03
1988.75
1988.49
1988.23
1987.98
1987.74
1987.51
1987.29
1987.08
1986.88
1986.69
1986.52
1986.36
1986.21
1986.07
1985.95
1985.85
1985.76
1985.69
1985.63
1985.59
1985.57
1985.57
1985.58
1985.62
1985.67
1985.75
1985.84
1985.94
1986.06
1986.18
1986.25
1986.18
1985.75
1984.4
1980.76
1971.2
1947.5
1896.71
1794.45
1607.8
1316.44
954.807
611.988
356.52
195.43
103.51
54.2423
28.4311
15.2755
9.12576
7.01379
5.13095
4.27637
3.52362
1.93447
1.1178
0.885894
0.988281
0.374151
0.121351
0.0320747
0.0037253
0.000676234
4.70417e-05
4.51109e-05
0.000325012
0.00146001
0.000819232
0.000221171
4.31574e-05
4.18663e-05
0.000207442
0.000698857
0.000573418
0.000187013
4.15216e-05
4.10403e-05
0.000185002
0.000550564
0.000489886
0.000173553
4.07296e-05
4.03716e-05
0.000173034
0.000482192
0.000449741
0.000166466
4.01594e-05
4.00757e-05
0.000168994
0.00044878
0.000428601
0.000163765
3.99808e-05
3.99174e-05
0.000166281
0.000428799
0.00041356
0.000161754
3.98363e-05
3.97865e-05
0.000164001
0.000414579
0.000401806
0.000159924
3.97153e-05
3.96745e-05
0.000161965
0.000403229
0.000391935
0.000158198
3.96112e-05
3.95762e-05
0.000160129
0.000393602
0.000383336
0.000156562
3.95184e-05
3.94872e-05
0.000158432
0.00038515
0.000375644
0.00015499
3.94332e-05
3.94049e-05
0.000156802
0.000377548
0.00036864
0.000153467
3.93535e-05
3.93271e-05
0.000155237
0.000370606
0.000362204
0.000152004
3.92774e-05
3.92524e-05
0.000153744
0.000364216
0.000356242
0.000150607
3.92039e-05
3.91797e-05
0.000152326
0.000358304
0.000350689
0.000149278
3.91319e-05
3.91083e-05
0.000150979
0.000352808
0.000345518
0.000148014
3.90609e-05
3.90376e-05
0.000149698
0.000347689
0.000340693
0.000146811
3.89903e-05
3.89671e-05
0.000148481
0.000342911
0.000336184
0.000145666
3.89197e-05
3.88965e-05
0.000147327
0.000338444
0.000331963
0.000144581
3.88488e-05
3.88254e-05
0.000146233
0.000334257
0.000327999
0.000143554
3.87773e-05
3.87537e-05
0.000145197
0.000330319
0.00032426
0.000142578
3.8705e-05
3.8681e-05
0.000144214
0.000326599
0.00032072
0.000141651
3.86315e-05
3.86071e-05
0.000143278
0.000323071
0.000317355
0.000140767
3.85567e-05
3.85317e-05
0.000142386
0.000319715
0.000314147
0.000139922
3.84803e-05
3.84545e-05
0.000141533
0.00031651
0.000311076
0.000139112
3.84018e-05
3.83752e-05
0.000140714
0.000313439
0.000308127
0.000138332
3.8321e-05
3.82934e-05
0.000139925
0.000310487
0.000305287
0.000137579
3.82375e-05
3.82088e-05
0.000139164
0.000307641
0.000302544
0.00013685
3.8151e-05
3.8121e-05
0.000138426
0.000304891
0.000299889
0.000136143
3.8061e-05
3.80296e-05
0.000137711
0.000302227
0.000297314
0.000135456
3.79672e-05
3.79342e-05
0.000137016
0.000299644
0.000294816
0.000134788
3.78691e-05
3.78344e-05
0.000136342
0.000297138
0.000292392
0.000134138
3.77664e-05
3.77298e-05
0.000135686
0.000294707
0.00029004
0.000133507
3.76585e-05
3.76199e-05
0.000135056
0.000292352
0.000287763
0.000132899
3.75452e-05
3.75045e-05
0.000134462
0.000290077
0.000285567
0.000132318
3.7426e-05
3.73832e-05
0.000133892
0.000287886
0.000283456
0.000131761
3.73008e-05
3.72558e-05
0.000133352
0.000285785
0.000281436
0.000131234
3.71693e-05
3.71221e-05
0.000132848
0.000283782
0.00027952
0.000130744
3.70315e-05
3.69821e-05
0.000132389
0.000281893
0.000277725
0.000130302
3.68873e-05
3.68361e-05
0.000131986
0.000280139
0.000276076
0.000129918
3.67373e-05
3.66847e-05
0.000131652
0.000278585
0.000274617
0.000129607
3.65822e-05
3.65288e-05
0.000131406
0.000277266
0.00027338
0.00012939
3.64232e-05
3.63699e-05
0.000131266
0.000276186
0.000272397
0.000129285
3.62623e-05
3.62104e-05
0.000131257
0.000275406
0.000271732
0.000129318
3.61021e-05
3.60533e-05
0.000131405
0.000274996
0.000271459
0.000129519
3.59461e-05
3.59025e-05
0.000131743
0.000275033
0.000271659
0.000129925
3.57987e-05
3.57635e-05
0.00013228
0.000275597
0.000272418
0.000130559
3.56663e-05
3.56413e-05
0.000132967
0.000276745
0.000273773
0.000131339
3.55568e-05
3.55427e-05
0.000133827
0.000278613
0.000275848
0.000132314
3.54743e-05
3.54724e-05
0.000134873
0.0002812
0.000278626
0.000133478
3.54268e-05
3.54349e-05
0.000136073
0.000284444
0.000282051
0.000134804
3.54212e-05
3.54331e-05
0.000137376
0.000288222
0.000285977
0.000136178
3.54273e-05
3.54678e-05
0.000138698
0.000292478
0.000290363
0.000137506
3.54742e-05
3.55355e-05
0.000139925
0.000297093
0.00029504
0.000138745
3.5554e-05
3.56318e-05
0.000140947
0.000301677
0.00029959
0.00013977
3.56588e-05
3.57467e-05
0.000141752
0.000305923
0.000303737
0.000140493
3.57794e-05
3.58728e-05
0.000142399
0.000309675
0.000307376
0.000140976
3.59093e-05
3.60057e-05
0.000142804
0.000312843
0.000310433
0.000141282
3.60441e-05
3.61409e-05
0.000143007
0.000315385
0.000312855
0.000141326
3.61793e-05
3.62737e-05
0.000142984
0.000317298
0.000314591
0.000141162
3.63108e-05
3.64008e-05
0.000142758
0.000318569
0.000315614
0.00014082
3.64356e-05
3.65196e-05
0.000142352
0.000319405
0.00031605
0.000140336
3.65513e-05
3.66282e-05
0.000141813
0.000319582
0.000315835
0.000139667
3.66564e-05
3.67255e-05
0.000141166
0.000319114
0.000314767
0.000138811
3.675e-05
3.68108e-05
0.00014031
0.000317944
0.000313258
0.000137884
3.68312e-05
3.68834e-05
0.000139385
0.000316343
0.000311442
0.000136934
3.68997e-05
3.69436e-05
0.000138438
0.000314421
0.000309373
0.000135999
3.6956e-05
3.6992e-05
0.000137497
0.000312238
0.000307124
0.000135103
3.70007e-05
3.70295e-05
0.000136592
0.000309877
0.000304769
0.000134266
3.7035e-05
3.70577e-05
0.00013574
0.000307418
0.000302371
0.000133496
3.70604e-05
3.70779e-05
0.000134949
0.000304917
0.000299975
0.000132793
3.70784e-05
3.7091e-05
0.000134221
0.000302431
0.000297599
0.000132148
3.70897e-05
3.70979e-05
0.000133547
0.000299997
0.000295296
0.000131564
3.70953e-05
3.71008e-05
0.000132935
0.000297657
0.000293103
0.000131031
3.70977e-05
3.71014e-05
0.000132376
0.000295446
0.000291011
0.000130526
3.70967e-05
3.7099e-05
0.000131855
0.000293341
0.000288993
0.000130035
3.70915e-05
3.70933e-05
0.000131368
0.000291311
0.000287068
0.000129581
3.70844e-05
3.70856e-05
0.000130924
0.000289386
0.000285244
0.000129167
3.70757e-05
3.70771e-05
0.000130512
0.000287555
0.000283494
0.000128774
3.70665e-05
3.70671e-05
0.000130109
0.00028579
0.000281775
0.00012838
3.7055e-05
3.70556e-05
0.000129711
0.000284069
0.000280096
0.000128006
3.70438e-05
3.70443e-05
0.000129338
0.000282412
0.000278502
0.00012765
3.70313e-05
3.70316e-05
0.000128981
0.000280847
0.000276984
0.000127305
3.70184e-05
3.70189e-05
0.000128624
0.000279318
0.000275458
0.000126939
3.69971e-05
3.70131e-05
0.000128271
0.000277807
0.000273797
0.000126578
3.69758e-05
3.69995e-05
0.000127805
0.000276453
0.000272592
0.000125902
3.69322e-05
3.71172e-05
0.000128099
0.000276624
0.000274127
0.000127996
3.72231e-05
3.7742e-05
0.00012838
0.000277323
0.000290677
0.000134776
3.84466e-05
4.11145e-05
0.000127554
0.000283173
0.000420856
0.000235599
4.70797e-05
4.18584e-05
9.89395e-05
0.000220325
0.000497218
0.00104743
0.0018163
0.00244921
0.00284775
0.00358546
0.00402903
0.00441525
0.00461621
0.00469698
0.00464214
0.00443601
0.00416166
0.0037276
0.00331059
0.00266397
0.00237933
0.00181491
0.00142325
0.00102161
0.000619121
0.000299884
0.000116177
5.02272e-05
1.28673e-05
1.1819e-05
4.62896e-05
0.000105508
9.96818e-05
4.38066e-05
1.1015e-05
1.04047e-05
4.20027e-05
9.46787e-05
9.47508e-05
4.1691e-05
1.02038e-05
1.00854e-05
4.13944e-05
9.31943e-05
9.30816e-05
4.09995e-05
9.96407e-06
9.9536e-06
4.09233e-05
9.28492e-05
9.30329e-05
4.09512e-05
9.96338e-06
9.962e-06
4.09569e-05
9.31266e-05
9.32057e-05
4.09823e-05
9.97357e-06
9.97911e-06
4.10112e-05
9.3365e-05
9.34376e-05
4.10338e-05
9.98508e-06
9.99724e-06
4.1072e-05
9.36034e-05
9.37009e-05
4.10904e-05
9.99208e-06
1.00047e-05
4.11387e-05
9.38657e-05
9.39652e-05
4.11591e-05
1.00109e-05
1.0024e-05
4.12038e-05
9.41458e-05
9.42323e-05
4.12229e-05
1.00248e-05
1.00266e-05
4.12824e-05
9.44275e-05
9.4516e-05
4.12976e-05
1.00446e-05
1.00464e-05
4.13514e-05
9.47127e-05
9.48039e-05
4.13683e-05
1.00537e-05
1.00554e-05
4.14323e-05
9.50098e-05
9.51026e-05
4.14494e-05
1.00741e-05
1.0076e-05
4.15066e-05
9.5309e-05
9.54041e-05
4.15256e-05
1.00838e-05
1.00857e-05
4.15925e-05
9.56176e-05
9.57135e-05
4.16115e-05
1.01048e-05
1.01069e-05
4.16709e-05
9.59263e-05
9.60247e-05
4.16923e-05
1.01149e-05
1.01171e-05
4.1761e-05
9.62448e-05
9.63439e-05
4.17822e-05
1.01364e-05
1.01388e-05
4.18432e-05
9.65587e-05
9.66568e-05
4.18659e-05
1.0147e-05
1.01493e-05
4.19353e-05
9.68728e-05
9.69699e-05
4.19567e-05
1.0163e-05
1.01772e-05
4.2011e-05
9.71909e-05
9.72927e-05
4.20414e-05
1.01794e-05
1.01823e-05
4.21092e-05
9.75177e-05
9.76215e-05
4.21353e-05
1.01962e-05
1.0211e-05
4.21981e-05
9.78567e-05
9.79627e-05
4.22307e-05
1.02136e-05
1.02167e-05
4.22985e-05
9.81842e-05
9.82877e-05
4.23289e-05
1.02308e-05
1.02455e-05
4.23899e-05
9.85081e-05
9.86078e-05
4.24184e-05
1.02477e-05
1.0251e-05
4.24874e-05
9.88206e-05
9.89164e-05
4.25114e-05
1.02648e-05
1.02798e-05
4.25738e-05
9.91266e-05
9.92209e-05
4.25947e-05
1.02819e-05
1.02855e-05
4.26653e-05
9.94325e-05
9.95247e-05
4.2686e-05
1.02994e-05
1.03144e-05
4.27507e-05
9.97303e-05
9.98191e-05
4.27683e-05
1.03168e-05
1.032e-05
4.28338e-05
0.000100024
0.000100111
4.28536e-05
1.03339e-05
1.03487e-05
4.29138e-05
0.000100305
0.000100377
4.29239e-05
1.03506e-05
1.03536e-05
4.29878e-05
0.00010056
0.000100613
4.29929e-05
1.03669e-05
1.0381e-05
4.30382e-05
0.000100776
0.000100828
4.30334e-05
1.03821e-05
1.03844e-05
4.30828e-05
0.000100981
0.000101008
4.30684e-05
1.04024e-05
1.0404e-05
4.30912e-05
0.000101131
0.000101152
4.30694e-05
1.04103e-05
1.04104e-05
4.30806e-05
0.000101248
0.000101233
4.30403e-05
1.04273e-05
1.04261e-05
4.30118e-05
0.000101279
0.00010126
4.295e-05
1.04307e-05
1.04288e-05
4.29068e-05
0.000101275
0.000101245
4.28144e-05
1.04387e-05
1.04486e-05
4.27396e-05
0.000101248
0.000101198
4.26263e-05
1.04468e-05
1.04452e-05
4.25327e-05
0.000101205
0.000101107
4.23911e-05
1.04554e-05
1.04658e-05
4.22597e-05
0.000101105
0.000100958
4.207e-05
1.04645e-05
1.04641e-05
4.19052e-05
0.000100959
0.000100769
4.16707e-05
1.04814e-05
1.04835e-05
4.14582e-05
0.00010075
0.000100542
4.11971e-05
1.04941e-05
1.0501e-05
4.09474e-05
0.000100518
0.0001003
4.06324e-05
1.05232e-05
1.05516e-05
4.03855e-05
0.000100445
0.000100349
4.00763e-05
1.05722e-05
1.06069e-05
3.98337e-05
0.0001006
0.000100558
3.9535e-05
1.06459e-05
1.06951e-05
3.92782e-05
0.000100917
0.000101108
3.89592e-05
1.07511e-05
1.0823e-05
3.87837e-05
0.000101836
0.000102526
3.8595e-05
1.09062e-05
1.09977e-05
3.85812e-05
0.000103663
0.000105444
3.9261e-05
1.11788e-05
1.13542e-05
3.97733e-05
0.000106759
0.000107667
3.9947e-05
1.13342e-05
1.14748e-05
3.94699e-05
0.000108934
0.000110771
4.17e-05
1.17347e-05
1.18829e-05
4.09276e-05
0.000111717
0.000112983
4.20952e-05
1.21589e-05
1.24077e-05
4.27219e-05
0.000114681
0.000114954
4.36077e-05
1.27651e-05
1.3233e-05
4.54965e-05
0.000116909
0.000116838
4.64717e-05
1.36251e-05
1.39318e-05
4.75769e-05
0.000117717
0.000117193
4.8344e-05
1.45913e-05
1.57506e-05
5.40159e-05
0.000119174
0.000117401
5.58973e-05
1.08469e-05
6.19876e-06
1.61918e-05
4.18434e-05
9.99781e-05
3.5868e-05
8.35987e-06
9.22686e-06
3.21335e-05
9.25593e-05
9.70674e-05
3.37931e-05
9.44869e-06
9.63303e-06
3.23502e-05
9.34e-05
9.88257e-05
3.47063e-05
1.00292e-05
1.04957e-05
3.42567e-05
9.73848e-05
0.000104294
3.82815e-05
1.10826e-05
1.1708e-05
3.78761e-05
0.000102072
0.000108115
4.26952e-05
1.24533e-05
1.33638e-05
4.32126e-05
0.000107657
0.000114849
4.96611e-05
1.48875e-05
1.05506e-05
5.35731e-05
0.000115603
4.14642e-05
1.55656e-05
6.47234e-06
9.01275e-06
3.77323e-05
0.000104463
0.000101185
3.50468e-05
1.06412e-05
1.1807e-05
4.39861e-05
0.000118427
0.000119327
4.42003e-05
1.26786e-05
1.372e-05
4.96719e-05
0.000128041
0.000129459
5.19374e-05
1.48583e-05
1.64354e-05
5.87065e-05
0.000135947
0.000131318
6.11353e-05
1.16372e-05
7.02676e-06
1.74903e-05
4.69226e-05
0.000114579
4.252e-05
9.65382e-06
1.10848e-05
3.94089e-05
0.000110954
0.000121463
4.61672e-05
1.19962e-05
1.30588e-05
4.56089e-05
0.000118799
0.000127016
5.38006e-05
1.48607e-05
1.07917e-05
5.98384e-05
0.000125615
4.59531e-05
1.70657e-05
6.66116e-06
9.60879e-06
4.12124e-05
0.000116893
0.000117654
4.22591e-05
1.17497e-05
1.39021e-05
5.49518e-05
0.000141112
0.000143843
6.11306e-05
1.59306e-05
1.1544e-05
6.67891e-05
0.000141698
5.24725e-05
1.85656e-05
6.86047e-06
9.91305e-06
4.91913e-05
0.000128965
0.000126011
4.6545e-05
1.21702e-05
1.45977e-05
6.1207e-05
0.000146868
0.000146069
6.79557e-05
1.08783e-05
6.70925e-06
1.92977e-05
5.70241e-05
0.000146211
5.48744e-05
1.04339e-05
1.36797e-05
5.54974e-05
0.000152069
0.000193294
8.11438e-05
1.68831e-05
1.2796e-05
8.32887e-05
0.000182898
7.66919e-05
2.58738e-05
8.22467e-06
1.34985e-05
7.8162e-05
0.000190022
0.000185661
7.97663e-05
1.12088e-05
7.74125e-06
2.62632e-05
8.27028e-05
0.000236803
9.06568e-05
1.40457e-05
1.24409e-05
9.88917e-05
0.000249201
0.000119984
4.20329e-05
9.66758e-06
1.10668e-05
0.00010066
0.000272844
0.000186731
7.29884e-05
1.01017e-05
1.36143e-05
0.000107822
0.000319907
0.000266172
9.03161e-05
1.12645e-05
1.11417e-05
8.69511e-05
0.000256869
0.000280048
9.68431e-05
1.30471e-05
1.7071e-05
0.000171697
0.000472461
0.000104835
3.92164e-05
1.41119e-05
1.31159e-05
9.56293e-05
0.000203421
7.48897e-05
3.1552e-05
1.21624e-05
1.35138e-05
6.9217e-05
0.000148254
0.000132974
5.59553e-05
1.47563e-05
8.09441e-06
1.89937e-05
4.87896e-05
9.95305e-05
6.37781e-05
9.92923e-06
1.05214e-05
2.48991e-05
5.50342e-05
0.000116192
5.90247e-05
1.285e-05
1.47679e-05
5.15215e-05
0.000109758
4.60035e-05
1.97479e-05
8.93515e-06
1.17225e-05
5.30417e-05
0.000100636
9.66825e-05
4.72614e-05
1.39823e-05
8.54728e-06
1.83657e-05
4.19383e-05
9.35585e-05
4.96124e-05
1.12571e-05
1.36044e-05
4.53125e-05
9.023e-05
4.00055e-05
1.80269e-05
8.49816e-06
1.10951e-05
4.73892e-05
8.89197e-05
8.49442e-05
4.34962e-05
1.34508e-05
8.4188e-06
1.73119e-05
3.8151e-05
8.43132e-05
4.52124e-05
1.09692e-05
1.34633e-05
4.15378e-05
8.08894e-05
3.65806e-05
1.70319e-05
8.519e-06
1.11209e-05
4.42652e-05
8.06671e-05
7.68555e-05
4.05217e-05
1.35645e-05
8.51731e-06
1.66719e-05
3.54202e-05
7.7525e-05
4.27478e-05
1.10578e-05
1.37019e-05
3.94258e-05
7.4322e-05
3.55671e-05
1.70425e-05
8.84487e-06
1.1639e-05
4.45792e-05
7.81919e-05
7.1903e-05
3.78925e-05
1.50605e-05
1.11161e-05
3.1514e-05
6.27458e-05
2.87468e-05
1.32045e-05
7.05971e-06
9.12307e-06
3.37237e-05
6.08959e-05
5.97976e-05
3.19969e-05
1.1585e-05
7.33192e-06
1.3479e-05
2.8478e-05
5.92262e-05
3.34431e-05
9.29334e-06
1.17443e-05
3.1267e-05
5.74644e-05
2.79949e-05
1.36778e-05
7.36448e-06
9.2679e-06
3.30074e-05
5.63618e-05
5.53863e-05
3.14644e-05
1.17135e-05
7.42353e-06
1.32526e-05
2.71665e-05
5.47859e-05
3.2006e-05
9.33748e-06
1.17432e-05
3.01988e-05
5.32061e-05
2.66124e-05
1.30788e-05
7.3235e-06
9.17907e-06
3.07406e-05
5.26797e-05
5.19427e-05
3.00403e-05
1.17746e-05
7.42949e-06
1.29353e-05
2.59434e-05
5.12047e-05
3.05987e-05
9.21922e-06
1.1749e-05
2.92045e-05
4.99829e-05
2.54055e-05
1.27654e-05
7.27491e-06
8.86154e-06
2.91965e-05
4.82813e-05
4.77067e-05
2.81482e-05
1.12487e-05
6.86757e-06
1.16017e-05
2.32842e-05
4.27838e-05
3.29801e-05
7.92499e-06
9.38385e-06
1.51954e-05
2.68907e-05
5.43433e-05
3.30191e-05
1.11843e-05
1.3578e-05
3.05612e-05
5.18722e-05
2.70758e-05
1.43226e-05
8.41409e-06
1.02565e-05
3.21669e-05
5.1607e-05
5.00645e-05
3.00018e-05
1.30305e-05
8.29782e-06
1.42348e-05
2.65516e-05
5.1225e-05
3.1923e-05
1.01867e-05
1.28354e-05
3.00238e-05
4.97776e-05
2.59831e-05
1.39641e-05
8.09196e-06
9.82514e-06
3.06597e-05
4.84097e-05
4.6957e-05
2.81931e-05
1.25291e-05
7.90659e-06
1.36396e-05
2.48871e-05
4.62369e-05
2.91536e-05
9.43411e-06
1.18269e-05
2.71117e-05
4.45068e-05
2.26172e-05
1.23126e-05
7.12627e-06
8.06085e-06
3.08136e-05
3.94723e-05
2.50251e-05
1.51292e-05
9.48175e-06
1.09721e-05
2.90094e-05
4.65967e-05
4.40781e-05
2.66063e-05
1.32886e-05
8.15296e-06
1.38548e-05
2.38937e-05
4.32949e-05
2.80551e-05
9.65529e-06
1.21612e-05
2.62691e-05
4.10981e-05
2.20919e-05
1.27856e-05
7.50616e-06
8.32934e-06
2.96091e-05
3.74763e-05
2.43953e-05
1.51019e-05
9.8129e-06
1.13353e-05
2.89011e-05
4.48646e-05
4.21532e-05
2.62787e-05
1.36043e-05
8.32569e-06
1.39707e-05
2.34244e-05
4.21755e-05
2.76288e-05
9.87408e-06
1.23263e-05
2.52973e-05
3.99894e-05
2.14909e-05
1.26994e-05
7.48709e-06
8.30141e-06
2.82738e-05
3.54902e-05
2.33171e-05
1.48075e-05
9.75393e-06
1.10753e-05
2.73858e-05
4.23846e-05
3.97676e-05
2.50124e-05
1.32888e-05
8.15859e-06
1.37355e-05
2.21902e-05
3.92384e-05
2.59821e-05
9.76458e-06
1.21024e-05
2.38176e-05
3.7237e-05
2.0081e-05
1.22716e-05
7.34215e-06
8.127e-06
2.57819e-05
3.28236e-05
2.18713e-05
1.41633e-05
9.56598e-06
1.08791e-05
2.58148e-05
3.92511e-05
3.66097e-05
2.33705e-05
1.29638e-05
7.59292e-06
1.26629e-05
2.01742e-05
3.25633e-05
2.66714e-05
8.24221e-06
9.6236e-06
1.45759e-05
2.18859e-05
3.89169e-05
2.51942e-05
1.08709e-05
1.32179e-05
2.30602e-05
3.63335e-05
2.0092e-05
1.27644e-05
7.90126e-06
8.5049e-06
2.54083e-05
3.22031e-05
2.19359e-05
1.46978e-05
9.87044e-06
1.10026e-05
2.55126e-05
3.86055e-05
3.59103e-05
2.30775e-05
1.32701e-05
7.82647e-06
1.26546e-05
1.9869e-05
3.17946e-05
2.58303e-05
8.31916e-06
9.79909e-06
1.45834e-05
2.16116e-05
3.78938e-05
2.4823e-05
1.10551e-05
1.32646e-05
2.26683e-05
3.54113e-05
1.98781e-05
1.29395e-05
7.92031e-06
8.51025e-06
2.6058e-05
3.13802e-05
2.15411e-05
1.48801e-05
9.86208e-06
1.08925e-05
2.45617e-05
3.73249e-05
3.45908e-05
2.22337e-05
1.29216e-05
7.68749e-06
1.25298e-05
1.91796e-05
3.01719e-05
2.535e-05
8.12142e-06
9.24259e-06
1.43096e-05
2.07958e-05
3.28989e-05
2.48903e-05
9.55144e-06
1.08998e-05
1.52248e-05
2.24372e-05
3.78224e-05
2.46627e-05
1.18134e-05
1.37456e-05
2.23816e-05
3.50011e-05
1.97876e-05
1.2967e-05
8.04833e-06
8.56954e-06
2.54675e-05
3.08261e-05
2.13205e-05
1.50008e-05
1.00344e-05
1.10676e-05
2.41123e-05
3.6378e-05
3.385e-05
2.18866e-05
1.30777e-05
7.71722e-06
1.25926e-05
1.89968e-05
2.94991e-05
2.47051e-05
8.17793e-06
9.34915e-06
1.43236e-05
2.05748e-05
3.21207e-05
2.44292e-05
9.62121e-06
1.0725e-05
1.53071e-05
2.21553e-05
3.69405e-05
2.41671e-05
1.16114e-05
1.3725e-05
2.21236e-05
3.42335e-05
1.94766e-05
1.3025e-05
8.11102e-06
8.48092e-06
2.53573e-05
2.98859e-05
2.11904e-05
1.51524e-05
9.75783e-06
9.91392e-06
2.54893e-05
3.26583e-05
2.25352e-05
1.58733e-05
1.10623e-05
1.18685e-05
2.41137e-05
3.72665e-05
3.43331e-05
2.19546e-05
1.38797e-05
8.18169e-06
1.31712e-05
1.96128e-05
2.99187e-05
2.54773e-05
8.50148e-06
9.68707e-06
1.49557e-05
2.11289e-05
3.23766e-05
2.52125e-05
9.9507e-06
1.1143e-05
1.57822e-05
2.24919e-05
3.7017e-05
2.42302e-05
1.20534e-05
1.40866e-05
2.218e-05
3.42269e-05
1.97761e-05
1.34162e-05
8.3757e-06
8.80426e-06
2.55188e-05
3.00478e-05
2.14356e-05
1.53765e-05
1.00398e-05
1.01719e-05
2.55228e-05
3.25801e-05
2.26792e-05
1.60224e-05
1.11531e-05
1.18358e-05
2.40257e-05
3.6964e-05
3.39989e-05
2.19025e-05
1.37142e-05
8.07667e-06
1.30449e-05
1.94006e-05
2.89978e-05
2.51886e-05
8.44015e-06
9.59975e-06
1.49564e-05
2.06996e-05
3.13767e-05
2.50123e-05
9.87586e-06
1.09204e-05
1.55986e-05
2.18906e-05
3.55076e-05
2.32925e-05
1.17755e-05
1.38021e-05
2.14529e-05
3.28022e-05
1.91052e-05
1.29912e-05
8.21228e-06
8.57655e-06
2.48389e-05
2.86697e-05
2.05592e-05
1.48164e-05
9.6171e-06
9.72498e-06
2.43514e-05
3.08595e-05
2.1793e-05
1.54605e-05
1.06789e-05
1.0506e-05
2.47678e-05
3.21733e-05
2.26945e-05
1.64546e-05
1.1598e-05
1.23845e-05
2.4088e-05
3.61113e-05
3.31501e-05
2.18979e-05
1.42308e-05
8.33416e-06
1.32808e-05
1.92999e-05
2.89052e-05
2.4826e-05
8.55236e-06
9.64523e-06
1.47684e-05
2.06426e-05
3.05852e-05
2.39405e-05
9.80173e-06
1.06588e-05
1.53636e-05
2.17837e-05
3.18081e-05
2.46163e-05
1.05657e-05
1.16351e-05
1.63391e-05
2.25693e-05
3.56215e-05
2.37757e-05
1.22826e-05
1.42307e-05
2.19032e-05
3.28792e-05
1.94655e-05
1.34347e-05
8.47222e-06
8.73493e-06
2.51351e-05
2.86986e-05
2.07883e-05
1.51048e-05
9.87359e-06
1.00336e-05
2.42935e-05
3.08168e-05
2.19891e-05
1.57363e-05
1.09561e-05
1.08656e-05
2.4912e-05
3.19934e-05
2.28356e-05
1.6637e-05
1.18877e-05
1.25359e-05
2.40816e-05
3.57844e-05
3.29275e-05
2.20557e-05
1.44026e-05
8.50452e-06
1.34592e-05
1.95917e-05
2.86679e-05
2.50733e-05
8.74562e-06
9.84622e-06
1.50818e-05
2.08362e-05
3.03862e-05
2.42283e-05
9.84387e-06
1.06745e-05
1.53872e-05
2.16692e-05
3.12192e-05
2.422e-05
1.05756e-05
1.16665e-05
1.6321e-05
2.24343e-05
3.47352e-05
2.34734e-05
1.23866e-05
1.42398e-05
2.15874e-05
3.22586e-05
1.92543e-05
1.34809e-05
8.49709e-06
8.8556e-06
2.42762e-05
2.81287e-05
2.05518e-05
1.49915e-05
9.94013e-06
1.00083e-05
2.40144e-05
3.00396e-05
2.15864e-05
1.54393e-05
1.07688e-05
1.03812e-05
2.39877e-05
3.08862e-05
2.22721e-05
1.5978e-05
1.1224e-05
1.10834e-05
2.48903e-05
3.16688e-05
2.2809e-05
1.68807e-05
1.20407e-05
1.25358e-05
2.38593e-05
3.50502e-05
3.24119e-05
2.18698e-05
1.43158e-05
8.41242e-06
1.32546e-05
1.94625e-05
2.79363e-05
2.45835e-05
8.70929e-06
9.85292e-06
1.49342e-05
2.05734e-05
2.94834e-05
2.37211e-05
1.00054e-05
1.08152e-05
1.53911e-05
2.14232e-05
3.02797e-05
2.36292e-05
1.05128e-05
1.13435e-05
1.59967e-05
2.20609e-05
3.12886e-05
2.46874e-05
1.11285e-05
1.20894e-05
1.68868e-05
2.27528e-05
3.49476e-05
2.39107e-05
1.27592e-05
1.47288e-05
2.21638e-05
3.24358e-05
1.98279e-05
1.38625e-05
8.85468e-06
9.19197e-06
2.5229e-05
2.83142e-05
2.08329e-05
1.53491e-05
1.02391e-05
1.01638e-05
2.41481e-05
3.00937e-05
2.18311e-05
1.57364e-05
1.10477e-05
1.08448e-05
2.4231e-05
3.08827e-05
2.24581e-05
1.63116e-05
1.16109e-05
1.13033e-05
2.51075e-05
3.16828e-05
2.30961e-05
1.72161e-05
1.23254e-05
1.29587e-05
2.41158e-05
3.50081e-05
3.246e-05
2.21506e-05
1.47147e-05
8.79144e-06
1.3751e-05
1.99124e-05
2.813e-05
2.47536e-05
9.13546e-06
1.01567e-05
1.5315e-05
2.09908e-05
2.96431e-05
2.40181e-05
1.01006e-05
1.0911e-05
1.56082e-05
2.17384e-05
3.02104e-05
2.36962e-05
1.07033e-05
1.15211e-05
1.61832e-05
2.22387e-05
3.11085e-05
2.47305e-05
1.14678e-05
1.2411e-05
1.71606e-05
2.28249e-05
3.4381e-05
2.40594e-05
1.30877e-05
1.49786e-05
2.22449e-05
3.21449e-05
1.99772e-05
1.39907e-05
8.97493e-06
9.28924e-06
2.50419e-05
2.82651e-05
2.10409e-05
1.54875e-05
1.03252e-05
1.03483e-05
2.41493e-05
2.98156e-05
2.19967e-05
1.5917e-05
1.12121e-05
1.09526e-05
2.40847e-05
3.05927e-05
2.25562e-05
1.64185e-05
1.1702e-05
1.1501e-05
2.49859e-05
3.12944e-05
2.30079e-05
1.72067e-05
1.23983e-05
1.29739e-05
2.39261e-05
3.43325e-05
3.19665e-05
2.20118e-05
1.4756e-05
8.77836e-06
1.37014e-05
1.98046e-05
2.75827e-05
2.46149e-05
9.17292e-06
1.0194e-05
1.52274e-05
2.07564e-05
2.88434e-05
2.34935e-05
1.02382e-05
1.1106e-05
1.56563e-05
2.15174e-05
2.94937e-05
2.34028e-05
1.0826e-05
1.15321e-05
1.61296e-05
2.2011e-05
3.01969e-05
2.4226e-05
1.12695e-05
1.19734e-05
1.67164e-05
2.25915e-05
3.1162e-05
2.51137e-05
1.17249e-05
1.27028e-05
1.75199e-05
2.31905e-05
3.45837e-05
2.43273e-05
1.35126e-05
1.54295e-05
2.25507e-05
3.23718e-05
2.03219e-05
1.44535e-05
9.33456e-06
9.69927e-06
2.51856e-05
2.83992e-05
2.14587e-05
1.59747e-05
1.07931e-05
1.08796e-05
2.45018e-05
3.00058e-05
2.23922e-05
1.64053e-05
1.1696e-05
1.14859e-05
2.46914e-05
3.08564e-05
2.30315e-05
1.69314e-05
1.22106e-05
1.1969e-05
2.542e-05
3.17982e-05
2.36972e-05
1.78537e-05
1.29855e-05
1.36906e-05
2.46645e-05
3.48975e-05
3.2473e-05
2.27519e-05
1.55123e-05
9.36505e-06
1.45021e-05
2.04445e-05
2.83532e-05
2.5298e-05
9.73474e-06
1.08112e-05
1.59795e-05
2.15796e-05
2.95991e-05
2.43959e-05
1.07582e-05
1.15372e-05
1.62544e-05
2.22821e-05
3.00988e-05
2.42047e-05
1.142e-05
1.21176e-05
1.6764e-05
2.27242e-05
3.08339e-05
2.48991e-05
1.19043e-05
1.28694e-05
1.76292e-05
2.32243e-05
3.39337e-05
2.41884e-05
1.37095e-05
1.56636e-05
2.25231e-05
3.18291e-05
2.03268e-05
1.45747e-05
9.50477e-06
9.85508e-06
2.49232e-05
2.80236e-05
2.15012e-05
1.61276e-05
1.10003e-05
1.11152e-05
2.44849e-05
2.9582e-05
2.24435e-05
1.65696e-05
1.19085e-05
1.16487e-05
2.45796e-05
3.03714e-05
2.30091e-05
1.7119e-05
1.24027e-05
1.22811e-05
2.52061e-05
3.13087e-05
2.36938e-05
1.80306e-05
1.32508e-05
1.39709e-05
2.46294e-05
3.43605e-05
3.20497e-05
2.28089e-05
1.57942e-05
9.60569e-06
1.47406e-05
2.05999e-05
2.82388e-05
2.53903e-05
9.90771e-06
1.09232e-05
1.61019e-05
2.16389e-05
2.93709e-05
2.43306e-05
1.10402e-05
1.18482e-05
1.64567e-05
2.23765e-05
2.99055e-05
2.42744e-05
1.16693e-05
1.24513e-05
1.7056e-05
2.28649e-05
3.06805e-05
2.4921e-05
1.22713e-05
1.33071e-05
1.80145e-05
2.34363e-05
3.37537e-05
2.44567e-05
1.42122e-05
1.61026e-05
2.28816e-05
3.1751e-05
2.08354e-05
1.51352e-05
9.93896e-06
1.03517e-05
2.54163e-05
2.84077e-05
2.19718e-05
1.66198e-05
1.13429e-05
1.14774e-05
2.52269e-05
2.99587e-05
2.29089e-05
1.7127e-05
1.22967e-05
1.2092e-05
2.52015e-05
3.08546e-05
2.34037e-05
1.77909e-05
1.31015e-05
1.39145e-05
2.40573e-05
3.35941e-05
3.14044e-05
2.24525e-05
1.57411e-05
9.62189e-06
1.46405e-05
2.03972e-05
2.75527e-05
2.47542e-05
1.00345e-05
1.10768e-05
1.62414e-05
2.15096e-05
2.88901e-05
2.45536e-05
1.12348e-05
1.20365e-05
1.66968e-05
2.23251e-05
2.9745e-05
2.43158e-05
1.20644e-05
1.3121e-05
1.75958e-05
2.28882e-05
3.25575e-05
2.37008e-05
1.39448e-05
1.58409e-05
2.22792e-05
3.06879e-05
2.02923e-05
1.48461e-05
9.79747e-06
1.01657e-05
2.46503e-05
2.7393e-05
2.14397e-05
1.63669e-05
1.12015e-05
1.14103e-05
2.43392e-05
2.89416e-05
2.23932e-05
1.68948e-05
1.22975e-05
1.22039e-05
2.4473e-05
2.98715e-05
2.29842e-05
1.76474e-05
1.30938e-05
1.38789e-05
2.36768e-05
3.24548e-05
3.05341e-05
2.21882e-05
1.5784e-05
9.6545e-06
1.45698e-05
2.03112e-05
2.70546e-05
2.446e-05
1.00799e-05
1.11923e-05
1.62936e-05
2.13629e-05
2.83971e-05
2.43329e-05
1.14417e-05
1.22437e-05
1.68502e-05
2.22366e-05
2.93705e-05
2.414e-05
1.22461e-05
1.32928e-05
1.77528e-05
2.28533e-05
3.22237e-05
2.36838e-05
1.41762e-05
1.60313e-05
2.24092e-05
3.0468e-05
2.05159e-05
1.5121e-05
9.96225e-06
1.04704e-05
2.493e-05
2.74433e-05
2.16465e-05
1.66929e-05
1.155e-05
1.17662e-05
2.47184e-05
2.90355e-05
2.27097e-05
1.7336e-05
1.26325e-05
1.27078e-05
2.47078e-05
3.00997e-05
2.34046e-05
1.82107e-05
1.3658e-05
1.44672e-05
2.41806e-05
3.28125e-05
3.09783e-05
2.27884e-05
1.63139e-05
1.01749e-05
1.5315e-05
2.09227e-05
2.77136e-05
2.50922e-05
1.06733e-05
1.17135e-05
1.69678e-05
2.20069e-05
2.93248e-05
2.4795e-05
1.21141e-05
1.32724e-05
1.79458e-05
2.30623e-05
3.21488e-05
2.38752e-05
1.43593e-05
1.62357e-05
2.26779e-05
3.05375e-05
2.06279e-05
1.51502e-05
1.01752e-05
1.07471e-05
2.4768e-05
2.747e-05
2.19247e-05
1.70029e-05
1.18652e-05
1.21492e-05
2.48933e-05
2.91776e-05
2.30397e-05
1.77523e-05
1.3019e-05
1.31929e-05
2.5072e-05
3.04606e-05
2.39369e-05
1.87822e-05
1.41789e-05
1.52078e-05
2.48934e-05
3.34019e-05
3.14961e-05
2.35049e-05
1.71392e-05
1.08078e-05
1.60417e-05
2.1606e-05
2.85091e-05
2.57464e-05
1.12433e-05
1.23524e-05
1.77043e-05
2.28346e-05
3.0272e-05
2.55672e-05
1.28169e-05
1.39082e-05
1.87219e-05
2.39089e-05
3.32708e-05
2.48193e-05
1.49488e-05
1.70194e-05
2.35854e-05
3.16695e-05
2.18451e-05
1.6287e-05
1.1059e-05
1.16397e-05
2.57793e-05
2.87405e-05
2.30526e-05
1.80524e-05
1.26784e-05
1.32035e-05
2.58605e-05
3.07217e-05
2.43623e-05
1.92168e-05
1.43437e-05
1.55846e-05
2.53496e-05
3.38187e-05
3.20757e-05
2.40275e-05
1.75668e-05
1.12364e-05
1.65161e-05
2.22217e-05
2.93506e-05
2.60698e-05
1.18789e-05
1.32403e-05
1.85791e-05
2.35439e-05
3.27945e-05
2.50001e-05
1.47055e-05
1.67535e-05
2.37475e-05
3.14315e-05
2.17518e-05
1.60468e-05
1.0696e-05
1.13345e-05
2.60698e-05
2.86018e-05
2.28372e-05
1.76757e-05
1.24685e-05
1.3029e-05
2.52266e-05
3.02016e-05
2.39837e-05
1.88464e-05
1.41979e-05
1.54111e-05
2.47761e-05
3.30557e-05
3.15697e-05
2.36193e-05
1.73546e-05
1.11958e-05
1.64551e-05
2.20997e-05
2.89377e-05
2.56549e-05
1.19847e-05
1.33259e-05
1.86787e-05
2.34449e-05
3.24093e-05
2.50457e-05
1.49366e-05
1.70185e-05
2.39042e-05
3.11735e-05
2.20089e-05
1.64045e-05
1.11117e-05
1.18651e-05
2.57694e-05
2.87517e-05
2.31426e-05
1.84308e-05
1.30781e-05
1.44374e-05
2.44217e-05
3.20079e-05
3.08107e-05
2.32571e-05
1.65353e-05
1.08068e-05
1.58997e-05
2.14805e-05
2.82228e-05
2.49807e-05
1.17757e-05
1.31052e-05
1.82048e-05
2.28685e-05
3.15605e-05
2.44012e-05
1.46983e-05
1.68314e-05
2.33652e-05
3.04393e-05
2.16265e-05
1.61606e-05
1.10163e-05
1.18557e-05
2.5172e-05
2.82114e-05
2.29013e-05
1.83409e-05
1.31305e-05
1.45905e-05
2.43743e-05
3.15341e-05
3.03994e-05
2.32528e-05
1.66365e-05
1.08456e-05
1.59703e-05
2.14964e-05
2.81152e-05
2.5846e-05
1.16469e-05
1.30003e-05
1.80672e-05
2.26809e-05
3.13497e-05
2.39093e-05
1.4774e-05
1.6979e-05
2.30318e-05
3.02851e-05
2.16408e-05
1.63752e-05
1.12906e-05
1.22619e-05
2.50048e-05
2.82662e-05
2.31421e-05
1.8758e-05
1.3586e-05
1.52488e-05
2.48625e-05
3.19123e-05
3.08209e-05
2.38271e-05
1.7338e-05
1.1475e-05
1.66681e-05
2.21622e-05
2.89078e-05
2.55981e-05
1.24671e-05
1.38576e-05
1.91592e-05
2.36803e-05
3.28619e-05
2.56143e-05
1.5748e-05
1.79868e-05
2.47917e-05
3.18826e-05
2.29985e-05
1.76803e-05
1.24152e-05
1.4439e-05
2.56024e-05
3.15006e-05
3.0697e-05
2.45968e-05
1.68559e-05
1.1509e-05
1.68749e-05
2.22996e-05
2.94436e-05
2.58262e-05
1.26791e-05
1.40604e-05
1.93797e-05
2.41074e-05
3.32161e-05