/*--------------------------------*- C++ -*----------------------------------*\
| =========                 |                                                 |
| \\      /  F ield         | OpenFOAM: The Open Source CFD Toolbox           |
|  \\    /   O peration     | Version:  v2006                                 |
|   \\  /    A nd           | Website:  www.openfoam.com                      |
|    \\/     M anipulation  |                                                 |
\*---------------------------------------------------------------------------*/
FoamFile
{
    version     2.0;
    format      ascii;
    class       volScalarField;
    location    "0.009";
    object      k;
}
// * * * * * * * * * * * * * * * * * * * * * * * * * * * * * * * * * * * * * //

dimensions      [0 2 -2 0 0 0 0];


internalField   nonuniform List<scalar> 
16277
(
82.6325
82.6324
82.6311
82.6317
82.6325
82.6334
82.6331
82.6197
82.5621
82.4458
82.2731
82.0539
81.8039
81.5269
81.2325
80.9243
80.6025
80.2655
79.9118
79.5403
79.1509
78.7439
78.3196
77.8782
77.4201
76.9455
76.4547
75.9483
75.4267
74.8907
74.341
73.7784
73.2039
72.6183
72.0228
71.4183
70.8061
70.1874
69.5633
68.9348
68.3041
67.6726
67.0406
66.4087
65.7778
65.1472
64.5157
63.8862
63.2575
62.6306
62.0087
61.3928
60.7839
60.1838
59.5928
59.0105
58.4371
57.8724
57.3167
56.7702
56.2332
55.7058
55.1884
54.6812
54.1848
53.6994
53.2255
52.7635
52.3139
51.8772
51.4539
51.0445
50.6496
50.2697
49.9052
49.5568
49.2247
48.9095
48.6111
48.3286
48.0635
47.8256
47.6459
47.5682
47.6183
47.7637
47.9346
48.0315
48.0501
48.1361
48.2296
47.9862
47.6366
47.2393
46.6606
45.7246
41.4244
36.2846
42.6627
45.1396
42.3052
37.7036
31.8174
28.7716
34.8646
40.273
37.3868
31.1738
26.1038
24.4593
29.5863
36.0274
33.8159
27.1434
22.8791
21.9335
26.3233
33.0432
31.4443
24.7375
20.9068
20.2964
24.3178
30.9836
29.8419
23.2991
19.5763
19.1545
23.0547
29.5235
28.623
22.3297
18.6101
18.3016
22.1637
28.375
27.5921
21.5809
17.8619
17.6202
21.4519
27.3785
26.6516
20.937
17.2393
17.0318
20.8149
26.442
25.7152
20.3118
16.6813
16.4913
20.1809
25.4906
24.7423
19.6705
16.1619
15.9853
19.5333
24.5063
23.753
19.0278
15.6759
15.5104
18.891
23.5143
22.7707
18.4002
15.2163
15.0545
18.2635
22.5313
21.7996
17.7836
14.7658
14.5979
17.6421
21.5563
20.8258
17.1611
14.3069
14.1281
17.0099
20.5716
19.8301
16.5201
13.8356
13.6494
16.3599
19.5635
18.8127
15.8665
13.3633
13.1786
15.7034
18.5403
17.7989
15.2216
12.9106
12.7383
15.0646
17.5341
16.8326
14.615
12.4986
12.3468
14.4757
16.5941
15.9709
14.081
12.1398
12.0108
13.9694
15.7778
15.2674
13.6455
11.8343
11.7255
13.5666
15.135
14.7613
13.3173
11.5722
11.4779
13.2689
14.688
14.4299
13.0816
11.3388
11.252
13.0567
14.4006
14.2316
12.9142
11.1175
11.0315
12.9045
14.2325
14.1276
12.7883
10.8933
10.8021
12.7868
14.1461
14.0863
12.6825
10.6541
10.5539
12.6837
14.1204
14.079
12.5766
10.392
10.2801
12.572
14.1134
14.0518
12.4421
10.1025
9.97918
12.4247
14.0738
13.9703
12.2663
9.78807
9.65559
12.2402
13.979
13.8483
12.0649
9.45286
9.31166
12.0342
13.8545
13.7181
11.8475
9.09656
8.94524
11.8114
13.723
13.5745
11.6093
8.71562
8.55231
11.565
13.5729
13.402
11.3423
8.30598
8.12876
11.2869
13.386
13.1823
11.0382
7.8643
7.67268
10.971
13.1518
12.9197
10.6984
7.39109
7.18525
10.6224
12.8796
12.6292
10.332
6.88768
6.66451
10.2466
12.5798
12.3053
9.93296
6.35
6.10731
9.8313
12.238
11.92
9.48022
5.76933
5.51453
9.35575
11.8243
11.4454
8.95704
5.15439
4.8529
8.80093
11.315
10.8642
8.34316
4.50214
4.26636
8.16516
10.6957
10.175
7.66887
3.9611
3.70302
7.45896
9.97436
9.39416
6.89826
3.3659
3.05047
6.62862
9.1571
8.52525
5.97344
2.64276
2.28222
5.575
8.19389
7.64059
4.81144
1.69006
0.827152
3.29211
6.78294
5.50168
2.45971
0.351728
0.331006
2.65361
5.1723
5.3185
3.7131
0.552935
0.805276
4.83484
6.08835
7.64461
5.34256
0.98639
1.11667
5.75909
8.8247
9.19467
5.80597
1.16804
1.17415
5.78604
9.29224
9.06975
5.50227
1.09835
1.077
5.39565
8.86085
8.24624
4.96231
0.961607
0.950698
4.85163
7.99193
7.26926
4.36691
0.830921
0.843026
4.33983
7.11407
6.45659
3.95458
0.751396
0.745722
3.86841
6.24244
5.56806
3.46989
0.670325
0.670942
3.32664
5.30387
4.6182
2.88068
0.581807
0.560618
2.67948
4.29869
3.55645
2.16489
0.45667
0.431435
1.92806
3.19342
2.50088
1.4696
0.364194
0.359372
1.27519
2.18289
1.65413
0.95837
0.343899
0.359375
0.835559
1.43952
1.08894
0.651267
0.377936
0.414948
0.582078
0.958375
0.74543
0.480809
0.451882
0.496971
0.445628
0.669732
0.545326
0.396381
0.549075
0.601145
0.382784
0.502217
0.427939
0.356413
0.663611
0.719158
0.350294
0.402502
0.357437
0.341554
0.788288
0.845155
0.340379
0.342296
0.314562
0.340425
0.917181
0.972363
0.341352
0.305731
0.287875
0.35044
1.04253
1.09309
0.355185
0.281842
0.270291
0.372317
1.15772
1.20156
0.379434
0.265725
0.259066
0.40388
1.25802
1.29365
0.414656
0.256811
0.254698
0.448909
1.34054
1.36769
0.46419
0.254304
0.255322
0.509926
1.40435
1.42403
0.528223
0.256778
0.259466
0.580212
1.4512
1.46501
0.596401
0.262179
0.263382
0.646499
1.48392
1.49294
0.661374
0.264879
0.265042
0.710703
1.50451
1.50966
0.722881
0.265041
0.264935
0.766659
1.51602
1.5176
0.774886
0.262252
0.261725
0.81054
1.52036
1.51919
0.814196
0.256518
0.256521
0.840261
1.51923
1.51631
0.840168
0.25274
0.253849
0.858155
1.51495
1.51139
0.855613
0.250335
0.252404
0.866243
1.50922
1.50558
0.861119
0.249047
0.251554
0.866601
1.50333
1.49982
0.855441
0.248564
0.25183
0.858008
1.49797
1.4949
0.845136
0.250235
0.255431
0.848281
1.49377
1.49118
0.836627
0.254203
0.259258
0.839954
1.49052
1.48849
0.828973
0.258107
0.26359
0.832558
1.48825
1.48675
0.822813
0.262844
0.268935
0.826853
1.48681
1.48562
0.818528
0.268557
0.274524
0.822969
1.48598
1.48491
0.815789
0.274253
0.27961
0.820566
1.48566
1.48468
0.814031
0.279388
0.283732
0.819315
1.48591
1.48533
0.812829
0.284593
0.288287
0.817523
1.48766
1.48741
0.802936
0.289143
0.294897
0.805994
1.49482
1.49916
0.787706
0.299987
0.307811
0.738197
1.51509
1.51024
0.724705
0.320921
0.317592
0.480216
1.40512
1.55433
0.7534
0.420682
0.434686
0.466498
0.490804
0.496748
0.497419
0.483602
0.479957
0.479302
0.477108
0.467344
0.462743
0.454653
0.45314
0.450044
0.446846
0.429359
0.422336
0.403408
0.38948
0.372475
0.328265
0.293447
0.556738
0.839853
0.666114
0.571964
0.841182
0.620121
0.668188
0.846184
0.512072
0.464762
0.848891
0.709649
0.72804
0.851387
0.431347
0.419564
0.850029
0.739231
0.749079
0.847825
0.395448
0.386472
0.847211
0.75131
0.75273
0.847446
0.38116
0.376471
0.844886
0.753226
0.753311
0.84372
0.37345
0.370875
0.842821
0.752448
0.751069
0.841711
0.369011
0.367495
0.839864
0.750455
0.749369
0.838145
0.366018
0.364819
0.837458
0.747947
0.746331
0.836288
0.363857
0.362995
0.834774
0.74548
0.743771
0.832746
0.361877
0.360566
0.83162
0.742491
0.74044
0.830845
0.359877
0.358712
0.828428
0.739135
0.737182
0.826907
0.357726
0.356367
0.825327
0.735658
0.733361
0.824417
0.355591
0.354301
0.821697
0.731668
0.729366
0.819847
0.353169
0.351617
0.817793
0.727553
0.725074
0.816629
0.350644
0.349148
0.813488
0.723119
0.720578
0.811424
0.347826
0.34606
0.809036
0.718647
0.716089
0.807674
0.344881
0.343171
0.804171
0.713915
0.711172
0.801739
0.341612
0.339589
0.798979
0.709124
0.706627
0.797415
0.338117
0.336521
0.794302
0.704468
0.701742
0.790929
0.334616
0.332377
0.788076
0.699729
0.697461
0.786443
0.330696
0.328967
0.783287
0.695251
0.692383
0.779706
0.326909
0.324535
0.776545
0.690181
0.687441
0.774722
0.322705
0.320866
0.771338
0.684437
0.680449
0.767408
0.318698
0.316197
0.763601
0.676758
0.67211
0.761009
0.314196
0.312223
0.756889
0.667026
0.660993
0.751996
0.3099
0.307202
0.747126
0.655712
0.650455
0.743279
0.304936
0.302741
0.738469
0.645982
0.642038
0.733177
0.300203
0.297286
0.728189
0.640277
0.639215
0.724553
0.294779
0.292427
0.720547
0.637914
0.636234
0.716289
0.289805
0.286823
0.712013
0.634954
0.633103
0.708576
0.284211
0.28174
0.704452
0.631682
0.631154
0.700185
0.278999
0.275893
0.695895
0.631008
0.630999
0.692451
0.273197
0.270271
0.688028
0.631435
0.632948
0.684622
0.267486
0.264198
0.680485
0.636266
0.640136
0.67815
0.261311
0.258223
0.67524
0.644398
0.649637
0.673645
0.255288
0.251787
0.671489
0.656259
0.662879
0.670475
0.248531
0.24553
0.669726
0.670354
0.678894
0.669291
0.24223
0.238366
0.668439
0.687425
0.692615
0.667777
0.234654
0.231223
0.666306
0.694976
0.695833
0.663819
0.227357
0.222776
0.659702
0.69571
0.690739
0.654685
0.218384
0.213783
0.64571
0.676524
0.655406
0.633659
0.208973
0.203134
0.616183
0.632094
0.607423
0.596893
0.197128
0.191439
0.575036
0.581993
0.554121
0.551751
0.185349
0.17882
0.527261
0.527235
0.504311
0.507137
0.172605
0.169631
0.497379
0.485416
0.473254
0.49011
0.17241
0.180201
0.485833
0.469819
0.469826
0.485158
0.196795
0.226672
0.499594
0.478244
0.502601
0.526841
0.266728
0.316544
0.554521
0.549242
0.627414
0.595286
0.378927
0.459141
0.638181
0.738188
0.88225
0.71405
0.560057
0.682187
0.778352
1.07133
1.29981
0.922732
0.843963
1.03325
1.0795
1.57528
1.87951
1.27947
1.242
1.45748
1.48768
2.2216
2.56436
1.70027
1.68287
1.91579
1.96675
2.99191
3.44757
2.29505
2.09618
2.16596
2.81577
4.08758
4.36155
3.10203
2.15218
0.77337
1.39622
2.04203
3.76099
2.03558
1.12025
1.15152
2.00631
3.74054
4.12425
2.1788
1.36299
1.57994
2.17671
4.15523
4.66498
2.49513
1.86837
2.14606
2.59021
4.79865
5.42958
2.96291
2.44544
2.71047
3.07442
5.60233
6.44735
3.62341
3.0094
3.2533
3.88418
6.7946
7.94893
4.83074
3.51159
3.67234
5.73167
8.39016
4.17017
2.57567
2.34116
2.92625
4.03318
7.71034
7.93908
4.13214
3.08672
3.42925
5.0042
9.36873
9.8332
5.30046
3.62097
3.93201
6.21694
11.0491
11.7382
6.79657
4.19554
4.59654
8.24866
13.2287
13.6666
9.43683
5.02096
3.06811
4.19614
7.52506
12.7645
6.88553
3.65448
3.75806
6.92866
13.0717
14.738
8.15112
4.13401
4.3596
8.38994
15.2439
17.4599
10.5454
5.06048
5.69159
12.4373
18.1799
10.8052
5.43386
3.23914
4.20585
9.86195
18.0278
18.9278
10.4796
4.57348
5.30987
13.2442
22.02
23.4974
14.6509
5.91529
6.95964
17.4167
24.6074
15.5993
7.53633
3.28634
4.74016
14.3088
24.2756
25.3788
14.5238
4.95188
6.31792
18.2476
29.2216
31.0883
21.6971
7.48912
3.33912
10.6679
21.7998
33.5143
21.602
6.28166
7.37852
24.0044
37.0063
43.0859
29.7019
9.62833
11.4282
34.2283
45.6891
38.2174
22.5295
4.85928
9.54747
34.7053
49.7677
51.5444
36.3657
9.2693
7.80439
34.9883
50.9423
62.0849
46.5499
15.78
9.86941
36.1591
56.4689
71.8803
58.5642
24.4352
15.319
39.8989
60.501
87.5923
74.0573
36.6165
39.072
78.1262
94.5646
96.5119
78.3271
41.3427
44.8605
79.018
98.0185
98.4446
80.0941
48.3926
59.9973
92.0504
101.786
78.2445
57.3097
49.578
53.1979
72.4365
83.7661
60.9081
47.0392
41.7843
41.2079
54.0408
65.9306
58.9891
45.446
37.2937
30.6041
28.1675
36.3685
46.5374
37.4532
31.2839
26.2957
26.7926
32.6387
40.8178
31.7531
26.3806
24.1985
27.5283
36.4879
22.7871
18.8684
22.2823
22.1909
23.069
31.118
27.5746
20.8295
20.4493
20.0323
15.6422
17.4568
25.0016
18.7637
19.4146
18.3954
17.2217
22.1393
14.5715
13.6132
18.5694
17.466
15.8844
20.6279
18.3895
14.626
16.9166
17.4788
11.9958
12.5574
17.4286
13.6725
15.9534
15.8264
12.637
15.6497
11.0443
10.7732
16.7077
14.8316
12.0895
15.0483
13.5542
11.2184
14.9205
16.01
9.88227
9.94436
13.2303
10.7894
14.0152
14.2379
10.0756
12.0026
9.08617
9.16958
15.3697
13.3055
9.95325
12.1174
10.5633
9.25447
13.4994
14.0757
8.88426
9.52557
7.85723
8.20614
15.4183
12.732
8.04465
9.16505
8.69518
7.98528
13.372
14.8637
7.74709
7.02243
7.98271
7.21468
12.1439
12.9173
7.3329
7.61805
6.42994
7.38837
14.4713
11.7755
6.60826
6.93523
6.75066
6.61066
12.6287
14.3354
7.16782
5.86679
6.45726
6.26752
11.5941
12.4787
6.23196
6.25409
5.57646
7.11696
14.2009
11.4693
5.92946
6.0023
5.77377
5.76316
12.4063
14.2353
7.13738
5.30775
5.74989
5.77444
11.3541
12.3576
5.65668
5.52797
5.16705
7.1198
14.2023
11.5067
5.59018
5.51326
5.17953
5.45021
12.6078
14.531
7.29436
5.03825
5.33193
5.22199
11.6287
13.4132
6.3877
4.87098
5.40987
5.34636
10.8473
11.8949
5.24486
5.13441
4.9936
7.00567
13.8426
11.2268
5.50923
5.44339
5.14822
5.39149
12.2825
14.1898
7.12904
5.02456
5.48782
5.56126
11.4218
12.4961
5.42526
5.0533
5.05081
7.401
14.5597
11.7577
5.47374
5.30216
4.88834
5.38664
12.8467
14.8312
7.48097
4.92742
5.15912
5.38793
11.7749
13.0207
5.30581
4.70714
4.91563
7.79547
15.2869
12.1663
4.74361
4.64542
4.5192
6.61509
14.3568
11.5257
4.93309
4.78145
4.37734
4.9075
12.6722
14.7574
7.43608
4.55869
4.61355
4.95749
11.8709
13.145
4.891
4.23541
4.61707
7.83985
15.4782
12.2649
4.45388
4.23435
4.24435
6.51016
14.5492
11.4827
4.65386
4.44495
4.12164
4.71762
12.7347
15.0285
7.54638
4.39013
4.42817
4.83773
12.0522
13.4788
4.88051
4.11893
4.57894
8.06538
16.0317
12.6819
4.43938
4.17622
4.23854
6.71974
15.0978
11.8866
4.62389
4.36502
4.03678
4.73195
13.2653
15.7227
7.81153
4.40324
4.29513
4.77933
12.5169
14.012
4.85358
4.00653
4.56575
8.34735
16.7213
13.1451
4.40426
4.07911
4.19462
6.8906
15.707
12.2205
4.52983
4.24016
3.94728
4.76058
13.7579
16.5029
8.37177
4.53436
4.08487
4.42377
13.0548
15.9795
7.04642
4.23561
4.27225
4.59725
12.4967
14.0254
4.73988
3.95363
4.59094
8.56791
16.8011
13.2964
4.54692
4.10177
4.26591
7.1476
16.0682
12.5039
4.60282
4.27571
3.98637
4.8502
14.1714
17.2068
8.82589
4.66527
4.14955
4.57103
13.5749
16.7106
7.36981
4.35912
4.29283
4.64049
12.972
14.6599
4.92155
4.00034
4.74093
8.97523
17.5794
13.881
4.60396
4.18102
4.42272
7.49857
16.9666
13.3405
4.69922
4.31524
4.0188
4.94595
15.1287
18.3892
9.3459
4.85163
4.22797
4.61316
14.468
17.9362
8.22106
4.71591
4.18132
4.31722
13.9178
16.7061
7.52353
4.45738
4.32736
4.681
13.1537
14.9349
5.02506
4.05504
4.88633
9.39463
18.2353
14.4198
4.75965
4.26996
4.60592
7.93378
17.8605
13.9698
4.80193
4.37928
4.1033
5.16417
15.906
19.4029
9.88731
5.08323
4.33416
4.80646
15.3328
18.9247
8.60738
4.89561
4.2796
4.44311
14.829
17.7488
7.84145
4.61313
4.38193
4.80411
13.8819
15.807
5.12333
4.10746
5.12357
9.94214
19.411
15.3796
4.88046
4.3689
4.95759
8.62363
19.1462
15.029
4.45972
4.3335
4.76701
8.25121
18.1731
14.3307
4.91424
4.4642
4.23075
5.38296
16.3277
19.8657
10.2372
5.31865
4.46218
5.00905
15.8177
19.8187
8.95907
5.12589
4.42587
4.59532
15.478
18.7338
8.48319
4.88117
4.53208
5.01453
14.652
16.698
5.44394
4.28896
5.45048
10.5312
20.5287
16.2596
5.1496
4.55631
5.29238
9.20113
20.2361
15.9794
4.75237
4.51519
5.04803
8.83426
19.2644
15.1373
5.16546
4.63537
4.40641
5.65095
17.3747
21.5193
10.937
5.71897
4.62938
5.23361
17.1967
21.5544
9.51121
5.49021
4.5763
4.72341
16.7808
20.3107
9.17402
5.2473
4.65567
5.2355
15.7628
17.9842
5.70698
4.41485
5.82283
11.3229
22.0776
17.4614
5.34354
4.63825
5.58869
9.8112
21.8895
16.9168
4.76978
4.56405
5.41702
9.26341
20.8391
16.4658
4.82251
4.55409
5.28354
9.20791
20.1391
15.8121
5.31624
4.65026
4.49422
5.94669
18.1754
22.663
11.728
6.02267
4.74542
5.57076
18.158
22.9678
10.2239
5.82694
4.65094
5.00633
17.9588
21.866
9.69246
5.60223
4.61986
4.96014
17.087
20.8521
9.58867
5.45294
4.70002
5.46818
16.418
18.8708
6.00614
4.53649
6.16297
12.0417
23.5372
18.7138
5.65657
4.81641
5.96316
10.5384
23.6995
18.3976
5.06982
4.73272
5.77444
9.95614
22.5282
17.6873
5.08115
4.71303
5.6344
9.97672
21.5522
17.0088
5.66839
4.80192
4.65997
6.29558
19.4994
24.3076
12.5796
6.43763
4.97784
5.92831
19.4467
24.6976
10.9684
6.2428
4.86413
5.22902
19.2651
23.8227
10.527
6.04989
4.8292
5.31222
18.657
22.8032
10.4353
5.87145
4.86198
5.83137
17.8193
20.5207
6.57499
4.71637
6.69704
13.1207
25.5866
20.3769
6.11509
5.09916
6.45953
11.4203
25.6016
19.8459
5.39283
4.98507
6.26987
10.898
24.493
19.3269
5.46105
4.95896
6.1881
10.7493
23.9795
18.9579
5.5448
4.98021
6.11316
10.7494
23.2189
18.4839
6.17599
5.06334
4.9388
6.93654
21.3122
26.8348
13.9176
7.09097
5.33829
6.47298
21.3276
27.1766
12.0972
6.84225
5.21534
5.70111
21.0561
25.8514
11.4849
6.59757
5.15626
5.70352
20.2585
25.0561
11.3101
6.4669
5.17772
5.83041
19.8986
24.3841
11.3006
6.35208
5.2599
6.40919
19.2367
22.0699
7.1053
5.12251
7.32444
14.2976
27.5984
21.7397
6.68618
5.58815
7.18064
12.6511
27.687
21.5264
6.09768
5.52252
6.95629
12.0075
26.7428
21.0171
6.0618
5.4957
6.89631
11.9041
25.9485
20.6108
6.24065
5.53395
6.77674
11.7991
25.2744
20.0882
6.81067
5.59805
5.47926
7.65735
23.1165
29.0788
15.1788
7.85363
5.9141
7.17095
23.2895
29.5899
13.303
7.58319
5.77815
6.39008
23.24
28.6831
12.6775
7.34844
5.72017
6.30901
22.5184
27.7333
12.5234
7.22181
5.73394
6.45235
21.8663
26.6017
12.505
7.12178
5.80354
7.10684
20.9211
24.13
7.97626
5.6649
8.17394
15.8727
30.3218
24.1485
7.48922
6.16436
7.95439
13.9369
30.6945
23.926
6.71342
6.06739
7.68052
13.184
29.5212
23.26
6.65408
6.01649
7.61
13.0626
28.7106
22.804
6.83365
6.03865
7.51611
13.1204
27.8983
22.0851
7.51902
6.09227
5.9888
8.52675
25.6458
32.449
16.9215
8.79665
6.48924
7.91845
25.7599
32.7772
14.882
8.47558
6.3347
7.10002
25.439
31.3559
14.0117
8.14702
6.24809
6.99237
24.7517
30.5567
13.8347
8.00913
6.26179
7.08927
24.1994
29.8246
13.7999
7.98734
6.30661
7.25016
23.6939
29.0078
13.7743
7.8377
6.37234
7.85251
22.7722
26.4849
8.83842
6.24529
9.13558
17.5324
33.4387
26.46
8.33738
6.8304
8.83845
15.3994
33.4717
26.0643
7.50336
6.71755
8.58333
14.6596
32.0926
25.2253
7.50254
6.68479
8.49426
14.5437
31.0494
24.6831
7.73591
6.71166
8.35369
14.3855
30.1437
23.8972
8.30676
6.73842
6.64558
9.39017
27.8962
35.2606
18.5637
9.78237
7.25292
8.87752
27.9432
35.341
16.361
9.45125
7.08298
8.02454
27.764
34.2296
15.5493
9.11399
7.00516
7.9051
26.9648
33.0573
15.3273
8.99368
6.98508
8.06209
26.2561
32.2275
15.2805
8.79876
6.98535
8.71755
25.2821
29.5316
9.8204
6.88492
10.2933
19.6249
37.1976
29.2967
9.37294
7.53212
9.85018
17.1479
36.8705
28.7254
8.38577
7.36788
9.50694
16.2541
35.1918
27.7414
8.32956
7.31646
9.37414
15.9836
34.2343
27.1492
8.47094
7.33476
9.22969
15.9656
33.4982
26.4213
9.16451
7.35301
7.28644
10.429
30.9705
39.1009
20.7094
10.8842
7.99915
9.9165
30.9885
39.1955
18.2465
10.5402
7.81728
8.96879
30.5173
37.614
17.4013
10.1612
7.74355
8.91373
29.5334
36.5352
17.1049
10.0249
7.74182
9.01561
28.8729
35.7897
17.0529
9.81406
7.74799
9.68362
28.1541
32.966
10.9262
7.65948
11.4676
21.7821
41.2055
32.5698
10.4728
8.39178
11.0271
19.1173
40.6618
31.6176
9.4624
8.23971
10.6671
18.1336
39.1684
30.6867
9.4209
8.20311
10.4766
18.1303
38.3217
30.3191
10.3591
8.20437
8.15566
11.7425
35.6251
44.5297
23.5895
12.4363
8.96769
11.2532
35.1037
43.8507
20.4234
11.8735
8.66236
9.99321
34.0762
42.1591
19.4219
11.3491
8.53589
9.91119
32.6799
40.5014
19.1904
10.9981
8.49167
10.7537
31.7245
37.301
12.1593
8.41431
12.887
24.5869
46.5037
36.5087
11.678
9.26133
12.2801
21.2669
45.8818
35.2451
10.3185
9.01081
11.8595
20.3459
44.1236
34.5033
10.4573
8.96856
11.6475
20.3443
42.9445
33.7128
11.4474
8.95585
8.92563
13.0795
39.7641
49.4378
26.3491
13.8068
9.82218
12.4954
38.6887
48.7735
22.7102
13.1671
9.50432
10.9932
37.5072
46.644
21.4984
12.5447
9.35631
10.9737
36.2975
45.3392
21.3435
12.1468
9.31562
11.8845
35.6433
42.0297
13.3952
9.24004
14.2905
27.1967
52.0536
40.4635
12.8666
10.2041
13.7456
23.969
51.2365
39.4321
11.6926
10.0153
13.2277
22.6566
49.2117
38.4219
11.6049
9.96457
13.0026
22.7084
48.057
37.9012
12.7913
9.95794
9.93172
14.5764
44.7205
55.3587
29.4067
15.481
10.9758
14.019
42.9646
53.9942
25.4054
14.7605
10.6218
12.5429
41.5831
51.9789
24.257
13.9079
10.3768
13.2988
40.5687
47.595
14.7218
10.3052
16.2393
31.3538
59.4586
45.427
14.6671
11.4101
15.4981
26.8599
57.1073
44.0461
13.1062
11.1353
14.8153
25.4759
55.1748
42.9543
12.9463
11.0367
14.4755
25.4308
53.8087
42.1928
14.1545
10.9778
10.993
16.1565
49.6726
61.7231
33.0562
17.3109
12.184
15.8449
47.7582
60.2447
28.543
16.5576
11.9121
14.1161
46.6047
58.4296
27.3662
15.6706
11.6458
14.9699
45.1764
53.3467
16.9012
11.6038
18.3798
35.1532
66.9747
51.7013
16.6007
12.8572
17.5521
30.5473
64.8962
49.9763
15.0668
12.5804
16.6245
29.1586
62.2414
48.5093
15.9129
12.3237
12.3491
18.1267
56.8538
70.3343
37.6046
19.5757
13.6247
17.9397
53.966
67.7724
32.6355
18.4964
13.0821
16.9075
52.1482
61.1455
18.9114
13.0274
20.6549
39.3877
75.9085
57.3976
18.3119
14.3123
19.8138
34.5748
72.9246
55.9614
16.9264
13.9217
18.6988
32.8368
69.8231
54.3999
17.7267
13.5091
13.5336
20.2743
63.8194
78.9347
41.765
21.7786
14.9319
19.7155
60.8005
76.0439
36.0421
20.3927
14.1455
18.3976
58.3682
68.1996
20.5119
14.0977
22.6955
43.7361
84.3154
64.2382
20.2652
15.5302
21.3732
37.8275
80.5957
61.3932
19.5327
14.7475
14.7313
22.1335
72.4582
90.6032
47.2377
24.3184
16.354
21.4905
68.3727
85.2106
40.404
22.6439
15.2984
20.2067
64.7417
75.5337
22.6265
15.2575
24.9811
48.4539
93.1629
70.8172
22.187
16.8044
23.3961
41.5553
88.3701
67.6165
21.0559
15.8957
15.8967
23.6233
79.2649
98.5153
50.9495
26.1627
17.5508
22.4199
72.7405
93.142
44.1038
24.619
16.4303
22.1596
70.9778
82.9464
24.5714
16.3925
27.1678
53.1584
102.827
77.9575
24.1276
18.1369
25.3426
45.4414
96.9913
74.0285
22.7784
17.1134
17.1215
25.5706
86.2047
106.486
55.4674
28.3255
18.8805
25.2119
80.6235
100.752
47.3487
26.3198
17.671
23.65
75.9914
87.9816
25.3141
17.5447
28.7748
57.8294
111.346
84.1772
26.8421
18.9654
18.8286
28.9928
97.5616
120.506
62.2264
31.7447
20.7923
27.7975
90.8908
112.335
52.4062
29.1809
19.1965
25.6598
85.0624
98.3198
28.6977
19.2211
31.5071
63.0428
120.865
91.6012
29.6181
20.6265
20.3025
30.2487
105.167
131.976
67.3313
33.6418
21.4644
30.9349
98.8567
114.077
32.4899
21.1605
36.2252
71.6592
140.545
104.284
31.162
23.2475
32.928
59.5794
127.754
95.6805
28.6268
21.2293
21.2517
31.8525
109.946
134.484
70.403
34.9507
22.6226
32.7004
101.137
115.556
32.9579
22.2695
36.7962
73.5503
145.398
108.567
33.7251
23.4345
23.1713
35.7238
124.747
153.567
78.868
38.9286
24.4538
35.5913
113.682
129.279
36.9934
24.1582
40.1819
80.4905
157.317
117.025
36.3606
25.1397
24.9106
37.9195
133.602
164.285
82.5199
41.2558
25.6301
36.9679
121.517
137.215
44.0609
26.1517
26.5404
48.1528
159.15
192.474
98.1381
47.6671
27.9089
41.8779
139.547
157.114
42.4062
27.2724
45.8267
93.4351
189.122
137.577
40.2395
27.3068
27.2633
44.4114
152.809
176.149
49.4266
27.5507
50.7796
108.268
215.726
154.691
44.1757
28.9022
29.2519
50.7518
170.319
193.894
55.0047
29.7203
54.166
114.282
227.963
159.478
46.0059
30.2513
30.1102
50.9026
179.996
205.976
55.6394
30.0086
54.9726
119.103
247.973
174.494
47.664
30.3549
29.2248
46.2866
189.771
217.75
66.1427
31.5433
30.5137
55.0226
229.29
277.736
137.585
60.9797
32.3534
52.1195
193.947
212.279
53.0833
31.449
31.7415
65.4281
236.576
255.237
58.7913
30.0629
31.994
75.2833
276.758
290.772
71.8241
30.0798
61.7566
147.292
321.191
202.393
51.6205
30.5053
29.0562
50.8231
213.599
234.848
62.2847
28.9559
28.2377
61.8749
250.01
261.531
63.5347
27.8019
27.6869
68.5901
263.398
260.469
71.8341
27.6144
27.5981
74.6878
253.566
241.661
78.3267
27.7266
27.8575
81.0937
228.761
215.862
84.6757
28.2223
28.5815
88.1977
203.44
191.793
92.7986
29.364
29.9973
97.2166
181.173
171.572
101.539
31.2083
32.1547
105.695
162.944
155.225
109.757
33.6989
34.9426
113.644
148.326
142.215
117.407
36.7815
38.5022
120.634
136.79
132.004
123.627
40.864
42.971
126.185
127.763
124.026
128.619
45.6377
47.8407
130.872
120.726
117.839
133.06
50.5736
52.8297
135.055
115.301
113.098
136.978
55.6205
57.9316
138.697
111.168
109.509
140.339
60.7826
63.1508
141.771
108.061
106.829
143.128
66.0503
68.4729
144.27
105.758
104.854
145.337
71.4383
73.8989
146.195
104.07
103.414
146.969
76.9199
79.3358
147.565
102.844
102.372
148.102
82.233
84.5122
148.473
101.962
101.627
148.803
87.2432
89.3506
148.979
101.335
101.098
149.13
91.8878
93.7954
149.138
100.89
100.72
149.107
96.1103
97.793
149.009
100.567
100.451
148.884
99.8762
101.327
148.621
100.334
100.244
148.421
103.163
104.384
148.05
100.158
100.082
147.763
105.977
106.976
147.313
100.018
99.9532
146.943
108.333
109.124
146.43
99.8957
99.8254
145.993
110.26
110.866
145.439
99.7625
99.6812
144.954
111.794
112.234
144.376
99.6091
99.5113
143.857
112.977
113.28
143.271
99.4265
99.3138
142.73
113.849
114.043
142.149
99.218
99.0894
141.596
114.459
114.574
141.027
98.9812
98.8406
140.471
114.852
114.905
139.919
98.7231
98.5721
139.369
115.061
115.072
138.834
98.4449
98.2885
138.299
115.108
115.075
137.779
98.1538
97.9925
137.261
115.067
114.975
136.763
97.8501
97.6869
136.262
114.94
114.809
135.791
97.5395
97.3767
135.311
114.741
114.551
134.865
97.2263
97.0635
134.401
114.458
114.225
133.978
96.9118
96.7493
133.527
114.115
113.856
133.125
96.5972
96.433
132.688
113.737
113.47
132.307
96.2818
96.1169
131.884
113.341
113.077
131.524
95.9663
95.8001
131.116
112.944
112.691
130.779
95.6512
95.4856
130.386
112.555
112.326
130.073
95.3389
95.174
129.697
112.189
111.981
129.411
95.0309
94.8683
129.052
111.852
111.666
128.789
94.7293
94.5695
128.45
111.544
111.382
128.213
94.4359
94.2808
127.892
111.273
111.134
127.678
94.1531
94.0032
127.378
111.036
110.921
127.187
93.8823
93.739
126.907
110.837
110.744
126.736
93.6256
93.4898
126.479
110.673
110.602
126.33
93.3852
93.2589
126.099
110.548
110.496
125.969
93.1641
93.0462
125.763
110.455
110.42
125.648
92.9637
92.8546
125.462
110.393
110.372
125.359
92.7828
92.6813
125.195
110.357
110.35
125.105
92.621
92.5291
124.959
110.351
110.354
124.882
92.4787
92.3973
124.751
110.365
110.38
124.686
92.3563
92.2874
124.569
110.399
110.429
124.515
92.2547
92.1971
124.41
110.453
110.495
124.364
92.1722
92.1263
124.272
110.524
110.577
124.232
92.1081
92.073
124.152
110.61
110.671
124.119
92.0607
92.0361
124.05
110.708
110.775
124.022
92.0288
92.0135
123.964
110.814
110.887
123.94
92.0108
92.0043
123.891
110.927
111.002
123.871
92.0055
92.007
123.829
111.044
111.122
123.814
92.0124
92.0174
123.78
111.164
111.245
123.768
92.0297
92.0382
123.741
111.287
111.369
123.733
92.0565
92.0677
123.712
111.412
111.495
123.707
92.091
92.106
123.691
111.537
111.621
123.689
92.1339
92.1526
123.679
111.663
111.746
123.679
92.1845
92.2068
123.673
111.787
111.869
123.676
92.2438
92.2699
123.673
111.909
111.989
123.678
92.3121
92.3421
123.675
112.026
112.104
123.682
92.3908
92.4255
123.68
112.139
112.211
123.687
92.4815
92.5229
123.686
112.243
112.312
123.695
92.5882
92.6363
123.694
112.342
112.405
123.703
92.7097
92.7661
123.704
112.432
112.491
123.714
92.8497
92.9133
123.717
112.516
112.572
123.729
93.003
93.0729
123.734
112.594
112.647
123.75
93.17
93.2444
123.756
112.669
112.718
123.776
93.344
93.4215
123.784
112.737
112.783
123.806
93.5255
93.6055
123.816
112.801
112.844
123.841
93.71
93.7912
123.852
112.86
112.901
123.88
93.8988
93.9818
123.893
112.915
112.953
123.923
94.0891
94.1726
123.937
112.966
113.002
123.97
94.2823
94.3669
123.985
113.014
113.047
124.021
94.476
94.5607
124.037
113.057
113.089
124.075
94.6716
94.7568
124.093
113.098
113.127
124.132
94.8667
94.9516
124.151
113.135
113.163
124.193
95.0631
95.1482
124.213
113.171
113.196
124.257
95.2582
95.3426
124.278
113.202
113.227
124.324
95.4538
95.538
124.347
113.233
113.255
124.395
95.6472
95.7299
124.418
113.26
113.283
124.469
95.8398
95.9214
124.494
113.288
113.309
124.547
96.0284
96.1079
124.573
113.313
113.334
124.627
96.2147
96.2923
124.655
113.339
113.359
124.712
96.3956
96.4699
124.74
113.364
113.384
124.799
96.5724
96.643
124.829
113.389
113.41
124.891
96.7411
96.8063
124.92
113.413
113.442
124.987
96.9037
96.9659
125.019
113.448
113.47
125.082
97.0564
97.1085
125.114
113.476
113.501
125.186
97.2023
97.2423
125.211
113.507
113.525
125.278
97.3608
97.3971
125.298
113.522
113.533
125.36
97.4987
97.533
125.383
113.556
113.555
125.268
97.6597
97.5741
125.028
113.671
113.467
124.657
97.8204
98.4217
124.476
113.425
113.539
124.804
98.9044
107.664
65.0419
35.4133
32.909
34.0621
38.8813
42.8915
49.3978
52.6251
63.4569
71.4388
75.5688
78.5401
80.603
81.926
82.8336
83.5895
84.4126
85.3907
86.5014
87.6491
88.7246
89.6459
90.3738
90.9099
91.2811
91.523
91.6716
91.7575
91.8033
91.8284
91.8397
91.845
91.8769
91.8864
91.8886
91.8846
91.8683
91.8387
91.7973
91.7444
91.6809
91.607
91.5228
91.4285
91.3242
91.21
91.0859
90.9519
90.808
90.6542
90.4901
90.3164
90.134
89.9432
89.7429
89.5339
89.318
89.0946
88.863
88.6223
88.3726
88.111
87.834
87.5256
87.171
86.8024
86.4455
86.0962
85.7481
85.3976
85.0414
84.6764
84.3002
83.9109
83.5071
83.0873
82.6492
82.1902
81.7083
81.2037
80.6766
80.1224
79.5678
79.0043
78.431
77.8476
77.2552
76.6531
76.0418
75.4194
74.7851
74.14
73.4857
72.8243
72.1563
71.4824
70.8047
70.1268
69.4519
68.7818
68.1198
67.4693
66.8359
66.2239
65.6372
65.0817
64.5656
64.0961
63.6827
63.3375
63.0861
62.971
62.9221
62.9044
62.9016
62.9231
63.009
63.1831
63.4494
63.8002
64.2259
64.7206
65.2797
65.8967
66.5649
67.2779
68.0291
68.8117
69.6188
70.4433
71.2789
72.1199
72.9605
73.7935
74.6139
75.4163
76.1926
76.9373
77.6469
78.3171
78.9422
79.5167
80.0359
80.4958
80.8924
81.2225
81.481
81.6099
81.6455
81.6367
81.5574
81.3929
81.1407
80.7996
80.3698
79.8528
79.251
78.568
77.8086
76.9781
76.0827
75.1311
74.133
73.0987
72.0402
70.9705
69.9034
68.8539
67.8375
66.8703
65.9685
65.1486
64.4267
63.8179
63.3374
63.0612
62.9762
63.0054
63.2169
63.6314
64.2536
65.0821
66.1052
67.2986
68.6257
70.0401
71.4919
72.9331
74.3231
75.6307
76.8349
77.9231
78.8897
79.7335
80.4565
81.0626
81.5574
81.9482
82.2431
82.4517
82.5845
82.6524
82.672
82.662
82.6456
82.6379
82.6346
82.6346
82.6347
82.637
82.6408
82.6408
82.6259
82.583
82.5021
82.3773
82.2116
82.01
81.7791
81.5242
81.2484
80.9527
80.6377
80.3035
79.9506
79.5794
79.1904
78.7838
78.3595
77.9177
77.4582
76.9813
76.4871
75.9759
75.4481
74.9041
74.3444
73.7697
73.1803
72.5773
71.9613
71.3331
70.6935
70.0432
69.3832
68.714
68.0366
67.3516
66.6594
65.9614
65.2591
64.5534
63.8442
63.1329
62.4212
61.7099
61.0005
60.2959
59.5966
58.9026
58.2157
57.5362
56.8613
56.1909
55.5266
54.8707
54.2252
53.591
52.9688
52.3597
51.7645
51.1843
50.62
50.0725
49.543
49.0324
48.5417
48.072
47.6245
47.2
46.7999
46.4249
46.0759
45.754
45.4651
45.2315
45.0986
45.1039
45.2186
45.3738
45.5228
45.6109
45.5179
44.971
43.0353
41.1102
39.6743
39.1571
38.0461
37.8005
36.9307
36.799
36.0272
35.9312
35.1523
35.0669
34.2487
34.1508
33.2598
33.1307
32.1571
32.0018
30.9743
30.8037
29.7449
29.5654
28.4924
28.3068
27.2202
27.02
25.9093
25.6909
24.5594
24.3296
23.2002
22.9757
21.8884
21.6937
20.6991
20.5617
19.7136
19.6615
19.0184
19.0384
18.5595
18.6262
18.2764
18.3853
18.1407
18.2856
18.1228
18.3106
18.1986
18.4344
18.3074