/*--------------------------------*- C++ -*----------------------------------*\
| =========                 |                                                 |
| \\      /  F ield         | OpenFOAM: The Open Source CFD Toolbox           |
|  \\    /   O peration     | Version:  v2006                                 |
|   \\  /    A nd           | Website:  www.openfoam.com                      |
|    \\/     M anipulation  |                                                 |
\*---------------------------------------------------------------------------*/
FoamFile
{
    version     2.0;
    format      ascii;
    class       volScalarField;
    location    "0.05";
    object      isentropic(p);
}
// * * * * * * * * * * * * * * * * * * * * * * * * * * * * * * * * * * * * * //

dimensions      [1 -1 -2 0 0 0 0];


internalField   nonuniform List<scalar> 
12716
(
150033
150033
150033
150033
150033
150033
150033
150033
150033
150034
150036
150036
150036
150035
150034
150033
150033
150032
150032
150032
150031
150031
150031
150030
150030
150030
150030
150029
150029
150029
150028
150028
150028
150027
150027
150027
150026
150026
150026
150026
150025
150025
150025
150024
150024
150024
150023
150023
150023
150022
150022
150022
150021
150020
150019
150018
150017
150018
150020
150021
150022
150023
150024
150023
150022
150024
150025
150032
150048
150048
149965
149877
150038
150064
150063
150022
149796
149713
150001
150057
150048
149979
149638
149569
149954
150036
150024
149930
149507
149452
149907
150012
149999
149883
149404
149359
149861
149985
149973
149839
149320
149283
149818
149959
149947
149798
149250
149218
149778
149934
149922
149759
149190
149163
149741
149909
149898
149724
149138
149115
149707
149886
149875
149692
149093
149072
149676
149864
149854
149661
149053
149035
149647
149843
149833
149633
149018
149002
149620
149823
149814
149607
148987
148972
149595
149804
149796
149583
148959
148945
149571
149787
149779
149560
148933
148921
149549
149770
149762
149539
148910
148900
149529
149753
149746
149519
148890
148880
149509
149738
149731
149500
148871
148862
149491
149723
149716
149482
148854
148846
149473
149708
149702
149465
148839
148832
149456
149694
149688
149449
148826
148819
149441
149681
149675
149433
148814
148808
149426
149668
149663
149419
148804
148799
149413
149656
149652
149407
148796
148792
149400
149645
149641
149395
148789
148786
149389
149635
149631
149384
148785
148783
149379
149625
149622
149374
148781
148780
149369
149616
149613
149365
148780
148779
149361
149608
149604
149357
148779
148779
149353
149599
149596
149349
148780
148781
149345
149591
149587
149341
148782
148783
149337
149582
149579
149334
148785
148786
149330
149573
149570
149326
148788
148790
149323
149565
149561
149319
148793
148796
149316
149556
149553
149313
148800
148803
149310
149548
149545
149308
148808
148812
149305
149540
149538
149303
148818
148823
149302
149533
149531
149301
148830
148837
149300
149528
149526
149299
148845
148853
149299
149523
149522
149299
148862
148871
149300
149520
149519
149301
148881
148891
149302
149517
149517
149304
148903
148914
149306
149515
149515
149308
148926
148938
149310
149513
149513
149313
148950
148963
149315
149512
149512
149318
148976
148989
149320
149510
149510
149324
149002
149015
149326
149509
149508
149330
149028
149041
149333
149507
149507
149336
149055
149068
149340
149506
149506
149344
149081
149094
149348
149506
149507
149353
149108
149121
149358
149507
149509
149363
149135
149148
149369
149510
149513
149376
149162
149175
149383
149516
149520
149391
149189
149203
149399
149524
149530
149408
149217
149230
149417
149535
149542
149427
149244
149258
149437
149549
149556
149448
149272
149285
149458
149564
149573
149469
149299
149312
149480
149582
149592
149492
149325
149338
149503
149601
149611
149515
149350
149362
149526
149621
149630
149537
149373
149383
149547
149639
149648
149557
149393
149401
149565
149656
149663
149574
149409
149416
149581
149670
149676
149589
149422
149428
149594
149682
149687
149600
149432
149436
149604
149691
149695
149609
149439
149441
149612
149698
149700
149615
149443
149444
149617
149702
149704
149619
149445
149445
149620
149705
149706
149621
149445
149444
149622
149707
149708
149623
149444
149444
149623
149708
149709
149624
149443
149443
149625
149710
149712
149627
149444
149444
149628
149714
149716
149631
149446
149447
149633
149719
149722
149636
149449
149452
149639
149726
149730
149644
149455
149458
149647
149734
149738
149652
149461
149464
149655
149742
149747
149660
149468
149471
149664
149751
149755
149668
149474
149476
149671
149759
149762
149675
149479
149481
149677
149765
149768
149680
149483
149484
149682
149770
149773
149684
149486
149486
149686
149774
149776
149687
149487
149487
149688
149776
149778
149688
149487
149487
149689
149779
149781
149691
149489
149489
149691
149781
149780
149690
149487
149491
149694
149783
149784
149695
149491
149872
149922
149954
149976
149993
150015
150030
150047
150060
150073
150083
150093
150101
150109
150115
150120
150123
150124
150124
150120
150104
150088
150073
150026
149920
149819
149583
149563
149805
149897
149714
149576
149260
149342
149636
149809
149821
149641
149326
149333
149652
149828
149818
149643
149321
149327
149647
149824
149815
149641
149317
149324
149645
149821
149814
149642
149314
149321
149647
149822
149818
149641
149317
149323
149649
149824
149819
149648
149319
149326
149652
149827
149824
149648
149323
149329
149656
149831
149828
149653
149327
149333
149661
149835
149832
149658
149331
149337
149666
149840
149836
149666
149335
149341
149674
149844
149844
149669
149340
149346
149680
149850
149848
149679
149346
149352
149687
149856
149854
149686
149352
149359
149695
149863
149861
149694
149359
149366
149702
149871
149869
149702
149366
149373
149711
149878
149876
149710
149373
149381
149719
149886
149884
149718
149381
149389
149727
149893
149891
149726
149389
149397
149735
149900
149900
149731
149397
149405
149741
149908
149907
149739
149404
149412
149749
149915
149912
149750
149410
149418
149756
149921
149920
149754
149417
149425
149763
149927
149926
149761
149423
149431
149770
149933
149932
149767
149429
149436
149776
149939
149937
149774
149435
149442
149783
149944
149942
149780
149440
149447
149789
149949
149947
149786
149445
149452
149794
149954
149952
149791
149450
149457
149800
149958
149956
149797
149454
149461
149806
149963
149961
149802
149459
149466
149811
149968
149966
149808
149464
149470
149817
149972
149971
149814
149468
149475
149823
149978
149976
149821
149473
149480
149830
149983
149982
149828
149479
149486
149838
149990
149989
149836
149485
149493
149847
149997
149997
149846
149493
149501
149857
150005
150006
149856
149501
149510
149869
150014
150016
149869
149512
149522
149883
150025
150027
149883
149526
149536
149898
150036
150040
149903
149547
149564
149920
150052
150057
149921
149574
149589
149942
150069
150076
149949
149601
149622
149968
150090
150097
149973
149635
149652
149992
150108
150114
150001
149666
149687
150017
150127
150132
150023
149700
149723
150040
150145
150154
150054
149744
149764
150070
150166
150173
150079
149780
149800
150093
150183
150193
150105
149822
149844
150120
150204
150213
150132
149866
149892
150148
150224
150230
150157
149910
149938
150172
150241
150248
150183
149962
149987
150194
150257
150265
150203
150013
150047
150211
150283
150278
150210
150113
149961
150133
150231
150293
150200
150006
150036
150244
150296
150308
150260
150080
150112
150272
150319
150324
150288
150151
150199
150293
150342
150374
150353
150254
150261
150366
150384
150397
150386
150283
150299
150405
150410
150412
150411
150312
150305
150422
150421
150433
150434
150325
150341
150456
150444
150451
150482
150363
150381
150498
150472
150475
150509
150403
150427
150528
150483
150474
150524
150449
150465
150517
150468
150495
150533
150472
150483
150539
150499
150485
150532
150496
150505
150531
150477
150509
150550
150513
150528
150556
150489
150483
150551
150547
150564
150532
150458
150441
150522
150579
150594
150519
150448
150427
150490
150599
150590
150446
150382
150391
150431
150575
150575
150406
150369
150358
150389
150602
150640
150457
150472
150297
150335
150716
150665
150454
150425
150363
150472
150839
150097
150417
150297
150307
150702
149644
147081
149832
150144
149539
149128
145911
144746
148279
149110
148484
147582
144405
144359
147281
148314
148102
146961
144463
144494
146638
147745
147890
146619
144564
144613
146503
147769
147462
146285
144648
144685
146094
147224
147515
146284
144754
144798
146264
147468
147268
146140
144829
144861
146037
147121
147411
146270
144977
145146
146411
147397
147739
146762
145387
145523
146859
147799
147748
146824
145565
145608
146799
147692
147964
147050
145764
145842
147059
147945
147805
146996
145883
145925
146958
147705
147927
147175
146082
146174
147205
147937
147856
147178
146217
146251
147122
147754
147670
147093
146274
146410
147292
147891
147821
147254
146445
146472
147158
147644
147449
146871
146425
146701
146981
147669
147624
147018
146668
146634
147045
147549
147481
147065
146627
146509
146927
147294
147716
147476
147027
147007
147454
147720
147684
147403
146964
146957
147393
147649
147496
147264
146787
147256
147692
147889
147879
147658
147225
147198
147606
147838
147687
147484
147035
147450
147857
148035
148019
147816
147410
147356
147756
147975
147855
147585
147271
147607
147979
148144
148132
147936
147547
147479
147891
148102
148084
147852
147445
147349
147699
147951
148227
148059
147692
147622
148023
148216
148164
147956
147564
147423
147839
148036
148311
148169
147770
147718
148122
148300
148253
148052
147650
147509
147902
148119
148392
148253
147879
147821
148212
148384
148333
148133
147744
147643
147959
148200
148450
148286
147937
147871
148265
148446
148407
148202
147808
147696
148032
148270
148517
148357
148004
147926
148324
148504
148449
148246
147849
147740
148108
148327
148571
148425
148061
147984
148377
148552
148410
148203
147852
148135
148506
148643
148624
148458
148070
148005
148402
148583
148466
148210
147925
148195
148539
148687
148674
148503
148115
148030
148423
148618
148477
148232
147906
148224
148576
148724
148705
148531
148147
147991
148357
148555
148772
148636
148263
148194
148593
148753
148698
148515
148108
147949
148358
148562
148802
148674
148285
148217
148621
148784
148635
148442
148054
148338
148719
148847
148832
148676
148271
148170
148588
148776
148647
148395
148081
148385
148733
148877
148857
148676
148285
148134
148496
148703
148910
148776
148398
148318
148730
148891
148831
148645
148221
148059
148484
148693
148926
148797
148392
148315
148741
148908
148750
148549
148139
148427
148829
148959
148943
148783
148349
148242
148684
148883
148732
148481
148112
148439
148825
148966
148953
148764
148329
148163
148575
148785
148995
148863
148449
148361
148798
148970
148808
148609
148183
148470
148895
149024
148989
148818
148378
148230
148658
148851
149060
148938
148522
148437
148886
149043
148976
148788
148324
148132
148607
148822
149045
148913
148451
148364
148840
149017
148841
148633
148153
148492
148942
149068
149047
148874
148407
148204
148669
148873
149089
148960
148511
148424
148890
149062
148894
148690
148225
148523
148974
149105
149089
148923
148440
148323
148821
149019
148867
148641
148144
148479
148963
149101
149073
148886
148376
148160
148661
148886
149108
148969
148486
148388
148892
149077
148895
148674
148181
148493
148981
149122
149092
148907
148404
148208
148702
148920
149138
149004
148525
148426
148928
149110
148924
148705
148208
148526
149009
149146
149115
148932
148427
148215
148716
148936
149153
149010
148512
148420
148954
149133
149067
148853
148304
148070
148630
148883
149123
148971
148428
148318
148889
149094
148885
148640
148071
148426
148971
149121
149089
148884
148313
148072
148640
148884
149129
148974
148423
148325
148893
149097
148895
148651
148089
148431
148979
149130
149099
148893
148319
148079
148648
148894
149134
148980
148426
148322
148896
149102
148891
148644
148069
148414
148976
149131
149102
148895
148311
148071
148649
148899
149141
148989
148429
148309
148896
149105
148895
148644
148063
148410
148978
149133
149105
148895
148300
148043
148639
148892
149137
148983
148409
148295
148895
149106
148896
148639
148035
148407
148985
149139
149126
148926
148298
148135
148783
149030
148814
148520
147859
148278
148917
149092
149059
148821
148145
147852
148525
148815
149084
148913
148272
148136
148811
149048
148803
148516
147846
148259
148903
149074
149036
148798
148122
147834
148508
148795
149065
148894
148241
148119
148800
149036
148786
148495
147817
148227
148881
149057
149021
148779
148096
147798
148481
148775
149048
148872
148216
148080
148771
149014
148762
148467
147778
148190
148860
149038
149004
148759
148057
147755
148455
148753
149027
148847
148166
148038
148749
148995
148743
148442
147736
148163
148842
149021
148989
148740
148028
147707
148421
148727
149004
148817
148123
147992
148719
148971
148721
148412
147684
148117
148816
149004
148979
148735
147980
147791
148570
148866
148602
148244
147444
147948
148721
148926
148897
148611
147778
147428
148255
148603
148904
148692
147892
147729
148566
148857
148559
148204
147375
147863
148664
148878
148841
148548
147709
147353
148189
148545
148870
148657
147854
147697
148538
148831
148528
148173
147332
147834
148639
148848
148826
148534
147687
147286
148139
148502
148829
148603
147776
147629
148485
148786
148488
148122
147263
147772
148600
148819
148791
148491
147622
147242
148119
148488
148820
148603
147776
147626
148524
148808
148673
148323
147397
147011
147954
148365
148717
148460
147532
147350
148329
148670
148339
147929
146967
147541
148464
148711
148664
148326
147361
146961
147915
148325
148696
148456
147547
147374
148330
148662
148315
147909
146955
147539
148441
148677
148652
148327
147383
146897
147861
148276
148639
148386
147455
147281
148292
148614
148483
148089
147038
146594
147667
148140
148560
148288
147270
147072
148150
148527
148140
147683
146607
147252
148269
148538
148525
148159
147088
146598
147671
148128
148509
148222
147187
146993
148110
148471
148320
147886
146735
146266
147433
147949
148414
148115
147003
146809
147981
148388
147968
147469
146304
147014
148113
148407
148374
147969
146819
146355
147490
147970
148363
148051
146939
146681
147894
148293
148145
147669
146410
145926
147197
147758
148256
147930
146720
146504
147777
148221
147776
147238
145976
146744
147929
148243
148226
147795
146536
146022
147269
147792
148229
147922
146776
146486
147760
148172
147980
147482
146170
145648
146988
147570
148104
147770
146514
146295
147625
148083
147630
147069
145743
146558
147791
148120
148126
147700
146370
146050
147418
147933
147449
146839
145451
146163
147548
147945
147873
147366
145899
145371
146815
147423
147962
147602
146266
146049
147492
147952
147759
147195
145711
145129
146628
147287
147854
147472
146070
145886
147420
147899
147644
147037
145415
144634
146296
147035
147678
147248
145700
145443
147068
147631
147136
146456
144848
145847
147320
147723
147746
147234
145619
145268
146926
147545
147028
146306
144645
145759
147222
147619
147527
146973
145297
144869
146605
147266
146776
146019
144255
145404
147021
147457
147487
146935
145149
144774
146619
147298
146728
145930
144079
145375
146964
147384
147391
146832
145038
144371
146283
147014
146430
145596
143661
144936
146699
147179
147188
146579
144635
144253
146362
147075
146914
146080
143835
143098
145323
146280
147009
146478
144520
143891
146124
146858
146579
145725
143438
142727
145001
145980
146852
146283
144250
143976
146235
146935
146837
146019
143577
143315
145812
146697
145596
144402
141803
143501
145818
146539
146529
145706
143194
142842
145489
146427
146252
145176
142439
141628
144304
145500
146409
145742
143439
142572
145284
146209
145965
144952
142058
141632
144822
145908
145838
144612
141258
140509
143757
145120
146080
145289
142542
141711
144875
145895
145712
144610
141224
140867
144492
145672
145704
144454
140600
139966
144075
145503
144912
143184
138874
137951
142003
143864
145391
144366
141034
140851
144351
145493
145094
143615
139637
139042
143351
144873
144857
143353
138846
138000
142955
144691
144402
142492
137234
136861
142351
144307
144077
141875
136180
135777
141645
143966
143881
141423
135519
135277
141258
143845
143714
140996
135036
134834
140814
143639
143481
140555
134644
134494
140392
143403
143234
140153
134349
134242
140011
143153
142982
139792
134133
134062
139671
142903
142728
139474
133982
133938
139374
142649
142478
139199
133881
133859
139119
142406
142236
138964
133819
133813
138903
142168
142006
138766
133787
133798
138723
141948
141790
138604
133784
133811
138574
141740
141592
138471
133805
133845
138457
141552
141410
138367
133845
133893
138360
141380
141249
138281
133898
133953
138287
141230
141106
138218
133961
134018
138228
141096
140984
138167
134028
134088
138187
140984
140879
138133
134099
134160
138156
140887
140792
138108
134171
134232
138139
140809
140720
138097
134244
134304
138128
140744
140662
138090
134315
134374
138128
140693
140617
138095
134385
134442
138132
140653
140583
138102
134451
134507
138145
140625
140558
138118
134517
134570
138160
140603
140542
138136
134578
134631
138182
140591
140533
138160
134639
134689
138205
140584
140529
138184
134695
134745
138232
140583
140531
138214
134751
134798
138260
140586
140537
138242
134803
134849
138292
140594
140546
138275
134853
134898
138323
140604
140558
138307
134901
134945
138357
140620
140575
138342
134947
134990
138390
140634
140591
138375
134991
135033
138426
140652
140609
138412
135034
135074
138459
140669
140628
138445
135074
135113
138495
140689
140648
138481
135113
135151
138528
140708
140669
138514
135150
135188
138563
140729
140689
138549
135186
135222
138596
140749
140711
138581
135220
135256
138629
140770
140731
138614
135253
135288
138660
140790
140753
138644
135284
135318
138691
140811
140772
138675
135314
135347
138720
140830
140793
138703
135342
135375
138749
140850
140812
138732
135369
135401
138775
140868
140831
138757
135394
135425
138802
140886
140848
138783
135418
135448
138825
140903
140866
138805
135440
135469
138849
140920
140882
138829
135461
135489
138869
140935
140897
138849
135480
135508
138891
140951
140912
138870
135498
135525
138909
140964
140926
138887
135515
135541
138928
140978
140939
138906
135530
135556
138944
140990
140952
138921
135544
135570
138961
141003
140964
138938
135558
135582
138974
141013
140975
138951
135570
135594
138989
141025
140985
138966
135581
135605
139001
141034
140996
138977
135592
135615
139015
141044
141005
138990
135601
135624
139025
141052
141014
139000
135610
135632
139037
141061
141021
139012
135618
135640
139046
141068
141029
139020
135625
135647
139056
141076
141036
139030
135632
135653
139063
141082
141043
139037
135638
135659
139072
141089
141048
139046
135644
135665
139079
141094
141054
139052
135649
135670
139086
141099
141059
139059
135654
135674
139091
141103
141064
139064
135658
135678
139098
141108
141067
139071
135662
135682
139102
141111
141072
139075
135665
135685
139108
141115
141074
139080
135668
135687
139111
141118
141078
139083
135671
135690
139116
141121
141080
139088
135673
135692
139118
141123
141082
139090
135675
135694
139122
141125
141084
139094
135677
135695
139124
141126
141086
139095
135678
135697
139127
141128
141087
139098
135679
135698
139128
141129
141088
139099
135680
135698
139131
141130
141089
139102
135681
135699
139131
141130
141090
139102
135681
135699
139133
141131
141089
139104
135682
135699
139133
141131
141090
139104
135681
135699
139135
141131
141089
139105
135681
135699
139135
141130
141090
139105
135681
135698
139136
141130
141089
139106
135681
135698
139135
141129
141088
139105
135680
135697
139136
141129
141087
139106
135679
135696
139134
141128
141087
139104
135677
135695
139135
141127
141085
139105
135676
135693
139133
141125
141084
139103
135675
135692
139133
141124
141082
139103
135673
135690
139131
141122
141081
139101
135671
135688
139131
141121
141079
139101
135670
135686
139129
141119
141078
139098
135667
135684
139128
141118
141076
139098
135665
135682
139126
141116
141075
139096
135663
135679
139126
141115
141073
139096
135660
135677
139124
141113
141072
139093
135658
135674
139124
141113
141071
139094
135655
135672
139122
141112
141073
139093
135652
135673
139124
141116
141078
139095
135652
135678
139135
141133
141104
139117
135656
135712
139192
141218
141303
139250
135749
135920
139466
141614
142049
139819
136204
136554
140240
142507
142880
140625
136890
144958
146186
146711
147338
147833
148035
148399
148739
149013
149213
149364
149481
149572
149644
149699
149743
149776
149803
149824
149840
149853
149863
149872
149878
149883
149887
149889
149891
149892
149892
149892
149895
149898
149901
149904
149908
149912
149917
149923
149929
149937
149946
149957
149969
149984
150000
150017
150035
150050
150061
150064
150061
150054
150048
150041
150035
150030
150026
150021
150017
150012
150007
150002
149998
149993
149989
149985
149982
149978
149975
149973
149971
149970
149969
149968
149968
149969
149970
149971
149973
149975
149977
149979
149982
149984
149986
149988
149989
149991
149992
149992
149992
149992
149992
149991
149990
149988
149986
149985
149982
149980
149978
149975
149972
149970
149967
149964
149961
149958
149956
149953
149950
149948
149945
149943
149941
149939
149937
149935
149934
149932
149931
149930
149928
149927
149926
149925
149924
149923
149922
149922
149921
149920
149920
149920
149920
149919
149920
149920
149920
149920
149921
149921
149922
149923
149923
149924
149924
149925
149925
149926
149926
149927
149927
149928
149928
149929
149930
149930
149931
149932
149933
149934
149935
149937
149938
149940
149942
149943
149945
149947
149949
149951
149952
149954
149956
149958
149959
149961
149963
149964
149966
149968
149969
149971
149973
149974
149976
149979
149983
149989
149997
150009
150022
150030
150033
150033
150033
150033
150033
150032
150032
150037
150052
150061
150061
150059
150056
150053
150050
150047
150045
150043
150041
150040
150039
150038
150036
150035
150035
150034
150033
150032
150031
150031
150030
150030
150029
150028
150028
150027
150027
150026
150025
150025
150024
150023
150023
150022
150021
150020
150019
150018
150017
150015
150014
150011
150009
150005
150002
150001
150002
150009
150015
150016
150017
150026
150041
150066
150074
150076
150071
150066
150060
150054
150048
150042
150036
150030
150023
150017
150011
150005
149999
149993
149987
149981
149976
149970
149965
149960
149954
149949
149944
149939
149934
149930
149925
149920
149915
149911
149906
149901
149897
149892
149888
149883
149879
149875
149871
149867
149863
149859
149855
149852
149848
149845
149842
149839
149836
149833
149830
149827
149824
149821
149817
149814
149811
149807
149804
149800
149796
149793
149789
149785
149781
149778
149774
149771
149768
149765
149762
149759
149756
149754
149752
149750
149748
149746
149744
149742
149740
149738
149736
149733
149730
149728
149724
149721
149718
149714
149711
149708
149704
149701
149698
149696
149693
149692
149691
149691
149691
149692
149693
149696
149699
149703
149707
149713
149717
149724
149730
149737
149742
149750
149755
149762
149767
149773
149778
149783
149786
149790
149792
149796
149797
149799
149800
149801
149801
149802
149801
149802
149802
149803
149803
149805
149806
149808
149810
149814
149817
149821
149824
149829
149832
149837
149841
149845
149848
149852
149855
149858
149860
149862
149863
149865
149866
149867
149867
149869
149869
149868
149869
149922
149956
149958
149923
149925
149961
149961
149925
149922
149956
149983
149981
149979
149977
149992
149990
149988
150022
150020
150017
150030
150030
150030
150028
150029
149983
149961
149924
149921
149956
149960
149922
149920
149955
149982
149981
149959
149920
149917
149952
149956
149916
149912
149949
149978
149975
149952
149912
149907
149944
149946
149905
149900
149938
149970
149965
149941
149898
149893
149932
149935
149891
149886
149926
149960
149956
149929
149884
149880
149920
149924
149879
149875
149917
149952
149950
149921
149875
149871
149914
149920
149873
149870
149914
149951
149952
149921
149872
149870
149916
149924
149873
149872
149918
149955
149958
149926
149875
149873
149921
149929
149876
149874
149923
149961
149964
149931
149876
149874
149924
149932
149875
149872
149924
149965
149965
149931
149873
149868
149922
149929
149868
149863
149919
149963
149961
149925
149862
149856
149915
149920
149855
149848
149909
149957
149953
149914
149847
149839
149903
149908
149837
149830
149896
149949
149946
149903
149829
149822
149891
149898
149821
149815
149887
149944
149945
149895
149815
149810
149885
149894
149811
149808
149886
149947
149951
149896
149809
149808
149889
149900
149811
149811
149894
149956
149963
149907
149814
149816
149900
149914
149820
149823
149908
149971
149980
149922
149828
149831
149916
149931
149836
149839
149924
149987
149994
149939
149843
149846
149932
149946
149851
149853
149938
150000
150004
149952
149857
149859
149943
149956
149863
149864
149947
150007
150008
149959
149867
149868
149949
149961
149870
149871
149951
150009
150009
149962
149874
149874
149952
149963
149877
149877
149953
150009
150009
149964
149880
149880
149954
149965
149883
149884
149956
150009
150010
149967
149888
149888
149959
149970
149892
149893
149962
150012
150014
149972
149897
149898
149965
149976
149903
149904
149968
150016
150018
149979
149908
149909
149972
149982
149914
149914
149975
150020
150022
149985
149919
149919
149978
149987
149923
149924
149980
150023
150024
149989
149927
149927
149982
149990
149931
149931
149984
150024
150024
149992
149934
149934
149985
149993
149938
149938
149987
150024
150024
149994
149941
149941
149988
149995
149945
149945
149990
150024
150025
149997
149949
149950
149992
149999
149953
149954
149995
150026
150027
150002
149958
149959
149998
150004
149963
149965
150001
150029
150031
150007
149969
149970
150004
150010
149974
149976
150008
150032
150034
150013
149980
149981
150011
150016
149985
149987
150014
150035
150037
150019
149991
149992
150017
150022
149996
149998
150021
150038
150039
150025
150002
150004
150024
150028
150008
150010
150028
150041
150042
150032
150014
150016
150031
150035
150020
150023
150036
150044
150046
150039
150027
150030
150040
150043
150034
150037
150045
150048
150051
150048
150041
150045
150050
150053
150049
150052
150055
150053
150055
150058
150056
150060
150061
150063
150064
150067
150066
150056
150053
150067
150071
150073
150067
150032
150041
150047
150048
150049
150049
150048
150048
150048
150049
150049
150050
150050
150051
150051
150052
150052
150053
150053
150054
150054
150056
150057
150059
150061
150063
150065
150066
150067
150067
150067
150067
150066
150065
150064
150063
150063
150063
150063
150064
150063
150063
150061
150057
150053
150048
150041
150034
150026
150020
150014
150011
150009
150009
150011
150014
150017
150022
150025
150027
150029
150028
150027
150025
150022
150019
150016
150014
150013
150014
150016
150018
150021
150024
150027
150029
150030
150030
150061
150060
150058
150053
150051
150049
150060
150060
150059
150077
150075
150074
150083
150082
150082
150081
150082
150100
150098
150096
150095
150094
150101
150100
150099
150110
150110
150109
150114
150114
150113
150112
150113
150115
150101
150084
150085
150062
150062
150062
150088
150087
150106
150104
150118
150122
150126
150109
150112
150089
150061
150060
150090
150090
150059
150058
150091
150118
150117
150115
150135
150131
150145
150139
150133
150128
150124
150122
150121
150120
150120
150120
150123
150122
150121
150122
150123
150124
150123
150122
150121
150121
150122
150111
150108
150110
150111
150112
150114
150084
150084
150076
150019
149925
149970
150053
150049
149981
149989
150059
150081
150079
150057
150050
149982
149986
149980
150048
150055
150077
150076
150078
150079
150110
150114
150125
150130
150136
150144
150134
150127
150125
150120
150119
150114
150084
150082
150060
150051
150057
150049
150056
150048
150055
150047
149980
149985
149985
149981
149987
149983
149989
149985
149992
149988
150054
150062
150057
149992
149995
149998
150066
150088
150090
150069
150060
149995
150003
150000
150064
150073
150095
150099
150105
150109
150136
150143
150153
150161
150152
150157
150139
150141
150143
150119
150091
150057
150056
150091
150091
150057
150059
150092
150120
150120
150119
150144
150144
150144
150164
150165
150165
150163
150161
150174
150169
150160
150155
150152
150146
150120
150116
150094
150084
150088
150078
150083
150073
150078
150068
150005
150007
150012
150010
150018
150016
150024
150022
150030
150028
150090
150099
150095
150035
150036
150043
150105
150126
150131
150110
150101
150041
150049
150047
150106
150115
150136
150140
150163
150167
150169
150148
150145
150124
150116
150120
150111
150052
150054
150060
150058
150065
150062
150120
150128
150124
150067
150069
150074
150132
150152
150172
150178
150181
150182
150182
150179
150178
150178
150177
150176
150174
150154
150157
150159
150141
150133
150138
150130
150135
150127
150071
150078
150075
150082
150079
150085
150083
150136
150143
150162
150163
150165
150166
150179
150180
150182
150164
150144
150121
150094
150061
150064
150096
150098
150066
150069
150100
150125
150123
150122
150144
150145
150147
150150
150127
150101
150070
150071
150103
150103
150070
150069
150103
150134
150132
150130
150154
150158
150163
150167
150135
150102
150066
150063
150100
150099
150060
150058
150098
150138
150137
150136
150171
150175
150180
150187
150140
150097
150057
150057
150098
150100
150059
150063
150102
150139
150142
150141
150192
150189
150176
150216
150239
150249
150239
150226
150217
150209
150200
150192
150184
150177
150171
150167
150165
150164
150182
150183
150187
150184
150183
150181
150181
150180
150180
150169
150168
150151
150144
150149
150142
150147
150140
150145
150138
150086
150089
150091
150089
150094
150091
150097
150095
150100
150098
150146
150153
150148
150101
150103
150107
150155
150171
150173
150157
150151
150105
150111
150109
150154
150160
150175
150178
150181
150185
150188
150190
150192
150201
150211
150222
150231
150227
150215
150212
150200
150197
150199
150191
150175
150169
150171
150164
150167
150160
150163