/*--------------------------------*- C++ -*----------------------------------*\
| =========                 |                                                 |
| \\      /  F ield         | OpenFOAM: The Open Source CFD Toolbox           |
|  \\    /   O peration     | Version:  v2006                                 |
|   \\  /    A nd           | Website:  www.openfoam.com                      |
|    \\/     M anipulation  |                                                 |
\*---------------------------------------------------------------------------*/
FoamFile
{
    version     2.0;
    format      ascii;
    class       volScalarField;
    location    "0.05";
    object      k;
}
// * * * * * * * * * * * * * * * * * * * * * * * * * * * * * * * * * * * * * //

dimensions      [0 2 -2 0 0 0 0];


internalField   nonuniform List<scalar> 
12716
(
144.303
144.302
144.302
144.303
144.303
144.304
144.305
144.305
144.302
144.266
144.124
143.843
143.451
142.997
142.517
142.029
141.54
141.047
140.545
140.03
139.5
138.954
138.391
137.813
137.219
136.612
135.992
135.36
134.717
134.064
133.402
132.732
132.054
131.371
130.684
129.993
129.3
128.607
127.915
127.225
126.54
125.86
125.187
124.523
123.869
123.227
122.599
121.986
121.389
120.809
120.243
119.689
119.141
118.595
118.058
117.552
117.132
116.867
116.772
116.785
116.839
116.899
116.942
116.954
116.907
116.744
116.402
115.817
114.605
112.684
102.751
91.1796
107.218
113.161
109.984
99.5553
81.953
74.1383
91.7457
105.656
101.703
85.6662
68.2442
63.3549
79.8919
97.3985
94.0405
75.8909
59.7758
56.6566
71.8486
90.3168
87.83
69.4629
54.4982
52.3775
66.3945
84.6559
82.8105
64.9189
50.9625
49.4192
62.5634
80.1427
78.706
61.5792
48.4139
47.2248
59.693
76.4208
75.2703
58.9864
46.4585
45.503
57.4426
73.2774
72.3315
56.8771
44.8834
44.0841
55.5903
70.5627
69.7705
55.1196
43.5613
42.8692
54.011
68.1781
67.4993
53.6066
42.4135
41.7987
52.6289
66.0538
65.4513
52.2719
41.3907
40.8329
51.3929
64.1363
63.591
51.072
40.4598
39.9454
50.2707
62.3862
61.8866
49.9781
39.5987
39.1182
49.2392
60.7732
60.3122
48.9694
38.7918
38.3381
48.2816
59.2769
58.8489
48.0305
38.0276
37.5956
47.3853
57.8808
57.481
47.1495
37.2976
36.883
46.54
56.5709
56.1955
46.3167
36.5949
36.1942
45.7369
55.3358
54.9815
45.5239
35.9137
35.5241
44.969
54.1662
53.8308
44.7646
35.2493
34.8686
44.2311
53.0552
52.7364
44.0338
34.598
34.2241
43.5187
51.9965
51.6927
43.3275
33.9564
33.5875
42.8281
50.9847
50.6942
42.6417
33.3212
32.9555
42.1556
50.0147
49.7359
41.9729
32.6894
32.3252
41.4976
49.0818
48.8131
41.3176
32.0579
31.6933
40.8507
48.1813
47.9215
40.6723
31.4235
31.057
40.2116
47.3093
47.057
40.0339
30.7835
30.4136
39.5772
46.4615
46.2156
39.3993
30.1353
29.7606
38.9444
45.6343
45.3933
38.7652
29.4765
29.0955
38.31
44.8235
44.5863
38.1286
28.8046
28.4159
37.6709
44.0253
43.7907
37.4862
28.1173
27.7196
37.0238
43.2361
43.0029
36.8349
27.4123
27.0043
36.3659
42.4522
42.2193
36.172
26.6874
26.268
35.6945
41.6704
41.4369
35.495
25.9409
25.5091
35.0074
40.8878
40.6528
34.8015
25.171
24.7261
34.3026
40.1017
39.8646
34.0895
24.3765
23.9175
33.5776
39.3099
39.0697
33.3568
23.5559
23.0824
32.8309
38.5098
38.2659
32.602
22.7084
22.2198
32.0609
37.6994
37.4512
31.8234
21.8333
21.3293
31.2663
36.8767
36.6236
31.0199
20.9304
20.4115
30.4459
36.04
35.7816
30.1907
20.0012
19.4684
29.6
35.1881
34.9242
29.3364
19.0481
18.5034
28.7297
34.3204
34.0513
28.4583
18.0754
17.5222
27.8369
33.4369
33.1637
27.5599
17.0899
16.534
26.9289
32.5406
32.2641
26.6481
16.1033
15.5511
26.0116
31.634
31.3565
25.731
15.1286
14.588
25.0963
30.7244
30.4478
24.8196
14.1814
13.6622
24.1941
29.8178
29.5463
23.9273
13.2811
12.794
23.3223
28.9264
28.6653
23.0719
12.4482
12.0042
22.499
28.0645
27.8182
22.27
11.7031
11.3122
21.7389
27.2452
27.0182
21.5359
11.0635
10.7325
21.0539
26.4811
26.2772
20.8792
10.5404
10.2732
20.4504
25.7846
25.6053
20.3028
10.1385
9.9341
19.9258
25.1615
25.0069
19.8027
9.85175
9.70618
19.4727
24.6122
24.4796
19.3695
9.66535
9.58125
19.0765
24.1328
24.0144
18.9679
9.5721
9.53551
18.6687
23.6977
23.59
18.5651
9.54067
9.5272
18.2836
23.2962
23.1968
18.1943
9.54482
9.54501
17.9402
22.9196
22.8258
17.8624
9.57023
9.57967
17.6312
22.562
22.4738
17.5627
9.61744
9.6318
17.3518
22.2236
22.1415
17.2918
9.67568
9.69262
17.1001
21.9059
21.83
17.0477
9.73872
9.75647
16.8734
21.6092
21.5394
16.828
9.80205
9.81975
16.6698
21.3331
21.2698
16.6311
9.86378
9.8812
16.4886
21.0787
21.0219
16.4564
9.92346
9.94034
16.3289
20.8457
20.7953
16.3028
9.98032
9.99627
16.1888
20.6328
20.5876
16.1677
10.0335
10.0485
16.0653
20.4372
20.3968
16.0487
10.0834
10.0977
15.9567
20.2573
20.2214
15.9443
10.1307
10.1445
15.8619
20.0925
20.0608
15.8536
10.1761
10.1893
15.7799
19.9415
19.9133
15.7747
10.2195
10.2323
15.7078
19.8016
19.7762
15.7052
10.2613
10.2734
15.6439
19.6712
19.6476
15.643
10.3008
10.3121
15.5858
19.5468
19.5244
15.5861
10.3379
10.3477
15.5316
19.4262
19.4038
15.532
10.3708
10.3792
15.4783
19.3062
19.283
15.4785
10.3996
10.4064
15.4247
19.1847
19.1602
15.424
10.4237
10.4287
15.3691
19.0602
19.0339
15.367
10.4427
10.4461
15.3103
18.9311
18.9025
15.3065
10.4571
10.4586
15.2469
18.7954
18.7658
15.2419
10.4662
10.466
15.1817
18.6553
18.6203
15.1696
10.4705
10.4659
15.1136
18.5066
18.4672
15.0955
10.4832
10.486
15.0524
18.3947
18.4073
15.081
10.5442
10.5706
15.0801
18.3596
18.2747
15.0162
10.5885
10.6677
15.1131
18.3561
18.3125
15.1023
10.7239
24.7692
30.863
36.259
41.1226
45.2968
49.2532
52.4771
55.1777
57.3233
58.9995
60.195
60.9238
61.1558
60.8721
60.0372
58.562
56.4153
53.5141
50.2348
46.0771
40.1014
34.3149
30.5481
23.9334
17.7928
15.3472
12.4222
12.8418
15.9864
18.1679
13.9145
12.7459
10.3159
10.6668
16.0128
17.0814
16.971
15.6289
10.4111
10.459
16.0887
17.4231
17.2485
15.8448
10.3246
10.4204
16.0677
17.4254
17.3522
15.9064
10.3325
10.4398
16.1704
17.5694
17.5092
16.0263
10.3499
10.4461
16.2505
17.7392
17.6752
16.1173
10.408
10.521
16.3755
17.9355
17.8729
16.2439
10.4894
10.5912
16.4926
18.1181
18.0471
16.3552
10.5558
10.6618
16.5905
18.3059
18.2329
16.4547
10.6251
10.7319
16.6977
18.4983
18.4216
16.5701
10.695
10.808
16.8219
18.7042
18.6369
16.6767
10.7804
10.8894
16.9246
18.9147
18.8337
16.7957
10.8487
10.9735
17.0387
19.1401
19.0627
16.9113
10.9385
11.0604
17.1751
19.3718
19.2945
17.0434
11.0284
11.1547
17.3136
19.6129
19.5329
17.1794
11.1241
11.2503
17.4494
19.8598
19.7768
17.3089
11.218
11.3441
17.5826
20.1144
20.0312
17.4507
11.3138
11.4504
17.7478
20.3895
20.3075
17.6275
11.4256
11.573
17.9324
20.6801
20.5972
17.8001
11.5519
11.6909
18.0952
20.9706
20.8754
17.964
11.6571
11.7939
18.2654
21.2688
21.1759
18.1376
11.7685
11.9173
18.4591
21.5975
21.5115
18.3184
11.8991
12.0395
18.6597
21.9262
21.8324
18.525
12.0185
12.1697
18.8594
22.2764
22.1805
18.7233
12.1486
12.3025
19.0651
22.6385
22.5397
18.9277
12.282
12.4398
19.2819
23.0177
22.9178
19.1436
12.4206
12.5831
19.5082
23.4116
23.3083
19.3679
12.565
12.7315
19.7425
23.8237
23.7196
19.6003
12.7147
12.8865
19.9882
24.2533
24.1458
19.8452
12.8717
13.0495
20.2456
24.7026
24.5934
20.1
13.0355
13.2175
20.51
25.1671
25.0535
20.3621
13.2047
13.3925
20.7837
25.6517
25.536
20.6326
13.381
13.5749
21.0634
26.1521
26.0309
20.9094
13.5649
13.7657
21.3498
26.6714
26.5465
21.1909
13.7578
13.9656
21.6345
27.2016
27.0685
21.4689
13.9599
14.1747
21.9146
27.7472
27.6092
21.7417
14.1723
14.3991
22.1835
28.3052
28.1573
21.9991
14.4027
14.6439
22.4265
28.881
28.7282
22.2273
14.6577
14.9256
22.6477
29.4861
29.3298
22.4389
14.9597
15.2822
22.871
30.1483
29.996
22.6546
15.371
15.7572
23.1057
30.9073
30.7457
22.8917
15.9022
16.2511
23.5435
31.8415
31.6274
23.2864
16.3094
16.7087
24.0079
32.7082
32.5075
23.7031
16.6757
16.9442
24.4805
33.6833
33.4205
24.1291
16.8796
17.1059
24.7582
34.5743
34.3846
24.5232
17.1152
17.3398
25.0432
35.584
35.4341
24.7471
17.3489
17.5041
25.3907
36.6748
36.5323
25.2844
17.4973
17.6186
25.8221
37.8174
37.6906
25.5179
17.5838
17.6817
25.9182
38.9126
38.8036
25.6515
17.6599
17.6982
26.0086
40.0956
40.0494
25.7841
17.678
17.7765
26.1598
41.4798
41.4377
25.9688
17.8775
18.2936
26.6142
43.2113
43.44
26.7367
18.8683
20.201
28.5028
45.7371
46.3548
29.2322
21.5246
22.7538
33.4539
49.0044
49.765
36.8084
23.3781
18.7182
20.0208
27.2729
45.1376
27.4682
19.6996
20.4041
27.8309
45.7705
52.0608
31.6285
22.6694
26.1991
32.8372
55.5181
71.4717
39.7731
32.1605
36.8832
53.0524
87.0594
98.7082
72.4141
42.9012
44.1285
75.1929
104.199
113.475
87.1538
47.2354
48.9693
91.5358
119.349
122.175
93.8335
49.9165
48.8055
89.128
115.718
126.735
96.8845
53.2721
56.333
103.194
132.123
139.414
110.261
59.711
62.758
116.443
146.359
150.722
121.884
66.7677
71.5726
134.908
163.42
171.168
142.463
74.777
77.8835
151.384
179.052
176.978
149.142
76.7575
79.0832
155.511
183.476
189.093
159.92
81.3206
84.6577
168.092
196.156
193.169
166.642
84.3907
89.3954
174.887
201.877
213.012
187.265
97.6502
104.699
198.813
224.358
231.605
207.951
110.858
115.324
213.644
235.231
246.674
225.795
126.023
139.972
241.194
259.069
269.079
255.693
148.961
161.611
266.351
274.665
276.501
275.268
178.138
194.01
281.406
277.696
271.986
286.418
205.534
217.176
289.669
265.529
274.811
298.528
222.244
218.995
312.57
277.208
297.602
314.077
212.449
205.105
291.85
301.079
298.373
267.374
199.907
192.217
239.861
287.88
249.5
206.11
182.267
168.031
193.905
249.748
241.15
184.224
154.483
138.82
162.934
207.251
213.761
163.842
125.2
112.173
155.152
199.129
188.763
145.973
101.271
89.5398
131.655
167.542
176.707
135.7
80.568
72.7086
133.685
167.361
161.377
126.625
66.9347
59.5195
119.437
146.046
156.044
124.658
56.9823
58.1924
122.812
148.703
169.926
134.339
62.0647
63.3415
135.712
168.93
166.449
134.903
61.2999
58.1043
129.884
154.194
164.372
135.958
60.7713
61.4985
137.343
159.413
155.124
132.467
58.8765
56.7215
125.243
144.366
149.988
128.888
59.7859
61.0095
130.246
149.247
144.155
125.391
59.2616
57.055
118.324
140.449
129.457
107.889
54.4547
56.5963
113.533
136.552
130.342
106.661
54.6102
52.401
98.9435
121.365
100.41
62.8133
46.4642
45.0268
62.1586
109.726
98.5913
55.3575
41.1749
36.428
48.1731
81.2402
77.2043
45.7952
33.4242
28.5978
33.2515
49.0855
75.4713
58.2756
37.86
36.9402
55.1641
73.1982
63.1872
45.5971
35.2369
33.0701
41.3238
59.242
37.3779
29.9805
30.3155
35.6647
48.3821
62.6535
58.2511
42.7095
34.6064
33.1628
38.5455
53.5183
34.3389
28.9862
31.1219
35.1413
44.1436
56.818
52.0939
38.7333
34.5412
33.5562
35.3359
46.6986
31.2088
27.9484
31.3849
33.6687
38.8735
50.8412
48.0473
36.0996
33.6952
33.4065
31.5927
40.8447
38.0261
29.7362
32.2272
31.0026
24.7919
26.458
43.2433
33.5646
31.8309
32.0999
30.6474
39.2028
35.1839
28.3916
31.7272
31.884
23.8408
24.8051
39.6319
30.6129
31.3623
31.7182
27.9736
35.5059
32.356
26.1316
31.5406
31.9833
22.782
23.2168
37.1936
28.9976
30.686
31.1871
26.793
33.6417
30.3224
25.0149
31.6648
32.41
22.4526
22.5642
34.0596
27.4251
30.0223
30.6385
25.2215
30.7967
28.3232
23.6713
31.37
32.7729
21.8003
21.5776
32.4876
26.3257
29.7435
30.4469
24.3768
29.4876
26.9089
23.0843
31.5354
33.6635
21.489
21.0141
30.0638
24.7162
29.3009
30.2387
23.4216
28.5789
21.3341
21.6739
32.3853
29.7458
25.5701
31.729
28.5218
23.8446
30.791
32.2947
22.8918
26.0096
21.0512
21.8343
34.4665
29.9813
24.4475
28.9309
26.3285
22.7106
31.0338
32.8402
22.1913
24.4874
20.3984
21.3997
35.683
29.6976
22.4025
25.9887
24.8439
21.8878
30.9651
33.8139
21.1717
20.0291
26.8548
22.7781
29.5733
30.8905
21.4366
24.1004
22.6913
21.338
32.8945
36.3494
20.8999
19.5433
23.6518
20.9708
29.8138
31.294
20.7255
22.8232
19.0067
20.5745
34.5334
29.3552
21.1764
24.4189
22.3265
20.2398
30.8079
33.2443
20.2598
21.1654
19.1186
21.4953
36.7018
30.0184
20.5264
22.1305
21.5951
20.2589
31.7875
35.4679
21.0598
18.8225
23.1805
20.7618
30.0551
31.8979
20.1208
21.2839
20.2783
19.7947
34.5832
38.6201
22.0646
18.5658
20.3231
19.5656
30.9117
32.8396
18.8671
19.5345
17.9512
21.5968
36.6992
30.1565
19.3783
20.314
19.2493
18.9684
32.057
35.1034
18.6419
18.5617
17.7228
22.8552
39.3323
31.1974
18.8596
18.8282
18.2664
18.2893
33.3742
37.7277
21.9733
17.3615
19.2828
18.9199
30.7212
33.3791
18.385
18.4661
17.6861
22.3389
37.991
31.0722
18.8844
19.0832
18.3857
18.4722
33.8272
38.4649
22.4034
17.6987
19.4223
19.1025
31.5525
33.9141
19.0223
18.8719
17.4889
18.7744
37.5092
42.4397
24.0701
17.5326
18.1824
18.4812
33.421
36.2474
18.0228
16.9818
17.1406
23.7417
41.2563
32.8585
18.171
17.7857
16.7725
17.8195
35.8335
40.9879
23.5677
16.9859
17.9026
18.2376
32.8838
36.0814
17.9537
16.8617
17.1188
23.9264
41.5267
33.2999
18.166
17.8119
17.3352
18.5136
36.0263
40.215
18.7193
16.4568
17.1412
25.9903
45.583
35.4816
18.3301
17.522
16.4569
17.9924
38.8361
44.5829
25.3786
17.0675
17.6303
18.3395
35.1101
38.6398
18.105
16.5173
17.206
25.674
44.5315
35.4157
18.3761
17.5563
16.5356
18.2808
39.1039
45.0754
26.0189
17.2812
17.7679
18.5948
35.8044
39.5642
18.4306
16.6551
17.4792
26.5412
45.9378
36.4251
18.648
17.6994
16.6628
18.5908
40.3314
46.8606
27.0086
17.5555
17.7276
18.7484
37.2405
40.6069
19.4681
16.9967
16.29
19.9699
45.524
51.9298
29.7477
17.89
17.1154
18.681
39.6934
43.799
18.4651
16.0965
17.54
28.5951
50.6435
39.2021
18.3772
16.9124
15.936
18.3525
43.549
50.6341
28.6375
17.4052
16.8811
18.3642
39.2688
43.6781
18.4341
15.96
17.5595
29.0219
50.9009
39.6103
18.4662
16.9182
15.9986
18.4905
44.1548
51.776
29.2831
17.612
17.0171
18.5696
40.1398
44.7874
18.7477
16.1374
17.8785
29.8644
52.5582
40.9161
18.8265
17.1749
16.2989
18.9467
45.6033
53.4811
30.333
18.0701
17.3842
19.0515
41.5019
46.3275
19.2467
16.5214
18.4411
31.0392
54.4762
42.3781
19.3868
17.5869
16.7163
19.4739
47.244
55.6356
31.4338
18.6427
17.8364
19.6052
43.0744
48.0126
19.8403
16.9699
18.8633
31.8912
56.5036
43.9238
19.8938
18.0714
17.3821
20.8762
48.0047
54.3821
22.1964
16.7878
20.044
36.0146
62.7867
47.6412
20.8027
18.3472
17.4762
20.7985
53.0049
62.0054
34.6283
19.9785
18.5795
20.7047
47.3715
52.8846
20.9376
17.6498
20.253
34.9719
62.0595
47.6304
20.9342
18.7909
17.868
21.255
53.2558
62.6767
35.387
20.4767
19.005
21.1908
48.2686
53.912
21.4329
18.0745
20.8095
35.9925
63.5878
48.8187
21.4875
19.2223
18.323
21.8848
54.6668
64.5792
36.5922
21.1089
19.4743
21.8342
49.5811
55.4573
22.09
18.5623
21.4572
37.1021
65.6287
50.5724
22.1207
19.7277
18.8309
22.4857
56.5877
66.8858
37.8417
21.8306
20.0362
22.5069
51.4269
57.4728
22.7931
19.131
22.3035
38.5048
67.922
52.1649
22.8287
20.2986
19.4084
23.2178
58.3558
69.1777
39.2185
22.6494
20.5502
23.2273
53.1132
59.2901
23.4622
19.6457
22.8104
39.423
70.2225
53.9093
23.3842
20.7491
19.9632
25.0215
59.2073
67.2406
27.0753
19.4742
25.1771
45.2142
78.2236
59.2083
24.6162
20.8184
19.8106
24.5823
66.073
77.9496
43.0552
24.3364
20.5381
23.9126
58.8771
65.9676
24.4957
19.6556
24.333
43.6467
77.8519
59.0924
24.2131
20.6297
19.7782
24.6047
66.2235
78.36
43.59
24.3698
20.7871
24.2443
59.4098
66.6566
24.7782
19.962
24.6007
44.0536
79.0596
60.2143
24.6057
21.0463
20.1825
24.9006
67.4767
80.4471
44.5455
24.7812
21.3287
24.8603
60.9954
68.4284
25.5058
20.5659
25.2616
45.3321
81.2488
61.9992
25.4062
21.7477
20.901
25.7621
69.3401
82.4455
45.3424
25.237
22.1131
25.5839
62.6508
68.7357
27.5166
21.2385
20.7963
29.997
78.2748
91.7408
52.1876
28.1912
22.5289
27.2965
68.4014
76.472
27.4362
21.6165
27.4389
50.0735
90.5685
68.099
27.0535
22.7307
21.9438
27.7017
76.2661
90.2544
50.4096
27.7069
23.0671
27.4391
68.2474
76.4311
27.9608
22.2881
27.9736
50.5136
90.8584
68.7531
27.6578
23.3899
22.5992
28.3253
76.9995
92.0399
51.3272
28.3111
23.7483
28.2151
70.4167
77.4466
30.6654
22.7924
22.3315
33.0983
88.0062
103.132
58.1512
31.0999
24.08
29.7849
76.5574
85.6026
30.2087
23.1512
30.1665
55.6256
101.341
75.9693
29.4598
24.289
23.374
29.7268
84.7948
101.019
55.1867
29.7951
24.5132
29.4396
75.8327
83.2721
31.9929
23.4691
23.13
34.9719
94.6613
110.787
62.7038
33.0518
25.2185
31.4916
82.0738
91.5365
31.7116
24.2048
31.9128
59.3626
108.419
80.9733
30.9803
25.3801
24.5311
32.0083
90.8718
107.983
59.555
32.0849
25.808
31.4572
81.5148
90.0219
34.5553
24.7445
24.296
37.2244
102.191
119.732
67.0285
35.2022
26.3775
33.2536
88.2781
98.5888
33.692
25.3502
34.0528
63.6033
116.664
87.0438
32.7946
26.5379
25.5361
33.172
97.2137
115.762
62.4427
33.2385
26.6303
32.5026
86.0851
94.4224
35.3041
25.5157
25.1923
39.036
107.657
126.716
71.0877
36.9212
27.6049
34.9763
93.2929
103.907
35.3401
26.5621
35.5485
66.6855
123.136
91.5243
34.2553
27.6698
26.7253
37.8399
100.38
113.951
41.3536
26.4466
39.462
75.8479
134.364
99.6838
36.9625
28.9364
27.8171
36.8968
110.862
131.648
70.4508
37.6288
28.4591
35.6223
96.9855
106.074
38.8727
27.3782
27.1049
42.973
120.292
140.749
78.9062
40.5582
29.5589
38.1137
104.02
114.705
42.0956
28.5669
28.0304
44.0085
128.91
151.564
82.6279
42.6676
30.0602
39.2242
110.332
122.439
39.6656
28.9443
40.2218
76.8054
144.139
106.05
38.0827
29.9975
28.684
41.1718
115.501
130.653
44.8434
28.2877
42.2967
84.0857
153.197
110.943
39.7467
30.8248
29.8158
43.4654
121.793
137.994
47.709
29.5454
44.9731
88.3884
161.593
117.674
41.5439
31.7349
30.5373
44.8138
128.288
144.067
48.1576
30.1662
46.2115
90.804
167.294
120.402
42.0153
31.9293
31.1062
46.0181
131.99
149.054
50.3752
30.8678
47.9366
94.7819
174.588
126.961
43.7954
32.8814
31.4301
44.4627
139.005
154.299
56.6438
32.1145
31.2257
56.7685
169.761
194.509
103.443
51.4288
33.0894
45.0822
136.962
150.402
49.6449
32.2135
31.8299
53.5678
168.378
194.627
103.206
50.8617
34.109
46.4954
139.302
150.152
45.679
32.0141
32.4469
57.6702
168.327
181.645
55.0549
31.3798
52.6013
110.973
211.382
149.039
47.9815
34.4803
32.6304
46.7717
161.637
176.635
61.4845
33.7828
33.1022
63.1802
193.784
220.073
116.917
56.2858
35.8052
49.7911
153.196
170.005
52.5876
34.4962
34.226
59.0625
187.431
205.458
67.2611
34.7109
33.0252
64.6024
219.373
245.321
122.234
56.7984
34.9061
49.3678
163.933
178.817
51.8121
33.6397
32.4977
53.847
195.468
211.98
62.9908
32.4174
31.4029
62.0566
225.089
238.903
76.1254
34.2111
32.5122
74.3279
250.581
275.413
140.354
62.315
36.3174
54.5519
182.543
190.958
53.307
34.7018
34.4603
64.9418
209.087
224.934
64.9936
33.6251
33.0616
66.9846
237.083
245.819
68.1808
32.536
32.4994
73.6182
251.407
250.259
70.9302
31.4982
32.4853
78.9355
247.58
241.143
79.5267
32.2194
33.2699
84.9849
230.786
219.088
86.4239
33.1501
34.7891
93.1334
207.943
197.06
95.129
34.7974
37.0731
102.615
187.442
178.4
104.45
37.2321
40.1441
111.349
170.593
163.366
113.121
40.5359
43.9681
118.87
157.099
151.499
121.682
44.5014
48.6912
125.45
146.515
142.226
128.748
49.4724
54.3708
131.075
138.298
135.016
134.082
55.1704
60.4601
135.997
131.929
129.48
138.586
61.3603
66.7401
140.238
127.013
125.307
142.508
67.6398
73.1881
143.944
123.298
122.252
145.883
74.1725
79.8401
147.047
120.614
120.061
148.613
80.6979
86.2484
149.592
118.762
118.5
150.894
87.0352
92.3318
151.668
117.533
117.459
152.718
92.9273
97.9454
153.364
116.779
116.826
154.227
98.4325
103.1
154.713
116.356
116.476
155.384
103.389
107.711
155.785
116.147
116.323
156.331
107.885
111.827
156.609
116.095
116.31
157.034
111.819
115.367
157.234
116.124
116.412
157.612
115.286
118.444
157.659
116.248
116.581
157.98
118.246
121.093
157.951
116.424
116.781
158.23
120.84
123.357
158.144
116.63
117
158.369
123.014
125.275
158.248
116.854
117.234
158.446
124.899
126.897
158.281
117.091
117.474
158.44
126.454
128.252
158.254
117.332
117.716
158.398
127.796
129.387
158.18
117.576
117.956
158.297
128.884
130.325
158.069
117.817
118.193
158.179
129.823
131.102
157.93
118.055
118.426
158.023
130.57
131.741
157.771
118.289
118.655
157.863
131.218
132.261
157.597
118.518
118.879
157.687
131.697
132.68
157.431
118.744
119.104
157.528
132.156
133.029
157.262
118.971
119.329
157.349
132.493
133.31
157.085
119.198
119.555
157.18
132.794
133.535
156.909
119.426
119.778
156.999
133.011
133.72
156.735
119.65
120.001
156.835
133.215
133.884
156.569
119.875
120.222
156.665
133.359
133.988
156.408
120.098
120.443
156.511
133.476
134.055
156.251
120.32
120.66
156.346
133.521
134.064
156.091
120.538
120.874
156.189
133.539
134.04
155.927
120.753
121.082
156.013
133.488
133.959
155.754
120.96
121.283
155.841
133.416
133.853
155.574
121.161
121.474
155.649
133.29
133.707
155.386
121.351
121.655
155.463
133.15
133.539
155.191
121.531
121.824
155.258
132.959
133.335
154.988
121.699
121.982
155.057
132.764
133.12
154.779
121.856
122.127
154.839
132.533
132.884
154.565
121.998
122.259
154.629
132.312
132.648
154.35
122.129
122.378
154.407
132.064
132.401
154.135
122.247
122.487
154.199
131.834
132.16
153.923
122.355
122.584
153.982
131.584
131.914
153.715
122.45
122.672
153.784
131.357
131.677
153.514
122.538
122.751
153.578
131.112
131.439
153.319
122.616
122.823
153.393
130.893
131.213
153.132
122.688
122.888
153.203
130.66
130.988
152.953
122.753
122.948
153.034
130.454
130.776
152.783
122.812
123.002
152.861
130.235
130.565
152.62
122.866
123.052
152.708
130.043
130.368
152.466
122.916
123.097
152.55
129.837
130.171
152.318
122.961
123.139
152.413
129.659
129.987
152.179
123.003
123.177
152.269
129.467
129.804
152.045
123.041
123.212
152.145
129.302
129.634
151.919
123.076
123.244
152.015
129.122
129.464
151.797
123.108
123.273
151.902
128.971
129.306
151.683
123.138
123.3
151.783
128.803
129.149
151.572
123.164
123.325
151.681
128.664
129.003
151.468
123.189
123.348
151.572
128.508
128.857
151.366
123.21
123.368
151.48
128.38
128.723
151.271
123.23
123.386
151.379
128.235
128.588
151.178
123.247
123.402
151.294
128.117
128.465
151.09
123.263
123.415
151.201
127.983
128.34
151.005
123.276
123.427
151.124
127.876
128.226
150.924
123.288
123.437
151.038
127.751
128.112
150.845
123.297
123.445
150.967
127.653
128.007
150.771
123.305
123.452
150.887
127.536
127.901
150.698
123.312
123.458
150.822
127.447
127.805
150.63
123.318
123.463
150.747
127.339
127.707
150.562
123.322
123.468
150.688
127.258
127.618
150.499
123.327
123.472
150.618
127.157
127.528
150.436
123.331
123.475
150.564
127.083
127.446
150.378
123.336
123.479
150.499
126.989
127.362
150.32
123.339
123.483
150.45
126.921
127.286
150.266
123.344
123.488
150.389
126.833
127.208
150.213
123.349
123.493
150.344
126.771
127.139
150.163
123.355
123.499
150.288
126.688
127.066
150.114
123.361
123.505
150.247
126.631
127.001
150.069
123.369
123.512
150.195
126.554
126.934
150.024
123.376
123.52
150.158
126.502
126.874
149.982
123.385
123.529
150.11
126.429
126.811
149.941
123.394
123.539
150.077
126.382
126.755
149.904
123.406
123.551
150.033
126.313
126.696
149.867
123.418
123.565
150.004
126.269
126.644
149.834
123.434
123.582
149.964
126.203
126.587
149.802
123.453
123.604
149.94
126.161
126.536
149.774
123.479
123.634
149.905
126.096
126.481
149.748
123.511
123.675
149.887
126.055
126.43
149.727
123.556
123.729
149.859
125.989
126.372
149.708
123.614
123.803
149.845
125.95
126.305
149.694
123.691
123.937
149.819
125.868
126.218
149.656
123.833
124.141
149.736
125.727
125.82
149.769
124.067
124.545
149.734
125.177
124.197
149.629
125.01
126.289
148.801
123.612
118.692
147.54
128.416
130.105
145.653
114.769
107.062
143.986
132.249
71.7144
56.7502
58.4713
69.5993
83.4886
90.5791
105.273
121.924
128.402
133.288
136.162
137.642
138.236
138.316
138.131
137.836
137.514
137.206
136.929
136.689
136.484
136.311
136.167
136.049
135.953
135.879
135.825
135.789
135.767
135.757
135.754
135.748
135.738
135.725
135.708
135.688
135.665
135.639
135.611
135.58
135.546
135.511
135.472
135.432
135.389
135.344
135.297
135.247
135.195
135.14
135.076
134.984
134.845
134.666
134.472
134.283
134.119
133.99
133.901
133.859
133.851
133.873
133.924
133.994
134.076
134.162
134.249
134.334
134.417
134.497
134.577
134.656
134.736
134.817
134.901
134.988
135.078
135.173
135.272
135.376
135.486
135.6
135.72
135.844
135.974
136.108
136.246
136.388
136.533
136.681
136.831
136.983
137.137
137.291
137.445
137.599
137.752
137.904
138.054
138.203
138.349
138.493
138.634
138.773
138.909
139.041
139.171
139.297
139.421
139.541
139.659
139.773
139.885
139.994
140.099
140.202
140.303
140.4
140.495
140.587
140.676
140.763
140.847
140.928
141.007
141.083
141.158
141.229
141.299
141.367
141.433
141.498
141.561
141.623
141.683
141.743
141.801
141.858
141.915
141.97
142.024
142.077
142.129
142.18
142.229
142.277
142.324
142.37
142.414
142.457
142.499
142.54
142.58
142.62
142.658
142.697
142.735
142.772
142.81
142.848
142.886
142.925
142.963
143.003
143.043
143.083
143.124
143.166
143.208
143.25
143.292
143.335
143.379
143.422
143.466
143.51
143.555
143.6
143.646
143.693
143.74
143.789
143.837
143.887
143.937
143.988
144.038
144.086
144.133
144.175
144.212
144.243
144.269
144.288
144.298
144.302
144.302
144.302
144.303
144.304
144.304
144.3
144.283
144.226
144.085
143.833
143.473
143.041
142.573
142.089
141.599
141.103
140.596
140.077
139.542
138.992
138.425
137.843
137.246
136.636
136.012
135.377
134.732
134.076
133.411
132.739
132.06
131.376
130.687
129.996
129.302
128.609
127.917
127.227
126.541
125.861
125.188
124.524
123.87
123.228
122.6
121.987
121.39
120.809
120.244
119.691
119.147
118.612
118.095
117.623
117.244
117
116.884
116.847
116.843
116.846
116.823
116.7
116.046
115.119
112.369
110.564
108.954
106.958
105.426
103.401
101.994
100.018
98.7474
96.8448
95.7122
93.8905
92.8855
91.1482
90.2522
88.5998
87.7946
86.2231
85.4966
84.001
83.3396
81.919
81.3026
79.9582
79.3813
78.1048
77.5629
76.3474
75.8366
74.676
74.1935
73.0829
72.6263
71.5624
71.1298
70.1093
69.6986
68.718
68.3273
67.3834
67.0109
66.1006
65.7445
64.865
64.5237
63.6726
63.3447
62.5193
62.2032
61.4006
61.0947
60.3123
60.0151
59.2499
58.9599
58.2093
57.925
57.1862
56.9063
56.1768
55.9001
55.1776
54.9029
54.1854
53.9115
53.1971
52.9232
52.21
51.9351
51.2213
50.9444
50.2282
49.9483
49.2281
48.9443
48.2185
47.9299
47.1966
46.9023
46.1606
45.8594
45.1055
44.7977
44.0334
43.7188
42.9437
42.6227
41.839
41.513
40.7244
40.3955
39.6064
39.2788
38.4954
38.1745
37.4066
37.0986
36.3563
36.069
35.3673
35.1089
34.463
34.2369
33.653
33.4594
32.9384
32.7767
32.316
32.1782
31.7638
31.6409
31.2579
31.1463
30.7881
30.6863
30.3498
30.2575
29.9418
29.8586
29.5631
29.4882
29.2106
29.144
28.8841
28.8253
28.5821
28.5307
28.3024
28.2567
28.0409
28.0001
27.795
27.7586
27.5634
27.5309
27.3447
27.3151
27.1355
27.108
26.9343
26.9078
26.7376
26.7111
26.5426
26.5149
26.3458
26.3159
26.1445
26.1118
25.9372
25.9011
25.7222
25.6823
25.4975
25.4546
25.2645
25.213
25.0167
24.9651
24.8097
24.8219
24.7626
24.658
24.6515
30.8904
36.4698
36.5431
30.9035
31.0445
36.6119
36.4571
31.0289
30.896
35.7697
44.0132
42.1583
41.7795
41.4854
45.6489
45.8189
45.8654
50.661
50.1709
49.721
52.935
53.3566
53.6119
53.084
53.6723
44.5376
37.1294
31.2941
31.181
36.1761
37.5192
31.6362
31.5239
36.6226
45.1783
45.8464
37.9766
31.9862
31.8615
37.0572
38.4316
32.3174
32.1889
37.4812
46.4961
47.1332
38.8778
32.6399
32.5035
37.8912
39.312
32.9513
32.8066
38.2867
47.7641
48.3732
39.7313
33.252
33.0997
38.6694
40.1377
33.5435
33.3839
39.0399
48.9669
49.5455
40.5321
33.8273
33.6612
39.3994
40.9158
34.1058
33.9342
39.7495
50.1086
50.6539
41.2896
34.3815
34.2053
40.0914
41.6549
34.6568
34.477
40.4265
51.1811
51.6891
42.0129
34.9339
34.7514
40.7571
42.3655
35.2154
35.0313
41.0853
52.1775
52.6475
42.7147
35.5035
35.3189
41.414
43.0636
35.8008
35.6166
41.7474
53.1033
53.5523
43.4173
36.1103
35.9281
42.0914
43.7828
36.4372
36.2592
42.4544
54.0059
54.4772
44.1699
36.7875
36.6151
42.8456
44.5879
37.1662
37.0009
43.273
54.9819
55.5355
45.0462
37.5791
37.423
43.75
45.5611
38.0365
37.8928
44.3002
56.1446
56.8518
46.1569
38.5481
38.4183
44.9401
46.8518
39.122
39.0076
45.6792
57.677
58.6437
47.6712
39.7701
39.6726
46.5108
48.6275
40.5097
40.4319
47.4704
59.7692
61.0596
49.7221
41.3551
41.2996
48.5656
50.9564
42.3152
42.2832
49.7952
62.5087
64.0934
52.3189
43.3898
43.3796
51.1472
53.7876
44.5717
44.5828
52.5978
65.7823
67.5258
55.3274
45.8459
45.876
54.1151
56.9035
47.1834
47.2213
55.6653
69.2834
71.0102
58.4832
48.5529
48.5883
57.2172
60.035
49.9268
49.9532
58.7418
72.6829
74.2706
61.5354
51.2866
51.2992
60.2197
62.9737
52.6183
52.6155
61.6416
75.7618
77.1589
64.3483
53.9171
53.9019
63.0063
65.6609
55.1792
55.1525
64.3162
78.4701
79.709
66.919
56.406
56.3695
65.5776
68.1318
57.6026
57.5591
66.8007
80.8891
82.023
69.3131
58.7756
58.7252
67.9935
70.4655
59.9263
59.8709
69.1614
83.122
84.1939
71.5968
61.06
61.0004
70.3101
72.7114
62.1801
62.1177
71.4438
85.2448
86.278
73.813
63.29
63.2258
72.5658
74.9044
64.3926
64.3274
73.6791
87.2955
88.2984
75.9882
65.4904
65.425
74.7848
77.0668
66.5857
66.5207
75.8811
89.2871
90.2623
78.1411
67.6814
67.6178
76.9748
79.2121
68.7802
68.719
78.0685
91.2257
92.1799
80.2828
69.8846
69.8271
79.1653
81.3563
70.9979
70.9449
80.267
93.1324
94.0822
82.4342
72.1228
72.0755
81.3759
83.5187
73.2626
73.2224
82.4941
95.0304
95.9775
84.6119
74.4209
74.389
83.6243
85.716
75.6008
75.5789
84.769
96.924
97.8707
86.8333
76.8058
76.7952
85.9307
87.9663
78.0389
78.0415
87.1126
98.8188
99.7701
89.1178
79.3049
79.3257
88.3169
90.2896
80.6054
80.6459
89.5447
100.726
101.683
91.4824
81.9427
82.0048
90.7971
92.6973
83.3195
83.4055
92.0755
102.641
103.597
93.9365
84.7391
84.8505
93.3767
95.2016
86.2052
86.3447
94.7076
104.549
105.493
96.4957
87.7217
87.8918
96.075
97.8296
89.2884
89.4883
97.4689
106.424
107.349
99.1863
90.9037
91.1332
98.8837
100.559
92.5675
92.8293
100.318
108.268
109.177
101.947
94.282
94.579
101.771
103.347
96.0494
96.3848
103.24
110.075
110.958
104.758
97.8722
98.2504
104.723
106.176
99.7539
100.18
106.225
111.821
112.657
107.593
101.696
102.177
107.739
109.001
103.679
104.234
109.242
113.457
114.209
110.388
105.69
106.333
110.717
111.736
107.724
108.446
112.137
114.901
115.517
113.02
109.754
110.529
113.467
114.204
111.721
112.517
114.658
116.037
116.435
115.237
113.555
114.311
115.643
116.71
116.534
116.293
115.997
115.652
115.265
114.842
114.39
113.911
113.411
112.892
112.356
111.805
111.241
110.665
110.075
109.471
108.858
108.235
107.607
106.976
106.343
105.706
105.063
104.416
103.766
103.113
102.459
101.804
101.148
100.465
99.7619
99.0462
98.3203
97.5854
96.8419
96.0887
95.3224
94.5373
93.7239
92.8709
91.9635
90.9844
89.9153
88.7448
87.4651
86.1131
84.6679
83.0687
81.3969
79.7073
78.0776
76.5644
75.2127
74.0407