/*--------------------------------*- C++ -*----------------------------------*\
| =========                 |                                                 |
| \\      /  F ield         | OpenFOAM: The Open Source CFD Toolbox           |
|  \\    /   O peration     | Version:  v2006                                 |
|   \\  /    A nd           | Website:  www.openfoam.com                      |
|    \\/     M anipulation  |                                                 |
\*---------------------------------------------------------------------------*/
FoamFile
{
    version     2.0;
    format      ascii;
    class       volScalarField;
    location    "0.05";
    object      Ma;
}
// * * * * * * * * * * * * * * * * * * * * * * * * * * * * * * * * * * * * * //

dimensions      [0 0 0 0 0 0 0];


internalField   nonuniform List<scalar> 
12716
(
0.188961
0.188961
0.188961
0.188961
0.188961
0.188962
0.188962
0.188963
0.188962
0.188939
0.188842
0.188651
0.188387
0.188083
0.187763
0.18744
0.187117
0.18679
0.186457
0.186114
0.185761
0.185395
0.185018
0.184629
0.184229
0.183819
0.183399
0.18297
0.182532
0.182087
0.181634
0.181174
0.180708
0.180237
0.179762
0.179283
0.178802
0.178319
0.177835
0.177352
0.176871
0.176392
0.175917
0.175447
0.174983
0.174526
0.174078
0.17364
0.173212
0.172796
0.172389
0.17199
0.171595
0.171199
0.170805
0.17043
0.170113
0.169908
0.169837
0.169858
0.169912
0.16997
0.170016
0.170028
0.169995
0.169872
0.169606
0.169158
0.168412
0.167582
0.164661
0.162834
0.167594
0.168563
0.168665
0.167403
0.160767
0.158654
0.167135
0.16875
0.168781
0.166809
0.156735
0.1549
0.166384
0.168726
0.168607
0.165934
0.153241
0.151723
0.165445
0.168435
0.168226
0.164936
0.150356
0.14908
0.16441
0.167978
0.167719
0.163879
0.147915
0.146804
0.163347
0.167421
0.167125
0.162813
0.14578
0.144788
0.16228
0.166792
0.166469
0.161747
0.143866
0.142966
0.161218
0.166115
0.165774
0.16069
0.142121
0.141283
0.160157
0.165396
0.165036
0.159628
0.140489
0.139703
0.159098
0.164642
0.16427
0.158571
0.138954
0.138207
0.158041
0.163861
0.163477
0.157515
0.13749
0.136772
0.156983
0.163055
0.162658
0.156455
0.13608
0.135384
0.15592
0.162221
0.161812
0.155388
0.134711
0.134032
0.154849
0.161362
0.16094
0.154312
0.133372
0.132705
0.153767
0.160476
0.160041
0.153224
0.132055
0.131397
0.152672
0.159562
0.159113
0.152121
0.130753
0.1301
0.151559
0.158618
0.158155
0.150999
0.129459
0.128808
0.150427
0.157643
0.157164
0.149855
0.128167
0.127514
0.14927
0.156635
0.156137
0.148684
0.126871
0.126213
0.148085
0.155589
0.155072
0.147484
0.125563
0.124898
0.146867
0.154502
0.153963
0.146247
0.124239
0.123562
0.145611
0.153369
0.152806
0.14497
0.12289
0.122198
0.14431
0.152185
0.151594
0.143644
0.121509
0.1208
0.142959
0.150944
0.150324
0.142265
0.120091
0.119361
0.141551
0.149642
0.148989
0.140828
0.11863
0.117876
0.140083
0.148274
0.147586
0.139327
0.11712
0.11634
0.138548
0.146834
0.14611
0.137757
0.115557
0.114748
0.136943
0.14532
0.144556
0.136114
0.113935
0.113095
0.135261
0.143724
0.142918
0.134391
0.112249
0.111373
0.133495
0.142042
0.14119
0.132581
0.11049
0.109576
0.131639
0.140265
0.139363
0.130676
0.108652
0.107694
0.129683
0.138385
0.137428
0.128667
0.106726
0.105721
0.127619
0.136394
0.135379
0.126546
0.104703
0.103647
0.125439
0.134283
0.133205
0.124304
0.102577
0.101464
0.123132
0.132043
0.130898
0.121931
0.100336
0.0991631
0.12069
0.129665
0.128447
0.119417
0.0979724
0.0967349
0.118102
0.127139
0.125844
0.116754
0.0954784
0.0941731
0.115362
0.124457
0.123082
0.113935
0.0928484
0.0914737
0.112464
0.121614
0.120157
0.110956
0.0900803
0.0886361
0.109405
0.118607
0.117069
0.107818
0.0871755
0.0856654
0.10619
0.115439
0.113822
0.104527
0.0841422
0.0825722
0.102826
0.112115
0.110425
0.101095
0.0809941
0.0793742
0.0993299
0.10865
0.106901
0.0975445
0.0777567
0.0761062
0.0957341
0.105073
0.10328
0.0939125
0.0744684
0.0728089
0.0920763
0.101419
0.099603
0.0902434
0.0711768
0.0695382
0.0884103
0.0977334
0.0959255
0.0865988
0.0679448
0.066363
0.0848048
0.0940813
0.0923172
0.0830545
0.0648483
0.0633668
0.0813424
0.0905377
0.0888584
0.0796984
0.0619759
0.0606413
0.0781147
0.0871863
0.0856367
0.0766244
0.0594199
0.0582766
0.0752153
0.0841163
0.0827391
0.0739231
0.0572667
0.0563522
0.0727292
0.0814107
0.0802435
0.0716718
0.0555857
0.0549244
0.0707242
0.0791406
0.078208
0.0699218
0.0544136
0.0540076
0.0692308
0.0773463
0.0766555
0.0686847
0.0537457
0.0535789
0.0682435
0.0760344
0.0755741
0.0679396
0.0535466
0.0536029
0.0677161
0.0751774
0.0749119
0.0676296
0.0537822
0.0540049
0.067584
0.0747216
0.074643
0.0676809
0.0543193
0.054654
0.0677955
0.0746318
0.0747048
0.0680322
0.0550589
0.0554671
0.0682661
0.0748221
0.0750042
0.0685985
0.055927
0.0563767
0.0689112
0.0752127
0.0754691
0.0693026
0.0568594
0.0573205
0.0696599
0.0757375
0.0760404
0.070081
0.0578017
0.0582554
0.0704593
0.0763452
0.0766745
0.0708908
0.0587207
0.0591551
0.0712734
0.0769982
0.0773374
0.0717
0.0595942
0.0599996
0.0720728
0.0776643
0.0779999
0.0724827
0.0604045
0.0607794
0.0728403
0.0783231
0.0786553
0.0732356
0.061156
0.0614994
0.0735737
0.078969
0.0792866
0.0739445
0.061841
0.0621519
0.0742589
0.0795849
0.079885
0.0746042
0.0624603
0.0627394
0.0748938
0.0801656
0.0804478
0.0752143
0.0630172
0.0632686
0.0754807
0.080711
0.0809749
0.0757775
0.0635193
0.0637447
0.076021
0.0812197
0.0814646
0.0762943
0.0639695
0.0641702
0.0765152
0.0816907
0.0819168
0.0767659
0.064371
0.0645499
0.0769654
0.0821246
0.0823318
0.0771948
0.0647295
0.0648879
0.0773744
0.0825218
0.0827127
0.0775854
0.0650495
0.065193
0.0777503
0.0828885
0.0830652
0.0779446
0.0653387
0.0654651
0.0780927
0.0832247
0.0833881
0.0782714
0.0655958
0.0657096
0.0784071
0.0835358
0.0836891
0.0785733
0.0658292
0.0659337
0.0786991
0.0838275
0.083973
0.0788557
0.0660452
0.0661428
0.0789743
0.0841044
0.0842447
0.0791238
0.0662482
0.0663408
0.079237
0.0843711
0.0845063
0.0793801
0.0664414
0.0665287
0.0794873
0.0846267
0.0847542
0.0796211
0.0666213
0.0667029
0.0797219
0.0848678
0.0849927
0.079852
0.0667913
0.0668691
0.0799577
0.0851047
0.0852517
0.0800797
0.0670035
0.0671296
0.0802368
0.0854081
0.0856059
0.0804358
0.0673817
0.0675654
0.080637
0.0857831
0.0859346
0.0807844
0.0676689
0.0680973
0.0811003
0.086232
0.0864608
0.0813784
0.0683579
0.0911815
0.0937597
0.095441
0.0965071
0.0973582
0.098429
0.0992117
0.100015
0.100641
0.101256
0.101753
0.102239
0.10263
0.103011
0.103296
0.103549
0.103696
0.103765
0.10372
0.103463
0.102888
0.102135
0.101452
0.0990203
0.0933046
0.0877444
0.0736402
0.0718428
0.0861206
0.091727
0.086273
0.0765199
0.0552906
0.0583549
0.0799002
0.0892113
0.0892536
0.0795899
0.0573108
0.05728
0.0797838
0.0895418
0.089183
0.0793167
0.0565623
0.0568104
0.0795337
0.089335
0.0890984
0.0791371
0.0563409
0.0566571
0.0794234
0.0892967
0.0891223
0.0792856
0.0562338
0.0565587
0.079605
0.0893794
0.0892679
0.079375
0.0564569
0.0567871
0.0797159
0.0895291
0.0894108
0.0796199
0.0566937
0.0570336
0.0799301
0.0896986
0.0895978
0.0798176
0.0569716
0.0573013
0.0801614
0.0898777
0.0897861
0.0800634
0.057225
0.0575574
0.0804058
0.0900723
0.0899849
0.0803109
0.0574856
0.0578268
0.0806529
0.0902683
0.0901843
0.0805675
0.0577711
0.0581233
0.0809011
0.0904782
0.0904106
0.0807886
0.0580663
0.0584068
0.0811548
0.0906834
0.0906041
0.0810851
0.0583367
0.0586976
0.0814265
0.090893
0.0908161
0.0813527
0.0586476
0.0590098
0.0816948
0.0911016
0.0910284
0.0816265
0.0589634
0.0593235
0.0819727
0.0913155
0.0912443
0.0819043
0.059274
0.0596343
0.0822493
0.0915282
0.0914596
0.0821849
0.0595936
0.0599671
0.0825316
0.0917429
0.0916733
0.0824671
0.0599476
0.0603368
0.0828153
0.0919543
0.0918934
0.0827613
0.0603354
0.0607182
0.0831189
0.0921805
0.0921249
0.0830599
0.0606961
0.0610593
0.083424
0.0924079
0.0923564
0.0833735
0.0610451
0.061419
0.083743
0.0926376
0.0925773
0.0837162
0.0614101
0.061803
0.0840595
0.0928786
0.0928393
0.0840148
0.061824
0.0622137
0.0843856
0.0931349
0.0931013
0.0843482
0.0622324
0.0626228
0.0847244
0.0933972
0.0933713
0.0846975
0.0626453
0.0630414
0.0850789
0.0936714
0.093651
0.0850599
0.0630701
0.0634721
0.0854454
0.0939534
0.0939429
0.0854338
0.0635126
0.0639232
0.0858254
0.0942521
0.0942499
0.085824
0.0639719
0.0643911
0.0862215
0.0945637
0.0945729
0.0862311
0.0644549
0.0648826
0.0866389
0.0948944
0.0949142
0.0866602
0.0649569
0.065396
0.087075
0.095242
0.0952753
0.0871084
0.0654868
0.0659333
0.0875353
0.0956129
0.0956599
0.0875854
0.0660322
0.0664884
0.088025
0.0960075
0.0960718
0.0880929
0.0666053
0.0670775
0.0885473
0.0964317
0.0965136
0.0886351
0.0672173
0.0677094
0.08911
0.0968886
0.0969937
0.0892247
0.0678775
0.0683924
0.089723
0.0973864
0.097517
0.0898695
0.0685984
0.0691452
0.0904012
0.0979342
0.0980988
0.0905908
0.0693971
0.0699864
0.0911631
0.0985454
0.0987491
0.091405
0.070308
0.0709666
0.0920324
0.0992334
0.0994867
0.0923414
0.0714018
0.0721737
0.093045
0.100022
0.100372
0.0934788
0.0728354
0.0739091
0.094357
0.101038
0.101438
0.0948852
0.0748746
0.0758361
0.0956379
0.101996
0.102292
0.0960048
0.0765787
0.0776887
0.0968254
0.102817
0.103035
0.097104
0.0781956
0.0789189
0.0976019
0.103313
0.103311
0.09764
0.0792261
0.0799016
0.0980512
0.103499
0.103536
0.0982356
0.0804244
0.0810291
0.0985494
0.103692
0.10374
0.0987141
0.0816598
0.0825099
0.0990854
0.103915
0.103879
0.0992189
0.0830187
0.0834945
0.0994094
0.103885
0.103812
0.0994223
0.083917
0.08463
0.0997137
0.103883
0.103845
0.0998017
0.0852369
0.0858619
0.0999571
0.10382
0.103699
0.099973
0.0864316
0.0869609
0.100004
0.103561
0.103381
0.100023
0.0875432
0.088243
0.100029
0.103227
0.102937
0.0999174
0.0888001
0.0894325
0.0998238
0.102683
0.102353
0.0996803
0.0901427
0.0906417
0.0995418
0.101953
0.101256
0.0992032
0.0910235
0.0834414
0.0957316
0.0994563
0.100381
0.0974032
0.0864483
0.0872117
0.0974101
0.100163
0.0997268
0.0973456
0.0881577
0.0888972
0.0970499
0.0992895
0.0988231
0.0969676
0.0900454
0.0922538
0.0966588
0.0986948
0.0982691
0.0971616
0.0922066
0.0911079
0.0962101
0.0971936
0.0960319
0.0953368
0.0904818
0.0896178
0.0942979
0.0947354
0.0933649
0.0929822
0.0885056
0.0869356
0.0917266
0.0923375
0.09123
0.0905354
0.0858576
0.0846077
0.0891497
0.0896707
0.0877941
0.0871788
0.0830292
0.0812183
0.0846568
0.0853921
0.0824537
0.0819037
0.0792851
0.0775131
0.0788473
0.0794264
0.0758128
0.0755645
0.0757893
0.0738795
0.0725372
0.0723878
0.0699384
0.0698717
0.0713687
0.0690415
0.0668773
0.0670757
0.0636176
0.0637811
0.0668301
0.0644727
0.0608694
0.0603817
0.0577565
0.0579259
0.0615754
0.0586799
0.0545766
0.054539
0.0510208
0.0506944
0.0554025
0.0512949
0.0463022
0.0466371
0.0422058
0.0416864
0.0461958
0.0399401
0.036991
0.038765
0.0358878
0.0322735
0.0328522
0.025693
0.0290979
0.0346349
0.0372995
0.0306271
0.0208688
0.0275128
0.0376432
0.0431959
0.0576623
0.0528358
0.0465774
0.0734305
0.0742841
0.0763096
0.0950553
0.0957939
0.104931
0.141423
0.125585
0.122586
0.148694
0.154485
0.182009
0.21874
0.18378
0.175269
0.203311
0.216735
0.247391
0.254074
0.229657
0.220243
0.231129
0.233129
0.237838
0.210716
0.226527
0.231065
0.226529
0.215265
0.180052
0.154395
0.205361
0.224306
0.216195
0.195674
0.137439
0.126434
0.186026
0.208682
0.207802
0.180611
0.117812
0.111729
0.174164
0.201905
0.194381
0.166737
0.106418
0.10089
0.159224
0.18743
0.189234
0.159945
0.0969858
0.0948704
0.15601
0.186011
0.180644
0.151094
0.0925176
0.089543
0.146609
0.17585
0.179084
0.150074
0.0907341
0.0951019
0.151694
0.177672
0.183036
0.158853
0.102393
0.104415
0.159591
0.182786
0.179354
0.157025
0.102324
0.10052
0.153058
0.175579
0.178129
0.155094
0.103718
0.103794
0.153316
0.176314
0.171612
0.149456
0.102867
0.101219
0.145594
0.16718
0.169031
0.147655
0.104295
0.105601
0.14677
0.168089
0.164814
0.144575
0.106121
0.105997
0.141324
0.160836
0.157205
0.138539
0.104761
0.107476
0.141668
0.160263
0.158391
0.140307
0.108525
0.109531
0.136825
0.153137
0.146772
0.125906
0.107229
0.111832
0.124301
0.149508
0.147167
0.12489
0.109882
0.108091
0.125279
0.143257
0.140379
0.125342
0.107009
0.10223
0.120764
0.134585
0.143595
0.134511
0.11732
0.116829
0.134333
0.143875
0.142796
0.133018
0.115583
0.114492
0.131692
0.141482
0.137212
0.12695
0.110519
0.122809
0.1381
0.145594
0.145939
0.137957
0.121917
0.121167
0.136925
0.145115
0.141343
0.132549
0.117574
0.12786
0.141861
0.148444
0.148577
0.14153
0.126799
0.125778
0.140254
0.147631
0.143977
0.136543
0.12154
0.131041
0.144521
0.150395
0.150619
0.144089
0.129985
0.128069
0.142807
0.149876
0.148971
0.141652
0.126508
0.122378
0.138192
0.145621
0.15185
0.146403
0.132535
0.13159
0.145938
0.15213
0.151197
0.144462
0.130287
0.125768
0.141048
0.147807
0.153732
0.148555
0.135126
0.134449
0.148384
0.15422
0.153675
0.147359
0.133423
0.128724
0.143681
0.150263
0.15568
0.150676
0.137613
0.137433
0.150824
0.156379
0.156011
0.150001
0.136753
0.13271
0.146483
0.152834
0.157963
0.152986
0.140067
0.13887
0.152587
0.158304
0.158093
0.151965
0.138315
0.134838
0.148834
0.155274
0.160572
0.15579
0.143175
0.142133
0.155484
0.160897
0.160121
0.154096
0.140695
0.136658
0.150777
0.157171
0.162517
0.158039
0.145594
0.145423
0.158049
0.163259
0.160816
0.15529
0.142541
0.1494
0.161101
0.165501
0.165643
0.160568
0.148106
0.146946
0.159626
0.165188
0.1627
0.156673
0.144195
0.151868
0.163287
0.167655
0.168389
0.163463
0.151188
0.150108
0.162508
0.168005
0.165084
0.158268
0.146774
0.153362
0.164679
0.169457
0.170209
0.165123
0.153087
0.150883
0.162545
0.168151
0.172483
0.168314
0.157231
0.156185
0.168208
0.172874
0.17243
0.167224
0.154907
0.151005
0.163807
0.169684
0.17409
0.169875
0.158224
0.158209
0.170233
0.174964
0.173029
0.167815
0.155933
0.162398
0.173365
0.177244
0.177776
0.173362
0.161521
0.160204
0.172299
0.177328
0.174621
0.168897
0.156582
0.163628
0.174945
0.179049
0.179969
0.175286
0.163622
0.161345
0.172864
0.178011
0.182001
0.17818
0.167268
0.166312
0.178084
0.18245
0.182058
0.177082
0.164951
0.161179
0.173835
0.179462
0.183642
0.179675
0.168159
0.168013
0.180024
0.184584
0.182746
0.177651
0.165723
0.172084
0.183076
0.186791
0.187448
0.183164
0.171189
0.17004
0.182269
0.187151
0.184401
0.179237
0.16574
0.172517
0.184836
0.188528
0.189443
0.184952
0.172389
0.1699
0.182588
0.18753
0.191611
0.188093
0.176606
0.176083
0.187904
0.192231
0.190136
0.185323
0.173336
0.17912
0.19029
0.193899
0.193997
0.189608
0.177904
0.175047
0.186934
0.191984
0.195898
0.192353
0.181508
0.181083
0.192803
0.196849
0.196911
0.192267
0.180123
0.17677
0.189354
0.194676
0.198559
0.194886
0.183191
0.182351
0.194655
0.199071
0.196801
0.191669
0.179221
0.185208
0.19671
0.200407
0.201267
0.19692
0.184943
0.182547
0.194581
0.199497
0.203376
0.199889
0.188731
0.188218
0.199883
0.204072
0.202227
0.197426
0.185625
0.191276
0.202286
0.20576
0.206298
0.2022
0.190125
0.188683
0.201234
0.206035
0.203779
0.198256
0.18537
0.1925
0.204319
0.20801
0.208926
0.204497
0.192015
0.189315
0.201857
0.206968
0.210734
0.207185
0.195612
0.194789
0.20697
0.211278
0.209185
0.204178
0.191925
0.197565
0.20918
0.212801
0.213233
0.208822
0.196589
0.194071
0.206331
0.211379
0.215259
0.21183
0.200562
0.200122
0.21196
0.216126
0.214304
0.209452
0.197523
0.20331
0.214498
0.21793
0.218475
0.214323
0.202541
0.199816
0.211751
0.216592
0.220046
0.216526
0.205159
0.203739
0.216319
0.220528
0.220595
0.215679
0.202596
0.199477
0.212843
0.218457
0.222521
0.218824
0.206489
0.205616
0.218768
0.22331
0.221255
0.215945
0.202697
0.209148
0.221376
0.225014
0.225626
0.221131
0.208209
0.205195
0.218265
0.223537
0.227325
0.223603
0.211383
0.210418
0.223327
0.227875
0.225935
0.220689
0.207764
0.214248
0.226247
0.229802
0.230519
0.226117
0.213411
0.210594
0.223429
0.228597
0.232393
0.228817
0.216841
0.216013
0.22862
0.233022
0.231028
0.225932
0.213171
0.21897
0.231032
0.234622
0.235195
0.230746
0.217952
0.215257
0.228146
0.233343
0.23723
0.233719
0.221801
0.221112
0.233667
0.237998
0.236113
0.231018
0.218314
0.224356
0.236266
0.239773
0.24048
0.236154
0.223511
0.220714
0.233545
0.238614
0.242333
0.23884
0.226906
0.226144
0.238743
0.243055
0.24123
0.236139
0.223278
0.229356
0.241301
0.244808
0.245788
0.241644
0.228513
0.227412
0.241027
0.245957
0.243612
0.237777
0.223752
0.230737
0.243769
0.247642
0.24844
0.243681
0.229751
0.226591
0.240667
0.246307
0.250205
0.246452
0.233472
0.232631
0.246345
0.251007
0.248931
0.243412
0.229537
0.236248
0.249116
0.252846
0.253552
0.248929
0.235335
0.23221
0.246016
0.251494
0.255363
0.251664
0.238753
0.237963
0.251615
0.256218
0.254274
0.248815
0.235095
0.241687
0.254467
0.258188
0.258912
0.254274
0.240756
0.237746
0.251444
0.256933
0.260847
0.257157
0.244476
0.243668
0.257111
0.26168
0.259718
0.254289
0.240652
0.247062
0.259887
0.263589
0.264338
0.259734
0.246153
0.24322
0.256963
0.262395
0.266274
0.262608
0.249748
0.248764
0.262436
0.267055
0.26516
0.259689
0.245892
0.252761
0.265505
0.269169
0.270127
0.265588
0.252136
0.249293
0.262922
0.268279
0.27213
0.268465
0.255711
0.254624
0.268246
0.27283
0.270934
0.265472
0.251624
0.258262
0.271077
0.274814
0.275637
0.271135
0.257062
0.255718
0.270385
0.275732
0.273199
0.266899
0.251707
0.259192
0.273395
0.277479
0.278629
0.273549
0.258223
0.255158
0.270661
0.276683
0.281055
0.277104
0.262829
0.261547
0.276714
0.281773
0.279439
0.273375
0.258043
0.265147
0.279431
0.283532
0.284258
0.279111
0.263919
0.260637
0.27603
0.282074
0.286465
0.282407
0.26818
0.267287
0.28234
0.287425
0.285385
0.279424
0.264153
0.271656
0.285769
0.28974
0.291032
0.286102
0.271193
0.268268
0.283305
0.289099
0.293327
0.289286
0.275122
0.273775
0.28879
0.293904
0.291691
0.285688
0.270433
0.277637
0.291837
0.295925
0.296925
0.291877
0.276796
0.273755
0.289104
0.295046
0.299431
0.295401
0.281344
0.280535
0.295972
0.300802
0.301433
0.295668
0.279658
0.276181
0.292617
0.299207
0.30402
0.299799
0.284603
0.282685
0.299149
0.304626
0.302098
0.295523
0.278909
0.287067
0.302326
0.306717
0.307515
0.30205
0.285904
0.282449
0.298731
0.305217
0.30989
0.305584
0.290627
0.290004
0.305807
0.311137
0.309215
0.302949
0.286961
0.295169
0.309807
0.313947
0.315448
0.310404
0.295101
0.292036
0.307505
0.313479
0.317638
0.313385
0.29858
0.29685
0.313229
0.318355
0.318635
0.312461
0.295259
0.290874
0.308652
0.315923
0.320927
0.316225
0.299975
0.298998
0.316353
0.322235
0.320074
0.313219
0.295653
0.304668
0.320658
0.325172
0.326903
0.321334
0.304382
0.301828
0.318752
0.325219
0.330237
0.325906
0.310273
0.308261
0.325587
0.330964
0.330908
0.324418
0.306303
0.3015
0.320138
0.327798
0.332986
0.327999
0.31087
0.309832
0.328139
0.334312
0.332039
0.324813
0.306458
0.315967
0.332697
0.337492
0.339069
0.333062
0.315417
0.313076
0.330698
0.337491
0.343047
0.338705
0.322687
0.320406
0.338252
0.343741
0.343454
0.336656
0.317658
0.312453
0.332066
0.340148
0.345607
0.3404
0.322431
0.321153
0.340352
0.346839
0.344463
0.336884
0.317593
0.327806
0.345244
0.350169
0.352098
0.345974
0.327405
0.324892
0.343523
0.350625
0.356624
0.352256
0.336074
0.335066
0.352805
0.358133
0.358084
0.35144
0.332688
0.327058
0.34673
0.354691
0.36007
0.354828
0.336837
0.33581
0.355016
0.361453
0.35932
0.351796
0.33243
0.342764
0.360182
0.36517
0.367338
0.361336
0.342313
0.342461
0.362061
0.369033
0.366998
0.359209
0.339418
0.34981
0.368202
0.373144
0.373632
0.367151
0.346937
0.34209
0.362596
0.37059
0.376055
0.37074
0.352445
0.351123
0.371182
0.377451
0.378267
0.370765
0.349999
0.345668
0.366962
0.375635
0.382159
0.376647
0.357596
0.35796
0.378859
0.385117
0.387219
0.380015
0.358476
0.352922
0.375111
0.38379
0.389295
0.383341
0.362799
0.360515
0.382456
0.389756
0.386975
0.378351
0.356268
0.368291
0.387781
0.393442
0.39576
0.389137
0.367639
0.367537
0.389776
0.397631
0.395942
0.387029
0.364556
0.380163
0.398572
0.403507
0.405772
0.399843
0.379693
0.376233
0.397967
0.405524
0.40156
0.392321
0.369244
0.380845
0.401537
0.407656
0.409533
0.40254
0.379478
0.378935
0.402888
0.411212
0.409146
0.399512
0.375148
0.391549
0.411484
0.416957
0.42057
0.414599
0.39326
0.391722
0.414135
0.421607
0.417367
0.407888
0.383789
0.39491
0.416751
0.423255
0.424466
0.416987
0.392626
0.391284
0.417905
0.426498
0.428934
0.418933
0.390479
0.387622
0.416085
0.427185
0.436725
0.43097
0.408273
0.40667
0.431833
0.438957
0.438238
0.428981
0.401841
0.394119
0.422278
0.433546
0.441109
0.43375
0.409332
0.408277
0.435609
0.443791
0.447641
0.438444
0.408912
0.412907
0.443018
0.452742
0.449584
0.438474
0.409067
0.421582
0.448254
0.4562
0.455477
0.44627
0.416333
0.413517
0.445299
0.455934
0.457681
0.445522
0.412472
0.410002
0.442577
0.455644
0.467091
0.460487
0.43542
0.433963
0.46193
0.469857
0.469533
0.459319
0.427066
0.420476
0.45752
0.469395
0.470668
0.456968
0.417354
0.41502
0.453768
0.468519
0.481378
0.474239
0.445482
0.442668
0.475126
0.483725
0.483254
0.472494
0.435357
0.429204
0.470638
0.483107
0.485357
0.472166
0.427904
0.429232
0.474947
0.488854
0.488768
0.472463
0.424948
0.412102
0.460106
0.479604
0.489535
0.477787
0.440284
0.441662
0.480011
0.491085
0.4919
0.479347
0.43874
0.427618
0.475508
0.490453
0.48869
0.47283
0.420503
0.413764
0.469694
0.486902
0.48252
0.462916
0.401049
0.387541
0.455388
0.476861
0.469247
0.445194
0.373391
0.356409
0.434226
0.461002
0.452786
0.423491
0.341799
0.329805
0.414919
0.446271
0.440259
0.406865
0.319821
0.310821
0.400117
0.435294
0.430101
0.393136
0.302854
0.295452
0.387294
0.425798
0.42105
0.381089
0.288901
0.282811
0.37599
0.417182
0.412824
0.370442
0.277408
0.272427
0.365984
0.409346
0.405258
0.361039
0.26798
0.26392
0.357158
0.402064
0.398274
0.352762
0.260279
0.256979
0.349428
0.395403
0.391833
0.345544
0.254025
0.251358
0.342692
0.389199
0.385897
0.339261
0.248973
0.246911
0.33686
0.383539
0.380427
0.333845
0.244999
0.243502
0.331782
0.378304
0.375414
0.329127
0.241958
0.240923
0.327432
0.37353
0.370814
0.325087
0.239689
0.239012
0.323632
0.369164
0.366667
0.321552
0.238016
0.237625
0.320395
0.365247
0.362919
0.318557
0.236831
0.236653
0.317576
0.361718
0.359588
0.315934
0.235999
0.235988
0.315189
0.358593
0.356628
0.313743
0.235471
0.235589
0.313131
0.355834
0.354039
0.311834
0.235154
0.235362
0.311411
0.353424
0.351765
0.310266
0.235015
0.235298
0.309939
0.351318
0.349804
0.308909
0.234999
0.235328
0.308736
0.349505
0.348101
0.307827
0.235086
0.235457
0.307723
0.347938
0.346652
0.306898
0.235239
0.235633
0.306921
0.346605
0.345408
0.306193
0.235458
0.235879
0.306262
0.345468
0.344365
0.305596
0.235714
0.236148
0.30577
0.344515
0.343479
0.305181
0.236013
0.236463
0.305382
0.343711
0.34275
0.304838
0.23633
0.236784
0.305123
0.343047
0.342135
0.304638
0.23667
0.237134
0.304936
0.342494
0.341651
0.304486
0.237022
0.237485
0.304855
0.342052
0.341242
0.304447
0.237385
0.237853
0.304815
0.341688
0.340934
0.304432
0.23775
0.238217
0.304866
0.341451
0.340722
0.304523
0.238129
0.238602
0.304949
0.341229
0.340548
0.304623
0.238512
0.238985
0.305102
0.341078
0.340417
0.304803
0.238906
0.239382
0.305265
0.340972
0.340352
0.304978
0.239297
0.239769
0.305485
0.340921
0.340311
0.305217
0.239691
0.240164
0.305704
0.340897
0.340322
0.305444
0.24008
0.24055
0.305971
0.340914
0.340345
0.305722
0.240472
0.240942
0.306225
0.340948
0.340408
0.305974
0.240857
0.241321
0.306513
0.341012
0.340472
0.306268
0.241238
0.241701
0.306779
0.341083
0.340568
0.30653
0.241611
0.242067
0.307075
0.341177
0.34066
0.306829
0.241978
0.242431
0.307345
0.341273
0.340778
0.307093
0.242332
0.242775
0.307638
0.341387
0.340886
0.307387
0.242675
0.243112
0.307897
0.341495
0.341014
0.307639
0.243002
0.243427
0.308173
0.341616
0.341127
0.307915
0.243315
0.243732
0.308413
0.341728
0.341257
0.308147
0.243609
0.244014
0.308668
0.34185
0.341369
0.308402
0.243888
0.244284
0.308887
0.341961
0.341496
0.308612
0.244147
0.244531
0.309121
0.342079
0.341604
0.308846
0.244391
0.244768
0.309318
0.342186
0.341726
0.309036
0.244616
0.244982
0.309532
0.342299
0.341828
0.309249
0.244829
0.245188
0.309709
0.3424
0.341944
0.309419
0.245025
0.245374
0.309905
0.342508
0.34204
0.309614
0.24521
0.245554
0.310065
0.342604
0.342151
0.309768
0.245381
0.245717
0.310243
0.342706
0.34224
0.309946
0.245542
0.245874
0.310387
0.342795
0.342345
0.310084
0.245692
0.246016
0.31055
0.342891
0.342427
0.310246
0.245833
0.246154
0.310679
0.342974
0.342524
0.310369
0.245963
0.246277
0.310827
0.343063
0.3426
0.310517
0.246087
0.246398
0.310942
0.343138
0.342689
0.310626
0.246201
0.246506
0.311076
0.343219
0.342757
0.31076
0.246309
0.246612
0.311177
0.343288
0.342839
0.310856
0.246409
0.246706
0.311298
0.343362
0.342899
0.310977
0.246504
0.2468
0.311388
0.343423
0.342974
0.311062
0.246592
0.246882
0.311498
0.34349
0.343027
0.311172
0.246675
0.246965
0.311576
0.343544
0.343095
0.311245
0.246752
0.247036
0.311675
0.343605
0.343141
0.311345
0.246825
0.247109
0.311743
0.343652
0.343202
0.311408
0.246891
0.24717
0.311832
0.343706
0.343241
0.311497
0.246954
0.247233
0.311889
0.343746
0.343296
0.31155
0.247012
0.247285
0.311968
0.343793
0.343328
0.311629
0.247065
0.247339
0.312016
0.343827
0.343375
0.311673
0.247115
0.247384
0.312086
0.343867
0.343401
0.311743
0.247161
0.247431
0.312127
0.343896
0.343444
0.31178
0.247203
0.247469
0.31219
0.343931
0.343465
0.311844
0.247243
0.247511
0.312224
0.343956
0.343503
0.311875
0.247281
0.247544
0.312281
0.343988
0.343521
0.311934
0.247317
0.247582
0.312311
0.344009
0.343557
0.31196
0.247351
0.247613
0.312365
0.344039
0.343573
0.312016
0.247385
0.247649
0.312391
0.344059
0.343607
0.31204
0.247417
0.247678
0.312443
0.344087
0.343623
0.312093
0.24745
0.247713
0.312468
0.344107
0.343657
0.312116
0.247482
0.247742
0.312518
0.344136
0.343672
0.312169
0.247514
0.247777
0.312543
0.344156
0.343707
0.312192
0.247546
0.247807
0.312594
0.344186
0.343724
0.312245
0.247579
0.247843
0.312619
0.344207
0.343761
0.312268
0.247612
0.247873
0.31267
0.344239
0.343779
0.312322
0.247645
0.247909
0.312696
0.344262
0.343817
0.312345
0.247679
0.247941
0.312748
0.344295
0.343838
0.312401
0.247714
0.247979
0.312776
0.344322
0.343879
0.312428
0.24775
0.248015
0.312832
0.34436
0.343906
0.312488
0.24779
0.24806
0.312867
0.344393
0.343956
0.312523
0.247835
0.248105
0.312933
0.344442
0.343995
0.312596
0.247887
0.248166
0.312983
0.344491
0.344063
0.312649
0.247949
0.248233
0.313071
0.34456
0.344127
0.312747
0.248027
0.248325
0.313151
0.34464
0.344231
0.312837
0.248125
0.248436
0.313283
0.344752
0.344345
0.312988
0.248254
0.24859
0.313426
0.344894
0.344538
0.313155
0.248419
0.248856
0.313656
0.345137
0.344813
0.313428
0.248712
0.249283
0.314091
0.345616
0.345489
0.314111
0.249184
0.250436
0.31537
0.347166
0.348635
0.316504
0.251427
0.254535
0.319628
0.352802
0.358046
0.324151
0.258957
0.264467
0.329583
0.363515
0.36841
0.335198
0.27055
0.396444
0.411926
0.418814
0.425766
0.431235
0.434244
0.438411
0.442127
0.445501
0.447899
0.449643
0.450976
0.452001
0.452792
0.453404
0.453879
0.454248
0.454538
0.454766
0.454947
0.455092
0.455208
0.455303
0.455378
0.455438
0.455484
0.455518
0.45554
0.455553
0.455559
0.455557
0.455557
0.455556
0.455556
0.455555
0.455554
0.455554
0.455552
0.45555
0.455545
0.455539
0.455528
0.455513
0.455492
0.455463
0.455425
0.455379
0.455323
0.455262
0.455199
0.455137
0.45506
0.454945
0.454792
0.45461
0.454407
0.454185
0.453943
0.453678
0.453385
0.453062
0.452704
0.452306
0.451863
0.451368
0.450814
0.450195
0.449501
0.448726
0.447861
0.446896
0.445822
0.444631
0.443311
0.441853
0.440249
0.438488
0.436564
0.43447
0.432201
0.429752
0.427123
0.424314
0.421328
0.418168
0.414843
0.41136
0.407729
0.403962
0.400072
0.39607
0.391972
0.387791
0.38354
0.379235
0.374887
0.37051
0.366115
0.361715
0.35732
0.35294
0.348583
0.344257
0.339971
0.33573
0.331539
0.327405
0.323332
0.319322
0.31538
0.311507
0.307707
0.30398
0.300327
0.296751
0.29325
0.289827
0.28648
0.28321
0.280016
0.276899
0.273856
0.270889
0.267995
0.265175
0.262426
0.259749
0.257141
0.254602
0.25213
0.249724
0.247383
0.245106
0.242891
0.240738
0.238644
0.236608
0.23463
0.232708
0.230842
0.229029
0.22727
0.225563
0.223907
0.222301
0.220744
0.219236
0.217775
0.216361
0.214993
0.213669
0.21239
0.211153
0.209959
0.208807
0.207695
0.206622
0.205589
0.204593
0.203635
0.202713
0.201827
0.200976
0.200158
0.199374
0.198623
0.197903
0.197215
0.196558
0.195931
0.195335
0.194767
0.194229
0.193719
0.193237
0.192783
0.192356
0.191955
0.191582
0.191234
0.190911
0.190614
0.190342
0.190095
0.189873
0.189677
0.189506
0.189363
0.189247
0.189158
0.189092
0.189044
0.189007
0.18898
0.188965
0.188961
0.188961
0.188961
0.188961
0.188962
0.188963
0.188964
0.188963
0.188941
0.188856
0.188684
0.188432
0.18813
0.187807
0.18748
0.187152
0.186822
0.186487
0.186143
0.185788
0.185421
0.185042
0.184652
0.184251
0.18384
0.183419
0.182988
0.182549
0.182103
0.181648
0.181187
0.18072
0.180247
0.17977
0.179289
0.178806
0.178321
0.177835
0.17735
0.176866
0.176385
0.175908
0.175435
0.174968
0.174509
0.174058
0.173617
0.173186
0.172766
0.172355
0.17195
0.171547
0.171141
0.170736
0.170355
0.170046
0.169864
0.169817
0.169853
0.169919
0.169985
0.170033
0.170021
0.169935
0.169832
0.169632
0.169742
0.169804
0.169823
0.169808
0.16976
0.169687
0.169588
0.169469
0.169328
0.169173
0.169
0.168816
0.16861
0.168395
0.168164
0.167926
0.167673
0.167413
0.167138
0.166857
0.166562
0.16626
0.165944
0.165623
0.165287
0.164947
0.164591
0.164231
0.163856
0.163476
0.16308
0.162679
0.162262
0.16184
0.1614
0.160954
0.16049
0.160019
0.159529
0.15903
0.158511
0.157983
0.157433
0.156872
0.156289
0.155694
0.155076
0.154445
0.153789
0.15312
0.152426
0.151716
0.15098
0.150227
0.149446
0.148646
0.147817
0.146967
0.146085
0.145181
0.144243
0.143281
0.142283
0.141258
0.140195
0.139103
0.137971
0.136808
0.135603
0.134363
0.133082
0.131764
0.130403
0.129005
0.127565
0.126086
0.124567
0.123011
0.121416
0.119786
0.118122
0.116432
0.114714
0.112975
0.111217
0.109448
0.107672
0.105898
0.104131
0.102384
0.10066
0.0989747
0.0973316
0.0957464
0.094222
0.0927754
0.0914065
0.0901359
0.0889555
0.0878876
0.0869142
0.0860608
0.0852995
0.0846582
0.0840999
0.0836559
0.0832825
0.0830152
0.0827894
0.0826725
0.0825712
0.0825775
0.0825782
0.0826773
0.0827566
0.0829207
0.0830562
0.0832653
0.0834391
0.0836754
0.0838702
0.0841192
0.0843262
0.0845858
0.0847979
0.0850556
0.0852652
0.0855161
0.0857189
0.0859606
0.0861555
0.0863866
0.0865711
0.0867898
0.0869626
0.0871678
0.0873282
0.0875189
0.0876667
0.0878446