/*--------------------------------*- C++ -*----------------------------------*\
| =========                 |                                                 |
| \\      /  F ield         | OpenFOAM: The Open Source CFD Toolbox           |
|  \\    /   O peration     | Version:  v2006                                 |
|   \\  /    A nd           | Website:  www.openfoam.com                      |
|    \\/     M anipulation  |                                                 |
\*---------------------------------------------------------------------------*/
FoamFile
{
    version     2.0;
    format      ascii;
    class       volScalarField;
    location    "0.05";
    object      omega;
}
// * * * * * * * * * * * * * * * * * * * * * * * * * * * * * * * * * * * * * //

dimensions      [0 0 -1 0 0 0 0];


internalField   nonuniform List<scalar> 
12716
(
0.010966
0.010966
0.0109659
0.010966
0.010966
0.010966
0.010966
0.0109661
0.0109661
0.0109655
0.0109624
0.0109552
0.0109441
0.0109303
0.0109148
0.0108984
0.0108815
0.0108641
0.0108463
0.0108278
0.0108086
0.0107886
0.010768
0.0107465
0.0107244
0.0107017
0.0106783
0.0106543
0.0106299
0.0106049
0.0105796
0.010554
0.0105282
0.0105025
0.0104773
0.0104533
0.0104317
0.0104147
0.0104063
0.0104139
0.0104511
0.0105433
0.0107375
0.0111207
0.0118538
0.0132323
0.0157931
0.0205011
0.0290654
0.0444708
0.0718775
0.120201
0.204964
0.353015
0.605324
0.980352
1.17573
1.65439
1.93968
1.94611
2.12115
4.52208
7.99796
12.8685
24.3331
57.903
151.58
561.7
5129.19
28844.9
401647
397590
62247.5
14172.4
22647
81300.7
393737
386159
89259.3
28627.6
32002.1
91115.8
374065
363826
91892.1
34558.5
35962.2
91286.4
354678
346022
90475
37224.8
37667.9
89423.3
339730
333486
89057.1
38548.5
38605.1
88133.6
329247
324567
87891.9
39163.1
39144.4
87151.5
321482
317794
87037
39545.9
39499.3
86448.3
315394
312377
86411.3
39823.6
39762.2
85959.5
310404
307840
85972.3
40041.9
39972.1
85618
306151
303902
85658.1
40223
40147.1
85364.9
302411
300388
85422.7
40376.9
40296.2
85170.2
299038
297182
85239.7
40509.7
40425.1
85014.3
295935
294206
85091
40625.4
40537.7
84882.9
293034
291403
84963.9
40726.8
40636.2
84766.1
290290
288735
84849.5
40815.8
40722.7
84657.4
287666
286172
84741.6
40893.9
40798.8
84551.8
285138
283691
84635.9
40963.3
40865.9
84446
282682
281272
84529.3
41026.1
40925.2
84337.6
280280
278897
84419.4
41080.9
40976.6
84224.1
277918
276555
84303.9
41128.2
41021
84104.1
275582
274232
84181.4
41169
41059.4
83976.7
273261
271918
84051.7
41204.5
41093.2
83841.9
270944
269601
83914.3
41235.9
41123.5
83699.3
268620
267270
83768.8
41264.1
41151
83547.8
266275
264912
83614.1
41289.9
41176.3
83386
263899
262516
83448.4
41313.6
41199.5
83212.1
261479
260071
83270.1
41335.2
41220.7
83024.5
259006
257565
83077.6
41354.8
41240
82821.7
256467
254987
82869.5
41372.5
41257.5
82602.4
253852
252326
82644.4
41388.5
41273.5
82364.9
251148
249570
82400.5
41402.9
41287.9
82107.5
248343
246706
82136
41415.7
41300.7
81827.6
245427
243723
81848
41426.7
41311.6
81522.1
242386
240610
81533.4
41435.4
41320.1
81187.9
239210
237355
81189.5
41441.5
41325.9
80827.1
235887
233945
80814.4
41444.7
41328.7
80431.5
232405
230371
80403
41444.4
41327.5
79997.4
228753
226620
79951.2
41439.3
41321
79520
224919
222681
79453.6
41427.9
41307.2
78993.2
220894
218547
78903
41407.4
41282.1
78407.1
216673
214216
78288.7
41373
41240.3
77750.3
212257
209691
77598.7
41318.2
41168.4
77011.3
207651
204987
76815.4
41232.4
41055
76171.3
202879
200138
75911.4
41103.7
40891.3
75213.5
197988
195197
74879.5
40919.7
40659.5
74116.3
193033
190229
73700
40662
40354.1
72865.7
188092
185330
72360.5
40313.8
39938
71443.6
183274
180615
70845.1
39847.9
39391.7
69839.4
178701
176215
69151.9
39249.1
38706.2
68062
174509
172270
67296
38509.2
37877.3
66132.9
170829
168892
65309.8
37629.3
36917
64093.9
167755
166164
63244.6
36620.1
35853.2
62013.2
165355
164123
61177.4
35518.1
34726.1
59966.6
163624
162737
59187.2
34372.1
33584.3
58018.1
162486
161969
57361.2
33223.5
32487.3
56345.2
161910
161683
55856.5
32152.1
31464.4
54946.9
161711
161626
54568.8
31155.5
30520.6
53765.4
161733
161735
53485.5
30255.4
29680.8
52785.1
161891
161948
52581.6
29462
28948.9
51990.4
162178
162265
51847.6
28776.1
28321.5
51359.3
162532
162635
51267.7
28190.9
27789.9
50865.8
162915
163023
50816.9
27696.7
27344.3
50486.7
163300
163407
50472.6
27279.8
26972.7
50205.5
163674
163780
50215.8
26930.2
26662.8
50001
164037
164139
50029.5
26639.4
26406.4
49856.8
164381
164477
49900.7
26399.7
26198
49762.8
164702
164793
49818.8
26203
26027.3
49708.5
165004
165092
49773.9
26040.8
25885.9
49684
165291
165375
49757
25905.3
25770.3
49678.2
165565
165646
49763.8
25794.6
25676.3
49695.9
165831
165909
49793.1
25704.6
25600.1
49730.2
166083
166156
49835.4
25631.7
25538.4
49774.3
166319
166386
49884.4
25574.5
25486.5
49825.4
166538
166594
49940.8
25530.6
25445.7
49883.4
166731
166780
50002.9
25497.1
25414.2
49946.2
166902
166941
50067
25469.2
25389.1
50010.1
167043
167073
50130.7
25447.3
25368.9
50073.5
167157
167178
50193
25429.1
25351.8
50134.9
167243
167252
50252
25414.5
25333.1
50188.1
167296
167329
50310.3
25401.4
25325.5
50270.2
167286
167462
50371
25400.3
25234.9
50136.1
166802
166164
50152.2
25150.5
24780.4
49343.7
163594
162585
48867.6
24466.3
24581.5
49060
160733
159453
47605
23768.7
23503
47013.2
156559
11030.8
7019.9
5315.47
4387.61
3909.99
3538.43
3305.51
3147.55
3056.18
3012.4
3013.18
3057.93
3146.9
3291.41
3491.46
3778.67
4149.47
4689.89
5254.83
6190.39
7981.48
10592.2
12921.5
22545.6
58056.1
108432
330660
526886
121323
68428.9
156212
341501
887882
680007
180400
82149.5
88671.7
195811
605840
602797
183383
83539
88670.5
195791
607480
615437
191322
86990.3
90678.4
200254
620742
628917
193911
88704.2
91282.1
201201
633741
635164
196555
88852.8
91482.4
202636
634713
636009
196337
89069.1
91299.8
201527
635929
636748
196303
88936.6
91187.2
201631
636187
637160
196236
88883.1
91114.6
201699
636774
637853
196403
88789.4
91047.5
201728
637583
638679
195985
88793.8
91039.1
201249
638326
639238
196132
88681.4
90933.5
201563
638552
640063
195901
88681.7
90921.6
201259
639877
641009
195785
88611.5
90842.5
201076
640693
641890
195556
88530.4
90758.9
200884
641639
642921
195436
88462.1
90710.7
200856
642647
643846
195418
88427
90661.2
200769
643563
644861
195140
88353.7
90570.2
200257
644626
645970
194411
88272.4
90471.7
199623
645709
647005
194269
88148
90343.5
199935
646647
647942
194502
88081.1
90331.7
199874
647766
649274
193961
88116.3
90327.6
199290
649273
650341
193894
88022.6
90238.6
199296
650006
651357
193648
87988.7
90212.9
199102
651098
652546
193484
87979.8
90203.6
198961
652339
653822
193331
87974.4
90202.6
198817
653642
655187
193186
87986.9
90218.3
198698
655005
656557
193061
88011.5
90245.7
198591
656415
658010
192939
88042.2
90268.6
198474
657860
659557
192806
88069.8
90303.7
198365
659446
661113
192696
88118.3
90355.1
198284
660946
662687
192619
88182.3
90430.8
198251
662606
664458
192600
88267.2
90507.8
198254
664400
666290
192580
88339.7
90581.5
198257
666238
668166
192569
88420.7
90661
198277
668128
670067
192567
88500.7
90741.7
198297
669983
672020
192560
88586.6
90832.1
198345
672060
674236
192621
88689
90935.3
198491
674379
676767
192763
88754.2
90917
198700
677069
679899
192790
88620.3
90669.7
198470
680719
684132
191886
88268
90130.8
197088
685472
688623
189309
86967.8
89029.9
196236
682511
685919
184862
85912.2
87951.9
192412
685703
681554
181104
84366.4
86528.6
188140
674594
663913
177209
83413.2
84972.7
180926
657854
653313
173269
81797.1
83365.1
177256
647577
637377
170360
80365.3
81299.2
170469
620694
611135
160626
78226.3
79411.5
164670
601062
591268
156394
77138.9
78106.7
159401
581484
567797
152441
76257.6
77217
154225
553689
537628
148236
76484.4
78095.3
149108
525813
517584
149041
78238.3
80478.6
149625
505388
500691
150111
80997
83837.5
152949
484911
453055
146740
84413.7
89742.2
145490
634431
941643
375601
170143
96927.4
182050
701303
623690
191111
100851
99745.5
181322
600420
599182
187160
101451
95461.2
189110
617522
389046
184598
65178
50110.5
92741.3
289022
257312
96247.9
48263.6
42203.7
77101.9
240258
234280
73556.2
40953.8
43122.6
78145.6
248458
261787
95863.7
54251.8
46621.6
90467
257955
249889
85135.3
45756.4
44482.9
83775.1
243597
244107
83616.9
43969.2
44922.9
84680
241947
241492
77714.7
40122.6
40009.3
75636.5
240239
256872
76525.5
39898.4
49450.7
90316.8
274743
291639
91596.3
49341.2
53589.5
97307.8
301192
322865
98055.9
53579.3
66541.5
114580
345477
359012
114261
63830
59367.5
108989
360391
361394
105930
56574.2
58052.4
106211
376982
381467
111333
63372.7
55056
105962
384182
374307
96765.5
46494.2
42037.3
85468.3
384620
375359
76061.5
39706.3
34524.3
66994.9
371933
354153
61580.6
34668.6
33946.9
58311.1
357788
335627
59761.2
34622.1
39458.3
64591.9
368253
406695
98434
50365.9
42901.6
118479
445302
546497
296097
113147
130491
341177
556900
595434
377782
145473
235271
420983
589022
578757
403430
208603
206392
398697
542045
530006
406062
264092
216223
377918
490443
460030
358670
217586
224119
359829
449915
442714
363088
261875
211138
332736
406764
379925
312931
206734
206953
308989
375689
364550
310305
232905
185537
279873
340108
310980
268255
191171
134686
223883
284543
263241
201580
119237
113395
188483
260879
256662
189386
127553
98926.1
165703
252733
246254
154713
96343.8
97663
156814
256609
267225
164053
113517
92858
146190
268869
259714
137078
88493.5
89732.7
137832
268658
290630
145980
91640.4
108234
160210
313734
314694
140717
87648.4
89026.6
145114
313310
367812
156514
99220.5
146254
315659
579965
760709
248586
117302
125497
244348
567625
625564
260131
145030
144098
256290
722320
953191
440763
232263
133941
195439
717601
534782
191467
128679
135320
233504
606223
735232
240064
137553
233757
449635
1.01896e+06
751447
190099
130678
129732
207542
562350
678645
221079
132116
224316
431587
950463
707727
180540
124297
124820
201602
542984
669731
222376
129328
223961
447072
948327
694421
187216
122905
121456
190056
531396
617869
230672
129472
128758
234080
742462
1.03747e+06
475728
230772
123800
191802
727646
553758
201423
123761
128848
226150
692432
1.02121e+06
464107
232260
126207
192539
732727
561528
206653
127646
129495
221685
699296
1.00714e+06
461583
229963
123141
188361
704080
541289
199397
123570
128527
221706
686622
1.01357e+06
475516
234640
126090
195183
716942
550143
206695
127221
129550
222134
696061
1.02181e+06
475439
233714
124253
192222
708492
542969
200235
123990
130167
228900
692932
1.04913e+06
487172
241050
129248
198377
737011
592852
201503
127046
220121
420020
882112
641630
180588
120368
121068
191980
505969
654607
218131
128246
233463
467552
981621
685725
191680
125125
124401
199493
531624
681341
223045
130209
241534
482191
1.01867e+06
722870
197829
130806
130616
205517
597473
907396
434183
229181
127053
189000
664216
527947
202440
128730
134555
226986
687723
1.03856e+06
486967
245978
133744
201471
725395
595749
206785
132963
230234
432786
901637
647317
188351
127329
126538
196029
510702
663552
225249
134164
247381
489898
1.0098e+06
717780
203305
134450
134338
211334
597912
914672
442823
235824
131006
194184
666476
534977
207304
132600
138968
233200
703268
1.06823e+06
504275
255702
139491
209542
743825
614115
215368
138719
241947
453177
938299
672174
197952
134393
134189
206710
534341
705519
238319
142303
266930
529688
1.09364e+06
766562
219508
144798
143928
226182
637423
991170
479055
255906
141630
207076
717985
606989
216517
142251
249300
462625
945712
694693
202597
140618
142424
216334
590996
913035
447847
244262
138383
201477
669485
544640
215361
140015
147359
242377
726155
1.11107e+06
528400
270076
149286
221739
777538
652234
229258
149261
263456
489937
1.00921e+06
736686
215650
148830
149414
225371
629083
977344
476341
259420
146521
210828
711744
610220
221551
147656
252668
461980
942379
673533
207269
143183
142269
216750
545553
725769
249230
152074
279721
541590
1.11791e+06
795049
229438
155098
155136
237042
672233
1.04581e+06
509780
275037
153978
222876
758815
647793
232929
155028
271028
496892
1.0066e+06
738989
220628
154124
155911
233664
638055
996910
493797
270528
153335
219909
732523
632205
230620
154623
267928
489289
984432
723845
218493
153299
155388
231376
627410
973697
484604
266611
152639
220717
709921
583734
233936
154056
163033
267383
782892
1.20918e+06
586663
301627
167689
247924
847944
718163
255583
167763
296886
548385
1.11902e+06
815404
242469
168391
169195
253382
702039
1.10009e+06
540957
294945
167555
240110
797926
689327
252980
169513
295239
538232
1.08345e+06
795755
240894
168841
169875
252009
688434
1.07633e+06
533935
293362
167724
238861
783907
682076
252436
169683
293666
532378
1.07062e+06
782189
240125
168630
169938
252111
679819
1.05967e+06
529347
292243
167709
238158
775620
677498
251481
169766
293015
530569
1.05725e+06
778712
240726
168966
170276
251575
677974
1.04908e+06
525093
291856
167555
237698
763407
666630
250501
169268
285764
513542
1.0225e+06
734203
235457
164744
163231
244626
608733
814307
285955
175330
323832
623729
1.25783e+06
887962
268055
181265
181746
277967
762869
1.18179e+06
587901
321647
181424
260919
856413
747410
274105
182897
319923
581494
1.1666e+06
850884
260891
183172
185258
275272
744429
1.15858e+06
579180
320941
182936
260433
843537
738898
273319
184581
319486
579371
1.15365e+06
841902
261110
183825
186107
276208
738850
1.15562e+06
580488
321477
183781
262079
840816
735590
275005
185519
319611
576204
1.14134e+06
836365
261370
184525
186857
275730
736657
1.14398e+06
576943
321668
184463
261404
832113
730505
274455
186240
319822
574185
1.13237e+06
829071
261497
185088
187489
275735
730772
1.13314e+06
574943
320998
184295
261968
823297
720591
273725
185798
312581
558571
1.09922e+06
788289
257840
180808
180731
270446
662700
893680
318939
196139
363085
691917
1.37955e+06
981480
300444
203237
202647
309283
848179
1.30241e+06
650597
355839
203110
291954
941216
827397
308313
205269
357622
649528
1.28725e+06
935198
294444
206095
207327
308182
821028
1.27349e+06
640483
357051
205275
291321
922214
813174
306729
207511
355726
635552
1.2599e+06
917398
291853
205294
206408
303652
809543
1.24922e+06
630481
352699
202938
287897
899178
795029
303837
205216
349881
623062
1.22744e+06
890796
287189
202427
203565
298875
784529
1.18727e+06
600706
339490
195357
278321
840337
706787
289524
194513
209013
338579
944307
1.44708e+06
726621
383323
214478
316079
1.00668e+06
870414
325768
213994
375033
676167
1.32895e+06
960608
305881
213613
216103
321885
847377
1.30052e+06
665049
373307
212121
302725
943052
833796
317170
213995
365852
650554
1.27502e+06
921888
298404
210493
213165
313420
819750
1.25133e+06
640999
361065
207791
298094
901641
762669
312776
209463
221319
359813
1.00859e+06
1.52e+06
765626
402138
225344
332917
1.05492e+06
920614
346218
225631
394965
710730
1.40404e+06
1.0046e+06
323452
224533
225089
333827
882577
1.33434e+06
679545
381959
216173
311131
938504
787407
323610
216098
231096
374920
1.03993e+06
1.56686e+06
795067
421434
234379
346544
1.08708e+06
946044
356444
233560
407068
729427
1.43363e+06
1.0256e+06
330367
230397
233248
349200
911661
1.39524e+06
710506
399662
226940
328130
996182
838230
344591
229236
240898
393088
1.09989e+06
1.64209e+06
831789
438728
243605
360705
1.13392e+06
988671
373524
243460
425188
761082
1.49662e+06
1.06801e+06
346020
239882
240256
357110
937756
1.40114e+06
713637
404275
227045
326939
977590
821084
338661
226642
241558
392376
1.07455e+06
1.60573e+06
816064
437076
242212
357900
1.10186e+06
961115
367245
241283
411621
729561
1.42645e+06
993695
333853
230928
231748
349603
841618
1.1163e+06
402325
248459
455826
853801
1.68005e+06
1.16336e+06
373733
250276
247988
379541
1.00328e+06
1.47401e+06
755228
423462
236257
342582
1.01634e+06
854129
354414
236258
251387
407941
1.11339e+06
1.64765e+06
840065
449724
250494
371243
1.13612e+06
953892
388301
253048
261784
429186
1.23019e+06
1.79087e+06
907108
478210
261139
394042
1.21023e+06
1.05118e+06
402803
259832
445032
787882
1.5418e+06
1.05968e+06
358311
246380
244671
367072
884745
1.13359e+06
413870
257372
454456
843143
1.65602e+06
1.11117e+06
366355
246790
247008
379293
926873
1.18497e+06
432162
260948
468479
872346
1.71615e+06
1.14668e+06
378675
252429
251159
386948
950072
1.19893e+06
432608
261910
468395
878276
1.72351e+06
1.15414e+06
379018
253300
254269
392399
967616
1.23151e+06
446249
267749
482843
902089
1.7664e+06
1.18116e+06
390438
258202
257455
394670
981700
1.17684e+06
466542
276558
275937
494244
1.44308e+06
2.00778e+06
1.00253e+06
510703
269746
415468
1.29922e+06
1.07031e+06
430150
270996
281364
481289
1.33558e+06
1.89457e+06
961953
510466
269717
412917
1.24342e+06
1.00948e+06
407081
263362
279597
480694
1.19546e+06
1.458e+06
481239
278472
522772
1.02032e+06
2.0165e+06
1.27508e+06
420732
266858
260226
413579
1.03256e+06
1.21296e+06
488981
282748
286720
526394
1.49481e+06
2.07005e+06
1.04071e+06
537027
273693
428615
1.33658e+06
1.10072e+06
443563
273926
280121
480184
1.26355e+06
1.43758e+06
550656
293499
283181
555086
1.64759e+06
2.18424e+06
1.07354e+06
537325
265262
423621
1.32903e+06
1.06202e+06
431692
260586
260436
445454
1.17506e+06
1.30436e+06
501970
267902
262527
509212
1.4365e+06
1.59706e+06
612319
293778
284788
629082
1.80827e+06
2.34787e+06
1.18936e+06
583524
277894
460485
1.43268e+06
1.14678e+06
455108
272462
282067
515399
1.28968e+06
1.37823e+06
522913
278358
276710
540592
1.45684e+06
1.5134e+06
563794
273175
276899
600791
1.53643e+06
1.54457e+06
594714
268806
279059
627803
1.54312e+06
1.51718e+06
623538
276262
282847
628641
1.48453e+06
1.44865e+06
616574
280110
286066
619545
1.41436e+06
1.38019e+06
606319
283343
289513
610908
1.34917e+06
1.31943e+06
602869
286971
294032
608264
1.29312e+06
1.26832e+06
602322
291898
299123
608361
1.24637e+06
1.22645e+06
602867
296991
304296
608592
1.2084e+06
1.19266e+06
603094
302210
308555
607890
1.17804e+06
1.16569e+06
601399
305986
311195
605069
1.15393e+06
1.14451e+06
597354
308249
312324
600528
1.13494e+06
1.12824e+06
591674
308431
311816
594374
1.12033e+06
1.11615e+06
584962
307415
310263
587162
1.10962e+06
1.10735e+06
576640
305500
308412
578436
1.10212e+06
1.101e+06
567536
304027
306861
569127
1.09706e+06
1.09669e+06
557725
302543
305455
559210
1.0939e+06
1.09402e+06
548156
301419
304136
549682
1.09206e+06
1.09247e+06
538645
300030
302694
540208
1.0911e+06
1.09173e+06
529853
298722
301153
531576
1.09076e+06
1.09156e+06
521451
297045
299426
523269
1.09075e+06
1.09185e+06
513924
295376
297601
515949
1.09114e+06
1.09241e+06
506868
293476
295674
508998
1.09173e+06
1.09311e+06
500678
291620
293696
503026
1.09246e+06
1.09388e+06
494914
289594
291669
497352
1.09325e+06
1.09472e+06
489925
287657
289638
492573
1.0941e+06
1.09558e+06
485264
285591
287590
487975
1.09498e+06
1.09646e+06
481268
283638
285561
484172
1.09586e+06
1.09733e+06
477503
281580
283534
480444
1.09673e+06
1.09819e+06
474299
279644
281533
477411
1.0976e+06
1.09904e+06
471233
277620
279550
474367
1.09845e+06
1.09987e+06
468650
275723
277619
471939
1.09929e+06
1.10069e+06
466145
273698
275635
469448
1.10011e+06
1.10151e+06
463954
271887
273761
467473
1.10094e+06
1.10233e+06
461856
269979
271908
465379
1.10177e+06
1.10316e+06
460041
268214
270099
463760
1.10261e+06
1.10398e+06
458279
266393
268342
461984
1.10344e+06
1.1048e+06
456762
264730
266640
460647
1.10427e+06
1.10562e+06
455262
263023
264999
459122
1.10509e+06
1.10643e+06
453985
261482
263420
458019
1.10592e+06
1.10724e+06
452705
259901
261909
456704
1.10673e+06
1.10803e+06
451628
258492
260464
455790
1.10753e+06
1.1088e+06
450526
257047
259089
454639
1.1083e+06
1.10955e+06
449606
255771
257777
453875
1.10905e+06
1.11026e+06
448650
254450
256533
452866
1.10975e+06
1.11093e+06
447877
253315
255355
452247
1.11042e+06
1.11156e+06
447064
252080
254227
451373
1.11105e+06
1.11214e+06
446425
251087
253187
450882
1.11163e+06
1.11267e+06
445734
249970
252184
450124
1.11215e+06
1.11316e+06
445208
249104
251268
449740
1.11264e+06
1.1136e+06
444620
248108
250383
449081
1.11307e+06
1.11399e+06
444191
247355
249577
448789
1.11346e+06
1.11435e+06
443693
246465
248795
448214
1.11381e+06
1.11467e+06
443347
245812
248085
448001
1.11413e+06
1.11495e+06
442923
245013
247392
447496
1.11441e+06
1.11521e+06
442646
244446
246765
447347
1.11467e+06
1.11544e+06
442285
243727
246150
446901
1.1149e+06
1.11566e+06
442065
243236
245596
446807
1.11512e+06
1.11585e+06
441756
242588
245050
446409
1.11531e+06
1.11603e+06
441584
242163
244560
446359
1.11549e+06
1.11619e+06
441317
241577
244074
446001
1.11565e+06
1.11633e+06
441183
241211
243640
445986
1.11579e+06
1.11646e+06
440950
240678
243207
445659
1.11592e+06
1.11659e+06
440847
240363
242822
445672
1.11605e+06
1.1167e+06
440640
239878
242435
445370
1.11616e+06
1.1168e+06
440560
239607
242092
445405
1.11626e+06
1.11689e+06
440374
239163
241744
445122
1.11635e+06
1.11697e+06
440314
238931
241439
445175
1.11643e+06
1.11705e+06
440146
238523
241126
444909
1.11651e+06
1.11712e+06
440102
238326
240854
444977
1.11657e+06
1.11717e+06
439948
237949
240572
444723
1.11663e+06
1.11723e+06
439917
237782
240329
444803
1.11668e+06
1.11727e+06
439774
237434
240075
444561
1.11672e+06
1.11731e+06
439754
237293
239856
444650
1.11676e+06
1.11733e+06
439620
236970
239626
444415
1.11678e+06
1.11736e+06
439607
236852
239429
444510
1.11681e+06
1.11738e+06
439479
236550
239219
444280
1.11682e+06
1.11739e+06
439471
236452
239041
444381
1.11684e+06
1.1174e+06
439347
236167
238848
444154
1.11685e+06
1.11741e+06
439344
236086
238686
444258
1.11686e+06
1.11742e+06
439223
235816
238508
444035
1.11687e+06
1.11743e+06
439223
235750
238360
444142
1.11688e+06
1.11743e+06
439106
235494
238195
443922
1.11689e+06
1.11744e+06
439109
235440
238058
444032
1.1169e+06
1.11745e+06
438994
235196
237905
443814
1.11691e+06
1.11747e+06
439000
235153
237779
443928
1.11693e+06
1.11749e+06
438889
234920
237636
443714
1.11695e+06
1.11751e+06
438899
234887
237520
443831
1.11697e+06
1.11753e+06
438793
234663
237387
443622
1.117e+06
1.11756e+06
438807
234641
237280
443744
1.11703e+06
1.11759e+06
438705
234426
237155
443538
1.11706e+06
1.11762e+06
438723
234411
237056
443663
1.1171e+06
1.11766e+06
438623
234203
236936
443458
1.11714e+06
1.11771e+06
438641
234193
236841
443581
1.1172e+06
1.11778e+06
438538
233986
236722
443373
1.11727e+06
1.11786e+06
438552
233976
236623
443490
1.11737e+06
1.11798e+06
438441
233764
236497
443270
1.1175e+06
1.11814e+06
438442
233743
236385
443371
1.11767e+06
1.11835e+06
438312
233515
236237
443126
1.1179e+06
1.11863e+06
438369
233516
236039
443250
1.1182e+06
1.11849e+06
437934
233218
235821
443017
1.11743e+06
1.11771e+06
437344
232542
235005
440229
1.11263e+06
1.10613e+06
433356
230057
224356
426057
1.08495e+06
1.05024e+06
418059
219458
193709
381067
979983
907274
357489
179512
156136
318373
846637
68411.6
33801.9
22902.5
15109.8
9899.42
8553.35
6652.61
4256.58
3361.71
2564.4
1964.06
1507.57
1161.84
902.624
708.971
564.518
456.353
374.867
312.982
265.606
228.986
200.534
178.212
160.886
147.389
137.392
130.163
125.438
122.671
121.412
120.66
119.293
117.376
115.005
112.321
109.415
106.391
103.279
100.105
96.8725
93.5816
90.2287
86.8091
83.3165
79.7425
76.0765
72.3046
68.4081
64.3613
60.1266
55.2608
48.5286
39.2518
29.0557
20.0187
13.0692
8.15386
4.86495
2.77573
1.52626
0.830044
0.477159
0.308097
0.229862
0.194035
0.177188
0.168816
0.163632
0.160003
0.157182
0.15482
0.152722
0.150768
0.148882
0.147009
0.145111
0.143159
0.141132
0.139015
0.136798
0.134474
0.132041
0.129498
0.126849
0.124099
0.121258
0.118334
0.11534
0.112288
0.109192
0.106064
0.102919
0.0997702
0.0966301
0.0935106
0.0904229
0.087377
0.0843818
0.0814451
0.0785735
0.0757727
0.0730472
0.0704006
0.0678357
0.0653542
0.0629574
0.0606458
0.0584192
0.0562772
0.0542187
0.0522425
0.0503467
0.0485296
0.0467891
0.0451228
0.0435285
0.0420038
0.040546
0.0391527
0.0378215
0.0365497
0.0353351
0.0341751
0.0330675
0.0320098
0.0310001
0.030036
0.0291155
0.0282368
0.0273978
0.0265967
0.0258318
0.0251014
0.024404
0.0237379
0.0231018
0.0224942
0.0219138
0.0213593
0.0208296
0.0203235
0.0198399
0.0193777
0.0189361
0.018514
0.0181106
0.017725
0.0173565
0.0170044
0.0166678
0.0163462
0.016039
0.0157455
0.0154652
0.0151976
0.0149421
0.0146983
0.0144658
0.014244
0.0140326
0.0138311
0.0136392
0.0134565
0.0132826
0.0131173
0.01296
0.0128107
0.0126688
0.0125342
0.0124065
0.0122855
0.012171
0.0120627
0.0119605
0.011864
0.0117731
0.0116877
0.0116076
0.0115325
0.0114625
0.0113973
0.0113368
0.011281
0.0112298
0.0111831
0.0111409
0.0111033
0.0110705
0.0110427
0.0110199
0.0110021
0.0109884
0.0109781
0.010971
0.0109674
0.0109663
0.0109661
0.0109661
0.0109661
0.0109661
0.0109662
0.0109666
0.0109678
0.0109707
0.0109747
0.0109784
0.0109798
0.0109777
0.0109722
0.0109642
0.0109544
0.0109433
0.0109312
0.0109182
0.0109041
0.0108891
0.0108731
0.0108561
0.0108382
0.0108194
0.0107998
0.0107795
0.0107588
0.0107379
0.0107174
0.010698
0.0106813
0.0106696
0.0106676
0.0106832
0.010731
0.0108373
0.0110502
0.011457
0.0122165
0.0136171
0.0161799
0.0208409
0.0292659
0.044389
0.0713039
0.118724
0.201318
0.343511
0.585824
0.996237
1.69048
2.86536
4.83001
7.94647
12.2804
17.0792
20.9175
23.5657
26.9971
38.0007
73.0364
199.386
924.832
2252.76
7040.02
8383.99
9265.93
10283.8
10824.2
11648.5
12010.7
12680.1
12933.2
13483
13673.1
14124.7
14272.1
14648.8
14764.7
15084.6
15176.6
15453.2
15526.7
15769.3
15828.1
16043.3
16090.3
16283.2
16320.5
16495
16524.4
16683.7
16706.5
16853.1
16870.5
17006.3
17019.2
17146
17155
17274
17279.8
17392.4
17395.6
17502.9
17504.1
17607.2
17607
17706.6
17705.6
17802.8
17801.3
17896.8
17895
17989.5
17987.6
18081.6
18079.8
18174.2
18172.8
18268.2
18267.4
18364.4
18364.6
18463.5
18465.1
18566.6
18570.1
18674.7
18680.1
18788.5
18796.2
18908.7
18919
19036.3
19049.4
19171.8
19187.7
19315.4
19334.1
19466.8
19487.9
19624.7
19647.3
19786.8
19809.6
19948.4
19968.7
20102.4
20117.6
20240.8
20246.8
20348.8
20343.2
20412
20392
20418.8
20371.1
20371.1
20271.4
20238.3
20077.7
20009.4
19784.9
19682.7
19396.3
19264.8
18927.6
18774.5
18401.9
18235.7
17844.4
17675
17284
17119.9
16741.8
16585.9
16226.2
16081.1
15744.4
15611.8
15300.8
15181.5
14897.6
14791.9
14534.8
14441.8
14209.9
14128.8
13920
13850
13662.9
13603.2
13435.6
13385
13234.8
13192.3
13057.5
13022.1
12901.2
12872.2
12763.2
12739.7
12641.3
12622.6
12533.3
12518.8
12437.4
12426.8
12352.7
12345.5
12277.6
12273.2
12210.6
12208.5
12150.1
12149.7
12095.2
12095.3
12044.7
12045.7
11998.2
12029.9
11911.3
11918.5
11746.5
11608.8
11501.6
11427.3
7165.19
5368.51
5420.53
7249.45
7304.97
5485.26
5645.88
7435.18
7628.28
5898.81
4271.23
4398.24
4399.48
4395.33
3938.08
3972.79
4022.62
3546.53
3546.93
3544.87
3316.9
3328.42
3344.8
3444.94
3506.08
4342.77
5666.52
7552.98
7680.08
5955.73
5720.59
7623.1
7725.75
5998.13
4382.45
4421.13
5765.38
7673.33
7777.25
6043.29
5811.53
7726.17
7829.93
6091.47
4456.45
4496.36
5859.88
7780.92
7888.12
6142.98
5911.53
7840.17
7951.4
6198.63
4536.78
4580.96
5967.28
7904.69
8020.67
6258.7
6027.52
7975.43
8096.9
6324.06
4627.39
4677.53
6092.91
8053.31
8181.01
6395.09
6163.88
8139.25
8273.8
6472.47
4730.97
4788.49
6241.01
8233.97
8376.24
6556.73
6324.87
8338.58
8489.41
6648.59
4849.99
4915.91
6416.08
8454.07
8614.43
6748.73
6515.28
8581.63
8752.53
6857.76
4986.47
5061.99
6622.87
8722.4
8904.76
6976.1
6739.31
8877.41
9072.22
7104.37
5142.45
5228.04
6865.13
9047.77
9256.14
7243.09
7000.7
9234.75
9457.54
7392.55
5318.86
5414.67
7146.1
9439.1
9676.91
7552.72
7301.14
9661.34
9914.67
7723.4
5515.36
5620.07
7465.64
9901.78
10170.9
7904.39
7638.88
10160.4
10444.7
8094.27
5727.72
5836.59
7818.78
10435.8
10733.6
8290.41
8002.44
10725.3
11034
8489.31
5943.98
6046.53
8185.8
11024.8
11340.2
8685.99
8363.29
11328
11644.3
8873.78
6139.84
6218.72
8527.82
11626.4
11935.1
9044.45
8671
11908.2
12199.2
9188.72
6277.23
6310.24
8784.04
12160
12423.9
9297.47
8859.23
12369.2
12597.9
9364.18
6311.58
6294.12
8892.05
12525.6
12700.6
9382.99
8882.25
12595.9
12737.2
9360.27
6247.72
6166.78
8839.46
12602.3
12722.6
9298.34
8760.26
12559.1
12667.2
9204.04
6053.26
5923.77
8651.59
12473.1
12571.6
9085.19
8521.68
12354
12445.8
8952.23
5784.48
5639.8
8378.63
12212.3
12300
8808.5
8230.92
12057.6
12143
8660.13
5493.6
5348.97
8083.17
11896.9
11981.5
8511.77
7938.83
11735.5
11820.1
8366.67
5208.08
5072.25
7799.77
11577.3
11663.7
8226.24
7666.15
11425.6
11513.9
8093.38
4942.37
4818.51
7537.84
11281.2
11371.8
7967.34
7415.83
11144.6
11237.6
7847.61
4700.27
4587.29
7299.93
11015.7
11110.8
7733.67
7189.51
10893.9
10991.1
7624.81
4478.89
4374.07
7083.84
10778.5
10877.5
7520.37
6982.23
10668.7
10769.3
7419.9
4271.69
4172.62
6884.26
10563.6
10665.5
7322.62
6789.25
10462.3
10565.3
7227.77
4076.4
3982.49
6696.48
10364
10467.8
7134.63
6605.24
10267.8
10372.1
7042.49
3890.18
3799.08
6514.91
10172.7
10277.4
6950.64
6424.76
10077.9
10182.6
6858.27
3708.85
3619.14
6334.06
9982.11
10086.6
6764.48
6241.96
9884.54
9988.38
6668.14
3529.74
3440.49
6147.31
9783.92
9886.75
6567.59
6048.46
9679.29
9780.89
6460.98
3351.43
3262.61
5943.54
9570.15
9670.51
6349.7
5834.33
9455.78
9554.55
6232.93
3170.86
3075.21
5719.64
9335.12
9431.96
6110.27
5599.18
9207.1
9301.47
5980.85
2976.13
2873.26
5472.15
9070.03
9161.62
5843.62
5337.55
8922.73
9010.9
5697.55
2765.9
2653.58
5194.41
8763.53
8847.65
5541.49
5041.63
8590.82
8670.17
5374.24
2535.57
2411.31
4878.08
8402.45
8476.41
5194.64
4702.78
8196.53
8264.07
5001.73
2280.33
2142.75
4514.9
7970.34
8030.27
4794.55
4313.73
7720.41
7771.05
4570.27
2000
1850.31
4096.23
7442.62
7482.13
4327.91
3859.03
7131.93
7158.24
4064.91
1691.96
1524.68
3599.89
6782.48
6792.97
3776.05
3315.64
6385.7
6374.19
3457.03
1348.16
1162.5
3002.98
5930.23
5887.36
3103.78
2659.38
5404.23
5321.63
2713.43
968.402
767.675
2280.97
4788.97
4655.94
2282.29
1871.93
4087.75
3859.78
1795.26
564.351
369.911
1423.75
3265.75
2889.62
1261.17
137.078
221.669
316.993
415.952
515.087
612.721
708.039
800.654
890.401
977.268
1061.52
1143.6
1223.56
1301.45
1377.34
1451.46
1524.01
1595.22
1665.24
1734.31
1802.52
1869.85
1937.23
2005.24
2074.14
2144.09
2215.31
2287.94
2362.29
2438.45
2519.26
2604.34
2693.64
2787.14
2885.03
2987.59
3095.16
3208.02
3326.3