/*--------------------------------*- C++ -*----------------------------------*\
| =========                 |                                                 |
| \\      /  F ield         | OpenFOAM: The Open Source CFD Toolbox           |
|  \\    /   O peration     | Version:  v2006                                 |
|   \\  /    A nd           | Website:  www.openfoam.com                      |
|    \\/     M anipulation  |                                                 |
\*---------------------------------------------------------------------------*/
FoamFile
{
    version     2.0;
    format      ascii;
    class       volScalarField;
    location    "0.05";
    object      turbulenceProperties:I;
}
// * * * * * * * * * * * * * * * * * * * * * * * * * * * * * * * * * * * * * //

dimensions      [0 0 0 0 0 0 0];


internalField   nonuniform List<scalar> 
12716
(
0.15
0.15
0.15
0.15
0.15
0.15
0.15
0.149999
0.149999
0.149999
0.150001
0.150005
0.15001
0.150013
0.150013
0.150013
0.150012
0.15001
0.150008
0.150007
0.150006
0.150005
0.150005
0.150004
0.150003
0.150003
0.150002
0.150002
0.150001
0.150001
0.150001
0.150001
0.150001
0.15
0.15
0.15
0.150001
0.150001
0.150001
0.150001
0.150001
0.150001
0.150001
0.150001
0.150001
0.150001
0.150001
0.15
0.15
0.149999
0.149999
0.149998
0.149997
0.149997
0.15
0.150006
0.150015
0.150025
0.150026
0.150016
0.150003
0.149991
0.149978
0.149976
0.149974
0.149978
0.149991
0.150009
0.149879
0.14935
0.145132
0.138247
0.145673
0.1488
0.146608
0.14053
0.132746
0.127936
0.135121
0.143622
0.140883
0.130821
0.124245
0.121127
0.126657
0.137914
0.13561
0.123777
0.118928
0.116941
0.120791
0.133033
0.131351
0.119133
0.115734
0.114431
0.116844
0.129145
0.127925
0.115911
0.113763
0.112874
0.114159
0.126071
0.125156
0.113627
0.112505
0.111876
0.11224
0.123571
0.122874
0.11194
0.111675
0.111217
0.110828
0.121494
0.120954
0.110643
0.111114
0.110773
0.109747
0.119739
0.119323
0.109643
0.110736
0.110471
0.108896
0.118235
0.117911
0.108847
0.110474
0.110264
0.108211
0.116931
0.116669
0.108203
0.110296
0.110125
0.107652
0.11579
0.115577
0.107677
0.110178
0.110038
0.107195
0.114784
0.114611
0.107247
0.110106
0.10999
0.106821
0.113892
0.113755
0.106898
0.110072
0.109976
0.10652
0.1131
0.112996
0.106619
0.110068
0.109989
0.106283
0.112399
0.112325
0.106401
0.110091
0.110027
0.106102
0.111779
0.111732
0.106239
0.110137
0.110087
0.105973
0.111233
0.111214
0.106128
0.110206
0.110168
0.105892
0.110758
0.110765
0.106065
0.110296
0.11027
0.105857
0.110351
0.110384
0.106051
0.110409
0.110395
0.10587
0.11001
0.110071
0.106084
0.110545
0.110544
0.105931
0.109737
0.109825
0.106166
0.110706
0.110719
0.106041
0.109531
0.109649
0.1063
0.110895
0.110922
0.106202
0.109393
0.109542
0.106486
0.111113
0.111154
0.106416
0.109325
0.109506
0.106727
0.11136
0.111416
0.106684
0.109328
0.109542
0.107024
0.111639
0.111709
0.107008
0.109403
0.109651
0.107378
0.111948
0.112033
0.107391
0.109551
0.109836
0.107793
0.112291
0.11239
0.107833
0.109775
0.110099
0.108271
0.112668
0.112784
0.10834
0.110078
0.110444
0.108817
0.113084
0.113217
0.108917
0.110464
0.110876
0.109436
0.113542
0.113695
0.109568
0.110941
0.111403
0.110136
0.114049
0.114223
0.110303
0.111514
0.112032
0.110924
0.114609
0.114808
0.11113
0.112193
0.112772
0.111811
0.115232
0.115459
0.112061
0.112988
0.113636
0.11281
0.115927
0.116186
0.113109
0.113913
0.114639
0.113935
0.116703
0.117
0.114289
0.114983
0.115794
0.115202
0.117572
0.117909
0.115618
0.116211
0.117118
0.116628
0.118543
0.118926
0.117112
0.117617
0.118629
0.118231
0.119627
0.120056
0.118789
0.119215
0.120343
0.120027
0.120831
0.121309
0.120667
0.121024
0.122277
0.122035
0.122161
0.122689
0.122761
0.123057
0.124445
0.124269
0.12362
0.124195
0.125085
0.125329
0.126854
0.126735
0.125202
0.125815
0.127642
0.127839
0.129501
0.129433
0.126892
0.127537
0.130425
0.13058
0.132371
0.13235
0.128673
0.129328
0.133414
0.133533
0.135432
0.135448
0.1305
0.131138
0.136556
0.136647
0.138619
0.138659
0.132313
0.132896
0.139773
0.13985
0.141843
0.141884
0.134027
0.134509
0.142949
0.143038
0.144982
0.144982
0.135537
0.135865
0.145923
0.146071
0.147878
0.147775
0.136729
0.136852
0.148507
0.148787
0.150365
0.150069
0.137491
0.13737
0.150509
0.151024
0.152291
0.151684
0.137744
0.137371
0.151767
0.152646
0.153545
0.152498
0.137464
0.136867
0.152197
0.15357
0.154087
0.15247
0.13666
0.13592
0.15181
0.153797
0.153961
0.151569
0.135402
0.134585
0.15047
0.153331
0.153143
0.149837
0.133843
0.132929
0.148446
0.15221
0.151736
0.147568
0.132072
0.131099
0.14603
0.15059
0.149915
0.145005
0.13019
0.129215
0.143409
0.148632
0.147836
0.14232
0.128369
0.127431
0.140737
0.146489
0.145635
0.139649
0.126657
0.12578
0.138127
0.14428
0.143411
0.137076
0.12508
0.124274
0.135641
0.142084
0.141232
0.134652
0.123647
0.122922
0.133324
0.139963
0.139154
0.132416
0.122371
0.121724
0.131201
0.137956
0.137188
0.130365
0.121232
0.120658
0.129263
0.13607
0.135361
0.128512
0.120232
0.119727
0.12752
0.134326
0.133675
0.126847
0.119359
0.118916
0.125956
0.13272
0.132123
0.125354
0.118597
0.118209
0.124553
0.131241
0.130698
0.124017
0.117935
0.117597
0.1233
0.129888
0.129395
0.122826
0.117366
0.117074
0.122187
0.128653
0.128207
0.121767
0.11688
0.116628
0.121192
0.127523
0.12712
0.120822
0.116469
0.116252
0.120306
0.12649
0.126123
0.119975
0.116118
0.115926
0.119502
0.125532
0.125193
0.119205
0.115814
0.115647
0.118772
0.12464
0.124324
0.118503
0.115546
0.115392
0.118093
0.123792
0.12349
0.117844
0.115295
0.11515
0.117451
0.122972
0.12268
0.117215
0.115051
0.114909
0.11683
0.122168
0.12188
0.116601
0.114802
0.11466
0.116219
0.121369
0.121083
0.115995
0.114546
0.114405
0.115613
0.120568
0.120292
0.1154
0.114288
0.114147
0.115027
0.119777
0.119488
0.114793
0.11402
0.113863
0.11443
0.118966
0.118635
0.114187
0.113729
0.113531
0.113801
0.118185
0.117953
0.113629
0.113422
0.113255
0.113342
0.117557
0.117079
0.112897
0.11318
0.112889
0.11282
0.116936
0.116489
0.112396
0.112756
0.12846
0.139449
0.148485
0.156384
0.162694
0.167804
0.171842
0.174792
0.177052
0.17853
0.179451
0.179675
0.179333
0.178256
0.176541
0.173934
0.170475
0.165924
0.16083
0.154414
0.144859
0.134989
0.128221
0.116279
0.106404
0.105076
0.112654
0.117424
0.109242
0.10938
0.101855
0.10961
0.136921
0.131645
0.11795
0.109034
0.108619
0.116942
0.132494
0.132866
0.118349
0.109715
0.109607
0.118131
0.133696
0.133715
0.11865
0.109976
0.110046
0.118619
0.134282
0.134221
0.119181
0.110481
0.110514
0.118838
0.134669
0.134502
0.119203
0.110911
0.110854
0.119041
0.134507
0.13443
0.119497
0.111328
0.111271
0.119178
0.13443
0.134289
0.11959
0.111684
0.111591
0.119255
0.134231
0.13413
0.119604
0.112039
0.111929
0.119263
0.13408
0.133969
0.119629
0.112383
0.112257
0.119312
0.133899
0.133808
0.1197
0.11276
0.112662
0.119304
0.133775
0.133646
0.119678
0.113136
0.112994
0.119352
0.133552
0.133507
0.119706
0.113552
0.113423
0.119369
0.133441
0.13336
0.119792
0.113978
0.113849
0.119439
0.133281
0.13322
0.119876
0.114425
0.114284
0.11951
0.133138
0.13307
0.119938
0.114873
0.114724
0.119551
0.132987
0.132924
0.119989
0.115339
0.115187
0.119631
0.132836
0.132803
0.12014
0.115853
0.115708
0.119823
0.132702
0.132697
0.120345
0.116406
0.116251
0.119976
0.132585
0.132541
0.120449
0.116932
0.116739
0.120095
0.1324
0.132382
0.120576
0.11747
0.117276
0.120234
0.132264
0.132277
0.120775
0.118073
0.117902
0.120378
0.132182
0.132135
0.120968
0.118661
0.118457
0.120592
0.131987
0.131989
0.121137
0.119279
0.119064
0.120752
0.13184
0.131845
0.121307
0.119908
0.119678
0.120911
0.131689
0.131699
0.121492
0.120555
0.120319
0.121089
0.131538
0.131554
0.121686
0.121218
0.120963
0.121266
0.131378
0.131396
0.121873
0.121894
0.121629
0.121439
0.131208
0.131232
0.122066
0.122584
0.122298
0.121618
0.131029
0.131057
0.122259
0.123283
0.122983
0.121791
0.130836
0.130863
0.122437
0.123983
0.123658
0.121949
0.130623
0.130658
0.122602
0.124685
0.124341
0.122089
0.130404
0.130439
0.122739
0.125378
0.125002
0.122197
0.13016
0.130193
0.122839
0.126059
0.125654
0.122261
0.129884
0.129908
0.122872
0.126704
0.126255
0.122246
0.129559
0.129572
0.122819
0.127315
0.126827
0.122139
0.129178
0.129181
0.122646
0.127873
0.127324
0.121887
0.128728
0.12871
0.122291
0.128372
0.127767
0.121432
0.128181
0.128151
0.121735
0.128816
0.128146
0.120776
0.127516
0.127513
0.121005
0.129232
0.128453
0.119881
0.12672
0.126445
0.119931
0.129538
0.128689
0.118712
0.125384
0.125143
0.119444
0.130246
0.129428
0.11835
0.124142
0.123871
0.119136
0.130956
0.130278
0.118042
0.122947
0.122797
0.11935
0.132258
0.13174
0.118456
0.122082
0.121869
0.119476
0.133757
0.133342
0.118686
0.121111
0.120994
0.119556
0.135443
0.135095
0.118647
0.12009
0.119382
0.119728
0.137207
0.136987
0.119315
0.118624
0.118351
0.120344
0.139367
0.13923
0.119619
0.117634
0.116966
0.120201
0.141374
0.141231
0.119478
0.116065
0.11535
0.120125
0.143601
0.143693
0.119593
0.114532
0.114158
0.120429
0.146435
0.146618
0.119968
0.113724
0.114133
0.121445
0.149946
0.150769
0.121864
0.11519
0.118348
0.125944
0.155086
0.156629
0.127728
0.121205
0.123927
0.136856
0.161655
0.164036
0.144157
0.124978
0.121862
0.11032
0.123624
0.157541
0.126788
0.12088
0.122
0.127503
0.159056
0.170366
0.136048
0.127186
0.135593
0.139046
0.176702
0.201421
0.153151
0.14831
0.155018
0.177426
0.222573
0.238007
0.206191
0.167251
0.171655
0.212175
0.247231
0.261103
0.230498
0.178802
0.183795
0.238814
0.27143
0.278647
0.245204
0.187887
0.189135
0.242243
0.274196
0.290428
0.25588
0.200073
0.208777
0.26818
0.301688
0.316515
0.28347
0.219024
0.229547
0.299978
0.333415
0.350392
0.31721
0.242526
0.256837
0.34665
0.378743
0.406072
0.371684
0.268487
0.281083
0.399119
0.434951
0.447558
0.411252
0.288853
0.303069
0.43873
0.475133
0.50855
0.466488
0.317487
0.33577
0.501118
0.545699
0.56613
0.524289
0.351003
0.379075
0.570045
0.612873
0.672935
0.635024
0.419614
0.469272
0.716351
0.755507
0.848175
0.81372
0.536156
0.632472
0.929444
0.930638
1
1
0.803768
1
1
1
1
1
1
1
1
0.902466
0.678384
0.738719
0.674123
0.446406
0.531414
0.513875
0.408361
0.415851
0.321679
0.245659
0.319213
0.31306
0.26275
0.263625
0.193191
0.159891
0.227036
0.224095
0.200337
0.193189
0.139366
0.133349
0.175946
0.186206
0.176714
0.165953
0.140513
0.155144
0.161686
0.173633
0.164846
0.15759
0.176739
0.197747
0.160143
0.166505
0.169711
0.163745
0.212924
0.219383
0.161886
0.162931
0.16615
0.167172
0.22357
0.223138
0.168662
0.165012
0.166814
0.170835
0.2226
0.220791
0.169848
0.162949
0.165756
0.171671
0.217869
0.211595
0.174678
0.164095
0.165879
0.175513
0.208193
0.202861
0.175656
0.162089
0.164531
0.175329
0.195899
0.1889
0.172189
0.161889
0.168008
0.171997
0.181217
0.179536
0.172084
0.167748
0.169669
0.174357
0.18023
0.178624
0.175518
0.166807
0.169759
0.177216
0.177059
0.177991
0.180181
0.168896
0.171138
0.181507
0.175732
0.175306
0.181174
0.169471
0.170846
0.181225
0.174681
0.174283
0.183275
0.171374
0.171764
0.182557
0.170936
0.167922
0.181413
0.173716
0.170636
0.176721
0.165998
0.164958
0.177279
0.171904
0.169935
0.1735
0.16048
0.155768
0.171352
0.169585
0.160947
0.148381
0.149853
0.141456
0.149511
0.165168
0.15906
0.140445
0.137672
0.131645
0.130626
0.148336
0.14757
0.127301
0.127379
0.123349
0.112604
0.122753
0.142651
0.133816
0.123671
0.122676
0.13037
0.140219
0.131266
0.119717
0.12111
0.118428
0.1151
0.12831
0.105149
0.101401
0.117866
0.114772
0.118704
0.128231
0.123347
0.111709
0.113828
0.112077
0.106942
0.1189
0.0978371
0.095567
0.112185
0.109421
0.110396
0.11978
0.114582
0.103708
0.10933
0.108652
0.0999548
0.109175
0.0914774
0.0915343
0.108523
0.104411
0.101805
0.111813
0.108547
0.0983644
0.105327
0.106448
0.0928251
0.100582
0.0976122
0.0908354
0.105827
0.10703
0.0852241
0.0832914
0.102124
0.0934532
0.100299
0.101522
0.0895013
0.0970725
0.0925228
0.0870136
0.101964
0.105553
0.0819079
0.0794499
0.0965731
0.0879748
0.0976141
0.0987581
0.0841214
0.0911366
0.0873047
0.0818596
0.0992571
0.103373
0.078587
0.0756191
0.0923934
0.0844103
0.0948718
0.0958882
0.0809755
0.0874843
0.0832466
0.0786598
0.0971306
0.101184
0.0764311
0.0732928
0.0871346
0.0807908
0.0922873
0.0940867
0.0776325
0.0826834
0.0793914
0.075516
0.0955979
0.100143
0.0741023
0.0705444
0.0837217
0.07772
0.0898621
0.091606
0.0749113
0.0796105
0.0764153
0.073555
0.0941812
0.10005
0.0726398
0.0687949
0.0795843
0.0742726
0.0876743
0.0892174
0.072245
0.0772537
0.0677517
0.0708193
0.0941391
0.086133
0.0740808
0.0802975
0.0760641
0.071748
0.0884473
0.0912701
0.0707212
0.0728402
0.0665231
0.0703623
0.096238
0.0851697
0.0714096
0.0756958
0.07189
0.0687418
0.0870734
0.0901904
0.068342
0.0694929
0.0645833
0.0686678
0.0966057
0.0840778
0.0676788
0.071007
0.0691102
0.0668088
0.0858671
0.091134
0.0667275
0.0628197
0.0709094
0.0668803
0.081691
0.0840126
0.0649449
0.0670184
0.0651948
0.0651796
0.0873875
0.0942491
0.0658585
0.0614851
0.0659313
0.0636158
0.0814539
0.0834585
0.0631073
0.064444
0.05947
0.063792
0.0889846
0.0787605
0.0626481
0.065805
0.0627327
0.061244
0.0811357
0.0849634
0.0616519
0.0612333
0.0590943
0.0647897
0.0914116
0.0790894
0.0611106
0.0620202
0.0609506
0.0605841
0.081395
0.087262
0.0626477
0.0575295
0.0624468
0.0603514
0.0774239
0.0802224
0.0594469
0.0596893
0.0583828
0.0592946
0.0842189
0.0911053
0.0637984
0.0566788
0.0579525
0.0581152
0.0780925
0.0805552
0.0569566
0.0565284
0.0547366
0.0617614
0.0863524
0.0753591
0.0567651
0.0569679
0.0552617
0.0561318
0.0780979
0.0822765
0.0559235
0.0543456
0.0538895
0.0631289
0.0891053
0.076332
0.0555539
0.0543309
0.0532643
0.0546279
0.0790729
0.0852397
0.0606816
0.0524574
0.0541112
0.0546369
0.0740536
0.0774398
0.0538861
0.0527896
0.0522261
0.0602573
0.083881
0.073455
0.0539427
0.0532045
0.0521982
0.0535315
0.0771691
0.0836285
0.0597906
0.0517514
0.0531353
0.0536648
0.0730658
0.0759296
0.0534278
0.0521278
0.0501658
0.0532234
0.0802806
0.0870127
0.0611917
0.0508042
0.0507277
0.0521053
0.0745233
0.0779642
0.0515108
0.0488987
0.04969
0.0600433
0.0846223
0.0730917
0.0511895
0.0497105
0.04807
0.0506352
0.0764349
0.0828201
0.0589332
0.0488043
0.0491516
0.050473
0.0717671
0.0753784
0.0500776
0.0475408
0.0483395
0.0585329
0.0820015
0.0712684
0.0497815
0.0484641
0.0476883
0.0502769
0.0745754
0.079389
0.0507942
0.0465224
0.048007
0.0607529
0.0860378
0.0731058
0.0495124
0.0475519
0.0458836
0.049008
0.0766715
0.0833269
0.0589669
0.047168
0.0470861
0.0488431
0.0715717
0.075394
0.0485764
0.0454589
0.0468593
0.0586364
0.0821521
0.0711755
0.0484279
0.0465337
0.0450698
0.0483816
0.0751544
0.0817435
0.0584185
0.0464772
0.0462828
0.048111
0.0705019
0.0742691
0.0478665
0.0446331
0.0461106
0.0581275
0.0810851
0.0701556
0.0475861
0.0456332
0.0441677
0.0475492
0.0740952
0.0809613
0.0580064
0.0457276
0.0452348
0.0472709
0.0702999
0.0739162
0.0482157
0.0441967
0.043256
0.0489753
0.0787003
0.0853728
0.0605682
0.0457726
0.0439572
0.046696
0.0721165
0.076071
0.0464329
0.0424799
0.0447524
0.0585398
0.0829757
0.0707644
0.0457869
0.043216
0.0418378
0.0458027
0.0749151
0.0819641
0.0579672
0.0441303
0.0427411
0.0453192
0.0700813
0.0742449
0.045457
0.0414598
0.0438592
0.0577194
0.0811741
0.0694531
0.0449185
0.0423318
0.0410388
0.0449698
0.073611
0.0807793
0.0572728
0.0434186
0.0419862
0.0445424
0.0690874
0.0732522
0.0447901
0.0407781
0.0432889
0.0572046
0.0804112
0.0690811
0.0444245
0.0417844
0.0406072
0.0446172
0.0732653
0.0803375
0.0570967
0.0430945
0.0415808
0.0441802
0.068695
0.0727994
0.0444124
0.0404073
0.0430284
0.0570464
0.0799577
0.0686339
0.0440919
0.0413842
0.0402303
0.0442082
0.0727348
0.0799325
0.0567941
0.042815
0.0412407
0.043867
0.0684249
0.0724778
0.0441435
0.040109
0.0426048
0.0565831
0.0796379
0.0683642
0.043742
0.0410966
0.0401467
0.044746
0.0717307
0.0767112
0.0462553
0.0394287
0.0434953
0.0597161
0.08378
0.0707822
0.0442828
0.0409417
0.0398314
0.0442919
0.0749719
0.0822242
0.0578587
0.0429538
0.0407834
0.0437032
0.0697632
0.0739696
0.0439645
0.0396246
0.0427975
0.0574979
0.0812147
0.0691405
0.0434802
0.0405907
0.0394728
0.0438417
0.0733851
0.0806879
0.0572351
0.0425992
0.0404239
0.0433083
0.0688796
0.0730292
0.0435603
0.039293
0.0424807
0.0570809
0.0802857
0.0684395
0.0431359
0.0402152
0.039155
0.043563
0.0726946
0.0800172
0.0569589
0.0423477
0.0400712
0.0430335
0.0681941
0.0723532
0.0432893
0.0389989
0.0422438
0.0567214
0.0796997
0.0681595
0.0428655
0.0399161
0.0388899
0.0432403
0.0723571
0.079621
0.0566946
0.0421805
0.0398273
0.0427959
0.0680025
0.0721648
0.0430921
0.0388056
0.042196
0.056598
0.0793728
0.0676821
0.0426371
0.0396616
0.0386473
0.0429817
0.0717562
0.0790225
0.0564275
0.0420336
0.0394786
0.0425398
0.0675161
0.0716296
0.0427857
0.0385032
0.0417757
0.0560377
0.078888
0.0673554
0.0422773
0.039287
0.0384224
0.0437228
0.0709127
0.075961
0.045605
0.037937
0.0435309
0.0596964
0.0832382
0.0703438
0.0430159
0.0389811
0.0378723
0.0429575
0.0745792
0.0819856
0.0574571
0.0422674
0.0382323
0.0418369
0.0691887
0.0735841
0.0423994
0.0373082
0.0418524
0.0572829
0.0810276
0.0687172
0.0417537
0.0379879
0.037103
0.0421337
0.0730747
0.0804924
0.056706
0.0414998
0.0377473
0.0413472
0.0681326
0.0724013
0.0418048
0.03687
0.0412182
0.0563243
0.0797899
0.067727
0.0411711
0.0375592
0.0366219
0.0413656
0.0718111
0.079269
0.0558703
0.0408466
0.0373558
0.0408879
0.0673178
0.0716433
0.0414825
0.0366116
0.0408794
0.0559004
0.0790319
0.0672635
0.0409793
0.0373948
0.0365402
0.0412551
0.0713416
0.0786613
0.055255
0.0404029
0.0372732
0.0406328
0.0667361
0.0700999
0.0420596
0.0363654
0.0359115
0.0439551
0.0750364
0.0822669
0.0585814
0.0421184
0.037065
0.0413667
0.0689503
0.0733845
0.0415577
0.0362361
0.0411609
0.0568241
0.0809462
0.0682162
0.0408443
0.0369091
0.0361728
0.0413642
0.0724733
0.0798098
0.0564136
0.0409466
0.0368073
0.0407036
0.067468
0.0715438
0.0410545
0.0360395
0.0406216
0.0556998
0.0788388
0.0666923
0.0403179
0.0365933
0.0358033
0.040721
0.0705895
0.0779898
0.055327
0.0403185
0.0364525
0.040265
0.0667348
0.0703882
0.0419978
0.0356325
0.0352408
0.0437353
0.0754279
0.082888
0.0586768
0.0419384
0.0363382
0.0410075
0.0692717
0.0734777
0.0412762
0.0354904
0.0407791
0.0565689
0.0808616
0.0679599
0.0402296
0.0360282
0.0351617
0.0403233
0.0718611
0.0791092
0.055386
0.0398993
0.0356502
0.03958
0.0666907
0.0703331
0.0413002
0.0348074
0.0345613
0.0433306
0.0754561
0.0829342
0.0587845
0.0416978
0.0358675
0.0406816
0.0692556
0.0733741
0.040803
0.0350058
0.0404615
0.0563897
0.0807402
0.067701
0.0397923
0.0355122
0.0347553
0.0403975
0.0718363
0.0789156
0.055503
0.0399302
0.0352434
0.0394
0.0665328
0.0704079
0.0413486
0.0344419
0.0341564
0.0431131
0.075649
0.0832521
0.0586373
0.041504
0.0353724
0.0403138
0.0693011
0.0735157
0.0405803
0.0345586
0.0403214
0.0563217
0.0808759
0.0677093
0.0394853
0.035028
0.0341782
0.0396236
0.0716344
0.0787934
0.054753
0.039153
0.034469
0.0385449
0.0657108
0.0690202
0.0401086
0.0336003
0.0333918
0.0423345
0.074211
0.0819002
0.0578891
0.040801
0.0347661
0.039702
0.0682612
0.0722477
0.0398821
0.033979
0.0395339
0.0552818
0.079461
0.0664625
0.0387194
0.0343327
0.0335479
0.0405673
0.0696938
0.0742231
0.0423218
0.0332238
0.0408047
0.0577764
0.0813435
0.0680021
0.0393659
0.0343791
0.0336655
0.0394395
0.0722826
0.0798864
0.0551642
0.039467
0.0338379
0.0383886
0.0665807
0.0698867
0.0400556
0.0330703
0.0328364
0.042156
0.0746542
0.0817797
0.0577102
0.0404396
0.0339503
0.0391029
0.0679879
0.071326
0.0408593
0.0331265
0.0326433
0.0416524
0.0755013
0.0831547
0.0577996
0.0406189
0.0336265
0.0389954
0.0690488
0.0731807
0.0393014
0.0329602
0.0391242
0.0552671
0.0803561
0.0667062
0.0379954
0.0332478
0.032328
0.0393717
0.0697346
0.0741864
0.0410193
0.0319574
0.0392417
0.0565718
0.0810202
0.0661533
0.0377966
0.0328875
0.03217
0.0394011
0.0693922
0.0745209
0.0414684
0.0320432
0.0399088
0.0572312
0.082169
0.0680158
0.0383648
0.0330407
0.0322699
0.0397496
0.0712654
0.0756248
0.0411663
0.0319464
0.0397326
0.0570005
0.0823342
0.0669836
0.0376799
0.0324271
0.031737
0.0391461
0.0698255
0.0744805
0.0410003
0.0315437
0.03969
0.0570745
0.0822677
0.0682142
0.0379993
0.0324321
0.0316239
0.0382634
0.0717725
0.0758804
0.0430974
0.0318183
0.0312028
0.0430369
0.0797515
0.0860513
0.0585044
0.0402055
0.0315672
0.0373226
0.0685939
0.0721543
0.0390894
0.0309948
0.0308586
0.0408654
0.0772304
0.0846637
0.0575908
0.0394122
0.0317426
0.0376696
0.0690117
0.0718274
0.037182
0.0305771
0.0305267
0.0415149
0.0759353
0.0781631
0.040161
0.029696
0.0386995
0.0575847
0.0851067
0.0693856
0.0370714
0.0308974
0.030106
0.0367579
0.0731282
0.0769654
0.0422378
0.0306029
0.0301805
0.0427848
0.0808145
0.0867081
0.0586014
0.0395275
0.0307817
0.0367989
0.0681776
0.0720458
0.037708
0.0300443
0.0299455
0.0401737
0.0768394
0.0816795
0.0430422
0.0301663
0.0293509
0.042227
0.0850307
0.0904887
0.0584918
0.0386569
0.0295293
0.0356235
0.0689941
0.0724893
0.0364299
0.0288548
0.0283864
0.0373316
0.0770241
0.0813401
0.0405342
0.0283605
0.0277907
0.0401095
0.0840927
0.0863687
0.0441686
0.0288054
0.0280866
0.0438643
0.0893007
0.0965558
0.0618168
0.0395843
0.0296386
0.0371817
0.0736657
0.0751243
0.0365932
0.028892
0.0287412
0.0404411
0.079099
0.0841056
0.0407611
0.0284637
0.028325
0.0416153
0.0878008
0.0908013
0.0422482
0.0281968
0.0284217
0.0445106
0.0946532
0.0976538
0.0443838
0.0282989
0.0291875
0.0478596
0.100733
0.104034
0.0491962
0.0295618
0.0305652
0.0521089
0.106065
0.107018
0.0535869
0.0309337
0.0321077
0.0567043
0.107488
0.107614
0.0582356
0.0324594
0.0338962
0.0615373
0.107698
0.107663
0.0629866
0.0342949
0.0360009
0.0660751
0.107656
0.107592
0.0674722
0.036495
0.0383992
0.0701868
0.107555
0.107533
0.0718515
0.0389438
0.0411367
0.0739428
0.107498
0.107529
0.0757011
0.0417794
0.0442064
0.0773244
0.107514
0.107584
0.0789353
0.0448393
0.0473584
0.0803831
0.107582
0.107703
0.0818062
0.0480195
0.0505007
0.0831192
0.107694
0.107856
0.0843754
0.0511409
0.0536249
0.0855615
0.107825
0.108023
0.0866629
0.0542769
0.0567396
0.0877075
0.107984
0.108197
0.0886229
0.0573225
0.0596897
0.0895551
0.108167
0.108352
0.0903426
0.0602221
0.0624454
0.0911604
0.108364
0.108507
0.0918015
0.0628843
0.0649707
0.0925276
0.108559
0.108662
0.0930707
0.0653439
0.0672694
0.0937045
0.108748
0.108809
0.0941266
0.0675467
0.0693241
0.0946857
0.108898
0.108926
0.0950346
0.0695319
0.0711505
0.095519
0.109026
0.10903
0.0957771
0.071269
0.0727344
0.0961965
0.109109
0.109113
0.0964131
0.0727993
0.0741116
0.0967539
0.10918
0.109184
0.0969064
0.0741115
0.0753036
0.0971889
0.109229
0.109225
0.0973082
0.0752593
0.0763241
0.0975484
0.109261
0.109252
0.0976115
0.0762273
0.077195
0.0978115
0.109271
0.109254
0.0978518
0.0770653
0.0779313
0.0980195
0.109269
0.109248
0.0980145
0.0777614
0.0785515
0.0981517
0.109251
0.109223
0.0981331
0.0783595
0.0790696
0.0982462
0.109225
0.109194
0.0981922
0.0788489
0.0795018
0.0982835
0.109188
0.109151
0.0982233
0.0792671
0.0798562
0.0982966
0.109144
0.109105
0.0982082
0.0796017
0.0801501
0.0982669
0.109093
0.10905
0.0981785
0.0798879
0.0803849
0.0982247
0.109039
0.108994
0.0981144
0.0800929
0.0805661
0.0981507
0.108978
0.108929
0.0980454
0.0802886
0.0807174
0.0980725
0.108915
0.108865
0.0979473
0.0804302
0.0808373
0.0979661
0.108847
0.108795
0.0978488
0.0805503
0.0809249
0.0978617
0.108781
0.108729
0.0977285
0.080632
0.0809942
0.0977369
0.108712
0.108659
0.0976137
0.0807034
0.081045
0.0976187
0.108645
0.108592
0.0974817
0.0807461
0.0810746
0.0974855
0.108576
0.108522
0.0973589
0.0807769
0.0810835
0.0973619
0.10851
0.108457
0.0972214
0.0807785
0.081074
0.0972243
0.108443
0.108389
0.0970937
0.0807706
0.0810473
0.0970952
0.108379
0.108325
0.0969506
0.0807359
0.0810039
0.0969518
0.108314
0.108258
0.096817
0.0806944
0.0809468
0.0968173
0.108252
0.108196
0.0966697
0.0806323
0.08088
0.0966707
0.10819
0.108133
0.0965352
0.0805674
0.0808017
0.0965353
0.10813
0.108073
0.0963892
0.0804837
0.0807158
0.0963899
0.108071
0.108013
0.0962563
0.0804011
0.0806225
0.0962563
0.108015
0.107957
0.0961126
0.0803047
0.080527
0.096114
0.10796
0.107901
0.0959835
0.0802144
0.0804281
0.0959852
0.107908
0.107849
0.0958453
0.0801137
0.0803301
0.0958493
0.107857
0.107797
0.0957231
0.0800217
0.0802308
0.0957279
0.107809
0.10775
0.0955929
0.0799212
0.0801342
0.0956006
0.107762
0.107702
0.0954795
0.079831
0.0800374
0.0954884
0.107718
0.107659
0.0953587
0.0797333
0.0799444
0.0953706
0.107675
0.107615
0.0952548
0.0796468
0.0798521
0.0952681
0.107635
0.107576
0.0951439
0.0795538
0.0797644
0.0951603
0.107596
0.107537
0.0950499
0.0794726
0.0796777
0.0950678
0.10756
0.107502
0.0949489
0.0793851
0.079596
0.0949699
0.107525
0.107467
0.0948646
0.0793097
0.0795152
0.0948868
0.107493
0.107436
0.0947729
0.0792279
0.0794394
0.0947982
0.107462
0.107404
0.0946977
0.0791582
0.0793644
0.094724
0.107433
0.107377
0.0946146
0.0790821
0.0792945
0.0946438
0.107406
0.107349
0.0945475
0.0790181
0.0792252
0.0945775
0.10738
0.107324
0.0944722
0.0789475
0.0791609
0.0945049
0.107355
0.107299
0.0944124
0.0788888
0.079097
0.0944457
0.107333
0.107277
0.094344
0.0788235
0.0790381
0.0943798
0.10731
0.107255
0.0942908
0.07877
0.0789793
0.0943271
0.10729
0.107236
0.0942286
0.0787097
0.0789255
0.0942673
0.10727
0.107216
0.0941814
0.0786612
0.0788718
0.0942204
0.107252
0.107199
0.094125
0.0786057
0.0788229
0.0941664
0.107235
0.107181
0.0940833
0.078562
0.0787739
0.0941248
0.107219
0.107166
0.0940322
0.0785112
0.0787297
0.094076
0.107203
0.10715
0.0939954
0.078472
0.0786852
0.0940393
0.107189
0.107137
0.093949
0.0784255
0.0786452
0.093995
0.107175
0.107123
0.0939167
0.0783903
0.0786047
0.0939625
0.107162
0.107111
0.0938742
0.0783476
0.0785684
0.093922
0.107149
0.107097
0.0938455
0.078316
0.0785313
0.0938929
0.107138
0.107087
0.0938063
0.0782765
0.0784981
0.0938556
0.107126
0.107074
0.0937806
0.0782479
0.078464
0.0938294
0.107115
0.107064
0.0937442
0.0782111
0.0784335
0.0937946
0.107104
0.107052
0.0937208
0.0781851
0.0784018
0.0937707
0.107094
0.107043
0.0936866
0.0781505
0.0783735
0.0937379
0.107083
0.107031
0.093665
0.0781265
0.0783436
0.0937158
0.107073
0.107022
0.0936324
0.0780937
0.078317
0.0936845
0.107063
0.107011
0.0936123
0.0780713
0.0782887
0.0936638
0.107053
0.107002
0.093581
0.07804
0.0782635
0.0936338
0.107043
0.106991
0.0935621
0.0780188
0.0782365
0.0936141
0.107034
0.106983
0.0935319
0.0779887
0.0782125
0.0935852
0.107024
0.106972
0.0935141
0.0779687
0.0781865
0.0935666
0.107015
0.106964
0.0934848
0.0779396
0.0781634
0.0935385
0.107006
0.106954
0.0934675
0.0779202
0.0781378
0.0935203
0.106996
0.106945
0.0934383
0.0778912
0.0781146
0.0934919
0.106986
0.106933
0.0934204
0.0778713
0.0780881
0.0934726
0.106975
0.106922
0.0933895
0.0778408
0.0780629
0.0934421
0.106963
0.106907
0.0933686
0.0778183
0.078033
0.093419
0.106949
0.106893
0.093333
0.0777835
0.0780025
0.0933828
0.106931
0.106873
0.0933048
0.0777543
0.0779647
0.0933511
0.10691
0.106851
0.0932586
0.0777097
0.0779223
0.0933021
0.106882
0.106819
0.0932137
0.0776677
0.0778597
0.0932497
0.106846
0.106765
0.0931391
0.0775896
0.0777728
0.0931594
0.106784
0.106672
0.0929879
0.0774409
0.0775018
0.0929954
0.106685
0.106359
0.0926148
0.0769315
0.0763109
0.092254
0.106141
0.10539
0.0911077
0.0752415
0.0726497
0.0894584
0.104466
0.102979
0.0874269
0.0703673
0.0670565
0.0854635
0.101491
0.0510154
0.043723
0.043675
0.0468962
0.0507422
0.052503
0.0560765
0.0598496
0.0609714
0.0618002
0.0622298
0.0623896
0.0623879
0.0623012
0.0621789
0.0620501
0.0619291
0.0618218
0.0617295
0.0616516
0.0615863
0.0615322
0.0614873
0.0614508
0.0614212
0.0613987
0.0613819
0.0613708
0.0613642
0.0613612
0.0613608
0.0613594
0.0613574
0.0613545
0.0613508
0.0613464
0.0613415
0.0613359
0.06133
0.0613236
0.0613171
0.0613105
0.0613039
0.0612977
0.061292
0.0612869
0.0612826
0.0612788
0.0612754
0.0612713
0.0612652
0.0612549
0.0612391
0.0612192
0.0611995
0.0611837
0.0611757
0.061178
0.0611925
0.0612211
0.0612612
0.061313
0.0613764
0.0614503
0.0615337
0.0616261
0.0617274
0.0618383
0.0619599
0.0620935
0.0622405
0.0624028
0.0625821
0.0627801
0.0629987
0.0632399
0.0635054
0.0637971
0.0641167
0.0644658
0.0648458
0.0652582
0.0657038
0.0661836
0.0666981
0.0672477
0.0678324
0.0684522
0.0691067
0.0697953
0.0705172
0.0712717
0.0720575
0.0728736
0.0737187
0.0745915
0.0754905
0.0764145
0.077362
0.0783315
0.0793215
0.0803307
0.0813576
0.0824009
0.0834591
0.084531
0.0856154
0.0867108
0.0878163
0.0889305
0.0900525
0.091181
0.0923151
0.0934538
0.094596
0.0957409
0.0968874
0.0980347
0.099182
0.100328
0.101473
0.102615
0.103753
0.104887
0.106017
0.107141
0.108259
0.10937
0.110474
0.11157
0.112658
0.113737
0.114806
0.115866
0.116916
0.117955
0.118983
0.119999
0.121003
0.121995
0.122974
0.123939
0.124891
0.125828
0.12675
0.127657
0.128548
0.129422
0.130281
0.131122
0.131947
0.132754
0.133543
0.134314
0.135068
0.135803
0.13652
0.137219
0.137899
0.138561
0.139205
0.13983
0.140437
0.141026
0.141596
0.142147
0.142681
0.143195
0.143692
0.144169
0.144628
0.145068
0.14549
0.145892
0.146276
0.146641
0.146987
0.147314
0.147624
0.147914
0.148187
0.148441
0.148677
0.148895
0.149094
0.149274
0.149433
0.149571
0.149686
0.149779
0.149849
0.149903
0.149946
0.149978
0.149994
0.149999
0.15
0.15
0.15
0.15
0.149999
0.149996
0.149988
0.149976
0.149969
0.149974
0.149986
0.149999
0.150008
0.150014
0.150015
0.150014
0.150012
0.15001
0.150007
0.150005
0.150004
0.150002
0.150001
0.149999
0.149998
0.149997
0.149996
0.149995
0.149995
0.149995
0.149995
0.149995
0.149996
0.149997
0.149999
0.15
0.150002
0.150004
0.150005
0.150007
0.150009
0.150011
0.150014
0.150016
0.150018
0.15002
0.150023
0.150025
0.150028
0.150033
0.150042
0.150058
0.150084
0.150117
0.150146
0.150149
0.150117
0.15006
0.15
0.149943
0.149887
0.149819
0.149473
0.148966
0.147349
0.146065
0.144945
0.143594
0.142574
0.141237
0.140333
0.139047
0.138258
0.137032
0.136353
0.135185
0.134606
0.133503
0.133014
0.131971
0.131555
0.130568
0.130217
0.129285
0.128991
0.128113
0.12786
0.127039
0.126824
0.126055
0.125875
0.125153
0.125006
0.124329
0.124213
0.123578
0.123493
0.122899
0.122846
0.122292
0.12227
0.121756
0.121765
0.121292
0.121333
0.1209
0.120975
0.120581
0.120691
0.120339
0.120485
0.120173
0.120356
0.120085
0.120307
0.120077
0.120338
0.12015
0.120454
0.120308
0.120656
0.120555
0.120952
0.120897
0.121347
0.121342
0.121849
0.121896
0.122467
0.122572
0.123212
0.12338
0.124098
0.124334
0.125137
0.125448
0.126345