/*--------------------------------*- C++ -*----------------------------------*\
| =========                 |                                                 |
| \\      /  F ield         | OpenFOAM: The Open Source CFD Toolbox           |
|  \\    /   O peration     | Version:  v2006                                 |
|   \\  /    A nd           | Website:  www.openfoam.com                      |
|    \\/     M anipulation  |                                                 |
\*---------------------------------------------------------------------------*/
FoamFile
{
    version     2.0;
    format      ascii;
    class       volScalarField;
    location    "0.05";
    object      yPlus;
}
// * * * * * * * * * * * * * * * * * * * * * * * * * * * * * * * * * * * * * //

dimensions      [0 0 0 0 0 0 0];


internalField   uniform 0;

boundaryField
{
    bottomEmptyFaces
    {
        type            empty;
    }
    topEmptyFaces
    {
        type            empty;
    }
    inlet
    {
        type            calculated;
        value           uniform 0;
    }
    outlet
    {
        type            calculated;
        value           uniform 0;
    }
    walls
    {
        type            calculated;
        value           nonuniform List<scalar> 
900
(
24.2559
24.2983
24.2903
24.3323
24.3244
24.3659
24.3579
24.399
24.3909
24.4314
24.4233
24.4634
24.4552
24.4948
24.4866
24.5256
24.5172
24.5555
24.5469
24.5845
24.5757
24.6124
24.6033
24.6389
24.6296
24.664
24.6543
24.6875
24.6776
24.7095
24.6992
24.7298
24.7193
24.7486
24.7377
24.7657
24.7546
24.7815
24.7701
24.7959
24.7843
24.8091
24.7973
24.8211
24.8092
24.8323
24.8202
24.8425
24.8304
24.8521
24.8398
24.8609
24.8485
24.8691
24.8566
24.8767
24.8641
24.8838
24.8711
24.8903
24.8776
24.8965
24.8837
24.9022
24.8894
24.9076
24.8947
24.9126
24.8996
24.9173
24.9042
24.9217
24.9084
24.9257
24.9124
24.9294
24.916
24.9328
24.9193
24.936
24.9224
24.9388
24.9252
24.9415
24.9277
24.9438
24.9301
24.946
24.9322
24.948
24.9342
24.9499
24.936
24.9516
24.9378
24.9533
24.9394
24.9549
24.941
24.9564
24.9425
24.9579
24.944
24.9594
24.9455
24.9609
24.9471
24.9624
24.9486
24.9639
24.9502
24.9655
24.9518
24.967
24.9534
24.9687
24.9551
24.9704
24.9569
24.9722
24.9588
24.9742
24.9609
24.9764
24.9634
24.9791
24.9663
24.9825
24.97
24.9869
24.9747
24.9925
24.9806
24.9999
24.9882
25.0267
25.0287
25.0781
25.1651
25.3831
25.9085
26.9254
29.1125
31.6464
70.8837
79.3104
83.324
107.674
122.537
63.392
54.7118
57.1312
58.4846
43.5075
40.6744
50.6904
44.9274
45.7902
64.3673
68.3123
138.35
149.206
126.919
132.81
111.144
90.0896
100.034
87.0223
76.467
68.6463
70.557
67.6291
63.3248
58.3014
61.2866
57.2114
16.6589
14.7138
12.4915
12.5376
9.59072
15.2025
15.5156
12.9985
12.3322
9.86288
12.843
12.5163
9.99339
15.4778
13.089
15.0901
12.8763
12.2104
10.1189
14.0892
15.1521
12.9498
11.7334
10.1002
12.19
10.0981
15.6894
13.5464
14.301
12.1089
10.9058
16.0429
13.9025
15.6686
13.4304
12.0326
10.7498
12.7697
11.2773
14.409
12.9191
11.4483
16.1673
13.1249
11.0876
13.7506
12.6127
10.8133
24.1297
21.1452
18.1545
17.1644
22.3168
18.7592
18.0322
22.9374
19.788
18.7296
24.9111
21.8404
16.2978
13.6502
12.9799
16.5706
13.7633
13.175
23.0177
23.5958
19.3761
18.6678
25.1461
22.1385
19.0996
18.063
19.9229
19.0168
18.6895
17.6826
19.7552
17.2285
17.7841
14.5276
13.7453
17.3265
14.5224
13.8839
17.5892
14.7051
14.0969
16.7248
14.0539
13.4029
17.0368
14.2782
13.6018
17.8543
15.1136
14.4014
18.3333
15.8103
14.8554
15.9575
13.821
14.3333
11.8907
10.8676
14.8847
15.35
12.7555
11.7856
12.3465
11.3389
17.1807
14.9632
15.8367
15.452
12.7344
11.926
13.0706
12.3078
29.479
26.2946
16.4019
14.1915
12.3983
11.3907
15.2917
13.0647
12.1674
15.0063
12.7342
11.9476
13.2612
12.2101
15.7418
13.7357
12.6121
15.9112
14.5643
12.1978
11.0515
12.8821
11.5791
29.508
23.1819
21.6763
13.7258
12.1353
11.0077
14.6128
12.8136
11.6187
26.4151
23.692
21.9237
30.2334
27.1443
30.3948
23.9842
22.459
16.4379
17.8841
16.7859
13.8997
13.1334
14.3369
13.4327
16.1745
13.4108
12.6392
13.6054
12.8399
15.5028
13.1618
12.3522
16.0873
13.4193
12.8248
24.3225
21.1254
19.9965
25.1624
26.614
54.5172
23.5311
20.4078
19.1971
53.3093
54.5976
51.4569
53.5495
56.6767
52.2348
50.7558
48.4922
25.5293
22.4875
21.2003
28.3479
24.9859
27.4406
21.8941
20.6856
23.8589
18.5054
15.531
20.5199
19.3538
50.4111
23.5364
45.0846
19.8233
40.3134
41.5171
40.1214
19.0694
33.3824
15.7257
20.0666
49.5417
42.7306
38.4444
37.4892
63.0516
63.3069
70.5941
65.1686
27.4761
24.2394
21.5174
20.1348
21.659
20.3845
26.6143
23.3023
21.9247
13.0568
14.4169
9.65611
17.812
15.5308
16.2648
13.6154
12.8007
13.3571
9.68523
16.6986
13.8166
10.3155
13.8923
13.5457
10.2864
72.4216
69.0046
64.3289
60.0225
57.2847
52.8052
31.3808
48.5147
47.239
43.9785
29.2056
49.0691
46.2676
26.4277
23.9749
40.6267
22.2685
35.472
30.9051
23.6475
14.4971
27.9543
27.1691
24.5348
22.7112
32.5793
30.8929
27.5948
25.2523
23.3084
33.9152
26.0311
23.5052
31.6974
28.4463
12.7288
11.4601
10.3851
9.3688
11.2384
7.49731
33.1927
14.0979
31.9489
12.8622
30.8598
12.003
11.3615
28.9083
10.935
26.97
24.7982
35.6799
10.6456
10.4437
35.2507
10.1969
10.0313
9.85702
9.75498
34.4982
33.3412
31.7911
29.4502
35.2002
9.61376
9.52169
34.0665
9.38267
34.2544
9.22375
27.5802
25.389
9.07601
25.4703
23.8164
9.02116
8.90503
8.84906
8.68224
8.64728
8.52608
8.53504
8.42934
8.36444
8.27478
8.23786
8.13513
8.11216
8.02448
8.01531
7.94219
7.93888
7.87287
7.87206
7.80916
7.80872
7.74882
7.75066
7.69319
7.69581
7.64026
7.6437
7.59007
7.59383
7.54044
7.54327
7.49074
7.49512
7.44468
7.44876
7.39882
7.404
7.35534
7.36042
7.31317
7.31885
7.27232
7.27813
7.23252
7.23776
7.19142
7.19534
7.14912
7.15727
7.11421
7.123
7.08157
7.09134
7.04863
7.05402
7.00808
7.01568
6.97373
6.98315
6.94422
6.95474
6.91692
6.9271
6.88762
6.89744
6.8588
6.87214
6.83788
6.84613
6.80968
6.81686
6.78141
6.7944
6.76135
6.77251
6.73808
6.74591
6.71103
6.7245
6.69153
6.70246
6.67602
6.73876
6.75015
6.81679
6.83355
6.91743
6.87786
6.50825
8.53906
5.49417
34.2385
34.0324
34.2103
33.955
33.6342
33.3888
32.804
32.011
31.2407
30.4319
29.72
29.0146
28.4053
27.817
27.3057
26.834
26.4122
26.0412
25.6993
25.4097
25.135
24.9167
24.694
24.5427
24.3597
24.2704
24.1208
24.0789
23.9608
23.947
23.8607
23.865
23.8067
23.8226
23.7848
23.8077
23.7833
23.8114
23.7969
23.8286
19.6329
19.8671
16.3808
15.762
23.8181
23.8565
23.8479
23.8906
23.8826
23.9271
23.9194
23.9651
20.4978
17.3017
16.5785
23.9575
24.0039
23.9963
24.0429
24.0354
24.0816
24.0739
24.1197
19.4185
16.2613
15.6929
24.112
20.3592
24.157
21.8258
17.4882
16.5451
16.698
15.9707
18.8756
15.8175
15.0563
24.1492
24.1935
19.966
16.6275
16.0164
24.1856
19.7815
16.3829
15.8094
20.2251
16.866
16.2562
24.2291
24.2211
24.2639
18.4843
18.6876
15.3949
14.7917
18.0413
18.1958
14.9948
14.409
14.8643
14.2646
15.2445
14.5885
18.9694
19.2559
15.8911
15.2666
15.5905
14.9424
16.1581
15.4586
21.3499
21.5128
18.6615
17.5909
21.0457
17.6563
16.9366
23.3465
20.341
17.2779
16.3349
22.1158
21.7836
17.8733
17.2885
18.1662
17.5335
22.5661
18.6036
17.901
19.3033
18.3457
11.3922
34.2576
53.1434
48.388
44.7725
42.6391
40.7879
39.5419
38.4757
37.7389
36.9952
36.4915
35.9336
35.5656
35.1256
34.8392
34.4789
34.2433
33.9372
33.7356
33.4669
33.2888
33.0473
32.8861
32.6644
32.5155
32.309
32.1691
31.9743
31.8414
31.6557
31.5281
31.3497
31.2261
31.0533
30.9327
30.7642
30.6458
30.4805
30.3635
30.2006
30.0843
29.9229
29.8068
29.6462
29.5298
29.3692
29.2517
29.0903
28.9713
28.8083
28.6869
28.5215
28.3973
28.2286
28.1009
27.9282
27.7964
27.6189
27.4823
27.299
27.1571
26.9672
26.8192
26.6218
26.4672
26.2614
26.0994
25.8844
25.7146
25.4896
25.3113
25.0753
24.8875
24.6396
24.4419
24.1811
23.9727
23.6982
23.4786
23.1892
22.958
22.6539
22.4113
22.0926
21.8391
21.5064
21.2429
20.8978
20.6266
20.2731
19.9988
19.6419
19.3691
19.014
18.7494
18.4045
18.1565
17.8321
17.6087
17.3136
17.1238
16.8675
16.718
16.5066
16.3989
16.2336
16.1667
16.0474
16.0145
15.9457
15.9392
15.9099
15.9153
15.9049
15.92
15.9199
15.9407
15.9488
15.9804
15.9925
16.0292
16.0436
16.0819
16.0966
16.1342
16.1488
16.1849
16.1988
16.2331
16.2466
16.2791
16.2922
16.3225
16.3343
16.3619
16.3729
16.3992
16.4099
16.435
16.4448
16.4679
16.4776
16.5006
16.5102
16.5322
16.5414
16.5629
16.5717
16.5906
16.5974
16.6137
16.6193
16.6334
16.6375
16.6484
16.6508
16.6595
16.6609
16.6672
16.6642
16.6732
16.6535
16.7279
16.7828
17.0688
17.188
17.3709
17.5893
17.9284
59.1084
)
;
    }
    rightWall
    {
        type            calculated;
        value           uniform 0;
    }
    symmetryLine
    {
        type            symmetryPlane;
    }
}


// ************************************************************************* //
