/*--------------------------------*- C++ -*----------------------------------*\
| =========                 |                                                 |
| \\      /  F ield         | OpenFOAM: The Open Source CFD Toolbox           |
|  \\    /   O peration     | Version:  v2006                                 |
|   \\  /    A nd           | Website:  www.openfoam.com                      |
|    \\/     M anipulation  |                                                 |
\*---------------------------------------------------------------------------*/
FoamFile
{
    version     2.0;
    format      ascii;
    class       volScalarField;
    location    "0.032";
    object      Co;
}
// * * * * * * * * * * * * * * * * * * * * * * * * * * * * * * * * * * * * * //

dimensions      [0 0 0 0 0 0 0];


internalField   nonuniform List<scalar> 
41981
(
0.0151547
0.014349
0.015595
0.0163163
0.0164913
0.0162022
0.0160821
0.015774
0.0157176
0.0157074
0.0156663
0.0156597
0.0156524
0.015646
0.015637
0.0156259
0.0156134
0.0156003
0.0155872
0.0155742
0.0155613
0.0155484
0.0155356
0.0155225
0.0155092
0.0154956
0.0154816
0.0154672
0.0154525
0.0154374
0.015422
0.0154062
0.0153901
0.0153736
0.0153568
0.0153397
0.0153223
0.0153045
0.0152863
0.0152679
0.0152491
0.01523
0.0152106
0.0151908
0.0151708
0.0151504
0.0151297
0.0151086
0.0150873
0.0150657
0.0150438
0.0150216
0.0149991
0.0149763
0.0149532
0.0149299
0.0149063
0.0148824
0.0148583
0.014834
0.0148094
0.0147846
0.0147596
0.0147344
0.0147089
0.0146833
0.0146575
0.0146315
0.0146053
0.014579
0.0145525
0.0145259
0.0144991
0.0144722
0.0144452
0.0144181
0.0143909
0.0143636
0.0143363
0.0143089
0.0142814
0.0142538
0.0142263
0.0141987
0.0141711
0.0141435
0.0141159
0.0140883
0.0140608
0.0140333
0.0140058
0.0139784
0.0139511
0.0139239
0.0138968
0.0138697
0.0138428
0.0138161
0.0137894
0.0137629
0.0137366
0.0137104
0.0136845
0.0136587
0.0136331
0.0136077
0.0135826
0.0135577
0.013533
0.0135086
0.0134845
0.0134607
0.0134371
0.0134138
0.0133908
0.0133682
0.0133459
0.0133238
0.0133022
0.0132809
0.0132599
0.0132393
0.013219
0.0131991
0.0131796
0.0131604
0.0131416
0.0131233
0.0131054
0.0130879
0.0130709
0.0130543
0.0130381
0.013022
0.013006
0.0129897
0.0129729
0.0129556
0.0129381
0.0129217
0.0129084
0.0129002
0.0128978
0.0128999
0.0129041
0.0129164
0.0129448
0.0130539
0.0132126
0.0136294
0.0143502
0.0160212
0.0198961
0.0283336
0.0429528
0.03468
0.0319202
0.0306357
0.0303825
0.0292805
0.0274915
0.0247762
0.0276683
0.0296194
0.0269397
0.0263943
0.0243516
0.0199336
0.0217243
0.0222144
0.0218003
0.0215367
0.0197326
0.0178547
0.0196786
0.0200259
0.020667
0.0201279
0.0178537
0.017164
0.0193125
0.0198261
0.0203056
0.0196382
0.0172339
0.0169434
0.0192967
0.0198452
0.0202607
0.0195115
0.0167915
0.0166288
0.0192392
0.0198705
0.0201817
0.019359
0.0164899
0.0163506
0.0191086
0.0198163
0.0200983
0.019215
0.0162283
0.0161016
0.0189791
0.0197511
0.0200143
0.0190769
0.0159905
0.0158741
0.018854
0.0196834
0.0199308
0.0189445
0.0157722
0.0156645
0.0187328
0.019614
0.0198477
0.018817
0.0155698
0.0154696
0.0186153
0.0195439
0.0197658
0.0186942
0.0153815
0.0152869
0.0185007
0.0194726
0.0196851
0.0185757
0.0152046
0.0151146
0.0183884
0.0194008
0.019605
0.0184603
0.0150372
0.0149509
0.0182788
0.0193289
0.0195254
0.0183477
0.0148778
0.0147951
0.0181717
0.0192568
0.0194465
0.0182378
0.0147258
0.0146464
0.0180667
0.0191849
0.0193679
0.0181301
0.0145809
0.0145047
0.0179641
0.0191128
0.0192899
0.0180253
0.014442
0.0143684
0.0178633
0.0190406
0.0192129
0.0179226
0.0143083
0.014237
0.0177642
0.0189684
0.0191364
0.0178218
0.0141794
0.0141101
0.0176666
0.0188963
0.0190602
0.0177226
0.0140548
0.0139873
0.0175703
0.0188241
0.0189842
0.0176249
0.0139342
0.0138683
0.0174752
0.0187517
0.0189085
0.0175286
0.0138172
0.0137528
0.0173812
0.0186791
0.0188328
0.0174335
0.0137034
0.0136403
0.0172882
0.0186062
0.0187573
0.0173396
0.0135925
0.0135306
0.017196
0.0185331
0.0186818
0.0172466
0.0134843
0.0134232
0.0171045
0.0184597
0.0186063
0.0171544
0.0133784
0.0133181
0.0170137
0.0183859
0.0185306
0.0170629
0.0132746
0.013215
0.0169233
0.0183118
0.0184548
0.016972
0.0131727
0.0131138
0.0168334
0.0182373
0.0183787
0.0168817
0.0130725
0.0130142
0.0167439
0.0181624
0.0183025
0.0167917
0.0129739
0.012916
0.0166547
0.0180869
0.0182259
0.0167022
0.0128767
0.0128192
0.0165656
0.018011
0.018149
0.0166129
0.0127807
0.0127235
0.0164767
0.0179345
0.0180717
0.0165237
0.0126857
0.0126288
0.0163878
0.0178573
0.017994
0.0164346
0.0125917
0.012535
0.0162987
0.0177795
0.0179157
0.0163454
0.0124985
0.0124419
0.0162096
0.0177009
0.0178369
0.0162562
0.0124059
0.0123493
0.0161202
0.0176215
0.0177574
0.0161668
0.0123138
0.0122573
0.0160304
0.0175412
0.0176772
0.0160771
0.0122221
0.0121655
0.0159403
0.01746
0.0175962
0.015987
0.0121306
0.012074
0.0158496
0.0173779
0.0175144
0.0158965
0.0120393
0.0119825
0.0157584
0.0172946
0.0174317
0.0158054
0.011948
0.011891
0.0156665
0.0172103
0.017348
0.0157137
0.0118566
0.0117993
0.0155738
0.0171248
0.0172633
0.0156213
0.011765
0.0117074
0.0154803
0.0170381
0.0171774
0.015528
0.0116731
0.0116151
0.0153859
0.01695
0.0170904
0.0154339
0.0115808
0.0115225
0.0152904
0.0168605
0.0170021
0.0153388
0.011488
0.0114292
0.0151939
0.0167697
0.0169125
0.0152427
0.0113946
0.0113353
0.0150963
0.0166773
0.0168217
0.0151455
0.0113005
0.0112407
0.0149974
0.0165834
0.0167294
0.0150472
0.0112055
0.011145
0.0148973
0.0164879
0.0166357
0.0149477
0.0111094
0.0110482
0.0147958
0.0163908
0.0165405
0.0148468
0.0110122
0.0109503
0.014693
0.016292
0.0164437
0.0147445
0.0109138
0.0108512
0.0145886
0.0161915
0.0163452
0.0146407
0.0108143
0.0107509
0.0144826
0.0160891
0.016245
0.0145353
0.0107136
0.0106495
0.014375
0.0159849
0.0161429
0.0144283
0.0106117
0.0105469
0.0142656
0.0158787
0.016039
0.0143196
0.0105086
0.0104431
0.0141545
0.0157705
0.0159331
0.0142091
0.0104043
0.010338
0.0140416
0.0156603
0.0158252
0.0140969
0.0102987
0.0102316
0.0139268
0.0155479
0.0157152
0.0139827
0.0101918
0.0101238
0.0138101
0.0154332
0.0156031
0.0138666
0.0100835
0.0100147
0.0136914
0.0153164
0.0154888
0.0137486
0.00997376
0.00990418
0.0135707
0.0151972
0.0153723
0.0136286
0.00986257
0.00979214
0.0134478
0.0150757
0.0152536
0.0135065
0.00974989
0.00967859
0.0133229
0.0149518
0.0151325
0.0133822
0.00963566
0.00956348
0.0131958
0.0148255
0.015009
0.0132559
0.00951985
0.00944678
0.0130665
0.0146967
0.0148832
0.0131273
0.00940246
0.0093285
0.012935
0.0145656
0.0147549
0.0129966
0.00928348
0.00920862
0.0128013
0.014432
0.0146241
0.0128636
0.00916291
0.00908717
0.0126655
0.014296
0.014491
0.0127285
0.00904079
0.00896418
0.0125275
0.0141576
0.0143553
0.0125912
0.00891714
0.00883969
0.0123874
0.0140168
0.0142173
0.0124518
0.00879201
0.00871375
0.0122453
0.0138738
0.0140768
0.0123103
0.00866548
0.00858644
0.0121012
0.0137286
0.013934
0.0121669
0.00853762
0.00845787
0.0119553
0.0135813
0.0137889
0.0120215
0.00840855
0.00832815
0.0118077
0.013432
0.0136417
0.0118743
0.00827841
0.00819743
0.0116585
0.0132809
0.0134924
0.0117255
0.00814736
0.00806589
0.0115079
0.0131283
0.0133412
0.0115753
0.00801558
0.00793374
0.0113563
0.0129743
0.0131882
0.0114239
0.0078833
0.00780123
0.0112039
0.0128193
0.0130338
0.0112715
0.00775082
0.00766866
0.011051
0.0126635
0.0128781
0.0111185
0.00761843
0.00753637
0.0108979
0.0125075
0.0127215
0.0109653
0.0074865
0.00740475
0.0107453
0.0123515
0.0125643
0.0108122
0.00735545
0.00727424
0.0105935
0.0121962
0.0124069
0.0106597
0.00722574
0.00714533
0.0104431
0.012042
0.01225
0.0105085
0.00709788
0.00701855
0.0102948
0.0118897
0.0120938
0.010359
0.00697243
0.0068945
0.0101492
0.0117399
0.0119392
0.010212
0.00685001
0.00677381
0.0100071
0.0115934
0.0117867
0.0100681
0.00673128
0.0066572
0.0098693
0.011451
0.0116371
0.0099283
0.00661699
0.00654541
0.00973664
0.0113134
0.0114913
0.0097933
0.00650785
0.0064391
0.00960997
0.0111815
0.01135
0.009664
0.0064045
0.00633895
0.00949019
0.0110563
0.0112141
0.00954124
0.00630766
0.0062457
0.00937816
0.0109386
0.0110845
0.00942591
0.00621809
0.00616013
0.00927472
0.0108293
0.0109621
0.00931887
0.00613655
0.00608295
0.00918064
0.0107291
0.0108477
0.00922095
0.00606371
0.00601477
0.00909664
0.0106386
0.0107424
0.00913289
0.0060001
0.00595607
0.00902328
0.0105586
0.0106467
0.00905534
0.00594615
0.0059072
0.00896106
0.0104895
0.0105614
0.00898878
0.00590217
0.0058686
0.00891058
0.0104319
0.0104867
0.00893302
0.00586846
0.00584649
0.00887557
0.0103856
0.0104237
0.00888901
0.00584638
0.00583467
0.00885156
0.0103507
0.0103726
0.0088568
0.00583458
0.00583237
0.0088387
0.0103272
0.0103336
0.0088363
0.0058323
0.005839
0.00883676
0.0103149
0.0103065
0.00882723
0.00583895
0.00585379
0.00884506
0.0103133
0.0102909
0.00882889
0.00585376
0.00587628
0.00886297
0.0103216
0.0102864
0.00884149
0.00587742
0.00590627
0.00888972
0.0103395
0.010293
0.00886558
0.00591131
0.00594211
0.00892342
0.0103658
0.01031
0.00889771
0.00594977
0.00598241
0.00896457
0.0104011
0.0103368
0.00893735
0.0059921
0.00602731
0.0090129
0.0104436
0.0103713
0.00898356
0.00603887
0.00607543
0.00906559
0.0104911
0.0104128
0.00903515
0.00608824
0.00612585
0.00912301
0.0105444
0.0104613
0.00909173
0.00613989
0.00617786
0.00918294
0.0106015
0.0105152
0.00915139
0.00619239
0.00623017
0.00924517
0.0106608
0.0105735
0.00921381
0.00624437
0.00628166
0.00930847
0.0107222
0.0106351
0.00927753
0.00629524
0.00633218
0.00937216
0.0107848
0.0106984
0.00934153
0.00634504
0.00638159
0.00943571
0.0108481
0.0107631
0.00940543
0.00639351
0.0064293
0.00949816
0.0109111
0.0108284
0.00946851
0.00644002
0.00647448
0.00955884
0.0109731
0.0108936
0.00953031
0.00648364
0.00651662
0.00961762
0.0110337
0.010958
0.00959032
0.00652428
0.00655575
0.00967397
0.0110924
0.0110209
0.00964793
0.00656194
0.00659191
0.00972754
0.0111489
0.0110818
0.00970276
0.00659668
0.00662516
0.00977808
0.0112029
0.0111403
0.00975453
0.00662857
0.00665559
0.00982542
0.011254
0.011196
0.00980309
0.00665771
0.00668332
0.0098695
0.0113022
0.0112487
0.00984834
0.00668425
0.00670858
0.00991034
0.0113474
0.0112982
0.00989041
0.00670867
0.0067317
0.00994804
0.0113896
0.0113444
0.00992975
0.00673179
0.00675285
0.00998258
0.0114288
0.0113875
0.00996586
0.00675294
0.00677213
0.0100141
0.011465
0.0114273
0.0099989
0.00677221
0.00678966
0.0100429
0.0114984
0.0114641
0.010029
0.00678974
0.00680562
0.0100691
0.0115293
0.0114981
0.0100565
0.00680569
0.00682015
0.010093
0.0115577
0.0115292
0.0100815
0.00682022
0.00683343
0.0101147
0.0115837
0.0115578
0.0101042
0.0068335
0.00684572
0.0101346
0.0116077
0.011584
0.0101249
0.00684579
0.00685719
0.0101528
0.0116298
0.0116079
0.0101437
0.00685726
0.00686793
0.0101695
0.0116501
0.0116298
0.0101609
0.00686799
0.00687812
0.0101849
0.011669
0.0116501
0.0101767
0.00687818
0.00688779
0.0101991
0.0116864
0.0116688
0.0101914
0.00688785
0.00689701
0.0102123
0.0117025
0.011686
0.0102049
0.00689706
0.00690582
0.0102245
0.0117174
0.0117019
0.0102174
0.00690587
0.00691428
0.0102359
0.0117313
0.0117166
0.0102291
0.00691433
0.00692245
0.0102466
0.0117442
0.0117303
0.01024
0.00692249
0.00693034
0.0102567
0.0117561
0.0117429
0.0102503
0.00693039
0.00693796
0.0102662
0.0117673
0.0117548
0.0102601
0.006938
0.00694528
0.0102751
0.0117779
0.0117659
0.0102692
0.00694532
0.00695232
0.0102836
0.0117878
0.0117764
0.0102779
0.00695237
0.00695908
0.0102916
0.0117972
0.0117862
0.0102862
0.00695912
0.00696556
0.0102993
0.0118061
0.0117956
0.0102941
0.0069656
0.00697177
0.0103066
0.0118146
0.0118046
0.0103016
0.00697181
0.00697776
0.0103136
0.0118227
0.0118131
0.0103088
0.0069778
0.00698355
0.0103204
0.0118307
0.0118213
0.0103157
0.00698359
0.00698923
0.0103272
0.0118386
0.0118292
0.0103226
0.00698927
0.00699493
0.0103341
0.0118466
0.011837
0.0103294
0.00699497
0.00700089
0.0103414
0.011855
0.0118446
0.0103363
0.00700093
0.00700772
0.01035
0.0118647
0.0118518
0.0103432
0.00700776
0.00700565
0.0103425
0.0118546
0.0117709
0.0102658
0.00696724
0.00705125
0.0103122
0.011813
0.011469
0.00996327
0.00682159
0.00700427
0.0102318
0.0117718
0.011228
0.009725
0.00663137
0.00752292
0.0109205
0.012542
0.0119491
0.0102301
0.00702811
0.00841991
0.0117325
0.0130492
0.0136095
0.011645
0.00807231
0.00899951
0.0125796
0.0142583
0.0159861
0.0166696
0.0166836
0.0168766
0.0168376
0.0168768
0.0169917
0.0170354
0.0171468
0.0172189
0.017288
0.0173433
0.0173951
0.0174382
0.0174786
0.0175127
0.0175445
0.0175716
0.0175967
0.0176179
0.0176374
0.0176535
0.0176679
0.0176793
0.0176886
0.017695
0.017699
0.0176998
0.0176973
0.017691
0.0176797
0.0176506
0.0176346
0.0177361
0.0179403
0.0185183
0.0194709
0.0217832
0.0269388
0.0388735
0.0570167
0.0437562
0.0366902
0.0347538
0.0315849
0.0260924
0.021361
0.0117423
0.0106244
0.0200856
0.0254525
0.0239424
0.0198201
0.0110127
0.00902037
0.017003
0.0209422
0.0214368
0.0177356
0.00967827
0.00884666
0.0167465
0.0209047
0.0215459
0.0175995
0.00953934
0.00917905
0.0173063
0.0213443
0.0219398
0.0179691
0.00942261
0.00937567
0.0177561
0.0218849
0.0219441
0.0178205
0.00945624
0.00948382
0.0179049
0.0220492
0.0220557
0.0179134
0.00949137
0.00950196
0.0179279
0.0220717
0.0220777
0.0179363
0.00951024
0.0095211
0.0179509
0.0220931
0.0220999
0.01796
0.00952996
0.00954155
0.0179753
0.0221162
0.0221229
0.0179847
0.00955078
0.00956245
0.0179999
0.0221389
0.0221461
0.0180097
0.00957203
0.00958422
0.0180256
0.0221628
0.02217
0.0180354
0.00959402
0.00960619
0.0180511
0.0221863
0.022194
0.0180615
0.00961627
0.00962892
0.0180777
0.022211
0.0222185
0.0180881
0.00963918
0.00965178
0.0181042
0.0222352
0.0222433
0.018115
0.00966231
0.00967536
0.0181317
0.0222606
0.0222685
0.0181424
0.00968605
0.00969903
0.0181589
0.0222855
0.0222939
0.0181701
0.00970997
0.00972339
0.0181871
0.0223115
0.0223198
0.0181983
0.00973447
0.0097478
0.0182151
0.022337
0.0223458
0.0182267
0.00975912
0.00977287
0.018244
0.0223636
0.0223722
0.0182556
0.00978432
0.00979798
0.0182727
0.0223897
0.0223989
0.0182847
0.00980968
0.00982376
0.0183023
0.022417
0.022426
0.0183143
0.00983557
0.00984957
0.0183317
0.0224437
0.0224533
0.0183442
0.00986163
0.00987605
0.0183621
0.0224717
0.0224811
0.0183745
0.00988825
0.0099026
0.0183923
0.0224992
0.0225091
0.0184052
0.00991506
0.00992985
0.0184235
0.0225279
0.0225377
0.0184364
0.00994247
0.00995719
0.0184545
0.0225562
0.0225666
0.0184679
0.00997012
0.00998529
0.0184866
0.0225857
0.022596
0.0185
0.00999839
0.0100135
0.0185186
0.0226149
0.0226258
0.0185325
0.0100269
0.0100425
0.0185516
0.0226453
0.0226561
0.0185655
0.0100561
0.0100717
0.0185845
0.0226754
0.0226867
0.0185989
0.0100855
0.0101016
0.0186185
0.0227068
0.0227181
0.0186329
0.0101156
0.0101316
0.0186524
0.0227378
0.0227498
0.0186673
0.0101459
0.0101625
0.0186874
0.0227703
0.0227822
0.0187023
0.010177
0.0101935
0.0187224
0.0228025
0.0228151
0.0187379
0.0102084
0.0102254
0.0187585
0.0228362
0.0228488
0.0187742
0.0102405
0.0102575
0.0187947
0.0228696
0.022883
0.0188109
0.0102729
0.0102904
0.0188321
0.0229047
0.0229182
0.0188483
0.010306
0.0103236
0.0188696
0.0229397
0.0229539
0.0188864
0.0103396
0.0103577
0.0189083
0.0229763
0.0229907
0.0189253
0.0103739
0.0103921
0.0189473
0.0230131
0.0230282
0.0189649
0.0104087
0.0104275
0.0189876
0.0230516
0.023067
0.0190054
0.0104443
0.0104632
0.0190282
0.0230902
0.0231065
0.0190466
0.0104804
0.0104999
0.0190702
0.0231309
0.0231474
0.019089
0.0105174
0.010537
0.0191127
0.0231719
0.0231893
0.0191321
0.0105549
0.0105751
0.0191567
0.023215
0.0232328
0.0191764
0.0105934
0.0106137
0.0192013
0.0232588
0.0232777
0.0192217
0.0106324
0.0106534
0.0192475
0.0233049
0.0233243
0.0192683
0.0106724
0.0106936
0.0192944
0.023352
0.0233726
0.0193161
0.0107131
0.0107349
0.0193432
0.0234017
0.0234229
0.0193653
0.0107547
0.0107768
0.0193929
0.0234528
0.0234753
0.0194159
0.0107971
0.0108198
0.0194445
0.0235068
0.0235303
0.0194682
0.0108405
0.0108635
0.0194973
0.0235627
0.0235879
0.019522
0.0108847
0.0109084
0.0195524
0.0236221
0.0236486
0.0195778
0.0109299
0.0109537
0.0196087
0.023684
0.0237126
0.0196353
0.0109756
0.0109996
0.0196674
0.0237502
0.0237806
0.0196948
0.0110214
0.0110451
0.0197276
0.0238199
0.0238529
0.0197561
0.0110664
0.0110894
0.0197902
0.0238952
0.0239307
0.0198197
0.0111096
0.0111307
0.0198546
0.0239757
0.0240148
0.0198853
0.0111485
0.0111669
0.0199217
0.0240639
0.0241072
0.0199537
0.011181
0.0111947
0.0199915
0.0241607
0.0242097
0.0200257
0.0112036
0.0112115
0.0200662
0.0242698
0.0243259
0.0201035
0.0112142
0.0112156
0.0201476
0.0243938
0.0244594
0.0201937
0.0112157
0.0112109
0.0202468
0.024538
0.0246157
0.0203039
0.011203
0.0111884
0.0203685
0.0247087
0.0248041
0.020438
0.0111741
0.0111613
0.0205153
0.0249167
0.0250325
0.0206075
0.0111706
0.0111981
0.020718
0.0251666
0.0253071
0.0208411
0.0112432
0.0113142
0.0209885
0.0254684
0.0256404
0.0211557
0.0114137
0.0115516
0.0213553
0.0258377
0.0260529
0.0215861
0.0117336
0.0119703
0.0218576
0.0262959
0.0265701
0.0222186
0.0123213
0.0127055
0.0226659
0.0268821
0.0271372
0.0229489
0.013081
0.0133031
0.0230861
0.0273918
0.0273645
0.0233601
0.0135797
0.0138958
0.0236182
0.0276907
0.0281155
0.0241864
0.014587
0.0148362
0.0242505
0.0280685
0.0283318
0.0245865
0.0153866
0.0157956
0.0249417
0.0287333
0.0287401
0.0253678
0.0164727
0.0168927
0.0255977
0.0291032
0.0292448
0.0260563
0.0176472
0.0181798
0.0264616
0.0297863
0.0303446
0.0272183
0.0192705
0.020099
0.027996
0.0307774
0.0307415
0.0286071
0.0212419
0.0208438
0.0261256
0.0264843
0.0841214
0.0584398
0.030168
0.0158527
0.0331484
0.0502284
0.0325262
0.0269787
0.0146413
0.0134748
0.0243728
0.0286184
0.029606
0.0249393
0.0140148
0.0140332
0.0242566
0.0284483
0.0293713
0.0249549
0.0145958
0.0147873
0.0246928
0.0286519
0.0297993
0.0257202
0.0160372
0.0164599
0.025413
0.0292123
0.0301849
0.0266597
0.0176481
0.0187559
0.0272501
0.0306771
0.0311513
0.027891
0.0197104
0.0212808
0.0287762
0.0313826
0.0280599
0.0273977
0.0215919
0.030364
0.0573493
0.0815993
0.0523754
0.0361601
0.0191127
0.0180044
0.0295949
0.0357479
0.0321855
0.0277859
0.0177818
0.0182317
0.0275594
0.0313458
0.0309622
0.0273933
0.0183832
0.0191264
0.0275788
0.0308412
0.0311438
0.0282601
0.0202514
0.0205094
0.0283556
0.0315036
0.0313008
0.029082
0.0220682
0.0215948
0.0265572
0.0265597
0.0812711
0.0573285
0.0309194
0.0199646
0.0365562
0.0523376
0.0347725
0.0296701
0.0187193
0.0179752
0.0270775
0.0306368
0.0317191
0.028443
0.0195925
0.0200655
0.0284251
0.0312605
0.0321316
0.0288729
0.0208151
0.0221285
0.0295
0.0316882
0.0280865
0.0276164
0.0221856
0.0310694
0.0570703
0.0800874
0.0543554
0.0380258
0.0213989
0.0213445
0.0320166
0.0372159
0.0331845
0.0293634
0.0206327
0.0222738
0.0302392
0.033011
0.0320646
0.0292611
0.0220252
0.0233691
0.0298257
0.0317251
0.0267742
0.0271505
0.0225996
0.0325442
0.0577506
0.0804606
0.0544627
0.0391421
0.0233494
0.0225874
0.0328478
0.0377261
0.0322668
0.0295312
0.0217988
0.0231222
0.0295368
0.0311384
0.027161
0.0274132
0.0228649
0.0315124
0.0559304
0.0778792
0.0546055
0.0389304
0.0230415
0.0224035
0.0323345
0.0371987
0.0335606
0.0305793
0.0226306
0.0227951
0.0297323
0.0323349
0.0318377
0.0299858
0.0237233
0.0234105
0.0267694
0.0259512
0.0772644
0.0564562
0.0324427
0.0245029
0.0398915
0.054328
0.0362664
0.0322238
0.023631
0.0240122
0.030352
0.0319481
0.0271399
0.0274774
0.0237383
0.0321357
0.0544271
0.0742566
0.0548645
0.0403393
0.0252655
0.0249731
0.0336379
0.0375558
0.0327478
0.0304556
0.0242038
0.0235055
0.0263601
0.0253921
0.0728874
0.0534872
0.0319905
0.025458
0.0396176
0.0529557
0.0345917
0.0315277
0.0243251
0.0224083
0.025391
0.0245847
0.0687828
0.0512011
0.0311767
0.0260662
0.0394914
0.0522424
0.034067
0.0310066
0.0241025
0.0228843
0.0253415
0.0241495
0.0632548
0.0480396
0.0305111
0.0245504
0.0363129
0.0465036
0.0248928
0.0253491
0.0221921
0.0279734
0.0441851
0.0573583
0.0426994
0.0334328
0.0225343
0.0199274
0.0222018
0.021372
0.0488571
0.0380283
0.0247819
0.0183828
0.0256607
0.0323999
0.0139715
0.0155551
0.0151462
0.0174166
0.0254246
0.0309563
0.0101614
0.010322
0.00961079
0.00959245
0.0153401
0.0196558
0.011662
0.00915373
0.00526339
0.00982269
0.0146868
0.0177365
0.0269851
0.0237224
0.0183242
0.0269989
0.0321807
0.0349199
0.0470251
0.0436173
0.0370849
0.042558
0.0494851
0.0542519
0.0536994
0.053438
0.047354
0.0601391
0.082057
0.0976309
0.0941674
0.0790646
0.0580705
0.0614064
0.0834905
0.0986912
0.10052
0.0854348
0.0621353
0.0607882
0.0831986
0.0986405
0.101405
0.0829767
0.059412
0.0570645
0.0799884
0.0965364
0.103724
0.0836419
0.058619
0.054748
0.0758432
0.0905233
0.106119
0.0874186
0.0607335
0.0515618
0.0620259
0.0645812
0.104489
0.0802132
0.0549157
0.0575018
0.0876979
0.114356
0.0604362
0.0577451
0.0478099
0.0534825
0.079648
0.104837
0.111807
0.0847595
0.0550139
0.0497748
0.0696689
0.0843226
0.104183
0.0824822
0.0550786
0.0457441
0.0557644
0.0591668
0.0959885
0.0738214
0.049199
0.0531496
0.0845014
0.111859
0.0570187
0.0542749
0.044122
0.0484754
0.072502
0.0940852
0.109008
0.0831871
0.0523852
0.0422144
0.0515154
0.0547899
0.0921024
0.0702916
0.04632
0.0515295
0.0821935
0.109107
0.0549617
0.0519606
0.0421773
0.0456926
0.0694425
0.0914821
0.107576
0.0808937
0.0502593
0.0410246
0.0505789
0.0534414
0.0892296
0.0678633
0.0448485
0.0496111
0.0802236
0.106854
0.0531446
0.0500309
0.0405571
0.0436386
0.0664102
0.0869821
0.105206
0.0796247
0.0490758
0.0378531
0.0443003
0.044954
0.0601663
0.0527401
0.0395864
0.0424083
0.0659093
0.0888452
0.105565
0.0776295
0.0467721
0.0371783
0.0468854
0.0498062
0.0859055
0.0645207
0.0416126
0.0466575
0.0764003
0.104043
0.0507339
0.0474715
0.0376992
0.0410129
0.064439
0.086999
0.104599
0.0773898
0.0467603
0.0380783
0.048183
0.0515561
0.0865466
0.0640559
0.0411784
0.0470247
0.0769124
0.103097
0.0506397
0.0474142
0.0377095
0.0415196
0.0646892
0.0863272
0.103226
0.0767069
0.0467905
0.0378965
0.0477893
0.0508329
0.0856987
0.0645493
0.0419935
0.0468659
0.0768394
0.103311
0.0508286
0.0475992
0.0379778
0.04166
0.0647047
0.0858672
0.101675
0.0760165
0.0466883
0.0377216
0.0476258
0.0507804
0.0854042
0.0634424
0.0409967
0.0466926
0.0764818
0.102652
0.0504829
0.0477075
0.0383931
0.0410783
0.0640212
0.0855844
0.10106
0.0761898
0.0463214
0.0380711
0.0481127
0.0511617
0.0846234
0.0636552
0.0412706
0.0464125
0.0760568
0.101842
0.050716
0.047612
0.0379601
0.0410996
0.0640189
0.0855346
0.101696
0.0761267
0.0465342
0.0380814
0.0478651
0.0510205
0.0851464
0.0643525
0.0414224
0.0462317
0.0763748
0.101508
0.0510966
0.0477179
0.0376285
0.0412692
0.0639977
0.0845872
0.101773
0.0761075
0.0464916
0.0382717
0.0480841
0.0514469
0.0860557
0.0644999
0.0417256
0.0467598
0.0761791
0.10228
0.0508889
0.0473877
0.0377675
0.0420027
0.0650266
0.0862938
0.101398
0.0755334
0.0463795
0.0379796
0.0480481
0.0513082
0.0851295
0.0643848
0.0414476
0.0464099
0.0769103
0.102163
0.0509414
0.0477883
0.0377695
0.0418226
0.0650417
0.0868171
0.102762
0.0765454
0.0465243
0.0387148
0.0486057
0.0514479
0.0877384
0.065807
0.0419877
0.0471451
0.0776126
0.103122
0.0520023
0.0488765
0.0385631
0.0419742
0.0668449
0.0914661
0.101447
0.0753031
0.0461304
0.0423036
0.0612578
0.0755738
0.094542
0.0740059
0.0473952
0.0402887
0.050435
0.0536947
0.0884595
0.0658943
0.0426577
0.0474125
0.0773241
0.10277
0.0529483
0.0497116
0.0395754
0.0430025
0.0656854
0.0881487
0.102965
0.0766109
0.0477266
0.0389648
0.0488047
0.0518683
0.0885183
0.0665938
0.0429059
0.0480134
0.0779267
0.103763
0.0528246
0.049613
0.0393608
0.0445744
0.0696888
0.0929387
0.10314
0.0776081
0.0478727
0.0430264
0.0625692
0.0766155
0.0956149
0.0751531
0.0482637
0.040599
0.0515245
0.0549735
0.0902626
0.067994
0.0444307
0.0482195
0.0782516
0.104306
0.0539006
0.0506392
0.0406458
0.0443497
0.0687958
0.0917451
0.106463
0.0804044
0.0495466
0.0410355
0.0519275
0.0550663
0.0943535
0.0705746
0.0452235
0.048431
0.0791509
0.104447
0.078954
0.0647379
0.0444936
0.0496377
0.0770168
0.0975461
0.0564898
0.0530951
0.0423584
0.0455911
0.0698525
0.0933298
0.106637
0.080492
0.0503072
0.0417479
0.0519282
0.0552499
0.0965917
0.072163
0.0462772
0.0496482
0.0801152
0.106194
0.079232
0.0654048
0.0451552
0.0501654
0.0776077
0.0984842
0.0571421
0.0535235
0.042947
0.0470073
0.0717627
0.0950394
0.109062
0.0821695
0.0517637
0.0425188
0.0537996
0.0571602
0.098256
0.0740185
0.0477412
0.0498826
0.081044
0.107507
0.0807332
0.0667201
0.0456823
0.0508993
0.0788576
0.100172
0.058687
0.0551669
0.0438598
0.0483476
0.0750968
0.100308
0.108752
0.0832197
0.0522116
0.0478495
0.0682999
0.0827798
0.101367
0.0798505
0.0521202
0.0450287
0.0564904
0.0604903
0.101611
0.0764015
0.0495112
0.0521706
0.0826255
0.109409
0.0838997
0.0683061
0.0477971
0.0524791
0.0801311
0.101452
0.060264
0.0564979
0.0450157
0.0495466
0.0746884
0.0993218
0.111979
0.0850415
0.0538083
0.0448711
0.0559712
0.0589338
0.102254
0.0774707
0.0499714
0.0527821
0.0852383
0.111484
0.0848214
0.069441
0.0482163
0.0529959
0.0813107
0.103532
0.0608809
0.0570647
0.0455666
0.0500329
0.0778161
0.104868
0.111042
0.0842079
0.0531228
0.0488653
0.0709289
0.0865876
0.103692
0.0814664
0.0530521
0.0459186
0.0579914
0.0619026
0.105374
0.0778654
0.0506382
0.0538058
0.0846875
0.114531
0.086802
0.0711983
0.0495024
0.0546898
0.0832121
0.105537
0.0630474
0.058699
0.0473473
0.0515741
0.0807485
0.108233
0.115815
0.0874746
0.0548487
0.0506869
0.0732412
0.08968
0.107077
0.0843079
0.0555984
0.0478472
0.0597616
0.0637257
0.107671
0.0810297
0.0525728
0.0544664
0.0867235
0.114161
0.0897223
0.073118
0.0505449
0.0559058
0.0855821
0.106886
0.0643998
0.0601703
0.0481204
0.054016
0.0834679
0.109777
0.116133
0.0894669
0.0561958
0.0530012
0.0776268
0.0944027
0.107041
0.0859301
0.0569111
0.0537448
0.0763282
0.0916292
0.107759
0.0866872
0.057987
0.0508559
0.0632152
0.0671114
0.111554
0.0841378
0.0549087
0.0579002
0.0906138
0.118777
0.0923989
0.0766276
0.0541853
0.0582219
0.0877527
0.109986
0.0671035
0.0624607
0.0501552
0.0548211
0.0841581
0.112258
0.117793
0.0908338
0.0582409
0.0548294
0.0795527
0.0968971
0.109139
0.0868003
0.0579045
0.0547014
0.07838
0.0951348
0.110821
0.0886559
0.0589267
0.0517871
0.064045
0.0685597
0.115367
0.0863865
0.0560007
0.0582676
0.0919378
0.12175
0.0949697
0.077445
0.0543748
0.0600974
0.0901333
0.113918
0.0683088
0.0643229
0.052125
0.0569472
0.0869202
0.117071
0.121841
0.0926688
0.0592567
0.0563136
0.0812006
0.0999293
0.11282
0.0893466
0.0598532
0.0565458
0.0799254
0.097509
0.112278
0.0908642
0.0615273
0.0537958
0.0668718
0.0714969
0.118468
0.0890405
0.0590533
0.0614153
0.0952919
0.124645
0.0980399
0.0812978
0.0577669
0.0622381
0.0925678
0.116436
0.0705147
0.066554
0.0540679
0.0580621
0.0895987
0.121006
0.12524
0.0961343
0.0613079
0.0582208
0.0839077
0.102871
0.114752
0.0919555
0.0617523
0.0581468
0.0823192
0.100146
0.115332
0.0911664
0.0614463
0.0538121
0.0672139
0.0716735
0.122099
0.0921535
0.0606474
0.0623319
0.097406
0.127702
0.104354
0.0841485
0.0579918
0.061097
0.0921303
0.116401
0.102165
0.0833776
0.058584
0.0634838
0.0944572
0.117128
0.0733737
0.0685853
0.0556688
0.060745
0.0941613
0.12511
0.129073
0.0994768
0.0633103
0.0596758
0.0863672
0.107677
0.118914
0.0937974
0.0632962
0.0609664
0.0878942
0.10753
0.117629
0.0941089
0.0637949
0.0604356
0.0855947
0.104306
0.119448
0.0961787
0.0656464
0.0570568
0.0706541
0.0762508
0.125997
0.0951672
0.062632
0.0648221
0.0993742
0.128646
0.108303
0.0881951
0.0623107
0.0651834
0.0959064
0.120789
0.105629
0.0865604
0.0616953
0.0666164
0.0980243
0.121081
0.0771055
0.0720615
0.0582815
0.0654656
0.0978477
0.129016
0.133144
0.102072
0.0670164
0.062855
0.0905222
0.110061
0.122341
0.0973606
0.0654984
0.0622862
0.0886165
0.107271
0.12205
0.0995048
0.0674263
0.0594167
0.0737919
0.0785402
0.130253
0.099904
0.0662086
0.0671468
0.103148
0.134409
0.111327
0.0910643
0.063439
0.0667738
0.0980329
0.122658
0.11293
0.0917424
0.0643984
0.0681655
0.0993293
0.123684
0.109406
0.0896626
0.0639047
0.0697453
0.10105
0.12449
0.0796857
0.0745232
0.0609251
0.066667
0.101653
0.13508
0.136904
0.106169
0.0686871
0.0657479
0.0944989
0.115559
0.125957
0.100925
0.0688205
0.0662893
0.0948428
0.116127
0.125168
0.101461
0.0692829
0.0659957
0.0916646
0.11161
0.127929
0.103227
0.0711942
0.0626244
0.0767294
0.0824444
0.135945
0.102464
0.0687777
0.0703515
0.106833
0.138986
0.116351
0.0949316
0.0659963
0.0693769
0.102871
0.127016
0.113337
0.0935963
0.0670572
0.0721207
0.104707
0.12976
0.0818998
0.0770583
0.0629501
0.0699913
0.104828
0.138674
0.143084
0.109303
0.071576
0.0683166
0.0976422
0.119495
0.129719
0.10457
0.0711673
0.0682696
0.098005
0.120011
0.128821
0.105005
0.0719956
0.0688181
0.0985158
0.120528
0.129852
0.106477
0.0730943
0.0686567
0.0961442
0.11676
0.132531
0.107127
0.0739306
0.0654004
0.0801764
0.0857914
0.142349
0.108027
0.0720375
0.0738338
0.112152
0.144552
0.121769
0.0994994
0.0696371
0.0722868
0.106612
0.131842
0.121584
0.0994631
0.0701367
0.0739072
0.106666
0.131081
0.118265
0.0977166
0.0702026
0.0752439
0.108558
0.135376
0.0862331
0.0807233
0.0658451
0.0732747
0.110332
0.145124
0.147825
0.114935
0.0751155
0.0717965
0.101964
0.124444
0.135838
0.109382
0.0748349
0.0715167
0.102003
0.124786
0.134964
0.108753
0.0748627
0.0715576
0.100013
0.121277
0.136482
0.111395
0.0770507
0.0679706
0.0831272
0.0887237
0.14795
0.112306
0.0747654
0.0761385
0.116237
0.148471
0.126918
0.103616
0.0724138
0.0745863
0.109467
0.136983
0.127311
0.103917
0.0728854
0.0769014
0.110686
0.135474
0.127598
0.104285
0.0735923
0.0776794
0.111468
0.138056
0.123632
0.101915
0.0731848
0.0793337
0.114377
0.14002
0.0899145
0.0842791
0.0692108
0.076986
0.114966
0.151628
0.154864
0.117974
0.0780286
0.0745339
0.106054
0.130087
0.141763
0.112934
0.0774885
0.07534
0.106775
0.130432
0.139404
0.11253
0.078382
0.0754364
0.105079
0.127534
0.142297
0.115075
0.0802123
0.0700827
0.0857012
0.0913599
0.154817
0.116898
0.0776604
0.0801103
0.121484
0.156884
0.132263
0.107513
0.0755134
0.0790682
0.114438
0.143112
0.132333
0.108227
0.0758322
0.0790001
0.114587
0.140481
0.133268
0.108911
0.0767824
0.0813097
0.116236
0.14282
0.128738
0.106228
0.0763656
0.0823642
0.118153
0.14488
0.0936713
0.0878905
0.072275
0.080208
0.119787
0.158223
0.160049
0.124581
0.0829283
0.0778877
0.110732
0.135047
0.14632
0.118391
0.0812092
0.0784773
0.111472
0.136268
0.144127
0.116863
0.0814831
0.0792109
0.11206
0.137108
0.146357
0.119633
0.0833887
0.0790103
0.11004
0.133449
0.14778
0.120519
0.0843698
0.074387