/*--------------------------------*- C++ -*----------------------------------*\
| =========                 |                                                 |
| \\      /  F ield         | OpenFOAM: The Open Source CFD Toolbox           |
|  \\    /   O peration     | Version:  v2006                                 |
|   \\  /    A nd           | Website:  www.openfoam.com                      |
|    \\/     M anipulation  |                                                 |
\*---------------------------------------------------------------------------*/
FoamFile
{
    version     2.0;
    format      ascii;
    class       volScalarField;
    location    "0.032";
    object      turbulenceProperties:L;
}
// * * * * * * * * * * * * * * * * * * * * * * * * * * * * * * * * * * * * * //

dimensions      [0 1 0 0 0 0 0];


internalField   nonuniform List<scalar> 
41981
(
1999.78
1999.75
1999.84
1999.9
1999.93
1999.92
1999.91
1999.94
1999.92
1999.94
1999.92
1999.86
1999.75
1999.56
1999.31
1999.04
1998.78
1998.55
1998.34
1998.17
1998.01
1997.87
1997.74
1997.62
1997.51
1997.4
1997.29
1997.19
1997.09
1996.99
1996.9
1996.81
1996.73
1996.64
1996.56
1996.48
1996.4
1996.32
1996.24
1996.17
1996.09
1996.01
1995.94
1995.86
1995.79
1995.71
1995.64
1995.57
1995.49
1995.42
1995.35
1995.28
1995.21
1995.14
1995.07
1995.01
1994.94
1994.88
1994.81
1994.75
1994.69
1994.63
1994.58
1994.52
1994.47
1994.41
1994.36
1994.31
1994.26
1994.22
1994.17
1994.13
1994.09
1994.05
1994.02
1993.98
1993.95
1993.92
1993.89
1993.87
1993.85
1993.83
1993.81
1993.79
1993.78
1993.77
1993.76
1993.75
1993.75
1993.75
1993.75
1993.75
1993.76
1993.77
1993.78
1993.79
1993.8
1993.81
1993.81
1993.81
1993.8
1993.77
1993.71
1993.61
1993.44
1993.16
1992.72
1992.04
1991
1989.43
1987.06
1983.51
1978.25
1970.49
1959.11
1942.57
1918.8
1885.07
1838.02
1773.82
1688.66
1579.66
1446.11
1290.75
1120.31
944.641
774.673
619.772
485.952
375.434
287.364
219.015
166.897
127.541
97.926
75.6269
58.9121
47.0112
41.7012
41.5466
36.3972
35.6649
43.1945
67.0884
124.655
269.448
229.296
43.1914
13.8158
4.94693
1.99395
0.886474
0.399692
0.298331
0.351118
0.139716
0.0490697
0.0136296
0.00151384
0.000271829
1.97377e-05
1.8407e-05
0.000128206
0.000578673
0.000304826
8.20766e-05
1.70351e-05
1.60758e-05
7.6417e-05
0.000262532
0.000210379
6.86996e-05
1.56395e-05
1.52892e-05
6.86194e-05
0.000206813
0.000182864
6.3737e-05
1.49612e-05
1.47963e-05
6.51825e-05
0.000182824
0.000171908
6.19979e-05
1.46261e-05
1.43967e-05
6.28148e-05
0.000172659
0.000164114
6.11326e-05
1.42567e-05
1.41718e-05
6.19963e-05
0.000166554
0.000159257
6.06081e-05
1.40621e-05
1.39985e-05
6.12397e-05
0.000161912
0.000155335
5.99781e-05
1.393e-05
1.38959e-05
6.04462e-05
0.000157997
0.000151835
5.9262e-05
1.38461e-05
1.38218e-05
5.96678e-05
0.000154426
0.000148557
5.85173e-05
1.37798e-05
1.37597e-05
5.88737e-05
0.000151067
0.000145432
5.77298e-05
1.37214e-05
1.37033e-05
5.80872e-05
0.000147883
0.000142482
5.69937e-05
1.36676e-05
1.36508e-05
5.73523e-05
0.000144908
0.000139736
5.63033e-05
1.3617e-05
1.36012e-05
5.66635e-05
0.000142153
0.000137199
5.56572e-05
1.3569e-05
1.35539e-05
5.60192e-05
0.000139605
0.000134847
5.50551e-05
1.35232e-05
1.35087e-05
5.54187e-05
0.000137242
0.000132661
5.44933e-05
1.34792e-05
1.34653e-05
5.48592e-05
0.000135047
0.00013063
5.39718e-05
1.34368e-05
1.34233e-05
5.4337e-05
0.000133005
0.000128739
5.34819e-05
1.33958e-05
1.33828e-05
5.38474e-05
0.000131105
0.000126977
5.30231e-05
1.33562e-05
1.33435e-05
5.33893e-05
0.000129329
0.000125326
5.25934e-05
1.33177e-05
1.33054e-05
5.29605e-05
0.000127666
0.000123777
5.21914e-05
1.32802e-05
1.32683e-05
5.2559e-05
0.000126102
0.000122318
5.18142e-05
1.32438e-05
1.32321e-05
5.2182e-05
0.000124629
0.000120942
5.14591e-05
1.32082e-05
1.31968e-05
5.18267e-05
0.000123237
0.000119637
5.11218e-05
1.31733e-05
1.31621e-05
5.14906e-05
0.000121917
0.0001184
5.08017e-05
1.31391e-05
1.31281e-05
5.11723e-05
0.000120665
0.000117225
5.04986e-05
1.31055e-05
1.30946e-05
5.08708e-05
0.000119475
0.000116107
5.0211e-05
1.30723e-05
1.30616e-05
5.05845e-05
0.000118343
0.000115044
4.99375e-05
1.30395e-05
1.3029e-05
5.03121e-05
0.000117266
0.000114032
4.96771e-05
1.30071e-05
1.29966e-05
5.00527e-05
0.000116241
0.000113068
4.94287e-05
1.2975e-05
1.29646e-05
4.98052e-05
0.000115264
0.000112149
4.91917e-05
1.29432e-05
1.29328e-05
4.95689e-05
0.000114331
0.000111271
4.8965e-05
1.29115e-05
1.29012e-05
4.93429e-05
0.000113441
0.000110432
4.87478e-05
1.288e-05
1.28698e-05
4.91263e-05
0.000112588
0.000109627
4.85394e-05
1.28486e-05
1.28384e-05
4.89183e-05
0.00011177
0.000108854
4.8339e-05
1.28172e-05
1.2807e-05
4.87181e-05
0.000110984
0.000108111
4.81458e-05
1.27859e-05
1.27756e-05
4.85251e-05
0.000110227
0.000107394
4.79592e-05
1.27545e-05
1.27442e-05
4.83385e-05
0.000109497
0.000106702
4.77784e-05
1.27229e-05
1.27126e-05
4.81576e-05
0.000108792
0.000106033
4.76028e-05
1.26913e-05
1.26809e-05
4.79819e-05
0.00010811
0.000105385
4.74321e-05
1.26594e-05
1.26489e-05
4.78109e-05
0.000107448
0.000104756
4.72656e-05
1.26273e-05
1.26167e-05
4.76441e-05
0.000106806
0.000104145
4.71029e-05
1.25949e-05
1.25842e-05
4.74812e-05
0.000106183
0.000103552
4.69438e-05
1.25621e-05
1.25513e-05
4.73217e-05
0.000105576
0.000102973
4.67878e-05
1.25289e-05
1.25179e-05
4.71653e-05
0.000104985
0.00010241
4.66349e-05
1.24953e-05
1.24842e-05
4.70118e-05
0.000104409
0.00010186
4.64845e-05
1.24612e-05
1.24499e-05
4.68609e-05
0.000103846
0.000101323
4.63364e-05
1.24266e-05
1.24151e-05
4.67123e-05
0.000103297
0.000100798
4.61905e-05
1.23914e-05
1.23797e-05
4.65657e-05
0.000102759
0.000100284
4.60463e-05
1.23556e-05
1.23436e-05
4.64204e-05
0.000102233
9.97808e-05
4.59027e-05
1.23191e-05
1.23066e-05
4.62748e-05
0.000101719
9.92881e-05
4.57587e-05
1.22818e-05
1.22686e-05
4.61292e-05
0.000101214
9.88047e-05
4.56153e-05
1.22436e-05
1.22298e-05
4.59844e-05
0.00010072
9.83299e-05
4.5473e-05
1.22045e-05
1.21901e-05
4.58408e-05
0.000100233
9.78631e-05
4.53319e-05
1.21645e-05
1.21495e-05
4.56986e-05
9.9755e-05
9.74037e-05
4.51921e-05
1.21236e-05
1.2108e-05
4.55577e-05
9.92842e-05
9.69513e-05
4.50534e-05
1.20817e-05
1.20655e-05
4.54181e-05
9.88205e-05
9.65057e-05
4.49159e-05
1.20388e-05
1.2022e-05
4.52797e-05
9.83636e-05
9.60665e-05
4.47795e-05
1.19949e-05
1.19775e-05
4.51424e-05
9.79133e-05
9.56335e-05
4.46444e-05
1.195e-05
1.19319e-05
4.50062e-05
9.74694e-05
9.52065e-05
4.45099e-05
1.19039e-05
1.18851e-05
4.48707e-05
9.70315e-05
9.47857e-05
4.4376e-05
1.18565e-05
1.18372e-05
4.47358e-05
9.65998e-05
9.43706e-05
4.42426e-05
1.1808e-05
1.17879e-05
4.46015e-05
9.61739e-05
9.3961e-05
4.41095e-05
1.1758e-05
1.17373e-05
4.44677e-05
9.57535e-05
9.35566e-05
4.39768e-05
1.17067e-05
1.16854e-05
4.43344e-05
9.53385e-05
9.31572e-05
4.38443e-05
1.1654e-05
1.16319e-05
4.42014e-05
9.49286e-05
9.27628e-05
4.3712e-05
1.15997e-05
1.1577e-05
4.40687e-05
9.45239e-05
9.23733e-05
4.35798e-05
1.15438e-05
1.15204e-05
4.39364e-05
9.41244e-05
9.19889e-05
4.34478e-05
1.14863e-05
1.14622e-05
4.38044e-05
9.37302e-05
9.16097e-05
4.3316e-05
1.14271e-05
1.14023e-05
4.36728e-05
9.33415e-05
9.12357e-05
4.31845e-05
1.13662e-05
1.13407e-05
4.35416e-05
9.29584e-05
9.08673e-05
4.30533e-05
1.13035e-05
1.12773e-05
4.3411e-05
9.25811e-05
9.05047e-05
4.29224e-05
1.12389e-05
1.12121e-05
4.32808e-05
9.22101e-05
9.01482e-05
4.27919e-05
1.11724e-05
1.1145e-05
4.31523e-05
9.18458e-05
8.97985e-05
4.26622e-05
1.11041e-05
1.10761e-05
4.30254e-05
9.14889e-05
8.94561e-05
4.25332e-05
1.10338e-05
1.10052e-05
4.28991e-05
9.11398e-05
8.91214e-05
4.24046e-05
1.09616e-05
1.09325e-05
4.27737e-05
9.07989e-05
8.87948e-05
4.22768e-05
1.08875e-05
1.0858e-05
4.26496e-05
9.0467e-05
8.84772e-05
4.21503e-05
1.08116e-05
1.07816e-05
4.25273e-05
9.0145e-05
8.81698e-05
4.20256e-05
1.07337e-05
1.07034e-05
4.24071e-05
8.98343e-05
8.78737e-05
4.19029e-05
1.06542e-05
1.06236e-05
4.22895e-05
8.9536e-05
8.75902e-05
4.17829e-05
1.05731e-05
1.05424e-05
4.2175e-05
8.92514e-05
8.73206e-05
4.1666e-05
1.04905e-05
1.04598e-05
4.20642e-05
8.89822e-05
8.70667e-05
4.15529e-05
1.04067e-05
1.03761e-05
4.19576e-05
8.87301e-05
8.68301e-05
4.14442e-05
1.03219e-05
1.02916e-05
4.18559e-05
8.8497e-05
8.66129e-05
4.13405e-05
1.02364e-05
1.02066e-05
4.17598e-05
8.82853e-05
8.64177e-05
4.12428e-05
1.01506e-05
1.01214e-05
4.16701e-05
8.80976e-05
8.62472e-05
4.11519e-05
1.00649e-05
1.00366e-05
4.15879e-05
8.79371e-05
8.61045e-05
4.10694e-05
9.9799e-06
9.95247e-06
4.15143e-05
8.78067e-05
8.59921e-05
4.09965e-05
9.8963e-06
9.86972e-06
4.145e-05
8.77086e-05
8.59115e-05
4.09327e-05
9.81457e-06
9.78895e-06
4.13944e-05
8.76446e-05
8.58639e-05
4.08778e-05
9.73512e-06
9.71065e-06
4.13474e-05
8.76159e-05
8.58508e-05
4.08323e-05
9.65855e-06
9.63552e-06
4.13101e-05
8.76236e-05
8.58729e-05
4.07974e-05
9.58566e-06
9.56434e-06
4.12831e-05
8.7668e-05
8.59302e-05
4.07733e-05
9.51719e-06
9.49783e-06
4.12666e-05
8.7749e-05
8.60223e-05
4.07598e-05
9.45381e-06
9.43661e-06
4.12597e-05
8.78656e-05
8.61477e-05
4.0756e-05
9.39611e-06
9.38126e-06
4.12614e-05
8.80158e-05
8.63041e-05
4.07606e-05
9.34458e-06
9.33221e-06
4.12702e-05
8.81971e-05
8.64891e-05
4.07727e-05
9.29963e-06
9.2899e-06
4.12853e-05
8.84084e-05
8.67028e-05
4.07952e-05
9.2615e-06
9.2558e-06
4.12909e-05
8.86497e-05
8.69345e-05
4.08025e-05
9.23167e-06
9.22909e-06
4.12853e-05
8.88986e-05
8.71709e-05
4.08009e-05
9.20848e-06
9.20888e-06
4.12706e-05
8.91508e-05
8.74099e-05
4.07928e-05
9.19227e-06
9.19581e-06
4.12482e-05
8.94021e-05
8.76481e-05
4.07789e-05
9.18167e-06
9.18857e-06
4.12187e-05
8.9647e-05
8.7881e-05
4.07603e-05
9.17716e-06
9.18731e-06
4.1184e-05
8.98899e-05
8.81079e-05
4.07341e-05
9.17892e-06
9.19199e-06
4.11417e-05
9.01228e-05
8.83186e-05
4.06907e-05
9.18701e-06
9.2019e-06
4.10813e-05
9.0333e-05
8.85014e-05
4.06318e-05
9.19952e-06
9.21602e-06
4.10131e-05
9.05156e-05
8.866e-05
4.05663e-05
9.21588e-06
9.23366e-06
4.09424e-05
9.06724e-05
8.87955e-05
4.04984e-05
9.23534e-06
9.25502e-06
4.0867e-05
9.08025e-05
8.8905e-05
4.04259e-05
9.25813e-06
9.27922e-06
4.0787e-05
9.09068e-05
8.89908e-05
4.03503e-05
9.28383e-06
9.30619e-06
4.07051e-05
9.09847e-05
8.90517e-05
4.0271e-05
9.31191e-06
9.33481e-06
4.062e-05
9.10352e-05
8.90844e-05
4.01889e-05
9.34115e-06
9.36402e-06
4.05319e-05
9.1055e-05
8.90875e-05
4.01051e-05
9.37081e-06
9.39352e-06
4.04434e-05
9.10464e-05
8.90672e-05
4.00229e-05
9.4007e-06
9.42324e-06
4.03577e-05
9.10157e-05
8.90276e-05
3.99447e-05
9.43075e-06
9.45298e-06
4.02762e-05
9.09649e-05
8.89692e-05
3.98708e-05
9.46061e-06
9.48234e-06
4.01987e-05
9.08948e-05
8.88934e-05
3.9794e-05
9.48936e-06
9.51002e-06
4.01215e-05
9.0816e-05
8.88e-05
3.97157e-05
9.51653e-06
9.53625e-06
4.00458e-05
9.07197e-05
8.86923e-05
3.96419e-05
9.54228e-06
9.56109e-06
3.99745e-05
9.06096e-05
8.85737e-05
3.9573e-05
9.56664e-06
9.58456e-06
3.9908e-05
9.04886e-05
8.84468e-05
3.95096e-05
9.58962e-06
9.60666e-06
3.98468e-05
9.03596e-05
8.83141e-05
3.94517e-05
9.61122e-06
9.62739e-06
3.97917e-05
9.0225e-05
8.81794e-05
3.94e-05
9.63147e-06
9.64681e-06
3.97434e-05
9.00887e-05
8.8045e-05
3.93553e-05
9.65049e-06
9.66505e-06
3.97016e-05
8.9953e-05
8.79125e-05
3.93159e-05
9.6685e-06
9.68233e-06
3.96646e-05
8.9819e-05
8.77832e-05
3.92829e-05
9.68549e-06
9.69853e-06
3.96336e-05
8.96884e-05
8.76588e-05
3.92565e-05
9.70141e-06
9.71369e-06
3.96089e-05
8.95633e-05
8.75413e-05
3.92366e-05
9.71629e-06
9.72786e-06
3.95905e-05
8.94458e-05
8.74322e-05
3.92231e-05
9.73022e-06
9.74114e-06
3.9578e-05
8.93369e-05
8.73322e-05
3.92152e-05
9.74327e-06
9.7536e-06
3.95711e-05
8.92372e-05
8.72414e-05
3.92115e-05
9.75551e-06
9.76534e-06
3.95694e-05
8.91468e-05
8.71601e-05
3.92132e-05
9.76706e-06
9.77644e-06
3.9573e-05
8.90661e-05
8.70886e-05
3.92199e-05
9.778e-06
9.78699e-06
3.9581e-05
8.8995e-05
8.70263e-05
3.92308e-05
9.78841e-06
9.79707e-06
3.95929e-05
8.89332e-05
8.69726e-05
3.92451e-05
9.79836e-06
9.80671e-06
3.96077e-05
8.88795e-05
8.69262e-05
3.92615e-05
9.80787e-06
9.81593e-06
3.96248e-05
8.88327e-05
8.68858e-05
3.92795e-05
9.81695e-06
9.82474e-06
3.96436e-05
8.87914e-05
8.68504e-05
3.92989e-05
9.82563e-06
9.83316e-06
3.96634e-05
8.87547e-05
8.68188e-05
3.93191e-05
9.83394e-06
9.84123e-06
3.96837e-05
8.87213e-05
8.67898e-05
3.93395e-05
9.84188e-06
9.84894e-06
3.97039e-05
8.86901e-05
8.67623e-05
3.93594e-05
9.84947e-06
9.85629e-06
3.97234e-05
8.86598e-05
8.6735e-05
3.93783e-05
9.85669e-06
9.86327e-06
3.97417e-05
8.86293e-05
8.6707e-05
3.93958e-05
9.86354e-06
9.86987e-06
3.97584e-05
8.85977e-05
8.66775e-05
3.94116e-05
9.87002e-06
9.8761e-06
3.97733e-05
8.85642e-05
8.66456e-05
3.94255e-05
9.87612e-06
9.88194e-06
3.9786e-05
8.85281e-05
8.66109e-05
3.94372e-05
9.88183e-06
9.88741e-06
3.97965e-05
8.84889e-05
8.65728e-05
3.94466e-05
9.88717e-06
9.89257e-06
3.98047e-05
8.84462e-05
8.65313e-05
3.94537e-05
9.89218e-06
9.89742e-06
3.98106e-05
8.84002e-05
8.64864e-05
3.94586e-05
9.89689e-06
9.90199e-06
3.98143e-05
8.83508e-05
8.64385e-05
3.94616e-05
9.90136e-06
9.90637e-06
3.98161e-05
8.82989e-05
8.63885e-05
3.94631e-05
9.90566e-06
9.91067e-06
3.98167e-05
8.82456e-05
8.63382e-05
3.94642e-05
9.90997e-06
9.91518e-06
3.98176e-05
8.81944e-05
8.62945e-05
3.94698e-05
9.91466e-06
9.92125e-06
3.98277e-05
8.81649e-05
8.61263e-05
3.94063e-05
9.9144e-06
1.00583e-05
4.02108e-05
8.81915e-05
8.63566e-05
3.90332e-05
1.00217e-05
1.00838e-05
4.02977e-05
8.95814e-05
8.76996e-05
4.00001e-05
1.02466e-05
1.08927e-05
4.25535e-05
9.46506e-05
0.000101134
4.49496e-05
1.15687e-05
1.2188e-05
4.60462e-05
0.000101956
0.00010638
4.80738e-05
1.25003e-05
1.28847e-05
4.84806e-05
0.000107882
0.000285211
0.000561818
0.000889834
0.00117353
0.00161532
0.00201549
0.00241806
0.00278439
0.00313674
0.00345966
0.00376383
0.00403997
0.00429289
0.00451684
0.00471383
0.0048802
0.00501665
0.00512115
0.00519386
0.00523386
0.0052409
0.00521527
0.00515713
0.00506779
0.00494709
0.0047977
0.00461919
0.00441573
0.00418625
0.00393692
0.00366538
0.00338001
0.00307724
0.00277074
0.00245252
0.00214481
0.00182936
0.00157809
0.00130483
0.000992174
0.000750346
0.000646505
0.000420465
0.000247091
0.000117992
4.23725e-05
1.74582e-05
3.27776e-06
3.18945e-06
1.73795e-05
4.24839e-05
3.97252e-05
1.65366e-05
3.06491e-06
2.9404e-06
1.64469e-05
3.98353e-05
3.95433e-05
1.62671e-05
2.95779e-06
2.94267e-06
1.62407e-05
3.9332e-05
3.88213e-05
1.61167e-05
2.89319e-06
2.7928e-06
1.59111e-05
3.87037e-05
3.88652e-05
1.59526e-05
2.79638e-06
2.7876e-06
1.57227e-05
3.84841e-05
3.86583e-05
1.58014e-05
2.80011e-06
2.7971e-06
1.57982e-05
3.86619e-05
3.87059e-05
1.58124e-05
2.80005e-06
2.80205e-06
1.58156e-05
3.87216e-05
3.87695e-05
1.58319e-05
2.80486e-06
2.80702e-06
1.58351e-05
3.87866e-05
3.88355e-05
1.58516e-05
2.80994e-06
2.81224e-06
1.58557e-05
3.88536e-05
3.89042e-05
1.5873e-05
2.81525e-06
2.81759e-06
1.58771e-05
3.89231e-05
3.89743e-05
1.58944e-05
2.82068e-06
2.82311e-06
1.58991e-05
3.89938e-05
3.90465e-05
1.59171e-05
2.82626e-06
2.82871e-06
1.59216e-05
3.90664e-05
3.91195e-05
1.59396e-05
2.83192e-06
2.83446e-06
1.59447e-05
3.914e-05
3.91945e-05
1.59633e-05
2.83772e-06
2.84026e-06
1.59681e-05
3.92153e-05
3.92703e-05
1.59867e-05
2.84359e-06
2.84622e-06
1.59921e-05
3.92916e-05
3.93479e-05
1.60113e-05
2.84958e-06
2.85222e-06
1.60164e-05
3.93696e-05
3.94264e-05
1.60356e-05
2.85565e-06
2.85836e-06
1.60413e-05
3.94486e-05
3.95067e-05
1.60611e-05
2.86182e-06
2.86454e-06
1.60666e-05
3.95292e-05
3.95877e-05
1.60863e-05
2.86806e-06
2.87085e-06
1.60924e-05
3.96107e-05
3.96705e-05
1.61127e-05
2.87442e-06
2.87721e-06
1.61185e-05
3.96938e-05
3.97541e-05
1.61388e-05
2.88083e-06
2.88369e-06
1.61451e-05
3.97777e-05
3.98393e-05
1.6166e-05
2.88735e-06
2.89022e-06
1.61721e-05
3.98633e-05
3.99253e-05
1.6193e-05
2.89394e-06
2.89688e-06
1.61996e-05
3.99497e-05
4.0013e-05
1.62211e-05
2.90065e-06
2.90359e-06
1.62274e-05
4.00377e-05
4.01015e-05
1.62489e-05
2.90742e-06
2.91045e-06
1.62558e-05
4.01265e-05
4.01917e-05
1.62779e-05
2.91432e-06
2.91735e-06
1.62845e-05
4.02169e-05
4.02826e-05
1.63066e-05
2.92129e-06
2.92441e-06
1.63138e-05
4.03083e-05
4.03754e-05
1.63366e-05
2.92841e-06
2.93154e-06
1.63435e-05
4.04013e-05
4.0469e-05
1.63663e-05
2.9356e-06
2.93882e-06
1.63739e-05
4.04953e-05
4.05643e-05
1.63974e-05
2.94294e-06
2.94617e-06
1.64046e-05
4.05909e-05
4.06604e-05
1.64282e-05
2.95036e-06
2.95367e-06
1.6436e-05
4.06873e-05
4.07582e-05
1.64603e-05
2.95792e-06
2.96125e-06
1.64678e-05
4.07852e-05
4.08566e-05
1.64922e-05
2.96558e-06
2.969e-06
1.65003e-05
4.08839e-05
4.09567e-05
1.65254e-05
2.97339e-06
2.97683e-06
1.65332e-05
4.09841e-05
4.10574e-05
1.65584e-05
2.98131e-06
2.98484e-06
1.65668e-05
4.10851e-05
4.11597e-05
1.65927e-05
2.98937e-06
2.99293e-06
1.66008e-05
4.11875e-05
4.12626e-05
1.6627e-05
2.99755e-06
3.00119e-06
1.66355e-05
4.12905e-05
4.13669e-05
1.66623e-05
3.00588e-06
3.00956e-06
1.66706e-05
4.1394e-05
4.14712e-05
1.66976e-05
3.01434e-06
3.01811e-06
1.67063e-05
4.14985e-05
4.1577e-05
1.67342e-05
3.02297e-06
3.02678e-06
1.67425e-05
4.16033e-05
4.16825e-05
1.67706e-05
3.03175e-06
3.03566e-06
1.67794e-05
4.17089e-05
4.17894e-05
1.68083e-05
3.04072e-06
3.04466e-06
1.68168e-05
4.18146e-05
4.18957e-05
1.6846e-05
3.04983e-06
3.05388e-06
1.68548e-05
4.19207e-05
4.2003e-05
1.68848e-05
3.05914e-06
3.06324e-06
1.68933e-05
4.20265e-05
4.21093e-05
1.69236e-05
3.06861e-06
3.07282e-06
1.69324e-05
4.21322e-05
4.2216e-05
1.69635e-05
3.0783e-06
3.08256e-06
1.69719e-05
4.22371e-05
4.23212e-05
1.70033e-05
3.08816e-06
3.09253e-06
1.70118e-05
4.23413e-05
4.24261e-05
1.70441e-05
3.09825e-06
3.10267e-06
1.70521e-05
4.24437e-05
4.25285e-05
1.70847e-05
3.10852e-06
3.11307e-06
1.70928e-05
4.25444e-05
4.26295e-05
1.71262e-05
3.11903e-06
3.12364e-06
1.71336e-05
4.26422e-05
4.27266e-05
1.71674e-05
3.12976e-06
3.13449e-06
1.71746e-05
4.27367e-05
4.28208e-05
1.72094e-05
3.14075e-06
3.14556e-06
1.72158e-05
4.28267e-05
4.29093e-05
1.72512e-05
3.15199e-06
3.15692e-06
1.72574e-05
4.29115e-05
4.29926e-05
1.72939e-05
3.16352e-06
3.16852e-06
1.72992e-05
4.29893e-05
4.30673e-05
1.73366e-05
3.17528e-06
3.18038e-06
1.73415e-05
4.30584e-05
4.31323e-05
1.73802e-05
3.18727e-06
3.19234e-06
1.73842e-05
4.31156e-05
4.31824e-05
1.74229e-05
3.19928e-06
3.20428e-06
1.74262e-05
4.31569e-05
4.32137e-05
1.74649e-05
3.21112e-06
3.21582e-06
1.74661e-05
4.31772e-05
4.32167e-05
1.75018e-05
3.22228e-06
3.22642e-06
1.74996e-05
4.31673e-05
4.31833e-05
1.7529e-05
3.23207e-06
3.23524e-06
1.752e-05
4.31163e-05
4.30991e-05
1.75353e-05
3.23934e-06
3.24126e-06
1.75146e-05
4.30102e-05
4.29628e-05
1.75044e-05
3.24261e-06
3.24276e-06
1.74623e-05
4.28312e-05
4.27575e-05
1.74154e-05
3.24205e-06
3.23894e-06
1.73419e-05
4.25737e-05
4.24666e-05
1.72547e-05
3.23422e-06
3.22653e-06
1.71288e-05
4.22318e-05
4.20821e-05
1.70038e-05
3.21966e-06
3.21141e-06
1.68323e-05
4.18026e-05
4.16259e-05
1.66615e-05
3.20734e-06
3.20504e-06
1.64516e-05
4.13324e-05
4.11563e-05
1.62599e-05
3.20541e-06
3.20938e-06
1.60249e-05
4.08949e-05
4.07459e-05
1.58213e-05
3.22045e-06
3.23657e-06
1.55813e-05
4.05415e-05
4.05336e-05
1.53895e-05
3.26389e-06
3.30143e-06
1.51917e-05
4.04981e-05
4.07087e-05
1.50641e-05
3.35567e-06
3.41774e-06
1.50092e-05
4.09651e-05
4.15946e-05
1.52614e-05
3.53482e-06
3.65039e-06
1.5468e-05
4.2163e-05
4.25526e-05
1.52464e-05
3.69248e-06
3.70085e-06
1.51453e-05
4.24918e-05
4.35839e-05
1.49705e-05
3.75972e-06
3.899e-06
1.56994e-05
4.4456e-05
4.50009e-05
1.54496e-05
4.03884e-06
4.19742e-06
1.61454e-05
4.60865e-05
4.73408e-05
1.62869e-05
4.34809e-06
4.57122e-06
1.71998e-05
4.84659e-05
4.96156e-05
1.75865e-05
4.80783e-06
4.985e-06
1.84778e-05
4.98364e-05
5.09388e-05
1.87748e-05
5.06491e-06
5.30052e-06
1.91734e-05
5.11303e-05
5.26424e-05
2.19998e-05
5.65634e-06
6.02219e-06
2.26256e-05
5.26484e-05
5.20119e-05
2.43524e-05
3.79829e-06
1.52061e-06
6.04867e-06
1.62091e-05
3.73318e-05
1.2177e-05
2.2433e-06
2.3769e-06
1.07024e-05
3.26379e-05
3.25431e-05
1.03605e-05
2.48407e-06
2.67506e-06
1.08967e-05
3.46137e-05
3.3879e-05
1.08895e-05
2.87425e-06
3.03365e-06
1.1677e-05
3.6139e-05
3.58523e-05
1.14525e-05
3.28046e-06
3.52347e-06
1.31933e-05
3.95407e-05
3.84235e-05
1.27082e-05
3.76979e-06
4.12343e-06
1.45435e-05
4.14294e-05
4.12753e-05
1.47555e-05
4.39784e-06
4.77131e-06
1.67867e-05
4.40949e-05
4.48234e-05
1.83442e-05
5.41132e-06
3.55998e-06
2.2069e-05
4.7165e-05
1.4757e-05
5.3877e-06
1.76522e-06
2.73397e-06
1.26943e-05
3.8378e-05
3.62062e-05
1.15193e-05
3.25916e-06
3.73998e-06
1.42976e-05
4.38215e-05
4.36777e-05
1.46455e-05
4.04054e-06
4.37765e-06
1.59225e-05
4.81229e-05
4.87878e-05
1.70848e-05
4.80909e-06
5.14777e-06
1.91026e-05
5.16881e-05
5.27971e-05
1.95788e-05
5.5739e-06
6.10459e-06
2.30666e-05
5.50309e-05
5.31406e-05
2.38322e-05
3.9341e-06
1.93619e-06
5.74629e-06
1.59772e-05
4.10362e-05
1.35153e-05
2.91475e-06
3.23711e-06
1.19074e-05
3.74354e-05
3.97933e-05
1.23288e-05
3.6218e-06
4.04838e-06
1.50334e-05
4.32474e-05
4.3121e-05
1.51758e-05
4.40211e-06
4.94058e-06
1.77859e-05
4.69666e-05
4.81471e-05
2.00113e-05
5.64626e-06
3.76049e-06
2.36896e-05
5.02123e-05
1.55848e-05
5.64571e-06
1.95595e-06
3.11765e-06
1.33277e-05
4.2798e-05
4.22724e-05
1.35109e-05
3.84747e-06
4.48072e-06
1.70327e-05
5.17235e-05
5.32113e-05
1.90444e-05
5.10008e-06
5.77384e-06
2.1493e-05
5.76882e-05
5.88643e-05
2.44816e-05
6.48261e-06
4.27475e-06
2.6155e-05
5.71045e-05
1.77781e-05
6.31963e-06
2.22035e-06
3.39567e-06
1.55243e-05
4.65903e-05
4.61029e-05
1.50807e-05
4.11018e-06
4.72691e-06
1.8701e-05
5.17395e-05
5.17383e-05
1.99548e-05
5.50672e-06
3.76115e-06
2.45653e-05
5.37988e-05
1.67895e-05
5.69741e-06
1.96914e-06
3.17913e-06
1.45004e-05
4.7165e-05
4.76602e-05
1.5222e-05
4.03772e-06
4.81945e-06
2.03609e-05
5.92358e-05
6.05357e-05
2.17317e-05
5.62777e-06
6.58217e-06
2.74701e-05
6.63249e-05
6.25201e-05
2.87252e-05
4.48761e-06
2.32119e-06
6.96242e-06
2.02008e-05
5.36719e-05
1.77121e-05
3.59964e-06
4.60196e-06
1.76239e-05
5.28631e-05
6.21995e-05
2.53257e-05
5.76355e-06
4.03415e-06
2.69931e-05
6.14191e-05
2.08209e-05
6.62209e-06
2.18037e-06
3.71031e-06
1.88885e-05
5.86886e-05
6.23608e-05
2.21457e-05
5.00617e-06
6.32001e-06
3.00798e-05
7.49193e-05
7.06318e-05
3.16319e-05
4.46016e-06
2.41923e-06
7.90561e-06
2.50348e-05
6.5352e-05
2.39666e-05
4.14235e-06
5.56442e-06
2.53608e-05
6.67082e-05
6.98401e-05
3.0713e-05
4.00127e-06
2.17066e-06
7.66214e-06
2.54431e-05
6.91397e-05
2.41152e-05
4.15855e-06
5.92217e-06
2.9043e-05
7.63799e-05
8.23779e-05
3.65194e-05
4.51038e-06
2.52231e-06
9.81845e-06
3.24569e-05
8.31772e-05
3.19742e-05
4.87945e-06
3.87893e-06
3.38725e-05
8.20312e-05
3.45072e-05
1.01458e-05
2.30371e-06
4.85691e-06
3.46965e-05
9.34139e-05
9.59069e-05
3.74296e-05
4.04314e-06
2.38287e-06
1.34989e-05
4.51636e-05
0.00011232
4.26183e-05
5.69022e-06
5.15486e-06
4.6377e-05
0.000120787
7.69373e-05
2.68084e-05
3.21756e-06
4.20431e-06
3.97588e-05
0.000105639
0.000112915
4.32422e-05
4.67115e-06
6.26093e-06
5.05552e-05
0.000131005
0.000109405
4.02034e-05
4.59249e-06
3.7993e-06
3.26436e-05
9.00282e-05
9.14176e-05
3.27453e-05
3.9218e-06
4.83368e-06
3.67317e-05
0.000103859
0.000175017
7.47026e-05
7.10831e-06
5.5848e-06
1.46556e-05
3.93223e-05
8.04748e-05
3.9933e-05
5.14989e-06
4.67834e-06
1.16003e-05
2.72189e-05
5.65092e-05
3.26608e-05
4.85539e-06
4.58387e-06
1.03418e-05
2.36442e-05
4.82237e-05
2.78468e-05
4.90683e-06
4.75878e-06
1.10992e-05
2.35193e-05
4.58533e-05
2.85437e-05
5.14707e-06
5.19999e-06
1.10351e-05
2.37955e-05
4.75673e-05
2.62125e-05
6.16464e-06
7.03925e-06
2.11797e-05
4.28042e-05
1.75931e-05
7.84874e-06
3.92156e-06
4.76549e-06
2.01185e-05
3.77111e-05
3.51156e-05
1.83485e-05
5.73624e-06
3.19862e-06
6.23485e-06
1.42776e-05
3.01767e-05
2.16985e-05
3.8067e-06
4.27075e-06
8.08076e-06
1.70614e-05
3.6801e-05
1.99094e-05
5.16303e-06
6.34789e-06
1.76627e-05
3.36885e-05
1.52539e-05
7.26841e-06
3.82625e-06
4.82877e-06
1.87008e-05
3.26871e-05
3.0831e-05
1.70492e-05
5.97028e-06
3.47522e-06
6.54041e-06
1.40951e-05
3.03339e-05
1.69003e-05
4.45404e-06
5.84783e-06
1.57246e-05
2.89404e-05
1.35996e-05
6.52894e-06
3.5457e-06
4.44176e-06
1.68018e-05
2.91145e-05
2.77149e-05
1.53342e-05
5.69375e-06
3.4786e-06
6.35148e-06
1.31071e-05
2.76329e-05
1.59379e-05
4.42538e-06
5.69749e-06
1.47782e-05
2.66915e-05
1.2827e-05
6.26745e-06
3.45511e-06
4.41933e-06
1.57229e-05
2.71282e-05
2.61922e-05
1.46945e-05
5.72997e-06
3.5291e-06
6.28427e-06
1.27817e-05
2.69311e-05
1.60363e-05
4.66457e-06
6.46374e-06
1.41511e-05
2.55324e-05
2.31935e-05
1.19702e-05
4.6685e-06
2.73931e-06
4.91549e-06
1.05688e-05
2.15862e-05
1.22489e-05
3.48359e-06
4.8267e-06
1.21961e-05
2.17003e-05
1.05281e-05
5.22937e-06
2.97929e-06
3.61662e-06
1.25793e-05
2.17432e-05
2.15724e-05
1.22037e-05
4.84707e-06
2.98076e-06
5.2512e-06
1.05454e-05
2.11479e-05
1.25707e-05
3.70505e-06
4.93747e-06
1.20365e-05
2.0854e-05
1.02817e-05
5.1224e-06
2.92989e-06
3.6681e-06
1.22494e-05
2.09431e-05
2.08297e-05
1.19189e-05
4.9878e-06
3.05773e-06
5.31581e-06
1.0262e-05
2.01116e-05
1.2238e-05
3.77823e-06
5.07641e-06
1.16679e-05
2.00365e-05
1.00099e-05
5.30748e-06
3.08373e-06
3.77881e-06
1.22084e-05
2.0128e-05
1.99517e-05
1.16699e-05
5.07524e-06
3.08227e-06
5.362e-06
9.94017e-06
1.94227e-05
1.19444e-05
3.84299e-06
5.16791e-06
1.1207e-05
1.92922e-05
9.94464e-06
5.4469e-06
3.15859e-06
3.91095e-06
1.20772e-05
1.94477e-05
1.94604e-05
1.12762e-05
5.17459e-06
3.14629e-06
5.53684e-06
9.86737e-06
1.90433e-05
1.19296e-05
3.92593e-06
5.16335e-06
1.10276e-05
1.86864e-05
9.66513e-06
5.4512e-06
3.16361e-06
3.87536e-06
1.17434e-05
1.88694e-05
1.84891e-05
1.10632e-05
5.14183e-06
3.17499e-06
5.52335e-06
9.63075e-06
1.86551e-05
1.17138e-05
3.9502e-06
5.27196e-06
1.08046e-05
1.80167e-05
9.52095e-06
5.5483e-06
3.2411e-06
3.96076e-06
1.16728e-05
1.84905e-05
1.76403e-05
1.07331e-05
5.27956e-06
3.23472e-06
5.59862e-06
9.47577e-06
1.81872e-05
1.15122e-05
3.94013e-06
5.18426e-06
1.06083e-05
1.73671e-05
9.14933e-06
5.38312e-06
3.10947e-06
3.83496e-06
1.10473e-05
1.78441e-05
1.7022e-05
1.04209e-05
5.19588e-06
3.18321e-06
5.44868e-06
9.02249e-06
1.72063e-05
1.0886e-05
3.82254e-06
5.08907e-06
9.93554e-06
1.63581e-05
8.75196e-06
5.35006e-06
3.05554e-06
3.74754e-06
1.06835e-05
1.68651e-05
1.60734e-05
9.95163e-06
5.0322e-06
3.10363e-06
5.33451e-06
8.65968e-06
1.63174e-05
1.04006e-05
3.71996e-06
4.90122e-06
9.53855e-06
1.5607e-05
8.20283e-06
5.1501e-06
2.93863e-06
3.64913e-06
1.00159e-05
1.55963e-05
1.48222e-05
9.0821e-06
4.85606e-06
2.75788e-06
4.73363e-06
7.78478e-06
1.31873e-05
1.11716e-05
2.97348e-06
3.60489e-06
5.41993e-06
8.53934e-06
1.6508e-05
1.04226e-05
4.26753e-06
5.43187e-06
9.49449e-06
1.55292e-05
8.55664e-06
5.54162e-06
3.22238e-06
3.95066e-06
1.04121e-05
1.58696e-05
1.51002e-05
9.50372e-06
5.11708e-06
3.03919e-06
5.2658e-06
8.23403e-06
1.53075e-05
9.78153e-06
3.72329e-06
4.98821e-06
9.11468e-06
1.4708e-05
7.98093e-06
5.1732e-06
2.97651e-06
3.59345e-06
9.57553e-06
1.4864e-05
1.42161e-05
8.88282e-06
4.77136e-06
2.74462e-06
4.69045e-06
7.4461e-06
1.27523e-05
1.04593e-05
3.01612e-06
3.77681e-06
5.52429e-06
8.40672e-06
1.6051e-05
1.023e-05
4.39584e-06
5.6208e-06
9.42886e-06
1.50842e-05
8.44996e-06
5.6243e-06
3.40843e-06
3.95252e-06
1.02306e-05
1.5562e-05
1.49569e-05
9.47946e-06
5.12442e-06
3.05704e-06
5.28667e-06
8.08801e-06
1.48701e-05
9.78723e-06
3.69073e-06
4.82158e-06
8.87036e-06
1.40789e-05
7.49555e-06
4.79691e-06
2.76679e-06
3.06283e-06
1.06829e-05
1.252e-05
8.21715e-06
5.4695e-06
3.69244e-06
4.28828e-06
9.95903e-06
1.5404e-05
1.44221e-05
9.09738e-06
5.43816e-06
3.11272e-06
5.30756e-06
7.9785e-06
1.43097e-05
9.52432e-06
3.73524e-06
4.90569e-06
8.74903e-06
1.36325e-05
7.35471e-06
4.80109e-06
2.77586e-06
3.04422e-06
1.0447e-05
1.20974e-05
8.07749e-06
5.47984e-06
3.72535e-06
4.32523e-06
9.7673e-06
1.51289e-05
1.42343e-05
9.06534e-06
5.49577e-06
3.20727e-06
5.41446e-06
7.98252e-06
1.42831e-05
9.53088e-06
3.76855e-06
4.96166e-06
8.76694e-06
1.35984e-05
7.31575e-06
4.82984e-06
2.86557e-06
3.11393e-06
1.0194e-05
1.22785e-05
8.15742e-06
5.52447e-06
3.77487e-06
4.19846e-06
9.84288e-06
1.49029e-05
1.39242e-05
8.96051e-06
5.29014e-06
2.96632e-06
4.96282e-06
7.59462e-06
1.22171e-05
1.07028e-05
3.23657e-06
3.97472e-06
5.76564e-06
8.26787e-06
1.51665e-05
9.84776e-06
4.40857e-06
5.54686e-06
9.03657e-06
1.40711e-05
7.80343e-06
5.25361e-06
3.15461e-06
3.38499e-06
1.07853e-05
1.26777e-05
8.62666e-06
5.95396e-06
4.08105e-06
4.71842e-06
1.02067e-05
1.54643e-05
1.44779e-05
9.39186e-06
5.92513e-06
3.35843e-06
5.67044e-06
8.27891e-06
1.43174e-05
9.71091e-06
3.87572e-06
5.04095e-06
8.88131e-06
1.36922e-05
7.45241e-06
4.92468e-06
2.91852e-06
3.16545e-06
1.03199e-05
1.21471e-05
8.22598e-06
5.59244e-06
3.81678e-06
4.34013e-06
9.58906e-06
1.46737e-05
1.37388e-05
8.84243e-06
5.4257e-06
3.06368e-06
5.08352e-06
7.63654e-06
1.2084e-05
1.06388e-05
3.26903e-06
3.95304e-06
5.76879e-06
8.24787e-06
1.45931e-05
9.63806e-06
4.43904e-06
5.48084e-06
8.80952e-06
1.35868e-05
7.63786e-06
5.01513e-06
3.01695e-06
3.18616e-06
1.04922e-05
1.22087e-05
8.26623e-06
5.7005e-06
3.86847e-06
4.35986e-06
9.55083e-06
1.45061e-05
1.35675e-05
8.845e-06
5.45811e-06
3.09172e-06
5.13914e-06
7.60703e-06
1.18613e-05
1.06196e-05
3.32764e-06
3.97074e-06
5.87866e-06
8.19781e-06
1.43355e-05
9.47012e-06
4.38689e-06
5.42305e-06
8.68737e-06
1.33832e-05
7.5306e-06
5.14854e-06
3.04485e-06
3.29039e-06
1.02658e-05
1.19709e-05
8.20629e-06
5.70552e-06
3.92071e-06
4.39893e-06
9.62596e-06
1.42371e-05
1.32768e-05
8.86994e-06
5.53054e-06
3.12016e-06
5.14299e-06
7.5464e-06
1.14271e-05
1.06627e-05
3.25746e-06
3.80773e-06
5.85906e-06
8.04038e-06
1.29087e-05
1.0058e-05
3.85239e-06
4.51995e-06
6.27448e-06
8.85596e-06
1.49644e-05
9.85139e-06
4.88872e-06
5.96278e-06
9.03379e-06
1.38979e-05
7.92787e-06
5.43278e-06
3.29637e-06
3.55131e-06
1.09418e-05
1.22173e-05
8.52841e-06
6.15651e-06
4.23121e-06
4.6741e-06
9.85731e-06
1.46235e-05
1.35946e-05
9.05685e-06
5.81368e-06
3.27076e-06
5.36637e-06
7.90546e-06
1.18452e-05
1.09633e-05
3.36578e-06
3.9506e-06
6.1086e-06
8.41587e-06
1.32068e-05
1.02121e-05
4.01465e-06
4.68058e-06
6.5456e-06
9.14601e-06
1.51988e-05
1.00142e-05
4.91946e-06
5.9171e-06
9.18864e-06
1.41014e-05
8.10932e-06
5.55304e-06
3.38839e-06
3.58304e-06
1.08976e-05
1.25176e-05
8.75094e-06
6.1933e-06
4.1997e-06
4.69733e-06
9.99906e-06
1.4714e-05
1.38208e-05