/*--------------------------------*- C++ -*----------------------------------*\
| =========                 |                                                 |
| \\      /  F ield         | OpenFOAM: The Open Source CFD Toolbox           |
|  \\    /   O peration     | Version:  v2006                                 |
|   \\  /    A nd           | Website:  www.openfoam.com                      |
|    \\/     M anipulation  |                                                 |
\*---------------------------------------------------------------------------*/
FoamFile
{
    version     2.0;
    format      ascii;
    class       volScalarField;
    location    "0.01";
    object      T;
}
// * * * * * * * * * * * * * * * * * * * * * * * * * * * * * * * * * * * * * //

dimensions      [0 0 0 1 0 0 0];


internalField   nonuniform List<scalar> 
16277
(
299.039
299.039
299.039
299.039
299.039
299.039
299.04
299.04
299.041
299.042
299.044
299.047
299.05
299.053
299.056
299.06
299.063
299.067
299.071
299.075
299.08
299.084
299.089
299.094
299.099
299.104
299.109
299.115
299.12
299.126
299.132
299.137
299.143
299.149
299.155
299.162
299.168
299.174
299.18
299.187
299.193
299.199
299.206
299.212
299.219
299.225
299.232
299.238
299.245
299.251
299.257
299.264
299.27
299.277
299.283
299.289
299.296
299.302
299.308
299.314
299.32
299.326
299.332
299.338
299.344
299.35
299.355
299.361
299.366
299.371
299.376
299.381
299.386
299.39
299.395
299.399
299.403
299.407
299.41
299.414
299.417
299.421
299.424
299.427
299.429
299.43
299.431
299.432
299.432
299.433
299.434
299.434
299.435
299.438
299.442
299.446
299.465
299.465
299.443
299.436
299.43
299.437
299.467
299.467
299.433
299.424
299.418
299.428
299.465
299.462
299.424
299.413
299.407
299.419
299.457
299.453
299.414
299.401
299.394
299.408
299.446
299.441
299.403
299.388
299.38
299.395
299.432
299.426
299.389
299.373
299.366
299.381
299.417
299.411
299.376
299.359
299.352
299.368
299.403
299.399
299.364
299.346
299.341
299.358
299.392
299.389
299.356
299.337
299.333
299.351
299.383
299.381
299.35
299.331
299.328
299.347
299.375
299.373
299.346
299.327
299.325
299.343
299.367
299.365
299.342
299.325
299.323
299.338
299.359
299.357
299.337
299.322
299.321
299.335
299.352
299.352
299.335
299.321
299.322
299.334
299.352
299.353
299.335
299.322
299.325
299.337
299.356
299.36
299.341
299.328
299.332
299.345
299.364
299.37
299.351
299.338
299.344
299.357
299.374
299.381
299.364
299.351
299.357
299.37
299.385
299.391
299.377
299.365
299.372
299.383
299.395
299.401
299.39
299.38
299.386
299.396
299.404
299.411
299.403
299.394
299.401
299.409
299.415
299.422
299.417
299.41
299.416
299.422
299.427
299.435
299.431
299.425
299.432
299.437
299.441
299.451
299.448
299.442
299.449
299.454
299.458
299.469
299.466
299.461
299.469
299.473
299.478
299.49
299.486
299.481
299.49
299.495
299.5
299.513
299.509
299.503
299.513
299.518
299.523
299.536
299.532
299.527
299.537
299.542
299.545
299.558
299.556
299.551
299.562
299.565
299.566
299.578
299.579
299.576
299.586
299.588
299.585
299.595
299.601
299.6
299.608
299.608
299.602
299.612
299.62
299.622
299.629
299.627
299.617
299.627
299.638
299.642
299.648
299.644
299.632
299.642
299.655
299.66
299.665
299.659
299.647
299.656
299.67
299.676
299.68
299.674
299.661
299.67
299.683
299.69
299.694
299.687
299.674
299.682
299.696
299.704
299.707
299.699
299.685
299.693
299.707
299.715
299.718
299.71
299.695
299.701
299.716
299.725
299.727
299.718
299.702
299.707
299.723
299.733
299.733
299.723
299.708
299.712
299.727
299.737
299.737
299.727
299.714
299.718
299.731
299.741
299.74
299.731
299.721
299.727
299.735
299.743
299.743
299.735
299.726
299.734
299.737
299.743
299.746
299.742
299.735
299.716
299.735
299.744
299.737
299.734
299.756
300.196
299.809
299.744
299.805
300.07
300.614
300.682
300.26
299.894
300.027
300.389
300.684
300.662
300.441
300.138
300.24
300.475
300.66
300.638
300.464
300.261
300.279
300.46
300.639
300.629
300.444
300.268
300.28
300.452
300.646
300.648
300.451
300.282
300.317
300.48
300.677
300.679
300.486
300.326
300.361
300.512
300.697
300.691
300.509
300.361
300.377
300.519
300.701
300.696
300.513
300.371
300.378
300.521
300.711
300.712
300.516
300.372
300.383
300.531
300.74
300.751
300.532
300.381
300.401
300.56
300.796
300.818
300.57
300.406
300.439
300.615
300.88
300.912
300.634
300.451
300.5
300.694
300.979
301.017
300.722
300.521
300.586
300.793
301.075
301.108
300.827
300.614
300.69
300.898
301.15
301.173
300.929
300.721
300.794
300.987
301.2
301.211
301.009
300.819
300.879
301.05
301.223
301.226
301.064
300.897
300.942
301.091
301.23
301.229
301.099
300.955
300.988
301.117
301.229
301.227
301.121
300.998
301.025
301.133
301.225
301.223
301.136
301.033
301.056
301.144
301.221
301.22
301.145
301.063
301.081
301.15
301.218
301.217
301.151
301.086
301.101
301.154
301.216
301.216
301.155
301.105
301.116
301.158
301.216
301.216
301.16
301.12
301.127
301.163
301.216
301.216
301.165
301.131
301.137
301.168
301.216
301.217
301.171
301.14
301.145
301.174
301.217
301.22
301.177
301.148
301.152
301.182
301.224
301.23
301.186
301.155
301.161
301.192
301.235
301.243
301.198
301.164
301.17
301.205
301.25
301.26
301.212
301.174
301.182
301.22
301.268
301.279
301.229
301.188
301.197
301.239
301.287
301.298
301.25
301.204
301.216
301.261
301.306
301.318
301.275
301.225
301.24
301.287
301.326
301.339
301.303
301.251
301.269
301.315
301.347
301.359
301.331
301.281
301.299
301.343
301.366
301.378
301.358
301.312
301.327
301.369
301.383
301.391
301.382
301.342
301.353
301.389
301.391
301.389
301.399
301.364
301.373
301.402
301.38
301.36
301.405
301.378
301.378
301.4
301.338
301.297
301.396
301.375
301.364
301.378
301.267
301.201
301.361
301.354
301.316
301.332
301.172
301.095
301.282
301.296
301.151
301.255
301.101
301.014
301.133
301.116
300.881
300.691
300.531
300.448
300.395
300.274
300.267
300.281
300.284
300.333
300.339
300.376
300.38
300.386
300.393
300.444
300.465
300.542
300.603
300.679
300.793
300.992
300.94
300.811
300.688
300.697
300.816
300.959
300.962
300.816
300.698
300.711
300.831
300.979
300.995
300.843
300.718
300.737
300.868
301.024
301.039
300.881
300.745
300.77
300.91
301.072
301.088
300.924
300.781
300.805
300.955
301.119
301.133
300.97
300.82
300.844
300.998
301.16
301.173
301.014
300.86
300.885
301.04
301.197
301.208
301.056
300.902
300.928
301.08
301.228
301.238
301.095
300.944
300.969
301.119
301.255
301.263
301.132
300.987
301.011
301.153
301.276
301.282
301.165
301.028
301.05
301.184
301.292
301.296
301.194
301.068
301.088
301.211
301.303
301.306
301.22
301.104
301.122
301.233
301.311
301.312
301.242
301.138
301.154
301.252
301.315
301.315
301.26
301.169
301.183
301.268
301.316
301.315
301.274
301.196
301.208
301.28
301.315
301.314
301.285
301.22
301.229
301.288
301.312
301.31
301.292
301.24
301.248
301.295
301.308
301.306
301.297
301.256
301.262
301.299
301.303
301.301
301.3
301.269
301.274
301.3
301.297
301.295
301.301
301.279
301.282
301.3
301.291
301.288
301.3
301.286
301.288
301.299
301.284
301.281
301.298
301.291
301.291
301.296
301.278
301.275
301.294
301.293
301.293
301.292
301.271
301.268
301.29
301.293
301.292
301.288
301.265
301.262
301.286
301.292
301.291
301.284
301.259
301.256
301.282
301.29
301.289
301.279
301.252
301.248
301.277
301.288
301.286
301.274
301.242
301.236
301.271
301.285
301.283
301.268
301.227
301.217
301.265
301.282
301.28
301.26
301.202
301.183
301.254
301.278
301.276
301.246
301.157
301.123
301.237
301.274
301.27
301.224
301.081
301.031
301.208
301.266
301.261
301.186
300.969
300.901
301.159
301.254
301.246
301.126
300.824
300.743
301.086
301.235
301.22
301.039
300.657
300.572
300.987
301.203
301.181
300.928
300.483
300.399
300.864
301.155
301.123
300.794
300.308
300.223
300.72
301.087
301.043
300.639
300.132
300.049
300.556
300.994
300.938
300.467
299.959
299.878
300.375
300.876
300.805
300.278
299.791
299.716
300.18
300.727
300.638
300.075
299.636
299.569
299.97
300.538
300.422
299.859
299.5
299.447
299.751
300.289
300.137
299.645
299.394
299.358
299.552
299.974
299.807
299.47
299.324
299.304
299.41
299.656
299.533
299.364
299.286
299.278
299.337
299.451
299.399
299.316
299.268
299.263
299.304
299.368
299.342
299.291
299.257
299.254
299.285
299.325
299.316
299.278
299.252
299.251
299.276
299.311
299.306
299.274
299.252
299.255
299.275
299.305
299.305
299.277
299.258
299.263
299.281
299.308
299.311
299.285
299.268
299.274
299.291
299.316
299.322
299.297
299.28
299.287
299.302
299.328
299.331
299.308
299.293
299.3
299.313
299.333
299.336
299.32
299.31
299.317
299.324
299.335
299.342
299.336
299.327
299.33
299.347
299.372
299.376
299.349
299.331
299.344
299.361
299.388
299.394
299.367
299.35
299.361
299.378
299.405
299.412
299.384
299.368
299.377
299.393
299.421
299.425
299.398
299.385
299.395
299.408
299.431
299.435
299.414
299.403
299.415
299.423
299.438
299.436
299.427
299.423
299.432
299.442
299.455
299.478
299.453
299.44
299.445
299.458
299.482
299.494
299.469
299.457
299.464
299.475
299.499
299.508
299.485
299.475
299.484
299.493
299.512
299.519
299.504
299.496
299.505
299.509
299.522
299.535
299.522
299.514
299.523
299.535
299.56
299.564
299.54
299.531
299.544
299.554
299.576
299.58
299.562
299.553
299.565
299.573
299.587
299.591
299.58
299.578
299.584
299.591
299.608
299.624
299.603
299.594
299.601
299.608
299.626
299.637
299.622
299.613
299.623
299.629
299.643
299.65
299.64
299.636
299.643
299.649
299.665
299.68
299.661
299.654
299.661
299.669
299.683
299.693
299.678
299.674
299.686
299.689
299.699
299.711
299.699
299.695
299.706
299.711
299.722
299.729
299.718
299.715
299.73
299.731
299.738
299.749
299.745
299.745
299.757
299.759
299.765
299.782
299.776
299.773
299.793
299.791
299.791
299.81
299.804
299.801
299.816
299.818
299.817
299.821
299.824
299.832
299.843
299.844
299.846
299.84
299.842
299.844
299.834
299.83
299.835
299.697
299.692
299.714
299.65
299.635
299.643
299.529
299.525
299.538
299.423
299.403
299.385
299.342
299.352
299.363
299.355
299.358
299.384
299.347
299.34
299.328
299.343
299.362
299.405
299.38
299.343
299.335
299.348
299.371
299.408
299.419
299.378
299.354
299.348
299.379
299.411
299.449
299.402
299.366
299.353
299.381
299.426
299.444
299.396
299.361
299.39
299.426
299.464
299.444
299.402
299.371
299.375
299.412
299.467
299.472
299.44
299.406
299.383
299.412
299.456
299.478
299.422
299.387
299.418
299.451
299.486
299.462
299.414
299.392
299.395
299.429
299.483
299.488
299.455
299.422
299.394
299.416
299.459
299.477
299.425
299.397
299.42
299.451
299.482
299.462
299.417
299.398
299.398
299.424
299.472
299.478
299.449
299.417
299.396
299.415
299.458
299.473
299.423
299.398
299.416
299.449
299.479
299.458
299.416
299.397
299.399
299.424
299.47
299.484
299.435
299.405
299.428
299.466
299.497
299.473
299.427
299.407
299.41
299.441
299.499
299.506
299.474
299.436
299.419
299.44
299.486
299.516
299.46
299.426
299.455
299.492
299.524
299.502
299.455
299.434
299.438
299.473
299.53
299.539
299.507
299.47
299.45
299.472
299.522
299.542
299.491
299.455
299.485
299.518
299.55
299.528
299.479
299.458
299.461
299.496
299.552
299.554
299.523
299.489
299.463
299.484
299.531
299.545
299.497
299.464
299.485
299.516
299.546
299.519
299.476
299.456
299.457
299.488
299.537
299.537
299.506
299.476
299.448
299.467
299.508
299.515
299.482
299.458
299.433
299.449
299.492
299.504
299.457
299.431
299.447
299.475
299.503
299.479
299.439
299.42
299.42
299.448
299.496
299.492
299.463
299.433
299.407
299.424
299.466
299.479
299.431
299.404
299.419
299.451
299.479
299.456
299.415
299.397
299.399
299.428
299.478
299.476
299.446
299.417
299.389
299.407
299.449
299.464
299.417
299.386
299.404
299.436
299.465
299.44
299.399
299.381
299.393
299.42
299.456
299.448
299.392
299.373
299.373
299.401
299.453
299.455
299.422
299.389
299.365
299.382
299.429
299.447
299.394
299.363
299.382
299.413
299.447
299.418
299.373
299.355
299.369
299.397
299.437
299.413
299.362
299.345
299.341
299.371
299.422
299.419
299.389
299.358
299.329
299.347
299.392
299.409
299.358
299.327
299.342
299.376
299.408
299.382
299.338
299.32
299.334
299.363
299.403
299.377
299.327
299.311
299.306
299.336
299.389
299.387
299.355
299.321
299.297
299.315
299.363
299.38
299.327
299.295
299.316
299.349
299.384
299.357
299.309
299.29
299.306
299.336
299.381
299.354
299.299
299.282
299.28
299.316
299.37
299.369
299.333
299.303
299.271
299.29
299.341
299.353
299.311
299.281
299.26
299.277
299.331
299.357
299.298
299.263
299.29
299.323
299.361
299.338
299.282
299.26
299.268
299.303
299.346
299.319
299.264
299.246
299.246
299.284
299.341
299.34
299.3
299.272
299.237
299.257
299.31
299.325
299.279
299.251
299.225
299.243
299.3
299.324
299.263
299.227
299.255
299.287
299.329
299.29
299.236
299.216
299.222
299.254
299.298
299.271
299.215
299.2
299.197
299.232
299.29
299.289
299.247
299.219
299.183
299.202
299.263
299.27
299.222
299.193
299.167
299.186
299.242
299.262
299.213
299.182
299.153
299.17
299.231
299.24
299.186
299.146
299.162
299.193
299.232
299.2
299.146
299.125
299.131
299.162
299.208
299.182
299.121
299.105
299.102
299.136
299.198
299.198
299.153
299.121
299.084
299.105
299.169
299.182
299.129
299.097
299.064
299.084
299.151
299.153
299.102
299.067
299.042
299.058
299.12
299.133
299.076
299.036
299.053
299.08
299.125
299.094
299.034
299.014
299.022
299.052
299.104
299.076
299.008
298.99
299.002
299.03
299.086
299.056
298.991
298.972
298.97
299.011
299.076
299.07
299.024
298.987
298.946
298.968
299.029
299.037
298.984
298.952
298.923
298.94
299.005
299.014
298.961
298.929
298.903
298.919
298.984
299.001
298.935
298.897
298.916
298.953
298.999
298.967
298.903
298.88
298.891
298.927
298.984
298.953
298.882
298.862
298.866
298.905
298.96
298.927
298.86
298.843
298.835
298.878
298.946
298.94
298.894
298.856
298.818
298.839
298.917
298.926
298.862
298.828
298.8
298.817
298.896
298.907
298.847
298.809
298.787
298.805
298.875
298.9
298.827
298.785
298.814
298.854
298.906
298.869
298.795
298.77
298.774
298.818
298.877
298.844
298.769
298.748
298.758
298.793
298.856
298.826
298.749
298.729
298.739
298.779
298.841
298.81
298.735
298.716
298.713
298.761
298.837
298.835
298.785
298.742
298.704
298.728
298.815
298.83
298.761
298.718
298.692
298.717
298.81
298.821
298.749
298.704
298.673
298.697
298.785
298.797
298.731
298.683
298.66
298.681
298.761
298.79
298.708
298.656
298.689
298.732
298.789
298.755
298.671
298.645
298.657
298.703
298.773
298.746
298.652
298.629
298.646
298.688
298.763
298.737
298.638
298.615
298.633
298.681
298.754
298.718
298.63
298.607
298.603
298.66
298.744
298.741
298.684
298.637
298.591
298.619
298.707
298.723
298.65
298.602
298.572
298.592
298.704
298.714
298.631
298.59
298.557
298.582
298.674
298.692
298.621
298.571
298.545
298.569
298.655
298.687
298.598
298.543
298.58
298.629
298.692
298.657
298.566
298.536
298.547
298.6
298.676
298.654
298.537
298.514
298.527
298.574
298.656
298.628
298.517
298.492
298.507
298.557
298.639
298.603
298.504
298.477
298.491
298.541
298.617
298.579
298.485
298.46
298.456
298.517
298.612
298.61
298.547
298.493
298.445
298.476
298.583
298.602
298.515
298.464
298.429
298.456
298.571
298.587
298.499
298.444
298.409
298.435
298.557
298.565
298.476
298.426
298.388
298.417
298.52
298.534
298.455
298.401
298.369
298.395
298.49
298.528
298.429
298.366
298.407
298.456
298.528
298.482
298.384
298.352
298.362
298.421
298.501
298.471
298.357
298.332
298.349
298.399
298.49
298.465
298.341
298.314
298.331
298.387
298.48
298.434
298.326
298.296
298.311
298.366
298.45
298.409
298.304
298.277
298.27
298.335
298.44
298.443
298.372
298.31
298.261
298.294
298.416
298.425
298.334
298.273
298.239
298.263
298.411
298.418
298.313
298.258
298.22
298.246
298.382
298.395
298.295
298.241
298.202
298.233
298.351
298.365
298.279
298.215
298.186
298.214
298.322
298.356
298.248
298.181
298.225
298.283
298.362
298.317
298.201
298.166
298.177
298.241
298.335
298.298
298.171
298.142
298.165
298.216
298.322
298.29
298.145
298.119
298.137
298.198
298.304
298.257
298.134
298.102
298.121
298.18
298.275
298.226
298.112
298.081
298.078
298.152
298.27
298.271
298.188
298.126
298.066
298.103
298.228
298.251
298.149
298.082
298.045
298.077
298.214
298.234
298.127
298.062
298.023
298.053
298.221
298.224
298.107
298.045
298.001
298.037
298.184
298.2
298.09
298.022
297.978
298.014
298.151
298.171
298.065
298.002
297.954
297.989
298.116
298.16
298.031
297.95
298.002
298.074
298.164
298.107
297.983
297.942
297.959
298.028
298.133
298.099
297.946
297.914
297.938
298.001
298.12
298.086
297.928
297.894
297.919
297.984
298.101
298.054
297.91
297.871
297.897
297.965
298.075
298.022
297.886
297.849
297.849
297.935
298.071
298.076
297.977
297.91
297.843
297.887
298.019
298.057
297.942
297.867
297.819
297.851
298.034
298.046
297.916
297.843
297.802
297.838
298.01
298.022
297.896
297.825
297.777
297.815
297.977
297.992
297.869
297.807
297.752
297.79
297.937
297.995
297.851
297.757
297.824
297.89
297.991
297.941
297.796
297.749
297.777
297.851
297.973
297.932
297.76
297.718
297.749
297.826
297.959
297.922
297.731
297.692
297.726
297.798
297.938
297.874
297.711
297.665
297.704
297.769
297.899
297.833
297.674
297.632
297.633
297.737
297.889
297.874
297.771
297.705
297.619
297.663
297.846
297.866
297.727
297.65
297.596
297.643
297.817
297.851
297.712
297.631
297.574
297.624
297.806
297.834
297.689
297.612
297.54
297.589
297.777
297.805
297.657
297.586
297.507
297.554
297.732
297.781
297.612
297.506
297.587
297.665
297.791
297.715
297.548
297.492
297.526
297.605
297.746
297.696
297.496
297.449
297.484
297.554
297.713
297.656
297.442
297.398
297.448
297.514
297.678
297.606
297.42
297.365
297.373
297.478
297.661
297.682
297.546
297.459
297.368
297.426
297.611
297.649
297.493
297.405
297.329
297.38
297.595
297.625
297.454
297.372
297.285
297.339
297.548
297.58
297.412
297.335
297.239
297.291
297.488
297.546
297.353
297.235
297.317
297.398
297.537
297.457
297.259
297.199
297.227
297.309
297.468
297.424
297.192
297.136
297.184
297.263
297.452
297.37
297.149
297.092
297.144
297.227
297.405
297.316
297.103
297.043
297.045
297.174
297.384
297.379
297.227
297.132
297.019
297.084
297.28
297.32
297.147
297.059
296.96
297.012
297.237
297.263
297.075
297
296.884
296.944
297.183
297.203
297.01
296.931
296.812
296.864
297.093
297.128
296.929
296.798
296.856
296.921
297.08
297.021
296.8
296.733
296.787
296.88
297.072
296.999
296.743
296.682
296.73
296.823
297.029
296.931
296.683
296.618
296.671
296.762
296.962
296.856
296.617
296.555
296.544
296.684
296.914
296.906
296.736
296.638
296.493
296.566
296.789
296.814
296.619
296.533
296.403
296.465
296.736
296.74
296.527
296.437
296.301
296.37
296.63
296.613
296.37
296.249
296.33
296.456
296.631
296.528
296.3
296.22
296.278
296.38
296.587
296.488
296.217
296.142
296.186
296.302
296.524
296.421
296.137
296.068
296.116
296.215
296.444
296.323
296.054
295.99
295.971
296.115
296.367
296.345
296.164
296.05
295.886
295.969
296.213
296.235
296.02
295.921
295.783
295.845
296.142
296.126
295.9
295.788
295.649
295.706
295.948
295.992
295.721
295.607
295.717
295.824
296.027
295.922
295.656
295.569
295.612
295.739
295.965
295.873
295.553
295.477
295.532
295.634
295.895
295.757
295.453
295.382
295.357
295.518
295.814
295.773
295.576
295.435
295.261
295.352
295.628
295.652
295.412
295.304
295.143
295.211
295.53
295.54
295.24
295.081
295.092
295.214
295.432
295.316
295.02
294.929
294.996
295.107
295.378
295.278
294.933
294.848
294.901
295.054
295.333
295.189
294.856
294.774
294.74
294.927
295.269
295.244
295.007
294.845
294.646
294.752
295.075
295.101
294.827
294.689
294.522
294.599
294.943
294.987
294.64
294.462
294.541
294.664
294.917
294.747
294.381
294.29
294.294
294.411
294.706
294.519
294.184
294.103
294.044
294.218
294.602
294.647
294.364
294.201
294.017
294.127
294.483
294.536
294.244
294.059
293.921
294.001
294.363
294.451
294.088
293.859
293.962
294.109
294.369
294.221
293.817
293.702
293.734
293.902
294.218
294.055
293.629
293.536
293.436
293.647
294.061
293.902
293.613
293.447
293.205
293.291
293.667
293.709
293.383
293.202
293.065
293.166
293.546
293.704
293.264
293.06
293.21
293.39
293.719
293.516
293.077
292.932
292.977
293.204
293.554
293.373
292.908
292.802
292.704
292.952
293.404
293.306
292.995
292.777
292.51
292.628
293.082
293.03
292.664
292.475
292.237
292.342
292.749
292.632
292.152
292.017
292.154
292.335
292.69
292.519
292.101
291.927
291.913
292.137
292.713
292.719
292.339
292.047
291.791
291.946
292.468
292.492
292.069
291.845
291.583
291.71
292.24
292.261
291.728
291.459
291.468
291.711
292.112
291.838
291.37
291.218
290.96
291.22
291.766
291.586
291.205
291.001
290.674
290.857
291.353
291.659
290.974
290.688
290.899
291.227
291.689
291.39
290.784
290.587
290.691
290.937
291.433
291.136
290.512
290.342
290.206
290.53
291.155
290.954
290.5
290.198
289.881
290.081
290.615
290.49
289.836
289.544
289.548
289.797
290.237
289.969
289.418
289.223
289.25
289.538
290.371
290.392
289.873
289.468
289.179
289.397
290.042
290.154
289.443
289.037
289.184
289.531
290.02
289.631
288.982
288.723
288.438
288.809
289.596
289.115
288.646
288.325
287.815
287.954
288.606
288.788
288.005
287.725
287.783
288.182
289.17
289.194
288.584
288.053
287.712
287.981
288.782
288.871
287.956
287.481
287.626
288.052
288.637
288.021
287.205
286.954
286.517
286.664
287.453
287.474
286.383
286.101
286.51
286.96
287.704
287.362
286.528
286.181
286.176
286.621
287.741
287.816
286.664
286.073
286.246
286.803
287.506
286.608
285.682
285.413
284.889
285.029
285.99
286.376
284.987
284.549
285.083
285.69
286.52
286.327
285.159
284.748
284.678
285.124
286.399
286.501
285.092
284.436
283.748
284.205
285.342
285.604
284.574
283.965
283.481
284.08
285.153
286.162
284.406
283.57
283.637
284.519
286.245
285.695
284.111
283.15
283.079
284.015
285.846
286.792
284.338
283.126
284.067
285.501
286.651
285.633
284.236
283.479
283.55
284.278
285.839
286.815
284.808
283.765
284.314
285.248
287.275
288.097
285.882
284.751
285.458
286.708
288.964
289.921
287.56
286.164
286.797
288.323
290.686
291.232
288.941
287.327
287.764
289.464
291.663
292.012
289.924
288.159
288.516
290.342
292.308
292.55
290.717
288.855
289.167
291.059
292.758
292.934
291.367
289.469
289.748
291.648
293.087
293.217
291.901
290.021
290.274
292.131
293.331
293.426
292.337
290.521
290.75
292.524
293.511
293.582
292.689
290.975
291.182
292.839
293.646
293.699
292.97
291.385
291.573
293.09
293.748
293.788
293.195
291.756
291.924
293.29
293.825
293.855
293.373
292.087
292.238
293.45
293.884
293.906
293.516
292.383
292.515
293.577
293.929
293.945
293.629
292.642
292.757
293.679
293.963
293.975
293.721
292.866
292.964
293.761
293.988
293.997
293.794
293.056
293.139
293.827
294.008
294.014
293.854
293.215
293.283
293.881
294.022
294.026
293.902
293.343
293.398
293.924
294.032
294.036
293.94
293.445
293.489
293.958
294.041
294.043
293.969
293.524
293.558
293.983
294.047
294.048
293.991
293.584
293.609
294
294.05
294.051
294.004
293.627
293.645
294.01
294.052
294.052
294.011
293.657
293.67
294.014
294.052
294.051
294.013
293.677
293.685
294.012
294.05
294.048
294.01
293.689
293.693
294.008
294.046
294.043
294.003
293.695
293.696
293.999
294.042
294.038
293.992
293.696
293.696
293.987
294.035
294.03
293.979
293.694
293.693
293.973
294.027
294.021
293.964
293.69
293.689
293.958
294.018
294.011
293.948
293.685
293.684
293.942
294.008
294.001
293.932
293.68
293.678
293.925
293.997
293.99
293.915
293.675
293.673
293.909
293.985
293.978
293.899
293.67
293.668
293.893
293.974
293.966
293.884
293.665
293.664
293.879
293.962
293.954
293.87
293.662
293.661
293.865
293.949
293.942
293.857
293.659
293.659
293.852
293.938
293.931
293.845
293.658
293.658
293.841
293.927
293.92
293.835
293.657
293.657
293.831
293.917
293.911
293.826
293.657
293.658
293.823
293.907
293.902
293.818
293.657
293.658
293.816
293.899
293.894
293.811
293.658
293.659
293.81
293.891
293.886
293.806
293.659
293.66
293.804
293.884
293.88
293.801
293.66
293.661
293.8
293.878
293.874
293.797
293.662
293.663
293.796
293.872
293.869
293.793
293.663
293.664
293.792
293.867
293.864
293.79
293.664
293.665
293.789
293.863
293.86
293.787
293.664
293.665
293.786
293.859
293.857
293.784
293.665
293.665
293.783
293.856
293.853
293.782
293.665
293.665
293.781
293.852
293.85
293.779
293.664
293.664
293.778
293.849
293.847
293.777
293.663
293.663
293.776
293.846
293.845
293.774
293.661
293.661
293.773
293.844
293.842
293.771
293.659
293.658
293.77
293.841
293.839
293.768
293.656
293.655
293.767
293.837
293.835
293.764
293.653
293.652
293.763
293.834
293.831
293.76
293.649
293.647
293.759
293.83
293.827
293.756
293.644
293.642
293.754
293.826
293.823
293.751
293.639
293.637
293.749
293.821
293.818
293.745
293.633
293.631
293.743
293.816
293.812
293.739
293.626
293.624
293.737
293.81
293.806
293.732
293.619
293.616
293.73
293.804
293.799
293.725
293.611
293.608
293.722
293.797
293.792
293.717
293.603
293.598
293.713
293.789
293.784
293.709
293.595
293.588
293.704
293.78
293.775
293.699
293.585
293.578
293.693
293.771
293.766
293.689
293.574
293.567
293.682
293.761
293.756
293.677
293.561
293.555
293.671
293.75
293.744
293.665
293.549
293.543
293.659
293.738
293.733
293.653
293.536
293.53
293.646
293.726
293.72
293.639
293.522
293.516
293.632
293.713
293.707
293.625
293.508
293.502
293.618
293.7
293.693
293.611
293.493
293.488
293.604
293.686
293.678
293.595
293.478
293.473
293.589
293.671
293.663
293.579
293.462
293.457
293.573
293.656
293.646
293.562
293.446
293.44
293.556
293.64
293.629
293.545
293.429
293.423
293.539
293.622
293.611
293.527
293.411
293.405
293.52
293.605
293.593
293.508
293.392
293.386
293.501
293.586
293.574
293.489
293.373
293.367
293.482
293.567
293.555
293.469
293.354
293.348
293.462
293.548
293.535
293.449
293.334
293.328
293.441
293.528
293.514
293.428
293.314
293.307
293.42
293.506
293.492
293.405
293.292
293.284
293.397
293.483
293.468
293.381
293.269
293.26
293.372
293.459
293.442
293.355
293.243
293.234
293.345
293.431
293.412
293.325
293.214
293.203
293.313
293.4
293.38
293.292
293.182
293.17
293.279
293.366
293.343
293.256
293.146
293.133
293.241
293.328
293.304
293.216
293.107
293.093
293.2
293.287
293.262
293.174
293.066
293.051
293.158
293.245
293.22
293.131
293.023
293.009
293.114
293.202
293.176
293.087
292.98
292.965
293.071
293.158
293.132
293.043
292.936
292.922
293.027
293.115
293.088
292.998
292.892
292.877
292.982
293.071
293.043
292.953
292.848
292.833
292.938
293.028
292.999
292.908
292.803
292.789
292.893
292.984
292.956
292.864
292.76
292.746
292.85
292.942
292.915
292.823
292.718
292.706
292.81
292.902
292.878
292.784
292.68
292.668
292.772
292.862
292.844
292.748
292.644
292.635
292.738
292.829
292.813
292.719
292.615
292.601
292.702
292.79
292.777
292.691
292.586
292.545
292.664
292.758
292.743
292.649
292.512
292.478
292.618
292.715
292.218
291.798
290.637
290.124
290.017
289.547
289.284
289.122
289.036
288.881
288.815
288.652
288.526
288.424
288.337
288.263
288.202
288.151
288.109
288.076
288.048
288.025
288.003
287.984
287.969
287.958
287.952
287.949
287.948
287.947
287.947
287.945
287.945
288.003
288.052
288.091
288.12
288.141
288.158
288.174
288.191
288.208
288.225
288.24
288.254
288.268
288.28
288.288
288.293
288.297
288.301
288.303
288.303
288.302
288.298
288.293
288.286
288.278
288.268
288.257
288.245
288.234
288.224
288.218
288.217
288.221
288.228
288.237
288.25
288.268
288.292
288.322
288.359
288.405
288.46
288.524
288.599
288.683
288.779
288.887
289.006
289.137
289.28
289.434
289.601
289.778
289.965
290.161
290.366
290.578
290.795
291.018
291.244
291.472
291.703
291.933
292.163
292.392
292.618
292.84
293.059
293.274
293.483
293.687
293.885
294.078
294.264
294.445
294.619
294.787
294.948
295.102
295.25
295.39
295.524
295.652
295.774
295.89
296.002
296.108
296.211
296.309
296.403
296.494
296.581
296.664
296.743
296.819
296.891
296.961
297.028
297.093
297.156
297.218
297.277
297.335
297.392
297.446
297.498
297.548
297.596
297.642
297.685
297.726
297.765
297.802
297.839
297.873
297.907
297.941
297.973
298.005
298.036
298.067
298.097
298.126
298.155
298.183
298.211
298.238
298.265
298.291
298.317
298.343
298.368
298.393
298.418
298.442
298.465
298.488
298.511
298.532
298.552
298.572
298.59
298.608
298.625
298.64
298.656
298.671
298.685
298.699
298.713
298.728
298.742
298.756
298.77
298.784
298.799
298.814
298.829
298.845
298.862
298.879
298.896
298.915
298.933
298.952
298.969
298.986
299
299.012
299.021
299.027
299.031
299.034
299.036
299.038
299.038
299.038
299.038
299.037
299.037
299.036
299.036
299.036
299.037
299.039
299.041
299.044
299.046
299.05
299.053
299.056
299.06
299.064
299.068
299.072
299.076
299.08
299.084
299.088
299.092
299.097
299.101
299.105
299.11
299.114
299.119
299.123
299.128
299.133
299.137
299.142
299.147
299.152
299.158
299.163
299.168
299.173
299.179
299.185
299.19
299.196
299.202
299.208
299.214
299.221
299.227
299.234
299.24
299.247
299.254
299.26
299.267
299.274
299.281
299.288
299.295
299.301
299.308
299.314
299.321
299.327
299.333
299.339
299.345
299.351
299.356
299.362
299.367
299.371
299.376
299.38
299.385
299.389
299.394
299.399
299.403
299.408
299.412
299.415
299.418
299.419
299.418
299.412
299.41
299.402
299.396
299.388
299.381
299.372
299.364
299.355
299.347
299.339
299.332
299.326
299.321
299.316
299.313
299.31
299.308
299.307
299.306
299.306
299.305
299.305
299.305
299.306
299.307
299.31
299.313
299.317
299.322
299.328
299.335
299.342
299.349
299.357
299.365
299.373
299.381
299.389
299.398
299.406
299.415
299.423
299.433
299.441
299.452
299.461
299.472
299.482
299.495
299.505
299.518
299.529
299.543
299.554
299.568
299.579
299.594
299.604
299.618
299.627
299.641
299.648
299.661
299.667
299.679
299.684
299.695
299.699
299.709
299.713
299.722
299.725
299.733
299.735
299.741
299.742
299.747
299.747
299.751
299.75
299.753
299.751
299.752
299.75
299.75
299.746
299.741
299.743
299.749
299.779
299.796
299.851
299.868
299.924
299.933
299.981
299.987
300.042
300.049
300.106
300.104
300.142
300.133
300.155
300.143
300.163
300.152
300.177
300.169
300.202
300.198
300.243
300.245
300.308