/*--------------------------------*- C++ -*----------------------------------*\
| =========                 |                                                 |
| \\      /  F ield         | OpenFOAM: The Open Source CFD Toolbox           |
|  \\    /   O peration     | Version:  v2006                                 |
|   \\  /    A nd           | Website:  www.openfoam.com                      |
|    \\/     M anipulation  |                                                 |
\*---------------------------------------------------------------------------*/
FoamFile
{
    version     2.0;
    format      ascii;
    class       volScalarField;
    location    "0.021";
    object      omega;
}
// * * * * * * * * * * * * * * * * * * * * * * * * * * * * * * * * * * * * * //

dimensions      [0 0 -1 0 0 0 0];


internalField   nonuniform List<scalar> 
12716
(
0.0108824
0.0108823
0.0108822
0.0108822
0.0108823
0.0108824
0.0108827
0.0108829
0.0108832
0.0108835
0.0108836
0.0108815
0.0108754
0.010865
0.0108512
0.0108352
0.010818
0.0108002
0.0107818
0.0107628
0.0107432
0.0107228
0.0107017
0.0106797
0.0106571
0.0106337
0.0106096
0.0105849
0.0105596
0.0105339
0.0105076
0.010481
0.0104541
0.0104271
0.0104003
0.0103741
0.0103494
0.0103277
0.0103119
0.0103071
0.0103235
0.0103801
0.010513
0.0107908
0.0113433
0.0124147
0.0144603
0.0183191
0.0255158
0.0387825
0.0629554
0.106559
0.184663
0.324018
0.568463
0.956032
1.28577
1.72676
2.12595
2.24431
2.49244
4.99449
8.381
12.9079
24.2218
57.3015
149.301
554.102
5068.45
28540.7
397905
393933
61654.3
14027.9
22426.8
80548.7
390155
382679
88439
28354.6
31698.2
90273.4
370715
360588
91045.1
34232
35626.5
90451.7
351531
342959
89654.2
36880.4
37322.2
88618.2
336723
330534
88259.9
38197.1
38254.1
87348.2
326327
321683
87110.9
38808.8
38790.6
86379.8
318616
314951
86267
39189.1
39143
85684.7
312563
309560
85648.1
39464.6
39403.9
85201.9
307593
305044
85212.6
39680.9
39611.7
84862.3
303361
301116
84902.4
39860.3
39785.2
84613.1
299622
297601
84670.6
40012.9
39932.8
84420.3
296248
294394
84488.5
40143.7
40059.4
84263.8
293143
291415
84339.1
40256.8
40169.3
84131.4
290241
288610
84211.2
40355.6
40265.4
84014.1
287495
285940
84096.4
40442.2
40349.6
83905.4
284868
283372
83988.7
40518.5
40423.9
83800.4
282333
280882
83883.8
40586.7
40489.7
83696
279866
278450
83778.9
40648.3
40548.1
83589.8
277451
276059
83671.4
40702.5
40599.2
83479.2
275069
273695
83558.9
40749.9
40644
83362.4
272708
271344
83439.8
40791.4
40683.4
83238.1
270356
268995
83312.9
40828
40718.4
83105.7
268001
266637
83177.6
40860.5
40749.7
82964
265633
264259
83032.5
40889.7
40777.9
82811.6
263239
261850
82876.2
40916
40803.5
82646.9
260810
259399
82707.4
40939.8
40826.8
82469.1
258335
256897
82525
40961.6
40848.4
82277
255803
254331
82328.1
40981.9
40868.8
82070
253203
251690
82115.9
41001.2
40888.7
81847.2
250522
248961
81887.5
41020.3
40908.4
81607.1
247747
246129
81641.2
41039.2
40928.3
81347.5
244863
243180
81374.3
41058.2
40948
81065
241856
240101
81083.5
41076.8
40967.1
80756.4
238712
236876
80765.7
41094.3
40984.9
80419.1
235417
233492
80417.7
41110.2
41001.2
80053.8
231957
229935
80036.8
41124.2
41015.1
79650.6
228316
226189
79616.5
41135.2
41025.6
79205.9
224482
222243
79152.5
41141.8
41031
78714.1
220442
218083
78638.7
41142.3
41029
78168.2
216186
213702
78067.1
41133.6
41016
77558.6
211706
209096
77426.8
41111.1
40986.2
76872.1
207002
204271
76703.4
41067.7
40928
76095.7
202086
199246
75867.8
40992.2
40823.2
75212.6
196986
194057
74915.5
40872.1
40668.8
74204.7
191744
188753
73829.5
40697.3
40446.5
73052.5
186418
183406
72588.8
40448.5
40149.2
71735.5
181094
178115
71174.9
40105.7
39734.7
70232.4
175883
173008
69569.7
39636.9
39179.2
68530.3
170925
168235
67767.4
39022.2
38467.2
66633.5
166374
163951
65779.9
38248.7
37598.1
64567.4
162377
160289
63643.2
37305.9
36577.5
62373.3
159051
157340
61412.2
36218
35430.3
60120.5
156456
155130
59169.9
35025.1
34202.4
57896.3
154579
153613
57010
33776.5
32952.1
55780.3
153319
152727
55004.7
32519
31741.3
53948.7
152645
152348
53356.4
31340.3
30617.7
52412.8
152339
152178
51939.1
30244.6
29576.3
51108.5
152229
152133
50744.8
29251.9
28646.4
50013.7
152219
152180
49743.8
28373.8
27831.2
49110
152306
152315
48924.6
27611.5
27132.9
48389.9
152492
152528
48261.9
26960.6
26539.6
47822.4
152726
152772
47739.1
26408.7
26035.1
47373.7
152969
153021
47326.6
25940.5
25608.3
47019.8
153218
153270
47004.8
25542.7
25250.8
46754.6
153457
153504
46763
25207.4
24953.5
46560.4
153672
153714
46584.2
24927.5
24703.9
46416.5
153865
153904
46453.1
24692.1
24493.8
46314.5
154041
154077
46361.8
24494.1
24320.4
46247.5
154204
154237
46303.3
24328.3
24173.2
46207.9
154353
154382
46270.3
24187.7
24048.3
46188
154486
154510
46256.3
24067.4
23942.1
46181.1
154602
154622
46257.1
23964.5
23852.2
46188.6
154703
154717
46271
23877.5
23776
46207.6
154786
154794
46294.9
23804.9
23711.8
46234
154850
154851
46325
23743.8
23657
46265.3
154894
154886
46358.7
23692.4
23608.5
46299.6
154913
154898
46394.9
23648.6
23566.4
46336.7
154915
154890
46433.9
23611.1
23530.6
46376.5
154896
154861
46475.7
23579.8
23496.7
46414.4
154858
154847
46522.4
23552.5
23477
46484.8
154773
154887
46579.1
23541.5
23383
46364.2
154214
153574
46384
23305.8
22966.4
45638.5
151087
150069
45196
22670.4
22774.5
45369.5
148294
147057
44029.1
22023.2
21772.7
43477
144280
10309
6631.2
5080.33
4245.37
3825.26
3491.28
3282.9
3139.94
3057.36
3017.28
3017.94
3059.11
3140.76
3274.36
3458.58
3725.25
4067.9
4573.9
5095.91
5967.53
7654.01
10126.9
12320.8
21515.9
55584
104079
320878
515050
117401
65281.6
148362
336320
878141
666303
175066
79481.3
85955.5
190391
593223
590102
178767
80938
85957.5
190893
594866
602647
186522
84336.8
87942.3
195347
608100
616149
189397
86040.8
88537.6
196562
621128
622458
191619
86190.1
88731.6
197579
622129
623145
191774
86330.2
88524.5
196941
622818
623820
191655
86262.3
88451.5
196822
623496
624519
191529
86189.6
88372.5
196701
624198
625241
191393
86111.5
88294.6
196568
624932
625992
191250
86038.2
88216.5
196431
625693
626774
191097
85959.7
88138.9
196283
626482
627583
190941
85887.6
88061.9
196134
627299
628419
190774
85811.1
87987.4
195973
628142
629283
190607
85744
87916.7
195814
629015
630176
190431
85675.2
87849.8
195645
629915
631099
190255
85614.9
87784.6
195477
630847
632053
190071
85551.9
87725
195302
631809
633040
189889
85501.7
87672.1
195129
632806
634063
189701
85452.7
87625.5
194951
633838
635123
189515
85413.4
87581.2
194775
634909
636223
189324
85372.7
87544.9
194595
636018
637364
189137
85347.6
87518
194420
637170
638548
188949
85326.7
87501.1
194245
638363
639775
188767
85318.8
87489.1
194076
639602
641049
188585
85312.4
87488.3
193910
640887
642375
188415
85323.4
87498
193756
642226
643754
188250
85340.8
87521.9
193611
643617
645190
188100
85376.1
87555.2
193480
645069
646688
187961
85416.9
87602.8
193364
646577
648245
187842
85475.6
87659.8
193269
648147
649865
187744
85540.2
87732.5
193203
649779
651556
187679
85624.3
87816
193168
651488
653324
187639
85714.3
87912.9
193161
653272
655170
187625
85818.4
88012.8
193176
655141
657107
187627
85920.9
88121.8
193215
657107
659168
187652
86038.3
88239.4
193286
659226
661419
187712
86157.7
88355.7
193414
661580
664019
187812
86248.4
88386.2
193557
664381
667238
187794
86182.5
88199.6
193421
668102
671493
187157
85863.1
87692.1
192225
672742
675920
184652
84657.6
86679.2
191020
669943
673433
180373
83638.6
85638
187704
673271
669418
176717
82173.2
84287.1
183249
662583
652200
173003
81249.3
82775.8
176565
646281
641957
169077
79696.8
81236.1
172966
636348
626444
166361
78336.1
79244.9
166402
609944
600683
156878
76236.8
77383.3
160745
590740
581356
152695
75120.3
76042.1
155555
571786
558515
148686
74113.2
74978.3
150306
544604
528870
144179
73992.2
75455.6
144916
516806
507990
144711
75554.8
77931.1
145362
494263
486713
146018
78580.7
81684.8
149263
470859
442983
143933
82356.2
86937.8
138911
625881
931515
349547
165317
93741.9
175212
689408
610755
185349
97179.5
95951.1
174984
586300
581645
180414
97498.7
92118.5
182222
602278
378861
178804
63607.9
48779.2
89922.9
282198
251322
93304.3
47007.6
41122.2
75164.3
235118
229452
71399.5
39844.3
41970.4
75599.6
243192
255984
92040.8
52429.1
45338.2
87069.5
252214
244478
81861.8
44510.5
43480.6
80642.1
238221
238683
80613
43075.2
44099.3
81925.8
236483
236391
76065.9
39799.1
39789.6
74537.4
235457
251684
75437.2
39854
49011
88575.5
269159
285278
90166.8
49190.9
53353.4
95934.2
294374
315706
96913.7
53665.1
66069.7
112483
337798
350677
112598
63751.5
59742.5
107999
352799
354531
105314
56987.6
58551.9
105926
370507
375853
110455
63411.9
55503.4
105365
378734
370126
96072.3
47178
44283.6
87145.3
382157
374165
77299.2
41633.6
36224.2
68556.2
372448
355147
63841.1
36775.4
36013
60583.5
359058
336889
62637.3
36909.7
41550.1
67342.1
369810
406901
102724
54279.1
47769.9
128504
445445
547215
313926
124674
145135
356053
557792
595519
394646
160286
254381
436274
587811
575495
420347
227602
225957
415803
536547
521908
421676
284439
235997
394043
480035
447512
375371
237487
244927
370350
434783
425034
371431
281917
230607
343917
387436
359736
325692
226158
227070
316946
354704
341336
316784
252318
203787
291789
320139
296684
280170
210860
148936
238783
275070
255759
216069
132390
126012
202144
252358
246856
202261
140674
109875
179221
245231
239503
167234
106900
108065
168880
249018
258620
174594
124373
102103
156552
262749
254788
146446
97455.8
98233.1
146516
263481
285064
153161
99861.1
116023
165756
306961
310423
146603
94586.2
95643.4
149650
309267
363235
159903
105074
149144
310819
569462
750585
243803
121087
128600
240345
555910
609936
254838
146522
145586
251240
704025
933149
425698
227712
134100
192745
714287
530567
189783
128728
135207
231221
599209
725027
238886
137119
228851
458933
1.00269e+06
746769
192271
129711
128557
204478
557587
671614
218527
130787
220135
431515
941016
703750
180158
122892
123372
199286
538018
662492
219190
127920
219440
430437
937363
690242
183283
121825
120360
186656
525257
608638
228201
128181
127623
229906
729091
1.01789e+06
466747
224497
122342
187443
720354
545594
197636
122404
127286
221789
682047
996432
463069
226719
124228
189613
724087
553487
203596
125640
127447
217840
689523
987194
457198
224403
121053
184818
697790
536667
196326
121504
126496
217831
678467
1.00152e+06
468355
228761
124243
190729
712710
545517
202597
125517
127996
218269
687675
1.01769e+06
452775
230312
122824
187418
703450
537612
196450
122538
128620
224996
684233
1.04313e+06
464151
237794
127586
193477
731094
586794
197261
125408
216178
411741
872838
636716
177378
118568
119237
188799
500841
647211
214821
126340
229094
455952
976932
682628
187619
123558
122981
195838
527380
674441
220277
128717
237503
482645
1.01533e+06
719751
195796
129191
129157
202829
592162
903122
427847
226180
125371
186363
660179
522874
199535
126914
132538
223759
680841
1.02612e+06
488588
241420
131588
199030
719338
589596
204056
130880
226833
426747
894934
643119
185670
125500
124683
193378
506115
657077
221986
132284
242948
477160
1.00603e+06
715087
198649
132698
132873
206698
593791
909998
435735
232482
129418
191395
661387
528667
204445
131112
137482
230386
695037
1.06561e+06
487768
253363
137902
206116
738860
608142
212221
137056
238368
447322
930506
666234
195043
132452
132184
203943
528318
697930
233904
140378
262373
499859
1.09053e+06
762619
212320
142737
142369
219462
633206
982093
472167
251743
139748
203773
711847
600297
213177
140519
246093
456280
935434
687887
199889
138897
140705
213512
583683
902506
442083
241100
136529
198767
662325
537910
212445
138109
145388
239445
717711
1.10797e+06
510458
267681
147354
218103
772343
646177
226099
147246
260067
486604
998926
729800
213171
146804
147400
222937
622654
969333
471482
256310
144579
208262
706099
603872
218963
145701
249525
456917
933043
666867
204710
141315
140401
213923
539379
718525
246238
150073
275493
546941
1.1022e+06
786750
227494
153030
153064
234499
664520
1.03732e+06
502387
271774
152040
219947
752646
641076
230040
153097
267704
491419
996863
731781
217918
152183
153957
230783
631005
988082
488502
267311
151433
217287
726187
625670
228013
152733
264873
484235
975351
717337
215962
151482
153567
228817
620939
965103
479748
263637
150847
218231
703732
577784
231051
152194
161048
264147
775871
1.19045e+06
598659
297300
165685
246882
839307
710618
253065
165697
294369
537381
1.11376e+06
810180
239698
166715
167486
250607
696121
1.08896e+06
537812
291843
165763
237764
790514
682468
250409
167682
292721
531116
1.0768e+06
790142
238462
167153
168187
249478
682564
1.06743e+06
529786
290536
166028
236552
777682
676043
250031
167968
291095
527308
1.0632e+06
776538
237876
166989
168290
249722
674085
1.0514e+06
525386
289576
166101
235952
769736
671732
249320
168169
290493
526432
1.04969e+06
773119
238578
167401
168710
249349
672378
1.04131e+06
521137
289346
166028
235608
757783
661089
248405
167739
283376
509613
1.01514e+06
728844
233452
163297
161740
242344
603696
807970
283572
173813
322242
607191
1.25737e+06
883509
265131
179850
180315
275106
757520
1.17063e+06
587027
318909
179939
258937
849635
741293
272035
181362
317617
575664
1.16071e+06
846000
258712
181720
183794
273140
739223
1.15028e+06
576018
318481
181477
258453
837758
733275
271222
183102
317314
574143
1.14733e+06
836803
259103
182424
184712
274142
733692
1.14789e+06
577409
319157
182409
260194
835398
730300
273140
184146
317433
572151
1.13471e+06
831289
259499
183179
185509
273756
731606
1.13681e+06
573608
319422
183128
259598
826972
725446
272505
184890
317692
570215
1.12585e+06
824120
259678
183779
186189
273885
725874
1.12634e+06
571687
318876
183031
260246
818359
715795
271877
184526
310602
555123
1.09292e+06
783678
256212
179649
179449
268484
658396
888062
316718
194881
362023
669533
1.38508e+06
979027
297474
202043
201555
306615
844298
1.29104e+06
651974
353637
201991
290466
934935
821655
306459
204024
356082
641657
1.2841e+06
931336
292674
204945
206189
306092
817020
1.26458e+06
639946
354980
204187
289772
916949
808108
304991
206342
354008
629832
1.25539e+06
913290
290196
204160
205299
301791
805445
1.24174e+06
628792
350757
201887
286514
894438
790406
302211
204126
348281
618771
1.22233e+06
886706
285681
201395
202546
297273
780500
1.18123e+06
598198
337829
194409
276994
836041
702768
287838
193520
207994
337170
939481
1.43688e+06
730138
381566
213577
315240
1.00173e+06
865481
324225
212956
373601
669325
1.32511e+06
956524
304288
212599
215112
320062
843392
1.29361e+06
663021
371429
211108
301273
938398
829285
315712
212963
364240
646694
1.26995e+06
917851
296982
209493
212181
311907
815795
1.24505e+06
639071
359524
206936
296887
897346
758859
311102
208483
220356
358013
1.00376e+06
1.5211e+06
752561
401371
224522
330947
1.05184e+06
917068
344092
224825
393220
711161
1.39484e+06
999506
322167
223722
224142
332344
877655
1.33045e+06
674107
380544
215330
309753
935014
784315
321763
215159
230143
373180
1.03567e+06
1.57064e+06
778816
420938
233589
344237
1.0848e+06
943042
354291
232815
405554
730955
1.4244e+06
1.02075e+06
329318
229702
232387
347864
907012
1.39104e+06
705616
398243
226137
326812
992962
835342
343161
228373
240070
391284
1.09566e+06
1.65303e+06
806184
437994
242650
357458
1.13353e+06
986699
370854
242587
423720
764414
1.48652e+06
1.06284e+06
345345
239273
239468
355919
932772
1.39712e+06
709098
402922
226249
325711
974258
818533
337534
225975
240894
391286
1.07116e+06
1.60089e+06
813961
436125
241542
356917
1.09811e+06
957392
365859
240560
410083
726978
1.42091e+06
989971
332777
230167
230856
347912
838221
1.11211e+06
401268
247666
454578
855320
1.6722e+06
1.15924e+06
373418
249661
247305
378464
999120
1.46992e+06
750878
422513
235673
341444
1.01295e+06
850971
352793
235530
250698
406761
1.10935e+06
1.64221e+06
837929
448665
249795
370134
1.13214e+06
950063
386177
251994
261115
428027
1.22519e+06
1.79134e+06
896724
478708
260801
391945
1.20723e+06
1.04792e+06
401122
259437
443504
788868
1.53335e+06
1.05532e+06
357502
245872
243982
366163
880700
1.1292e+06
412634
256741
453142
840242
1.65112e+06
1.10733e+06
365232
246092
246384
378400
923375
1.18072e+06
431227
260367
467787
870491
1.71077e+06
1.1427e+06
377691
251983
250399
385380
946393
1.19444e+06
431426
261224
466852
876435
1.71687e+06
1.15004e+06
377661
252628
253659
391525
963375
1.22661e+06
445533
267245
482482
900624
1.76058e+06
1.17693e+06
389457
257871
256999
393386
977980
1.17223e+06
465104
275959
275369
492785
1.4377e+06
2.00056e+06
1e+06
509150
269077
414250
1.29474e+06
1.06648e+06
429067
270318
280688
479884
1.33118e+06
1.88875e+06
960134
509620
269141
411821
1.23945e+06
1.00594e+06
405709
262713
279025
479358
1.19098e+06
1.45284e+06
480533
278054
522740
1.01898e+06
2.01013e+06
1.27083e+06
419862
266715
259895
412212
1.02876e+06
1.20964e+06
486583
281845
285535
524160
1.48857e+06
2.07144e+06
1.02362e+06
536690
273489
426208
1.33396e+06
1.09865e+06
443160
273835
279830
477496
1.25955e+06
1.43231e+06
548555
292477
282230
550043
1.6441e+06
2.16226e+06
1.0928e+06
533751
264366
425702
1.32149e+06
1.05703e+06
433252
260230
259990
444786
1.17217e+06
1.30192e+06
501242
266961
261478
505390
1.43432e+06
1.5922e+06
610573
293326
284799
630587
1.80432e+06
2.32342e+06
1.21895e+06
583178
278162
463465
1.42492e+06
1.14088e+06
451651
271977
281522
515943
1.28686e+06
1.37488e+06
523863
278260
276064
536424
1.45363e+06
1.50892e+06
564113
272762
276725
600340
1.53353e+06
1.54292e+06
592834
268301
277904
625771
1.54173e+06
1.51627e+06
622256
275181
282061
627916
1.48379e+06
1.44806e+06
616691
279457
285726
619667
1.41381e+06
1.37954e+06
606398
283066
289378
610929
1.34832e+06
1.31832e+06
602764
286862
293974
608097
1.29177e+06
1.26679e+06
602112
291857
299121
608087
1.24468e+06
1.22469e+06
602589
297013
304364
608292
1.20658e+06
1.19073e+06
602816
302296
308661
607590
1.17599e+06
1.1635e+06
601104
306103
311304
604729
1.15165e+06
1.14213e+06
596986
308361
312432
600127
1.13254e+06
1.12573e+06
591286
308567
311967
593962
1.11777e+06
1.11348e+06
584551
307598
310464
586707
1.1069e+06
1.10455e+06
576155
305768
308672
577904
1.09926e+06
1.09812e+06
566956
304305
307122
568491
1.09414e+06
1.09376e+06
557051
302817
305707
558481
1.09096e+06
1.09108e+06
547392
301677
304364
548860
1.08913e+06
1.08954e+06
537804
300267
302898
539315
1.08817e+06
1.08881e+06
528933
298921
301318
530596
1.08784e+06
1.08865e+06
520466
297217
299562
522230
1.08785e+06
1.08895e+06
512885
295510
297697
514855
1.08824e+06
1.08952e+06
505796
293582
295742
507873
1.08884e+06
1.09021e+06
499575
291692
293728
501865
1.08957e+06
1.09099e+06
493794
289638
291674
496177
1.09036e+06
1.09182e+06
488795
287672
289613
491380
1.09121e+06
1.09267e+06
484136
285584
287544
486790
1.09206e+06
1.09353e+06
480146
283609
285495
482991
1.09293e+06
1.09439e+06
476385
281534
283451
479266
1.0938e+06
1.09524e+06
473186
279585
281441
476243
1.09466e+06
1.09609e+06
470126
277545
279440
473195
1.0955e+06
1.09692e+06
467543
275638
277503
470777
1.09634e+06
1.09774e+06
465030
273605
275509
468283
1.09717e+06
1.09855e+06
462846
271789
273632
466325
1.098e+06
1.09937e+06
460763
269875
271772
464238
1.09882e+06
1.10018e+06
458954
268106
269961
462630
1.09964e+06
1.10099e+06
457202
266285
268203
460861
1.10045e+06
1.10178e+06
455693
264621
266500
459533
1.10125e+06
1.10256e+06
454202
262913
264860
458013
1.10204e+06
1.10334e+06
452930
261368
263277
456914
1.10283e+06
1.10412e+06
451656
259786
261764
455602
1.10361e+06
1.10489e+06
450582
258370
260313
454691
1.10439e+06
1.10564e+06
449485
256922
258936
453549
1.10514e+06
1.10637e+06
448575
255642
257620
452796
1.10586e+06
1.10706e+06
447630
254314
256373
451798
1.10655e+06
1.10771e+06
446862
253182
255194
451180
1.1072e+06
1.10832e+06
446049
251937
254059
450308
1.10781e+06
1.1089e+06
445409
250937
253012
449814
1.10839e+06
1.10943e+06
444715
249815
252003
449057
1.10891e+06
1.10991e+06
444185
248942
251080
448665
1.10939e+06
1.11036e+06
443588
247938
250187
447996
1.10983e+06
1.11076e+06
443147
247175
249371
447691
1.11023e+06
1.11112e+06
442638
246277
248582
447109
1.11059e+06
1.11145e+06
442285
245616
247864
446888
1.11092e+06
1.11174e+06
441856
244811
247167
446382
1.1112e+06
1.112e+06
441577
244239
246535
446231
1.11146e+06
1.11223e+06
441216
243519
245921
445789
1.11168e+06
1.11243e+06
440999
243027
245365
445693
1.11188e+06
1.1126e+06
440689
242378
244818
445299
1.11206e+06
1.11276e+06
440518
241952
244328
445246
1.11222e+06
1.1129e+06
440250
241369
243847
444890
1.11236e+06
1.11303e+06
440117
241006
243413
444870
1.11248e+06
1.11314e+06
439879
240471
242975
444542
1.11259e+06
1.11324e+06
439772
240149
242584
444549
1.1127e+06
1.11333e+06
439561
239662
242199
444246
1.11279e+06
1.11342e+06
439480
239394
241858
444275
1.11287e+06
1.11349e+06
439289
238952
241511
443991
1.11294e+06
1.11356e+06
439228
238719
241204
444040
1.11301e+06
1.11362e+06
439057
238312
240896
443775
1.11306e+06
1.11367e+06
439011
238116
240620
443835
1.11311e+06
1.1137e+06
438848
237732
240328
443575
1.11314e+06
1.11373e+06
438811
237553
240076
443647
1.11317e+06
1.11375e+06
438664
237208
239836
443408
1.11319e+06
1.11378e+06
438648
237085
239632
443495
1.11322e+06
1.11379e+06
438508
236769
239395
443254
1.11322e+06
1.11379e+06
438485
236630
239172
443335
1.11322e+06
1.11378e+06
438347
236305
238955
443104
1.11321e+06
1.11378e+06
438344
236218
238800
443208
1.11321e+06
1.11377e+06
438223
235962
238627
442983
1.11321e+06
1.11376e+06
438211
235881
238442
443066
1.11319e+06
1.11373e+06
438067
235575
238229
442827
1.11316e+06
1.11371e+06
438057
235485
238081
442929
1.11316e+06
1.11372e+06
437944
235254
237953
442719
1.11316e+06
1.11373e+06
437952
235233
237827
442822
1.11317e+06
1.11372e+06
437822
234973
237637
442587
1.11316e+06
1.11371e+06
437808
234884
237474
442680
1.11315e+06
1.1137e+06
437687
234634
237342
442468
1.11315e+06
1.11371e+06
437703
234631
237258
442588
1.11318e+06
1.11374e+06
437598
234432
237131
442382
1.1132e+06
1.11376e+06
437611
234397
237001
442496
1.11321e+06
1.11375e+06
437501
234158
236860
442288
1.1132e+06
1.11375e+06
437515
234136
236763
442402
1.1132e+06
1.11375e+06
437405
233936
236653
442193
1.11322e+06
1.11378e+06
437420
233933
236561
442310
1.11326e+06
1.11383e+06
437316
233730
236445
442105
1.11332e+06
1.11389e+06
437329
233718
236340
442212
1.11338e+06
1.11396e+06
437205
233498
236202
441980
1.11345e+06
1.11406e+06
437191
233462
236078
442069
1.11358e+06
1.11423e+06
437061
233232
235943
441846
1.11377e+06
1.11448e+06
437149
233256
235770
441979
1.11403e+06
1.11429e+06
436710
232981
235560
441720
1.11321e+06
1.11347e+06
436078
232288
234614
438748
1.10839e+06
1.1019e+06
432171
229843
224022
424741
1.08089e+06
1.04646e+06
416807
219300
193557
380013
976669
904145
356692
179434
156145
317766
843686
68476.8
33809.6
22933.6
15108.9
9902.42
8567.51
6659.28
4258.76
3366.84
2570.16
1969.09
1510.72
1162.69
901.394
706.14
560.629
451.859
370.099
308.155
260.849
224.371
196.09
173.947
156.79
143.445
133.574
126.443
121.786
119.059
117.818
117.083
115.748
113.875
111.562
108.943
106.108
103.158
100.12
97.0209
93.8629
90.6464
87.3677
84.022
80.603
77.1026
73.5101
69.8117
65.9888
62.0154
57.8537
53.0385
46.3362
37.1324
27.1386
18.4404
11.8759
7.31024
4.302
2.42039
1.31412
0.71249
0.414925
0.275195
0.212069
0.183923
0.171053
0.164796
0.161043
0.158347
0.156192
0.154315
0.152583
0.150912
0.149247
0.147551
0.145797
0.143962
0.142033
0.139999
0.137851
0.135585
0.133201
0.1307
0.128085
0.125365
0.122546
0.11964
0.116658
0.113614
0.11052
0.107392
0.104241
0.101082
0.0979279
0.0947905
0.0916809
0.0886094
0.085585
0.0826159
0.0797087
0.0768695
0.0741029
0.071413
0.0688026
0.0662741
0.0638288
0.0614675
0.0591907
0.056998
0.0548887
0.0528619
0.0509163
0.0490503
0.0472621
0.0455498
0.0439112
0.0423442
0.0408466
0.0394159
0.0380499
0.0367462
0.0355025
0.0343164
0.0331855
0.0321078
0.0310808
0.0301024
0.0291705
0.0282829
0.0274378
0.0266331
0.0258669
0.0251374
0.0244427
0.0237813
0.0231513
0.0225513
0.0219795
0.0214345
0.0209148
0.020419
0.0199456
0.0194934
0.0190611
0.0186474
0.0182512
0.0178715
0.0175072
0.0171574
0.0168213
0.0164982
0.0161875
0.0158887
0.0156013
0.0153249
0.0150593
0.0148043
0.0145596
0.0143251
0.0141007
0.0138863
0.0136816
0.0134865
0.0133009
0.0131246
0.0129572
0.0127987
0.0126486
0.0125067
0.0123727
0.0122463
0.0121272
0.0120152
0.0119098
0.0118109
0.0117182
0.0116314
0.0115504
0.0114748
0.0114044
0.0113392
0.0112787
0.011223
0.0111717
0.0111248
0.0110822
0.0110439
0.01101
0.0109807
0.0109561
0.0109361
0.0109206
0.010909
0.0109003
0.0108934
0.0108876
0.0108837
0.0108837
0.0108837
0.0108837
0.0108838
0.0108841
0.010885
0.0108873
0.0108912
0.0108961
0.0109007
0.010903
0.0109015
0.0108962
0.0108878
0.0108772
0.0108653
0.0108522
0.010838
0.0108229
0.0108068
0.0107896
0.0107714
0.0107522
0.0107321
0.0107112
0.0106896
0.0106675
0.0106452
0.0106233
0.0106027
0.010585
0.0105733
0.010573
0.0105944
0.0106561
0.0107933
0.0110712
0.0116115
0.0126405
0.0145765
0.0181898
0.0248845
0.0371955
0.0596331
0.100102
0.172224
0.299166
0.520054
0.901443
1.55819
2.68926
4.6198
7.77315
12.3572
17.7484
22.4578
25.9208
29.9071
41.0938
75.915
201.454
921.558
2235.5
6974.27
8307.51
9183.73
10193.8
10730.8
11548.2
11907.7
12571
12821.9
13366.7
13555.1
14002.5
14148.7
14522.2
14637.1
14954.4
15045.7
15320
15392.8
15632.8
15690.9
15903.5
15949.7
16140.1
16176.7
16348.7
16377.5
16534.5
16556.9
16701.4
16718.4
16852.4
16865
16990.2
16999
17116.7
17122.5
17234
17237.3
17343.7
17345.1
17447.6
17447.5
17546.6
17545.9
17642.8
17641.5
17737
17735.5
17830.3
17828.9
17923.9
17923
18019
18018.8
18116.4
18117.5
18217.5
18220.2
18323.3
18328.1
18434.8
18441.8
18552.7
18562.2
18677.7
18690
18810.7
18826
18952.4
18970.9
19103.4
19125.3
19263.9
19289.2
19434
19462.3
19612.6
19643
19796.7
19827.6
19982.1
20011.6
20163
20188.3
20331
20348.2
20474.3
20478.3
20571.4
20559.7
20606.5
20573.9
20580.1
20493
20464.5
20311.5
20243.2
20018.1
19910.2
19613.3
19470.6
19113.1
18944.4
18543.8
18358.9
17934.4
17743.7
17315.8
17129
16713.1
16533.5
16136.7
15969.1
15596.1
15442.5
15097.3
14958.5
14643.2
14519.1
14232.6
14123
13864.7
13768.5
13536.3
13452.8
13244.9
13172.6
12985.9
12923.5
12755.7
12702
12551
12505.1
12368.7
12329.7
12206.2
12173
12060.6
12032.6
11929.9
11906.4
11812.3
11792.6
11706
11689.8
11609.8
11596.7
11522.5
11512.1
11443
11435
11370.9
11364.2
11304.9
11300.2
11244.2
11269.7
11151.2
11155.3
10989.5
10859.6
10751.9
10682
6771.19
5135.62
5185.86
6851.65
6909.61
5250.87
5400.63
7033.99
7219.63
5637.44
4171.67
4268.13
4265.78
4257.72
3857.83
3892.86
3943.16
3508.7
3506.81
3502.19
3298.25
3311.93
3330.92
3428.1
3494.31
4245.07
5433.88
7154.18
7281.04
5703.09
5497
7233.27
7338.92
5756.35
4294.68
4342.2
5552.79
7295.77
7403.77
5813.63
5611.11
7362.27
7471.4
5874.91
4388.02
4438.51
5672.61
7432.21
7545.7
5940.42
5738.07
7507.77
7625.94
6010.61
4489.94
4545.25
5807.96
7589.36
7712.71
6085.41
5882.4
7677.61
7806.75
6165.53
4602.67
4663.7
5961.96
7773.27
7908.91
6251.31
6047.09
7877.21
8020.14
6343.51
4727.74
4795.67
6138.47
7990.39
8141.5
6442.78
6236.71
8113.89
8274.16
6549.85
4867.46
4943.74
6342.51
8248.92
8419.44
6665.46
6456.55
8396.78
8578.71
6790.45
5024.75
5111.02
6579.63
8558.87
8753.4
6925.62
6712.46
8736.57
8944.91
7071.73
5202.85
5300.59
6855.7
8931.27
9154.65
7229.5
7009.97
9144.33
9384.09
7399.63
5404.38
5514.19
7175.78
9377.25
9634.23
7582.46
7353.01
9630.68
9905.09
7777.35
5629.5
5749.1
7540.55
9904.52
10196.3
7982.85
7736.56
10198.5
10505.4
8196.75
5871.62
5994.76
7938.78
10509.4
10829.9
8416.47
8144.11
10834.1
11164.8
8637.98
6115.51
6229.68
8347.67
11166.9
11503.8
8855.24
8542.78
11501.3
11837.4
9060.41
6332.3
6417.56
8721.28
11827.8
12152.4
9244.1
8873.81
12132
12434.3
9396.1
6479.12
6511.24
8990.85
12399.3
12668.5
9506.72
9064.34
12615.5
12841.9
9569
6509.27
6485.9
9090.05
12768.1
12932.1
9578.12
9070.31
12818.9
12951.9
9539.29
6430.38
6324.65
9010.93
12808
12922.4
9458.68
8911.03
12741.1
12842.1
9344.43
6195.5
6051.02
8779.54
12628.4
12719.6
9208.46
8627.03
12482.1
12566.8
9054.74
5896.5
5737.11
8464.9
12314.8
12395.6
8891.57
8299.6
12136.7
12215.8
8725.45
5576.7
5418.06
8135.87
11955.4
12034.3
8561.05
7976.86
11775.8
11855.6
8401.48
5263.89
5116.14
7824.7
11601.1
11682.1
8248.76
7680.58
11433.6
11516.8
8103.15
4975.79
4843.07
7543.69
11274.8
11360.7
7965.41
7413.3
11125.4
11213.9
7836.73
4717.31
4597.69
7289.04
10985
11075.9
7714.81
7171.28
10852.9
10946.1
7598.98
4483.56
4374.29
7059.27
10728.3
10823.6
7488.47
6952.21
10610.4
10707.5
7382.51
4269.06
4166.72
6849.34
10498.3
10597
7280.51
6750.1
10391.1
10491.3
7181.84
4067.13
3970.46
6653.93
10288.2
10389.4
7085.72
6560.09
10188.3
10290.4
6991.35
3876.14
3783.44
6467.84
10090.5
10193.3
6897.99
6376.47
9994
10097
6804.78
3691.98
3601.37
6285.13
9897.49
10000.4
6710.75
6192.9
9799.73
9902.19
6614.7
3511.32
3421.63
6098.64
9699.45
9801.02
6515.07
6000.77
9595.44
9695.8
6409.28
3332.28
3243.59
5896.63
9487.06
9586.24
6298.77
5788.17
9373.67
9471.35
6183.07
3152.12
3057.07
5674.55
9254.23
9350.06
6061.7
5555.38
9127.67
9221.13
5933.75
2958.77
2856.76
5429.79
8992.32
9083.07
5798.17
5296.82
8846.97
8934.37
5653.91
2750.44
2639.22
5155.43
8689.94
8773.4
5499.8
5004.54
8519.5
8598.33
5334.65
2522.42
2399.44
4843.02
8333.85
8407.19
5157.26
4669.78
8130.61
8197.6
4966.59
2269.74
2133.45
4484.02
7907.22
7966.64
4761.67
4284.94
7660.13
7710.3
4539.63
1991.99
1843.67
4069.52
7385.04
7424.2
4299.75
3834.41
7077.07
7103.06
4039.08
1686.74
1521.04
3577.6
6730.6
6740.98
3752.9
3296.19
6337.46
6326.13
3437.11
1346.31
1162.58
2986.87
5886.53
5844.25
3087.64
2646.91
5365.8
5284.11
2701.26
970.333
771.037
2272.04
4756.22
4624.32
2273.88
1865.96
4060.52
3833.82
1789.81
568.366
373.468
1419.76
3243.51
2868.84
1257.16
141.183
226.468
321.798
420.239
518.54
615.202
709.542
801.246
890.17
976.282
1059.85
1141.28
1220.6
1297.86
1373.19
1446.84
1519.01
1589.89
1659.68
1728.6
1796.63
1864.31
1932.38
2001.17
2070.91
2141.83
2214.1
2288.12
2363.79
2444.13
2528.88
2617.88
2711.08
2808.76
2911.24
3019
3132.29
3251.8
3376.94
3508.11
3645.55
3788.67
3936.44
4085.18
4230.84
4368.43
4491.35