/*--------------------------------*- C++ -*----------------------------------*\
| =========                 |                                                 |
| \\      /  F ield         | OpenFOAM: The Open Source CFD Toolbox           |
|  \\    /   O peration     | Version:  v2006                                 |
|   \\  /    A nd           | Website:  www.openfoam.com                      |
|    \\/     M anipulation  |                                                 |
\*---------------------------------------------------------------------------*/
FoamFile
{
    version     2.0;
    format      ascii;
    class       volScalarField;
    location    "0.123";
    object      nut;
}
// * * * * * * * * * * * * * * * * * * * * * * * * * * * * * * * * * * * * * //

dimensions      [0 2 -1 0 0 0 0];


internalField   nonuniform List<scalar> 
16277
(
21.8632
14.872
52.8836
10.7195
15.7937
8.91003
3.67348
1.51303
0.818568
0.552972
0.434862
0.374933
0.339117
0.313127
0.291245
0.271547
0.253619
0.237493
0.223189
0.210607
0.199555
0.189802
0.181125
0.173338
0.166291
0.159868
0.153984
0.14857
0.143573
0.138948
0.13466
0.130677
0.126972
0.123522
0.120307
0.11731
0.114515
0.111909
0.109482
0.107221
0.105119
0.103166
0.101356
0.0996818
0.0981389
0.0967224
0.0954279
0.0942522
0.0931926
0.0922472
0.0914146
0.0906941
0.0900857
0.0895895
0.0892054
0.0889373
0.0887876
0.0887597
0.0888581
0.0890854
0.0894491
0.0899563
0.0906164
0.0914404
0.0924404
0.0936314
0.0950311
0.0966611
0.0985487
0.100729
0.103249
0.106169
0.109569
0.113541
0.118174
0.123533
0.129621
0.13639
0.143904
0.15282
0.165446
0.188331
0.238297
0.359166
0.668965
1.40666
2.48432
2.65702
1.57431
1.03999
0.511946
0.233394
0.126895
0.059865
0.0141837
0.00255185
8.45546e-05
7.33878e-05
0.00119942
0.00552395
0.00304386
0.000777235
6.42811e-05
5.75595e-05
0.000708654
0.00255971
0.0020425
0.000609134
5.31905e-05
4.97642e-05
0.000590345
0.00193701
0.00167605
0.000531767
4.68457e-05
4.48784e-05
0.000522634
0.00163263
0.001486
0.000487046
4.29388e-05
4.18904e-05
0.00048999
0.0014709
0.00137594
0.000463937
4.06091e-05
3.99203e-05
0.000468107
0.00136753
0.00129544
0.000447127
3.89749e-05
3.84986e-05
0.000451263
0.00129168
0.00123209
0.000433466
3.77599e-05
3.74144e-05
0.000437484
0.00123093
0.0011793
0.000421821
3.68144e-05
3.65546e-05
0.000425823
0.0011798
0.00113385
0.000411597
3.60471e-05
3.58423e-05
0.000415613
0.00113545
0.00109377
0.000402366
3.53965e-05
3.52295e-05
0.000406335
0.00109609
0.00105776
0.000393853
3.48287e-05
3.46883e-05
0.000397772
0.0010606
0.00102506
0.00038593
3.43204e-05
3.41987e-05
0.000389808
0.00102829
0.000995098
0.000378523
3.38556e-05
3.37476e-05
0.000382365
0.000998657
0.000967434
0.000371569
3.3424e-05
3.33265e-05
0.000375374
0.000971293
0.000941807
0.000365009
3.30185e-05
3.29291e-05
0.000368775
0.000945923
0.000917989
0.000358797
3.26338e-05
3.25508e-05
0.000362525
0.000922332
0.000895811
0.000352902
3.22662e-05
3.21883e-05
0.000356601
0.000900354
0.00087512
0.00034731
3.19127e-05
3.18392e-05
0.000350981
0.000879825
0.000855751
0.000341998
3.15714e-05
3.15017e-05
0.000345638
0.000860581
0.000837545
0.000336933
3.12405e-05
3.11741e-05
0.000340541
0.000842463
0.000820359
0.00033209
3.09185e-05
3.08549e-05
0.000335662
0.000825337
0.000804069
0.000327439
3.06037e-05
3.05424e-05
0.000330974
0.000809084
0.000788571
0.000322955
3.02948e-05
3.02353e-05
0.000326448
0.000793599
0.000773765
0.000318612
2.99903e-05
2.99322e-05
0.00032206
0.000778788
0.000759571
0.000314387
2.96888e-05
2.96317e-05
0.000317786
0.000764575
0.000745919
0.000310259
2.93892e-05
2.93327e-05
0.000313608
0.00075089
0.000732745
0.000306211
2.90902e-05
2.90339e-05
0.000309509
0.000737671
0.000719994
0.000302229
2.87908e-05
2.87343e-05
0.000305474
0.000724868
0.00070762
0.000298299
2.84898e-05
2.84329e-05
0.000301492
0.00071244
0.000695593
0.000294414
2.81864e-05
2.81288e-05
0.000297554
0.000700357
0.000683886
0.000290565
2.78796e-05
2.78212e-05
0.000293656
0.000688594
0.00067248
0.000286751
2.75687e-05
2.75093e-05
0.000289802
0.000677136
0.000661363
0.000282972
2.7253e-05
2.71928e-05
0.000286017
0.000665977
0.000650536
0.000279243
2.69323e-05
2.68712e-05
0.000282271
0.000655115
0.000639996
0.000275549
2.66062e-05
2.65441e-05
0.000278573
0.000644548
0.000629744
0.000271902
2.62743e-05
2.62114e-05
0.000274936
0.000634285
0.0006198
0.00026832
2.59366e-05
2.58733e-05
0.000271379
0.000624352
0.000610198
0.000264824
2.55936e-05
2.55301e-05
0.000267926
0.00061479
0.000600984
0.00026144
2.52458e-05
2.51828e-05
0.000264612
0.000605737
0.000592257
0.000258211
2.48945e-05
2.48328e-05
0.000261483
0.000597274
0.000584095
0.000255185
2.45415e-05
2.44822e-05
0.000258588
0.00058941
0.000576567
0.000252416
2.41892e-05
2.41338e-05
0.000255989
0.000582281
0.000569823
0.00024997
2.38408e-05
2.37911e-05
0.000253761
0.000576049
0.000564035
0.000247928
2.35001e-05
2.3459e-05
0.000251988
0.000570896
0.000559398
0.000246396
2.31719e-05
2.31441e-05
0.000250711
0.000567019
0.000556134
0.000245443
2.28665e-05
2.2848e-05
0.000249831
0.000564562
0.000554314
0.000244844
2.25959e-05
2.25802e-05
0.00024937
0.000563809
0.000554213
0.000244735
2.23595e-05
2.23467e-05
0.000249397
0.000564772
0.000555807
0.000245155
2.21766e-05
2.21539e-05
0.000249899
0.000567343
0.000559034
0.000246087
2.20455e-05
2.20162e-05
0.000250804
0.000571303
0.000563587
0.000247297
2.19199e-05
2.19331e-05
0.000251938
0.000576545
0.000569399
0.00024858
2.18384e-05
2.18881e-05
0.000253059
0.000582867
0.00057619
0.000249886
2.18042e-05
2.18979e-05
0.000254002
0.000589532
0.000583109
0.000251018
2.18285e-05
2.19527e-05
0.000254781
0.000595924
0.000589628
0.00025184
2.18978e-05
2.20458e-05
0.000255526
0.000601754
0.000595578
0.000252497
2.20056e-05
2.21746e-05
0.000256122
0.000606888
0.000600856
0.000253102
2.21486e-05
2.23344e-05
0.000256662
0.000611277
0.000605358
0.000253438
2.23203e-05
2.25161e-05
0.000257064
0.000614996
0.00060895
0.000253657
2.2513e-05
2.27137e-05
0.000257337
0.000617891
0.00061147
0.000253772
2.272e-05
2.29202e-05
0.000257477
0.000620332
0.000613223
0.000253816
2.29341e-05
2.3129e-05
0.000257536
0.00062182
0.000614014
0.000253663
2.3149e-05
2.33346e-05
0.000257514
0.0006223
0.000613353
0.000253245
2.33588e-05
2.35312e-05
0.000257114
0.000621526
0.000611918
0.000252694
2.35568e-05
2.37122e-05
0.000256571
0.000619925
0.000609871
0.000252078
2.37372e-05
2.38735e-05
0.000255947
0.000617619
0.000607236
0.00025144
2.38965e-05
2.40128e-05
0.000255261
0.00061465
0.000604078
0.0002508
2.40325e-05
2.41291e-05
0.000254552
0.000611117
0.000600503
0.000250186
2.41455e-05
2.42239e-05
0.000253844
0.000607147
0.00059659
0.000249601
2.42365e-05
2.42985e-05
0.000253142
0.000602806
0.000592403
0.000249022
2.43071e-05
2.43513e-05
0.000252431
0.000598222
0.000587943
0.000248434
2.43577e-05
2.43874e-05
0.000251703
0.000593518
0.000583388
0.000247825
2.43921e-05
2.441e-05
0.000250955
0.000588744
0.000578792
0.000247193
2.44127e-05
2.44232e-05
0.000250194
0.000584008
0.000574161
0.000246499
2.44204e-05
2.44273e-05
0.00024941
0.000579282
0.000569507
0.000245721
2.44146e-05
2.44195e-05
0.000248595
0.000574536
0.000564855
0.000244929
2.43999e-05
2.44052e-05
0.000247773
0.0005698
0.000560209
0.000244121
2.43784e-05
2.43812e-05
0.000246919
0.00056507
0.000555547
0.000243256
2.43466e-05
2.43493e-05
0.000246019
0.000560345
0.000550916
0.000242362
2.43122e-05
2.43117e-05
0.000245058
0.000555604
0.000546159
0.000241425
2.42752e-05
2.42759e-05
0.000244091
0.000550829
0.000541456
0.000240476
2.42382e-05
2.42334e-05
0.000243091
0.000546103
0.000536832
0.000239489
2.41981e-05
2.41939e-05
0.000242082
0.00054143
0.000532161
0.00023845
2.41399e-05
2.41616e-05
0.000241094
0.000536814
0.000527247
0.000237454
2.4089e-05
2.41136e-05
0.00023989
0.000532531
0.000523279
0.00023585
2.40038e-05
2.41499e-05
0.000240064
0.000531247
0.000524736
0.000239715
2.40844e-05
2.44828e-05
0.000240159
0.00053059
0.000555596
0.000252465
2.46647e-05
2.62667e-05
0.000236753
0.000540155
0.000824893
0.000344018
2.96247e-05
3.19725e-05
0.000178449
0.000409661
0.0010106
0.00231584
0.00432913
0.00617182
0.00743274
0.00976984
0.011262
0.0126009
0.0133547
0.0137152
0.0136139
0.0130082
0.0121459
0.0107629
0.00940684
0.00735097
0.00642289
0.00467359
0.00349665
0.0023749
0.00135
0.00061959
0.000226086
9.32374e-05
1.80326e-05
1.17789e-05
8.70381e-05
0.000204699
0.000193696
8.28206e-05
1.13783e-05
1.09191e-05
7.9689e-05
0.00018343
0.000183917
7.85149e-05
1.07945e-05
1.07273e-05
7.81116e-05
0.000181154
0.000181208
7.73516e-05
1.06287e-05
1.06234e-05
7.73198e-05
0.00018099
0.000181538
7.73634e-05
1.06377e-05
1.0637e-05
7.74771e-05
0.000181915
0.000182206
7.76152e-05
1.0654e-05
1.06623e-05
7.7729e-05
0.00018275
0.000183006
7.78572e-05
1.06728e-05
1.06903e-05
7.79968e-05
0.000183583
0.000183894
7.81304e-05
1.06844e-05
1.07032e-05
7.82987e-05
0.000184483
0.000184803
7.8407e-05
1.07114e-05
1.07297e-05
7.85838e-05
0.000185413
0.000185715
7.86747e-05
1.07306e-05
1.07361e-05
7.89287e-05
0.000186377
0.000186682
7.89805e-05
1.07598e-05
1.07639e-05
7.92154e-05
0.000187359
0.000187676
7.9313e-05
1.07731e-05
1.07774e-05
7.955e-05
0.000188387
0.000188715
7.96431e-05
1.08048e-05
1.08107e-05
7.98791e-05
0.000189408
0.000189727
7.99777e-05
1.082e-05
1.08212e-05
8.02066e-05
0.000190451
0.000190794
8.03112e-05
1.08468e-05
1.08535e-05
8.05672e-05
0.00019155
0.000191901
8.06973e-05
1.08673e-05
1.08713e-05
8.09341e-05
0.000192652
0.000193
8.10326e-05
1.08959e-05
1.08995e-05
8.12912e-05
0.000193763
0.000194132
8.14282e-05
1.09117e-05
1.09178e-05
8.16948e-05
0.000194928
0.000195295
8.18487e-05
1.09374e-05
1.09572e-05
8.20581e-05
0.0001961
0.000196485
8.22116e-05
1.09619e-05
1.09711e-05
8.2521e-05
0.000197321
0.000197705
8.26608e-05
1.0991e-05
1.10121e-05
8.2888e-05
0.000198526
0.00019891
8.3035e-05
1.10153e-05
1.10218e-05
8.33477e-05
0.000199742
0.000200126
8.34928e-05
1.10416e-05
1.10638e-05
8.37329e-05
0.000200958
0.000201345
8.38758e-05
1.10665e-05
1.10741e-05
8.42063e-05
0.000202196
0.00020259
8.43531e-05
1.1094e-05
1.11171e-05
8.4604e-05
0.000203419
0.000203795
8.47435e-05
1.1121e-05
1.11274e-05
8.50689e-05
0.000204646
0.000205016
8.51994e-05
1.11436e-05
1.11655e-05
8.54528e-05
0.000205825
0.000206202
8.55927e-05
1.11694e-05
1.11769e-05
8.5922e-05
0.000207037
0.000207399
8.60469e-05
1.11945e-05
1.12165e-05
8.62816e-05
0.000208184
0.000208514
8.63857e-05
1.12184e-05
1.12243e-05
8.66863e-05
0.00020929
0.000209587
8.67678e-05
1.12401e-05
1.12592e-05
8.69542e-05
0.000210266
0.00021055
8.70139e-05
1.12592e-05
1.12639e-05
8.72538e-05
0.000211198
0.000211393
8.72129e-05
1.12847e-05
1.12836e-05
8.73557e-05
0.000211926
0.00021209
8.73131e-05
1.12872e-05
1.12844e-05
8.73965e-05
0.000212527
0.000212576
8.72682e-05
1.13021e-05
1.12926e-05
8.72408e-05
0.000212857
0.000212905
8.70745e-05
1.1289e-05
1.12802e-05
8.69922e-05
0.000213045
0.00021299
8.67341e-05
1.1285e-05
1.12853e-05
8.64539e-05
0.00021301
0.000212764
8.60958e-05
1.12687e-05
1.12523e-05
8.57677e-05
0.000212685
0.000212195
8.52693e-05
1.12487e-05
1.12426e-05
8.47405e-05
0.000212022
0.00021133
8.40944e-05
1.12202e-05
1.12017e-05
8.35565e-05
0.000211167
0.000210318
8.27661e-05
1.12032e-05
1.11867e-05
8.21305e-05
0.000210135
0.000209079
8.12489e-05
1.11764e-05
1.11634e-05
8.05173e-05
0.000208844
0.000207635
7.95545e-05
1.11653e-05
1.11764e-05
7.87068e-05
0.000207474
0.000206453
7.7792e-05
1.11777e-05
1.1209e-05
7.71341e-05
0.000206752
0.000206133
7.63333e-05
1.12572e-05
1.13201e-05
7.57071e-05
0.000206469
0.000206222
7.49201e-05
1.13824e-05
1.14658e-05
7.44586e-05
0.000207266
0.000208165
7.36031e-05
1.15588e-05
1.16705e-05
7.3186e-05
0.00021051
0.000213833
7.41319e-05
1.17969e-05
1.19144e-05
7.44565e-05
0.000216491
0.000218047
7.39799e-05
1.19439e-05
1.20274e-05
7.25836e-05
0.000221161
0.000224736
7.6435e-05
1.21965e-05
1.23138e-05
7.41844e-05
0.000227774
0.000230908
7.60425e-05
1.25168e-05
1.26669e-05
7.71086e-05
0.000236802
0.000238634
7.89699e-05
1.28876e-05
1.32004e-05
8.32118e-05
0.000246477
0.000247744
8.53543e-05
1.34993e-05
1.37624e-05
8.88118e-05
0.000253547
0.000255076
9.16421e-05
1.42433e-05
1.52442e-05
0.000105773
0.000265769
0.000264724
0.000112215
1.14709e-05
8.79142e-06
2.74167e-05
7.41745e-05
0.000206962
6.43892e-05
1.03672e-05
1.08898e-05
5.75232e-05
0.000190084
0.00020028
5.97709e-05
1.11496e-05
1.13449e-05
5.66035e-05
0.000191571
0.00020676
6.11836e-05
1.1705e-05
1.20726e-05
6.04698e-05
0.000204179
0.000224865
6.89479e-05
1.2487e-05
1.28754e-05
6.82845e-05
0.000220597
0.000241472
7.92392e-05
1.33514e-05
1.40458e-05
8.13283e-05
0.000242973
0.000269475
9.79894e-05
1.54722e-05
1.18864e-05
0.000109107
0.000276875
7.45171e-05
2.58702e-05
9.45912e-06
1.13143e-05
6.97413e-05
0.000232492
0.000227291
6.46308e-05
1.22803e-05
1.30434e-05
8.46653e-05
0.00028071
0.000286315
8.57453e-05
1.36241e-05
1.43847e-05
0.000100024
0.000318793
0.000328033
0.00010736
1.54184e-05
1.72319e-05
0.000127967
0.000359162
0.000348893
0.0001382
1.33928e-05
1.01716e-05
3.14284e-05
9.21413e-05
0.000284252
8.43412e-05
1.20997e-05
1.31055e-05
7.84651e-05
0.000278347
0.000318636
9.58875e-05
1.39441e-05
1.48267e-05
9.55039e-05
0.000313995
0.000355898
0.000121665
1.70836e-05
1.37354e-05
0.000142766
0.000359477
9.75842e-05
3.13563e-05
1.01248e-05
1.26624e-05
8.84647e-05
0.000321628
0.000331467
9.2701e-05
1.42813e-05
1.65077e-05
0.000130451
0.000426351
0.000445931
0.000153722
1.92935e-05
1.58956e-05
0.000179268
0.000451765
0.000125781
3.6906e-05
1.06835e-05
1.38238e-05
0.000117847
0.000399574
0.000396604
0.00011382
1.60621e-05
2.01783e-05
0.000169879
0.000502385
0.000512165
0.000199732
1.68153e-05
1.11895e-05
4.15268e-05
0.000156257
0.000517642
0.000152381
1.60813e-05
2.02658e-05
0.000160838
0.000556916
0.000773253
0.000272252
2.77895e-05
2.31369e-05
0.000290117
0.000743438
0.00026304
6.8984e-05
1.51111e-05
2.69149e-05
0.000281655
0.00081024
0.000809531
0.000301048
2.50999e-05
1.71423e-05
7.75376e-05
0.000317747
0.00111938
0.000372147
3.73661e-05
3.68114e-05
0.00042903
0.00121587
0.00055338
0.000152844
2.33838e-05
3.72127e-05
0.000497386
0.00144977
0.000957663
0.000317515
2.47801e-05
4.59958e-05
0.000559824
0.00112924
0.000968682
0.000468338
3.78186e-05
3.83135e-05
0.000446467
0.0010625
0.00136308
0.000492835
4.39648e-05
6.07712e-05
0.000920456
0.00227242
0.000506508
0.000157502
3.45603e-05
3.53812e-05
0.000441743
0.00101214
0.000313118
0.000111887
2.46906e-05
2.67236e-05
0.000273226
0.000656347
0.000560145
0.00020022
2.6767e-05
1.44537e-05
5.10714e-05
0.000160777
0.000378813
0.000208132
1.77365e-05
1.67732e-05
6.73351e-05
0.000172425
0.000418169
0.0001834
1.91516e-05
2.04238e-05
0.000148796
0.000378095
0.00012251
4.59909e-05
1.35039e-05
1.60762e-05
0.000144919
0.000326526
0.000300359
0.000122271
1.82232e-05
1.2647e-05
3.99001e-05
0.00010076
0.000278531
0.000124184
1.46421e-05
1.67705e-05
0.00010748
0.000255777
8.83987e-05
3.68363e-05
1.21998e-05
1.37641e-05
0.000109663
0.00024475
0.000222146
9.74781e-05
1.63425e-05
1.21088e-05
3.45344e-05
7.94927e-05
0.000216768
9.93398e-05
1.30627e-05
1.53924e-05
8.66818e-05
0.000196904
7.11018e-05
3.18e-05
1.17091e-05
1.25979e-05
9.18089e-05
0.000195273
0.000175347
7.97779e-05
1.48595e-05
1.14391e-05
2.98614e-05
6.53204e-05
0.000177661
8.46396e-05
1.20537e-05
1.46726e-05
7.4885e-05
0.000161892
6.35473e-05
2.98919e-05
1.1541e-05
1.21516e-05
8.5908e-05
0.000172916
0.000147581
7.02676e-05
1.54639e-05
1.28739e-05
5.56015e-05
0.000119731
4.71184e-05
2.1653e-05
1.02921e-05
1.00922e-05
5.77479e-05
0.000118224
0.00011135
5.387e-05
1.30641e-05
1.06011e-05
2.18538e-05
4.53868e-05
0.000108961
5.54215e-05
9.97731e-06
1.27544e-05
5.09309e-05
0.000101301
4.27066e-05
2.13281e-05
1.02777e-05
9.73354e-06
5.20115e-05
9.75792e-05
9.32863e-05
4.95178e-05
1.26228e-05
1.04153e-05
2.05243e-05
4.03427e-05
9.18206e-05
4.96963e-05
9.64544e-06
1.23955e-05
4.68384e-05
8.65821e-05
3.87589e-05
2.0008e-05
1.01903e-05
9.41885e-06
4.62313e-05
8.45239e-05
8.11864e-05
4.50568e-05
1.22655e-05
1.01308e-05
1.93404e-05
3.66556e-05
7.96302e-05
4.46122e-05
9.26936e-06
1.21637e-05
4.29366e-05
7.59645e-05
3.52254e-05
1.90434e-05
9.95113e-06
8.99482e-06
4.12346e-05
7.20691e-05
6.98451e-05
3.9889e-05
1.18842e-05
9.65179e-06
1.72981e-05
3.13078e-05
6.20683e-05
4.55607e-05
8.56808e-06
1.1128e-05
2.20895e-05
3.60204e-05
8.22278e-05
4.71771e-05
9.95151e-06
1.25235e-05
4.3433e-05
7.62883e-05
3.7018e-05
2.12838e-05
1.02459e-05
9.38796e-06
4.58111e-05
7.67512e-05
7.26927e-05
4.23785e-05
1.23129e-05
1.02277e-05
2.11662e-05
3.59295e-05
7.53822e-05
4.52887e-05
9.36716e-06
1.21074e-05
4.18072e-05
7.13649e-05
3.4815e-05
2.10053e-05
1.00668e-05
9.22709e-06
4.25251e-05
6.80195e-05
6.44891e-05
3.87068e-05
1.23366e-05
1.02887e-05
2.08963e-05
3.29581e-05
6.32781e-05
4.00172e-05
9.06105e-06
1.18975e-05
3.64496e-05
5.97098e-05
2.92932e-05
1.91001e-05
9.6414e-06
8.39565e-06
3.94775e-05
5.28695e-05
3.20054e-05
2.20441e-05
1.10311e-05
9.76554e-06
3.90249e-05
6.28573e-05
5.73229e-05
3.54149e-05
1.246e-05
1.01555e-05
2.11859e-05
3.08358e-05
5.74525e-05
3.74838e-05
9.0183e-06
1.19811e-05
3.46752e-05
5.20991e-05
2.80463e-05
2.00503e-05
9.91626e-06
8.49334e-06
3.72897e-05
4.77771e-05
3.01592e-05
2.19018e-05
1.11494e-05
9.67247e-06
3.75501e-05
5.77845e-05
5.23034e-05
3.39177e-05
1.22296e-05
1.00406e-05
2.13393e-05
2.92468e-05
5.42332e-05
3.61213e-05
8.97368e-06
1.19445e-05
3.29023e-05
4.92586e-05
2.69191e-05
2.004e-05
9.83453e-06
8.46247e-06
3.47608e-05
4.38095e-05
2.83151e-05
2.15535e-05
1.11494e-05
9.55892e-06
3.50186e-05
5.33407e-05
4.79737e-05
3.19796e-05
1.22019e-05
1.00535e-05
2.13265e-05
2.72577e-05
4.88339e-05
3.32976e-05
8.94888e-06
1.19731e-05
3.05552e-05
4.42344e-05
2.49849e-05
1.9849e-05
1.00582e-05
8.43874e-06
3.18028e-05
3.90482e-05
2.59929e-05
2.08619e-05
1.10955e-05
9.3557e-06
3.17987e-05
4.75226e-05
4.28096e-05
2.90728e-05
1.19346e-05
9.62441e-06
2.00572e-05
2.45291e-05
3.82607e-05
3.17954e-05
8.15485e-06
1.09547e-05
2.14077e-05
2.58556e-05
4.70247e-05
3.11531e-05
9.26204e-06
1.22475e-05
2.88104e-05
4.18864e-05
2.45849e-05
2.0769e-05
1.0057e-05
8.41359e-06
3.10569e-05
3.77971e-05
2.59278e-05
2.184e-05
1.10262e-05
9.18863e-06
3.13617e-05
4.63493e-05
4.15858e-05
2.8816e-05
1.1987e-05
9.84366e-06
2.06777e-05
2.43502e-05
3.73911e-05
3.14927e-05
8.16969e-06
1.10596e-05
2.19433e-05
2.56923e-05
4.56398e-05
3.06603e-05
9.33639e-06
1.2221e-05
2.8539e-05
4.09202e-05
2.44435e-05
2.13268e-05
1.00264e-05
8.40468e-06
3.15035e-05
3.67948e-05
2.56071e-05
2.24438e-05
1.10996e-05
9.30957e-06
3.03858e-05
4.47948e-05
3.99256e-05
2.80448e-05
1.21092e-05
1.0087e-05
2.10473e-05
2.3815e-05
3.55131e-05
3.10639e-05
8.27423e-06
1.09438e-05
2.28229e-05
2.54969e-05
3.87201e-05
2.96766e-05
8.79012e-06
1.13831e-05
2.30193e-05
2.68053e-05
4.56875e-05
3.04381e-05
9.53544e-06
1.21197e-05
2.84546e-05
4.07606e-05
2.46878e-05
2.18488e-05
9.88213e-06
8.23447e-06
3.13571e-05
3.64691e-05
2.57506e-05
2.32785e-05
1.11509e-05
9.35175e-06
3.01501e-05
4.40586e-05
3.94876e-05
2.81538e-05
1.22064e-05
1.01245e-05
2.16989e-05
2.40067e-05
3.5066e-05
3.08649e-05
8.38976e-06
1.11265e-05
2.3281e-05
2.56134e-05
3.80847e-05
2.94745e-05
8.9968e-06
1.13616e-05
2.36364e-05
2.67831e-05
4.49023e-05
3.01334e-05
9.3954e-06
1.21369e-05
2.83495e-05
4.01032e-05
2.47374e-05
2.26311e-05
9.94442e-06
8.29547e-06
3.1465e-05
3.58149e-05
2.64981e-05
2.44768e-05
1.11652e-05
8.95301e-06
3.04165e-05
3.90687e-05
2.77026e-05
2.502e-05
1.14642e-05
9.56565e-06
3.0667e-05
4.58225e-05
4.08811e-05
2.88565e-05
1.239e-05
1.00907e-05
2.31574e-05
2.53212e-05
3.633e-05
3.24609e-05
8.33469e-06
1.11365e-05
2.48117e-05
2.69564e-05
3.92324e-05
3.09036e-05
8.96021e-06
1.14871e-05
2.53004e-05
2.7992e-05
4.59587e-05
3.09989e-05
9.57002e-06
1.23211e-05
2.93125e-05
4.10893e-05
2.58457e-05
2.39989e-05
1.01243e-05
8.48961e-06
3.27271e-05
3.69033e-05
2.76444e-05
2.57507e-05
1.13557e-05
9.18553e-06
3.15774e-05
3.99314e-05
2.86912e-05
2.61003e-05
1.15287e-05
9.5356e-06
3.134e-05
4.63198e-05
4.13858e-05
2.95251e-05
1.22388e-05
1.00248e-05
2.37833e-05
2.57936e-05
3.62585e-05
3.24099e-05
8.49703e-06
1.13186e-05
2.54045e-05
2.71572e-05
3.87906e-05
3.09121e-05
9.12166e-06
1.15969e-05
2.59415e-05
2.80946e-05
4.4814e-05
3.07146e-05
9.61047e-06
1.24132e-05
2.91309e-05
4.01573e-05
2.56241e-05
2.41293e-05
1.01918e-05
8.55644e-06
3.23218e-05
3.60633e-05
2.72757e-05
2.5634e-05
1.12633e-05
8.91483e-06
3.05412e-05
3.84653e-05
2.86442e-05
2.61569e-05
1.13826e-05
9.0617e-06
3.12837e-05
4.00986e-05
2.95247e-05
2.77341e-05
1.15692e-05
9.64938e-06
3.19968e-05
4.60352e-05
4.10982e-05
3.03794e-05
1.23976e-05
1.02287e-05
2.50357e-05
2.64608e-05
3.69483e-05
3.3759e-05
8.5123e-06
1.13723e-05
2.62975e-05
2.80497e-05
3.89184e-05
3.10822e-05
9.17268e-06
1.15604e-05
2.66103e-05
2.92363e-05
4.02902e-05
3.164e-05
9.16076e-06
1.16098e-05
2.82341e-05
2.98806e-05
4.60445e-05
3.21963e-05
9.62811e-06
1.2359e-05
3.06077e-05
4.13532e-05
2.70379e-05
2.57292e-05
1.01985e-05
8.53925e-06
3.40469e-05
3.72715e-05
2.86078e-05
2.71368e-05
1.14552e-05
9.18538e-06
3.14971e-05
3.96737e-05
2.9954e-05
2.76354e-05
1.16339e-05
9.28689e-06
3.26357e-05
4.11397e-05
3.07954e-05
2.92753e-05
1.17683e-05
9.8073e-06
3.32073e-05
4.70155e-05
4.21836e-05
3.15915e-05
1.25053e-05
1.01903e-05
2.63544e-05
2.78629e-05
3.77993e-05
3.46949e-05
8.59176e-06
1.15097e-05
2.76304e-05
2.92606e-05
3.97721e-05
3.19095e-05
9.14863e-06
1.16348e-05
2.77794e-05
3.01589e-05
4.08435e-05
3.24766e-05
9.24344e-06
1.18251e-05
2.93478e-05
3.08614e-05
4.61471e-05
3.27901e-05
9.78853e-06
1.26655e-05
3.15746e-05
4.16943e-05
2.80548e-05
2.69269e-05
1.05837e-05
8.81062e-06
3.4705e-05
3.75864e-05
2.95223e-05
2.82226e-05
1.16358e-05
9.23149e-06
3.2549e-05
3.99629e-05
3.06751e-05
2.83652e-05
1.16605e-05
9.18768e-06
3.24486e-05
4.10754e-05
3.15367e-05
2.92748e-05
1.16631e-05
9.34258e-06
3.41989e-05
4.21106e-05
3.1974e-05
3.08649e-05
1.17831e-05
9.78866e-06
3.41801e-05
4.74509e-05
4.30314e-05
3.27183e-05
1.25267e-05
1.02349e-05
2.72991e-05
2.90369e-05
3.81148e-05
3.53376e-05
8.67088e-06
1.16637e-05
2.86267e-05
3.02311e-05
3.99695e-05
3.24311e-05
9.32983e-06
1.18087e-05
2.89538e-05
3.10835e-05
4.09308e-05
3.27969e-05
9.27332e-06
1.17393e-05
2.98715e-05
3.18074e-05
4.24036e-05
3.43934e-05
9.40245e-06
1.18931e-05
3.16411e-05
3.25616e-05
4.81707e-05
3.50481e-05
9.8724e-06
1.27002e-05
3.36402e-05
4.37425e-05
3.01297e-05
2.88803e-05
1.04739e-05
8.72246e-06
3.70799e-05
3.95286e-05
3.14693e-05
3.01664e-05
1.16699e-05
9.21964e-06
3.42138e-05
4.1935e-05
3.25802e-05
3.02743e-05
1.17944e-05
9.38062e-06
3.4537e-05
4.28924e-05
3.3338e-05
3.12554e-05
1.17993e-05
9.40548e-06
3.60587e-05
4.41635e-05
3.40293e-05
3.29084e-05
1.19476e-05
1.0002e-05
3.62889e-05
4.94839e-05
4.5074e-05
3.47528e-05
1.27224e-05
1.04389e-05
2.95261e-05
3.1188e-05
4.00505e-05
3.72837e-05
8.90691e-06
1.18325e-05
3.07569e-05
3.24148e-05
4.20425e-05
3.4618e-05
9.44072e-06
1.19941e-05
3.07801e-05
3.33019e-05
4.26689e-05
3.43879e-05
9.48335e-06
1.19741e-05
3.17054e-05
3.37258e-05
4.40273e-05
3.59779e-05
9.60664e-06
1.20979e-05
3.36961e-05
3.43851e-05
4.94968e-05
3.69494e-05
1.00271e-05
1.29003e-05
3.56095e-05
4.54415e-05
3.19651e-05
3.06606e-05
1.05911e-05
8.90575e-06
3.86808e-05
4.10414e-05
3.33473e-05
3.18608e-05
1.18888e-05
9.45229e-06
3.56422e-05
4.31519e-05
3.44215e-05
3.19892e-05
1.20377e-05
9.54293e-06
3.57845e-05
4.42064e-05
3.51305e-05
3.28671e-05
1.19744e-05
9.59841e-06
3.73634e-05
4.53163e-05
3.5584e-05
3.45554e-05
1.20894e-05
1.0046e-05
3.76459e-05
5.04557e-05
4.62268e-05
3.63184e-05
1.29606e-05
1.05765e-05
3.10763e-05
3.27057e-05
4.09591e-05
3.87929e-05
9.00407e-06
1.1988e-05
3.22683e-05
3.38429e-05
4.23785e-05
3.53611e-05
9.50927e-06
1.21308e-05
3.23708e-05
3.45144e-05
4.32596e-05
3.55848e-05
9.6059e-06
1.20445e-05
3.31434e-05
3.50715e-05
4.44571e-05
3.6684e-05
9.59135e-06
1.203e-05
3.4306e-05
3.60961e-05
4.62065e-05
3.88043e-05
9.61724e-06
1.21568e-05
3.61796e-05
3.67042e-05
5.1924e-05
3.90834e-05
1.01168e-05
1.31607e-05
3.78488e-05
4.78347e-05
3.43703e-05
3.32969e-05
1.09086e-05
9.05745e-06
4.12445e-05
4.32514e-05
3.58764e-05
3.46595e-05
1.20895e-05
9.6437e-06
3.83459e-05
4.54987e-05
3.6956e-05
3.47279e-05
1.21949e-05
9.66263e-06
3.86053e-05
4.68343e-05
3.79105e-05
3.57376e-05
1.21093e-05
9.68301e-06
4.04729e-05
4.85143e-05
3.87093e-05
3.75828e-05
1.22534e-05
1.02473e-05
4.06431e-05
5.37661e-05
4.93291e-05
3.92966e-05
1.32692e-05
1.09205e-05
3.43649e-05
3.56712e-05
4.43355e-05
4.2466e-05
9.14172e-06
1.22114e-05
3.56178e-05
3.72036e-05
4.58504e-05
3.9163e-05
9.75063e-06
1.23031e-05
3.53841e-05
3.7813e-05
4.64583e-05
3.87752e-05
9.82598e-06
1.22375e-05
3.62695e-05
3.83092e-05
4.76708e-05
4.01867e-05
9.77432e-06
1.24022e-05
3.80895e-05
3.87566e-05
5.30334e-05
4.06482e-05
1.03287e-05
1.35413e-05
3.97211e-05
4.90091e-05
3.62932e-05
3.55029e-05
1.11715e-05
9.20571e-06
4.30923e-05
4.4562e-05
3.78257e-05
3.68342e-05
1.23047e-05
9.83533e-06
4.03115e-05
4.66993e-05
3.89088e-05
3.68884e-05
1.23935e-05
9.80624e-06
4.02364e-05
4.7828e-05
3.96392e-05
3.78174e-05
1.23326e-05
9.90699e-06
4.17318e-05
4.94802e-05
4.04949e-05
3.9905e-05
1.25973e-05
1.0473e-05
4.23638e-05
5.48318e-05
5.05185e-05
4.1318e-05
1.36194e-05
1.11967e-05
3.68736e-05
3.77526e-05
4.60653e-05
4.48954e-05
9.31607e-06
1.23806e-05
3.78988e-05
3.9273e-05
4.75201e-05
4.11808e-05
9.88669e-06
1.25606e-05
3.7867e-05
3.99978e-05
4.82268e-05
4.10564e-05
9.94247e-06
1.25798e-05
3.89589e-05
4.06145e-05
4.95392e-05
4.23549e-05
1.0013e-05
1.28674e-05
4.10866e-05
4.1174e-05
5.50218e-05
4.30948e-05
1.07762e-05
1.40682e-05
4.24156e-05
5.10794e-05
3.91345e-05
3.8888e-05
1.15576e-05
9.63297e-06
4.62273e-05
4.73751e-05
4.07756e-05
4.00511e-05
1.2627e-05
1.00635e-05
4.37911e-05
4.96536e-05
4.19464e-05
4.02516e-05
1.28013e-05
1.0064e-05
4.37541e-05
5.10833e-05
4.24709e-05
4.18674e-05
1.30039e-05
1.09201e-05
4.37147e-05
5.59467e-05
5.17365e-05
4.30039e-05
1.43406e-05
1.16525e-05
3.91791e-05
3.97547e-05
4.71174e-05
4.63685e-05
9.74283e-06
1.28987e-05
4.04292e-05
4.12142e-05
4.88061e-05
4.35746e-05
1.02661e-05
1.30734e-05
4.05071e-05
4.20228e-05
4.99811e-05
4.31044e-05
1.0318e-05
1.3327e-05
4.25681e-05
4.24357e-05
5.4811e-05
4.37307e-05
1.102e-05
1.45269e-05
4.33483e-05
5.11296e-05
4.03414e-05
4.04311e-05
1.19494e-05
9.80381e-06
4.71916e-05
4.75384e-05
4.18484e-05
4.16263e-05
1.29717e-05
1.02431e-05
4.40897e-05
4.97998e-05
4.3079e-05
4.20988e-05
1.32637e-05
1.0516e-05
4.45389e-05
5.13096e-05
4.38483e-05
4.38762e-05
1.3532e-05
1.12136e-05
4.50124e-05
5.59869e-05
5.22162e-05
4.47553e-05
1.48889e-05
1.19417e-05
4.12575e-05
4.1687e-05
4.79127e-05
4.81173e-05
9.89471e-06
1.33378e-05
4.2754e-05
4.30218e-05
4.98776e-05
4.5068e-05
1.05511e-05
1.35062e-05
4.29577e-05
4.38565e-05
5.13528e-05
4.48018e-05
1.06728e-05
1.38748e-05
4.53017e-05
4.44658e-05
5.64075e-05
4.58435e-05
1.15229e-05
1.51689e-05
4.56711e-05
5.28493e-05
4.28584e-05
4.33853e-05
1.22641e-05
1.01295e-05
4.98437e-05
4.96523e-05
4.46488e-05
4.50813e-05
1.36797e-05
1.0847e-05
4.7409e-05
5.2382e-05
4.60695e-05
4.5495e-05
1.39946e-05
1.11401e-05
4.72314e-05
5.42592e-05
4.71256e-05
4.7974e-05
1.44401e-05
1.19797e-05
4.85036e-05
5.93074e-05
5.56154e-05
4.84409e-05
1.5826e-05
1.2809e-05
4.57045e-05
4.55508e-05
5.19017e-05
5.23516e-05
1.05275e-05
1.40472e-05
4.72435e-05
4.69587e-05
5.43972e-05
4.92135e-05
1.11841e-05
1.47379e-05
4.88284e-05
4.7962e-05
5.92979e-05
4.88143e-05
1.22523e-05
1.61258e-05
4.85083e-05
5.58375e-05
4.59399e-05
4.67875e-05
1.31127e-05
1.07069e-05
5.28522e-05
5.22603e-05
4.79918e-05
4.86944e-05
1.44814e-05
1.15061e-05
5.04173e-05
5.53345e-05
4.94199e-05
4.94561e-05
1.49214e-05
1.18818e-05
5.05722e-05
5.77189e-05
5.09196e-05
5.24565e-05
1.54736e-05
1.28495e-05
5.26198e-05
6.33806e-05
5.9463e-05
5.27261e-05
1.69731e-05
1.38689e-05
5.08712e-05
4.9856e-05
5.63708e-05
5.72313e-05
1.12234e-05
1.50745e-05
5.23502e-05
5.16266e-05
5.94872e-05
5.39242e-05
1.207e-05
1.58596e-05
5.42903e-05
5.28658e-05
6.50627e-05
5.39927e-05
1.29589e-05
1.73328e-05
5.42025e-05
6.15191e-05
5.2017e-05
5.3397e-05
1.46105e-05
1.19964e-05
5.87703e-05
5.84345e-05
5.37667e-05
5.52832e-05
1.59603e-05
1.27885e-05
5.63855e-05
6.20479e-05
5.55186e-05
5.75488e-05
1.68007e-05
1.40069e-05
5.68352e-05
6.79764e-05
6.42387e-05
5.71767e-05
1.8525e-05
1.51471e-05
5.60385e-05
5.46724e-05
6.13958e-05
6.1777e-05
1.22719e-05
1.67176e-05
5.88581e-05
5.6341e-05
6.77629e-05
5.77191e-05
1.39406e-05
1.86296e-05
5.77294e-05
6.45341e-05
5.4968e-05
5.57672e-05
1.51699e-05
1.21139e-05
6.2435e-05
6.12223e-05
5.66139e-05
5.76459e-05
1.65191e-05
1.32362e-05
5.82324e-05
6.39655e-05
5.78812e-05
5.99486e-05
1.75808e-05
1.46371e-05
5.85683e-05
6.9404e-05
6.60908e-05
5.94294e-05
1.94748e-05
1.59315e-05
5.89113e-05
5.74038e-05
6.32624e-05
6.37358e-05
1.30845e-05
1.77714e-05
6.22769e-05
5.90137e-05
6.94917e-05
6.03113e-05
1.49024e-05
1.99039e-05
6.0527e-05
6.64648e-05
5.83689e-05
6.0159e-05
1.64042e-05
1.32652e-05
6.49016e-05
6.40036e-05
5.95711e-05
6.29997e-05
1.78845e-05
1.46099e-05
6.05746e-05
6.99949e-05
6.70725e-05
6.1155e-05
1.99558e-05
1.66974e-05
6.0593e-05
5.89295e-05
6.44255e-05
6.47488e-05
1.36627e-05
1.8612e-05
6.42697e-05
6.05591e-05
7.01942e-05
6.15397e-05
1.54412e-05
2.08276e-05
6.2136e-05
6.73937e-05
6.01777e-05
6.24275e-05
1.70755e-05
1.38692e-05
6.62758e-05
6.51313e-05
6.17592e-05
6.57476e-05
1.8838e-05
1.55533e-05
6.27373e-05
7.14296e-05
6.86171e-05
6.31794e-05
2.09598e-05
1.72352e-05
6.33267e-05
6.12342e-05
6.64659e-05
6.84556e-05
1.35025e-05
1.88253e-05
6.67303e-05
6.27451e-05
7.22134e-05
6.31695e-05
1.58691e-05
2.16899e-05
6.39023e-05
6.94724e-05
6.28736e-05
6.62864e-05
1.81922e-05
1.47996e-05
6.87048e-05
6.80371e-05
6.48249e-05
7.03428e-05
2.01052e-05
1.67546e-05
6.66111e-05
7.50151e-05
7.22552e-05
6.74907e-05
2.24813e-05
1.851e-05
6.9082e-05
6.5787e-05
7.08248e-05
7.20011e-05
1.50047e-05
2.04638e-05
7.34088e-05
6.7789e-05
7.85633e-05
6.99758e-05
1.68734e-05
2.24896e-05
6.9894e-05
7.57497e-05
6.88695e-05
7.48613e-05
1.96678e-05
1.69637e-05
7.44009e-05
7.77731e-05
7.53265e-05
7.4241e-05
2.35675e-05
2.00221e-05
7.41524e-05
7.01307e-05
7.5924e-05
7.63791e-05
1.63708e-05
2.21606e-05
7.81874e-05