/*--------------------------------*- C++ -*----------------------------------*\
| =========                 |                                                 |
| \\      /  F ield         | OpenFOAM: The Open Source CFD Toolbox           |
|  \\    /   O peration     | Version:  v2006                                 |
|   \\  /    A nd           | Website:  www.openfoam.com                      |
|    \\/     M anipulation  |                                                 |
\*---------------------------------------------------------------------------*/
FoamFile
{
    version     2.0;
    format      ascii;
    class       volScalarField;
    location    "0.123";
    object      omega;
}
// * * * * * * * * * * * * * * * * * * * * * * * * * * * * * * * * * * * * * //

dimensions      [0 0 -1 0 0 0 0];


internalField   nonuniform List<scalar> 
16277
(
0.00810649
0.00810653
0.00810531
0.00810488
0.00810365
0.00810365
0.0081029
0.0081013
0.00809764
0.00809143
0.00808287
0.00807267
0.00806154
0.00804989
0.00803787
0.00802546
0.00801256
0.00799908
0.00798495
0.00797015
0.00795464
0.00793844
0.00792157
0.00790402
0.00788582
0.00786698
0.0078475
0.0078274
0.00780668
0.00778536
0.00776346
0.00774098
0.00771794
0.00769436
0.00767027
0.00764566
0.00762058
0.00759504
0.00756906
0.00754267
0.00751588
0.00748874
0.00746125
0.00743345
0.00740537
0.00737704
0.00734848
0.00731972
0.0072908
0.00726175
0.00723259
0.00720336
0.0071741
0.00714483
0.0071156
0.00708642
0.00705734
0.0070284
0.00699963
0.00697108
0.00694278
0.00691479
0.0068872
0.00686017
0.00683407
0.00680971
0.00678899
0.00677664
0.00678513
0.00684367
0.00700294
0.00737742
0.00820741
0.00999293
0.0137369
0.0213707
0.0365831
0.0665596
0.125335
0.238548
0.453926
0.842714
1.40732
1.82829
2.49727
2.99556
3.63528
6.62275
11.465
14.4685
12.9697
34.2385
105.409
397.789
3406.79
18601.2
254899
251711
37848.7
8637.98
15117.8
52963
248575
245280
54893.3
17469.9
20706
58055.6
236457
232035
57495.2
21300.6
23279.4
58848.3
226111
223289
58185
23405.7
24488.9
58586.7
218920
216054
57190.4
24344
24967.3
57663
212520
210464
56434.1
24791.7
25247.6
56963.7
207750
206196
55926.7
25050.7
25438.4
56494.8
204001
202776
55590.6
25235.3
25590.3
56183
200922
199916
55356.6
25384.8
25720.4
55973
198292
197434
55192.8
25514.4
25837.5
55833.7
195972
195220
55088.4
25631.9
25945.5
55741.9
193877
193200
55020.1
25740
26045
55677.3
191943
191319
54970.9
25839.2
26137
55626.3
190128
189544
54930.3
25929.5
26221.4
55580.8
188404
187849
54892.5
26010.8
26296.6
55536.3
186750
186217
54853.9
26082.8
26362.8
55489.8
185150
184634
54812
26146
26420.6
55439.3
183594
183090
54764.6
26201.1
26470.9
55382.6
182071
181577
54710.4
26249.1
26514.5
55318.8
180575
180089
54649.2
26290.8
26552.2
55248
179102
178620
54580.4
26327
26584.7
55169.2
177644
177165
54503.4
26358.1
26612.2
55082
176197
175719
54417.5
26384.3
26635.1
54985.7
174755
174277
54322.5
26406.1
26653.6
54880
173315
172834
54217.8
26423.6
26667.9
54764.4
171871
171386
54103.1
26437
26678.1
54638.5
170419
169928
53977.8
26446.4
26684.2
54501.6
168954
168456
53841.2
26451.7
26686.2
54353
167474
166967
53692.7
26452.8
26683.7
54192.1
165975
165458
53531.5
26449.4
26676.6
54017.8
164453
163925
53356.7
26441.3
26664.5
53829.4
162907
162367
53167.2
26427.8
26646.7
53625.6
161334
160782
52960.5
26408.5
26622.5
53404.7
159733
159171
52731.7
26382.3
26591
53164.7
158106
157533
52485.2
26348.5
26551.3
52906.2
156453
155871
52218.2
26306.1
26502.4
52626.2
154777
154188
51927.9
26254
26442.8
52322.3
153082
152490
51611.8
26190.3
26370.6
51991.7
151375
150783
51267
26113.1
26283.6
51631.7
149663
149078
50889.9
26016.5
26178
51238.5
147960
147388
50476.7
25897.6
26051.4
50808.5
146281
145732
50024.3
25756.9
25901.6
50338.7
144646
144130
49529
25589.8
25723.9
49825.5
143077
142609
48987
25391.5
25513.9
49265.2
141603
141199
48395.3
25157.6
25267
48655
140257
139941
47759.6
24884.4
24979.7
47997.6
139084
138866
47101.5
24571.6
24652.2
47313
138140
138017
46412.4
24210.7
24278.1
46597.9
137441
137424
45699.6
23808.2
23865
45866.8
137044
137109
44988.3
23373.9
23424.1
45140.5
136900
137093
44299
22924.2
22971
44451.6
137044
137380
43654.5
22466
22511.9
43822.9
137433
137948
43083.2
22012.2
22063.9
43270
138105
138772
42619.2
21592.4
21655.9
42830.9
139007
139778
42265.7
21224.9
21304
42529.8
140070
140914
42004.9
20916.3
21012.6
42349.2
141248
142145
41864.2
20669.7
20783.2
42266.8
142507
143436
41833.7
20485
20616
42296.8
143810
144744
41912.7
20361.8
20510.1
42431.3
145117
146035
42089.6
20294.6
20461.5
42657
146396
147278
42353.7
20268.3
20463.6
42959.1
147617
148447
42685.9
20294.4
20517.9
43345.6
148756
149521
43074
20369.7
20635.1
43809.7
149796
150484
43533.7
20494.3
20785.6
44304.2
150718
151321
44019.9
20648.8
20958.4
44811.1
151512
152027
44515.8
20824.3
21148
45315
152174
152603
45006.6
21015.2
21347.8
45802.5
152707
153055
45479.3
21214.5
21550.5
46260.5
153122
153399
45922.6
21415.1
21749.9
46682.7
153434
153650
46331.6
21611.2
21941.9
47067.4
153656
153812
46701.7
21799.5
22123.9
47411
153798
153907
47032.2
21977.3
22293.8
47715.1
153878
153948
47324.7
22142.8
22450.2
47981.6
153906
153951
47581.2
22294.8
22592.9
48218.1
153890
153922
47806.4
22433.2
22722.5
48428.1
153833
153858
48001.8
22558.7
22838.8
48607.7
153751
153771
48168.7
22671.1
22943.9
48760.9
153645
153659
48313.2
22773.8
23041.7
48896.2
153514
153526
48440.5
22868.3
23129.4
49015.7
153372
153382
48553.2
22953.5
23209.9
49117.2
153231
153239
48646.8
23028.4
23279.4
49204.3
153083
153083
48731.7
23092.9
23339.1
49281.1
152931
152929
48800.7
23149.6
23393.2
49349.4
152803
152751
48861.3
23196
23450.4
49405.1
152683
152599
48942.6
23225.4
23463.1
49563.3
152653
151979
48738.5
23125.4
23261.2
48755.8
151442
149543
48548.7
22982.7
21916.3
46331
147103
138325
48503.3
22452.4
15523.9
27064.9
124065
139421
60777
28136.5
13627.7
7035.85
4374.1
3429.61
3055.14
2533.28
2312.61
2154.67
2089.08
2072.34
2105.93
2203.61
2337.78
2582.14
2861.19
3453.06
3782.12
4730.14
5754.44
7585.39
11742
22954.1
56125.9
128873
404554
434558
139531
61482.3
64663.6
147184
460892
483025
153652
68299.7
68463
155152
489240
495121
156330
69582.2
69736.5
157875
498916
499543
158266
69991
69922.3
158271
499335
499699
158316
69936.2
69930.4
158343
499529
499636
158334
69901.8
69891.2
158341
499763
499614
158329
69863.6
69832.2
158327
500314
500178
158295
69810.2
69785
158293
500307
500169
158283
69755.4
69735
158285
500588
501036
158201
69691.5
69674.5
158239
500600
501032
158179
69640.7
69623.4
158235
501183
501628
158110
69567.4
69538.2
158149
501231
501685
158046
69501.2
69492.7
158112
501840
502263
158043
69466.6
69449.1
158097
501849
502310
157977
69391.6
69364.2
158014
502501
502951
157913
69339.6
69337.7
157995
502543
502986
157926
69308.5
69288.6
157967
503156
503621
157854
69252
69238.3
157910
503514
503410
157865
69196.5
69171.9
157854
503881
504377
157750
69125.2
69111.3
157780
504270
504175
157762
69086.6
69076
157770
504631
505102
157703
69052.3
69044.2
157750
504994
504914
157732
69025.4
69019.4
157756
505383
505873
157699
68998.5
68991.3
157751
505771
505690
157734
68977.9
68976.8
157776
506155
506633
157755
68980
68997.1
157866
506501
506412
157874
68993.3
68992.4
157941
506881
507378
157922
68988.1
68996.3
158037
507266
507181
158068
68995.8
69007.5
158178
507641
508127
158199
69011.1
69034.2
158365
508003
507905
158443
69041.4
69047.2
158590
508363
508853
158634
69038.7
69067.9
158841
508428
508864
158978
69085.9
69113.7
159229
508998
509421
159354
69122.3
69167.8
159655
508980
509374
159882
69204.1
69238.2
160261
509481
509885
160441
69237.9
69259.8
160807
509702
509476
161118
69271.8
69282.3
161514
509805
510160
161803
69277.5
69287.3
162278
509957
509762
162656
69273.3
69267.7
163133
510172
510644
163490
69212.4
69184.1
163991
510253
510768
164321
69087.2
69038.7
164814
511018
511618
165108
68920.6
68834.6
165563
511696
511905
165844
68649.9
68478.2
166090
512801
513662
166121
68115.9
67744
166032
514705
515989
165945
67363.3
67044.9
165823
517424
519146
165514
66567.8
66041.3
164879
521128
523575
163650
65202.3
64064.9
160145
520990
518344
156526
63231
62689.5
154457
524719
522061
155400
62209.7
61191.4
146840
514270
511246
148061
61028.2
60437.4
143540
503205
496372
141140
60014.8
60047.5
138203
484817
470210
133269
59688.4
60057.5
130949
459817
453142
130002
60738.5
61832
130474
434962
406232
121838
62704.6
64073.4
120549
595859
972744
354723
142245
69525.6
172691
728490
656740
187080
74544.1
71743
176839
649039
642565
181949
73892
70490.5
169484
624018
602293
170612
71315.7
68210.6
154728
575607
548720
157498
69968.5
68678.2
145107
519871
488482
145968
69949.2
69248.5
134997
444798
636837
129001
69744.9
147751
368921
1.00006e+06
718938
165876
71833
74776.4
177463
604989
547556
145779
66946.1
67325.1
147006
513230
478311
136113
65156.2
65425.3
132443
447254
412848
124057
65016.8
67985.2
123290
597428
940148
339070
140090
72175.1
155676
683784
594686
167164
75144.2
72259.6
150005
556870
517071
154941
74827.6
74022.8
141911
467038
666001
134005
75680.4
154481
366201
1.00712e+06
705176
172023
78320.4
79877.7
173219
578353
501169
146781
71819.5
72168.8
137479
450255
654903
135912
75192.2
153931
367657
994905
704906
163273
80784.3
84057.7
176915
579687
511141
152827
78006.6
80036.9
145887
718762
1.03714e+06
386064
162486
81091.2
169157
705640
551422
174627
80452.6
68999.1
137704
486389
664887
139415
74046.8
148801
343242
902667
623856
153096
74639.6
78055.2
156818
789278
988628
367584
153576
66474.9
150558
656506
792681
146260
65242.4
128143
288401
833968
1.0128e+06
163628
64914.7
91553.9
198678
809452
827194
160512
58689.7
71129.1
191384
993485
1.02879e+06
196842
73012.9
65747.4
175161
915624
800498
104080
39070.8
153620
341371
806624
935784
160999
81538.7
186100
374682
846910
780655
189834
99512.3
106397
215702
671792
1.10498e+06
482718
228201
128091
179513
957999
828189
368503
191027
103345
175406
696573
575700
186382
104615
193004
393195
916710
717053
171344
107219
106067
180121
576752
928702
389276
188914
105901
167604
714057
570653
174944
105146
185901
379861
912029
698958
163843
103928
102227
170120
566818
910650
377976
179486
101872
161607
686082
549320
169771
101993
181374
371356
884313
658268
157980
101354
101894
166891
532815
872904
367668
179669
99591.9
155887
645939
518537
162791
99230.9
170422
346296
826754
601941
145023
94717.1
94452.4
161898
464269
637881
185788
101441
193814
428320
1.03706e+06
746176
171320
106192
103021
174792
598293
990266
392057
184687
103051
163830
715365
578183
173878
102719
184644
389407
967638
710539
161803
103413
101990
168230
577461
963421
383185
181510
101736
160603
695128
567141
170106
101627
181788
384119
969370
702380
162552
101992
101385
167604
564597
951862
392483
183332
101907
160097
694753
563237
170052
102096
184189
394499
965187
720724
163305
103653
103418
173853
591717
1.03021e+06
430853
196476
113290
146540
814591
732932
317985
165717
93114.2
142530
558495
476305
154659
94588.4
168763
347474
824365
614153
147678
96121.1
97237.5
157919
500868
841739
351087
172105
96780.5
149133
621499
510266
157491
97619.4
177164
365190
870528
650331
153073
98550.9
98793.4
163171
530902
900966
374031
177906
100321
158317
678086
565448
169449
101294
195796
427128
1.00646e+06
807892
145073
114207
171627
324673
741125
578920
152485
96561
98101.2
163894
498008
870753
365355
177616
101544
158206
663115
551523
166534
101842
191910
412426
962709
782744
144014
113022
169064
321343
719201
557801
148568
95845.8
98454
162848
485700
858071
365521
177998
101776
158041
652026
550563
171871
102780
195991
420622
981658
795752
148395
115987
173937
329857
734850
578156
154454
99066.9
101127
169021
506246
893890
376340
184016
105456
164349
669546
570123
178733
105932
203064
428959
1.02908e+06
824140
154500
119902
180360
343952
761092
593257
160077
103258
107289
180250
525406
977647
425711
204468
121128
152239
807212
761599
337898
180619
103097
163019
598948
521669
178608
105192
200439
418873
951128
787184
158317
120925
179196
335381
743184
591100
160719
103634
107582
181160
519970
969733
428891
205693
123274
156251
811796
762619
342614
183131
105610
165538
598413
529801
185224
108536
206115
427312
968071
804003
156079
124632
184345
339309
763830
614966
167586
107170
110973
187964
550754
1.0232e+06
442006
214090
129863
158023
856936
836632
369135
195903
119218
157178
715796
684697
330224
177664
106293
167772
563060
514235
189033
110779
210172
432735
967443
810312
161419
128084
188913
344851
767838
618288
172873
110947
114791
195390
556935
1.04547e+06
451303
220389
134299
164845
875211
848050
376035
201037
123008
162067
731940
716091
335306
182018
109438
173529
587492
528865
193473
114352
218029
445272
987097
846093
165008
133250
197039
357894
817427
714691
157721
122145
181728
331782
701970
583700
174984
109990
115471
199415
531285
991945
444676
219400
135344
164876
852880
835858
368206
200992
124701
160804
722144
707523
337498
184388
111510
176786
581068
529369
199019
116924
220478
445633
983233
836926
168540
136239
200883
363899
815983
717738
162636
125507
186007
340093
716216
601051
180121
113298
119234
204945
554473
1.0406e+06
468880
229731
142549
174348
899680
880271
381704
211297
131454
166493
757174
750893
356809
195507
118579
187579
616583
560770
211182
124019
235339
479207
1.03683e+06
892447
179517
145392
214939
391647
885828
772801
172287
134624
201011
364954
778046
706030
169885
129139
191061
342279
704694
587667
183934
117763
124625
210597
546892
1.04296e+06
470856
235388
147166
178378
908366
903840
400147
218705
138553
179160
790356
798940
375581
205301
132651
174792
715789
715083
351853
195330
121024
189143
603761
556969
212899
127467
239377
478657
1.03837e+06
907202
183312
150164
220917
398663
898118
781537
179821
139498
206632
372695
788738
708127
174620
134040
196957
352922
711614
602591
191265
122384
129869
216855
559745
1.0509e+06
488210
243664
153342
187998
924137
919268
406763
225440
143810
183089
814736
832230
391837
214316
139665
183744
746926
745636
367976
204356
127464
198958
624103
581677
225333
133405
249686
489906
1.09104e+06
930286
190554
157692
231587
416881
926229
814386
186150
147454
219334
396354
837681
775250
189208
143356
211453
381194
795127
719230
182389
139884
205032
360948
729442
627392
200917
128673
136543
228784
588516
1.11345e+06
521128
257700
163119
201192
973510
963739
430496
239595
153568
194776
837547
855379
408817
226044
148953
194590
782497
803553
389906
218154
144429
189113
733341
744399
370206
209525
131672
203962
628847
582030
228286
138683
256488
503355
1.0773e+06
928233
196835
163502
241367
428162
936069
834136
196749
154131
227660
407797
851938
772566
194956
149846
220426
391785
798807
734616
191619
146644
212549
370590
743172
632880
207597
134752
142625
236357
596453
1.11014e+06
523916
263949
169003
208973
967948
975390
438919
246290
159532
201483
870895
892477
421736
234859
155913
202679
809140
831581
404080
227771
151747
197254
745074
756823
382381
219882
139719
212519
639295
598374
239924
146752
268318
524824
1.11244e+06
967304
209416
171496
251488
444017
977032
862736
204782
162025
237140
421107
881423
803755
204377
157428
230407
406318
833035
758455
200219
154366
224079
390009
775692
662204
219020
142690
150925
250088
626280
1.17169e+06
554591
280003
179880
221266
1.01453e+06
1.02289e+06
466196
262946
170404
215483
898425
916494
441096
248878
165918
214640
837913
871600
424508
241740
162762
210086
796724
830161
410886
235810
158501
205085
758698
772298
391791
227273
144934
219898
645903
608860
248209
152079
277127
530881
1.12776e+06
967400
215821
178514
259292
451586
974958
856558
212039
168273
245636
429789
881675
798729
211479
163947
238203
415793
830918
758623
208735
159924
229772
392796
770406
653002
222675
147277
156069
253386
621185
1.1507e+06
546317
285008
184123
223930
991967
1.00143e+06
465782
266833
174766
219845
893898
922854
446941
254139
171050
220279
829888
863486
429964
247449
167250
216371
785893
803493
409256
239675
153584
231821
670361
632777
260828
161315
292442
555891
1.16839e+06
1.00182e+06
229626
189113
272631
471587
1.00394e+06
879840
223832
177826
257495
447554
907120
825796
222335
172831
249499
430446
859519
775328
218836
168197
240334
408713
796015
672769
232628
154921
163945
265138
643170
1.18305e+06
567263
296789
192698
234249
1.02673e+06
1.04444e+06
487836
279777
183867
231831
913665
943156
466597
266507
179815
232311
850582
884448
446238
259053
175502
227412
799988
819554
422465
250003
161062
240365
682749
651098
270217
168892
300531
566287
1.17582e+06
1.00696e+06
239345
195823
281838
483827
1.02522e+06
895414
229742
184534
266528
457816
927999
837405
229717
178887
258456
440700
861695
723695
251740
165309
174853
284694
692677
1.25878e+06
610501
319299
207137
257221
1.07984e+06
1.09229e+06
512522
297204
195298
240339
949702
983681
485163
281437
188343
243938
865908
884401
458154
269850
172850
259212
738203
703675
290928
181080
325499
610819
1.27154e+06
1.08527e+06
255801
211177
303024
516422
1.10149e+06
950594
248376
197916
286049
490199
985454
880240
247093
191767
276907
470034
914101
765999
268107
177076
186829
303520
730878
1.32022e+06
647642
338454
219550
274764
1.1283e+06
1.14195e+06
539786
314282
206645
252870
979263
1.01836e+06
505201
296291
198432
257750
900117
925166
479502
283295
181581
271725
770340
739241
303172
189891
339494
634350
1.31839e+06
1.11123e+06
271027
220550
317479
541311
1.13388e+06
977688
257963
207379
298113
505215
1.01594e+06
894192
258497
199740
286726
482284
929006
780104
276464
183980
193394
311277
750663
1.33374e+06
651133
347140
225879
279595
1.12457e+06
1.14895e+06
547814
322979
211046
266370
976138
994758
505321
300739
191370
285676
813515
779476
315567
199658
360687
680803
1.3807e+06
1.14892e+06
291167
232391
332633
563700
1.16937e+06
1.00345e+06
270737
217106
311059
523489
1.04652e+06
912911
269110
207530
296089
496550
949412
784951
283178
189529
199928
317769
754802
1.33361e+06
658984
355519
231014
287088
1.12841e+06
1.15335e+06
556416
330040
216232
275205
979331
1.00891e+06
515998
307924
195865
291869
826961
788546
324553
204411
363283
670989
1.35904e+06
1.13625e+06
294846
235816
337271
565589
1.16759e+06
985426
281118
219152
311802
519462
1.01115e+06
822906
294794
198129
208137
330108
789566
1.37195e+06
684739
369058
237574
303007
1.13844e+06
1.14361e+06
568445
338796
210023
307819
904570
859041
341194
217728
387196
721839
1.49839e+06
1.23128e+06
306166
249422
361800
614964
1.26059e+06
1.05826e+06
304995
233750
335399
562597
1.0837e+06
882405
318037
211810
221064
355317
848259
1.45977e+06
725480
391818
252082
323373
1.19882e+06
1.20643e+06
595390
357797
220618
320506
944099
894822
353375
228077
401810
745186
1.52257e+06
1.24637e+06
326106
258228
370682
618191
1.266e+06
1.00203e+06
338316
227737
235543
376760
949671
1.62469e+06
799263
425722
269588
345678
1.29635e+06
1.29923e+06
646174
386172
234917
344627
1.01103e+06
953444
379562
242437
429018
796895
1.6137e+06
1.31063e+06
349861
273546
392374
652435
1.32254e+06
1.04206e+06
351656
239615
247691
389709
988944
1.69048e+06
827956
441795
280339
342091
1.35663e+06
1.37057e+06
681565
406163
244931
367949
1.0536e+06
991600
401205
252589
447668
824680
1.66201e+06
1.33205e+06
365221
283334
404213
664614
1.34027e+06
1.04475e+06
359764
245420
253270
396109
991113
1.66028e+06
827620
445734
282916
366255
1.33185e+06
1.33973e+06
667143
402971
242735
355543
1.02525e+06
965528
379455
248573
434000
798390
1.57388e+06
1.17783e+06
378319
261218
266397
408491
1.08566e+06
1.76863e+06
868013
469589
291073
379921
1.3943e+06
1.39631e+06
691266
416692
249940
367261
1.06711e+06
1.00622e+06
402066
257846
445000
814239
1.61954e+06
1.21821e+06
390260
266428
268834
406683
1.11645e+06
1.7914e+06
881005
471026
277592
411365
1.31398e+06
1.19068e+06
437006
280106
501991
939932
1.90515e+06
1.47202e+06
407291
308202
443070
732277
1.46436e+06
1.10091e+06
382858
260032
267824
415965
1.03039e+06
1.63602e+06
830701
458754
270075
397311
1.21567e+06
1.11142e+06
408849
272404
472369
869931
1.76063e+06
1.27394e+06
407907
276127
279279
432307
1.14997e+06
1.77342e+06
885753
483162
278546
413239
1.28081e+06
1.15578e+06
435028
280952
482004
882623
1.76911e+06
1.28791e+06
413134
279954
283643
437045
1.17453e+06
1.82351e+06
898687
488329
281051
416001
1.30668e+06
1.11957e+06
453282
286461
299539
512671
1.47106e+06
2.19575e+06
1.06853e+06
544983
305141
473755
1.50395e+06
1.3319e+06
487599
302900
523613
971977
1.99292e+06
1.38844e+06
446160
295033
295086
456668
1.18608e+06
1.54078e+06
525698
308249
570374
1.12044e+06
2.26597e+06
1.50895e+06
485440
308947
311822
506954
1.26723e+06
1.6368e+06
567655
326450
594506
1.17332e+06
2.38707e+06
1.58905e+06
499185
317089
317416
515063
1.34095e+06
1.68478e+06
578855
324198
591236
1.17087e+06
2.40036e+06
1.54692e+06
499698
312918
304394
491897
1.27012e+06
1.55402e+06
609054
333318
328006
557938
1.92296e+06
2.72727e+06
1.32222e+06
643271
330053
543891
1.71815e+06
1.38675e+06
545272
327130
334841
618823
1.59478e+06
1.80293e+06
591688
317910
341666
726411
1.96051e+06
2.15964e+06
730519
325535
631717
1.32063e+06
2.77924e+06
1.6402e+06
518843
310194
303362
514418
1.29557e+06
1.3977e+06
563737
303668
296992
560937
1.4687e+06
1.52132e+06
572699
292182
289624
599048
1.53327e+06
1.51717e+06
607665
287911
284990
613494
1.49557e+06
1.46054e+06
612391
283341
280627
607835
1.42416e+06
1.38619e+06
598963
278532
276200
592012
1.3486e+06
1.31233e+06
587065
274962
273901
583805
1.27832e+06
1.24674e+06
581964
273925
274087
581044
1.21767e+06
1.1911e+06
580747
274971
275964
580654
1.1669e+06
1.14507e+06
580490
277599
279008
580124
1.12526e+06
1.10749e+06
579460
280805
282229
578301
1.09149e+06
1.07725e+06
576744
283779
284868
574596
1.06455e+06
1.05329e+06
572089
285932
286518
569027
1.04328e+06
1.03451e+06
565732
286972
286900
561912
1.02676e+06
1.02008e+06
557970
286723
286121
553553
1.0143e+06
1.00942e+06
549084
285408
284032
544163
1.0052e+06
1.00163e+06
539269
282896
281151
533988
998522
995925
528676
280065
278382
523100
993667
991813
517620
277346
275718
511955
990208
988918
506476
274708
273110
500863
987800
986923
495499
272102
270501
490036
986164
985574
484872
269470
267850
479639
985053
984684
474736
266789
265152
469795
984312
984047
465186
264064
262414
460573
983802
983605
456290
261310
259643
452009
983475
983341
448050
258523
256851
444095
983236
983083
440470
255733
254083
436846
982963
982761
433542
252975
251345
430235
982600
982328
427253
250264
248673
424255
982122
981795
421570
247616
246074
418859
981554
981174
416454
245050
243569
414008
980899
980488
411846
242573
241154
409636
980192
979755
407706
240190
238824
405716
979432
978986
403982
237872
236542
402182
978646
978191
400633
235622
234334
399002
977834
977380
397610
233443
232202
396128
977017
976563
394888
231348
230153
393548
976197
975748
392429
229334
228187
391210
975388
974937
390205
227412
226315
389095
974575
974128
388184
225577
224528
387165
973773
973323
386352
223836
222834
385418
972976
972537
384677
222180
221222
383812
972199
971778
383154
220609
219705
382359
971453
971045
381755
219120
218258
381016
970740
970351
380479
217716
216897
379799
970065
969690
379307
216387
215609
378680
969427
969077
378232
215131
214395
377658
968838
968509
377248
213948
213249
376720
968298
967994
376338
212828
212169
375856
967813
967534
375502
211774
211150
375057
967383
967132
374727
210778
210190
374316
967010
966790
374012
209841
209284
373626
966694
966511
373347
208956
208430
372986
966437
966292
372728
208123
207622
372385
966239
966134
372144
207337
206861
371822
966101
966032
371596
206595
206142
371289
966018
965990
371078
205893
205461
370789
965993
965990
370590
205230
204817
370315
966018
966033
370127
204601
204207
369868
966092
966123
369691
204006
203629
369446
966210
966258
369277
203440
203081
369048
966371
966436
368889
202905
202560
368672
966570
966652
368521
202397
202066
368319
966803
966898
368176
201915
201596
367985
967066
967176
367850
201456
201148
367672
967358
967479
367544
201019
200722
367376
967675
967808
367256
200602
200316
367100
968015
968158
366986
200204
199929
366841
968375
968527
366733
199824
199560
366600
968754
968915
366496
199460
199207
366373
969150
969320
366275
199113
198869
366163
969562
969739
366069
198779
198544
365965
969988
970173
365876
198460
198234
365783
970427
970619
365699
198154
197936
365615
970878
971076
365535
197860
197650
365460
971338
971539
365384
197578
197375
365317
971804
972011
365246
197307
197110
365187
972278
972487
365122
197046
196856
365069
972757
972967
365011
196796
196612
364963
973237
973447
364910
196555
196377
364866
973720
973930
364819
196323
196151
364782
974202
974413
364740
196100
195934
364709
974684
974894
364671
195886
195725
364647
975164
975375
364612
195680
195523
364591
975646
975855
364560
195481
195328
364544
976125
976333
364517
195289
195140
364502
976604
976812
364481
195103
194958
364469
977084
977291
364452
194923
194782
364442
977564
977772
364429
194749
194611
364421
978046
978253
364412
194579
194444
364405
978530
978738
364401
194415
194283
364398
979017
979226
364396
194255
194126
364397
979508
979717
364400
194100
193974
364403
980001
980210
364411
193951
193828
364418
980493
980700
364433
193807
193689
364443
980981
981183
364464
193670
193554
364478
981464
981659
364503
193539
193450
364527
981936
982119
364553
193386
193313
364573
982027
982585
364611
193300
193192
364631
983229
983018
364673
193201
193063
364701
983312
983443
364869
193089
192921
364498
983334
983267
364743
192881
192537
363958
982880
985046
365415
193116
193330
366404
988904
998172
371125
195201
196116
372102
993408
981206
361235
191018
188847
356489
963707
105135
57901.1
31213.6
19290.5
17995.2
12112.4
8886.58
7355.66
6960
5245.9
3817.41
2988.69
2263.54
1648.93
1168.03
815.104
573.651
411.573
303.356
229.998
179.256
143.363
117.44
98.3566
84.1047
73.3275
65.1979
59.0592
54.6143
51.4837
49.472
48.3078
47.7826
47.2656
46.3375
45.0634
43.5283
41.8429
40.0488
38.2115
36.3232
34.3939
32.4046
30.3399
28.1709
25.4094
21.3944
16.3527
11.4235
7.47479
4.67297
2.82241
1.66597
0.986197
0.621988
0.446489
0.367777
0.334589
0.320925
0.314974
0.312014
0.309691
0.307537
0.305487
0.303497
0.30153
0.299556
0.297542
0.295462
0.293288
0.290993
0.288551
0.285935
0.283123
0.280088
0.276809
0.273266
0.269439
0.265315
0.260884
0.256137
0.251076
0.245705
0.240036
0.234086
0.227878
0.221441
0.214805
0.208006
0.201083
0.194073
0.187017
0.179952
0.172915
0.16594
0.159058
0.152297
0.145682
0.139234
0.132971
0.126903
0.121046
0.115403
0.109982
0.104784
0.0998102
0.0950583
0.0905278
0.086211
0.0821055
0.0782041
0.0745002
0.0709866
0.0676561
0.0645008
0.0615132
0.0586855
0.05601
0.0534791
0.0510854
0.0488216
0.0466817
0.0446579
0.0427448
0.0409354
0.0392247
0.0376065
0.0360762
0.0346285
0.0332584
0.0319619
0.0307344
0.0295724
0.0284715
0.0274287
0.0264407
0.025504
0.0246158
0.0237737
0.0229748
0.0222165
0.0214968
0.0208134
0.0201642
0.0195475
0.0189614
0.0184044
0.0178745
0.0173706
0.0168912
0.016435
0.0160008
0.0155873
0.0151936
0.0148186
0.0144613
0.0141209
0.0137963
0.013487
0.0131921
0.0129109
0.0126428
0.012387
0.0121431
0.0119104
0.0116885
0.0114767
0.0112748
0.0110821
0.0108984
0.0107232
0.0105561
0.0103967
0.0102449
0.0101002
0.00996233
0.00983104
0.00970608
0.00958718
0.00947412
0.00936669
0.00926466
0.00916786
0.00907609
0.00898919
0.008907
0.00882937
0.00875616
0.00868725
0.0086225
0.00856182
0.0085051
0.00845226
0.0084032
0.00835787
0.00831622
0.0082782
0.00824383
0.00821314
0.00818624
0.00816327
0.00814445
0.00812989
0.00811997
0.00811414
0.00811151
0.00810968
0.0081082
0.00810821
0.00810806
0.00810817
0.00810892
0.00811053
0.00811304
0.0081157
0.00811714
0.00811644
0.00811359
0.00810909
0.00810345
0.00809695
0.00808974
0.00808183
0.00807318
0.00806376
0.00805353
0.00804247
0.00803057
0.00801785
0.00800431
0.00798998
0.00797485
0.00795894
0.00794227
0.00792484
0.00790668
0.00788779
0.00786819
0.00784789
0.00782692
0.00780528
0.007783
0.0077601
0.00773659
0.0077125
0.00768784
0.00766263
0.00763691
0.00761069
0.00758399
0.00755684
0.00752927
0.00750129
0.00747295
0.00744426
0.00741526
0.00738596
0.00735641
0.00732664
0.00729668
0.00726656
0.00723633
0.00720604
0.00717576
0.00714565
0.00711606
0.00708771
0.00706228
0.00704363
0.00704038
0.00707207
0.00718175
0.00746283
0.00811346
0.00954316
0.0126149
0.0190752
0.0323405
0.0589044
0.110783
0.209781
0.394545
0.733276
1.34762
2.45603
4.43403
7.811
12.95
19.3014
25.4041
30.6205
37.1929
54.6379
111.218
353.199
1710.3
5117.06
6290.93
6386.66
7291.29
7250.96
7981.88
7894.44
8501.63
8379.84
8920.39
8774.98
9266.52
9104.26
9558.22
9383.58
9807.89
9623.85
10024.3
9832.77
10213.9
10016.3
10381.2
10178.7
10529.6
10322.8
10661.4
10451
10778.9
10565.7
10884.5
10669
10980.1
10762.7
11067.2
10848.5
11147.5
10927.7
11221.8
11001.3
11291.3
11070.4
11356.6
11135.5
11418.4
11197.2
11477.1
11255.9
11533.2
11312
11587.1
11366
11638.8
11417.9
11688.7
11467.5
11737
11515
11782.9
11560.2
11826.5
11603.3
11868
11644.3
11907.3
11683.1
11944.1
11719.3
11978.1
11752.4
12008.6
11781.7
12034.6
11806.1
12055
11824.1
12067.9
11833.9
12071.1
11833.1
12062.4
11819
12038.8
11788.6
11996.8
11738.4
11932.8
11664.8
11843.3
11563.2
11725.1
11426
11577
11264.9
11404.9
11081.2
11210.9
10879.1
10999.2
10661.2
10775
10436.9
10548.1
10217.5
10328
10009.4
10120.7
9816.3
9929.54
9641.13
9757.32
9485.98
9605.91
9352.12
9476.39
9239.93
9368.9
9148.88
9282.72
9073.3
9215.46
9015.73
9168.41
8978.37
9142.8
8961.57
9137.4
8963.4
9149.46
8980.92
9175.77
9010.98
9213.14
9050.53
9259
9096.97
9311.52
9148.13
9365.97
9200.98
9420.99
9254.23
9475.36
9306.61
9528.08
9357.2
9578.43
9405.53
9626.14
9450.97
9671.84
9493.76
9714.28
9533.42
9753.36
9570.52
9789.36
9604.56
9822.36
9635.71
9851.59
9663.63
9879.17
9684.95
9912.34
9703.22
9944.47
9707.66
9955.7
9551.01
9876.47
8916.99
8755.29
7015.3
4674.82
5045.35
5504.16
3490.24
5966.55
5553.91
3508.23
6016.3
5556.96
3541.22
6029.58
5568.29
3536.59
6023.37
5562.32
3532
6009.21
5550.77
3522.91
5995.69
5538.15
3512.42
5980.8
5523.9
3501.55
5964.54
5508.56
3490.37
5947.08
5492.58