/*--------------------------------*- C++ -*----------------------------------*\
| =========                 |                                                 |
| \\      /  F ield         | OpenFOAM: The Open Source CFD Toolbox           |
|  \\    /   O peration     | Version:  v2006                                 |
|   \\  /    A nd           | Website:  www.openfoam.com                      |
|    \\/     M anipulation  |                                                 |
\*---------------------------------------------------------------------------*/
FoamFile
{
    version     2.0;
    format      ascii;
    class       volScalarField;
    location    "0.123";
    object      yPlus;
}
// * * * * * * * * * * * * * * * * * * * * * * * * * * * * * * * * * * * * * //

dimensions      [0 0 0 0 0 0 0];


internalField   uniform 0;

boundaryField
{
    bottomEmptyFaces
    {
        type            empty;
    }
    topEmptyFaces
    {
        type            empty;
    }
    inlet
    {
        type            calculated;
        value           uniform 0;
    }
    outlet
    {
        type            calculated;
        value           uniform 0;
    }
    walls
    {
        type            calculated;
        value           nonuniform List<scalar> 
1055
(
30.3758
29.6366
28.9582
28.3377
27.7791
27.2729
26.8175
26.405
26.0373
25.7121
25.4286
25.1792
24.9625
24.7714
24.6058
24.459
24.3358
24.2323
24.1484
24.0782
24.0219
23.9755
23.9404
23.9115
23.8904
23.8728
23.8607
23.8508
23.8444
23.839
23.8376
23.8354
23.8358
23.8366
23.8384
23.8419
23.8452
23.8495
23.8522
23.8559
23.8578
23.8607
23.8611
23.8624
23.8608
23.8607
23.857
23.8554
23.8503
23.8476
23.8412
23.8371
23.83
23.825
23.8171
23.8113
23.8032
23.7969
23.7887
23.7822
23.7741
23.7677
23.7594
23.7529
23.7446
23.7382
23.7297
23.7232
23.7147
23.7082
23.6999
23.6935
23.6855
23.6794
23.6718
23.6662
23.6588
23.6537
23.6468
23.6423
23.636
23.6321
23.6264
23.6234
23.6182
23.616
23.6115
23.6101
23.6064
23.6057
23.603
23.6027
23.6011
23.6013
23.6008
23.6016
23.602
23.6033
23.6049
23.6067
23.609
23.6115
23.6144
23.6177
23.621
23.6252
23.6289
23.6338
23.638
23.6434
23.6481
23.6538
23.6589
23.6652
23.6707
23.6773
23.6831
23.6901
23.6962
23.7035
23.7099
23.7176
23.7242
23.7321
23.739
23.7471
23.7542
23.7625
23.7699
23.7784
23.7859
23.7945
23.8022
23.811
23.8189
23.8277
23.8356
23.8446
23.8526
23.8616
23.8697
23.8787
23.8869
23.8959
23.904
23.9131
23.9213
23.9303
23.9385
23.9475
23.9556
23.9646
23.9727
23.9816
23.9898
23.9987
24.0068
24.0157
24.0238
24.0327
24.0407
24.0497
24.0577
24.0666
24.0747
24.0836
24.0916
24.1006
24.1086
24.1177
24.1257
24.1347
24.1427
24.1517
24.1596
24.1686
24.1762
24.1851
24.1926
24.2014
24.2085
24.2254
24.2244
24.225
24.2395
24.2487
24.2542
24.2803
24.2893
24.317
24.2765
24.2165
23.9998
24.1588
24.5683
8.45827
7.21563
6.59963
11.3989
10.6125
9.66721
7.98436
18.262
13.3597
11.5843
11.49
12.711
9.36188
7.89678
12.4849
11.3851
13.6571
13.6327
10.7266
9.20458
9.71517
9.58204
8.52085
7.34041
10.1245
9.95149
8.83657
7.47514
9.15066
7.63463
8.63367
7.42099
9.56448
10.132
8.54259
7.3838
8.3512
7.25416
8.37919
7.18134
6.4381
10.448
10.9369
9.7281
10.6063
9.48387
10.4062
9.22093
9.97753
9.24575
10.121
10.1281
10.548
9.32242
10.2123
11.5658
8.435
8.79937
8.99432
9.75162
10.3309
10.7771
11.885
8.61286
9.04052
9.58297
10.3767
8.35575
9.02146
10.0172
7.33267
7.60979
8.79872
9.06343
10.1791
7.44112
7.75419
8.0175
8.49919
9.16124
9.53418
8.1524
8.69739
8.42665
9.14141
8.66396
9.39217
8.3388
8.92115
10.7657
9.39855
9.77315
7.77361
8.15593
10.5529
7.6803
8.05845
10.4418
9.10342
9.40624
8.29223
9.01089
7.96699
8.5576
7.53451
7.91544
9.8823
10.2938
11.395
8.29281
8.71338
8.8447
9.73064
11.037
7.97759
8.34114
8.67284
9.29828
9.13173
9.94332
9.6404
10.0984
8.97423
9.74441
8.66045
9.54439
8.52054
9.17802
9.4594
9.82903
10.8914
7.9908
8.33964
8.65883
9.40099
9.1307
9.98057
8.82559
9.60262
8.68247
9.09884
7.87869
7.71276
7.31561
7.02757
9.57317
7.43874
7.85722
8.34829
8.53226
9.45937
6.97797
7.2208
8.38952
8.60045
9.72215
7.10979
7.40178
7.6076
8.03656
8.15421
8.26248
7.03288
7.25421
7.97633
7.98223
7.81397
7.79634
9.19636
6.87407
7.05207
9.19784
7.86964
7.93069
6.79715
7.01077
9.06842
7.3336
7.03202
8.97289
7.78233
7.73977
8.69365
6.68819
6.75969
7.82994
7.75475
6.69253
6.71229
6.67427
6.77152
9.24829
7.96641
8.05136
9.31132
6.93677
7.12131
6.84017
7.10005
8.9762
8.77239
7.38829
6.94745
8.31407
6.97998
6.51426
8.37327
7.12765
6.57114
8.43196
7.11146
6.5211
8.33707
7.01636
6.48697
8.07681
6.40135
6.22484
8.29515
6.8107
6.44011
7.77787
7.3967
8.38972
7.73355
7.51252
6.49288
6.43157
8.70167
8.67432
7.24408
6.8224
7.38628
6.91023
7.09955
6.82925
8.9734
7.20499
6.93074
8.57876
6.66332
6.6919
8.72872
8.95263
10.0703
7.39637
7.68441
9.90638
7.19192
7.51008
8.58605
8.82835
7.77447
8.28475
7.86185
8.33413
8.71548
9.03728
8.04936
8.58109
13.2264
11.3565
8.65275
11.2601
8.33591
11.693
9.73304
7.03295
10.6723
10.3572
7.15954
12.262
9.98301
26.1753
24.6462
8.2351
8.78517
6.08921
25.2593
21.2056
21.2199
20.3818
10.3443
20.1299
8.84261
25.4232
7.72589
20.6698
8.92889
6.09797
20.1168
21.4429
20.9081
10.6962
9.55387
8.4402
7.43935
8.28669
5.94904
28.059
26.4982
21.8379
21.385
22.1103
21.5555
25.0846
22.025
20.9168
27.1437
23.3464
22.4204
9.96831
8.98058
8.46519
7.99195
7.34057
8.51005
6.07845
10.5001
9.68289
9.10448
8.60974
8.20431
7.65634
6.9415
7.8173
5.70145
9.65417
8.9248
8.49195
8.13588
7.83983
7.5422
7.28249
7.04733
6.92255
6.77647
6.40768
7.77615
5.36325
9.80939
9.28531
8.98351
8.80967
8.60729
13.9771
8.38037
8.20362
8.06551
7.91442
7.81968
10.9647
12.0075
7.67744
12.0589
12.5039
10.3943
11.2314
13.4665
11.659
12.1868
9.7091
10.263
10.6798
11.7153
7.58645
7.54786
7.42999
7.30602
7.21021
7.13004
7.06218
7.00732
14.7416
10.5263
11.1249
12.6192
13.179
11.5898
12.7053
6.95614
6.91257
6.87765
6.85506
6.83255
6.8151
6.80411
6.79389
13.555
14.1692
12.3922
13.476
6.78725
6.77685
6.77414
6.77274
6.76709
6.76135
6.75973
6.75773
13.8173
14.2727
13.2551
14.3762
12.5789
13.5882
16.109
11.6181
12.3005
6.75175
15.7895
6.74494
6.74258
11.359
11.9992
6.7387
6.73694
12.3062
13.2
6.72725
6.72355
6.71773
15.2011
11.837
12.9191
13.0519
13.5894
11.8311
12.8138
10.9782
11.5706
11.3993
12.3198
11.304
12.32
12.1816
12.6628
11.0813
12.1971
14.1273
10.1863
10.7238
10.906
11.7905
14.4242
11.1431
12.0513
10.4364
11.0203
12.3825
12.9238
10.7981
11.6708
10.1622
10.6902
19.2111
14.3675
14.9416
6.71378
6.70337
6.69757
6.69296
20.6868
6.68311
6.67424
6.6682
20.0127
6.66312
14.5397
15.4608
17.3162
17.4107
19.837
16.8713
17.2557
14.6006
15.3263
16.7119
16.9848
6.6524
6.64293
6.63645
6.63072
6.62008
6.61105
6.60494
6.59941
6.58853
6.57866
6.57241
6.56733
6.55684
6.54714
6.54113
15.4337
6.53576
15.7249
16.253
16.7835
14.4238
15.4058
18.2126
13.1219
13.931
6.5256
6.51591
6.50941
6.50389
6.49409
6.48439
6.47888
6.47117
17.4713
13.9994
14.9661
12.9069
13.644
13.3593
14.2823
17.0947
14.6413
15.2126
12.2433
13.0273
14.8206
15.4541
18.3952
15.716
16.2094
13.3019
14.0613
19.2492
19.0462
13.9562
14.6158
16.291
16.5004
16.1431
16.6185
6.46623
14.1344
6.45531
14.891
6.45068
6.44272
6.43705
6.42587
6.42203
6.41543
21.4068
6.41022
6.39882
15.8926
16.604
6.39425
6.38773
6.38316
6.373
6.36813
22.1915
6.36438
21.9293
18.1353
17.9021
18.7062
18.9027
19.8303
19.9329
23.5353
6.35582
18.85
6.35033
18.6917
6.34181
6.34046
6.33249
22.7551
6.32694
6.32209
18.758
18.4321
6.31477
22.976
17.9006
18.4284
16.8451
17.4065
18.0799
18.3373
15.5161
16.1772
6.31321
6.30771
6.31006
6.37089
6.41257
6.51265
6.78052
7.11731
29.352
25.9722
30.2103
23.7596
22.0963
29.8775
27.1468
26.9073
23.3143
22.2873
9.91051
10.7735
33.4392
31.922
30.9206
32.9226
25.5503
23.4868
31.051
26.8311
25.5759
22.9236
12.5404
30.5233
9.98336
10.9153
10.8451
11.2681
29.0213
35.5239
27.5867
25.4642
10.2513
11.211
10.0385
11.0048
35.6949
12.8096
11.1188
11.5896
9.28764
9.75802
36.3669
9.79042
10.572
9.12909
9.58707
36.7498
36.7251
36.8356
36.5204
35.7763
13.165
34.8506
10.7592
11.7149
10.447
11.4913
10.2378
11.0462
9.51711
10.0327
10.4102
11.3842
11.337
11.778
10.2177
11.1385
33.9013
32.9563
32.0405
31.1771
9.59482
10.5438
12.0032
8.72258
9.0908
9.32954
10.1005
9.77413
10.7151
25.0509
7.5431
36.4712
33.193
31.0013
29.5311
28.4214
27.3888
26.657
25.9467
25.5499
25.0745
24.7909
24.4222
24.2085
23.9079
23.7399
23.4854
23.3473
23.1238
23.0058
22.8044
22.7008
22.5154
22.4219
22.2482
22.162
21.9971
21.9162
21.7582
21.6813
21.5286
21.4547
21.3063
21.2346
21.0897
21.0196
20.8774
20.8086
20.6687
20.6008
20.4626
20.3953
20.2584
20.1915
20.0554
19.9886
19.8529
19.7858
19.6501
19.5825
19.4464
19.3781
19.2412
19.1719
19.0339
18.9633
18.8238
18.7518
18.6104
18.5369
18.3934
18.3181
18.1723
18.095
17.9467
17.8675
17.7164
17.6355
17.4816
17.3989
17.2423
17.158
16.9988
16.9132
16.7517
16.6652
16.5017
16.4149
16.2501
16.1639
15.9987
15.9141
15.7497
15.6681
15.506
15.4291
15.2712
15.2011
15.0497
14.989
14.8465
14.7988
14.6688
14.6359
14.5252
14.5069
14.4188
14.4166
14.3584
14.3686
14.3438
14.3665
14.359
14.4107
14.4188
14.4977
14.5216
14.6234
14.659
14.7762
14.8204
14.9481
14.9984
15.1337
15.1881
15.3275
15.3834
15.523
15.5785
15.7153
15.7687
15.8998
15.9497
16.0725
16.118
16.2308
16.2711
16.3724
16.4066
16.4951
16.5229
16.5983
16.6197
16.6823
16.6974
16.7483
16.758
16.7984
16.8033
16.8346
16.8353
16.8578
16.8557
16.8713
16.8671
16.8771
16.8711
16.8776
16.8688
16.8731
16.8601
16.8633
16.8476
16.8503
16.832
16.8341
16.813
16.8146
16.7922
16.7934
16.7715
16.7721
16.7492
16.7496
16.7273
16.7268
16.7008
16.7074
16.6752
16.6847
16.6423
16.7155
16.7444
16.9471
17.2277
18.2718
20.9103
18.9381
39.9398
)
;
    }
    rightWall
    {
        type            calculated;
        value           uniform 0;
    }
    symmetryLine
    {
        type            symmetryPlane;
    }
}


// ************************************************************************* //
