/*--------------------------------*- C++ -*----------------------------------*\
| =========                 |                                                 |
| \\      /  F ield         | OpenFOAM: The Open Source CFD Toolbox           |
|  \\    /   O peration     | Version:  v2006                                 |
|   \\  /    A nd           | Website:  www.openfoam.com                      |
|    \\/     M anipulation  |                                                 |
\*---------------------------------------------------------------------------*/
FoamFile
{
    version     2.0;
    format      ascii;
    class       volScalarField;
    location    "0.11";
    object      turbulenceProperties:L;
}
// * * * * * * * * * * * * * * * * * * * * * * * * * * * * * * * * * * * * * //

dimensions      [0 1 0 0 0 0 0];


internalField   nonuniform List<scalar> 
38932
(
0.0100146
0.0100149
0.0100048
0.0100047
0.0100048
0.0100047
0.0100048
0.0100048
0.0100048
0.0100048
0.0100048
0.0100048
0.0100048
0.0100048
0.0100048
0.0100048
0.0100048
0.0100048
0.0100048
0.0100048
0.0100048
0.0100048
0.0100048
0.0100048
0.0100048
0.0100048
0.0100048
0.0100048
0.0100048
0.0100048
0.0100048
0.0100048
0.0100048
0.0100049
0.0100049
0.0100049
0.0100049
0.0100049
0.0100049
0.0100049
0.0100049
0.0100049
0.0100049
0.0100049
0.0100049
0.0100049
0.0100049
0.0100049
0.0100049
0.0100049
0.0100049
0.0100049
0.0100049
0.0100049
0.0100049
0.0100049
0.0100049
0.0100049
0.0100049
0.010005
0.010005
0.010005
0.010005
0.010005
0.010005
0.010005
0.010005
0.010005
0.010005
0.010005
0.010005
0.010005
0.010005
0.010005
0.010005
0.010005
0.0100051
0.0100051
0.0100051
0.0100051
0.0100051
0.0100051
0.0100051
0.0100051
0.0100051
0.0100051
0.0100051
0.0100051
0.0100051
0.0100051
0.0100051
0.0100051
0.0100051
0.0100051
0.0100051
0.0100051
0.0100051
0.0100051
0.0100051
0.0100051
0.0100051
0.0100051
0.0100051
0.0100051
0.0100051
0.0100051
0.0100051
0.0100051
0.0100051
0.0100051
0.0100051
0.0100051
0.0100051
0.0100051
0.0100051
0.0100051
0.0100051
0.0100051
0.0100051
0.0100049
0.0100046
0.0100035
0.0100005
0.00999094
0.00997217
0.00991882
0.00975008
0.00914801
0.00717818
0.00248908
0.000846215
4.35498e-05
4.28478e-05
0.000377583
0.00102544
0.000726996
0.000271528
4.25621e-05
4.24857e-05
0.00022629
0.000591206
0.000527425
0.000201598
4.28407e-05
4.28001e-05
0.000188428
0.000484202
0.000461012
0.000182668
4.28641e-05
4.27192e-05
0.000177551
0.000448778
0.000442875
0.00017657
4.26423e-05
4.26353e-05
0.000176177
0.000439582
0.000437821
0.000176112
4.26411e-05
4.264e-05
0.000176158
0.000436641
0.000435613
0.000176191
4.264e-05
4.264e-05
0.000176152
0.000434484
0.00043312
0.000176005
4.264e-05
4.264e-05
0.000175745
0.0004315
0.000429638
0.000175379
4.264e-05
4.264e-05
0.000174923
0.000427571
0.000425344
0.000174395
4.264e-05
4.264e-05
0.000173813
0.000422998
0.000420575
0.000173195
4.264e-05
4.264e-05
0.000172555
0.000418106
0.00041562
0.000171905
4.264e-05
4.264e-05
0.000171253
0.000413138
0.000410677
0.000170607
4.264e-05
4.264e-05
0.000169973
0.000408249
0.000405864
0.000169355
4.264e-05
4.264e-05
0.000168756
0.000403526
0.00040124
0.000168178
4.264e-05
4.264e-05
0.000167622
0.000399009
0.000396832
0.00016709
4.264e-05
4.264e-05
0.000166581
0.000394712
0.000392647
0.000166096
4.264e-05
4.264e-05
0.000165636
0.000390637
0.000388681
0.0001652
4.264e-05
4.264e-05
0.000164788
0.00038678
0.000384931
0.000164401
4.264e-05
4.264e-05
0.000164038
0.000383135
0.000381389
0.0001637
4.264e-05
4.264e-05
0.000163386
0.000379695
0.00037805
0.000163097
4.264e-05
4.264e-05
0.000162833
0.000376454
0.000374907
0.000162593
4.264e-05
4.264e-05
0.000162379
0.000373409
0.000371958
0.000162191
4.264e-05
4.264e-05
0.000162029
0.000370556
0.000369201
0.000161893
4.264e-05
4.264e-05
0.000161784
0.000367895
0.000366636
0.000161704
4.264e-05
4.264e-05
0.000161652
0.000365425
0.000364264
0.000161629
4.264e-05
4.264e-05
0.000161638
0.000363151
0.000362089
0.000161678
4.264e-05
4.264e-05
0.000161751
0.000361077
0.000360117
0.000161858
4.264e-05
4.264e-05
0.000162002
0.000359211
0.00035836
0.000162184
4.264e-05
4.264e-05
0.000162406
0.000357565
0.000356829
0.00016267
4.264e-05
4.264e-05
0.000162979
0.000356154
0.000355544
0.000163337
4.264e-05
4.264e-05
0.000163745
0.000355
0.000354528
0.000164208
4.264e-05
4.264e-05
0.000164731
0.000354131
0.000353815
0.000165318
4.264e-05
4.264e-05
0.000165974
0.000353586
0.000353448
0.000166705
4.264e-05
4.264e-05
0.000167519
0.000353413
0.000353486
0.000168423
4.264e-05
4.264e-05
0.000169427
0.000353678
0.000354004
0.000170541
4.264e-05
4.264e-05
0.000171779
0.000354478
0.000355114
0.000173152
4.264e-05
4.264e-05
0.00017468
0.000355936
0.000356957
0.000176376
4.264e-05
4.264e-05
0.000178269
0.000358218
0.000359729
0.000180376
4.264e-05
4.264e-05
0.000182734
0.000361555
0.000363701
0.000185368
4.264e-05
4.264e-05
0.000188322
0.00036625
0.000369256
0.000191638
4.264e-05
4.264e-05
0.00019537
0.000372794
0.000376906
0.000199556
4.264e-05
4.264e-05
0.000204268
0.000381755
0.000387432
0.000209565
4.264e-05
4.264e-05
0.000215489
0.000394015
0.000401544
0.000222037
4.264e-05
4.264e-05
0.000229322
0.000410429
0.000420775
0.000237347
4.264e-05
4.264e-05
0.000246158
0.000432927
0.000447079
0.000255785
4.264e-05
4.264e-05
0.000265944
0.000464018
0.000482729
0.000274834
4.264e-05
4.264e-05
0.000281778
0.000503506
0.000528629
0.00028934
4.264e-05
4.264e-05
0.000297113
0.000556694
0.000586786
0.000304453
4.264e-05
4.264e-05
0.000310961
0.000618213
0.000650942
0.000316655
4.264e-05
4.264e-05
0.00032029
0.000682606
0.000707422
0.000319451
4.264e-05
4.264e-05
0.000311973
0.00071691
0.000693807
0.000292081
4.26329e-05
4.26471e-05
0.000254454
0.000627118
0.00056391
0.000227279
4.26329e-05
4.264e-05
0.000213385
0.000525058
0.000506014
0.000204938
4.26471e-05
4.264e-05
0.000200197
0.000497032
0.000493582
0.000198758
4.264e-05
4.264e-05
0.00019975
0.000496279
0.000503508
0.000202233
4.26329e-05
4.26471e-05
0.000205377
0.000511917
0.000521079
0.000209197
4.264e-05
4.264e-05
0.000213072
0.000530996
0.000540422
0.000216771
4.26329e-05
4.264e-05
0.000219761
0.000549282
0.000559248
0.000223515
4.26471e-05
4.264e-05
0.000226794
0.000568069
0.000576456
0.000230162
4.264e-05
4.264e-05
0.000233509
0.000584582
0.000592001
0.000236739
4.26329e-05
4.26471e-05
0.000239982
0.000599078
0.000605517
0.000243056
4.26329e-05
4.264e-05
0.000246168
0.000611578
0.000617111
0.000249187
4.26471e-05
4.264e-05
0.00025215
0.000622177
0.000626787
0.000255131
4.264e-05
4.26471e-05
0.00025815
0.000630999
0.000634685
0.000261172
4.26329e-05
4.26471e-05
0.000264383
0.000637937
0.000640542
0.000267698
4.26259e-05
4.27496e-05
0.000271436
0.00064243
0.000643279
0.00027541
4.28038e-05
4.28729e-05
0.000280088
0.000642401
0.000637494
0.000284934
4.27731e-05
4.2952e-05
0.000289528
0.000623644
0.000592644
0.000291839
4.26833e-05
4.2796e-05
0.000286148
0.00052633
0.0003848
0.000224125
4.29534e-05
4.35626e-05
0.000177004
0.000177024
0.000174625
0.00017711
0.000175976
0.000180209
0.000179711
0.000181181
0.000180718
0.000181015
0.000180955
0.000181045
0.000180954
0.000181127
0.00018041
0.000180681
0.000180922
0.000195583
0.000192084
0.0001886
0.00018227
0.000136065
8.31803e-05
9.69137e-05
0.00011472
9.66728e-05
5.29391e-05
5.56003e-05
6.00576e-05
5.96974e-05
5.80582e-05
5.8466e-05
3.93748e-05
3.41967e-05
3.18449e-05
3.30505e-05
2.32364e-05
4.71633e-05
7.15671e-05
9.57509e-05
0.000135979
0.000282901
0.000225992
0.000162284
8.57408e-05
2.602e-05
2.70706e-05
0.00012556
0.000248271
0.000340981
0.000415424
0.000499221
0.000398379
0.000281818
0.000137731
2.76763e-05
2.72771e-05
0.000142694
0.000297321
0.000429479
0.000542979
0.000559231
0.000441679
0.000301032
0.00014336
2.69196e-05
2.60103e-05
0.000139539
0.000294351
0.000434414
0.000553022
0.000535675
0.000418808
0.000282708
0.000133747
2.4868e-05
2.36221e-05
0.000127801
0.000269712
0.000400174
0.000513638
0.000489591
0.000381559
0.000257239
0.00012247
2.2346e-05
2.12299e-05
0.000118159
0.000246906
0.00036564
0.000469202
0.000453998
0.000352857
0.000238639
0.000115054
2.02906e-05
1.93979e-05
0.000112037
0.000230994
0.000341585
0.000440235
0.000427406
0.000330646
0.000223461
0.000108885
1.84848e-05
1.74676e-05
0.000104382
0.000214322
0.000318515
0.000413743
0.000395258
0.000301854
0.000201695
9.7542e-05
1.61518e-05
1.46313e-05
8.66358e-05
0.000183241
0.000279755
0.000372387
0.000345259
0.000252805
0.000160316
7.3176e-05
1.2804e-05
1.02199e-05
5.59855e-05
0.000131763
0.000220399
0.000313807
0.000274769
0.000180244
9.27727e-05
3.172e-05
6.56454e-06
4.50948e-06
1.67909e-05
6.15852e-05
0.000131893
0.000224151
0.000164147
8.24981e-05
4.23729e-05
1.51793e-05
4.50978e-06
4.51772e-06
9.76108e-06
2.68863e-05
5.93352e-05
0.000102052
7.06719e-05
3.19327e-05
1.24766e-05
6.54042e-06
4.4639e-06
4.45682e-06
6.38044e-06
1.37568e-05
3.45299e-05
7.33085e-05
7.63401e-05
3.71714e-05
1.43787e-05
5.73557e-06
4.63609e-06
4.62317e-06
5.62399e-06
1.40363e-05
3.7168e-05
7.71236e-05
7.53765e-05
3.62151e-05
1.45748e-05
7.01206e-06
4.57861e-06
4.62936e-06
6.50448e-06
1.50083e-05
3.64707e-05
7.42281e-05
7.29046e-05
3.4183e-05
1.34728e-05
5.91259e-06
4.43536e-06
4.46356e-06
6.64414e-06
1.39623e-05
3.42543e-05
7.23627e-05
7.58526e-05
3.90447e-05
1.70069e-05
7.03489e-06
4.44176e-06
4.41174e-06
6.3925e-06
1.69184e-05
3.93907e-05
7.67505e-05
8.0939e-05
4.13995e-05
1.65534e-05
6.27465e-06
4.6064e-06
4.53254e-06
6.98843e-06
1.67023e-05
4.02632e-05
7.91889e-05
8.29343e-05
4.47638e-05
1.88394e-05
7.24307e-06
4.52956e-06
4.46825e-06
7.76744e-06
1.75991e-05
4.01248e-05
7.68172e-05
7.92262e-05
4.2757e-05
1.8399e-05
6.64047e-06
4.67285e-06
4.65655e-06
6.44623e-06
1.65839e-05
3.84695e-05
7.57738e-05
7.85837e-05
4.34526e-05
1.94113e-05
7.1182e-06
4.61451e-06
4.63598e-06
6.83978e-06
1.72517e-05
3.8394e-05
7.35192e-05
7.50082e-05
4.14306e-05
1.96672e-05
8.22646e-06
4.60441e-06
4.70036e-06
7.10726e-06
1.8903e-05
3.98074e-05
7.32855e-05
7.55653e-05
4.13739e-05
1.94734e-05
7.75433e-06
4.45886e-06
4.62188e-06
8.75169e-06
1.99783e-05
3.96346e-05
7.14497e-05
7.42263e-05
4.21042e-05
2.07641e-05
7.38566e-06
4.38097e-06
4.35387e-06
7.03849e-06
1.95005e-05
3.86775e-05
7.10057e-05
7.07407e-05
3.76118e-05
1.83663e-05
7.54922e-06
4.56989e-06
4.41461e-06
9.14358e-06
2.08778e-05
3.90866e-05
7.00168e-05
7.45665e-05
4.24788e-05
2.12938e-05
8.37636e-06
4.66079e-06
4.74437e-06
7.33517e-06
2.12319e-05
4.24676e-05
7.55645e-05
7.8441e-05
4.5005e-05
2.22298e-05
7.58395e-06
4.4017e-06
4.53283e-06
9.32351e-06
2.2808e-05
4.38774e-05
7.59345e-05
7.79683e-05
4.66634e-05
2.38731e-05
8.58452e-06
4.4028e-06
4.30815e-06
7.28036e-06
2.31145e-05
4.46758e-05
7.6711e-05
7.8061e-05
4.4641e-05
2.19201e-05
7.52898e-06
4.66211e-06
4.50252e-06
8.82227e-06
2.25861e-05
4.31384e-05
7.56865e-05
7.97294e-05
4.76555e-05
2.45544e-05
9.35314e-06
4.59958e-06
4.76883e-06
7.84019e-06
2.37088e-05
4.63504e-05
7.95595e-05
8.21345e-05
4.89081e-05
2.49308e-05
8.28177e-06
4.41459e-06
4.60834e-06
9.8466e-06
2.5296e-05
4.75428e-05
7.94281e-05
8.2974e-05
5.06191e-05
2.61039e-05
8.33217e-06
4.37096e-06
4.33518e-06
7.88855e-06
2.44606e-05
4.60805e-05
7.9518e-05
8.22875e-05
5.04681e-05
2.64096e-05
9.8046e-06
4.4605e-06
4.27755e-06
7.83928e-06
2.57003e-05
4.85067e-05
8.0621e-05
8.18314e-05
4.81096e-05
2.42931e-05
7.99277e-06
4.69153e-06
4.52418e-06
9.28648e-06
2.48427e-05
4.60036e-05
7.84312e-05
8.26618e-05
5.08895e-05
2.67599e-05
9.70163e-06
4.62472e-06
4.79496e-06
8.04373e-06
2.49804e-05
4.76343e-05
8.1549e-05
8.32607e-05
5.06232e-05
2.66502e-05
8.90502e-06
4.41531e-06
4.67379e-06
1.01386e-05
2.74975e-05
5.06851e-05
8.19345e-05
8.49372e-05
5.22845e-05
2.74744e-05
8.59299e-06
4.35249e-06
4.35892e-06
8.68256e-06
2.63956e-05
4.82716e-05
8.1279e-05
8.48743e-05
5.30649e-05
2.83256e-05
1.01212e-05
4.4289e-06
4.22265e-06
7.86635e-06
2.6912e-05
4.9598e-05
8.24286e-05
8.20167e-05
4.8969e-05
2.55655e-05
8.53947e-06
4.67896e-06
4.44598e-06
1.07166e-05
2.75391e-05
4.87497e-05
7.97832e-05
8.41695e-05
5.19053e-05
2.72335e-05
9.37077e-06
4.69272e-06
4.77987e-06
8.43409e-06
2.57947e-05
4.74848e-05
8.16333e-05
8.40474e-05
5.2273e-05
2.82383e-05
1.01942e-05
4.47643e-06
4.81931e-06
9.18194e-06
2.79273e-05
5.23717e-05
8.46223e-05
8.54917e-05
5.24621e-05
2.81374e-05
8.76387e-06
4.33519e-06
4.49998e-06
1.07561e-05
2.86654e-05
5.12546e-05
8.32138e-05
8.67797e-05
5.43508e-05
2.89597e-05
9.41063e-06
4.34917e-06
4.20949e-06
8.13957e-06
2.78042e-05
5.00944e-05
8.45385e-05
8.79595e-05
5.42146e-05
2.82889e-05
9.61692e-06
4.58416e-06
4.24721e-06
9.04359e-06
2.93425e-05
5.43626e-05
8.74101e-05
8.1799e-05
4.73897e-05
2.49589e-05
8.20839e-06
4.81128e-06
4.7142e-06
8.87421e-06
2.44994e-05
4.26689e-05
7.27215e-05
7.51263e-05
4.66359e-05
2.65058e-05
9.42212e-06
4.35673e-06
4.50617e-06
1.14358e-05
2.76628e-05
4.89101e-05
7.87993e-05
8.77807e-05
4.97506e-05
2.46919e-05
8.57692e-06
4.74664e-06
5.17511e-06
1.05061e-05
2.95111e-05
6.08845e-05
0.000100436
0.000130642
7.91765e-05
3.94483e-05
1.51022e-05
6.79799e-06
8.85094e-06
2.36324e-05
6.23951e-05
0.000125947
0.000208775
0.000247699
0.000163583
9.06041e-05
3.58402e-05
1.13536e-05
1.38216e-05
5.01826e-05
0.000117271
0.000196949
0.000285262
0.000318076
0.000227746
0.000141752
6.38872e-05
1.59493e-05
1.75978e-05
7.64266e-05
0.000162689
0.000253587
0.000345999
0.000370253
0.00027607
0.000180515
8.59784e-05
1.88253e-05
1.99947e-05
9.46143e-05
0.000195479
0.000294727
0.000390186
0.000404105
0.000309829
0.000208487
0.000102676
2.10452e-05
2.18884e-05
0.000110563
0.000221012
0.000325187
0.000421631
0.000436913
0.000337634
0.00023052
0.000116144
2.25816e-05
2.33696e-05
0.000119493
0.000238443
0.000349256
0.000452355
0.000467734
0.000360959
0.00024651
0.000124127
2.4239e-05
2.59007e-05
0.000127902
0.000254191
0.000370787
0.000477964
0.000487821
0.000381963
0.000264273
0.000135325
2.75604e-05
2.87213e-05
0.000143143
0.000275732
0.000396376
0.000505027
0.000521703
0.000410454
0.000286713
0.000149577
2.96926e-05
3.0665e-05
0.000157121
0.000297289
0.000423628
0.00053667
0.000550978
0.000434978
0.000306467
0.000164414
3.11208e-05
3.08997e-05
0.000166837
0.000309361
0.000439339
0.000562094
0.000537585
0.00042574
0.000300216
0.000161506
3.00006e-05
2.91515e-05
0.000155428
0.000288201
0.000405901
0.000506268
0.000521875
0.000409835
0.000288114
0.000153881
2.91435e-05
2.90056e-05
0.000157393
0.000294745
0.000420283
0.000535262
0.000547819
0.000430549
0.000302415
0.000162791
2.92649e-05
2.89087e-05
0.000164341
0.000308127
0.000439137
0.000558661
0.00056742
0.000445945
0.000312533
0.000166274
2.91442e-05
2.8122e-05
0.000164418
0.000311603
0.00044693
0.000571842
0.000561016
0.000435986
0.000303743
0.000160671
2.73951e-05
2.55231e-05
0.000151255
0.000285795
0.00040726
0.000511683
0.000461675
0.000371618
0.000263012
0.000139216
2.35733e-05
2.16432e-05
0.000128782
0.000244718
0.000350655
0.000450443
0.000423618
0.000331829
0.000230294
0.000120026
2.03492e-05
1.89914e-05
0.000112537
0.000216502
0.000310772
0.000392586
0.000394589
0.000304828
0.000210196
0.000108925
1.86331e-05
1.81384e-05
0.000106932
0.000208339
0.000303965
0.000394211
0.00038927
0.000300933
0.000206322
0.000105914
1.80064e-05
1.77223e-05
0.00010493
0.000204073
0.000297715
0.000385485
0.000382765
0.000295278
0.000202111
0.000104133
1.77457e-05
1.72935e-05
0.000103016
0.000200717
0.000293917
0.000381925
0.000380654
0.000290276
0.000198184
0.000101856
1.70844e-05
1.63954e-05
9.83927e-05
0.000190863
0.000278384
0.000359743
0.000337615
0.000264487
0.000181747
9.35747e-05
1.57893e-05
1.57426e-05
9.27625e-05
0.000181639
0.000266525
0.000347902
0.000357021
0.000273334
0.000185804
9.49009e-05
1.60932e-05
1.62777e-05
9.79823e-05
0.000190672
0.000280139
0.00036541
0.000373018
0.000285557
0.000194383
9.97464e-05
1.6142e-05
1.57189e-05
9.85536e-05
0.000193228
0.000285514
0.000376818
0.00035709
0.000275108
0.000187016
9.501e-05
1.49999e-05
1.42362e-05
9.09826e-05
0.000179826
0.000262929
0.000336528
0.00034847
0.000266169
0.00018002
8.99674e-05
1.38539e-05
1.42512e-05
9.17035e-05
0.000184418
0.000273796
0.000359699
0.000369271
0.000281307
0.000189672
9.43415e-05
1.46336e-05
1.48058e-05
9.62428e-05
0.000193067
0.000287032
0.000377416
0.000382588
0.000287929
0.000193305
9.65694e-05
1.478e-05
1.45313e-05
9.49436e-05
0.000188432
0.000278569
0.000363241
0.000343972
0.000268175
0.0001833
9.28162e-05
1.43092e-05
1.42453e-05
9.27651e-05
0.000184681
0.000272542
0.000356899
0.000369197
0.000281166
0.000189418
9.46253e-05
1.44385e-05
1.48718e-05
9.67776e-05
0.000194588
0.000289181
0.000380118
0.000389563
0.000296087
0.000199128
0.000100034
1.50842e-05
1.51043e-05
9.99137e-05
0.000199898
0.000297657
0.000395973
0.000376427
0.000288164
0.000194928
9.8188e-05
1.47577e-05
1.44266e-05
9.66876e-05
0.000190721
0.000278912
0.000357819
0.000371874
0.000283988
0.00019243
9.68011e-05
1.43493e-05
1.44914e-05
9.88128e-05
0.000197979
0.000293561
0.000385359
0.000397619
0.000301962
0.000202868
0.000101252
1.49133e-05
1.51147e-05
0.00010239
0.000204328
0.000304676
0.000405889
0.000387013
0.000296519
0.000201091
0.00010131
1.49631e-05
1.46657e-05
9.99848e-05
0.000197058
0.000288402
0.00036953
0.000384921
0.000294084
0.000198959
0.000100188
1.46603e-05
1.5003e-05
0.000102357
0.00020399
0.000303093
0.000399502
0.000409556
0.000306517
0.00020572
0.000103659
1.52151e-05
1.49697e-05
0.000102529
0.000202442
0.000299011
0.00039117
0.000374983
0.000292052
0.000199501
0.00010132
1.48627e-05
1.49192e-05
0.000102259
0.00020272
0.00029923
0.000391681
0.000407347
0.000309117
0.000207846
0.000104437
1.51535e-05
1.53668e-05
0.000105718
0.000209992
0.000313591
0.000419308
0.000401398
0.000306917
0.000208269
0.000105643
1.53733e-05
1.53218e-05
0.000105691
0.000206571
0.000301212
0.000386161
0.000404474
0.00030927
0.000210226
0.000106718
1.5276e-05
1.52266e-05
0.000108121
0.000215917
0.000320859
0.000422434
0.000436497
0.000326981
0.000219037
0.000110291
1.58161e-05
1.64e-05
0.00011238
0.000218933
0.000321646
0.000419914
0.0004067
0.00031787
0.00021906
0.00011349
1.6901e-05
1.73837e-05
0.000115782
0.000222773
0.000326462
0.000426536
0.000443607
0.000333399
0.000226057
0.000117485
1.77401e-05
1.76818e-05
0.000117572
0.000224841
0.000328201
0.000427576
0.000415112
0.00032424
0.000223523
0.000116787
1.70913e-05
1.62753e-05
0.000114778
0.000224819
0.000332198
0.000435473
0.000453525
0.000337866
0.00022492
0.00011134
1.48583e-05
1.46953e-05
0.000109319
0.000222906
0.00033317
0.000437797
0.000427924
0.000331272
0.000224261
0.000112098
1.57186e-05
1.66766e-05
0.00011511
0.0002277
0.000338015
0.000450353
0.000439876
0.000337469
0.000229825
0.000117647
1.74251e-05
1.82592e-05
0.000120819
0.00023277
0.000338831
0.000433508
0.000457597
0.000346588
0.000236716
0.000123538
1.89447e-05
1.94973e-05
0.000125675
0.000238616
0.000346122
0.00044798
0.000441917
0.000347487
0.000241498
0.000128072
2.00928e-05
2.04775e-05
0.000130196
0.000244992
0.000355119
0.000466092
0.00045632
0.00035391
0.000246013
0.000131251
2.08059e-05
2.1071e-05
0.000132279
0.000247599
0.00035484
0.000449644
0.000471308
0.000358709
0.00024671
0.000131162
2.06648e-05
1.90613e-05
0.00012545
0.000238476
0.000349127
0.000456106
0.000443518
0.000337094
0.000226443
0.000115679
1.75168e-05
1.81936e-05
0.000112697
0.000219587
0.000329086
0.000435577
0.000441323
0.000332295
0.000222136
0.000116066
2.03042e-05
2.09911e-05
0.000120134
0.000228568
0.000337955
0.000444176
0.00046597
0.000352027
0.000236104
0.000121877
2.02607e-05
1.80774e-05
0.000116812
0.000234534
0.000354487
0.000477904
0.000462569
0.000348191
0.000231769
0.000116984
1.83772e-05
2.16828e-05
0.000124318
0.000234163
0.000343737
0.000451043
0.000441464
0.000339043
0.0002364
0.000131176
2.43206e-05
2.51734e-05
0.000132166
0.000230804
0.000330013
0.000429763
0.000413856
0.000313254
0.000213714
0.0001157
2.54531e-05
2.47593e-05
9.56676e-05
0.000188123
0.000286157
0.000387827
0.00033082
0.000245044
0.000159613
7.8175e-05
2.24342e-05
1.98135e-05
6.54564e-05
0.000138285
0.000217462
0.000298462
0.000265991
0.000193858
0.000125154
6.15246e-05
1.84148e-05
1.76425e-05
5.56854e-05
0.000115458
0.000181168
0.00025187
0.000230295
0.000167954
0.000107796
5.18347e-05
1.66708e-05
1.59616e-05
4.80974e-05
0.000102555
0.00016196
0.000225431
0.000208537
0.000151242
9.5948e-05
4.42143e-05
1.47927e-05
1.29728e-05
4.1602e-05
9.39761e-05
0.00015023
0.000210188
0.000197368
0.000144033
9.13276e-05
4.0235e-05
1.21172e-05
1.27127e-05
4.47601e-05
9.46113e-05
0.000147613
0.000204463
0.000195368
0.000145717
9.63688e-05
4.77048e-05
1.31084e-05
1.33197e-05
5.08776e-05
0.000100728
0.000151782
0.00020558
0.00020334
0.000151062
0.000102103
5.25372e-05
1.34213e-05
1.31697e-05
5.24402e-05
0.000100237
0.000144971
0.00018583
0.000193493
0.000148655
0.000103025
5.40837e-05
1.28733e-05
1.29712e-05
5.77343e-05
0.000105671
0.000149552
0.000191516
0.000204398
0.000157951
0.000111329
6.16185e-05
1.35214e-05
1.41455e-05
6.40565e-05
0.000114007
0.00016007
0.000207192
0.000195384
0.000157171
0.000114406
6.57902e-05
1.46507e-05
1.49003e-05
6.61711e-05
0.000116659
0.000161782
0.00020463
0.000206962
0.000162348
0.000117375
6.66258e-05
1.49763e-05
1.48372e-05
6.53658e-05
0.000115661
0.000158762
0.00019603
0.000204737
0.000162618
0.000116804
6.42332e-05
1.4502e-05
1.41098e-05
6.4285e-05
0.000116942
0.000162753
0.000207097
0.000196328
0.000159303
0.000115482
6.34213e-05
1.37743e-05
1.34049e-05
6.43051e-05
0.000117674
0.000163286
0.000204405
0.000205769
0.000166036
0.000120993
6.76915e-05
1.34109e-05
1.38869e-05
7.14403e-05
0.000126843
0.000174913
0.000218795
0.00022397
0.000177939
0.000129628
7.36507e-05
1.42944e-05
1.45334e-05
7.42679e-05
0.000129968
0.000176125
0.000215193
0.000225176
0.000181566
0.000132659
7.55691e-05
1.47133e-05
1.48566e-05
7.65545e-05
0.000134131
0.000183412
0.000229673
0.000220458
0.000180984
0.000133608
7.64407e-05
1.49626e-05
1.50798e-05
7.76568e-05
0.000136292
0.000186151
0.000230246
0.000234606
0.00018732
0.000136751
7.74386e-05
1.5112e-05
1.51104e-05
7.7407e-05
0.000136048
0.000184725
0.00022534
0.000234936
0.000189567
0.00013804
7.78482e-05
1.50798e-05
1.50288e-05
7.74185e-05
0.000138583
0.000190946
0.000239446
0.000229859
0.000188054
0.000137627
7.71901e-05
1.49216e-05
1.48732e-05
7.77536e-05
0.000139906
0.000193013
0.000239626
0.000244306
0.000194361
0.000140572
7.80249e-05
1.47635e-05
1.46741e-05
7.73063e-05
0.000139632
0.000191775
0.000234684
0.000244783
0.000197173
0.000142735
7.93972e-05
1.46884e-05
1.47224e-05
7.94405e-05
0.000143459
0.000198637
0.000249926
0.000240308
0.00019618
0.000142739
7.93062e-05
1.46857e-05
1.46212e-05
7.94967e-05
0.000145389
0.000201778
0.000251
0.000256644
0.00020333
0.000145506
7.91867e-05
1.44568e-05
1.41478e-05
7.62905e-05
0.000141828
0.000198107
0.000247953
0.000235936
0.000191727
0.000137564
7.36656e-05
1.37609e-05
1.35448e-05
7.40765e-05
0.000138864
0.000195284
0.00024471
0.00024928
0.00019611
0.000139309
7.46736e-05
1.34353e-05
1.34206e-05
7.51634e-05
0.000138735
0.000193414
0.00023906
0.000249508
0.000199009
0.000141693
7.63111e-05
1.34256e-05
1.33867e-05
7.62159e-05
0.000142297
0.000200333
0.00025466
0.00024424
0.000197579
0.000141476
7.61844e-05
1.33246e-05
1.33391e-05
7.64831e-05
0.000143871
0.000202928
0.000254764
0.000260062
0.000204328
0.000144696
7.73973e-05
1.32896e-05
1.33108e-05
7.62714e-05
0.000143488
0.000201295
0.000249087
0.000259724
0.000206591
0.000146117
7.75156e-05
1.32421e-05
1.32791e-05
7.74078e-05
0.000146405
0.000207472
0.000264699
0.00025318
0.000204179
0.000145236
7.70983e-05
1.3234e-05
1.32405e-05
7.80579e-05
0.000147643
0.000209322
0.000263737
0.000268615
0.000210237
0.000147896
7.76958e-05
1.3222e-05
1.31437e-05
7.71087e-05
0.000146412
0.000206439
0.000256534
0.000267021
0.000211412
0.000148573
7.8037e-05
1.31546e-05
1.31324e-05
7.75968e-05
0.0001486
0.000212164
0.000271858
0.00025922
0.000208063
0.000146681
7.64338e-05
1.29942e-05
1.28994e-05
7.74181e-05
0.000148903
0.000212805
0.00026961
0.000274114
0.000213177
0.000148891
7.76207e-05
1.28623e-05
1.28018e-05
7.64294e-05
0.000147024
0.000209178
0.000261237
0.000271593
0.000213915
0.000149176
7.71849e-05
1.27103e-05
1.27027e-05
7.72981e-05
0.000149101
0.000214344
0.000275877
0.000262902
0.000210284
0.000147663
7.63859e-05
1.26223e-05
1.24906e-05
7.66542e-05
0.000149414
0.000214988
0.00027341
0.000277741
0.000215322
0.000149445
7.70923e-05
1.24206e-05
1.24256e-05
7.59104e-05
0.00014805
0.000211679
0.000265038
0.000276296
0.000217104
0.000150605
7.71953e-05
1.24164e-05
1.24846e-05
7.73184e-05
0.000151397
0.000218495
0.000281844
0.000270749
0.000216174
0.000151338
7.76994e-05
1.24739e-05
1.27425e-05
7.95015e-05
0.000155368
0.000223814
0.000284362
0.000292186
0.00022737
0.000158009
8.10912e-05
1.30001e-05
1.31877e-05
8.29702e-05
0.000160988
0.000228904
0.000285225
0.000303049
0.000240966
0.000168717
8.6782e-05
1.38167e-05
1.40406e-05
9.08523e-05
0.000175413
0.00025023
0.000319094
0.000317336
0.000256523
0.000182364
9.52411e-05
1.54898e-05
1.61864e-05
0.000102951
0.000196017
0.00027364
0.000335681
0.000362108
0.000297243
0.000214457
0.000112958
1.83461e-05
2.00739e-05
0.000125262
0.000238789
0.000334859
0.000414019
0.000444528
0.000354584
0.000252866
0.000132915
2.14467e-05
2.23383e-05
0.000134975
0.000254831
0.000356403
0.00044466
0.000427623
0.000349889
0.000252145
0.000134265
2.26687e-05
2.31406e-05
0.000136188
0.000256566
0.000358134
0.000443507
0.000449401
0.00036464
0.000262824
0.000140198
2.39639e-05
2.48092e-05
0.000145836
0.000273533
0.000382908
0.000474795
0.000486187
0.000388043
0.00027775
0.000148778
2.57089e-05
2.62812e-05
0.000148813
0.000275948
0.000381891
0.000466755
0.000485436
0.000391419
0.000280377
0.000150267
2.55673e-05
2.55578e-05
0.000150595
0.000280643
0.00039277
0.000493651
0.000471553
0.000384738
0.000277032
0.000149052
2.54724e-05
2.54895e-05
0.000151081
0.000281663
0.000394086
0.000489862
0.000497724
0.000395484
0.000282495
0.000151941
2.55622e-05
2.55689e-05
0.000150461
0.000278964
0.000387234
0.000475136
0.000493642
0.000396352
0.000282946
0.000151631
2.55156e-05
2.54732e-05
0.000152072
0.000283439
0.000397652
0.000501508
0.000478282
0.000388853
0.00027919
0.000149365
2.53944e-05
2.53818e-05
0.000151112
0.000283281
0.000398077
0.000497062
0.000504792
0.000399282
0.000283721
0.000151612
2.54251e-05
2.52636e-05
0.000149679
0.000279758
0.000390343
0.000480996
0.000499704
0.000399271
0.000283417
0.000150617
2.51687e-05
2.50884e-05
0.00014976
0.000282638
0.000399653
0.000506666
0.000481841
0.00038979
0.000277878
0.000147416
2.49382e-05
2.48153e-05
0.000147402
0.000280402
0.000397785
0.000500124
0.000505312
0.000397144
0.000279497
0.000146852
2.45322e-05
2.43989e-05
0.000145431
0.000274891
0.000386888
0.000479546
0.000495329
0.000394189
0.000278484
0.000146881
2.45336e-05
2.48496e-05
0.000149096
0.00028253
0.000397905
0.000496984
0.000522689
0.000414995
0.000291381
0.000152694
2.5315e-05
2.55822e-05
0.000153268
0.000292863
0.000416277
0.000529629
0.000502945
0.000405343
0.000287358
0.000151498
2.55805e-05
2.54937e-05
0.000151735
0.000289908
0.000413047
0.000521361
0.000524722
0.000410677
0.000287428
0.000150272
2.52143e-05
2.4944e-05
0.000147227
0.000281419
0.00039872
0.000495678
0.000511485
0.000404971
0.000284
0.000148129
2.48693e-05
2.51076e-05
0.000149791
0.000287191
0.000407529
0.000511472
0.000537773
0.000424425
0.000295712
0.000153138
2.5413e-05
2.55528e-05
0.000153691
0.000296295
0.000424523
0.000543259
0.000513512
0.000411786
0.000289815
0.000150965
2.54599e-05
2.5267e-05
0.000150958
0.000291843
0.000419334
0.000532517
0.000534921
0.000416063
0.000288874
0.000148995
2.50574e-05
2.48898e-05
0.000146493
0.000282252
0.00040251
0.000503022
0.000519062
0.000408444
0.000284335
0.000146844
2.48825e-05
2.5067e-05
0.000148465
0.000287182
0.000410271
0.000517973
0.00054502
0.000427342
0.000295228
0.000151475
2.53978e-05
2.54826e-05
0.000151706
0.000295652
0.000427073
0.000549781
0.000517254
0.000413001
0.000288857
0.00014918
2.53186e-05
2.51614e-05
0.000148849
0.000290141
0.00041992
0.000536344
0.000537999
0.000416254
0.00028684
0.000146554
2.49548e-05
2.46451e-05
0.000142503
0.00027882
0.000400775
0.000503734
0.0005197
0.000406467
0.000280268
0.000143121
2.456e-05
2.4706e-05
0.000144412
0.000282644
0.000406953
0.000517023
0.000544403
0.000423404
0.000289781
0.000147139
2.49204e-05
2.50289e-05
0.000147292
0.00028959
0.000421671
0.000546993
0.000511663
0.00040641
0.000282377
0.000144693
2.48337e-05
2.48739e-05
0.000144906
0.000283893
0.000412201
0.000527896
0.000524772
0.000412793
0.000286472
0.000146515
2.51225e-05
2.53813e-05
0.00014877
0.000292843
0.000428341
0.000551959
0.000554177
0.000426533
0.000291899
0.000148122
2.53332e-05
2.50595e-05
0.000143702
0.000283566
0.000409507
0.000516509
0.000532698
0.000414659
0.000284134
0.000143745
2.49402e-05
2.50715e-05
0.000144557
0.000285395
0.000413913
0.00052821
0.000555602
0.000429407
0.000291921
0.000146871
2.52037e-05
2.51665e-05
0.000146634
0.000291007
0.000427029
0.000557027
0.000517971
0.000409598
0.000282779
0.000143713
2.5012e-05
2.5016e-05
0.000143328
0.000283618
0.000414843
0.000534423
0.000529534
0.000414049
0.000285058
0.00014425
2.51318e-05
2.53152e-05
0.000146543
0.000291673
0.000430053
0.000557504
0.000558857
0.000427286
0.000290216
0.000146177
2.53393e-05
2.51816e-05
0.00014134
0.000281159
0.000408927
0.000518397
0.000534843
0.000413496
0.000280963
0.000140639
2.5061e-05
2.51395e-05
0.000142129
0.000282429
0.00041243
0.000529409
0.00055706
0.000428028
0.000288864
0.000144257
2.53174e-05
2.51683e-05
0.000143561
0.00028703
0.000424813
0.000557754
0.000515672
0.000405712
0.000277693
0.000139086
2.48478e-05
2.46293e-05
0.000138369
0.000277531
0.000410027
0.000532232
0.000525296
0.000407922
0.000277957
0.000138718
2.46459e-05
2.47812e-05
0.000140882
0.0002838
0.00042282
0.000553074
0.000553116
0.000419269
0.000281617
0.000138581
2.4687e-05
2.42448e-05
0.000132909
0.000270518
0.000398676
0.000509101
0.000525278
0.000402061
0.000269856
0.000132449
2.3972e-05
2.42013e-05
0.000134441
0.000271186
0.000400442
0.000517772
0.000543147
0.000414936
0.000279055
0.000138352
2.47389e-05
2.50978e-05
0.000140653
0.000282627
0.000415923