/*--------------------------------*- C++ -*----------------------------------*\
| =========                 |                                                 |
| \\      /  F ield         | OpenFOAM: The Open Source CFD Toolbox           |
|  \\    /   O peration     | Version:  v2006                                 |
|   \\  /    A nd           | Website:  www.openfoam.com                      |
|    \\/     M anipulation  |                                                 |
\*---------------------------------------------------------------------------*/
FoamFile
{
    version     2.0;
    format      ascii;
    class       surfaceScalarField;
    location    "0.1";
    object      phi;
}
// * * * * * * * * * * * * * * * * * * * * * * * * * * * * * * * * * * * * * //

dimensions      [1 0 -1 0 0 0 0];
oriented        oriented;


internalField   nonuniform List<scalar> 
45630
(
-2.37994e-05
-0.00100041
0.000982435
4.1838e-05
-0.00093518
0.000911339
9.61984e-06
6.12968e-05
9.39616e-06
0.00109291
3.76002e-05
0.00120558
-1.08153e-05
0.00126609
2.46354e-06
0.00131039
-6.71744e-06
0.00131981
-1.05511e-06
0.00132437
-7.69976e-07
0.00132257
-3.59534e-07
0.00132021
-5.35868e-07
0.00131752
-6.35016e-07
0.00131544
-7.23646e-07
0.00131335
-8.04478e-07
0.00131146
-8.80116e-07
0.00130955
-9.52331e-07
0.00130761
-1.02205e-06
0.00130561
-1.0896e-06
0.00130353
-1.155e-06
0.00130137
-1.21822e-06
0.00129913
-1.27929e-06
0.0012968
-1.33838e-06
0.00129439
-1.39572e-06
0.00129189
-1.45158e-06
0.00128932
-1.50622e-06
0.00128666
-1.55985e-06
0.00128392
-1.61266e-06
0.0012811
-1.60088e-06
0.00127814
-1.65243e-06
0.00127522
-1.70335e-06
0.00127215
-1.81705e-06
0.00126907
-1.86661e-06
0.00126578
-1.91551e-06
0.00126248
-1.96373e-06
0.00125909
-2.01122e-06
0.00125564
-2.05794e-06
0.0012521
-2.10382e-06
0.00124849
-2.14882e-06
0.00124481
-2.19289e-06
0.00124106
-2.23596e-06
0.00123724
-2.27797e-06
0.00123336
-2.31888e-06
0.0012294
-2.35863e-06
0.00122539
-2.39715e-06
0.00122131
-2.43441e-06
0.00121717
-2.47034e-06
0.00121298
-2.5049e-06
0.00120873
-2.53804e-06
0.00120442
-2.56972e-06
0.00120007
-2.59987e-06
0.00119567
-2.62846e-06
0.00119122
-2.65544e-06
0.00118673
-2.68077e-06
0.00118219
-2.70441e-06
0.00117762
-2.7263e-06
0.00117302
-2.74642e-06
0.00116838
-2.76472e-06
0.00116371
-2.78116e-06
0.00115901
-2.79569e-06
0.0011543
-2.80828e-06
0.00114955
-2.81888e-06
0.0011448
-2.82745e-06
0.00114002
-2.83395e-06
0.00113523
-2.83834e-06
0.00113044
-2.84057e-06
0.00112564
-2.84062e-06
0.00112084
-2.83843e-06
0.00111604
-2.83398e-06
0.00111124
-2.82724e-06
0.00110645
-2.8182e-06
0.00110168
-2.80693e-06
0.00109692
-2.79304e-06
0.00109217
-2.7761e-06
0.00108745
-2.75706e-06
0.00108276
-2.73566e-06
0.0010781
-2.71191e-06
0.00107347
-2.68555e-06
0.00106888
-2.65662e-06
0.00106433
-2.62513e-06
0.00105983
-2.59106e-06
0.00105537
-2.5544e-06
0.00105098
-2.51514e-06
0.00104663
-2.47331e-06
0.00104235
-2.42893e-06
0.00103814
-2.382e-06
0.001034
-2.33256e-06
0.00102992
-2.28061e-06
0.00102593
-2.22619e-06
0.00102202
-2.1693e-06
0.00101819
-2.10995e-06
0.00101445
-2.0481e-06
0.0010108
-1.98368e-06
0.00100725
-1.91655e-06
0.0010038
-1.84651e-06
0.00100045
-1.77332e-06
0.000997199
-1.69671e-06
0.000994059
-1.61652e-06
0.000991031
-1.53268e-06
0.000988119
-1.4451e-06
0.000985325
-1.35327e-06
0.000982646
-1.25547e-06
0.000980071
-1.14778e-06
0.000977575
-5.36371e-07
0.000974636
-8.74857e-07
0.000972205
-7.00539e-07
0.000967883
-1.9686e-06
0.000961837
-3.26197e-06
0.000953414
-1.42693e-05
0.000938545
-2.14672e-05
0.000919086
-6.29852e-05
0.000891298
-0.000103576
0.000870831
-0.000239353
0.000871071
-0.000513236
0.000986092
-0.00014494
0.00025246
1.39193e-05
0.000416244
-6.62446e-07
0.000526419
-2.29406e-05
0.000462333
-1.11532e-05
0.000395295
-7.03039e-06
0.000141154
-3.8801e-06
0.000117568
9.42706e-05
6.29859e-06
8.79727e-05
1.37263e-05
0.000110138
0.000133151
2.17311e-05
-1.10374e-05
0.000127349
1.68297e-05
-5.49721e-06
0.000104609
8.24712e-05
2.38496e-06
8.00962e-05
3.62689e-06
0.00010334
0.000126404
4.59526e-06
-5.87474e-06
0.000123376
8.87332e-06
-3.0332e-06
0.000100535
7.7048e-05
1.61932e-06
7.54165e-05
2.05468e-06
0.000100129
0.000122778
2.63102e-06
-4.18454e-06
0.000120646
6.36142e-06
-2.33158e-06
9.82734e-05
7.30595e-05
4.98913e-07
7.25558e-05
4.06095e-07
9.83645e-05
0.000120478
5.84083e-07
-3.10818e-06
0.000119259
4.27796e-06
-1.73646e-06
9.69891e-05
7.08551e-05
-9.31454e-08
7.09609e-05
-1.95585e-07
9.7092e-05
0.000120001
-9.57361e-07
-2.90256e-06
0.00011874
4.19668e-06
-1.51554e-06
9.57044e-05
6.94231e-05
-2.43686e-07
6.96434e-05
-3.47855e-07
9.58066e-05
0.000119458
-1.02592e-06
-2.3656e-06
0.000118168
3.61799e-06
-1.44106e-06
9.48909e-05
6.82196e-05
-3.11658e-07
6.85118e-05
-4.23603e-07
9.50034e-05
0.000118866
-1.09073e-06
-2.27016e-06
0.000117572
3.52339e-06
-1.36116e-06
9.40998e-05
6.7171e-05
-3.32841e-07
6.75192e-05
-4.57623e-07
9.4225e-05
0.00011825
-1.16239e-06
-2.14047e-06
0.000116959
3.49469e-06
-1.25907e-06
9.33369e-05
6.62265e-05
-3.33018e-07
6.6616e-05
-4.70455e-07
9.34763e-05
0.000117611
-1.2154e-06
-2.05102e-06
0.000116329
3.45582e-06
-1.17848e-06
9.25972e-05
6.53651e-05
-3.79921e-07
6.57782e-05
-5.2983e-07
9.27472e-05
0.000116982
-1.2345e-06
-2.05536e-06
0.000115694
3.37302e-06
-1.18552e-06
9.18755e-05
6.45748e-05
-4.41645e-07
6.50005e-05
-5.99294e-07
9.20306e-05
0.000116363
-1.23541e-06
-2.08593e-06
0.000115033
3.31415e-06
-1.23701e-06
9.11853e-05
6.38213e-05
-4.83571e-07
6.42508e-05
-6.44107e-07
9.13408e-05
0.000115709
-1.22363e-06
-2.04834e-06
0.000114395
3.26998e-06
-1.19667e-06
9.04935e-05
6.31079e-05
-4.66652e-07
6.35579e-05
-6.21984e-07
9.06495e-05
0.000115065
-1.26702e-06
-1.95185e-06
0.000113767
3.28897e-06
-1.11272e-06
8.98106e-05
6.24214e-05
-4.1978e-07
6.28797e-05
-5.77692e-07
8.99707e-05
0.000114403
-1.27965e-06
-1.89794e-06
0.000113098
3.29792e-06
-1.07653e-06
8.91438e-05
6.17464e-05
-4.25942e-07
6.22167e-05
-5.79609e-07
8.93e-05
0.000113728
-1.28176e-06
-1.87797e-06
0.000112434
3.26611e-06
-1.05682e-06
8.84723e-05
6.11061e-05
-4.43292e-07
6.15813e-05
-5.96637e-07
8.86253e-05
0.000113072
-1.28128e-06
-1.91035e-06
0.000111771
3.22122e-06
-1.08803e-06
8.77981e-05
6.04911e-05
-4.41866e-07
6.09556e-05
-5.98454e-07
8.79539e-05
0.000112395
-1.25476e-06
-1.89247e-06
0.000111083
3.22057e-06
-1.07486e-06
8.71298e-05
5.98742e-05
-4.56005e-07
6.03384e-05
-6.06723e-07
8.72799e-05
0.000111697
-1.23555e-06
-1.86827e-06
0.000110389
3.21755e-06
-1.04502e-06
8.64568e-05
5.92679e-05
-4.57084e-07
5.97258e-05
-6.02244e-07
8.66023e-05
0.000110993
-1.20607e-06
-1.92056e-06
0.000109674
3.19003e-06
-1.0955e-06
8.57768e-05
5.86633e-05
-4.33872e-07
5.91064e-05
-5.72821e-07
8.59164e-05
0.000110268
-1.18249e-06
-1.87845e-06
0.000108952
3.22682e-06
-1.04988e-06
8.50859e-05
5.80349e-05
-4.32262e-07
5.84615e-05
-5.62305e-07
8.52175e-05
0.000109531
-1.13015e-06
-1.89843e-06
0.000108213
3.23337e-06
-1.06338e-06
8.43828e-05
5.73893e-05
-3.9044e-07
5.78037e-05
-5.13198e-07
8.45043e-05
0.000108772
-1.10954e-06
-1.90139e-06
0.000107445
3.24549e-06
-1.06282e-06
8.36621e-05
5.67293e-05
-3.90333e-07
5.71255e-05
-4.9975e-07
8.37745e-05
0.00010799
-1.05726e-06
-1.89342e-06
0.000106658
3.26919e-06
-1.05272e-06
8.2931e-05
5.60504e-05
-3.6302e-07
5.64428e-05
-4.58274e-07
8.30267e-05
0.000107193
-1.04076e-06
-1.89796e-06
0.000105856
3.27408e-06
-1.04956e-06
8.2173e-05
5.53702e-05
-3.72405e-07
5.57429e-05
-4.58344e-07
8.22615e-05
0.000106375
-9.76112e-07
-1.92657e-06
0.000105031
3.27115e-06
-1.07025e-06
8.1404e-05
5.46746e-05
-3.42631e-07
5.50396e-05
-4.20138e-07
8.14795e-05
0.000105528
-9.52526e-07
-1.9158e-06
0.00010418
3.28654e-06
-1.04988e-06
8.06133e-05
5.39734e-05
-3.55182e-07
5.43213e-05
-4.1981e-07
8.06797e-05
0.000104663
-8.90265e-07
-1.92491e-06
0.000103306
3.29509e-06
-1.05674e-06
7.98101e-05
5.32583e-05
-3.21342e-07
5.3598e-05
-3.76439e-07
7.9863e-05
0.00010377
-8.68459e-07
-1.93687e-06
0.000102408
3.2913e-06
-1.06474e-06
7.89869e-05
5.25409e-05
-3.13445e-07
5.28685e-05
-3.56463e-07
7.90312e-05
0.000102851
-8.20243e-07
-1.88262e-06
0.000101489
3.33061e-06
-1.00343e-06
7.815e-05
5.1812e-05
-3.1618e-07
5.21286e-05
-3.45502e-07
7.81809e-05
0.000101923
-7.81379e-07
-1.95242e-06
0.000100549
3.29073e-06
-1.07267e-06
7.72987e-05
5.10805e-05
-2.90446e-07
5.13902e-05
-3.12396e-07
7.73192e-05
0.000100962
-7.54383e-07
-1.89905e-06
9.95877e-05
3.32084e-06
-1.01127e-06
7.64339e-05
5.03448e-05
-3.09151e-07
5.06404e-05
-3.19877e-07
7.64453e-05
9.99942e-05
-7.03072e-07
-1.947e-06
9.86133e-05
3.28238e-06
-1.06444e-06
7.5561e-05
4.96063e-05
-2.75269e-07
4.99002e-05
-2.7981e-07
7.55645e-05
9.89995e-05
-6.93176e-07
-1.88067e-06
9.76251e-05
3.3073e-06
-9.91852e-07
7.46787e-05
4.88713e-05
-2.93076e-07
4.91536e-05
-2.91169e-07
7.46771e-05
9.80045e-05
-6.5282e-07
-1.916e-06
9.66299e-05
3.2583e-06
-1.03578e-06
7.37952e-05
4.81396e-05
-2.69409e-07
4.84207e-05
-2.67373e-07
7.37914e-05
9.69973e-05
-6.50747e-07
-1.8824e-06
9.56375e-05
3.24069e-06
-1.00056e-06
7.29096e-05
4.74208e-05
-2.74665e-07
4.76983e-05
-2.75383e-07
7.29116e-05
9.59898e-05
-6.30686e-07
-1.82314e-06
9.46443e-05
3.22771e-06
-9.46991e-07
7.20391e-05
4.67119e-05
-2.82887e-07
4.69894e-05
-2.86894e-07
7.20427e-05
9.49999e-05
-6.35878e-07
-1.84525e-06
9.36568e-05
3.144e-06
-9.93782e-07
7.11887e-05
4.60247e-05
-2.72362e-07
4.63157e-05
-2.8492e-07
7.11996e-05
9.40193e-05
-6.7497e-07
-1.74405e-06
9.27037e-05
3.10872e-06
-9.07323e-07
7.03652e-05
4.53727e-05
-3.15144e-07
4.56735e-05
-3.42892e-07
7.03933e-05
9.30855e-05
-7.00897e-07
-1.73294e-06
9.17965e-05
2.99015e-06
-9.28914e-07
6.95883e-05
4.47658e-05
-3.05033e-07
4.50913e-05
-3.60941e-07
6.96419e-05
9.21961e-05
-7.8967e-07
-1.63832e-06
9.09547e-05
2.88722e-06
-8.63952e-07
6.88673e-05
4.42216e-05
-3.65912e-07
4.45725e-05
-4.57302e-07
6.896e-05
9.13827e-05
-8.59772e-07
-1.54669e-06
9.01912e-05
2.75099e-06
-8.17173e-07
6.82307e-05
4.37484e-05
-3.7497e-07
4.41401e-05
-5.1627e-07
6.83699e-05
9.06638e-05
-1.01337e-06
-1.45182e-06
8.95331e-05
2.56194e-06
-7.80489e-07
6.76981e-05
4.33709e-05
-4.4979e-07
4.38143e-05
-6.49232e-07
6.78978e-05
9.0071e-05
-1.17528e-06
-1.29555e-06
8.90213e-05
2.35607e-06
-6.95305e-07
6.72993e-05
4.31114e-05
-5.11321e-07
4.36209e-05
-7.86318e-07
6.75751e-05
8.96391e-05
-1.40275e-06
-1.1475e-06
8.86816e-05
2.08599e-06
-6.35699e-07
6.70645e-05
4.29971e-05
-5.81175e-07
4.35867e-05
-9.43966e-07
6.74289e-05
8.9399e-05
-1.67441e-06
-9.22745e-07
8.8555e-05
1.81799e-06
-5.09275e-07
6.70161e-05
4.30458e-05
-6.79405e-07
4.37191e-05
-1.14583e-06
6.7485e-05
8.93818e-05
-1.97119e-06
-7.37957e-07
8.86577e-05
1.49462e-06
-4.31916e-07
6.71787e-05
4.32674e-05
-7.17701e-07
4.40482e-05
-1.30737e-06
6.77734e-05
8.96086e-05
-2.36645e-06
-4.87228e-07
8.90465e-05
1.10842e-06
-2.99807e-07
6.75866e-05
4.37088e-05
-8.77134e-07
4.46241e-05
-1.60611e-06
6.83218e-05
9.01724e-05
-2.80532e-06
-2.43393e-07
8.97493e-05
7.12443e-07
-2.05912e-07
6.82854e-05
4.43918e-05
-1.02915e-06
4.54395e-05
-1.90713e-06
6.91699e-05
9.10611e-05
-3.25886e-06
-2.0195e-08
9.07817e-05
3.13931e-07
-1.27509e-07
6.92773e-05
4.53034e-05
-1.12356e-06
4.64712e-05
-2.16677e-06
7.03131e-05
9.22637e-05
-3.71349e-06
1.87592e-07
9.21243e-05
-5.93378e-08
-4.5588e-08
7.05447e-05
4.64313e-05
-1.33925e-06
4.77133e-05
-2.50084e-06
7.17133e-05
9.3794e-05
-4.08666e-06
3.93209e-07
9.37902e-05
-3.70662e-07
4.48261e-08
7.20646e-05
4.77495e-05
-1.33426e-06
4.9143e-05
-2.63884e-06
7.33612e-05
9.56046e-05
-4.53678e-06
5.16538e-07
9.57174e-05
-6.68833e-07
7.85865e-08
7.38013e-05
4.9239e-05
-1.52279e-06
5.0711e-05
-2.9114e-06
7.52e-05
9.76805e-05
-4.80561e-06
6.62175e-07
9.78793e-05
-8.18475e-07
1.52034e-07
7.57128e-05
5.08386e-05
-1.49476e-06
5.23731e-05
-2.98347e-06
7.71929e-05
9.99395e-05
-5.09571e-06
6.67866e-07
0.000100198
-9.63638e-07
1.19413e-07
7.77442e-05
5.25097e-05
-1.57507e-06
5.40775e-05
-3.10749e-06
7.92795e-05
0.000102344
-5.24474e-06
7.00449e-07
0.000102633
-9.81917e-07
1.31737e-07
7.98487e-05
5.42044e-05
-1.6005e-06
5.5788e-05
-3.17353e-06
8.14126e-05
0.000104833
-5.33533e-06
6.68547e-07
0.000105128
-9.49721e-07
1.02879e-07
8.19782e-05
5.58835e-05
-1.5546e-06
5.74721e-05
-3.12584e-06
8.35481e-05
0.000107353
-5.40127e-06
5.82096e-07
0.000107621
-8.75126e-07
4.24858e-08
8.40899e-05
5.75248e-05
-1.61221e-06
5.9095e-05
-3.15563e-06
8.56445e-05
0.000109857
-5.3427e-06
5.17151e-07
0.000110083
-7.16462e-07
1.40998e-08
8.61494e-05
5.90949e-05
-1.51109e-06
6.06533e-05
-3.04312e-06
8.76754e-05
0.000112298
-5.32487e-06
3.74254e-07
0.000112466
-5.75827e-07
-7.82062e-08
8.81267e-05
6.05917e-05
-1.56795e-06
6.21151e-05
-3.04605e-06
8.96135e-05
0.000114663
-5.18573e-06
2.88137e-07
0.000114766
-3.61802e-07
-1.04326e-07
9.00084e-05
6.19939e-05
-1.45758e-06
6.34917e-05
-2.90375e-06
9.14524e-05
0.000116917
-5.11661e-06
1.36189e-07
0.000116948
-1.80771e-07
-1.95321e-07
9.17811e-05
6.33035e-05
-1.49177e-06
6.47569e-05
-2.88026e-06
9.31737e-05
0.000119067
-4.94708e-06
2.06628e-09
0.000119018
4.12245e-08
-2.62156e-07
9.34395e-05
6.44996e-05
-1.43159e-06
6.5901e-05
-2.77435e-06
9.47857e-05
0.00012109
-4.80044e-06
-1.32364e-07
0.000120974
2.6329e-07
-3.29579e-07
9.49854e-05
6.55626e-05
-1.33661e-06
6.69154e-05
-2.62657e-06
9.62785e-05
0.000122993
-4.6756e-06
-2.90082e-07
0.000122798
4.69439e-07
-4.21098e-07
9.64092e-05
6.65033e-05
-1.29864e-06
6.78038e-05
-2.534e-06
9.76449e-05
0.000124763
-4.5013e-06
-4.18004e-07
0.000124486
7.08447e-07
-4.77465e-07
9.77048e-05
6.73188e-05
-1.24765e-06
6.8564e-05
-2.42351e-06
9.8878e-05
0.00012639
-4.31814e-06
-5.73842e-07
0.000126025
9.36326e-07
-5.62623e-07
9.88631e-05
6.80083e-05
-1.18518e-06
6.91981e-05
-2.29855e-06
9.99692e-05
0.000127859
-4.12761e-06
-7.17287e-07
0.000127402
1.17839e-06
-6.30197e-07
9.98754e-05
6.85725e-05
-1.11594e-06
6.97068e-05
-2.15999e-06
0.000100911
0.000129159
-3.93287e-06
-8.76606e-07
0.000128605
1.41107e-06
-7.09997e-07
0.000100737
6.90159e-05
-1.08171e-06
7.00937e-05
-2.04579e-06
0.000101698
0.000130283
-3.71359e-06
-9.84175e-07
0.000129635
1.67646e-06
-7.30106e-07
0.000101443
6.93374e-05
-1.01522e-06
7.03611e-05
-1.90146e-06
0.000102331
0.000131228
-3.50859e-06
-1.1774e-06
0.00013048
1.87846e-06
-8.3938e-07
0.000101996
6.95471e-05
-9.70375e-07
7.05165e-05
-1.78094e-06
0.00010281
0.00013199
-3.2946e-06
-1.25629e-06
0.000131153
2.13424e-06
-8.3915e-07
0.0001024
6.96453e-05
-9.29878e-07
7.05655e-05
-1.67109e-06
0.000103145
0.000132582
-3.08826e-06
-1.4019e-06
0.000131656
2.32046e-06
-9.14293e-07
0.000102664
6.96489e-05
-8.75606e-07
7.05258e-05
-1.55267e-06
0.000103344
0.000133009
-2.91342e-06
-1.50651e-06
0.000132005
2.49665e-06
-9.58535e-07
0.000102802
6.95704e-05
-8.41576e-07
7.04116e-05
-1.46508e-06
0.000103427
0.000133291
-2.75386e-06
-1.56343e-06
0.000132223
2.65765e-06
-9.69123e-07
0.000102833
6.94249e-05
-8.10756e-07
7.02378e-05
-1.3931e-06
0.000103415
0.000133453
-2.62472e-06
-1.65915e-06
0.000132328
2.75232e-06
-1.0287e-06
0.00010278
6.92328e-05
-7.77243e-07
7.00269e-05
-1.32479e-06
0.000103325
0.000133513
-2.53372e-06
-1.65915e-06
0.000132349
2.86522e-06
-9.96741e-07
0.000102661
6.9005e-05
-7.82957e-07
6.97797e-05
-1.30968e-06
0.000103187
0.000133497
-2.44493e-06
-1.71422e-06
0.000132301
2.90876e-06
-1.02202e-06
0.000102496
6.87573e-05
-7.53589e-07
6.95243e-05
-1.26157e-06
0.000103005
0.000133424
-2.40631e-06
-1.75676e-06
0.000132201
2.93059e-06
-1.04788e-06
0.000102299
6.85045e-05
-7.83603e-07
6.92689e-05
-1.27367e-06
0.000102789
0.00013332
-2.36134e-06
-1.73938e-06
0.00013207
2.97658e-06
-1.02686e-06
0.000102079
6.82487e-05
-7.6013e-07
6.90098e-05
-1.2508e-06
0.000102569
0.000133154
-2.33685e-06
-1.68662e-06
0.000131912
3.01428e-06
-9.70594e-07
0.000101851
6.79905e-05
-7.2979e-07
6.87688e-05
-1.20226e-06
0.000102328
0.000132994
-2.36739e-06
-1.70704e-06
0.000131739
3.00068e-06
-9.9353e-07
0.000101614
6.7752e-05
-7.54808e-07
6.85184e-05
-1.24406e-06
0.000102099
0.000132813
-2.32727e-06
-1.74885e-06
0.000131542
2.96336e-06
-1.03248e-06
0.000101381
6.75192e-05
-7.96688e-07
6.82843e-05
-1.28588e-06
0.000101867
0.000132628
-2.32013e-06
-1.70404e-06
0.000131364
2.97195e-06
-9.85552e-07
0.000101151
6.72995e-05
-7.89425e-07
6.8072e-05
-1.28139e-06
0.000101641
0.000132437
-2.32644e-06
-1.67303e-06
0.000131171
2.97786e-06
-9.62233e-07
0.000100931
6.70841e-05
-7.4479e-07
6.78669e-05
-1.2361e-06
0.000101424
0.00013224
-2.36492e-06
-1.6981e-06
0.000130987
2.92622e-06
-9.92376e-07
0.000100713
6.68906e-05
-7.50829e-07
6.76793e-05
-1.24845e-06
0.000101214
0.000132051
-2.37142e-06
-1.60614e-06
0.000130814
2.97132e-06
-8.90279e-07
0.000100505
6.67071e-05
-7.96152e-07
6.74898e-05
-1.30614e-06
0.000101013
0.000131873
-2.34441e-06
-1.66651e-06
0.000130629
2.90434e-06
-9.64938e-07
0.00010031
6.65301e-05
-7.23917e-07
6.73266e-05
-1.23068e-06
0.000100813
0.0001317
-2.42044e-06
-1.64233e-06
0.000130448
2.90741e-06
-9.51998e-07
0.000100119
6.63669e-05
-8.23564e-07
6.71552e-05
-1.33567e-06
0.000100629
0.000131532
-2.35515e-06
-1.62077e-06
0.000130284
2.90027e-06
-9.23212e-07
9.99363e-05
6.62069e-05
-8.21353e-07
6.69954e-05
-1.33817e-06
0.000100449
0.000131376
-2.37559e-06
-1.70009e-06
0.000130125
2.82853e-06
-1.01071e-06
9.97604e-05
6.60602e-05
-7.63689e-07
6.68519e-05
-1.29118e-06
0.000100284
0.000131201
-2.40333e-06
-1.61042e-06
0.000129968
2.87159e-06
-9.14636e-07
9.95938e-05
6.5915e-05
-8.49207e-07
6.67067e-05
-1.3668e-06
0.000100112
0.000131063
-2.36975e-06
-1.59618e-06
0.000129819
2.87233e-06
-9.19882e-07
9.94357e-05
6.57706e-05
-7.6334e-07
6.65673e-05
-1.29111e-06
9.996e-05
0.000130899
-2.42504e-06
-1.65166e-06
0.000129671
2.81009e-06
-9.70707e-07
9.92785e-05
6.56387e-05
-7.74358e-07
6.6438e-05
-1.30478e-06
9.98072e-05
0.000130759
-2.42831e-06
-1.58355e-06
0.000129535
2.84344e-06
-9.0023e-07
9.91289e-05
6.55121e-05
-8.38912e-07
6.6308e-05
-1.36765e-06
9.9656e-05
0.000130629
-2.39284e-06
-1.57116e-06
0.000129397
2.84673e-06
-9.04013e-07
9.89872e-05
6.53806e-05
-7.66747e-07
6.61838e-05
-1.29502e-06
9.95153e-05
0.000130486
-2.44376e-06
-1.62036e-06
0.000129264
2.7983e-06
-9.48468e-07
9.8844e-05
6.52615e-05
-8.00099e-07
6.60585e-05
-1.33486e-06
9.93757e-05
0.000130363
-2.42555e-06
-1.59357e-06
0.000129133
2.8071e-06
-9.23783e-07
9.87076e-05
6.51409e-05
-8.32735e-07
6.59358e-05
-1.36722e-06
9.92403e-05
0.00013024
-2.41163e-06
-1.58705e-06
0.000129015
2.80289e-06
-9.22744e-07
9.85747e-05
6.50199e-05
-7.68843e-07
6.58228e-05
-1.304e-06
9.91092e-05
0.000130108
-2.45192e-06
-1.57033e-06
0.000128894
2.80024e-06
-9.07053e-07
9.84448e-05
6.49065e-05
-8.12679e-07
6.5705e-05
-1.34924e-06
9.89794e-05
0.00013
-2.42987e-06
-1.58697e-06
0.000128772
2.78843e-06
-9.28748e-07
9.83201e-05
6.47934e-05
-8.11584e-07
6.55906e-05
-1.34991e-06
9.88564e-05
0.000129879
-2.4308e-06
-1.57845e-06
0.00012866
2.78149e-06
-9.19426e-07
9.81976e-05
6.46816e-05
-7.94603e-07
6.54819e-05
-1.33494e-06
9.87365e-05
0.000129766
-2.44681e-06
-1.57048e-06
0.000128547
2.77388e-06
-9.18155e-07
9.80822e-05
6.4575e-05
-8.00441e-07
6.53799e-05
-1.34134e-06
9.86227e-05
0.000129656
-2.45769e-06
-1.51778e-06
0.000128457
2.77105e-06
-8.85885e-07
9.79908e-05
6.44621e-05
-7.59635e-07
6.52694e-05
-1.82675e-06
9.90556e-05
0.0001296
-3.0506e-06
-1.04669e-06
0.000128987
1.61622e-06
-5.03689e-07
9.85107e-05
6.47965e-05
-1.369e-06
6.60812e-05
-3.01877e-06
0.00010016
0.000131351
-5.24764e-06
1.22014e-06
0.000132573
-2.3095e-06
5.74473e-07
0.000100807
6.65722e-05
-3.45711e-06
7.02189e-05
-8.91293e-06
0.000106257
0.000139517
-1.61464e-05
7.21255e-06
0.000144196
-1.1666e-05
2.84529e-06
0.000110615
7.29282e-05
-1.34036e-06
7.4332e-05
-3.50624e-06
0.000112789
0.000146463
-5.8842e-06
5.91797e-06
0.000150981
-1.03948e-05
2.62601e-06
0.000116077
7.69361e-05
-4.24251e-07
-1.89944e-06
-3.48566e-06
-2.64856e-05
-0.000433434
-1.68605e-06
-0.000482005
-1.55083e-05
-0.000532503
7.12398e-06
-0.000556377
-3.65346e-07
-0.000576601
4.18679e-06
-0.000577667
1.83887e-06
-0.000576578
2.37891e-06
-0.000570734
8.0734e-06
-0.000560706
1.31981e-05
-0.00054872
3.65135e-05
-0.000530384
6.2505e-05
-0.00051902
0.000140163
-0.000516773
0.00030457
-0.000586306
8.1823e-05
-0.000155303
-1.27847e-05
-0.000250267
-7.80815e-06
-0.000326836
1.08246e-05
-0.000290202
2.69324e-06
-0.000244574
1.58234e-06
-8.54479e-05
5.841e-07
-5.68109e-05
-3.03299e-05
-2.07857e-06
-2.82452e-05
-5.16435e-06
-5.37212e-05
-8.14968e-05
-9.13451e-06
3.8563e-06
-7.80241e-05
-7.33231e-06
1.31993e-06
-5.11886e-05
-2.69174e-05
-5.30575e-07
-2.63779e-05
-7.60745e-07
-5.09707e-05
-7.68542e-05
-1.92719e-06
1.94766e-06
-7.55984e-05
-3.22533e-06
5.48468e-07
-4.95196e-05
-2.58602e-05
-4.07968e-07
-2.54217e-05
-6.00089e-07
-4.93755e-05
-7.54961e-05
-6.83425e-07
1.00965e-06
-7.39105e-05
-2.59254e-06
4.60689e-07
-4.88419e-05
-2.49549e-05
-6.1837e-08
-2.48978e-05
-4.71185e-07
-4.84156e-05
-7.38381e-05
-5.46582e-07
8.96603e-07
-7.32277e-05
-1.49741e-06
3.69681e-07
-4.79161e-05
-2.45135e-05
-2.238e-08
-2.44976e-05
4.13908e-07
-4.83515e-05
-7.2832e-05
1.72383e-08
4.1601e-07
-7.23203e-05
-9.28015e-07
1.3974e-08
-4.79465e-05
-2.44813e-05
4.53269e-08
-2.45175e-05
4.94106e-07
-4.83937e-05
-7.28543e-05
1.03104e-06
8.49971e-07
-7.27798e-05
-9.24671e-07
1.81739e-08
-4.75627e-05
-2.4501e-05
4.20776e-08
-2.45521e-05
4.71115e-07
-4.80012e-05
-7.33283e-05
1.01763e-06
4.03182e-07
-7.28067e-05
-9.2536e-07
1.13047e-08
-4.76081e-05
-2.45399e-05
5.1303e-08
-2.45776e-05
9.2238e-07
-4.84659e-05
-7.29172e-05
1.03667e-06
8.63431e-07
-7.2859e-05
-9.23863e-07
2.71988e-08
-4.76357e-05
-2.4556e-05
3.75467e-08
-2.46079e-05
4.6505e-07
-4.80782e-05
-7.34098e-05
1.01237e-06
3.87582e-07
-7.2888e-05
-9.05453e-07
2.16178e-09
-4.76801e-05
-2.45927e-05
5.18074e-08
-2.46308e-05
9.24985e-07
-4.85385e-05
-7.29971e-05
1.03699e-06
8.8554e-07
-7.29409e-05
-9.48085e-07
3.79202e-08
-4.77116e-05
-2.46126e-05
4.15028e-08
-2.46635e-05
4.7387e-07
-4.81523e-05
-7.34915e-05
1.02415e-06
3.75471e-07
-7.29686e-05
-8.90605e-07
-4.73174e-09
-4.7749e-05
-2.46435e-05
4.7705e-08
-2.46853e-05
9.16384e-07
-4.86124e-05
-7.30799e-05
1.0271e-06
8.92343e-07
-7.30239e-05
-9.55269e-07
4.09827e-08
-4.77852e-05
-2.46679e-05
4.50895e-08
-2.47165e-05
4.82318e-07
-4.82246e-05
-7.3574e-05
1.03409e-06
3.76551e-07
-7.3051e-05
-8.92413e-07
-4.01885e-09
-4.78216e-05
-2.46971e-05
4.76066e-08
-2.47394e-05
9.16666e-07
-4.8687e-05
-7.31629e-05
1.02788e-06
8.93384e-07
-7.31094e-05
-9.53505e-07
4.08781e-08
-4.78594e-05
-2.47236e-05
4.8571e-08
-2.47708e-05
4.90844e-07
-4.82987e-05
-7.36582e-05
1.04283e-06
3.79361e-07
-7.31387e-05
-8.93239e-07
-3.20137e-09
-4.78974e-05
-2.47535e-05
4.44367e-08
-2.47977e-05
9.10969e-07
-4.87655e-05
-7.32486e-05
1.01933e-06
8.80785e-07
-7.31953e-05
-9.3754e-07
3.40333e-08
-4.79349e-05
-2.47791e-05
4.99943e-08
-2.48273e-05
4.92533e-07
-4.83747e-05
-7.37453e-05
1.04493e-06
3.93668e-07
-7.32261e-05
-9.11388e-07
4.92986e-09
-4.79778e-05
-2.4814e-05
4.58967e-08
-2.48587e-05
9.14983e-07
-4.88479e-05
-7.33364e-05
1.02516e-06
8.63871e-07
-7.32824e-05
-9.18603e-07
2.46082e-08
-4.80127e-05
-2.48377e-05
4.68482e-08
-2.48866e-05
4.86545e-07
-4.84545e-05
-7.38348e-05
1.03921e-06
4.02932e-07
-7.33155e-05
-9.22221e-07
8.97788e-09
-4.80591e-05
-2.48763e-05
4.71953e-08
-2.49197e-05
9.20116e-07
-4.89288e-05
-7.34251e-05
1.03083e-06
8.6258e-07
-7.33717e-05
-9.16956e-07
2.33966e-08
-4.80933e-05
-2.48993e-05
4.78594e-08
-2.49487e-05
4.89539e-07
-4.85359e-05
-7.39248e-05
1.04269e-06
4.00197e-07
-7.34044e-05
-9.18772e-07
7.48212e-09
-4.81384e-05
-2.49367e-05
4.37895e-08
-2.49812e-05
9.13812e-07
-4.90092e-05
-7.35153e-05
1.0247e-06
8.68193e-07
-7.34622e-05
-9.22931e-07
2.62942e-08
-4.81747e-05
-2.49619e-05
5.48705e-08
-2.50096e-05
5.03047e-07
-4.86151e-05
-7.40153e-05
1.05913e-06
4.0031e-07
-7.34941e-05
-9.20262e-07
6.91057e-09
-4.82172e-05
-2.49981e-05
3.62893e-08
-2.50463e-05
9.01627e-07
-4.90944e-05
-7.36066e-05
1.01023e-06
8.56719e-07
-7.35512e-05
-9.12147e-07
1.91707e-08
-4.82564e-05
-2.50266e-05
5.85731e-08
-2.50711e-05
5.10675e-07
-4.86953e-05
-7.41045e-05
1.06717e-06
4.1178e-07
-7.35833e-05
-9.34243e-07
1.20866e-08
-4.83011e-05
-2.50649e-05
3.54832e-08
-2.51144e-05
9.00611e-07
-4.91815e-05
-7.3694e-05
1.00734e-06
8.44797e-07
-7.36388e-05
-8.95836e-07
1.25538e-08
-4.83371e-05
-2.50906e-05
5.67709e-08
-2.51365e-05
5.07031e-07
-4.87776e-05
-7.41918e-05
1.06199e-06
4.26278e-07
-7.36723e-05
-9.48728e-07
1.91353e-08
-4.83847e-05
-2.51321e-05
3.86224e-08
-2.51797e-05
9.08529e-07
-4.92629e-05
-7.37813e-05
1.01656e-06
8.39327e-07
-7.3725e-05
-8.91234e-07
8.67407e-09
-4.84154e-05
-2.5154e-05
5.25256e-08
-2.52018e-05
4.9884e-07
-4.88578e-05
-7.42789e-05
1.0529e-06
4.35135e-07
-7.37594e-05
-9.57986e-07
2.38145e-08
-4.84643e-05
-2.51978e-05
4.25616e-08
-2.52426e-05
9.17817e-07
-4.9341e-05
-7.38662e-05
1.02501e-06
8.38551e-07
-7.38102e-05
-8.89973e-07
7.36961e-09
-4.84916e-05
-2.52166e-05
4.89105e-08
-2.52653e-05
4.91993e-07
-4.89356e-05
-7.43626e-05
1.04365e-06
4.38478e-07
-7.38442e-05
-9.60335e-07
2.51091e-08
-4.85411e-05
-2.52611e-05
4.58283e-08
-2.53039e-05
9.25255e-07
-4.94168e-05
-7.39482e-05
1.03078e-06
8.41998e-07
-7.3893e-05
-8.93487e-07
8.41685e-09
-4.85667e-05
-2.52784e-05
4.67541e-08
-2.5328e-05
4.87741e-07
-4.9012e-05
-7.44447e-05
1.03761e-06
4.37083e-07
-7.39264e-05
-9.58425e-07
2.36623e-08
-4.86163e-05
-2.53229e-05
4.87955e-08
-2.53638e-05
9.31356e-07
-4.94899e-05
-7.4029e-05
1.03815e-06
8.53017e-07
-7.39743e-05
-9.05805e-07
1.37506e-08
-4.86406e-05
-2.53392e-05
4.26531e-08
-2.53899e-05
4.8064e-07
-4.90865e-05
-7.4528e-05
1.0305e-06
4.20822e-07
-7.40039e-05
-9.45975e-07
1.53371e-08
-4.86868e-05
-2.53805e-05
4.69654e-08
-2.54214e-05
9.27616e-07
-4.95618e-05
-7.41077e-05
1.03348e-06
8.65385e-07
-7.40529e-05
-9.19758e-07
1.94245e-08
-4.87129e-05
-2.53989e-05
4.21598e-08
-2.54465e-05
4.81212e-07
-4.9157e-05
-7.46058e-05
1.03258e-06
4.14814e-07
-7.40809e-05
-9.40383e-07
1.11914e-08
-4.87542e-05
-2.54357e-05
4.44792e-08
-2.54755e-05
9.2482e-07
-4.96294e-05
-7.41837e-05
1.02931e-06
8.77708e-07
-7.41296e-05
-9.33109e-07
2.5183e-08
-4.87804e-05
-2.54537e-05
4.24984e-08
-2.54987e-05
4.82892e-07
-4.92232e-05
-7.46817e-05
1.03426e-06
4.11834e-07
-7.41553e-05
-9.37051e-07
9.41322e-09
-4.88161e-05
-2.54843e-05
4.03636e-08
-2.55222e-05
9.17889e-07
-4.969e-05
-7.42583e-05
1.02124e-06
8.90572e-07
-7.42042e-05
-9.47024e-07
3.13414e-08
-4.88405e-05
-2.55e-05
4.46357e-08
-2.55425e-05
4.86921e-07
-4.92801e-05
-7.47548e-05
1.03873e-06
4.11874e-07
-7.4228e-05
-9.37061e-07
9.85515e-09
-4.88702e-05
-2.55243e-05
3.47692e-08
-2.55625e-05
9.07063e-07
-4.97459e-05
-7.4331e-05
1.00825e-06
8.94707e-07
-7.42761e-05
-9.51062e-07
3.37627e-08
-4.88933e-05
-2.5537e-05
4.43636e-08
-2.55753e-05
4.87555e-07
-4.933e-05
-7.48264e-05
1.0403e-06
4.2064e-07
-7.42989e-05
-9.47147e-07
1.44741e-08
-4.89182e-05
-2.55548e-05
2.75235e-08
-2.55905e-05
8.9595e-07
-4.97946e-05
-7.4402e-05
9.96326e-07
8.91654e-07
-7.43462e-05
-9.47857e-07
3.18326e-08
-4.8937e-05
-2.55608e-05
4.10547e-08
-2.55937e-05
4.83094e-07
-4.9371e-05
-7.4897e-05
1.03587e-06
4.35946e-07
-7.43694e-05
-9.63891e-07
2.25797e-08
-4.89591e-05
-2.55728e-05
2.37408e-08
-2.56047e-05
8.9081e-07
-4.98344e-05
-7.44724e-05
9.91409e-07
8.88173e-07
-7.4417e-05
-9.41728e-07
3.12751e-08
-4.89703e-05
-2.5567e-05
3.4146e-08
-2.55954e-05
4.71444e-07
-4.94022e-05
-7.49685e-05
1.02412e-06
4.59567e-07
-7.44434e-05
-9.87208e-07
3.65561e-08
-4.89903e-05
-2.55702e-05
2.1059e-08
-2.55933e-05
8.89221e-07
-4.98603e-05
-7.45465e-05
9.92329e-07
8.91785e-07
-7.44928e-05
-9.41955e-07
3.44765e-08
-4.89906e-05
-2.55458e-05
2.15145e-08
-2.55691e-05
4.51806e-07
-4.94226e-05
-7.50472e-05
1.00456e-06
4.74681e-07
-7.45239e-05
-1.00031e-06
4.67774e-08
-4.90071e-05
-2.55351e-05
1.43144e-08
-2.5548e-05
8.82391e-07
-4.98736e-05
-7.46286e-05
9.88142e-07
9.03389e-07
-7.45782e-05
-9.50233e-07
4.30532e-08
-4.90001e-05
-2.54908e-05
9.61936e-09
-2.55037e-05
4.35533e-07
-4.94292e-05
-7.51365e-05
9.91498e-07
4.92216e-07
-7.46183e-05
-1.0137e-06
6.0005e-08
-4.90109e-05
-2.54582e-05
6.06409e-09
-2.54572e-05
8.73251e-07
-4.98714e-05
-7.47268e-05
9.84607e-07
9.27146e-07
-7.46827e-05
-9.679e-07
5.71605e-08
-4.89963e-05
-2.53882e-05
-5.61665e-09
-2.53894e-05
4.149e-07
-4.94234e-05
-7.52494e-05
9.79092e-07
4.93921e-07
-7.4736e-05
-1.00813e-06
6.61185e-08
-4.89999e-05
-2.53282e-05
-1.11231e-08
-2.53118e-05
8.54698e-07
-4.98605e-05
-7.48563e-05
9.77182e-07
9.56048e-07
-7.48253e-05
-9.87592e-07
8.37363e-08
-4.89883e-05
-2.52291e-05
-2.01128e-08
-2.52114e-05
4.0406e-07
-4.94151e-05
-7.54049e-05
9.8322e-07
4.99347e-07
-7.49043e-05
-9.98295e-07
7.87511e-08
-4.89912e-05
-2.51286e-05
-3.50202e-08
-2.50929e-05
8.31455e-07
-4.98577e-05
-7.50422e-05
9.70065e-07
9.78459e-07
-7.5029e-05
-9.97953e-07
1.1774e-07
-4.8991e-05
-2.49913e-05
-3.60793e-08
-2.49513e-05
3.96145e-07
-4.94227e-05
-7.5627e-05
9.96449e-07
5.07427e-07
-7.51446e-05
-9.86929e-07
9.62615e-08
-4.90066e-05
-2.48463e-05
-5.73056e-08
-2.47933e-05
8.18989e-07
-4.9887e-05
-7.53046e-05
9.7709e-07
9.84166e-07
-7.53129e-05
-9.80833e-07
1.3363e-07
-4.90322e-05
-2.46719e-05
-4.97233e-08
-2.46149e-05
4.01722e-07
-4.94789e-05
-7.59353e-05
1.02714e-06
5.05836e-07
-7.54762e-05
-9.64271e-07
1.1284e-07
-4.90849e-05
-2.44995e-05
-6.24257e-08
-2.44432e-05
8.36677e-07
-4.99912e-05
-7.56615e-05
1.02053e-06
9.48271e-07
-7.5695e-05
-9.14667e-07
1.19614e-07
-4.91602e-05
-2.43233e-05
-3.29916e-08
-2.4285e-05
4.50209e-07
-4.96387e-05
-7.63474e-05
1.10389e-06
4.41345e-07
-7.5913e-05
-8.75888e-07
8.00711e-08
-4.92788e-05
-2.42052e-05
-5.38615e-09
-2.42072e-05
9.33738e-07
-5.02238e-05
-7.61276e-05
1.14644e-06
8.2802e-07
-7.61909e-05
-7.63674e-07
3.26133e-08
-4.94247e-05
-2.41705e-05
6.81736e-08
-2.42343e-05
5.99065e-07
-4.99512e-05
-7.68787e-05
1.28754e-06
2.69728e-07
-7.64765e-05
-6.72106e-07
-3.78428e-08
-4.96462e-05
-2.42745e-05
1.26252e-07
-2.44049e-05
1.13776e-06
-5.06638e-05
-7.67332e-05
1.39333e-06
6.20752e-07
-7.68418e-05
-5.09769e-07
-1.03173e-07
-4.99437e-05
-2.45056e-05
2.19539e-07
-2.47203e-05
8.43719e-07
-5.05632e-05
-7.75791e-05
1.58297e-06
-1.77303e-09
-7.72213e-05
-3.55992e-07
-1.9857e-07
-5.03585e-05
-2.49186e-05
3.24497e-07
-2.52238e-05
1.42274e-06
-5.15144e-05
-7.7525e-05
1.73755e-06