/*--------------------------------*- C++ -*----------------------------------*\
| =========                 |                                                 |
| \\      /  F ield         | OpenFOAM: The Open Source CFD Toolbox           |
|  \\    /   O peration     | Version:  v2006                                 |
|   \\  /    A nd           | Website:  www.openfoam.com                      |
|    \\/     M anipulation  |                                                 |
\*---------------------------------------------------------------------------*/
FoamFile
{
    version     2.0;
    format      ascii;
    class       volScalarField;
    location    "0.066";
    object      k;
}
// * * * * * * * * * * * * * * * * * * * * * * * * * * * * * * * * * * * * * //

dimensions      [0 2 -2 0 0 0 0];


internalField   nonuniform List<scalar> 
16277
(
78.7573
78.7574
78.7635
78.7653
78.7692
78.7631
78.7485
78.701
78.591
78.4168
78.1926
77.942
77.6812
77.4178
77.1521
76.8818
76.6042
76.3168
76.0183
75.7082
75.3863
75.0529
74.7083
74.3527
73.9863
73.6093
73.2221
72.8247
72.4176
72.001
71.5753
71.1408
70.6981
70.2475
69.7894
69.3245
68.8531
68.3757
67.893
67.4053
66.9133
66.4175
65.9184
65.4167
64.9128
64.4074
63.901
63.3942
62.8876
62.3818
61.8773
61.3747
60.8746
60.3777
59.8844
59.3953
58.9109
58.4319
57.9588
57.4921
57.0324
56.5802
56.136
55.7003
55.2736
54.8563
54.449
54.052
53.6657
53.2905
52.9268
52.5749
52.2354
51.9086
51.5949
51.2945
51.0066
50.7298
50.4616
50.1992
49.9427
49.6995
49.491
49.3473
49.2825
49.2736
49.2881
49.3069
49.3184
49.317
49.3067
49.2409
49.0901
48.8378
48.3204
47.467
43.1342
38.6796
45.3962
47.7153
46.0159
41.1644
34.5258
31.6352
38.9001
44.7174
42.2916
35.3634
28.9183
27.2049
33.9418
41.2592
39.0173
31.2934
25.4438
24.3785
30.4093
38.2126
36.3904
28.5343
23.1881
22.491
28.0226
35.8074
34.3534
26.7519
21.6582
21.1739
26.4171
33.9032
32.7067
25.47
20.5476
20.1905
25.2376
32.3573
31.3424
24.4886
19.6924
19.4166
24.32
31.0628
30.1787
23.6992
19.0025
18.7795
23.5721
29.949
29.1633
23.0383
18.4216
18.2337
22.9389
28.9703
28.2603
22.4656
17.9157
17.753
22.3844
28.0949
27.4444
21.9542
17.4639
17.3188
21.8855
27.3001
26.6979
21.4876
17.0511
16.9188
21.4282
26.5703
26.009
21.0559
16.6676
16.5448
21.0035
25.8947
25.3676
20.6521
16.3066
16.1911
20.6053
25.2642
24.7664
20.2713
15.9634
15.8535
20.2288
24.6724
24.2008
19.9096
15.6344
15.5289
19.8708
24.1153
23.668
19.5647
15.317
15.2149
19.5291
23.5903
23.1653
19.2349
15.0092
14.9098
19.2023
23.0947
22.6898
18.9189
14.7093
14.6123
18.8888
22.6254
22.2386
18.6149
14.4163
14.3211
18.5869
22.1795
21.809
18.3211
14.1288
14.035
18.2947
21.7543
21.398
18.036
13.8458
13.753
18.0107
21.3471
21.0036
17.7579
13.5662
13.474
17.7334
20.9558
20.6235
17.4854
13.2891
13.1973
17.4613
20.5783
20.2561
17.2172
13.0137
12.9218
17.1932
20.213
19.8996
16.952
12.739
12.6468
16.9279
19.8583
19.5527
16.689
12.4645
12.3716
16.6643
19.5126
19.2138
16.427
12.1893
12.0957
16.4017
19.1748
18.8819
16.1655
11.9131
11.8184
16.1393
18.8436
18.5561
15.9036
11.6353
11.5395
15.8765
18.5183
18.2355
15.641
11.3556
11.2587
15.6129
18.1981
17.9194
15.3772
11.0739
10.9758
15.3481
17.8822
17.6072
15.1121
10.79
10.6909
15.0822
17.5701
17.2984
14.8459
10.5043
10.4045
14.8151
17.2613
16.9927
14.5783
10.2171
10.1168
14.5466
16.9556
16.6897
14.3092
9.92898
9.82858
14.2769
16.6525
16.3893
14.0391
9.64078
9.54086
14.0064
16.352
16.0913
13.7687
9.35367
9.25496
13.7358
16.0541
15.796
13.4986
9.06918
8.9726
13.4661
15.7592
15.5041
13.2303
8.78927
8.69598
13.1988
15.468
15.2165
12.9656
8.51644
8.42785
12.9357
15.1814
14.934
12.7063
8.25363
8.17144
12.6789
14.9005
14.6581
12.4549
8.00437
7.93056
12.431
14.6267
14.3907
12.2143
7.77271
7.70975
12.195
14.3624
14.1343
11.9884
7.56321
7.51434
11.9739
14.11
13.8921
11.7807
7.38239
7.34891
11.7675
13.8722
13.6651
11.5844
7.2378
7.21923
11.5739
13.6503
13.4553
11.4043
7.13155
7.12891
11.3978
13.4461
13.2644
11.2446
7.07146
7.08141
11.2425
13.2611
13.095
11.1086
7.05441
7.07902
11.1104
13.0967
12.9462
10.9929
7.07163
7.12263
10.9983
12.9528
12.8183
10.8936
7.13067
7.20909
10.9027
12.8303
12.7131
10.8127
7.23306
7.33506
10.8254
12.7295
12.6278
10.7514
7.37104
7.48984
10.7686
12.6485
12.5615
10.7108
7.53488
7.66583
10.7334
12.5865
12.5147
10.6931
7.71786
7.85827
10.7224
12.5443
12.4877
10.6979
7.91524
8.06188
10.7372
12.5221
12.4801
10.7197
8.12117
8.26997
10.7743
12.5224
12.4897
10.7631
8.32966
8.47727
10.8312
12.5399
12.5117
10.8252
8.53549
8.67865
10.9052
12.5731
12.5488
10.9038
8.73371
8.86947
10.9932
12.6195
12.5983
10.9952
8.92009
9.04613
11.0922
12.676
12.6566
11.0946
9.09146
9.20564
11.1931
12.7377
12.7191
11.1954
9.24451
9.34511
11.2942
12.8007
12.7819
11.2959
9.37693
9.46329
11.3937
12.8615
12.8417
11.394
9.48794
9.56011
11.4884
12.9168
12.8955
11.4873
9.5778
9.63655
11.5769
12.9643
12.9409
11.5738
9.64786
9.69452
11.6573
13.002
12.9759
11.6521
9.70019
9.73633
11.7283
13.028
12.9992
11.7205
9.73717
9.76319
11.7886
13.0422
13.009
11.7781
9.76083
9.77893
11.8378
13.0454
13.0075
11.8247
9.77403
9.78574
11.876
13.038
12.9956
11.8605
9.77872
9.78639
11.9043
13.0219
12.9735
11.8855
9.77638
9.78156
11.9231
12.9965
12.9417
11.8996
9.76661
9.77067
11.9329
12.9619
12.9016
11.9054
9.75264
9.75567
11.9346
12.919
12.8539
11.9036
9.73514
9.73763
11.9293
12.8689
12.7994
11.8946
9.71492
9.71693
11.917
12.812
12.7388
11.8795
9.6927
9.69417
11.8986
12.7491
12.6722
11.8588
9.66876
9.66978
11.8748
12.6806
12.6007
11.833
9.64357
9.64456
11.8474
12.6073
12.5254
11.8027
9.61697
9.61772
11.8157
12.5303
12.4464
11.7683
9.58945
9.59048
11.7806
12.4503
12.3642
11.7314
9.56179
9.56229
11.7401
12.3684
12.2791
11.6861
9.53151
9.54353
11.6986
12.2866
12.2069
11.686
9.5302
9.55392
11.6583
12.1976
12.1781
11.6972
9.5961
9.70378
11.4835
12.1272
12.7987
12.1987
10.2406
10.2299
10.8447
11.5258
13.7777
16.2926
18.9371
21.1668
22.7082
24.7504
26.045
27.1509
27.8993
28.423
28.6703
28.6656
28.3951
27.7919
26.9155
25.3844
24.2936
22.1073
20.1226
18.0157
15.8503
14.2324
12.6067
12.5179
8.16789
7.93089
12.4796
12.5543
12.534
12.4823
7.7193
7.57019
12.4908
12.5292
12.5707
12.5243
7.47755
7.48249
12.552
12.5941
12.6343
12.5609
7.41379
7.41702
12.5844
12.6702
12.6894
12.6035
7.4266
7.43666
12.6166
12.7243
12.7424
12.6342
7.44861
7.46227
12.6511
12.772
12.7899
12.6642
7.47558
7.48716
12.6848
12.8242
12.8403
12.6965
7.49979
7.51382
12.7165
12.8766
12.8931
12.7303
7.526
7.53982
12.7487
12.9284
12.9466
12.7621
7.55337
7.56854
12.7866
12.9854
13.0037
12.8072
7.58444
7.59933
12.8253
13.0441
13.0637
12.8513
7.61632
7.63291
12.8722
13.1054
13.1249
12.8957
7.64962
7.66658
12.9157
13.1674
13.1869
12.9383
7.68332
7.70083
12.9617
13.2314
13.2524
12.9855
7.71849
7.7356
13.0065
13.2958
13.3174
13.0316
7.754
7.76992
13.0505
13.3598
13.3784
13.0693
7.78598
7.80187
13.0845
13.4227
13.4451
13.107
7.81804
7.83555
13.1333
13.4912
13.5154
13.158
7.85462
7.87235
13.1874
13.5657
13.5908
13.2157
7.89236
7.91341
13.2472
13.6446
13.6685
13.2743
7.93237
7.95412
13.3067
13.719
13.7441
13.3266
7.97315
7.99304
13.3586
13.7952
13.8197
13.3819
8.01178
8.02961
13.4093
13.8713
13.8954
13.4304
8.04677
8.06549
13.4587
13.9488
13.9742
13.4845
8.08273
8.10367
13.5255
14.0293
14.0573
13.5509
8.12356
8.14419
13.5913
14.1155
14.1429
13.6261
8.16546
8.18711
13.666
14.2001
14.2265
13.6944
8.20666
8.22954
13.7368
14.283
14.3099
13.7656
8.2489
8.27
13.8093
14.3636
14.389
13.8352
8.28808
8.30646
13.8729
14.4403
14.463
13.8992
8.32119
8.33838
13.9373
14.5118
14.5344
13.9623
8.35293
8.37106
14.0046
14.5817
14.6031
14.0358
8.38757
8.40467
14.072
14.6444
14.6622
14.1047
8.42032
8.4351
14.1342
14.6964
14.7101
14.1613
8.44777
8.45936
14.1805
14.7329
14.7407
14.2025
8.4715
8.48226
14.2152
14.7498
14.75
14.2243
8.49319
8.50348
14.2281
14.7506
14.7356
14.2223
8.51307
8.52257
14.2089
14.7312
14.702
14.1923
8.53311
8.54379
14.1639
14.6884
14.641
14.1165
8.55488
8.5664
14.0603
14.6165
14.5459
13.9821
8.5791
8.60021
13.9025
14.5098
14.4297
13.8136
8.62937
8.6664
13.7145
14.3907
14.2929
13.5812
8.70725
8.7567
13.4361
14.2386
14.1275
13.2594
8.81469
8.89756
13.1173
14.0767
13.9814
12.942
9
9.13039
12.7843
13.9335
13.8297
12.5713
9.27991
9.46766
12.3737
13.7842
13.7237
12.1354
9.69
9.94422
11.9619
13.7033
13.6801
11.8432
10.1662
10.3796
11.6315
13.6759
13.6628
11.4215
10.6005
10.7571
11.2861
13.7656
13.7637
11.2402
10.9211
11.0736
11.0095
13.9241
13.9679
10.9421
11.2374
11.3896
10.9051
14.2191
14.3303
10.9133
11.4987
11.6105
11.0708
14.7215
14.8958
11.153
11.7615
11.934
11.5268
15.4177
15.7404
11.9629
12.0631
12.2549
12.8958
16.6388
16.9673
13.4656
12.4955
11.0634
9.55076
10.4729
14.4244
11.4889
11.1216
11.0145
10.8012
14.2182
14.4281
10.6179
11.2905
11.5178
10.3271
14.2208
14.6553
10.3774
11.7863
11.9966
10.2908
14.6515
15.3875
10.6262
12.1842
12.3616
10.7262
15.4433
16.5256
11.4888
12.5793
12.7735
11.8695
16.9101
18.6037
13.2287
13.1162
13.4939
14.0299
19.2709
10.8588
9.26421
12.8375
12.5686
11.5751
16.6506
16.9117
11.4832
12.4429
12.5918
12.3679
18.7599
19.2742
12.632
12.6996
12.9195
13.6354
20.7944
21.5356
14.2345
13.254
13.8863
15.9064
23.3408
23.7138
17.0563
14.4923
12.903
10.839
13.0034
20.5765
13.1223
13.0589
13.0288
13.118
21.0525
23.0768
14.4439
13.4018
13.6937
14.8804
23.4524
26.3292
17.3291
14.4263
15.4413
19.109
27.2526
14.9897
11.1725
13.8797
13.7599
15.2266
25.2421
26.4927
16.0719
13.8227
14.5934
19.2625
30.5861
32.1786
21.1361
15.3693
17.0353
24.2778
33.9243
19.1878
13.2252
14.3015
14.6125
19.2628
32.1921
33.1949
20.1751
14.9322
16.6551
25.9796
39.0653
40.8986
29.0607
18.2563
14.9503
15.7192
25.1052
41.9107
25.802
16.2114
17.0885
28.1074
44.7607
53.3685
37.4784
20.2203
21.6992
40.4281
55.0486
39.0937
23.6385
16.5412
21.3265
43.1699
60.505
63.3247
47.3075
23.5089
17.2718
28.976
48.8038
74.4424
56.0235
25.5067
29.1657
62.7633
79.3526
70.9125
44.0839
19.5032
37.6916
81.3871
94.1095
87.6756
63.0821
20.0582
38.0474
89.8591
105.759
107.536
89.6331
37.5719
39.4158
87.8835
105.523
101.705
86.3235
42.8125
56.0206
95.798
102.221
77.8105
53.7673
38.8711
45.1897
71.1128
82.5207
58.2455
41.9104
31.824
33.4747
51.8277
65.2564
59.3274
43.3712
29.4137
25.4209
24.1832
36.2364
48.0613
37.3334
26.9878
22.5561
24.9086
32.936
43.2965
32.1049
23.8561
21.6007
27.6337
39.622
23.6917
18.0536
20.1072
21.1819
24.9106
35.0848
32.0941
21.9727
19.3758
18.8831
15.43
19.1807
29.5393
20.7362
19.3697
18.2609
18.8143
26.7004
16.263
14.0457
18.0791
18.0462
18.0446
25.3887
23.0093
16.5951
17.2649
17.5647
12.9796
14.5376
22.2574
16.0413
16.9783
16.5623
14.742
19.9489
12.7491
11.8918
17.1452
16.1191
14.4914
19.5505
17.618
13.3761
15.8423
16.674
11.0951
11.6476
17.5788
13.2059
15.3547
15.257
12.2131
15.9174
10.7322
10.3846
16.1393
14.7118
12.4765
16.3974
14.0546
11.3465
14.6359
15.0405
10.3294
12.188
8.93968
8.78999
16.859
14.0145
9.8013
12.4601
11.4818
9.40214
14.2736
15.2607
8.85571
8.51453
11.2269
9.21698
13.2557
14.0509
8.95173
10.4359
7.86679
8.06842
15.9137
13.1281
8.39541
10.1821
9.50789
8.2804
13.5329
14.7599
8.08004
7.39878
9.31428
8.01439
12.527
13.4746
8.01387
8.85041
7.21183
8.06941
14.9744
12.4398
7.56073
8.67919
8.20383
7.53031
13.2897
15.4315
7.31208
6.62318
8.21979
7.25217
12.4626
13.0734
7.2357
7.68039
6.38566
7.04368
15.0401
12.2602
6.87394
7.54992
7.18323
6.96292
13.1751
15.577
6.78732
6.13437
7.01957
6.89834
12.7213
14.1425
6.9891
5.99871
7.73148
6.71888
11.5495
12.4394
6.71816
7.22489
6.25776
7.43057
14.46
11.9862
6.77597
7.34472
7.01807
6.71515
12.9009
14.7383
7.44279
6.15015
7.28373
6.74827
12.045
12.9776
6.57912
6.87462
6.13342
7.74467
14.9816
12.3039
6.54861
6.72241
6.41026
6.32415
13.2927
15.217
7.84172
5.88773
6.36112
6.33212
12.3001
13.5145
6.30359
5.93638
5.71995
7.43894
16.2887
12.9646
5.83594
5.99356
5.49397
7.16541
14.7016
11.8619
5.94516
6.09612
5.67603
5.7945
12.8936
15.0493
7.74379
5.51176
5.84553
5.93464
12.3864
13.5644
5.78044
5.32148
5.40028
7.86186
16.2286
12.8326
5.26894
5.41
5.10358
7.11159
14.8522
11.8707
5.57821
5.53479
5.14098
5.52042
13.0123
15.3121
7.8212
5.20814
5.51615
5.70811
12.4903
13.8369
5.64801
5.05665
5.27559
8.03828
16.7281
13.1346
5.08045
5.11342
4.95023
7.18887
15.2934
12.1594
5.41165
5.29934
4.86033
5.39667
13.4492
15.9217
8.01778
5.03074
5.1538
5.481
12.8532
14.2868
5.47672
4.73545
5.12586
9.01299
16.4189
13.359
5.06736
4.72278
4.68055
7.08804
15.9754
12.5863
5.0826
4.88697
4.52629
5.23152
14.041
16.9349
8.29395
4.9655
4.59911
4.75166
13.3253
16.0478
7.28894
4.65923
4.85145
5.08113
12.6779
14.1756
5.14809
4.46838
4.96508
8.88385
16.6695
13.43
4.98877
4.58975
4.65216
7.29205
16.2199
12.7311
5.04813
4.81083
4.46204
5.23064
14.3201
16.9269
9.14368
5.00186
4.60316
4.9833
13.7015
16.8026
7.4601
4.69087
4.81906
5.07461
13.169
14.7816
5.28781
4.46971
5.07277
8.83559
17.9028
14.0676
4.84322
4.58935
4.73
7.66829
16.9316
13.4115
5.09506
4.80305
4.44835
5.27831
15.172
17.8109
9.70988
5.11062
4.64774
5.0237
14.6715
17.9514
8.42561
4.9863
4.59435
4.63526
14.0068
16.686
7.60636
4.75502
4.857
5.11671
13.2699
14.9852
5.38979
4.52116
5.18965
9.45123
18.1921
14.4716
5.06692
4.67297
4.86688
8.03003
17.8097
14.0421
5.21221
4.89097
4.5474
5.51118
15.9202
18.695
10.2009
5.29441
4.74726
5.21631
15.5425
18.8654
8.77896
5.14684
4.65975
4.75468
14.8678
17.6746
7.93859
4.86399
4.90847
5.24034
13.9622
15.8116
5.47854
4.56697
5.3795
9.75715
19.7041
15.4931
5.07026
4.75087
5.21673
8.72793
18.9581
14.9962
4.84285
4.78366
5.04549
8.35333
18.0787
14.3976
5.37429
5.04357
4.72234
5.75648
16.3133
19.3821
10.4692
5.53534
4.91886
5.42094
15.8003
19.7782
9.20516
5.40986
4.87079
4.95739
15.5346
18.643
8.50587
5.14504
5.1225
5.48278
14.7216
16.679
5.83218
4.79924
5.70315
10.5036
20.6632
16.3253
5.41891
5.01142
5.54499
9.32953
20.0454
15.9443
5.16108
5.01949
5.34998
8.92207
19.1381
15.193
5.6557
5.25193
4.92494
6.03809
17.3423
21.9725
10.6887
5.9123
5.11865
5.47986
17.3146
21.2542
9.64434
5.73008
5.13146
5.20752
16.6939
20.1617
9.31435
5.52665
5.32564
5.77475
15.826
17.958
6.13347
4.97394
6.02055
11.0273
22.5883
17.6231
5.61915
5.196
5.8485
9.98437
21.5838
16.856
5.33065
5.21306
5.80531
9.62268
20.7031
16.5251
5.36998
5.19615
5.64259
9.51186
20.0529
15.8792
5.85772
5.42186
5.13776
6.38055
18.1232
21.8586
12.0573
6.21361
5.48302
6.17562
18.2525
22.9009
10.6672
6.17085
5.36046
5.60082
18.0554
21.7408
9.96929
5.954
5.32534
5.4684
17.1257
20.7588
9.8927
5.8314
5.58
6.12449
16.5235
18.867
6.53771
5.26234
6.48119
11.9719
23.9947
18.8888
6.02489
5.54854
6.27704
10.6968
23.4266
18.3527
5.68601
5.55363
6.23035
10.3503
22.385
17.7812
5.75387
5.53526
6.08004
10.373
21.4917
17.1258
6.33894
5.7486
5.45179
6.81213
19.4886
24.8218
12.4642
6.78572
5.73997
6.30487
19.6026
24.3884
11.1217
6.5455
5.73662
5.86356
19.1975
23.6725
10.9203
6.50337
5.72992
6.01455
18.7523
22.7337
10.8473
6.32342
5.89201
6.52568
17.9301
20.48
7.11086
5.60758
6.99463
13.5064
24.5605
20.4067
6.82908
5.98685
6.91727
11.9521
25.6076
20.0388
6.14471
5.91551
6.70216
11.2604
24.3937
19.3864
6.07626
5.86384
6.64843
11.0726
23.8689
19.0626
6.21948
5.89334
6.57078
11.1858
23.1609
18.585
6.90785
6.11388
5.85391
7.47856
21.3041
27.694
13.67
7.47922
6.13613
6.81138
21.5426
26.781
12.1639
7.17454
6.11552
6.31599
20.9066
25.637
11.8515
7.05134
6.12304
6.42956
20.3247
24.9727
11.7122
6.96954
6.13044
6.52874
20.005
24.2883
11.6998
6.81838
6.33907
7.12419
19.2985
22.0301
7.66116
6.05176
7.76567
14.3328
27.9662
21.8959
7.12707
6.43189
7.5454
12.7579
27.4102
21.4565
6.68896
6.44324
7.42918
12.3321
26.5466
21.0799
6.77025
6.4474
7.37944
12.312
25.8452
20.706
6.94134
6.4842
7.23202
12.1929
25.1663
20.173
7.51521
6.66703
6.41024
8.18458
23.0866
29.8393
15.0424
8.26335
6.68777
7.47355
23.4831
29.1625
13.2773
7.88894
6.67555
6.94164
23.0296
28.3922
12.9621
7.83608
6.68471
7.01666
22.5214
27.5927
12.9001
7.73128
6.69673
7.14428
21.9334
26.4652
12.8854
7.56279
6.91231
7.82279
20.9907
24.0804
8.5143
6.64357
8.61881
15.8429
30.784
24.3
7.86179
6.97944
8.29989
13.9492
30.3481
23.7713
7.24961
6.97343
8.1674
13.4285
29.2409
23.2551
7.34023
6.9792
8.1322
13.4301
28.5526
22.8582
7.52971
7.01332
7.97744
13.4926
27.7508
22.1453
8.23253
7.204
6.97283
9.05127
25.593
33.4853
16.7158
9.19388
7.23874
8.16148
25.9797
32.2559
14.7521
8.74866
7.19033
7.57532
25.1401
30.9943
14.2284
8.60476
7.20109
7.67092
24.7005
30.3887
14.1754
8.52553
7.25794
7.77126
24.2404
29.6553
14.1205
8.51829
7.31899
7.94449
23.7375
28.8505
14.1353
8.32724
7.52519
8.58116
22.8358
26.4147
9.39317
7.2833
9.50668
17.7545
32.917
26.3606
8.97111
7.73752
9.32813
15.7254
33.2735
26.1146
8.17141
7.66968
9.08167
14.9674
31.9256
25.2512
8.16269
7.67675
9.01989
14.8277
30.8552
24.7109
8.4272
7.75457
8.8917
14.7501
30.0125
23.9806
9.0602
7.92289
7.69609
9.96462
27.8596
35.5528
18.6131
10.2144
8.12771
9.34636
28.0542
35.0373
16.4445
9.86239
7.99453
8.56589
27.6368
33.941
15.7575
9.60372
7.95658
8.54359
26.9333
32.8785
15.6464
9.50675
7.98355
8.73518
26.288
32.0889
15.6133
9.29524
8.14851
9.41914
25.3405
29.4425
10.3427
7.90491
10.5793
19.862
36.5327
29.1355
10.0167
8.43437
10.3453
17.4862
36.6761
28.7909
9.06144
8.31828
10.0264
16.5688
35.0567
27.7742
8.9522
8.26061
9.87038
16.2387
34.0654
27.1721
9.09762
8.31581
9.72515
16.2838
33.3632
26.509
9.86653
8.49687
8.28368
10.9603
30.9629
39.2869
20.8155
11.2535
8.85101
10.4107
31.0665
38.9715
18.3736
10.9401
8.71649
9.50921
30.4459
37.3896
17.6014
10.6443
8.67537
9.52126
29.5301
36.4077
17.4124
10.5389
8.70295
9.66306
28.9374
35.699
17.3871
10.301
8.86786
10.3676
28.2628
32.9581
11.4544
8.63252
11.7867
21.9364
41.2496
32.6389
10.9957
9.26372
11.4628
19.2977
40.4971
31.6063
10.0358
9.15214
11.1697
18.3739
39.0029
30.7192
10.0346
9.13786
10.982
18.4499
38.2321
30.4248
11.0184
9.25841
9.05123
12.261
35.6491
45.4245
23.5785
12.7978
9.72664
11.562
35.4463
43.6485
20.4081
12.1506
9.48666
10.4197
33.9369
41.8291
19.5064
11.774
9.41457
10.4629
32.6139
40.4051
19.5157
11.4791
9.49986
11.4115
31.8377
37.3026
12.6518
9.27232
13.0855
24.9637
45.5999
36.282
12.3046
10.016
12.7185
21.6612
45.8387
35.4493
10.9671
9.90064
12.3842
20.7622
44.2302
34.7244
11.0753
9.84271
12.1175
20.6397
42.9562
33.8467
12.0079
9.90053
9.73353
13.5283
39.8347
50.8023
26.2489
14.1968
10.5028
12.6965
39.1998
48.6987
22.6738
13.3752
10.2465
11.3567
37.4204
46.363
21.5483
12.9073
10.1781
11.4721
36.2426
45.3399
21.6831
12.6108
10.2701
12.5312
35.8372
42.1685
13.9014
10.0661
14.648
27.3625
52.9308
40.9301
13.2655
10.9836
14.1103
24.1684
51.3803
39.6053
12.1918
10.8371
13.6754
22.8879
49.1799
38.5481
12.1613
10.8227
13.5027
23.0748
48.1621
38.1605
13.4398
10.9194
10.7662
15.1011
44.9329
56.1291
29.6566
15.8746
11.7301
14.4786
43.4064
54.2425
25.7058
15.1006
11.4564
13.0815
41.8407
52.1353
24.5737
14.3737
11.3392
13.919
40.8429
47.8423
15.2747
11.1533
16.7051
31.5732
61.0205
46.3219
15.0345
12.2398
15.8645
27.1816
57.7227
44.516
13.6273
11.9762
15.2796
25.7838
55.3744
43.2258
13.538
11.9419
15.0276
25.8839
54.0909
42.6059
14.8789
12.0088
11.8965
16.7574
50.0723
62.0553
33.571
17.7332
13.0316
16.4782
48.2574
60.8191
29.1497
17.0506
12.8813
14.8455
47.2486
59.1219
28.048
16.3051
12.7588
15.7902
45.9066
54.0866
17.6262
12.5876
18.9079
35.8523
67.78
52.4682
17.3351
13.7819
18.1245
31.2532
65.7018
50.7582
15.841
13.5928
17.3037
29.8781
63.088
49.3318
16.7486
13.4654
13.368
18.8711
57.709
71.301
38.3699
20.1759
14.5823
18.719
54.8609
68.7792
33.4527
19.0837
14.2293
17.7634
53.0805
62.1321
19.6916
14.0486
21.2804
40.2494
77.0568
58.4311
19.1133
15.269
20.4843
35.4507
74.119
57.0366
17.7615
14.9525
19.4126
33.73
71.0267
55.4955
18.6369
14.7047
14.6124
21.1173
64.9799
80.5765
42.6935
22.5206
15.9716
20.5635
62.1079
77.543
37.0281
21.0887
15.3241
19.3114
59.6324
69.5297
21.35
15.1496
23.4235
44.7607
85.8809
65.5213
21.1345
16.497
22.0416
38.8916
82.1909
62.755
20.4706
15.9326
15.796
23.022
73.9413
92.2423
48.4489
25.081
17.3501
22.4304
69.8201
86.9764
41.5822
23.397
16.495
21.2026
66.2585
77.2203
23.5911
16.3451
25.8993
49.6976
95.7632
72.6787
23.1233
17.8921
24.208
42.8454
90.6128
69.3827
22.0702
17.1016
16.9747
24.5757
81.2143
100.755
52.3154
27.0036
18.5537
23.4443
74.3514
95.3829
45.4112
25.443
17.6665
23.1768
72.7896
84.9243
25.5254
17.5209
28.0477
54.7364
104.691
79.7031
25.2189
19.1814
26.2128
46.9091
99.3072
76.0089
23.9327
18.4199
18.3277
26.7603
88.455
109.725
57.2205
29.4529
20.1063
26.4068
83.0049
103.728
49.0447
27.3387
19.0745
24.8849
78.3224
90.567
26.4864
18.8232
29.8386
59.6879
114.406
86.6397
28.1147
20.2785
20.0348
30.2245
100.351
123.266
64.3746
32.7966
22.0201
29.1142
93.3855
115.399
54.282
30.263
20.6959
27.0123
87.6108
101.234
30.1159
20.6201
32.8594
65.325
124.597
94.6316
31.1323
22.0724
21.6374
31.6597
108.591
135.654
69.862
34.8643
22.8386
32.4852
101.895
117.549
34.0224
22.4266
37.509
74.3498
144.323
107.411
32.7429
24.5823
34.2121
61.9098
131.782
98.9184
30.2351
22.9417
22.8575
33.4846
113.632
139.106
73.1369
36.5432
24.2736
34.4636
104.814
119.73
34.6186
23.8026
38.2871
76.5725
150.076
112.377
35.5434
25.0531
24.6659
37.5375
129.075
158.939
81.8393
40.4462
26.1392
37.4432
117.846
133.926
38.8529
25.7223
41.7933
83.624
162.987
121.454
38.2738
26.863
26.5059
39.848
138.609
170.403
85.9997
42.9596
27.3948
38.9615
126.238
142.425
46.1009
27.8501
28.0868
50.2972
165.202
200.882
101.475
49.4802
29.7357
43.9511
145.506
163.725
44.3946
29
47.7079
97.9073
196.057
143.043
42.4571
29.1942
29.0319
46.7015
158.471
182.675
51.8261
29.1853
52.7842
112.622
223.899
160.726
46.4507
30.85
31.1614
53.1214
177.218
201.242
57.7148
31.4628
56.5197
117.108
240.826
167.519
48.3502
32.3463
32.0411
53.3292
188.871
215.775
58.3549
31.8528
57.5096
123.955
260.339
182.724
50.2646
32.4388
31.2049
48.6752
200.307
220.382
69.1115
33.342
32.4199
56.1102
245.054
284.517
147.589
63.3376
34.4665
55.389
200.74
221.263
56.6029
33.4187
33.6375
68.4625
243.199
262.937
61.4642
31.8797
33.8144
78.8053
286.834
302.888
75.1592
31.8394
64.2136
158.919
330.417
209.919
55.0677
32.5914
31.1098
53.9974
222.321
243.654
65.6854
30.8967
30.0832
65.1807
260.057
273.514
66.9571
29.5654
29.4046
72.2348
276.18
273.216
75.594
29.3052
29.2751
78.5656
266.026
253.293
82.3256
29.3874
29.5266
85.2373
239.531
225.809
89.043
29.9229
30.3199
92.7943
212.66
200.387
97.6603
31.1835
31.8668
102.352
189.219
179.127
106.938
33.1812
34.1923
111.372
170.065
161.966
115.677
35.8648
37.1836
119.827
154.733
148.339
123.819
39.1705
41.056
127.204
142.659
137.657
130.394
43.5867
45.8797
133.068
133.222
129.317
135.673
48.7093
51.0527
138.094
125.87
122.859
140.454
53.9534
56.3652
142.619
120.219
117.937
144.704
59.349
61.8432
146.574
115.947
114.242
148.358
64.8992
67.4475
149.922
112.76
111.506
151.4
70.5404
73.1295
152.648
110.425
109.525
153.817
76.2752
78.9041
154.765
108.756
108.121
155.633
82.1036
84.676
156.311
107.577
107.133
156.92
87.7475
90.1734
157.344
106.752
106.448
157.713
93.061
95.2925
157.918
106.189
105.987
158.084
97.9589
99.9616
158.11
105.816
105.684
158.082
102.386
104.147
157.986
105.567
105.488
157.859
106.327
107.843
157.588
105.409
105.352
157.385
109.765
111.037
156.995
105.305
105.268
156.694
112.701
113.74
156.218
105.24
105.212
155.832
115.158
115.982
155.297
105.191
105.16
154.848
117.171
117.807
154.278
105.137
105.097
153.784
118.785
119.25
153.195
105.067
105.01
152.67
120.038
120.362
152.076
104.97
104.9
151.53
120.972
121.183
150.943
104.851
104.768
150.387
121.633
121.761
149.815
104.709
104.618
149.258
122.068
122.133
148.704
104.553
104.454
148.155
122.319
122.332
147.621
104.381
104.278
147.086
122.4
122.378
146.569
104.199
104.093
146.059
122.381
122.309
145.561
104.008
103.901
145.08
122.282
122.164
144.604
103.816
103.708
144.155
122.102
121.922
143.7
103.621
103.515
143.273
121.836
121.615
142.84
103.429
103.321
142.431
121.514
121.267
142.018
103.235
103.129
141.624
121.158
120.899
141.236
103.045
102.94
140.857
120.786
120.528
140.494
102.857
102.753
140.131
120.411
120.165
139.797
102.673
102.574
139.45
120.047
119.824
139.143
102.496
102.399
138.815
119.705
119.503
138.536
102.326
102.234
138.229
119.395
119.214
137.974
102.165
102.077
137.69
119.116
118.957
137.463
102.014
101.931
137.203
118.873
118.738
137
101.875
101.798
136.764
118.668
118.556
136.586
101.749
101.677
136.375
118.501
118.414
136.22
101.635
101.57
136.031
118.373
118.308
135.899
101.536
101.477
135.732
118.281
118.239
135.621
101.45
101.399
135.473
118.225
118.202
135.382
101.378
101.336
135.253
118.201
118.198
135.18
101.32
101.287
135.068
118.21
118.221
135.01
101.277
101.254
134.914
118.243
118.274
134.871
101.248
101.234
134.791
118.303
118.35
134.76
101.233
101.229
134.696
118.386
118.448
134.673
101.232
101.235
134.626
118.491
118.564
134.611
101.244
101.251
134.578
118.613
118.697
134.57
101.267
101.278
134.55
118.751
118.844
134.548
101.302
101.317
134.541
118.901
119.004
134.546
101.347
101.367
134.548
119.063
119.172
134.559
101.402
101.425
134.565
119.234
119.348
134.585
101.464
101.491
134.595
119.411
119.529
134.623
101.534
101.565
134.637
119.594
119.716
134.673
101.612
101.645
134.69
119.781
119.906
134.733
101.695
101.731
134.753
119.972
120.099
134.802
101.785
101.823
134.825
120.166
120.294
134.879
101.879
101.92
134.905
120.361
120.491
134.963
101.978
102.021
134.991
120.557
120.687
135.053
102.081
102.126
135.083
120.753
120.881
135.148
102.187
102.234
135.179
120.946
121.073
135.246
102.297
102.346
135.278
121.136
121.261
135.347
102.41
102.46
135.38
121.322
121.444
135.45
102.526
102.577
135.484
121.503
121.622
135.555
102.644
102.696
135.589
121.68
121.795
135.662
102.764
102.817
135.696
121.851
121.964
135.77
102.885
102.939
135.804
122.018
122.128
135.879
103.008
103.062
135.914
122.181
122.287
135.988
103.131
103.186
136.023
122.338
122.441
136.098
103.255
103.31
136.133
122.49
122.59
136.208
103.379
103.433
136.243
122.636
122.732
136.317
103.502
103.557
136.352
122.777
122.869
136.425
103.625
103.68
136.459
122.911
123
136.532
103.748
103.803
136.566
123.04
123.125
136.637
103.871
103.925
136.67
123.163
123.244
136.741
103.994
104.048
136.774
123.28
123.357
136.843
104.117
104.171
136.875
123.391
123.464
136.944
104.24
104.294
136.975
123.496
123.566
137.043
104.363
104.417
137.074
123.597
123.664
137.141
104.488
104.542
137.171
123.692
123.756
137.237
104.613
104.667
137.267
123.783
123.843
137.332
104.738
104.793
137.362
123.868
123.924
137.426
104.865
104.919
137.455
123.948
124.002
137.519
104.991
105.045
137.549
124.024
124.075
137.613
105.116
105.169
137.642
124.096
124.143
137.705
105.24
105.291
137.734
124.163
124.209
137.797
105.361
105.409
137.825
124.225
124.277
137.892
105.481
105.529
137.921
124.294
124.336
137.98
105.598
105.64
138.009
124.353
124.392
138.078
105.715
105.75
138.096
124.407
124.44
138.156
105.864
105.896
138.172
124.447
124.463
138.233
105.987
106.017
138.253
124.507
124.52
138.109
106.125
106.025
137.831
124.679
124.447
137.413
106.303
106.999
137.218
124.325
124.382
137.597
107.411
116.116
72.1595
43.22
40.445
41.3837
45.602
49.1462
54.7694
56.9052
63.8529
67.6804
68.8011
68.9648
68.4383
67.908
67.6009
67.503
67.5424
67.6512
67.7864
67.9249
68.0557
68.1742
68.2789
68.3699
68.4478
68.5131
68.5667
68.6083
68.6391
68.6596
68.6717
68.6773
68.6844
68.6974
68.7166
68.7419
68.772
68.8069
68.8455
68.8884
68.9357
68.9883
69.0472
69.1135
69.2043
69.3513
69.5686
69.8336
70.1108
70.3774
70.6247
70.8515
71.059
71.2489
71.422
71.5795
71.722
71.8502
71.9648
72.0671
72.1583
72.2399
72.3134
72.3802
72.4416
72.4987
72.5525
72.6038
72.6534
72.702
72.7504
72.7991
72.8486
72.8996
72.9524
73.0076
73.0655
73.1264
73.1906
73.2584
73.3297
73.4046
73.4832
73.5652
73.6504
73.7387
73.8297
73.9229
74.0182
74.1149
74.2128
74.3114
74.4103
74.5091
74.6074
74.705
74.8014
74.8966
74.9901
75.0819
75.1717
75.2595
75.3451
75.4284
75.5094
75.5881
75.6644
75.7383
75.8099
75.8791
75.9461
76.0108
76.0733
76.1337
76.192
76.2483
76.3026
76.355
76.4056
76.4545
76.5017
76.5472
76.5913
76.6338
76.6749
76.7147
76.7531
76.7904
76.8264
76.8614
76.8952
76.9281
76.9599
76.9909
77.021
77.0502
77.0787
77.1064
77.1334
77.1597
77.1854
77.2105
77.235
77.259
77.2826
77.3056
77.3282
77.3505
77.3723
77.3938
77.415
77.4359
77.4565
77.4769
77.4971
77.517
77.5368
77.5565
77.576
77.5955
77.6149
77.6342
77.6535
77.6728
77.6921
77.7115
77.7309
77.7504
77.7701
77.7899
77.8098
77.83
77.8504
77.871
77.8919
77.9132
77.9347
77.9567
77.9791
78.0019
78.0252
78.0491
78.0735
78.0986
78.1243
78.1507
78.178
78.206
78.235
78.2649
78.2958
78.3278
78.3608
78.3949
78.43
78.466
78.5029
78.5402
78.5775
78.6143
78.6501
78.6835
78.7104
78.7282
78.7371
78.7441
78.7503
78.7495
78.748
78.7432
78.7258
78.6802
78.5841
78.4294
78.223
77.9826
77.7259
77.4622
77.194
76.9203
76.639
76.3481
76.0466
75.7337
75.4093
75.0737
74.727
74.3694
74.0013
73.6227
73.234
72.8354
72.4271
72.0095
71.5829
71.1477
70.7043
70.2531
69.7945
69.3291
68.8573
68.3796
67.8965
67.4086
66.9163
66.4203
65.921
65.4191
64.915
64.4094
63.9029
63.396
62.8893
62.3833
61.8788
61.3761
60.876
60.3789
59.8856
59.3964
58.912
58.433
57.9598
57.493
57.0333
56.581
56.1367
55.7009
55.274
54.8566
54.4491
54.0519
53.6654
53.2901
52.9262
52.5743
52.2349
51.9083
51.595
51.295
51.0078
50.7323
50.4665
50.2093
49.9625
49.7346
49.5441
49.4103
49.3362
49.3023
49.2846
49.267
49.2224
49.0555
48.1995
46.6677
45.5489
45.1389
43.9824
43.6587
42.5201
42.2617
41.1709
40.9711
39.9198
39.77
38.758
38.6502
37.6759
37.6035
36.6645
36.622
35.7154
35.6981
34.8227
34.8258
33.9833
33.9999
33.185
33.2136
32.4253
32.4654
31.7031
31.7548
31.0185
31.0808
30.3685
30.44
29.7498
29.8289
29.1587
29.2444
28.5926
28.6838
28.0487
28.1445
27.5249
27.6245
27.019
27.122
26.5297
26.6353
26.0551
26.1628
25.5936
25.7028
25.1438
25.2541
24.7046
24.8156
24.275
24.3864
23.8541
23.9655
23.4408
23.5519
23.0343
23.1448
22.6339
22.7436
22.2389
22.3475
21.8488
21.956
21.463
21.5688
21.0813
21.1855
20.7033
20.8056
20.329
20.4295
19.9588
20.0575
19.5933
19.6904
19.2334
19.3293
18.8808
18.9758
18.5373
18.6323
18.2059
18.3017
17.8902
17.9879
17.5935
17.6939
17.3186
17.4228
17.0687
17.1773
16.8445
16.9588
16.6513
16.7741
16.4954
16.6279
16.3749
16.5171
16.2869
16.4384
16.2291
16.3898
16.1999
16.3693
16.1965
16.3741
16.2157
16.4003
16.2481
16.4417
16.2951