/*--------------------------------*- C++ -*----------------------------------*\
| =========                 |                                                 |
| \\      /  F ield         | OpenFOAM: The Open Source CFD Toolbox           |
|  \\    /   O peration     | Version:  v2006                                 |
|   \\  /    A nd           | Website:  www.openfoam.com                      |
|    \\/     M anipulation  |                                                 |
\*---------------------------------------------------------------------------*/
FoamFile
{
    version     2.0;
    format      ascii;
    class       volScalarField;
    location    "0.106";
    object      Co;
}
// * * * * * * * * * * * * * * * * * * * * * * * * * * * * * * * * * * * * * //

dimensions      [0 0 0 0 0 0 0];


internalField   nonuniform List<scalar> 
16277
(
0.00667531
0.00636298
0.00690604
0.00717032
0.00720852
0.00705737
0.00705365
0.00693474
0.00688301
0.00686903
0.00683106
0.00681667
0.00680273
0.00679282
0.00678185
0.00677075
0.00675908
0.00674676
0.00673405
0.00672078
0.00670693
0.00669251
0.00667754
0.00666203
0.00664598
0.0066294
0.0066123
0.00659469
0.00657658
0.00655797
0.00653888
0.00651933
0.00649932
0.00647888
0.00645802
0.00643675
0.0064151
0.00639308
0.00637072
0.00634804
0.00632506
0.00630179
0.00627827
0.00625451
0.00623054
0.00620639
0.00618209
0.00615764
0.00613309
0.00610847
0.00608379
0.00605908
0.00603438
0.00600971
0.00598511
0.00596059
0.00593619
0.00591195
0.00588788
0.00586403
0.00584041
0.00581707
0.00579402
0.00577131
0.00574896
0.00572699
0.00570544
0.00568434
0.0056637
0.00564356
0.00562394
0.00560486
0.00558635
0.00556844
0.00555116
0.00553451
0.00551849
0.005503
0.00548651
0.00547161
0.00545836
0.00544891
0.00544676
0.00547977
0.00554365
0.00571734
0.00603128
0.00674915
0.00842095
0.0120074
0.0180056
0.0141656
0.0127264
0.0121911
0.0119228
0.0116583
0.0111339
0.0100965
0.011078
0.0117176
0.0109165
0.0108001
0.0101604
0.00838869
0.00903149
0.00923795
0.00918734
0.00918491
0.00861664
0.00783912
0.00854668
0.00871963
0.00898877
0.00883133
0.00804519
0.00782592
0.00863063
0.00881637
0.00902017
0.00879837
0.00789119
0.0077919
0.00867043
0.00886365
0.00903308
0.00877036
0.00779484
0.00769411
0.0086413
0.00886438
0.00899115
0.0087125
0.00767576
0.00757988
0.00857998
0.00883285
0.00895136
0.00864717
0.00756357
0.00747336
0.00851517
0.0087932
0.00890836
0.00858202
0.00746142
0.00737578
0.00845118
0.00875144
0.00886372
0.008518
0.00736714
0.00728507
0.00838907
0.00870865
0.00881809
0.00845514
0.007279
0.00719957
0.00832876
0.00866528
0.00877158
0.00839299
0.00719553
0.00711828
0.00826858
0.00862018
0.00872422
0.00833131
0.00711567
0.00704018
0.00820836
0.00857357
0.0086759
0.00826986
0.0070386
0.00696454
0.00814796
0.00852545
0.00862666
0.00820847
0.00696368
0.00689078
0.00808717
0.0084758
0.00857638
0.0081469
0.00689038
0.0068184
0.00802583
0.00842457
0.00852496
0.00808495
0.00681824
0.00674705
0.00796384
0.00837177
0.0084723
0.00802241
0.00674691
0.00667623
0.00790091
0.00831734
0.00841831
0.00795914
0.00667608
0.0066058
0.00783703
0.00826121
0.00836291
0.007895
0.00660551
0.00653554
0.00777204
0.00820327
0.00830598
0.00782982
0.00653496
0.0064652
0.00770581
0.0081435
0.00824739
0.00776347
0.00646425
0.00639461
0.00763943
0.00808446
0.00818701
0.00769581
0.00639314
0.00632356
0.00757185
0.00802421
0.00812481
0.00762673
0.00632146
0.00625185
0.0075028
0.0079621
0.00806068
0.0075561
0.00624905
0.00617933
0.00743213
0.00789803
0.00799449
0.00748376
0.00617572
0.00610581
0.00735972
0.00783188
0.00792612
0.00740959
0.00610131
0.00603112
0.00728542
0.00776353
0.00785546
0.00733343
0.00602564
0.00595512
0.0072091
0.00769287
0.00778239
0.00725517
0.00594858
0.00587766
0.00713064
0.00761979
0.00770679
0.00717468
0.00586998
0.00579862
0.00704991
0.00754417
0.00762857
0.00709184
0.00578973
0.00571788
0.00696683
0.00746592
0.00754763
0.00700658
0.00570774
0.0056354
0.00688132
0.00738496
0.00746389
0.00691883
0.00562397
0.00555113
0.00679333
0.00730123
0.00737732
0.00682857
0.00553842
0.00546512
0.00670286
0.00721469
0.0072879
0.00673582
0.00545117
0.00537749
0.00660998
0.00712537
0.00719571
0.00664071
0.00536237
0.00528843
0.00651485
0.00703337
0.00710088
0.00654343
0.00527225
0.00519821
0.0064177
0.00693886
0.00700363
0.00644427
0.00518117
0.00510725
0.00631887
0.00684211
0.00690429
0.00634365
0.00508961
0.00501613
0.00621885
0.00674347
0.00680331
0.00624214
0.00499823
0.00492557
0.00611829
0.00664347
0.0067013
0.0061405
0.00490788
0.00483654
0.00601803
0.00654279
0.00659907
0.00603972
0.00481964
0.00475026
0.00591917
0.00644234
0.00649768
0.00594102
0.00473486
0.00466819
0.00582307
0.00634327
0.00639845
0.00584595
0.00465521
0.00459217
0.0057314
0.00624702
0.00630306
0.00575641
0.00458267
0.00452432
0.00564624
0.00615543
0.00621351
0.00567454
0.00451952
0.00446875
0.00557106
0.0060705
0.0061319
0.00560253
0.00446858
0.00443349
0.00552212
0.00600729
0.00606104
0.00554383
0.00443335
0.00441582
0.00549509
0.0059786
0.00600445
0.00550152
0.00441571
0.00441753
0.00548818
0.00596961
0.00596528
0.00547828
0.00441746
0.00443925
0.00550204
0.00598075
0.00594243
0.00547286
0.00443921
0.00448022
0.00553555
0.00601057
0.00594556
0.00549591
0.00448346
0.00454158
0.00559079
0.00606234
0.00599454
0.00555868
0.00455457
0.00462302
0.00566683
0.0061344
0.0060699
0.00563917
0.00464186
0.00471604
0.00575476
0.00621708
0.00615524
0.00573065
0.00473829
0.0048155
0.00585093
0.00630731
0.00624657
0.00582836
0.0048388
0.00491729
0.00595201
0.00640269
0.00634176
0.00592948
0.00494011
0.0050184
0.00605494
0.00650047
0.00643796
0.00603097
0.00503934
0.00511601
0.00615669
0.00659777
0.00653252
0.00613003
0.00513385
0.00520772
0.00625469
0.00669213
0.0066232
0.00622435
0.00522149
0.00529165
0.00634685
0.00678151
0.00670819
0.00631205
0.00530064
0.00536639
0.00643151
0.00686426
0.00678606
0.00639171
0.00537016
0.00543117
0.00650743
0.00693916
0.00685579
0.00646372
0.00543135
0.00548591
0.00657387
0.00700543
0.00692029
0.00653322
0.00548607
0.00553049
0.00663032
0.00706264
0.00698971
0.00659793
0.00553063
0.00556528
0.00667723
0.00711103
0.00705251
0.00665264
0.00556541
0.00559103
0.00671515
0.00715105
0.00710587
0.00669761
0.00559115
0.00560876
0.00674483
0.00718335
0.00714998
0.0067334
0.00560888
0.00561978
0.0067674
0.00720903
0.00718565
0.00676101
0.00561994
0.00562541
0.006784
0.00722916
0.00721379
0.00678155
0.00562561
0.00562691
0.00679572
0.00724468
0.00723549
0.00679614
0.0056271
0.00562532
0.00680346
0.00725633
0.00725205
0.00680596
0.00562547
0.0056215
0.00680795
0.00726465
0.0072644
0.00681204
0.00562163
0.00561604
0.00680987
0.00727034
0.00727307
0.00681505
0.00561617
0.00560952
0.00680999
0.0072743
0.00727888
0.00681583
0.00560965
0.00560227
0.00680878
0.00727708
0.00728239
0.00681474
0.00560234
0.00559474
0.00680671
0.0072787
0.00728475
0.00681264
0.00559468
0.005587
0.00680337
0.00727847
0.00728599
0.00680939
0.00558687
0.00557941
0.0067998
0.00727769
0.00728699
0.00680618
0.0055793
0.00557187
0.00679572
0.00727603
0.00728716
0.00680288
0.00557201
0.00556418
0.00679108
0.00727422
0.00728573
0.00679832
0.00556438
0.0055568
0.00678674
0.00727293
0.00728351
0.0067934
0.0055568
0.00554936
0.00678243
0.0072718
0.00728118
0.00678859
0.00554934
0.00554251
0.00677814
0.00727073
0.00727823
0.00678355
0.00553971
0.00552751
0.00676053
0.00725551
0.00722828
0.00672792
0.00548635
0.00547311
0.0066982
0.00720074
0.00705746
0.00652828
0.00531282
0.00541503
0.00662385
0.00711332
0.00681016
0.00626101
0.00506585
0.00559634
0.00684379
0.00731008
0.00731179
0.006611
0.00526071
0.00650942
0.0081085
0.00881094
0.00956701
0.00847925
0.00655543
0.00821781
0.0119323
0.0149515
0.0140241
0.018219
0.0155655
0.0146082
0.0139323
0.0137451
0.0136299
0.0136576
0.0136649
0.0136883
0.0137004
0.0137562
0.01386
0.0140264
0.014393
0.0152792
0.0195518
0.0279019
0.0299285
0.0272871
0.0258293
0.0235803
0.0211018
0.0180791
0.0124513
0.0110854
0.0166072
0.0198968
0.017747
0.015405
0.0105441
0.00876228
0.0129201
0.0150959
0.0141185
0.0123614
0.00849138
0.00784659
0.0115588
0.0133584
0.0131217
0.0114478
0.00774877
0.00761794
0.011234
0.0129492
0.012967
0.0112339
0.00761244
0.00760995
0.0112291
0.0129473
0.0129558
0.0112369
0.00762486
0.00763117
0.011242
0.0129596
0.0129669
0.0112506
0.00763986
0.00764089
0.011236
0.0129601
0.0129947
0.0112902
0.00766512
0.00766717
0.0112765
0.0129883
0.0129966
0.0112854
0.00767628
0.00767759
0.0112711
0.0129767
0.0130383
0.0113154
0.00769571
0.00771266
0.0113234
0.0130179
0.013026
0.0113103
0.00770742
0.00772507
0.0113191
0.0130067
0.013068
0.011352
0.00773553
0.00775435
0.011362
0.0130488
0.0130581
0.0113511
0.00775026
0.00776811
0.0113601
0.0130391
0.0131018
0.0113941
0.00777959
0.00779742
0.0114027
0.0130818
0.0130906
0.01139
0.00779292
0.00781044
0.0113977
0.0130714
0.013133
0.0114317
0.00782193
0.00784178
0.0114426
0.0131142
0.0131236
0.0114295
0.00783693
0.00785591
0.0114395
0.0131053
0.0131688
0.0114745
0.0078683
0.00788745
0.0114846
0.0131498
0.0131593
0.011484
0.00789129
0.00789464
0.011471
0.0131409
0.0132039
0.0115169
0.00791457
0.0079343
0.0115272
0.0131849
0.0131948
0.0115268
0.00793825
0.00794233
0.0115148
0.0131773
0.0132417
0.0115619
0.00796292
0.00798268
0.0115725
0.0132235
0.013234
0.0115728
0.00798696
0.00799085
0.0115606
0.0132165
0.0132809
0.0116076
0.00801149
0.00803159
0.0116189
0.0132635
0.0132745
0.0116191
0.00803534
0.00803918
0.0116074
0.0132578
0.013323
0.0116554
0.00805987
0.00808087
0.011669
0.0133062
0.0133185
0.0116698
0.00808466
0.0080885
0.0116589
0.013303
0.0133698
0.0117081
0.00810936
0.0081289
0.0117203
0.0133546
0.0133675
0.0117196
0.0081308
0.00813419
0.0117095
0.013353
0.0134219
0.0117601
0.00815468
0.00817314
0.0117731
0.0134076
0.0134227
0.0117761
0.00817585
0.00817854
0.0117678
0.013411
0.013482
0.0118191
0.00819709
0.008215
0.0118344
0.0134708
0.0134889
0.0118276
0.00820845
0.00822605
0.0118444
0.0134796
0.0135545
0.0118876
0.00823665
0.00825516
0.0119082
0.0135469
0.0135686
0.0119035
0.00824728
0.00826486
0.0119245
0.0135642
0.0136439
0.0119714
0.00827448
0.00829144
0.0119938
0.0136407
0.0136681
0.0120061
0.00829235
0.00829272
0.0120058
0.013669
0.0137554
0.0120717
0.00831257
0.00833251
0.0121018
0.013759
0.0137945
0.0121225
0.00833715
0.00834458
0.0121351
0.0138041
0.0139019
0.0122166
0.00837396
0.00840112
0.0122566
0.0139158
0.0139631
0.0122802
0.00841005
0.00844382
0.0123253
0.013983
0.0140921
0.0124026
0.00847679
0.00852852
0.0124654
0.0141191
0.0141832
0.0125303
0.00857469
0.00863909
0.0126019
0.014235
0.0143344
0.0126774
0.0086944
0.00876965
0.0127576
0.0143945
0.0144764
0.0128612
0.00886714
0.0089888
0.0129891
0.0145691
0.01467
0.0131103
0.00911638
0.00927013
0.0132478
0.0147811
0.014923
0.0134122
0.00945433
0.00969145
0.0136185
0.0150615
0.0152117
0.0138187
0.00994716
0.0101166
0.0139275
0.0152698
0.0154212
0.0139797
0.0102675
0.0105968
0.0142535
0.0155055
0.0155971
0.0143044
0.0106684
0.0109054
0.0144055
0.015648
0.0157774
0.0145765
0.0111299
0.0113722
0.0146721
0.0158789
0.01613
0.0150441
0.0117685
0.0119801
0.0151584
0.0162316
0.0165971
0.0155832
0.0125063
0.0126786
0.0156723
0.0166713
0.0167724
0.0162391
0.0135534
0.0131666
0.0150217
0.014643
0.0436195
0.032138
0.0187892
0.012264
0.0207416
0.0290267
0.0191616
0.0169551
0.0119279
0.0110719
0.0150667
0.0163678
0.0157572
0.0147078
0.0110883
0.0111855
0.01494
0.0162723
0.0160314
0.0148176
0.0113497
0.011801
0.0152508
0.0165075
0.0162274
0.0151032
0.0120051
0.0127837
0.01599
0.0169776
0.0168601
0.0158344
0.0129258
0.0137083
0.0164007
0.0171722
0.0149989
0.0153798
0.0136684
0.0190901
0.0314621
0.0422799
0.029954
0.0218507
0.0136923
0.0135044
0.0178651
0.0199964
0.0178983
0.0164547
0.0130655
0.0132125
0.0163535
0.017444
0.0172758
0.0163651
0.0134909
0.0135944
0.0163118
0.0171806
0.0171015
0.0165149
0.0141406
0.0137742
0.01504
0.0144205
0.042106
0.0314857
0.0194289
0.0156179
0.0226148
0.0294991
0.0199634
0.0180231
0.0139622
0.0136664
0.01658
0.0174433
0.0168035
0.016246
0.0138081
0.0142299
0.0165766
0.0171029
0.0147147
0.0153758
0.0141325
0.0193615
0.0309837
0.0410113
0.0305416
0.0225764
0.0146567
0.0149701
0.018683
0.0205341
0.0183399
0.0171076
0.0143767
0.0149688
0.0172195
0.0175488
0.0142394
0.0150734
0.0142214
0.0198025
0.0309689
0.0408282
0.0300962
0.0226802
0.0151335
0.0149697
0.0182216
0.0196452
0.0172687
0.0168639
0.0146412
0.0144119
0.0152485
0.0144484
0.039067
0.0298642
0.0193532
0.0153439
0.0227204
0.0300874
0.0199972
0.018383
0.0152854
0.0150032
0.0170045
0.01747
0.0135422
0.0146731
0.0144704
0.0193816
0.0289012
0.0366179
0.0275186
0.0221407
0.0164213
0.0147253
0.0157071
0.0149968
0.0341561
0.0271692
0.0184834
0.016317
0.0212322
0.0256159
0.0131677
0.013986
0.0132737
0.015611
0.0217988
0.0260579
0.0138618
0.0128659
0.0109742
0.0110473
0.0160973
0.0195614
0.00483165
0.00459315
0.00428006
0.00562279
0.00910761
0.0111685
0.0138925
0.0120641
0.00869502
0.0142773
0.0170891
0.0185995
0.0224136
0.0213126
0.0188462
0.0206885
0.0219249
0.021576
0.0370746
0.0321941
0.0244758
0.0252094
0.0330961
0.0383115
0.0373874
0.032944
0.025596
0.0269256
0.0364545
0.0428256
0.0266494
0.0267752
0.0236971
0.0235201
0.0353016
0.0463125
0.0489965
0.0384742
0.0259529
0.0239982
0.0315376
0.0367016
0.0453099
0.0371353
0.0262795
0.0221232
0.0254089
0.0257687
0.0429612
0.0337977
0.0240792
0.0259652
0.0384141
0.0489198
0.0251164
0.0249405
0.0214965
0.0233704
0.0331662
0.0420354
0.0487673
0.038245
0.0255027
0.0207377
0.0239642
0.024515
0.0415307
0.0323277
0.0226879
0.0250269
0.0377207
0.0485338
0.0245182
0.0241516
0.0206684
0.0226866
0.0321432
0.0411543
0.0484001
0.0376191
0.0251023
0.0207076
0.024063
0.0242843
0.0409089
0.0320872
0.022467
0.0248394
0.0375773
0.0480698
0.0243504
0.0237149
0.0203466
0.0222203
0.0315838
0.0406317
0.048041
0.0373375
0.0246829
0.0200105
0.023281
0.0238757
0.0395448
0.0307583
0.021687
0.0243381
0.036941
0.047499
0.021141
0.0213024
0.0190554
0.0201019
0.0252326
0.0279159
0.0411498
0.030401
0.0195684
0.0233341
0.0365419
0.0478379
0.0228137
0.0225163
0.0191337
0.0224371
0.031431
0.0397921
0.0472769
0.0365712
0.0238296
0.0195915
0.023092
0.0236779
0.0411289
0.0307962
0.0199092
0.0236394
0.0368427
0.0476406
0.0235597
0.0231463
0.0194829
0.0225602
0.0317608
0.0403456
0.0477744
0.0366289
0.0237923
0.0195272
0.0234455
0.0240017
0.0402921
0.0318678
0.0227762
0.0240572
0.0368632
0.0477518
0.0236822
0.0230524
0.0194856
0.0204294
0.0311771
0.0411675
0.0478769
0.0370488
0.023998
0.0198727
0.023589
0.0242298
0.0418933
0.031303
0.0203422
0.0241767
0.037215
0.0481983
0.0243982
0.0239055
0.0202296
0.0204188
0.0321769
0.0434026
0.047818
0.0367703
0.0236073
0.0216105
0.0294886
0.0350248
0.0444331
0.036003
0.0244789
0.020769
0.0245871
0.0253523
0.0417904
0.0325897
0.0226586
0.0249285
0.0377
0.0482459
0.0250266
0.0241188
0.0203157
0.0223465
0.0322359
0.0414399
0.0485557
0.0378088
0.0248502
0.0207006
0.0243833
0.0248733
0.0422901
0.0329066
0.022778
0.0249172
0.0378392
0.0488184
0.0253043
0.024827
0.0208611
0.0229155
0.0330506
0.0424709
0.049226
0.0382347
0.0253387
0.0214583
0.0251632
0.0256727
0.0453323
0.0337891
0.0216862
0.0247444
0.0380197
0.0492979
0.0370979
0.0313806
0.0229428
0.025009
0.036616
0.0452066
0.0263607
0.0254736
0.0213652
0.0236635
0.0342682
0.0438434
0.0499631
0.0391752
0.0258713
0.0218215
0.0256856
0.0263175
0.0463289
0.0347715
0.0225141
0.0253711
0.0386478
0.0500491
0.0376666
0.0317923
0.0234611
0.0258484
0.0375135
0.0462091
0.027363
0.0264705
0.0222846
0.0244425
0.0349765
0.0449063
0.0510064
0.0400116
0.026712
0.0224878
0.0263388
0.0270508
0.0473556
0.0354087
0.0230858
0.0259292
0.0393029
0.0507325
0.0386573
0.0326571
0.0240268
0.0263974
0.0382058
0.0468839
0.0277275
0.0269186
0.0228585
0.0249715
0.0359051
0.0462227
0.0519889
0.0410484
0.027346
0.0229335
0.0271357
0.0277073
0.0475419
0.0378858
0.0274393
0.0274136
0.0406304
0.0516724
0.0396842
0.0336391
0.0246943
0.027096
0.0391144
0.0478276
0.0289088
0.0280759
0.0237964
0.0246286
0.0371919
0.0495198
0.0526283
0.0410648
0.0272475
0.0254897
0.0344406
0.0407166
0.0487902
0.0400604
0.0279705
0.0238478
0.0283404
0.0293015
0.0493456
0.0389086
0.0275789
0.0280303
0.0414095
0.0527551
0.0412103
0.0348771
0.0258711
0.0284277
0.0404776
0.0494081
0.0300992
0.0292917
0.0245449
0.0287349
0.0399526
0.0503562
0.0539102
0.0425334
0.0290429
0.0265531
0.0357083
0.0421183
0.0501696
0.041253
0.0289117
0.0250707
0.0294152
0.030362
0.0516925
0.039307
0.0260105
0.0286117
0.0429571
0.0547532
0.0430116
0.0362685
0.0268396
0.0291672
0.0416022
0.0509232
0.0311832
0.0304313
0.0255011
0.0303271
0.0419354
0.052262
0.0548412
0.0440658
0.0305637
0.0279155
0.0381391
0.0451428
0.0508038
0.0416426
0.0294016
0.0274547
0.0371246
0.0435567
0.050899
0.0421488
0.029707
0.0261876
0.0311381
0.0321866
0.0536654
0.0418179
0.0293799
0.0304899
0.0447869
0.0565457
0.0450512
0.0381336
0.0282965
0.0304295
0.0433597
0.0524987
0.0322998
0.0316387
0.0266779
0.0316486
0.0435178
0.0543505
0.0567363
0.0455335
0.0317085
0.0287903
0.0393546
0.046901
0.052641
0.0429401
0.0302297
0.0287032
0.038566
0.0454789
0.0530269
0.0439793
0.0313466
0.0273631
0.0322938
0.0334867
0.0569433
0.0434134
0.0290804
0.0312355
0.0462991
0.0588526
0.04855
0.0405507
0.0296267
0.0312904
0.0442764
0.05384
0.0471009
0.0399638
0.0297628
0.0317602
0.0447285
0.053757
0.0342308
0.0330835
0.0278385
0.032234
0.0450814
0.0571111
0.0591599
0.0472151
0.0326458
0.0306232
0.0417111
0.0495428
0.0551044
0.0454423
0.0321827
0.0305919
0.0408903
0.0479186
0.0552404
0.0461239
0.032894
0.0289963
0.034134
0.0352191
0.0590944
0.0453547
0.030869
0.0328902
0.0482482
0.0609251
0.050589
0.0422364
0.0308457
0.0327302
0.0460821
0.0558775
0.049169
0.0415762
0.0309905
0.0337798
0.0470062
0.0562913
0.0358745
0.034621
0.0296517
0.0307265
0.0464612
0.0612298
0.0626238
0.048764
0.0324985
0.0317849
0.0436622
0.0520828
0.0575145
0.0475019
0.0335037
0.032093
0.0429939
0.0503684
0.057714
0.0481311
0.034538
0.0302726
0.0354156
0.036629
0.0624743
0.0471209
0.0312546
0.0333228
0.0498004
0.0638193
0.0533838
0.0446809
0.0329031
0.0347101
0.0485664
0.0585465
0.0537663
0.0453365
0.0332409
0.0350051
0.0486087
0.0585854
0.0523463
0.0444818
0.0330841
0.0357893
0.049741
0.0591474
0.0385581
0.0374011
0.0314037
0.0372358
0.0509339
0.0633472
0.0646015
0.0520088
0.0368365
0.0340795
0.0462846
0.054884
0.0594738
0.049347
0.0354008
0.0340412
0.0460949
0.0549953
0.0599023
0.0498284
0.0360992
0.0341292
0.045724
0.0535393
0.0608422
0.0510049
0.0368368
0.0324312
0.037981
0.0392724
0.0664826
0.0509026
0.0341491
0.0360728
0.0532033
0.0671755
0.0567034
0.0476197
0.035093
0.0367609
0.0511451
0.0617342
0.0568253
0.0481112
0.035305
0.0370475
0.0513343
0.0614653
0.0552254
0.0470432
0.0352171
0.0377824
0.052077
0.0623954
0.0406327
0.0392138
0.0333831
0.0351153
0.0523244
0.0683846
0.0692805
0.0542464
0.0366468
0.0360629
0.0488824
0.058457
0.0631315
0.0523766
0.0377978
0.0366148
0.0495659
0.0588199
0.0633903
0.052883
0.0383408
0.0362404
0.0481437
0.0567779
0.064242
0.0537996
0.0391845
0.034291
0.0404041
0.0413479
0.0690132
0.0556347
0.040678
0.0404555
0.0569957
0.0702223
0.0600605
0.0504465
0.037156
0.0389737
0.0542881
0.0651723
0.0608354
0.0512784
0.03791
0.0394894
0.0541746
0.0646842
0.0612669
0.0513141
0.0378289
0.0400092
0.0547456
0.0655103
0.0597908
0.0507601
0.0379567
0.0405046
0.0556476
0.0663779
0.043167
0.041775
0.0359785
0.037237
0.0555215
0.0734616
0.0738962
0.0575711
0.0387943
0.0385198
0.0522775
0.0622708
0.0671312
0.0561093
0.0403251
0.0391258
0.052689
0.0624015
0.0667151
0.0559932
0.0409068
0.0392659
0.0529747
0.0627545
0.0677324
0.0565458
0.0413917
0.0392817
0.0519516
0.0613281
0.0689663
0.0578172
0.0423894
0.0371054
0.0431536
0.0447668
0.0755684
0.0582596
0.0399119
0.0419156
0.0606958
0.0761588
0.0648339
0.0549573
0.0407827
0.0423468
0.0583677
0.0698867
0.0649553
0.0551219
0.0409274
0.0426125
0.0580716
0.0692478
0.0656256
0.0554151
0.0411322
0.0431166
0.0587768
0.070017
0.064073
0.0541619
0.0407463
0.0437588
0.0596533
0.0709927
0.0464182
0.0451359
0.0388231
0.0403511
0.0599096
0.0782911
0.0792222
0.0620316
0.0420731
0.0418428
0.0563333
0.0669829
0.0723244
0.0597934
0.0434685
0.0421489
0.0567646
0.0672673
0.0714565
0.0602428
0.0441086
0.0423556
0.0570007
0.0679679
0.0728397
0.0611198
0.0446288
0.0423763
0.0561777
0.0657319
0.0738768
0.0624656
0.0455595
0.040182
0.0464863
0.0478746
0.0814804
0.0623522
0.042796
0.044702
0.0645896
0.0821168
0.069601
0.0588193
0.0437095
0.0454636
0.0626615
0.0750796
0.0699497
0.0588263
0.0438696
0.0458707
0.062174
0.0743108
0.0706257
0.0594743
0.0441882
0.0464011
0.0630036
0.0750103
0.0688118
0.0585074
0.0441862
0.0472877
0.0644694
0.0763629
0.0496787
0.0482919
0.0418963
0.0433145
0.0643844
0.0847383
0.0856126
0.066706
0.0451379
0.0454039
0.0608655
0.0721423
0.0775862
0.0649691
0.0472225
0.045574
0.0613243
0.072501
0.0772047
0.0648527
0.0475353
0.0458927
0.0617698
0.0732754
0.0777872
0.0655006
0.0482408
0.0462946
0.0620173
0.0734005
0.0787094
0.0662416
0.0488861
0.0461367
0.0606146
0.0711962
0.0800146
0.0674223
0.0498418
0.0436619
0.0505857
0.0520153
0.0871765
0.0689062
0.0495517
0.0504664
0.0711727
0.0881224
0.0752866
0.0637866
0.0478164
0.0496922
0.0680994
0.0814369
0.075804
0.0642932
0.0481299
0.0502736
0.0681888
0.0807992
0.0763633
0.0646052
0.0485274
0.0508136
0.0685421
0.0819356
0.074149
0.0632415
0.0480927
0.0514093
0.0697503
0.0827737
0.0544403
0.0527833
0.0456262
0.0494298
0.0709206
0.0913404
0.0920485
0.0735542
0.0511057
0.0494414
0.066042
0.0781637
0.0839686
0.0699887
0.0513911
0.0497372
0.0665061
0.078576
0.0836669
0.0705326
0.0519662
0.0502277
0.0669742
0.0789873
0.0846698
0.0713159
0.0526325
0.0500141
0.0656079
0.0767704
0.0862068
0.0730182
0.0537176
0.0470323
0.0544089
0.0558488
0.0940314
0.0745982
0.0540396
0.054758
0.0768017
0.0949809
0.0810355
0.0686281
0.0516164
0.0536716
0.0732711
0.0876693
0.0815518
0.0691333
0.0519421
0.0543394
0.0733336
0.0872962
0.0821492
0.0694829
0.0521768
0.0548684
0.0740698
0.0882588
0.079868
0.0682012
0.0520633
0.0558535
0.07552
0.0892214
0.0586849
0.0570258
0.0493976
0.0541311
0.076803
0.0985733
0.0994825
0.0791905
0.0557761
0.0539731
0.0716642
0.0846226
0.0907438
0.0761429
0.0560433
0.054152
0.071891
0.0847978
0.0906992
0.0762621
0.0566318
0.0543711
0.072245
0.0851425
0.0916931
0.0773005
0.0572181
0.0539143
0.0705697
0.0825462
0.0932311
0.0789934
0.058185
0.0512089
0.0588523
0.0603946
0.101676
0.0795838
0.0564981
0.058234
0.0824209
0.103131
0.0874806
0.0740365
0.0559104
0.0584242
0.0793506
0.0951189
0.0881223
0.0748292
0.0565312
0.0592292
0.0796009
0.0947972
0.0862633
0.0738032
0.056379
0.0598482
0.0812734
0.0963639
0.0622273
0.060714
0.0531056
0.0566802
0.0818557
0.105977
0.106832
0.0852939
0.0593713
0.0575991
0.0763349
0.0902506
0.0981265
0.0816182
0.0598813
0.057929
0.0766604
0.0902167
0.0981089
0.0824114
0.0609487
0.0577145
0.0753832
0.088004
0.0996096
0.0842559
0.0622237
0.0544376
0.0625837
0.0639004
0.108402
0.0863075
0.0630093
0.0637589
0.0892037
0.110157
0.0935518
0.0794638
0.0601245
0.0629172
0.0854978
0.101834
0.0940308
0.0801731
0.0605803
0.0629007
0.0850388
0.101435
0.0918771
0.0785383
0.0601077
0.0643487
0.0870515
0.103239
0.0659943
0.0645042
0.0565339
0.0602735
0.0872344
0.113447
0.11484
0.0911436
0.0636258
0.0615013
0.0815238
0.0963064
0.104953
0.0880679
0.0645159
0.0622339
0.0821742
0.0964961
0.105106
0.0881785
0.0652279
0.0618325
0.0806361
0.0940529
0.107019
0.0905254
0.0667362
0.0587772
0.06702
0.0684656
0.117708
0.0916854
0.0643811
0.0672551
0.0959271
0.119721
0.100154
0.0849335
0.0641429
0.0672298
0.0913771
0.109639
0.100319
0.0853126
0.0644832
0.0675096
0.0914413
0.108892
0.0978643
0.083794
0.0641901
0.0688491
0.0931323
0.110454
0.070574
0.0690398
0.0604698
0.0663874
0.0938023
0.120032
0.123254
0.098097
0.0689559
0.0661347
0.0870237
0.10252
0.113583
0.0945773
0.0694711
0.0659778
0.0855594
0.099361
0.114637
0.0967503
0.0710518
0.0630674
0.0714626
0.0726245
0.125385
0.0976381
0.0684208
0.0720571
0.10271
0.128087
0.106265
0.0900912
0.0683481
0.0717088
0.0972179
0.116746
0.106238
0.0904675
0.0686249
0.0724008
0.0979942
0.116635
0.103413
0.0887406
0.0683791
0.073897
0.0998042
0.11859
0.0760164
0.0741591
0.0644952
0.0730858
0.100856
0.127405
0.13066
0.10524
0.0751266
0.0710674
0.0931273
0.109198
0.121586
0.10158
0.0745878
0.071087
0.0915186
0.105951
0.122743
0.103563
0.0771295
0.0674639
0.0764877
0.0774881
0.131106
0.103441
0.0743977
0.0773164
0.109034
0.135596
0.111885
0.0951539
0.0725963
0.0771687
0.104664
0.125519
0.108252
0.093105
0.072011
0.0780851
0.105895
0.125761
0.0797076
0.0778504
0.0679264
0.076542
0.105671
0.133669
0.140158
0.112163
0.0797562
0.0738294
0.0950708
0.110474
0.130402
0.109264
0.0801192
0.0697818
0.078969
0.0799414
0.138948
0.109486
0.0789918
0.0824633
0.115962
0.143891
0.118988
0.101825
0.0779226
0.0811649
0.110639
0.132697
0.114846
0.0989498
0.0765746
0.0818036
0.111292
0.132552
0.0826739
0.0813394
0.0717459
0.0792519
0.110262
0.140227
0.147627
0.117665
0.0830766
0.0768786
0.0992432
0.11552
0.137454
0.115058
0.0837277
0.072479
0.081969
0.0831015
0.144087
0.113563
0.0817121
0.0854777
0.121548
0.152248
0.120621
0.103619
0.0803011
0.0870735
0.118787
0.142189
0.0851464
0.0847963
0.075593
0.0836205
0.116064
0.147434
0.156752
0.125189
0.088048
0.0811057
0.104481
0.121105
0.144816
0.121034
0.0880258
0.0760792
0.0856531
0.0865247
0.150916
0.118284
0.0845596
0.0890719
0.127125
0.160404
0.125186
0.107492
0.0830617
0.0899994
0.124192
0.148626
0.0885418
0.0879668
0.0781448
0.0881498
0.122253
0.15528
0.167253
0.133669
0.0939661
0.0874704
0.111966
0.128747
0.153935
0.128315
0.0932545
0.0801301
0.090088
0.0907691
0.15749
0.124783
0.0908111
0.0946571
0.133956
0.168107
0.130334
0.112301
0.0872156
0.094459
0.130016
0.156613
0.0925664
0.0920562
0.0819587
0.0913738
0.12653
0.160554
0.17324
0.138284
0.0970732
0.0893889
0.114182
0.132278
0.16326
0.136173
0.0993314
0.0857195
0.0950161
0.0951319
0.161073
0.128929
0.09472
0.100855
0.144158
0.18003
0.094932
0.0943717
0.0844581
0.0956336
0.131383
0.165837
0.179916
0.143505
0.10085
0.0919572
0.117694
0.13593
0.167026
0.139003
0.100844
0.0865532
0.0970986
0.0977665
0.164101
0.130772
0.0961711
0.104866
0.150191
0.18763
0.0964854
0.0970565
0.0879723
0.100998
0.136019
0.169449
0.194259
0.154133
0.10804
0.0887651
0.098423
0.0983225
0.175606
0.139228
0.101213
0.107466
0.15381
0.194168
0.143667
0.124426
0.0973859
0.107696
0.149171
0.179306
0.103171
0.10253
0.0916692
0.101981
0.137548
0.171814
0.200362
0.160131
0.112231
0.0934089
0.102608
0.10227
0.177208
0.142645
0.106361
0.114395
0.163509
0.20551
0.103198
0.103084
0.0933363
0.103623
0.14029
0.175614
0.207623
0.164722
0.114551
0.093773
0.103452
0.103483
0.17739
0.141636
0.104765
0.116133
0.167399
0.210373
0.105907
0.106061
0.096118
0.107641
0.144705
0.181121
0.218048
0.173884
0.121238
0.0939295
0.097523
0.0926785
0.12331
0.115088
0.0981026
0.10425
0.144444
0.185398
0.224992
0.175139
0.11881
0.0956653
0.104741
0.103643
0.182203
0.145714
0.108384
0.123811
0.179926
0.227883
0.0927502
0.0979659
0.0960255
0.105745
0.122874
0.130193
0.19164
0.150404
0.109519
0.123539
0.183304
0.236773
0.0933755
0.0977808
0.0938653
0.101267
0.118769
0.127735
0.192468
0.148437
0.106046
0.128926
0.191376
0.243556
0.0921904
0.0986801
0.0975481
0.10634
0.123602
0.130015
0.190397
0.148195
0.10716
0.127481
0.190705
0.24661
0.0911705
0.0965585
0.0940587
0.0994194
0.110762
0.114089
0.130677
0.120024
0.100956
0.118338
0.158352
0.195742
0.248844
0.190442
0.125816
0.0907372
0.093766
0.0890269
0.103877
0.102306
0.0926167
0.0916482
0.100321
0.102542
0.107748
0.105635
0.0937469
0.0924205
0.111837
0.119876
0.175587
0.13614
0.0996681
0.124346
0.189989
0.250018
0.0842128
0.0896131
0.0874977
0.0867853
0.0961576
0.0967339
0.0918258
0.0881588
0.0776453
0.0764602
0.0875605
0.0900366
0.0868231
0.0833757
0.0707611
0.0662443
0.0796187
0.0837114
0.0806745
0.0760705
0.0619136
0.0590357
0.0737635
0.0788227
0.0768792
0.0715919
0.0563818
0.0541951
0.0698098
0.0755557
0.0741779
0.0681581
0.0522473
0.0505939
0.066764
0.0731452
0.0721033
0.0654652
0.0490945
0.0477265
0.0642455
0.0712085
0.070341
0.0632155
0.0465691
0.0453363
0.0620021
0.0695326
0.0686063
0.0609657
0.0442921
0.0433432
0.0599911
0.0678677
0.0670747
0.059069
0.0424801
0.0416974
0.0582036
0.066397
0.0656602
0.0573845
0.0409848
0.0403397
0.0566174
0.0650342
0.0643467
0.0558915
0.0397542
0.0392277
0.0552141
0.0637671
0.063125
0.0545729
0.0387522
0.0383273
0.0539759
0.0625879
0.0619864
0.0534104
0.0379451
0.0376065
0.0528864
0.0614883
0.0609262
0.0523907
0.0373035
0.0370376
0.0519334
0.0604658
0.05994
0.0514999
0.0368003
0.0365939
0.0511013
0.0595144
0.0590235
0.0507228
0.03641
0.0362518
0.0503758
0.0586319
0.0581747
0.0500444
0.0361112
0.0359924
0.0497413
0.0578159
0.0573911
0.0494499
0.0358866
0.0357991
0.0491841
0.0570632
0.056669
0.0489276
0.0357219
0.0356598
0.0486953
0.0563709
0.0560059
0.0484693
0.0356047
0.0355626
0.048266
0.0557365
0.0554001
0.048067
0.0355249
0.0354976
0.0478888
0.0551582
0.0548484
0.0477127
0.0354728
0.0354571
0.0475562
0.0546329
0.0543492
0.0474034
0.0354474
0.0354407
0.047265
0.0541586
0.053898
0.0471306
0.0354413
0.0354403
0.0470077
0.0537304
0.053493
0.0468883
0.0354448
0.0354462
0.0467794
0.0533468
0.0531286
0.0466729
0.0354528
0.0354558
0.0465765
0.0530017
0.0528031
0.0464824
0.0354629
0.0354655
0.0463969
0.0526936
0.0525105
0.0463129
0.0354727
0.0354753
0.0462375
0.0524162
0.0522496
0.0461631
0.0354818
0.035483
0.0460965
0.0521695
0.0520144
0.0460299
0.0354893
0.0354909
0.0459717
0.0519466
0.051806
0.0459136
0.0354964
0.0354962
0.0458626
0.0517504
0.0516194
0.0458107
0.0355005
0.0355001
0.0457658
0.0515726
0.0514532
0.0457205
0.0355033
0.0355014
0.0456811
0.0514155
0.0513035
0.0456405
0.0355038
0.035502
0.0456059
0.0512728
0.0511701
0.0455702
0.0355039
0.035501
0.0455395
0.0511466
0.051049
0.0455068
0.0355026
0.0355
0.0454793
0.0510307
0.0509405
0.0454502
0.0355009
0.0354971
0.0454255
0.0509279
0.0508412
0.0453986
0.0354977
0.0354942
0.0453765
0.0508324
0.0507522
0.0453527
0.0354943
0.0354899
0.0453331
0.0507479
0.0506702
0.0453107
0.0354893
0.0354852
0.0452929
0.0506687
0.0505966
0.0452735