/*--------------------------------*- C++ -*----------------------------------*\
| =========                 |                                                 |
| \\      /  F ield         | OpenFOAM: The Open Source CFD Toolbox           |
|  \\    /   O peration     | Version:  v2006                                 |
|   \\  /    A nd           | Website:  www.openfoam.com                      |
|    \\/     M anipulation  |                                                 |
\*---------------------------------------------------------------------------*/
FoamFile
{
    version     2.0;
    format      ascii;
    class       volScalarField;
    location    "0.106";
    object      nut;
}
// * * * * * * * * * * * * * * * * * * * * * * * * * * * * * * * * * * * * * //

dimensions      [0 2 -1 0 0 0 0];


internalField   nonuniform List<scalar> 
16277
(
23.7614
16.9275
52.7196
12.0756
17.6051
9.33526
3.72936
1.52022
0.819555
0.553205
0.435056
0.375117
0.33924
0.313177
0.291244
0.271529
0.253602
0.237484
0.223189
0.210616
0.19957
0.18982
0.181145
0.173357
0.166308
0.159884
0.153997
0.148581
0.143581
0.138955
0.134666
0.130681
0.126975
0.123524
0.120308
0.11731
0.114515
0.111909
0.109482
0.107221
0.105119
0.103166
0.101356
0.0996828
0.09814
0.0967235
0.0954289
0.0942529
0.0931931
0.0922472
0.0914142
0.0906931
0.0900841
0.0895873
0.0892026
0.0889339
0.0887833
0.088755
0.0888533
0.0890804
0.0894437
0.0899509
0.090611
0.091435
0.0924352
0.0936264
0.0950264
0.0966568
0.0985447
0.100726
0.103246
0.106166
0.109566
0.113538
0.118172
0.12353
0.129617
0.136387
0.1439
0.152816
0.165441
0.188325
0.238293
0.359165
0.668943
1.40644
2.48344
2.6559
1.57379
1.03962
0.511858
0.233376
0.126891
0.0598644
0.0141836
0.00255185
8.45544e-05
7.33876e-05
0.00119942
0.00552393
0.00304385
0.000777232
6.42809e-05
5.75594e-05
0.000708652
0.0025597
0.0020425
0.000609132
5.31903e-05
4.9764e-05
0.000590343
0.00193701
0.00167605
0.000531765
4.68455e-05
4.48783e-05
0.000522631
0.00163262
0.00148599
0.000487043
4.29386e-05
4.18902e-05
0.000489988
0.00147089
0.00137593
0.000463934
4.06089e-05
3.99201e-05
0.000468105
0.00136752
0.00129543
0.000447125
3.89747e-05
3.84985e-05
0.000451261
0.00129167
0.00123209
0.000433465
3.77597e-05
3.74143e-05
0.000437483
0.00123092
0.0011793
0.000421821
3.68143e-05
3.65545e-05
0.000425823
0.0011798
0.00113385
0.000411597
3.60471e-05
3.58423e-05
0.000415614
0.00113545
0.00109377
0.000402367
3.53965e-05
3.52295e-05
0.000406336
0.00109609
0.00105777
0.000393854
3.48288e-05
3.46883e-05
0.000397773
0.00106061
0.00102507
0.000385932
3.43204e-05
3.41987e-05
0.000389809
0.0010283
0.000995103
0.000378524
3.38557e-05
3.37477e-05
0.000382367
0.000998661
0.000967438
0.00037157
3.34241e-05
3.33266e-05
0.000375375
0.000971297
0.000941811
0.00036501
3.30186e-05
3.29292e-05
0.000368776
0.000945927
0.000917993
0.000358798
3.26339e-05
3.25509e-05
0.000362527
0.000922336
0.000895815
0.000352903
3.22662e-05
3.21883e-05
0.000356602
0.000900357
0.000875123
0.000347311
3.19127e-05
3.18392e-05
0.000350982
0.000879828
0.000855753
0.000341998
3.15714e-05
3.15017e-05
0.000345639
0.000860583
0.000837546
0.000336933
3.12405e-05
3.11741e-05
0.000340541
0.000842464
0.000820359
0.00033209
3.09184e-05
3.08548e-05
0.000335662
0.000825337
0.000804069
0.000327439
3.06037e-05
3.05424e-05
0.000330973
0.000809083
0.00078857
0.000322955
3.02948e-05
3.02353e-05
0.000326448
0.000793598
0.000773764
0.000318612
2.99902e-05
2.99322e-05
0.00032206
0.000778787
0.00075957
0.000314386
2.96888e-05
2.96317e-05
0.000317786
0.000764574
0.000745918
0.000310258
2.93892e-05
2.93327e-05
0.000313608
0.000750889
0.000732744
0.000306211
2.90902e-05
2.90339e-05
0.000309509
0.00073767
0.000719993
0.000302228
2.87908e-05
2.87344e-05
0.000305474
0.000724868
0.000707619
0.000298299
2.84898e-05
2.8433e-05
0.000301492
0.00071244
0.000695593
0.000294414
2.81864e-05
2.81289e-05
0.000297554
0.000700356
0.000683886
0.000290565
2.78796e-05
2.78212e-05
0.000293656
0.000688594
0.00067248
0.000286751
2.75687e-05
2.75093e-05
0.000289802
0.000677136
0.000661363
0.000282972
2.7253e-05
2.71927e-05
0.000286017
0.000665977
0.000650536
0.000279243
2.69322e-05
2.68711e-05
0.000282271
0.000655115
0.000639995
0.000275548
2.6606e-05
2.6544e-05
0.000278573
0.000644547
0.000629744
0.000271902
2.62742e-05
2.62114e-05
0.000274936
0.000634285
0.0006198
0.00026832
2.59366e-05
2.58732e-05
0.000271379
0.000624352
0.000610198
0.000264824
2.55936e-05
2.55301e-05
0.000267926
0.00061479
0.000600984
0.00026144
2.52458e-05
2.51828e-05
0.000264612
0.000605737
0.000592257
0.000258211
2.48945e-05
2.48328e-05
0.000261483
0.000597274
0.000584095
0.000255185
2.45415e-05
2.44822e-05
0.000258589
0.00058941
0.000576568
0.000252416
2.41892e-05
2.41339e-05
0.00025599
0.000582282
0.000569823
0.00024997
2.38408e-05
2.37912e-05
0.000253761
0.000576049
0.000564036
0.000247929
2.35002e-05
2.34592e-05
0.000251988
0.000570897
0.000559399
0.000246396
2.31721e-05
2.31443e-05
0.000250711
0.00056702
0.000556136
0.000245443
2.28668e-05
2.28483e-05
0.000249832
0.000564564
0.000554315
0.000244845
2.25962e-05
2.25805e-05
0.000249371
0.000563811
0.000554214
0.000244737
2.23598e-05
2.23464e-05
0.000249399
0.000564774
0.000555809
0.000245155
2.21769e-05
2.21544e-05
0.000249899
0.000567345
0.000559036
0.000246088
2.20458e-05
2.20164e-05
0.000250805
0.000571305
0.000563589
0.000247298
2.19201e-05
2.19333e-05
0.000251938
0.000576547
0.0005694
0.00024858
2.18386e-05
2.18883e-05
0.00025306
0.000582868
0.000576191
0.000249886
2.18043e-05
2.1898e-05
0.000254002
0.000589534
0.00058311
0.000251018
2.18286e-05
2.19528e-05
0.000254781
0.000595926
0.00058963
0.00025184
2.18979e-05
2.20459e-05
0.000255527
0.000601755
0.000595579
0.000252498
2.20057e-05
2.21747e-05
0.000256122
0.000606889
0.000600856
0.000253103
2.21487e-05
2.23345e-05
0.000256662
0.000611278
0.000605357
0.000253438
2.23204e-05
2.25161e-05
0.000257064
0.000614995
0.000608949
0.000253657
2.2513e-05
2.27137e-05
0.000257336
0.000617889
0.000611468
0.000253772
2.272e-05
2.29202e-05
0.000257477
0.00062033
0.00061322
0.000253816
2.29341e-05
2.3129e-05
0.000257535
0.000621817
0.000614011
0.000253663
2.3149e-05
2.33345e-05
0.000257513
0.000622297
0.00061335
0.000253244
2.33588e-05
2.35312e-05
0.000257113
0.000621523
0.000611914
0.000252693
2.35568e-05
2.37122e-05
0.00025657
0.000619921
0.000609867
0.000252077
2.37372e-05
2.38736e-05
0.000255945
0.000617614
0.000607233
0.00025144
2.38967e-05
2.40132e-05
0.000255261
0.000614645
0.000604077
0.000250803
2.40331e-05
2.41296e-05
0.000254553
0.000611117
0.000600496
0.000250181
2.41456e-05
2.42231e-05
0.000253838
0.000607149
0.000596564
0.000249577
2.42349e-05
2.42953e-05
0.000253118
0.000602801
0.000592356
0.000248982
2.4303e-05
2.43457e-05
0.000252391
0.0005982
0.000587899
0.000248387
2.43521e-05
2.43815e-05
0.000251656
0.000593477
0.000583345
0.000247781
2.43865e-05
2.44045e-05
0.000250909
0.000588699
0.000578747
0.000247148
2.44072e-05
2.44171e-05
0.000250144
0.000583957
0.0005741
0.000246443
2.44131e-05
2.44188e-05
0.000249344
0.000579213
0.000569436
0.00024565
2.44047e-05
2.44098e-05
0.000248522
0.000574466
0.00056479
0.000244859
2.43915e-05
2.43961e-05
0.000247706
0.000569737
0.000560174
0.00024408
2.43741e-05
2.43783e-05
0.000246897
0.000565036
0.000555559
0.000243288
2.43505e-05
2.43524e-05
0.000246052
0.000560328
0.000550875
0.00024241
2.43181e-05
2.43188e-05
0.000245102
0.000555569
0.000546142
0.000241469
2.4282e-05
2.42819e-05
0.000244131
0.000550812
0.00054144
0.000240501
2.42427e-05
2.42407e-05
0.000243127
0.000546087
0.000536794
0.00023949
2.41993e-05
2.41971e-05
0.000242107
0.000541431
0.00053224
0.000238478
2.41432e-05
2.41615e-05
0.000241121
0.000536905
0.000527369
0.000237468
2.40873e-05
2.41152e-05
0.000239889
0.000532631
0.000523301
0.000235779
2.39973e-05
2.41448e-05
0.000240011
0.000531226
0.000524702
0.000239676
2.40825e-05
2.44768e-05
0.000240089
0.000530485
0.000555625
0.000252469
2.46585e-05
2.62694e-05
0.000236756
0.000540151
0.000824862
0.000344149
2.9629e-05
3.19801e-05
0.000178473
0.00040972
0.0010107
0.00231591
0.0043292
0.00617196
0.00743294
0.00977004
0.0112622
0.012601
0.0133549
0.0137154
0.013614
0.0130083
0.012146
0.010763
0.00940697
0.00735112
0.00642308
0.0046738
0.00349686
0.00237518
0.00135014
0.000619757
0.000225769
9.38645e-05
1.8119e-05
1.1822e-05
8.71524e-05
0.000204512
0.000193896
8.28616e-05
1.13817e-05
1.09317e-05
7.97598e-05
0.000183455
0.000183977
7.85647e-05
1.08108e-05
1.07392e-05
7.81424e-05
0.000181145
0.000181237
7.73624e-05
1.06298e-05
1.06223e-05
7.73321e-05
0.000181004
0.000181511
7.73688e-05
1.06363e-05
1.06382e-05
7.74784e-05
0.000181927
0.000182204
7.76108e-05
1.06557e-05
1.06621e-05
7.77132e-05
0.000182745
0.000183032
7.78748e-05
1.06743e-05
1.06911e-05
7.8007e-05
0.000183592
0.000183894
7.81351e-05
1.06847e-05
1.07047e-05
7.83033e-05
0.000184478
0.0001848
7.84039e-05
1.07098e-05
1.07304e-05
7.85841e-05
0.000185411
0.000185716
7.86695e-05
1.07317e-05
1.07348e-05
7.89082e-05
0.000186386
0.000186695
7.89933e-05
1.0761e-05
1.07634e-05
7.92037e-05
0.000187362
0.000187673
7.93179e-05
1.07742e-05
1.07806e-05
7.95689e-05
0.000188372
0.000188726
7.96351e-05
1.0804e-05
1.08098e-05
7.98813e-05
0.000189425
0.000189754
7.99897e-05
1.08202e-05
1.08232e-05
8.02195e-05
0.000190481
0.000190817
8.03318e-05
1.08511e-05
1.08516e-05
8.05469e-05
0.000191559
0.000191912
8.07048e-05
1.08658e-05
1.08717e-05
8.09523e-05
0.00019267
0.000193016
8.10395e-05
1.08952e-05
1.09019e-05
8.13101e-05
0.000193775
0.000194138
8.14287e-05
1.09128e-05
1.09173e-05
8.16897e-05
0.000194936
0.000195306
8.18609e-05
1.09391e-05
1.09579e-05
8.20495e-05
0.000196116
0.000196496
8.22103e-05
1.09628e-05
1.09696e-05
8.25082e-05
0.000197314
0.00019769
8.26495e-05
1.09878e-05
1.101e-05
8.28835e-05
0.000198503
0.000198885
8.30182e-05
1.10127e-05
1.10202e-05
8.33373e-05
0.000199727
0.000200114
8.34921e-05
1.10406e-05
1.10622e-05
8.37249e-05
0.000200947
0.000201335
8.38809e-05
1.10664e-05
1.10732e-05
8.41983e-05
0.000202172
0.000202558
8.43424e-05
1.10925e-05
1.11155e-05
8.45955e-05
0.000203415
0.000203819
8.47458e-05
1.11189e-05
1.11281e-05
8.50827e-05
0.000204673
0.00020506
8.52206e-05
1.11463e-05
1.11688e-05
8.54764e-05
0.000205905
0.000206256
8.56125e-05
1.11726e-05
1.11792e-05
8.59331e-05
0.000207074
0.000207405
8.60469e-05
1.11956e-05
1.12183e-05
8.62895e-05
0.00020818
0.000208525
8.63923e-05
1.12195e-05
1.12242e-05
8.66883e-05
0.000209316
0.000209634
8.67932e-05
1.12421e-05
1.12604e-05
8.69684e-05
0.000210329
0.000210542
8.7007e-05
1.12585e-05
1.12618e-05
8.72324e-05
0.000211157
0.000211369
8.71879e-05
1.12811e-05
1.12821e-05
8.73615e-05
0.000211897
0.000212096
8.73322e-05
1.12875e-05
1.12851e-05
8.74102e-05
0.000212563
0.000212665
8.72995e-05
1.13027e-05
1.12955e-05
8.72879e-05
0.000212958
0.000212974
8.71059e-05
1.12939e-05
1.12825e-05
8.70025e-05
0.000213115
0.000212995
8.67273e-05
1.12842e-05
1.12849e-05
8.64521e-05
0.000213005
0.000212762
8.61034e-05
1.127e-05
1.1254e-05
8.57785e-05
0.000212694
0.000212235
8.53008e-05
1.12514e-05
1.12484e-05
8.48125e-05
0.000212219
0.000211587
8.4192e-05
1.12303e-05
1.12079e-05
8.36313e-05
0.000211286
0.000210337
8.27974e-05
1.12096e-05
1.11852e-05
8.20711e-05
0.000209973
0.000209121
8.12303e-05
1.11732e-05
1.11695e-05
8.06247e-05
0.000209192
0.000208073
7.97088e-05
1.11813e-05
1.1188e-05
7.87674e-05
0.000207531
0.000206299
7.7754e-05
1.11844e-05
1.12043e-05
7.70234e-05
0.000206405
0.000206206
7.63449e-05
1.12507e-05
1.13191e-05
7.57714e-05
0.000206761
0.000206233
7.49633e-05
1.13764e-05
1.14671e-05
7.44415e-05
0.000207148
0.000207812
7.34831e-05
1.1556e-05
1.16661e-05
7.30894e-05
0.000210398
0.00021384
7.41154e-05
1.17962e-05
1.19159e-05
7.44166e-05
0.000216572
0.000218146
7.39926e-05
1.19458e-05
1.20321e-05
7.26384e-05
0.000221458
0.000225068
7.65323e-05
1.22026e-05
1.23208e-05
7.42657e-05
0.000228151
0.00023106
7.60956e-05
1.25224e-05
1.26699e-05
7.71055e-05
0.000236803
0.000238479
7.88709e-05
1.28845e-05
1.31888e-05
8.30524e-05
0.000246161
0.000247136
8.51379e-05
1.34809e-05
1.37344e-05
8.85784e-05
0.000253075
0.000255179
9.15906e-05
1.42324e-05
1.52896e-05
0.000106186
0.0002663
0.000265369
0.000111942
1.14597e-05
8.76892e-06
2.72558e-05
7.48166e-05
0.000207745
6.45024e-05
1.03912e-05
1.09088e-05
5.76724e-05
0.000190792
0.000200484
5.97387e-05
1.11595e-05
1.13289e-05
5.63038e-05
0.000191414
0.000206174
6.05579e-05
1.16514e-05
1.1996e-05
5.99356e-05
0.00020356
0.000224382
6.87492e-05
1.24466e-05
1.29007e-05
6.82624e-05
0.000219997
0.000240399
7.92758e-05
1.33751e-05
1.40678e-05
8.14634e-05
0.000241895
0.000270606
9.85137e-05
1.55556e-05
1.18492e-05
0.000108313
0.000277316
7.45369e-05
2.54365e-05
9.37039e-06
1.12872e-05
6.92883e-05
0.000232111
0.00022709
6.4614e-05
1.22568e-05
1.30848e-05
8.50428e-05
0.000281133
0.000286773
8.61073e-05
1.36371e-05
1.44306e-05
0.000100539
0.000319394
0.000328382
0.000107244
1.54045e-05
1.72187e-05
0.000128032
0.000359093
0.000347759
0.000138953
1.34743e-05
1.01938e-05
3.15573e-05
9.16663e-05
0.000283282
8.34053e-05
1.20144e-05
1.30268e-05
7.77421e-05
0.000277429
0.000319076
9.62178e-05
1.39558e-05
1.49167e-05
9.62888e-05
0.00031463
0.000356451
0.000122928
1.71914e-05
1.36291e-05
0.000139777
0.000358435
9.69236e-05
3.06523e-05
1.0026e-05
1.25962e-05
8.74867e-05
0.000320431
0.000330413
9.23798e-05
1.42435e-05
1.66662e-05
0.000132344
0.000427021
0.000446898
0.000153846
1.93354e-05
1.58176e-05
0.000177161
0.000453031
0.000125444
3.62484e-05
1.06294e-05
1.38915e-05
0.000118453
0.000399691
0.000397195
0.000114716
1.61823e-05
2.02269e-05
0.000170377
0.000503404
0.000512243
0.000197093
1.6758e-05
1.11348e-05
4.06626e-05
0.000155389
0.000517745
0.00015227
1.60939e-05
2.03212e-05
0.000161224
0.000557349
0.000773548
0.00027214
2.77762e-05
2.31403e-05
0.000290189
0.000743574
0.000262756
6.89545e-05
1.50981e-05
2.69111e-05
0.000281932
0.000808668
0.000808883
0.000302163
2.51423e-05
1.71837e-05
7.82698e-05
0.000319855
0.00111912
0.000372442
3.72826e-05
3.67994e-05
0.000429012
0.00121591
0.000553384
0.000152849
2.33833e-05
3.72133e-05
0.000497392
0.00144977
0.000957683
0.000317521
2.47803e-05
4.59961e-05
0.000559824
0.00112919
0.000968597
0.000468337
3.78189e-05
3.83138e-05
0.000446466
0.00106245
0.00136305
0.000492829
4.39634e-05
6.07692e-05
0.000920483
0.00227245
0.000506514
0.000157504
3.45619e-05
3.53831e-05
0.000441703
0.00101215
0.000313059
0.00011189
2.46913e-05
2.67928e-05
0.000273485
0.000656261
0.000560422
0.000199983
2.69672e-05
1.44842e-05
5.09043e-05
0.00016036
0.000380382
0.00020034
1.75937e-05
1.6779e-05
6.58554e-05
0.000171256
0.000417309
0.000183606
1.91558e-05
2.04613e-05
0.000149839
0.000379109
0.000123045
4.612e-05
1.35103e-05
1.60311e-05
0.000144687
0.000326387
0.000300005
0.000121704
1.81744e-05
1.26464e-05
3.97812e-05
0.000100675
0.000278327
0.000124303
1.46485e-05
1.68371e-05
0.000107947
0.000256115
8.87573e-05
3.70166e-05
1.22245e-05
1.3773e-05
0.000109943
0.00024569
0.000222444
9.69069e-05
1.61965e-05
1.2024e-05
3.42257e-05
7.91917e-05
0.000216369
9.88738e-05
1.30473e-05
1.56618e-05
8.74079e-05
0.000197367
7.17371e-05
3.23063e-05
1.18783e-05
1.26889e-05
9.24731e-05
0.000195335
0.000176379
8.10577e-05
1.50931e-05
1.15767e-05
3.03079e-05
6.60002e-05
0.000178236
8.51324e-05
1.21169e-05
1.47624e-05
7.5357e-05
0.000162181
6.35043e-05
3.00339e-05
1.16179e-05
1.21163e-05
8.61315e-05
0.000173144
0.000146046
6.90528e-05
1.52539e-05
1.277e-05
5.4611e-05
0.000119127
4.74099e-05
2.13271e-05
1.0251e-05
1.00755e-05
5.76218e-05
0.000117216
0.00011233
5.40145e-05
1.30468e-05
1.07023e-05
2.24375e-05
4.58009e-05
0.0001104
5.63446e-05
1.01767e-05
1.28829e-05
5.12799e-05
0.000101669
4.27727e-05
2.10035e-05
1.01969e-05
9.5753e-06
5.14879e-05
9.68047e-05
9.32239e-05
4.94804e-05
1.25043e-05
1.04864e-05
2.09513e-05
4.07856e-05
9.35403e-05
5.04112e-05
9.85381e-06
1.25049e-05
4.71734e-05
8.71788e-05
3.84038e-05
2.00115e-05
1.01903e-05
9.49117e-06
4.67287e-05
8.4835e-05
8.11669e-05
4.46262e-05
1.23213e-05
1.00441e-05
1.94872e-05
3.66127e-05
7.94999e-05
4.44338e-05
9.12228e-06
1.20994e-05
4.1695e-05
7.59297e-05
3.5192e-05
1.95831e-05
9.93967e-06
8.8784e-06
4.08983e-05
7.23254e-05
6.98195e-05
3.84229e-05
1.18475e-05
9.70884e-06
1.79703e-05
3.13038e-05
6.26011e-05
4.35201e-05
8.46886e-06
1.10482e-05
2.21505e-05
3.65014e-05
8.26145e-05
4.80532e-05
1.00067e-05
1.26388e-05
4.38515e-05
7.63087e-05
3.68695e-05
2.11847e-05
1.03015e-05
9.39708e-06
4.57222e-05
7.62719e-05
7.27427e-05
4.26875e-05
1.2378e-05
1.03102e-05
2.126e-05
3.61026e-05
7.60728e-05
4.53915e-05
9.39802e-06
1.22852e-05
4.20226e-05
7.11197e-05
3.5007e-05
2.11517e-05
1.02294e-05
9.26244e-06
4.26806e-05
6.82647e-05
6.45477e-05
3.88243e-05
1.23847e-05
1.03725e-05
2.11063e-05
3.33544e-05
6.40075e-05
4.03588e-05
9.14772e-06
1.20293e-05
3.66021e-05
5.98893e-05
2.93231e-05
1.93047e-05
9.7301e-06
8.33346e-06
3.91924e-05
5.26198e-05
3.20241e-05
2.15852e-05
1.09901e-05
9.75704e-06
4.0143e-05
6.35023e-05
5.75808e-05
3.60519e-05
1.24357e-05
1.0136e-05
2.10729e-05
3.07337e-05
5.72932e-05
3.7365e-05
9.00708e-06
1.19727e-05
3.44685e-05
5.20125e-05
2.78382e-05
1.99332e-05
9.87616e-06
8.3833e-06
3.67314e-05
4.77581e-05
3.01821e-05
2.15891e-05
1.11131e-05
9.68379e-06
3.82016e-05
5.79713e-05
5.22781e-05
3.43311e-05
1.2287e-05
1.00777e-05
2.13039e-05
2.92005e-05
5.39924e-05
3.60123e-05
8.97522e-06
1.19309e-05
3.27384e-05
4.9179e-05
2.67196e-05
1.99651e-05
9.75347e-06
8.33915e-06
3.43264e-05
4.39255e-05
2.82964e-05
2.11435e-05
1.11148e-05
9.55478e-06
3.53767e-05
5.32806e-05
4.81118e-05
3.22204e-05
1.22136e-05
1.00456e-05
2.1227e-05
2.72259e-05
4.86201e-05
3.31329e-05
8.95414e-06
1.18798e-05
3.05934e-05
4.42924e-05
2.52507e-05
1.99922e-05
1.006e-05
8.50462e-06
3.24103e-05
3.88773e-05
2.60002e-05
2.13074e-05
1.11152e-05
9.35095e-06
3.12372e-05
4.76735e-05
4.25239e-05
2.87638e-05
1.20151e-05
9.71155e-06
2.01943e-05
2.44616e-05
3.83486e-05
3.17446e-05
8.15821e-06
1.09872e-05
2.12309e-05
2.58837e-05
4.68394e-05
3.13199e-05
9.28816e-06
1.21365e-05
2.88577e-05
4.21291e-05
2.45826e-05
2.06683e-05
9.96682e-06
8.39707e-06
3.10512e-05
3.77354e-05
2.59132e-05
2.19021e-05
1.09973e-05
9.17551e-06
3.12829e-05
4.65267e-05
4.15351e-05
2.88634e-05
1.20051e-05
9.96374e-06
2.08877e-05
2.45558e-05
3.74287e-05
3.18394e-05
8.27886e-06
1.10627e-05
2.2193e-05
2.57222e-05
4.54462e-05
3.02863e-05
9.33663e-06
1.21681e-05
2.82035e-05
4.09685e-05
2.4277e-05
2.11453e-05
9.90951e-06
8.28619e-06
3.13015e-05
3.68197e-05
2.56236e-05
2.21976e-05
1.10749e-05
9.30895e-06
3.07455e-05
4.49995e-05
4.00089e-05
2.83638e-05
1.2082e-05
1.01798e-05
2.1202e-05
2.41215e-05
3.50701e-05
3.14901e-05
8.41434e-06
1.08995e-05
2.29836e-05
2.54288e-05
3.87374e-05
2.96909e-05
8.77032e-06
1.13773e-05
2.31288e-05
2.67908e-05
4.56369e-05
3.04132e-05
9.5365e-06
1.212e-05
2.83647e-05
4.07491e-05
2.46819e-05
2.1808e-05
9.89658e-06
8.24711e-06
3.14333e-05
3.64836e-05
2.57661e-05
2.33266e-05
1.11477e-05
9.35501e-06
3.01724e-05
4.4149e-05
3.94395e-05
2.81978e-05
1.21917e-05
1.02357e-05
2.18985e-05
2.42888e-05
3.46943e-05
3.12686e-05
8.54977e-06
1.10863e-05
2.35744e-05
2.55672e-05
3.80781e-05
2.9727e-05
8.97676e-06
1.13509e-05
2.36026e-05
2.6729e-05
4.4828e-05
2.99727e-05
9.3987e-06
1.21664e-05
2.82181e-05
4.00498e-05
2.46289e-05
2.25386e-05
9.91212e-06
8.22774e-06
3.1307e-05
3.58547e-05
2.65301e-05
2.44266e-05
1.1175e-05
8.95866e-06
3.06058e-05
3.9094e-05
2.77035e-05
2.49331e-05
1.14545e-05
9.55787e-06
3.06728e-05
4.58663e-05
4.08809e-05
2.88719e-05
1.23702e-05
1.01509e-05
2.31255e-05
2.53896e-05
3.60039e-05
3.263e-05
8.41407e-06
1.11271e-05
2.49995e-05
2.69129e-05
3.9223e-05
3.103e-05
8.95759e-06
1.14838e-05
2.5359e-05
2.79959e-05
4.58605e-05
3.09603e-05
9.57459e-06
1.23306e-05
2.92531e-05
4.10357e-05
2.5753e-05
2.39002e-05
1.00963e-05
8.43858e-06
3.2572e-05
3.69076e-05
2.76706e-05
2.57342e-05
1.13591e-05
9.18984e-06
3.15779e-05
3.99639e-05
2.87209e-05
2.60776e-05
1.1525e-05
9.53349e-06
3.13962e-05
4.62325e-05
4.13631e-05
2.94762e-05
1.22343e-05
9.95268e-06
2.35956e-05
2.55748e-05
3.64224e-05
3.21025e-05
8.4158e-06
1.13451e-05
2.52393e-05
2.71889e-05
3.88053e-05
3.0783e-05
9.13205e-06
1.15888e-05
2.58334e-05
2.81065e-05
4.46894e-05
3.08736e-05
9.60679e-06
1.24037e-05
2.91414e-05
4.02023e-05
2.54487e-05
2.3946e-05
1.01072e-05
8.42768e-06
3.20831e-05
3.61434e-05
2.72981e-05
2.54857e-05
1.12994e-05
8.93528e-06
3.07046e-05
3.84978e-05
2.86568e-05
2.6129e-05
1.13808e-05
9.05386e-06
3.1132e-05
4.01029e-05
2.94928e-05
2.7684e-05
1.15697e-05
9.65166e-06
3.2062e-05
4.61831e-05
4.11919e-05
3.04564e-05
1.23661e-05
1.02772e-05
2.51406e-05
2.66615e-05
3.65002e-05
3.38352e-05
8.63119e-06
1.13386e-05
2.647e-05
2.79422e-05
3.88729e-05
3.10942e-05
9.14872e-06
1.15462e-05
2.67381e-05
2.92286e-05
4.02834e-05
3.18153e-05
9.1609e-06
1.16158e-05
2.82216e-05
2.98866e-05
4.60208e-05
3.21635e-05
9.63731e-06
1.2379e-05
3.05542e-05
4.12917e-05
2.68298e-05
2.55572e-05
1.01649e-05
8.44494e-06
3.38276e-05
3.74191e-05
2.8708e-05
2.70645e-05
1.14951e-05
9.21667e-06
3.1737e-05
3.97623e-05
2.99928e-05
2.7666e-05
1.16381e-05
9.28145e-06
3.25187e-05
4.11189e-05
3.07667e-05
2.92012e-05
1.17639e-05
9.80394e-06
3.31828e-05
4.69217e-05
4.21563e-05
3.15274e-05
1.25151e-05
1.01607e-05
2.6179e-05
2.76759e-05
3.77773e-05
3.44268e-05
8.51232e-06
1.15624e-05
2.75598e-05
2.93044e-05
3.9876e-05
3.2151e-05
9.18403e-06
1.16374e-05
2.78055e-05
3.02222e-05
4.08487e-05
3.23654e-05
9.23768e-06
1.18223e-05
2.92848e-05
3.08142e-05
4.62171e-05
3.27904e-05
9.7836e-06
1.25907e-05
3.15965e-05
4.18292e-05
2.82774e-05
2.70737e-05
1.05733e-05
8.93536e-06
3.48937e-05
3.74254e-05
2.95348e-05
2.83772e-05
1.16019e-05
9.19542e-06
3.24244e-05
3.99174e-05
3.06389e-05
2.84816e-05
1.16305e-05
9.18433e-06
3.27246e-05
4.10233e-05
3.15046e-05
2.92886e-05
1.16679e-05
9.34463e-06
3.40565e-05
4.21178e-05
3.2007e-05
3.0847e-05
1.17871e-05
9.79749e-06
3.42636e-05
4.74149e-05
4.2968e-05
3.26686e-05
1.25336e-05
1.02048e-05
2.70345e-05
2.87639e-05
3.78746e-05
3.4779e-05
8.56571e-06
1.1733e-05
2.84242e-05
3.01701e-05
4.01589e-05
3.26824e-05
9.38069e-06
1.18162e-05
2.90418e-05
3.1222e-05
4.09869e-05
3.27673e-05
9.26852e-06
1.17359e-05
2.97819e-05
3.18055e-05
4.23785e-05
3.4341e-05
9.39497e-06
1.18842e-05
3.16265e-05
3.25328e-05
4.81437e-05
3.50271e-05
9.87048e-06
1.27059e-05
3.36076e-05
4.3732e-05
2.99951e-05
2.87697e-05
1.04617e-05
8.6397e-06
3.69716e-05
3.95696e-05
3.14975e-05
3.01222e-05
1.16885e-05
9.25207e-06
3.43445e-05
4.20244e-05
3.2631e-05
3.0308e-05
1.1811e-05
9.38202e-06
3.44654e-05
4.29103e-05
3.33345e-05
3.12066e-05
1.18001e-05
9.40319e-06
3.60529e-05
4.41324e-05
3.40014e-05
3.29087e-05
1.19397e-05
9.99785e-06
3.62496e-05
4.94227e-05
4.50383e-05
3.46679e-05
1.27221e-05
1.04215e-05
2.93127e-05
3.09662e-05
3.9838e-05
3.69892e-05
8.76454e-06
1.1892e-05
3.06395e-05
3.23949e-05
4.20936e-05
3.47859e-05
9.50003e-06
1.20128e-05
3.08802e-05
3.33941e-05
4.27502e-05
3.43807e-05
9.48214e-06
1.19734e-05
3.16118e-05
3.37306e-05
4.39887e-05
3.5912e-05
9.60168e-06
1.20865e-05
3.36809e-05
3.43332e-05
4.93977e-05
3.68794e-05
1.00178e-05
1.29034e-05
3.55256e-05
4.53838e-05
3.18206e-05
3.05353e-05
1.05969e-05
8.80704e-06
3.8556e-05
4.09128e-05
3.33468e-05
3.18386e-05
1.1908e-05
9.49466e-06
3.58036e-05
4.31874e-05
3.44824e-05
3.20756e-05
1.20621e-05
9.54571e-06
3.57717e-05
4.42606e-05
3.51492e-05
3.27932e-05
1.19771e-05
9.59862e-06
3.73294e-05
4.53154e-05
3.5554e-05
3.45663e-05
1.20817e-05
1.00402e-05
3.76227e-05
5.04094e-05
4.6152e-05
3.62052e-05
1.29484e-05
1.0578e-05
3.08235e-05
3.24396e-05
4.0623e-05
3.84077e-05
8.82493e-06
1.20651e-05
3.20737e-05
3.37637e-05
4.24696e-05
3.54484e-05
9.58558e-06
1.21578e-05
3.25208e-05
3.4654e-05
4.33559e-05
3.57014e-05
9.60622e-06
1.20437e-05
3.30351e-05
3.51042e-05
4.44558e-05
3.66059e-05
9.58955e-06
1.20193e-05
3.43167e-05
3.60561e-05
4.6135e-05
3.87584e-05
9.60298e-06
1.21479e-05
3.61105e-05
3.66447e-05
5.19508e-05
3.90616e-05
1.0116e-05
1.31408e-05
3.78841e-05
4.7852e-05
3.44393e-05
3.3364e-05
1.09087e-05
9.09045e-06
4.12858e-05
4.32841e-05
3.58658e-05
3.46434e-05
1.20706e-05
9.62654e-06
3.82803e-05
4.55017e-05
3.69523e-05
3.47055e-05
1.21801e-05
9.66121e-06
3.8632e-05
4.68394e-05
3.79182e-05
3.57777e-05
1.21106e-05
9.68214e-06
4.04967e-05
4.85173e-05
3.87093e-05
3.75692e-05
1.2253e-05
1.02515e-05
4.06491e-05
5.37812e-05
4.93085e-05
3.92804e-05
1.32731e-05
1.09323e-05
3.42909e-05
3.55651e-05
4.42427e-05
4.24023e-05
9.07642e-06
1.22216e-05
3.55974e-05
3.71847e-05
4.58633e-05
3.92247e-05
9.78042e-06
1.23244e-05
3.54592e-05
3.78441e-05
4.64876e-05
3.88078e-05
9.82881e-06
1.22375e-05
3.62048e-05
3.83189e-05
4.76886e-05
4.01417e-05
9.77589e-06
1.23999e-05
3.81063e-05
3.87584e-05
5.30436e-05
4.06584e-05
1.03233e-05
1.3527e-05
3.97129e-05
4.9013e-05
3.63655e-05
3.5576e-05
1.1176e-05
9.25129e-06
4.31483e-05
4.46096e-05
3.78318e-05
3.68658e-05
1.23145e-05
9.83085e-06
4.02401e-05
4.66943e-05
3.88851e-05
3.68284e-05
1.23739e-05
9.80154e-06
4.02125e-05
4.78165e-05
3.96433e-05
3.78754e-05
1.23352e-05
9.90805e-06
4.17856e-05
4.94792e-05
4.04919e-05
3.9899e-05
1.25996e-05
1.0481e-05
4.23751e-05
5.48662e-05
5.05208e-05
4.13155e-05
1.36272e-05
1.12176e-05
3.68367e-05
3.77009e-05
4.59892e-05
4.48647e-05
9.26349e-06
1.23861e-05
3.78563e-05
3.92417e-05
4.75248e-05
4.11566e-05
9.90372e-06
1.25819e-05
3.79232e-05
4.00205e-05
4.8246e-05
4.11148e-05
9.94786e-06
1.2582e-05
3.8918e-05
4.06212e-05
4.9552e-05
4.23088e-05
1.00145e-05
1.28669e-05
4.10965e-05
4.11777e-05
5.50395e-05
4.31299e-05
1.07765e-05
1.40573e-05
4.23998e-05
5.10769e-05
3.91082e-05
3.88494e-05
1.15656e-05
9.61474e-06
4.61962e-05
4.73405e-05
4.07633e-05
4.00341e-05
1.26225e-05
1.00628e-05
4.38121e-05
4.96548e-05
4.19627e-05
4.029e-05
1.28117e-05
1.00667e-05
4.38026e-05
5.10963e-05
4.24795e-05
4.18478e-05
1.30052e-05
1.09199e-05
4.37164e-05
5.59683e-05
5.17131e-05
4.29605e-05
1.433e-05
1.16719e-05
3.89896e-05
3.96229e-05
4.68376e-05
4.60654e-05
9.60302e-06
1.28476e-05
4.01522e-05
4.09726e-05
4.8796e-05
4.3281e-05
1.02857e-05
1.31329e-05
4.0614e-05
4.21145e-05
5.00573e-05
4.32828e-05
1.03383e-05
1.33284e-05
4.2628e-05
4.24983e-05
5.49031e-05
4.37914e-05
1.10244e-05
1.45367e-05
4.34088e-05
5.11927e-05
4.04262e-05
4.05629e-05
1.19306e-05
9.87982e-06
4.72833e-05
4.76261e-05
4.18577e-05
4.16988e-05
1.29955e-05
1.02323e-05
4.40604e-05
4.97918e-05
4.30245e-05
4.19148e-05
1.32134e-05
1.0495e-05
4.4419e-05
5.12755e-05
4.38446e-05
4.39199e-05
1.35225e-05
1.12066e-05
4.51235e-05
5.59581e-05
5.21542e-05
4.47107e-05
1.48706e-05
1.20151e-05
4.10646e-05
4.15603e-05
4.77021e-05
4.77259e-05
9.7643e-06
1.32697e-05
4.23599e-05
4.25939e-05
4.98507e-05
4.4699e-05
1.05696e-05
1.35889e-05
4.30684e-05
4.39796e-05
5.14579e-05
4.5029e-05
1.07116e-05
1.38805e-05
4.54215e-05
4.45666e-05
5.65036e-05
4.59723e-05
1.15379e-05
1.51886e-05
4.57162e-05
5.29464e-05
4.28045e-05
4.33276e-05
1.23219e-05
1.0068e-05
4.96773e-05
4.95883e-05
4.4356e-05
4.48196e-05
1.3611e-05
1.08231e-05
4.71238e-05
5.2315e-05
4.60903e-05
4.55511e-05
1.40222e-05
1.11576e-05
4.73316e-05
5.42691e-05
4.71399e-05
4.80101e-05
1.44444e-05
1.19865e-05
4.85418e-05
5.93476e-05
5.56501e-05
4.84515e-05
1.58348e-05
1.28637e-05
4.56841e-05
4.5524e-05
5.18452e-05
5.22561e-05
1.04822e-05
1.40032e-05
4.70514e-05
4.67552e-05
5.43724e-05
4.90533e-05
1.11652e-05
1.47683e-05
4.88291e-05
4.79889e-05
5.93255e-05
4.89223e-05
1.22794e-05
1.61274e-05
4.85138e-05
5.58356e-05
4.59146e-05
4.66578e-05
1.31943e-05
1.06209e-05
5.26211e-05
5.22874e-05
4.74766e-05
4.82547e-05
1.43433e-05
1.14463e-05
5.00583e-05
5.5258e-05
4.9489e-05
4.94648e-05
1.49549e-05
1.19115e-05
5.07209e-05
5.77825e-05
5.10017e-05
5.25927e-05
1.54867e-05
1.28565e-05
5.27175e-05
6.33933e-05
5.95657e-05
5.28113e-05
1.69908e-05
1.38841e-05
5.09607e-05
4.99465e-05
5.64086e-05
5.733e-05
1.12672e-05
1.50732e-05
5.24262e-05
5.17127e-05
5.94884e-05
5.39934e-05
1.20642e-05
1.58415e-05
5.42882e-05
5.28367e-05
6.50438e-05
5.39426e-05
1.29515e-05
1.73267e-05
5.41562e-05
6.15014e-05
5.19742e-05
5.33744e-05
1.4605e-05
1.19885e-05
5.87339e-05
5.83943e-05
5.37305e-05
5.52525e-05
1.59472e-05
1.2779e-05
5.63584e-05
6.2026e-05
5.5505e-05
5.75357e-05
1.67966e-05
1.40056e-05
5.68359e-05
6.79754e-05
6.42423e-05
5.71847e-05
1.85265e-05
1.51498e-05
5.60467e-05
5.46826e-05
6.14082e-05
6.17909e-05
1.2272e-05
1.67196e-05
5.88609e-05
5.63467e-05
6.77763e-05
5.77271e-05
1.39413e-05
1.86321e-05
5.77368e-05
6.45476e-05
5.49745e-05
5.57714e-05
1.51715e-05
1.21149e-05
6.2443e-05
6.12317e-05
5.66156e-05
5.76468e-05
1.65189e-05
1.32352e-05
5.82318e-05
6.39661e-05
5.7876e-05
5.99473e-05
1.75797e-05
1.46394e-05
5.85884e-05
6.94273e-05
6.60906e-05
5.94231e-05
1.94719e-05
1.59548e-05
5.88887e-05
5.73867e-05
6.32537e-05
6.36853e-05
1.30727e-05
1.77511e-05
6.21645e-05
5.88861e-05
6.94426e-05
6.02236e-05
1.48737e-05
1.98963e-05
6.05032e-05
6.64633e-05
5.84087e-05
6.01885e-05
1.64182e-05
1.32604e-05
6.4946e-05
6.40323e-05
5.95362e-05
6.29864e-05
1.78942e-05
1.46067e-05
6.05489e-05
6.99821e-05
6.70848e-05
6.1162e-05
1.9962e-05
1.67025e-05
6.06391e-05
5.89776e-05
6.44591e-05
6.48228e-05
1.36842e-05
1.86367e-05
6.43504e-05
6.06198e-05
7.02187e-05
6.15726e-05
1.54557e-05
2.08296e-05
6.21163e-05
6.73912e-05
6.01484e-05
6.24101e-05
1.71273e-05
1.3836e-05
6.62635e-05
6.51946e-05
6.15467e-05
6.55873e-05
1.88024e-05
1.55142e-05
6.25866e-05
7.13368e-05
6.85886e-05
6.31155e-05
2.09387e-05
1.72285e-05
6.33374e-05
6.12775e-05
6.64627e-05
6.85713e-05
1.34508e-05
1.88781e-05
6.67823e-05
6.27738e-05
7.22282e-05
6.31521e-05
1.58978e-05
2.17126e-05
6.38809e-05
6.94867e-05
6.29215e-05
6.63658e-05
1.81364e-05
1.4856e-05
6.87892e-05
6.80031e-05
6.50558e-05
7.05498e-05
2.01347e-05
1.67768e-05
6.6734e-05
7.50762e-05
7.22534e-05
6.74924e-05
2.24601e-05
1.85358e-05
6.90365e-05
6.57298e-05
7.08757e-05
7.1946e-05
1.49751e-05
2.04663e-05
7.32931e-05
6.76268e-05
7.84973e-05
6.98601e-05
1.68462e-05
2.24684e-05
6.98271e-05
7.57148e-05
6.88518e-05
7.48034e-05
1.96363e-05
1.69404e-05
7.44233e-05
7.7735e-05
7.53013e-05
7.4201e-05
2.35497e-05
1.99679e-05
7.41642e-05
7.01268e-05
7.58868e-05
7.63751e-05
1.64219e-05
2.22144e-05