/*--------------------------------*- C++ -*----------------------------------*\
| =========                 |                                                 |
| \\      /  F ield         | OpenFOAM: The Open Source CFD Toolbox           |
|  \\    /   O peration     | Version:  v2006                                 |
|   \\  /    A nd           | Website:  www.openfoam.com                      |
|    \\/     M anipulation  |                                                 |
\*---------------------------------------------------------------------------*/
FoamFile
{
    version     2.0;
    format      ascii;
    class       volScalarField;
    location    "0.106";
    object      T;
}
// * * * * * * * * * * * * * * * * * * * * * * * * * * * * * * * * * * * * * //

dimensions      [0 0 0 1 0 0 0];


internalField   nonuniform List<scalar> 
16277
(
298.839
298.839
298.839
298.839
298.839
298.839
298.839
298.84
298.841
298.844
298.847
298.851
298.854
298.858
298.862
298.866
298.87
298.874
298.879
298.883
298.888
298.893
298.898
298.903
298.909
298.914
298.92
298.926
298.932
298.938
298.945
298.951
298.957
298.964
298.971
298.978
298.985
298.992
298.999
299.006
299.013
299.021
299.028
299.035
299.043
299.05
299.058
299.065
299.073
299.08
299.088
299.095
299.102
299.11
299.117
299.124
299.131
299.139
299.146
299.152
299.159
299.166
299.172
299.179
299.185
299.191
299.197
299.203
299.209
299.214
299.22
299.225
299.23
299.235
299.24
299.244
299.248
299.252
299.256
299.26
299.264
299.268
299.271
299.273
299.273
299.274
299.273
299.273
299.273
299.273
299.273
299.274
299.276
299.279
299.285
299.291
299.316
299.322
299.29
299.281
299.281
299.292
299.331
299.341
299.295
299.282
299.282
299.298
299.346
299.353
299.301
299.284
299.286
299.304
299.355
299.359
299.308
299.289
299.291
299.311
299.361
299.363
299.314
299.293
299.296
299.316
299.364
299.365
299.319
299.298
299.3
299.321
299.365
299.366
299.324
299.303
299.305
299.326
299.366
299.367
299.328
299.307
299.309
299.33
299.367
299.368
299.332
299.312
299.314
299.333
299.368
299.369
299.336
299.316
299.318
299.337
299.369
299.369
299.34
299.321
299.322
299.341
299.37
299.371
299.343
299.325
299.327
299.344
299.371
299.372
299.347
299.329
299.331
299.348
299.372
299.374
299.35
299.334
299.335
299.351
299.374
299.376
299.354
299.338
299.34
299.355
299.376
299.378
299.358
299.343
299.345
299.359
299.378
299.38
299.362
299.348
299.35
299.363
299.381
299.383
299.366
299.353
299.355
299.368
299.384
299.386
299.371
299.358
299.36
299.372
299.387
299.39
299.376
299.363
299.365
299.377
299.391
299.393
299.38
299.369
299.371
299.382
299.394
299.397
299.386
299.375
299.377
299.387
299.398
299.402
299.391
299.381
299.383
299.393
299.403
299.406
299.397
299.387
299.389
299.398
299.407
299.411
299.403
299.394
299.396
299.404
299.412
299.416
299.409
299.401
299.403
299.41
299.418
299.422
299.415
299.408
299.41
299.417
299.423
299.427
299.422
299.415
299.417
299.424
299.429
299.433
299.429
299.423
299.425
299.431
299.435
299.44
299.436
299.431
299.433
299.438
299.442
299.446
299.444
299.439
299.442
299.446
299.448
299.453
299.452
299.447
299.45
299.454
299.455
299.46
299.46
299.456
299.459
299.462
299.463
299.468
299.468
299.465
299.468
299.47
299.47
299.476
299.476
299.474
299.477
299.479
299.478
299.484
299.485
299.484
299.487
299.488
299.486
299.492
299.494
299.493
299.496
299.497
299.494
299.5
299.503
299.503
299.506
299.506
299.502
299.508
299.512
299.513
299.515
299.515
299.511
299.517
299.521
299.522
299.525
299.524
299.519
299.525
299.53
299.532
299.534
299.533
299.527
299.533
299.539
299.541
299.543
299.541
299.535
299.541
299.547
299.55
299.552
299.549
299.543
299.548
299.555
299.558
299.56
299.557
299.55
299.555
299.562
299.565
299.567
299.564
299.556
299.561
299.568
299.572
299.574
299.569
299.562
299.566
299.573
299.578
299.579
299.574
299.567
299.569
299.577
299.582
299.582
299.578
299.57
299.572
299.58
299.585
299.585
299.58
299.572
299.573
299.581
299.586
299.585
299.58
299.573
299.573
299.58
299.585
299.583
299.578
299.572
299.571
299.578
299.583
299.58
299.575
299.569
299.568
299.574
299.579
299.574
299.57
299.564
299.563
299.568
299.573
299.568
299.563
299.559
299.557
299.561
299.565
299.56
299.556
299.553
299.551
299.554
299.557
299.551
299.548
299.546
299.543
299.545
299.548
299.541
299.539
299.538
299.536
299.536
299.538
299.531
299.53
299.53
299.528
299.527
299.528
299.521
299.52
299.523
299.521
299.518
299.518
299.511
299.511
299.515
299.513
299.509
299.508
299.501
299.503
299.508
299.506
299.5
299.498
299.492
299.495
299.501
299.5
299.492
299.489
299.483
299.487
299.495
299.493
299.485
299.481
299.476
299.481
299.489
299.488
299.479
299.474
299.469
299.475
299.484
299.483
299.473
299.468
299.464
299.47
299.48
299.479
299.468
299.462
299.459
299.465
299.476
299.475
299.464
299.458
299.455
299.462
299.472
299.471
299.461
299.455
299.453
299.459
299.469
299.467
299.458
299.452
299.451
299.456
299.465
299.464
299.456
299.45
299.449
299.454
299.463
299.462
299.453
299.448
299.445
299.452
299.461
299.46
299.451
299.445
299.443
299.45
299.459
299.458
299.45
299.444
299.444
299.449
299.456
299.455
299.449
299.444
299.444
299.448
299.454
299.454
299.448
299.444
299.443
299.447
299.453
299.454
299.447
299.442
299.439
299.445
299.454
299.455
299.445
299.438
299.436
299.444
299.455
299.455
299.444
299.436
299.435
299.443
299.455
299.454
299.443
299.435
299.434
299.442
299.452
299.449
299.441
299.434
299.434
299.441
299.448
299.446
299.441
299.435
299.436
299.441
299.445
299.445
299.442
299.438
299.439
299.441
299.444
299.444
299.442
299.439
299.438
299.441
299.445
299.447
299.442
299.438
299.438
299.44
299.446
299.447
299.442
299.437
299.436
299.439
299.445
299.443
299.439
299.435
299.437
299.439
299.441
299.431
299.431
299.433
299.434
299.441
299.434
299.428
299.433
299.431
299.436
299.43
299.424
299.422
299.421
299.422
299.423
299.423
299.424
299.424
299.425
299.427
299.428
299.43
299.432
299.434
299.437
299.44
299.444
299.449
299.461
299.46
299.459
299.464
299.509
299.445
299.461
299.511
299.456
299.472
299.496
299.51
299.478
299.437
299.455
299.478
299.493
299.487
299.476
299.463
299.472
299.471
299.473
299.476
299.472
299.469
299.467
299.468
299.466
299.467
299.469
299.468
299.472
299.471
299.468
299.465
299.47
299.472
299.475
299.477
299.478
299.483
299.478
299.474
299.473
299.476
299.481
299.483
299.478
299.475
299.471
299.471
299.47
299.471
299.472
299.472
299.473
299.474
299.473
299.469
299.471
299.471
299.475
299.475
299.474
299.474
299.475
299.474
299.474
299.476
299.475
299.482
299.48
299.476
299.471
299.478
299.481
299.484
299.479
299.472
299.471
299.478
299.483
299.479
299.474
299.468
299.472
299.478
299.483
299.476
299.474
299.473
299.473
299.476
299.478
299.483
299.479
299.474
299.473
299.475
299.477
299.479
299.478
299.477
299.477
299.478
299.478
299.476
299.476
299.475
299.477
299.479
299.484
299.485
299.479
299.476
299.476
299.478
299.484
299.481
299.477
299.475
299.474
299.475
299.475
299.475
299.475
299.475
299.476
299.476
299.474
299.476
299.479
299.479
299.48
299.481
299.479
299.482
299.481
299.479
299.48
299.483
299.486
299.487
299.483
299.479
299.478
299.482
299.485
299.481
299.481
299.479
299.476
299.481
299.481
299.485
299.483
299.473
299.476
299.484
299.485
299.486
299.485
299.476
299.479
299.49
299.494
299.495
299.49
299.481
299.484
299.487
299.488
299.488
299.486
299.484
299.48
299.483
299.488
299.481
299.479
299.478
299.48
299.479
299.476
299.471
299.476
299.477
299.477
299.476
299.47
299.478
299.484
299.483
299.487
299.487
299.479
299.483
299.493
299.491
299.492
299.498
299.499
299.506
299.498
299.483
299.48
299.495
299.506
299.503
299.49
299.477
299.467
299.48
299.494
299.479
299.47
299.461
299.462
299.468
299.471
299.464
299.47
299.474
299.477
299.475
299.465
299.473
299.483
299.48
299.485
299.49
299.486
299.496
299.493
299.484
299.475
299.493
299.502
299.476
299.485
299.474
299.468
299.474
299.461
299.445
299.466
299.47
299.475
299.465
299.441
299.472
299.473
299.462
299.445
299.476
299.487
299.464
299.47
299.452
299.467
299.47
299.461
299.485
299.479
299.481
299.465
299.491
299.507
299.526
299.493
299.429
299.427
299.479
299.502
299.511
299.473
299.422
299.454
299.461
299.483
299.466
299.457
299.459
299.438
299.46
299.477
299.503
299.464
299.426
299.43
299.469
299.518
299.529
299.475
299.434
299.435
299.475
299.53
299.524
299.467
299.428
299.413
299.447
299.504
299.497
299.437
299.399
299.39
299.437
299.508
299.524
299.449
299.386
299.393
299.458
299.514
299.503
299.46
299.383
299.384
299.453
299.477
299.451
299.438
299.402
299.415
299.43
299.437
299.119
299.844
299.305
299.429
299.459
299.54
299.55
299.455
299.385
299.392
299.462
299.587
299.637
299.475
299.417
299.463
299.499
299.636
299.628
299.508
299.48
299.387
299.526
299.703
299.747
299.548
299.292
299.357
299.516
299.617
299.468
299.479
299.449
299.465
299.452
299.391
299.363
299.438
299.467
299.38
299.941
298.764
299.313
299.445
299.619
299.667
299.447
299.271
299.476
299.485
299.547
299.463
299.489
299.52
299.516
299.482
299.439
299.452
299.472
299.518
299.515
299.463
299.458
299.458
299.47
299.531
299.987
299.038
299.611
299.602
299.519
299.434
299.507
299.511
299.581
299.463
299.525
299.602
299.608
299.515
299.417
299.477
299.491
299.554
299.555
299.491
299.495
299.483
300.112
298.954
299.469
299.529
299.643
299.644
299.497
299.412
299.679
299.551
299.425
299.473
299.522
299.631
299.606
299.51
299.495
299.311
300.22
299.166
299.801
299.591
299.41
299.384
299.584
299.769
299.628
299.551
299.543
299.573
299.547
299.57
298.942
300.245
299.467
299.581
299.592
299.62
299.588
299.571
299.576
299.582
299.594
299.625
299.629
299.602
299.601
299.611
299.624
299.672
299.716
299.634
299.627
299.639
299.666
299.744
300.4
299.106
299.785
299.699
299.724
299.701
299.747
299.741
299.746
299.765
299.764
299.758
299.77
299.782
299.8
299.849
299.85
299.86
299.86
299.868
299.872
299.816
299.795
299.77
299.739
299.735
299.744
299.619
299.604
299.628
299.501
299.522
299.533
299.477
299.474
299.486
299.422
299.422
299.419
299.408
299.418
299.45
299.391
299.376
299.374
299.382
299.391
299.551
298.153
300.636
299.116
299.444
299.038
299.668
299.511
299.342
299.375
299.356
299.333
299.436
299.614
299.417
299.252
299.274
299.454
299.558
299.466
299.317
299.273
298.976
299.507
299.944
299.829
299.525
299.118
299.227
299.35
299.408
299.02
299.258
299.55
299.477
299.272
299.134
299.397
299.319
299.379
299.163
299.486
299.754
299.627
299.512
299.265
299.287
299.33
299.455
299.775
299.475
299.01
299.15
299.463
299.706
299.419
299.343
299.189
299.707
299.171
298.746
299.042
299.195
299.609
299.458
299.453
299.328
298.9
299.235
299.752
299.648
299.323
299.205
299.232
299.432
299.579
299.269
299.371
299.455
299.974
299.579
298.964
298.921
300.771
298.944
299.616
299.286
299.24
299.198
299.355
299.585
300.373
298.457
299.42
299.229
299.316
299.406
299.488
299.353
299.293
299.177
300.296
298.546
299.421
299.354
299.383
299.313
299.432
299.503
300.293
298.649
299.505
299.271
299.352
299.468
299.483
299.405
299.228
299.514
298.518
300.372
299.384
299.362
299.3
299.375
299.311
299.422
298.562
300.22
299.182
299.324
299.299
299.409
299.519
299.342
299.336
299.123
300.413
298.481
299.473
299.261
299.277
299.202
299.383
299.646
298.379
300.628
298.98
299.391
299.043
299.633
299.447
299.382
299.361
299.365
299.333
299.398
299.677
299.427
299.202
299.25
299.529
299.721
299.565
299.369
299.167
299.652
299.161
298.885
299
299.166
299.573
299.411
299.237
299.33
299.939
299.453
298.917
299.063
299.568
299.747
299.5
299.231
299.116
298.71
299.509
300.059
299.873
299.496
298.933
299.045
299.2
299.408
299.636
299.336
298.998
298.878
300.607
298.258
299.487
299.052
299.312
299.306
299.302
299.329
299.326
299.257
299.335
298.959
299.471
299.914
299.863
299.606
299.044
299.118
299.259
299.424
299.587
299.31
299.084
298.92
300.387
298.35
299.328
299.105
299.227
299.234
299.233
299.255
299.251
299.23
299.252
299.158
299.307
299.421
299.436
299.359
299.166
299.173
299.218
299.273
299.278
299.204
299.258
299.014
300.307
298.121
299.319
299.041
299.242
299.226
299.245
299.31
299.363
299.257
299.079
299.46
299.077
298.902
298.972
299.072
299.439
299.235
299.15
299.245
299.375
299.257
299.1
299.397
297.904
300.852
299.172
299.464
299.034
299.124
299.271
299.431
299.3
299.078
299.131
298.889
299.19
299.618
298.597
300.17
298.743
299.106
299.007
299.288
299.124
299.134
299.133
299.088
299.165
299.138
298.738
299.045
299.393
299.424
298.364
299.27
299.007
299.176
299.181
299.138
299.122
299.155
299.154
299.076
299.129
298.88
299.233
299.403
300.239
298.43
299.165
298.968
299.245
299.123
299.19
299.119
299.047
299.034
299.103
299.134
298.923
299
299.298
299.042
299.77
297.992
299.078
298.913
299.195
299.087
299.049
299.028
299.078
299.038
299.042
298.809
299.199
299.339
300.905
297.748
299.177
298.693
299.735
298.673
299.255
299.04
298.989
299.002
299.003
299.127
299.142
299.044
299.013
298.992
299.031
299.1
299.016
299.029
299.061
299.101
298.854
299.107
298.994
299.051
299.016
299.008
299.014
299.064
299.085
298.971
298.971
298.721
299.151
299.329
300.955
297.635
299.117
298.608
299.736
298.551
299.183
298.964
298.934
298.947
298.943
299.054
299.021
298.944
298.93
298.92
298.957
298.977
298.963
298.913
299.023
298.816
299.795
297.963
299.077
298.754
299.021
298.954
298.944
298.987
298.995
298.921
298.899
298.903
298.947
298.987
298.952
298.912
298.904
298.868
298.996
299.001
299.754
298.157
299.044
298.771
299.178
298.747
298.958
298.915
298.868
298.863
298.878
298.923
298.938
298.883
298.864
298.839
298.874
298.922
298.925
298.857
298.907
298.79
299.428
298.272
298.963
298.747
298.919
298.879
298.886
298.915
298.926
298.854
298.829
298.83
298.884
298.935
298.893
298.848
298.815
298.921
298.815
298.904
297.462
300.082
298.649
299.111
298.16
299.352
298.851
298.825
298.821
298.784
298.805
298.879
298.906
298.851
298.796
298.778
298.805
298.875
298.888
298.772
298.885
298.588
300.132
297.367
299.31
298.104
299.073
298.782
298.726
298.83
298.817
298.743
298.737
298.731
298.796
298.833
298.829
298.737
298.715
298.722
298.768
298.847
298.803
298.722
298.714
298.663
298.829
298.818
300.202
297.446
298.919
298.424
299.408
298.276
298.846
298.734
298.688
298.678
298.687
298.803
298.81
298.707
298.679
298.651
298.672
298.759
298.761
298.698
298.649
298.635
298.655
298.712
298.824
298.636
298.676
298.433
299.856
297.525
299.066
298.147
298.825
298.636
298.604
298.725
298.7
298.627
298.606
298.614
298.671
298.717
298.711
298.612
298.588
298.6
298.651
298.733
298.684
298.604
298.578
298.613
298.577
298.796
297.369
299.904
298.355
298.839
297.825
299.196
298.61
298.525
298.545
298.53
298.536
298.614
298.611
298.585
298.529
298.511
298.535
298.619
298.63
298.557
298.513
298.498
298.506
298.583
298.607
298.633
298.431
298.697
296.942
300.322
297.925
299.366
298.137
298.435
298.587
298.561
298.583
298.444
298.446
298.447
298.45
298.568
298.548
298.46
298.432
298.428
298.468
298.535
298.514
298.434
298.414
298.421
298.463
298.527
298.49
298.425
298.407
298.456
298.404
298.666
296.714
300.121
298.171
298.852
297.188
299.369
298.468
298.322
298.377
298.365
298.374
298.445
298.448
298.428
298.356
298.336
298.358
298.474
298.488
298.389
298.345
298.316
298.339
298.444
298.449
298.377
298.318
298.29
298.315
298.394
298.527
298.316
298.312
298.138
299.217
297.544
298.679
297.916
298.413
298.263
298.239
298.409
298.366
298.264
298.256
298.257
298.317
298.349
298.358
298.262
298.233
298.239
298.289
298.373
298.332
298.234
298.212
298.218
298.267
298.344
298.297
298.213
298.187
298.221
298.182
298.485
296.728
299.81
297.967
298.551
297.221
299.001
298.316
298.049
298.163
298.153
298.144
298.267
298.223
298.219
298.143
298.121
298.144
298.259
298.28
298.171
298.133
298.102
298.126
298.241
298.249
298.166
298.108
298.078
298.104
298.193
298.354
298.091
298.102
297.911
299.217
297.124
298.527
297.617
298.24
298.027
297.992
298.217
298.159
298.029
298.028
298.026
298.1
298.122
298.139
298.031
298.003
298.01
298.052
298.151
298.11
298.002
297.98
297.992
298.037
298.124
298.067
297.974
297.942
297.987
297.939
298.307
296.137
299.791
297.742
298.436
296.614
298.965
298.096
297.707
297.896
297.893
297.898
297.997
297.943
297.956
297.869
297.852
297.865
298.004
298
297.894
297.855
297.825
297.85
297.977
297.984
297.887
297.828
297.795
297.822
297.939
297.952
297.858
297.805
297.766
297.79
297.902
297.932
297.852
297.757
297.839
297.417
298.305
297.701
297.982
297.663
297.739
297.813
297.833
297.813
297.76
297.696
297.716
297.748
297.88
297.853
297.71
297.684
297.697
297.757
297.862
297.815
297.689
297.653
297.667
297.725
297.827
297.765
297.65
297.619
297.633
297.661
297.914
297.042
298.458
297.534
297.738
297.26
298.068
297.824
297.575
297.585
297.569
297.567
297.763
297.731
297.651
297.577
297.534
297.575
297.719
297.713
297.599
297.541
297.498
297.524
297.673
297.675
297.561
297.51
297.462
297.486
297.619
297.635
297.576
297.452
297.547
297.022
298.133
297.429
297.672
297.339
297.443
297.548
297.593
297.544
297.457
297.372
297.39
297.442
297.597
297.546
297.377
297.351
297.369
297.425
297.553
297.491
297.351
297.314
297.326
297.391
297.502
297.436
297.304
297.272
297.271
297.317
297.56
296.924
297.868
297.215
297.35
296.932
297.688
297.471
297.209
297.206
297.19
297.172
297.418
297.384
297.291
297.195
297.153
297.202
297.344
297.363
297.236
297.169
297.114
297.144
297.312
297.328
297.196
297.133
297.073
297.107
297.257
297.343
297.134
297.062
297.047
297.421
297.045
297.324
296.94
297.079
297.009
297.111
297.223
297.204
297
296.978
296.987
297.072
297.156
297.151
296.953
296.922
296.941
297.009
297.147
297.067
296.924
296.877
296.925
296.88
297.297
295.712
298.226
296.776
297.077
296.468
297.375
297.212
296.761
296.799
296.802
296.754
297.069
296.963
296.914
296.81
296.755
296.797
296.953
296.96
296.833
296.766
296.706
296.728
296.882
296.881
296.854
296.681
296.774
295.845
297.82
296.59
296.972
296.493
296.665
296.75
296.767
296.748
296.715
296.55
296.572
296.616
296.853
296.768
296.548
296.516
296.541
296.619
296.79
296.68
296.525
296.468
296.522
296.462
296.96
294.933
298.084
296.36
296.706
295.959
296.998
296.849
296.255
296.366
296.369
296.287
296.648
296.518
296.453
296.378
296.305
296.347
296.523
296.495
296.376
296.295
296.228
296.254
296.429
296.601
296.256
296.203
296.124
297.027
295.663
296.481
296.073
296.176
296.107
296.205
296.512
296.395
296.086
296.068
296.094
296.17
296.387
296.289
296.077
296.035
296.053
296.151
296.313
296.223
296.026
295.978
295.967
296.061
296.381
295.685
296.643
295.948
296.009
295.774
296.34
296.206
295.97
295.886
295.828
295.82
296.177
296.089
295.929
295.828
295.731
295.777
296.022
296.208
295.735
295.687
295.638
296.844
294.854
295.903
295.681
295.698
295.615
295.708
296.15
295.95
295.572
295.57
295.59
295.66
295.91
295.809
295.572
295.53
295.548
295.643
295.819
295.737
295.517
295.47
295.426
295.606
295.777
295.972
295.353
295.461
295.282
295.55
295.552
295.649
295.46
295.371
295.273
295.384
295.588
295.585
295.333
295.256
295.13
295.18
295.392
295.465
295.2
295.072
295.181
295.32
295.494
295.405
295.144
295.054
295.084
295.226
295.44
295.352
295.043
294.975
295.002
295.125
295.37
295.244
294.961
294.905
294.866
295.03
295.31
295.248
295.093
294.931
294.79
294.858
295.152
295.156
294.912
294.802
294.683
294.732
295.042
295.057
294.781
294.609
294.623
294.746
294.954
294.848
294.552
294.461
294.513
294.648
294.911
294.818
294.481
294.402
294.442
294.602
294.874
294.73
294.415
294.335
294.312
294.457
294.879
294.525
294.717
294.361
294.263
294.273
294.703
294.663
294.368
294.252
294.11
294.142
294.518
294.541
294.232
294.053
294.098
294.296
294.396
294.429
293.878
293.969
293.901
293.976
294.268
294.104
293.789
293.71
293.652
293.895
294.177
294.399
293.808
293.769
293.638
293.719
294.154
294.174
293.867
293.688
293.543
293.645
293.975
294.153
293.667
293.508
293.538
294.002
293.644
293.958
293.403
293.43
293.371
293.561
293.807
293.748
293.237
293.205
293.108
293.353
293.717
293.547
293.312
293.09
293.036
292.661
293.717
293.364
292.985
292.912
292.773
292.817
293.203
293.266
293.097
292.763
292.839
292.59
293.911
293.242
292.81
292.589
292.695
292.862
293.299
293.048
292.661
292.527
292.462
292.678
293.183
292.718
292.844
292.488
292.339
292.28
292.889
292.673
292.409
292.228
291.982
292.077
292.497
292.397
291.94
291.763
291.885
292.132
292.458
292.339
291.847
291.722
291.707
292.069
292.386
292.937
291.598
291.771
291.534
291.718
292.263
292.387
291.732
291.628
291.402
291.545
292.05
292.122
291.561
291.287
291.294
291.604
291.89
291.665
291.163
291.078
290.816
291.187
291.482
291.904
290.58
290.737
290.551
290.535
291.345
291.446
290.935
290.586
290.689
290.621
291.921
291.335
290.561
290.44
290.54
290.759
291.317
290.992
290.436
290.259
290.104
290.442
291.025
290.828
290.419
290.092
289.801
289.977
290.535
290.242
289.844
289.478
289.41
289.371
290.463
289.995
289.295
289.179
289.215
289.442
290.323
290.268
289.807
289.384
289.123
289.348
289.948
290.07
289.445
288.998
289.124
289.438
290.013
289.553
288.947
288.709
288.448
288.758
289.547
289.062
288.645
288.275
287.826
287.96
288.579
288.768
287.997
287.709
287.814
288.173
289.187
288.661
288.804
288.005
287.733
287.997
288.712
288.714
288.18
287.477
287.56
287.647
288.965
288.1
287.091
286.967
286.592
286.711
287.542
287.408
286.5
286.146
286.526
287.054
287.624
287.393
286.627
286.255
286.204
286.672
287.626
288.184
286.429
286.17
286.072
287.538
286.313
286.569
285.934
285.513
284.964
285.351
285.971
286.459
285.031
284.668
285.066
285.914
286.169
286.435
285.301
284.879
284.791
285.219
286.355
286.828
284.954
284.594
283.835
285.154
284.621
287.292
283.069
284.059
283.656
283.92
285.735
286.482
284.182
283.722
283.719
284.558
286.35
285.545
284.226
283.265
283.214
284.114
285.71
286.229
285.031
283.394
284.118
283.375
288.094
285.976
284.04
283.665
283.812
284.212
286.011
286.568
284.922
283.931
284.358
285.365
287.118
288.031
285.903
284.859
285.569
286.617
288.871
289.725
287.424
286.235
286.833
288.192
290.437
290.98
288.821
287.336
287.752
289.328
291.387
291.71
289.75
288.114
288.444
290.144
292.02
292.28
290.515
288.762
289.057
290.851
292.461
292.583
291.13
289.326
289.575
291.372
292.697
292.808
291.589
289.82
290.062
291.799
292.914
293.011
291.996
290.302
290.529
292.182
293.112
293.202
292.347
290.744
290.943
292.495
293.271
293.311
292.618
291.128
291.3
292.728
293.337
293.352
292.821
291.465
291.622
292.904
293.369
293.384
292.972
291.772
291.913
293.032
293.4
293.413
293.081
292.042
292.163
293.128
293.43
293.45
293.171
292.274
292.379
293.215
293.472
293.489
293.251
292.472
292.559
293.284
293.499
293.503
293.311
292.635
292.707
293.338
293.503
293.497
293.356
292.77
292.83
293.372
293.484
293.475
293.38
292.876
292.923
293.392
293.472
293.472
293.4
292.959
292.996
293.412
293.479
293.488
293.42
293.023
293.049
293.429
293.494
293.495
293.434
293.066
293.084
293.44
293.494
293.487
293.441
293.095
293.107
293.44
293.479
293.473
293.438
293.115
293.123
293.437
293.469
293.466
293.433
293.128
293.134
293.43
293.465
293.462
293.424
293.135
293.134
293.42
293.46
293.455
293.411
293.132
293.129
293.404
293.452
293.446
293.392
293.122
293.118
293.384
293.44
293.429
293.371
293.108
293.103
293.362
293.421
293.407
293.347
293.094
293.089
293.337
293.397
293.383
293.322
293.081
293.077
293.312
293.374
293.362
293.297
293.069
293.065
293.286
293.355
293.345
293.272
293.056
293.052
293.262
293.34
293.331
293.248
293.042
293.037
293.24
293.327
293.319
293.227
293.027
293.023
293.22
293.315
293.306
293.209
293.015
293.011
293.202
293.301
293.291
293.192
293.004
293.002
293.186
293.285
293.274
293.176
292.997
292.995
293.171
293.269
293.258
293.161
292.991
292.989
293.156
293.252
293.241
293.146
292.985
292.983
293.141
293.235
293.223
293.131
292.978
292.976
293.126
293.216
293.203
293.116
292.971
292.969
293.111
293.196
293.183
293.1
292.964
292.961
293.094
293.176
293.163
293.084
292.955
292.951
293.077
293.156
293.144
293.066
292.943
292.939
293.06
293.138
293.127
293.049
292.93
292.926
293.044
293.121
293.111
293.033
292.917
292.913
293.028
293.106
293.096
293.018
292.904
292.9
293.013
293.091
293.081
293.004
292.891
292.887
293
293.076
293.066
292.99
292.879
292.875
292.986
293.061
293.051
292.976
292.867
292.863
292.971
293.045
293.035
292.961
292.854
292.849
292.956
293.03
293.02
292.946
292.84
292.835
292.941
293.014
293.004
292.931
292.825
292.82
292.925
292.998
292.988
292.915
292.81
292.805
292.909
292.982
292.972
292.9
292.794
292.789
292.893
292.966
292.956
292.883
292.778
292.772
292.877
292.95
292.939
292.867
292.761
292.755
292.86
292.933
292.922
292.85
292.745
292.738
292.843
292.916
292.905
292.833
292.728
292.72
292.825
292.899
292.887
292.815
292.711
292.701
292.808
292.881
292.87
292.797
292.693
292.683
292.79
292.864
292.852
292.779
292.674
292.666
292.772
292.846
292.834
292.76
292.655
292.647
292.753
292.828
292.816
292.741
292.636
292.628
292.734
292.81
292.798
292.722
292.616
292.609
292.715
292.791
292.779
292.703
292.596
292.59
292.696
292.772
292.76
292.684
292.577
292.57
292.677
292.754
292.741
292.664
292.557
292.551
292.657
292.734
292.722
292.645
292.538
292.531
292.638
292.715
292.703
292.625
292.518
292.512
292.618
292.696
292.684
292.605
292.498
292.492
292.598
292.676
292.664
292.585
292.479
292.472
292.578
292.657
292.645
292.565
292.459
292.452
292.558
292.637
292.625
292.546
292.439
292.433
292.538
292.617
292.605
292.525
292.42
292.413
292.518
292.597
292.584
292.505
292.4
292.393
292.498
292.577
292.564
292.485
292.38
292.374
292.477
292.557
292.544
292.465
292.361
292.354
292.457
292.536
292.523
292.444
292.341
292.335
292.437
292.515
292.502
292.424
292.322
292.315
292.417
292.495
292.482
292.404
292.302
292.296
292.396
292.474
292.461
292.383
292.283
292.276
292.376
292.454
292.441
292.363
292.264
292.257
292.356
292.433
292.42
292.343
292.245
292.238
292.336
292.413
292.4
292.323
292.225
292.219
292.316
292.393
292.38
292.303
292.206
292.2
292.296
292.373
292.359
292.284
292.188
292.181
292.277
292.352
292.339
292.264
292.169
292.163
292.257
292.332
292.319
292.244
292.15
292.144
292.237
292.312
292.299
292.225
292.132
292.125
292.218
292.292
292.279
292.205
292.113
292.107
292.199
292.272
292.259
292.186
292.095
292.089
292.179
292.253
292.24
292.167
292.076
292.071
292.16
292.233
292.22
292.148
292.058
292.053
292.141
292.214
292.201
292.129
292.041
292.035
292.123
292.195
292.182
292.111
292.023
292.018
292.104
292.176
292.164
292.092
292.006
292
292.086
292.157
292.145
292.074
291.988
291.983
292.068
292.139
292.127
292.057
291.972
291.966
292.051
292.12
292.109
292.04
291.956
291.95
292.033
292.101
292.093
292.025
291.942
291.934
292.014
292.076
292.071
292.009
291.925
291.897
291.992
292.059
292.051
291.983
291.87
291.852
291.966
292.035
291.646
291.332
290.35
289.89
289.793
289.378
289.123
288.963
288.877
288.74
288.676
288.521
288.398
288.301
288.226
288.171
288.133
288.107
288.089
288.077
288.068
288.062
288.058
288.055
288.053
288.051
288.05
288.049
288.048
288.048
288.047
288.047
288.047
288.047
288.047
288.047
288.047
288.047
288.046
288.046
288.046
288.046
288.046
288.045
288.045
288.045
288.044
288.042
288.041
288.041
288.042
288.044
288.048
288.054
288.06
288.069
288.078
288.089
288.102
288.117
288.133
288.152
288.172
288.196
288.222
288.252
288.285
288.322
288.363
288.41
288.461
288.519
288.583
288.654
288.732
288.819
288.914
289.018
289.132
289.256
289.39
289.533
289.687
289.851
290.024
290.206
290.396
290.593
290.797
291.007
291.221
291.439
291.659
291.88
292.102
292.323
292.543
292.761
292.976
293.188
293.396
293.599
293.798
293.992
294.18
294.363
294.54
294.712
294.878
295.038
295.193
295.342
295.486
295.624
295.757
295.885
296.008
296.127
296.24
296.349
296.454
296.554
296.651
296.744
296.832
296.918
296.999
297.078
297.153
297.225
297.295
297.361
297.425
297.486
297.545
297.601
297.656
297.708
297.757
297.805
297.851
297.896
297.938
297.979
298.018
298.056
298.092
298.126
298.16
298.192
298.222
298.252
298.28
298.308
298.334
298.359
298.383
298.406
298.429
298.45
298.471
298.491
298.51
298.528
298.545
298.562
298.578
298.594
298.608
298.623
298.636
298.649
298.662
298.674
298.685
298.696
298.706
298.716
298.726
298.735
298.743
298.751
298.759
298.766
298.773
298.78
298.786
298.792
298.797
298.802
298.807
298.811
298.815
298.819
298.822
298.826
298.828
298.831
298.833
298.834
298.836
298.837
298.838
298.838
298.838
298.839
298.839
298.839
298.839
298.839
298.839
298.839
298.839
298.84
298.842
298.845
298.848
298.852
298.856
298.859
298.863
298.867
298.872
298.876
298.881
298.886
298.891
298.896
298.901
298.907
298.912
298.918
298.924
298.93
298.937
298.943
298.949
298.956
298.963
298.97
298.977
298.984
298.991
298.998
299.005
299.012
299.02
299.027
299.035
299.042
299.05
299.057
299.065
299.072
299.08
299.087
299.095
299.102
299.11
299.117
299.124
299.131
299.139
299.146
299.153
299.159
299.166
299.173
299.179
299.186
299.192
299.198
299.204
299.21
299.215
299.221
299.226
299.231
299.236
299.241
299.245
299.25
299.254
299.258
299.262
299.265
299.268
299.271
299.272
299.273
299.273
299.273
299.273
299.273
299.273
299.274
299.275
299.276
299.277
299.278
299.279
299.281
299.282
299.284
299.286
299.288
299.289
299.292
299.294
299.296
299.298
299.3
299.302
299.304
299.306
299.309
299.311
299.313
299.316
299.318
299.321
299.323
299.326
299.328
299.331
299.333
299.337
299.339
299.342
299.344
299.348
299.35
299.354
299.357
299.361
299.363
299.367
299.37
299.374
299.377
299.381
299.384
299.389
299.392
299.397
299.399
299.405
299.408
299.413
299.416
299.422
299.425
299.431
299.434
299.44
299.443
299.449
299.452
299.459
299.462
299.469
299.472
299.479
299.482
299.489
299.493
299.5
299.503
299.51
299.514
299.521
299.524
299.531
299.534
299.541
299.544
299.55
299.553
299.56
299.562
299.568
299.57
299.575
299.577
299.581
299.582
299.586
299.587
299.589
299.589
299.59
299.59
299.59
299.588
299.587
299.585
299.583
299.579
299.577
299.572
299.569
299.563
299.56
299.553
299.55
299.543
299.539
299.532
299.528
299.521