/*--------------------------------*- C++ -*----------------------------------*\
| =========                 |                                                 |
| \\      /  F ield         | OpenFOAM: The Open Source CFD Toolbox           |
|  \\    /   O peration     | Version:  v2006                                 |
|   \\  /    A nd           | Website:  www.openfoam.com                      |
|    \\/     M anipulation  |                                                 |
\*---------------------------------------------------------------------------*/
FoamFile
{
    version     2.0;
    format      ascii;
    class       volScalarField;
    location    "0.015";
    object      p;
}
// * * * * * * * * * * * * * * * * * * * * * * * * * * * * * * * * * * * * * //

dimensions      [1 -1 -2 0 0 0 0];


internalField   nonuniform List<scalar> 
12716
(
146545
146545
146545
146545
146545
146545
146545
146544
146544
146546
146551
146559
146569
146580
146592
146605
146617
146631
146644
146658
146673
146688
146703
146719
146736
146753
146770
146788
146806
146824
146842
146861
146880
146899
146918
146938
146957
146976
146995
147015
147034
147052
147071
147089
147107
147125
147142
147159
147175
147191
147207
147221
147236
147249
147263
147276
147288
147298
147305
147309
147310
147310
147309
147308
147308
147312
147321
147342
147378
147404
147420
147397
147395
147386
147381
147383
147385
147371
147371
147371
147359
147358
147358
147347
147347
147348
147338
147338
147337
147329
147329
147330
147323
147322
147322
147316
147316
147317
147312
147311
147311
147306
147306
147307
147303
147302
147302
147299
147299
147300
147297
147296
147296
147294
147294
147295
147293
147293
147292
147291
147292
147292
147292
147291
147291
147291
147291
147291
147292
147291
147291
147291
147292
147292
147294
147293
147293
147295
147295
147296
147298
147298
147298
147301
147301
147301
147305
147305
147304
147308
147309
147309
147314
147314
147313
147319
147319
147319
147325
147325
147325
147331
147331
147332
147339
147338
147338
147346
147346
147346
147355
147354
147354
147363
147363
147364
147373
147373
147373
147383
147383
147383
147394
147394
147393
147404
147405
147405
147417
147416
147416
147428
147428
147429
147442
147441
147441
147454
147454
147455
147469
147468
147468
147482
147482
147483
147498
147497
147497
147512
147512
147513
147528
147528
147528
147544
147544
147545
147562
147561
147561
147578
147578
147579
147597
147597
147596
147615
147615
147616
147636
147635
147635
147655
147655
147656
147677
147677
147676
147698
147698
147699
147722
147722
147721
147745
147745
147746
147771
147770
147770
147796
147796
147797
147824
147823
147823
147850
147851
147851
147880
147879
147879
147908
147909
147909
147940
147939
147939
147970
147970
147971
148003
148002
148002
148034
148035
148035
148069
148068
148068
148102
148102
148103
148138
148137
148137
148172
148173
148173
148210
148209
148209
148245
148246
148247
148284
148284
148283
148321
148322
148323
148362
148361
148360
148400
148400
148401
148441
148441
148440
148481
148481
148482
148524
148523
148522
148565
148565
148566
148609
148609
148608
148651
148652
148653
148697
148696
148695
148739
148740
148741
148785
148784
148783
148827
148827
148828
148871
148871
148870
148912
148913
148913
148953
148953
148952
148990
148991
148991
149025
149027
149027
149047
149047
149045
149048
149046
149046
149051
149052
149054
149066
149064
149063
149071
149071
149073
149082
149082
149082
149094
149094
149093
149108
149109
149109
149120
149120
149119
149131
149132
149132
149137
149137
149137
149141
149141
149140
149138
149138
149138
149138
149137
149137
149131
149131
149131
149132
149132
149132
149129
149129
149128
149135
149136
149136
149143
149142
149141
149153
149155
149156
149165
149164
149163
149173
149175
149176
149182
149181
149180
149185
149186
149187
149188
149188
149187
149188
149188
149189
149187
149187
149186
149184
149185
149185
149182
149182
149181
149178
149178
149179
149175
149174
149174
149171
149171
149171
149167
149167
149167
149163
149163
149163
149160
149160
149160
149156
149157
149157
149153
149153
149153
149149
149149
149150
149145
149145
149145
149140
149140
149140
149135
149135
149135
149129
149129
149130
149124
149124
149124
149119
149119
149119
149115
149115
149114
149110
149110
149110
149106
149106
149106
149102
149102
149103
149099
149098
149098
149094
149095
149095
149090
149090
149090
149086
149086
149086
149082
149082
149082
149077
149078
149078
149073
149073
149073
149069
149069
149069
149066
149066
149065
149062
149063
149063
149060
149060
149060
149057
149058
149058
149055
149055
149055
149053
149053
149053
149050
149050
149050
149046
149047
149047
149043
149043
149043
149039
149039
149039
149034
149034
149034
149030
149030
149030
149025
149025
149025
149021
149021
149021
149017
149017
149017
149013
149013
149013
149009
149009
149009
149006
149007
149006
149005
149005
149004
149004
149003
149003
149001
149002
148999
149001
148998
149000
148998
148999
148998
148999
148998
148998
148998
148999
148997
148998
148997
149001
149009
149012
149015
149027
149029
149019
148956
148950
148952
148987
148986
148986
148993
148992
148992
148998
148998
148998
148999
148999
148999
149003
149003
149003
149003
149003
149003
149007
149007
149007
149007
149007
149007
149010
149010
149011
149011
149011
149011
149014
149014
149014
149015
149014
149015
149018
149018
149018
149018
149018
149018
149021
149021
149021
149022
149022
149022
149025
149025
149025
149025
149025
149025
149029
149029
149029
149029
149029
149029
149033
149033
149033
149034
149034
149034
149037
149037
149038
149038
149038
149039
149042
149042
149042
149043
149043
149043
149047
149047
149047
149049
149049
149049
149052
149052
149052
149054
149054
149054
149057
149057
149057
149058
149058
149058
149062
149062
149062
149063
149063
149063
149066
149066
149066
149067
149067
149067
149070
149070
149070
149071
149071
149071
149074
149074
149074
149075
149075
149075
149078
149078
149078
149079
149079
149079
149082
149082
149082
149083
149083
149083
149087
149087
149087
149088
149088
149088
149092
149092
149092
149093
149093
149093
149097
149097
149097
149098
149098
149098
149102
149102
149102
149103
149103
149103
149107
149107
149107
149109
149109
149109
149112
149112
149112
149114
149114
149114
149117
149117
149117
149118
149118
149118
149122
149122
149122
149123
149123
149123
149126
149126
149126
149127
149127
149127
149130
149130
149130
149131
149131
149131
149134
149134
149134
149135
149135
149135
149138
149138
149138
149139
149138
149138
149141
149142
149142
149142
149142
149142
149145
149145
149146
149146
149146
149146
149149
149149
149149
149150
149150
149150
149153
149153
149153
149154
149154
149153
149155
149156
149156
149155
149155
149155
149155
149155
149156
149156
149155
149154
149159
149160
149160
149162
149161
149160
149163
149165
149166
149171
149170
149169
149178
149179
149180
149187
149186
149186
149194
149195
149195
149202
149202
149201
149211
149212
149212
149218
149217
149216
149226
149227
149228
149238
149238
149237
149249
149249
149249
149259
149259
149259
149267
149268
149269
149280
149279
149279
149291
149291
149292
149304
149304
149303
149319
149319
149319
149330
149330
149329
149344
149345
149345
149360
149360
149359
149374
149375
149375
149391
149389
149387
149411
149411
149412
149430
149431
149427
149426
149426
149428
149456
149457
149459
149477
149477
149476
149498
149499
149499
149520
149520
149519
149538
149541
149543
149556
149557
149559
149594
149598
149601
149628
149629
149623
149657
149663
149660
149690
149698
149691
149718
149729
149721
149747
149761
149747
149775
149795
149783
149818
149839
149807
149847
149885
149859
149900
149934
149896
149932
149985
149941
149982
150031
149980
150006
150060
150019
150051
150089
150032
150080
150126
150084
150116
150155
150105
150102
150168
150145
150170
150180
150119
150161
150203
150195
150218
150206
150148
150140
150197
150236
150246
150176
150113
150096
150158
150250
150247
150129
150071
150013
150068
150219
150152
149974
149912
149826
149848
150036
149809
149638
149630
149362
149355
149484
148875
148975
149106
148418
148274
148083
146641
147538
147782
146813
146568
145176
142285
145449
145739
144720
144184
140450
137691
142706
143686
142569
142009
138125
138888
141611
142192
141855
141550
140251
141150
141742
141984
142075
141851
141656
141937
141930
142030
142308
142128
142167
142298
142209
142371
142358
142279
142394
142471
142377
142375
142608
142526
142514
142492
142525
142558
142462
142474
142478
142469
142384
142360
142514
142344
142500
142574
142217
142465
142671
142381
142714
142819
142617
142768
142817
142672
142897
143011
142699
142884
143251
142994
143207
143361
143230
143332
143416
143328
143461
143569
143391
143511
143871
143681
143832
144025
143948
143984
144098
144082
144131
144196
144164
144171
144203
144216
144239
144389
144380
144433
144450
144455
144474
144530
144518
144496
144530
144560
144562
144768
144746
144748
144750
144764
144773
144833
144834
144846
144899
144901
144904
144893
144885
144878
145065
145090
145089
145097
145088
145079
145095
145097
145100
145125
145120
145117
145095
145096
145101
145254
145256
145235
145231
145237
145242
145239
145233
145230
145209
145209
145214
145343
145346
145328
145319
145325
145330
145322
145317
145315
145297
145296
145302
145417
145419
145402
145391
145398
145402
145396
145394
145394
145401
145404
145409
145378
145374
145376
145469
145483
145480
145466
145463
145459
145448
145449
145452
145435
145428
145428
145516
145532
145530
145507
145504
145500
145481
145480
145482
145453
145450
145452
145550
145570
145571
145540
145536
145531
145503
145503
145506
145470
145467
145470
145559
145574
145572
145563
145554
145547
145523
145525
145534
145482
145478
145482
145563
145577
145574
145555
145551
145546
145524
145525
145528
145509
145499
145499
145568
145583
145581
145543
145541
145538
145480
145477
145481
145568
145571
145557
145539
145546
145551
145534
145522
145517
145478
145477
145484
145552
145554
145541
145514
145519
145522
145481
145478
145478
145442
145439
145442
145549
145545
145524
145493
145499
145505
145427
145422
145426
145486
145499
145497
145471
145467
145462
145428
145428
145432
145394
145389
145390
145462
145482
145486
145438
145433
145428
145357
145352
145356
145424
145426
145413
145387
145393
145396
145354
145350
145350
145313
145314
145321
145405
145401
145381
145343
145348
145352
145268
145264
145269
145325
145339
145337
145307
145303
145298
145258
145259
145262
145223
145216
145217
145282
145302
145305
145256
145250
145244
145165
145160
145165
145226
145228
145215
145184
145189
145192
145142
145137
145136
145088
145085
145089
145184
145180
145159
145121
145128
145136
145039
145033
145039
145086
145098
145097
145053
145050
145046
144970
144966
144971
145039
145041
145028
144999
145004
145007
144962
144948
144944
144989
145007
145009
144959
144955
144948
144887
144887
144891
144827
144823
144827
144882
144896
144894
144854
144850
144846
144772
144767
144771
144861
144855
144834
144792
144799
144805
144703
144698
144703
144747
144761
144761
144712
144708
144705
144621
144616
144619
144683
144685
144671
144642
144649
144656
144599
144591
144588
144533
144535
144548
144596
144595
144578
144529
144533
144536
144432
144428
144434
144481
144494
144492
144444
144442
144439
144353
144349
144354
144422
144423
144407
144371
144379
144387
144303
144291
144291
144326
144341
144341
144282
144279
144275
144176
144171
144175
144237
144238
144223
144182
144186
144189
144096
144091
144096
144142
144156
144153
144131
144121
144110
144049
144055
144071
143970
143961
143965
144008
144023
144021
143968
143964
143959
143856
143850
143856
143914
143916
143901
143855
143858
143861
143756
143751
143756
143806
143822
143820
143779
143770
143762
143666
143664
143674
143713
143715
143702
143650
143654
143657
143545
143539
143544
143587
143601
143599
143550
143545
143540
143438
143432
143436
143497
143499
143484
143440
143447
143455
143349
143339
143340
143376
143392
143391
143326
143324
143320
143209
143204
143210
143263
143265
143250
143203
143207
143211
143094
143089
143095
143135
143151
143150
143092
143089
143084
142975
142969
142973
143038
143037
143018
142972
142982
142989
142884
142877
142875
142781
142775
142782
142854
142855
142836
142783
142788
142792
142660
142655
142663
142707
142725
142725
142655
142652
142648
142521
142513
142518
142585
142585
142567
142512
142516
142518
142387
142382
142390
142435
142453
142451
142391
142384
142378
142248
142241
142246
142301
142304
142288
142230
142235
142239
142103
142097
142104
142144
142161
142159
142089
142087
142084
141951
141943
141947
142009
142011
141994
141937
141943
141947
141807
141801
141808
141846
141862
141857
141801
141795
141788
141656
141652
141662
141706
141708
141690
141625
141629
141632
141471
141469
141481
141519
141532
141525
141471
141467
141463
141335
141330
141336
141389
141393
141375
141321
141331
141337
141225
141213
141209
141092
141084
141089
141175
141174
141152
141084
141089
141092
140919
140912
140922
140949
140959
140950
140880
140880
140878
140729
140720
140724
140794
140799
140781
140722
140727
140732
140576
140569
140576
140614
140634
140631
140552
140547
140541
140376
140368
140375
140429
140431
140411
140336
140338
140342
140130
140136
140154
140195
140206
140195
140144
140139
140134
139990
139983
139990
140053
140055
140034
139967
139974
139980
139798
139794
139804
139838
139859
139859
139787
139777
139765
139603
139606
139621
139432
139424
139436
139477
139479
139458
139409
139412
139413
139262
139257
139266
139324
139330
139310
139237
139242
139244
139065
139057
139066
139108
139131
139130
139033
139029
139023
138824
138813
138817
138871
138872
138852
138760
138761
138761
138496
138515
138544
138596
138609
138600
138552
138549
138541
138411
138416
138428
138243
138236
138246
138312
138339
138337
138244
138237
138229
138022
138011
138019
138063
138066
138047
137946
137950
137956
137668
137677
137703
137716
137713
137687
137633
137638
137639
137502
137502
137508
137342
137339
137351
137434
137462
137460
137375
137364
137354
137138
137126
137132
137182
137184
137162
137051
137059
137066
136792
136782
136796
136781
136768
136727
136619
136644
136664
136550
136543
136538
136400
136399
136408
136492
136521
136514
136426
136418
136407
136182
136172
136180
136220
136223
136201
136081
136086
136089
135785
135779
135798
135779
135778
135756
135556
135601
135624
135454
135435
135415
135282
135291
135306
135408
135443
135438
135343
135337
135326
135093
135078
135082
135127
135129
135105
134986
135002
135016
134736
134716
134712
134386
134348
134342
134330
134385
134412
134320
134298
134278
134119
134117
134131
134215
134244
134236
134158
134151
134136
133933
133938
133954
133661
133647
133659
133699
133723
133722
133584
133575
133571
133242
133206
133180
132772
132823
132891
133035
133051
133034
132985
132984
132983
132784
132773
132779
132834
132838
132811
132691
132703
132711
132421
132402
132399
132028
132002
132016
131970
132002
132011
131788
131730
131624
131465
131523
131567
131414
131393
131372
131576
131584
131543
131465
131482
131489
131245
131232
131227
130847
130821
130831
130845
130847
130836
130605
130565
130495
129979
130095
130187
129983
129935
129887
130191
130201
130159
130107
130124
130130
129943
129926
129913
129570
129575
129594
129107
129093
129125
129055
129023
128948
128503
128661
128762
128572
128524
128457
128368
128390
128410
128553
128597
128587
128479
128470
128455
128145
128144
128159
127602
127579
127601
126875
126682
126518
127042
127090
127117
127192
127185
127197
127123
127112
127110
126873
126876
126891
126373
126365
126403
126221
126156
126044
125372
125642
125810
125621
125555
125437
125544
125580
125589
125469
125479
125465
125064
125079
125105
124840
124727
124551
124007
124283
124459
124328
124249
124112
124254
124286
124308
124201
124182
124152
123624
123764
123850
123285
123112
122879
122941
123020
123101
123522
123556
123528
123358
123447
123516
123257
123040
122671
122842
123030
123114
123177
123138
123089
122864
123106
123207
123285
123186
122991
123443
123522
123552
123988
123920
123773
124472
124534
124542
125089
125097
125084
125536
125547
125539
125875
125876
125869
126174
126180
126181
126426
126424
126421
126663
126668
126670
126861
126860
126858
127058
127062
127064
127221
127219
127218
127389
127392
127396
127526
127524
127523
127671
127674
127678
127786
127784
127784
127912
127915
127918
128009
128007
128006
128119
128121
128125
128201
128200
128199
128299
128302
128306
128370
128369
128369
128459
128461
128465
128521
128520
128520
128602
128604
128608
128656
128655
128655
128730
128732
128735
128777
128776
128776
128844
128846
128849
128885
128884
128885
128946
128948
128951
128983
128983
128983
129040
129042
129044
129072
129072
129072
129124
129126
129128
129153
129153
129153
129201
129203
129204
129226
129226
129227
129271
129272
129274
129293
129293
129294
129335
129336
129338
129355
129355
129356
129393
129394
129395
129411
129411
129412
129447
129448
129449
129463
129463
129463
129496
129496
129497
129510
129510
129511
129541
129542
129543
129554
129554
129554
129582
129583
129583
129593
129594
129594
129620
129621
129622
129630
129631
129631
129655
129656
129656
129664
129664
129665
129687
129688
129689
129696
129696
129697
129717
129718
129718
129724
129725
129725
129745
129745
129746
129751
129752
129752
129770
129771
129771
129776
129776
129777
129793
129794
129795
129798
129799
129799
129815
129815
129816
129819
129820
129820
129835
129835
129836
129839
129839
129840
129854
129854
129855
129857
129857
129858
129871
129871
129872
129873
129874
129875
129887
129887
129888
129889
129889
129890
129901
129902
129902
129903
129903
129904
129915
129915
129915
129916
129916
129917
129927
129927
129928
129928
129928
129929
129938
129939
129939
129939
129939
129940
129949
129949
129950
129949
129949
129950
129958
129959
129959
129958
129959
129959
129967
129968
129968
129967
129967
129968
129975
129976
129976
129974
129975
129976
129983
129983
129984
129982
129982
129983
129990
129990
129991
129988
129989
129989
129996
129996
129997
129994
129995
129996
130002
130002
130003
130000
130000
130001
130007
130007
130008
130005
130005
130006
130012
130012
130013
130009
130010
130010
130016
130016
130017
130014
130014
130015
130020
130020
130021
130017
130018
130018
130024
130024
130025
130021
130022
130022
130027
130027
130028
130024
130025
130025
130030
130031
130031
130027
130028
130028
130033
130033
130034
130030
130030
130031
130035
130036
130036
130032
130033
130033
130037
130038
130038
130034
130035
130035
130039
130040
130040
130036
130036
130037
130041
130041
130042
130037
130038
130038
130042
130043
130044
130039
130039
130040
130044
130044
130045
130040
130040
130041
130045
130045
130046
130041
130041
130042
130045
130046
130046
130041
130042
130042
130046
130046
130047
130042
130042
130043
130046
130047
130047
130042
130042
130043
130046
130047
130047
130042
130043
130043
130046
130047
130047
130042
130043
130043
130046
130047
130047
130042
130042
130043
130046
130046
130047
130042
130042
130043
130046
130046
130047
130041
130042
130042
130045
130046
130046
130041
130041
130042
130045
130045
130046
130040
130041
130041
130044
130044
130045
130039
130040
130040
130043
130043
130044
130038
130039
130039
130042
130042
130043
130037
130037
130038
130040
130041
130042
130035
130036
130036
130039
130039
130040
130034
130034
130035
130037
130037
130038
130032
130032
130033
130035
130035
130036
130029
130030
130030
130032
130033
130033
130027
130027
130028
130029
130030
130030
130024
130024
130025
130026
130027
130027
130020
130021
130021
130023
130023
130024
130017
130018
130018
130020
130020
130021
130014
130014
130015
130016
130016
130017
130010
130011
130011
130012
130013
130013
130006
130007
130007
130009
130009
130010
130002
130003
130003
130005
130005
130006
129998
129999
129999
130000
130001
130001
129994
129995
129995
129996
129996
129997
129989
129990
129990
129991
129992
129992
129984
129985
129985
129986
129986
129987
129979
129979
129980
129980
129980
129981
129972
129973
129973
129973
129973
129974
129964
129965
129965
129964
129964
129965
129955
129955
129956
129954
129954
129955
129943
129943
129944
129940
129940
129941
129926
129926
129926
129922
129923
129924
129914
129913
129913
129928
129930
129931
129988
129987
129983
130071
130075
130070
130103
130110
130108
130083
130071
130030
130077
130089
130043
130046
130055
130034
130019
130013
130009
130008
130008
130008
130009
130009
130010
130010
130010
130009
130009
130008
130006
130004
130003
130001
130000
129999
129999
130003
130006
130007
130008
130010
130012
130014
130017
130021
130026
130031
130039
130047
130058
130072
130087
130104
130123
130142
130157
130165
130169
130173
130180
130190
130202
130216
130231
130249
130269
130292
130317
130346
130378
130415
130456
130503
130556
130615
130682
130757
130841
130935
131038
131153
131279
131418
131569
131732
131910
132100
132303
132519
132748
132988
133239
133500
133771
134049
134334
134624
134920
135218
135519
135821
136123
136424
136723
137019
137312
137601
137886
138165
138439
138706
138968
139222
139470
139712
139946
140173
140394
140608
140814
141014
141208
141395
141576
141750
141919
142081
142238
142390
142536
142678
142814
142946
143074
143198
143317
143433
143545
143655
143760
143863
143963
144061
144156
144248
144338
144426
144511
144594
144675
144754
144831
144906
144979
145050
145119
145186
145251
145314
145376
145436
145495
145551
145606
145660
145711
145762
145810
145857
145902
145946
145987
146027
146066
146102
146137
146170
146201
146230
146258
146283
146307
146329
146350
146368
146385
146401
146415
146427
146438
146448
146456
146463
146468
146473
146478
146483
146489
146497
146506
146518
146534
146543
146543
146543
146543
146543
146542
146546
146562
146575
146582
146589
146598
146608
146618
146629
146641
146653
146666
146680
146694
146709
146725
146741
146757
146774
146791
146809
146827
146846
146864
146883
146902
146921
146940
146959
146978
146997
147016
147035
147053
147071
147089
147106
147123
147140
147156
147171
147186
147201
147214
147227
147239
147251
147262
147272
147281
147289
147296
147299
147297
147303
147315
147337
147349
147356
147346
147337
147330
147323
147317
147312
147307
147304
147300
147298
147296
147294
147293
147292
147292
147292
147293
147295
147297
147299
147302
147306
147310
147315
147320
147326
147333
147340
147348
147356
147365
147374
147384
147395
147406
147418
147430
147443
147456
147470
147484
147499
147514
147530
147546
147563
147580
147598
147617
147637
147657
147679
147701
147724
147748
147773
147798
147825
147853
147882
147911
147942
147973
148005
148037
148071
148105
148140
148176
148212
148249
148287
148325
148364
148403
148444
148484
148526
148568
148611
148655
148698
148742
148786
148829
148872
148913
148953
148989
149021
149040
149047
149055
149067
149076
149089
149102
149117
149127
149136
149141
149145
149141
149139
149133
149133
149128
149135
149140
149153
149162
149172
149178
149184
149186
149187
149185
149184
149181
149178
149174
149170
149166
149163
149159
149156
149152
149149
149144
149140
149134
149129
149123
149119
149114
149110
149105
149102
149098
149094
149090
149085
149081
149077
149072
149069
149065
149062
149059
149057
149054
149052
149049
149046
149042
149038
149033
149029
149024
149020
149016
149012
149008
149008
149007
149011
149011
149016
149017
149020
149020
149023
149021
149015
149016
149012
149008
149002
149002
149005
149021
149017
149009
148999
148998
149001
149017
149025
149024
149028
149029
149032
149030
149036
149037
149040
149038
149033
149041
149044
149045
149047
149045
149050
149051
149053
149050
149047
149052
149056
149056
149058
149055
149061
149061
149064
149062
149058
149066
149068
149068
149071
149069
149077
149077
149080
149078
149075
149083
149086
149085
149089
149087
149094
149094
149097
149095
149091
149098
149102
149102
149104
149102
149110
149109
149113
149111
149106
149115
149119
149118
149122
149120
149130
149129
149133
149131
149125
149135
149141
149139
149143
149141
149151
149149
149151
149150
149144
149152
149159
149156
149158
149157
149166
149163
149165
149165
149160
149169
149174
149170
149172
149172
149182
149177
149179
149179
149178
149185
149189
149183
149184
149184
149194
149186
149184
149185
149189
149190
149193
149183
149177
149179
149186
149171
149160
149164
149183
149175
149170
149152
149138
149145
149153
149137
149128
149133
149170
149168
149147
149135
149133
149133
149153
149142
149139
149140
149167
149162
149157
149143
149136
149139
149149
149135
149124
149128
149150
149130
149131
149117
149103
149107
149106
149094
149082
149083
149103
149070
149079
149073
149059
149057
149052
149049
149033
149025
149030
148979
149013
149014
148982
148973
148950
148949
148909
148903
148915
148842
148875
148870
148827
148824
148792
148785
148741
148741
148762
148679
148707
148698
148654
148656
148621
148612
148569
148571
148596
148514
148537
148527
148485
148488
148455
148445
148404
148408
148435
148357
148376
148365
148326
148330
148299
148288
148250
148254
148281
148208
148225
148213
148177
148181
148152
148141
148106
148110
148137
148069
148083
148072
148039
148043
148016
148006
147974
147978
148003
147941
147953
147943
147913
147917
147893
147884
147855
147859
147882
147826
147836
147827
147800
147804
147783
147775
147749
147753
147774
147726
147734
147726
147702
147706
147688
147681
147659
147663
147682
147641
147646
147639
147619
147622
147608
147601
147582
147585
147603
147567
147572
147565
147548
147551
147538
147532
147515
147519
147534
147504
147507
147501
147486
147489
147478
147472
147458
147461
147475
147448
147451
147445
147432
147435
147425
147420
147408
147411
147423
147401
147402
147397
147386
147389
147381
147376
147366
147369
147380
147362
147362
147358
147349
147352
147346
147342
147334
147337
147346
147333
147332
147328
147322
147324
147321
147317
147312
147314
147322
147313
147311
147308
147304
147306
147304
147301
147298
147300
147306
147302
147299
147296
147295
147297
147296
147294
147294
147295
147300
147299
147296
147294
147294
147296
147297
147295
147297
147298
147300
147302
147300
147299
147301
147302
147305
147304
147308
147308
147307
147312
147312
147312
147317
147316
147321
147323
147328
147326
147317
147319
147330
147335
147342
147335
147304
147307
147307
147306
147305
147303
147304
147304
147307
147312
147319
147328
147339
147353
147368
147386
147407
147429
147454
147480
147509
147539
147572
147607
147644
147685
147728
147775
147826
147880
147938
147999
148062
148128
148198
148269
148343
148419
148497
148578
148659
148741
148820
148894
148962
149021
149070
149112
149145
149169
149183
149187
149186
149185
149186
149189
149192
149192
149189
149183
149175
149167
149160
149152
149142
149131
149120
149111
149102
149094
149086
149077
149067
149059
149052
149046
149040
149033
149030
149022
149014
149018
149016
149009
148999
148998
149001
149017
149015
149008
148999
149000
149003
149014
149022
149021
149013
149015
149013
149006
148999
149001
149004
149013
149011
149006
148999
149001
149004
149013
149021
149028
149028
149029
149036
149037
149043
149050
149050
149043
149042
149035
149035
149042
149050
149049
149057
149057
149057
149065
149066
149074
149074
149083
149083
149082
149073
149065
149066
149058
149058
149050
149042
149034
149026
149019
149012
149011
149009
149004
149000
149002
149004
149008
149005
149001
149000
149003
149006
149012
149019
149016
149012
149008
149005
149002
149000
148998
148996
148995
148993
148988
148990
148996
148996
148994
148999
149000
149001
149004
149004
149000
149000
149003
149004
149004
149007
149007
149011
149015
149018
149019
149022
149026
149033
149042
149051
149048
149044
149039
149034
149030
149026
149025
149022
149022
149018
149018
149015
149015
149011
149011
149008
149007
149007
149011
149011
149014
149015
149018
149018
149021
149022
149022
149025
149026
149025
149025
149029
149029
149029
149034
149033
149030
149029
149033
149034
149034
149038
149038
149043
149048
149053
149053
149058
149060
149068
149066
149075
149074
149083
149092
149091
149092
149091
149099
149100
149110
149107
149116
149119
149118
149109
149100
149102
149111
149121
149122
149112
149103
149093
149084
149084
149076
149074
149070
149066
149062
149062
149058
149058
149054
149053
149049
149048
149044
149043
149039
149039
149038
149042
149043
149047
149049
149052
149054
149057
149058
149059
149062
149063
149063
149062
149066
149067
149067
149071
149070
149067
149067
149070
149071
149071
149074
149074
149078
149078
149082
149087
149087
149083
149083
149079
149078
149075
149075
149074
149078
149079
149082
149083
149083
149087
149088
149088
149087
149092
149092
149092
149092
149094
149104
149114
149123
149121
149117
149112
149108
149102
149097
149097
149103
149108
149107
149103
149102
149098
149097
149093
149093
149097
149098
149102
149103
149107
149109
149109
149112
149113
149118
149122
149126
149126
149130
149132
149132
149131
149128
149130
149126
149136
149141
149152
149146
149156
149162
149163
149151
149139
149142
149153
149165
149178
149175
149172
149166
149176
149183
149194
149186
149197
149205
149217
149201
149188
149192
149208
149226
149247
149233
149217
149206
149213
149229
149240
149219
149224
149253
149288
149268
149250
149270
149296
149325
149359
149310
149266
149228
149229
149272
149273
149228
149219
149265
149320
149328
149324
149384
149393
149386
149467
149469
149454
149414
149367
149328
149293
149263
149237
149215
149195
149179
149165
149153
149142
149141
149151
149162
149156
149152
149146
149143
149138
149134
149134
149130
149130
149127
149126
149123
149122
149118
149117
149114
149114
149112
149117
149118
149122
149123
149126
149127
149130
149131
149131
149134
149135
149135
149134
149138
149138
149138
149143
149142
149139
149139
149142
149143
149143
149146
149147
149151
149155
149160
149162
149166
149176
149193
149214
149240
149234
149222
149205
149196
149182
149175
149171
149164
149160
149157
149157
149155
149154
149151
149150
149147