/*--------------------------------*- C++ -*----------------------------------*\
| =========                 |                                                 |
| \\      /  F ield         | OpenFOAM: The Open Source CFD Toolbox           |
|  \\    /   O peration     | Version:  v2006                                 |
|   \\  /    A nd           | Website:  www.openfoam.com                      |
|    \\/     M anipulation  |                                                 |
\*---------------------------------------------------------------------------*/
FoamFile
{
    version     2.0;
    format      ascii;
    class       volScalarField;
    location    "0.015";
    object      yPlus;
}
// * * * * * * * * * * * * * * * * * * * * * * * * * * * * * * * * * * * * * //

dimensions      [0 0 0 0 0 0 0];


internalField   uniform 0;

boundaryField
{
    bottomEmptyFaces
    {
        type            empty;
    }
    topEmptyFaces
    {
        type            empty;
    }
    inlet
    {
        type            calculated;
        value           uniform 0;
    }
    outlet
    {
        type            calculated;
        value           uniform 0;
    }
    walls
    {
        type            calculated;
        value           nonuniform List<scalar> 
900
(
23.921
23.9613
23.9539
23.9939
23.9866
24.0259
24.0184
24.0571
24.0496
24.0876
24.08
24.1176
24.1099
24.147
24.1393
24.176
24.1682
24.2044
24.1964
24.2318
24.2237
24.2582
24.2498
24.2832
24.2745
24.3069
24.2979
24.3291
24.3199
24.35
24.3404
24.3693
24.3594
24.3873
24.3771
24.4037
24.3932
24.4187
24.4079
24.4323
24.4212
24.4446
24.4333
24.4556
24.4441
24.4655
24.4538
24.4743
24.4624
24.4822
24.4702
24.4892
24.477
24.4955
24.4833
24.5012
24.4889
24.5064
24.4941
24.5112
24.4987
24.5156
24.5029
24.5195
24.5067
24.523
24.5101
24.5261
24.5131
24.5289
24.5158
24.5314
24.5182
24.5335
24.5203
24.5354
24.522
24.5369
24.5236
24.5382
24.5247
24.5393
24.5257
24.5401
24.5264
24.5407
24.527
24.5411
24.5274
24.5414
24.5277
24.5415
24.5278
24.5416
24.5279
24.5417
24.528
24.5418
24.5282
24.542
24.5284
24.5422
24.5287
24.5425
24.5291
24.543
24.5298
24.5436
24.5304
24.5444
24.5313
24.5452
24.5321
24.546
24.533
24.5469
24.5339
24.5478
24.5349
24.5489
24.5361
24.5501
24.5375
24.5517
24.5393
24.5537
24.5416
24.5563
24.5445
24.5598
24.5483
24.5644
24.5532
24.5705
24.5596
24.596
24.5984
24.6459
24.7322
24.9461
25.4661
26.4703
28.6264
31.1209
68.4206
76.6171
80.5488
104.325
119.356
55.6528
38.0322
43.478
48.275
19.5508
19.9575
31.0192
19.2093
22.4242
59.131
64.712
135.704
146.923
123.935
130.385
107.593
84.542
95.1787
81.3731
70.2204
61.3213
64.0673
60.5055
56.6438
52.1543
55.2182
51.6761
15.1718
12.7209
10.5569
11.4504
7.85331
13.3764
13.7113
11.0923
11.1908
8.1511
10.9445
11.3721
8.34845
13.6918
11.1421
13.4202
11.0378
11.1952
8.55642
12.7445
13.6333
11.2402
10.8653
8.60329
11.1021
8.48309
14.2882
11.9778
12.9708
11.0657
9.32052
14.8076
12.6251
14.3785
12.0968
11.1018
9.55598
11.8432
9.99895
13.1489
12.058
10.3257
14.7942
12.225
9.74801
12.2273
11.6378
9.36634
23.3996
20.5189
17.6164
16.6669
21.669
18.2122
17.5177
22.2831
19.2299
18.2078
24.2248
21.2531
15.0794
12.6629
11.9897
15.3645
12.7916
12.2025
22.4101
22.9826
18.8593
18.1846
24.5144
21.5972
18.6307
17.6352
19.4069
18.531
18.1864
17.2207
18.5881
16.2157
16.7515
13.68
12.93
16.1697
13.5801
12.9516
16.4496
13.7769
13.18
15.5398
13.0913
12.4433
15.8671
13.325
12.6597
16.7296
14.185
13.4921
17.2117
14.8681
13.9489
14.6748
12.5589
13.233
11.0902
9.99736
13.7069
14.1213
11.8386
10.817
11.5062
10.4673
15.7178
13.6413
14.5383
14.1688
11.7179
10.9007
12.0395
11.2635
28.9105
25.8022
15.1034
12.9677
11.4482
10.4271
14.0236
12.0358
11.1282
13.7721
11.7427
10.9433
12.2873
11.1671
14.4176
12.6133
11.4831
14.6113
13.3385
11.2907
9.94326
11.9727
10.4723
28.9583
22.7318
21.2784
12.4211
11.1729
9.91419
13.3404
11.887
10.561
25.9367
23.2461
21.5457
29.6876
26.6704
29.8528
23.5296
22.0776
15.1042
16.5305
15.4641
12.8231
12.0257
13.2574
12.3442
14.842
12.3421
11.5565
12.5301
11.7453
14.3111
12.1893
11.3976
14.8754
12.4295
11.8367
23.7466
20.623
19.5342
24.6065
25.9966
42.6407
23.0027
19.9458
18.7822
43.3013
52.5284
47.0302
57.5704
52.8435
47.0056
56.138
49.4084
24.9993
22.0121
20.781
27.7669
24.4891
26.8402
21.399
20.2409
23.3506
15.8115
13.6808
20.0839
18.9472
49.7782
22.971
41.4149
19.3401
40.1118
41.6719
35.5239
18.6208
32.6798
13.6974
16.9273
37.1397
31.1433
26.1752
22.2728
56.9166
57.2116
63.6691
58.9163
26.9259
23.7689
21.0794
19.7479
21.2098
19.9893
26.087
22.8326
21.5144
12.1493
15.7504
8.07644
18.3241
14.3826
15.3961
12.3299
11.2974
13.1959
7.57292
15.5418
13.3504
8.49536
12.3171
12.7394
8.6088
65.1269
61.8122
57.2465
53.7677
51.3128
47.2591
30.8398
43.2838
42.3311
39.2194
28.7194
44.0387
41.3404
25.9932
23.5809
35.9326
21.9058
31.2896
30.4155
20.4104
12.1148
27.5264
26.695
24.0955
22.3365
32.0689
30.4285
27.1761
24.8418
22.967
33.4036
25.6236
23.1658
31.2375
28.0459
10.4375
9.58689
8.75977
7.99412
10.0129
6.4284
32.7178
12.171
31.5167
10.8447
30.4531
10.2134
9.81019
28.5267
9.5405
26.5981
24.4853
35.2051
9.32956
9.17408
34.8142
8.95528
8.80774
8.63211
8.53463
34.0664
32.9291
31.416
29.0921
34.7353
8.38252
8.29488
33.6691
8.15057
33.8238
8.00165
27.1974
25.098
7.84983
25.0878
23.4811
7.79276
7.67475
7.61933
7.46125
7.42376
7.3012
7.30374
7.20422
7.1331
7.0417
7.00076
6.90455
6.87646
6.79426
6.78169
6.71134
6.70508
6.64228
6.63907
6.57987
6.57834
6.52127
6.52076
6.4652
6.4653
6.41103
6.4115
6.35826
6.35916
6.30679
6.308
6.25635
6.25784
6.2069
6.20867
6.1584
6.16047
6.11093
6.1133
6.06441
6.0671
6.01888
6.02186
5.97419
5.9775
5.93041
5.93401
5.88733
5.89126
5.84501
5.84913
5.80309
5.80694
5.76078
5.76419
5.71794
5.72123
5.67527
5.67846
5.63283
5.63609
5.59096
5.59424
5.54948
5.55289
5.5086
5.51203
5.46805
5.47161
5.42803
5.43163
5.38834
5.39214
5.3493
5.35324
5.31076
5.31499
5.27296
5.27755
5.23506
5.23996
5.19996
5.25869
5.25618
5.31732
5.31718
5.40021
5.36649
5.11606
6.88117
4.20725
33.8069
33.6193
33.8354
33.5653
33.2766
33.0363
32.4567
31.6725
30.9095
30.1054
29.395
28.6909
28.0819
27.4952
26.9846
26.5139
26.0926
25.7218
25.38
25.0904
24.816
24.5972
24.3751
24.2221
24.0392
23.9483
23.7985
23.7556
23.6371
23.6233
23.5368
23.5414
23.4833
23.4994
23.4618
23.4847
23.4606
23.4885
23.4745
23.5058
18.677
18.9298
15.5961
15.0063
23.4956
23.5333
23.525
23.5667
23.559
23.6025
23.5952
23.6395
19.7103
16.6448
15.9521
23.6324
23.6772
23.6701
23.7148
23.7078
23.7521
23.745
23.789
18.5949
15.5754
15.0327
23.7819
19.4331
23.825
20.8696
16.7105
15.8057
15.9272
15.2299
18.0617
15.1385
14.414
23.8178
23.8603
19.1567
15.9608
15.3785
23.8531
18.9591
15.7091
15.1609
19.427
16.2074
15.6259
23.8947
23.8873
23.9283
17.484
17.6988
14.5701
13.9962
17.0146
17.1858
14.1544
13.5919
14.0113
13.4329
14.4105
13.784
17.9916
18.2916
15.0837
14.4908
14.7758
14.1593
15.3595
14.6945
20.6351
20.7359
17.9955
16.9694
20.2594
17.0068
16.3185
22.5291
19.6422
16.6896
15.7833
21.4104
21.0709
17.2768
16.7206
17.5747
16.9722
21.8632
18.0118
17.3421
18.7044
17.7876
33.6977
9.28122
50.6148
46.0982
42.6631
40.6347
38.8725
37.6824
36.6613
35.9504
35.2325
34.7409
34.1986
33.8366
33.4067
33.124
32.7714
32.538
32.2381
32.0382
31.7749
31.5985
31.3607
31.1991
30.9783
30.8272
30.6197
30.4766
30.279
30.1417
29.952
29.8189
29.6354
29.5055
29.3269
29.1993
29.0242
28.8978
28.725
28.5989
28.4272
28.3005
28.1288
28.0008
27.828
27.6981
27.5234
27.3909
27.2134
27.0776
26.8963
26.7565
26.5704
26.426
26.2341
26.0841
25.8852
25.7287
25.5218
25.358
25.1418
24.9696
24.7427
24.5611
24.322
24.1293
23.8763
23.6713
23.4023
23.1832
22.8962
22.6615
22.3542
22.102
21.7723
21.5006
21.1456
20.8521
20.4692
20.1509
19.7363
19.3888
18.9379
18.5555
18.0612
17.6368
17.0869
16.6102
15.9831
15.4314
14.6983
14.0128
13.1503
12.0898
11.1661
9.41301
5.82612
5.70526
7.45702
8.69679
9.22759
9.33472
8.81807
7.75195
5.85109
4.67149
4.04375
4.55533
4.88497
5.78354
6.31702
7.19649
7.55885
7.99323
7.95726
7.9346
7.37486
6.9579
6.5908
6.40792
6.10123
5.99839
5.80006
5.76274
5.65036
5.64857
5.62128
5.66055
5.68088
5.75411
5.78778
5.87552
5.91121
5.99574
6.02991
6.10918
6.14301
6.21842
6.25139
6.32236
6.35433
6.42128
6.45262
6.51758
6.54906
6.61375
6.64585
6.71168
6.74549
6.81308
6.84904
6.91802
6.95598
7.02554
7.06476
7.13315
7.17199
7.23756
7.27476
7.33623
7.36906
7.42728
7.44694
7.53627
7.58878
7.77915
7.88295
8.00346
8.17592
8.43682
56.2743
)
;
    }
    rightWall
    {
        type            calculated;
        value           uniform 0;
    }
    symmetryLine
    {
        type            symmetryPlane;
    }
}


// ************************************************************************* //
