/*--------------------------------*- C++ -*----------------------------------*\
| =========                 |                                                 |
| \\      /  F ield         | OpenFOAM: The Open Source CFD Toolbox           |
|  \\    /   O peration     | Version:  v2006                                 |
|   \\  /    A nd           | Website:  www.openfoam.com                      |
|    \\/     M anipulation  |                                                 |
\*---------------------------------------------------------------------------*/
FoamFile
{
    version     2.0;
    format      ascii;
    class       volScalarField;
    location    "0.116";
    object      isentropic(p);
}
// * * * * * * * * * * * * * * * * * * * * * * * * * * * * * * * * * * * * * //

dimensions      [1 -1 -2 0 0 0 0];


internalField   nonuniform List<scalar> 
16277
(
150008
150014
150017
150003
150012
150010
150011
150012
150013
150013
150013
150012
150012
150011
150011
150011
150010
150010
150010
150010
150010
150010
150010
150009
150009
150009
150009
150009
150009
150009
150009
150009
150008
150008
150008
150008
150008
150008
150008
150008
150007
150007
150007
150007
150007
150007
150007
150007
150006
150006
150006
150006
150006
150006
150006
150006
150005
150005
150005
150005
150005
150005
150005
150005
150005
150004
150004
150004
150004
150004
150004
150004
150004
150004
150004
150003
150003
150003
150003
150002
150002
150001
150001
150000
150001
150003
150004
150005
150004
150006
150005
150007
150008
150011
150017
150015
149976
149936
150011
150022
150021
150002
149897
149860
149993
150018
150013
149981
149826
149796
149971
150008
150002
149959
149768
149744
149949
149997
149991
149938
149721
149703
149929
149986
149979
149919
149684
149669
149911
149975
149968
149901
149653
149640
149893
149964
149958
149884
149627
149616
149877
149953
149947
149868
149605
149595
149862
149943
149938
149854
149585
149577
149849
149934
149928
149841
149568
149561
149836
149925
149919
149829
149553
149547
149824
149916
149911
149817
149540
149534
149813
149908
149903
149807
149528
149523
149803
149901
149896
149797
149517
149513
149794
149893
149889
149788
149508
149504
149785
149887
149882
149779
149499
149496
149776
149880
149876
149771
149492
149489
149769
149874
149870
149763
149485
149483
149761
149868
149864
149756
149479
149477
149755
149863
149859
149750
149474
149473
149748
149857
149853
149744
149470
149469
149743
149852
149848
149738
149466
149465
149737
149847
149844
149733
149463
149463
149732
149843
149839
149728
149461
149461
149727
149839
149835
149724
149459
149459
149723
149835
149831
149719
149458
149458
149719
149831
149827
149716
149457
149458
149715
149827
149824
149712
149457
149458
149712
149824
149821
149709
149458
149459
149709
149820
149817
149706
149459
149460
149706
149817
149814
149704
149460
149462
149704
149814
149811
149702
149462
149464
149702
149811
149809
149700
149465
149467
149700
149809
149806
149698
149468
149470
149699
149806
149804
149697
149471
149474
149698
149804
149802
149696
149475
149478
149697
149802
149800
149695
149480
149483
149696
149801
149798
149695
149485
149488
149696
149799
149797
149695
149490
149493
149696
149798
149796
149696
149496
149499
149697
149797
149795
149696
149502
149506
149698
149796
149795
149698
149508
149512
149700
149796
149795
149700
149515
149519
149702
149796
149795
149702
149522
149526
149704
149796
149796
149704
149530
149534
149707
149797
149797
149708
149537
149541
149710
149799
149799
149711
149545
149549
149715
149801
149801
149716
149552
149557
149719
149803
149804
149720
149560
149564
149724
149807
149807
149726
149567
149571
149729
149810
149811
149731
149573
149577
149735
149814
149815
149737
149579
149583
149741
149819
149820
149742
149585
149588
149746
149823
149824
149748
149589
149591
149751
149828
149828
149753
149591
149593
149756
149832
149832
149757
149592
149594
149760
149835
149836
149760
149592
149593
149763
149839
149839
149763
149591
149591
149765
149842
149842
149765
149589
149588
149767
149844
149844
149767
149585
149584
149768
149846
149846
149767
149581
149580
149769
149848
149847
149767
149576
149574
149768
149849
149848
149767
149570
149568
149767
149850
149849
149765
149564
149563
149766
149850
149849
149764
149558
149556
149764
149850
149849
149762
149552
149550
149762
149850
149848
149760
149546
149544
149760
149849
149847
149757
149541
149540
149757
149847
149845
149755
149537
149536
149755
149844
149842
149752
149533
149532
149752
149843
149841
149749
149528
149525
149749
149842
149842
149746
149520
149517
149746
149844
149843
149743
149514
149512
149743
149843
149841
149740
149509
149509
149740
149842
149839
149737
149506
149505
149737
149840
149837
149734
149502
149501
149735
149838
149835
149732
149498
149498
149732
149836
149833
149729
149496
149496
149729
149833
149828
149727
149495
149497
149727
149827
149823
149724
149495
149495
149725
149824
149821
149722
149492
149491
149722
149822
149820
149720
149490
149487
149719
149822
149822
149717
149483
149481
149716
149823
149821
149713
149477
149478
149714
149822
149819
149710
149474
149477
149713
149822
149817
149710
149476
149478
149714
149820
149821
149717
149484
149497
149727
149831
149867
149775
149552
149516
149698
149792
149863
149921
149955
149966
149972
149984
149989
149994
149997
149999
149999
149998
149997
149993
149989
149979
149974
149967
149960
149946
149913
149843
149697
149543
149282
149256
149525
149689
149676
149506
149237
149230
149495
149660
149654
149491
149225
149228
149493
149653
149652
149491
149225
149225
149490
149652
149655
149493
149227
149226
149492
149654
149656
149494
149228
149229
149495
149657
149657
149495
149229
149231
149497
149659
149660
149498
149231
149232
149499
149661
149663
149501
149234
149233
149501
149663
149665
149503
149236
149237
149504
149666
149666
149504
149236
149239
149507
149669
149669
149508
149239
149239
149508
149670
149672
149511
149242
149242
149511
149672
149673
149511
149242
149245
149514
149676
149675
149513
149244
149245
149515
149677
149678
149517
149247
149247
149517
149678
149679
149519
149249
149250
149520
149681
149681
149521
149251
149252
149523
149683
149685
149524
149253
149253
149525
149686
149688
149527
149255
149255
149528
149689
149690
149529
149256
149258
149531
149691
149692
149531
149259
149260
149533
149693
149694
149534
149261
149262
149535
149695
149697
149537
149263
149263
149538
149698
149700
149539
149265
149266
149541
149701
149702
149542
149266
149267
149543
149704
149705
149544
149268
149269
149545
149706
149707
149547
149270
149271
149548
149708
149709
149549
149272
149273
149551
149711
149712
149552
149273
149274
149554
149715
149716
149555
149275
149276
149556
149718
149720
149558
149276
149277
149559
149721
149723
149561
149277
149278
149562
149725
149726
149563
149278
149278
149564
149728
149729
149566
149278
149279
149567
149731
149732
149569
149279
149280
149571
149734
149737
149572
149280
149280
149575
149739
149743
149577
149280
149279
149579
149746
149749
149581
149279
149279
149583
149751
149753
149584
149278
149279
149587
149755
149756
149589
149279
149280
149591
149759
149762
149594
149280
149281
149597
149765
149769
149601
149282
149283
149605
149772
149776
149610
149285
149288
149614
149780
149784
149620
149291
149296
149626
149789
149794
149633
149300
149304
149641
149802
149808
149647
149308
149315
149655
149813
149820
149667
149328
149337
149678
149827
149834
149690
149351
149366
149699
149841
149849
149713
149382
149400
149723
149856
149863
149734
149418
149438
149745
149870
149876
149757
149460
149479
149768
149881
149883
149776
149497
149520
149786
149884
149891
149796
149540
149562
149813
149907
149907
149830
149577
149363
149575
149825
149866
149729
149389
149406
149749
149886
149892
149758
149424
149447
149764
149895
149906
149783
149476
149507
149799
149917
149936
149821
149539
149559
149830
149947
149956
149844
149586
149607
149852
149959
149963
149874
149649
149682
149900
149957
149914
149666
149569
149577
149843
149935
149960
149859
149603
149626
149876
149976
149993
149889
149648
149676
149900
149991
149984
149916
149715
149740
149931
149994
149995
149939
149761
149528
149919
149899
149987
149898
149682
149698
149921
149999
150005
149938
149735
149764
149946
150003
150009
149964
149799
149825
149989
150019
150012
149796
149772
149761
149957
150014
150041
149977
149804
149836
149989
150039
150036
150007
149872
149886
150023
150041
150046
149847
149862
149856
150018
150052
150062
150022
149886
149924
150040
150065
150074
150061
149958
149961
149899
150102
150079
150067
149954
149974
150069
150094
150120
150096
150016
150037
150103
150114
150108
150078
149995
150066
150128
150139
150142
150131
150094
149997
150239
150109
150179
150175
150155
150180
150193
150176
150211
150216
150199
150276
150252
150218
150180
150222
150233
150277
150228
150187
150215
150261
150311
150293
150272
150233
150188
150213
150181
150035
150104
150103
150008
149954
149844
149888
149966
149977
149920
149866
149740
149802
149905
149928
149896
149868
149723
149866
149609
149924
149860
149914
149623
149638
149780
149850
149893
149849
149691
149654
149815
149880
149826
149755
149588
149663
149828
149870
149842
149803
149648
149560
149738
149805
149869
149815
149634
149604
149786
149859
149802
149718
149532
149628
149815
149880
149885
149779
149574
149514
149709
149803
149871
149815
149635
149589
149779
149862
149792
149704
149513
149631
149812
149859
149844
149787
149613
149517
149705
149786
149830
149803
149636
149649
149782
149766
149759
149694
149522
149617
149810
149884
149939
149780
149544
149540
149774
149864
149876
149520
149632
149605
149819
149862
149856
149758
149565
149319
149835
149705
149844
149777
149580
149541
149760
149816
149830
149519
149602
149603
149808
149862
149850
149756
149560
149328
149817
149710
149846
149783
149571
149560
149744
149835
149704
149842
149325
149593
149790
149856
149827
149768
149547
149599
149509
149824
149851
149795
149594
149547
149769
149832
149841
149502
149617
149600
149805
149852
149807
149765
149541
149637
149484
149841
149840
149874
149532
149517
149713
149804
149876
149817
149614
149579
149780
149867
149795
149703
149507
149633
149820
149858
149802
149793
149635
149527
149713
149785
149892
149827
149622
149574
149791
149900
149812
149713
149507
149632
149829
149875
149836
149790
149603
149504
149702
149791
149869
149822
149623
149585
149796
149838
149851
149504
149677
149557
149880
149861
149821
149726
149535
149642
149836
149857
149802
149809
149656
149525
149719
149790
149885
149832
149630
149577
149805
149867
149875
149509
149664
149591
149867
149877
149832
149733
149539
149654
149855
149897
149876
149824
149637
149529
149726
149815
149900
149842
149639
149581
149811
149882
149887
149516
149675
149588
149884
149885
149839
149743
149537
149674
149861
149872
149814
149829
149679
149532
149730
149801
149890
149849
149630
149621
149792
149869
149704
149941
149301
149649
149763
149914
149826
149747
149497
149655
149853
149885
149835
149827
149635
149653
149551
149859
149879
149879
149574
149528
149741
149839
149919
149851
149620
149578
149801
149911
149783
149828
149391
149619
149820
149910
149847
149765
149531
149636
149864
149934
149927
149807
149586
149355
149876
149777
149919
149803
149636
149518
149766
149844
149950
149859
149617
149529
149810
149963
149888
149548
149619
149596
149914
149901
149861
149763
149543
149652
149875
149903
149861
149812
149643
149274
149965
149712
149951
149679
149710
149478
149744
149821
149904
149834
149590
149510
149738
149845
149931
149867
149633
149589
149819
149922
149827
149740
149486
149610
149848
149915
149853
149761
149518
149625
149862
149906
149868
149800
149612
149248
149968
149712
149960
149662
149708
149451
149743
149816
149909
149842
149589
149505
149754
149851
149923
149863
149620
149563
149819
149899
149887
149522
149647
149526
149898
149880
149838
149734
149482
149587
149850
149908
149845
149752
149493
149610
149860
149920
149894
149803
149573
149324
149877
149767
149932
149774
149630
149469
149746
149836
149911
149849
149583
149495
149751
149849
149915
149860
149611
149562
149812
149886
149852
149569
149571
149530
149876
149885
149828
149723
149456
149568
149847
149906
149845
149749
149481
149597
149856
149930
149914
149813
149517
149650
149438
149901
149830
150003
149412
149446
149704
149837
149897
149838
149548
149447
149733
149829
149915
149843
149572
149490
149798
149896
149892
149398
149624
149411
150002
149833
149837
149711
149441
149543
149839
149900
149825
149724
149445
149546
149835
149897
149831
149731
149455
149572
149844
149905
149878
149778
149541
149163
149934
149705
149936
149630
149633
149378
149704
149789
149884
149810
149501
149412
149706
149815
149892
149823
149527
149432
149718
149823
149904
149833
149556
149468
149781
149881
149866
149396
149600
149383
149941
149820
149806
149675
149384
149492
149808
149876
149799
149689
149387
149503
149811
149876
149804
149697
149400
149539
149823
149894
149870
149777
149460
149602
149368
149863
149786
149995
149315
149364
149648
149800
149864
149803
149467
149352
149665
149782
149863
149795
149474
149372
149680
149792
149871
149806
149510
149467
149725
149835
149639
149930
149042
149594
149536
149915
149746
149653
149299
149446
149775
149854
149771
149653
149327
149445
149777
149853
149771
149654
149332
149449
149777
149851
149777
149665
149351
149474
149783
149861
149833
149730
149386
149570
149263
149834
149715
150046
149174
149283
149579
149760
149823
149757
149387
149278
149615
149743
149836
149762
149415
149294
149629
149751
149834
149758
149419
149311
149640
149759
149841
149768
149453
149364
149703
149805
149774
149344
149445
149283
149847
149763
149734
149587
149255
149370
149740
149813
149727
149595
149253
149375
149735
149815
149729
149603
149261
149395
149741
149819
149742
149621
149284
149418
149748
149828
149795
149690
149324
149489
149215
149788
149688
149972
149132
149206
149543
149721
149788
149721
149313
149186
149557
149697
149793
149716
149331
149196
149571
149702
149791
149709
149337
149227
149584
149710
149800
149720
149374
149286
149655
149766
149737
149241
149379
149182
149820
149710
149688
149526
149157
149278
149696
149769
149677
149529
149152
149299
149693
149774
149680
149543
149160
149302
149686
149772
149687
149554
149181
149334
149694
149779
149740
149624
149223
149420
149104
149741
149611
149994
148984
149096
149458
149664
149734
149664
149211
149090
149484
149640
149742
149655
149228
149089
149500
149642
149739
149646
149229
149104
149500
149644
149743
149653
149250
149125
149515
149655
149754
149667
149291
149216
149581
149721
149560
149535
148951
149243
149548
149732
149605
149472
149033
149204
149616
149720
149614
149469
149044
149201
149623
149719
149620
149472
149069
149211
149624
149719
149629
149487
149088
149247
149638
149728
149688
149559
149148
149170
149204
149620
149629
149702
149033
148988
149404
149588
149685
149599
149138
148980
149418
149581
149685
149589
149139
149000
149431
149585
149686
149590
149150
149016
149442
149591
149688
149595
149177
149092
149500
149646
149479
149474
148800
149114
149463
149665
149529
149375
148903
149081
149541
149654
149542
149380
148916
149096
149557
149659
149550
149387
148937
149105
149557
149658
149561
149405
148962
149145
149572
149669
149629
149481
149033
148995
149155
149532
149568
149608
148931
148853
149306
149509
149609
149517
148990
148844
149308
149496
149612
149503
149008
148859
149331
149503
149619
149512
149031
148873
149347
149513
149626
149525
149070
148966
149438
149590
149453
149149
148838
148918
149516
149554
149465
149254
148781
148956
149485
149586
149474
149285
148797
148987
149489
149590
149468
149286
148791
148980
149467
149577
149527
149375
148853
148964
148852
149481
149453
149577
148720
148671
149193
149422
149531
149438
148847
148678
149196
149410
149537
149426
148876
148701
149229
149423
149549
149442
148933
148823
149326
149502
149264
149373
148366
148881
149224
149529
149355
149187
148588
148817
149358
149501
149342
149156
148564
148784
149353
149481
149359
149162
148597
148825
149367
149494
149437
149261
148669
148842
148658
149400
149351
149506
148537
148469
149058
149317
149443
149331
148701
148501
149087
149312
149456
149329
148720
148519
149112
149327
149465
149348
148777
148618
149236
149423
149305
148764
148619
148508
149293
149340
149227
148968
148344
148589
149244
149381
149242
149014
148374
148615
149257
149399
149263
149039
148408
148667
149277
149413
149358
149150
148507
148419
148746
149206
149297
149276
148459
148303
148946
149209
149353
149232
148528
148322
148971
149212
149369
149245
148605
148432
149121
149323
149179
148493
148405
148327
149150
149216
149102
148826
148134
148401
149124
149280
149127
148871
148166
148439
149143
149298
149149
148903
148205
148487
149163
149313
149267
149030
148355
148000
148790
149005
149250
149011
148404
148061
148829
149071
149260
149090
148382
148110
148865
149106
149257
149128
148487
148204
148931
149166
148908
148607
147877
148195
148964
149140
148985
148710
147933
148225
149008
149181
149022
148753
147973
148281
149036
149202
149155
148901
148130
147789
148554
148880
149108
148928
148124
147844
148659
148957
149151
148984
148199
148043
148856
149119
148813
148479
147662
147968
148823
149018
148780
148454
147578
147905
148793
149003
148832
148523
147646
148003
148853
149045
148991
148700
147820
147515
148273
148720
148945
148807
147811
147528
148427
148784
149005
148825
147921
147739
148661
148968
148624
148228
147320
147693
148741
148896
148748
148392
147454
147778
148706
148906
148780
148440
147452
146980
148075
148432
148765
148515
147507
147151
148198
148569
148831
148609
147624
147387
148436
148778
148460
147896
147063
147355
148542
148706
148536
148119
147074
147519
148582
148784
148746
148383
147311
146821
147901
148350
148608
148532
147273
146827
147890
148354
148594
148340
147230
146998
148103
148497
148132
147865
146450
147129
148201
148546
148287
147892
146648
147214
148331
148601
148552
148171
146957
146494
147582
148146
148460
148274
146961
146640
147818
148281
148525
148344
147261
147000
148144
148499
147913
147378
146114
146719
147958
148273
148205
147749
146481
145830
147488
147791
148262
147875
146648
146089
147539
147988
148343
148048
146779
146522
147884
148305
147823
147270
145908
146609
147922
148199
148268
147809
146481
145515
147237
147649
147955
147548
146003
145694
147258
147817
147330
146867
145014
145926
147485
147890
147603
147026
145414
146202
147680
148016
147996
147493
145955
145286
146829
147463
147877
147568
146133
146018
147491
147978
147260
146730
144951
145402
147092
147564
147412
146807
145037
144477
146264
146973
147521
147101
145427
145141
146923
147516
147010
146276
144455
145461
147126
147522
147581
147017
145180
144524
146306
147021
147244
146787
145034
144280
146350
147024
146767
145982
143794
143212
145228
146326
146939
146497
144384
144077
146266
147016
146395
145675
143166
144648
146551
146983
147278
146761
144605
142999
145532
146456
145563
144475
141853
143341
145706
146339
146354
145564
142960
142421
145321
146219
145813
144073
142032
143565
145988
146361
146597
145855
143274
141256
144423
145593
144751
143253
140262
142248
145052
145653
145789
144925
141879
141440
144864
145848
145990
144628
141711
138031
142909
143946
144986
143769
140324
139928
143697
144914
144882
143546
139455
139394
143807
145123
144744
142953
137746
136406
141761
143895
142639
141039
135023
139411
143165
144448
144437
142996
138594
137395
142352
144108
143717
141908
136617
136200
141699
143490
143342
141252
135326
134895
141008
143241
143224
140850
134619
134341
140661
143199
143137
140440
134059
133803
140208
143051
142954
139978
133581
133394
139754
142850
142742
139539
133235
133099
139334
142628
142512
139139
132986
132891
138952
142391
142270
138777
132814
132754
138611
142146
142023
138457
132708
132673
138313
141901
141780
138180
132650
132636
138057
141659
141540
137943
132630
132632
137838
141420
141303
137742
132640
132653
137653
141187
141074
137572
132672
132695
137498
140962
140853
137431
132722
132753
137370
140747
140644
137316
132786
132822
137267
140544
140449
137224
132860
132899
137185
140356
140268
137151
132941
132983
137121
140182
140101
137094
133026
133069
137070
140023
139949
137050
133113
133156
137031
139878
139812
137016
133200
133242
137002
139748
139688
136990
133285
133326
136980
139631
139579
136972
133368
133408
136964
139528
139482
136959
133448
133487
136954
139437
139397
136950
133525
133562
136947
139357
139322
136945
133598
133632
136944
139288
139257
136943
133666
133699
136943
139228
139201
136944
133730
133760
136945
139176
139153
136947
133789
133816
136949
139131
139112
136952
133843
133868
136954
139093
139077
136958
133892
133915
136961
139061
139047
136966
133938
133959
136969
139034
139022
136974
133979
133998
136978
139011
139001
136983
134017
134035
136988
138991
138983
136993
134052
134068
136998
138975
138968
137003
134084
134099
137008
138961
138955
137013
134113
134126
137018
138949
138944
137023
134140
134152
137027
138939
138935
137032
134164
134175
137037
138930
138927
137041
134186
134196
137045
138922
138919
137050
134207
134216
137054
138916
138913
137058
134225
134234
137062
138910
138908
137066
134242
134250
137069
138905
138903
137073
134257
134264
137077
138901
138900
137080
134272
134278
137084
138897
138897
137087
134285
134291
137091
138895
138894
137094
134297
134302
137097
138893
138893
137101
134308
134313
137104
138891
138891
137108
134319
134324
137111
138890
138891
137114
134329
134333
137117
138889
138890
137121
134338
134343
137124
138889
138890
137127
134347
134352
137130
138889
138891
137134
134356
134360
137137
138890
138892
137140
134365
134369
137143
138891
138893
137147
134373
134377
137150
138893
138895
137154
134382
134386
137157
138894
138897
137160
134390
134394
137164
138896
138899
137167
134398
134402
137170
138899
138902
137174
134406
134410
137177
138902
138905
137181
134414
134418
137185
138905
138908
137189
134422
134426
137192
138908
138912
137196
134430
134434
137199
138912
138916
137203
134438
134441
137207
138917
138920
137211
134445
134449
137214
138921
138925
137218
134453
134457
137222
138926
138930
137226
134461
134465
137230
138931
138935
137234
134469
134472
137237
138936
138941
137242
134476
134480
137245
138942
138946
137250
134484
134488
137253
138948
138952
137258
134492
134495
137262
138954
138959
137266
134499
134503
137270
138960
138965
137274
134507
134510
137278
138967
138972
137282
134514
134518
137286
138974
138979
137291
134521
134525
137295
138980
138985
137299
134528
134532
137303
138988
138993
137307
134536
134539
137311
138995
139000
137316
134543
134546
137320
139002
139007
137324
134550
134553
137328
139010
139015
137333
134556
134560
137337
139017
139022
137341
134563
134566
137345
139025
139030
137349
134570
134573
137353
139032
139038
137358
134576
134579
137362
139040
139045
137366
134583
134586
137370
139048
139053
137374
134589
134592
137378
139056
139061
137382
134595
134598
137386
139063
139069
137391
134601
134604
137394
139071
139077
137399
134607
134610
137403
139079
139085
137407
134613
134615
137411
139087
139093
137415
134618
134621
137418
139095
139100
137423
134624
134626
137426
139103
139108
137431
134629
134631
137434
139111
139116
137438
134634
134636
137442
139119
139124
137446
134639
134641
137449
139126
139132
137454
134644
134646
137457
139134
139140
137461
134648
134650
137464
139142
139147
137468
134652
134654
137471
139149
139155
137475
134656
134658
137478
139157
139162
137482
134660
134662
137485
139164
139169
137489
134664
134665
137492
139171
139178
137495
134667
134668
137498
139179
139185
137503
134673
134675
137507
139189
139192
137511
134678
134680
137509
139189
139177
137498
134678
134670
137482
139159
139203
137503
134685
134760
137599
139355
139448
137673
134818
142056
144691
146369
146740
146890
147546
147883
148029
148174
148587
148855
149138
149349
149505
149620
149703
149763
149805
149836
149859
149877
149890
149901
149909
149916
149922
149926
149929
149931
149933
149934
149936
149936
149932
149934
149941
149946
149954
149962
149972
149983
149994
150005
150015
150021
150023
150022
150020
150017
150015
150013
150012
150010
150008
150007
150005
150003
150000
149998
149996
149994
149992
149990
149989
149988
149987
149986
149986
149986
149986
149987
149989
149991
149993
149997
150000
150005
150010
150015
150021
150027
150034
150040
150046
150052
150058
150063
150068
150072
150075
150078
150080
150081
150082
150081
150080
150079
150077
150074
150071
150068
150064
150061
150057
150053
150048
150044
150040
150036
150032
150028
150024
150020
150016
150013
150009
150006
150002
149999
149997
149994
149991
149989
149986
149984
149982
149980
149978
149977
149975
149974
149972
149971
149970
149969
149968
149967
149966
149965
149965
149964
149964
149963
149963
149963
149962
149962
149962
149962
149962
149962
149962
149962
149962
149962
149962
149962
149963
149963
149963
149963
149964
149964
149965
149965
149966
149966
149966
149967
149968
149968
149969
149969
149970
149971
149971
149972
149973
149973
149974
149975
149976
149976
149977
149978
149979
149980
149980
149981
149982
149983
149984
149985
149986
149987
149988
149989
149990
149991
149993
149994
149996
150000
150007
150012
150015
150015
150017
150004
150012
150012
150020
150026
150029
150029
150027
150026
150024
150022
150021
150020
150019
150018
150017
150016
150016
150015
150015
150014
150014
150013
150013
150012
150012
150012
150011
150011
150011
150011
150010
150010
150010
150010
150009
150009
150009
150009
150008
150008
150008
150008
150008
150007
150007
150007
150007
150006
150006
150006
150006
150006
150005
150005
150005
150005
150005
150004
150004
150004
150004
150003
150003
150003
150003
150002
150002
150002
150001
150001
150000
150000
149999
149999
149998
149997
149995
149994
149994
149995
149997
149999
150000
150004
150010
150019
150024
150024
150021
150019
150016
150013
150010
150008
150005
150003
150000
149998
149995
149993
149990
149988
149985
149984
149980
149979
149976
149975
149971
149971
149967
149967
149963
149963
149959
149959
149956
149955
149952
149952
149949
149949
149945
149945
149942
149942
149939
149939
149936
149936
149933
149934
149930
149931
149928
149928
149925
149926
149922
149923
149920
149921
149918
149918
149915
149916
149913
149914
149911
149911
149908
149909
149906
149907
149904
149905
149902
149903
149900
149901
149899
149899
149897
149898
149895
149896
149894
149895
149893
149894
149892
149893
149891
149893
149891
149893
149891
149893
149891
149894
149892
149895
149893
149896
149895
149898
149897
149900
149899
149902
149901
149905
149903
149907
149906
149910
149909
149912
149911
149915
149914
149917
149916
149920
149918
149922
149920
149923
149922
149925
149923
149926
149924
149927
149925
149927
149925
149927
149926
149928
149926
149928
149926
149928
149925
149927
149924
149925
149923
149925
149922
149924
149922
149923
149921
149922
149919
149921
149918
149920
149918
149919
149917
149918
149916
149918
149914
149916
149913
149914
149912
149912
149911
149911
149909
149912
149910
149914
149923
149931
149956
149955
149953
149966
149949
149952
149965
149948
149953
149966
149950
149953
149967
149951
149954
149968
149951
149956
149969
149952
149955
149970
149953
149957
149970
149954
149957
149971
149955
149959
149972
149956
149960
149973
149957
149960
149974
149958
149961
149975
149958
149962
149975
149959
149963
149976
149959
149963
149976
149960
149963
149977
149960
149964
149977
149960
149964
149978
149960
149964
149978
149961
149964
149978
149960
149964
149978
149960
149964
149978
149959
149963
149977
149958
149963
149977
149957
149961
149976
149956
149960
149975
149954
149958
149973
149952
149956
149972
149950
149954
149970
149948
149952
149968
149946
149950
149967
149945
149949
149966
149943
149947
149964
149941
149945
149964
149940
149944
149963
149939
149943
149962
149938
149942
149962
149938
149942
149963
149938
149943
149963
149938
149943
149964
149938
149944
149965
149939
149945
149966
149940
149946
149967
149941
149947
149969
149942
149948
149970
149944
149950
149971
149945
149951
149972
149946
149952
149974
149948
149954
149975
149949
149955
149976
149951
149957
149977
149952
149958
149979
149954
149960
149980
149955
149961
149981
149957
149963
149982
149958
149964
149983
149960
149965
149985
149961
149967
149986
149963
149968
149987
149965
149970
149988
149966
149971
149989
149968
149973
149990
149970
149975
149992
149971
149976
149993
149973
149978
149994
149975
149980
149995
149977
149981
149996
149979
149983
149998
149981
149985
149999
149983
149987
150000
149985
149989
150002
149987
149991
150003
149989
149993
150004
149991
149995
150006
149994
149997
150007
149996
150000
150008
149999
150002
150010
150002
150004
150011
150004
150007
150013
150007
150010
150014
150010
150013
150016
150013
150015
150017
150017
150019
150019
150020
150022
150020
150023
150013
150015
150015
150015
150015
150014
150014
150013
150013
150013
150012
150012
150012
150011
150011
150011
150010
150010
150010
150009
150009
150009
150008
150008
150008
150007
150007
150006
150006
150005
150005
150004
150004
150003
150002
150001
150001
150000
149999
149997
149996
149995
149994
149993
149992
149991
149991
149990
149992
149994
149996
149997
150000
150002
150005
150007
150009
150011
150012
150012
150012
150011
150011
150010
150008
150007
150006
150005
150004
150003
150001
150000
149999
149998
149997
149996
149995
149994
149993
149992
149991
149990
149989
149988
149988
149986
149969
149966
149966
149970
149985
149989
149989
149995
149995
149997
149997
149997
149998
149999
150000
150001
150002
150003
150004
150005
150006
150007
150008
150009
150010
150011
150015
150014
150013
150011
150010
150009
150008
150007
150006
150005
150004
150003
150002
150001
150001
150000
149999
149999
150000
149999
149999
149997
149998
150000
150000
150001
149994
149993
149993
149993
149993
149990
149990
149975
149977
149972
149972
149972
149973
149974
149976
149996