/*--------------------------------*- C++ -*----------------------------------*\
| =========                 |                                                 |
| \\      /  F ield         | OpenFOAM: The Open Source CFD Toolbox           |
|  \\    /   O peration     | Version:  v2006                                 |
|   \\  /    A nd           | Website:  www.openfoam.com                      |
|    \\/     M anipulation  |                                                 |
\*---------------------------------------------------------------------------*/
FoamFile
{
    version     2.0;
    format      ascii;
    class       volVectorField;
    location    "0.116";
    object      U;
}
// * * * * * * * * * * * * * * * * * * * * * * * * * * * * * * * * * * * * * //

dimensions      [0 1 -1 0 0 0 0];


internalField   nonuniform List<vector> 
16277
(
(48.313 0.00155217 -2.87235e-19)
(48.3133 -0.00361183 0)
(48.313 0.00377678 0)
(48.3127 -0.00311036 0)
(48.3125 0.000479207 -4.32488e-21)
(48.311 -0.00124063 -7.18353e-19)
(48.3063 -0.00121568 8.86223e-19)
(48.2908 -0.00355183 0)
(48.2551 -0.00802926 0)
(48.1992 -0.0141719 0)
(48.1283 -0.0209118 -3.42988e-21)
(48.0502 -0.0272692 -6.99086e-21)
(47.9697 -0.0329566 1.77008e-21)
(47.8887 -0.037984 0)
(47.8072 -0.0425278 0)
(47.7241 -0.046746 0)
(47.6385 -0.0507484 0)
(47.5495 -0.0545937 0)
(47.4569 -0.0582993 0)
(47.3603 -0.0618672 0)
(47.2598 -0.0652959 0)
(47.1554 -0.0685885 0)
(47.0472 -0.0717544 0)
(46.9352 -0.0748068 0)
(46.8196 -0.0777592 0)
(46.7003 -0.0806232 0)
(46.5774 -0.0834072 0)
(46.4509 -0.0861165 0)
(46.3209 -0.0887535 0)
(46.1875 -0.0913182 0)
(46.0508 -0.093809 0)
(45.9109 -0.0962231 0)
(45.7678 -0.0985571 0)
(45.6218 -0.100807 0)
(45.4728 -0.102968 0)
(45.3211 -0.105035 0)
(45.1668 -0.107005 0)
(45.0099 -0.108871 0)
(44.8508 -0.110629 0)
(44.6894 -0.112275 0)
(44.526 -0.113804 0)
(44.3607 -0.115212 0)
(44.1938 -0.116495 0)
(44.0253 -0.117649 0)
(43.8554 -0.118671 0)
(43.6843 -0.119556 0)
(43.5123 -0.120302 0)
(43.3394 -0.120905 0)
(43.1659 -0.121364 0)
(42.992 -0.121673 0)
(42.8178 -0.121832 0)
(42.6436 -0.121838 0)
(42.4695 -0.121688 0)
(42.2958 -0.121385 0)
(42.1227 -0.120925 0)
(41.9503 -0.120277 0)
(41.7789 -0.119459 0)
(41.6087 -0.118501 0)
(41.44 -0.117385 0)
(41.2728 -0.116103 0)
(41.1075 -0.114654 0)
(40.9442 -0.11304 0)
(40.7832 -0.111262 0)
(40.6246 -0.109321 0)
(40.4687 -0.107216 0)
(40.3157 -0.104951 0)
(40.1658 -0.102524 0)
(40.0191 -0.0999344 0)
(39.8759 -0.0971802 0)
(39.7363 -0.0942553 0)
(39.6005 -0.0911506 0)
(39.4687 -0.0878546 0)
(39.3411 -0.0843547 0)
(39.2179 -0.0806413 0)
(39.0993 -0.0767104 0)
(38.9854 -0.0725597 0)
(38.8761 -0.0681723 0)
(38.7708 -0.063477 0)
(38.6685 -0.0582816 -3.00508e-20)
(38.5679 -0.0522706 2.99858e-20)
(38.4686 -0.0449838 0)
(38.373 -0.0362087 8.9555e-20)
(38.2891 -0.0265774 -5.91676e-20)
(38.23 -0.0181957 0)
(38.2039 -0.0128842 -1.7187e-18)
(38.2033 -0.0105358 1.11688e-18)
(38.2136 -0.00963939 0)
(38.2257 -0.00943503 0)
(38.2355 -0.00935723 0)
(38.2345 -0.00738582 1.7387e-17)
(38.2272 -0.00459648 -1.02929e-17)
(38.2028 -0.0102852 -1.26056e-17)
(38.1411 -0.0202372 -3.78903e-18)
(38.038 -0.0398373 2.12402e-18)
(37.8702 -0.0576767 0)
(37.6772 -0.0669746 0)
(36.9673 -0.102503 -2.76472e-19)
(36.5115 -0.0930298 2.32504e-18)
(37.6857 -0.113574 1.73399e-18)
(37.9173 -0.0967221 -5.82557e-18)
(37.9413 -0.119277 0)
(37.6343 -0.133697 1.79678e-18)
(35.9973 -0.0920245 1.93178e-18)
(35.4886 -0.0845116 7.19765e-19)
(37.5735 -0.133345 4.01168e-19)
(37.9636 -0.124082 1.33776e-18)
(37.9612 -0.121244 1.33872e-18)
(37.48 -0.1229 0)
(35.0208 -0.0739639 -1.2558e-18)
(34.5896 -0.0643165 1.16913e-19)
(37.381 -0.11251 0)
(37.9471 -0.118009 0)
(37.9079 -0.113528 1.65979e-19)
(37.2529 -0.103544 0)
(34.1869 -0.0571971 2.47414e-24)
(33.8231 -0.0518383 1.35723e-19)
(37.1364 -0.0967177 0)
(37.8669 -0.111149 -1.66824e-19)
(37.8074 -0.107658 1.05549e-20)
(37.0039 -0.0912584 3.94197e-19)
(33.4788 -0.0475959 -5.07005e-19)
(33.1772 -0.0430724 4.9265e-19)
(36.8892 -0.0858056 3.9613e-19)
(37.7546 -0.107185 -6.8878e-19)
(37.6832 -0.103013 -6.81622e-19)
(36.7503 -0.0811048 -7.9531e-19)
(32.8849 -0.0400396 0)
(32.624 -0.0364118 4.95072e-19)
(36.6333 -0.077084 -4.10808e-19)
(37.6187 -0.102238 -1.06786e-20)
(37.5366 -0.0979802 6.9463e-19)
(36.4913 -0.0731256 -4.11048e-19)
(32.3666 -0.0343531 -4.95355e-19)
(32.134 -0.0316057 0)
(36.3735 -0.070304 0)
(37.465 -0.0973937 0)
(37.3767 -0.0938566 6.84319e-19)
(36.2314 -0.0671185 0)
(31.9032 -0.0301984 0)
(31.6945 -0.0279266 0)
(36.1166 -0.0651653 0)
(37.3021 -0.0939998 0)
(37.2069 -0.0907382 0)
(35.9732 -0.0625688 0)
(31.4815 -0.0270663 0)
(31.2877 -0.0251975 0)
(35.8582 -0.0610074 0)
(37.1273 -0.0907375 0)
(37.0261 -0.0878928 0)
(35.7131 -0.0589346 0)
(31.0875 -0.0247449 0)
(30.9063 -0.0229778 0)
(35.5991 -0.0577709 0)
(36.9435 -0.0884084 0)
(36.84 -0.0857679 0)
(35.4555 -0.0562188 0)
(30.7191 -0.0230546 0)
(30.5483 -0.0211446 0)
(35.3433 -0.0551498 0)
(36.7554 -0.08663 0)
(36.6487 -0.0843072 0)
(35.1997 -0.0540742 0)
(30.3699 -0.0216452 0)
(30.2066 -0.0197299 0)
(35.0882 -0.0532117 0)
(36.5618 -0.0853533 0)
(36.4521 -0.0833487 0)
(34.9444 -0.0524842 0)
(30.035 -0.0205121 0)
(29.8775 -0.0186426 0)
(34.8332 -0.0516983 0)
(36.3631 -0.0844387 0)
(36.2505 -0.0827277 0)
(34.6889 -0.0512543 0)
(29.7111 -0.0196273 0)
(29.5582 -0.0177689 0)
(34.5777 -0.0505484 0)
(36.1593 -0.0839355 0)
(36.0437 -0.0824988 0)
(34.4324 -0.0503645 0)
(29.3958 -0.0189303 0)
(29.2463 -0.0170649 0)
(34.3207 -0.0497123 0)
(35.9502 -0.0838093 0)
(35.8315 -0.0826199 0)
(34.1742 -0.0497631 0)
(29.0869 -0.0183846 0)
(28.9397 -0.016496 0)
(34.0615 -0.0491404 0)
(35.7354 -0.0840149 0)
(35.6136 -0.083048 0)
(33.9135 -0.049404 0)
(28.7824 -0.0179616 0)
(28.6369 -0.016119 0)
(33.7994 -0.0487883 0)
(35.5148 -0.0844579 0)
(35.3896 -0.0837153 0)
(33.6496 -0.049233 0)
(28.4809 -0.0176812 0)
(28.3365 -0.0158147 0)
(33.5339 -0.0485901 0)
(35.288 -0.0851556 0)
(35.1594 -0.0846193 0)
(33.3821 -0.0492187 0)
(28.1814 -0.0174752 0)
(28.0375 -0.0156407 0)
(33.2644 -0.0485552 0)
(35.0547 -0.0860888 0)
(34.9225 -0.0857497 6.86137e-19)
(33.1103 -0.0493483 0)
(27.8827 -0.0173683 0)
(27.7387 -0.0155636 0)
(32.9903 -0.0486557 0)
(34.8145 -0.0872672 0)
(34.6784 -0.0871125 0)
(32.8336 -0.0496124 0)
(27.5838 -0.0173449 0)
(27.4395 -0.0155477 0)
(32.711 -0.0488319 0)
(34.5669 -0.0886734 0)
(34.427 -0.0886217 0)
(32.5516 -0.0499569 0)
(27.284 -0.0173828 0)
(27.1388 -0.0156009 0)
(32.4262 -0.0492148 0)
(34.3117 -0.0901167 0)
(34.1676 -0.0902374 0)
(32.2636 -0.0504451 0)
(26.9824 -0.0174585 0)
(26.836 -0.0156816 0)
(32.1351 -0.0497373 0)
(34.0484 -0.0917509 0)
(33.8998 -0.0920565 6.86571e-19)
(31.9692 -0.0510672 0)
(26.6782 -0.0175697 0)
(26.5302 -0.0158027 0)
(31.8373 -0.0503769 0)
(33.7765 -0.0936028 0)
(33.6232 -0.0940825 0)
(31.6678 -0.0518081 0)
(26.3707 -0.0177257 0)
(26.2207 -0.0159675 0)
(31.5322 -0.0511348 0)
(33.4955 -0.0956655 0)
(33.3374 -0.0963072 0)
(31.3587 -0.0526643 0)
(26.0591 -0.0179259 0)
(25.9067 -0.0161737 0)
(31.2191 -0.0520085 0)
(33.205 -0.0979314 0)
(33.0419 -0.0987225 0)
(31.0415 -0.0536308 0)
(25.7427 -0.0181671 0)
(25.5877 -0.0164174 0)
(30.8976 -0.0529933 0)
(32.9045 -0.100391 0)
(32.7361 -0.101317 6.86999e-19)
(30.7155 -0.0547009 0)
(25.4209 -0.0184452 0)
(25.2629 -0.0166933 0)
(30.567 -0.0540832 0)
(32.5936 -0.103032 0)
(32.4196 -0.104078 0)
(30.3802 -0.0558663 0)
(25.093 -0.018755 0)
(24.9317 -0.0169966 0)
(30.2269 -0.0552684 0)
(32.2718 -0.105839 0)
(32.0921 -0.106983 0)
(30.0352 -0.0571162 0)
(24.7585 -0.0190919 0)
(24.5937 -0.017329 0)
(29.8769 -0.0565278 0)
(31.9387 -0.108778 0)
(31.7532 -0.110005 0)
(29.6801 -0.0584282 0)
(24.4169 -0.0194528 0)
(24.2484 -0.0176833 0)
(29.5166 -0.0578381 0)
(31.5941 -0.111823 0)
(31.4026 -0.113107 6.87441e-19)
(29.3146 -0.0597807 0)
(24.0679 -0.0198308 0)
(23.8955 -0.01805 0)
(29.1457 -0.0591734 0)
(31.2376 -0.114921 0)
(31.0402 -0.116228 0)
(28.9385 -0.0611389 0)
(23.7113 -0.0202113 0)
(23.5351 -0.018411 0)
(28.7644 -0.0604915 0)
(30.8694 -0.118004 0)
(30.666 -0.119287 0)
(28.552 -0.0624546 0)
(23.3472 -0.0205733 0)
(23.1675 -0.0187431 0)
(28.3727 -0.0617369 0)
(30.4895 -0.120973 0)
(30.2804 -0.122185 0)
(28.1554 -0.0636731 0)
(22.9761 -0.0209023 0)
(22.7931 -0.0190368 0)
(27.9712 -0.0628576 0)
(30.0985 -0.123729 0)
(29.8841 -0.124815 0)
(27.7495 -0.0647401 0)
(22.5987 -0.0211808 0)
(22.4129 -0.019267 0)
(27.5609 -0.0637901 0)
(29.6972 -0.12615 0)
(29.4779 -0.127048 0)
(27.3353 -0.065585 0)
(22.216 -0.0213818 0)
(22.0282 -0.0194049 0)
(27.143 -0.0644543 0)
(29.2866 -0.128091 0)
(29.0633 -0.128718 0)
(26.9143 -0.066118 0)
(21.8297 -0.0214734 0)
(21.6409 -0.0194154 0)
(26.7193 -0.0647484 0)
(28.8686 -0.129362 0)
(28.6423 -0.129618 0)
(26.4888 -0.0662274 0)
(21.4419 -0.0214168 0)
(21.2534 -0.0192559 0)
(26.2924 -0.0645467 0)
(28.4453 -0.12973 0)
(28.2175 -0.129495 0)
(26.0616 -0.0657754 0)
(21.0556 -0.0211656 0)
(20.8693 -0.0188764 0)
(25.8656 -0.0636979 0)
(28.02 -0.128912 0)
(27.7926 -0.128049 0)
(25.6366 -0.0646023 0)
(20.6746 -0.0206639 0)
(20.4928 -0.0182166 0)
(25.4434 -0.0620301 0)
(27.5966 -0.126584 0)
(27.372 -0.124937 0)
(25.2187 -0.0625306 0)
(20.3038 -0.0198462 0)
(20.1293 -0.0172086 0)
(25.0311 -0.0593511 0)
(27.1802 -0.122374 0)
(26.9613 -0.119771 0)
(24.8139 -0.0593502 0)
(19.9493 -0.0186372 0)
(19.7857 -0.0157788 0)
(24.6355 -0.0554308 0)
(26.7772 -0.115859 0)
(26.5677 -0.112113 0)
(24.4296 -0.0548224 0)
(19.6184 -0.0169474 0)
(19.4699 -0.0138424 0)
(24.2647 -0.0500164 0)
(26.3951 -0.106567 0)
(26.1996 -0.101525 0)
(24.0749 -0.0487055 0)
(19.3198 -0.0146723 0)
(19.1913 -0.0113304 0)
(23.9284 -0.0429005 0)
(26.0433 -0.0941018 0)
(25.8665 -0.0876413 0)
(23.7599 -0.0407985 0)
(19.0637 -0.011785 0)
(18.9617 -0.00823484 0)
(23.6367 -0.0336766 0)
(25.7318 -0.0779835 0)
(25.5795 -0.0698586 0)
(23.4956 -0.0305445 0)
(18.8616 -0.00809831 0)
(18.7966 -0.0043051 0)
(23.4017 -0.022519 0)
(25.4712 -0.0578895 0)
(25.3495 -0.0480456 0)
(23.2942 -0.0186954 0)
(18.728 -0.00396444 0)
(18.7045 0.000145741 0)
(23.2369 -0.0102993 0)
(25.2759 -0.0338222 0)
(25.189 -0.0231317 0)
(23.1678 -0.00563173 0)
(18.6709 0.000621189 0)
(18.6928 0.00493207 0)
(23.1519 0.0035251 0)
(25.1551 -0.00735753 0)
(25.107 0.00332095 0)
(23.1251 0.00823313 0)
(18.697 0.00515885 0)
(18.7656 0.00979545 0)
(23.153 0.0180139 0)
(25.1154 0.0200088 0)
(25.1088 0.0304048 0)
(23.1706 0.0223041 0)
(18.8085 0.00944172 0)
(18.9191 0.0139311 6.2197e-20)
(23.2395 0.0313595 0)
(25.1573 0.0453403 0)
(25.1895 0.0568521 0)
(23.2972 0.0364323 0)
(18.9993 0.0138651 -6.21969e-20)
(19.1564 0.018714 6.21923e-20)
(23.4128 0.0461277 0)
(25.2841 0.0733547 0)
(25.3605 0.0840066 0)
(23.5164 0.0504727 0)
(19.2817 0.0189935 -6.21921e-20)
(19.4831 0.0236854 6.21859e-20)
(23.68 0.0600867 0)
(25.5032 0.1006 0)
(25.6216 0.104463 0)
(23.8251 0.0597979 0)
(19.6441 0.0216244 -6.21861e-20)
(19.8678 0.0257817 6.21787e-20)
(24.0189 0.068149 0)
(25.7956 0.118426 0)
(25.9429 0.118474 0)
(24.191 0.0657738 0)
(20.0475 0.0230208 -6.2179e-20)
(20.2843 0.026455 6.2171e-20)
(24.4067 0.0724279 0)
(26.1411 0.129481 0)
(26.3091 0.126638 0)
(24.5966 0.0685223 0)
(20.473 0.0232021 -6.21715e-20)
(20.7144 0.0262743 6.21629e-20)
(24.8252 0.0741545 0)
(26.5234 0.135679 0)
(26.7053 0.130523 0)
(25.0255 0.0690944 0)
(20.9048 0.0226519 -6.21638e-20)
(21.1446 0.025393 6.21549e-20)
(25.2602 0.0737116 0)
(26.9293 0.137641 0)
(27.1186 0.130431 0)
(25.4641 0.0676345 0)
(21.3308 0.0214847 -6.21561e-20)
(21.5631 0.0238674 6.2147e-20)
(25.6983 0.0712499 0)
(27.3458 0.135637 0)
(27.5363 0.126769 0)
(25.8996 0.0643715 0)
(21.7391 0.0197399 -6.21486e-20)
(21.959 0.0218303 6.21395e-20)
(26.1276 0.0670798 0)
(27.7609 0.130203 0)
(27.947 0.120107 0)
(26.3206 0.0596431 0)
(22.1201 0.0175739 -6.21414e-20)
(22.3237 0.0194248 6.21326e-20)
(26.5376 0.0615753 0)
(28.1639 0.121973 0)
(28.341 0.111035 0)
(26.7179 0.0537999 0)
(22.4664 0.0150957 -6.21348e-20)
(22.6507 0.0167527 6.21264e-20)
(26.9199 0.0550851 0)
(28.546 0.111535 0)
(28.7102 0.100162 0)
(27.084 0.047169 0)
(22.7727 0.0124152 -6.21288e-20)
(22.9359 0.0140231 6.21209e-20)
(27.2682 0.0480091 0)
(28.9001 0.0995131 0)
(29.0483 0.0880659 0)
(27.4127 0.0401942 0)
(23.0366 0.00988815 -6.21234e-20)
(23.1778 0.0114634 5.59058e-19)
(27.5772 0.0407836 4.12955e-19)
(29.2206 0.08661 -1.37625e-18)
(29.3503 0.0753935 0)
(27.7001 0.0332822 0)
(23.2586 0.00776315 -6.21186e-20)
(23.3766 0.00897036 6.21122e-20)
(27.8442 0.0334771 0)
(29.5037 0.0734451 -6.88065e-19)
(29.6146 0.062746 0)
(27.9462 0.0266468 0)
(23.4378 0.00552521 -6.21145e-20)
(23.5334 0.00652492 6.21091e-20)
(28.0699 0.0265098 0)
(29.7487 0.0604925 0)
(29.8409 0.0505501 0)
(28.1514 0.020308 0)
(23.576 0.00344732 -6.21111e-20)
(23.651 0.00438804 6.21067e-20)
(28.2556 0.0200931 0)
(29.9559 0.0482979 0)
(30.0301 0.0393325 0)
(28.3177 0.0145897 0)
(23.6769 0.0016435 -6.21085e-20)
(23.7336 0.00267556 6.21048e-20)
(28.4037 0.0145823 0)
(30.1271 0.0373074 0)
(30.1846 0.0296618 0)
(28.4482 0.00999178 0)
(23.7449 0.000287498 -6.21064e-20)
(23.7861 0.00141427 6.21035e-20)
(28.5182 0.010075 0)
(30.2655 0.0278607 0)
(30.3082 0.0212268 0)
(28.5475 0.00584282 0)
(23.7856 -0.000840445 -6.2105e-20)
(23.8148 1.791e-05 6.21032e-20)
(28.6039 0.00528582 0)
(30.375 0.0194648 0)
(30.405 0.0139191 0)
(28.6207 0.00157525 0)
(23.8049 -0.00242962 -6.21043e-20)
(23.8252 -0.0010609 6.21031e-20)
(28.6654 0.00119646 0)
(30.4596 0.0121549 0)
(30.4792 0.0079696 0)
(28.672 -0.000716545 0)
(23.8079 -0.00313834 -6.21042e-20)
(23.8212 -0.00158957 6.21029e-20)
(28.7074 -0.00100971 0)
(30.5245 0.00661316 0)
(30.5353 0.00355931 0)
(28.7056 -0.0028991 0)
(23.7988 -0.00362869 -6.21036e-20)
(23.8068 -0.00180851 6.21017e-20)
(28.7336 -0.00238915 0)
(30.5725 0.00315032 0)
(30.5759 0.00135812 0)
(28.7243 -0.00244471 0)
(23.7811 -0.00263901 -6.21026e-20)
(23.7836 -0.000576404 6.21005e-20)
(28.7467 -0.00161666 0)
(30.607 0.00136733 0)
(30.6044 0.000147081 0)
(28.7319 -0.00287302 0)
(23.756 -0.00241059 -6.21016e-20)
(23.7565 -0.00075179 6.21009e-20)
(28.7507 -0.00288454 0)
(30.6308 -0.000373847 0)
(30.6236 -0.00123395 0)
(28.7322 -0.00359336 0)
(23.7276 -0.00232603 -6.2102e-20)
(23.7264 -0.000815602 6.21016e-20)
(28.7476 -0.00350335 0)
(30.646 -0.00191262 0)
(30.6355 -0.00231251 0)
(28.7264 -0.0037876 0)
(23.6966 -0.0022124 -6.21024e-20)
(23.6943 -0.000754485 6.21014e-20)
(28.7392 -0.00370609 0)
(30.6549 -0.00292224 0)
(30.6416 -0.00342127 0)
(28.7159 -0.00411175 0)
(23.6641 -0.00217208 -6.2102e-20)
(23.6617 -0.000617382 6.21016e-20)
(28.7271 -0.00371097 0)
(30.6589 -0.00339609 0)
(30.6434 -0.00423537 0)
(28.7019 -0.00441592 0)
(23.631 -0.00211187 -6.21021e-20)
(23.6286 -0.000799854 6.21016e-20)
(28.7119 -0.0045528 0)
(30.6588 -0.00533021 0)
(30.6414 -0.00459282 0)
(28.6856 -0.00431967 0)
(23.5979 -0.00207358 -6.21019e-20)
(23.5953 -0.000697848 6.21025e-20)
(28.6945 -0.00374824 0)
(30.6559 -0.00543773 0)
(30.6383 -0.00759648 0)
(28.669 -0.00670667 0)
(23.5654 -0.00298908 -6.21028e-20)
(23.5646 -0.00163407 6.21043e-20)
(28.6771 -0.00534277 0)
(30.6506 -0.00625127 -6.88006e-19)
(30.6313 -0.00751682 0)
(28.6498 -0.00592365 0)
(23.532 -0.00323344 -6.2105e-20)
(23.5319 -0.00203911 6.21048e-20)
(28.6571 -0.00548276 0)
(30.6433 -0.00830738 0)
(30.6234 -0.00823972 0)
(28.6293 -0.00583866 0)
(23.4994 -0.00342203 -6.21059e-20)
(23.5004 -0.00214654 6.21062e-20)
(28.6372 -0.00596849 0)
(30.6357 -0.00902242 0)
(30.6168 -0.00848544 0)
(28.6109 -0.00648061 0)
(23.4705 -0.00341494 -6.21059e-20)
(23.4724 -0.00165137 6.21054e-20)
(28.6195 -0.00547137 0)
(30.629 -0.0077309 0)
(30.6091 -0.00541537 0)
(28.5923 -0.00333441 0)
(23.4428 -0.00175734 -6.2075e-20)
(23.4425 -8.85324e-05 6.20117e-20)
(28.6005 -0.00239329 0)
(30.622 -0.00415802 -6.86708e-19)
(30.6016 -0.00452789 -6.83695e-19)
(28.5734 -0.00366755 3.07374e-19)
(23.4144 -0.00130386 -5.53985e-19)
(23.416 7.97657e-05 0)
(28.584 -0.00206681 7.86078e-25)
(30.6198 -0.00138159 0)
(30.6059 -0.000128933 -6.6779e-19)
(28.5629 -0.000704709 9.9515e-20)
(23.3895 0.000333539 0)
(23.4227 0.00319026 -9.67702e-19)
(28.5887 0.00385726 -1.42837e-23)
(30.6354 0.00512038 -6.65915e-19)
(30.6288 0.0135803 0)
(28.5897 0.00617455 0)
(23.4143 0.00221375 9.04737e-19)
(23.4931 0.0126001 -2.45001e-19)
(28.6639 0.023085 -4.01892e-18)
(30.6962 0.0311774 -1.32291e-23)
(30.754 0.0656403 5.11464e-18)
(28.7475 0.0500854 0)
(23.6407 0.0268981 -1.55975e-18)
(23.9298 0.06755 -2.01057e-18)
(28.944 0.0980873 1.59555e-17)
(30.9372 0.103831 4.24599e-23)
(31.4723 0.0676958 -3.71559e-17)
(29.7411 0.131045 1.04355e-18)
(25.078 0.12492 0)
(24.8323 0.0643551 0)
(28.7928 0.128631 -8.81858e-19)
(30.5993 0.191752 7.39102e-19)
(31.7836 0.285438 -7.49133e-18)
(32.6559 0.135281 -4.38654e-22)
(33.1616 0.0300116 1.3134e-17)
(33.3349 0.00805298 -1.9133e-19)
(33.4409 0.018673 -2.83218e-18)
(33.6507 0.0240533 2.83641e-18)
(33.7348 0.0192594 0)
(33.8272 0.0213168 0)
(33.8687 0.0199912 6.10539e-19)
(33.9042 0.0218001 7.87761e-19)
(33.9121 0.0204426 -1.75601e-19)
(33.9011 0.0217961 8.90311e-19)
(33.8755 0.0198463 -1.44757e-18)
(33.808 0.0199714 7.45385e-19)
(33.738 0.0128901 0)
(33.5624 0.0116915 -1.27933e-17)
(33.4625 0.00582977 -1.48602e-17)
(33.3509 0.00645093 0)
(33.2138 0.0191479 -5.28978e-19)
(32.9797 0.011385 0)
(32.3793 -0.0275863 0)
(31.0818 -0.0674328 2.67793e-18)
(28.3679 -0.0665557 -6.93674e-18)
(24.9029 -0.0672047 0)
(17.7627 -0.0662369 -3.65452e-19)
(17.2178 -0.0460278 3.45069e-19)
(24.5478 -0.0854844 -8.53612e-18)
(28.0808 -0.0854991 2.00765e-17)
(27.7878 -0.086103 8.11674e-19)
(24.2144 -0.0652796 2.68924e-18)
(16.7813 -0.04442 -2.84089e-18)
(16.4948 -0.0274454 0)
(23.99 -0.0428613 -1.43987e-18)
(27.5994 -0.0637293 -3.70349e-18)
(27.5115 -0.0404089 0)
(23.9014 -0.0274343 9.4626e-19)
(16.2891 -0.0162892 0)
(16.2563 -0.00891965 0)
(23.8589 -0.0127276 2.22522e-19)
(27.4751 -0.0181711 -1.20502e-18)
(27.4364 -0.0108328 5.35705e-25)
(23.8208 -0.0104159 -2.22588e-19)
(16.1441 -0.00552462 0)
(16.1395 0.000536066 0)
(23.7963 -0.00237186 0)
(27.4392 -0.00309243 -1.68563e-19)
(27.4438 0.00385233 0)
(23.8006 0.00227363 0)
(16.1448 0.000890039 0)
(16.1552 0.00104115 0)
(23.8094 0.00322506 0)
(27.452 0.00573462 0)
(27.4621 0.00854527 0)
(23.8224 0.00455383 0)
(16.17 0.00143704 0)
(16.1846 0.00142935 0)
(23.8362 0.00457962 0)
(27.4735 0.00819877 0)
(27.4852 0.00943892 0)
(23.8516 0.00511649 0)
(16.2015 0.00164601 0)
(16.2203 0.00180215 0)
(23.8693 0.00559337 0)
(27.4999 0.00976705 -1.68219e-19)
(27.5131 0.0111087 1.68549e-19)
(23.886 0.00605226 0)
(16.2388 0.0019364 0)
(16.2581 0.0017404 0)
(23.9043 0.00546439 0)
(27.5282 0.00995168 0)
(27.5419 0.0110916 0)
(23.9219 0.00607198 0)
(16.2771 0.00201292 0)
(16.2977 0.00191899 0)
(23.9411 0.00572477 0)
(27.5577 0.0104712 0)
(27.5735 0.0120945 0)
(23.9611 0.00641164 0)
(16.319 0.00213441 0)
(16.3396 0.00211326 0)
(23.9802 0.00609652 0)
(27.5893 0.0112954 0)
(27.6046 0.0117122 0)
(23.9997 0.00619454 0)
(16.3608 0.00222619 0)
(16.383 0.00227044 0)
(24.0204 0.00635126 0)
(27.6217 0.0117519 0)
(27.6365 0.0128617 0)
(24.0393 0.00683232 0)
(16.4039 0.00247644 0)
(16.4261 0.00220577 0)
(24.0601 0.00609926 0)
(27.6539 0.0114831 0)
(27.6706 0.0126013 0)
(24.0809 0.0068375 0)
(16.4492 0.00253921 0)
(16.4708 0.00230383 0)
(24.1007 0.00643927 0)
(27.6867 0.0120866 0)
(27.7031 0.0129694 0)
(24.1212 0.00678998 0)
(16.4934 0.00246708 0)
(16.5165 0.00248808 0)
(24.1426 0.00675774 0)
(27.721 0.0124861 0)
(27.737 0.0125859 0)
(24.1627 0.00666597 0)
(16.5391 0.0024258 0)
(16.5621 0.00225133 0)
(24.184 0.00652496 0)
(27.7548 0.0121294 0)
(27.7712 0.0132026 0)
(24.2044 0.00718603 0)
(16.5854 0.0024487 0)
(16.6098 0.00223231 0)
(24.2263 0.00666219 0)
(27.7896 0.0117723 0)
(27.807 0.0123832 0)
(24.2478 0.00678971 0)
(16.634 0.00216713 0)
(16.6582 0.00203045 0)
(24.27 0.00670535 0)
(27.8253 0.0121102 0)
(27.8435 0.01314 0)
(24.2929 0.00707192 0)
(16.6835 0.00226414 0)
(16.7084 0.00230998 0)
(24.3165 0.00702004 0)
(27.863 0.0127535 0)
(27.8807 0.0137527 0)
(24.3389 0.00726998 0)
(16.7325 0.00253987 -1.4408e-19)
(16.7573 0.00252494 1.43936e-19)
(24.3622 0.00714542 0)
(27.9001 0.0134396 0)
(27.9188 0.0145293 0)
(24.3853 0.00768363 0)
(16.7826 0.00277158 0)
(16.8077 0.00258543 0)
(24.4085 0.00718274 0)
(27.9384 0.0135247 0)
(27.9568 0.0141185 0)
(24.4309 0.00744438 0)
(16.8323 0.00268905 0)
(16.8579 0.00262196 0)
(24.4545 0.00742762 0)
(27.9769 0.0136782 0)
(27.9963 0.0144494 0)
(24.4779 0.00786933 0)
(16.8838 0.00263353 0)
(16.91 0.00243091 0)
(24.5018 0.00724415 0)
(28.0171 0.0131335 0)
(28.0365 0.0137197 0)
(24.525 0.00737922 0)
(16.9353 0.00236479 0)
(16.9616 0.00222301 0)
(24.55 0.00708108 0)
(28.058 0.0132923 0)
(28.0791 0.0147609 0)
(24.5754 0.00780692 0)
(16.9879 0.00256156 0)
(17.014 0.00244551 0)
(24.6009 0.00733113 0)
(28.1012 0.0140484 0)
(28.1223 0.0150419 0)
(24.6257 0.00771076 0)
(17.0393 0.00256816 0)
(17.065 0.00255557 0)
(24.6513 0.00766358 0)
(28.1449 0.0147698 0)
(28.1672 0.0156151 0)
(24.677 0.00792052 0)
(17.0908 0.00264241 0)
(17.1168 0.002508 0)
(24.7034 0.00750885 0)
(28.1912 0.0148057 0)
(28.2138 0.0153718 0)
(24.7288 0.00763656 0)
(17.1417 0.00245838 0)
(17.1672 0.00221713 0)
(24.7553 0.00749289 0)
(28.2384 0.0148069 0)
(28.2628 0.0155355 0)
(24.7819 0.0078601 0)
(17.1927 0.00227469 0)
(17.2184 0.00186051 0)
(24.8097 0.00712053 0)
(28.289 0.014499 0)
(28.3151 0.0154512 0)
(24.838 0.00739244 0)
(17.2433 0.00178061 0)
(17.2683 0.00173595 0)
(24.8675 0.00732369 0)
(28.3431 0.0155581 0)
(28.3713 0.0167745 0)
(24.8976 0.00779391 0)
(17.2927 0.00196631 0)
(17.3171 0.00182475 0)
(24.9287 0.00742465 0)
(28.4015 0.0163989 0)
(28.4315 0.0172699 0)
(24.9598 0.00763032 0)
(17.3404 0.00180119 0)
(17.3641 0.0016008 0)
(24.9926 0.00753973 0)
(28.4641 0.0172512 0)
(28.4969 0.01848 0)
(25.0258 0.00785152 0)
(17.3868 0.00164215 0)
(17.409 0.00142644 0)
(25.0601 0.00746595 0)
(28.5317 0.0180801 0)
(28.5667 0.0190249 0)
(25.0945 0.00766793 0)
(17.4297 0.00137455 0)
(17.4503 0.0010818 0)
(25.1306 0.00749834 0)
(28.6043 0.0189339 0)
(28.6429 0.0200768 0)
(25.1679 0.00778833 0)
(17.4705 0.00096071 0)
(17.4901 0.000482621 0)
(25.2067 0.00726776 0)
(28.6841 0.0195172 0)
(28.726 0.020494 0)
(25.2464 0.00760951 0)
(17.5091 0.000246962 0)
(17.5283 -0.000251983 0)
(25.2888 0.00754133 0)
(28.7714 0.0206042 0)
(28.8189 0.0221854 0)
(25.3341 0.00778245 0)
(17.5482 -0.000557483 0)
(17.5681 -0.00108451 0)
(25.3825 0.00742188 0)
(28.8699 0.0223752 0)
(28.9226 0.024558 0)
(25.4333 0.00820188 0)
(17.5884 -0.000900256 0)
(17.6095 -0.000636188 0)
(25.4883 0.00902287 0)
(28.9798 0.0261574 0)
(29.0394 0.0292608 0)
(25.5465 0.0103047 0)
(17.6315 -0.000141898 0)
(17.6545 9.61445e-05 0)
(25.6079 0.0108986 0)
(29.1029 0.0306011 0)
(29.1687 0.0334751 0)
(25.6719 0.0123859 0)
(17.6795 0.000600212 0)
(17.7076 0.000429932 0)
(25.7409 0.0134239 0)
(29.2395 0.0352169 0)
(29.3134 0.0383995 0)
(25.8144 0.0151133 0)
(17.7405 0.000395811 0)
(17.7794 0.000532561 0)
(25.8933 0.016642 0)
(29.3925 0.040253 0)
(29.4758 0.0437171 0)
(25.9783 0.0186926 0)
(17.8251 0.00071078 0)
(17.8806 0.00059322 0)
(26.0727 0.0203647 0)
(29.5658 0.0470656 0)
(29.6611 0.0528029 0)
(26.1757 0.0237823 0)
(17.9467 0.00167715 0)
(18.0259 0.00299433 0)
(26.2889 0.0271941 0)
(29.7632 0.057912 0)
(29.871 0.064957 0)
(26.4116 0.031884 0)
(18.1199 0.00486943 0)
(18.2327 0.00653536 0)
(26.5472 0.036817 0)
(29.9872 0.0714696 1.67928e-19)
(30.1103 0.0805955 -1.68253e-19)
(26.695 0.0430823 0)
(18.3656 0.00906598 0)
(18.5232 0.0118306 0)
(26.8575 0.0491499 0)
(30.242 0.0894777 0)
(30.3822 0.101413 0)
(27.0359 0.0569097 0)
(18.708 0.0156007 0)
(18.9249 0.0206527 0)
(27.2341 0.0659795 0)
(30.5339 0.115567 0)
(30.6971 0.134705 0)
(27.453 0.0775144 0)
(19.1759 0.0280906 0)
(19.4728 0.0370564 0)
(27.6997 0.0889018 0)
(30.8773 0.15551 0)
(31.083 0.181427 1.68109e-19)
(27.9867 0.101359 0)
(19.8417 0.0478152 0)
(20.3054 0.0777559 0)
(28.3171 0.136659 0)
(31.3145 0.234254 -1.6863e-19)
(31.5461 0.348201 -2.70903e-18)
(28.6576 0.256133 1.49863e-23)
(20.7695 0.177083 2.29288e-18)
(21.2094 0.245698 -9.11939e-18)
(28.9849 0.349831 -5.11248e-23)
(31.7541 0.465041 2.53675e-18)
(31.9195 0.628729 -2.52225e-18)
(29.2545 0.515342 -7.02483e-18)
(21.6343 0.381996 9.03313e-18)
(22.0043 0.545959 1.42545e-19)
(29.405 0.700542 -6.99993e-18)
(32.0273 0.800223 5.3334e-18)
(32.1119 0.966166 -5.46412e-18)
(29.6239 0.850945 0)
(22.3675 0.658581 0)
(22.7005 0.800727 1.80002e-17)
(29.7479 1.0115 -1.37462e-17)
(32.1786 1.12342 -5.09297e-18)
(32.2242 1.26979 0)
(29.8858 1.14901 -1.36017e-17)
(23.0708 0.920404 1.78681e-17)
(23.4611 1.04561 1.77382e-17)
(30.0212 1.29186 -4.21902e-19)
(32.2728 1.42103 0)
(32.2737 1.58311 0)
(30.1098 1.47123 4.22522e-19)
(23.8072 1.20464 -5.53712e-19)
(24.1068 1.31562 -1.63616e-17)
(30.1911 1.60165 0)
(32.2623 1.71517 0)
(32.2536 1.81925 -1.02952e-17)
(30.2831 1.69481 1.35189e-17)
(24.4402 1.40008 -1.82919e-17)
(24.8062 1.51652 0)
(30.3728 1.81503 1.65844e-18)
(32.2472 1.92666 0)
(32.222 2.05333 -9.7472e-18)
(30.4465 1.94344 -1.64278e-18)
(25.1853 1.62699 -4.44137e-18)
(25.3924 1.7118 2.04776e-17)
(30.5 2.11431 -3.4689e-17)
(32.1419 2.2153 2.41372e-17)
(31.9407 2.11921 2.98794e-17)
(30.3641 2.03396 -5.54871e-17)
(25.3696 1.59932 -2.03466e-17)
(20.2222 1.21459 -3.16413e-17)
(27.9556 1.6142 -3.12751e-18)
(30.9011 1.64599 -1.59476e-17)
(31.7093 2.24948 -3.52698e-18)
(29.0533 2.10983 4.69726e-18)
(21.488 1.59222 -3.10688e-18)
(21.4847 1.72215 1.39588e-18)
(29.169 2.33555 -2.11667e-18)
(31.7331 2.51549 -1.61032e-18)
(31.6878 2.6419 5.26108e-17)
(29.232 2.43287 -6.36645e-22)
(21.8104 1.81776 -4.46293e-17)
(22.2303 1.9754 3.33148e-19)
(29.2475 2.56899 6.4902e-17)
(31.6106 2.7612 6.81547e-22)
(31.6236 2.86315 2.4637e-17)
(29.4006 2.65782 -3.18261e-17)
(22.7372 2.0846 4.18118e-17)
(23.2983 2.21094 -3.18631e-19)
(29.516 2.75415 1.20836e-19)
(31.6094 2.96565 2.33375e-17)
(31.6186 3.10975 -2.38806e-17)
(29.6865 2.91845 3.0264e-17)
(23.8371 2.37965 -3.09754e-19)
(24.3418 2.49406 6.17839e-19)
(29.7669 3.00106 2.82968e-17)
(31.5684 3.20139 -2.36194e-17)
(31.5526 3.30946 -1.80398e-17)
(29.8975 3.15089 -2.72418e-17)
(24.8452 2.65617 4.05164e-17)
(25.332 2.75254 -2.3716e-18)
(29.9996 3.23222 0)
(31.5165 3.38913 -2.62559e-18)
(31.4643 3.52403 0)
(30.084 3.37739 2.41283e-17)
(25.7545 2.86794 -6.88346e-17)
(25.8895 2.86472 5.08442e-17)
(30.0179 3.40277 0)
(31.273 3.48768 -1.26584e-16)
(30.4882 3.12051 1.06646e-17)
(28.2059 2.94677 -3.14172e-18)
(22.3108 2.35679 -3.76629e-18)
(23.6683 2.85803 0)
(29.2119 3.45338 -2.30767e-18)
(31.1283 3.63014 -6.95356e-18)
(31.1196 3.85717 0)
(29.3309 3.64985 -3.20539e-17)
(23.9692 3.02928 4.234e-17)
(24.5028 3.14882 6.3342e-19)
(29.5339 3.74137 -9.62278e-19)
(31.1237 3.96119 0)
(31.0949 4.10398 1.03153e-21)
(29.6181 3.9355 2.8004e-17)
(24.9056 3.35688 -3.89065e-17)
(25.2896 3.47345 3.45958e-17)
(29.6765 4.01812 3.4918e-18)
(31.0475 4.18513 0)
(30.9992 4.29994 1.9854e-17)
(29.7622 4.13514 -1.66683e-18)
(25.6912 3.61 -2.2496e-18)
(25.8783 3.75299 4.11017e-18)
(29.7357 4.32554 0)
(30.8712 4.46187 -3.21796e-17)
(30.6446 4.43572 -3.70407e-18)
(29.6099 4.27435 2.2833e-18)
(25.9752 3.69596 4.60373e-17)
(22.8805 3.38792 0)
(28.1066 3.97279 -3.07675e-18)
(29.9536 4.13928 7.922e-18)
(30.3953 4.62337 3.7881e-17)
(28.8762 4.42869 -7.45127e-17)
(24.0181 3.76184 9.69701e-17)
(24.2963 3.95136 -4.37025e-17)
(28.9176 4.61006 -3.19131e-17)
(30.3108 4.81849 1.54622e-18)
(30.1626 4.97244 -2.38931e-17)
(28.9093 4.79859 -3.15726e-17)
(24.6755 4.18456 8.41631e-17)
(25.0519 4.35113 0)
(28.8682 4.90636 3.73045e-18)
(30.0064 5.09431 0)
(29.8493 5.25827 0)
(28.8783 5.05958 9.54941e-18)
(25.4539 4.53292 0)
(25.5382 4.69672 0)
(28.6983 5.26439 -1.97977e-17)
(29.5324 5.35013 0)
(28.9064 5.1761 -2.50505e-17)
(27.3611 4.91091 2.59558e-17)
(22.9273 4.16984 0)
(24.2121 4.70422 1.00952e-16)
(28.0423 5.30146 2.94736e-19)
(29.2758 5.51476 -1.78716e-18)
(29.1146 5.81143 -2.44442e-17)
(28.0456 5.66323 3.24136e-17)
(24.5024 5.05609 -8.72648e-17)
(24.8238 5.21861 8.10688e-17)
(27.9907 5.75308 -6.00133e-17)
(28.9294 5.92806 -2.18045e-17)
(28.6951 6.12841 -3.46807e-17)
(27.9173 5.97883 8.85734e-17)
(25.0217 5.44421 -1.52751e-16)
(24.9803 5.56135 2.11442e-16)
(27.6315 6.10481 9.80209e-17)
(28.3133 6.18251 -5.16849e-21)
(27.7524 6.11935 -7.07472e-19)
(26.5384 5.76963 -8.27861e-19)
(22.7919 5.03205 -1.00194e-18)
(23.6995 5.83658 1.02211e-16)
(26.9069 6.44442 6.00366e-19)
(27.8686 6.56383 0)
(27.4982 6.77164 9.77023e-17)
(26.7029 6.6091 -6.65392e-17)
(23.7859 6.06965 -2.45663e-18)
(24.0058 6.39318 2.48684e-18)
(26.4828 6.85934 0)
(27.1064 7.00674 -5.61188e-17)
(26.5782 7.14067 -3.37786e-17)
(26.0645 7.12666 0)
(23.8661 6.63545 3.31586e-18)
(22.122 6.1327 -1.39767e-16)
(25.0996 6.845 1.10604e-16)
(25.9956 7.19282 0)
(25.8929 7.61368 -5.78618e-17)
(25.1662 7.57308 7.73086e-17)
(22.8181 7.10932 2.02227e-19)
(22.7623 7.34473 8.84837e-17)
(24.8025 7.66165 0)
(25.343 7.76532 0)
(24.6755 8.02359 0)
(24.2559 8.05998 -5.40332e-17)
(22.5664 7.82507 1.55671e-16)
(22.0939 8.00183 0)
(23.5154 8.19206 0)
(23.8144 8.07521 -8.03608e-18)
(22.8277 8.43346 1.09664e-17)
(22.3429 8.2943 0)
(20.388 7.97706 -1.32087e-16)
(20.3044 8.61949 -1.20737e-17)
(21.7509 8.77063 -1.32765e-16)
(22.122 8.64917 1.76813e-21)
(20.8668 8.61211 -4.65507e-18)
(20.6372 8.87839 5.91935e-18)
(19.4893 8.81136 1.87877e-17)
(17.6376 8.82302 -4.51912e-18)
(19.0928 9.00099 -1.46811e-17)
(19.4785 9.02063 1.79707e-17)
(18.3261 8.86927 -8.52844e-17)
(17.953 9.23011 1.22613e-16)
(16.956 9.42318 -1.24226e-17)
(15.3071 9.40633 2.46761e-16)
(15.9975 8.82602 -1.5263e-16)
(16.3316 8.12358 0)
(13.3847 8.19039 -7.22816e-17)
(12.9524 8.68155 -1.20298e-17)
(12.1206 9.13139 0)
(9.31005 7.72825 0)
(9.92468 6.85762 1.78632e-17)
(10.7036 5.87948 -9.03002e-18)
(7.33348 3.94305 -1.32502e-16)
(5.87165 4.90644 3.63389e-16)
(4.96436 5.15689 -2.44748e-16)
(1.89513 0.808897 1.99187e-16)
(3.16401 -0.218985 -2.70657e-16)
(5.08308 -1.14602 1.83601e-16)
(3.77002 -9.5451 0)
(1.55805 -9.57308 -4.39422e-17)
(-0.182603 -9.83315 1.27282e-16)
(3.37781 -18.2996 -9.60458e-19)
(5.0684 -17.3023 4.64742e-17)
(6.51363 -16.5451 -3.20322e-17)