/*--------------------------------*- C++ -*----------------------------------*\
| =========                 |                                                 |
| \\      /  F ield         | OpenFOAM: The Open Source CFD Toolbox           |
|  \\    /   O peration     | Version:  v2006                                 |
|   \\  /    A nd           | Website:  www.openfoam.com                      |
|    \\/     M anipulation  |                                                 |
\*---------------------------------------------------------------------------*/
FoamFile
{
    version     2.0;
    format      ascii;
    class       volScalarField;
    location    "0.032";
    object      Ma;
}
// * * * * * * * * * * * * * * * * * * * * * * * * * * * * * * * * * * * * * //

dimensions      [0 0 0 0 0 0 0];


internalField   nonuniform List<scalar> 
31566
(
0.237742
0.237743
0.237717
0.237717
0.237717
0.237717
0.237717
0.237718
0.237718
0.237718
0.237719
0.237719
0.23772
0.23772
0.237721
0.237721
0.237722
0.237722
0.237724
0.237717
0.23768
0.237587
0.237435
0.237238
0.237011
0.236768
0.236516
0.236263
0.236009
0.235755
0.235499
0.235241
0.234979
0.234713
0.234443
0.234168
0.233888
0.233604
0.233316
0.233024
0.232728
0.232429
0.232127
0.231822
0.231514
0.231204
0.230891
0.230576
0.23026
0.229941
0.229622
0.229301
0.228979
0.228656
0.228333
0.22801
0.227687
0.227364
0.227042
0.226721
0.2264
0.226081
0.225763
0.225448
0.225134
0.224822
0.224513
0.224207
0.223903
0.223603
0.223306
0.223013
0.222723
0.222437
0.222156
0.22188
0.221609
0.221344
0.221084
0.220829
0.220577
0.220327
0.220076
0.219822
0.219562
0.219297
0.219034
0.218789
0.218586
0.218451
0.218397
0.218409
0.218455
0.218513
0.218574
0.218634
0.218692
0.218746
0.218793
0.218825
0.21883
0.218763
0.21865
0.218445
0.218072
0.21759
0.216966
0.216005
0.214923
0.210776
0.208044
0.214884
0.216212
0.216306
0.21457
0.205066
0.202129
0.214115
0.216363
0.216344
0.213581
0.199445
0.196999
0.213019
0.216245
0.216084
0.212343
0.194807
0.192833
0.211678
0.21589
0.215659
0.210945
0.190944
0.189204
0.21035
0.21542
0.215159
0.209749
0.187622
0.186191
0.209159
0.214894
0.214608
0.208565
0.184853
0.183625
0.207983
0.214313
0.214002
0.207403
0.182462
0.181387
0.206837
0.213687
0.213359
0.206273
0.180356
0.179397
0.205725
0.213031
0.212694
0.205178
0.17847
0.1776
0.204647
0.212359
0.212015
0.204117
0.176754
0.175955
0.203602
0.211677
0.211329
0.203087
0.175175
0.174434
0.202588
0.21099
0.210641
0.202088
0.173707
0.173014
0.201603
0.210301
0.209952
0.201117
0.172332
0.171679
0.200645
0.209614
0.209268
0.200174
0.171037
0.17042
0.199716
0.208934
0.208585
0.199252
0.169806
0.169214
0.198801
0.208249
0.207899
0.198346
0.168626
0.168058
0.197904
0.207564
0.207216
0.197458
0.167494
0.166948
0.197024
0.206882
0.206534
0.196585
0.166403
0.165875
0.196158
0.206201
0.205852
0.195725
0.165348
0.164836
0.195303
0.20552
0.205171
0.194875
0.164323
0.163825
0.194459
0.204839
0.204489
0.194036
0.163326
0.16284
0.193623
0.204156
0.203805
0.193204
0.162353
0.161877
0.192794
0.203472
0.20312
0.192378
0.1614
0.160934
0.191971
0.202786
0.202431
0.191557
0.160465
0.160007
0.191152
0.202096
0.20174
0.190739
0.159547
0.159096
0.190336
0.201402
0.201044
0.189925
0.158642
0.158198
0.189522
0.200704
0.200343
0.189112
0.15775
0.157311
0.18871
0.200001
0.199637
0.188299
0.156869
0.156434
0.187897
0.199292
0.198926
0.187487
0.155997
0.155566
0.187084
0.198577
0.198207
0.186673
0.155132
0.154705
0.186269
0.197855
0.197481
0.185856
0.154274
0.15385
0.185451
0.197125
0.196747
0.185036
0.153421
0.152998
0.184629
0.196387
0.196004
0.184212
0.152571
0.15215
0.183802
0.195639
0.195252
0.183383
0.151723
0.151303
0.18297
0.194883
0.19449
0.182548
0.150877
0.150457
0.182132
0.194115
0.193717
0.181706
0.150031
0.14961
0.181286
0.193336
0.192933
0.180856
0.149183
0.148761
0.180432
0.192545
0.192136
0.179998
0.148333
0.14791
0.179569
0.191741
0.191325
0.179129
0.14748
0.147054
0.178695
0.190924
0.190501
0.17825
0.146621
0.146192
0.17781
0.190091
0.189661
0.177359
0.145757
0.145325
0.176912
0.189243
0.188805
0.176455
0.144885
0.144449
0.176001
0.188378
0.187932
0.175536
0.144005
0.143564
0.175075
0.187495
0.18704
0.174603
0.143116
0.142669
0.174133
0.186594
0.18613
0.173653
0.142215
0.141762
0.173174
0.185673
0.185199
0.172685
0.141302
0.140843
0.172198
0.184731
0.184247
0.171699
0.140376
0.13991
0.171202
0.183767
0.183273
0.170693
0.139436
0.138962
0.170185
0.182781
0.182275
0.169666
0.13848
0.137998
0.169148
0.18177
0.181253
0.168618
0.137507
0.137017
0.168088
0.180736
0.180206
0.167546
0.136517
0.136017
0.167004
0.179676
0.179133
0.16645
0.135508
0.134998
0.165895
0.178589
0.178032
0.165328
0.134478
0.133958
0.164761
0.177473
0.176901
0.16418
0.133428
0.132896
0.163598
0.176327
0.175739
0.163003
0.132354
0.131811
0.162406
0.175149
0.174545
0.161796
0.131256
0.130701
0.161183
0.173938
0.173317
0.160557
0.130133
0.129565
0.159929
0.172693
0.172054
0.159286
0.128984
0.128401
0.158641
0.171412
0.170755
0.157981
0.127806
0.127209
0.157318
0.170094
0.169418
0.15664
0.126598
0.125986
0.155958
0.168737
0.168041
0.155261
0.12536
0.124732
0.15456
0.16734
0.166623
0.153844
0.12409
0.123445
0.153123
0.1659
0.165162
0.152385
0.122785
0.122122
0.151643
0.164417
0.163657
0.150885
0.121445
0.120764
0.150121
0.162889
0.162106
0.149341
0.120068
0.119369
0.148555
0.161315
0.160508
0.147752
0.118654
0.117936
0.146943
0.159692
0.15886
0.146116
0.117201
0.116463
0.145283
0.158019
0.157162
0.144433
0.115707
0.114949
0.143575
0.156295
0.155412
0.1427
0.114173
0.113393
0.141817
0.154518
0.153608
0.140915
0.112595
0.111793
0.140007
0.152687
0.151749
0.139079
0.110974
0.11015
0.138143
0.1508
0.149833
0.137188
0.109307
0.108461
0.136225
0.148855
0.147859
0.135242
0.107595
0.106724
0.134252
0.146851
0.145826
0.13324
0.105834
0.104941
0.132221
0.144788
0.143732
0.131181
0.104026
0.103109
0.130133
0.142664
0.141578
0.129064
0.102171
0.101229
0.127987
0.14048
0.139364
0.12689
0.100268
0.0993028
0.125785
0.138235
0.137089
0.124659
0.0983174
0.0973297
0.123526
0.135929
0.134754
0.122372
0.0963214
0.0953114
0.121211
0.133565
0.132359
0.120029
0.0942805
0.0932487
0.118841
0.13114
0.129906
0.117632
0.0921962
0.0911435
0.116418
0.128658
0.127396
0.115183
0.0900698
0.088997
0.113943
0.12612
0.12483
0.112682
0.0879027
0.0868106
0.111417
0.123528
0.122211
0.11013
0.0856848
0.0845483
0.108839
0.120885
0.119546
0.107526
0.0833759
0.0821972
0.106209
0.118197
0.116835
0.10487
0.0809862
0.0797732
0.103529
0.115466
0.114083
0.102166
0.0785318
0.0772929
0.100803
0.112695
0.111296
0.0994217
0.07603
0.0747738
0.0980425
0.109892
0.108479
0.0966469
0.0734974
0.0722326
0.0952573
0.107065
0.105644
0.0938543
0.0709518
0.0696875
0.0924611
0.104225
0.102802
0.0910581
0.0684116
0.0671567
0.0896689
0.101384
0.0999653
0.0882735
0.0658945
0.0646587
0.0868969
0.098556
0.0971498
0.0855183
0.0634205
0.0622141
0.0841638
0.0957575
0.0943718
0.0828115
0.0610098
0.0598427
0.0814887
0.0930049
0.0916483
0.0801723
0.0586824
0.0575646
0.0788911
0.0903157
0.0889969
0.0776204
0.0564578
0.0553984
0.0763902
0.0877075
0.0864353
0.0751746
0.0543541
0.0533617
0.0740047
0.0851978
0.0839808
0.072853
0.0523878
0.0514697
0.0717519
0.0828036
0.0816499
0.0706723
0.0505732
0.0497356
0.0696475
0.0805404
0.0794555
0.0686455
0.0489205
0.0481669
0.0677024
0.0784199
0.077411
0.0667841
0.047437
0.0467689
0.0659263
0.0764539
0.075525
0.0650943
0.0461244
0.0455415
0.0643235
0.07465
0.0738036
0.0635795
0.0449817
0.044482
0.0628965
0.0730124
0.0722488
0.0622394
0.0440037
0.0435836
0.0616427
0.0715413
0.0708598
0.06107
0.0431825
0.0428365
0.0605559
0.0702342
0.0696321
0.0600632
0.0425061
0.0422272
0.0596267
0.0690851
0.0685592
0.0592089
0.0419607
0.0417416
0.058844
0.0680866
0.0676318
0.0584946
0.0415315
0.0413645
0.0581947
0.0672282
0.0668394
0.0579072
0.0412035
0.041081
0.0576652
0.0664974
0.0661676
0.0574314
0.0409608
0.0408745
0.0572387
0.0658807
0.0656014
0.0570499
0.040786
0.0407277
0.0569002
0.0653698
0.0651316
0.0567494
0.0406639
0.0406262
0.0566343
0.0649448
0.064739
0.0565129
0.0405798
0.040555
0.0564231
0.0645859
0.0644048
0.0563221
0.0405179
0.0404975
0.0562479
0.0642752
0.0641111
0.0561579
0.0404608
0.0404356
0.0560891
0.0639941
0.0638383
0.0559998
0.0403879
0.0403552
0.0559303
0.0637238
0.0635369
0.055812
0.0402827
0.0402221
0.055741
0.0634065
0.0632146
0.0555979
0.0401202
0.0400125
0.0554511
0.06306
0.0628245
0.0552577
0.039858
0.0396296
0.0550401
0.0626058
0.0625701
0.0549498
0.039466
0.039683
0.0550902
0.0627952
0.0628354
0.0551388
0.0398832
0.0712848
0.0773146
0.0816936
0.0843575
0.0859211
0.0890737
0.090784
0.0928537
0.0941965
0.0956699
0.0967311
0.0978642
0.0987353
0.099651
0.100388
0.101156
0.101797
0.102463
0.103036
0.103632
0.104157
0.104706
0.105199
0.105718
0.106191
0.106692
0.107155
0.107649
0.108108
0.108602
0.109064
0.109566
0.110035
0.11055
0.111027
0.11155
0.112025
0.112536
0.112959
0.113414
0.113808
0.114163
0.114516
0.114854
0.115164
0.115442
0.115688
0.115893
0.116039
0.116095
0.115991
0.115625
0.114703
0.112706
0.107064
0.0991068
0.075134
0.0744695
0.098611
0.10661
0.106201
0.0981567
0.0738849
0.0739848
0.0980338
0.106032
0.105968
0.0980476
0.0741767
0.0742771
0.0980594
0.105887
0.105774
0.0980131
0.0743431
0.0744137
0.0979635
0.105657
0.105536
0.0979069
0.074493
0.0745914
0.0978607
0.105427
0.105317
0.0978186
0.0746965
0.0748134
0.0977801
0.10521
0.105107
0.0977461
0.0749386
0.0750693
0.0977152
0.105005
0.104905
0.097686
0.0752027
0.0753428
0.0976588
0.104804
0.104702
0.0976301
0.0754856
0.0756321
0.0976022
0.104598
0.104493
0.0975715
0.0757797
0.0759323
0.097539
0.104384
0.104272
0.0975044
0.0760807
0.0762349
0.0974662
0.104155
0.104034
0.0974246
0.0763838
0.0765373
0.0973784
0.103908
0.103776
0.0973278
0.0766847
0.0768358
0.0972716
0.103638
0.103494
0.0972101
0.0769802
0.0771274
0.0971423
0.103341
0.103183
0.0970688
0.0772705
0.0774079
0.0969883
0.103017
0.102843
0.0969015
0.077547
0.0776824
0.0968078
0.102661
0.102471
0.0967075
0.0778126
0.0779447
0.0966011
0.102272
0.102067
0.0964885
0.0780727
0.0782023
0.096372
0.101853
0.101632
0.0962497
0.0783337
0.0784701
0.0961261
0.101405
0.101173
0.0960004
0.0786134
0.0787699
0.0958772
0.100937
0.1007
0.0957594
0.0789456
0.0791501
0.0956525
0.100465
0.100235
0.0955616
0.0793929
0.0796872
0.0954931
0.100015
0.09982
0.0954656
0.0800609
0.0805863
0.0955309
0.0996812
0.0996329
0.0957398
0.0813706
0.0822946
0.0960022
0.0996049
0.0994453
0.0961201
0.083099
0.0834627
0.095878
0.0989937
0.0982122
0.0952243
0.0833362
0.0828727
0.0942567
0.0971494
0.0958778
0.09305
0.082133
0.0815031
0.0918302
0.0945536
0.0931605
0.0906178
0.0810264
0.0803604
0.0892893
0.0916092
0.0895032
0.087381
0.0794427
0.0689263
0.0830672
0.0869402
0.0867316
0.0836379
0.0725136
0.0718863
0.0824272
0.0852428
0.0834562
0.0809781
0.0716519
0.0707303
0.0792467
0.0814914
0.0793325
0.0772847
0.0695984
0.0684712
0.0752949
0.077084
0.0745025
0.0729872
0.0670044
0.0650974
0.070293
0.0714785
0.0676756
0.0667665
0.0627348
0.0544371
0.0628011
0.064871
0.0623013
0.0607564
0.0552401
0.0521734
0.0569693
0.0584203
0.0538831
0.0526556
0.0488172
0.0445373
0.0475525
0.0485833
0.0422725
0.0416933
0.0396664
0.0332804
0.0335822
0.0337813
0.0288182
0.0275931
0.0244989
0.0171129
0.0190408
0.0208884
0.0145303
0.0116084
0.0100875
0.0076338
0.0104757
0.0138721
0.0214348
0.0206729
0.0208274
0.0434103
0.0432092
0.0444621
0.0777299
0.0758133
0.0726961
0.127508
0.122556
0.119899
0.197676
0.202145
0.211416
0.283337
0.268347
0.261262
0.288616
0.291978
0.289077
0.2606
0.283407
0.286212
0.257322
0.249026
0.223519
0.18123
0.213904
0.228433
0.226231
0.207807
0.167525
0.152793
0.189681
0.20875
0.189384
0.169146
0.134474
0.142414
0.178874
0.197593
0.185805
0.167033
0.133989
0.119638
0.151761
0.17001
0.181304
0.164403
0.132844
0.127533
0.15702
0.173632
0.161229
0.144147
0.116005
0.129106
0.157454
0.171792
0.166444
0.151751
0.125253
0.115221
0.141587
0.156017
0.166422
0.153464
0.128017
0.124841
0.149389
0.162404
0.153292
0.140329
0.115798
0.127953
0.151506
0.163061
0.16013
0.148278
0.125358
0.117351
0.140399
0.152209
0.161399
0.150941
0.128916
0.126587
0.148236
0.159104
0.151843
0.140794
0.118961
0.129664
0.150673
0.1605
0.158832
0.148626
0.127822
0.120488
0.141702
0.152159
0.160375
0.151226
0.130866
0.129376
0.1494
0.159103
0.152792
0.143086
0.122209
0.132118
0.15183
0.160686
0.156549
0.14711
0.12693
0.136517
0.156147
0.164116
0.162711
0.153766
0.134662
0.128672
0.147711
0.157417
0.164491
0.157021
0.13794
0.136578
0.155348
0.163865
0.159064
0.149403
0.130641
0.13979
0.158699
0.165904
0.165381
0.15709
0.138317
0.131983
0.150907
0.160372
0.166999
0.160527
0.140287
0.13691
0.156169
0.164079
0.17094
0.164028
0.145946
0.144321
0.162076
0.170038
0.16568
0.156587
0.138854
0.146982
0.165931
0.172125
0.169212
0.161514
0.143168
0.150985
0.168796
0.175434
0.175166
0.1677
0.150122
0.1457
0.162913
0.171426
0.177419
0.171112
0.15333
0.151262
0.169427
0.177046
0.173035
0.163959
0.14558
0.153942
0.173856
0.179358
0.176747
0.16961
0.150668
0.158361
0.176894
0.183071
0.18011
0.172767
0.15436
0.162843
0.179989
0.185942
0.185983
0.179149
0.162362
0.157216
0.174939
0.182005
0.187912
0.181538
0.163722
0.15946
0.178207
0.185522
0.191675
0.18618
0.16865
0.168265
0.185354
0.192026
0.188072
0.181095
0.162823
0.169563
0.187501
0.193961
0.19154
0.183955
0.165376
0.174106
0.192236
0.197591
0.195706
0.18875
0.171348
0.178873
0.195761
0.201126
0.200859
0.194205
0.177569
0.172133
0.189129
0.197181
0.202662
0.19788
0.178731
0.176233
0.19444
0.200992
0.207111
0.201835
0.184518
0.181253
0.198452
0.204911
0.210034
0.204651
0.187877
0.186696
0.203525
0.210103
0.206717
0.200202
0.182151
0.189237
0.208328
0.212909
0.21085
0.204686
0.186163
0.19359
0.211478
0.216586
0.214318
0.207874
0.190027
0.19755
0.214411
0.219512
0.220056
0.21373
0.197065
0.192134
0.210289
0.216785
0.222677
0.216793
0.199581
0.195193
0.213413
0.220433
0.225798
0.22102
0.20179
0.198567
0.216964
0.223894
0.229348
0.224656
0.206464
0.204056
0.221409
0.227751
0.232719
0.227903
0.211078
0.209618
0.226455
0.232702
0.229117
0.222641
0.204163
0.210975
0.230538
0.234939
0.233085
0.226994
0.208035
0.215605
0.233986
0.239003
0.236968
0.230725
0.212438
0.219822
0.237658
0.242558
0.240354
0.23409
0.216269
0.222756
0.240557
0.245372
0.2439
0.23771
0.220408
0.228075
0.24456
0.249093
0.249637
0.243604
0.227219
0.222395
0.240308
0.246617
0.252265
0.246793
0.229393
0.2251
0.243042
0.250121
0.255381
0.250799
0.231878
0.229227
0.247273
0.253938
0.259365
0.255019
0.236683
0.233836
0.251349
0.2576
0.262463
0.257893
0.240249
0.237812
0.254845
0.260987
0.265983
0.261523
0.24504
0.244139
0.260684
0.266602
0.263688
0.257255
0.239359
0.245724
0.265042
0.269209
0.267323
0.261299
0.242503
0.250199
0.268369
0.273066
0.271287
0.265362
0.247327
0.254135
0.272046
0.276637
0.274734
0.268597
0.25085
0.257553
0.275145
0.279744
0.278443
0.272256
0.255282
0.263072
0.279312
0.283637
0.284461
0.278616
0.262362
0.257696
0.27425
0.281799
0.286531
0.282304
0.262997
0.259766
0.278524
0.285005
0.290775
0.286029
0.267566
0.264461
0.282883
0.289101
0.294491
0.289784
0.271857
0.269027
0.286639
0.292907
0.29799
0.293387
0.275742
0.273432
0.290507
0.296761
0.302035
0.297761
0.281452
0.280826
0.297191
0.303064
0.300398
0.292573
0.276142
0.281502
0.300724
0.305154
0.30396
0.297036
0.278353
0.285718
0.305321
0.309636
0.308156
0.301418
0.282669
0.290502
0.309237
0.313578
0.312242
0.305783
0.288354
0.295074
0.313084
0.317473
0.316073
0.309835
0.292233
0.2996
0.31663
0.320936
0.321977
0.315912
0.298763
0.294299
0.312691
0.319454
0.325637
0.320543
0.302435
0.298566
0.317678
0.32394
0.329807
0.325213
0.306001
0.30259
0.321974
0.328155
0.333488
0.328869
0.309587
0.30658
0.32548
0.331945
0.337619
0.33322
0.315153
0.312922
0.330842
0.336747
0.342041
0.337983
0.321258
0.321212
0.337915
0.343647
0.341148
0.333687
0.316757
0.322543
0.340969
0.346187
0.344876
0.337698
0.319316
0.327216
0.346591
0.351065
0.350242
0.343368
0.324637
0.333829
0.352219
0.356177
0.355617
0.349543
0.332072
0.339977
0.356983
0.360876
0.362363
0.356559
0.339422
0.334231
0.35236
0.359642
0.364816
0.359933
0.340834
0.337636
0.356602
0.363523
0.369896
0.365681
0.345954
0.344551
0.363145
0.369636
0.376256
0.372534
0.354292
0.351899
0.369713
0.375496
0.38007
0.375854
0.358459
0.357209
0.375002
0.381231
0.378918
0.372135
0.352674
0.361913
0.380747
0.385728
0.385139
0.378903
0.359265
0.370812
0.388461
0.392482
0.392298
0.386915
0.369034
0.376234
0.393644
0.397689
0.398894
0.392789
0.374422
0.37016
0.388559
0.396723
0.402725
0.398195
0.377907
0.375782
0.395342
0.402462
0.410011
0.406379
0.387209
0.386282
0.404476
0.410545
0.416527
0.412743
0.395206
0.393974
0.412292
0.418269
0.415598
0.408017
0.388659
0.395649
0.416352
0.421461
0.421011
0.413991
0.393175
0.406393
0.42543
0.429456
0.430958
0.425435
0.406416
0.41605
0.434137
0.43761
0.439157
0.43313
0.41392
0.408805
0.428832
0.436484
0.442609
0.437585
0.416778
0.41461
0.43574
0.44281
0.451559
0.44794
0.429421
0.432929
0.451861
0.457169
0.455447
0.448465
0.429284
0.434985
0.455836
0.460891
0.459412
0.452045
0.430453
0.441996
0.462063
0.466721
0.471235
0.464227
0.443092
0.442924
0.463492
0.47178
0.481116
0.47719
0.457486
0.453825
0.474239
0.480661
0.486859
0.48228
0.46189
0.460403
0.481715
0.489208
0.488148
0.480231
0.457257
0.473313
0.493284
0.498143
0.501618
0.495832
0.475034
0.48997
0.508739
0.511544
0.513918
0.507831
0.486769
0.480925
0.503477
0.511776
0.519443
0.514278
0.493443
0.495287
0.518755
0.525545
0.528818
0.520194
0.498958
0.514453
0.536171
0.539808
0.542488
0.535289
0.510321
0.504364
0.53018
0.540256
0.549068
0.543911
0.51955
0.526424
0.550061
0.557713
0.559044
0.552091
0.52625
0.540472
0.565095
0.569903
0.573054
0.564788
0.537324
0.533225
0.562355
0.572554
0.585388
0.581592
0.561852
0.569204
0.59129
0.596208
0.595903
0.587717
0.563237
0.573816
0.598345
0.603855
0.609507
0.602362
0.575128
0.580983
0.605319
0.614931
0.628923
0.627167
0.603324
0.59772
0.627773
0.634051
0.639481
0.631028
0.599098
0.600732
0.632282
0.641379
0.654509
0.651176
0.622722
0.618624
0.653322
0.658399
0.665009
0.658932
0.622669
0.619815
0.66108
0.669706
0.671462
0.661692
0.61307
0.60245
0.655578
0.668928
0.663468
0.647867
0.58784
0.559955
0.620943
0.642629
0.639508
0.620952
0.56454
0.521018
0.585826
0.606984
0.579716
0.554144
0.481716
0.447459
0.526556
0.555831
0.537343
0.505197
0.420699
0.398747
0.487678
0.522624
0.510121
0.472613
0.379884
0.362756
0.458583
0.498757
0.488287
0.445749
0.347265
0.333186
0.433667
0.478478
0.469326
0.422433
0.320459
0.308932
0.411939
0.460718
0.452607
0.40213
0.298467
0.288901
0.392903
0.444847
0.437499
0.384259
0.280152
0.272114
0.376098
0.430413
0.423673
0.368446
0.264725
0.257913
0.361221
0.417153
0.410936
0.354444
0.251644
0.245867
0.34804
0.40491
0.399139
0.342018
0.240555
0.235665
0.336342
0.393567
0.388233
0.331007
0.23118
0.227062
0.325962
0.383058
0.378115
0.321225
0.223296
0.219846
0.316735
0.37332
0.368731
0.312503
0.216701
0.213834
0.308501
0.364305
0.360076
0.304731
0.211231
0.208869
0.301154
0.355981
0.352057
0.297779
0.206729
0.204798
0.294596
0.3483
0.344663
0.291575
0.203057
0.201492
0.288729
0.341192
0.337852
0.286036
0.200087
0.19883
0.2835
0.33467
0.331598
0.281091
0.197706
0.196705
0.278827
0.328684
0.325874
0.276675
0.195811
0.195019
0.274655
0.323212
0.32065
0.272736
0.194313
0.193689
0.270931
0.31822
0.315899
0.269225
0.193134
0.192646
0.267622
0.313702
0.311593
0.266102
0.192212
0.191829
0.264677
0.309605
0.307708
0.26333
0.19149
0.191188
0.262062
0.305907
0.304197
0.260869
0.190925
0.190685
0.259742
0.302568
0.301037
0.25869
0.190478
0.190288
0.257694
0.299572
0.298199
0.256767
0.190124
0.189976
0.25589
0.296886
0.29565
0.25507
0.189845
0.189729
0.254303
0.294478
0.293371
0.253584
0.189623
0.189533
0.252913
0.292325
0.291335
0.252282
0.189457
0.189395
0.251697
0.290401
0.289518
0.251149
0.189343
0.189305
0.250644
0.288689
0.287897
0.250169
0.189271
0.18925
0.249735
0.287157
0.286455
0.249329
0.189235
0.189228
0.248954
0.285788
0.285163
0.248612
0.189227
0.189237
0.248295
0.284573
0.284016
0.248007
0.189251
0.189274
0.247745
0.283492
0.282999
0.247504
0.189303
0.189343
0.24729
0.282537
0.282096
0.247094
0.189386
0.189437
0.246922
0.281682
0.28129
0.24677
0.189493
0.189556
0.246638
0.280921
0.280575
0.246524
0.189625
0.189704
0.246427
0.28025
0.279939
0.246339
0.189786
0.189878
0.246266
0.279647
0.279373
0.246199
0.189974
0.190075
0.246145
0.279115
0.278873
0.246097
0.19018
0.190289
0.246061
0.278647
0.27843
0.246028
0.190397
0.190509
0.246007
0.278233
0.27805
0.245992
0.190622
0.190735
0.245985
0.277881
0.27773
0.245988
0.190851
0.190966
0.245997
0.277589
0.277464
0.246015
0.191084
0.191203
0.246039
0.27735
0.277248
0.24607
0.191322
0.191444
0.246109
0.277156
0.277076
0.246153
0.191565
0.19169
0.246206
0.277007
0.276949
0.246263
0.191814
0.191941
0.246328
0.276896
0.276861
0.246397
0.192071
0.192202
0.246474
0.276829
0.27681
0.246556
0.192336
0.192472
0.246645
0.276797
0.276794
0.246737
0.192612
0.192751
0.246836
0.276801
0.276814
0.24694
0.192895
0.193041
0.247051
0.276838
0.276867
0.247166
0.19319
0.19334
0.247286
0.276905
0.276953
0.247412
0.193496
0.193652
0.247542
0.277005
0.277066
0.247679
0.193812
0.193974
0.247817
0.277135
0.277212
0.247963
0.19414
0.194309
0.248113
0.277295
0.277386
0.248267
0.194479
0.194653
0.248428
0.277483
0.27759
0.248591
0.19483
0.19501
0.248762
0.277703
0.277822
0.248936
0.195194
0.195379
0.249114
0.277947
0.278082
0.249299
0.195569
0.195761
0.249486
0.27822
0.278367
0.24968
0.195956
0.196155
0.249877
0.278518
0.278677
0.25008
0.196356
0.19656
0.250287
0.278839
0.279011
0.250497
0.196768
0.196979
0.250713
0.279184
0.279366
0.25093
0.197192
0.197408
0.251154
0.279549
0.279742
0.251379
0.197628
0.197849
0.25161
0.279932
0.280135
0.251842
0.198073
0.1983
0.25208
0.280333
0.280544
0.252318
0.198529
0.19876
0.252561
0.280753
0.280967
0.252807
0.198993
0.199228
0.253056
0.281184
0.281406
0.253307
0.199465
0.199705
0.253561
0.28163
0.281857
0.253816
0.199945
0.200188
0.254075
0.282087
0.28232
0.254335
0.20043
0.200675
0.254597
0.282556
0.282793
0.254861
0.200922
0.201168
0.255126
0.283033
0.283276
0.255394
0.201416
0.201664
0.255662
0.28352
0.283768
0.255933
0.201913
0.202163
0.256204
0.284016
0.284265
0.256477
0.202413
0.202663
0.256751
0.284516
0.284768
0.257025
0.202914
0.203166
0.2573
0.285022
0.285277
0.257576
0.203417
0.203668
0.257852
0.285535
0.285792
0.258129
0.203919
0.20417
0.258406
0.286048
0.286308
0.258684
0.204421
0.204671
0.258962
0.286567
0.286828
0.25924
0.204921
0.205171
0.259518
0.287088
0.287349
0.259795
0.20542
0.205669
0.260074
0.287611
0.287872
0.260351
0.205916
0.206163
0.260629
0.288134
0.288396
0.260905
0.206408
0.206653
0.261183
0.288656
0.28892
0.261457
0.206897
0.20714
0.261734
0.289182
0.289443
0.262008
0.207382
0.207623
0.262283
0.289703
0.289964
0.262556
0.207862
0.2081
0.262828
0.290224
0.290485
0.2631
0.208337
0.208573
0.26337
0.290744
0.291004
0.263639
0.208807
0.209041
0.263909
0.291262
0.29152
0.264176
0.209272
0.209503
0.264444
0.291777
0.292034
0.264709
0.209731
0.209959
0.264975
0.292289
0.292545
0.265238
0.210185
0.210408
0.265499
0.292798
0.29305
0.265761
0.210631
0.210852
0.266019
0.293303
0.293552
0.266279
0.211073
0.211292
0.266535
0.293803
0.29405
0.266792
0.211509
0.211726
0.267045
0.294299
0.294542
0.2673
0.211941
0.212154
0.267549
0.294787
0.295028
0.267799
0.212366
0.212576
0.268046
0.295267
0.295505
0.268292
0.212784
0.212989
0.268536
0.295741
0.295974
0.268778
0.213194
0.213396
0.269016
0.296205
0.296433
0.269255
0.213596
0.213794
0.269488
0.296662
0.296886
0.269721
0.213989
0.214183
0.269952
0.297108
0.297329
0.270178
0.214374
0.214563
0.270404
0.297547
0.297762
0.270626
0.214749
0.214933
0.270848
0.297974
0.298187
0.271064
0.215114
0.215293
0.27128
0.298395
0.298601
0.271494
0.215469
0.215643
0.271702
0.298806
0.299008
0.271911
0.215814
0.215983
0.272115
0.299206
0.299402
0.272316
0.216149
0.216312
0.272517
0.299596
0.299786
0.272713
0.216473
0.216632
0.272908
0.299974
0.300158
0.273098
0.216788
0.216941
0.273286
0.300343
0.300521
0.273471
0.217091
0.217238
0.273654
0.300699
0.30087
0.273835
0.217383
0.217526
0.27401
0.301044
0.301213
0.274184
0.217666
0.217803
0.274357
0.301379
0.301545
0.274524
0.217938
0.21807
0.27469
0.301708
0.301867
0.274852
0.218199
0.218325
0.275013
0.302025
0.30218
0.27517
0.218449
0.218569
0.275325
0.302334
0.302487
0.275478
0.218687
0.218803
0.275628
0.302634
0.302782
0.275776
0.218916
0.219027
0.275922
0.302927
0.30307
0.276064
0.219135
0.219241
0.276205
0.303212
0.30335
0.276343
0.219345
0.219446
0.27648
0.303488
0.303623
0.276614
0.219546
0.219642
0.276744
0.303756
0.303889
0.276875
0.219738
0.219831
0.277002
0.304018
0.304147
0.277127
0.219921
0.22001
0.277251
0.304273
0.304398
0.277373
0.220097
0.220182
0.277492
0.304523
0.304644
0.27761
0.220265
0.220347
0.277726
0.304764
0.304882
0.277841
0.220427
0.220506
0.277953
0.304998
0.305113
0.278064
0.220583
0.220658
0.278173
0.305227
0.305338
0.27828
0.220732
0.220805
0.278385
0.305448
0.305557
0.278489
0.220876
0.220945
0.278591
0.305665
0.305772
0.278692
0.221014
0.221081
0.278793
0.305876
0.305978
0.278889
0.221146
0.221211
0.278986
0.306081
0.306181
0.279079
0.221274
0.221336
0.279174
0.306281
0.306378
0.279265
0.221397
0.221456
0.279356
0.306472
0.306569
0.279446
0.221515
0.221572
0.279532
0.306664
0.306757
0.279619
0.221629
0.221684
0.279703
0.306848
0.306939
0.279788
0.221739
0.221791
0.279869
0.307028
0.307117
0.279952
0.221844
0.221894
0.280031
0.307203
0.307288
0.280112
0.221944
0.221994
0.280188
0.307374
0.307456
0.280267
0.222043
0.22209
0.28034
0.307539
0.307621
0.280416
0.222138
0.222183
0.280488
0.3077
0.307781
0.280561
0.222229
0.222273
0.280632
0.307857
0.307935
0.280704
0.222318
0.22236
0.280771
0.30801
0.308086
0.280841
0.222403
0.222444
0.280906
0.308159
0.308232
0.280974
0.222486
0.222525
0.281039
0.308304
0.308375
0.281103
0.222565
0.222603
0.281164
0.308446
0.308516
0.281229
0.222642
0.222678
0.281289
0.308583
0.30865
0.281351
0.222715
0.222751
0.281409
0.308718
0.308784
0.28147
0.222787
0.222821
0.281526
0.308848
0.308912
0.281585
0.222856
0.222889
0.281639
0.308975
0.309037
0.281697
0.222923
0.222955
0.281751
0.309099
0.30916
0.281805
0.222987
0.223018
0.281856
0.30922
0.309279
0.281911
0.22305
0.223079
0.28196
0.309337
0.309395
0.282013
0.223109
0.223138
0.282061
0.309452
0.309508
0.282112
0.223167
0.223194
0.282159
0.309563
0.309618
0.282209
0.223223
0.223249
0.282254
0.309672
0.309725
0.282303
0.223277
0.223303
0.282347
0.309777
0.309829
0.282393
0.223329
0.223353
0.282437
0.309881
0.309928
0.282482
0.223378
0.223403
0.282524
0.309982
0.310027
0.282568
0.223427
0.22345
0.282608
0.310079
0.310123
0.282651
0.223473
0.223496
0.28269
0.310174
0.310217
0.282732
0.223519
0.223541
0.282769
0.310265
0.310311
0.28281
0.223562
0.223583
0.282846
0.310354
0.310398
0.282884
0.223603
0.223624
0.282923
0.310441
0.310485
0.282958
0.223644
0.223664
0.282996
0.310526
0.310569
0.28303
0.223683
0.223702
0.283067
0.310611
0.310651
0.283101
0.22372
0.223739
0.283133
0.31069
0.31073
0.283168
0.223757
0.223775
0.283201
0.310769
0.310806
0.283232
0.223791
0.223808
0.283266
0.310844
0.310882
0.283296
0.223825
0.223841
0.283329
0.310918
0.310956
0.283357
0.223857
0.223872
0.283389
0.310993
0.311028
0.283417
0.223887
0.223903
0.283448
0.311059
0.311098
0.283475
0.223918
0.223932
0.283504
0.31113
0.311164
0.283532
0.223946
0.22396
0.283561
0.311196
0.31123
0.283587
0.223974
0.223987
0.283615
0.311261
0.311294
0.28364
0.224001
0.224014
0.283667
0.311326
0.311358
0.283692
0.224027
0.224039
0.283718
0.311385
0.311418
0.283742
0.224052
0.224064
0.283766
0.311447
0.311478
0.283793
0.224076
0.224087
0.283814
0.311506
0.311535
0.28384
0.2241
0.224111
0.283861
0.311563
0.311591
0.283886
0.224122
0.224134
0.283908
0.311618
0.311646
0.283931
0.224145
0.224155
0.283951
0.311673
0.311701
0.283975
0.224165
0.224175
0.283994
0.311726
0.311753
0.284018
0.224185
0.224195
0.284037
0.311778
0.311804
0.284059
0.224205
0.224214
0.284078
0.311828
0.311853
0.2841
0.224224
0.224233
0.284118
0.311878
0.311902
0.284139
0.224242
0.224252
0.284158
0.311926
0.31195
0.284175
0.22426
0.224269
0.284196
0.311973
0.311997
0.284213
0.224276
0.224285
0.284233
0.312019
0.312042
0.284249
0.224293
0.224301
0.284268
0.312064
0.312086
0.284284
0.224308
0.224316
0.284303
0.312107
0.312129
0.284318
0.224323
0.224331
0.284336
0.312149
0.31217
0.284352
0.224337
0.224344
0.284368
0.31219
0.31221
0.284383
0.22435
0.224357
0.284398
0.312229
0.312248
0.284411
0.224361
0.224367
0.284427
0.312267
0.312285
0.284439
0.224371
0.224376
0.284454
0.312302
0.31232
0.284465
0.224379
0.224383
0.284479
0.312336
0.312353
0.28449
0.224386
0.22439
0.284503
0.312368
0.312384
0.284513
0.224393
0.224396
0.284526
0.312399
0.312415
0.284535
0.224399
0.224404
0.284548
0.312431
0.312447
0.284558
0.224406
0.22441
0.284574
0.312495
0.312513
0.284592
0.22442
0.224438
0.284615
0.312533
0.312565
0.284644
0.224468
0.224539
0.284684
0.31258
0.312591
0.284641
0.224595
0.224679
0.284575
0.312486
0.312138
0.28427
0.22471
0.224585
0.283659
0.311589
0.311285
0.28337
0.2242
0.224674
0.283944
0.312061
0.31227
0.28417
0.224812
0.344524
0.364486
0.378819
0.389574
0.397221
0.403717
0.408761
0.41304
0.41664
0.419763
0.422531
0.424979
0.427016
0.42863
0.430044
0.431325
0.433542
0.43537
0.4365
0.438906
0.441016
0.442815
0.444404
0.445782
0.446978
0.44801
0.448899
0.449667
0.45033
0.450904
0.451403
0.451837
0.452215
0.452547
0.452838
0.453094
0.45332
0.453521
0.453699
0.453858
0.454
0.454128
0.454242
0.454345
0.454438
0.454522
0.454598
0.454667
0.454729
0.454786
0.454837
0.454883
0.454924
0.454961
0.454994
0.455023
0.455049
0.455071
0.45509
0.455106
0.455117
0.455126
0.45513
0.455132
0.455144
0.455147
0.455151
0.455155
0.45516
0.455165
0.45517
0.455175
0.45518
0.455186
0.455191
0.455195
0.4552
0.455203
0.455206
0.455208
0.455209
0.455209
0.455207
0.455203
0.455197
0.455189
0.455178
0.455164
0.455147
0.455127
0.455104
0.455077
0.455046
0.455013
0.454976
0.454937
0.454896
0.454854
0.454812
0.454772
0.454736
0.454699
0.454649
0.454583
0.454502