/*--------------------------------*- C++ -*----------------------------------*\
| =========                 |                                                 |
| \\      /  F ield         | OpenFOAM: The Open Source CFD Toolbox           |
|  \\    /   O peration     | Version:  v2006                                 |
|   \\  /    A nd           | Website:  www.openfoam.com                      |
|    \\/     M anipulation  |                                                 |
\*---------------------------------------------------------------------------*/
FoamFile
{
    version     2.0;
    format      ascii;
    class       volScalarField;
    location    "0.032";
    object      rho;
}
// * * * * * * * * * * * * * * * * * * * * * * * * * * * * * * * * * * * * * //

dimensions      [1 -3 0 0 0 0 0];


internalField   nonuniform List<scalar> 
31566
(
1.69402
1.69401
1.69417
1.69417
1.69417
1.69417
1.69418
1.69418
1.69418
1.69419
1.69419
1.69419
1.69419
1.6942
1.6942
1.6942
1.6942
1.6942
1.6942
1.6942
1.69423
1.69428
1.69434
1.69441
1.6945
1.69459
1.69468
1.69477
1.69487
1.69496
1.69506
1.69515
1.69525
1.69535
1.69545
1.69556
1.69566
1.69577
1.69588
1.69599
1.6961
1.69621
1.69632
1.69644
1.69655
1.69667
1.69679
1.6969
1.69702
1.69714
1.69726
1.69738
1.6975
1.69762
1.69774
1.69785
1.69797
1.69809
1.69821
1.69833
1.69845
1.69856
1.69868
1.69879
1.69891
1.69902
1.69913
1.69925
1.69936
1.69946
1.69957
1.69968
1.69978
1.69989
1.69999
1.70009
1.70018
1.70028
1.70037
1.70046
1.70055
1.70064
1.70073
1.70082
1.70091
1.701
1.70109
1.70117
1.70125
1.7013
1.70133
1.70134
1.70133
1.70131
1.70128
1.70126
1.70125
1.70123
1.70122
1.7012
1.70119
1.70124
1.70126
1.70142
1.70157
1.70172
1.70209
1.70275
1.70312
1.70289
1.70225
1.70292
1.70297
1.70292
1.70271
1.70184
1.70144
1.70247
1.70279
1.70262
1.70224
1.70112
1.70086
1.70202
1.70243
1.70226
1.70181
1.70066
1.70049
1.70163
1.7021
1.70194
1.70145
1.70033
1.70021
1.70132
1.70181
1.70167
1.70117
1.70008
1.69999
1.70105
1.70155
1.70142
1.70093
1.69991
1.69984
1.70082
1.70132
1.70121
1.70072
1.69978
1.69974
1.70064
1.70112
1.70103
1.70056
1.69969
1.69966
1.7005
1.70096
1.70089
1.70043
1.69963
1.69961
1.70038
1.70082
1.70076
1.70033
1.69959
1.69958
1.70028
1.70071
1.70066
1.70024
1.69957
1.69956
1.70021
1.70062
1.70059
1.70018
1.69956
1.69956
1.70016
1.70055
1.70052
1.70014
1.69956
1.69957
1.70012
1.7005
1.70048
1.70011
1.69958
1.69958
1.7001
1.70046
1.70045
1.7001
1.6996
1.69961
1.70009
1.70044
1.70043
1.70009
1.69963
1.69965
1.7001
1.70043
1.70043
1.70011
1.69967
1.6997
1.70011
1.70043
1.70044
1.70013
1.69972
1.69975
1.70014
1.70044
1.70045
1.70016
1.69978
1.69981
1.70017
1.70046
1.70048
1.7002
1.69984
1.69987
1.70022
1.70049
1.70052
1.70024
1.69991
1.69994
1.70027
1.70054
1.70056
1.7003
1.69998
1.70002
1.70033
1.70059
1.70062
1.70036
1.70006
1.7001
1.7004
1.70064
1.70068
1.70044
1.70015
1.70019
1.70047
1.70071
1.70075
1.70052
1.70025
1.70029
1.70055
1.70079
1.70083
1.7006
1.70035
1.7004
1.70065
1.70087
1.70092
1.7007
1.70046
1.70051
1.70074
1.70096
1.70101
1.7008
1.70057
1.70063
1.70085
1.70105
1.70111
1.70091
1.70069
1.70075
1.70096
1.70116
1.70122
1.70103
1.70082
1.70088
1.70108
1.70127
1.70134
1.70115
1.70096
1.70102
1.70121
1.70139
1.70146
1.70128
1.7011
1.70117
1.70134
1.70152
1.70159
1.70142
1.70125
1.70132
1.70148
1.70165
1.70173
1.70156
1.7014
1.70148
1.70163
1.70179
1.70187
1.70171
1.70156
1.70164
1.70179
1.70194
1.70203
1.70187
1.70173
1.70181
1.70195
1.7021
1.70219
1.70204
1.70191
1.70199
1.70212
1.70226
1.70235
1.70221
1.70209
1.70218
1.7023
1.70243
1.70253
1.70239
1.70228
1.70237
1.70248
1.70261
1.70271
1.70258
1.70247
1.70257
1.70267
1.7028
1.7029
1.70278
1.70268
1.70278
1.70287
1.70299
1.7031
1.70298
1.70289
1.70299
1.70308
1.70319
1.7033
1.70319
1.70311
1.70321
1.70329
1.7034
1.70351
1.70341
1.70334
1.70344
1.70351
1.70361
1.70374
1.70364
1.70357
1.70368
1.70374
1.70384
1.70397
1.70387
1.70381
1.70393
1.70398
1.70407
1.7042
1.70412
1.70407
1.70418
1.70423
1.70432
1.70445
1.70437
1.70433
1.70445
1.70449
1.70457
1.70471
1.70463
1.70459
1.70472
1.70475
1.70483
1.70497
1.7049
1.70487
1.705
1.70503
1.7051
1.70525
1.70518
1.70516
1.70529
1.70531
1.70537
1.70553
1.70547
1.70546
1.70559
1.70561
1.70566
1.70582
1.70577
1.70576
1.7059
1.70591
1.70596
1.70613
1.70608
1.70608
1.70622
1.70622
1.70627
1.70644
1.7064
1.7064
1.70656
1.70655
1.70658
1.70676
1.70673
1.70674
1.7069
1.70688
1.70691
1.7071
1.70707
1.70709
1.70725
1.70722
1.70725
1.70744
1.70742
1.70744
1.70761
1.70758
1.7076
1.70779
1.70778
1.70781
1.70798
1.70795
1.70796
1.70816
1.70815
1.70819
1.70837
1.70832
1.70833
1.70854
1.70853
1.70858
1.70877
1.70871
1.70871
1.70893
1.70893
1.70899
1.70917
1.70911
1.70911
1.70933
1.70934
1.7094
1.70959
1.70952
1.70951
1.70974
1.70976
1.70983
1.71002
1.70995
1.70993
1.71017
1.71019
1.71026
1.71047
1.71039
1.71036
1.7106
1.71063
1.71071
1.71092
1.71083
1.7108
1.71105
1.71108
1.71118
1.71139
1.71129
1.71126
1.71151
1.71155
1.71165
1.71187
1.71177
1.71172
1.71199
1.71203
1.71214
1.71237
1.71225
1.7122
1.71247
1.71252
1.71264
1.71287
1.71275
1.71269
1.71297
1.71303
1.71315
1.71339
1.71326
1.7132
1.71348
1.71354
1.71367
1.71392
1.71378
1.71371
1.714
1.71407
1.71421
1.71446
1.71432
1.71424
1.71453
1.71461
1.71475
1.71501
1.71486
1.71478
1.71508
1.71516
1.71531
1.71558
1.71542
1.71533
1.71563
1.71572
1.71588
1.71615
1.71598
1.71589
1.7162
1.71629
1.71646
1.71673
1.71656
1.71646
1.71677
1.71688
1.71705
1.71733
1.71715
1.71704
1.71736
1.71747
1.71764
1.71793
1.71774
1.71763
1.71795
1.71807
1.71825
1.71854
1.71835
1.71822
1.71855
1.71867
1.71886
1.71915
1.71896
1.71883
1.71916
1.71929
1.71948
1.71978
1.71957
1.71944
1.71977
1.71991
1.7201
1.7204
1.7202
1.72005
1.72039
1.72053
1.72073
1.72103
1.72082
1.72067
1.72101
1.72115
1.72135
1.72165
1.72144
1.72129
1.72163
1.72177
1.72197
1.72227
1.72206
1.72191
1.72224
1.72239
1.72259
1.72288
1.72268
1.72252
1.72285
1.723
1.7232
1.72349
1.72329
1.72313
1.72345
1.72361
1.72381
1.72409
1.72389
1.72373
1.72405
1.7242
1.7244
1.72468
1.72448
1.72432
1.72463
1.72479
1.72499
1.72526
1.72506
1.7249
1.72521
1.72537
1.72556
1.72582
1.72563
1.72546
1.72577
1.72593
1.72612
1.72637
1.72618
1.72602
1.72631
1.72647
1.72666
1.72691
1.72672
1.72655
1.72684
1.727
1.72718
1.72742
1.72723
1.72707
1.72734
1.7275
1.72769
1.72791
1.72773
1.72756
1.72783
1.72799
1.72817
1.72839
1.7282
1.72804
1.72829
1.72845
1.72863
1.72883
1.72865
1.72849
1.72873
1.72889
1.72906
1.72925
1.72908
1.72892
1.72914
1.7293
1.72947
1.72965
1.72948
1.72932
1.72953
1.72969
1.72985
1.73002
1.72986
1.7297
1.7299
1.73005
1.73021
1.73037
1.73021
1.73006
1.73024
1.73039
1.73054
1.73069
1.73053
1.73039
1.73056
1.7307
1.73084
1.73098
1.73083
1.73069
1.73085
1.73099
1.73113
1.73125
1.73111
1.73097
1.73112
1.73125
1.73139
1.7315
1.73137
1.73123
1.73137
1.7315
1.73163
1.73173
1.7316
1.73147
1.7316
1.73172
1.73185
1.73194
1.73182
1.73169
1.73181
1.73193
1.73204
1.73213
1.73201
1.73189
1.732
1.73211
1.73222
1.7323
1.73219
1.73207
1.73217
1.73228
1.73239
1.73247
1.73235
1.73224
1.73233
1.73244
1.73255
1.73263
1.73251
1.7324
1.73248
1.73259
1.73271
1.73278
1.73266
1.73255
1.73263
1.73274
1.73286
1.73294
1.73281
1.73269
1.73277
1.73289
1.73302
1.73309
1.73295
1.73283
1.7329
1.73302
1.73316
1.73322
1.73309
1.73296
1.73303
1.73315
1.73328
1.73335
1.73322
1.73309
1.73316
1.73328
1.7334
1.73346
1.73334
1.73322
1.73328
1.73339
1.7335
1.73356
1.73345
1.73334
1.7334
1.7335
1.73359
1.73366
1.73357
1.73347
1.7335
1.7336
1.73369
1.73334
1.73317
1.73304
1.733
1.73294
1.73291
1.73287
1.73289
1.73288
1.73291
1.73292
1.73295
1.73297
1.73301
1.73304
1.73308
1.73311
1.73316
1.7332
1.73325
1.73329
1.73335
1.73339
1.73345
1.73349
1.73355
1.7336
1.73365
1.7337
1.73376
1.7338
1.73385
1.7339
1.73395
1.73399
1.73403
1.73406
1.7341
1.73411
1.73411
1.73412
1.73417
1.73423
1.73427
1.7343
1.73433
1.73436
1.73438
1.73441
1.73443
1.73445
1.73447
1.7345
1.7345
1.73447
1.73444
1.73438
1.73443
1.73451
1.73455
1.73459
1.73455
1.73448
1.73455
1.73461
1.73465
1.73473
1.7347
1.73464
1.73472
1.73478
1.73482
1.7349
1.73486
1.7348
1.73488
1.73495
1.73498
1.73506
1.73502
1.73495
1.73503
1.7351
1.73514
1.73521
1.73517
1.73511
1.73518
1.73525
1.73529
1.73537
1.73533
1.73526
1.73533
1.7354
1.73544
1.73552
1.73548
1.73541
1.73548
1.73556
1.7356
1.73567
1.73563
1.73556
1.73564
1.73571
1.73575
1.73583
1.73579
1.73571
1.73579
1.73587
1.73591
1.73599
1.73595
1.73587
1.73595
1.73603
1.73607
1.73615
1.73611
1.73603
1.73611
1.73619
1.73624
1.73632
1.73628
1.73619
1.73628
1.73637
1.73641
1.73651
1.73646
1.73637
1.73647
1.73656
1.7366
1.73669
1.73665
1.73657
1.73666
1.73675
1.73679
1.73688
1.73684
1.73676
1.73686
1.73694
1.73698
1.73707
1.73703
1.73695
1.73704
1.73713
1.73717
1.73727
1.73723
1.73713
1.73723
1.73733
1.73738
1.73748
1.73743
1.73733
1.73744
1.73754
1.73759
1.73771
1.73766
1.73755
1.73766
1.73777
1.73782
1.73794
1.73789
1.73778
1.7379
1.738
1.73805
1.73817
1.73812
1.73801
1.73813
1.73824
1.73829
1.73841
1.73836
1.73825
1.73835
1.73846
1.73851
1.73861
1.73855
1.73842
1.73851
1.73867
1.73873
1.73892
1.73886
1.73867
1.73896
1.73915
1.73921
1.73954
1.73947
1.73925
1.73964
1.73988
1.73994
1.74033
1.74029
1.74002
1.74033
1.74065
1.7407
1.74109
1.74101
1.74058
1.74094
1.74146
1.74156
1.74201
1.74184
1.74143
1.73848
1.74519
1.7408
1.74268
1.74181
1.74298
1.74279
1.74288
1.74284
1.74327
1.74329
1.74317
1.74365
1.74373
1.74371
1.74413
1.74416
1.74408
1.74447
1.74459
1.74456
1.74507
1.74509
1.74491
1.74538
1.74568
1.74564
1.74617
1.74616
1.746
1.74404
1.74896
1.74576
1.74717
1.74706
1.74766
1.74789
1.74781
1.74763
1.74815
1.74842
1.74855
1.7491
1.74899
1.74867
1.74913
1.74955
1.74971
1.75033
1.75013
1.74962
1.75052
1.75079
1.75094
1.75151
1.75118
1.75054
1.74986
1.75075
1.75128
1.75168
1.75086
1.75003
1.74875
1.75576
1.75168
1.75149
1.7486
1.7471
1.74699
1.74808
1.74811
1.73988
1.73716
1.7339
1.72732
1.72753
1.72599
1.65014
1.66945
1.67541
1.6266
1.61348
1.57943
1.57275
1.59872
1.61266
1.60952
1.59856
1.58301
1.59578
1.60484
1.6108
1.62706
1.62351
1.61708
1.62361
1.62774
1.63082
1.63625
1.62048
1.62973
1.63514
1.64323
1.64098
1.64533
1.64284
1.64067
1.63469
1.65364
1.64144
1.65411
1.64982
1.65158
1.65186
1.65384
1.65432
1.65836
1.64601
1.65554
1.65685
1.66206
1.6596
1.66173
1.66024
1.65961
1.65403
1.66925
1.65806
1.66666
1.66503
1.6657
1.66612
1.66531
1.66693
1.66291
1.67467
1.66006
1.67032
1.66956
1.67081
1.671
1.66961
1.6705
1.66457
1.67804
1.66715
1.67412
1.67311
1.67385
1.67392
1.67284
1.67418
1.67003
1.68182
1.66736
1.67667
1.67621
1.67686
1.67679
1.67549
1.67655
1.67013
1.68395
1.67264
1.67883
1.67938
1.67839
1.67933
1.67725
1.67885
1.67415
1.68873
1.66899
1.68517
1.6738
1.68307
1.68188
1.67608
1.6797
1.68
1.68261
1.68164
1.68131
1.68218
1.6798
1.68374
1.67589
1.6837
1.6831
1.68428
1.68226
1.68139
1.68329
1.68243
1.68559
1.67555
1.68609
1.68346
1.68484
1.68442
1.68346
1.68482
1.68211
1.68673
1.67464
1.6874
1.68202
1.69588
1.67773
1.68186
1.68821
1.68341
1.68644
1.68526
1.6861
1.68528
1.685
1.68472
1.68877
1.67535
1.68994
1.68109
1.69337
1.68433
1.68459
1.68815
1.6833
1.68708
1.68644
1.68725
1.68614
1.68589
1.68664
1.69003
1.67835
1.68821
1.6876
1.6858
1.68736
1.68412
1.68747
1.68587
1.69067
1.67588
1.6899
1.67891
1.6999
1.68333
1.684
1.69452
1.67987
1.68668
1.68733
1.68768
1.68564
1.68652
1.68569
1.68727
1.68713
1.68735
1.68676
1.68519
1.6861
1.67805
1.69457
1.68236
1.68934
1.68155
1.69063
1.68693
1.68324
1.68706
1.68656
1.68828
1.68565
1.68531
1.68531
1.68625
1.6816
1.69707
1.67481
1.69041
1.68061
1.68917
1.68779
1.67944
1.68761
1.68439
1.68766
1.68558
1.68584
1.68397
1.68302
1.68448
1.68636
1.686
1.68466
1.68543
1.68322
1.69003
1.67507
1.68756
1.6822
1.69605
1.67868
1.67887
1.68972
1.68318
1.68587
1.68393
1.68508
1.68277
1.68387
1.68313
1.68451
1.68421
1.68435
1.68423
1.68263
1.68414
1.67917
1.69277
1.67517
1.67567
1.69314
1.68082
1.67947
1.68967
1.6782
1.68386
1.68249
1.68319
1.68089
1.68261
1.68236
1.68316
1.68249
1.68255
1.68198
1.68015
1.682
1.66998
1.69145
1.67686
1.68576
1.67097
1.68837
1.68366
1.67218
1.68187
1.67922
1.68412
1.67847
1.67798
1.67729
1.6811
1.67954
1.68338
1.67664
1.67659
1.67782
1.67946
1.67972
1.67993
1.67797
1.67769
1.67722
1.67886
1.67368
1.6873
1.66789
1.6686
1.68952
1.67505
1.67383
1.68577
1.67116
1.67876
1.67567
1.67819
1.67378
1.67969
1.67436
1.67679
1.67475
1.67623
1.67371
1.67524
1.67252
1.6743
1.67569
1.67512
1.67397
1.67339
1.67256
1.67316
1.67464
1.67445
1.6737
1.6722
1.67228
1.66284
1.68063
1.66869
1.67529
1.66671
1.67521
1.67366
1.66489
1.67261
1.67037
1.67461
1.66952
1.66845
1.66798
1.67133
1.67008
1.67306
1.66646
1.66613
1.66744
1.66917
1.66965
1.6695
1.6677
1.66602
1.66695
1.66815
1.66826
1.6685
1.66673
1.66575
1.66584
1.66724
1.66279
1.67127
1.65868
1.6573
1.67511
1.66358
1.66176
1.67179
1.65843
1.66512
1.66339
1.66579
1.6614
1.66551
1.66161
1.66388
1.66146
1.66363
1.66065
1.66172
1.66012
1.66078
1.66205
1.66187
1.66026
1.6598
1.65902
1.65934
1.66023
1.66077
1.65924
1.65875
1.65665
1.66144
1.64894
1.65947
1.65641
1.66325
1.65435
1.65215
1.65893
1.65632
1.65858
1.65486
1.65683
1.65246
1.65568
1.65444
1.65583
1.65312
1.65525
1.65087
1.65253
1.65284
1.65361
1.65332
1.65188
1.6499
1.65125
1.65167
1.652
1.65143
1.65024
1.64725
1.64997
1.65036
1.65015
1.63867
1.652
1.64621
1.65297
1.64736
1.64912
1.64387
1.64632
1.64339
1.64994
1.64737
1.64614
1.6426
1.64313
1.64156
1.64783
1.64569
1.64372
1.641
1.64092
1.63991
1.64429
1.64358
1.64175
1.63952
1.63929
1.63968
1.64217
1.64198
1.64095
1.63882
1.63852
1.63059
1.64272
1.63559
1.64047
1.63508
1.63858
1.63133
1.63742
1.63492
1.637
1.63349
1.63511
1.62983
1.63373
1.63327
1.63457
1.63266
1.6323
1.62925
1.63195
1.63183
1.63256
1.63127
1.63077
1.62639
1.62939
1.62967
1.63009
1.62961
1.62822
1.62494
1.62776
1.62816
1.62526
1.61967
1.62435
1.62613
1.6234
1.62725
1.62504
1.61908
1.62322
1.62
1.62507
1.62346
1.62217
1.61847
1.61859
1.61653
1.62281
1.62099
1.61874
1.61564
1.61428
1.61469
1.6188
1.61839
1.61674
1.61494
1.61255
1.6097
1.60995
1.61251
1.6149
1.61392
1.61262
1.60947
1.60882
1.61254
1.61172
1.61452
1.6074
1.60628
1.60714
1.60928
1.60827
1.60847
1.60395
1.59997
1.60239
1.60488
1.60564
1.60539
1.60197
1.60156
1.6025
1.60506
1.59782
1.60426
1.59183
1.60069
1.59857
1.60265
1.59691
1.59904
1.59236
1.59653
1.59417
1.59808
1.5925
1.59295
1.58715
1.58997
1.59198
1.59357
1.59115
1.59097
1.58675
1.58809
1.58134
1.58859
1.58778
1.59125
1.58408
1.58332
1.58269
1.5867
1.58427
1.5862
1.57974
1.57598
1.57746
1.58101
1.58022
1.57912
1.57517
1.57204
1.57581
1.57801
1.57249
1.57032
1.56779
1.5719
1.57463
1.57552
1.57199
1.57096
1.56741
1.56882
1.5683
1.57133
1.56562
1.56461
1.55985
1.55777
1.56271
1.56406
1.56199
1.55965
1.55574
1.55155
1.55441
1.55636
1.55913
1.55871
1.55509
1.55137
1.55439
1.55595
1.5539
1.55326
1.54984
1.54322
1.54754
1.54969
1.54062
1.53699
1.53314
1.53838
1.54225
1.5433
1.54056
1.53864
1.53559
1.53707
1.54023
1.54089
1.53771
1.53613
1.53182
1.52623
1.52645
1.52952
1.52768
1.52541
1.52112
1.51392
1.51789
1.52207
1.52299
1.52249
1.51642
1.51682
1.51758
1.52166
1.5131
1.51723
1.5058
1.51148
1.51014
1.51468
1.5073
1.50724
1.49956
1.49228
1.49964
1.50248
1.49893
1.49501
1.48827
1.48538
1.48971
1.49256
1.49448
1.49191
1.49104
1.48226
1.49136
1.49135
1.48248
1.47331
1.47853
1.46494
1.47093
1.47508
1.47152
1.46713
1.46041
1.45863
1.4591
1.46495
1.46571
1.46792
1.45868
1.46031
1.45615
1.46388
1.44544
1.44977
1.42993
1.43299
1.44341
1.44563
1.44211
1.43706
1.43076
1.4229
1.43178
1.43278
1.4317
1.42799
1.43006
1.4042
1.41716
1.42221
1.40646
1.39917
1.39054
1.40062
1.40634
1.40919
1.40682
1.40547
1.39588
1.38629
1.38489
1.40039
1.38458
1.37828
1.36528
1.3629
1.37358
1.38061
1.37508
1.36907
1.36252
1.34289
1.35454
1.35915
1.35635
1.34739
1.33202
1.33347
1.3463
1.35364
1.34797
1.34106
1.32503
1.302
1.32504
1.33592
1.33223
1.32427
1.30607
1.28951
1.31324
1.32573
1.32515
1.31413
1.29298
1.28201
1.30064
1.31595
1.3422
1.33273
1.32068
1.33577
1.34996
1.35979
1.38106
1.37162
1.35854
1.37801
1.39043
1.3998
1.41402
1.40417
1.39201
1.40189
1.41362
1.42397
1.43143
1.42073
1.40952
1.41614
1.42662
1.43757
1.44292
1.43185
1.42209
1.42748
1.43644
1.44756
1.4516
1.44056
1.4324
1.43688
1.44427
1.45515
1.4583
1.44766
1.44102
1.44484
1.45078
1.4611
1.46364
1.45369
1.4484
1.45171
1.45641
1.46593
1.46805
1.45899
1.45483
1.45777
1.46144
1.47
1.47183
1.46378
1.46054
1.46316
1.46602
1.47355
1.47517
1.46817
1.46565
1.46802
1.47024
1.47671
1.4782
1.47223
1.47028
1.47242
1.47413
1.47963
1.48102
1.47598
1.47447
1.47643
1.47774
1.48238
1.4837
1.47945
1.47832
1.48013
1.48109
1.48499
1.48626
1.48268
1.48186
1.48354
1.48421
1.48751
1.48875
1.4857
1.48514
1.48669
1.48713
1.48997
1.49116
1.48853
1.48818
1.48962
1.48988
1.49234
1.49349
1.49119
1.49101
1.49235
1.49246
1.49464
1.49575
1.4937
1.49364
1.49489
1.49491
1.49686
1.49794
1.49609
1.4961
1.49728
1.49723
1.499
1.50004
1.49834
1.49841
1.4995
1.49943
1.50106
1.50205
1.50048
1.50056
1.50159
1.50151
1.50303
1.50398
1.50251
1.50259
1.50356
1.50349
1.50491
1.50582
1.50445
1.5045
1.50542
1.50538
1.50671
1.50757
1.50629
1.50631
1.50718
1.50717
1.50841
1.50924
1.50804
1.50803
1.50886
1.50888
1.51004
1.51083
1.5097
1.50967
1.51045
1.51051
1.51159
1.51233
1.51129
1.51122
1.51197
1.51205
1.51306
1.51376
1.5128
1.5127
1.51342
1.51352
1.51445
1.51512
1.51423
1.51412
1.5148
1.51492
1.51577
1.51641
1.5156
1.51546
1.51612
1.51625
1.51703
1.51763
1.51689
1.51675
1.51737
1.51752
1.51822
1.5188
1.51813
1.51798
1.51857
1.51873
1.51936
1.51991
1.51931
1.51915
1.51972
1.51987
1.52044
1.52096
1.52042
1.52026
1.5208
1.52096
1.52147
1.52197
1.52149
1.52133
1.52184
1.522
1.52246
1.52293
1.5225
1.52234
1.52283
1.52299
1.5234
1.52385
1.52346
1.52331
1.52378
1.52393
1.5243
1.52474
1.52438
1.52424
1.52469
1.52484
1.52516
1.52558
1.52527
1.52512
1.52555
1.5257
1.526
1.5264
1.52611
1.52597
1.52638
1.52652
1.52679
1.52718
1.52691
1.52678
1.52717
1.5273
1.52756
1.52793
1.52767
1.52755
1.52793
1.52805
1.52829
1.52865
1.52841
1.52829
1.52865
1.52877
1.52901
1.52935
1.52911
1.529
1.52934
1.52946
1.5297
1.53003
1.52979
1.52968
1.53001
1.53013
1.53036
1.53068
1.53045
1.53033
1.53064
1.53077
1.53101
1.53132
1.53108
1.53095
1.53125
1.53139
1.53163
1.53194
1.53169
1.53155
1.53184
1.53199
1.53224
1.53254
1.53228
1.53213
1.53242
1.53257
1.53284
1.53313
1.53286
1.5327
1.53297
1.53314
1.53341
1.53369
1.53341
1.53324
1.53351
1.53368
1.53397
1.53425
1.53396
1.53377
1.53403
1.53422
1.53452
1.53479
1.53448
1.53428
1.53453
1.53474
1.53505
1.53532
1.535
1.53478
1.53503
1.53525
1.53557
1.53583
1.5355
1.53527
1.53551
1.53574
1.53608
1.53634
1.53599
1.53575
1.53598
1.53623
1.53658
1.53683
1.53647
1.53621
1.53644
1.5367
1.53707
1.53732
1.53694
1.53667
1.53689
1.53717
1.53755
1.53779
1.5374
1.53712
1.53733
1.53763
1.53802
1.53826
1.53786
1.53755
1.53777
1.53807
1.53848
1.53871
1.5383
1.53798
1.53819
1.53851
1.53893
1.53916
1.53874
1.5384
1.53861
1.53895
1.53938
1.5396
1.53916
1.53882
1.53902
1.53937
1.53981
1.54003
1.53958
1.53923
1.53943
1.53979
1.54024
1.54045
1.54
1.53963
1.53982
1.5402
1.54065
1.54086
1.5404
1.54002
1.54021
1.5406
1.54106
1.54126
1.5408
1.54041
1.5406
1.54099
1.54146
1.54166
1.54119
1.54079
1.54098
1.54138
1.54185
1.54205
1.54157
1.54116
1.54135
1.54176
1.54224
1.54243
1.54195
1.54153
1.54171
1.54213
1.54261
1.5428
1.54232
1.54189
1.54207
1.5425
1.54298
1.54316
1.54268
1.54225
1.54242
1.54286
1.54334
1.54351
1.54303
1.5426
1.54277
1.54321
1.54369
1.54386
1.54338
1.54294
1.54311
1.54355
1.54403
1.5442
1.54372
1.54328
1.54345
1.54389
1.54437
1.54453
1.54406
1.54361
1.54377
1.54422
1.5447
1.54486
1.54438
1.54393
1.54409
1.54454
1.54502
1.54518
1.5447
1.54425
1.54441
1.54486
1.54533
1.54549
1.54502
1.54457
1.54472
1.54517
1.54564
1.54579
1.54532
1.54487
1.54502
1.54547
1.54594
1.54609
1.54562
1.54517
1.54532
1.54577
1.54623
1.54638
1.54592
1.54547
1.54561
1.54606
1.54652
1.54666
1.5462
1.54575
1.5459
1.54635
1.5468
1.54694
1.54649
1.54604
1.54618
1.54662
1.54708
1.54721
1.54676
1.54631
1.54645
1.5469
1.54734
1.54747
1.54703
1.54658
1.54672
1.54716
1.5476
1.54773
1.54729
1.54685
1.54698
1.54742
1.54786
1.54799
1.54755
1.54711
1.54724
1.54768
1.54811
1.54823
1.5478
1.54736
1.54749
1.54793
1.54836
1.54848
1.54805
1.54761
1.54774
1.54817
1.54859
1.54871
1.54829
1.54786
1.54798
1.54841
1.54883
1.54894
1.54853
1.5481
1.54821
1.54864
1.54906
1.54917
1.54876
1.54833
1.54844
1.54887
1.54928
1.54939
1.54898
1.54856
1.54867
1.54909
1.54949
1.5496
1.5492
1.54878
1.54889
1.54931
1.5497
1.54981
1.54941
1.549
1.5491
1.54952
1.54991
1.55001
1.54962
1.54921
1.54931
1.54972
1.55011
1.5502
1.54982
1.54942
1.54952
1.54992
1.5503
1.55039
1.55002
1.54962
1.54972
1.55011
1.55049
1.55058
1.55021
1.54981
1.54991
1.5503
1.55067
1.55076
1.5504
1.55001
1.5501
1.55049
1.55084
1.55093
1.55058
1.55019
1.55028
1.55066
1.55101
1.5511
1.55075
1.55037
1.55046
1.55084
1.55118
1.55126
1.55092
1.55055
1.55063
1.551
1.55134
1.55142
1.55109
1.55072
1.5508
1.55117
1.5515
1.55158
1.55125
1.55088
1.55097
1.55132
1.55165
1.55173
1.5514
1.55105
1.55112
1.55148
1.5518
1.55187
1.55155
1.5512
1.55128
1.55163
1.55194
1.55201
1.5517
1.55135
1.55143
1.55177
1.55208
1.55215
1.55184
1.5515
1.55157
1.55191
1.55222
1.55228
1.55198
1.55164
1.55171
1.55204
1.55235
1.55241
1.55211
1.55178
1.55185
1.55217
1.55247
1.55254
1.55224
1.55191
1.55198
1.5523
1.5526
1.55266
1.55236
1.55204
1.55211
1.55243
1.55272
1.55278
1.55249
1.55217
1.55223
1.55255
1.55284
1.55289
1.5526
1.55229
1.55235
1.55266
1.55295
1.553
1.55272
1.55241
1.55247
1.55278
1.55306
1.55311
1.55283
1.55253
1.55258
1.55289
1.55317
1.55322
1.55294
1.55264
1.55269
1.55299
1.55327
1.55332
1.55305
1.55275
1.5528
1.5531
1.55337
1.55342
1.55315
1.55285
1.5529
1.5532
1.55347
1.55352
1.55325
1.55295
1.553
1.5533
1.55357
1.55362
1.55335
1.55305
1.5531
1.55339
1.55367
1.55371
1.55344
1.55315
1.5532
1.55349
1.55376
1.5538
1.55353
1.55325
1.55329
1.55358
1.55385
1.55389
1.55362
1.55334
1.55338
1.55367
1.55394
1.55398
1.55371
1.55343
1.55347
1.55375
1.55402
1.55406
1.5538
1.55352
1.55356
1.55384
1.5541
1.55415
1.55388
1.55361
1.55364
1.55392
1.55418
1.55423
1.55396
1.55369
1.55372
1.554
1.55426
1.5543
1.55404
1.55377
1.5538
1.55408
1.55434
1.55438
1.55412
1.55385
1.55388
1.55415
1.55442
1.55446
1.5542
1.55393
1.55396
1.55423
1.55449
1.55453
1.55427
1.55401
1.55404
1.5543
1.55456
1.5546
1.55434
1.55408
1.55411
1.55437
1.55463
1.55467
1.55441
1.55415
1.55418
1.55444
1.5547
1.55474
1.55448
1.55422
1.55425
1.55451
1.55477
1.5548
1.55455
1.55429
1.55432
1.55458
1.55483
1.55487
1.55462
1.55436
1.55438
1.55464
1.5549
1.55493
1.55468
1.55443
1.55445
1.5547
1.55496
1.55499
1.55475
1.55449
1.55451
1.55477
1.55502
1.55505
1.55481
1.55455
1.55458
1.55483
1.55508
1.55511
1.55487
1.55462
1.55464
1.55489
1.55514
1.55517
1.55492
1.55468
1.5547
1.55495
1.5552
1.55523
1.55498
1.55473
1.55476
1.555
1.55525
1.55528
1.55504
1.55479
1.55481
1.55506
1.55531
1.55533
1.55509
1.55485
1.55487
1.55511
1.55536
1.55539
1.55515
1.5549
1.55492
1.55517
1.55541
1.55544
1.5552
1.55496
1.55498
1.55522
1.55546
1.55549
1.55525
1.55501
1.55503
1.55527
1.55551
1.55554
1.5553
1.55506
1.55508
1.55532
1.55556
1.55559
1.55535
1.55511
1.55513
1.55537
1.55561
1.55563
1.5554
1.55516
1.55518
1.55541
1.55566
1.55568
1.55545
1.55521
1.55523
1.55546
1.5557
1.55572
1.55549
1.55526
1.55528
1.55551
1.55575
1.55577
1.55553
1.5553
1.55533
1.55556
1.55579
1.55581
1.55558
1.55535
1.55537
1.5556
1.55583
1.55586
1.55562
1.55539
1.55542
1.55564
1.55588
1.5559
1.55567
1.55544
1.55546
1.55568
1.55592
1.55594
1.55571
1.55548
1.5555
1.55573
1.55596
1.55598
1.55575
1.55552
1.55555
1.55577
1.556
1.55601
1.55578
1.55556
1.55559
1.55581
1.55604
1.55606
1.55582
1.5556
1.55563
1.55585
1.55608
1.55609
1.55587
1.55564
1.55567
1.55588
1.55611
1.55613
1.5559
1.55568
1.55571
1.55593
1.55615
1.55616
1.55594
1.55572
1.55574
1.55596
1.55619
1.5562
1.55597
1.55576
1.55578
1.556
1.55622
1.55624
1.55601
1.5558
1.55582
1.55603
1.55626
1.55627
1.55604
1.55583
1.55585
1.55607
1.55629
1.5563
1.55608
1.55587
1.55589
1.5561
1.55632
1.55633
1.55611
1.5559
1.55592
1.55613
1.55636
1.55637
1.55615
1.55594
1.55596
1.55617
1.55638
1.5564
1.55618
1.55597
1.55599
1.5562
1.55642
1.55643
1.55621
1.55601
1.55602
1.55622
1.55644
1.55646
1.55625
1.55604
1.55605
1.55625
1.55647
1.55649
1.55628
1.55607
1.55608
1.55628
1.5565
1.55652
1.55631
1.5561
1.55611
1.55631
1.55653
1.55655
1.55633
1.55613
1.55614
1.55634
1.55656
1.55657
1.55636
1.55616
1.55617
1.55637
1.55659
1.5566
1.55639
1.55619
1.5562
1.5564
1.55661
1.55663
1.55642
1.55622
1.55623
1.55642
1.55664
1.55665
1.55644
1.55624
1.55626
1.55645
1.55667
1.55668
1.55647
1.55627
1.55629
1.55648
1.55669
1.5567
1.55649
1.55629
1.55631
1.55651
1.55671
1.55673
1.55651
1.55632
1.55634
1.55653
1.55674
1.55675
1.55654
1.55635
1.55636
1.55656
1.55676
1.55677
1.55656
1.55637
1.55639
1.55658
1.55678
1.55679
1.55658
1.55639
1.55641
1.5566
1.55681
1.55682
1.55661
1.55642
1.55643
1.55662
1.55683
1.55684
1.55663
1.55644
1.55646
1.55664
1.55685
1.55686
1.55665
1.55646
1.55648
1.55667
1.55687
1.55688
1.55667
1.55649
1.5565
1.55669
1.55689
1.5569
1.55669
1.55651
1.55652
1.55671
1.55691
1.55692
1.55671
1.55653
1.55655
1.55673
1.55693
1.55694
1.55674
1.55655
1.55657
1.55675
1.55695
1.55696
1.55676
1.55657
1.55659
1.55677
1.55697
1.55698
1.55678
1.5566
1.55661
1.55679
1.55699
1.557
1.5568
1.55662
1.55663
1.55681
1.55701
1.55702
1.55682
1.55664
1.55665
1.55683
1.55703
1.55703
1.55683
1.55665
1.55666
1.55683
1.55703
1.55702
1.55681
1.55664
1.55665
1.55679
1.55698
1.55692
1.55673
1.55661
1.55668
1.55674
1.55692
1.55702
1.55685
1.5567
1.55691
1.55706
1.55725
1.55737
1.55715
1.55699
1.55777
1.5581
1.5585
1.55899
1.55947
1.56
1.56052
1.56102
1.5615
1.56196
1.56241
1.56285
1.56332
1.56382
1.56437
1.56491
1.56541
1.56591
1.56638
1.56691
1.56733
1.56775
1.56816
1.56854
1.56889
1.56919
1.56947
1.5697
1.5699
1.57008
1.57023
1.57036
1.57047
1.57056
1.57064
1.57071
1.57077
1.57082
1.57087
1.5709
1.57093
1.57096
1.57097
1.57099
1.571
1.57101
1.57101
1.571
1.571
1.57099
1.57098
1.57097
1.57096
1.57095
1.57094
1.57093
1.57092
1.57091
1.57089
1.57091
1.57088
1.5709
1.57086
1.57087
1.57104
1.57108
1.5711
1.57113
1.57115
1.57117
1.5712
1.57123
1.57126
1.57129
1.57133
1.57137
1.57141
1.57146
1.57151
1.57157
1.57164
1.57171
1.57179
1.57188
1.57197
1.57208
1.5722
1.57232
1.57246
1.5726
1.57275
1.57291
1.57307
1.57324
1.57341
1.57357
1.57372
1.57385
1.57396
1.57403
1.57406
1.57406
1.57405
1.57406
1.57407
1.57411
1.57415
1.57421
1.57428
1.57435
1.57443
1.57451
1.5746
1.57469
1.57478
1.57487
1.57497
1.57508
1.57518
1.57529
1.57541
1.57554
1.57567
1.57581
1.57596
1.57613
1.5763
1.57649
1.57669
1.57691
1.57714
1.5774
1.57767
1.57796
1.57827
1.5786
1.57895
1.57933
1.57973
1.58016
1.58061
1.58109
1.5816
1.58214
1.58271
1.58331
1.58394
1.5846
1.5853
1.58604
1.58681
1.58761
1.58846
1.58934
1.59025
1.5912
1.59219
1.59322
1.59428
1.59538
1.59652
1.59769
1.59889
1.60012
1.60139
1.60269
1.60401
1.60536
1.60673
1.60813
1.60955
1.61099
1.61244
1.61391
1.61539
1.61687
1.61837
1.61987
1.62138
1.62289
1.62439
1.6259
1.6274
1.62889
1.63037
1.63185
1.63331
1.63476
1.63619
1.63761
1.63901
1.6404
1.64176
1.64311
1.64443
1.64574
1.64702
1.64828
1.64951
1.65073
1.65192
1.65308
1.65423
1.65535
1.65644
1.65751
1.65856
1.65958
1.66058
1.66156
1.66251
1.66345
1.66435
1.66524
1.6661
1.66695
1.66777
1.66857
1.66935
1.6701
1.67084
1.67156
1.67226
1.67295
1.67361
1.67425
1.67488
1.67549
1.67609
1.67667
1.67723
1.67777
1.6783
1.67882
1.67932
1.67981
1.68028
1.68074
1.68119
1.68162
1.68205
1.68246
1.68285
1.68324
1.68362
1.68398
1.68434
1.68468
1.68501
1.68534
1.68565
1.68595
1.68625
1.68654
1.68682
1.68709
1.68735
1.6876
1.68785
1.68808
1.68832
1.68854
1.68876
1.68896
1.68917
1.68936
1.68955
1.68974
1.68991
1.69009
1.69025
1.69041
1.69056
1.69071
1.69085
1.69099
1.69112
1.69125
1.69137
1.69149
1.69159
1.6917
1.69179
1.69189
1.69197
1.69206
1.69214
1.69222
1.6923
1.69239
1.69249
1.69259
1.69269
1.69279
1.6929
1.69302
1.69313
1.69324
1.69331
1.69337
1.69343
1.69352
1.69371
1.69372
1.69373
1.69374
1.69375
1.69378
1.69381
1.69384
1.69388
1.69392
1.69397
1.69401
1.69405
1.69407
1.6941
1.69412
1.69417
1.69429
1.69444
1.69455
1.69461
1.69467
1.69473
1.6948
1.69487
1.69494
1.69502
1.6951
1.69518
1.69526
1.69535
1.69544
1.69553
1.69563
1.69572
1.69582
1.69593
1.69603
1.69614
1.69624
1.69635
1.69646
1.69657
1.69669
1.6968
1.69691
1.69703
1.69714
1.69726
1.69738
1.69749
1.69761
1.69773
1.69784
1.69796
1.69808
1.69819
1.69831
1.69843
1.69854
1.69865
1.69877
1.69888
1.69899
1.6991
1.69921
1.69931
1.69942
1.69952
1.69963
1.69973
1.69982
1.69992
1.70001
1.70011
1.7002
1.70028
1.70037
1.70045
1.70052
1.7006
1.70067
1.70074
1.70081
1.70088
1.70095
1.70102
1.70109
1.70118
1.70127
1.70131
1.7013
1.70127
1.70125
1.70123
1.70123
1.70127
1.70138
1.70162
1.70204
1.70247
1.70262
1.70265
1.70252
1.70239
1.70226
1.70214
1.70203
1.70192
1.70181
1.70171
1.70162
1.70153
1.70145
1.70138
1.70131
1.70125
1.70119
1.70114
1.70108
1.70104
1.701
1.70097
1.70093
1.70091
1.70088
1.70086
1.70084
1.70083
1.70082
1.70081
1.70081
1.7008
1.7008
1.70081
1.70081
1.70082
1.70083
1.70085
1.70086
1.70088
1.7009
1.70092
1.70095
1.70097
1.701
1.70103
1.70107
1.7011
1.70114
1.70117
1.70122
1.70126
1.7013
1.70135
1.7014
1.70144
1.7015
1.70155
1.70161
1.70166
1.70172
1.70178
1.70185
1.70191
1.70198
1.70204
1.70212
1.70219
1.70226
1.70234
1.70242
1.70249
1.70258
1.70266
1.70274
1.70283
1.70292
1.70301
1.7031
1.70319
1.70329
1.70339
1.70349
1.70359
1.7037
1.7038
1.70391
1.70402
1.70414
1.70424
1.70437
1.70448
1.70461
1.70472
1.70486
1.70498
1.70512
1.70524
1.70538
1.70551
1.70566
1.70579
1.70595
1.70608
1.70624
1.70638
1.70655
1.70669
1.70686
1.70701
1.70719
1.70734
1.70753
1.70769
1.70787
1.70804
1.70823
1.7084
1.7086
1.70878
1.70898
1.70916
1.70938
1.70956
1.70978
1.70997
1.7102
1.71039
1.71063
1.71083
1.71107
1.71127
1.71152
1.71173
1.71199
1.7122
1.71246
1.71268
1.71295
1.71318
1.71345
1.71368
1.71396
1.7142
1.71449
1.71473
1.71502
1.71527
1.71557
1.71582
1.71613
1.71638
1.71669
1.71695
1.71727
1.71753
1.71785
1.71812
1.71844
1.71871
1.71904
1.71931
1.71964
1.71992
1.72025
1.72053
1.72086