/*--------------------------------*- C++ -*----------------------------------*\
| =========                 |                                                 |
| \\      /  F ield         | OpenFOAM: The Open Source CFD Toolbox           |
|  \\    /   O peration     | Version:  v2006                                 |
|   \\  /    A nd           | Website:  www.openfoam.com                      |
|    \\/     M anipulation  |                                                 |
\*---------------------------------------------------------------------------*/
FoamFile
{
    version     2.0;
    format      ascii;
    class       volScalarField;
    location    "0.032";
    object      yPlus;
}
// * * * * * * * * * * * * * * * * * * * * * * * * * * * * * * * * * * * * * //

dimensions      [0 0 0 0 0 0 0];


internalField   uniform 0;

boundaryField
{
    bottomEmptyFaces
    {
        type            empty;
    }
    topEmptyFaces
    {
        type            empty;
    }
    inlet
    {
        type            calculated;
        value           uniform 0;
    }
    outlet
    {
        type            calculated;
        value           uniform 0;
    }
    walls
    {
        type            calculated;
        value           nonuniform List<scalar> 
988
(
13.8962
13.9089
13.9208
13.9332
13.9448
13.9569
13.9684
13.9796
13.9908
14.0016
14.0125
14.023
14.0335
14.0438
14.0538
14.0636
14.0733
14.0827
14.0921
14.101
14.1098
14.1183
14.1268
14.1351
14.1431
14.1511
14.1586
14.1665
14.1736
14.1809
14.1878
14.1945
14.201
14.2074
14.2135
14.2198
14.2257
14.2314
14.2371
14.2425
14.2481
14.2531
14.2584
14.2633
14.2681
14.2728
14.2774
14.2819
14.2864
14.2907
14.295
14.2991
14.3032
14.3072
14.3111
14.315
14.3187
14.3224
14.3258
14.3296
14.3329
14.3365
14.3397
14.343
14.3462
14.3492
14.3523
14.3553
14.3585
14.3612
14.3644
14.3668
14.3698
14.3722
14.375
14.3774
14.3802
14.3824
14.3853
14.3875
14.3901
14.3921
14.3949
14.3968
14.3994
14.4013
14.4037
14.4057
14.4081
14.4097
14.412
14.4137
14.4158
14.4174
14.4198
14.4212
14.4234
14.4249
14.4269
14.4284
14.4305
14.4317
14.4337
14.4349
14.4369
14.438
14.4399
14.441
14.4429
14.444
14.4457
14.4469
14.4484
14.4497
14.4509
14.4522
14.4535
14.4548
14.456
14.4572
14.4585
14.4596
14.4608
14.462
14.463
14.4641
14.4651
14.4662
14.4671
14.4682
14.4693
14.4702
14.471
14.4722
14.4729
14.4738
14.4745
14.4755
14.4762
14.4772
14.4779
14.4787
14.4795
14.4803
14.481
14.4817
14.4824
14.4831
14.4838
14.4846
14.4852
14.4857
14.4865
14.487
14.4878
14.4882
14.489
14.4894
14.4901
14.4906
14.4913
14.4916
14.4922
14.4926
14.4932
14.4936
14.4941
14.4945
14.495
14.4954
14.4958
14.4965
14.4967
14.4972
14.4975
14.498
14.4982
14.4988
14.499
14.4995
14.4997
14.5001
14.5004
14.5008
14.5011
14.5015
14.5015
14.5019
14.5019
14.5023
14.5023
14.5026
14.5027
14.503
14.503
14.5032
14.5033
14.5035
14.5035
14.5037
14.5039
14.5044
14.5053
14.4969
14.494
14.4139
14.3344
14.1046
14.0345
14.044
11.1335
21.9001
20.9342
20.5675
19.9275
19.4468
17.8824
23.6158
17.5748
15.3357
24.3059
24.366
24.3743
24.0576
23.481
22.8546
22.135
21.4177
20.6961
20.0011
19.3491
18.7388
7.97363
8.35025
10.127
8.90087
8.92494
7.18176
7.44431
18.1771
17.656
17.1791
16.7367
16.3332
15.9606
15.6231
15.3128
8.82444
9.41177
8.42159
9.11463
8.52398
9.08199
9.04287
9.72046
9.7604
10.0656
8.78488
9.48408
10.8681
9.55107
9.79012
7.81509
8.13978
10.5495
8.46304
8.99154
9.31671
9.40168
8.17193
8.77541
7.68886
7.7865
8.09781
8.75345
15.0341
14.7789
14.5511
14.3448
14.1615
13.9976
13.8527
13.7255
13.6125
13.5153
13.4298
13.3562
13.2922
13.2384
13.191
13.1521
13.117
13.0893
13.0635
13.0429
13.0238
13.008
12.9942
12.9798
12.9699
12.9565
12.9481
12.9354
12.9266
12.9154
12.9052
12.8952
10.5384
9.30582
6.81318
9.67762
8.6019
6.50704
10.0698
8.86776
6.58343
24.2553
14.3368
10.9272
8.43607
22.3703
13.7836
12.0235
16.5465
15.3147
17.7749
11.3289
16.2244
11.5942
9.85256
7.16122
15.6301
10.2133
8.7187
13.5783
10.2397
11.1224
5.90801
13.2938
11.5909
10.2918
8.81435
7.57951
9.53938
4.88656
12.8834
12.8737
12.8613
12.8514
12.839
12.8297
12.8172
12.808
12.7963
12.7862
12.7753
12.7658
12.7539
12.7456
12.7341
12.7266
12.7157
12.7091
7.34773
7.20914
12.6995
12.6932
12.6844
12.6794
12.6715
12.6674
8.41885
8.28376
9.22198
6.89346
6.72921
7.51879
7.63227
9.34014
8.19458
7.8385
7.0619
6.82239
8.3744
8.04959
12.6614
12.6575
12.6529
12.6498
12.6461
12.6432
12.641
12.6372
9.4257
8.91174
7.94928
6.77357
8.55196
8.24148
7.35623
6.69969
6.21785
7.5609
6.52365
9.22397
8.0731
6.38275
8.56202
7.09302
6.01079
8.90875
7.81212
6.29098
9.42215
8.37017
6.3984
8.6394
7.33863
9.2753
9.11994
6.84895
6.54604
8.34122
7.60283
8.5845
7.48082
6.88266
6.46413
6.39176
8.74363
8.70949
8.66489
8.53023
7.68978
7.80731
9.78234
7.03043
7.16007
7.82723
8.0151
7.98487
8.52128
7.70045
8.104
9.86604
7.2287
7.23037
9.5074
6.90826
7.08181
11.2577
10.0312
9.19981
8.65276
8.04364
7.64756
6.94959
6.32358
12.6363
12.6328
12.6312
12.6294
12.6271
8.52747
4.61132
12.6268
12.6244
10.2139
12.6249
9.32305
8.81738
8.53431
8.33369
8.17631
8.0448
7.95474
7.84647
7.76541
7.66583
12.6231
12.6235
12.6233
7.58239
12.6238
7.51147
7.4502
7.39612
12.6245
12.6259
12.6273
12.6296
7.34625
7.30052
7.25681
7.21572
7.17564
7.13746
7.10023
7.06474
12.6322
12.6349
12.6382
12.6415
12.646
12.6499
12.6554
12.6606
12.6663
12.6726
12.679
12.6866
12.6937
12.7015
12.7097
12.7182
7.02927
6.99581
6.96281
6.92983
6.89911
6.86871
6.83787
6.81005
6.78072
6.7544
6.72651
6.70157
6.67509
6.65142
6.62653
6.60362
6.58061
6.55904
6.53732
6.51738
6.49724
6.47828
6.45916
6.44312
6.42108
6.41013
6.3956
6.3596
6.31815
6.21175
6.1971
6.28013
12.7277
12.7367
12.7467
12.7568
12.7673
12.7783
12.7895
12.8013
12.8131
12.8256
12.8382
12.8513
12.8644
12.8781
12.8917
12.9061
12.9201
12.935
12.9493
12.9648
12.9793
12.9952
13.0104
13.0262
13.042
13.0575
13.074
13.0896
13.106
13.1221
13.1381
13.1546
13.1707
13.1873
13.2035
13.2203
13.2364
13.2533
13.2692
13.2863
13.302
13.3192
13.3346
13.3519
13.3675
13.3846
13.3999
13.4169
13.4322
13.4487
13.4639
13.4804
13.4957
13.5117
13.5271
13.543
13.5579
13.5738
13.5884
13.604
13.6187
13.6338
13.6487
13.6629
13.3762
10.4222
11.0476
11.5554
11.8065
9.642
10.3534
10.9646
11.3552
12.6259
9.28304
9.65101
10.06
10.8902
13.2018
11.4353
11.6787
10.3272
11.2199
10.009
10.7135
9.63909
9.92413
14.4053
14.9533
12.9553
12.9177
10.8529
11.3375
14.4857
10.842
11.138
12.401
12.4464
10.6709
11.0018
12.75
12.753
16.0105
16.0084
15.7719
13.1029
12.7662
13.1065
12.829
16.5234
17.5509
16.5327
13.7646
13.4735
14.384
13.7729
16.2194
13.3138
13.0771
13.372
12.9056
13.6782
13.6922
15.3823
11.4188
11.6606
13.3152
13.3353
13.707
13.7208
13.7354
13.7716
11.8282
12.1473
13.7491
13.7636
11.0094
11.6261
12.3211
12.5114
10.1601
10.5249
13.7769
10.6378
11.3537
9.77786
10.2058
13.7913
13.8043
13.8185
13.8315
13.8451
13.8577
13.871
13.8838
9.84325
10.7028
9.69508
10.4245
11.9869
9.47799
10.3129
10.4697
10.7419
9.34178
9.96661
8.5816
8.98898
9.03162
9.66035
11.4708
10.0387
10.3907
8.31971
8.75159
9.31199
10.0158
9.02219
9.77125
8.76509
9.37147
8.169
8.50582
9.26371
10.1163
12.4216
10.8714
11.1058
9.00768
9.4144
19.8575
15.2441
14.5824
17.6928
16.1694
14.8582
14.17
6.40493
32.955
30.6894
29.1195
28.0151
27.1886
26.5169
25.8985
25.1892
24.6164
24.1781
23.856
23.5227
23.2831
23.02
22.8339
22.6199
22.4685
22.2894
22.1615
22.0072
21.896
21.7598
21.6609
21.5381
21.4485
21.3363
21.2538
21.1498
21.0733
20.9761
20.9042
20.8124
20.7443
20.6571
20.5923
20.5091
20.4471
20.3673
20.3078
20.2311
20.1737
20.0996
20.0441
19.9725
19.9186
19.8492
19.7968
19.7294
19.6783
19.6127
19.5628
19.4988
19.45
19.3875
19.3397
19.2785
19.2316
19.1716
19.1255
19.0665
19.0211
18.963
18.9182
18.861
18.8166
18.76
18.7161
18.6601
18.6165
18.561
18.5177
18.4626
18.4195
18.3647
18.3217
18.2671
18.2242
18.1696
18.1267
18.0722
18.0291
17.9745
17.9314
17.8766
17.8332
17.7782
17.7345
17.6791
17.635
17.5792
17.5347
17.4783
17.4333
17.3764
17.3308
17.2732
17.227
17.1687
17.1219
17.0626
17.0151
16.955
16.9067
16.8456
16.7965
16.7344
16.6844
16.6211
16.5701
16.5057
16.4536
16.3878
16.3346
16.2674
16.213
16.1443
16.0886
16.0182
15.9613
15.8892
15.8308
15.7569
15.697
15.6212
15.5598
15.482
15.4188
15.339
15.2741
15.192
15.1254
15.0411
14.9725
14.8858
14.8153
14.7262
14.6537
14.562
14.4874
14.3929
14.3162
14.2189
14.1399
14.0397
13.9584
13.8552
13.7714
13.665
13.5789
13.4692
13.3805
13.2675
13.1763
13.06
12.9663
12.8467
12.7504
12.6274
12.5286
12.4024
12.3009
12.1716
12.0673
11.9355
11.8273
11.6948
11.5799
11.4516
11.3592
11.2518
11.1681
11.0635
10.9796
10.8736
10.7877
10.6795
10.5916
10.4813
10.3916
10.2796
10.1887
10.0756
9.98392
9.87017
9.77844
9.66478
9.5737
9.46085
9.37122
9.25995
9.17257
9.06373
8.9794
8.87381
8.79331
8.69175
8.61579
8.51903
8.44828
8.35677
8.29168
8.20594
8.14681
8.06711
8.01397
7.94039
7.89321
7.82575
7.78442
7.7229
7.68707
7.6311
7.60027
7.54949
7.52312
7.47709
7.45467
7.41294
7.39391
7.35617
7.33959
7.3054
7.29067
7.25963
7.24639
7.21786
7.20557
7.17864
7.16668
7.14036
7.12808
7.10022
7.08895
7.05551
7.04465
7.0168
6.99421
6.98051
6.92197
6.94299
7.08258
35.766
7.29189
)
;
    }
    rightWall
    {
        type            calculated;
        value           uniform 0;
    }
    symmetryLine
    {
        type            symmetryPlane;
    }
}


// ************************************************************************* //
