/*--------------------------------*- C++ -*----------------------------------*\
| =========                 |                                                 |
| \\      /  F ield         | OpenFOAM: The Open Source CFD Toolbox           |
|  \\    /   O peration     | Version:  v2006                                 |
|   \\  /    A nd           | Website:  www.openfoam.com                      |
|    \\/     M anipulation  |                                                 |
\*---------------------------------------------------------------------------*/
FoamFile
{
    version     2.0;
    format      ascii;
    class       volScalarField;
    location    "0.079";
    object      k;
}
// * * * * * * * * * * * * * * * * * * * * * * * * * * * * * * * * * * * * * //

dimensions      [0 2 -2 0 0 0 0];


internalField   nonuniform List<scalar> 
16277
(
78.751
78.7518
78.7588
78.7609
78.7665
78.7596
78.7448
78.6984
78.5907
78.4171
78.1924
77.9417
77.681
77.4177
77.152
76.8817
76.6041
76.3167
76.0182
75.7081
75.3862
75.0529
74.7082
74.3526
73.9862
73.6093
73.222
72.8247
72.4175
72.0009
71.5752
71.1408
70.6981
70.2474
69.7894
69.3245
68.8531
68.3757
67.8929
67.4053
66.9133
66.4174
65.9184
65.4166
64.9127
64.4073
63.9009
63.3942
62.8876
62.3817
61.8772
61.3747
60.8746
60.3776
59.8843
59.3953
58.9109
58.4319
57.9588
57.4921
57.0324
56.5802
56.136
55.7003
55.2736
54.8563
54.449
54.052
53.6657
53.2905
52.9268
52.5749
52.2354
51.9086
51.595
51.2945
51.0066
50.7299
50.4616
50.1993
49.9428
49.6995
49.491
49.3473
49.2826
49.2737
49.2882
49.3071
49.3185
49.3171
49.3068
49.241
49.0902
48.8379
48.3205
47.4671
43.1343
38.6797
45.3963
47.7154
46.016
41.1644
34.5259
31.6352
38.9002
44.7175
42.2918
35.3635
28.9184
27.205
33.9419
41.2594
39.0175
31.2936
25.4438
24.3786
30.4094
38.2128
36.3906
28.5344
23.1882
22.491
28.0228
35.8076
34.3536
26.7521
21.6583
21.174
26.4173
33.9033
32.7069
25.4701
20.5477
20.1906
25.2378
32.3575
31.3426
24.4887
19.6925
19.4167
24.3201
31.0629
30.1788
23.6993
19.0025
18.7795
23.5722
29.9491
29.1633
23.0384
18.4216
18.2338
22.939
28.9704
28.2603
22.4656
17.9157
17.753
22.3844
28.0949
27.4443
21.9541
17.4639
17.3188
21.8855
27.3001
26.6979
21.4876
17.0511
16.9188
21.4281
26.5702
26.0089
21.0559
16.6676
16.5448
21.0035
25.8947
25.3675
20.6521
16.3066
16.1911
20.6053
25.2642
24.7664
20.2713
15.9634
15.8535
20.2288
24.6724
24.2009
19.9097
15.6344
15.5289
19.8708
24.1154
23.668
19.5647
15.317
15.2149
19.5292
23.5904
23.1653
19.235
15.0092
14.9099
19.2024
23.0947
22.6899
18.9189
14.7094
14.6123
18.8889
22.6254
22.2387
18.6149
14.4163
14.3211
18.5869
22.1796
21.809
18.3211
14.1288
14.035
18.2947
21.7543
21.3981
18.036
13.8458
13.753
18.0108
21.3471
21.0036
17.7579
13.5662
13.4741
17.7335
20.9558
20.6236
17.4854
13.2891
13.1973
17.4614
20.5784
20.2562
17.2172
13.0137
12.9218
17.1933
20.2131
19.8997
16.9521
12.739
12.6468
16.9279
19.8583
19.5527
16.689
12.4645
12.3716
16.6644
19.5127
19.2139
16.4271
12.1893
12.0957
16.4018
19.1748
18.882
16.1655
11.9131
11.8184
16.1394
18.8437
18.5561
15.9036
11.6353
11.5395
15.8765
18.5183
18.2355
15.641
11.3556
11.2587
15.6129
18.1981
17.9194
15.3772
11.0738
10.9758
15.3481
17.8821
17.6071
15.1121
10.79
10.6909
15.0822
17.57
17.2984
14.8459
10.5043
10.4044
14.8151
17.2613
16.9927
14.5782
10.2171
10.1168
14.5466
16.9556
16.6897
14.3092
9.92897
9.82857
14.2769
16.6525
16.3892
14.0391
9.64078
9.54085
14.0064
16.352
16.0913
13.7687
9.35366
9.25495
13.7358
16.0541
15.796
13.4986
9.06917
8.97258
13.4661
15.7592
15.5041
13.2303
8.78926
8.69597
13.1988
15.468
15.2165
12.9656
8.51642
8.42783
12.9357
15.1814
14.934
12.7063
8.25362
8.17142
12.679
14.9005
14.6581
12.4549
8.00435
7.93054
12.431
14.6268
14.3908
12.2143
7.77269
7.70972
12.1951
14.3624
14.1343
11.9884
7.56318
7.51431
11.9739
14.11
13.8921
11.7807
7.38235
7.34887
11.7675
13.8723
13.6651
11.5844
7.23776
7.21919
11.5739
13.6503
13.4553
11.4043
7.13151
7.12887
11.3978
13.4461
13.2644
11.2446
7.07143
7.08137
11.2425
13.2611
13.0949
11.1086
7.05438
7.07898
11.1104
13.0967
12.9462
10.9928
7.0716
7.12261
10.9983
12.9528
12.8183
10.8935
7.13064
7.20906
10.9027
12.8303
12.7131
10.8126
7.23303
7.33503
10.8254
12.7295
12.6278
10.7514
7.37101
7.48981
10.7686
12.6485
12.5615
10.7108
7.53485
7.66579
10.7334
12.5865
12.5147
10.6931
7.71782
7.85822
10.7224
12.5442
12.4877
10.6979
7.9152
8.06183
10.7371
12.522
12.48
10.7196
8.12111
8.26991
10.7743
12.5224
12.4896
10.763
8.32959
8.4772
10.8312
12.5398
12.5116
10.8251
8.53542
8.67857
10.9051
12.573
12.5487
10.9037
8.73362
8.86938
10.9931
12.6194
12.5982
10.9951
8.92
9.04603
11.0921
12.676
12.6566
11.0945
9.09136
9.20553
11.193
12.7377
12.719
11.1953
9.2444
9.34499
11.2941
12.8006
12.7818
11.2958
9.37681
9.46316
11.3935
12.8614
12.8416
11.3939
9.48781
9.55998
11.4883
12.9167
12.8954
11.4871
9.57768
9.63644
11.5768
12.9642
12.9408
11.5737
9.64775
9.69441
11.6573
13.002
12.9758
11.652
9.70007
9.73618
11.7282
13.028
12.9992
11.7204
9.73698
9.7629
11.7884
13.0423
13.0091
11.7779
9.76049
9.77849
11.8376
13.0456
13.0077
11.8244
9.77354
9.78514
11.8758
13.0384
12.996
11.8602
9.77802
9.78556
11.904
13.0224
12.974
11.885
9.77525
9.78029
11.9226
12.9972
12.9425
11.899
9.76514
9.76908
11.9322
12.9628
12.9026
11.9047
9.75085
9.75392
11.9339
12.9201
12.8551
11.903
9.73341
9.73584
11.9286
12.8701
12.8006
11.8943
9.71332
9.71543
11.9167
12.8133
12.7401
11.8793
9.69136
9.69291
11.8986
12.7506
12.6736
11.8586
9.66723
9.66872
11.8753
12.6822
12.6023
11.8327
9.6422
9.64327
11.847
12.6089
12.5266
11.8028
9.61667
9.6171
11.8158
12.532
12.4475
11.7684
9.58892
9.59056
11.7811
12.4512
12.3647
11.7319
9.56303
9.5637
11.7403
12.3688
12.2788
11.6871
9.53369
9.54561
11.6996
12.2861
12.2082
11.6879
9.53272
9.55523
11.6579
12.1955
12.1763
11.6964
9.59575
9.7041
11.4845
12.1278
12.8053
12.197
10.2363
10.2179
10.8456
11.526
13.7727
16.295
18.9353
21.1677
22.7084
24.75
26.0447
27.1508
27.8991
28.4228
28.67
28.6652
28.3946
27.7913
26.9148
25.3836
24.2928
22.1064
20.1218
18.0162
15.849
14.2384
12.5805
12.5198
8.19289
7.94258
12.4857
12.5415
12.5379
12.4851
7.72235
7.56991
12.497
12.5362
12.5798
12.5353
7.47893
7.4829
12.5591
12.5968
12.6347
12.5653
7.41477
7.417
12.5832
12.6672
12.6929
12.6021
7.42509
7.43457
12.6123
12.7203
12.7402
12.6315
7.44689
7.45785
12.6464
12.7733
12.7891
12.6613
7.47056
7.48412
12.6817
12.8241
12.8405
12.694
7.49729
7.51225
12.7191
12.8776
12.8951
12.7311
7.52529
7.54112
12.7569
12.9332
12.9508
12.7694
7.55491
7.57094
12.7935
12.9889
13.0063
12.8097
7.58524
7.60119
12.8299
13.0451
13.0634
12.8507
7.61727
7.6342
12.8739
13.1047
13.1245
12.8942
7.64993
7.66533
12.9129
13.1669
13.1863
12.9346
7.68197
7.69854
12.9565
13.2291
13.2492
12.979
7.71543
7.73232
12.9999
13.2931
13.3141
13.0231
7.74963
7.76697
13.0464
13.3597
13.3811
13.0698
7.78441
7.80215
13.0923
13.4275
13.4497
13.1166
7.8201
7.8381
13.1415
13.4982
13.521
13.1656
7.85635
7.87474
13.1933
13.5689
13.5916
13.2132
7.89244
7.91193
13.2427
13.6408
13.6641
13.2665
7.93043
7.95109
13.3004
13.7159
13.7411
13.3221
7.96954
7.98967
13.3547
13.7954
13.8208
13.3766
8.00704
8.02713
13.4098
13.8722
13.8967
13.4327
8.04591
8.06755
13.4689
13.9506
13.9764
13.4955
8.08643
8.10706
13.5327
14.031
14.0572
13.5569
8.12585
8.14749
13.5964
14.1148
14.1421
13.6256
8.16663
8.18737
13.6656
14.1995
14.2264
13.6884
8.20496
8.22543
13.7276
14.2809
14.3062
13.7567
8.24344
8.26503
13.8007
14.3596
14.3848
13.8288
8.28362
8.30405
13.8714
14.4381
14.4629
13.9016
8.32125
8.34141
13.9464
14.515
14.5388
13.9741
8.35835
8.37691
14.0159
14.5863
14.6071
14.0429
8.39117
8.40695
14.0747
14.6457
14.6612
14.1057
8.42214
8.43748
14.1358
14.6922
14.7055
14.1628
8.45037
8.46238
14.1833
14.7283
14.7363
14.206
8.47441
8.48502
14.219
14.7494
14.7517
14.2269
8.495
8.50325
14.2301
14.7564
14.7447
14.2253
8.51257
8.52134
14.2112
14.7396
14.7065
14.19
8.53069
8.53976
14.1561
14.69
14.6361
14.1061
8.5507
8.56635
14.056
14.6098
14.5427
13.9864
8.58233
8.60417
13.9064
14.5095
14.4242
13.8058
8.62982
8.66366
13.6974
14.3817
14.2806
13.5669
8.70474
8.75939
13.4382
14.2291
14.1244
13.2764
8.82525
8.91153
13.1342
14.0781
13.984
12.9542
9.0135
9.1438
12.7931
13.9375
13.8423
12.5745
9.29107
9.46957
12.366
13.8027
13.7393
12.1294
9.68904
9.95053
11.9755
13.7174
13.6949
11.8623
10.1758
10.3894
11.6489
13.6914
13.6791
11.435
10.6081
10.7625
11.294
13.777
13.7717
11.2419
10.9242
11.0693
10.9853
13.9187
13.9577
10.9043
11.2228
11.364
10.8613
14.2116
14.3314
10.8747
11.4677
11.5986
11.0702
14.7233
14.8886
11.1642
11.7731
11.9574
11.5381
15.4209
15.7701
11.9534
12.0853
12.2889
12.9168
16.6378
16.9728
13.5333
12.5293
11.0142
9.64889
10.5294
14.4116
11.5183
11.1445
11.017
10.8113
14.2192
14.405
10.6083
11.2934
11.5061
10.2947
14.1838
14.5784
10.3463
11.7692
12.0062
10.2798
14.5523
15.2914
10.6525
12.2212
12.4097
10.7558
15.3764
16.4783
11.4859
12.6167
12.801
11.8552
16.8383
18.5472
13.2195
13.1692
13.5063
14.0848
19.2813
10.9135
9.38315
12.7184
12.6509
11.6351
16.5844
16.8672
11.5452
12.5113
12.6256
12.3766
18.7523
19.3028
12.6121
12.6774
12.8867
13.6133
20.7963
21.5097
14.2207
13.2262
13.8464
15.8974
23.3314
23.6678
17.0139
14.5136
12.9676
10.8043
12.9506
20.5083
13.1409
13.0767
13.0653
13.1493
20.9617
23.031
14.4474
13.4408
13.7096
14.8655
23.4192
26.2553
17.2893
14.4548
15.4665
19.1148
27.1949
14.9727
11.2948
13.7803
13.8421
15.2787
25.0759
26.3544
16.1166
13.9198
14.5685
19.1894
30.5086
32.0934
21.0979
15.4238
17.1029
24.3529
33.9332
19.2278
13.3259
14.2184
14.6653
19.2635
32.1302
33.1727
20.1632
14.9591
16.7338
26.0204
39.0744
40.9853
29.146
18.3006
14.8304
15.8016
25.1786
41.8319
25.8244
16.2512
17.0862
28.0962
44.7458
53.358
37.4576
20.2081
21.6949
40.4308
55.0399
39.1032
23.6656
16.5162
21.3023
43.0995
60.4722
63.2282
47.1913
23.5226
17.3329
28.8863
48.7697
74.4552
56.0131
25.4987
29.1615
62.7667
79.3539
70.9129
44.0828
19.5016
37.6905
81.3886
94.1139
87.6817
63.0869
20.0598
38.0492
89.8635
105.763
107.536
89.6343
37.573
39.4168
87.8836
105.522
101.704
86.3241
42.8137
56.0216
95.7984
102.221
77.8091
53.7668
38.8713
45.1929
71.1121
82.5204
58.2467
41.9159
31.828
33.4288
51.8101
65.2576
59.1976
43.3583
29.594
25.186
24.2616
36.2087
48.1903
37.3447
26.9885
22.6748
24.9793
32.9727
43.2507
32.1275
23.9682
21.6744
27.6811
39.5723
23.666
18.0885
20.1303
21.2034
24.8727
35.065
32.0846
21.9333
19.3542
18.8845
15.3946
19.1239
29.5038
20.7668
19.4019
18.2923
18.8577
26.7358
16.3744
14.0876
18.066
18.0575
18.013
25.4177
22.7441
16.5779
17.4491
17.6438
12.9909
14.3125
22.0836
16.0115
16.9559
16.427
14.7247
19.9711
12.8086
11.8844
17.0933
16.0746
14.4971
19.6409
17.7209
13.3565
15.7134
16.6089
11.0498
11.6491
17.5995
13.1768
15.3007
15.1614
12.1756
15.949
10.7329
10.3563
16.1012
14.7277
12.5057
16.4445
14.0968
11.3119
14.5591
15.0478
10.3023
12.1858
8.99676
8.91042
16.6505
13.9529
9.89743
12.4576
11.511
9.50107
14.3424
15.5454
8.87328
8.47089
11.1952
9.14766
13.3232
13.9821
8.83528
10.3731
7.83161
8.03648
15.6387
12.9741
8.38109
10.1047
9.4772
8.28951
13.5144
14.9769
8.05506
7.34231
9.32281
7.96356
12.6532
13.4517
7.95819
8.81525
7.0625
7.89283
14.8926
12.4484
7.52502
8.59256
8.25006
7.56716
13.2887
15.279
7.41038
6.74235
8.19357
7.22986
12.3341
13.0474
7.21457
7.68254
6.44994
7.22597
15.1046
12.2868
6.82736
7.42288
7.08842
6.8194
13.2432
15.5589
7.14009
6.12559
6.9754
6.80755
12.6435
14.1108
7.02287
5.96956
7.65783
6.75038
11.693
12.6367
6.76325
7.20718
6.24204
7.41394
14.536
11.9377
6.76403
7.3507
6.98362
6.67907
12.8615
14.7121
7.45743
6.14566
7.23743
6.73949
12.0501
13.0791
6.57989
6.79875
6.11603
7.76257
15.0941
12.2807
6.52392
6.69017
6.428
6.33159
13.2187
15.1982
7.80602
5.87661
6.36379
6.33882
12.2803
13.4733
6.1962
5.96289
5.73993
7.67173
16.0868
12.7934
5.78879
5.97833
5.48985
7.15487
14.6243
12.0056
5.98358
6.10666
5.67568
5.84009
13.0948
15.1353
7.77717
5.51635
5.84979
5.94307
12.3402
13.576
5.77925
5.30572
5.41554
7.96924
16.1642
12.8025
5.3141
5.375
5.08345
7.10094
14.8365
11.9244
5.56572
5.51357
5.11999
5.5103
13.1003
15.3459
7.80373
5.18794
5.50489
5.70455
12.4535
13.8429
5.64783
5.04184
5.2907
8.12847
16.6281
13.099
5.11525
5.08926
4.93504
7.18238
15.3236
12.2661
5.41956
5.29544
4.85164
5.41311
13.5816
15.9536
8.03517
5.02523
5.1491
5.47581
12.8286
14.2638
5.46708
4.73561
5.0977
8.93297
16.5133
13.4468
4.99159
4.70236
4.69628
7.09251
15.9494
12.5388
5.08624
4.89875
4.50846
5.22966
14.0159
16.8619
8.37531
4.97085
4.60786
4.79879
13.3198
16.0541
7.28327
4.66109
4.85052
5.08424
12.7056
14.1947
5.15207
4.46524
4.95892
8.7743
16.7889
13.4391
4.94291
4.58895
4.65785
7.30696
16.1866
12.6979
5.05385
4.81716
4.48182
5.23103
14.2765
17.0321
9.05061
5.00809
4.61187
4.94974
13.7094
16.7641
7.47082
4.70296
4.8268
5.07598
13.1314
14.7748
5.28312
4.45403
5.06911
8.91153
17.7954
14.0251
4.885
4.58923
4.72609
7.66301
16.9407
13.4385
5.10924
4.81334
4.48203
5.29536
15.1372
17.8643
9.6738
5.12574
4.63313
4.99905
14.6479
17.9383
8.32756
4.98087
4.61732
4.64488
14.0068
16.7108
7.65294
4.7721
4.86744
5.12174
13.2791
14.9878
5.38454
4.51998
5.19072
9.42454
18.2156
14.4754
5.05759
4.66905
4.86379
8.03414
17.809
14.0384
5.21869
4.89488
4.56297
5.51428
15.8835
18.7805
10.1781
5.30228
4.72967
5.20908
15.5196
18.8514
8.68448
5.13874
4.68022
4.76185
14.8613
17.6873
7.95895
4.87661
4.91582
5.23426
13.9636
15.8214
5.47474
4.56359
5.39011
9.84535
19.5558
15.4492
5.12297
4.76678
5.23724
8.80787
18.99
15.0426
4.8559
4.77873
5.03077
8.30056
18.1002
14.3971
5.3616
5.03573
4.72399
5.74909
16.3071
19.5142
10.4363
5.54296
4.92174
5.40465
15.8204
19.7318
9.12553
5.41094
4.88909
4.94773
15.5001
18.6358
8.54646
5.16262
5.1304
5.48779
14.7176
16.6775
5.83122
4.79683
5.70229
10.5629
20.5318
16.2809
5.45139
5.0183
5.55894
9.38309
20.0655
15.9788
5.1715
5.0156
5.3367
8.88908
19.1533
15.192
5.64417
5.24661
4.91759
6.03304
17.3474
21.7895
10.7569
5.91693
5.14577
5.52336
17.2604
21.2895
9.76334
5.76532
5.11947
5.23267
16.7664
20.1944
9.25749
5.49654
5.315
5.75742
15.8278
17.9603
6.12961
4.97129
6.03113
11.1055
22.3967
17.5608
5.67293
5.22677
5.89002
10.1129
21.6044
16.9219
5.3574
5.19905
5.76838
9.58614
20.7476
16.5126
5.3059
5.17398
5.62669
9.46498
20.0315
15.8805
5.87023
5.42333
5.14367
6.40273
18.1363
22.0276
12.0693
6.23468
5.46956
6.20929
18.2875
22.8416
10.5409
6.12852
5.37408
5.51782
17.9715
21.7195
9.95194
5.98291
5.33921
5.51997
17.1421
20.765
9.93541
5.83736
5.57388
6.10004
16.5072
18.8556
6.51098
5.25267
6.46717
12.0218
23.7746
18.8123
6.05627
5.5677
6.32681
10.8147
23.4419
18.4289
5.73914
5.55339
6.21127
10.3582
22.4378
17.7796
5.71214
5.51858
6.06279
10.3284
21.4717
17.1187
6.33314
5.74884
5.45738
6.82126
19.4995
24.614
12.5383
6.78335
5.76396
6.33483
19.5422
24.4119
11.2497
6.59757
5.73803
5.91948
19.2829
23.7272
10.9281
6.48316
5.70737
5.96711
18.7477
22.708
10.7982
6.30094
5.88488
6.52001
17.9203
20.484
7.12491
5.61626
7.03355
13.5297
24.7506
20.547
6.90625
5.98545
6.86644
11.8328
25.546
19.9103
6.00805
5.89258
6.705
11.1786
24.3396
19.3958
6.12023
5.87651
6.66191
11.1496
23.8883
19.0659
6.23485
5.89004
6.55933
11.1552
23.1461
18.5687
6.87905
6.10839
5.84622
7.46075
21.3014
27.4285
13.7166
7.45318
6.14791
6.79817
21.4678
26.8133
12.3273
7.2343
6.15181
6.42704
21.0442
25.7377
11.902
7.05903
6.10898
6.3901
20.3399
24.9349
11.6568
6.94427
6.123
6.50723
19.9767
24.2885
11.6924
6.81641
6.34497
7.13563
19.3173
22.0435
7.67451
6.05884
7.74696
14.3844
27.7459
21.8198
7.13527
6.44486
7.59183
12.8498
27.4074
21.5308
6.77104
6.46921
7.43807
12.3922
26.6161
21.0938
6.74769
6.43424
7.35195
12.2562
25.8183
20.6801
6.90923
6.47152
7.22402
12.1824
25.1612
20.1766
7.52095
6.66634
6.40965
8.18595
23.1003
29.5927
15.0754
8.23435
6.69827
7.44851
23.4071
29.1498
13.4272
7.96874
6.71654
7.07809
23.1518
28.5321
13.0657
7.85402
6.67236
6.98736
22.5663
27.5564
12.8311
7.69935
6.67792
7.10713
21.8978
26.4543
12.8688
7.54852
6.90978
7.82511
20.9925
24.0936
8.5205
6.64822
8.59506
15.8998
30.5543
24.2233
7.85768
6.99941
8.37141
14.0448
30.3261
23.8571
7.35284
6.99693
8.18608
13.5387
29.3512
23.2998
7.33696
6.9721
8.1064
13.373
28.5291
22.8271
7.48786
6.99374
7.96096
13.4691
27.7356
22.1387
8.2273
7.19778
6.96125
9.03771
25.6054
33.1818
16.754
9.14327
7.25307
8.10483
25.9062
32.2334
14.9111
8.85961
7.23251
7.75023
25.2924
31.194
14.3936
8.63555
7.19324
7.65566
24.7807
30.3509
14.0968
8.49777
7.23678
7.72919
24.1974
29.6295
14.0957
8.49848
7.31263
7.93222
23.723
28.8598
14.1379
8.32944
7.53126
8.598
22.8484
26.4231
9.41252
7.29298
9.53828
17.7304
32.9949
26.3817
8.98573
7.74795
9.31628
15.7005
33.2883
26.0836
8.13859
7.66345
9.0749
14.9194
31.8825
25.2309
8.15768
7.67777
9.02663
14.8472
30.8639
24.7225
8.43968
7.75522
8.89134
14.756
30.0164
23.9758
9.05479
7.91947
7.68993
9.95277
27.8497
35.3565
18.6447
10.1811
8.12398
9.31801
27.9904
34.9917
16.4826
9.89714
8.01161
8.63412
27.6814
34.0201
15.859
9.62454
7.95272
8.56009
26.9741
32.8665
15.6084
9.48945
7.97414
8.70261
26.2668
32.0757
15.594
9.2852
8.1439
9.41612
25.335
29.4543
10.3525
7.90341
10.6076
19.8368
36.6944
29.2078
10.0369
8.44399
10.3288
17.4626
36.7187
28.7585
9.01245
8.30846
10.0098
16.4851
34.9883
27.7369
8.93414
8.2627
9.88368
16.2663
34.0791
27.1931
9.12413
8.32141
9.73105
16.3023
33.3767
26.5127
9.86697
8.49905
8.28292
10.9541
30.9477
39.1424
20.8271
11.2325
8.84311
10.3728
31.0167
38.9368
18.3905
10.9575
8.72959
9.54672
30.4726
37.4689
17.6848
10.6663
8.67454
9.54281
29.5786
36.408
17.3919
10.5283
8.69467
9.63825
28.9262
35.6859
17.3712
10.2917
8.86339
10.3637
28.2509
32.9503
11.4499
8.62875
11.78
21.9637
41.1872
32.625
10.9845
9.26156
11.4756
19.3152
40.5008
31.6399
10.0558
9.16167
11.1864
18.4323
39.0681
30.7674
10.0578
9.14232
10.9826
18.4539
38.2426
30.4203
11.0093
9.25798
9.04482
12.2365
35.6437
45.1769
23.665
12.7374
9.70984
11.4664
35.3865
43.464
20.3439
12.177
9.52073
10.4832
33.9248
42.0526
19.7466
11.8507
9.42854
10.5741
32.7896
40.4612
19.5327
11.4768
9.48895
11.3599
31.8383
37.2992
12.6374
9.26115
13.1049
24.8985
45.6979
36.3181
12.3803
9.98998
12.7582
21.7447
45.992
35.4782
10.9566
9.87594
12.3155
20.5856
44.0593
34.5673
10.9709
9.82808
12.1227
20.6124
42.9269
33.8725
12.0643
9.91313
9.74013
13.5503
39.9021
50.5096
26.4338
14.1491
10.4978
12.5859
39.1778
48.43
22.5458
13.3822
10.2899
11.4019
37.3465
46.5979
21.8303
13.018
10.2041
11.633
36.5009
45.4781
21.7519
12.6233
10.265
12.4759
35.8714
42.1817
13.8609
10.0507
14.5923
27.4009
52.6817
40.8374
13.1875
10.9537
14.0731
24.0564
51.2066
39.5276
12.1658
10.8393
13.721
22.9982
49.3011
38.6901
12.2467
10.8365
13.5213
23.1546
48.2886
38.224
13.433
10.9259
10.767
15.0917
45.0036
56.0345
29.7153
15.8596
11.7196
14.4207
43.3954
54.131
25.6421
15.089
11.4648
13.0721
41.8112
52.2597
24.678
14.4135
11.3602
13.9886
40.9609
47.9643
15.2842
11.1593
16.6749
31.732
60.8364
46.3153
14.9473
12.2237
15.8053
26.9483
57.3775
44.2701
13.5548
11.9844
15.3562
25.8953
55.4672
43.4285
13.6753
11.9732
15.0787
26.0553
54.3422
42.7551
14.8918
12.0226
11.9079
16.7819
50.2049
62.1175
33.6031
17.7568
13.0228
16.5172
48.2736
60.8758
29.1853
17.0625
12.8711
14.8564
47.2758
59.1139
28.0301
16.2869
12.746
15.7618
45.8706
54.0426
17.5971
12.5754
18.8912
35.8277
67.7496
52.4533
17.3232
13.7756
18.1229
31.2492
65.7108
50.7665
15.8417
13.5944
17.3082
29.8868
63.1003
49.3428
16.7563
13.4691
13.3725
18.8788
57.7205
71.3133
38.3804
20.1833
14.589
18.7241
54.8761
68.789
33.4623
19.0916
14.2342
17.7694
53.0917
62.1435
19.6981
14.0527
21.2839
40.2555
77.064
58.4347
19.1153
15.2702
20.4826
35.4492
74.1144
57.0318
17.7587
14.95
19.4086
33.7259
71.0207
55.4865
18.6342
14.7032
14.6078
21.1053
64.9818
80.5521
42.7306
22.5086
15.9815
20.5372
62.1072
77.4585
36.9703
21.0533
15.3099
19.2756
59.5636
69.5012
21.3557
15.1473
23.4593
44.8232
85.9351
65.5922
21.1607
16.5181
22.0559
38.9278
82.2195
62.7821
20.4806
15.9368
15.8024
23.045
73.9801
92.2746
48.4489
25.103
17.3508
22.4464
69.8192
87.0292
41.6187
23.4131
16.501
21.2239
66.3078
77.294
23.5823
16.3415
25.8612
49.7558
95.6369
72.714
23.0708
17.8875
24.1298
42.7331
90.4281
69.2719
21.9948
17.0758
16.9689
24.5683
81.1034
100.747
52.3792
27.0596
18.5683
23.4405
74.5036
95.4463
45.493
25.4503
17.676
23.1841
72.848
85.0405
25.5805
17.5314
28.0912
54.6659
104.641
79.6231
25.2724
19.164
26.2957
47.0978
99.5148
76.2243
24.0703
18.4542
18.3418
26.7999
88.7333
109.724
57.2303
29.4006
20.1053
26.3136
83.0759
103.579
48.9143
27.2406
19.0322
24.7948
78.2175
90.4799
26.4531
18.7983
29.8667
59.7287
114.436
86.6934
28.1413
20.2919
20.0533
30.2729
100.362
123.168
64.2622
32.863
22.006
29.2
93.2101
115.629
54.445
30.3738
20.7368
27.1754
87.8826
101.561
30.1938
20.6457
32.8121
65.3057
124.68
94.574
31.033
22.0375
21.601
31.6061
108.48
135.39
69.6349
34.8232
22.8338
32.521
101.736
117.466
34.1795
22.4225
37.6152
74.4312
144.414
107.47
32.8547
24.6076
34.282
62.0599
131.983
99.0914
30.2607
22.9552
22.8504
33.5034
113.813
139.127
73.1243
36.4932
24.2371
34.3743
104.75
119.602
34.5633
23.7596
38.2272
76.3385
149.969
112.286
35.5022
25.042
24.6708
37.5702
129.024
159.011
81.9502
40.486
26.1476
37.4706
117.936
134.084
38.8361
25.7232
41.7746
83.621
163.079
121.475
38.2671
26.8572
26.4976
39.8401
138.587
170.246
85.9651
42.9294
27.384
38.9585
126.138
142.376
46.1426
27.8471
28.0787
50.2712
165.217
200.997
101.445
49.4214
29.7141
43.8813
145.746
163.915
44.3858
28.9844
47.7365
97.5891
195.931
142.758
42.4299
29.1903
29.0669
46.5707
157.734
182.231
51.8108
29.2327
52.8537
112.777
224.481
161.228
46.4946
30.8711
31.1988
53.228
177.807
202.161
57.546
31.4782
56.3407
117.566
240.311
168.127
48.1484
32.3016
32.0838
53.1877
188.929
215.181
58.0205
31.9418
57.3348
123.056
258.787
181.953
50.0554
32.4436
31.2223
48.5245
199.02
219.996
68.7942
33.3575
32.3995
56.1571
247.085
286.949
146.563
63.5183
34.5019
55.6333
200.51
216.675
56.9218
33.5401
33.7448
69.0451
244.057
267.596
61.9714
31.9402
33.82
78.9667
289.936
305.013
75.3421
31.8201
64.4369
157.741
333.474
209.867
55.2336
32.6088
31.045
53.9554
220.422
244.429
65.7426
30.832
30.047
65.1456
262.129
274.92
66.8667
29.5654
29.4304
72.1137
276.336
273.119
75.4886
29.3484
29.3326
78.5078
265.55
252.867
82.3822
29.4701
29.6117
85.362
239.268
225.691
89.12
29.9961
30.3762
92.8446
212.618
200.356
97.7173
31.207
31.884
102.422
189.193
179.129
107.007
33.1951
34.2099
111.429
170.1
162.014
115.728
35.8797
37.2031
119.85
154.772
148.36
123.792
39.1773
41.0453
127.131
142.664
137.649
130.305
43.5633
45.8627
132.986
133.207
129.304
135.618
48.7218
51.1006
138.067
125.862
122.857
140.459
54.0369
56.4697
142.645
120.219
117.936
144.744
59.4557
61.9284
146.618
115.946
114.245
148.405
64.956
67.4771
149.972
112.772
111.525
151.449
70.5447
73.1069
152.696
110.45
109.549
153.852
76.2314
78.8396
154.791
108.781
108.143
155.644
82.0173
84.5731
156.316
107.596
107.151
156.924
87.6354
90.0636
157.353
106.769
106.462
157.722
92.9609
95.207
157.926
106.198
105.99
158.085
97.8886
99.905
158.105
105.815
105.679
158.076
102.34
104.109
157.979
105.559
105.478
157.852
106.295
107.816
157.581
105.398
105.343
157.381
109.743
111.021
156.992
105.298
105.263
156.693
112.692
113.738
156.221
105.239
105.212
155.839
115.166
115.996
155.307
105.194
105.162
154.86
117.193
117.829
154.288
105.139
105.097
153.793
118.808
119.271
153.201
105.066
105.01
152.675
120.056
120.378
152.081
104.969
104.899
151.534
120.985
121.196
150.946
104.849
104.764
150.388
121.643
121.768
149.812
104.705
104.612
149.252
122.07
122.132
148.695
104.547
104.447
148.145
122.314
122.325
147.611
104.375
104.271
147.077
122.394
122.374
146.563
104.193
104.087
146.056
122.378
122.311
145.56
104.003
103.896
145.081
122.286
122.172
144.605
103.81
103.702
144.156
122.111
121.931
143.7
103.615
103.508
143.272
121.846
121.624
142.836
103.422
103.315
142.426
121.522
121.274
142.012
103.228
103.122
141.618
121.164
120.905
141.229
103.038
102.933
140.851
120.792
120.534
140.488
102.851
102.748
140.126
120.416
120.17
139.791
102.668
102.569
139.445
120.051
119.828
139.137
102.492
102.395
138.81
119.709
119.506
138.53
102.322
102.23
138.223
119.397
119.216
137.969
102.162
102.073
137.686
119.118
118.96
137.459
102.011
101.929
137.2
118.875
118.741
136.998
101.873
101.796
136.762
118.67
118.559
136.585
101.748
101.677
136.374
118.503
118.416
136.22
101.635
101.57
136.031
118.374
118.309
135.898
101.536
101.478
135.731
118.282
118.239
135.621
101.45
101.4
135.474
118.225
118.203
135.383
101.379
101.337
135.254
118.202
118.199
135.182
101.321
101.289
135.07
118.212
118.224
135.014
101.279
101.256
134.918
118.247
118.278
134.876
101.25
101.237
134.796
118.308
118.355
134.765
101.235
101.231
134.701
118.392
118.452
134.678
101.234
101.237
134.63
118.495
118.567
134.614
101.245
101.252
134.58
118.614
118.697
134.571
101.269
101.279
134.549
118.749
118.841
134.547
101.303
101.318
134.54
118.897
118.998
134.545
101.348
101.367
134.546
119.057
119.166
134.557
101.402
101.426
134.564
119.228
119.343
134.585
101.465
101.492
134.595
119.406
119.526
134.624
101.535
101.565
134.639
119.591
119.715
134.676
101.612
101.645
134.693
119.781
119.907
134.737
101.696
101.731
134.758
119.974
120.102
134.806
101.784
101.822
134.83
120.169
120.298
134.883
101.878
101.918
134.909
120.365
120.494
134.966
101.976
102.018
134.994
120.56
120.689
135.055
102.078
102.122
135.084
120.754
120.881
135.147
102.184
102.23
135.178
120.945
121.071
135.244
102.293
102.342
135.275
121.134
121.257
135.344
102.406
102.456
135.376
121.318
121.44
135.447
102.522
102.574
135.48
121.5
121.619
135.552
102.64
102.693
135.586
121.677
121.794
135.659
102.76
102.814
135.693
121.85
121.963
135.767
102.882
102.936
135.802
122.018
122.128
135.877
103.005
103.059
135.912
122.181
122.288
135.986
103.128
103.183
136.021
122.339
122.442
136.096
103.252
103.307
136.131
122.491
122.591
136.206
103.376
103.43
136.241
122.637
122.733
136.314
103.499
103.554
136.349
122.778
122.87
136.422
103.622
103.677
136.456
122.912
123
136.528
103.745
103.8
136.562
123.04
123.124
136.633
103.868
103.923
136.666
123.161
123.242
136.736
103.991
104.046
136.769
123.278
123.355
136.839
104.114
104.169
136.871
123.389
123.463
136.94
104.238
104.292
136.972
123.495
123.565
137.04
104.362
104.416
137.071
123.596
123.663
137.137
104.486
104.541
137.168
123.691
123.755
137.234
104.611
104.666
137.265
123.782
123.842
137.329
104.737
104.792
137.36
123.867
123.924
137.424
104.864
104.918
137.454
123.948
124.002
137.518
104.99
105.044
137.548
124.024
124.076
137.611
105.116
105.169
137.641
124.096
124.143
137.704
105.24
105.291
137.733
124.163
124.209
137.796
105.361
105.409
137.824
124.225
124.277
137.891
105.48
105.529
137.92
124.294
124.336
137.979
105.597
105.64
138.008
124.352
124.392
138.077
105.715
105.75
138.095
124.407
124.441
138.155
105.864
105.896
138.171
124.447
124.463
138.232
105.987
106.017
138.252
124.507
124.52
138.108
106.125
106.025
137.83
124.679
124.446
137.413
106.303
106.999
137.217
124.324
124.381
137.596
107.411
116.113
72.1522
43.2325
40.4481
41.383
45.5976
49.1417
54.7669
56.9028
63.8516
67.6796
68.8004
68.9643
68.4379
67.9077
67.6007
67.5028
67.5423
67.6511
67.7863
67.9248
68.0557
68.1742
68.2789
68.3698
68.4478
68.513
68.5666
68.6082
68.6391
68.6596
68.6717
68.6773
68.6843
68.6973
68.7166
68.7419
68.772
68.8068
68.8454
68.8883
68.9357
68.9883
69.0472
69.1135
69.2043
69.3513
69.5686
69.8336
70.1107
70.3773
70.6246
70.8514
71.059
71.2488
71.422
71.5795
71.722
71.8501
71.9648
72.0671
72.1583
72.24
72.3135
72.3803
72.4417
72.4988
72.5526
72.6039
72.6535
72.7021
72.7505
72.7992
72.8487
72.8997
72.9525
73.0077
73.0656
73.1265
73.1908
73.2585
73.3298
73.4048
73.4833
73.5653
73.6506
73.7389
73.8298
73.9231
74.0183
74.1151
74.213
74.3116
74.4105
74.5092
74.6076
74.7051
74.8016
74.8967
74.9903
75.0821
75.1719
75.2597
75.3452
75.4286
75.5096
75.5882
75.6645
75.7385
75.81
75.8793
75.9462
76.011
76.0735
76.1338
76.1921
76.2484
76.3027
76.3551
76.4058
76.4546
76.5018
76.5474
76.5914
76.634
76.6751
76.7149
76.7533
76.7905
76.8266
76.8615
76.8954
76.9282
76.9601
76.991
77.0211
77.0503
77.0787
77.1064
77.1334
77.1597
77.1854
77.2105
77.235
77.259
77.2825
77.3056
77.3282
77.3504
77.3722
77.3937
77.4149
77.4358
77.4564
77.4767
77.4969
77.5169
77.5367
77.5564
77.5759
77.5954
77.6147
77.6341
77.6534
77.6727
77.6921
77.7115
77.7309
77.7505
77.7701
77.79
77.81
77.8301
77.8506
77.8712
77.8922
77.9135
77.9351
77.9571
77.9795
78.0023
78.0256
78.0495
78.074
78.099
78.1248
78.1512
78.1785
78.2065
78.2355
78.2653
78.2962
78.3281
78.361
78.395
78.4301
78.4664
78.5036
78.5414
78.5793
78.6162
78.6509
78.6816
78.7054
78.7213
78.7295
78.7362
78.7429
78.742
78.7407
78.7363
78.7196
78.6764
78.584
78.4306
78.2236
77.9828
77.7259
77.4621
77.1939
76.9202
76.6389
76.3481
76.0465
75.7336
75.4093
75.0736
74.7269
74.3694
74.0012
73.6227
73.234
72.8353
72.427
72.0094
71.5828
71.1476
70.7042
70.253
69.7945
69.3291
68.8573
68.3796
67.8965
67.4085
66.9163
66.4202
65.9209
65.419
64.9149
64.4094
63.9028
63.3959
62.8892
62.3833
61.8787
61.376
60.8759
60.3789
59.8855
59.3964
58.912
58.4329
57.9598
57.493
57.0332
56.581
56.1367
55.7009
55.274
54.8566
54.4491
54.0519
53.6655
53.2901
52.9263
52.5744
52.2349
51.9084
51.595
51.295
51.0079
50.7323
50.4666
50.2094
49.9625
49.7347
49.5442
49.4104
49.3363
49.3024
49.2848
49.2672
49.2225
49.0557
48.1997
46.6679
45.5491
45.1391
43.9826
43.6589
42.5203
42.2619
41.1711
40.9714
39.9201
39.7702
38.7581
38.6504
37.676
37.6036
36.6646
36.622
35.7154
35.6981
34.8226
34.8257
33.9832
33.9998
33.185
33.2136
32.4252
32.4653
31.7031
31.7548
31.0185
31.0808
30.3686
30.44
29.7498
29.829
29.1588
29.2445
28.5926
28.6838
28.0488
28.1446
27.5249
27.6245
27.0191
27.122
26.5298
26.6354
26.0552
26.1629
25.5937
25.7029
25.1439
25.2541
24.7047
24.8156
24.275
24.3864
23.854
23.9655
23.4408
23.5518
23.0343
23.1448
22.6339
22.7435
22.2389
22.3474
21.8487
21.956
21.463
21.5688
21.0813
21.1854
20.7033
20.8056
20.329
20.4295
19.9588
20.0575
19.5933
19.6904
19.2334
19.3293
18.8808
18.9759
18.5374
18.6323
18.2059
18.3017
17.8902
17.9879
17.5935
17.6939
17.3186
17.4228
17.0687
17.1773
16.8445
16.9588
16.6513
16.7741
16.4954
16.6279
16.3748
16.5171
16.2869
16.4384
16.2291
16.3897
16.1998
16.3693
16.1964
16.374