/*--------------------------------*- C++ -*----------------------------------*\
| =========                 |                                                 |
| \\      /  F ield         | OpenFOAM: The Open Source CFD Toolbox           |
|  \\    /   O peration     | Version:  v2006                                 |
|   \\  /    A nd           | Website:  www.openfoam.com                      |
|    \\/     M anipulation  |                                                 |
\*---------------------------------------------------------------------------*/
FoamFile
{
    version     2.0;
    format      ascii;
    class       volScalarField;
    location    "0.079";
    object      turbulenceProperties:L;
}
// * * * * * * * * * * * * * * * * * * * * * * * * * * * * * * * * * * * * * //

dimensions      [0 1 0 0 0 0 0];


internalField   nonuniform List<scalar> 
16277
(
1998.65
1998.65
1999.04
1999.17
1999.54
1999.46
1999.45
1999.26
1998.79
1998.11
1997.36
1996.67
1996.08
1995.58
1995.13
1994.72
1994.32
1993.93
1993.54
1993.17
1992.81
1992.45
1992.11
1991.77
1991.44
1991.12
1990.8
1990.49
1990.19
1989.89
1989.59
1989.31
1989.03
1988.75
1988.49
1988.23
1987.98
1987.74
1987.51
1987.29
1987.08
1986.88
1986.69
1986.52
1986.36
1986.21
1986.07
1985.95
1985.85
1985.76
1985.69
1985.63
1985.59
1985.57
1985.57
1985.58
1985.62
1985.67
1985.75
1985.84
1985.95
1986.06
1986.18
1986.25
1986.18
1985.75
1984.4
1980.76
1971.2
1947.5
1896.7
1794.44
1607.77
1316.39
954.753
611.941
356.49
195.415
103.505
54.2429
28.4342
15.2801
9.13351
7.0147
5.13154
4.27706
3.52435
1.93487
1.11795
0.885963
0.988324
0.374158
0.121352
0.0320748
0.0037253
0.000676234
4.70418e-05
4.51109e-05
0.000325012
0.00146002
0.000819233
0.000221171
4.31574e-05
4.18663e-05
0.000207442
0.000698858
0.000573419
0.000187014
4.15217e-05
4.10403e-05
0.000185002
0.000550565
0.000489888
0.000173553
4.07296e-05
4.03716e-05
0.000173034
0.000482193
0.000449742
0.000166466
4.01594e-05
4.00757e-05
0.000168994
0.000448781
0.000428601
0.000163765
3.99808e-05
3.99174e-05
0.000166281
0.0004288
0.00041356
0.000161754
3.98364e-05
3.97865e-05
0.000164001
0.000414579
0.000401806
0.000159924
3.97153e-05
3.96745e-05
0.000161965
0.000403229
0.000391935
0.000158198
3.96113e-05
3.95762e-05
0.000160129
0.000393602
0.000383336
0.000156562
3.95184e-05
3.94872e-05
0.000158432
0.00038515
0.000375644
0.00015499
3.94332e-05
3.94049e-05
0.000156802
0.000377548
0.00036864
0.000153467
3.93535e-05
3.93271e-05
0.000155237
0.000370605
0.000362204
0.000152004
3.92774e-05
3.92524e-05
0.000153744
0.000364215
0.000356242
0.000150607
3.92039e-05
3.91797e-05
0.000152326
0.000358303
0.000350689
0.000149278
3.91319e-05
3.91083e-05
0.000150978
0.000352807
0.000345518
0.000148014
3.90609e-05
3.90376e-05
0.000149698
0.000347689
0.000340693
0.000146811
3.89903e-05
3.89671e-05
0.000148481
0.000342911
0.000336184
0.000145666
3.89197e-05
3.88965e-05
0.000147327
0.000338444
0.000331963
0.000144581
3.88488e-05
3.88254e-05
0.000146233
0.000334257
0.000327999
0.000143554
3.87773e-05
3.87537e-05
0.000145197
0.000330319
0.00032426
0.000142578
3.8705e-05
3.8681e-05
0.000144214
0.000326599
0.00032072
0.000141651
3.86316e-05
3.86071e-05
0.000143278
0.000323071
0.000317355
0.000140767
3.85568e-05
3.85317e-05
0.000142386
0.000319715
0.000314147
0.000139922
3.84803e-05
3.84545e-05
0.000141533
0.00031651
0.000311076
0.000139112
3.84018e-05
3.83752e-05
0.000140714
0.000313439
0.000308127
0.000138332
3.8321e-05
3.82934e-05
0.000139925
0.000310487
0.000305287
0.000137579
3.82375e-05
3.82088e-05
0.000139164
0.000307641
0.000302544
0.00013685
3.8151e-05
3.8121e-05
0.000138426
0.000304891
0.000299889
0.000136143
3.8061e-05
3.80296e-05
0.000137711
0.000302227
0.000297314
0.000135456
3.79672e-05
3.79342e-05
0.000137016
0.000299644
0.000294816
0.000134787
3.78691e-05
3.78344e-05
0.000136341
0.000297138
0.000292391
0.000134138
3.77664e-05
3.77298e-05
0.000135686
0.000294707
0.00029004
0.000133507
3.76585e-05
3.76199e-05
0.000135056
0.000292352
0.000287763
0.000132899
3.75452e-05
3.75045e-05
0.000134462
0.000290076
0.000285567
0.000132318
3.7426e-05
3.73832e-05
0.000133892
0.000287886
0.000283456
0.00013176
3.73008e-05
3.72558e-05
0.000133352
0.000285784
0.000281435
0.000131234
3.71693e-05
3.71221e-05
0.000132848
0.000283781
0.000279519
0.000130744
3.70314e-05
3.69821e-05
0.000132389
0.000281893
0.000277725
0.000130302
3.68873e-05
3.68361e-05
0.000131986
0.000280139
0.000276076
0.000129918
3.67373e-05
3.66847e-05
0.000131652
0.000278585
0.000274616
0.000129607
3.65821e-05
3.65287e-05
0.000131406
0.000277266
0.000273379
0.00012939
3.64232e-05
3.63699e-05
0.000131266
0.000276186
0.000272397
0.000129285
3.62623e-05
3.62104e-05
0.000131257
0.000275406
0.000271732
0.000129318
3.61021e-05
3.60532e-05
0.000131405
0.000274995
0.000271459
0.000129519
3.59461e-05
3.59025e-05
0.000131743
0.000275032
0.000271659
0.000129925
3.57986e-05
3.57634e-05
0.000132281
0.000275597
0.000272418
0.000130559
3.56662e-05
3.56413e-05
0.000132967
0.000276744
0.000273773
0.000131339
3.55568e-05
3.55426e-05
0.000133827
0.000278613
0.000275848
0.000132314
3.54742e-05
3.54723e-05
0.000134873
0.0002812
0.000278626
0.000133478
3.54268e-05
3.54349e-05
0.000136073
0.000284444
0.000282051
0.000134804
3.54212e-05
3.54331e-05
0.000137376
0.000288222
0.000285977
0.000136178
3.54273e-05
3.54678e-05
0.000138698
0.000292478
0.000290363
0.000137506
3.54742e-05
3.55355e-05
0.000139925
0.000297093
0.00029504
0.000138745
3.5554e-05
3.56318e-05
0.000140947
0.000301677
0.000299589
0.00013977
3.56588e-05
3.57466e-05
0.000141752
0.000305923
0.000303737
0.000140493
3.57794e-05
3.58728e-05
0.000142399
0.000309675
0.000307375
0.000140976
3.59092e-05
3.60057e-05
0.000142804
0.000312843
0.000310433
0.000141282
3.60441e-05
3.61409e-05
0.000143007
0.000315384
0.000312855
0.000141326
3.61792e-05
3.62736e-05
0.000142984
0.000317298
0.00031459
0.000141162
3.63107e-05
3.64007e-05
0.000142758
0.000318569
0.000315614
0.00014082
3.64355e-05
3.65195e-05
0.000142352
0.000319405
0.00031605
0.000140336
3.65513e-05
3.66282e-05
0.000141813
0.000319581
0.000315834
0.000139667
3.66564e-05
3.67255e-05
0.000141166
0.000319113
0.000314766
0.00013881
3.67499e-05
3.68107e-05
0.00014031
0.000317943
0.000313258
0.000137883
3.68311e-05
3.68833e-05
0.000139385
0.000316343
0.000311441
0.000136934
3.68997e-05
3.69435e-05
0.000138438
0.00031442
0.000309373
0.000135999
3.69559e-05
3.69919e-05
0.000137497
0.000312237
0.000307123
0.000135103
3.70006e-05
3.70295e-05
0.000136591
0.000309876
0.000304769
0.000134265
3.70351e-05
3.70577e-05
0.000135739
0.000307417
0.000302367
0.000133494
3.70605e-05
3.70778e-05
0.000134947
0.000304912
0.000299966
0.00013279
3.70782e-05
3.70906e-05
0.000134218
0.000302422
0.000297593
0.000132148
3.70895e-05
3.70981e-05
0.000133548
0.000299997
0.000295299
0.000131562
3.70957e-05
3.71011e-05
0.000132933
0.00029766
0.000293102
0.000131026
3.70976e-05
3.71011e-05
0.00013237
0.000295442
0.000291
0.00013052
3.70961e-05
3.70984e-05
0.00013185
0.00029333
0.000288991
0.000130031
3.70911e-05
3.70929e-05
0.000131367
0.000291314
0.000287073
0.000129581
3.70841e-05
3.70855e-05
0.000130921
0.000289387
0.000285242
0.000129165
3.70756e-05
3.70767e-05
0.000130507
0.000287549
0.000283489
0.000128772
3.70658e-05
3.70667e-05
0.000130112
0.000285788
0.000281783
0.000128392
3.70551e-05
3.70558e-05
0.000129728
0.00028408
0.00028011
0.000128021
3.70435e-05
3.70441e-05
0.000129348
0.000282426
0.000278496
0.000127647
3.70313e-05
3.70317e-05
0.00012897
0.000280821
0.000276949
0.000127294
3.70185e-05
3.70188e-05
0.000128614
0.000279285
0.000275455
0.000126942
3.6997e-05
3.70132e-05
0.000128278
0.000277826
0.000273824
0.000126585
3.69764e-05
3.69998e-05
0.00012781
0.000276471
0.000272609
0.000125909
3.69322e-05
3.71173e-05
0.000128112
0.000276663
0.000274175
0.000128009
3.72236e-05
3.77423e-05
0.000128384
0.000277345
0.000290696
0.000134781
3.8447e-05
4.11149e-05
0.000127567
0.000283223
0.000420885
0.000235621
4.70798e-05
4.18583e-05
9.89317e-05
0.000220302
0.000497178
0.00104748
0.00181643
0.00244926
0.00284781
0.00358551
0.00402907
0.00441527
0.00461621
0.00469696
0.00464211
0.00443597
0.00416162
0.00372756
0.00331055
0.00266393
0.0023793
0.0018149
0.00142326
0.00102166
0.000619181
0.000299931
0.000116333
5.02836e-05
1.28766e-05
1.18247e-05
4.63356e-05
0.000105572
9.96935e-05
4.38224e-05
1.1011e-05
1.04009e-05
4.19816e-05
9.45738e-05
9.47328e-05
4.16784e-05
1.02039e-05
1.00858e-05
4.1395e-05
9.317e-05
9.30798e-05
4.09977e-05
9.96404e-06
9.95365e-06
4.09216e-05
9.28413e-05
9.30374e-05
4.09517e-05
9.96319e-06
9.96205e-06
4.09578e-05
9.31237e-05
9.32062e-05
4.09827e-05
9.97364e-06
9.97889e-06
4.10076e-05
9.33564e-05
9.34277e-05
4.10292e-05
9.9849e-06
9.99698e-06
4.10661e-05
9.35936e-05
9.36913e-05
4.10845e-05
9.99173e-06
1.00044e-05
4.11334e-05
9.38587e-05
9.396e-05
4.11544e-05
1.00106e-05
1.00238e-05
4.11997e-05
9.41422e-05
9.42277e-05
4.12193e-05
1.00246e-05
1.00264e-05
4.1278e-05
9.44145e-05
9.44999e-05
4.12929e-05
1.00445e-05
1.00463e-05
4.13456e-05
9.47038e-05
9.48104e-05
4.13682e-05
1.00537e-05
1.00558e-05
4.14369e-05
9.50179e-05
9.51069e-05
4.14533e-05
1.00745e-05
1.0076e-05
4.15022e-05
9.53018e-05
9.53968e-05
4.15221e-05
1.00837e-05
1.00856e-05
4.1588e-05
9.56108e-05
9.57075e-05
4.16091e-05
1.01047e-05
1.01068e-05
4.16669e-05
9.59188e-05
9.60163e-05
4.1688e-05
1.01147e-05
1.01168e-05
4.17553e-05
9.62347e-05
9.63335e-05
4.17777e-05
1.01362e-05
1.01385e-05
4.18369e-05
9.65519e-05
9.66538e-05
4.18612e-05
1.01467e-05
1.01491e-05
4.19306e-05
9.68754e-05
9.69735e-05
4.1955e-05
1.01631e-05
1.01771e-05
4.2009e-05
9.71858e-05
9.72842e-05
4.20408e-05
1.01793e-05
1.01823e-05
4.21064e-05
9.75138e-05
9.76316e-05
4.21383e-05
1.01963e-05
1.02113e-05
4.22018e-05
9.78677e-05
9.79704e-05
4.22352e-05
1.02138e-05
1.0217e-05
4.23006e-05
9.81746e-05
9.82648e-05
4.23202e-05
1.02305e-05
1.02451e-05
4.23787e-05
9.84879e-05
9.8596e-05
4.24125e-05
1.02475e-05
1.02512e-05
4.24858e-05
9.88203e-05
9.89195e-05
4.25138e-05
1.02653e-05
1.02802e-05
4.25755e-05
9.91409e-05
9.92429e-05
4.26032e-05
1.02826e-05
1.02863e-05
4.26747e-05
9.94595e-05
9.95535e-05
4.27012e-05
1.03004e-05
1.03152e-05
4.27602e-05
9.97482e-05
9.98187e-05
4.27688e-05
1.03171e-05
1.03202e-05
4.28333e-05
0.000100011
0.000100095
4.28514e-05
1.03339e-05
1.03489e-05
4.29134e-05
0.00010029
0.000100366
4.29262e-05
1.03511e-05
1.03541e-05
4.29887e-05
0.00010055
0.000100621
4.29936e-05
1.03675e-05
1.0382e-05
4.30436e-05
0.000100798
0.000100842
4.30427e-05
1.03833e-05
1.03852e-05
4.30861e-05
0.000100985
0.000100991
4.30654e-05
1.04027e-05
1.04033e-05
4.30763e-05
0.000101099
0.000101136
4.30618e-05
1.04095e-05
1.04099e-05
4.3075e-05
0.000101239
0.000101242
4.3035e-05
1.04271e-05
1.04266e-05
4.3015e-05
0.000101307
0.000101298
4.29605e-05
1.04317e-05
1.04302e-05
4.29208e-05
0.000101327
0.000101281
4.28279e-05
1.04399e-05
1.04491e-05
4.27471e-05
0.000101273
0.000101207
4.26337e-05
1.04471e-05
1.04448e-05
4.25334e-05
0.000101186
0.000101055
4.23794e-05
1.04542e-05
1.04638e-05
4.22328e-05
0.00010102
0.000100868
4.20418e-05
1.04626e-05
1.04633e-05
4.18866e-05
0.000100892
0.00010071
4.16583e-05
1.04817e-05
1.04849e-05
4.14535e-05
0.000100717
0.000100501
4.11816e-05
1.04955e-05
1.05035e-05
4.09509e-05
0.000100537
0.000100335
4.0649e-05
1.05256e-05
1.05533e-05
4.03982e-05
0.000100443
0.000100339
4.00926e-05
1.0574e-05
1.06087e-05
3.98505e-05
0.000100633
0.000100707
3.95654e-05
1.06491e-05
1.06998e-05
3.93206e-05
0.000101077
0.000101202
3.90145e-05
1.07562e-05
1.08237e-05
3.87607e-05
0.000101746
0.000102497
3.85676e-05
1.09048e-05
1.09984e-05
3.86208e-05
0.000103794
0.000105457
3.92583e-05
1.11779e-05
1.13519e-05
3.97977e-05
0.000106837
0.000107723
3.99618e-05
1.13308e-05
1.14705e-05
3.94806e-05
0.000108962
0.000110756
4.17004e-05
1.17303e-05
1.18777e-05
4.08831e-05
0.00011158
0.000112687
4.20008e-05
1.21525e-05
1.23998e-05
4.25707e-05
0.000114318
0.000114739
4.34824e-05
1.27569e-05
1.32289e-05
4.55064e-05
0.000117012
0.000116898
4.6531e-05
1.36257e-05
1.39352e-05
4.76181e-05
0.000117658
0.000117196
4.83027e-05
1.45918e-05
1.5743e-05
5.37634e-05
0.000119083
0.000117562
5.56773e-05
1.08427e-05
6.21028e-06
1.62472e-05
4.1736e-05
9.99561e-05
3.59418e-05
8.35995e-06
9.22163e-06
3.20915e-05
9.24266e-05
9.65876e-05
3.36685e-05
9.4414e-06
9.62419e-06
3.22017e-05
9.28781e-05
9.85128e-05
3.45923e-05
1.00259e-05
1.04984e-05
3.42313e-05
9.72636e-05
0.000104523
3.84184e-05
1.10905e-05
1.17176e-05
3.80025e-05
0.000102325
0.000108171
4.27638e-05
1.24623e-05
1.33604e-05
4.31818e-05
0.000107511
0.000114375
4.91826e-05
1.48738e-05
1.05393e-05
5.31299e-05
0.000115268
4.09604e-05
1.56038e-05
6.48959e-06
9.02747e-06
3.78834e-05
0.000104946
0.000101754
3.52525e-05
1.06556e-05
1.18285e-05
4.4285e-05
0.000118821
0.000119321
4.41404e-05
1.26707e-05
1.37077e-05
4.9441e-05
0.000127557
0.000129259
5.19502e-05
1.48549e-05
1.644e-05
5.88889e-05
0.00013566
0.000130945
6.11485e-05
1.16356e-05
7.0071e-06
1.74019e-05
4.71252e-05
0.000114755
4.24855e-05
9.64914e-06
1.1092e-05
3.95736e-05
0.000111296
0.000121708
4.63556e-05
1.20075e-05
1.30492e-05
4.55684e-05
0.000118802
0.000126853
5.34146e-05
1.48466e-05
1.07809e-05
5.93595e-05
0.000125857
4.57692e-05
1.72441e-05
6.69443e-06
9.62044e-06
4.16183e-05
0.000117436
0.000118038
4.24916e-05
1.17551e-05
1.38883e-05
5.46149e-05
0.000140703
0.000143427
6.08195e-05
1.59239e-05
1.15344e-05
6.61507e-05
0.000141114
5.19406e-05
1.86859e-05
6.8871e-06
9.91111e-06
4.91805e-05
0.000128571
0.000125714
4.64569e-05
1.21646e-05
1.45931e-05
6.09153e-05
0.0001467
0.000145789
6.73935e-05
1.08674e-05
6.7423e-06
1.94507e-05
5.64103e-05
0.000146125
5.49126e-05
1.04281e-05
1.36775e-05
5.5506e-05
0.000152009
0.000193106
8.1081e-05
1.68816e-05
1.27933e-05
8.32387e-05
0.000182796
7.66803e-05
2.58743e-05
8.22359e-06
1.35051e-05
7.84849e-05
0.000190348
0.000186387
8.00634e-05
1.12145e-05
7.71759e-06
2.61192e-05
8.34189e-05
0.000236836
9.07142e-05
1.40469e-05
1.24402e-05
9.88651e-05
0.00024917
0.000119979
4.20319e-05
9.66765e-06
1.10669e-05
0.000100662
0.000272858
0.000186735
7.29892e-05
1.01019e-05
1.36144e-05
0.000107823
0.000319906
0.00026617
9.03161e-05
1.12646e-05
1.11417e-05
8.6951e-05
0.000256867
0.000280045
9.68428e-05
1.30471e-05
1.7071e-05
0.000171696
0.000472452
0.000104834
3.92161e-05
1.41118e-05
1.31158e-05
9.56292e-05
0.00020342
7.4886e-05
3.15534e-05
1.21624e-05
1.35123e-05
6.92447e-05
0.000148293
0.000133099
5.60844e-05
1.47561e-05
8.17719e-06
1.94878e-05
4.86052e-05
9.92415e-05
6.45238e-05
9.90975e-06
1.05093e-05
2.47233e-05
5.46353e-05
0.000115742
5.83042e-05
1.28428e-05
1.47647e-05
5.1349e-05
0.000109547
4.60265e-05
1.97656e-05
8.93446e-06
1.17271e-05
5.31113e-05
0.000100717
9.67026e-05
4.72657e-05
1.39845e-05
8.55037e-06
1.83573e-05
4.18876e-05
9.3458e-05
4.95737e-05
1.12553e-05
1.3629e-05
4.54893e-05
9.03241e-05
3.99868e-05
1.8085e-05
8.51191e-06
1.11007e-05
4.73508e-05
8.87768e-05
8.50268e-05
4.36623e-05
1.34801e-05
8.43795e-06
1.73627e-05
3.81396e-05
8.40939e-05
4.51756e-05
1.09724e-05
1.34496e-05
4.13222e-05
8.04716e-05
3.645e-05
1.69835e-05
8.5059e-06
1.11036e-05
4.40601e-05
8.02665e-05
7.61127e-05
4.01507e-05
1.35262e-05
8.49116e-06
1.65836e-05
3.5191e-05
7.71728e-05
4.26181e-05
1.10435e-05
1.36927e-05
3.93186e-05
7.39314e-05
3.54677e-05
1.70435e-05
8.84802e-06
1.16404e-05
4.45725e-05
7.80717e-05
7.15377e-05
3.77478e-05
1.50555e-05
1.11218e-05
3.15303e-05
6.2761e-05
2.84862e-05
1.34435e-05
7.12394e-06
9.12107e-06
3.36262e-05
6.13011e-05
6.05353e-05
3.19762e-05
1.15739e-05
7.30357e-06
1.34163e-05
2.89003e-05
5.94815e-05
3.3752e-05
9.30821e-06
1.17795e-05
3.14412e-05
5.74001e-05
2.75805e-05
1.37763e-05
7.41698e-06
9.25641e-06
3.2545e-05
5.58704e-05
5.48487e-05
3.09765e-05
1.16606e-05
7.37538e-06
1.31742e-05
2.72503e-05
5.47741e-05
3.21236e-05
9.33989e-06
1.17898e-05
3.04332e-05
5.31912e-05
2.67952e-05
1.29586e-05
7.30157e-06
9.17304e-06
3.09017e-05
5.26107e-05
5.18327e-05
3.01893e-05
1.17735e-05
7.45825e-06
1.30313e-05
2.57606e-05
5.11621e-05
3.05605e-05
9.22198e-06
1.17194e-05
2.8669e-05
4.9612e-05
2.50218e-05
1.29214e-05
7.31245e-06
8.86361e-06
2.91674e-05
4.79122e-05
4.72351e-05
2.73994e-05
1.12141e-05
6.91739e-06
1.19583e-05
2.31034e-05
4.26696e-05
3.33317e-05
7.94581e-06
9.36878e-06
1.5014e-05
2.68515e-05
5.44003e-05
3.30913e-05
1.11861e-05
1.36015e-05
3.09379e-05
5.20791e-05
2.71266e-05
1.43395e-05
8.42281e-06
1.02531e-05
3.21778e-05
5.17124e-05
5.00829e-05
3.00271e-05
1.30258e-05
8.29848e-06
1.42511e-05
2.65716e-05
5.12163e-05
3.1968e-05
1.01846e-05
1.2856e-05
3.01835e-05
4.98992e-05
2.6081e-05
1.40198e-05
8.11619e-06
9.83842e-06
3.05841e-05
4.82103e-05
4.67748e-05
2.80453e-05
1.25321e-05
7.89166e-06
1.3574e-05
2.47408e-05
4.59935e-05
2.9015e-05
9.41647e-06
1.18112e-05
2.69161e-05
4.42386e-05
2.23439e-05
1.24927e-05
7.19224e-06
8.06467e-06
3.11297e-05
3.90374e-05
2.48169e-05
1.48503e-05
9.44161e-06
1.09436e-05
2.89512e-05
4.65662e-05
4.41249e-05
2.69941e-05
1.32869e-05
8.16674e-06
1.39446e-05
2.40462e-05
4.34986e-05
2.81507e-05
9.6748e-06
1.21977e-05
2.63558e-05
4.13543e-05
2.19773e-05
1.295e-05
7.57476e-06
8.34056e-06
2.97143e-05
3.73091e-05
2.42418e-05
1.49726e-05
9.78358e-06
1.13058e-05
2.86925e-05
4.47128e-05
4.20268e-05
2.63862e-05
1.35918e-05
8.32593e-06
1.39882e-05
2.34192e-05
4.21513e-05
2.76184e-05
9.87522e-06
1.2329e-05
2.53042e-05
4.00056e-05
2.1343e-05
1.28533e-05
7.53854e-06
8.31199e-06
2.83682e-05
3.54191e-05
2.32313e-05
1.46873e-05
9.7397e-06
1.10652e-05
2.72493e-05
4.23787e-05
3.97561e-05
2.51623e-05
1.32876e-05
8.15892e-06
1.37669e-05
2.22252e-05
3.91989e-05
2.59344e-05
9.7645e-06
1.21202e-05
2.37804e-05
3.72778e-05
2.02518e-05
1.20732e-05
7.2838e-06
8.1285e-06
2.56356e-05
3.30333e-05
2.20139e-05
1.43293e-05
9.57633e-06
1.08825e-05
2.61119e-05
3.93777e-05
3.66278e-05
2.32459e-05
1.296e-05
7.62219e-06
1.27149e-05
2.00475e-05
3.24576e-05
2.66563e-05
8.2508e-06
9.61605e-06
1.45011e-05
2.18261e-05
3.88895e-05
2.50823e-05
1.08706e-05
1.32279e-05
2.31542e-05
3.63613e-05
2.0182e-05
1.27681e-05
7.89781e-06
8.51237e-06
2.54689e-05
3.2294e-05
2.19989e-05
1.47601e-05
9.88444e-06
1.10087e-05
2.5604e-05
3.86735e-05
3.59546e-05
2.30445e-05
1.32666e-05
7.79673e-06
1.25798e-05
1.99205e-05
3.18501e-05
2.56661e-05
8.31843e-06
9.79876e-06
1.46344e-05
2.16685e-05
3.79123e-05
2.49849e-05
1.10538e-05
1.32578e-05
2.26478e-05
3.53644e-05
1.97684e-05
1.2991e-05
7.9395e-06
8.51309e-06
2.6052e-05
3.12718e-05
2.14757e-05
1.48127e-05
9.84926e-06
1.08911e-05
2.44291e-05
3.72523e-05
3.45942e-05
2.22362e-05
1.29312e-05
7.62098e-06
1.23441e-05
1.92634e-05
3.00064e-05
2.45969e-05
8.13623e-06
9.24406e-06
1.4357e-05
2.08201e-05
3.29271e-05
2.55149e-05
9.55025e-06
1.09021e-05
1.53526e-05
2.24641e-05
3.78843e-05
2.45737e-05
1.18161e-05
1.37461e-05
2.23605e-05
3.50248e-05
1.97831e-05
1.29721e-05
8.05135e-06
8.57182e-06
2.5507e-05
3.08111e-05
2.13137e-05
1.50027e-05
1.00346e-05
1.10666e-05
2.40573e-05
3.63155e-05
3.38179e-05
2.18436e-05
1.30861e-05
7.6474e-06
1.23716e-05
1.90429e-05
2.94115e-05
2.40219e-05
8.1947e-06
9.35108e-06
1.4383e-05
2.06585e-05
3.21893e-05
2.51277e-05
9.62073e-06
1.07265e-05
1.54378e-05
2.2177e-05
3.70874e-05
2.40188e-05
1.16128e-05
1.37224e-05
2.20588e-05
3.42419e-05
1.94345e-05
1.31044e-05
8.13958e-06
8.48689e-06
2.57982e-05
2.99089e-05
2.1154e-05
1.51257e-05
9.74406e-06
9.91058e-06
2.51802e-05
3.26477e-05
2.25262e-05
1.58051e-05
1.10657e-05
1.18701e-05
2.41583e-05
3.7242e-05
3.43508e-05
2.19512e-05
1.38833e-05
8.15942e-06
1.30816e-05
1.96252e-05
2.98781e-05
2.51719e-05
8.50575e-06
9.69661e-06
1.49859e-05
2.11629e-05
3.24214e-05
2.5496e-05
9.95135e-06
1.1142e-05
1.58717e-05
2.25255e-05
3.71191e-05
2.4214e-05
1.20536e-05
1.40827e-05
2.21631e-05
3.42423e-05
1.97435e-05
1.3448e-05
8.38959e-06
8.80626e-06
2.57084e-05
3.00244e-05
2.1388e-05
1.53639e-05
1.00301e-05
1.01698e-05
2.53505e-05
3.25498e-05
2.2666e-05
1.59657e-05
1.11551e-05
1.18372e-05
2.4069e-05
3.69065e-05
3.39999e-05
2.19516e-05
1.371e-05
8.12687e-06
1.32114e-05
1.93662e-05
2.9154e-05
2.57828e-05
8.44664e-06
9.57735e-06
1.49035e-05
2.06827e-05
3.13676e-05
2.46028e-05
9.87226e-06
1.09246e-05
1.55033e-05
2.18689e-05
3.54535e-05
2.33505e-05
1.17779e-05
1.37982e-05
2.14828e-05
3.28289e-05
1.90853e-05
1.32005e-05
8.26688e-06
8.58705e-06
2.53028e-05
2.87425e-05
2.05115e-05
1.47486e-05
9.59087e-06
9.7191e-06
2.39945e-05
3.08309e-05
2.17768e-05
1.54187e-05
1.06837e-05
1.05065e-05
2.48002e-05
3.21643e-05
2.26837e-05
1.64268e-05
1.15972e-05
1.2383e-05
2.40579e-05
3.61236e-05
3.31613e-05
2.18855e-05
1.42341e-05
8.283e-06
1.31018e-05
1.93265e-05
2.88599e-05
2.43151e-05
8.57152e-06
9.6531e-06
1.47906e-05
2.07026e-05
3.06276e-05
2.4384e-05
9.79664e-06
1.06548e-05
1.5408e-05
2.18145e-05
3.18302e-05
2.45577e-05
1.05642e-05
1.16343e-05
1.63523e-05
2.25815e-05
3.56276e-05
2.38159e-05
1.22823e-05
1.42258e-05
2.19161e-05
3.28764e-05
1.94063e-05
1.35443e-05
8.51412e-06
8.74075e-06
2.56305e-05
2.87239e-05
2.07668e-05
1.50961e-05
9.85142e-06
1.00289e-05
2.39557e-05
3.08038e-05
2.19773e-05
1.57001e-05
1.09605e-05
1.08682e-05
2.49406e-05
3.19852e-05
2.28341e-05
1.66324e-05
1.18881e-05
1.25359e-05
2.40623e-05
3.57704e-05
3.29208e-05
2.20557e-05
1.43981e-05
8.55128e-06
1.35904e-05
1.95517e-05
2.8688e-05
2.55775e-05
8.75e-06
9.82251e-06
1.5087e-05
2.07609e-05
3.03275e-05
2.38606e-05
9.84033e-06
1.068e-05
1.53484e-05
2.16327e-05
3.12042e-05
2.42754e-05
1.05792e-05
1.16668e-05
1.63048e-05
2.24234e-05
3.47358e-05
2.34259e-05
1.23852e-05
1.4243e-05
2.15496e-05
3.22612e-05
1.92575e-05
1.32407e-05
8.42869e-06
8.87411e-06
2.36929e-05
2.81005e-05
2.06758e-05
1.50079e-05
9.95675e-06
1.00067e-05
2.46116e-05
3.01522e-05
2.1646e-05
1.54927e-05
1.07626e-05
1.03785e-05
2.38883e-05
3.09209e-05
2.22879e-05
1.59915e-05
1.12243e-05
1.10839e-05
2.49632e-05
3.16757e-05
2.28075e-05
1.68852e-05
1.204e-05
1.25355e-05
2.38393e-05
3.50583e-05
3.2404e-05
2.18855e-05
1.43106e-05
8.48654e-06
1.34848e-05
1.94478e-05
2.79625e-05
2.52526e-05
8.71679e-06
9.8207e-06
1.49274e-05
2.04622e-05
2.93823e-05
2.32612e-05
1.00001e-05
1.08215e-05
1.53392e-05
2.13698e-05
3.02456e-05
2.36898e-05
1.05175e-05
1.13447e-05
1.598e-05
2.20468e-05
3.1288e-05
2.46373e-05
1.11283e-05
1.20898e-05
1.68763e-05
2.27572e-05
3.49365e-05
2.39211e-05
1.27602e-05
1.47247e-05
2.21754e-05
3.2436e-05
1.98002e-05
1.39668e-05
8.88187e-06
9.19688e-06
2.55643e-05
2.83619e-05
2.08394e-05
1.53365e-05
1.02233e-05
1.0159e-05
2.38998e-05
3.01134e-05
2.18407e-05
1.57169e-05
1.10522e-05
1.08502e-05
2.43152e-05
3.08975e-05
2.24599e-05
1.63107e-05
1.16117e-05
1.13023e-05
2.50591e-05
3.16815e-05
2.30945e-05
1.7202e-05
1.23252e-05
1.29587e-05
2.41182e-05
3.49851e-05
3.24475e-05
2.21649e-05
1.47084e-05
8.8535e-06
1.39521e-05
1.98978e-05
2.81057e-05
2.52701e-05
9.1468e-06
1.01255e-05
1.53341e-05
2.08982e-05
2.95621e-05
2.36126e-05
1.00922e-05
1.09188e-05
1.55774e-05
2.16977e-05
3.02006e-05
2.38065e-05
1.0712e-05
1.15225e-05
1.61759e-05
2.22294e-05
3.11021e-05
2.46708e-05
1.14662e-05
1.24108e-05
1.71387e-05
2.2824e-05
3.4357e-05
2.40522e-05
1.30876e-05
1.49732e-05
2.22495e-05
3.21293e-05
1.99615e-05
1.41186e-05
9.00935e-06
9.29751e-06
2.53606e-05
2.82112e-05
2.09883e-05
1.54898e-05
1.03063e-05
1.03411e-05
2.38665e-05
2.97615e-05
2.19742e-05
1.59009e-05
1.12172e-05
1.09604e-05
2.41885e-05
3.05967e-05
2.25548e-05
1.64243e-05
1.17037e-05
1.15002e-05
2.49482e-05
3.12905e-05
2.30017e-05
1.71873e-05
1.23981e-05
1.29738e-05
2.392e-05
3.43306e-05
3.19606e-05
2.20328e-05
1.47488e-05
8.8564e-06
1.3965e-05
1.98038e-05
2.75574e-05
2.52372e-05
9.18761e-06
1.01572e-05
1.52571e-05
2.06701e-05
2.87221e-05
2.30542e-05
1.02277e-05
1.11167e-05
1.56254e-05
2.14546e-05
2.94444e-05
2.35181e-05
1.0839e-05
1.15346e-05
1.61316e-05
2.19894e-05
3.01796e-05
2.4158e-05
1.12686e-05
1.19735e-05
1.66924e-05
2.25823e-05
3.11587e-05
2.50941e-05
1.1725e-05
1.27024e-05
1.75244e-05
2.31879e-05
3.4573e-05
2.4332e-05
1.35108e-05
1.54282e-05
2.25421e-05
3.23627e-05
2.03156e-05
1.44106e-05
9.32451e-06
9.69302e-06
2.50867e-05
2.84009e-05
2.14828e-05
1.59746e-05
1.08014e-05
1.08834e-05
2.46029e-05
3.00405e-05
2.24104e-05
1.64176e-05
1.1695e-05
1.14841e-05
2.46736e-05
3.08755e-05
2.30392e-05
1.6927e-05
1.22102e-05
1.1969e-05
2.54245e-05
3.18028e-05
2.36976e-05
1.78582e-05
1.29853e-05
1.369e-05
2.46689e-05
3.48978e-05
3.24701e-05
2.27553e-05
1.55087e-05
9.38738e-06
1.45882e-05
2.04388e-05
2.83395e-05
2.54761e-05
9.74326e-06
1.07988e-05
1.59851e-05
2.15383e-05
2.95419e-05
2.42168e-05
1.0751e-05
1.15377e-05
1.62358e-05
2.22484e-05
3.00722e-05
2.42416e-05
1.14242e-05
1.21195e-05
1.67703e-05
2.27148e-05
3.08233e-05
2.48819e-05
1.19044e-05
1.28696e-05
1.76179e-05
2.32168e-05
3.3928e-05
2.41766e-05
1.37092e-05
1.56651e-05
2.25173e-05
3.18261e-05
2.03251e-05
1.45207e-05
9.49177e-06
9.847e-06
2.47986e-05
2.80243e-05
2.15204e-05
1.61206e-05
1.10087e-05
1.11193e-05
2.4598e-05
2.96075e-05
2.24599e-05
1.65835e-05
1.19069e-05
1.16461e-05
2.45511e-05
3.03862e-05
2.30169e-05
1.71138e-05
1.24028e-05
1.22821e-05
2.52184e-05
3.13185e-05
2.37006e-05
1.80407e-05
1.32516e-05
1.39709e-05
2.46426e-05
3.43666e-05
3.20533e-05
2.28121e-05
1.57907e-05
9.61981e-06
1.47951e-05
2.05963e-05
2.8241e-05
2.55084e-05
9.91266e-06
1.09156e-05
1.61138e-05
2.16235e-05
2.93373e-05
2.42407e-05
1.10355e-05
1.18475e-05
1.64453e-05
2.23515e-05
2.98839e-05
2.42858e-05
1.16723e-05
1.2453e-05
1.70596e-05
2.28555e-05
3.06706e-05
2.49094e-05
1.22726e-05
1.33077e-05
1.80078e-05
2.34298e-05
3.37479e-05
2.44484e-05
1.42126e-05
1.61012e-05
2.2881e-05
3.17463e-05
2.08359e-05
1.51655e-05
9.94717e-06
1.03557e-05
2.54806e-05
2.84085e-05
2.19613e-05
1.66306e-05
1.13376e-05
1.14741e-05
2.51739e-05
2.99427e-05
2.28964e-05
1.71207e-05
1.22974e-05
1.20947e-05
2.52051e-05
3.08463e-05
2.34023e-05
1.77968e-05
1.31026e-05
1.39155e-05
2.40582e-05
3.35846e-05
3.14028e-05
2.24613e-05
1.57361e-05
9.66359e-06
1.4803e-05
2.04017e-05
2.75616e-05
2.50725e-05
1.00563e-05
1.10564e-05
1.62721e-05
2.14641e-05
2.88218e-05
2.43123e-05
1.12163e-05
1.20356e-05
1.66512e-05
2.2272e-05
2.97121e-05
2.42828e-05
1.20726e-05
1.31258e-05
1.76142e-05
2.28894e-05
3.25155e-05
2.37196e-05
1.39464e-05
1.58418e-05
2.22766e-05
3.06832e-05
2.03027e-05
1.47196e-05
9.77164e-06
1.0146e-05
2.43306e-05
2.72842e-05
2.14911e-05
1.63189e-05
1.12172e-05
1.14237e-05
2.45309e-05
2.90019e-05
2.24409e-05
1.69385e-05
1.22995e-05
1.21972e-05
2.45014e-05
2.98962e-05
2.2986e-05
1.76321e-05
1.30902e-05
1.38779e-05
2.36679e-05
3.24844e-05
3.0542e-05
2.22089e-05
1.57785e-05
9.71138e-06
1.47954e-05
2.03237e-05
2.70682e-05
2.48744e-05
1.01077e-05
1.11696e-05
1.63384e-05
2.13115e-05
2.83142e-05
2.4108e-05
1.14175e-05
1.22396e-05
1.67725e-05
2.21585e-05
2.93316e-05
2.4044e-05
1.2255e-05
1.33015e-05
1.77643e-05
2.28634e-05
3.21748e-05
2.37226e-05
1.41818e-05
1.60279e-05
2.24395e-05
3.04571e-05
2.0534e-05
1.52191e-05
9.9865e-06
1.04849e-05
2.51145e-05
2.74469e-05
2.16285e-05
1.67175e-05
1.15441e-05
1.17561e-05
2.46024e-05
2.8997e-05
2.26728e-05
1.73018e-05
1.26274e-05
1.27054e-05
2.46783e-05
3.00689e-05
2.33936e-05
1.82138e-05
1.36574e-05
1.44659e-05
2.41808e-05
3.27816e-05
3.09601e-05
2.27928e-05
1.63098e-05
1.01931e-05
1.53783e-05
2.09282e-05
2.77268e-05
2.5223e-05
1.06842e-05
1.17096e-05
1.69954e-05
2.2005e-05
2.93096e-05
2.48041e-05
1.21081e-05
1.3272e-05
1.79249e-05
2.30363e-05
3.21555e-05
2.38303e-05
1.43603e-05
1.6229e-05
2.26706e-05
3.05206e-05
2.063e-05
1.52876e-05
1.02116e-05
1.07707e-05
2.5052e-05
2.74995e-05
2.18845e-05
1.70556e-05
1.18553e-05
1.21302e-05
2.48812e-05
2.91173e-05
2.29671e-05
1.76905e-05
1.3009e-05
1.31901e-05
2.49289e-05
3.04171e-05
2.39259e-05
1.875e-05
1.41812e-05
1.5209e-05
2.49038e-05
3.3363e-05
3.14852e-05
2.35238e-05
1.71376e-05
1.08015e-05
1.6023e-05
2.1621e-05
2.84775e-05
2.57044e-05
1.12389e-05
1.2354e-05
1.76879e-05
2.28476e-05
3.02847e-05
2.55566e-05
1.28205e-05
1.39134e-05
1.873e-05
2.3927e-05
3.32766e-05
2.48404e-05
1.49518e-05
1.70201e-05
2.35974e-05
3.16781e-05
2.18467e-05
1.62873e-05
1.10582e-05
1.16385e-05
2.5778e-05
2.87414e-05
2.30504e-05
1.80501e-05
1.26776e-05
1.3203e-05
2.58562e-05
3.07197e-05
2.4361e-05
1.9216e-05
1.43436e-05
1.55848e-05
2.53504e-05
3.38192e-05
3.20757e-05
2.40289e-05
1.7567e-05
1.12371e-05
1.65179e-05
2.22227e-05
2.93538e-05
2.60724e-05
1.18798e-05
1.32404e-05
1.85797e-05
2.35459e-05
3.27969e-05
2.50025e-05
1.4706e-05
1.67539e-05
2.37497e-05
3.14341e-05
2.17536e-05
1.60476e-05
1.06964e-05
1.13349e-05
2.60721e-05
2.86044e-05
2.28382e-05
1.76764e-05
1.24687e-05
1.30292e-05
2.52269e-05
3.02017e-05
2.39832e-05
1.88463e-05
1.41979e-05
1.5411e-05
2.47764e-05
3.30559e-05
3.15702e-05
2.36197e-05
1.73525e-05
1.12019e-05
1.64783e-05
2.20974e-05
2.89765e-05
2.57151e-05
1.19903e-05
1.33237e-05
1.8703e-05
2.34428e-05
3.23952e-05
2.50411e-05
1.49337e-05
1.70166e-05
2.38841e-05
3.11589e-05
2.19983e-05
1.64032e-05
1.1114e-05
1.18666e-05
2.57594e-05
2.8753e-05
2.31435e-05
1.84367e-05
1.3078e-05
1.4437e-05
2.44301e-05
3.20038e-05
3.08059e-05
2.32563e-05
1.6536e-05
1.08045e-05
1.5884e-05
2.14783e-05
2.81988e-05
2.49411e-05
1.17728e-05
1.31051e-05
1.81932e-05
2.28659e-05
3.15672e-05
2.44057e-05
1.46996e-05
1.68304e-05
2.33796e-05
3.04495e-05
2.16321e-05
1.62064e-05
1.10272e-05
1.18623e-05
2.52725e-05
2.82672e-05
2.29028e-05
1.83741e-05
1.31323e-05
1.45868e-05
2.43677e-05
3.15195e-05
3.03807e-05
2.32274e-05
1.66366e-05
1.08462e-05
1.59593e-05
2.14787e-05
2.8125e-05
2.58217e-05
1.16418e-05
1.3007e-05
1.80825e-05
2.26984e-05
3.13608e-05
2.39401e-05
1.4777e-05
1.69791e-05
2.30449e-05
3.02932e-05
2.1645e-05
1.63165e-05
1.12816e-05
1.22499e-05
2.48639e-05
2.81832e-05
2.31241e-05
1.86988e-05
1.35834e-05
1.52504e-05
2.48507e-05
3.1926e-05
3.08457e-05
2.38629e-05
1.7341e-05
1.1489e-05
1.6719e-05
2.21918e-05
2.897e-05
2.57026e-05
1.2475e-05
1.38616e-05
1.91945e-05
2.36934e-05
3.2862e-05
2.56253e-05
1.57453e-05
1.79876e-05
2.47766e-05
3.18795e-05
2.29887e-05
1.76686e-05
1.24158e-05
1.44393e-05
2.56006e-05
3.14926e-05
3.06909e-05
2.45952e-05
1.68573e-05
1.15012e-05
1.68205e-05
2.23028e-05
2.93768e-05
2.57098e-05
1.26698e-05
1.40561e-05
1.93296e-05
2.40896e-05
3.32213e-05