/*--------------------------------*- C++ -*----------------------------------*\
| =========                 |                                                 |
| \\      /  F ield         | OpenFOAM: The Open Source CFD Toolbox           |
|  \\    /   O peration     | Version:  v2006                                 |
|   \\  /    A nd           | Website:  www.openfoam.com                      |
|    \\/     M anipulation  |                                                 |
\*---------------------------------------------------------------------------*/
FoamFile
{
    version     2.0;
    format      ascii;
    class       volScalarField;
    location    "0.055";
    object      epsilon;
}
// * * * * * * * * * * * * * * * * * * * * * * * * * * * * * * * * * * * * * //

dimensions      [0 2 -3 0 0 0 0];


internalField   nonuniform List<scalar> 
38932
(
22206.7
22205.5
22313.2
22312.2
22307.3
22300.2
22288
22273.4
22254.5
22232.8
22207.4
22179
22147.3
22112.5
22074.4
22033.2
21988.8
21941.3
21890.6
21837
21780.2
21720.5
21657.9
21592.3
21523.9
21452.7
21378.7
21302
21222.7
21140.7
21056.2
20969.2
20879.8
20788
20693.8
20597.5
20498.9
20398.3
20295.6
20190.9
20084.4
19975.9
19865.8
19753.9
19640.5
19525.5
19409
19291.2
19172.1
19051.7
18930.2
18807.7
18684.1
18559.7
18434.4
18308.4
18181.8
18054.6
17926.8
17798.7
17670.3
17541.6
17412.7
17283.8
17154.8
17025.9
16897.2
16768.8
16640.6
16512.9
16385.6
16258.9
16132.8
16007.4
15882.8
15759.1
15636.3
15514.5
15393.7
15274.2
15155.8
15038.7
14923
14808.6
14695.8
14584.5
14474.7
14366.7
14260.4
14155.8
14053
13952.2
13853.3
13756.3
13661.4
13568.6
13477.8
13389.3
13302.9
13218.8
13137
13057.5
12980.3
12905.5
12833.1
12763.1
12695.6
12630.5
12567.9
12507.9
12450.3
12395.3
12342.8
12292.9
12245.5
12200.6
12158.4
12118.9
12082.2
12048.5
12018.6
11993.7
11977.3
11979.1
12012.4
12129.4
12522.9
13762.1
19491
60642
232224
1.59183e+06
2.00339e+06
424167
148091
196646
484216
1.97442e+06
1.8341e+06
486554
215000
216018
464888
1.62453e+06
1.45172e+06
429280
212210
202902
391157
1.30835e+06
1.19848e+06
361158
191717
180461
332536
1.10961e+06
1.03742e+06
309849
170328
161410
291635
978777
930869
276930
153720
147123
264930
890989
857363
255024
141469
136608
246740
828578
803553
239712
132402
128730
233659
781462
761676
228363
125495
122615
223659
743717
727219
219419
120024
117672
215549
711902
697551
211976
115517
113525
208643
683999
671114
205507
111672
109934
202535
658795
646958
199700
108297
106746
196982
635535
624472
194363
105270
103859
191830
613722
603247
189370
102507
101205
186975
593012
582988
184634
99949.6
98735
182343
573150
563476
180093
97557.1
96412.4
177880
553945
544540
175698
95297.8
94210.3
173543
535244
526041
171411
93147.6
92107.2
169299
516919
507864
167202
91087.1
90085.3
165118
498862
489903
163042
89100
88129.4
160973
480975
472067
158906
87171.7
86225.2
156838
463169
454271
154768
85288.6
84360.1
152692
445366
436444
150607
83438.4
82522.2
148511
427499
418525
146403
81610.3
80701.5
144279
409515
400465
142138
79794.8
78889.4
139978
391370
382225
137798
77984.4
77078.9
135596
373028
363775
133370
76172.3
75263.8
131119
354463
345089
128842
74352.7
73438
126536
335650
326145
124200
72519.2
71595
121832
316572
306930
119430
70664.9
69727.5
116993
297220
287443
114519
68782.3
67827.9
112006
277600
267698
109453
66863.8
65888.8
106858
257740
247735
104222
64902.2
63902.9
101542
237690
227619
98820
62890.7
61863.6
96053.1
217532
207447
93243.5
60822
59763.5
90389.2
197377
187349
87493.5
58688.4
57594
84554.3
177377
167496
81575.9
56479.5
55342.2
78557.3
157728
148114
75503.6
54179.5
52989.9
72416.8
138687
129495
69303.1
51767.6
50508.2
66166.5
120581
112006
63018.8
49207.6
47859.2
59865.4
103812
96056.9
56717.4
46449.8
44966.3
53580.7
88782.6
82047.3
50474.1
43399.3
41712
47377.8
75814.2
70122.2
44299
39871
37831.9
41214.7
64912.9
60116.8
38104.4
35565.4
33067
34989.2
55703.3
51294.7
31689.8
30166.9
27238.2
28885.7
48658.6
47838.6
26426.6
24372.5
21390.5
23815.4
46185.2
43349.6
20982.9
18275.3
15088.3
17915.4
39215.6
34127
14733.7
11975
9105.14
11622.5
28534
22954.4
8817.23
6653.89
4758.22
6544.29
18024.1
14122.9
4873.29
3427.39
2605.02
3792.04
11222
9745.25
3308.95
2210.31
2053.16
3174.44
9340.59
9342.13
3163.98
2005.44
2001.31
3234.93
9661.51
10042.6
3311.51
2017.07
2042.94
3404.88
10498.5
10934.2
3482.18
2065.2
2079.54
3542.79
11327.8
11641.1
3578.91
2084.66
2084.22
3593.09
11894.5
12024.4
3586.68
2072.37
2051.38
3557.82
12072.1
12054.4
3524.34
2025.24
1988.76
3468.26
11938.1
11725
3388.62
1941.37
1887.33
3294.86
11436.9
11068.1
3181.39
1823.75
1753.73
3054.95
10636.5
10139.8
2913.86
1676.4
1593.67
2762.71
9602.89
9020.36
2601.74
1505.86
1414.07
2433.51
8407.13
7775.6
2260.22
1319.31
1222.48
2083.55
7128.15
6473.35
1904.61
1124.22
1025.68
1725.83
5821.52
5170.26
1547.4
927.166
829.126
1370.39
4529.91
3880.37
1194.44
731.688
634.567
1020.36
3258.12
2636.43
846.225
537.62
439.722
672.384
2036.55
1440.23
501.514
342.408
244.231
335.109
896.054
418.922
184.195
150.03
68.3893
77.2588
165.589
41.4347
16.8034
24.4715
51.5479
120.88
233.657
366.645
504.494
642.766
773.995
900.259
1014.11
1118.09
1215
1295.57
1356.17
1395.77
1392.35
1384.53
1319.45
1249.83
1123.23
932.124
1166.4
1209.56
1038.65
633.019
775.015
824.417
695.353
557.853
428.454
280.769
274.726
224.341
152.124
69.2268
122.091
75.1902
88.9001
114.613
142.12
117.803
99.9478
84.5045
81.4828
156.865
270.54
117.566
102.494
108.574
121.507
132.059
125.237
128.185
161.531
383.527
496.994
206.04
155.766
145.906
148.216
167.895
168.369
184.379
248.605
596.219
692.219
292.813
215.341
193.787
190.131
214.855
221.471
248.189
337.978
784.007
878.02
385.008
283.089
251.426
242.023
271.46
283.585
320.161
433.897
973.807
1074.8
485.155
359.721
318.203
303.635
338.819
355.934
402.137
538.849
1171.72
1291.28
599.735
449.3
397.204
377.305
419.844
442.768
500.958
664.847
1409.85
1552.02
743.36
560.892
494.602
467.744
522.12
555.596
633.787
843.67
1739.44
2093.96
996.233
731.853
630.25
584.743
655.421
718.119
852.481
1191.68
2536.1
3251.09
1484.97
1015.29
826.024
737.587
839.556
974.903
1291.93
2106.09
4697.19
6236.92
3053.9
1672.58
1203.1
983.489
1181.73
1549.01
2039.34
3327.85
7252.97
11846.5
4985.75
2784.13
1992.51
1644.37
2538.34
3963.98
9049.09
29649.4
92069.6
88234.8
29139.6
9531.82
4259.33
2823.28
3470
5807.03
13974.8
45352.2
130453
107086
38758.8
13825.7
6311.94
3880.18
3918.6
5708.31
10324.4
24004
62737.9
79059.2
28947.4
11069.7
5946.14
4202.42
4451.2
7259.83
17759
58252.6
178022
191966
65427.7
21432.2
8578.07
5003.88
5294.31
8944
19707.1
49378
135735
92693.4
34938.6
15947.3
8589.86
5595.14
5584.06
7797.84
13990.1
34290.5
91039.8
120879
45296.8
16777.7
8676.8
6182.96
6399.02
8816.42
14988.9
31131.2
78902
93930.8
37329.6
17124.9
9976.75
7202.17
7533.42
10719.8
20105.6
51109.7
147011
179617
65219.2
25663.2
12630.9
8367.2
8174.13
11323.4
18773.7
39116.3
105798
178982
63171
25896.4
13460.9
9320.91
9044.47
12554.3
22605.2
53350.7
143978
134518
51352.6
25532.7
14851.4
10375
9897.76
12896.3
21442.1
49244.5
128446
205391
79941.8
32346
16864.4
11773.8
11376.6
14512
21770.2
42453.2
107428
204803
80897.1
33905.7
18569.3
13391.1
13274.3
17034.5
25551.3
49353.1
124219
219342
87550.8
38402
21442.4
15518.5
15443
20037
30185.8
56877.1
142547
238423
99261.1
43262
24013.1
17627.3
18016.3
24943.9
42352.4
90238.8
244656
211765
86851.7
47129.6
28943.2
20585.5
20696.2
27802.9
43321
83897
226366
344263
128979
61050.4
33092.8
23229.7
22846.2
30770.1
50278.2
104264
270066
247062
94296.4
53733.9
34678.8
25161.1
24574.7
32042.2
50015.9
100382
245492
384146
164887
73335.6
38952.4
27620
27378
36985.5
58555.8
110535
299523
318437
136788
67481.4
41085.6
30213.1
29796.2
40542.5
66356.2
132781
359571
464691
179693
89747.8
49553.4
33777
32434.3
42535.3
62521.6
107880
303172
445357
166317
84639.1
49516.5
36073.2
35714.3
46936.7
74025.2
147516
373386
393745
142342
82868.8
54140.7
39597.3
38763.4
49994.6
76096.6
145313
353919
549678
234686
112254
62659.5
44637.7
43685.7
57004.6
83506.6
144582
396915
539620
244315
114423
65077.3
48265.9
48911.9
66882.7
107778
206221
555998
554332
209068
121039
76524.3
54866.9
53385.3
69675.1
102160
179855
492924
735849
280973
147688
83108.2
58849
58350.5
76811.8
119959
231874
594437
585762
209352
124030
84207
62927.5
62327.6
80986.8
125732
242244
580555
818784
358900
178408
100872
72075.7
71446.7
93886.8
139171
241028
684879
742509
335343
166044
101454
77298.5
78867.6
107365
170629
313671
838816
978972
379032
212090
125816
87813.6
84524.7
111144
163872
280457
825212
929109
348256
192720
121039
90283.4
93702.6
125587
208507
417777
952503
1.1454e+06
507334
265850
152372
108031
107159
146878
234262
427268
1.17675e+06
995084
362462
228080
153691
112980
119682
173749
322580
679093
1.48081e+06
1.60774e+06
869629
424487
193811
125655
117265
201643
450820
869898
2.3073e+06
1.15095e+06
372508
179061
113733
88305.9
82616.8
103058
148314
291595
951227
695097
244435
132894
92124
71966.4
69721.2
83782.9
112623
191048
508223
416137
166320
105444
81991.1
69770.3
70292.2
80927.1
101212
153359
372319
354725
146761
100032
81572.7
71767
73738.8
83038.4
100529
145333
348140
345389
145896
102306
85302.5
76250.7
79334.8
88111.3
104732
147334
346194
351534
149524
107705
91247.1
82409.2
85868.4
94989.4
111686
153494
358127
366068
160582
116739
99229
89574.3
93452.3
103662
122027
167463
381127
389993
175355
127636
108464
97843.4
102437
113261
132956
181579
396911
411470
188053
138412
118011
106691
111183
123000
144197
195874
428331
444599
203066
150109
128242
116052
121391
134030
156442
210044
464483
487266
219943
164492
141185
128045
137135
150556
175425
234668
517269
543895
250257
187213
160583
145972
149570
166989
196635
265762
574447
606440
277039
204047
172639
154440
159852
178623
211153
286079
632351
671997
299093
219148
185162
165801
172371
192217
227480
311536
707828
756572
327271
237794
200760
180186
191387
212092
250649
344544
804795
862239
367522
267788
227498
207861
224001
245656
288375
396160
930959
1.01004e+06
425190
308367
260559
233924
248503
276256
328084
453917
1.07065e+06
1.14331e+06
484408
349451
294224
264540
271745
306730
367016
510034
1.1965e+06
1.25987e+06
535258
382512
318299
281665
293984
331844
399050
559166
1.31916e+06
1.38062e+06
583774
416564
346207
306448
318975
360723
434473
608237
1.43057e+06
1.49846e+06
635581
452930
375410
331578
345893
392212
473191
664925
1.57923e+06
1.66354e+06
699402
499062
414496
367781
389954
439006
528663
739060
1.7315e+06
1.80131e+06
772753
548570
451926
395346
403749
462344
563230
796153
1.85481e+06
1.91558e+06
815538
577676
473902
413869
425546
487699
594900
842365
2.00492e+06
2.11688e+06
881730
619963
507020
441839
469953
534967
652606
930137
2.26267e+06
2.38781e+06
979458
687141
564574
497739
502519
578761
710345
1.02224e+06
2.54427e+06
2.61444e+06
1.04684e+06
725406
589365
510748
521760
601648
739601
1.06569e+06
2.63387e+06
2.70645e+06
1.09353e+06
759701
617568
535563
554794
640265
787173
1.13188e+06
2.81041e+06
2.89193e+06
1.17663e+06
824515
674166
590183
624366
709426
863401
1.22646e+06
2.97992e+06
3.09791e+06
1.27326e+06
891229
727197
630662
642055
742193
914508
1.31344e+06
3.20539e+06
3.2961e+06
1.3554e+06
938805
760558
657294
676179
782260
965036
1.38524e+06
3.42394e+06
3.51981e+06
1.44192e+06
1.00303e+06
813803
702699
750578
860947
1.05663e+06
1.51353e+06
3.70354e+06
3.8424e+06
1.57892e+06
1.10786e+06
906805
795059
804574
931321
1.1463e+06
1.64251e+06
4.01144e+06
4.18909e+06
1.69942e+06
1.17758e+06
952582
820974
843271
979717
1.21368e+06
1.75223e+06
4.29926e+06
4.45695e+06
1.81946e+06
1.26264e+06
1.0198e+06
876762
938247
1.0788e+06
1.32623e+06
1.90305e+06
4.64211e+06
4.82638e+06
1.98974e+06
1.39302e+06
1.13641e+06
994440
1.00753e+06
1.16917e+06
1.4443e+06
2.07394e+06
5.03119e+06
5.19863e+06
2.14812e+06
1.49051e+06
1.2019e+06
1.03138e+06
1.07202e+06
1.25263e+06
1.55415e+06
2.23749e+06
5.44931e+06
5.67397e+06
2.34951e+06
1.63831e+06
1.32792e+06
1.15044e+06
1.22043e+06
1.40037e+06
1.72262e+06
2.46593e+06
5.90546e+06
6.20787e+06
2.57577e+06
1.78728e+06
1.44202e+06
1.2377e+06
1.26988e+06
1.48603e+06
1.85212e+06
2.68252e+06
6.52208e+06
6.76015e+06
2.79821e+06
1.93584e+06
1.55199e+06
1.32271e+06
1.42492e+06
1.65016e+06
2.04103e+06
2.93383e+06
7.03272e+06
7.37585e+06
3.07949e+06
2.14964e+06
1.74416e+06
1.51522e+06
1.53972e+06
1.80173e+06
2.24026e+06
3.23384e+06
7.8264e+06
8.33891e+06
3.40857e+06
2.33332e+06
1.86177e+06
1.58281e+06
1.65478e+06
1.95119e+06
2.44865e+06
3.56882e+06
8.71874e+06
8.86658e+06
3.71335e+06
2.58277e+06
2.08015e+06
1.78984e+06
1.90476e+06
2.19895e+06
2.71569e+06
3.88621e+06
9.13561e+06
9.50035e+06
4.06371e+06
2.83874e+06
2.28051e+06
1.94238e+06
2.02228e+06
2.38822e+06
2.98445e+06
4.27923e+06
9.96369e+06
1.06388e+07
4.5512e+06
3.17742e+06
2.55792e+06
2.19419e+06
2.34257e+06
2.71963e+06
3.37997e+06
4.85779e+06
1.15072e+07
1.28738e+07
5.24818e+06
3.58328e+06
2.84001e+06
2.39765e+06
2.50822e+06
2.99939e+06
3.82664e+06
5.72901e+06
1.4712e+07
1.62492e+07
6.19365e+06
4.10241e+06
3.22766e+06
2.739e+06
2.92936e+06
3.43148e+06
4.33051e+06
6.44589e+06
1.63624e+07
1.67193e+07
6.71801e+06
4.55277e+06
3.59996e+06
3.02131e+06
3.2776e+06
3.84475e+06
4.8229e+06
7.06483e+06
1.7407e+07
1.82799e+07
7.44582e+06
5.11143e+06
4.08638e+06
3.50313e+06
3.63298e+06
4.31931e+06
5.43113e+06
7.90432e+06
1.93519e+07
2.08195e+07
8.4793e+06
5.84087e+06
4.66787e+06
3.97774e+06
4.29187e+06
5.0252e+06
6.28725e+06
9.12456e+06
2.2383e+07
2.46565e+07
9.9287e+06
6.81156e+06
5.3952e+06
4.49962e+06
5.00428e+06
5.94298e+06
7.50368e+06
1.09817e+07
2.74578e+07
3.11669e+07
1.22721e+07
8.29864e+06
6.51736e+06
5.46953e+06
5.80477e+06
7.17201e+06
9.33528e+06
1.40622e+07
3.7005e+07
4.50344e+07
1.66776e+07
1.08059e+07
8.15155e+06
6.59864e+06
7.30986e+06
9.19532e+06
1.25757e+07
2.05845e+07
5.97408e+07
6.45061e+07
2.27579e+07
1.38337e+07
1.00094e+07
7.89496e+06
8.2015e+06
1.0426e+07
1.42759e+07
2.27359e+07
5.98244e+07
5.9479e+07
2.27515e+07
1.45265e+07
1.07497e+07
8.54271e+06
8.57944e+06
1.09352e+07
1.4874e+07
2.33595e+07
6.11397e+07
7.30812e+07
2.61619e+07
1.59787e+07
1.14836e+07
8.81808e+06
9.48552e+06
1.21922e+07
1.69946e+07
2.82114e+07
8.13306e+07
7.59678e+07
2.767e+07
1.7325e+07
1.26757e+07
9.97159e+06
1.03674e+07
1.31004e+07
1.7591e+07
2.72155e+07
7.38087e+07
7.57175e+07
2.79327e+07
1.83247e+07
1.36438e+07
1.07781e+07
1.12205e+07
1.4403e+07
1.97986e+07
3.15401e+07
7.37162e+07
7.2694e+07
3.51437e+07
2.16913e+07
1.54564e+07
1.18248e+07
1.34765e+07
1.72985e+07
2.39803e+07
3.85099e+07
7.51105e+07
7.80363e+07
4.09832e+07
2.57863e+07
1.85943e+07
1.43999e+07
1.55697e+07
1.98114e+07
2.67444e+07
4.06192e+07
7.76031e+07
7.42439e+07
4.01822e+07
2.6954e+07
2.01162e+07
1.57618e+07
1.64004e+07
2.03267e+07
2.65944e+07
3.87201e+07
7.11453e+07
6.67029e+07
3.72641e+07
2.58915e+07
1.99312e+07
1.59987e+07
1.62957e+07
1.97615e+07
2.50947e+07
3.53923e+07
6.33815e+07
6.37528e+07
3.34103e+07
2.37267e+07
1.88566e+07
1.54894e+07
1.5503e+07
1.83092e+07
2.24982e+07
3.08692e+07
5.98486e+07
5.08691e+07
2.67185e+07
2.07271e+07
1.7139e+07
1.44621e+07
1.42183e+07
1.62643e+07
1.90801e+07
2.38501e+07
4.4113e+07
3.9313e+07
2.14408e+07
1.74167e+07
1.50236e+07
1.31113e+07
1.24662e+07
1.4095e+07
1.60829e+07
1.96903e+07
3.5793e+07
3.34327e+07
1.82364e+07
1.50105e+07
1.34003e+07
1.22176e+07
1.14626e+07
1.25444e+07
1.3935e+07
1.68457e+07
3.15547e+07
2.96853e+07
1.53234e+07
1.29291e+07
1.18112e+07
1.09928e+07
1.02054e+07
1.09909e+07
1.20009e+07
1.41917e+07
2.74326e+07
2.51177e+07
1.33251e+07
1.12628e+07
1.03369e+07
9.61253e+06
9.27877e+06
9.84026e+06
1.0663e+07
1.26149e+07
2.3357e+07
2.19646e+07
1.20804e+07
1.0124e+07
9.32434e+06
8.78753e+06
8.34728e+06
8.87159e+06
9.64881e+06
1.1566e+07
2.09385e+07
2.01216e+07
1.11468e+07
9.25228e+06
8.51416e+06
8.07558e+06
7.68981e+06
8.1201e+06
8.84606e+06
1.07501e+07
1.94933e+07
1.90415e+07
1.03111e+07
8.47211e+06
7.76705e+06
7.3387e+06
7.11784e+06
7.48012e+06
8.1422e+06
9.92183e+06
1.84521e+07
1.81182e+07
9.4705e+06
7.78145e+06
7.15942e+06
6.81395e+06
6.56207e+06
6.84573e+06
7.39302e+06
8.89863e+06
1.75131e+07
1.67229e+07
8.45275e+06
7.02756e+06
6.50811e+06
6.23405e+06
5.93992e+06
6.22663e+06
6.73963e+06
8.14085e+06
1.60326e+07
1.54838e+07
7.89955e+06
6.50746e+06
6.01016e+06
5.75397e+06
5.52715e+06
5.77912e+06
6.27859e+06
7.64515e+06
1.49754e+07
1.46784e+07
7.43422e+06
6.07585e+06
5.57363e+06
5.30627e+06
5.17037e+06
5.4131e+06
5.90154e+06
7.23602e+06
1.41921e+07
1.38741e+07
7.02729e+06
5.71246e+06
5.22476e+06
4.98304e+06
4.80203e+06
5.06181e+06
5.55739e+06
6.87845e+06
1.35696e+07
1.32505e+07
6.69974e+06
5.41121e+06
4.93183e+06
4.6958e+06
4.53534e+06
4.77162e+06
5.2537e+06
6.53273e+06
1.30061e+07
1.27778e+07
6.40778e+06
5.11823e+06
4.63158e+06
4.38076e+06
4.29569e+06
4.52413e+06
4.99335e+06
6.24692e+06
1.25125e+07
1.2255e+07
6.08883e+06
4.84937e+06
4.38185e+06
4.15325e+06
4.01832e+06
4.2595e+06
4.72672e+06
5.95658e+06
1.21536e+07
1.1839e+07
5.82675e+06
4.61712e+06
4.16537e+06
3.94723e+06
3.81907e+06
4.03546e+06
4.47759e+06
5.64169e+06
1.16625e+07
1.14862e+07
5.54048e+06
4.37104e+06
3.92691e+06
3.69872e+06
3.63725e+06
3.84355e+06
4.27367e+06
5.42078e+06
1.12961e+07
1.11786e+07
5.32407e+06
4.16054e+06
3.72785e+06
3.52057e+06
3.40899e+06
3.63022e+06
4.07292e+06
5.24022e+06
1.11171e+07
1.1019e+07
5.22456e+06
4.02695e+06
3.57467e+06
3.34378e+06
3.32147e+06
3.53615e+06
3.9862e+06
5.18586e+06
1.09319e+07
1.07985e+07
5.06622e+06
3.89422e+06
3.4476e+06
3.22719e+06
3.14094e+06
3.37057e+06
3.812e+06
4.95538e+06
1.06641e+07
1.04489e+07
4.83433e+06
3.73468e+06
3.31362e+06
3.1085e+06
3.01518e+06
3.22126e+06
3.63983e+06
4.736e+06
1.03803e+07
1.03273e+07
4.67755e+06
3.57139e+06
3.15093e+06
2.93455e+06
2.90777e+06
3.10378e+06
3.51235e+06
4.59836e+06
1.02179e+07
1.00795e+07
4.52996e+06
3.43653e+06
3.02416e+06
2.82389e+06
2.75239e+06
2.96281e+06
3.37437e+06
4.45168e+06
1.00638e+07
9.8724e+06
4.40993e+06
3.32872e+06
2.92534e+06
2.73384e+06
2.65715e+06
2.85353e+06
3.25712e+06
4.32205e+06
9.83649e+06
9.71474e+06
4.27497e+06
3.20731e+06
2.80206e+06
2.59428e+06
2.5823e+06
2.77098e+06
3.16557e+06
4.21335e+06
9.57871e+06
9.49433e+06
4.1388e+06
3.10166e+06
2.70597e+06
2.51181e+06
2.45521e+06
2.65966e+06
3.05717e+06
4.10438e+06
9.42993e+06
9.31244e+06
4.05287e+06
3.0223e+06
2.63529e+06
2.44899e+06
2.38376e+06
2.57598e+06
2.96534e+06
3.98354e+06
9.21768e+06
9.1287e+06
3.95368e+06
2.927e+06
2.53493e+06
2.33245e+06
2.33134e+06
2.51564e+06
2.90015e+06
3.92213e+06
9.06275e+06
9.01965e+06
3.85087e+06
2.84539e+06
2.46105e+06
2.27037e+06
2.22392e+06
2.42441e+06
2.80868e+06
3.80564e+06
8.96026e+06
8.84411e+06
3.77938e+06
2.78402e+06
2.4072e+06
2.22536e+06
2.16839e+06
2.35633e+06
2.73383e+06
3.71955e+06
8.7895e+06
8.71296e+06
3.67852e+06
2.70097e+06
2.32312e+06
2.12673e+06
2.13002e+06
2.30853e+06
2.67555e+06
3.65049e+06
8.62377e+06
8.59288e+06
3.60439e+06
2.63212e+06
2.26082e+06
2.07559e+06
2.03734e+06
2.23034e+06
2.59983e+06
3.55766e+06
8.55243e+06
8.38687e+06
3.53661e+06
2.57682e+06
2.21635e+06
2.04154e+06
1.98806e+06
2.16798e+06
2.52896e+06
3.46866e+06
8.32058e+06
8.26591e+06
3.42709e+06
2.49202e+06
2.13496e+06
1.94892e+06
1.95089e+06
2.11703e+06
2.46164e+06
3.38161e+06
8.24044e+06
8.09538e+06
3.31412e+06
2.40691e+06
2.0636e+06
1.89571e+06
1.85396e+06
2.02573e+06
2.36218e+06
3.2555e+06
7.95278e+06
7.823e+06
3.17942e+06
2.31599e+06
1.99751e+06
1.84802e+06
1.79208e+06
1.93752e+06
2.24978e+06
3.11113e+06
7.62014e+06
7.51102e+06
3.01422e+06
2.1939e+06
1.8913e+06
1.74204e+06
1.72879e+06
1.85776e+06
2.14304e+06
2.94475e+06
7.07896e+06
6.83182e+06
2.80751e+06
2.06346e+06
1.79792e+06
1.68265e+06
1.63077e+06
1.73042e+06
1.97088e+06
2.66593e+06
6.33437e+06
6.06761e+06
2.52442e+06
1.86878e+06
1.64081e+06
1.5538e+06
1.49935e+06
1.58819e+06
1.80295e+06
2.42824e+06
5.81311e+06
5.62712e+06
2.37707e+06
1.77191e+06
1.56092e+06
1.46772e+06
1.45948e+06
1.54695e+06
1.75121e+06
2.33736e+06
5.47962e+06
5.36792e+06
2.29076e+06
1.71713e+06
1.51483e+06
1.42639e+06
1.40251e+06
1.48443e+06
1.67633e+06
2.2278e+06
5.22315e+06
5.10201e+06
2.16898e+06
1.63006e+06
1.44098e+06
1.36188e+06
1.32942e+06
1.41354e+06
1.60034e+06
2.12618e+06
4.94003e+06
4.85182e+06
2.10111e+06
1.58264e+06
1.39991e+06
1.32019e+06
1.28857e+06
1.37051e+06
1.5553e+06
2.06718e+06
4.77741e+06
4.65702e+06
2.03579e+06
1.5342e+06
1.34942e+06
1.26221e+06
1.25706e+06
1.33781e+06
1.51637e+06
2.00297e+06
4.52354e+06
4.4515e+06
1.96087e+06
1.48556e+06
1.30839e+06
1.22644e+06
1.20152e+06
1.28732e+06
1.46327e+06
1.93334e+06
4.41064e+06
4.33109e+06
1.90994e+06
1.44748e+06
1.27677e+06
1.19777e+06
1.16861e+06
1.24959e+06
1.42145e+06
1.88028e+06
4.28951e+06
4.2662e+06
1.85898e+06
1.40258e+06
1.23073e+06
1.14579e+06
1.14472e+06
1.22334e+06
1.39148e+06
1.84749e+06
4.20937e+06
4.18929e+06
1.82092e+06
1.36882e+06
1.19867e+06
1.11761e+06
1.09762e+06
1.18275e+06
1.35352e+06
1.80409e+06
4.15531e+06
4.139e+06
1.79344e+06
1.34454e+06
1.17768e+06
1.09879e+06
1.07361e+06
1.15528e+06
1.325e+06
1.77456e+06
4.13748e+06
4.12512e+06
1.76651e+06
1.3141e+06
1.14237e+06
1.05657e+06
1.05991e+06
1.14036e+06
1.30934e+06
1.762e+06
4.09572e+06
4.07611e+06
1.75051e+06
1.29458e+06
1.12102e+06
1.03654e+06
1.0229e+06
1.11094e+06
1.28535e+06
1.74245e+06
4.10218e+06
4.08965e+06
1.73232e+06
1.28105e+06
1.11044e+06
1.02801e+06
1.0073e+06
1.09265e+06
1.26469e+06
1.71537e+06
4.07047e+06
4.05444e+06
1.69361e+06
1.24645e+06
1.07911e+06
998618
971743
1.05278e+06
1.22176e+06
1.66915e+06
4.01718e+06
3.96874e+06
1.65821e+06
1.21151e+06
1.04318e+06
958481
964551
1.04484e+06
1.21171e+06
1.65449e+06
3.93565e+06
3.91756e+06
1.64579e+06
1.2004e+06
1.02914e+06
944090
935201
1.02416e+06
1.1976e+06
1.6461e+06
3.93609e+06
3.94366e+06
1.64713e+06
1.19862e+06
1.02786e+06
945266
926440
1.01357e+06
1.18595e+06
1.63337e+06
3.94627e+06
3.91941e+06
1.61486e+06
1.17159e+06
1.0035e+06
921240
895763
979485
1.14942e+06
1.59306e+06
3.89781e+06
3.87723e+06
1.58521e+06
1.14201e+06
972467
885514
895213
977049
1.14476e+06
1.58649e+06
3.8579e+06
3.86782e+06
1.58005e+06
1.13506e+06
962505
875227
868143
959132
1.13368e+06
1.583e+06
3.87398e+06
3.86882e+06
1.58252e+06
1.13672e+06
965535
881329
863556
952807
1.1262e+06
1.57282e+06
3.85513e+06
3.83719e+06
1.55606e+06
1.11385e+06
944599
860003
835145
921515
1.09337e+06
1.53584e+06
3.80924e+06
3.79186e+06
1.52974e+06
1.08668e+06
915524
826458
839002
921962
1.09003e+06
1.53019e+06
3.79301e+06
3.79502e+06
1.52569e+06
1.08242e+06
908939
819824
813788
906537
1.08252e+06
1.53269e+06
3.80025e+06
3.80771e+06
1.54136e+06
1.08912e+06
915672
829424
812522
903875
1.0799e+06
1.52897e+06
3.80795e+06
3.78347e+06
1.5132e+06
1.06892e+06
897567
810451
785888
875301
1.04988e+06
1.49413e+06
3.76858e+06
3.74646e+06
1.48843e+06
1.04448e+06
871372
779600
795515
880180
1.05e+06
1.49108e+06
3.74893e+06
3.74166e+06
1.48394e+06
1.04239e+06
869311
779424
778047
863920
1.03257e+06
1.4704e+06
3.72413e+06
3.70052e+06
1.45542e+06
1.01657e+06
843945
754981
749433
840640
1.01334e+06
1.45414e+06
3.6989e+06
3.70662e+06
1.46769e+06
1.02132e+06
851583
767029
751725
841952
1.01548e+06
1.45885e+06
3.70746e+06
3.67802e+06
1.44763e+06
1.00834e+06
838233
751371
728900
818652
992067
1.4322e+06
3.67081e+06
3.67541e+06
1.42947e+06
988720
815997
724012
742428
827134
996161
1.43394e+06
3.68029e+06
3.66991e+06
1.42965e+06
989741
817471
727242
727188
813956
982854
1.41954e+06
3.65995e+06
3.65021e+06
1.40381e+06
966466
794178
704865
700350
792231
964459
1.40158e+06
3.64458e+06
3.63265e+06
1.4187e+06
974192
804708
719891
705417
796608
970998
1.41523e+06
3.62106e+06
3.61492e+06
1.40252e+06
964559
794195
706298
685003
775517
949124
1.38778e+06
3.59576e+06
3.61181e+06
1.38807e+06
948444
774441
681220
702166
787543
958421
1.40352e+06
3.63713e+06
3.65308e+06
1.4002e+06
954638
779723
687574
689388
778157
949974
1.39346e+06
3.6546e+06
3.64784e+06
1.37638e+06
934590
759571
667927
664597
759004
935114
1.3888e+06
3.64445e+06
3.67617e+06
1.41265e+06
949831
774228
687213
673235
767920
947425
1.40722e+06
3.69448e+06
3.67463e+06
1.38809e+06
940368
766074
675787
656461
748519
922943
1.36612e+06
3.61924e+06
3.59633e+06
1.35029e+06
913352
744803
657946
636966
726516
898603
1.33555e+06
3.58286e+06
3.57823e+06
1.33711e+06
897491
725924
634162
657087
742311
914534
1.36797e+06
3.60304e+06
3.61624e+06
1.365e+06
913377
736661
643413
647132
737007
910552
1.35749e+06
3.61303e+06
3.6076e+06
1.34436e+06
897855
719981
627038
624943
720794
899527
1.36185e+06
3.62421e+06
3.66802e+06
1.37589e+06
915133
737885
649695
635980
731975
913165
1.37292e+06
3.67351e+06
3.67167e+06
1.36302e+06
908399
732096
640199
620793
714495
891661
1.34222e+06
3.65721e+06
3.61426e+06
1.32763e+06
883264
712209
623928
603723
694954
870213
1.31806e+06
3.59679e+06
3.61075e+06
1.31685e+06
869630
695404
601826
627393
714425
892820
1.36805e+06
3.65057e+06
3.69519e+06
1.36355e+06
893230
711070
614691
620049
712172
890117
1.35154e+06
3.66082e+06
3.64181e+06
1.33066e+06
874954
695394
601141
605507
694504
867582
1.31594e+06
3.6055e+06
3.58769e+06
1.3021e+06
854813
678009
585705
584447
679532
857518
1.31524e+06
3.60695e+06
3.65832e+06
1.34946e+06
877263
698715
611022
598013
695407
878485
1.35186e+06
3.69434e+06
3.68667e+06
1.34252e+06
876574
697090
604120
585078
680461
862112
1.32555e+06
3.67264e+06
3.64938e+06
1.31105e+06
855006
680045
590262
570528
664165
843275
1.29999e+06
3.625e+06
3.66541e+06
1.31214e+06
845035
665516
569511
597499
686561
868655
1.35678e+06
3.72029e+06
3.7553e+06
1.35336e+06
869391
683069
584248
591186
685006
867080
1.33978e+06
3.74345e+06
3.71211e+06
1.32241e+06
852314
668465
571732
577321
667902
844676
1.30593e+06
3.68837e+06
3.66159e+06
1.2939e+06
832632
652040
557597
556873
654336
836549
1.31123e+06
3.6973e+06
3.75212e+06
1.34897e+06
860361
676587
586349
573375
674358
864781
1.35953e+06
3.78668e+06
3.78649e+06
1.35207e+06
865021
677432
581732
562715
661962
850540
1.33389e+06
3.76985e+06
3.74483e+06
1.32054e+06
844341
662666
569593
550084
646397
829927
1.30087e+06
3.71804e+06
3.68185e+06
1.28941e+06
823084
646786
557067
538203
632536
813726
1.27861e+06
3.67678e+06
3.71455e+06
1.29655e+06
818608
635743
538360
569334
660353
846159
1.35359e+06
3.79119e+06
3.84135e+06
1.36291e+06
852646
658900
556432
565589
662040
852715
1.34971e+06
3.84446e+06
3.8254e+06
1.33353e+06
839418
647704
546765
554797
649228
834407
1.31857e+06
3.80991e+06
3.76686e+06
1.30049e+06
819910
632835
534942
542937
634172
814110
1.29197e+06
3.72809e+06
3.72487e+06
1.28051e+06
805350
620079
524153
524920
624149
812501
1.30687e+06
3.77316e+06
3.84189e+06
1.35019e+06
840028
650536
557541
544598
649499
848019
1.377e+06
3.90342e+06
3.93214e+06
1.36247e+06
848518
653225
554638
535022
638709
836995
1.34665e+06
3.91289e+06
3.88228e+06
1.32503e+06
828814
639600
544077
523607
623777
814235
1.30719e+06
3.83631e+06
3.81214e+06
1.29583e+06
809080
625238
532366
513007
611067
799990
1.28752e+06
3.80126e+06
3.85659e+06
1.31535e+06
805972
614150
513731
547306
641962
835816
1.37295e+06
3.9478e+06
4.00865e+06
1.40124e+06
845548
640483
533351
544509
644637
846647
1.38271e+06
4.03111e+06
3.99729e+06
1.35443e+06
831244
629878
524346
534030
631554
825816
1.33728e+06
3.94674e+06
3.91781e+06
1.31363e+06
809232
614496
513004
522340
616039
804074
1.30477e+06
3.87997e+06
3.88162e+06
1.28424e+06
791840
601660
502689
503438
605182
800910
1.32544e+06
3.93155e+06
4.01599e+06
1.3745e+06
830525
634079
538340
524236
633390
841028
1.39483e+06
4.07698e+06
4.10389e+06
1.38743e+06
842419
637839
536431
515980
623992
830385
1.37031e+06
4.08224e+06
4.0627e+06
1.35458e+06
826407
626290
527237
506159
610754
810745
1.33342e+06
4.01719e+06
3.97565e+06
1.32059e+06
805281
612329
516678
496241
597876
793298
1.30762e+06
3.96326e+06
3.9429e+06
1.29661e+06
788539
600218
506842
487829
587095
781145
1.29224e+06
3.94021e+06
4.01475e+06
1.32596e+06
789440
591332
489154
524947
621480
821454
1.38399e+06
4.11306e+06
4.1815e+06
1.40451e+06
833139
621016
510459
523905
626054
835201
1.3983e+06
4.19756e+06
4.19598e+06
1.37815e+06
822913
612234
502836
514720
614626
817715
1.36206e+06
4.16349e+06
4.12396e+06
1.34173e+06
803215
598995
493075
504478
601219
798185
1.32967e+06
4.09218e+06
4.08442e+06
1.3204e+06
789970
587879
484575
486223
592488
796733
1.3582e+06
4.15708e+06
4.27586e+06
1.43511e+06
835449
624511
524237
508656
623418
846102
1.44842e+06
4.35175e+06
4.37712e+06
1.43953e+06
848310
629761
523324
501175
615583
835812
1.41686e+06
4.37401e+06
4.33356e+06
1.39675e+06
830469
618184
514906
492018
602636
815572
1.38074e+06
4.29733e+06
4.27785e+06
1.36575e+06
810626
605177
505021
482680
589544
796794
1.35052e+06
4.24213e+06
4.227e+06
1.34169e+06
792771
592416
495692
475620
580550
786453
1.33113e+06
4.22064e+06
4.29615e+06
1.37673e+06
795329
585809
478087
518375
621164
839642
1.47474e+06
4.44e+06
4.54248e+06
1.49778e+06
853645
621290
502432
519556
628881
859474
1.48975e+06
4.57016e+06
4.56316e+06
1.4653e+06
847569
616413
496930
513175
621028
845682
1.45064e+06
4.54956e+06
4.52638e+06
1.42796e+06
830088
605310
489398
504356
608768
825941
1.41597e+06
4.48775e+06
4.47371e+06
1.40076e+06
812224
594158
481411
495783
597340
808898
1.38899e+06
4.45666e+06
4.42042e+06
1.37311e+06
796017
582521
473026
486676
585865
792670
1.36855e+06
4.39624e+06
4.40193e+06
1.35649e+06
785388
572845
465956
468194
577720
792970
1.39853e+06
4.47329e+06
4.59155e+06
1.47409e+06
835366
612941
508903
491864
612559
847043
1.51353e+06
4.69705e+06
4.74013e+06
1.51133e+06
855018
619103
508968
485267
605805
842757
1.48522e+06
4.73777e+06
4.70254e+06
1.46415e+06
839343
609737
501332
476821
593235
821643
1.44383e+06
4.66465e+06
4.63563e+06
1.42504e+06
818060
596857
492068
468047
581017
803618
1.41288e+06
4.59563e+06
4.58476e+06
1.39856e+06
798810
584577
482742
461584
571797
792418
1.38797e+06
4.57876e+06
4.65001e+06
1.43529e+06
801765
577192
464075
506305
613793
843831
1.5135e+06
4.78022e+06
4.89141e+06
1.56197e+06
858338
613130
488542
507383
620826
865572
1.55533e+06
4.94761e+06
4.9618e+06
1.53187e+06
854462
607663
482904
500136
612049
852155
1.51481e+06
4.94235e+06
4.90926e+06
1.48646e+06
834485
595803
475003
491347
599298
830550
1.47237e+06
4.85477e+06
4.81841e+06