/*--------------------------------*- C++ -*----------------------------------*\
| =========                 |                                                 |
| \\      /  F ield         | OpenFOAM: The Open Source CFD Toolbox           |
|  \\    /   O peration     | Version:  v2006                                 |
|   \\  /    A nd           | Website:  www.openfoam.com                      |
|    \\/     M anipulation  |                                                 |
\*---------------------------------------------------------------------------*/
FoamFile
{
    version     2.0;
    format      ascii;
    class       volScalarField;
    location    "0.055";
    object      turbulenceProperties:I;
}
// * * * * * * * * * * * * * * * * * * * * * * * * * * * * * * * * * * * * * //

dimensions      [0 0 0 0 0 0 0];


internalField   nonuniform List<scalar> 
38932
(
0.149717
0.149712
0.149908
0.14991
0.14991
0.149911
0.149909
0.14991
0.149909
0.14991
0.14991
0.14991
0.14991
0.14991
0.149911
0.149911
0.149911
0.149911
0.149912
0.149912
0.149912
0.149913
0.149913
0.149914
0.149914
0.149914
0.149915
0.149915
0.149916
0.149916
0.149917
0.149917
0.149918
0.149918
0.149919
0.149919
0.14992
0.149921
0.149921
0.149922
0.149922
0.149923
0.149924
0.149924
0.149925
0.149925
0.149926
0.149927
0.149927
0.149928
0.149928
0.149929
0.14993
0.14993
0.149931
0.149931
0.149932
0.149932
0.149933
0.149933
0.149934
0.149934
0.149935
0.149935
0.149936
0.149936
0.149936
0.149937
0.149937
0.149937
0.149938
0.149938
0.149938
0.149938
0.149938
0.149938
0.149939
0.149939
0.149939
0.149939
0.149939
0.149938
0.149938
0.149938
0.149938
0.149938
0.149938
0.149937
0.149937
0.149937
0.149936
0.149936
0.149935
0.149935
0.149934
0.149934
0.149933
0.149933
0.149932
0.149931
0.149931
0.14993
0.14993
0.149929
0.149928
0.149928
0.149927
0.149926
0.149925
0.149925
0.149924
0.149924
0.149923
0.149922
0.149922
0.149921
0.149921
0.149921
0.149921
0.149921
0.149923
0.149927
0.149935
0.149952
0.149988
0.150111
0.150213
0.151557
0.151342
0.159508
0.163448
0.172438
0.131121
0.17388
0.160679
0.157805
0.159708
0.131596
0.13147
0.148349
0.15284
0.147767
0.140048
0.129236
0.126779
0.133446
0.142982
0.138827
0.128442
0.124599
0.122708
0.124424
0.135293
0.132298
0.121361
0.121148
0.119891
0.118996
0.129762
0.127623
0.11716
0.118897
0.118123
0.115731
0.125814
0.124269
0.114602
0.117519
0.117051
0.113699
0.122937
0.121783
0.11297
0.116695
0.116429
0.112375
0.120775
0.119889
0.111883
0.116234
0.116094
0.111471
0.119105
0.118408
0.111124
0.115998
0.115938
0.11083
0.117785
0.117226
0.11058
0.115908
0.115901
0.110369
0.116725
0.116275
0.110191
0.115916
0.115948
0.110043
0.115872
0.115511
0.109925
0.115996
0.116059
0.109832
0.11519
0.114906
0.109765
0.116136
0.116225
0.109722
0.114658
0.114443
0.109703
0.116327
0.116441
0.109706
0.11426
0.114108
0.109733
0.116567
0.116705
0.109782
0.113986
0.113895
0.109853
0.116856
0.117019
0.109948
0.113833
0.113801
0.110065
0.117195
0.117384
0.110206
0.113798
0.113826
0.110372
0.117587
0.117805
0.110562
0.113884
0.113973
0.110778
0.118039
0.118288
0.11102
0.114094
0.114248
0.11129
0.118555
0.118839
0.111589
0.114436
0.114658
0.111917
0.119143
0.119465
0.112276
0.114916
0.115211
0.112667
0.119809
0.120173
0.113091
0.115544
0.115917
0.11355
0.12056
0.120972
0.114046
0.116331
0.116788
0.11458
0.121408
0.121872
0.115155
0.117292
0.117844
0.115775
0.122366
0.122891
0.116441
0.118448
0.119108
0.117159
0.123451
0.124049
0.117931
0.119828
0.120613
0.118763
0.124689
0.125375
0.11966
0.121468
0.122399
0.120628
0.126111
0.126903
0.121674
0.123413
0.124517
0.122804
0.127755
0.128675
0.124026
0.12572
0.127029
0.12535
0.129669
0.130744
0.126785
0.128457
0.130013
0.128342
0.131909
0.133175
0.130036
0.131713
0.133571
0.131881
0.134555
0.136061
0.133896
0.135605
0.137837
0.136102
0.137712
0.139528
0.138524
0.140292
0.143
0.141191
0.141533
0.143757
0.144139
0.145995
0.149319
0.147411
0.146235
0.149011
0.151058
0.153023
0.157166
0.155142
0.152138
0.155684
0.159739
0.161824
0.167082
0.164942
0.159729
0.164381
0.17087
0.173054
0.179873
0.177665
0.169771
0.176076
0.185518
0.187715
0.196795
0.194666
0.183525
0.19243
0.20543
0.2074
0.2199
0.218229
0.203217
0.216491
0.233647
0.234795
0.25275
0.252474
0.233112
0.254376
0.275856
0.274704
0.301975
0.305459
0.282273
0.32005
0.34383
0.336494
0.381101
0.394894
0.373176
0.451982
0.465369
0.440401
0.521906
0.567176
0.577893
0.804193
0.724102
0.639193
0.819735
0.992729
1
1
1
1
1
1
1
1
1
1
1
1
1
0.902799
1
1
1
1
0.734735
0.620012
0.99691
1
1
0.798049
0.531217
0.460498
0.653408
0.806297
0.650227
0.539732
0.401678
0.353107
0.448279
0.531266
0.439845
0.374933
0.313631
0.288177
0.319838
0.372144
0.326832
0.285954
0.272737
0.260835
0.265029
0.298128
0.27949
0.250936
0.251933
0.244072
0.240364
0.266619
0.257587
0.233232
0.237741
0.232562
0.22829
0.251521
0.247737
0.225111
0.228561
0.225499
0.223055
0.245382
0.244362
0.222135
0.223408
0.222004
0.222091
0.244431
0.245431
0.222827
0.221454
0.221877
0.224467
0.247452
0.250601
0.227174
0.223053
0.224979
0.230476
0.254419
0.259235
0.234753
0.227811
0.231464
0.239837
0.264945
0.271635
0.24586
0.236026
0.241528
0.252837
0.279352
0.288197
0.26087
0.248022
0.255643
0.270071
0.298272
0.309751
0.280583
0.264497
0.274774
0.292646
0.322869
0.337885
0.306533
0.286753
0.300797
0.322651
0.355248
0.375465
0.341534
0.317361
0.337337
0.364048
0.399364
0.428085
0.391346
0.361675
0.392593
0.425643
0.463605
0.508769
0.47008
0.43301
0.492251
0.532086
0.569388
0.654205
0.622169
0.581251
0.749927
0.774085
0.783203
0.995099
1
1
1
1
1
1
1
1
1
1
1
1
1
0.78037
0.605076
0.516565
0.464161
0.434998
0.419806
0.415261
0.420291
0.435307
0.460369
0.497506
0.555499
0.6349
0.746938
0.839689
0.942687
1
1
1
1
1
1
1
1
1
1
1
1
1
1
1
1
1
1
1
1
1
1
1
1
1
1
1
1
1
1
1
1
1
1
1
1
1
1
1
1
1
1
1
1
1
1
1
1
1
1
1
1
1
1
1
1
1
1
1
1
1
1
1
1
1
1
1
1
1
1
1
1
1
1
1
1
1
1
1
1
1
1
1
1
1
1
1
1
1
1
1
1
1
1
1
1
1
1
1
1
1
1
1
1
1
1
1
1
1
1
1
1
1
1
1
1
1
1
1
1
1
1
1
1
1
1
1
1
1
1
1
1
1
1
1
1
1
1
1
1
1
1
1
1
1
1
1
1
1
1
1
1
1
1
1
1
1
1
1
1
1
1
1
1
1
1
1
1
1
1
1
1
1
1
1
1
1
1
1
1
1
0.992378
1
1
1
1
1
1
1
1
0.977524
0.903796
0.961174
1
1
1
1
1
1
0.991629
0.893677
0.841776
0.884184
0.981991
1
1
1
1
1
0.94348
0.850935
0.807164
0.86859
1
1
1
1
1
1
0.882828
0.814916
0.779422
0.842977
1
1
1
1
1
1
0.844215
0.761085
0.721707
0.773215
0.922395
1
1
1
1
0.959831
0.782073
0.719166
0.686585
0.733909
0.851514
1
1
1
1
0.917332
0.750208
0.689245
0.65853
0.706705
0.818255
1
1
1
1
0.892379
0.722656
0.662893
0.631438
0.671999
0.777907
0.991983
1
1
0.87725
0.819399
0.685889
0.63408
0.610087
0.650923
0.745923
0.936545
1
1
1
0.828268
0.676244
0.613194
0.59219
0.633705
0.700981
0.811757
1
1
0.946442
0.848729
0.663449
0.604643
0.580846
0.624683
0.737316
0.942193
1
1
1
0.767221
0.638755
0.579772
0.553685
0.590918
0.692089
0.833476
1
1
0.856122
0.730631
0.602213
0.558495
0.53273
0.56276
0.635927
0.795668
1
1
0.752988
0.666368
0.574776
0.533842
0.519913
0.547192
0.60357
0.664814
1
1
0.94231
0.717388
0.576129
0.528262
0.512882
0.542334
0.597085
0.727979
1
0.905848
0.714113
0.657763
0.552463
0.515341
0.497592
0.525705
0.600959
0.723579
1
1
0.77064
0.617418
0.538064
0.500234
0.485712
0.511105
0.57892
0.69261
1
1
0.744147
0.621549
0.523952
0.490759
0.473041
0.494642
0.546332
0.649169
1
0.825541
0.633008
0.585335
0.505638
0.477579
0.466529
0.489081
0.539529
0.607075
0.970784
1
0.722729
0.586173
0.503486
0.470168
0.458819
0.479556
0.514447
0.589435
1
0.82954
0.645798
0.591189
0.494408
0.464434
0.451372
0.47186
0.528365
0.616421
0.943048
1
0.625916
0.532329
0.478944
0.451163
0.439351
0.458093
0.513132
0.593466
0.827175
0.905245
0.634394
0.547922
0.470165
0.444748
0.431041
0.446988
0.487197
0.560382
0.963515
0.757149
0.558298
0.507291
0.45264
0.432889
0.424899
0.442166
0.478656
0.516843
0.803709
0.920559
0.639627
0.537693
0.458286
0.429956
0.419731
0.435313
0.467919
0.531906
0.990665
0.726445
0.537991
0.494331
0.437773
0.417332
0.404574
0.4189
0.476461
0.526528
0.667551
0.847988
0.569113
0.495363
0.429382
0.408155
0.393776
0.408672
0.447753
0.494165
0.763441
0.834865
0.533318
0.456308
0.408695
0.391127
0.383237
0.394708
0.459788
0.50336
0.615254
0.643709
0.503539
0.465844
0.387028
0.374849
0.353855
0.360576
0.423152
0.414629
0.565603
0.583797
0.342658
0.310805
0.310568
0.32384
0.328816
0.309176
0.291895
0.302321
0.486115
0.388719
0.302996
0.312696
0.336022
0.358233
0.368075
0.345388
0.321669
0.298719
0.333186
0.305305
0.304053
0.332533
0.357093
0.379959
0.389677
0.366645
0.341265
0.310037
0.292003
0.284779
0.315507
0.348847
0.375124
0.398552
0.406579
0.382688
0.355431
0.319694
0.279788
0.276889
0.324153
0.361467
0.389572
0.413851
0.419923
0.395696
0.367032
0.328506
0.275273
0.274582
0.333158
0.372996
0.402503
0.427448
0.434816
0.408957
0.378404
0.336859
0.274123
0.274764
0.340815
0.384208
0.415907
0.442901
0.451378
0.423262
0.390412
0.345826
0.277295
0.283947
0.352111
0.397665
0.430966
0.459178
0.467965
0.440044
0.406732
0.361311
0.290633
0.295774
0.37041
0.416565
0.450529
0.479197
0.490465
0.460981
0.426186
0.378734
0.299827
0.303714
0.387526
0.435672
0.471355
0.501689
0.513589
0.481737
0.444846
0.395969
0.306492
0.307658
0.402288
0.452365
0.490811
0.526025
0.526565
0.493984
0.455794
0.404802
0.308234
0.30875
0.406654
0.45775
0.494601
0.524166
0.534822
0.502575
0.464509
0.412451
0.312752
0.315515
0.420388
0.473527
0.512651
0.545915
0.557493
0.523064
0.483028
0.42908
0.31876
0.322325
0.436861
0.492172
0.533319
0.569027
0.580602
0.543306
0.500785
0.444755
0.32783
0.330426
0.450651
0.507851
0.551958
0.591756
0.6
0.557217
0.512327
0.455061
0.334185
0.334249
0.455544
0.512229
0.555182
0.592506
0.582035
0.549523
0.509165
0.453663
0.334393
0.334314
0.452393
0.507713
0.549012
0.586054
0.584004
0.548949
0.507702
0.451575
0.335826
0.336956
0.451737
0.507645
0.547516
0.579369
0.587443
0.552424
0.511424
0.454909
0.34168
0.345574
0.460126
0.517888
0.560064
0.596049
0.603528
0.567376
0.524672
0.466239
0.350586
0.35456
0.473045
0.53201
0.575301
0.612146
0.621511
0.583959
0.539882
0.480247
0.360422
0.364131
0.487553
0.548427
0.59359
0.632378
0.64466
0.602783
0.556507
0.494854
0.369513
0.371362
0.498778
0.561134
0.606888
0.645779
0.644915
0.609339
0.564195
0.500526
0.373191
0.37878
0.508596
0.573715
0.620264
0.659153
0.674727
0.634551
0.586562
0.520294
0.386224
0.392511
0.533229
0.600682
0.649971
0.691552
0.709447
0.665779
0.614813
0.545567
0.397942
0.402759
0.554586
0.626098
0.67979
0.728277
0.73135
0.686036
0.632518
0.559448
0.406941
0.408221
0.561821
0.636872
0.689767
0.7316
0.750079
0.70354
0.647621
0.569485
0.413456
0.427254
0.582688
0.663271
0.721748
0.77131
0.794927
0.743008
0.682184
0.599103
0.439274
0.449835
0.616179
0.702092
0.766106
0.821411
0.851906
0.789246
0.721522
0.632804
0.4609
0.469273
0.646165
0.735983
0.803505
0.862212
0.868786
0.815379
0.749325
0.658144
0.477012
0.485346
0.673958
0.769846
0.839752
0.898852
0.933768
0.870221
0.795889
0.695007
0.498553
0.515405
0.71924
0.825349
0.904358
0.972957
1
0.942405
0.8575
0.746846
0.533367
0.548733
0.772162
0.889914
0.982206
1
1
1
0.915094
0.794011
0.559891
0.571615
0.815942
0.940661
1
1
1
1
0.976628
0.843486
0.587131
0.606274
0.878904
1
1
1
1
1
1
0.922412
0.635899
0.666617
0.96923
1
1
1
1
1
1
1
0.691674
0.713077
1
1
1
1
1
1
1
1
0.742656
0.785526
1
1
1
1
1
1
1
1
0.836275
0.875848
1
1
1
1
1
1
1
1
0.925786
0.987378
1
1
1
1
1
1
1
1
1
1
1
1
1
1
1
1
1
1
1
1
1
1
1
1
1
1
1
1
1
1
1
1
1
1
1
1
1
1
1
1
1
1
1
1
1
1
1
1
1
1
1
1
1
1
1
1
1
1
1
1
1
1
1
1
1
1
1
1
1
1
1
1
1
1
1
1
1
1
1
1
1
1
1
1
1
1
1
1
1
1
1
1
1
1
1
1
1
1
1
1
1
1
1
1
1
1
1
1
1
0.930367
1
1
1
1
0.973366
0.985766
0.99212
0.978704
0.840254
0.755612
0.889296
0.906227
0.903897
0.891523
0.825259
0.831798
0.827712
0.80498
0.672325
0.595777
0.725836
0.754011
0.763613
0.7658
0.701292
0.697937
0.684077
0.650495
0.517866
0.422973
0.575093
0.618222
0.637277
0.645482
0.592592
0.584719
0.562
0.511184
0.346139
0.318973
0.468582
0.517928
0.543017
0.557555
0.522997
0.510973
0.48697
0.444181
0.323123
0.318205
0.422116
0.460705
0.483368
0.4981
0.471484
0.458164
0.435162
0.394845
0.292215
0.254158
0.366112
0.409308
0.432041
0.446417
0.420938
0.408678
0.387482
0.347312
0.241216
0.249372
0.338658
0.37275
0.391523
0.402748
0.388478
0.378041
0.361623
0.332155
0.251319
0.23576
0.323021
0.350151
0.365848
0.375993
0.364785
0.354702
0.339074
0.310241
0.222975
0.222009
0.294852
0.326689
0.34345
0.353191
0.343249
0.332542
0.313632
0.279512
0.218254
0.208444
0.264688
0.301618
0.32234
0.334326
0.329354
0.315924
0.294142
0.257817
0.203398
0.205385
0.252029
0.289099
0.311344
0.325092
0.322106
0.307901
0.285449
0.248764
0.208255
0.213326
0.246619
0.283492
0.306086
0.320317
0.317974
0.302923
0.279527
0.241907
0.213894
0.204298
0.2359
0.276674
0.301742
0.317538
0.31621
0.300138
0.274587
0.231998
0.197825
0.206651
0.238087
0.278733
0.303277
0.318814
0.319669
0.305582
0.283336
0.245729
0.215999
0.220623
0.253051
0.288991
0.310622
0.324096
0.326027
0.312065
0.291478
0.258118
0.224398
0.22526
0.259438
0.290769
0.30995
0.321854
0.32466
0.312396
0.293093
0.26194
0.22327
0.22218
0.2654
0.294953
0.313306
0.325141
0.329896
0.318328
0.300339
0.272166
0.227127
0.236913
0.279873
0.305593
0.321714
0.333143
0.33204
0.323294
0.309766
0.28769
0.246674
0.253042
0.294042
0.315429
0.328605
0.336875
0.339604
0.331142
0.319203
0.299395
0.258432
0.261403
0.30197
0.320987
0.331701
0.338409
0.34201
0.335362
0.324176
0.304063
0.262628
0.264
0.306368
0.325897
0.336556
0.343809
0.34223
0.336294
0.32629
0.306911
0.264078
0.262158
0.308194
0.328505
0.338905
0.345035
0.345917
0.340363
0.330526
0.311208
0.261967
0.268093
0.316808
0.334925
0.344429
0.350058
0.35271
0.347091
0.338689
0.322437
0.275173
0.280046
0.326441
0.341356
0.348667
0.352833
0.356482
0.35252
0.345321
0.33048
0.283312
0.286557
0.333879
0.347893
0.354464
0.358614
0.358736
0.355515
0.349422
0.335774
0.288427
0.291054
0.338912
0.352562
0.358613
0.361754
0.363423
0.359984
0.354181
0.340625
0.292813
0.293777
0.34179
0.355098
0.360673
0.363416
0.365939
0.363111
0.357321
0.343455
0.294538
0.295676
0.344482
0.358432
0.364069
0.367236
0.367075
0.36445
0.358849
0.344994
0.296023
0.296522
0.346343
0.360678
0.366516
0.369256
0.370253
0.367131
0.361407
0.347207
0.297154
0.296628
0.346919
0.361503
0.367302
0.369928
0.371858
0.369106
0.363169
0.348891
0.297593
0.298292
0.349413
0.363655
0.369506
0.372678
0.372245
0.369492
0.363602
0.349308
0.298224
0.298334
0.349974
0.36491
0.371112
0.374111
0.374911
0.371474
0.365143
0.350087
0.298533
0.297633
0.348624
0.364391
0.371081
0.374729
0.373973
0.37055
0.363552
0.347014
0.296389
0.295387
0.347425
0.364301
0.371505
0.375162
0.375411
0.37131
0.364184
0.347758
0.295241
0.295018
0.347623
0.363719
0.37083
0.374423
0.375793
0.371894
0.364591
0.348426
0.295283
0.2951
0.34819
0.364387
0.371643
0.375958
0.374851
0.371114
0.363869
0.347799
0.294835
0.294879
0.348015
0.364551
0.372053
0.37613
0.376228
0.371779
0.364407
0.348415
0.294981
0.294259
0.34714
0.363655
0.371122
0.375007
0.376186
0.371907
0.364224
0.347628
0.293826
0.293785
0.347313
0.363826
0.371461
0.376135
0.374758
0.370694
0.363044
0.346426
0.293029
0.292682
0.346621
0.363395
0.371297
0.375797
0.375598
0.370704
0.362814
0.345896
0.292002
0.290854
0.344635
0.361794
0.369766
0.374051
0.374984
0.37026
0.362073
0.344894
0.290779
0.290296
0.344213
0.361415
0.36958
0.37469
0.372956
0.368431
0.360088
0.342379
0.28874
0.287302
0.342028
0.360069
0.368711
0.373744
0.373323
0.367825
0.359187
0.341387
0.286522
0.285112
0.339607
0.357887
0.366643
0.371458
0.372221
0.366881
0.357895
0.339319
0.283964
0.283385
0.338679
0.357034
0.365998
0.371751
0.369785
0.364741
0.35574
0.336974
0.28168
0.27982
0.336062
0.35539
0.364806
0.370458
0.369905
0.363789
0.354383
0.335404
0.278516
0.276977
0.333544
0.353093
0.362566
0.367916
0.368603
0.362629
0.352948
0.333294
0.275759
0.275289
0.332174
0.351891
0.361641
0.368036
0.366221
0.360534
0.350673
0.331358
0.274051
0.273502
0.33092
0.350518
0.360743
0.36708
0.366483
0.359997
0.349776
0.330293
0.271405
0.271398
0.328958
0.34932
0.359451
0.36523
0.366571
0.360162
0.349808
0.330497
0.267445
0.271451
0.331412
0.350451
0.360317
0.366726
0.366175
0.360674
0.351112
0.333555
0.266422
0.269402
0.335096
0.352853
0.361862
0.36705
0.368033
0.363336
0.354603
0.336746
0.268313
0.270423
0.338357
0.356662
0.365476
0.371059
0.370509
0.365564
0.357001
0.337876
0.272436
0.275017
0.336663
0.355902
0.364391
0.369031
0.366543
0.362538
0.353891
0.335146
0.276444
0.278356
0.335151
0.353234
0.361815
0.366043
0.364749
0.360769
0.352692
0.335174
0.280057
0.281931
0.33609
0.352875
0.360801
0.364683
0.363279
0.359727
0.352511
0.336411
0.283915
0.286601
0.336096
0.351289
0.358042
0.360917
0.360772
0.357523
0.350807
0.335384
0.282742
0.279294
0.333615
0.349158
0.355828
0.359188
0.356638
0.353664
0.34682
0.330796
0.275982
0.274474
0.329718
0.345962
0.352985
0.35641
0.354826
0.351241
0.344333
0.328458
0.273415
0.271503
0.325992
0.342027
0.349018
0.352185
0.351899
0.348252
0.341052
0.32474
0.270086
0.268845
0.323394
0.339385
0.346454
0.35024
0.347491
0.344191
0.337043
0.320796
0.267185
0.266714
0.320022
0.336151
0.343366
0.347151
0.345391
0.341473
0.334387
0.318652
0.265591
0.263047
0.315823
0.331778
0.338992
0.342452
0.34196
0.3379
0.330471
0.314235
0.261257
0.259938
0.31238
0.328524
0.335941
0.340153
0.337199
0.333534
0.32615
0.310133
0.258842
0.257515
0.308685
0.324902
0.33249
0.336737
0.334889
0.330407
0.322777
0.306555
0.255127
0.253099
0.304017
0.320159
0.327812
0.331735
0.331062
0.326704
0.318937
0.302741
0.252014
0.250922
0.301265
0.317391
0.325113
0.329405
0.32895
0.324402
0.316431
0.300291
0.249961
0.249062
0.29884
0.314898
0.322506
0.327038
0.323824
0.319976
0.3125
0.296913
0.248478
0.24712
0.295501
0.311175
0.318731
0.323141
0.321081
0.31641
0.308762
0.293073
0.244513
0.241876
0.289794
0.30578
0.313513
0.317619
0.316681
0.312069
0.304123
0.288013
0.240115
0.238997
0.286315
0.30236
0.310269
0.314851
0.314217
0.309344
0.301203
0.285193
0.237992
0.236686
0.283567
0.299299
0.307184
0.312121
0.308583
0.304318
0.296514
0.280874
0.235075
0.23335
0.279171
0.294955
0.302955
0.307812
0.305823
0.300677
0.292647
0.276832
0.231275
0.229656
0.274244
0.289913
0.297842
0.302298
0.301494
0.296534
0.288426
0.272661
0.228305
0.227179
0.271133
0.286796
0.294802
0.299707
0.299176
0.293962
0.285614
0.269924
0.22613
0.22458
0.268186
0.283721
0.291855
0.297172
0.293509
0.288909
0.280924
0.265564
0.222893
0.221434
0.263924
0.279391
0.287583
0.292796
0.290891
0.285427
0.277251
0.261821
0.21973
0.217862
0.25891
0.274434
0.282518
0.28727
0.286523
0.28126
0.272898
0.257383
0.216531
0.21523
0.255806
0.271343
0.27951
0.284708
0.284286
0.278716
0.270163
0.254709
0.214228
0.212948
0.253156
0.26835
0.276674
0.282359
0.278664
0.273813
0.265734
0.250752
0.211231
0.21028
0.249347
0.264345
0.272599
0.277933
0.276132
0.270939
0.262913
0.248071
0.209445
0.208188
0.246797
0.26167
0.270061
0.275686
0.27377
0.268042
0.259782
0.244958
0.206513
0.204794
0.242241
0.257093
0.265127
0.270041
0.269365
0.263941
0.255638
0.240745
0.203771
0.202953
0.23944
0.254189
0.262278
0.267551
0.267193
0.261465
0.253065
0.238334
0.201866
0.200063
0.23657
0.251178
0.25945
0.265304
0.261557
0.256542
0.248512
0.23409
0.198452
0.197518
0.232609
0.24711
0.255385
0.260929
0.25916
0.25379
0.245738
0.231325
0.196607
0.195477
0.230243
0.244685
0.253104
0.258913
0.257198
0.251285
0.24304
0.228818
0.194308
0.193243
0.226553
0.240669
0.248581
0.253589
0.253097
0.247593
0.239472
0.225337
0.19266
0.19195
0.224401
0.238258
0.246121
0.251411
0.251147
0.245406
0.237187
0.223222
0.190677
0.189031
0.221487
0.235345
0.243458
0.249337
0.24559
0.240533
0.232656
0.218843
0.187269
0.185901
0.217175
0.231186
0.239391
0.245003
0.243224
0.237806
0.229781
0.21588
0.184947
0.184212
0.214913
0.228767
0.237103
0.243038
0.241399
0.235401
0.22726
0.213495
0.183219
0.181945
0.21106
0.224815
0.232667
0.237771
0.237369
0.23172
0.223587
0.20971
0.180763
0.180261
0.208862
0.222424
0.23036
0.235735
0.235599
0.229844
0.22186
0.208557
0.179847
0.178897
0.207515
0.220728
0.228524
0.233907
0.233758
0.227933
0.219799
0.206591
0.177884
0.176793
0.205236
0.218331
0.226236
0.232114
0.228543
0.223531
0.215934
0.202904
0.175706
0.174976
0.201694
0.214752
0.222646
0.228185
0.226543
0.22125
0.213574
0.200636
0.174161
0.173331
0.199729
0.212653
0.220692
0.226499
0.224966
0.219085
0.211254
0.19831
0.172378
0.171111
0.196185
0.208909
0.216428
0.221443
0.221102
0.215565
0.207699
0.194905
0.170132
0.169255
0.193777
0.206533
0.214191
0.219486
0.219423
0.213681
0.205892
0.193317
0.168587
0.16801
0.192514
0.204914
0.21248
0.217783
0.217774
0.212045
0.204152
0.191683
0.167319
0.166605
0.190716
0.202923
0.210547
0.216317
0.212895
0.207997
0.200709
0.188416
0.165537
0.164682
0.187286
0.199593
0.207216
0.21264
0.211129
0.206015
0.19864
0.186376
0.16422
0.163892
0.18618
0.198156
0.205653
0.211206
0.209628
0.204511
0.197274
0.185484
0.16325
0.162441
0.184725
0.196474
0.20408
0.209674
0.208228
0.202581
0.195174
0.183485
0.161521
0.160376
0.181403
0.193039
0.200066
0.20486
0.204617
0.19928
0.191875
0.180084
0.159379
0.158856
0.179107
0.190846
0.198051
0.203093
0.203166
0.197633
0.190264
0.17859
0.158395
0.157898
0.178007
0.189445
0.196549
0.201601
0.201726
0.196178
0.188724
0.177297
0.157324
0.156492
0.176255
0.187582
0.194821
0.200377
0.197097
0.19239
0.185526
0.174207
0.155509
0.154772
0.173117
0.184484
0.191702
0.196947
0.195465
0.190543
0.18355
0.172378
0.154298
0.153755
0.171896
0.18303
0.190178
0.195607
0.194097
0.189141
0.182246
0.171333
0.153175
0.152594
0.170666
0.181565
0.188804
0.194243
0.192985
0.187525
0.180497
0.169693
0.151909
0.151145
0.167942
0.17858
0.185198
0.1898
0.189718
0.184583
0.177613
0.166811
0.150515
0.150092
0.166019
0.176728
0.183491
0.188272
0.188459
0.183191
0.176306
0.165691
0.149669
0.149021
0.164924
0.175495
0.182203
0.187006
0.187183
0.181936
0.17505
0.164627
0.148576
0.148129
0.164055
0.174336
0.180918
0.185644
0.185805
0.180569
0.173672
0.163495
0.147584
0.146842
0.162469
0.172564
0.179278
0.184524
0.181384
0.176953
0.170645
0.16055
0.145908
0.145287
0.159328
0.169652
0.17632
0.181311
0.179892
0.175277
0.16879
0.158631
0.144873
0.144335
0.158122
0.168254
0.174924
0.18007
0.178647
0.17398
0.167495
0.157483
0.143798
0.143554
0.157217
0.167128
0.173796
0.178926
0.177466
0.172872
0.166528
0.156813
0.143344
0.142948
0.156353
0.165981
0.172634
0.177722
0.176552
0.171477
0.165019
0.155464
0.142347
0.141673
0.153922
0.163226
0.169238
0.17352
0.173467
0.168636
0.162278
0.152568
0.140906
0.140219
0.151763
0.161359
0.167587
0.172065
0.17228
0.167228
0.160741
0.151078
0.139576
0.13923
0.150625
0.160103
0.166356
0.17086
0.171178
0.166152
0.159748
0.150389
0.138968
0.138558
0.149916
0.159094
0.165248
0.169737
0.170032
0.165015
0.158555
0.149415
0.138219
0.137723
0.148619
0.157694
0.163976
0.168942
0.166041
0.161858
0.156029
0.147081
0.137056
0.136677
0.145909
0.155215
0.16139
0.166126
0.164793
0.160473
0.154467
0.145298
0.136284
0.135815
0.14498
0.15408
0.160242
0.165117
0.163773
0.159407
0.153417
0.144432
0.13542
0.134957
0.144243
0.153106
0.159287
0.164137
0.162742
0.15841
0.152465
0.143723
0.134489
0.134014
0.143363
0.151986
0.158186
0.163052
0.162032
0.157196
0.151121
0.142434
0.133531
0.133217
0.141196
0.149583
0.155175
0.159226
0.159345
0.154736
0.148811
0.140182
0.132815
0.132341
0.139555
0.148104
0.153865
0.158041
0.158413
0.153653
0.147688
0.139142
0.132058
0.131761
0.138724
0.147113
0.1529
0.15709
0.157523
0.152825
0.146926
0.138601
0.13151
0.131259
0.138286
0.146393
0.152063
0.156199
0.15657
0.151902
0.146072
0.137929
0.130631
0.130156
0.137432
0.145453
0.151037
0.155168
0.155465
0.150824
0.144943
0.136979
0.129815
0.12942
0.136228
0.144146
0.149868
0.154477
0.151794
0.147943
0.142669
0.134926
0.12889
0.128565
0.13396
0.141909
0.147506
0.151925
0.150634
0.146673
0.141248
0.133376
0.128288
0.127826
0.132958
0.140856
0.14649
0.151043
0.149759
0.145763
0.140311
0.132486
0.127498
0.127342
0.132358
0.140075
0.145689
0.150219
0.148918
0.144959
0.139599
0.132046
0.12709
0.126804
0.13175
0.13919
0.144819
0.149309
0.148403
0.143943
0.138482
0.131092
0.126452
0.125971
0.129785
0.137054
0.142107
0.145813
0.145993
0.141732
0.136384
0.128943
0.12573
0.125321
0.128319
0.135727
0.140907
0.144731
0.145163
0.140721
0.135301
0.127857
0.124842
0.124537
0.127457
0.134755
0.140008
0.143864
0.144346
0.139905
0.134486
0.127178
0.124168
0.123825
0.126777
0.133982
0.139197
0.143053
0.143538
0.139135
0.133755
0.126601
0.123615
0.123409
0.126301
0.133295
0.138419
0.142215
0.142632
0.13827
0.132918
0.126097
0.123217
0.122936
0.125493
0.132261
0.13745
0.14175
0.139228
0.13568
0.130916
0.124272
0.122529
0.122333
0.123365
0.130272
0.135345
0.139452
0.138188
0.13457
0.129645
0.122839
0.122177
0.121805
0.122423
0.129266
0.134402
0.138658
0.137351
0.133671
0.128709
0.121918
0.121358
0.121038
0.121651
0.128425
0.133588
0.137853
0.136569
0.132899
0.127939
0.121272
0.120781
0.120407
0.121072
0.127693
0.132803
0.137053
0.135773
0.13211
0.127188
0.120643
0.119905
0.119667
0.120442
0.126946
0.132036
0.136269
0.135005
0.131365
0.126525
0.12016
0.119554
0.119341
0.119963
0.126218
0.13129
0.135467
0.13467
0.130554
0.125656
0.119485
0.119147
0.118876
0.118577
0.124468
0.128946
0.132306
0.132577
0.128638
0.123925
0.117885
0.118726
0.118467
0.117277
0.123339
0.127958
0.131386
0.131906
0.127851
0.12304
0.116889
0.11813
0.117832
0.116497
0.122563
0.127218
0.130694
0.131249
0.127205
0.12239
0.116272
0.117518
0.11724
0.11595
0.121926
0.126568
0.130033
0.130583
0.126549
0.121742
0.115723
0.116927
0.116663
0.115459
0.121337
0.125902
0.129353
0.12981
0.12581
0.12099
0.115223
0.116432
0.116265
0.11478
0.120449
0.125117
0.129055
0.126806
0.123599
0.119363
0.114028
0.11612
0.116059
0.113365
0.118859
0.123324
0.12709
0.12591
0.122654
0.118311
0.112768
0.115759
0.115394
0.112308
0.117973
0.122539
0.126428
0.12524
0.121935
0.117515
0.111901
0.115107
0.114899
0.111703
0.117339
0.121922
0.125814
0.12463
0.121344
0.116932
0.111419
0.114708
0.114434
0.111257
0.116749
0.121316
0.125216
0.124015
0.120717
0.116353
0.110928
0.1141
0.113903
0.110698
0.11601
0.120616
0.124486
0.12378
0.119981
0.115525
0.110323
0.113816
0.113719
0.109664
0.114516
0.118519
0.121583
0.121922
0.118272
0.114032
0.109073
0.113637
0.113548
0.108599
0.113547
0.117644
0.120749
0.121317
0.117564
0.113234
0.108192
0.113183
0.112797
0.107762
0.112783
0.116979
0.120138
0.120744
0.116953
0.112585
0.107489
0.112509
0.1123
0.107198
0.112183
0.116382
0.119542
0.120159
0.116375
0.112028
0.107004
0.11201
0.111753
0.106732
0.111621
0.115779
0.118954
0.11944
0.115699
0.111331
0.106508
0.111529
0.11138
0.106086
0.110835
0.115087
0.118756
0.116627
0.11368
0.109875
0.105495
0.111227
0.111309
0.10492
0.109418
0.11346
0.117001
0.115865
0.112893
0.108985
0.1045
0.111343
0.111102
0.104162
0.108756
0.112861
0.11649
0.115323
0.112304
0.108334
0.103784
0.110746
0.110467
0.103522
0.108165
0.112325
0.115972
0.114804
0.111778
0.107767
0.103204
0.110136
0.109882
0.103024
0.107612
0.111789
0.115453
0.114289
0.111236
0.107263
0.102756
0.109605
0.109327
0.10256
0.10699
0.111201
0.114805
0.114171
0.110625
0.106553
0.102275
0.109274
0.109342
0.101868
0.105675
0.109311
0.112132
0.112538
0.10911
0.105259
0.101382
0.109243
0.109007
0.100841
0.104804
0.108521
0.111392
0.112043
0.108511
0.10459
0.100448
0.108703
0.108574
0.100117
0.104212
0.107999
0.110896
0.111583
0.10805
0.104084
0.0999015
0.108438
0.108049
0.0996172
0.103749
0.107543
0.11044
0.111118
0.107567
0.103596
0.0994303
0.107812
0.107647
0.0992271
0.103283
0.107053
0.109975
0.110494
0.107021
0.103064
0.0991177
0.107523
0.107429
0.0988669
0.102627
0.106486
0.109886
0.107883
0.105185
0.101719
0.0985001
0.107405
0.107449
0.0980885
0.101302
0.104978
0.108296
0.107158
0.104433
0.100884
0.0974776
0.107255
0.107043
0.097078
0.100666
0.104385
0.107791
0.10665
0.10388
0.100279
0.0966927
0.106782
0.106478
0.0963493
0.1001
0.103896
0.107335
0.106185
0.103383
0.0997419
0.0960345
0.106177
0.105836
0.0957737
0.0995792
0.103411
0.106875
0.105756
0.102916
0.099271
0.0955516
0.105662
0.105642
0.0954385
0.0990939
0.102918
0.106298
0.105746
0.102425
0.0986945
0.0953211
0.105662
0.105674
0.0950586
0.0977903
0.101197
0.103826
0.104275
0.101027
0.0974627
0.094775
0.105729
0.105681
0.0943019
0.0971337
0.100539
0.103186
0.103865
0.100545
0.0969717
0.0939481
0.105548
0.105289
0.0935967
0.0966403
0.100074
0.10275
0.103462
0.10014
0.0965374
0.0932908
0.104969
0.104677
0.0929869
0.0961838
0.0996457
0.102346
0.10305
0.099706
0.0960531
0.092745
0.104318
0.103962
0.0924554
0.0957477
0.0992134
0.101938
0.102499
0.0991981
0.0955288
0.0922607
0.103772
0.103687
0.0921163
0.0951094
0.098707
0.10195
0.100123
0.0975702
0.0943029
0.0919084
0.1037
0.103723
0.0916694
0.0940206
0.0974157
0.100598
0.0995323
0.0969522
0.0937133
0.0912573
0.103686
0.103573
0.0909705
0.0936051
0.0970384
0.100248
0.0991977
0.0965983
0.0933284
0.0906834
0.103393
0.103013
0.0903719
0.0932276
0.0966987
0.0999327
0.0988898
0.0962509
0.092963
0.0901305
0.102794
0.102757
0.0899244
0.0927864
0.0962768
0.0994792
0.0989661
0.0958234
0.0924128
0.089889
0.10266
0.102655
0.0896721
0.0916526
0.0947381
0.0971855
0.097665
0.0945839
0.0913738
0.0893527
0.102676
0.102592
0.0889438
0.0910383
0.0941254
0.0966165
0.0972903
0.0941691
0.0908879
0.08859
0.102275
0.102
0.0882233
0.0905552
0.0937143
0.0962495
0.0969392
0.0937674
0.0904062
0.0878655
0.101481
0.101211
0.0875543
0.0901106
0.0933078
0.095912
0.0964645
0.0933
0.0898732
0.0872304
0.100887
0.100864
0.0871406
0.0894769
0.0928435
0.095964
0.0942258
0.0917892
0.0887461
0.0869739
0.10108
0.101421
0.0867829
0.0885377
0.0916878
0.0947292
0.0937267
0.0912831
0.0882698
0.0864537
0.101429
0.101378
0.0861931
0.0882108
0.0913906
0.0944281
0.0934491
0.0909901
0.0879419
0.0859142
0.101074
0.100845
0.0856675
0.0878743
0.0911112
0.0941737
0.0931936
0.0906954
0.087621
0.0854264
0.10058
0.100427
0.0851946
0.0874737
0.0907202
0.0937823
0.0932798
0.0902733
0.0870836
0.0851512
0.100318
0.100218
0.0849532
0.086358
0.0892477
0.0915806
0.0920448
0.0890805
0.0860697
0.0846591
0.10022
0.0999472
0.0841821
0.0857084