/*--------------------------------*- C++ -*----------------------------------*\
| =========                 |                                                 |
| \\      /  F ield         | OpenFOAM: The Open Source CFD Toolbox           |
|  \\    /   O peration     | Version:  v2006                                 |
|   \\  /    A nd           | Website:  www.openfoam.com                      |
|    \\/     M anipulation  |                                                 |
\*---------------------------------------------------------------------------*/
FoamFile
{
    version     2.0;
    format      ascii;
    class       volScalarField;
    location    "0.03";
    object      rho;
}
// * * * * * * * * * * * * * * * * * * * * * * * * * * * * * * * * * * * * * //

dimensions      [1 -3 0 0 0 0 0];


internalField   nonuniform List<scalar> 
23013
(
1.7311
1.73114
1.73119
1.73104
1.73114
1.73111
1.73112
1.73113
1.73115
1.73117
1.73119
1.73122
1.73124
1.73127
1.73129
1.73132
1.73135
1.73138
1.73141
1.73144
1.73147
1.73151
1.73154
1.73158
1.73162
1.73166
1.7317
1.73174
1.73179
1.73183
1.73188
1.73192
1.73197
1.73202
1.73207
1.73212
1.73217
1.73223
1.73228
1.73234
1.73239
1.73245
1.73251
1.73257
1.73262
1.73268
1.73275
1.73281
1.73287
1.73293
1.73299
1.73306
1.73312
1.73318
1.73325
1.73331
1.73338
1.73344
1.73351
1.73357
1.73364
1.73371
1.73377
1.73384
1.7339
1.73397
1.73403
1.7341
1.73416
1.73422
1.73429
1.73435
1.73441
1.73447
1.73453
1.73459
1.73465
1.73471
1.73477
1.73483
1.73489
1.73494
1.735
1.73505
1.7351
1.73515
1.7352
1.73525
1.7353
1.73535
1.73539
1.73544
1.73548
1.73552
1.73556
1.7356
1.73564
1.73568
1.73571
1.73575
1.73578
1.73581
1.73584
1.73586
1.73589
1.73591
1.73594
1.73596
1.73597
1.73599
1.736
1.736
1.736
1.73601
1.736
1.73601
1.73601
1.73604
1.73607
1.73613
1.73621
1.73625
1.73621
1.73611
1.73622
1.73623
1.7362
1.73617
1.73604
1.73597
1.73613
1.73618
1.73614
1.73608
1.73591
1.73587
1.73605
1.73611
1.73608
1.73601
1.73584
1.73581
1.73599
1.73606
1.73604
1.73597
1.73579
1.73578
1.73595
1.73603
1.73601
1.73593
1.73578
1.73578
1.73593
1.73601
1.73599
1.73592
1.73578
1.73578
1.73592
1.73599
1.73598
1.73591
1.73579
1.73579
1.73591
1.73599
1.73598
1.73591
1.7358
1.73581
1.73592
1.73599
1.73599
1.73592
1.73582
1.73583
1.73594
1.736
1.736
1.73594
1.73584
1.73586
1.73595
1.73601
1.73602
1.73596
1.73587
1.73589
1.73597
1.73603
1.73604
1.73598
1.7359
1.73592
1.736
1.73605
1.73606
1.73601
1.73593
1.73595
1.73602
1.73608
1.73609
1.73604
1.73597
1.73599
1.73606
1.73611
1.73612
1.73607
1.73601
1.73604
1.73609
1.73614
1.73616
1.73611
1.73606
1.73608
1.73614
1.73618
1.7362
1.73615
1.73611
1.73614
1.73618
1.73622
1.73624
1.7362
1.73616
1.73619
1.73623
1.73627
1.73629
1.73625
1.73622
1.73625
1.73628
1.73632
1.73634
1.73631
1.73628
1.73631
1.73634
1.73637
1.73639
1.73637
1.73634
1.73637
1.7364
1.73643
1.73645
1.73643
1.7364
1.73644
1.73646
1.73649
1.73651
1.73649
1.73647
1.7365
1.73652
1.73655
1.73657
1.73655
1.73654
1.73657
1.73659
1.73661
1.73664
1.73662
1.73661
1.73664
1.73666
1.73667
1.7367
1.73669
1.73668
1.73671
1.73673
1.73674
1.73677
1.73676
1.73675
1.73679
1.7368
1.73681
1.73684
1.73683
1.73682
1.73686
1.73686
1.73688
1.73691
1.7369
1.73689
1.73692
1.73693
1.73695
1.73698
1.73696
1.73695
1.73698
1.737
1.73701
1.73704
1.73703
1.73701
1.73704
1.73706
1.73707
1.7371
1.73709
1.73707
1.73709
1.73711
1.73713
1.73716
1.73714
1.73712
1.73713
1.73716
1.73718
1.73721
1.73719
1.73716
1.73717
1.73721
1.73723
1.73726
1.73723
1.7372
1.73721
1.73725
1.73727
1.73729
1.73727
1.73723
1.73724
1.73728
1.73731
1.73733
1.7373
1.73726
1.73726
1.73731
1.73734
1.73736
1.73733
1.73728
1.73729
1.73733
1.73737
1.73738
1.73735
1.7373
1.7373
1.73735
1.73739
1.7374
1.73737
1.73732
1.73731
1.73737
1.7374
1.73741
1.73738
1.73732
1.73732
1.73738
1.73741
1.73742
1.73738
1.73733
1.73732
1.73738
1.73742
1.73742
1.73738
1.73732
1.73732
1.73737
1.73741
1.73741
1.73737
1.73731
1.7373
1.73735
1.73739
1.73738
1.73735
1.73729
1.73728
1.73733
1.73736
1.73735
1.73731
1.73726
1.73724
1.73729
1.73733
1.73731
1.73727
1.73722
1.7372
1.73725
1.73728
1.73725
1.73722
1.73717
1.73713
1.73718
1.73721
1.73717
1.73713
1.73709
1.73704
1.73709
1.73712
1.73707
1.73704
1.73699
1.73694
1.73699
1.73702
1.73695
1.73692
1.73688
1.73682
1.73687
1.73689
1.73682
1.73679
1.73675
1.73668
1.73672
1.73675
1.73667
1.73664
1.7366
1.73652
1.73656
1.73659
1.7365
1.73648
1.73643
1.73634
1.73639
1.73642
1.73632
1.7363
1.73625
1.73615
1.7362
1.73623
1.73613
1.73611
1.73606
1.73596
1.73601
1.73604
1.73594
1.73591
1.73586
1.73575
1.73581
1.73584
1.73574
1.73571
1.73566
1.73555
1.73561
1.73564
1.73554
1.73551
1.73545
1.73535
1.73541
1.73545
1.73535
1.73531
1.73525
1.73515
1.73521
1.73525
1.73516
1.73512
1.73505
1.73495
1.73502
1.73506
1.73497
1.73493
1.73486
1.73476
1.73483
1.73488
1.73479
1.73474
1.73467
1.73457
1.73465
1.7347
1.73461
1.73456
1.73449
1.73439
1.73448
1.73453
1.73444
1.73439
1.73431
1.73422
1.73431
1.73436
1.73428
1.73423
1.73414
1.73405
1.73415
1.7342
1.73413
1.73407
1.73398
1.7339
1.734
1.73406
1.73399
1.73393
1.73383
1.73376
1.73386
1.73392
1.73386
1.73379
1.7337
1.73363
1.73373
1.7338
1.73374
1.73367
1.73358
1.73352
1.73362
1.73369
1.73364
1.73357
1.73348
1.73343
1.73353
1.7336
1.73355
1.73348
1.73339
1.73335
1.73344
1.73351
1.73348
1.73341
1.73332
1.73329
1.73338
1.73345
1.73341
1.73334
1.73326
1.73324
1.73332
1.73339
1.73336
1.7333
1.73322
1.7332
1.73328
1.73334
1.73332
1.73326
1.73319
1.73318
1.73325
1.73331
1.73329
1.73323
1.73317
1.73316
1.73322
1.73328
1.73326
1.73321
1.73316
1.73315
1.7332
1.73326
1.73324
1.73319
1.73315
1.73314
1.73319
1.73324
1.73323
1.73318
1.73314
1.73314
1.73318
1.73323
1.73322
1.73318
1.73314
1.73314
1.73318
1.73322
1.73321
1.73317
1.73314
1.73314
1.73317
1.73321
1.73321
1.73317
1.73314
1.73314
1.73317
1.73321
1.7332
1.73317
1.73314
1.73314
1.73317
1.7332
1.73319
1.73316
1.73314
1.73314
1.73316
1.73319
1.73319
1.73316
1.73314
1.73313
1.73315
1.73318
1.73318
1.73315
1.73313
1.73313
1.73315
1.73318
1.73317
1.73314
1.73312
1.73312
1.73314
1.73317
1.73316
1.73313
1.73311
1.73311
1.73313
1.73316
1.73315
1.73312
1.7331
1.73309
1.73312
1.73314
1.73313
1.73311
1.73308
1.73308
1.7331
1.73313
1.73312
1.73309
1.73306
1.73306
1.73308
1.73311
1.7331
1.73307
1.73304
1.73303
1.73306
1.73309
1.73308
1.73305
1.73302
1.73301
1.73304
1.73307
1.73305
1.73302
1.73299
1.73298
1.73301
1.73304
1.73302
1.73299
1.73296
1.73295
1.73298
1.73301
1.73299
1.73296
1.73293
1.73291
1.73295
1.73298
1.73296
1.73293
1.73289
1.73288
1.73291
1.73295
1.73292
1.73289
1.73286
1.73284
1.73288
1.73291
1.73289
1.73285
1.73282
1.7328
1.73284
1.73287
1.73285
1.73281
1.73278
1.73276
1.7328
1.73283
1.73281
1.73278
1.73274
1.73272
1.73276
1.73279
1.73277
1.73274
1.7327
1.73268
1.73272
1.73275
1.73273
1.7327
1.73266
1.73264
1.73268
1.73271
1.73269
1.73266
1.73262
1.73263
1.73267
1.7327
1.73268
1.73266
1.73263
1.73261
1.73263
1.73265
1.73262
1.73261
1.73258
1.73256
1.73258
1.73259
1.73266
1.73272
1.73275
1.73277
1.73276
1.73276
1.73276
1.73275
1.73274
1.73273
1.73272
1.73271
1.73271
1.73269
1.73264
1.7326
1.73259
1.73255
1.73246
1.73243
1.73245
1.73248
1.73248
1.73247
1.73246
1.73244
1.73244
1.73244
1.73242
1.73241
1.73242
1.73244
1.73243
1.73243
1.73244
1.73244
1.73244
1.73245
1.73244
1.73244
1.73245
1.73245
1.73246
1.73247
1.73246
1.73246
1.73246
1.73246
1.73247
1.73248
1.73247
1.73247
1.73248
1.73248
1.73249
1.7325
1.73249
1.73249
1.73249
1.73249
1.7325
1.73251
1.7325
1.7325
1.73251
1.73251
1.73252
1.73253
1.73252
1.73252
1.73252
1.73253
1.73254
1.73255
1.73254
1.73253
1.73254
1.73254
1.73255
1.73256
1.73255
1.73255
1.73256
1.73256
1.73257
1.73258
1.73257
1.73257
1.73257
1.73257
1.73258
1.73259
1.73258
1.73258
1.73259
1.73259
1.7326
1.73261
1.7326
1.7326
1.7326
1.7326
1.73261
1.73262
1.73261
1.73261
1.73262
1.73261
1.73262
1.73263
1.73262
1.73262
1.73263
1.73263
1.73264
1.73265
1.73264
1.73264
1.73264
1.73264
1.73265
1.73266
1.73265
1.73265
1.73266
1.73266
1.73266
1.73267
1.73266
1.73267
1.73267
1.73267
1.73268
1.73269
1.73268
1.73268
1.73268
1.73268
1.73269
1.7327
1.73269
1.73269
1.73269
1.73269
1.7327
1.73271
1.7327
1.7327
1.73271
1.73271
1.73272
1.73273
1.73272
1.73271
1.73272
1.73272
1.73273
1.73274
1.73273
1.73272
1.73273
1.73273
1.73275
1.73276
1.73274
1.73274
1.73274
1.73274
1.73276
1.73277
1.73275
1.73275
1.73275
1.73276
1.73277
1.73279
1.73277
1.73276
1.73277
1.73277
1.73279
1.7328
1.73278
1.73277
1.73278
1.73279
1.7328
1.73281
1.73279
1.73279
1.73279
1.7328
1.73281
1.73282
1.7328
1.7328
1.7328
1.73281
1.73282
1.73284
1.73282
1.73281
1.73281
1.73282
1.73284
1.73284
1.73283
1.73282
1.73283
1.73283
1.73285
1.73286
1.73284
1.73283
1.73284
1.73284
1.73286
1.73286
1.73285
1.73284
1.73285
1.73285
1.73287
1.73287
1.73286
1.73286
1.73286
1.73286
1.73288
1.73288
1.73287
1.73287
1.73287
1.73287
1.73288
1.73289
1.73288
1.73288
1.73288
1.73288
1.73289
1.7329
1.73289
1.73289
1.73289
1.73289
1.7329
1.73291
1.73289
1.73289
1.7329
1.7329
1.73291
1.73291
1.7329
1.7329
1.7329
1.7329
1.73291
1.73292
1.73291
1.73291
1.73291
1.73291
1.73292
1.73293
1.73291
1.73292
1.73292
1.73292
1.73293
1.73294
1.73292
1.73292
1.73292
1.73292
1.73294
1.73295
1.73293
1.73293
1.73293
1.73293
1.73295
1.73296
1.73294
1.73293
1.73293
1.73294
1.73296
1.73297
1.73294
1.73293
1.73293
1.73294
1.73297
1.73298
1.73295
1.73294
1.73294
1.73295
1.73298
1.73298
1.73296
1.73294
1.73294
1.73296
1.73298
1.73299
1.73297
1.73295
1.73295
1.73296
1.73299
1.733
1.73297
1.73295
1.73295
1.73297
1.733
1.73301
1.73298
1.73296
1.73296
1.73298
1.733
1.73301
1.73298
1.73297
1.73297
1.73298
1.733
1.73301
1.73298
1.73298
1.73297
1.73298
1.733
1.733
1.73297
1.73297
1.73297
1.73297
1.73299
1.73299
1.73296
1.73297
1.73296
1.73295
1.73298
1.73297
1.73294
1.73295
1.73293
1.73292
1.73296
1.73295
1.7329
1.73292
1.73289
1.73288
1.73293
1.73291
1.73285
1.73287
1.73284
1.73283
1.73289
1.73288
1.73279
1.7328
1.73276
1.73277
1.73287
1.73286
1.73274
1.73272
1.73267
1.73272
1.73285
1.73286
1.73271
1.73263
1.73258
1.73269
1.73287
1.73288
1.7327
1.73253
1.73251
1.73271
1.7329
1.73292
1.73273
1.73251
1.73251
1.73276
1.73292
1.73293
1.73278
1.73255
1.7326
1.73279
1.73292
1.73293
1.7328
1.73267
1.7327
1.7328
1.73294
1.73295
1.7328
1.7327
1.73269
1.73281
1.73297
1.73298
1.73283
1.73267
1.73264
1.73282
1.73297
1.73296
1.7328
1.7326
1.73253
1.73276
1.73293
1.73291
1.73269
1.73239
1.73216
1.73262
1.73287
1.73283
1.73258
1.73191
1.73181
1.73257
1.73281
1.73277
1.73259
1.73176
1.73173
1.73262
1.73274
1.73275
1.73272
1.7317
1.73169
1.73292
1.73278
1.73279
1.73302
1.73155
1.73145
1.733
1.7328
1.73289
1.73304
1.73168
1.73207
1.73322
1.73293
1.73221
1.73238
1.73032
1.73257
1.73215
1.73251
1.73264
1.73239
1.73208
1.73221
1.73241
1.73269
1.73277
1.73248
1.73224
1.73234
1.73257
1.73284
1.73293
1.7327
1.73248
1.73274
1.73286
1.733
1.73305
1.73295
1.73306
1.73338
1.73303
1.73311
1.73314
1.73304
1.73345
1.73351
1.73304
1.7332
1.73327
1.73303
1.7336
1.73363
1.73301
1.73332
1.73339
1.73295
1.73379
1.73403
1.73289
1.73344
1.73351
1.73293
1.73413
1.73416
1.73317
1.73365
1.73384
1.73349
1.73417
1.73399
1.73225
1.73304
1.7335
1.73309
1.73187
1.73235
1.73319
1.73367
1.73378
1.73336
1.73222
1.73227
1.73347
1.73384
1.73395
1.73373
1.7324
1.7325
1.73395
1.73407
1.73419
1.73431
1.73255
1.73239
1.73452
1.73425
1.73434
1.73463
1.73245
1.73282
1.73462
1.7344
1.73445
1.73479
1.73348
1.73205
1.73412
1.73404
1.73431
1.73407
1.73443
1.73395
1.7343
1.73444
1.73448
1.73431
1.73409
1.73403
1.73434
1.73453
1.73461
1.7344
1.73405
1.73395
1.73444
1.73467
1.7347
1.73445
1.73383
1.73391
1.73459
1.7348
1.73492
1.73485
1.73418
1.73276
1.7337
1.7344
1.73477
1.73449
1.73305
1.73281
1.73458
1.73489
1.73507
1.73502
1.73283
1.73253
1.73526
1.73515
1.73518
1.73531
1.73242
1.73273
1.73526
1.73514
1.73516
1.73541
1.73345
1.73133
1.73467
1.73483
1.73515
1.73477
1.73386
1.73311
1.7353
1.73528
1.73534
1.73549
1.73318
1.73313
1.73569
1.73542
1.7354
1.73566
1.73356
1.73418
1.73574
1.7354
1.73515
1.73533
1.73275
1.73542
1.73533
1.73544
1.73557
1.73574
1.7349
1.73494
1.73579
1.73561
1.7357
1.73593
1.73497
1.73537
1.73592
1.73571
1.73569
1.736
1.73608
1.73655
1.73577
1.7353
1.73548
1.73522
1.73755
1.73751
1.73542
1.73574
1.73592
1.7356
1.73745
1.73706
1.73581
1.73619
1.73593
1.73523
1.73781
1.73694
1.73583
1.73592
1.73602
1.73574
1.73767
1.73723
1.73603
1.73635
1.73668
1.73628
1.73715
1.73744
1.73579
1.73656
1.73645
1.73647
1.73663
1.73724
1.73638
1.73656
1.73694
1.73679
1.7374
1.73736
1.73696
1.73712
1.73698
1.7367
1.73705
1.73656
1.7373
1.73722
1.73731
1.73744
1.73744
1.73767
1.73748
1.73732
1.73732
1.73762
1.73828
1.73895
1.73776
1.73777
1.73815
1.73787
1.73814
1.73791
1.73753
1.73835
1.73829
1.73851
1.73844
1.7389
1.73848
1.73851
1.73881
1.73881
1.73921
1.73988
1.73932
1.73909
1.73943
1.73929
1.73955
1.74051
1.73954
1.74017
1.7403
1.74027
1.73971
1.74124
1.74109
1.74089
1.74144
1.74143
1.74132
1.74257
1.74234
1.74204
1.74249
1.7428
1.74295
1.74317
1.74296
1.74266
1.74262
1.74292
1.74311
1.74253
1.74247
1.74223
1.74152
1.74171
1.74164
1.74033
1.7405
1.74042
1.73993
1.73988
1.73979
1.73876
1.73899
1.73906
1.73872
1.73865
1.73853
1.73811
1.73833
1.7384
1.73804
1.73787
1.73761
1.73799
1.73803
1.73801
1.73771
1.73755
1.73727
1.73693
1.73714
1.7373
1.73746
1.73747
1.73734
1.73679
1.737
1.73714
1.73711
1.73701
1.73677
1.73673
1.7369
1.73701
1.73675
1.73662
1.73646
1.73644
1.7367
1.7368
1.73669
1.73652
1.73633
1.73613
1.73629
1.73643
1.7367
1.73673
1.7364
1.7364
1.73621
1.73643
1.73628
1.73656
1.73436
1.73498
1.73703
1.73648
1.73658
1.7367
1.73525
1.73024
1.73664
1.73696
1.73665
1.73742
1.73339
1.732
1.73594
1.73662
1.73675
1.73703
1.73414
1.73439
1.7367
1.73668
1.73642
1.73619
1.73368
1.73468
1.73446
1.7363
1.73666
1.73595
1.73553
1.73713
1.7356
1.7361
1.73563
1.73599
1.73571
1.73584
1.73626
1.73592
1.73609
1.73607
1.73423
1.73469
1.73524
1.73597
1.73645
1.73617
1.73567
1.73656
1.73587
1.73616
1.73577
1.73593
1.73586
1.73593
1.7363
1.73609
1.73617
1.73615
1.73514
1.73424
1.73566
1.73603
1.73632
1.73635
1.73545
1.73535
1.73607
1.73618
1.7358
1.73548
1.73512
1.73571
1.73607
1.73614
1.73599
1.73582
1.73544
1.73515
1.73536
1.73562
1.73603
1.73597
1.73565
1.73544
1.73574
1.7359
1.73561
1.73537
1.73523
1.73571
1.73597
1.73602
1.73592
1.73578
1.73553
1.73525
1.73538
1.7356
1.73597
1.73594
1.7357
1.73544
1.73567
1.73583
1.73548
1.7353
1.73518
1.73566
1.73586
1.73588
1.73576
1.73563
1.73545
1.73521
1.73531
1.73546
1.73588
1.73588
1.73571
1.73549
1.73563
1.73575
1.73546
1.73531
1.73523
1.7357
1.73585
1.73585
1.73575
1.73564
1.73551
1.73527
1.73535
1.73548
1.73589
1.73589
1.73574
1.73558
1.73571
1.7358
1.73555
1.7354
1.73533
1.73574
1.7359
1.73591
1.73578
1.73567
1.73549
1.73521
1.73531
1.73548
1.73586
1.73584
1.73567
1.73544
1.73562
1.73573
1.73546
1.7353
1.7352
1.7357
1.73587
1.73587
1.73576
1.73565
1.7355
1.7352
1.73528
1.73546
1.73581
1.73579
1.73561
1.73539
1.73556
1.73568
1.73538
1.73522
1.73511
1.7356
1.73577
1.73577
1.73566
1.73555
1.73538
1.73511
1.73521
1.73537
1.73583
1.73585
1.73571
1.73544
1.73559
1.7357
1.73541
1.73525
1.73518
1.7356
1.73576
1.73577
1.73564
1.73553
1.73534
1.73509
1.73518
1.73535
1.73574
1.73573
1.73554
1.73528
1.73548
1.73561
1.73531
1.73514
1.73504
1.73558
1.73576
1.73576
1.73562
1.73549
1.73534
1.73502
1.73512
1.73528
1.73567
1.7357
1.73528
1.73592
1.73534
1.73547
1.73554
1.73572
1.73256
1.73409
1.73635
1.73553
1.7356
1.73526
1.73254
1.734
1.73604
1.73579
1.7359
1.73593
1.73376
1.73348
1.73495
1.73561
1.73591
1.73585
1.73488
1.73457
1.7355
1.73574
1.73525
1.73472
1.73425
1.73503
1.73548
1.73564
1.73546
1.7352
1.73423
1.73567
1.73415
1.735
1.73567
1.73503
1.73577
1.73627
1.73508
1.73515
1.73553
1.73535
1.73627
1.73615
1.73512
1.73524
1.73512
1.73525
1.73607
1.73595
1.73561
1.73553
1.73538
1.73537
1.73566
1.73546
1.73533
1.73525
1.73556
1.73563
1.73591
1.73504
1.7355
1.73545
1.73527
1.73466
1.73663
1.73634
1.73528
1.73576
1.73535
1.73549
1.73692
1.73664
1.73543
1.73554
1.73522
1.7352
1.73653
1.73638
1.73544
1.73513
1.73543
1.7355
1.73623
1.7352
1.73539
1.73527
1.73508
1.73451
1.73669
1.73625
1.73514
1.73555
1.73516
1.73538
1.73675
1.7365
1.7353
1.73534
1.73502
1.73502
1.73634
1.73618
1.73528
1.73492
1.73524
1.73537
1.73589
1.73549
1.73519
1.73509
1.73538
1.73552
1.73568
1.73541
1.73527
1.73524
1.73505
1.73505
1.73509
1.73552
1.7354
1.73532
1.73518
1.73513
1.73478
1.73583
1.73436
1.73475
1.73528
1.73488
1.73574
1.73596
1.73493
1.73488
1.73512
1.73504
1.73589
1.7357
1.73478
1.73484
1.73471
1.73491
1.73557
1.73547
1.73519
1.73514
1.73497
1.73501
1.73519
1.73539
1.73534
1.73527
1.7351
1.73506
1.73508
1.73481
1.73485
1.73488
1.73518
1.73519
1.73531
1.73452
1.73509
1.73502
1.73482
1.73407
1.73589
1.73558
1.73481
1.73529
1.73494
1.73517
1.736
1.73608
1.735
1.7351
1.73478
1.73481
1.73557
1.73701
1.73418
1.73449
1.73512
1.73465
1.73615
1.73658
1.73507
1.73482
1.73504
1.73503
1.73604
1.7363
1.73475
1.73474
1.73477
1.73507
1.73486
1.73492
1.73548
1.7348
1.73478
1.73458
1.73368
1.73439
1.73518
1.73494
1.735
1.73508
1.7335
1.73486
1.73379
1.73477
1.73519
1.73497
1.73493
1.73507
1.73522
1.73483
1.73498
1.73496
1.73536
1.73521
1.73481
1.73463
1.73488
1.73493
1.73521
1.73494
1.73472
1.73469
1.73443
1.73447
1.73454
1.73477
1.73483
1.73478
1.73446
1.73438
1.73431
1.73457
1.73469
1.73467
1.73453
1.73442
1.73431
1.73406
1.73415
1.73426
1.73467
1.73468
1.7345
1.73409
1.73424
1.73438
1.73461
1.73462
1.73441
1.73414
1.73432
1.73445
1.73415
1.734
1.73387
1.73435
1.73457
1.73458
1.73427
1.73411
1.73394
1.73441
1.73471
1.73465
1.7344
1.73427
1.7344
1.73302
1.73411
1.73432
1.73428
1.73488
1.7335
1.73247
1.73353
1.73407
1.73431
1.73444
1.73325
1.73263
1.73369
1.73413
1.7344
1.73443
1.73351
1.73328
1.7341
1.73432
1.73387
1.73341
1.73299
1.73369
1.7342
1.73433
1.73394
1.73364
1.73328
1.73376
1.73413
1.73419
1.73387
1.73366
1.7334
1.73373
1.73414
1.73419
1.73406
1.73391
1.73363
1.73317
1.73335
1.73361
1.73405
1.73399
1.73363
1.73314
1.73341
1.73366
1.73394
1.7339
1.73347
1.73354
1.73358
1.73374
1.73365
1.73337
1.73254
1.73316
1.73424
1.73378
1.73353
1.73312
1.73227
1.73287
1.73391
1.73381
1.73362
1.73323
1.7322
1.73309
1.73393
1.73391
1.73375
1.73358
1.73257
1.73338
1.73265
1.73312
1.73383
1.73328
1.73364
1.73353
1.73337
1.73341
1.73372
1.73362
1.73383
1.73363
1.7333
1.73331
1.73347
1.73342
1.73356
1.73325
1.7331
1.7332
1.7329
1.73285
1.73282
1.73304
1.73333
1.73329
1.73295
1.73281
1.7326
1.73296
1.73325
1.73325
1.73294
1.73277
1.73254
1.73296
1.73321
1.73324
1.73306
1.73294
1.73242
1.73334
1.73224
1.73251
1.73319
1.73272
1.73325
1.73312
1.7329
1.73283
1.73311
1.73299
1.73325
1.73307
1.73271
1.73271
1.73304
1.73308
1.73321
1.73302
1.7327
1.73281
1.73261
1.73239
1.73217
1.7325
1.73321
1.73276
1.73246
1.73204
1.73163
1.73198
1.73279
1.73272
1.73243
1.73206
1.73134
1.73196
1.73274
1.73274
1.73245
1.73214
1.73158
1.73208
1.73265
1.73268
1.73251
1.73228
1.73188
1.73149
1.73171
1.73205
1.7325
1.73244
1.73201
1.73152
1.73183
1.7321
1.73238
1.73235
1.73196
1.73153
1.73181
1.73203
1.73234
1.7323
1.73182
1.73178
1.73196
1.73216
1.73191
1.73158
1.73123
1.73165
1.73234
1.73214
1.73175
1.73134
1.73089
1.73123
1.73203
1.73202
1.73164
1.73126
1.73058
1.73114
1.73193
1.73197
1.73162
1.7313
1.7307
1.73134
1.73189
1.73192
1.73169
1.73145
1.73088
1.73105
1.73088
1.73104
1.73171
1.73138
1.73144
1.73089
1.73114
1.73124
1.73157
1.7315
1.73114
1.73076
1.731
1.73118
1.7315
1.73147
1.73116
1.7307
1.73094
1.73114
1.7315
1.73147
1.73113
1.7308
1.73111
1.73132
1.73085
1.73062
1.73046
1.73084
1.73125
1.73131
1.73087
1.73063
1.73034
1.73066
1.73109
1.73114
1.73075
1.73054
1.73024
1.73065
1.73106
1.73109
1.7307
1.73048
1.73019
1.73064
1.73098
1.73101
1.73079
1.73057
1.73029
1.72995
1.73014
1.73033
1.7308
1.73074
1.73035
1.72988
1.73018
1.7304
1.73068
1.73064
1.73017
1.72975
1.73007
1.73029
1.73057
1.73053
1.73013
1.72969
1.72997
1.73021
1.7305
1.73046
1.73007
1.72975
1.73007
1.7303
1.72983
1.72959
1.72945
1.72985
1.73026
1.73032
1.72985
1.72961
1.7293
1.72959
1.73007
1.7301
1.72966
1.72943
1.72908
1.72948
1.72996
1.72998
1.72956
1.72932
1.72898
1.72945
1.7298
1.72987
1.72963
1.72948
1.72886
1.72956
1.72871
1.72884
1.72968
1.72903
1.72965
1.72899
1.72935
1.72917
1.72957
1.72947
1.72931
1.7291
1.72912
1.72918
1.72942
1.72933
1.72925
1.72884
1.72887
1.72897
1.72928
1.7293
1.72906
1.72873
1.72879
1.729
1.72894
1.72846
1.72819
1.72857
1.72969
1.72908
1.72881
1.72832
1.7281
1.72827
1.72904
1.72899
1.72855
1.72815
1.7275
1.72798
1.72886
1.72892
1.72853
1.72814
1.72745
1.72812
1.72887
1.72889
1.72846
1.72808
1.72755
1.72822
1.72873
1.72878
1.72851
1.72826
1.7277
1.72782
1.72764
1.7277
1.72847
1.728
1.72819
1.72757
1.72793
1.72794
1.7283
1.72819
1.72787
1.72749
1.72768
1.72783
1.7281
1.72805
1.72771
1.72728
1.72746
1.72763
1.7279
1.72789
1.72754
1.72706
1.72732
1.7275
1.72785
1.72783
1.72747
1.72717
1.72749
1.72764
1.7271
1.72694
1.72678
1.72717
1.72753
1.72768
1.72714
1.72688
1.72653
1.7269
1.72744
1.72749
1.72703
1.72679
1.72648
1.72669
1.72725
1.7273
1.72685
1.72662
1.72628
1.7267
1.72716
1.72719
1.72678
1.72653
1.72622
1.72663
1.72703
1.72707
1.7268
1.72651
1.72616
1.72574
1.72599
1.72625
1.72682
1.72682
1.72626
1.72567
1.72603
1.72633
1.7266
1.72656
1.72592
1.72546
1.72586
1.72614
1.72645
1.72639
1.72579
1.72532
1.72571
1.726
1.72632
1.72626
1.72573
1.72522
1.72558
1.72588
1.7262
1.72617
1.72569
1.72529
1.72562
1.72593
1.72532
1.72503
1.72465
1.72522
1.72587
1.72585
1.72532
1.72501
1.72457
1.72491
1.72559
1.72562
1.72513
1.72485
1.72445
1.72474
1.72539
1.72545
1.72496
1.72468
1.72425
1.72469
1.72527
1.72532
1.72483
1.72453
1.7241
1.72471
1.72517
1.7252
1.72491
1.72461
1.72419
1.72374
1.72401
1.72427
1.72485
1.72475
1.7242
1.7236
1.72403
1.72433
1.72461
1.72452
1.72391
1.72341
1.72382
1.72412
1.72445
1.72441
1.72379
1.72312
1.72359
1.72392
1.72428
1.72423
1.72368
1.72313
1.72352
1.72381
1.72413
1.72409
1.72358
1.7231
1.72348
1.72382
1.72319
1.72292
1.72251
1.72309
1.7237
1.72374
1.72323
1.72291
1.72251
1.72278
1.72348
1.72354
1.72303
1.72271
1.72227
1.72261
1.72329
1.72336
1.72283
1.72251
1.72204
1.72249
1.72306
1.72316
1.72268
1.72237
1.72198
1.72248
1.72299
1.72306
1.72272
1.72246
1.72187
1.72177
1.72187
1.72187
1.72267
1.72226
1.72228
1.72127
1.72209
1.72202
1.72245
1.72232
1.72173
1.72131
1.72174
1.72195
1.72226
1.72221
1.72149
1.72099
1.72141
1.72171
1.72203
1.72193
1.72129
1.7208
1.72122
1.7215
1.72182
1.72173
1.72118
1.72057
1.721
1.72131
1.72171
1.72167
1.72114
1.72061
1.72111
1.72141
1.72069
1.7204
1.72012
1.72056
1.72113
1.72125
1.72074
1.72043
1.72001
1.72027
1.72104
1.72109
1.7205
1.72018
1.71968
1.72007
1.72081
1.72087
1.72032
1.71997
1.71948
1.71999
1.72057
1.72066
1.72014
1.71981
1.71939
1.71987
1.72042
1.72049
1.72014
1.71987
1.71926
1.71904
1.71916
1.71926
1.72011
1.71977
1.71961
1.71868
1.71938
1.71944
1.71981
1.71964
1.71908
1.71844
1.71891
1.71925
1.71953
1.71946
1.71869
1.71814
1.71864
1.71896
1.71934
1.71928
1.71861
1.71798
1.71845
1.71877
1.71916
1.71908
1.71851
1.71797
1.71848
1.71883
1.71806
1.71779
1.71742
1.71799
1.71863
1.71875
1.71813
1.71779
1.71725
1.71761
1.71844
1.71851
1.71793
1.71759
1.7171
1.71732
1.71817
1.71824
1.71765
1.7173
1.71675
1.71722
1.71796
1.71802
1.71741
1.71705
1.7165
1.71722
1.71779
1.71785
1.71745
1.71715
1.71645
1.71633
1.71654
1.71638
1.71736
1.71678
1.71702
1.7158
1.71669
1.71659
1.71707
1.71692
1.71625
1.71565
1.71618
1.71648
1.71682
1.71682
1.71605
1.71532
1.71583
1.71616
1.71644
1.71633
1.71564
1.71498
1.71549
1.71583
1.71632
1.71628
1.71574
1.71517
1.7157
1.71596
1.71515
1.71496
1.71454
1.71512
1.71573
1.71589
1.71521
1.71486
1.71429
1.71466
1.71543
1.71554
1.71493
1.71456
1.71402
1.71438
1.71523
1.71529
1.71466
1.71428
1.71369
1.71424
1.71496
1.71503
1.71444
1.71407
1.71358
1.71409
1.71471
1.71478
1.71437
1.71399
1.71337
1.71279
1.71325
1.7135
1.71426
1.71414
1.71343
1.71251
1.71317
1.71353
1.71393
1.71386
1.71299
1.71224
1.71284
1.71326
1.71354
1.71343
1.71269
1.71196
1.71253
1.71289
1.71314
1.71298
1.71218
1.71155
1.71212
1.71249
1.71301
1.71293
1.71221
1.71167
1.71233
1.71265
1.71167
1.71149
1.71093
1.71169
1.71228
1.71256
1.71181
1.71142
1.71083
1.71126
1.71215
1.71223
1.7115
1.71104
1.7104
1.71099
1.71187
1.71192
1.71127
1.71087
1.71028
1.71077
1.71148
1.71158
1.71095
1.71061
1.71011
1.71058
1.71129
1.71136
1.71096
1.71058
1.71008
1.70914
1.70967
1.7102
1.71068
1.71061
1.7097
1.709
1.70945
1.71008
1.71037
1.71033
1.70937
1.70853
1.70921
1.70962
1.70997
1.70986
1.7091
1.70825
1.70885
1.70927
1.70956
1.70948
1.70874
1.70771
1.70855
1.70906
1.70813
1.70777
1.70722
1.70793
1.70866
1.70888
1.70817
1.70774
1.70703
1.70759
1.70847
1.70861
1.70794
1.70749
1.70686
1.70725
1.70826
1.70835
1.70763
1.7072
1.7065
1.70709
1.7079
1.70802
1.70732
1.70689
1.70628
1.70693
1.70768
1.70775
1.70731
1.70687
1.70619
1.70528
1.70577
1.70624
1.70702
1.70694
1.70615
1.70525
1.70585
1.70632
1.70661
1.7065
1.70562
1.70475
1.70544
1.70585
1.70619
1.7061
1.70523
1.70441
1.70504
1.70547
1.70582
1.70577
1.70501
1.70414
1.70489
1.70533
1.7041
1.70366
1.70318
1.70389
1.70473
1.70482
1.70393
1.70341
1.70259
1.70318
1.70411
1.7043
1.70361
1.70318
1.70249
1.70307
1.704
1.70413
1.70347
1.70301
1.70234
1.70304
1.70387
1.70395
1.70349
1.70304
1.70223
1.70132
1.70185
1.70234
1.70323
1.70304
1.70229
1.70131
1.70201
1.70248
1.70281
1.70269
1.70171
1.70081
1.70152
1.70202
1.70236
1.70222
1.70129
1.70048
1.70117
1.70163
1.70201
1.70196
1.70112
1.70023
1.70107
1.70151
1.70022
1.69973
1.69916
1.70011
1.70095
1.70107
1.70027
1.69979
1.69909
1.69944
1.7005
1.70058
1.69959
1.69916
1.6983
1.69896
1.69989
1.69996
1.69909
1.69866
1.69791
1.69772
1.69879
1.69909
1.69856
1.69801
1.69701
1.69652
1.69714
1.69765
1.69858
1.69838
1.69749
1.69661
1.69734
1.69785
1.69827
1.69816
1.69718
1.69609
1.6969
1.69743
1.69788
1.6978
1.69684
1.69604
1.69684
1.69738
1.69624
1.69567
1.69499
1.69584
1.69696
1.69694
1.69612
1.69555
1.69477
1.69527
1.69634
1.69648
1.69555
1.69507
1.69419
1.69477
1.69584
1.69595
1.69509
1.69462
1.69386
1.69427
1.69528
1.69541
1.69484
1.69429
1.6934
1.69242
1.69303
1.69344
1.69425
1.69402
1.69304
1.69198
1.69287
1.69332
1.6935
1.69338
1.69221
1.69079
1.69177
1.69236
1.69256
1.69222
1.691
1.69018
1.69137
1.692
1.69086
1.69016
1.68938
1.69075
1.69178
1.69195
1.6911
1.69051
1.68963
1.69037
1.69151
1.69164
1.69074
1.69014
1.68926
1.68991
1.69099
1.69113
1.69051
1.69009
1.6889
1.68789
1.68885
1.68877
1.69016
1.68924
1.68937
1.68748
1.68893
1.689
1.68948
1.68919
1.68826
1.68696
1.68789
1.68836
1.68879
1.6886
1.68751
1.68631
1.68725
1.68777
1.68806
1.68799
1.68689
1.6859
1.68683
1.68742
1.68571
1.68523
1.68462
1.68543
1.68645
1.68659
1.68551
1.68498
1.68412
1.68436
1.68543
1.68554
1.68401
1.68316
1.68179
1.68316
1.68436
1.68461
1.68418
1.68363
1.68246
1.6816
1.68247
1.68301
1.68406
1.68376
1.68277
1.6816
1.68256
1.68315
1.68363
1.68354
1.68235
1.68131
1.68249
1.68301
1.68116
1.68104
1.67988
1.68117
1.68195
1.68243
1.68128
1.68068
1.6796
1.68039
1.68166
1.68176
1.68066
1.68008
1.67912
1.67964
1.68083
1.68096
1.68024
1.67951
1.6784
1.67718
1.67786
1.67843
1.67931
1.67906
1.67789
1.67648
1.67764
1.67814
1.67847
1.67834
1.677
1.67541
1.6765
1.67712
1.67711
1.67694
1.67572
1.67407
1.67539
1.6761
1.67352
1.6723
1.67103
1.67317
1.67441
1.67481
1.67398
1.67335
1.67226
1.67353
1.67486
1.67502
1.67441
1.67375
1.67238
1.67108
1.67219
1.67255
1.67385
1.67335
1.67225
1.67081
1.67196
1.67268
1.67315
1.67301
1.6715
1.67014
1.67129
1.67194
1.67226
1.67212
1.67069
1.6696
1.67074
1.67152
1.66948
1.66861
1.66778
1.66902
1.67047
1.67057
1.66943
1.66872
1.66767
1.66798
1.66943
1.66961
1.66863
1.66787
1.66651
1.66447
1.66538
1.66616
1.66729
1.6671
1.66572
1.66406
1.66531
1.66596
1.66526
1.66498
1.66348
1.65986
1.66226
1.66363
1.66183
1.66081
1.65935
1.66162
1.66326
1.66357
1.66274
1.66191
1.66069
1.66177
1.66335
1.66353
1.6628
1.6619
1.66019
1.65868
1.65973
1.6606
1.66191
1.66163
1.66007
1.65846
1.6597
1.66058
1.66112
1.6609
1.6591
1.65752
1.65884
1.65963
1.66001
1.65988
1.65827
1.65654
1.65814
1.65898
1.65659
1.65571
1.65472
1.65593
1.65739
1.65756
1.65682
1.65587
1.65462
1.65256
1.65268
1.65489
1.65479
1.65534
1.65229
1.65136
1.65171
1.65312
1.65237
1.65217
1.65041
1.64576
1.6486
1.65041
1.64801
1.64662
1.6447
1.64777
1.64978
1.65014
1.64923
1.64829
1.64685
1.64789
1.64982
1.65009
1.64927
1.64814
1.6464
1.64447
1.64575
1.64717
1.64823
1.64818
1.64596
1.64419
1.6458
1.64675
1.64723
1.64699
1.64518
1.64317
1.64509
1.64616
1.64294
1.6419
1.64063
1.64236
1.64416
1.64452
1.64288
1.64182
1.64023
1.64089
1.64283
1.643
1.64156
1.64063
1.6389
1.63575
1.6371
1.63809
1.63864
1.63832
1.63657
1.63489
1.63644
1.63734
1.63351
1.62853
1.62777
1.62937
1.63345
1.63346
1.63251
1.63152
1.62926
1.63168
1.63389
1.63446
1.63389
1.63268
1.63009
1.62798
1.62991
1.63131
1.63287
1.63234
1.63017
1.62857
1.63081
1.632
1.62849
1.62842
1.6262
1.62794
1.62933
1.6304
1.62843
1.6273
1.6252
1.62618
1.62841
1.62871
1.62707
1.62586
1.6235
1.62061
1.62202
1.62334
1.62439
1.62404
1.6219
1.61971
1.62187
1.62313
1.61874
1.61752
1.61611
1.61539
1.61769
1.61833
1.61534
1.61253
1.60803
1.60708
1.60992
1.612
1.61522
1.61463
1.61178
1.61055
1.61274
1.61412
1.61557
1.61509
1.61241
1.6106
1.61355
1.61479
1.61143
1.60964
1.60788
1.60984
1.61234
1.61286
1.61196
1.61058
1.60794
1.60451
1.60619
1.60795
1.60915
1.60856
1.60619
1.60391
1.60634
1.6079
1.60344
1.60195
1.6002
1.60085
1.60368
1.6041
1.60186
1.60045
1.59775
1.59188
1.59428
1.59625
1.59402
1.59143
1.58724
1.5846
1.58907
1.59226
1.59029
1.58768
1.58502
1.58969
1.59322
1.59348
1.59321
1.59171
1.58817
1.58614
1.58929
1.58977
1.59223
1.59133
1.58865
1.58609
1.58887
1.59106
1.58703
1.58469
1.58271
1.58378
1.58784
1.5878
1.5862
1.5843
1.58148
1.57668
1.57961
1.58055
1.58174
1.58024
1.57874
1.5746
1.57792
1.57913
1.57315
1.56969
1.56796
1.55892
1.56502
1.5683
1.56621
1.5625
1.55752
1.55936
1.56207
1.56549
1.56928
1.56922
1.56484
1.56403
1.56814
1.56963
1.5677
1.56539
1.56153
1.55943
1.56
1.56492
1.56541
1.5657
1.56017
1.55789
1.56148
1.56377
1.55718
1.5569
1.55279
1.55496
1.55687
1.55872
1.55582
1.55415
1.54993
1.54296
1.54492
1.54886
1.54306
1.53899
1.53214
1.52913
1.53676
1.54041