/*--------------------------------*- C++ -*----------------------------------*\
| =========                 |                                                 |
| \\      /  F ield         | OpenFOAM: The Open Source CFD Toolbox           |
|  \\    /   O peration     | Version:  v2006                                 |
|   \\  /    A nd           | Website:  www.openfoam.com                      |
|    \\/     M anipulation  |                                                 |
\*---------------------------------------------------------------------------*/
FoamFile
{
    version     2.0;
    format      ascii;
    class       volScalarField;
    location    "0.03";
    object      yPlus;
}
// * * * * * * * * * * * * * * * * * * * * * * * * * * * * * * * * * * * * * //

dimensions      [0 0 0 0 0 0 0];


internalField   uniform 0;

boundaryField
{
    bottomEmptyFaces
    {
        type            empty;
    }
    topEmptyFaces
    {
        type            empty;
    }
    inlet
    {
        type            calculated;
        value           uniform 0;
    }
    outlet
    {
        type            calculated;
        value           uniform 0;
    }
    walls
    {
        type            calculated;
        value           nonuniform List<scalar> 
1427
(
10.2144
10.7437
11.7505
12.335
10.8336
11.8606
13.5024
10.4512
11.2887
11.5802
12.0151
10.4596
11.3112
9.77156
10.3597
13.7207
9.97301
10.5118
10.7744
11.5991
9.94399
10.7829
13.3706
11.4362
11.9718
10.5644
11.5263
10.1978
11.0407
11.2243
11.7325
13.0348
9.53138
10.0674
10.3135
11.257
10.2203
11.1475
9.83775
10.6392
12.7755
11.0407
11.5965
9.26716
9.75956
12.5645
9.09249
9.67795
9.70911
10.2573
11.3826
12.4276
14.0579
10.1821
10.7653
10.96
11.8454
12.5832
13.0761
19.2477
19.9123
15.8469
15.7971
16.7421
16.9485
14.3065
15.0292
20.8864
17.5543
17.6947
20.0732
17.8708
18.1041
15.2705
15.8668
16.6059
16.5052
19.0233
14.7919
15.2027
22.8216
24.199
23.7096
23.3814
19.093
18.7715
19.3952
19.0041
23.8708
19.5412
19.2057
19.805
19.421
26.9839
24.748
19.9843
19.5329
21.4094
20.5694
23.8042
20.4305
19.5235
25.2246
21.2127
20.6628
22.7408
21.3082
17.1242
17.0284
20.7876
16.6138
16.7618
20.1964
15.9051
16.3587
18.9829
18.9592
22.5733
22.4
18.4583
18.2171
18.49
18.1547
22.4843
18.4302
18.3037
18.4727
18.1723
15.3933
15.882
17.9361
15.6843
16.0244
13.5572
14.1783
17.2754
12.9679
13.5854
18.2178
14.3065
14.3667
14.9651
15.3927
16.7208
14.3709
14.7428
12.4795
13.095
17.0437
12.4359
13.1397
13.6358
14.5548
13.9758
14.3837
18.6336
13.8472
14.4543
16.2262
16.4368
25.9837
22.2375
21.3366
28.542
25.7574
28.9783
25.9511
23.0162
21.65
22.7234
21.4226
30.0149
27.4522
25.3103
23.3554
32.6672
30.5106
29.3143
25.8106
22.8163
21.3201
32.1435
31.7842
27.2088
24.1358
22.4676
31.0054
28.7096
34.0714
26.6061
24.5428
32.8769
33.3355
33.3083
32.6733
31.5759
30.3323
29.5079
29.3155
28.614
27.3832
26.4602
25.8314
25.0668
24.2199
23.3732
22.6095
21.9357
21.3522
20.8281
20.3815
19.9775
19.6448
19.3442
19.1078
18.8967
18.7392
18.5986
18.4978
18.4091
18.3493
18.2956
18.2618
18.2284
18.2143
18.1888
18.1914
18.172
18.1775
18.1608
18.1668
18.1496
18.154
18.1341
18.137
18.1145
18.1154
18.0905
18.0898
18.063
18.0606
18.0327
18.0293
18.0004
17.9963
17.9674
17.9629
17.9341
17.9295
17.9017
17.8973
17.8704
17.8662
17.8406
17.8367
17.812
17.8085
17.7852
17.7821
17.7599
17.7574
17.7369
17.7349
17.7157
17.7147
17.6974
17.6971
17.6813
17.6819
17.6683
17.6697
17.6578
17.6602
17.6504
17.6534
17.6455
17.6492
17.6432
17.6475
17.6432
17.6482
17.6457
17.6511
17.6498
17.6565
17.6558
17.6636
17.6635
17.6728
17.6731
17.6833
17.684
17.6954
17.6963
17.7084
17.7097
17.7228
17.7243
17.7378
17.7397
17.754
17.756
17.7705
17.7728
17.7879
17.7904
17.8057
17.8084
17.8241
17.8269
17.8426
17.8455
17.8615
17.8644
17.8803
17.8833
17.8995
17.9025
17.9185
17.9215
17.9377
17.9407
17.9566
17.9596
17.9757
17.9787
17.9945
17.9974
18.0133
18.0162
18.0317
18.0346
18.0502
18.053
18.0682
18.0709
18.0863
18.0889
18.1038
18.1064
18.1214
18.1238
18.1384
18.1407
18.1554
18.1576
18.1718
18.1739
18.1881
18.1901
18.2038
18.2057
18.2195
18.2212
18.2344
18.2361
18.2494
18.251
18.2637
18.2653
18.2781
18.2796
18.292
18.2934
18.3061
18.3074
18.3197
18.321
18.3335
18.3347
18.347
18.3483
18.3607
18.3619
18.3741
18.3753
18.3876
18.3888
18.4007
18.4018
18.4136
18.4146
18.4261
18.427
18.4383
18.4391
18.45
18.4506
18.4612
18.4617
18.4716
18.4719
18.4814
18.4811
18.5073
18.52
18.5099
18.5106
18.5466
18.5899
18.646
18.7283
18.89
19.012
19.5257
20.4372
6.89211
6.00668
6.07412
5.209
5.32228
6.03311
6.02216
7.12954
6.86363
5.12864
5.19767
6.07264
6.03174
6.81784
5.74104
5.60369
5.17028
5.29548
7.22515
6.13919
6.18136
7.11719
5.31759
5.46426
5.73567
5.59688
10.2713
8.9294
9.39714
10.1429
7.84373
8.53031
7.28532
7.70091
8.25904
9.04753
7.98332
8.85068
8.11014
8.85213
7.68939
8.3437
7.80412
8.70124
9.9751
8.67968
9.10484
7.99006
8.78214
7.76725
8.59556
7.17901
7.58375
8.81013
9.21602
7.53297
8.26746
7.14365
7.78831
7.30566
8.0534
7.77495
8.15323
7.18436
7.85591
8.99633
7.09665
7.71917
7.75678
8.08256
6.89114
7.49112
6.43948
6.82512
7.16518
7.86533
9.05596
7.02024
7.62009
6.54961
6.88858
7.83377
8.20292
9.28166
8.06645
8.42711
7.41224
8.12252
7.15984
7.90899
6.67715
7.03003
8.95947
6.45452
6.77767
6.95536
7.53633
9.64431
8.38633
8.81843
7.82374
8.59246
9.82593
7.64462
8.24345
7.07463
7.51491
8.51617
8.89709
7.38832
8.06903
7.59953
8.3756
6.93568
7.3297
9.51421
7.34441
7.96711
6.84009
7.25015
7.78034
8.53756
7.56419
8.29633
8.24706
8.57331
6.88262
7.47481
8.40636
6.54398
6.99111
7.22364
7.48892
7.33083
7.68496
6.74168
7.37342
8.46625
6.11968
6.43096
6.57143
7.09258
6.53618
7.05298
6.05926
6.36205
8.04796
5.84356
6.1045
7.01904
7.26981
8.12732
5.87415
6.18359
6.3142
6.74857
6.84328
7.0934
8.01151
5.77989
6.09268
7.82484
5.71809
5.94063
6.72903
6.98908
6.09216
6.53933
6.16552
6.58529
6.92178
7.19901
6.24745
6.69259
8.35447
7.19983
7.50129
6.58201
7.17206
6.33224
6.81849
6.00997
6.30623
6.42301
6.47915
6.42478
6.58694
7.48776
5.53481
5.72942
7.52605
6.42018
6.47998
5.5622
5.75188
7.65739
5.85665
6.26008
6.57361
6.77692
7.90263
6.85729
7.03588
6.64171
6.74008
7.77778
5.6647
5.89163
5.72607
5.93521
6.11014
6.47538
5.61032
5.83982
7.4531
6.40681
6.50991
7.52749
5.58329
5.71987
5.4251
5.62852
7.10235
7.09847
5.21352
5.37999
6.03626
6.08494
5.24102
5.39386
7.03652
5.21935
5.34922
6.0449
6.07648
5.68896
6.003
8.77041
6.30517
6.63816
7.5963
7.97412
7.01816
7.68828
8.72435
6.72484
7.26921
6.25865
6.63883
7.5506
7.86564
6.82302
7.36214
6.38284
5.37453
4.9642
6.41917
5.36201
5.01839
6.49943
5.4614
5.14993
6.51337
5.44221
5.13774
6.40898
5.40836
5.03762
6.45716
5.43184
5.0856
8.60915
8.38072
7.43991
12.6098
9.32731
8.17887
7.45287
8.9894
9.18571
7.95334
7.1673
6.99617
8.63892
12.6063
9.04212
8.12719
8.75358
6.6245
5.0875
8.31786
6.27448
7.3377
6.12821
5.30034
6.95779
5.85481
5.18365
7.71362
6.29962
5.38379
4.76212
6.43479
5.39306
4.95415
6.63644
5.31621
4.84886
6.63033
5.85621
7.53335
6.44094
8.05693
6.50357
5.59717
6.46285
5.62794
6.35871
5.39208
4.95169
6.37577
5.38395
4.95022
9.00207
7.0216
6.53444
4.95787
7.39389
7.16115
5.40576
8.23935
6.88468
6.98817
5.31035
8.45384
7.46014
6.37694
6.41444
4.92035
7.82441
6.97291
6.19228
6.50794
4.95059
8.10225
7.28686
6.39692
6.55108
5.15058
8.09824
7.41024
6.90849
6.45282
5.88518
6.33452
4.82773
8.08408
7.60703
7.1279
6.61911
5.90299
6.09912
4.74084
6.47662
5.36613
5.15395
6.44996
5.2364
5.07771
6.59542
6.79145
5.71831
5.62541
5.45692
5.30447
6.33102
5.17803
5.00276
6.23662
4.82247
4.83506
6.60161
5.52217
5.24354
6.60412
5.46537
5.19232
6.59082
5.46928
5.21522
6.59268
5.47485
5.2324
6.54608
5.50524
5.20166
6.61791
5.47542
5.25125
6.52185
5.46725
5.17671
6.53803
5.49765
5.18287
6.54535
5.43341
5.20391
6.51737
5.38336
5.15162
5.85757
5.76905
6.6337
5.41778
5.26478
6.91075
5.52905
5.38346
6.92778
5.84208
5.7744
6.56888
5.86337
5.84829
4.97772
5.08279
5.48695
5.35222
6.49768
4.94929
5.04773
6.47745
5.39166
5.21186
4.93161
5.00641
7.75842
7.3338
6.97532
6.6787
6.43258
5.98026
6.37691
4.8596
8.24761
7.90767
7.55884
7.2811
6.98353
6.66253
6.21648
5.64404
6.04514
4.59467
7.72496
7.32044
7.03745
6.80889
6.54466
6.31925
6.09463
5.90772
5.74075
5.42415
6.17117
4.41623
8.10071
7.88453
7.66536
7.47462
7.32955
7.15977
6.95492
6.77766
6.55295
6.34741
6.16467
5.99704
5.83737
5.70277
5.58023
5.32663
4.99208
6.00145
4.07427
7.75232
7.49336
7.34711
7.24297
7.13816
7.00451
6.88942
6.76678
6.65731
6.56888
6.46549
6.36828
6.2932
6.22092
6.16954
6.11946
6.09033
6.05808
6.04394
6.02875
6.02934
6.02968
6.03868
6.04704
6.07215
16.6698
6.08577
6.1175
6.13376
16.6054
6.16791
12.189
12.8101
6.18194
14.0452
6.2117
14.4179
12.2689
12.838
6.225
6.25254
6.26237
6.28396
6.29266
6.31185
6.31747
6.33167
6.33631
6.3486
6.35094
6.35976
6.36169
6.36935
6.37018
6.37545
6.37588
6.38017
14.754
6.37969
6.38224
11.4337
12.4332
10.6359
11.3203
12.7386
13.0475
13.0818
13.6224
11.796
12.6633
15.0376
10.8759
11.498
15.1365
12.8985
13.3239
11.0765
11.6237
6.38145
6.38355
6.38199
6.38289
6.38113
6.38186
6.37956
6.37933
15.9932
13.5476
13.8282
6.37673
6.37657
6.37377
6.37284
13.444
13.9529
6.36944
15.34
6.36878
10.9765
11.6658
6.3654
12.0302
12.8881
6.36405
15.7934
11.6424
12.2321
12.5884
13.4647
14.1434
14.5819
11.51
12.1923
6.36016
6.35916
6.3554
6.35374
6.34951
6.34828
6.34424
6.34239
6.33793
6.33655
6.33235
6.33037
6.32576
6.3243
6.32
6.31796
6.31327
6.31178
6.30744
6.30538
6.30066
6.29919
6.29485
6.2928
10.8328
11.3642
6.2881
6.28665
9.62498
6.28234
10.4416
6.28031
10.0041
10.9136
6.27564
6.27423
6.26996
6.26797
6.26334
6.26198
6.25775
6.25582
6.25125
6.24996
6.2458
6.24394
6.23943
6.23823
6.23414
6.23236
6.22794
6.22683
6.22283
6.22114
6.21682
6.21581
6.21191
6.21032
9.54263
10.0329
6.2061
8.83327
6.20521
9.74698
6.20142
6.19994
6.19583
6.19503
6.19134
8.75026
6.18995
9.65739
9.78186
6.18595
10.1848
6.18522
11.2519
8.14946
8.59801
6.18159
6.18025
8.90054
9.82887
10.9676
7.93521
8.37207
8.55337
9.2795
6.17628
6.17561
6.17223
6.17017
6.16762
6.16265
6.16071
6.21998
6.23848
6.30363
6.37744
6.49607
6.54896
6.76429
7.09175
10.3007
10.8309
9.52901
10.487
10.1417
10.6141
11.682
8.53958
8.95784
9.36472
10.3116
9.13341
9.92919
9.62482
10.5162
12.1216
9.40165
10.1966
8.74906
9.32376
10.4374
10.9588
12.3999
10.752
11.2491
9.90876
10.8822
9.70392
10.6774
8.99467
9.47544
11.8711
8.58598
9.06071
9.2895
10.0522
9.1123
10.0313
11.3437
8.22233
8.7086
8.88016
9.61148
9.82551
10.3578
9.17644
10.0764
8.95759
9.88365
8.71312
9.4762
9.36705
10.2808
8.4545
9.35075
10.6611
7.70421
8.18047
8.23384
8.93304
8.24579
9.09963
9.19701
9.59376
10.5919
7.63336
8.07913
8.39309
9.25475
9.26554
9.74817
8.56044
9.42486
8.39835
9.27902
8.2121
8.92868
11.9135
12.4169
11.989
9.4386
9.87202
12.5689
10.8882
7.86114
8.31085
8.65286
9.57026
8.52184
9.20747
8.70376
9.56208
11.0077
11.8413
13.976
7.94586
8.62004
8.10241
8.97523
7.36407
7.78505
7.33684
21.3927
22.9325
20.5265
18.9106
17.6831
16.7587
15.9055
15.3955
14.8823
14.6292
14.293
14.1354
13.8735
13.7708
13.5544
13.4826
13.2965
13.2389
13.0744
13.0251
12.8741
12.8302
12.6878
12.6477
12.5119
12.475
12.3447
12.3105
12.1849
12.1531
12.0317
12.002
11.8844
11.8567
11.7424
11.7164
11.6048
11.5799
11.4772
11.4603
11.3755
11.364
11.2871
11.2764
11.2013
11.1905
11.1157
11.1046
11.0297
11.0183
10.9431
10.9315
10.8558
10.8439
10.7678
10.7557
10.6791
10.6668
10.5895
10.577
10.4989
10.4862
10.4074
10.3945
10.315
10.302
10.2218
10.2088
10.1282
10.1154
10.0346
10.0223
9.9416
9.93007
9.85006
9.83974
9.76099
9.75243
9.6757
9.66953
9.59578
9.59276
9.52342
9.52411
9.46127
9.4658
9.41095
9.42038
9.37581
9.39109
9.35913
9.38093
9.36071
9.39493
9.38244
9.43307
9.42731
9.49649
9.50063
9.58779
9.60277
9.70531
9.72937
9.84255
9.87453
9.99575
10.0341
10.1607
10.2038
10.3333
10.3795
10.5094
10.5573
10.6855
10.7337
10.8586
10.9061
11.0265
11.0728
11.1879
11.2322
11.341
11.3826
11.4845
11.5232
11.6306
11.6829
11.8095
11.8651
11.9933
12.0471
12.1688
12.2182
12.3299
12.3736
12.4738
12.5111
12.599
12.6295
12.7047
12.728
12.7904
12.8064
12.8559
12.8648
12.9019
12.9041
12.9286
12.9258
12.9398
12.9331
12.9396
12.9266
12.9303
12.91
12.912
12.8861
12.8871
12.8574
12.8578
12.8256
12.8259
12.792
12.7925
12.7578
12.7585
12.7235
12.7247
12.6896
12.6912
12.6564
12.6585
12.6239
12.6265
12.5923
12.5952
12.5614
12.5648
12.5314
12.5351
12.5021
12.5061
12.4735
12.4777
12.4454
12.45
12.418
12.4227
12.391
12.396
12.3645
12.3696
12.3384
12.3437
12.3127
12.3181
12.2874
12.2929
12.2624
12.2681
12.2379
12.2437
12.2138
12.2198
12.1903
12.1966
12.1651
12.1746
12.1695
12.2743
12.3859
12.8209
13.3621
13.8018
14.1277
25.3653
14.5063
)
;
    }
    rightWall
    {
        type            calculated;
        value           uniform 0;
    }
    symmetryLine
    {
        type            symmetryPlane;
    }
}


// ************************************************************************* //
