/*--------------------------------*- C++ -*----------------------------------*\
| =========                 |                                                 |
| \\      /  F ield         | OpenFOAM: The Open Source CFD Toolbox           |
|  \\    /   O peration     | Version:  v2006                                 |
|   \\  /    A nd           | Website:  www.openfoam.com                      |
|    \\/     M anipulation  |                                                 |
\*---------------------------------------------------------------------------*/
FoamFile
{
    version     2.0;
    format      ascii;
    class       volScalarField;
    location    "0.085";
    object      k;
}
// * * * * * * * * * * * * * * * * * * * * * * * * * * * * * * * * * * * * * //

dimensions      [0 2 -2 0 0 0 0];


internalField   nonuniform List<scalar> 
23013
(
49.2847
49.2845
49.2883
49.2894
49.2912
49.2894
49.288
49.2791
49.2517
49.1935
49.1003
48.9803
48.8453
48.7048
48.5632
48.4214
48.2783
48.1326
47.9827
47.8277
47.6671
47.5006
47.3282
47.1501
46.9663
46.7769
46.5819
46.3814
46.1754
45.9639
45.7471
45.5249
45.2975
45.0649
44.8273
44.5848
44.3375
44.0856
43.8292
43.5685
43.3035
43.0346
42.7618
42.4853
42.2054
41.9221
41.6357
41.3463
41.0542
40.7596
40.4626
40.1634
39.8623
39.5594
39.255
38.9493
38.6424
38.3346
38.0261
37.7171
37.4079
37.0985
36.7893
36.4805
36.1722
35.8647
35.5582
35.253
34.9491
34.647
34.3466
34.0484
33.7524
33.459
33.1682
32.8804
32.5957
32.3144
32.0365
31.7625
31.4923
31.2263
30.9647
30.7076
30.4553
30.2078
29.9654
29.7284
29.4967
29.2707
29.0504
28.8361
28.6278
28.4256
28.2298
28.0404
27.8575
27.6812
27.5118
27.3494
27.1939
27.0452
26.9026
26.7649
26.6305
26.4987
26.3714
26.2566
26.1689
26.121
26.1076
26.1121
26.1217
26.1293
26.13
26.1219
26.1056
26.0556
25.9577
25.8093
25.5119
24.9846
22.5402
20.0951
23.6883
25.094
23.8518
20.8426
17.6576
16.0165
19.624
23.1191
21.3867
17.2443
14.3798
13.3701
16.4901
20.7754
19.3123
14.8515
12.288
11.6715
14.4766
18.9052
17.8113
13.4679
10.9599
10.5968
13.3252
17.5826
16.7501
12.6848
10.113
9.89235
12.6187
16.5969
15.9346
12.1457
9.52789
9.38587
12.1212
15.8331
15.2709
11.7351
9.09042
8.9923
11.7315
15.2007
14.7077
11.3981
8.74287
8.66566
11.4031
14.6571
14.2118
11.1009
8.44933
8.38463
11.1103
14.1739
13.7645
10.83
8.19007
8.13373
10.8422
13.7359
13.3557
10.5793
7.95451
7.90441
10.5938
13.3344
12.9792
10.3458
7.7369
7.6916
10.3621
12.9638
12.6303
10.1271
7.53343
7.49205
10.1449
12.6199
12.3061
9.92156
7.34162
7.30348
9.94066
12.3003
12.0044
9.72773
7.15958
7.12422
9.74802
12.0025
11.7235
9.54459
6.98595
6.95307
9.56596
11.7248
11.461
9.37148
6.81968
6.78865
9.39394
11.4648
11.2142
9.20673
6.65915
6.62965
9.22962
11.2198
10.9803
9.04781
6.50674
6.48454
9.07143
10.9873
10.7584
8.8984
6.38525
6.3717
8.92417
10.7666
10.548
8.7619
6.28551
6.27327
8.78974
10.5581
10.3506
8.63683
6.18992
6.17737
8.66574
10.3622
10.1643
8.51872
6.09483
6.08229
8.5481
10.1769
9.98721
8.40662
6.00046
5.98751
8.43664
10.0004
9.81777
8.29919
5.906
5.89343
8.32928
9.83145
9.65624
8.19663
5.8127
5.79924
8.22751
9.67087
9.50283
8.09843
5.71804
5.70478
8.12906
9.51775
9.35482
8.00162
5.62403
5.61099
8.03198
9.36961
9.2117
7.90716
5.53046
5.51712
7.93771
9.22681
9.07443
7.81549
5.43633
5.42268
7.84596
9.08978
8.94166
7.72447
5.34182
5.32865
7.75438
8.95671
8.81239
7.63424
5.24821
5.23498
7.66419
8.82752
8.68735
7.54587
5.15452
5.1413
7.57563
8.70244
8.56579
7.45803
5.06092
5.04796
7.48726
8.58065
8.44663
7.3698
4.96835
4.95629
7.39862
8.46107
8.33007
7.28245
4.87776
4.86672
7.3112
8.34455
8.21736
7.19719
4.78947
4.77923
7.22592
8.23199
8.10777
7.11289
4.70358
4.69528
7.14099
8.12204
8.00022
7.02918
4.6224
4.61666
7.05706
8.01433
7.8959
6.94827
4.54719
4.54407
6.9762
7.91029
7.79542
6.87034
4.47879
4.47936
6.89793
7.80987
7.69842
6.79568
4.42079
4.42488
6.82321
7.71314
7.60587
6.726
4.37403
4.3825
6.75357
7.62121
7.51866
6.66188
4.34153
4.35542
6.68932
7.53486
7.43758
6.60519
4.32609
4.34556
6.63351
7.45492
7.3639
6.55839
4.32638
4.35603
6.5872
7.38245
7.29781
6.52119
4.3448
4.39243
6.55061
7.31805
7.24142
6.49366
4.38825
4.45383
6.52365
7.26399
7.1975
6.47688
4.45778
4.53858
6.50983
7.22283
7.16501
6.47352
4.55264
4.64852
6.51108
7.19303
7.14622
6.48247
4.67158
4.78006
6.52481
7.17946
7.14193
6.50053
4.81181
4.93086
6.54862
7.18092
7.15047
6.52831
4.96944
5.09584
6.58417
7.19549
7.17021
6.56823
5.13976
5.27112
6.63305
7.2235
7.20209
6.62164
5.31875
5.45255
6.69576
7.26519
7.24736
6.68879
5.503
5.63799
6.77268
7.3208
7.30635
6.77035
5.68959
5.82316
6.86318
7.38906
7.37744
6.86555
5.87469
6.00523
6.96586
7.46744
7.45814
6.97105
6.0561
6.18277
7.07545
7.55323
7.54541
7.08234
6.23223
6.35378
7.18917
7.64378
7.63708
7.19711
6.40074
6.5147
7.3052
7.73779
7.7319
7.31389
6.56221
6.69057
7.42451
7.83432
7.82919
7.43737
6.75201
6.89964
7.5561
7.93384
7.92998
7.57404
6.96472
7.11498
7.70112
8.03748
8.03503
7.72277
7.17859
7.32303
7.85337
8.14456
8.14328
7.87784
7.38222
7.51644
8.00906
8.25325
8.25274
8.03608
7.56949
7.69096
8.16704
8.36158
8.36153
8.19566
7.73658
7.84409
8.32475
8.46753
8.46741
8.3538
7.88164
7.97424
8.47913
8.56863
8.56808
8.50735
8.00293
8.08004
8.62718
8.66307
8.66174
8.65349
8.09974
8.16099
8.76632
8.74997
8.74736
8.78969
8.17168
8.21778
8.8944
8.82771
8.82346
8.91429
8.22027
8.25108
9.00997
8.89508
8.88908
9.02598
8.24742
8.26523
9.11285
8.95158
8.94329
9.12342
8.2567
8.26484
9.2004
8.99613
8.98587
9.20521
8.248
8.25284
9.27274
9.03031
9.01854
9.27245
8.22624
8.22869
9.32979
9.05528
9.04146
9.32605
8.19571
8.19702
9.37531
9.07098
9.05423
9.36844
8.15959
8.16032
9.41073
9.07948
9.06051
9.40091
8.11973
8.12041
9.43797
9.08233
9.06153
9.42429
8.07771
8.07835
9.45782
9.08032
9.05693
9.44038
8.03487
8.03619
9.47038
9.07253
9.04726
9.44977
7.99246
7.99407
9.4769
9.06035
9.03351
9.45357
7.95029
7.95271
9.47807
9.0441
9.01575
9.45216
7.90954
7.91271
9.47426
9.024
8.99445
9.44637
7.86968
7.87318
9.46647
9.00118
8.96913
9.43685
7.83147
7.83562
9.45522
8.9746
8.94206
9.42402
7.7939
7.79852
9.44074
8.9462
8.91176
9.4083
7.75733
7.76257
9.42388
8.91462
8.87927
9.39058
7.72231
7.72765
9.40496
8.88149
8.84608
9.37042
7.68732
7.69306
9.38347
8.8471
8.81022
9.34819
7.65283
7.65857
9.36041
8.81024
8.77342
9.32465
7.61893
7.62518
9.33609
8.77208
8.73479
9.29986
7.58611
7.5927
9.31055
8.73218
8.69432
9.2741
7.55409
7.56054
9.28444
8.6913
8.65479
9.24786
7.52215
7.52921
9.2576
8.65044
8.61339
9.2203
7.49123
7.49812
9.22986
8.60903
8.57371
9.19253
7.46007
7.46696
9.20176
8.56788
8.53157
9.16429
7.42886
7.43622
9.17336
8.52534
8.49042
9.13602
7.39917
7.40664
9.14485
8.48314
8.44831
9.10784
7.36911
7.37634
9.11656
8.44093
8.40663
9.07955
7.33967
7.34754
9.08809
8.39812
8.36341
9.04894
7.31071
7.31736
9.05157
8.3523
8.3029
9.02471
7.282
7.30477
9.03281
8.29965
8.24867
9.02334
7.29979
7.38517
8.98059
8.22743
8.23495
9.00724
7.50128
7.56569
8.99323
8.19673
8.18548
9.00481
7.66096
7.76385
9.02821
8.14149
8.39453
8.95166
9.87114
10.6658
11.8257
12.4603
12.9212
13.157
13.2007
13.0644
12.7165
12.2039
11.0884
10.3213
9.36497
8.56638
8.30108
8.11103
8.88127
9.72904
10.6232
6.89212
6.84361
10.6645
9.79132
9.84053
10.6409
6.64838
6.53911
10.7104
9.94642
9.94805
10.7226
6.5149
6.45076
10.7302
9.98564
10.0078
10.7629
6.41539
6.36923
10.7541
10.006
10.0317
10.7777
6.38151
6.32974
10.7771
10.0371
10.0585
10.7958
6.33832
6.34074
10.7888
10.0615
10.0723
10.7987
6.35
6.35397
10.7911
10.0711
10.087
10.8135
6.36166
6.36376
10.8088
10.0871
10.106
10.8253
6.37169
6.37414
10.8178
10.103
10.1191
10.8402
6.38238
6.38462
10.8356
10.1189
10.1383
10.8522
6.39264
6.39518
10.8449
10.1352
10.1519
10.8674
6.40356
6.40591
10.863
10.1518
10.1719
10.8797
6.41412
6.41685
10.8727
10.1687
10.1861
10.8955
6.42545
6.42799
10.8914
10.1862
10.2069
10.9083
6.43642
6.43936
10.9016
10.2037
10.2217
10.9246
6.44818
6.45093
10.9207
10.2221
10.2434
10.9378
6.45959
6.46274
10.9315
10.2402
10.259
10.9548
6.47175
6.47468
10.951
10.2596
10.2816
10.9684
6.48354
6.48688
10.9624
10.2784
10.298
10.986
6.49604
6.49911
10.9825
10.299
10.3217
11.0001
6.50815
6.51165
10.9945
10.3185
10.3389
11.0183
6.52094
6.52413
11.015
10.3404
10.3638
11.0329
6.53331
6.53694
11.0276
10.3606
10.3819
11.0518
6.54632
6.54961
11.0487
10.3838
10.4079
11.0668
6.55891
6.56265
11.0618
10.4047
10.4271
11.0863
6.5721
6.57545
11.0834
10.4291
10.4544
11.1018
6.58484
6.58867
11.0971
10.4511
10.4747
11.1218
6.59817
6.60159
11.1192
10.4761
10.503
11.1378
6.61106
6.61497
11.1335
10.4993
10.5241
11.1586
6.62451
6.62796
11.1562
10.5259
10.5538
11.1752
6.63751
6.64147
11.1713
10.5499
10.5758
11.1967
6.65101
6.65445
11.1947
10.5776
10.6064
11.2141
6.66394
6.66784
11.2104
10.6026
10.6294
11.2363
6.67729
6.68063
11.2346
10.6311
10.6608
11.2544
6.68997
6.69372
11.2508
10.6569
10.6845
11.2772
6.70296
6.7061
11.2758
10.686
10.7165
11.296
6.71516
6.71866
11.2926
10.7123
10.7406
11.3193
6.72753
6.73035
11.3182
10.7414
10.7727
11.3387
6.73895
6.74203
11.3354
10.768
10.7966
11.3624
6.75036
6.75267
11.3616
10.7964
10.8281
11.3822
6.76059
6.76306
11.379
10.8225
10.8509
11.4061
6.77057
6.77216
11.4055
10.8495
10.8807
11.4261
6.77908
6.78069
11.4228
10.8737
10.9012
11.45
6.78703
6.78758
11.4496
10.898
10.9279
11.4698
6.79288
6.7931
11.4666
10.9186
10.9442
11.4936
6.79828
6.79695
11.4934
10.9383
10.9657
11.513
6.80084
6.79869
11.5097
10.9539
10.9763
11.536
6.80224
6.79799
11.5358
10.967
10.9903
11.5537
6.79979
6.79414
11.5496
10.9748
10.9922
11.574
6.79532
6.78623
11.5725
10.9783
10.9955
11.5866
6.78531
6.77384
11.5797
10.9732
10.9832
11.5993
6.77217
6.75564
11.5938
10.9614
10.9692
11.6001
6.75155
6.73266
11.5865
10.9364
10.9336
11.5973
6.72789
6.70172
11.584
10.8971
10.8878
11.5755
6.69188
6.66216
11.5503
10.8296
10.8127
11.5516
6.65085
6.61088
11.5152
10.7456
10.7193
11.4863
6.59308
6.54867
11.4335
10.625
10.5887
11.4179
6.52891
6.47239
11.3383
10.4777
10.4279
11.286
6.44554
6.38483
11.1779
10.2835
10.2221
11.1316
6.35667
6.28669
10.9817
10.0577
9.98161
10.892
6.25395
6.18897
10.699
9.78407
9.69831
10.607
6.16158
6.10906
10.3607
9.4843
9.38713
10.2225
6.09136
6.07059
9.94397
9.14466
9.04135
9.81151
6.06905
6.06679
9.50598
8.79126
8.68149
9.34751
6.09611
6.12536
9.03631
8.40633
8.29328
8.88997
6.19166
6.25277
8.57913
8.02892
7.91869
8.42618
6.35702
6.46652
8.12489
7.65075
7.54887
7.98704
6.61667
6.77539
7.71504
7.30908
7.21839
7.58099
6.98843
7.21579
7.31796
7.00869
6.94111
7.19414
7.48842
7.73909
6.96232
6.81007
6.77974
6.86136
8.02682
8.29242
6.6972
6.72772
6.75059
6.66779
8.52765
8.66838
6.61429
6.7684
6.95855
6.73001
8.73578
8.72929
6.81035
7.03304
7.42579
7.20664
8.42356
8.11672
7.38279
7.62971
6.80121
6.89624
6.80837
7.21354
8.04271
7.49792
7.2345
7.75059
7.10609
7.2076
7.69227
7.2107
7.01217
7.37574
7.34107
7.50193
7.24025
6.96979
6.81658
7.03539
7.64478
7.79896
6.79871
6.76709
6.65757
6.68607
7.97365
8.12647
6.45583
6.61927
6.55401
6.37337
8.30735
8.47273
6.17107
6.551
6.56327
6.13185
8.5987
8.71552
6.01985
6.62079
6.70403
6.03736
8.75112
8.71616
6.08863
6.85704
7.0256
6.22954
8.54262
8.25145
6.43558
7.36562
7.50839
6.57868
7.88513
7.41185
5.52797
5.44299
6.37817
6.38592
7.68573
7.6574
5.78753
6.16942
6.14419
5.75218
7.95815
8.23692
5.55462
6.01055
6.07801
5.5238
8.51402
8.70225
5.44028
6.06772
6.26701
5.50076
8.84967
8.89107
5.53841
6.32609
6.72217
5.77455
8.74741
8.37403
5.98849
6.98715
7.45295
6.18129
8.05292
8.22483
5.08
5.02309
6.29032
5.85114
8.50266
8.48145
5.47496
6.25136
6.59573
5.63643
8.68936
8.77765
5.57528
6.67069
7.00777
5.69355
8.78879
8.7665
5.7616
7.18052
7.59797
6.03934
8.63226
8.41033
6.23388
8.02206
8.32364
6.47341
8.1514
8.42921
4.99221
4.95178
6.58211
5.68275
8.7092
8.72659
5.32575
6.55418
6.93532
5.50035
8.86104
8.92626
5.6316
6.93967
7.54491
5.94695
8.88713
8.69148
6.21788
7.94983
8.68029
6.60166
8.44871
8.76979
5.0358
5.08007
7.04722
5.83729
8.97911
8.90613
5.77524
7.22801
8.10917
6.12466
8.87995
8.81367
6.35636
8.49032
9.41168
6.85697
8.71145
8.66768
7.14686
9.68942
5.19449
5.09626
8.84977
9.06463
5.91152
7.62055
7.65688
5.75632
9.06904
9.23328
6.34641
8.55989
9.14781
6.73521
9.21847
9.16898
7.48455
10.3165
11.1555
7.96948
9.20811
9.4446
5.7329
6.0616
9.32544
6.79868
9.44327
9.30646
7.23845
10.1094
12.0321
8.15217
9.30952
9.46142
8.58538
12.4138
6.49678
5.84312
9.48143
9.47354
7.17666
10.3425
10.9011
7.57264
9.50412
9.78537
8.91478
13.2135
14.0958
9.62793
9.95471
9.63608
6.44613
7.68838
12.7024
8.55396
9.76566
9.81973
9.36148
13.9971
17.1185
11.1831
10.1496
10.6124
11.9311
17.6014
9.84526
7.70865
9.97215
10.2386
10.9687
16.7392
18.4232
12.1434
10.5195
11.6027
15.138
21.1038
12.8983
9.14686
10.0708
10.8741
14.3567
22.241
23.2147
15.841
11.4984
10.2242
9.45971
14.5488
25.1045
15.8377
11.1377
11.9422
18.3184
27.7322
31.8327
24.2284
14.0066
10.8655
15.2995
23.6827
33.9815
25.9127
14.184
10.3798
13.585
25.3071
39.867
28.7836
13.8887
16.5008
33.8905
42.9273
40.0684
23.9835
12.5525
23.8717
48.374
53.8414
52.2588
42.2002
15.9502
13.4323
41.899
52.8766
52.626
41.7011
14.4512
15.6724
40.7234
51.3124
50.2671
40.8876
17.7302
23.138
45.6435
50.8881
37.6946
24.9
16.0462
19.0821
34.0232
41.193
28.3409
19.6565
13.6236
16.601
27.7689
33.996
23.5314
16.1516
12.8584
14.0249
21.4559
28.6846
25.9473
17.8146
12.8372
11.1743
10.1826
15.0631
21.3572
15.8777
12.4787
11.1915
10.7565
14.0471
19.5395
13.9235
11.6773
10.7528
12.0023
17.4107
10.0906
7.93716
10.3321
10.431
10.5205
15.6247
13.9828
9.56065
10.1475
9.73506
7.09551
8.20921
13.039
9.10167
9.75817
9.68929
8.24969
11.615
6.99543
6.40766
9.68224
9.14429
7.85851
10.9185
9.7046
7.13637
9.20426
9.32822
5.78487
6.11037
9.16001
7.06184
8.89076
9.21258
5.86343
6.48446
9.93262
7.2425
8.56062
8.59296
6.43988
8.21709
7.09048
5.81126
8.82901
9.3624
4.90165
4.99136
7.34237
5.60839
7.95738
8.30792
5.25322
6.72278
4.59961
4.72871
8.82816
7.65826
5.16867
6.67786
6.14046
4.99234
8.08373
8.92503
4.45702
4.34775
6.21487
4.84163
7.47494
7.92646
4.75684
5.72511
4.138
4.39449
8.64783
7.26528
4.56514
5.64191
5.27303
4.53364
7.76453
8.68222
4.18996
3.93193
5.30852
4.34493
7.17834
7.68449
4.34228
4.95535
3.78265
4.1691
8.54284
7.04125
4.10717
4.85569
4.59846
4.16426
7.58913
8.5506
4.00992
3.61156
4.62147
3.91791
6.96939
7.52812
4.0308
4.37381
3.52704
3.98062
8.48326
6.89217
3.72963
4.29765
4.11384
3.87578
7.44339
8.42068
3.91411
3.40353
4.10407
3.63563
6.81363
7.40027
3.7401
3.9261
3.30787
3.94398
8.43802
6.78484
3.50486
3.82071
3.69004
3.57809
7.38887
8.44557
3.89236
3.16919
3.66929
3.42649
6.72979
7.35293
3.47221
3.5419
3.08638
3.89957
8.43485
6.73276
3.31401
3.42859
3.32424
3.28685
7.35854
8.4524
3.94185
2.95921
3.28284
3.23764
6.70355
7.35764
3.23445
3.19919
2.89279
3.91988
8.41905
6.72412
3.10349
3.0971
3.02053
3.0782
7.40199
8.5168
3.89248
2.77449
3.015
3.03694
6.73536
7.39748
2.96775
2.86496
2.71867
3.9746
8.49812
6.7035
2.98072
2.91713
2.7516
2.88975
7.366
8.50427
3.96144
2.65129
2.85841
2.93001
6.68689
7.40905
2.8784
2.65386
2.60675
3.98516
8.57553
6.81842
2.86627
2.76008
2.54789
2.82564
7.51907
8.66016
3.97076
2.53621
2.69398
2.81604
6.71835
7.45647
2.76545
2.46335
2.4817
3.98892
8.61926
6.86326
2.72899
2.58099
2.35728
2.66223
7.58744
8.73824
4.00305
2.40594
2.50312
2.67629
6.85497
7.59651
2.6435
2.27956
2.34876
4.07095
8.71898
6.77246
2.59829
2.38553
2.17383
2.54373
7.54128
8.69495
4.03896
2.26376
2.2898
2.51497
6.8464
7.68751
2.47923
2.09252
2.26531
4.2082
8.84006
6.95579
2.19198
2.09241
2.0734
3.35799
8.27495
6.56627
2.32328
2.22148
2.06606
2.37981
7.45076
8.65536
3.96631
2.18948
2.28388
2.50581
6.78726
7.66008
2.50042
2.09815
2.244
4.11662
8.99373
7.0813
2.49106
2.22791
2.06202
2.51378
7.95601
9.33633
4.26322
2.30575
2.08705
2.21088
7.27961
8.64203
3.48987
2.10005
2.17112
2.30369
6.77014
7.65445
2.41706
2.00074
2.18633
4.13885
8.9299
7.07043
2.43376
2.13959
1.98421
2.4554
7.95098
9.3295
4.23439
2.1925
2.09954
2.42186
7.31255
8.21792
2.43863
1.9512
2.2582
4.3555
9.65645
7.47025
2.13813
1.97885
2.03379
3.55976
8.90123
6.89055
2.23151
2.06704
1.91975
2.38225
7.83169
9.19226
4.25814
2.15409
2.07732
2.40119
7.24685
8.23504
2.45078
1.93996
2.28025
4.46419
9.82692
7.66109
2.14676
1.98744
2.06575
3.67831
9.2172
7.21191
2.25481
2.07214
1.9233
2.42095
8.25851
9.67666
4.64882
2.27138
1.99714
2.2094
7.68698
9.19031
3.6538
2.06488
2.07543
2.26744
7.08267
8.05233
2.38638
1.91897
2.20931
4.43813
9.56589
7.64546
2.43834
2.07557
1.95199
2.50563
8.64474
10.2807
4.7224
2.35338
2.03777
2.23482
8.04575
9.65701
3.85781
2.14679
2.10383
2.32369
7.52063
8.55408
2.43701
1.94751
2.35006
4.82925
10.0402
7.94759
2.32301
2.04717
2.15157
3.85693
9.51061
7.37971
2.33247
2.11967
1.97087
2.48267
8.45576
10.1109
4.74991
2.31316
2.1211
2.51856
8.00292
9.09333
2.62297
2.00039
2.457
4.96546
10.85
8.40671
2.30403
2.08123
2.24782
4.12128
10.1121
7.96311
2.3857
2.12583
1.97432
2.56078
9.0731
10.8241
4.99706
2.44287
2.06832
2.38011
8.50706
10.1411
4.02337
2.21343
2.08203
2.32779
7.74639
8.93077
2.53284
1.94435
2.4186
5.19213
10.6043
8.61869
2.33488
2.07138
2.24584
4.18484
10.4642
8.12609
2.37494
2.10717
1.9708
2.59568
9.32504
11.2454
5.19114
2.50276
2.08899
2.31998
8.76525
10.7437
4.52664
2.39805
2.0706
2.10446
8.2469
10.0467
4.11301
2.25191
2.15238
2.39996
7.86649
9.01336
2.59438
2.01292
2.51066
5.21546
10.8277
8.61822
2.42244
2.15591
2.34597
4.32808
10.6486
8.27275
2.48294
2.2141
2.08177
2.70497
9.48325
11.3128
5.53673
2.62148
2.23865
2.54725
9.07688
11.0633
4.50036
2.44387
2.27182
2.5593
8.54401
9.75276
2.79628
2.12897
2.70803
5.55639
11.7365
9.22814
2.5664
2.27287
2.48651
4.56595
11.1203
8.59079
2.57981
2.28917
2.15406
2.83447
9.90169
11.7762
5.85272
2.76168
2.28939
2.53594
9.47555
11.6458
4.98289
2.65623
2.25086
2.30963
8.98128
11.0563
4.57166
2.49295
2.30509
2.5867
8.66707
9.98663
2.83949
2.16653
2.82158
5.78128
12.201
9.60255
2.59303
2.32564
2.69957
5.02625
11.8702
9.17646
2.37705
2.30559
2.55215
4.64707
11.1148
8.70743
2.64598
2.35953
2.23523
2.93737
9.97629
12.0535
5.93983
2.88091
2.39363
2.73191
9.53254
11.8708
4.9223
2.66761
2.41534
2.73203
9.1454
10.5459
3.00992
2.28199
2.98007
6.30824
12.6383
10.1176
2.75026
2.42853
2.86624
5.32238
12.485
9.6687
2.47521
2.40336
2.71059
4.9926
11.8666
9.33541
2.78584
2.4577
2.32513
3.07844
10.7506
13.1874
6.25719
3.08101
2.4458
2.80665
10.2614
12.6439
5.45633
2.92134
2.42563
2.52287
9.6833
11.8665
5.01173
2.73142
2.46854
2.78354
9.23157
10.7156
3.06102
2.33879
3.09616
6.48625
12.9918
10.4771
2.82907
2.49568
2.98005
5.58835
13.0875
10.071
2.5767
2.48145
2.83147
5.25263
12.3775
9.72977
2.9006
2.54705
2.41898
3.21663
11.2225
13.8415
6.58657
3.266
2.54924
2.95702
10.8567
13.4235
5.67313
3.07459
2.52168
2.62799
10.3711
12.607
5.28548
2.8898
2.55803
2.91784
9.81891
11.3169
3.20348
2.42654
3.24359
6.84167
13.6538
10.9643
2.94211
2.57414
3.13201
5.8412
13.7054
10.642
2.63728
2.55437
3.04405
5.50871
13.1539
10.292
2.66637
2.55412
2.9584
5.52898
12.6999
9.90688
3.0402
2.64742
2.54749
3.42421
11.5145
14.3235
6.97354
3.44553
2.70201
3.14319
11.3045
14.1818
6.048
3.28233
2.6599
2.79064
10.9486
13.3759
5.7198
3.10923
2.70164
3.10412
10.4012
11.9704
3.444
2.57783
3.47803
7.2343
14.3853
11.5386
3.15249
2.72172
3.33489
6.11827
14.4156
11.2456
2.78058
2.67244
3.22724
5.82505
13.8923
10.915
2.83207
2.68073
3.17305
5.85941
13.4648
10.6741
3.23036
2.752
2.65047
3.62942
12.344
15.4363
7.43041
3.67466
2.80113
3.33223
12.0869
15.1465
6.40463
3.48729
2.74248
2.85971
11.6822
14.4276
6.04596
3.34445
2.72872
2.9024
11.2462
13.7535
5.98983
3.23642
2.79532
3.28112
10.8624
12.474
3.61916
2.68906
3.68831
7.60708
15.1626
12.0724
3.35589
2.86356
3.56622
6.57834
15.3024
11.7461
2.98655
2.81629
3.43567
6.18271
14.5641
11.4179
2.99274
2.81737
3.38254
6.21686
14.127
11.1782
3.43619
2.89103
2.79052
3.88057
12.9415
16.2762
7.90476
3.95741
2.97826
3.56104
12.7164
16.0486
6.8384
3.74558
2.89617
3.07992
12.4892
15.3772
6.44649
3.58548
2.86382
3.07857
11.9934
14.6665
6.40414
3.4664
2.92769
3.47352
11.4589
13.1974
3.90006
2.82519
3.98403
8.04212
16.31
12.7831
3.60846
3.02648
3.82529
7.0203
16.259
12.6276
3.17753
2.96715
3.68689
6.60831
15.6756
12.3362
3.17103
2.94792
3.60552
6.62365
15.2094
12.0457
3.63215
3.00103
2.90645
4.11076
13.9328
17.5817
8.50015
4.21722
3.11578
3.81406
13.6026
17.133
7.29074
3.99428
3.02386
3.22553
13.2433
16.3912
6.95252
3.83574
2.98171
3.27922
12.8124
15.7863
6.86648
3.69253
3.01237
3.66599
12.4077
14.3735
4.13358
2.91593
4.20607
8.89919
17.456
14.0075
3.79652
3.15225
4.06117
7.50214
17.5307
13.644
3.31507
3.06694
3.91144
7.11617
16.9178
13.2719
3.32141
3.03381
3.843
6.98601
16.4999
13.042
3.35332
3.03915
3.78722
7.0357
16.1121
12.61
3.78589
3.09479
3.01417
4.36015
14.6331
18.5261
9.01315
4.49654
3.29105
4.05116
14.4773
18.2972
7.79374
4.26273
3.19355
3.45119
14.2678
17.7223
7.44928
4.12309
3.1602
3.45323
13.8212
17.184
7.37153
4.05877
3.15185
3.55288
13.5676
16.7225
7.36927
3.95559
3.19951
3.95155
13.0949
15.0758
4.45686
3.10676
4.59413
9.23254
18.8282
14.7971
4.12608
3.38418
4.40543
8.07787
18.8225
14.6571
3.60416
3.31017
4.25064
7.62193
18.1309
14.1377
3.5723
3.27964
4.20334
7.59015
17.5144
13.8321
3.72141
3.29054
4.13161
7.61404
17.0382
13.4604
4.14178
3.33417
3.26263
4.72792
15.681
19.3688
9.92889
4.84449
3.57309
4.32323
15.431
19.6443
8.62328
4.69419
3.47369
3.87591
15.2904
19.0107
8.1078
4.50124
3.41486
3.80892
14.8403
18.4
7.98683
4.42308
3.39484
3.87432
14.4836
17.8439
7.98807
4.31017
3.41581
4.27695
13.9731
16.1292
4.81617
3.33732
4.98589
10.1849
19.9098
16.0675
4.46182
3.63388
4.76745
8.75089
20.3979
15.7735
3.89449
3.52993
4.61143
8.3714
19.4849
15.2084
3.92493
3.50064
4.55564
8.25163
18.9142
14.8706
3.99372
3.51082
4.48378
8.2133
18.3701
14.4251
4.42995
3.53237
3.4741
5.15557
16.732
21.1935
10.4673
5.29941
3.79052
4.75028
16.6637
21.2656
9.21564
5.04752
3.68462
4.11227
16.343
20.2855
8.80601
4.86625
3.63834
4.13678
15.982
19.9623
8.66774
4.77039
3.61495
4.1811
15.7582
19.3044
8.54243
4.64814
3.61953
4.57238
15.1365
17.5333
5.21163
3.5554
5.43229
11.1828
21.5957
17.186
4.83927
3.89597
5.21707
9.56685
21.8425
16.967
4.26422
3.79603
5.01021
9.06222
21.0562
16.4067
4.24723
3.7513
4.93357
8.94609
20.441
16.0326
4.35163
3.75436
4.85416
8.94244
19.7591
15.5454
4.8084
3.7583
3.71196
5.59125
18.0162
23.0169
11.3098
5.81098
4.08499
5.16554
17.9192
22.9736
9.997
5.49775
3.93969
4.46446
17.8405
22.0686
9.45938
5.24997
3.87747
4.41484
17.4146
21.655
9.37251
5.17786
3.86476
4.4673
17.0474
21.1704
9.35983
5.13992
3.88074
4.58046
16.7072
20.6259
9.29466
5.04608
3.87244
4.98153
16.2373
18.6635
5.67554
3.81858
5.92863
11.7597
23.4903
18.454
5.34837
4.19923
5.63663
10.2991
23.4846
18.1883
4.62401
4.07867
5.43225
9.78284
22.5307
17.6945
4.61295
4.04856
5.38001
9.69362
21.9848
17.2528
4.76415
4.06589
5.30498
9.69958
21.2975
16.9407
5.27815
4.06248
4.03326
6.00597
19.535
24.8462
12.3201
6.33403
4.41861
5.60617
19.5166
24.9852
10.8882
5.99509
4.25592
4.85536
19.1648
23.7624
10.2829
5.72467
4.18551
4.83224
18.6086
23.1238
10.1653
5.6073
4.18213
4.91409
18.2152
22.4264
10.1452
5.49618
4.17152
5.41432
17.4915
20.2102
6.23069
4.12252
6.50677
12.7328
25.5754
20.0638
5.78078
4.55809
6.17039
11.1457
25.6021
19.8631
4.95409
4.41002
5.91657
10.5507
24.4956
19.1875
5.01295
4.36387
5.84005
10.5435
23.8164
18.7819
5.15805
4.376
5.76306
10.575
23.1985
18.2698
5.70518
4.36533
4.34582
6.62341
21.1626
27.1124
13.3342
6.93538
4.78654
6.11591
21.132
27.0408
11.7819
6.53426
4.60223
5.23636
21.0093
25.9496
11.1257
6.22558
4.49912
5.15356
20.2058
25.1331
11.0863
6.11858
4.50122
5.37935
19.7795
24.4061
11.0572
5.97907
4.46742
5.84596
19.0208
21.9167
6.69708
4.42869
7.0583
13.7545
27.7366
21.6205
6.23255
4.90679
6.728
12.2372
27.6561
21.4108
5.50351
4.74235
6.419
11.4845
26.4893
20.7978
5.43556
4.67542
6.31286
11.3811
25.773
20.3228
5.55241
4.67515
6.2404
11.4315
24.9998
19.7558
6.18585
4.66868
4.6584
7.07781
22.7882
29.1633
14.3938
7.48302
5.1386
6.60188
22.7247
29.1369
12.7904
7.0696
4.94719
5.68252
22.459
27.7659
12.068
6.74577
4.84255
5.69511
21.7077
26.8577
11.8573
6.59598
4.84129
5.75985
21.2233
26.0842
11.905
6.47708
4.81436
6.36071
20.3102
23.4518
7.33862
4.78987
7.68094
14.8963
29.709
23.3022
6.80035
5.33215
7.30743
13.1627
29.6195
22.9541
5.93804
5.15764
7.01558
12.4547
28.3685
22.1738
5.93896
5.09662
6.92137
12.3967
27.4402
21.555
6.13299
5.10807
6.78967
12.2738
26.5157
20.891
6.72369
5.07217
5.07145
7.74818
24.251
30.3711
16.1338
8.10015
5.64464
7.17735
24.3043
30.9753
13.8863
7.73661
5.41752
6.33671
23.9731
29.5733
13.0837
7.37434
5.28484
6.27908
23.0617
28.16
12.7882
7.06434
5.18288
6.86131
21.9573
25.5054
7.85578
5.17222
8.41891
16.3581
32.469
25.2902
7.45581
5.7649
8.03239
14.5074
32.2494
24.8058
6.55903
5.59539
7.61897
13.4535
30.5183
23.899
6.44133
5.47843
7.45572
13.3095
29.4481
23.1878
6.60359
5.46146
7.28025
13.1727
28.3741
22.1888
7.11478
5.40094
5.41203
8.3083
25.8541
32.5742
17.0415
8.72779
6.07183
7.73182
25.9728
32.9557
14.8735
8.35787
5.85892
6.89125
25.5575
31.5044
14.0789
7.99509
5.73274
6.83478
24.5625
29.9348
13.8047
7.70513
5.57903
7.45011
23.4408
27.2547
8.48377
5.57391
9.08586
17.651
34.6806
26.786
7.95266
6.23701
8.66349
15.5476
34.3211
26.5502
7.16025
6.0268
8.25881
14.6241
32.6179
25.4223
7.11066
5.92296
7.96949
14.3228
30.9384
24.1377
7.70706
5.81023
5.83605
8.97166
28.235
35.8628
18.4259
9.51389
6.53348
8.46148
27.9925
35.4346
16.1169
9.05659
6.29641
7.45102
27.4324
33.7
15.1145
8.61303
6.14251
7.40295
26.4097
32.2627
14.8296
8.31176
5.95707
7.9626
25.1797
29.3242
9.08341
5.96455
9.72233
19.1091
36.6504
29.0485
8.63503
6.66781
9.26666
16.4947
36.425
28.2172
7.60484
6.43544
8.82595
15.4988
34.6019
27.1075
7.55191
6.31076
8.53291
15.2373
33.4046
25.9988
8.32641
6.1838
6.22153
9.61574
30.5087
38.3958
20.0475
10.2808
7.01596
9.15584
30.0246
37.6102
17.3539
9.78487
6.76192
8.19086
29.1568
35.8117
16.3296
9.18996
6.44923
8.58927
27.6452
32.2101
9.79535
6.46273
10.625
20.9909
39.7937
31.3833
9.37377
7.22621
10.0739
17.8972
39.2314
30.2188
8.31211
6.94892
9.58166
16.8835
37.2784
29.1388
8.28562
6.80521
9.30716
16.6804
36.0143
28.078
9.00742
6.66568
6.70804
10.4084
32.9492
41.642
21.4577
11.1406
7.52
9.87375
32.4323
40.6702
18.627
10.5323
7.21175
8.62661
31.1187
38.6694
17.5623
9.897
6.89591
9.31577
29.8916
35.1561
10.7222
6.92126
11.5305
22.8597
43.56
34.0985
10.1973
7.8011
10.9186
19.3824
42.4473
32.6574
9.05743
7.48959
10.3295
18.4586
40.2475
31.1103
9.77935
7.21058
7.25798
11.2742
36.476
46.0291
23.3319
12.2336
8.09492
10.7483
35.301
44.3502
20.2325
11.4281
7.75832
9.30664
34.1658
42.2755
18.9314
10.8062
7.55284
9.19932
32.5729
40.4449
18.684
10.3731
7.33726
9.96943
31.488
36.9723
11.3277
7.37467
12.2798
24.0276
45.7854
35.4237
10.9802
8.29272
11.6809
20.7528
44.8485
33.6777
9.60304
8.03938
11.0862
19.7703
42.5759
33.1355
10.5154
7.77274
7.844
12.134
39.014
48.1763
25.3225
13.0404
8.75334
11.72
37.1772
46.6247
21.9951
12.2521
8.24164
11.0122
35.6525
41.6963
12.4888
8.26756
13.7468
26.256
51.4631
39.3733
12.0471
9.14462
12.949
22.7514
49.4737
37.6843
10.6845
8.75508
12.1061
21.4499
46.7445
36.4394
11.3609
8.35755
8.44248
13.0736
42.85
53.0061
27.4998
14.2758
9.38921
12.648
40.5403
51.3223
23.6871
13.4033
9.01282
11.0269
39.0432
48.7637
22.4003
12.5312
8.55475
11.6835
37.584
44.1719
13.0389
8.59555
14.5947
28.847
55.5331
42.1063
13.0981
9.65509
13.7254
24.8237
52.8588
40.3601
12.2684
9.128
9.20722
14.2233
47.3231
58.6419
30.1665
15.6304
10.2509
13.7881
44.3366
55.5873
25.6957
14.6647
9.82349
12.0615
42.572
53.1057
24.4179
13.6922
9.28831
12.6152
40.8181
47.9815
14.5503
9.37509
15.8547
30.8932
59.3216
45.53
14.1303
10.4799
14.9315
26.7732
57.0065
43.8848
13.4442
9.87623
9.95849
15.3016
51.5704
63.8618
33.0148
16.9378
11.0479
14.8635
48.5603
60.8935
28.2281
15.7484
10.196
13.8415
45.6476
54.086
15.8126
10.2503
17.7279
34.8672
67.8358
51.3156
15.5405
11.4688
16.5085
29.7742
64.0097
48.8874
14.7117
10.7063
10.7951
16.7221
57.259
69.7124
36.803
18.5606
12.0265
16.1742
52.9943
66.1614
30.6773
17.2571
11.3309
14.1131
50.2546
62.6314
28.8229
16.0238
10.6995
14.7249
48.1121
56.3775
16.8662
10.8204
18.3909
36.5456
69.9453
53.5286
17.1346
11.8241
11.8027
18.5341
62.5818
76.4388
40.6858
20.3284
13.0104
17.6394
58.3515
72.7845
33.5036
18.5885
11.754
16.0509
54.019
63.847
18.3096
11.828
20.8142
41.2144
80.4188
60.6827
18.0823
13.2818
19.3405
34.9933
75.5999
57.4856
17.0948
12.3258
12.4375
19.4005
67.1334
82.1019
42.9939
21.606
13.7741
18.9146
62.1464
77.2273
35.9857
19.8627
12.6012
17.342
58.6739
68.2285
19.4688
12.701
21.9414
43.1942
84.0988
63.5815
19.309
14.0773
20.4328
37.051
79.3217
60.4005
18.0683
13.0523
13.1532
20.321
70.2343
86.9137
45.186
22.5301
14.1383
20.9155
65.7816
76.0492
21.0948
14.0236
24.5801
49.6699
95.0116
71.5036
21.2898
15.5512
22.5691
40.9792
88.7805
66.7982
19.5375
14.0972
14.2424
22.2572
77.3162
94.539
49.2736
24.6328
15.3055
22.4013
71.2395
82.2305
24.2164
15.2988
26.8364
51.6882
101.639
75.5355
22.9452
16.794
24.3857
43.69
93.503
70.7925
21.1002
15.1514
15.2684
23.4546
81.9935
100.848
52.1311
26.1128
16.1488
23.7232
76.1519
88.0289
25.1732
16.1453
27.9365
55.7399
108.512
81.0513
24.8642
17.1091
16.9828
26.7285
94.1741
117.894
60.0088
30.3796
18.6868
25.5601
87.2597
107.196
49.5258
27.2521
16.5092
23.0419
79.9584
91.7122
25.399
16.5928
28.4938
57.6289
111.696
83.823
26.0448
17.5338
17.4885
27.609
96.1098
117.744
60.6911
30.3155
18.3206
27.0906
87.5185
100.229
28.282
18.2339
31.5492
63.1581
122.675
91.2955
27.915
18.9656
18.8895
29.3015
105.008
130.036
64.3775
32.5498
19.4454
28.8282
96.3836
110.874
30.4215
19.2766
34.3225
70.0987
136.252
100.533
30.3306
20.2517
20.1777
31.8246
114.425
138.728
70.5409
35.3717
20.7604
31.0449
101.672
116.092
32.4061
20.6419
36.0236
71.8603
140.143
103.974
31.4347
21.1872
21.0823
33.0138
118.175
144.211
73.0938
36.6986
21.5099
32.0266
105.687
121.384
33.1017
21.3277
36.9251
73.3414
148.877
111.068
32.8707
21.7185
21.6405
34.7668
127.418
156.156
79.2194
38.4328
22.3585
34.0352
115.229
127.631
39.8761
22.9293
23.6007
43.6016
146.847
172.198
90.7307
43.7965
24.2803
37.3788
125.979
141.625
38.1702
23.8269
42.1135
84.278
170.702
124.168
36.6249
24.0539
23.7049
37.1238
140.858
171.866
84.0699
41.2304
23.3879
35.4726
125.356
140.696
41.4492
23.7329