/*--------------------------------*- C++ -*----------------------------------*\
| =========                 |                                                 |
| \\      /  F ield         | OpenFOAM: The Open Source CFD Toolbox           |
|  \\    /   O peration     | Version:  v2006                                 |
|   \\  /    A nd           | Website:  www.openfoam.com                      |
|    \\/     M anipulation  |                                                 |
\*---------------------------------------------------------------------------*/
FoamFile
{
    version     2.0;
    format      ascii;
    class       volScalarField;
    location    "0.062";
    object      alphat;
}
// * * * * * * * * * * * * * * * * * * * * * * * * * * * * * * * * * * * * * //

dimensions      [1 -1 -1 0 0 0 0];


internalField   nonuniform List<scalar> 
16277
(
39.7279
27.703
91.0529
19.8395
29.002
15.8011
6.38686
2.61417
1.41183
0.953689
0.750197
0.646913
0.585121
0.540243
0.502457
0.468464
0.437544
0.409743
0.385089
0.363408
0.344365
0.327558
0.312605
0.299182
0.287032
0.275959
0.265812
0.256476
0.247858
0.239885
0.232491
0.225623
0.219235
0.213288
0.207745
0.202579
0.197762
0.193272
0.189089
0.185194
0.181572
0.178209
0.175092
0.17221
0.169555
0.167117
0.16489
0.162868
0.161047
0.159423
0.157993
0.156757
0.155714
0.154865
0.154211
0.153756
0.153505
0.153466
0.153646
0.154047
0.154685
0.155571
0.156722
0.158155
0.159893
0.161962
0.164391
0.167219
0.170493
0.174273
0.17864
0.1837
0.18959
0.196469
0.204494
0.213774
0.224315
0.236038
0.249048
0.264486
0.286343
0.325951
0.412435
0.621642
1.15779
2.43399
4.29692
4.59483
2.72313
1.79904
0.885869
0.403964
0.219664
0.103641
0.0245576
0.0044185
0.0001464
0.000127054
0.00207673
0.0095644
0.00527017
0.00134567
0.00011128
9.96373e-05
0.00122688
0.00443178
0.00353619
0.00105454
9.20693e-05
8.61346e-05
0.00102197
0.00335345
0.00290158
0.000920535
8.10803e-05
7.76731e-05
0.000904698
0.00282633
0.00257243
0.000843074
7.43145e-05
7.24987e-05
0.000848153
0.00254625
0.00238182
0.000803041
7.02802e-05
6.90876e-05
0.000810249
0.00236723
0.00224241
0.000773924
6.74509e-05
6.66266e-05
0.000781078
0.00223589
0.00213272
0.000750269
6.53479e-05
6.475e-05
0.000757218
0.0021307
0.00204132
0.000730107
6.37118e-05
6.32624e-05
0.000737032
0.00204219
0.00196266
0.000712411
6.23846e-05
6.20306e-05
0.000719365
0.00196542
0.00189328
0.000696438
6.12595e-05
6.09711e-05
0.000703312
0.0018973
0.00183097
0.000681711
6.02781e-05
6.00358e-05
0.0006885
0.0018359
0.0017744
0.000668008
5.93997e-05
5.91899e-05
0.000674728
0.00178
0.00172256
0.000655201
5.85969e-05
5.8411e-05
0.00066186
0.00172874
0.0016747
0.00064318
5.78518e-05
5.7684e-05
0.000649775
0.00168141
0.00163039
0.000631842
5.71519e-05
5.69982e-05
0.000638372
0.00163754
0.0015892
0.00062111
5.64882e-05
5.63457e-05
0.000627576
0.00159675
0.00155086
0.000610928
5.58541e-05
5.57205e-05
0.000617343
0.00155875
0.0015151
0.000601271
5.52447e-05
5.51187e-05
0.000607639
0.00152327
0.00148162
0.000592099
5.46564e-05
5.45371e-05
0.000598415
0.00149002
0.00145016
0.000583358
5.40864e-05
5.39729e-05
0.000589619
0.00145871
0.00142047
0.000575
5.35318e-05
5.34232e-05
0.000581201
0.00142913
0.00139234
0.000566978
5.29899e-05
5.28853e-05
0.000573114
0.00140106
0.00136557
0.000559245
5.24582e-05
5.23569e-05
0.00056531
0.00137432
0.00134001
0.000551757
5.19343e-05
5.18354e-05
0.000557745
0.00134875
0.00131551
0.000544474
5.14157e-05
5.13186e-05
0.00055038
0.00132422
0.00129195
0.000537361
5.09005e-05
5.08044e-05
0.000543181
0.0013006
0.00126922
0.000530388
5.03864e-05
5.02907e-05
0.000536119
0.0012778
0.00124722
0.000523528
4.98716e-05
4.97757e-05
0.00052917
0.00125571
0.00122588
0.000516762
4.93542e-05
4.92576e-05
0.000522312
0.00123427
0.00120514
0.000510071
4.88325e-05
4.87348e-05
0.000515532
0.00121343
0.00118495
0.000503446
4.83051e-05
4.82059e-05
0.000508821
0.00119315
0.00116528
0.000496879
4.77706e-05
4.76698e-05
0.000502187
0.0011734
0.00114612
0.000490375
4.72278e-05
4.71254e-05
0.000495673
0.00115416
0.00112746
0.000483957
4.66763e-05
4.65724e-05
0.000489227
0.00113544
0.00110929
0.000477599
4.61154e-05
4.60099e-05
0.000482864
0.00111723
0.00109163
0.000471325
4.55446e-05
4.54378e-05
0.000476607
0.00109955
0.00107449
0.000465162
4.49639e-05
4.48563e-05
0.000470487
0.00108244
0.00105795
0.000459147
4.43739e-05
4.4266e-05
0.000464547
0.00106596
0.00104208
0.000453327
4.37755e-05
4.36685e-05
0.000458848
0.00105037
0.00102705
0.000447772
4.31709e-05
4.30661e-05
0.000453467
0.0010358
0.00101299
0.000442569
4.25632e-05
4.24624e-05
0.000448492
0.00102226
0.00100004
0.00043781
4.19565e-05
4.18624e-05
0.000444028
0.00100999
0.000988431
0.000433608
4.13562e-05
4.1272e-05
0.000440203
0.000999273
0.000978478
0.000430106
4.07691e-05
4.06997e-05
0.000437166
0.00099042
0.000970513
0.000427483
4.02034e-05
4.01567e-05
0.000434985
0.000983771
0.000964923
0.000425862
3.96766e-05
3.96458e-05
0.00043349
0.000979577
0.000961825
0.000424851
3.92097e-05
3.91835e-05
0.000432716
0.000978327
0.000961698
0.000424685
3.88014e-05
3.8779e-05
0.000432784
0.000980042
0.0009645
0.000425427
3.84855e-05
3.84469e-05
0.000433666
0.000984533
0.000970121
0.000427055
3.82588e-05
3.8208e-05
0.000435243
0.000991419
0.000978029
0.000429158
3.80409e-05
3.80638e-05
0.000437209
0.00100051
0.000988103
0.000431378
3.7899e-05
3.79846e-05
0.000439146
0.00101146
0.000999857
0.000433632
3.78383e-05
3.79999e-05
0.000440765
0.00102299
0.00101182
0.000435577
3.78787e-05
3.8093e-05
0.000442093
0.00103403
0.00102308
0.000436978
3.79965e-05
3.82517e-05
0.000443359
0.00104408
0.00103333
0.000438088
3.81807e-05
3.84722e-05
0.000444359
0.00105291
0.00104241
0.000439105
3.84256e-05
3.8746e-05
0.000445261
0.00106045
0.00105014
0.000439652
3.872e-05
3.90577e-05
0.000445921
0.00106681
0.00105628
0.000439994
3.90507e-05
3.93969e-05
0.000446357
0.00107174
0.00106057
0.000440156
3.94062e-05
3.97517e-05
0.000446564
0.00107589
0.00106352
0.000440197
3.97743e-05
4.01105e-05
0.000446629
0.00107839
0.00106482
0.000439897
4.01437e-05
4.04639e-05
0.000446558
0.00107914
0.00106359
0.000439139
4.05046e-05
4.08021e-05
0.000445833
0.00107773
0.00106104
0.000438156
4.08451e-05
4.11132e-05
0.000444864
0.00107489
0.00105743
0.000437062
4.11554e-05
4.13907e-05
0.000443758
0.00107084
0.00105281
0.000435936
4.14296e-05
4.16306e-05
0.000442551
0.00106564
0.0010473
0.000434814
4.16644e-05
4.18312e-05
0.000441307
0.00105949
0.00104107
0.000433728
4.18585e-05
4.1993e-05
0.00044006
0.00105257
0.00103423
0.000432679
4.20134e-05
4.21185e-05
0.00043881
0.00104502
0.00102692
0.000431646
4.21318e-05
4.22059e-05
0.000437548
0.00103702
0.00101916
0.000430603
4.22162e-05
4.2266e-05
0.000436261
0.00102882
0.00101123
0.000429529
4.22736e-05
4.23033e-05
0.000434943
0.0010205
0.00100323
0.000428419
4.23076e-05
4.2325e-05
0.000433609
0.00101225
0.00099517
0.000427203
4.23196e-05
4.23302e-05
0.000432235
0.00100403
0.000987078
0.000425847
4.2307e-05
4.23157e-05
0.000430818
0.000995783
0.000979005
0.000424474
4.22815e-05
4.22881e-05
0.000429391
0.000987567
0.000970962
0.000423079
4.2245e-05
4.22498e-05
0.000427932
0.000979385
0.000962946
0.000421635
4.21996e-05
4.22028e-05
0.000426414
0.000971227
0.000954869
0.000420125
4.21466e-05
4.21483e-05
0.000424827
0.000963059
0.000946745
0.00041854
4.20866e-05
4.20863e-05
0.000423161
0.000954882
0.000938648
0.000416881
4.20197e-05
4.20179e-05
0.000421449
0.000946733
0.000930603
0.000415156
4.1947e-05
4.1944e-05
0.00041969
0.000938635
0.000922611
0.000413384
4.18515e-05
4.18829e-05
0.000417936
0.000930649
0.000914042
0.000411578
4.17515e-05
4.17983e-05
0.000415743
0.000923085
0.000906855
0.000408612
4.15916e-05
4.18468e-05
0.000415959
0.000920555
0.000909337
0.000415419
4.17377e-05
4.24217e-05
0.000416145
0.000919439
0.000962945
0.000437586
4.27372e-05
4.55308e-05
0.000410349
0.000936107
0.00142955
0.00059641
5.13515e-05
5.54144e-05
0.000309265
0.000709908
0.00175133
0.00401348
0.00750321
0.0106973
0.0128829
0.0169337
0.0195199
0.0218405
0.0231469
0.0237717
0.0235959
0.022546
0.0210513
0.018654
0.0163037
0.0127405
0.011132
0.0081001
0.00606029
0.00411629
0.00233973
0.00107404
0.000391356
0.000162788
3.14254e-05
2.04948e-05
0.000150934
0.000354932
0.000335626
0.000143389
1.9695e-05
1.89319e-05
0.00013823
0.000317279
0.00031926
0.000136185
1.8718e-05
1.86017e-05
0.000135392
0.000314137
0.000313959
0.00013403
1.84222e-05
1.84059e-05
0.000134003
0.000313622
0.000314538
0.000134072
1.84346e-05
1.84344e-05
0.000134264
0.000315284
0.000315727
0.000134495
1.84649e-05
1.84803e-05
0.000134709
0.000316695
0.000317132
0.000134916
1.84955e-05
1.85276e-05
0.000135169
0.000318133
0.000318667
0.000135388
1.8515e-05
1.85486e-05
0.000135689
0.000319701
0.000320256
0.000135881
1.85628e-05
1.85964e-05
0.00013619
0.000321332
0.000321881
0.000136343
1.85991e-05
1.86054e-05
0.000136773
0.00032299
0.000323576
0.000136894
1.86493e-05
1.86543e-05
0.000137276
0.000324681
0.000325295
0.000137468
1.86744e-05
1.86781e-05
0.000137848
0.00032645
0.000327059
0.000138023
1.87252e-05
1.87296e-05
0.000138401
0.000328225
0.000328861
0.000138627
1.87516e-05
1.87551e-05
0.000139018
0.000330071
0.000330701
0.000139219
1.88031e-05
1.88109e-05
0.000139625
0.00033196
0.000332557
0.000139831
1.88294e-05
1.88397e-05
0.00014028
0.00033389
0.000334494
0.000140448
1.88827e-05
1.88951e-05
0.000140918
0.000335844
0.000336473
0.000141115
1.89117e-05
1.89223e-05
0.000141599
0.00033786
0.000338488
0.000141858
1.89575e-05
1.89912e-05
0.000142205
0.000339845
0.000340514
0.000142471
1.90007e-05
1.90081e-05
0.000142958
0.000341874
0.000342569
0.00014324
1.90446e-05
1.90796e-05
0.000143613
0.000343954
0.000344665
0.00014388
1.90885e-05
1.90987e-05
0.000144417
0.000346102
0.000346809
0.000144692
1.91348e-05
1.91706e-05
0.000145094
0.000348244
0.00034896
0.000145367
1.91798e-05
1.91901e-05
0.000145919
0.000350398
0.000351082
0.000146189
1.92265e-05
1.92616e-05
0.000146595
0.000352509
0.000353207
0.000146867
1.92705e-05
1.92815e-05
0.000147431
0.000354657
0.000355332
0.000147697
1.93169e-05
1.93555e-05
0.000148109
0.000356766
0.000357409
0.000148333
1.93582e-05
1.93743e-05
0.000148927
0.000358858
0.000359464
0.00014912
1.94036e-05
1.94419e-05
0.000149527
0.000360819
0.000361373
0.000149687
1.94432e-05
1.94515e-05
0.000150213
0.000362702
0.000363239
0.000150381
1.94832e-05
1.95157e-05
0.000150681
0.000364451
0.000364885
0.000150781
1.95147e-05
1.95193e-05
0.000151181
0.000366002
0.000366394
0.000151131
1.95544e-05
1.95561e-05
0.000151438
0.000367363
0.000367668
0.000151383
1.95655e-05
1.95562e-05
0.000151506
0.000368406
0.000368597
0.000151331
1.95888e-05
1.95744e-05
0.000151286
0.000369098
0.000369154
0.00015099
1.95716e-05
1.95546e-05
0.000150816
0.000369372
0.000369231
0.000150348
1.95585e-05
1.95619e-05
0.000149858
0.000369253
0.00036885
0.000149238
1.95344e-05
1.95022e-05
0.000148668
0.000368723
0.000367954
0.000147868
1.95017e-05
1.94887e-05
0.000146926
0.000367657
0.000366576
0.00014588
1.94584e-05
1.94171e-05
0.000144869
0.000366102
0.0003647
0.000143517
1.94238e-05
1.93873e-05
0.000142317
0.000364092
0.000362462
0.000140807
1.93747e-05
1.93526e-05
0.0001395
0.000361955
0.000360021
0.000137873
1.93552e-05
1.93879e-05
0.000136536
0.000359951
0.000357975
0.000134888
1.93826e-05
1.94426e-05
0.000133666
0.000358244
0.000356499
0.000132034
1.9483e-05
1.95882e-05
0.000131044
0.000357525
0.000356678
0.000129698
1.96842e-05
1.9865e-05
0.00012918
0.00035939
0.000360775
0.000127684
2.0044e-05
2.02209e-05
0.000126759
0.000364583
0.000370391
0.000128373
2.04353e-05
2.06375e-05
0.000128968
0.000375091
0.000377927
0.000128223
2.06929e-05
2.08362e-05
0.000125827
0.000383291
0.000389536
0.000132529
2.11309e-05
2.13321e-05
0.000128556
0.000394595
0.000399736
0.000131697
2.16823e-05
2.19393e-05
0.000133437
0.000409576
0.000412556
0.00013639
2.23094e-05
2.28309e-05
0.000143566
0.000425809
0.00042792
0.000147275
2.3339e-05
2.37759e-05
0.000153206
0.000438411
0.000441189
0.000158482
2.46485e-05
2.64992e-05
0.000184187
0.000461467
0.000459175
0.000195449
1.99216e-05
1.54639e-05
4.83971e-05
0.000128464
0.00036031
0.000111739
1.79892e-05
1.89035e-05
0.000100288
0.000330898
0.000348786
0.000104319
1.93852e-05
1.96742e-05
9.79648e-05
0.000332505
0.00035703
0.000105245
2.02222e-05
2.08078e-05
0.000103875
0.000352295
0.00038774
0.00011849
2.1515e-05
2.22881e-05
0.000117716
0.00038036
0.000415981
0.000137028
2.31567e-05
2.43777e-05
0.000140823
0.000418727
0.000468273
0.000170917
2.69846e-05
2.07095e-05
0.000191309
0.000479388
0.000128389
4.59253e-05
1.67826e-05
1.9605e-05
0.000121098
0.000403139
0.000394483
0.000112761
2.13819e-05
2.26589e-05
0.000147308
0.000487503
0.000496798
0.000148947
2.3565e-05
2.5025e-05
0.000174285
0.00055274
0.000569475
0.00018572
2.66584e-05
2.98856e-05
0.000221554
0.000621514
0.000604668
0.000238531
2.32231e-05
1.74334e-05
5.37571e-05
0.000160139
0.000491508
0.000145516
2.09342e-05
2.2651e-05
0.000135379
0.000481886
0.00055227
0.000166096
2.41442e-05
2.57531e-05
0.000166061
0.000544039
0.000617804
0.000212707
2.98025e-05
2.395e-05
0.000250347
0.0006237
0.000168864
5.56691e-05
1.79514e-05
2.18851e-05
0.000152511
0.000556899
0.000573863
0.000160796
2.4778e-05
2.87704e-05
0.000227793
0.000739271
0.000773835
0.000267226
3.35392e-05
2.76628e-05
0.000313898
0.000782283
0.000217394
6.56488e-05
1.89292e-05
2.39385e-05
0.000204273
0.000693578
0.000688913
0.000198561
2.803e-05
3.52257e-05
0.000297464
0.000875174
0.000891749
0.000351897
2.94011e-05
1.99708e-05
7.51939e-05
0.000272172
0.000900745
0.000264528
2.7909e-05
3.53007e-05
0.000280051
0.000968594
0.00134439
0.000472957
4.826e-05
4.02145e-05
0.000504423
0.00129228
0.000457022
0.000119994
2.62653e-05
4.67943e-05
0.000488877
0.00140844
0.0014081
0.000521472
4.35913e-05
2.94298e-05
0.000132613
0.000550936
0.00194842
0.000646962
6.49107e-05
6.40997e-05
0.000747448
0.00211757
0.00096453
0.000266435
4.07556e-05
6.4921e-05
0.00086755
0.00252794
0.00167003
0.000553887
4.32304e-05
8.0288e-05
0.000976816
0.00196958
0.0016894
0.000817166
6.6014e-05
6.67796e-05
0.000778175
0.00185151
0.002372
0.000857634
7.64774e-05
0.000105524
0.00159894
0.00394788
0.000879049
0.000273255
5.99243e-05
6.13484e-05
0.000766011
0.00175543
0.000542721
0.000193911
4.2766e-05
4.6454e-05
0.000472943
0.00113688
0.000971993
0.000349071
4.62945e-05
2.62816e-05
9.14786e-05
0.000277864
0.000655997
0.00037902
3.0935e-05
2.90551e-05
0.000118849
0.000300093
0.000725577
0.00031723
3.31733e-05
3.53797e-05
0.000257755
0.000655629
0.000212319
7.97001e-05
2.33719e-05
2.78191e-05
0.00025094
0.000565057
0.000519155
0.000210457
3.12749e-05
2.18077e-05
6.84632e-05
0.000173914
0.00048196
0.000214538
2.53275e-05
2.92365e-05
0.000187028
0.000443353
0.00015398
6.42491e-05
2.12252e-05
2.38907e-05
0.000190911
0.000425473
0.00038519
0.000168244
2.80339e-05
2.0796e-05
5.91575e-05
0.000137152
0.000374929
0.000171375
2.25697e-05
2.70309e-05
0.000151229
0.00034134
0.00012373
5.5736e-05
2.04893e-05
2.19334e-05
0.000159499
0.000337897
0.00030514
0.000140154
2.62178e-05
2.00883e-05
5.25525e-05
0.000114435
0.000308415
0.000147391
2.10028e-05
2.5662e-05
0.000130797
0.000281559
0.00011059
5.2135e-05
2.01481e-05
2.10905e-05
0.000149594
0.00030025
0.000255881
0.000121037
2.65353e-05
2.2059e-05
9.58709e-05
0.00020813
8.13819e-05
3.86874e-05
1.85233e-05
1.78664e-05
0.00010106
0.000205285
0.00019347
9.38181e-05
2.25897e-05
1.80144e-05
3.74546e-05
7.92581e-05
0.000188276
9.62326e-05
1.71732e-05
2.21684e-05
8.82512e-05
0.00017509
7.32076e-05
3.73856e-05
1.81342e-05
1.69702e-05
9.00194e-05
0.000169934
0.00016112
8.51274e-05
2.1658e-05
1.76659e-05
3.52542e-05
7.0516e-05
0.000158528
8.59419e-05
1.6631e-05
2.15591e-05
8.10207e-05
0.000149262
6.69949e-05
3.42036e-05
1.74657e-05
1.61473e-05
7.9422e-05
0.000145591
0.000140408
7.79977e-05
2.1137e-05
1.77533e-05
3.36616e-05
6.31692e-05
0.000139686
7.75544e-05
1.61524e-05
2.10195e-05
7.48045e-05
0.000132702
6.14699e-05
3.32743e-05
1.74913e-05
1.57464e-05
7.17995e-05
0.000125394
0.000122602
7.09517e-05
2.07311e-05
1.74151e-05
3.01069e-05
5.55385e-05
0.000108147
8.3593e-05
1.52846e-05
1.94279e-05
3.82357e-05
6.24604e-05
0.000142782
8.0546e-05
1.72416e-05
2.17024e-05
7.4855e-05
0.000132161
6.39535e-05
3.68805e-05
1.77579e-05
1.62683e-05
7.92687e-05
0.000132549
0.000125665
7.36058e-05
2.1445e-05
1.78658e-05
3.68882e-05
6.23647e-05
0.000130528
7.85483e-05
1.62785e-05
2.12625e-05
7.30361e-05
0.000123244
6.07117e-05
3.67723e-05
1.76961e-05
1.60805e-05
7.40221e-05
0.000118112
0.000111936
6.7076e-05
2.13935e-05
1.77809e-05
3.6237e-05
5.72043e-05
0.000109851
6.93305e-05
1.57067e-05
2.06844e-05
6.45343e-05
0.000103139
5.11878e-05
3.29683e-05
1.72817e-05
1.48231e-05
7.16326e-05
9.16027e-05
5.55574e-05
3.83001e-05
1.91105e-05
1.68545e-05
6.67188e-05
0.000109225
9.95132e-05
6.08802e-05
2.14538e-05
1.75043e-05
3.65787e-05
5.31219e-05
9.90081e-05
6.46081e-05
1.55932e-05
2.06382e-05
5.96482e-05
9.01279e-05
4.85302e-05
3.48085e-05
1.73919e-05
1.47319e-05
6.5575e-05
8.31371e-05
5.23776e-05
3.82403e-05
1.92519e-05
1.67145e-05
6.44172e-05
0.000100207
9.02577e-05
5.85065e-05
2.12063e-05
1.7439e-05
3.69908e-05
5.05031e-05
9.34811e-05
6.2284e-05
1.55588e-05
2.0645e-05
5.6699e-05
8.51789e-05
4.66482e-05
3.49219e-05
1.73329e-05
1.4681e-05
6.11761e-05
7.59376e-05
4.91535e-05
3.76577e-05
1.92647e-05
1.65185e-05
6.02197e-05
9.26345e-05
8.30444e-05
5.51817e-05
2.10813e-05
1.73708e-05
3.68596e-05
4.71096e-05
8.43619e-05
5.7646e-05
1.5524e-05
2.05753e-05
5.27824e-05
7.66204e-05
4.31202e-05
3.38751e-05
1.68166e-05
1.44553e-05
5.38736e-05
6.74585e-05
4.48692e-05
3.57845e-05
1.92305e-05
1.62409e-05
5.54233e-05
8.21215e-05
7.38201e-05
5.05642e-05
2.08391e-05
1.70477e-05
3.50818e-05
4.25294e-05
6.63781e-05
5.57042e-05
1.42442e-05
1.89388e-05
3.7288e-05
4.48611e-05
8.14053e-05
5.37512e-05
1.60234e-05
2.09693e-05
4.9653e-05
7.28567e-05
4.24554e-05
3.56123e-05
1.71089e-05
1.44299e-05
5.34522e-05
6.53883e-05
4.48623e-05
3.76446e-05
1.90837e-05
1.59241e-05
5.45418e-05
8.03719e-05
7.20209e-05
5.00602e-05
2.07856e-05
1.69102e-05
3.57854e-05
4.21951e-05
6.48188e-05
5.42223e-05
1.41351e-05
1.91342e-05
3.77184e-05
4.446e-05
7.89229e-05
5.31741e-05
1.61463e-05
2.10659e-05
4.94073e-05
7.08967e-05
4.2357e-05
3.69551e-05
1.74432e-05
1.45716e-05
5.47594e-05
6.37167e-05
4.43776e-05
3.90104e-05
1.91775e-05
1.61212e-05
5.24953e-05
7.76137e-05
6.92326e-05
4.8456e-05
2.08466e-05
1.69261e-05
3.62825e-05
4.12156e-05
6.14822e-05
5.28368e-05
1.42366e-05
1.89066e-05
3.90758e-05
4.40116e-05
6.6978e-05
5.10687e-05
1.51716e-05
1.9665e-05
3.98764e-05
4.63815e-05
7.9028e-05
5.2772e-05
1.64917e-05
2.09567e-05
4.91213e-05
7.05234e-05
4.27135e-05
3.77747e-05
1.70484e-05
1.42183e-05
5.42649e-05
6.31348e-05
4.45131e-05
4.01192e-05
1.92784e-05
1.619e-05
5.21287e-05
7.61513e-05
6.83505e-05
4.86197e-05
2.10285e-05
1.69831e-05
3.72544e-05
4.14753e-05
6.07336e-05
5.24655e-05
1.44747e-05
1.91994e-05
3.99295e-05
4.42403e-05
6.58916e-05
5.0792e-05
1.55299e-05
1.96201e-05
4.0949e-05
4.63268e-05
7.7676e-05
5.23729e-05
1.62441e-05
2.10335e-05
4.90075e-05
6.94102e-05
4.27955e-05
3.90291e-05
1.74711e-05
1.44117e-05
5.49527e-05
6.17023e-05
4.58781e-05
4.2619e-05
1.92719e-05
1.54702e-05
5.28595e-05
6.75809e-05
4.78699e-05
4.3285e-05
1.97962e-05
1.65235e-05
5.29508e-05
7.9166e-05
7.06314e-05
4.98699e-05
2.13575e-05
1.72692e-05
3.99353e-05
4.37245e-05
6.28116e-05
5.57125e-05
1.43439e-05
1.92624e-05
4.27867e-05
4.65506e-05
6.77682e-05
5.32497e-05
1.54981e-05
1.98367e-05
4.36099e-05
4.83126e-05
7.93618e-05
5.3697e-05
1.65371e-05
2.12985e-05
5.06481e-05
7.09784e-05
4.46636e-05
4.15009e-05
1.76369e-05
1.47054e-05
5.66616e-05
6.37141e-05
4.77777e-05
4.45592e-05
1.9583e-05
1.58504e-05
5.47675e-05
6.89962e-05
4.95454e-05
4.51425e-05
1.98956e-05
1.64632e-05
5.39936e-05
8.0096e-05
7.13442e-05
5.09232e-05
2.11534e-05
1.77053e-05
4.11886e-05
4.4615e-05
6.21093e-05
5.67263e-05
1.47534e-05
1.95376e-05
4.41686e-05
4.68483e-05
6.70027e-05
5.35446e-05
1.5749e-05
2.00074e-05
4.48496e-05
4.84747e-05
7.73997e-05
5.2962e-05
1.65872e-05
2.14311e-05
5.03327e-05
6.92601e-05
4.44e-05
4.186e-05
1.79832e-05
1.48654e-05
5.65956e-05
6.19352e-05
4.70198e-05
4.44015e-05
1.94205e-05
1.53802e-05
5.26564e-05
6.64111e-05
4.94376e-05
4.51929e-05
1.96382e-05
1.56424e-05
5.4176e-05
6.91894e-05
5.09041e-05
4.7891e-05
1.99462e-05
1.66371e-05
5.51396e-05
7.95379e-05
7.10295e-05
5.23145e-05
2.12805e-05
1.72618e-05
4.28398e-05
4.54973e-05
6.37501e-05
5.7619e-05
1.45909e-05
1.9614e-05
4.52559e-05
4.83892e-05
6.71036e-05
5.36815e-05
1.58221e-05
1.9914e-05
4.58971e-05
5.03865e-05
6.9458e-05
5.45181e-05
1.57773e-05
2.00169e-05
4.85583e-05
5.14992e-05
7.94206e-05
5.54769e-05
1.66173e-05
2.13601e-05
5.28201e-05
7.11736e-05
4.67697e-05
4.47137e-05
1.79238e-05
1.48049e-05
5.92402e-05
6.39641e-05
4.93094e-05
4.69264e-05
1.9735e-05
1.58187e-05
5.4376e-05
6.84449e-05
5.16418e-05
4.76496e-05
2.0045e-05
1.60127e-05
5.62572e-05
7.08919e-05
5.30523e-05
5.05045e-05
2.02652e-05
1.68847e-05
5.72183e-05
8.09991e-05
7.2646e-05
5.44116e-05
2.15865e-05
1.79473e-05
4.58331e-05
4.82082e-05
6.51152e-05
6.04244e-05
1.49101e-05
1.98186e-05
4.77826e-05
5.04818e-05
6.86187e-05
5.50901e-05
1.57432e-05
2.00326e-05
4.78375e-05
5.19808e-05
7.03474e-05
5.58963e-05
1.59297e-05
2.03568e-05
5.06199e-05
5.31122e-05
7.95029e-05
5.65351e-05
1.68462e-05
2.16105e-05
5.42472e-05
7.20494e-05
4.80806e-05
4.57144e-05
1.76284e-05
1.49705e-05
5.89781e-05
6.45571e-05
5.07757e-05
4.84959e-05
2.00501e-05
1.59152e-05
5.61386e-05
6.88219e-05
5.27312e-05
4.88536e-05
2.00422e-05
1.57814e-05
5.58657e-05
7.06273e-05
5.4208e-05
5.01788e-05
2.00534e-05
1.60773e-05
5.85766e-05
7.24958e-05
5.50711e-05
5.31741e-05
2.0275e-05
1.68463e-05
5.89885e-05
8.16547e-05
7.38967e-05
5.63103e-05
2.15961e-05
1.81557e-05
4.74567e-05
5.01708e-05
6.54971e-05
6.15707e-05
1.50266e-05
2.00679e-05
4.95179e-05
5.20663e-05
6.87089e-05
5.59544e-05
1.6032e-05
2.03051e-05
4.98058e-05
5.34695e-05
7.04394e-05
5.63368e-05
1.59609e-05
2.01753e-05
5.14786e-05
5.47258e-05
7.29096e-05
5.93415e-05
1.61474e-05
2.04143e-05
5.43246e-05
5.59269e-05
8.28914e-05
6.01135e-05
1.69631e-05
2.18535e-05
5.7827e-05
7.51623e-05
5.19715e-05
5.00203e-05
1.82303e-05
1.50609e-05
6.41484e-05
6.76512e-05
5.39866e-05
5.18808e-05
2.00192e-05
1.58133e-05
5.87393e-05
7.19696e-05
5.59459e-05
5.19435e-05
2.02471e-05
1.61157e-05
5.92108e-05
7.36833e-05
5.72792e-05
5.37625e-05
2.02643e-05
1.61481e-05
6.21397e-05
7.58141e-05
5.8358e-05
5.64772e-05
2.04887e-05
1.71573e-05
6.21594e-05
8.50282e-05
7.73426e-05
5.966e-05
2.18862e-05
1.83876e-05
5.13679e-05
5.38444e-05
6.87899e-05
6.46698e-05
1.54119e-05
2.02889e-05
5.2857e-05
5.56205e-05
7.20192e-05
5.93009e-05
1.61668e-05
2.05646e-05
5.27299e-05
5.70928e-05
7.32644e-05
5.88566e-05
1.62799e-05
2.05465e-05
5.45353e-05
5.79449e-05
7.55019e-05
6.20187e-05
1.64762e-05
2.07149e-05
5.77752e-05
5.88742e-05
8.4903e-05
6.31476e-05
1.71716e-05
2.21562e-05
6.09982e-05
7.78491e-05
5.50283e-05
5.30747e-05
1.84696e-05
1.53734e-05
6.67573e-05
7.03204e-05
5.70986e-05
5.46468e-05
2.03571e-05
1.61755e-05
6.10378e-05
7.39909e-05
5.89835e-05
5.47253e-05
2.06078e-05
1.63505e-05
6.11648e-05
7.58048e-05
6.02736e-05
5.64009e-05
2.05211e-05
1.64483e-05
6.42698e-05
7.76598e-05
6.08701e-05
5.92221e-05
2.06798e-05
1.71824e-05
6.43024e-05
8.64265e-05
7.91837e-05
6.21274e-05
2.2235e-05
1.86951e-05
5.40681e-05
5.63568e-05
7.00889e-05
6.71878e-05
1.55515e-05
2.05087e-05
5.53169e-05
5.78569e-05
7.26037e-05
6.05113e-05
1.62316e-05
2.07333e-05
5.5282e-05
5.90814e-05
7.40865e-05
6.05894e-05
1.6435e-05
2.06266e-05
5.68281e-05
6.01179e-05
7.6094e-05
6.32364e-05
1.64245e-05
2.05457e-05
5.87546e-05
6.16606e-05
7.89323e-05
6.61705e-05
1.64154e-05
2.07702e-05
6.16606e-05
6.26975e-05
8.88928e-05
6.68685e-05
1.73093e-05
2.24486e-05
6.47892e-05
8.18285e-05
5.86876e-05
5.67567e-05
1.85365e-05
1.54329e-05
7.03944e-05
7.38907e-05
6.1287e-05
5.91395e-05
2.06347e-05
1.64758e-05
6.55101e-05
7.77618e-05
6.3152e-05
5.9364e-05
2.08253e-05
1.65041e-05
6.60538e-05
8.0025e-05
6.47289e-05
6.1001e-05
2.06633e-05
1.65236e-05
6.90444e-05
8.28538e-05
6.60925e-05
6.41176e-05
2.09132e-05
1.75003e-05
6.94313e-05
9.18577e-05
8.42136e-05
6.7129e-05
2.26716e-05
1.88284e-05
5.89845e-05
6.09843e-05
7.57282e-05
7.268e-05
1.56686e-05
2.08149e-05
6.07592e-05
6.34571e-05
7.82599e-05
6.677e-05
1.66207e-05
2.09636e-05
6.02882e-05
6.44849e-05
7.92716e-05
6.60239e-05
1.67458e-05
2.08679e-05
6.1867e-05
6.53803e-05
8.1315e-05
6.86809e-05
1.66733e-05
2.11222e-05
6.49943e-05
6.60511e-05
9.04131e-05
6.92698e-05
1.75886e-05
2.3015e-05
6.7582e-05
8.35123e-05
6.17411e-05
6.02444e-05
1.89163e-05
1.56278e-05
7.33121e-05
7.58792e-05
6.44351e-05
6.2738e-05
2.09615e-05
1.67696e-05
6.86886e-05
7.9548e-05
6.62582e-05
6.28473e-05
2.10986e-05
1.66961e-05
6.86223e-05
8.14348e-05
6.74261e-05
6.43364e-05
2.09684e-05
1.68445e-05
7.09286e-05
8.42198e-05
6.89036e-05
6.7817e-05
2.14278e-05
1.78334e-05
7.21455e-05
9.33874e-05
8.59738e-05
7.03586e-05
2.31835e-05
1.91782e-05
6.29652e-05
6.42977e-05
7.83887e-05
7.64959e-05
1.58781e-05
2.10203e-05
6.44046e-05
6.67398e-05
8.08059e-05
6.9921e-05
1.67873e-05
2.13169e-05
6.42835e-05
6.79499e-05
8.19802e-05
6.96932e-05
1.68774e-05
2.13669e-05
6.61679e-05
6.90327e-05
8.41857e-05
7.20373e-05
1.70127e-05
2.18348e-05
6.98262e-05
6.99178e-05
9.34705e-05
7.32144e-05
1.82906e-05
2.38538e-05
7.1957e-05
8.67387e-05
6.64543e-05
6.60554e-05
1.96574e-05
1.63837e-05
7.84882e-05
8.04449e-05
6.91905e-05
6.79636e-05
2.14149e-05
1.7058e-05
7.43197e-05
8.42639e-05
7.11245e-05
6.82256e-05
2.16795e-05
1.70432e-05
7.41628e-05
8.66366e-05
7.19901e-05
7.09134e-05
2.20194e-05
1.84948e-05
7.41226e-05
9.48899e-05
8.77006e-05
7.29331e-05
2.43126e-05
2.0041e-05
6.6931e-05
6.75825e-05
7.9954e-05
7.87907e-05
1.66144e-05
2.17943e-05
6.83884e-05
6.97646e-05
8.26558e-05
7.36451e-05
1.73558e-05
2.20872e-05
6.85072e-05
7.10657e-05
8.46131e-05
7.29323e-05
1.74234e-05
2.25515e-05
7.19838e-05
7.18445e-05
9.29356e-05
7.41678e-05
1.86864e-05
2.45469e-05
7.33853e-05
8.64788e-05
6.7934e-05
6.7885e-05
1.99555e-05
1.64364e-05
7.94597e-05
8.00964e-05
7.06112e-05
7.01755e-05
2.18993e-05
1.72955e-05
7.4467e-05
8.41546e-05
7.28173e-05
7.10311e-05
2.23862e-05
1.77769e-05
7.52928e-05
8.66759e-05
7.39783e-05
7.41341e-05
2.28123e-05
1.88837e-05
7.59164e-05
9.44768e-05
8.81416e-05
7.54349e-05
2.51182e-05
2.05953e-05
7.04207e-05
7.06879e-05
8.13707e-05
8.15881e-05
1.69166e-05
2.24698e-05
7.21262e-05
7.24855e-05
8.41438e-05
7.61298e-05
1.77821e-05
2.2717e-05
7.23777e-05
7.38142e-05
8.6515e-05
7.54287e-05
1.7918e-05
2.33564e-05
7.61755e-05
7.488e-05
9.52537e-05
7.72974e-05
1.94514e-05
2.56077e-05
7.70311e-05
8.90997e-05
7.22352e-05
7.34676e-05
2.08533e-05
1.71192e-05
8.40839e-05
8.38034e-05
7.49301e-05
7.57122e-05
2.29423e-05
1.82101e-05
7.94792e-05
8.80865e-05
7.73826e-05
7.6446e-05
2.34874e-05
1.86935e-05
7.94255e-05
9.11977e-05
7.91904e-05
8.05619e-05
2.42436e-05
2.01442e-05
8.16044e-05
9.98098e-05
9.35082e-05
8.1478e-05
2.66114e-05
2.16768e-05
7.70878e-05
7.65898e-05
8.73403e-05
8.80423e-05
1.77507e-05
2.3506e-05
7.92004e-05
7.86709e-05
9.12772e-05
8.25393e-05
1.87151e-05
2.4657e-05
8.1784e-05
8.03546e-05
9.94743e-05
8.1834e-05
2.0515e-05
2.70059e-05
8.12867e-05
9.36524e-05
7.72575e-05
7.89942e-05
2.22943e-05
1.81469e-05
8.89151e-05
8.83173e-05
8.01665e-05
8.15917e-05
2.42548e-05
1.92746e-05
8.45029e-05
9.26437e-05
8.25892e-05
8.2709e-05
2.49106e-05
1.98079e-05
8.456e-05
9.64877e-05
8.50403e-05
8.75359e-05
2.58015e-05
2.14719e-05
8.7981e-05
0.000106071
9.94885e-05
8.81883e-05
2.83786e-05
2.31317e-05
8.49363e-05
8.3261e-05
9.40043e-05
9.56361e-05
1.87379e-05
2.50817e-05
8.72437e-05
8.6115e-05
9.91827e-05
8.98732e-05
2.00697e-05
2.6375e-05
9.03507e-05
8.80562e-05
0.000108415
8.99295e-05
2.15681e-05
2.88014e-05
9.01817e-05
0.000102419
8.64805e-05
8.87398e-05
2.42562e-05
1.99374e-05
9.78073e-05
9.7242e-05
8.9405e-05
9.18888e-05
2.64998e-05
2.12396e-05
9.37774e-05
0.000103215
9.22746e-05
9.56055e-05
2.78877e-05
2.32599e-05
9.4476e-05
0.000113013
0.000106738
9.49563e-05
3.07388e-05
2.51086e-05
9.29402e-05
9.07146e-05
0.000101948
0.000102557
2.03543e-05
2.76979e-05
9.75961e-05
9.34627e-05
0.00011242
9.57495e-05
2.30994e-05
3.08358e-05
9.564e-05
0.000106969
9.09376e-05
9.22132e-05
2.50697e-05
2.00106e-05
0.000103261
0.000101301
9.35553e-05
9.51823e-05
2.72447e-05
2.185e-05
9.62574e-05
0.000105765
9.56358e-05
9.90032e-05
2.90073e-05
2.41688e-05
9.68264e-05
0.000114764
0.000109208
9.81204e-05
3.21269e-05
2.63255e-05
9.73229e-05
9.47612e-05
0.00010465
0.000105286
2.16449e-05
2.92907e-05
0.000102727
9.7277e-05
0.000114602
9.94716e-05
2.45479e-05
3.27396e-05
9.96714e-05
0.000109518
9.59833e-05
9.89005e-05
2.69457e-05
2.18021e-05
0.00010674
0.000105349
9.78624e-05
0.000103499
2.9358e-05
2.39545e-05
9.9464e-05
0.000114984
0.000110087
0.000100263
3.26645e-05
2.72863e-05
9.91527e-05
9.65799e-05
0.000105613
0.000106184
2.23688e-05
3.04532e-05
0.000105274
9.92876e-05
0.000115098
0.000100868
2.52811e-05
3.40627e-05
0.000101723
0.000110431
9.85454e-05
0.00010237
2.80371e-05
2.27604e-05
0.000108722
0.000107068
0.000100897
0.000107571
3.07713e-05
2.53914e-05
0.000102547
0.000116743
0.000111996
0.000103054
3.41393e-05
2.79763e-05
0.000103011
9.96524e-05
0.000108152
0.000111311
2.18778e-05
3.05035e-05
0.000108351
0.00010194
0.000117457
0.00010269
2.57811e-05
3.51745e-05
0.00010377
0.000112927
0.000102016
0.000107255
2.93536e-05
2.39514e-05
0.000111423
0.000110062
0.000105246
0.000113936
3.2508e-05
2.70922e-05
0.000107985
0.000121721
0.000117128
0.000109215
3.62889e-05
2.99587e-05
0.000111799
0.000106478
0.000114996
0.000116669
2.43082e-05
3.30652e-05
0.000118745
0.000109546
0.000126897
0.000113049
2.72169e-05
3.61372e-05
0.000112555
0.000122109
0.000110511
0.000119928
3.14112e-05
2.71754e-05
0.000119476
0.000124969
0.000121027
0.000119087
3.77367e-05
3.19574e-05
0.000118588
0.000112445
0.000121528
0.000122419
2.61926e-05
3.54589e-05
0.000125282
0.00011658
0.000132811
0.000118163
2.96233e-05
3.94688e-05
0.000119843
0.000128006
0.000117675
0.00012786
3.32601e-05
2.82721e-05
0.000127137
0.000132234
0.000128286