/*--------------------------------*- C++ -*----------------------------------*\
| =========                 |                                                 |
| \\      /  F ield         | OpenFOAM: The Open Source CFD Toolbox           |
|  \\    /   O peration     | Version:  v2006                                 |
|   \\  /    A nd           | Website:  www.openfoam.com                      |
|    \\/     M anipulation  |                                                 |
\*---------------------------------------------------------------------------*/
FoamFile
{
    version     2.0;
    format      ascii;
    class       volScalarField;
    location    "0.062";
    object      turbulenceProperties:I;
}
// * * * * * * * * * * * * * * * * * * * * * * * * * * * * * * * * * * * * * //

dimensions      [0 0 0 0 0 0 0];


internalField   nonuniform List<scalar> 
16277
(
0.149975
0.149974
0.149982
0.149986
0.149991
0.14999
0.149991
0.149995
0.150002
0.15001
0.150016
0.150018
0.150019
0.150017
0.150015
0.150013
0.150011
0.150009
0.150008
0.150007
0.150006
0.150005
0.150005
0.150004
0.150004
0.150003
0.150003
0.150003
0.150002
0.150002
0.150002
0.150002
0.150002
0.150002
0.150002
0.150002
0.150002
0.150002
0.150002
0.150001
0.150001
0.150001
0.150001
0.150001
0.150001
0.150001
0.150001
0.150001
0.150001
0.150001
0.150001
0.150001
0.150001
0.150001
0.150001
0.150001
0.150001
0.150001
0.150001
0.150001
0.150001
0.150001
0.150001
0.150001
0.150001
0.150001
0.150001
0.150001
0.15
0.15
0.15
0.15
0.15
0.15
0.149999
0.149999
0.149998
0.149997
0.149996
0.149995
0.149998
0.150005
0.150018
0.150032
0.150035
0.150024
0.150006
0.149987
0.149966
0.149968
0.149981
0.149977
0.149989
0.150008
0.149873
0.149304
0.14506
0.13908
0.145978
0.148746
0.145981
0.139197
0.133278
0.129405
0.135534
0.143822
0.139876
0.129548
0.125376
0.123121
0.127254
0.138209
0.134541
0.122608
0.120472
0.119191
0.121243
0.13329
0.130278
0.117866
0.11744
0.116713
0.117168
0.129411
0.126996
0.114913
0.11555
0.115164
0.114557
0.126377
0.124399
0.112922
0.11435
0.114173
0.11277
0.123969
0.122298
0.111519
0.113571
0.113516
0.111488
0.121994
0.120553
0.110494
0.113058
0.113089
0.110551
0.120351
0.119086
0.109736
0.112727
0.112809
0.10985
0.118957
0.11782
0.109151
0.112502
0.112616
0.109299
0.117745
0.116713
0.108685
0.112352
0.112489
0.10886
0.116682
0.115736
0.10831
0.112254
0.112407
0.108505
0.115741
0.114868
0.108006
0.112194
0.112358
0.108219
0.114905
0.114094
0.107762
0.112163
0.112336
0.10799
0.114157
0.113401
0.107571
0.112155
0.112336
0.107814
0.11349
0.112785
0.107427
0.112168
0.112356
0.107684
0.112899
0.112242
0.107327
0.112198
0.112393
0.107599
0.112381
0.111771
0.107272
0.112245
0.112448
0.10756
0.111934
0.111369
0.10726
0.112309
0.112519
0.107565
0.111555
0.111032
0.107291
0.11239
0.112607
0.107612
0.111242
0.110757
0.107364
0.112486
0.112712
0.107701
0.11099
0.110542
0.107476
0.112598
0.112833
0.10783
0.110796
0.110383
0.107626
0.112727
0.11297
0.107997
0.11066
0.110279
0.107814
0.112871
0.113123
0.108203
0.110579
0.11023
0.108038
0.11303
0.113293
0.108445
0.110551
0.110233
0.108298
0.113205
0.113478
0.108725
0.110578
0.110288
0.108595
0.113396
0.11368
0.109042
0.110656
0.110395
0.108928
0.113603
0.113898
0.109396
0.110788
0.110554
0.109299
0.113826
0.114132
0.109789
0.110972
0.110766
0.109707
0.114064
0.114383
0.110221
0.11121
0.11103
0.110154
0.114319
0.114651
0.110692
0.111502
0.111349
0.11064
0.114589
0.114934
0.111204
0.111848
0.111721
0.111167
0.114875
0.115233
0.111759
0.112249
0.112147
0.111735
0.115174
0.115546
0.112354
0.112704
0.112626
0.112343
0.115486
0.115871
0.112989
0.113211
0.113156
0.112989
0.115808
0.116203
0.113661
0.113768
0.113732
0.113668
0.116134
0.116539
0.114364
0.114369
0.11435
0.114376
0.116461
0.116873
0.115093
0.115009
0.115002
0.115106
0.116781
0.117194
0.115838
0.115677
0.115676
0.115845
0.117083
0.117493
0.116586
0.116362
0.116359
0.116581
0.117356
0.117756
0.117319
0.117045
0.11703
0.117292
0.117584
0.117965
0.118014
0.117702
0.117662
0.117952
0.117748
0.118098
0.11864
0.118304
0.118222
0.118529
0.117825
0.118133
0.11916
0.118814
0.118673
0.118985
0.117788
0.118039
0.119533
0.119192
0.118973
0.119277
0.117619
0.117758
0.119688
0.119393
0.119068
0.119302
0.117293
0.11729
0.119542
0.11935
0.118903
0.119017
0.116785
0.116626
0.119065
0.119023
0.118442
0.118398
0.11613
0.115786
0.118245
0.118388
0.117675
0.117449
0.115301
0.114827
0.117111
0.117456
0.116629
0.1162
0.114282
0.113753
0.115655
0.116222
0.115269
0.114596
0.113077
0.112522
0.113851
0.114677
0.113624
0.11269
0.111785
0.111303
0.111846
0.11293
0.111839
0.11067
0.110575
0.110162
0.10978
0.111082
0.109993
0.108639
0.109474
0.109134
0.107753
0.109212
0.108159
0.106689
0.108506
0.108247
0.105843
0.107386
0.106396
0.104875
0.107691
0.107512
0.10411
0.105656
0.104749
0.103217
0.107034
0.106928
0.102576
0.104078
0.10325
0.101771
0.106531
0.106491
0.101258
0.10266
0.101904
0.100547
0.106177
0.106193
0.10016
0.10142
0.100743
0.099547
0.105959
0.10602
0.0992793
0.100363
0.0997673
0.0987652
0.105857
0.105953
0.0986083
0.0994846
0.0989697
0.0981817
0.105849
0.105975
0.0981063
0.0987701
0.0983284
0.0977587
0.105921
0.106063
0.0977564
0.0981988
0.0978236
0.0974808
0.106052
0.106201
0.0975409
0.0977509
0.0974347
0.0973285
0.106224
0.106372
0.0974351
0.0974047
0.097139
0.0972775
0.10642
0.10656
0.0974166
0.0971375
0.0969132
0.0973035
0.106625
0.106751
0.0974617
0.0969279
0.0967351
0.0973831
0.106826
0.106936
0.0975476
0.0967539
0.0965857
0.0974945
0.107016
0.107101
0.0976553
0.0966017
0.0964454
0.0976196
0.107186
0.107252
0.0977695
0.0964624
0.0963115
0.0977458
0.10734
0.107387
0.0978807
0.0963271
0.0961777
0.0978646
0.107475
0.10751
0.0979825
0.0961933
0.0960358
0.0979659
0.107588
0.107617
0.0980693
0.0960519
0.0958819
0.0980437
0.107672
0.1077
0.0981378
0.095897
0.0957149
0.0981033
0.107742
0.107767
0.098187
0.0957272
0.0955331
0.0981433
0.107796
0.107817
0.0982165
0.0955417
0.0953361
0.0981633
0.107836
0.107854
0.0982253
0.09534
0.0951231
0.0981629
0.107864
0.107879
0.098214
0.095122
0.0948938
0.0981422
0.107881
0.107891
0.0981824
0.094887
0.0946489
0.0981025
0.107886
0.107893
0.098135
0.0946365
0.0943894
0.0980434
0.10788
0.107883
0.0980692
0.0943706
0.0941144
0.0979651
0.107863
0.107863
0.0979856
0.0940887
0.0938202
0.0978722
0.107835
0.107826
0.0978734
0.0937799
0.0934809
0.0977231
0.107787
0.107694
0.0976875
0.0934194
0.0931347
0.097628
0.107652
0.107432
0.0972603
0.0928887
0.0926482
0.0971437
0.106992
0.106289
0.0956017
0.0919129
0.0928336
0.0958764
0.10416
0.105106
0.0933915
0.0905866
0.0953264
0.100925
0.107143
0.112689
0.116349
0.12071
0.123518
0.12577
0.127335
0.12839
0.128917
0.128948
0.128435
0.127317
0.125553
0.122566
0.120262
0.115106
0.110271
0.105085
0.100389
0.0991083
0.102149
0.116027
0.13138
0.133614
0.117525
0.102972
0.104
0.119165
0.135315
0.136265
0.120332
0.104723
0.105281
0.120965
0.137089
0.137389
0.12129
0.105512
0.105747
0.121501
0.137714
0.137764
0.121709
0.105913
0.105982
0.121775
0.137802
0.137796
0.12178
0.106088
0.106121
0.121809
0.13779
0.13777
0.121814
0.106214
0.106236
0.121807
0.13774
0.13772
0.121823
0.106328
0.106343
0.121788
0.137669
0.137649
0.121819
0.106438
0.106456
0.121788
0.137605
0.137579
0.121815
0.106549
0.106563
0.121777
0.137535
0.137494
0.121789
0.106659
0.106675
0.121781
0.137461
0.137413
0.121768
0.106773
0.106789
0.121771
0.137382
0.137329
0.121756
0.106889
0.106907
0.121766
0.137302
0.137248
0.121743
0.10701
0.107026
0.121754
0.137217
0.137158
0.121735
0.107132
0.107151
0.121751
0.137129
0.137087
0.121734
0.10726
0.107278
0.121736
0.13704
0.137004
0.121734
0.107391
0.10741
0.121729
0.136949
0.136918
0.121733
0.107526
0.107547
0.121723
0.136859
0.136822
0.121735
0.107664
0.107686
0.121734
0.136785
0.136737
0.121749
0.107804
0.107824
0.121733
0.136699
0.136647
0.12174
0.107945
0.107968
0.121746
0.136611
0.136564
0.121765
0.10809
0.108112
0.121748
0.136522
0.136477
0.121771
0.10824
0.108262
0.121772
0.136439
0.136394
0.121803
0.108389
0.108409
0.12179
0.136355
0.136312
0.121818
0.108536
0.108556
0.12182
0.136277
0.136231
0.121853
0.108681
0.108696
0.121842
0.136192
0.136155
0.121877
0.108821
0.108834
0.121883
0.136119
0.136091
0.121924
0.108953
0.108959
0.121901
0.136035
0.136024
0.121955
0.109072
0.109071
0.121938
0.135972
0.13595
0.121987
0.10917
0.109159
0.121952
0.135901
0.135872
0.121993
0.109247
0.109225
0.121982
0.135842
0.135813
0.122004
0.109288
0.109249
0.121962
0.13577
0.135746
0.121971
0.109291
0.109233
0.121927
0.135697
0.13567
0.121907
0.109237
0.109153
0.121858
0.135639
0.135588
0.121784
0.109118
0.109008
0.121716
0.135555
0.135498
0.121585
0.108918
0.108768
0.121465
0.135444
0.135386
0.121289
0.108616
0.108422
0.121084
0.135311
0.135232
0.120844
0.108218
0.10795
0.12055
0.135137
0.135013
0.120196
0.107694
0.107335
0.119821
0.134904
0.134734
0.119348
0.107016
0.106559
0.118814
0.134582
0.13436
0.118191
0.106179
0.105628
0.117513
0.134147
0.133867
0.116718
0.105172
0.104518
0.115848
0.133585
0.13325
0.114878
0.104005
0.103282
0.113797
0.132845
0.132466
0.112705
0.102708
0.101929
0.111385
0.131953
0.131512
0.110105
0.101279
0.100448
0.108542
0.130885
0.130354
0.107092
0.0997772
0.0989234
0.10533
0.12963
0.129002
0.103686
0.0982102
0.0973366
0.101631
0.128079
0.12678
0.0997331
0.0965489
0.0957666
0.0981235
0.125356
0.124043
0.0961377
0.095115
0.0945558
0.0943351
0.122887
0.121686
0.0932472
0.0945432
0.094259
0.0923264
0.120601
0.119617
0.090919
0.0945529
0.0945718
0.0901861
0.118522
0.117281
0.0896071
0.0952613
0.0956282
0.0893757
0.116065
0.115177
0.0898313
0.0969517
0.0975198
0.0898911
0.114351
0.113482
0.0910644
0.099205
0.100308
0.0924628
0.11241
0.112537
0.0958536
0.103366
0.105055
0.0985368
0.113807
0.134081
0.0904091
0.0855311
0.0975202
0.0951244
0.126379
0.125816
0.0917969
0.0966457
0.097434
0.0907455
0.125575
0.124197
0.0892336
0.0969471
0.0983255
0.0889453
0.122617
0.120813
0.0883218
0.0982853
0.100714
0.0893021
0.119017
0.117446
0.0894379
0.101084
0.104561
0.0920099
0.115924
0.114603
0.093174
0.10586
0.111244
0.0981629
0.114449
0.115474
0.101321
0.113895
0.0878852
0.088012
0.130233
0.12125
0.0945424
0.106464
0.107171
0.0937138
0.119308
0.117253
0.0964841
0.112797
0.114358
0.097135
0.115595
0.115093
0.10074
0.118835
0.1212
0.102605
0.114413
0.11596
0.10851
0.126574
0.128375
0.112847
0.118345
0.126887
0.0942779
0.0973284
0.120378
0.101179
0.121362
0.119731
0.100924
0.121898
0.128185
0.105655
0.119353
0.118674
0.107309
0.129793
0.138146
0.115956
0.120306
0.124054
0.122518
0.141916
0.10768
0.098618
0.130322
0.122613
0.11164
0.137719
0.141367
0.114277
0.121331
0.12289
0.125086
0.152644
0.157717
0.131444
0.125321
0.132219
0.142409
0.164044
0.125985
0.109958
0.132089
0.127787
0.129525
0.161868
0.166035
0.133225
0.128683
0.134533
0.152232
0.182263
0.189759
0.163194
0.141477
0.137373
0.125251
0.151925
0.196094
0.157971
0.137527
0.141114
0.166708
0.206138
0.229858
0.195549
0.153714
0.16186
0.208511
0.240943
0.209843
0.166716
0.151631
0.170817
0.228611
0.267251
0.287703
0.249632
0.184821
0.17232
0.207238
0.265669
0.345831
0.302581
0.212612
0.245485
0.35409
0.398798
0.438202
0.347691
0.237611
0.414258
0.610571
0.64855
0.918266
0.847546
0.510873
1
1
1
0.825064
0.797029
0.508904
0.27548
0.424561
0.471716
0.342309
0.308879
0.213213
0.211381
0.276969
0.28922
0.239431
0.199191
0.171721
0.177699
0.216361
0.23297
0.192625
0.164826
0.149236
0.149784
0.177916
0.198338
0.187342
0.162599
0.140906
0.134994
0.123691
0.146572
0.165868
0.148363
0.137155
0.129373
0.124073
0.138664
0.1557
0.136872
0.127597
0.122626
0.127892
0.148889
0.116615
0.105295
0.122123
0.120813
0.120081
0.139441
0.133709
0.114051
0.117733
0.120206
0.0977978
0.104926
0.128035
0.110037
0.116669
0.115065
0.1059
0.122446
0.0976022
0.0939924
0.119404
0.113949
0.103123
0.119371
0.113317
0.0996642
0.113184
0.118774
0.0907087
0.0916225
0.111515
0.0975389
0.110901
0.110649
0.0941664
0.105826
0.0864877
0.0870344
0.117224
0.108752
0.0931231
0.105296
0.0999394
0.0900669
0.108994
0.116091
0.0842617
0.0827336
0.0998432
0.0890145
0.106332
0.107333
0.0862606
0.0951349
0.0796838
0.0817715
0.114869
0.104501
0.0868086
0.0965696
0.0895732
0.0831623
0.105165
0.108508
0.0805425
0.0840945
0.0737297
0.077537
0.121145
0.10544
0.0780374
0.0851495
0.0816699
0.0768785
0.107957
0.117534
0.0765531
0.0717044
0.0804745
0.0751749
0.10211
0.106239
0.0749426
0.0776914
0.0690305
0.0738224
0.118125
0.101704
0.0722613
0.0771172
0.0744979
0.0721577
0.105083
0.115747
0.0733769
0.0671063
0.0733746
0.0704135
0.100245
0.104864
0.0708529
0.0712864
0.0655813
0.0725844
0.115454
0.0988128
0.068207
0.0705162
0.0691218
0.0691141
0.103296
0.116204
0.0705039
0.0638024
0.0691868
0.0666112
0.0988495
0.103093
0.068103
0.0674437
0.0626059
0.0697313
0.115691
0.0982852
0.0639436
0.0654909
0.0645535
0.066566
0.1035
0.118297
0.0686498
0.0608493
0.0631654
0.0640674
0.100875
0.109805
0.067194
0.0590756
0.0653166
0.0631318
0.0934394
0.0973276
0.0634707
0.0632604
0.0601419
0.06851
0.108218
0.0936018
0.0632045
0.0638168
0.0624193
0.0634117
0.0986175
0.10957
0.0687518
0.0595576
0.063075
0.0626886
0.093548
0.0980174
0.0622244
0.0611535
0.0588932
0.0692985
0.109273
0.0940215
0.0614254
0.0602646
0.0589242
0.0609027
0.0995146
0.111174
0.0700678
0.0578317
0.0586122
0.0603514
0.0941434
0.0991237
0.0605636
0.05678
0.0565872
0.0688259
0.112893
0.0963871
0.0569563
0.0567559
0.0550263
0.0654061
0.106286
0.091874
0.0577893
0.0567597
0.0547341
0.057456
0.0968386
0.107372
0.0679535
0.0548276
0.055154
0.0571237
0.0918223
0.0970365
0.0567591
0.0526793
0.054008
0.0687849
0.1102
0.0939163
0.0538066
0.0529823
0.0521722
0.0638146
0.104408
0.0892958
0.0549042
0.0531712
0.0509526
0.0547286
0.0938467
0.104648
0.0665751
0.0520923
0.0524781
0.0548486
0.0898998
0.0954729
0.0550048
0.0503391
0.0523188
0.0680018
0.108863
0.0929085
0.0516492
0.0502418
0.0502678
0.0629115
0.103793
0.08863
0.053115
0.0510819
0.0486953
0.053149
0.0933979
0.104394
0.0660883
0.05025
0.0498215
0.0528096
0.089474
0.0954588
0.0529242
0.0475435
0.0505851
0.0693353
0.106863
0.0920375
0.0503928
0.0473754
0.047947
0.061471
0.10358
0.0876925
0.0501871
0.0479402
0.0461145
0.0512604
0.0930046
0.105484
0.0666263
0.0491067
0.0462997
0.0483765
0.0899784
0.10106
0.0607471
0.0470014
0.0469735
0.0492708
0.0858135
0.0917166
0.0499632
0.0450944
0.0484853
0.0669744
0.103417
0.0892992
0.0488121
0.0456635
0.0464423
0.0603856
0.100401
0.0845395
0.0484485
0.0461214
0.0443716
0.0495335
0.0904159
0.102071
0.0667676
0.0478272
0.0449255
0.0478622
0.0877748
0.0995096
0.0598101
0.0458171
0.0455236
0.047803
0.084528
0.0906049
0.0492643
0.0438863
0.0476478
0.065916
0.103481
0.088509
0.0469479
0.0444973
0.0454372
0.0597257
0.0989192
0.0843027
0.0472978
0.0448348
0.043046
0.048267
0.0902995
0.101585
0.0667421
0.0470381
0.0438136
0.0467454
0.0880987
0.100238
0.0616457
0.0459784
0.0433347
0.044547
0.0852607
0.0955967
0.0582177
0.0445787
0.0442722
0.0464918
0.0822198
0.0876854
0.0478652
0.0425888
0.0463162
0.0649238
0.0990675
0.0852522
0.0459905
0.0430542
0.044288
0.0587174
0.0966893
0.0826698
0.0459989
0.0435562
0.0419991
0.0475541
0.0889658
0.100122
0.0659854
0.0462194
0.0428082
0.0460213
0.0874992
0.0995698
0.0609471
0.0452539
0.0423505
0.0437807
0.085301
0.0945817
0.0572531
0.0435138
0.0428241
0.0451351
0.0804879
0.0862418
0.0464662
0.0412578
0.0454207
0.0638598
0.0987023
0.0850686
0.0443628
0.0419106
0.0443341
0.0592647
0.0965544
0.0828156
0.0427046
0.0415796
0.0431093
0.0570854
0.0924866
0.0799908
0.0447875
0.0424624
0.0411854
0.0467733
0.086129
0.0971064
0.0643002
0.0453355
0.0418357
0.0448495
0.083982
0.0957786
0.0592868
0.044235
0.0412104
0.042404
0.0819517
0.0914407
0.0563971
0.0426505
0.0418068
0.0440956
0.0784529
0.0841028
0.0457717
0.0404436
0.0447245
0.0631163
0.0960337
0.0832099
0.04392
0.041255
0.0438514
0.0586939
0.0945496
0.0818606
0.0424006
0.040962
0.0425897
0.0566298
0.0910544
0.0781745
0.0439373
0.0415313
0.0401883
0.0457271
0.0839671
0.0968455
0.0626192
0.0446305
0.0408505
0.0431124
0.0840412
0.0952035
0.0582182
0.0435052
0.0403494
0.041396
0.0815985
0.0911378
0.0564147
0.0422202
0.0409196
0.0434456
0.0780459
0.0837958
0.0452319
0.03965
0.0443033
0.0626413
0.0965904
0.0834981
0.0430771
0.0405324
0.0432293
0.058335
0.094203
0.0801959
0.0410885
0.0398702
0.0423715
0.056173
0.0901184
0.0780172
0.0408398
0.0394777
0.0415097
0.0553095
0.0873454
0.075454
0.0425087
0.0401299
0.0390548
0.0446202
0.0812273
0.0920343
0.0622454
0.0436086
0.0401455
0.0435149
0.0812099
0.0932749
0.0580026
0.0430357
0.039629
0.0411461
0.0806409
0.0903114
0.0560324
0.0421665
0.0391261
0.0405065
0.0775248
0.0865458
0.0550679
0.0411608
0.0395814
0.0421335
0.0746792
0.0802422
0.043818
0.0384025
0.0431521
0.0610295
0.0924272
0.0803579
0.0419261
0.0394213
0.042222
0.0566754
0.0914205
0.0785757
0.0400681
0.0388974
0.0415092
0.0549687
0.0881362
0.0762878
0.0399729
0.0385742
0.0407886
0.0546824
0.085264
0.0741106
0.0419065
0.0391964
0.0381857
0.0437582
0.0795056
0.0914425
0.0607924
0.0430985
0.0390874
0.0417931
0.0797298
0.0906532
0.0562533
0.0419968
0.0385064
0.0395895
0.0780157
0.0878516
0.0548598
0.0412496
0.0381722
0.0397365
0.0760515
0.085057
0.0542916
0.0404203
0.0385184
0.0412608
0.073388
0.0790061
0.0432848
0.0375854
0.0426513
0.0604618
0.0893427
0.0787882
0.0421295
0.0386593
0.0418694
0.0564378
0.0902101
0.0773295
0.0393972
0.0381382
0.0409652
0.05442
0.0867172
0.0752547
0.0391558
0.0377187
0.040451
0.0535211
0.0847705
0.0738329
0.0391625
0.0374768
0.0398081
0.053179
0.0824766
0.0718918
0.040871
0.0378765
0.0370743
0.0428623
0.0774077
0.0899175
0.0596532
0.0423774
0.0379374
0.0406581
0.0782093
0.0889657
0.0553082
0.0413231
0.0375299
0.0388007
0.0766118
0.086063
0.0539305
0.0405323
0.0371776
0.0387048
0.0744069
0.0834985
0.0530565
0.0399136
0.0369312
0.03874
0.072851
0.0813631
0.0525267
0.0391954
0.0372844
0.0401493
0.0705278
0.0757793
0.0418909
0.0364121
0.0416483
0.0584787
0.0869687
0.0754827
0.0401748
0.0374361
0.040837
0.0545189
0.0859715
0.0740753
0.0384499
0.037089
0.0400501
0.0528543
0.0835318
0.0726457
0.0382346
0.0367635
0.0396227
0.052411
0.0816162
0.0713116
0.0385388
0.0366638
0.0389501
0.0517209
0.0795981
0.069503
0.0398071
0.03694
0.036216
0.0418153
0.0747094
0.0863137
0.0580433
0.0414977
0.0369389
0.0397586
0.0756299
0.085748
0.0537133
0.0403583
0.0364819
0.0378041
0.0742579
0.0835587
0.0522927
0.0397225
0.0361491
0.0375344
0.0725003
0.0812502
0.0517169
0.0391213
0.035964
0.0377384
0.070803
0.0787748
0.0513462
0.0384661
0.0363351
0.0392126
0.0683573
0.0736268
0.0411652
0.0356118
0.0409109
0.057307
0.084599
0.0739293
0.0393753
0.0364264
0.0399591
0.0530779
0.0839529
0.0724534
0.0373087
0.0359855
0.0391562
0.0513624
0.0814327
0.0708158
0.0370704
0.0356664
0.0387195
0.0508391
0.0793664
0.0694632
0.0373224
0.0354861
0.0380673
0.0505886
0.077461
0.0675198
0.0387413
0.0357502
0.03517
0.0409138
0.072983
0.0847178
0.0569693
0.0407488
0.035856
0.0386796
0.0737814
0.0835528
0.0526941
0.0396281
0.0353083
0.0368353
0.0719693
0.0808766
0.0509895
0.0387775
0.0349672
0.0365119
0.0704416
0.0790305
0.0503974
0.0382602
0.0348362
0.0366041
0.0690296
0.0772993
0.0499792
0.0379785
0.0347623
0.0367084
0.0675652
0.0753505
0.0495439
0.0372925
0.0350147
0.0379425
0.0654426
0.0706945
0.0398114
0.034387
0.0396617
0.0553386
0.0804712
0.0704216
0.038497
0.0352514
0.0388981
0.0515365
0.0801213
0.0692844
0.0363551
0.0347755
0.0380743
0.0498561
0.0775695
0.0675297
0.0361451
0.0345515
0.0376725
0.0492923
0.0755035
0.0661706
0.0364519
0.0344817
0.0371041
0.0487057
0.0736997
0.0644226
0.0374771
0.0345926
0.0340523
0.0394631
0.069791
0.0799448
0.0548259
0.0395081
0.0348818
0.037964
0.0698828
0.0793183
0.0510237
0.0386675
0.0343149
0.0360611
0.0689206
0.0771916
0.0493939
0.0377762
0.0339349
0.0356087
0.0672959
0.0750834
0.0487183
0.0372562
0.0337
0.03569
0.0656569
0.0732242
0.0481959
0.0365035
0.0337847
0.0367723
0.063606
0.0690227
0.0387017
0.033246
0.0388444
0.0542344
0.078394
0.0684569
0.0377381
0.0341709
0.0380333
0.0504338
0.0777633
0.0673583
0.035559
0.0336492
0.0371531
0.0486863
0.0752117
0.065524
0.0351399
0.0333024
0.036586
0.0478252
0.0733026
0.0641623
0.0351447
0.0331587
0.0359979
0.0474239
0.071782
0.0625527
0.0362478
0.0332309
0.0327292
0.0382977
0.0678318
0.0774173
0.0534819
0.0383675
0.0336473
0.0369671
0.0676245
0.0766552
0.0496758
0.037587
0.0331199
0.0350644
0.0664581
0.0745236
0.0482448
0.0367851
0.0328122
0.034812
0.0649267
0.0728249
0.0475605
0.0363299
0.0326033
0.0347644
0.0635574
0.0712811
0.0470856
0.0356054
0.0326626
0.0357391
0.0620762
0.0672798
0.0376503
0.0321494
0.0378245
0.0527745
0.0762654
0.0667024
0.0366276
0.0331536
0.0370439
0.0490062
0.0751374
0.0649158
0.0346174
0.0326337
0.0361645
0.0472471
0.072744
0.0630099
0.0341869
0.0322585
0.0354728
0.0467263
0.070879
0.0621557
0.0355672
0.0322432
0.0318737
0.0377171
0.0677229
0.0772911
0.053225
0.0381176
0.0329369
0.0364385
0.0673776
0.0758221
0.0489174
0.0370228
0.0322704
0.0342965
0.0654645
0.073456
0.0474027
0.0361014
0.031845
0.0339979
0.0634102
0.0712101
0.0468004
0.0352762
0.0317054
0.0351511
0.0617888
0.0670826
0.0370732
0.0312127
0.0373603
0.0524495
0.0754015
0.0656902
0.0361273
0.0322404
0.0363913
0.0483492
0.0744623
0.0637853
0.0336331
0.0316337
0.0355419
0.0467527
0.0720373
0.0628124
0.0336725
0.0313878
0.0350153
0.0465016
0.0707057
0.0615132
0.0349068
0.031308
0.0310185
0.0371938
0.0671239
0.0764589
0.0527246
0.0376438
0.0320695
0.0357934
0.066213
0.0747978
0.0482318
0.0363604
0.0313838
0.0335072
0.0641654
0.0720519
0.0465501
0.0353306
0.0309117
0.0332196
0.0622645
0.0702052
0.0459684
0.034483
0.0307329
0.0342978
0.0609941
0.0662629
0.0361707
0.0302827
0.0366379
0.0513027
0.0746268
0.0644935
0.0349307
0.0313505
0.0357646
0.0476577
0.0734182
0.0633112
0.0332998
0.0310204
0.035041
0.04615
0.0713884
0.0619706
0.0330391
0.0307822
0.0345202
0.0459094
0.0699191
0.0609476
0.0344266
0.0306802
0.030388
0.0365872
0.0663815
0.0748979
0.0519002
0.0370991
0.0315187
0.0354995
0.0646749
0.0730504
0.0476651
0.0358792
0.0308243
0.033314
0.0626789
0.0706075
0.0460169
0.0345979
0.0303234
0.0339536
0.0610021
0.0659472
0.0354799
0.0298971
0.0367363
0.0517605
0.0749054
0.0645313
0.0350825
0.0311436
0.0356926
0.047558
0.0730986
0.0629942
0.033101
0.0306464
0.0347857
0.0460094
0.0710372
0.0614777
0.0327161
0.0303503
0.034158
0.0455772
0.0693456
0.0602509
0.0339439
0.030157
0.0299131
0.0360942
0.0655234
0.0737033
0.0515312
0.0367357
0.0310673
0.0354051
0.0636281
0.0720165
0.0473629
0.0356077
0.0304897
0.0330636
0.0619367
0.0697239
0.0456692
0.0343011
0.0299439
0.0335712
0.0596769
0.0648377
0.0354679
0.0296195
0.0365722
0.0512157
0.0738132
0.0641277
0.0351047
0.0309363
0.0356444
0.04759
0.0726282
0.0625474
0.0332796
0.0304886
0.0344892
0.0460482
0.0703616
0.0608977
0.033889
0.0300657
0.0298556
0.0360135
0.0660851
0.0742462
0.0518129
0.0368665
0.0309689
0.0355002
0.0637717
0.0720579
0.0477811
0.0354942
0.0302187
0.0341167
0.0617487
0.0668287
0.0358347
0.0298141
0.0367746
0.0514963
0.0749
0.0635489
0.0346891
0.0307081
0.03571
0.0476914
0.072403
0.0626336
0.0332916
0.030207
0.0345906
0.0463491
0.0707635
0.0613251
0.0339103
0.0297883
0.0296288
0.0361745
0.0666486
0.0750244
0.0519589
0.0369741
0.0307499
0.0353373
0.0645288
0.0727673
0.0477124
0.0354025
0.0297629
0.03377
0.0622153
0.0672931
0.0354812
0.0294255
0.0367456
0.0517762
0.0755317
0.0644192
0.03481
0.0304144
0.0351108
0.0473907
0.0724517
0.0613616
0.0335736
0.0293668
0.0291615
0.0356762
0.0669416
0.0761783
0.05242
0.0370565
0.0305156
0.0351052
0.0651812
0.0736113
0.0482592
0.035578
0.0294966
0.0338196
0.0627298
0.067935
0.0356884
0.0292388
0.0369624
0.0523223
0.0763817
0.0651078
0.034924
0.0303075
0.0353064
0.0477992
0.0733137
0.0623907
0.0335634
0.029237
0.028912
0.0353406
0.0675073
0.0757627
0.0518245
0.036542
0.0297965
0.0337248
0.0628839
0.0716117
0.0472653
0.0349025
0.0287826
0.0333374
0.0617184
0.067333
0.0351681
0.0286786
0.0365734
0.0519918
0.0759453
0.06481
0.0346164
0.0298482
0.0349829
0.0476298
0.0730172
0.0622725
0.0333191
0.0289173
0.0286723
0.0351697
0.067268
0.0755225
0.0518501
0.0364517
0.0297061
0.0344381
0.0640736
0.0719634
0.047043
0.0345608
0.0283773
0.0326669
0.0603384
0.0643087
0.0334027
0.0278712
0.0352208
0.0505031
0.0730127
0.0629253
0.0342706
0.0287959
0.028662
0.0357498
0.0684282
0.0770438
0.0526832
0.0369453
0.0298424
0.0346956
0.0654043
0.0733566
0.0477312
0.0350527
0.0285437
0.0329553
0.0621854
0.0667665
0.0346641
0.0282692
0.0357139
0.0512796
0.0745293
0.0631132
0.0346002
0.0288494
0.0282338
0.0346219
0.0672393
0.075265
0.0513975
0.0357952
0.0285574
0.0343289
0.0637223
0.0693062
0.0354226
0.0283176
0.0369529
0.0530212
0.0782251
0.0659236
0.0344868
0.0295603
0.0349645
0.0478697
0.073724
0.0620726
0.0327444
0.0282102
0.0279373
0.0343326
0.0664487
0.0738773
0.0509112
0.0353266
0.0283441
0.0340894
0.062099
0.0657726
0.0338066
0.0276898
0.0350173
0.0501637
0.073565
0.0622728
0.0335049
0.0279349
0.0277622
0.0347245
0.0676314
0.0763616
0.0519493
0.0358258
0.0284743
0.0345006
0.0642105
0.0687283
0.0351431
0.0281485
0.0359522
0.0518638
0.0764062
0.0637697
0.0341838
0.0283293
0.0277921
0.0345747
0.0677441
0.0747408
0.0505412
0.0351729
0.0275368
0.0330303
0.0617676
0.0661125
0.0359546
0.0276656
0.0278535
0.0378675
0.0723807
0.0814469
0.0546536
0.0372666
0.0285384
0.0351535
0.0674112
0.0717589
0.0352894
0.0280217
0.0359356
0.0524355
0.0790018
0.0643231
0.033478
0.0275103
0.026883
0.0343585
0.0663177
0.070665
0.0359747
0.0266725
0.0361673
0.0538155
0.0802627
0.0668993
0.0341156
0.0274274
0.0276189
0.0366854
0.0711372
0.0763735
0.0382329
0.0276952
0.0370374
0.0551
0.0837453
0.0659675
0.0338122
0.0274107
0.0267039
0.0347756
0.06854
0.0733535
0.0362429
0.0264428
0.0358935
0.0539115
0.0832322
0.0682065
0.0338095
0.0267938
0.0262558
0.0333261
0.0720426
0.0758676
0.0393947
0.0269083
0.0259891
0.0350553
0.0776742
0.0848516
0.0561167
0.0364566
0.0264888
0.0340571
0.0693562
0.0741043
0.0348921
0.0262517
0.02636
0.0385837
0.0790653
0.0818172
0.0361867
0.0254507
0.0259722
0.0406581
0.0850697
0.0892652
0.0400938
0.0252578
0.0367242
0.0591958
0.0976085
0.0725186
0.0341849
0.0257737
0.0252695
0.0340128
0.0747032
0.0797061
0.0378062
0.025285
0.0252279
0.0382439
0.0855951
0.0913551
0.0397014
0.0254944
0.0260209
0.0424349
0.0960763
0.101015
0.0448004
0.0266034
0.0271937
0.0470509
0.104854
0.106827
0.0494228
0.0277828
0.0283007
0.0514382
0.108005
0.108718
0.053667
0.0289011
0.0294777
0.0558716
0.109115
0.109274
0.0584122
0.0302563
0.0309499
0.0608934
0.109331
0.109332
0.0633344
0.0319473
0.032796
0.0657269
0.109305
0.109278
0.0680913
0.0339603
0.0349595
0.0704065
0.109242
0.10922
0.0726517
0.0362648
0.0375021
0.074692
0.109202
0.109207
0.0766576
0.0390096
0.0403938
0.0784577
0.109224
0.109262
0.080222
0.0420035
0.0433957
0.0819098
0.109312
0.109384
0.0835536
0.0450161
0.0464157
0.0851093
0.109465
0.109568
0.0866118
0.0480321
0.0494268
0.0880184
0.109676
0.109801
0.0893689
0.0510307
0.0524207
0.0906215
0.109925
0.11006
0.0918165
0.0540144
0.0554031
0.0929097
0.110191
0.110326
0.0939451
0.0569927
0.0583755
0.0948807
0.110453
0.110582
0.0957594
0.0599575
0.061296
0.096551
0.110696
0.110811
0.0972951
0.0628006
0.0640594
0.0979569
0.110911
0.111008
0.0985785
0.0654709
0.0666397
0.0991219
0.11109
0.111166
0.0996306
0.0679507
0.0690198
0.100067
0.111226
0.111279
0.100465
0.0702219
0.0711832
0.100818
0.111318
0.111355
0.101141
0.0722734
0.0731242
0.101398
0.111374
0.111391
0.101657
0.0740984
0.0748413
0.10184
0.111396
0.111397
0.102036
0.0757049
0.0763484
0.102161
0.11139
0.111377
0.1023
0.0771084
0.0776589
0.102376
0.111359
0.111334
0.102465
0.0783196
0.0787829
0.102499
0.111307
0.111271
0.102544
0.0793475
0.0797297
0.102545
0.111236
0.111193
0.102555
0.080209
0.0805241
0.102531
0.111154
0.111103
0.102513
0.0809248
0.0811838
0.10247
0.111061
0.111006
0.102428
0.0815138
0.0817272
0.102372
0.110962
0.110902
0.10231
0.0819912
0.082166
0.102241
0.110855
0.110795
0.102166
0.0823737
0.082517
0.10209
0.110747
0.110688
0.102005
0.0826703
0.0827877
0.101921
0.110639
0.110582
0.101832
0.0829067
0.0829952
0.101742
0.110534
0.110477
0.101653
0.0830925
0.0831538
0.101559
0.110429
0.110375
0.101472
0.0832296
0.0832605
0.101379
0.110329
0.110276
0.101291
0.0833187
0.0833268
0.101198
0.110231
0.11018
0.101111
0.0833723
0.0833645
0.101019
0.110138
0.110088
0.100931
0.0833992
0.08338
0.100841
0.110048
0.11
0.100753
0.0834076
0.0833827
0.100668
0.109962
0.109916
0.100581
0.0834022
0.083375
0.1005
0.109879
0.109836
0.100414
0.0833895
0.0833658
0.10034
0.109803
0.109761
0.100257
0.083375
0.0833527
0.100188
0.109729
0.10969
0.100108
0.0833617
0.0833422
0.100046
0.109662
0.109625
0.0999713
0.0833506
0.0833336
0.099914
0.109598
0.109562
0.099844
0.0833427
0.0833305
0.0997928
0.109539
0.109506
0.0997291
0.0833416
0.0833333
0.0996836
0.109485
0.109454
0.0996251
0.0833461
0.0833429
0.0995852
0.109435
0.109406
0.0995325
0.0833583
0.0833595
0.0994982
0.10939
0.109363
0.0994504
0.0833772
0.0833836
0.0994214
0.109349
0.109324
0.0993788
0.0834039
0.0834146
0.0993546
0.109311
0.109289
0.0993166
0.0834371
0.0834524
0.0992967
0.109277
0.109258
0.0992631
0.0834777
0.0834955
0.0992466
0.109246
0.109229
0.0992164
0.0835221
0.0835444
0.0992029
0.109218
0.109203
0.0991766
0.083572
0.0835974
0.099165
0.109192
0.10918
0.0991426
0.0836256
0.0836542
0.0991322
0.109168
0.109158
0.0991137
0.0836829
0.0837135
0.0991041
0.109147
0.109136
0.0990889
0.0837424
0.083775
0.0990801
0.109128
0.109117
0.0990679
0.083804
0.0838375
0.0990594
0.10911
0.109099
0.0990502
0.083866
0.0839007
0.0990426
0.109093
0.109083
0.0990351
0.0839287
0.0839638
0.0990281
0.109078
0.109068
0.0990207
0.0839911
0.0840268
0.0990159
0.109064
0.109054
0.0990089
0.0840535
0.084089
0.0990057
0.109051
0.109041
0.0989987
0.0841148
0.0841505
0.0989972
0.109039
0.109029
0.0989903
0.0841757
0.0842108
0.09899
0.109027
0.109018
0.098983
0.084235
0.0842697
0.0989838
0.109016
0.109008
0.0989768
0.084293
0.0843268
0.0989783
0.109006
0.108998
0.0989711
0.084349
0.0843817
0.0989732
0.108996
0.108988
0.0989657
0.0844027
0.084434
0.098968
0.108987
0.108978
0.0989599
0.0844536
0.0844833
0.0989624
0.108977
0.108968
0.0989539