/*--------------------------------*- C++ -*----------------------------------*\
| =========                 |                                                 |
| \\      /  F ield         | OpenFOAM: The Open Source CFD Toolbox           |
|  \\    /   O peration     | Version:  v2006                                 |
|   \\  /    A nd           | Website:  www.openfoam.com                      |
|    \\/     M anipulation  |                                                 |
\*---------------------------------------------------------------------------*/
FoamFile
{
    version     2.0;
    format      ascii;
    class       volScalarField;
    location    "0.012";
    object      p;
}
// * * * * * * * * * * * * * * * * * * * * * * * * * * * * * * * * * * * * * //

dimensions      [1 -1 -2 0 0 0 0];


internalField   nonuniform List<scalar> 
16277
(
148184
148183
148182
148182
148183
148184
148185
148187
148189
148193
148197
148202
148208
148214
148220
148227
148233
148240
148247
148255
148263
148271
148279
148288
148297
148306
148316
148326
148336
148346
148357
148368
148379
148390
148401
148413
148425
148436
148448
148461
148473
148485
148497
148510
148522
148535
148547
148559
148572
148584
148596
148608
148620
148631
148643
148654
148666
148677
148688
148698
148709
148719
148729
148739
148748
148758
148767
148775
148784
148792
148800
148808
148815
148822
148829
148836
148842
148848
148853
148858
148863
148868
148872
148876
148879
148880
148881
148881
148880
148881
148880
148884
148887
148896
148911
148921
148927
148917
148917
148913
148911
148912
148912
148907
148907
148907
148903
148903
148903
148900
148900
148900
148898
148898
148898
148897
148897
148897
148896
148896
148896
148896
148896
148896
148896
148896
148896
148897
148897
148898
148899
148899
148899
148902
148902
148903
148906
148906
148906
148910
148910
148911
148915
148915
148915
148920
148920
148921
148926
148926
148925
148932
148932
148933
148939
148939
148939
148946
148947
148947
148954
148954
148954
148963
148963
148963
148972
148972
148971
148981
148982
148982
148991
148991
148991
149002
149002
149002
149013
149013
149013
149025
149025
149025
149037
149037
149037
149050
149050
149050
149063
149063
149063
149077
149077
149077
149091
149091
149090
149106
149106
149106
149121
149120
149120
149136
149136
149137
149152
149152
149152
149169
149169
149169
149186
149185
149185
149203
149203
149204
149221
149221
149221
149239
149239
149240
149258
149257
149257
149277
149277
149277
149296
149296
149295
149315
149316
149316
149335
149335
149335
149355
149356
149356
149376
149376
149375
149397
149397
149397
149417
149417
149417
149439
149439
149439
149460
149460
149460
149482
149482
149482
149503
149503
149503
149525
149526
149526
149547
149547
149547
149570
149570
149570
149592
149592
149591
149614
149614
149615
149636
149636
149636
149659
149659
149659
149681
149681
149681
149704
149704
149704
149726
149726
149726
149748
149749
149749
149771
149770
149770
149793
149793
149793
149815
149814
149814
149836
149837
149837
149858
149858
149858
149879
149879
149880
149900
149900
149900
149921
149921
149921
149941
149941
149941
149961
149962
149962
149981
149981
149981
150000
150001
150001
150019
150019
150019
150038
150038
150038
150056
150055
150055
150073
150073
150073
150090
150090
150089
150106
150106
150107
150122
150121
150121
150136
150137
150137
150151
150151
150150
150164
150164
150165
150177
150177
150176
150189
150189
150189
150200
150199
150199
150209
150210
150210
150218
150218
150218
150226
150226
150227
150233
150233
150232
150238
150238
150239
150243
150242
150242
150245
150246
150246
150247
150247
150247
150248
150248
150248
150247
150247
150247
150245
150246
150246
150242
150242
150242
150237
150237
150238
150230
150230
150230
150223
150223
150223
150214
150214
150214
150204
150204
150204
150193
150193
150193
150181
150181
150181
150167
150167
150168
150154
150154
150154
150138
150139
150139
150123
150123
150123
150106
150106
150106
150089
150089
150089
150070
150071
150071
150053
150052
150052
150033
150033
150033
150014
150014
150014
149993
149993
149993
149973
149973
149973
149952
149952
149952
149932
149932
149932
149910
149910
149910
149889
149889
149889
149867
149867
149867
149846
149846
149846
149824
149824
149824
149802
149802
149802
149780
149780
149781
149759
149759
149759
149737
149737
149737
149716
149716
149716
149694
149694
149694
149673
149673
149673
149652
149652
149652
149631
149631
149631
149610
149610
149610
149590
149590
149590
149569
149569
149569
149549
149549
149549
149529
149529
149529
149510
149510
149510
149490
149490
149490
149471
149471
149471
149451
149451
149451
149432
149432
149432
149413
149413
149413
149395
149395
149395
149377
149377
149377
149359
149359
149359
149341
149341
149341
149324
149324
149324
149306
149306
149306
149289
149289
149289
149272
149272
149272
149255
149255
149255
149238
149238
149238
149222
149222
149222
149205
149205
149205
149189
149189
149189
149173
149173
149173
149157
149157
149157
149141
149142
149142
149127
149127
149127
149113
149113
149113
149100
149100
149100
149086
149087
149086
149075
149075
149075
149062
149062
149062
149050
149050
149051
149038
149038
149037
149026
149027
149028
149022
149023
149022
148992
148990
148992
148995
149000
149004
149004
149004
149005
149003
149004
149003
149004
149003
149004
149004
149004
149004
149004
149003
149003
149002
149003
149004
149004
149005
149005
149006
149007
149008
149008
149009
149009
149009
149012
149012
149012
149018
149017
149017
149024
149024
149024
149030
149030
149030
149036
149036
149036
149042
149042
149042
149047
149047
149047
149053
149053
149053
149058
149058
149058
149064
149064
149064
149070
149070
149070
149075
149075
149075
149081
149081
149081
149088
149088
149088
149094
149094
149094
149101
149101
149101
149108
149108
149108
149115
149115
149115
149122
149122
149122
149130
149130
149130
149137
149137
149137
149145
149145
149145
149153
149153
149153
149161
149161
149161
149169
149169
149169
149177
149177
149177
149185
149185
149185
149193
149193
149193
149201
149201
149201
149209
149209
149209
149217
149217
149217
149225
149225
149225
149234
149234
149234
149242
149242
149242
149250
149250
149250
149258
149258
149258
149266
149266
149266
149275
149275
149275
149283
149283
149283
149291
149291
149291
149300
149300
149300
149308
149308
149308
149317
149317
149317
149325
149325
149325
149334
149334
149334
149342
149342
149342
149351
149351
149351
149359
149359
149359
149368
149368
149368
149377
149377
149377
149386
149386
149386
149394
149394
149394
149403
149403
149403
149412
149412
149412
149421
149421
149421
149430
149430
149430
149439
149439
149439
149448
149448
149448
149457
149457
149457
149467
149467
149467
149476
149476
149476
149485
149485
149485
149494
149494
149494
149503
149503
149503
149513
149513
149513
149522
149522
149522
149531
149531
149531
149541
149541
149541
149550
149550
149550
149559
149559
149559
149568
149568
149569
149578
149578
149578
149587
149587
149587
149596
149596
149596
149605
149605
149605
149614
149614
149614
149623
149623
149623
149632
149632
149632
149641
149641
149641
149650
149650
149650
149658
149658
149658
149667
149667
149667
149675
149675
149675
149683
149683
149683
149691
149691
149691
149699
149699
149699
149706
149706
149707
149714
149713
149713
149720
149720
149720
149726
149725
149725
149728
149729
149731
149737
149736
149735
149741
149742
149744
149752
149751
149749
149760
149761
149763
149774
149772
149771
149783
149784
149785
149796
149795
149794
149805
149807
149808
149822
149820
149820
149833
149834
149835
149847
149846
149844
149856
149857
149858
149870
149868
149866
149888
149889
149890
149908
149914
149911
149870
149870
149875
149903
149902
149903
149921
149920
149921
149934
149933
149933
149946
149946
149947
149960
149959
149959
149969
149970
149971
149985
149985
149985
149995
149996
149997
150010
150010
150009
150018
150020
150021
150039
150037
150035
150059
150062
150057
150033
150028
150028
150059
150059
150059
150075
150075
150076
150085
150086
150087
150101
150101
150101
150111
150112
150113
150126
150123
150121
150144
150144
150145
150159
150162
150158
150140
150141
150145
150169
150169
150170
150184
150185
150186
150202
150201
150201
150213
150214
150215
150234
150231
150227
150253
150256
150253
150245
150242
150242
150263
150264
150266
150286
150286
150287
150298
150300
150302
150323
150321
150318
150341
150343
150341
150337
150332
150330
150368
150367
150366
150387
150386
150384
150404
150408
150410
150432
150434
150433
150429
150432
150436
150469
150471
150473
150489
150492
150493
150524
150524
150522
150551
150553
150550
150579
150577
150574
150620
150621
150618
150651
150657
150657
150693
150695
150692
150730
150742
150745
150801
150794
150774
150819
150836
150838
150929
150908
150873
150832
150879
150907
150897
150847
150802
150660
150699
150719
150308
150357
150357
150038
150013
149907
149596
149712
149752
149595
149523
149411
149441
149477
149499
149436
149391
149327
149376
149402
149419
149396
149370
149332
149325
149340
149355
149358
149344
149322
149336
149341
149351
149369
149360
149345
149335
149346
149358
149336
149327
149323
149342
149355
149361
149357
149351
149348
149331
149332
149338
149364
149360
149350
149351
149353
149358
149340
149335
149334
149370
149375
149374
149364
149360
149359
149335
149336
149342
149379
149383
149381
149360
149362
149365
149342
149336
149335
149382
149385
149381
149370
149370
149372
149339
149339
149344
149381
149384
149381
149370
149369
149369
149347
149343
149344
149389
149390
149384
149372
149372
149373
149358
149356
149357
149343
149340
149340
149388
149390
149383
149365
149364
149365
149335
149333
149337
149374
149379
149377
149361
149360
149360
149336
149333
149336
149377
149378
149372
149354
149353
149354
149322
149321
149325
149364
149370
149367
149356
149352
149350
149320
149317
149320
149357
149359
149354
149337
149338
149339
149308
149306
149309
149349
149355
149353
149340
149336
149333
149303
149300
149304
149340
149342
149336
149316
149316
149316
149288
149285
149288
149328
149335
149333
149298
149297
149299
149318
149324
149323
149299
149298
149298
149270
149267
149269
149310
149312
149306
149291
149293
149296
149273
149267
149267
149294
149299
149297
149278
149275
149274
149242
149239
149240
149279
149281
149276
149260
149262
149263
149243
149237
149237
149268
149276
149275
149248
149246
149244
149208
149204
149205
149245
149247
149242
149214
149211
149211
149241
149242
149236
149222
149226
149234
149196
149191
149192
149218
149223
149222
149198
149197
149196
149164
149161
149163
149199
149202
149196
149168
149165
149164
149208
149206
149196
149175
149179
149186
149139
149136
149140
149169
149175
149174
149149
149148
149147
149114
149111
149114
149148
149151
149146
149118
149115
149115
149161
149158
149147
149123
149126
149131
149086
149083
149086
149113
149118
149116
149097
149094
149092
149056
149052
149053
149095
149097
149091
149062
149059
149059
149102
149099
149089
149065
149069
149075
149026
149023
149026
149054
149061
149059
149018
149018
149021
149033
149038
149034
149017
149015
149014
148985
148983
148986
149028
149029
149022
148994
148995
149000
149009
149010
149004
148977
148979
148981
148945
148941
148943
148970
148976
148974
148934
148934
148938
148955
148960
148958
148938
148936
148935
148907
148905
148909
148962
148959
148947
148909
148906
148906
148921
148922
148916
148890
148891
148893
148849
148847
148851
148884
148891
148889
148846
148846
148849
148864
148868
148864
148835
148834
148836
148864
148877
148880
148849
148843
148838
148796
148795
148801
148824
148826
148820
148787
148784
148785
148799
148802
148798
148775
148777
148780
148738
148735
148738
148772
148778
148775
148737
148737
148740
148765
148775
148777
148734
148730
148730
148736
148742
148739
148712
148710
148708
148668
148666
148671
148695
148699
148694
148661
148659
148661
148682
148683
148677
148642
148638
148636
148667
148669
148662
148642
148645
148649
148622
148612
148610
148635
148643
148643
148589
148589
148593
148600
148606
148603
148561
148561
148564
148577
148583
148581
148556
148553
148552
148512
148509
148512
148548
148550
148544
148510
148508
148508
148544
148543
148533
148498
148497
148501
148514
148515
148506
148476
148478
148482
148433
148429
148431
148460
148467
148466
148413
148415
148420
148432
148438
148436
148390
148391
148396
148412
148419
148417
148391
148389
148388
148350
148348
148351
148407
148404
148392
148348
148347
148350
148355
148357
148351
148307
148304
148305
148316
148319
148314
148276
148273
148274
148294
148297
148290
148263
148265
148269
148219
148215
148218
148250
148257
148255
148209
148209
148212
148227
148234
148231
148202
148194
148193
148201
148209
148207
148160
148157
148159
148167
148174
148173
148137
148135
148134
148087
148085
148090
148120
148122
148115
148074
148070
148070
148087
148091
148085
148046
148043
148044
148064
148066
148059
148022
148018
148018
148056
148055
148043
148014
148019
148026
147968
147961
147963
147990
147998
147998
147941
147941
147945
147951
147958
147957
147897
147899
147905
147916
147922
147920
147874
147874
147878
147892
147901
147900
147863
147862
147861
147813
147810
147814
147856
147857
147849
147809
147809
147813
147828
147828
147819
147770
147767
147769
147777
147780
147774
147729
147726
147726
147744
147747
147740
147701
147699
147702
147715
147718
147710
147678
147681
147685
147625
147621
147624
147657
147665
147664
147607
147608
147613
147629
147637
147634
147588
147585
147586
147599
147609
147609
147545
147545
147549
147557
147564
147563
147511
147509
147512
147519
147527
147525
147483
147484
147484
147434
147434
147440
147471
147473
147464
147418
147415
147417
147425
147429
147423
147376
147372
147372
147389
147393
147387
147345
147343
147345
147369
147369
147360
147315
147313
147315
147329
147331
147322
147287
147290
147296
147224
147221
147226
147261
147271
147271
147211
147210
147213
147217
147223
147220
147159
147160
147166
147177
147186
147185
147117
147120
147127
147140
147148
147146
147098
147095
147096
147104
147113
147110
147076
147072
147068
147006
147003
147008
147053
147052
147041
146989
146985
146986
146990
146994
146989
146936
146933
146933
146956
146957
146947
146893
146887
146884
146909
146911
146902
146855
146852
146854
146869
146871
146862
146822
146825
146828
146758
146753
146756
146790
146800
146800
146733
146733
146737
146741
146747
146743
146687
146684
146687
146692
146700
146697
146633
146633
146637
146643
146650
146646
146593
146589
146591
146595
146603
146600
146540
146540
146543
146548
146558
146556
146514
146510
146507
146435
146432
146437
146478
146479
146468
146413
146409
146410
146413
146417
146411
146352
146347
146346
146360
146364
146357
146303
146300
146301
146309
146314
146307
146257
146255
146258
146269
146272
146263
146221
146226
146230
146152
146146
146148
146178
146187
146184
146120
146120
146124
146129
146139
146138
146056
146059
146065
146068
146077
146075
146009
146006
146009
146005
146012
146008
145942
145941
145945
145944
145949
145941
145906
145904
145902
145829
145828
145837
145862
145866
145857
145802
145799
145801
145807
145811
145803
145741
145737
145739
145753
145754
145744
145679
145673
145672
145686
145689
145679
145621
145619
145621
145628
145630
145618
145565
145570
145573
145476
145470
145474
145499
145510
145509
145416
145422
145432
145429
145433
145426
145364
145364
145368
145375
145383
145379
145317
145313
145315
145314
145322
145319
145245
145245
145249
145251
145263
145262
145209
145204
145198
145101
145096
145100
145150
145148
145134
145066
145062
145062
145063
145066
145056
144977
144973
144975
144963
144967
144959
144876
144860
144846
144880
144889
144883
144841
144845
144849
144756
144752
144755
144788
144800
144799
144718
144717
144722
144717
144725
144721
144635
144635
144640
144637
144647
144644
144560
144560
144564
144560
144575
144577
144502
144498
144493
144372
144368
144374
144414
144413
144398
144319
144314
144316
144265
144277
144276
144173
144154
144141
144194
144201
144193
144132
144128
144126
144142
144147
144136
144078
144085
144090
143978
143968
143968
143992
144005
144003
143902
143904
143912
143905
143918
143917
143808
143808
143812
143789
143799
143794
143688
143688
143693
143678
143694
143696
143603
143597
143591
143432
143422
143426
143414
143430
143433
143353
143339
143331
143386
143389
143376
143300
143293
143291
143300
143305
143294
143210
143206
143206
143216
143218
143202
143129
143136
143142
142994
142987
142992
143021
143038
143040
142927
142925
142929
142889
142898
142892
142762
142762
142769
142741
142756
142755
142643
142635
142632
142430
142394
142370
142471
142480
142476
142411
142404
142402
142429
142433
142419
142329
142323
142323
142321
142325
142312
142207
142203
142202
142199
142204
142189
142098
142109
142117
141946
141935
141937
141956
141974
141975
141847
141846
141851
141793
141804
141798
141634
141635
141644
141578
141586
141582
141336
141391
141428
141296
141272
141250
141374
141382
141365
141289
141287
141288
141277
141285
141273
141163
141160
141163
141147
141154
141139
141038
141047
141052
140878
140863
140863
140878
140896
140895
140755
140758
140765
140707
140724
140722
140578
140566
140554
140307
140299
140314
140204
140234
140247
140097
140052
140017
140104
140127
140127
140055
140051
140052
140072
140078
140060
139972
139980
139986
139796
139784
139787
139802
139823
139825
139673
139675
139680
139624
139642
139641
139476
139473
139466
139227
139226
139243
139244
139242
139223
139064
139050
139045
138810
138859
138883
138709
138656
138593
138506
138536
138567
138663
138686
138678
138561
138566
138571
138554
138577
138575
138438
138436
138425
138176
138173
138188
138203
138205
138184
138040
138039
138043
137958
137964
137945
137730
137735
137739
137425
137405
137410
137317
137319
137308
136829
136943
137039
137044
137021
136973
136955
136970
136978
136830
136829
136833
136889
136896
136872
136745
136739
136739
136704
136710
136689
136507
136518
136525
136192
136176
136183
136167
136193
136199
135950
135955
135963
135737
135755
135747
135273
135333
135399
134966
134834
134700
135035
135071
135079
135047
135046
135039
134896
134893
134893
134899
134926
134924
134709
134718
134730
134633
134657
134653
134400
134396
134385
133995
133982
133995
133961
133956
133933
133663
133662
133673
132944
133007
133106
132914
132814
132694
132729
132776
132829
132672
132658
132647
132787
132795
132764
132613
132598
132587
132556
132561
132534
132278
132294
132301
131818
131799
131813
131685
131709
131713
131328
131323
131338
130642
130497
130388
130111
130273
130415
130334
130257
130181
130160
130179
130199
130296
130330
130321
130176
130174
130164
129782
129770
129777
129666
129660
129627
129244
129252
129262
128471
128469
128528
128008
127825
127631
127225
127489
127686
127556
127475
127343
127364
127413
127431
127547
127599
127591
127398
127394
127375
126869
126850
126855
126511
126517
126492
125891
125791
125739
124018
124430
124767
124341
124156
123932
124644
124692
124681
124752
124751
124748
124588
124582
124569
124091
124080
124091
123576
123608
123611
122803
122555
122272
120767
121315
121705
121442
121287
121054
122020
122036
121958
121981
121981
121980
121647
121642
121660
120817
120755
120788
118209
118703
119199
119362
119104
118918
119566
119550
119633
119625
119560
119557
119266
119298
119407
118614
118242
117699
117384
117749
118035
118038
117894
117758
118901
118954
118910
119068
118837
118388
118122
118691
119003
119194
119037
118782
119680
119828
119829
120694
120585
120292
121438
121564
121590
122462
122489
122453
123168
123187
123165
123710
123720
123705
124156
124166
124162
124557
124559
124551
124903
124909
124908
125224
125224
125219
125504
125508
125509
125770
125768
125764
126003
126006
126008
126229
126226
126223
126426
126428
126431
126619
126616
126613
126786
126789
126792
126953
126950
126948
127098
127100
127103
127243
127240
127238
127369
127371
127374
127497
127493
127492
127607
127608
127611
127720
127717
127715
127817
127818
127821
127917
127914
127913
128003
128005
128007
128093
128090
128089
128170
128171
128173
128250
128248
128246
128319
128320
128322
128391
128389
128388
128453
128454
128456
128519
128516
128515
128574
128575
128577
128633
128632
128631
128684
128685
128686
128738
128736
128735
128783
128784
128785
128832
128830
128830
128873
128874
128875
128918
128916
128916
128955
128956
128957
128995
128994
128994
129030
129030
129031
129066
129065
129065
129098
129098
129098
129130
129130
129129
129159
129160
129160
129190
129189
129189
129216
129216
129216
129243
129243
129243
129267
129268
129268
129293
129292
129292
129315
129315
129315
129338
129338
129337
129358
129358
129358
129379
129379
129379
129398
129398
129398
129417
129417
129417
129434
129434
129434
129452
129452
129451
129468
129468
129467
129483
129484
129483
129498
129498
129498
129513
129513
129513
129526
129526
129526
129540
129540
129540
129552
129552
129552
129565
129565
129565
129576
129576
129576
129587
129588
129588
129598
129598
129598
129609
129609
129609
129618
129618
129618
129628
129628
129628
129636
129637
129636
129645
129646
129645
129653
129654
129653
129661
129662
129662
129669
129669
129669
129676
129677
129676
129683
129683
129683
129690
129690
129690
129696
129696
129696
129703
129703
129703
129708
129708
129708
129714
129715
129714
129720
129720
129719
129725
129725
129725
129730
129730
129730
129735
129735
129735
129740
129740
129739
129744
129744
129744
129748
129748
129748
129753
129753
129753
129757
129757
129757
129761
129761
129761
129765
129764
129764
129768
129768
129768
129772
129772
129771
129775
129775
129775
129778
129778
129778
129782
129782
129782
129785
129785
129784
129788
129788
129788
129790
129790
129790
129793
129793
129793
129796
129796
129796
129799
129798
129798
129801
129801
129801
129803
129803
129803
129805
129805
129805
129808
129807
129807
129809
129809
129809
129811
129811
129811
129813
129813
129813
129815
129814
129814
129816
129816
129816
129817
129817
129817
129818
129818
129818
129820
129820
129820
129820
129820
129820
129822
129821
129821
129822
129822
129822
129823
129823
129823
129823
129823
129823
129824
129824
129824
129824
129824
129824
129825
129825
129825
129825
129825
129825
129825
129825
129825
129825
129825
129825
129825
129825
129825
129825
129825
129825
129825
129825
129825
129824
129824
129824
129824
129824
129824
129824
129823
129823
129823
129823
129823
129822
129822
129822
129822
129822
129822
129821
129821
129821
129820
129820
129820
129819
129819
129819
129819
129818
129818
129817
129817
129817
129817
129816
129817
129815
129815
129815
129814
129814
129814
129813
129813
129813
129812
129811
129812
129810
129810
129810
129808
129808
129808
129807
129806
129806
129805
129805
129805
129803
129803
129803
129802
129802
129802
129800
129800
129800
129800
129800
129800
129799
129799
129799
129799
129799
129799
129800
129800
129800
129801
129801
129801
129802
129802
129802
129804
129804
129805
129807
129806
129806
129809
129809
129809
129812
129811
129811
129814
129814
129814
129817
129817
129817
129820
129820
129820
129824
129823
129823
129827
129827
129827
129831
129831
129831
129836
129836
129836
129840
129840
129840
129846
129846
129846
129852
129851
129851
129858
129858
129858
129865
129865
129865
129874
129874
129874
129883
129882
129882
129893
129893
129893
129903
129903
129903
129915
129915
129915
129927
129927
129927
129941
129941
129941
129955
129955
129955
129971
129971
129971
129985
129985
129985
130000
130000
130000
130013
130013
130013
130026
130025
130025
130034
130034
130034
130041
130041
130041
130045
130045
130044
130047
130046
130046
130046
130046
130046
130044
130044
130043
130038
130038
130038
130027
130026
130026
130012
130012
130011
130014
130015
130015
130032
130034
130035
130043
130038
130036
130054
130089
130058
130041
130011
130067
130110
130075
130039
130069
130105
130083
130052
130029
130015
130007
130005
130010
130018
130025
130031
130036
130039
130039
130035
130029
130019
130009
129997
129987
129979
129973
129971
129971
129978
129988
129996
130002
130003
130000
129989
129975
129960
129945
129931
129918
129907
129897
129889
129883
129879
129877
129876
129876
129880
129889
129902
129918
129936
129958
129986
130021
130061
130107
130160
130220
130287
130361
130444
130534
130634
130743
130862
130993
131137
131293
131463
131649
131850
132067
132300
132550
132816
133099
133396
133708
134033
134371
134719
135076
135440
135810
136183
136559
136936
137311
137684
138054
138420
138780
139135
139483
139824
140157
140482
140798
141105
141403
141690
141967
142234
142490
142736
142973
143199
143416
143623
143820
144008
144185
144353
144512
144663
144807
144944
145075
145201
145321
145437
145548
145654
145755
145850
145940
146025
146105
146179
146249
146314
146376
146435
146491
146544
146595
146643
146690
146735
146779
146820
146860
146899
146935
146971
147005
147039
147071
147103
147135
147166
147198
147229
147260
147291
147322
147354
147385
147417
147449
147482
147515
147549
147584
147619
147655
147691
147727
147764
147800
147835
147870
147904
147936
147967
147997
148025
148051
148075
148098
148119
148138
148155
148169
148182
148194
148203
148211
148217
148222
148225
148227
148228
148228
148227
148223
148215
148204
148194
148188
148189
148192
148196
148202
148207
148211
148215
148219
148224
148229
148234
148239
148245
148250
148256
148263
148269
148276
148283
148291
148299
148307
148315
148324
148333
148342
148351
148361
148371
148381
148391
148402
148412
148423
148434
148446
148457
148469
148480
148492
148504
148516
148528
148540
148553
148565
148577
148589
148601
148614
148625
148637
148649
148660
148672
148683
148694
148704
148715
148725
148735
148745
148754
148764
148773
148782
148790
148798
148806
148814
148821
148828
148834
148841
148846
148851
148856
148861
148865
148869
148873
148876
148878
148878
148879
148883
148892
148898
148900
148898
148897
148896
148896
148897
148898
148900
148903
148906
148911
148915
148921
148926
148933
148939
148947
148955
148964
148972
148982
148992
149003
149013
149026
149037
149051
149063
149077
149091
149106
149121
149137
149152
149170
149186
149204
149221
149240
149258
149277
149296
149316
149335
149356
149376
149397
149417
149439
149460
149482
149503
149526
149547
149570
149592
149615
149636
149660
149681
149704
149726
149749
149771
149793
149815
149837
149858
149880
149900
149922
149941
149962
149981
150001
150019
150038
150056
150074
150090
150107
150122
150137
150151
150165
150177
150189
150200
150210
150219
150227
150233
150239
150243
150246
150247
150249
150247
150246
150242
150238
150231
150224
150214
150205
150193
150181
150167
150154
150138
150123
150106
150089
150070
150052
150032
150014
149992
149973
149951
149931
149909
149889
149866
149846
149823
149802
149780
149759
149737
149716
149694
149673
149652
149631
149610
149590
149569
149549
149529
149510
149489
149470
149451
149432
149413
149395
149376
149359
149341
149324
149306
149289
149272
149255
149238
149222
149205
149189
149173
149157
149141
149127
149112
149100
149087
149075
149063
149052
149039
149029
149021
149011
149013
149022
149030
149035
149040
149052
149057
149063
149075
149080
149087
149099
149105
149112
149127
149133
149141
149157
149164
149173
149189
149196
149205
149222
149229
149238
149255
149262
149272
149289
149296
149306
149324
149331
149341
149359
149367
149377
149395
149403
149413
149432
149441
149451
149470
149479
149489
149509
149518
149529
149549
149558
149569
149590
149599
149610
149631
149640
149651
149673
149682
149694
149715
149724
149736
149758
149767
149779
149802
149810
149823
149845
149853
149866
149888
149896
149908
149931
149939
149950
149972
149980
149991
150013
150020
150031
150052
150059
150069
150089
150096
150105
150123
150130
150137
150154
150161
150167
150182
150189
150193
150206
150213
150215
150226
150233
150232
150240
150246
150244
150248
150252
150249
150251
150253
150249
150249
150251
150244
150242
150242
150235
150231
150229
150220
150214
150211
150201
150193
150189
150179
150169
150164
150152
150141
150135
150123
150111
150103
150091
150078
150070
150057
150042
150033
150021
150005
149996
149982
149966
149956
149942
149925
149915
149901
149884
149873
149859
149841
149830
149816
149797
149786
149771
149753
149741
149727
149708
149697
149682
149663
149652
149637
149618
149607
149592
149574
149562
149548
149529
149518
149504
149486
149475
149461
149443
149432
149418
149400
149390
149376
149359
149349
149336
149319
149309
149297
149280
149271
149258
149243
149234
149222
149207
149198
149187
149172
149164
149153
149140
149132
149121
149109
149102
149092
149080
149073
149064
149053
149047
149038
149028
149022
149014
149005
149000
148992
148984
148980
148973
148965
148962
148955
148949
148946
148940
148934
148932
148927
148922
148920
148916
148912
148910
148907
148904
148902
148900
148898
148897
148897
148896
148895
148896
148896
148893
148897
148888
148893
148897
148903
148911
148921
148933
148947
148963
148981
149001
149024
149048
149074
149103
149133
149165
149199
149234
149271
149309
149349
149389
149431
149474
149517
149561
149605
149650
149695
149739
149784
149827
149870
149912
149953
149993
150031
150067
150101
150133
150163
150189
150212
150231
150246
150255
150259
150257
150252
150239
150218
150193
150163
150131
150096
150059
150019
149978
149937
149894
149851
149808
149765
149723
149681
149639
149598
149557
149517
149478
149440
149403
149367
149332
149297
149263
149230
149198
149166
149135
149108
149083
149061
149039
149025
149020
149020
149012
149011
149015
149010
149018
149022
149013
149011
149020
149038
149059
149081
149106
149135
149165
149196
149228
149262
149295
149330
149365
149401
149439
149476
149475
149438
149401
149365
149330
149296
149262
149229
149197
149166
149136
149107
149081
149059
149039
149023
149014
149011
149020
149022
149013
149012
149021
149038
149057
149079
149078
149057
149037
149021
149012
149012
149020
149020
149011
149011
149019
149036
149056
149078
149104
149105
149106