/*--------------------------------*- C++ -*----------------------------------*\
| =========                 |                                                 |
| \\      /  F ield         | OpenFOAM: The Open Source CFD Toolbox           |
|  \\    /   O peration     | Version:  v2006                                 |
|   \\  /    A nd           | Website:  www.openfoam.com                      |
|    \\/     M anipulation  |                                                 |
\*---------------------------------------------------------------------------*/
FoamFile
{
    version     2.0;
    format      ascii;
    class       surfaceScalarField;
    location    "0.012";
    object      phi;
}
// * * * * * * * * * * * * * * * * * * * * * * * * * * * * * * * * * * * * * //

dimensions      [1 0 -1 0 0 0 0];
oriented        oriented;


internalField   nonuniform List<scalar> 
32242
(
-2.48888e-05
-0.00128756
0.00126917
4.32449e-05
-0.00120733
0.00118242
7.91966e-06
7.39084e-05
-3.3347e-06
0.00139055
3.61294e-05
0.00152085
-3.13268e-05
0.00156966
-3.53867e-06
0.00160767
-1.56101e-05
0.00160098
-2.24148e-06
0.00159766
-2.33683e-06
0.00158815
-4.66272e-07
0.00158193
-1.03333e-06
0.0015765
-1.19291e-06
0.00157292
-1.33867e-06
0.00156954
-1.55178e-06
0.00156662
-1.60065e-06
0.00156346
-1.72233e-06
0.00156044
-1.83982e-06
0.00155722
-1.95365e-06
0.00155387
-2.06391e-06
0.00155037
-2.1706e-06
0.00154673
-2.27369e-06
0.00154294
-2.37326e-06
0.00153901
-2.46944e-06
0.00153494
-2.56244e-06
0.00153072
-2.65241e-06
0.00152637
-2.73948e-06
0.00152188
-2.82368e-06
0.00151725
-2.90492e-06
0.0015125
-2.98311e-06
0.00150762
-3.05808e-06
0.00150262
-3.12965e-06
0.00149751
-3.19758e-06
0.00149228
-3.26157e-06
0.00148695
-3.32086e-06
0.00148153
-3.37527e-06
0.00147603
-3.42624e-06
0.00147042
-3.47323e-06
0.00146473
-3.51548e-06
0.00145898
-3.55263e-06
0.00145316
-3.58451e-06
0.0014473
-3.61102e-06
0.00144138
-3.6321e-06
0.00143544
-3.64777e-06
0.00142946
-3.65803e-06
0.00142347
-3.66294e-06
0.00141747
-3.66255e-06
0.00141146
-3.65703e-06
0.00140547
-3.64649e-06
0.00139949
-3.63107e-06
0.00139353
-3.61096e-06
0.0013876
-3.5863e-06
0.00138171
-3.55725e-06
0.00137587
-3.52392e-06
0.00137007
-3.48642e-06
0.00136434
-3.44484e-06
0.00135866
-3.39926e-06
0.00135306
-3.34968e-06
0.00134753
-3.29617e-06
0.00134208
-3.23883e-06
0.00133671
-3.17779e-06
0.00133143
-3.11305e-06
0.00132625
-3.04457e-06
0.00132116
-2.97242e-06
0.00131619
-2.8967e-06
0.00131132
-2.81751e-06
0.00130657
-2.73488e-06
0.00130193
-2.64872e-06
0.00129742
-2.55875e-06
0.00129304
-2.4646e-06
0.00128879
-2.36595e-06
0.00128468
-2.26249e-06
0.00128071
-2.15349e-06
0.00127688
-2.03822e-06
0.0012732
-1.91606e-06
0.00126967
-1.78644e-06
0.0012663
-1.64795e-06
0.00126308
-8.66913e-07
0.00125935
-1.32213e-06
0.00125632
-1.11229e-06
0.00125076
-2.73698e-06
0.00124272
-4.34357e-06
0.00123122
-1.8459e-05
0.00121179
-2.82989e-05
0.00118725
-7.86899e-05
0.001153
-0.000134762
0.0011322
-0.000309259
0.00114321
-0.000693169
0.0013199
-0.00019074
0.000340148
1.92519e-05
0.0005646
4.2059e-06
0.000740642
-3.63376e-05
0.000655598
-1.17566e-05
0.000574567
-7.06726e-06
0.000207722
-4.31585e-06
0.000172946
0.000139769
8.03249e-06
0.000131734
1.63296e-05
0.000164646
0.000198699
2.53493e-05
-1.28238e-05
0.000191897
1.96206e-05
-6.41039e-06
0.000158228
0.00012532
2.35881e-06
0.000122955
3.87114e-06
0.000156709
0.000190743
5.0168e-06
-4.3858e-06
0.000188775
6.34291e-06
-2.71428e-06
0.000155029
0.000120234
1.47386e-06
0.00011875
1.92926e-06
0.000154562
0.000188656
2.03521e-06
-4.22613e-06
0.000187165
5.70064e-06
-2.4679e-06
0.00015279
0.000116271
1.21635e-06
0.000115041
1.11271e-06
0.000152878
0.00018692
1.3386e-06
-3.44908e-06
0.000185967
4.38132e-06
-1.69176e-06
0.000151103
0.000113335
4.65269e-07
0.000112853
3.71184e-07
0.000151178
0.000186274
4.15694e-08
-2.70501e-06
0.000184635
4.31909e-06
-1.52625e-06
0.000149978
0.00011131
3.37368e-07
0.000110951
2.5808e-07
0.000150033
0.000184877
-1.34637e-08
-2.59053e-06
0.0001838
3.63343e-06
-1.40529e-06
0.000148819
0.000109522
2.48774e-07
0.000109245
1.7319e-07
0.000148861
0.000183993
-6.04058e-08
-2.50013e-06
0.000182881
3.56802e-06
-1.31941e-06
0.000147643
0.000107895
1.87762e-07
0.000107673
1.12055e-07
0.000147678
0.000183041
-9.52128e-08
-2.43363e-06
0.000181902
3.52001e-06
-1.25935e-06
0.00014646
0.000106378
1.46086e-07
0.000106193
7.02491e-08
0.00014649
0.000182035
-1.17496e-07
-2.38294e-06
0.000180874
3.48503e-06
-1.21384e-06
0.000145272
0.000104939
1.13506e-07
0.000104783
3.8855e-08
0.000145295
0.000180982
-1.31291e-07
-2.3389e-06
0.0001798
3.45588e-06
-1.17386e-06
0.000144076
0.000103565
8.40838e-08
0.000103434
1.17441e-08
0.000144092
0.000179885
-1.40521e-07
-2.29805e-06
0.000178682
3.42997e-06
-1.1366e-06
0.000142872
0.000102249
5.79947e-08
0.00010214
-1.12533e-08
0.000142879
0.000178742
-1.45122e-07
-2.26249e-06
0.000177518
3.40906e-06
-1.10387e-06
0.000141657
0.000100983
3.72344e-08
0.000100891
-2.79822e-08
0.000141655
0.000177554
-1.44241e-07
-2.23335e-06
0.000176311
3.39319e-06
-1.07701e-06
0.00014043
9.97564e-05
2.25459e-08
9.96746e-05
-3.78256e-08
0.000140419
0.000176326
-1.37647e-07
-2.21161e-06
0.000175065
3.38359e-06
-1.05644e-06
0.00013919
9.85564e-05
1.45819e-08
9.84778e-05
-3.88027e-08
0.000139166
0.000175056
-1.22204e-07
-2.1995e-06
0.000173775
3.38418e-06
-1.0429e-06
0.00013793
9.73684e-05
1.343e-08
9.72866e-05
-2.96838e-08
0.000137891
0.000173743
-9.53326e-08
-2.19727e-06
0.000172442
3.39609e-06
-1.03611e-06
0.000136645
9.61798e-05
1.86064e-08
9.60888e-05
-1.0941e-08
0.000136588
0.000172384
-5.73715e-08
-2.20367e-06
0.000171062
3.4184e-06
-1.03539e-06
0.00013533
9.4979e-05
2.89773e-08
9.48739e-05
1.54496e-08
0.000135252
0.000170979
-1.10144e-08
-2.21633e-06
0.000169636
3.44723e-06
-1.03908e-06
0.000133981
9.37568e-05
4.42609e-08
9.36331e-05
4.98499e-08
0.000133879
0.000169524
4.66439e-08
-2.23309e-06
0.00016816
3.48045e-06
-1.04522e-06
0.000132594
9.25067e-05
6.15272e-08
9.23629e-05
8.82631e-08
0.000132468
0.000168019
1.10202e-07
-2.2524e-06
0.000166632
3.51792e-06
-1.05228e-06
0.000131167
9.12269e-05
7.94721e-08
9.10629e-05
1.29069e-07
0.000131015
0.000166461
1.77977e-07
-2.27333e-06
0.000165051
3.55855e-06
-1.05956e-06
0.000129698
8.99176e-05
9.78676e-08
8.97332e-05
1.71897e-07
0.00012952
0.000164848
2.49553e-07
-2.29553e-06
0.000163415
3.6018e-06
-1.06693e-06
0.000128186
8.85788e-05
1.16715e-07
8.83741e-05
2.16664e-07
0.000127979
0.000163179
3.24798e-07
-2.31882e-06
0.000161722
3.6475e-06
-1.07434e-06
0.000126628
8.72111e-05
1.35897e-07
8.69863e-05
2.63203e-07
0.000126393
0.000161452
4.03753e-07
-2.34297e-06
0.00015997
3.69566e-06
-1.08165e-06
0.000125024
8.58153e-05
1.5536e-07
8.55705e-05
3.11365e-07
0.00012476
0.000159665
4.86473e-07
-2.36791e-06
0.000158157
3.74624e-06
-1.08892e-06
0.000123373
8.43919e-05
1.75197e-07
8.41273e-05
3.61172e-07
0.000123079
0.000157815
5.72903e-07
-2.39357e-06
0.00015628
3.79898e-06
-1.0962e-06
0.000121673
8.29418e-05
1.95345e-07
8.26576e-05
4.12419e-07
0.000121349
0.000155901
6.62576e-07
-2.41958e-06
0.000154338
3.85316e-06
-1.10332e-06
0.000119926
8.14656e-05
2.15633e-07
8.11619e-05
4.64753e-07
0.00011957
0.00015392
7.54861e-07
-2.44589e-06
0.00015233
3.90865e-06
-1.11025e-06
0.000118129
7.9964e-05
2.3623e-07
7.96409e-05
5.18487e-07
0.000117742
0.000151872
8.50207e-07
-2.47311e-06
0.000150254
3.96636e-06
-1.11733e-06
0.000116282
7.84374e-05
2.57652e-07
7.80946e-05
5.74602e-07
0.000115862
0.000149755
9.50128e-07
-2.50233e-06
0.000148107
4.02795e-06
-1.12515e-06
0.000114383
7.68852e-05
2.80538e-07
7.65219e-05
6.34352e-07
0.000113929
0.000147564
1.05662e-06
-2.53484e-06
0.000145885
4.09546e-06
-1.13429e-06
0.00011243
7.53061e-05
3.05414e-07
7.49208e-05
6.98933e-07
0.00011194
0.000145296
1.17153e-06
-2.57158e-06
0.000143584
4.17023e-06
-1.14528e-06
0.000110419
7.36972e-05
3.32768e-07
7.32881e-05
7.69113e-07
0.00010989
0.000142946
1.29596e-06
-2.6128e-06
0.000141197
4.25277e-06
-1.15825e-06
0.000108345
7.20551e-05
3.62252e-07
7.16203e-05
8.44517e-07
0.000107775
0.000140506
1.42978e-06
-2.65759e-06
0.000138718
4.34226e-06
-1.17246e-06
0.000106205
7.03771e-05
3.93205e-07
6.99155e-05
9.24183e-07
0.000105591
0.000137971
1.57176e-06
-2.70506e-06
0.000136143
4.4371e-06
-1.18757e-06
0.000103993
6.86616e-05
4.25544e-07
6.81723e-05
1.00745e-06
0.000103334
0.000135337
1.72033e-06
-2.75454e-06
0.000133466
4.5358e-06
-1.20355e-06
0.000101709
6.69073e-05
4.59166e-07
6.63894e-05
1.09363e-06
0.000101003
0.0001326
1.874e-06
-2.80522e-06
0.000130687
4.63668e-06
-1.22015e-06
9.93506e-05
6.5113e-05
4.93438e-07
6.45661e-05
1.18129e-06
9.8598e-05
0.00012976
2.03027e-06
-2.85527e-06
0.000127805
4.73658e-06
-1.23649e-06
9.6918e-05
6.32787e-05
5.27334e-07
6.27033e-05
1.2682e-06
9.61191e-05
0.000126818
2.1853e-06
-2.90236e-06
0.000124824
4.83143e-06
-1.25156e-06
9.44137e-05
6.14062e-05
5.5981e-07
6.08037e-05
1.35172e-06
9.35702e-05
0.000123779
2.33432e-06
-2.94352e-06
0.000121749
4.91587e-06
-1.26427e-06
9.1843e-05
5.94993e-05
5.89453e-07
5.88725e-05
1.42814e-06
9.09594e-05
0.000120653
2.47067e-06
-2.97482e-06
0.000118596
4.98283e-06
-1.27314e-06
8.92164e-05
5.75648e-05
6.14276e-07
5.69188e-05
1.49254e-06
8.83e-05
0.000117457
2.58579e-06
-2.99062e-06
0.000115383
5.02304e-06
-1.27573e-06
8.65507e-05
5.56142e-05
6.30916e-07
5.49574e-05
1.53778e-06
8.56127e-05
0.000114215
2.66838e-06
-2.98377e-06
0.000112141
5.02518e-06
-1.26841e-06
8.38697e-05
5.36659e-05
6.35587e-07
5.30101e-05
1.55627e-06
8.29246e-05
0.000110962
2.70615e-06
-2.94861e-06
0.000108906
4.97932e-06
-1.24878e-06
8.12038e-05
5.17437e-05
6.27185e-07
5.11016e-05
1.54433e-06
8.02687e-05
0.000107738
2.69108e-06
-2.88854e-06
0.000105724
4.88477e-06
-1.22037e-06
7.85861e-05
4.9869e-05
6.22879e-07
4.92367e-05
1.51848e-06
7.76791e-05
0.000104597
2.63218e-06
-2.82692e-06
0.00010266
4.75459e-06
-1.20968e-06
7.60541e-05
4.80204e-05
6.21926e-07
4.73947e-05
1.47366e-06
7.51979e-05
0.00010161
2.51851e-06
-2.72315e-06
9.97803e-05
4.55163e-06
-1.17879e-06
7.36526e-05
4.6215e-05
5.88335e-07
4.56287e-05
1.36858e-06
7.28748e-05
9.88412e-05
2.31063e-06
-2.56338e-06
9.71508e-05
4.26131e-06
-1.11806e-06
7.14358e-05
4.45157e-05
5.27054e-07
4.39968e-05
1.2084e-06
7.0764e-05
9.63575e-05
2.01314e-06
-2.36424e-06
9.48353e-05
3.90219e-06
-1.03928e-06
6.94522e-05
4.29686e-05
4.53691e-07
4.25287e-05
1.0178e-06
6.89046e-05
9.42165e-05
1.65618e-06
-2.15626e-06
9.2883e-05
3.5136e-06
-9.60132e-07
6.77284e-05
4.1585e-05
3.87834e-07
4.12167e-05
8.24859e-07
6.73137e-05
9.24605e-05
1.274e-06
-1.93885e-06
9.1344e-05
3.08579e-06
-8.88129e-07
6.62889e-05
4.03508e-05
3.17815e-07
4.0058e-05
5.96075e-07
6.60405e-05
9.11616e-05
8.13221e-07
-1.58382e-06
9.03192e-05
2.46699e-06
-7.53145e-07
6.5244e-05
3.93325e-05
5.94706e-08
3.92992e-05
5.03271e-08
6.52902e-05
9.04431e-05
-2.86793e-08
-7.65814e-07
8.98882e-05
1.36857e-06
-2.54585e-07
6.48164e-05
3.90685e-05
-6.14732e-07
3.97114e-05
-9.64175e-07
6.52048e-05
9.02672e-05
-1.29289e-06
1.94663e-07
8.99707e-05
1.55646e-07
3.52698e-07
6.50895e-05
4.00967e-05
-1.067e-06
4.11996e-05
-1.79766e-06
6.58662e-05
9.06578e-05
-2.4269e-06
8.04178e-07
9.06658e-05
-7.51218e-07
6.06428e-07
6.61127e-05
4.18447e-05
-1.21661e-06
4.31034e-05
-2.25452e-06
6.7203e-05
9.16583e-05
-3.18188e-06
1.10216e-06
9.19212e-05
-1.29568e-06
6.70635e-07
6.76907e-05
4.38196e-05
-1.25257e-06
4.51209e-05
-2.47155e-06
6.89696e-05
9.3132e-05
-3.60873e-06
1.20081e-06
9.35569e-05
-1.54931e-06
6.57626e-07
6.95753e-05
4.58296e-05
-1.22832e-06
4.71116e-05
-2.52246e-06
7.09352e-05
9.48942e-05
-3.77969e-06
1.16204e-06
9.53987e-05
-1.58389e-06
5.95865e-07
7.15691e-05
4.7763e-05
-1.16218e-06
4.89831e-05
-2.45856e-06
7.29363e-05
9.67897e-05
-3.76332e-06
1.03357e-06
9.73112e-05
-1.46608e-06
5.02871e-07
7.35401e-05
4.95456e-05
-1.07105e-06
5.06782e-05
-2.32292e-06
7.48674e-05
9.87014e-05
-3.6215e-06
8.52756e-07
9.91937e-05
-1.25082e-06
3.93532e-07
7.54038e-05
5.11344e-05
-9.67093e-07
5.2166e-05
-2.14529e-06
7.66613e-05
0.000100544
-3.39883e-06
6.44928e-07
0.000100976
-9.7838e-07
2.78254e-07
7.71087e-05
5.25097e-05
-8.58103e-07
5.34349e-05
-1.94515e-06
7.82783e-05
0.000102258
-3.12687e-06
4.26061e-07
0.00010261
-6.76481e-07
1.62433e-07
7.86252e-05
5.36651e-05
-7.48842e-07
5.44832e-05
-1.73666e-06
7.96981e-05
0.000103806
-2.82965e-06
2.07616e-07
0.00010407
-3.66412e-07
5.11977e-08
7.99406e-05
5.46045e-05
-6.47121e-07
5.53234e-05
-1.53131e-06
8.09127e-05
0.000105171
-2.52515e-06
-5.09513e-10
0.000105347
-6.71448e-08
-4.97423e-08
8.10507e-05
5.53461e-05
-5.54294e-07
5.5974e-05
-1.34024e-06
8.19269e-05
0.000106353
-2.23683e-06
-1.9181e-07
0.000106432
2.23408e-07
-1.42933e-07
8.19688e-05
5.59052e-05
-4.68499e-07
5.64485e-05
-1.16242e-06
8.27545e-05
0.000107351
-1.97e-06
-3.65725e-07
0.000107342
4.86818e-07
-2.27229e-07
8.27077e-05
5.6296e-05
-3.91404e-07
5.67624e-05
-1.00377e-06
8.34123e-05
0.000108179
-1.72885e-06
-5.17758e-07
0.000108091
7.17839e-07
-3.00506e-07
8.3287e-05
5.65365e-05
-3.25019e-07
5.69363e-05
-8.67321e-07
8.39216e-05
0.000108857
-1.52028e-06
-6.44943e-07
0.000108702
9.1196e-07
-3.61187e-07
8.37296e-05
5.6649e-05
-2.71051e-07
5.69936e-05
-7.55257e-07
8.43053e-05
0.000109407
-1.3486e-06
-7.471e-07
0.000109198
1.06728e-06
-4.11504e-07
8.40601e-05
5.66546e-05
-2.25893e-07
5.6952e-05
-6.66951e-07
8.45908e-05
0.000109857
-1.21558e-06
-8.23396e-07
0.000109607
1.18174e-06
-4.51089e-07
8.43064e-05
5.65708e-05
-1.89129e-07
5.68286e-05
-6.042e-07
8.48083e-05
0.000110234
-1.12393e-06
-8.71755e-07
0.000109958
1.25357e-06
-4.77552e-07
8.44991e-05
5.64183e-05
-1.70445e-07
5.66548e-05
-5.71435e-07
8.49839e-05
0.000110566
-1.075e-06
-8.89822e-07
0.000110275
1.28245e-06
-4.8602e-07
8.46621e-05
5.62336e-05
-1.68039e-07
5.64654e-05
-5.67694e-07
8.51423e-05
0.000110875
-1.06789e-06
-8.79823e-07
0.000110583
1.27047e-06
-4.78863e-07
8.48201e-05
5.6049e-05
-1.80138e-07
5.62905e-05
-5.90373e-07
8.53073e-05
0.000111188
-1.09915e-06
-8.471e-07
0.000110903
1.22501e-06
-4.59424e-07
8.4995e-05
5.58914e-05
-2.02276e-07
5.6153e-05
-6.32377e-07
8.54987e-05
0.000111522
-1.15925e-06
-7.99988e-07
0.000111254
1.1566e-06
-4.33391e-07
8.52041e-05
5.57779e-05
-2.28797e-07
5.60636e-05
-6.85049e-07
8.57302e-05
0.000111893
-1.23704e-06
-7.46887e-07
0.000111646
1.07723e-06
-4.05585e-07
8.54571e-05
5.57136e-05
-2.56039e-07
5.60239e-05
-7.41398e-07
8.60085e-05
0.000112309
-1.32235e-06
-6.92173e-07
0.000112087
9.9267e-07
-3.78689e-07
8.57592e-05
5.5698e-05
-2.81776e-07
5.60311e-05
-7.99112e-07
8.63384e-05
0.000112777
-1.4131e-06
-6.38536e-07
0.000112583
9.0601e-07
-3.55415e-07
8.61159e-05
5.57259e-05
-3.02398e-07
5.60772e-05
-8.53723e-07
8.67259e-05
0.000113305
-1.50425e-06
-5.9155e-07
0.000113142
8.23074e-07
-3.39495e-07
8.65305e-05
5.57848e-05
-3.15378e-07
5.61451e-05
-9.00739e-07
8.71696e-05
0.000113897
-1.59096e-06
-5.53177e-07
0.000113766
7.46901e-07
-3.31284e-07
8.7e-05
5.58573e-05
-3.21915e-07
5.62209e-05
-9.4093e-07
8.76688e-05
0.000114558
-1.67261e-06
-5.20302e-07
0.00011446
6.75863e-07
-3.27862e-07
8.75239e-05
5.59326e-05
-3.26016e-07
5.62955e-05
-9.78223e-07
8.82202e-05
0.000115287
-1.75143e-06
-4.8909e-07
0.000115217
6.08544e-07
-3.2382e-07
8.80962e-05
5.60064e-05
-3.34944e-07
5.63731e-05
-1.01683e-06
8.88153e-05
0.000116075
-1.82916e-06
-4.55003e-07
0.000116026
5.42082e-07
-3.13462e-07
8.87056e-05
5.60874e-05
-3.50864e-07
5.64605e-05
-1.06086e-06
8.94401e-05
0.000116908
-1.91252e-06
-4.14744e-07
0.00011688
4.61885e-07
-2.9391e-07
8.93357e-05
5.61826e-05
-3.83857e-07
5.6576e-05
-1.13356e-06
9.00929e-05
0.000118197
-2.44156e-06
8.58393e-08
0.000117817
2.95581e-07
-2.02747e-07
9.03836e-05
5.6379e-05
-8.40627e-07
5.72254e-05
-1.69455e-06
9.12383e-05
0.00011962
-3.49833e-06
7.78996e-07
0.000120143
-1.29974e-06
3.2414e-07
9.16984e-05
5.75599e-05
-1.59283e-06
5.91671e-05
-4.16169e-06
9.42775e-05
0.000122582
-6.59171e-06
5.58906e-06
0.000126265
-9.25944e-06
2.80086e-06
9.7081e-05
6.19883e-05
-7.23205e-06
6.92378e-05
-1.6065e-05
0.000105929
0.000136967
-2.67547e-05
3.3618e-05
0.00015961
-5.62604e-05
1.52651e-05
0.000124286
8.45155e-05
2.79107e-05
6.9663e-05
0.000123312
2.90561e-05
-0.000218315
-4.49556e-05
-0.00024601
-4.89652e-05
-0.000385479
-2.14158e-05
-0.000416115
-1.52158e-05
-0.000438762
-5.25813e-06
-0.000453447
-4.88672e-06
-0.000459723
-2.78245e-06
-0.0004692
-3.2288e-06
-0.000472716
-1.53124e-06
-0.000479527
-9.44338e-07
-0.00048005
2.26761e-06
-0.000480585
6.33016e-06
-0.000475933
1.64777e-05
-0.000468301
3.10081e-05
-0.000458158
7.1276e-05
-0.000456625
0.000160763
-0.000465668
7.23569e-05
-0.000287592
4.11681e-05
-0.000285314
2.28444e-05
-0.000277302
2.28614e-05
-0.000235546
6.51788e-06
-0.000199569
3.60351e-06
-6.8214e-05
1.42516e-06
-4.4343e-05
-2.18884e-05
-1.76266e-06
-2.01303e-05
-4.75823e-06
-4.13525e-05
-6.38869e-05
-9.09048e-06
3.21088e-06
-6.12983e-05
-5.80494e-06
1.07925e-06
-3.9226e-05
-1.90555e-05
-7.02005e-07
-1.83588e-05
-1.28003e-06
-3.86538e-05
-5.98155e-05
-2.76884e-06
4.26628e-07
-5.93621e-05
-8.86279e-07
7.55255e-08
-3.83087e-05
-1.82885e-05
-2.62604e-07
-1.80317e-05
-2.83659e-07
-3.82941e-05
-5.89636e-05
-6.88769e-07
2.51072e-07
-5.94406e-05
2.19319e-07
-1.86285e-08
-3.80309e-05
-1.80562e-05
6.5905e-08
-1.8128e-05
1.46629e-07
-3.81181e-05
-5.95715e-05
2.70973e-07
-1.75417e-07
-5.9718e-05
3.15496e-07
-6.70691e-08
-3.82328e-05
-1.82009e-05
7.0357e-08
-1.8277e-05
1.82338e-07
-3.83508e-05
-5.98641e-05
3.22436e-07
-1.97988e-07
-6.00216e-05
3.49843e-07
-7.75275e-08
-3.8477e-05
-1.836e-05
7.43796e-08
-1.84395e-05
1.9102e-07
-3.85989e-05
-6.01697e-05
3.34336e-07
-1.97032e-07
-6.03221e-05
3.45534e-07
-7.76257e-08
-3.87228e-05
-1.85217e-05
7.55233e-08
-1.86012e-05
1.91215e-07
-3.8842e-05
-6.04642e-05
3.30576e-07
-1.99963e-07
-6.06123e-05
3.46779e-07
-8.00907e-08
-3.89644e-05
-1.86843e-05
7.67664e-08
-1.87634e-05
1.93413e-07
-3.90824e-05
-6.07499e-05
3.31251e-07
-1.94874e-07
-6.0888e-05
3.34841e-07
-7.82137e-08
-3.91991e-05
-1.88428e-05
7.56457e-08
-1.89188e-05
1.88041e-07
-3.93103e-05
-6.1016e-05
3.19662e-07
-1.94877e-07
-6.11478e-05
3.31995e-07
-7.94752e-08
-3.94231e-05
-1.89975e-05
7.53656e-08
-1.90712e-05
1.86803e-07
-3.95307e-05
-6.12692e-05
3.15125e-07
-1.87045e-07
-6.13904e-05
3.16651e-07
-7.64021e-08
-3.96364e-05
-1.9145e-05
7.33452e-08
-1.9215e-05
1.79954e-07
-3.97369e-05
-6.15014e-05
3.00691e-07
-1.85805e-07
-6.16165e-05
3.11887e-07
-7.67861e-08
-3.98389e-05
-1.92876e-05
7.26343e-08
-1.93555e-05
1.77388e-07
-3.99358e-05
-6.1722e-05
2.94902e-07
-1.76976e-07
-6.18275e-05
2.95366e-07
-7.3399e-08
-4.00308e-05
-1.94234e-05
7.04426e-08
-1.94879e-05
1.70049e-07
-4.0121e-05
-6.19234e-05
2.79811e-07
-1.75766e-07
-6.20239e-05
2.90841e-07
-7.38605e-08
-4.0213e-05
-1.95553e-05
6.98619e-08
-1.96182e-05
1.67543e-07
-4.03001e-05
-6.21153e-05
2.74194e-07
-1.67271e-07
-6.22068e-05
2.74822e-07
-7.07439e-08
-4.03854e-05
-1.96815e-05
6.80481e-08
-1.97416e-05
1.60793e-07
-4.04664e-05
-6.22893e-05
2.59994e-07
-1.6657e-07
-6.23767e-05
2.71184e-07
-7.14919e-08
-4.05492e-05
-1.98046e-05
6.76577e-08
-1.98634e-05
1.58738e-07
-4.06274e-05
-6.24553e-05
2.55288e-07
-1.58504e-07
-6.25342e-05
2.56021e-07
-6.85307e-08
-4.07039e-05
-1.99225e-05
6.5907e-08
-1.99785e-05
1.52346e-07
-4.07763e-05
-6.26046e-05
2.4204e-07
-1.58158e-07
-6.268e-05
2.5326e-07
-6.93323e-08
-4.08507e-05
-2.00375e-05
6.58313e-08
-2.00926e-05
1.51044e-07
-4.09209e-05
-6.27475e-05
2.38821e-07
-1.50891e-07
-6.28152e-05
2.39373e-07
-6.6147e-08
-4.09903e-05
-2.01476e-05
6.45242e-08
-2.02006e-05
1.45501e-07
-4.10554e-05
-6.28764e-05
2.27917e-07
-1.51905e-07
-6.29425e-05
2.39658e-07
-6.81075e-08
-4.11231e-05
-2.02568e-05
6.49162e-08
-2.03095e-05
1.45736e-07
-4.11874e-05
-6.30016e-05
2.26814e-07
-1.46243e-07
-6.30613e-05
2.2837e-07
-6.54951e-08
-4.12512e-05
-2.03624e-05
6.43547e-08
-2.04139e-05
1.41874e-07
-4.13115e-05
-6.31152e-05
2.18618e-07
-1.49111e-07
-6.31746e-05
2.31513e-07
-6.8361e-08
-4.13748e-05
-2.04691e-05
6.56184e-08
-2.05213e-05
1.4397e-07
-4.14353e-05
-6.32275e-05
2.20306e-07
-1.45095e-07
-6.32813e-05
2.22674e-07
-6.65062e-08
-4.14959e-05
-2.05741e-05
6.57466e-08
-2.06259e-05
1.41522e-07
-4.15533e-05
-6.33299e-05
2.14159e-07
-1.49149e-07
-6.33841e-05
2.27557e-07
-6.99355e-08
-4.1614e-05
-2.06818e-05
6.74015e-08
-2.07349e-05
1.44493e-07
-4.16724e-05
-6.34323e-05
2.17215e-07
-1.45581e-07
-6.34815e-05
2.19603e-07
-6.82275e-08
-4.17308e-05
-2.07886e-05
6.74115e-08
-2.08414e-05
1.42046e-07
-4.17863e-05
-6.35257e-05
2.11453e-07
-1.49295e-07
-6.35757e-05
2.24585e-07
-7.13032e-08
-4.18449e-05
-2.08978e-05
6.84831e-08
-2.09513e-05
1.44388e-07
-4.19012e-05
-6.362e-05
2.14442e-07
-1.44802e-07
-6.36656e-05
2.16352e-07
-6.87629e-08
-4.19575e-05
-2.10049e-05
6.74183e-08
-2.1057e-05
1.40733e-07
-4.20107e-05
-6.37066e-05
2.08129e-07
-1.47209e-07
-6.37537e-05
2.20747e-07
-7.06403e-08
-4.2067e-05
-2.11121e-05
6.7305e-08
-2.11637e-05
1.41847e-07
-4.21211e-05
-6.37957e-05
2.10732e-07
-1.41606e-07
-6.38392e-05
2.123e-07
-6.69484e-08
-4.2175e-05
-2.12148e-05
6.50885e-08
-2.12639e-05
1.37147e-07
-4.22261e-05
-6.38788e-05
2.04247e-07
-1.43089e-07
-6.39247e-05
2.16653e-07
-6.77284e-08
-4.22804e-05
-2.13154e-05
6.40207e-08
-2.13632e-05
1.37602e-07
-4.23327e-05
-6.39664e-05
2.07184e-07
-1.37113e-07
-6.40101e-05
2.09019e-07
-6.31882e-08
-4.23851e-05
-2.14099e-05
6.09783e-08
-2.14544e-05
1.32587e-07
-4.2435e-05
-6.40506e-05
2.01595e-07
-1.38434e-07
-6.40981e-05
2.14467e-07
-6.31687e-08
-4.24885e-05
-2.15008e-05
5.9106e-08
-2.15432e-05
1.3295e-07
-4.25404e-05
-6.41421e-05
2.05823e-07
-1.32693e-07
-6.41895e-05
2.09063e-07
-5.84798e-08
-4.25925e-05
-2.15847e-05
5.55101e-08
-2.16233e-05
1.28689e-07
-4.26434e-05
-6.42338e-05
2.02272e-07
-1.34593e-07
-6.42863e-05
2.16424e-07
-5.73399e-08
-4.26983e-05
-2.16635e-05
5.3358e-08
-2.16997e-05
1.29907e-07
-4.27524e-05
-6.43368e-05
2.09877e-07
-1.30381e-07
-6.43915e-05
2.14829e-07
-5.26368e-08
-4.28075e-05
-2.1735e-05
4.97136e-08
-2.17674e-05
1.27447e-07
-4.28625e-05
-6.44448e-05
2.10632e-07
-1.34072e-07
-6.45071e-05
2.26346e-07
-5.143e-08
-4.29223e-05
-2.18014e-05
4.78201e-08
-2.18317e-05
1.311e-07
-4.29827e-05
-6.45692e-05
2.23363e-07
-1.32767e-07
-6.46366e-05
2.30569e-07
-4.66142e-08
-4.30457e-05
-2.18607e-05
4.45124e-08
-2.18876e-05
1.31642e-07
-4.31097e-05
-6.47057e-05
2.31174e-07
-1.39653e-07
-6.47849e-05
2.49356e-07
-4.63699e-08
-4.31797e-05
-2.19162e-05
4.36161e-08
-2.1942e-05
1.39566e-07
-4.32524e-05
-6.48663e-05
2.51715e-07
-1.4453e-07
-6.49556e-05
2.64549e-07
-4.3602e-08
-4.33299e-05
-2.19678e-05
4.35464e-08
-2.19934e-05
1.48053e-07
-4.34109e-05
-6.50493e-05
2.72722e-07
-1.6091e-07
-6.51556e-05
2.98037e-07
-4.76373e-08
-4.35006e-05
-2.20231e-05
4.86717e-08
-2.20538e-05
1.6835e-07
-4.35967e-05
-6.52675e-05
3.11317e-07
-1.82694e-07
-6.53908e-05
3.37017e-07
-5.42658e-08
-4.37015e-05
-2.20901e-05
6.03776e-08
-2.21324e-05
1.98047e-07
-4.38155e-05
-6.55222e-05
3.6067e-07
-2.23743e-07
-6.56692e-05
4.01851e-07
-7.23969e-08
-4.39432e-05
-2.21868e-05
8.40283e-08
-2.22528e-05
2.4865e-07
-4.40841e-05
-6.58267e-05
4.37356e-07
-2.83041e-07
-6.60003e-05
4.87856e-07
-1.01421e-07
-4.4242e-05
-2.23361e-05
1.21533e-07
-2.24396e-05
3.21051e-07
-4.44178e-05
-6.61891e-05
5.41103e-07
-3.71872e-07
-6.63964e-05
6.10268e-07
-1.4878e-07
-4.46171e-05
-2.25703e-05
1.79045e-07
-2.27313e-05
4.26683e-07
-4.48411e-05
-6.66226e-05
6.84022e-07
-4.95984e-07
-6.68734e-05
7.77881e-07
-2.17679e-07
-4.50957e-05
-2.29309e-05
2.63642e-07
-2.31765e-05
5.77103e-07
-4.53855e-05
-6.71494e-05
8.84215e-07
-6.8079e-07
-6.74599e-05
1.02218e-06
-3.22591e-07
-4.57201e-05
-2.3481e-05
3.91592e-07
-2.38546e-05
7.99949e-07
-4.61049e-05
-6.78065e-05
1.17745e-06
-9.46888e-07
-6.8216e-05
1.38709e-06
-4.74035e-07
-4.65544e-05
-2.43108e-05
6.72899e-07
-2.49659e-05
1.27888e-06
-4.7137e-05
-6.82508e-05
1.34432e-06
-1.2531e-06
-6.86322e-05
1.66485e-06
-7.6344e-07
-4.76034e-05
-2.57114e-05
6.13604e-07
-2.63071e-05
1.15316e-06
-4.81198e-05
-6.90301e-05
1.58124e-06
-1.03116e-06
-7.02073e-05
2.23861e-06
-2.5956e-07
-4.88682e-05
-2.6549e-05
1.05449e-06
-2.75858e-05
1.38299e-06
-4.91736e-05
-7.0825e-05
2.03116e-06
-1.6538e-06
-7.14298e-05
2.28902e-06
-5.09702e-07
-5.02945e-05
-2.80777e-05
7.8338e-07
-2.88433e-05
1.4273e-06
-5.09151e-05
-7.24345e-05
2.46234e-06
-1.97304e-06
-7.29673e-05
2.53627e-06
-8.78287e-07
-5.19865e-05
-2.97037e-05
9.43933e-07
-3.06299e-05
1.64686e-06
-5.26661e-05
-7.43934e-05
3.10336e-06
-2.23725e-06
-7.53371e-05
3.21118e-06
-1.18158e-06
-5.36986e-05
-3.17938e-05
1.15883e-06
-3.29349e-05
2.19987e-06
-5.47167e-05
-7.62038e-05
3.09665e-06
-2.17312e-06
-7.76418e-05
3.64065e-06
-9.84135e-07
-5.58832e-05
-3.39019e-05
9.30691e-07
-3.48154e-05
2.41252e-06
-5.73423e-05
-7.90931e-05
3.89354e-06
-3.59344e-06
-8.15192e-05
6.05013e-06
-2.03122e-06
-5.88818e-05
-3.68299e-05
2.05964e-06
-3.88717e-05
5.25291e-06
-6.20497e-05
-8.4849e-05
8.61922e-06
5.53481e-05
-4.1179e-05
-9.89993e-05
2.2019e-05
-2.87053e-05
-1.68404e-05
3.18884e-06
-2.00196e-05
1.16149e-05
-3.71199e-05
-5.38984e-05
2.43477e-05
-6.92926e-06
-5.96862e-05
1.27372e-05
-2.39407e-06
-4.164e-05
-2.24022e-05
8.51373e-07
-2.3241e-05
1.93538e-06
-4.27074e-05
-6.07197e-05
2.99061e-06
-1.77789e-07
-6.08157e-05
2.95648e-07
-3.0835e-07
-4.25603e-05
-2.35368e-05
1.25301e-06
-2.47769e-05
2.73567e-06
-4.4026e-05
-6.21927e-05
4.13482e-06
-2.06164e-06
-6.31877e-05
3.07901e-06
-1.01181e-06
-4.50587e-05
-2.57757e-05
1.8445e-06
-2.76071e-05
3.59195e-06
-4.67889e-05
-6.51509e-05
5.57766e-06
-2.34581e-06
-6.68429e-05
4.06046e-06
-1.33023e-06
-4.77871e-05
-2.89239e-05
2.0021e-06
-3.09129e-05
4.14791e-06
-4.99157e-05
-6.8918e-05
6.24563e-06
-3.71534e-06
-7.11327e-05
5.95302e-06
-1.73463e-06
-5.18788e-05
-3.26342e-05
2.28315e-06
-3.49041e-05
5.33608e-06
-5.4914e-05
-7.52438e-05
9.47098e-06
-7.88628e-06
-8.08567e-05
1.35286e-05
-3.52422e-06
-5.92557e-05
-3.8414e-05
-2.07187e-05
-1.76853e-05
-5.11999e-05
-2.87621e-05
-4.02713e-05
-9.17699e-05
-1.37834e-05
-5.34624e-05
2.69855e-05
-4.96034e-06
-3.75757e-05
-2.26377e-05
3.66339e-06
-2.62915e-05
1.00102e-05
-4.39099e-05
-6.04771e-05
1.70416e-05
-6.06567e-06
-6.57386e-05
1.13457e-05
-3.01048e-06
-4.69511e-05
-2.92914e-05
2.10016e-06
-3.13805e-05
5.30696e-06
-5.01433e-05
-6.88054e-05
8.39321e-06
-4.52322e-06
-7.16635e-05
7.40097e-06
-2.043e-06
-5.26086e-05
-3.34123e-05
2.22222e-06
-3.56228e-05
4.72011e-06
-5.50911e-05
-7.46204e-05
7.69712e-06
-5.73837e-06
-7.87531e-05
9.89218e-06
-2.44842e-06
-5.83653e-05
-3.80596e-05
2.60442e-06
-4.06517e-05
5.65742e-06
-6.14006e-05
-8.23533e-05
9.28298e-06
5.32131e-05
-4.08299e-05
-9.47235e-05
2.16187e-05
-2.97956e-05
-1.90244e-05
5.14928e-06
-2.41671e-05
1.41123e-05
-3.87507e-05
-5.37432e-05
2.70346e-05
-9.32737e-06
-6.12623e-05
1.68602e-05
-3.59465e-06
-4.44731e-05
-2.7754e-05
2.26244e-06
-3.0008e-05
4.86654e-06
-4.70661e-05
-6.38819e-05
7.50094e-06
-3.09381e-06
-6.53435e-05
4.5704e-06
-1.47107e-06
-4.86774e-05
-3.14706e-05
2.58201e-06
-3.4044e-05
5.25822e-06
-5.1342e-05
-6.97889e-05
9.71926e-06
-7.43511e-06
-7.44577e-05
1.21231e-05
-3.45326e-06
-5.53107e-05
-3.7488e-05
-1.93656e-05
-1.81159e-05
-4.71888e-05
-2.74795e-05
-3.75394e-05
-8.40973e-05
-1.46848e-05
-4.99288e-05
2.70812e-05
-5.26513e-06
-3.68931e-05
-2.3376e-05
4.91627e-06
-2.82862e-05
1.10881e-05
-4.3057e-05
-5.78137e-05
1.89836e-05
-7.67528e-06
-6.4301e-05
1.41746e-05
-3.3123e-06
-4.7411e-05
-3.15918e-05
3.57287e-06
-3.51576e-05
7.43398e-06
-5.12626e-05
-6.93654e-05
1.25113e-05
-5.80465e-06
-7.24556e-05
8.91046e-06
-2.60731e-06
-5.44492e-05
-3.77573e-05
-1.98471e-05
-1.7905e-05
-4.71839e-05
-2.71059e-05
-3.63398e-05
-8.32918e-05
-1.37804e-05
-4.76858e-05
2.51319e-05
-5.50208e-06
-3.53794e-05
-2.34031e-05
4.05521e-06
-2.74535e-05
9.30343e-06
-4.06212e-05
-5.46302e-05
1.62563e-05
-6.82254e-06
-5.92052e-05
1.14071e-05
-3.05756e-06
-4.43791e-05
-3.05058e-05
3.46829e-06
-3.39684e-05
7.72667e-06
-4.86292e-05
-6.39328e-05
1.24664e-05
4.13709e-05
-3.2716e-05
-7.25813e-05
1.72997e-05
-2.45528e-05
-1.66646e-05
5.46786e-06
-2.21293e-05
1.37519e-05
-3.2833e-05
-4.34435e-05
2.44838e-05
-1.08862e-05
-5.19658e-05
1.94157e-05
-4.95732e-06
-3.87565e-05
-2.70826e-05
3.87175e-06
-3.09497e-05
8.83859e-06
-4.37171e-05
-5.78741e-05
1.47555e-05
-4.81532e-06
-6.02218e-05
7.17385e-06
-2.68294e-06
-4.58421e-05
-3.36276e-05
-1.71225e-05
-1.65013e-05
-3.96873e-05
-2.32727e-05
-3.07005e-05
-6.92026e-05
-1.30105e-05
-4.06116e-05
2.29259e-05
-5.17946e-06
-3.11002e-05
-2.16778e-05
4.45284e-06
-2.61267e-05
8.71472e-06
-3.53563e-05
-4.58956e-05
1.40072e-05
3.08242e-05
-2.34326e-05
-5.32822e-05
1.31094e-05
-1.76375e-05
-1.30141e-05
4.17936e-06
-1.71909e-05
1.04952e-05
-2.39501e-05
-3.17483e-05
1.88148e-05
-6.67331e-06
-3.43481e-05
9.28169e-06
-3.56601e-06
-2.70516e-05
-2.07529e-05
-1.12807e-05
-9.46873e-06
-2.59145e-05
-1.24132e-05
-1.57282e-05
-4.45284e-05
-2.52833e-06
-1.68646e-05
3.67066e-06
-1.47456e-06
-1.34625e-05
-1.09398e-05
-8.13306e-06
-2.803e-06
-1.80984e-05
-3.49238e-06
-4.40548e-06
-3.05513e-05
1.45194e-05
2.94222e-06
-2.18601e-05
7.00086e-06
4.03147e-06
4.20194e-06
-1.23858e-05
1.65934e-05
-2.92072e-05
2.08608e-05
2.58046e-05
-5.20581e-05
1.8951e-05
3.93655e-05
-3.25018e-05
8.63347e-06
3.11859e-05
2.52326e-05
-9.16969e-06
3.44091e-05
-2.02744e-05
4.22993e-05
5.3668e-05
-3.45656e-05
2.50036e-05
7.26666e-05
-4.39877e-05
1.0234e-05
5.70794e-05
4.4651e-05
-1.22069e-05
5.68683e-05
-3.02067e-05
7.50943e-05
9.67189e-05
-5.42366e-05
-5.44325e-05
5.87264e-05
9.24406e-05
-2.36701e-05
4.43438e-05
3.32075e-05
-1.89839e-05
5.22002e-05
-4.34594e-05
6.88306e-05
9.05121e-05
-7.523e-05
-4.27403e-05
6.06386e-05
7.26293e-05
-1.93827e-05
4.54847e-05
3.28265e-05
-2.36876e-05
5.65238e-05
-5.51875e-05
7.69974e-05
0.000101072
-9.5604e-05
-3.86665e-05
7.49255e-05
6.48378e-05
-1.71289e-05
5.54765e-05
3.94066e-05
1.36266e-05
2.57876e-05
3.28037e-05
3.63089e-05
4.86584e-05
5.90823e-05
4.67614e-05
8.54162e-05
-8.35053e-05
1.93331e-05
6.37481e-05
4.51294e-05
1.38658e-05
3.12733e-05
3.29414e-05
4.46853e-05
5.92374e-05
5.91367e-05
5.80079e-05
0.000105408
-0.000104159
2.38185e-05
7.88895e-05
5.51029e-05
1.38656e-05
4.12508e-05
3.30873e-05
5.96877e-05
7.98675e-05
5.86572e-05
-3.16321e-05