/*--------------------------------*- C++ -*----------------------------------*\
| =========                 |                                                 |
| \\      /  F ield         | OpenFOAM: The Open Source CFD Toolbox           |
|  \\    /   O peration     | Version:  v2006                                 |
|   \\  /    A nd           | Website:  www.openfoam.com                      |
|    \\/     M anipulation  |                                                 |
\*---------------------------------------------------------------------------*/
FoamFile
{
    version     2.0;
    format      ascii;
    class       volScalarField;
    location    "0.048";
    object      isentropic(p);
}
// * * * * * * * * * * * * * * * * * * * * * * * * * * * * * * * * * * * * * //

dimensions      [1 -1 -2 0 0 0 0];


internalField   nonuniform List<scalar> 
16277
(
150008
150014
150017
150003
150012
150010
150011
150012
150013
150013
150013
150012
150012
150011
150011
150011
150010
150010
150010
150010
150010
150010
150010
150009
150009
150009
150009
150009
150009
150009
150009
150009
150008
150008
150008
150008
150008
150008
150008
150008
150007
150007
150007
150007
150007
150007
150007
150007
150006
150006
150006
150006
150006
150006
150006
150006
150005
150005
150005
150005
150005
150005
150005
150005
150005
150004
150004
150004
150004
150004
150004
150004
150004
150004
150004
150003
150003
150003
150003
150002
150002
150001
150001
150000
150001
150003
150004
150005
150004
150006
150005
150007
150008
150011
150017
150015
149976
149936
150011
150022
150021
150002
149897
149860
149993
150018
150013
149981
149826
149796
149971
150008
150002
149959
149768
149744
149949
149997
149991
149938
149721
149703
149929
149986
149979
149919
149684
149669
149911
149975
149968
149901
149653
149640
149893
149964
149958
149884
149627
149616
149877
149953
149947
149868
149605
149595
149862
149943
149937
149854
149585
149577
149849
149934
149928
149841
149568
149561
149836
149925
149919
149829
149553
149547
149824
149916
149911
149817
149540
149534
149813
149908
149903
149807
149528
149523
149803
149901
149896
149797
149517
149513
149794
149893
149889
149788
149508
149504
149785
149887
149882
149779
149499
149496
149776
149880
149876
149771
149492
149489
149769
149874
149870
149763
149485
149483
149761
149868
149864
149756
149479
149477
149755
149863
149859
149750
149474
149473
149748
149857
149853
149744
149470
149469
149743
149852
149848
149738
149466
149465
149737
149847
149844
149733
149463
149463
149732
149843
149839
149728
149461
149461
149727
149839
149835
149724
149459
149459
149723
149835
149831
149720
149458
149458
149719
149831
149827
149716
149457
149458
149715
149827
149824
149712
149457
149458
149712
149824
149820
149709
149458
149459
149709
149820
149817
149706
149459
149460
149706
149817
149814
149704
149460
149462
149704
149814
149811
149702
149462
149464
149702
149811
149809
149700
149465
149467
149700
149809
149806
149698
149468
149470
149699
149806
149804
149697
149471
149474
149698
149804
149802
149696
149475
149478
149697
149802
149800
149695
149480
149483
149696
149801
149799
149695
149485
149488
149696
149799
149797
149695
149490
149493
149697
149798
149796
149696
149496
149499
149697
149797
149795
149696
149502
149506
149698
149796
149795
149698
149508
149512
149700
149796
149795
149700
149515
149519
149702
149796
149795
149702
149522
149526
149704
149796
149796
149704
149530
149534
149707
149797
149797
149708
149537
149542
149711
149799
149799
149711
149545
149549
149715
149801
149801
149716
149552
149557
149719
149804
149804
149721
149560
149564
149724
149807
149807
149726
149567
149571
149729
149810
149811
149731
149573
149578
149735
149814
149815
149737
149580
149584
149741
149819
149820
149743
149585
149588
149746
149823
149824
149748
149589
149591
149751
149828
149828
149753
149591
149593
149756
149832
149832
149757
149593
149594
149760
149835
149836
149760
149592
149593
149763
149839
149839
149763
149591
149591
149766
149842
149842
149765
149589
149588
149767
149844
149844
149767
149585
149584
149768
149846
149846
149767
149581
149580
149769
149848
149847
149767
149576
149574
149768
149849
149848
149767
149570
149568
149767
149850
149849
149765
149564
149563
149766
149850
149849
149764
149558
149556
149764
149850
149849
149762
149552
149550
149762
149850
149847
149760
149547
149545
149760
149848
149847
149757
149541
149539
149757
149848
149847
149754
149535
149533
149755
149847
149845
149752
149530
149529
149752
149845
149843
149749
149526
149525
149749
149843
149841
149746
149521
149520
149746
149842
149840
149743
149517
149516
149743
149840
149838
149741
149513
149512
149741
149838
149836
149738
149509
149508
149738
149836
149834
149735
149506
149505
149735
149834
149833
149732
149502
149501
149732
149833
149831
149729
149497
149498
149729
149831
149827
149727
149497
149496
149727
149828
149827
149724
149492
149491
149724
149827
149825
149722
149488
149489
149722
149824
149821
149719
149488
149487
149720
149822
149820
149716
149483
149483
149716
149821
149819
149714
149481
149480
149714
149819
149816
149712
149479
149480
149713
149817
149817
149711
149476
149478
149714
149820
149820
149716
149483
149495
149727
149832
149867
149776
149552
149516
149697
149792
149864
149922
149955
149966
149972
149984
149989
149994
149997
149999
149999
149998
149997
149993
149989
149979
149974
149967
149959
149946
149914
149842
149700
149543
149280
149256
149524
149688
149668
149507
149243
149233
149497
149660
149656
149493
149227
149228
149492
149653
149653
149491
149224
149225
149491
149653
149653
149491
149226
149227
149493
149655
149655
149493
149228
149229
149495
149657
149658
149495
149229
149231
149497
149659
149660
149498
149232
149232
149499
149661
149662
149500
149234
149234
149501
149663
149664
149503
149235
149236
149504
149665
149666
149505
149237
149238
149506
149668
149668
149507
149239
149240
149508
149670
149671
149509
149241
149242
149511
149672
149673
149512
149243
149244
149513
149674
149675
149514
149245
149246
149515
149676
149677
149516
149247
149248
149518
149679
149680
149519
149249
149250
149520
149681
149682
149521
149251
149252
149523
149684
149685
149524
149253
149254
149525
149686
149687
149526
149255
149256
149528
149688
149689
149529
149257
149258
149530
149690
149692
149531
149259
149260
149533
149693
149694
149534
149261
149262
149535
149696
149697
149536
149263
149264
149538
149698
149699
149539
149265
149265
149540
149701
149702
149542
149267
149267
149543
149703
149705
149544
149268
149269
149545
149706
149707
149547
149270
149271
149548
149709
149710
149549
149272
149273
149551
149711
149713
149552
149273
149274
149553
149714
149716
149554
149275
149275
149556
149717
149719
149557
149276
149277
149559
149721
149722
149560
149277
149278
149562
149724
149726
149563
149278
149278
149564
149727
149729
149566
149279
149279
149567
149731
149733
149569
149279
149279
149571
149735
149738
149573
149280
149279
149574
149740
149742
149576
149279
149280
149578
149745
149747
149580
149280
149279
149582
149750
149753
149585
149279
149279
149587
149756
149758
149590
149280
149279
149593
149762
149765
149596
149281
149281
149600
149769
149772
149603
149282
149284
149608
149776
149781
149613
149286
149287
149616
149784
149788
149622
149291
149294
149628
149794
149798
149634
149299
149303
149640
149802
149807
149647
149309
149316
149656
149814
149820
149667
149328
149337
149679
149827
149835
149691
149351
149367
149699
149842
149849
149713
149383
149400
149724
149857
149863
149734
149418
149437
149745
149869
149876
149756
149459
149479
149768
149881
149885
149777
149496
149518
149786
149889
149894
149795
149539
149566
149814
149902
149906
149825
149579
149315
149643
149788
149876
149732
149398
149411
149751
149889
149895
149760
149427
149453
149766
149891
149903
149782
149479
149509
149794
149906
149924
149819
149546
149568
149828
149929
149936
149844
149602
149624
149853
149940
149955
149874
149657
149686
149887
149954
149848
149747
149484
149585
149834
149929
149939
149851
149610
149625
149871
149966
149972
149893
149666
149683
149899
149977
149985
149914
149710
149747
149934
149993
150001
149947
149753
149606
149823
149944
150001
149906
149665
149697
149922
150001
150000
149936
149736
149757
149944
150011
150022
149964
149790
149826
149976
150021
149932
149885
149691
149773
149943
150001
150020
149971
149815
149830
149986
150041
150054
150009
149865
149890
150013
150049
149989
149945
149765
149861
150008
150060
150066
150023
149885
149918
150039
150076
150077
150051
149953
149860
149998
150018
150094
150058
149957
149976
150072
150102
150116
150095
150016
150036
150100
150111
150104
150081
149998
150064
150123
150138
150140
150139
150089
150091
150123
150166
150180
150183
150151
150183
150194
150179
150210
150215
150198
150275
150251
150217
150180
150222
150233
150277
150228
150187
150215
150260
150311
150293
150272
150233
150187
150213
150180
150035
150104
150103
150006
149952
149842
149888
149966
149977
149922
149868
149742
149803
149909
149933
149919
149854
149720
149630
149810
149832
149880
149818
149680
149624
149785
149844
149896
149851
149694
149657
149817
149876
149824
149754
149587
149664
149831
149875
149867
149806
149633
149557
149740
149822
149873
149811
149627
149599
149771
149848
149778
149711
149532
149635
149815
149868
149850
149779
149597
149514
149704
149788
149867
149815
149638
149598
149778
149848
149785
149703
149515
149632
149812
149860
149851
149786
149603
149511
149705
149801
149863
149810
149628
149596
149777
149846
149799
149704
149507
149634
149817
149867
149856
149786
149597
149572
149741
149810
149684
149668
149492
149603
149787
149846
149826
149760
149559
149473
149647
149780
149850
149800
149595
149556
149746
149822
149735
149681
149442
149583
149778
149838
149804
149742
149550
149457
149632
149748
149849
149794
149585
149561
149757
149821
149773
149643
149472
149591
149799
149850
149834
149753
149551
149441
149683
149749
149852
149787
149587
149557
149751
149827
149739
149683
149445
149585
149776
149837
149801
149723
149543
149466
149654
149666
149850
149787
149595
149517
149728
149806
149877
149825
149625
149597
149791
149859
149786
149703
149511
149624
149818
149875
149860
149786
149590
149518
149712
149796
149876
149825
149630
149597
149796
149867
149813
149711
149505
149623
149826
149879
149870
149799
149590
149512
149717
149812
149886
149831
149629
149580
149791
149888
149783
149716
149454
149599
149807
149879
149820
149736
149520
149625
149838
149891
149875
149806
149606
149521
149724
149813
149888
149836
149633
149584
149786
149867
149771
149720
149469
149610
149820
149884
149823
149741
149523
149647
149851
149904
149892
149820
149621
149524
149728
149820
149900
149845
149642
149598
149799
149882
149785
149732
149475
149611
149825
149891
149831
149746
149523
149653
149859
149910
149897
149824
149619
149521
149732
149822
149899
149843
149632
149595
149799
149860
149818
149656
149496
149595
149845
149895
149839
149751
149521
149640
149857
149911
149895
149813
149604
149482
149735
149797
149902
149836
149615
149528
149758
149843
149910
149854
149633
149592
149813
149890
149819
149701
149510
149605
149844
149901
149849
149761
149537
149646
149863
149920
149897
149819
149603
149520
149699
149827
149903
149852
149610
149526
149758
149849
149916
149861
149634
149593
149812
149894
149811
149734
149466
149626
149852
149916
149853
149766
149527
149637
149866
149923
149894
149822
149592
149505
149672
149837
149897
149868
149577
149507
149742
149839
149904
149847
149599
149516
149753
149844
149925
149872
149647
149606
149829
149909
149822
149714
149502
149600
149848
149906
149850
149758
149517
149618
149859
149920
149886
149809
149573
149486
149659
149833
149894
149862
149552
149479
149730
149831
149908
149854
149594
149513
149765
149856
149925
149867
149624
149577
149816
149902
149807
149733
149447
149571
149825
149904
149836
149740
149477
149590
149852
149913
149848
149754
149497
149609
149859
149921
149895
149809
149563
149482
149688
149825
149902
149854
149570
149477
149741
149842
149910
149851
149583
149495
149752
149845
149920
149861
149612
149563
149810
149897
149802
149715
149432
149561
149824
149900
149828
149726
149453
149574
149849
149912
149849
149752
149487
149607
149864
149922
149899
149804
149553
149400
149725
149789
149899
149804
149555
149424
149723
149822
149900
149838
149547
149450
149733
149833
149907
149847
149578
149525
149786
149883
149770
149701
149362
149548
149800
149897
149819
149715
149421
149539
149830
149898
149824
149720
149441
149546
149833
149898
149832
149732
149454
149575
149845
149908
149877
149790
149527
149427
149630
149804
149870
149832
149486
149397
149689
149805
149882
149812
149498
149410
149704
149812
149891
149824
149528
149434
149719
149823
149899
149837
149561
149500
149775
149872
149761
149686
149345
149497
149776
149874
149793
149684
149370
149488
149803
149875
149799
149689
149386
149506
149811
149880
149807
149697
149402
149542
149827
149891
149866
149767
149488
149324
149676
149751
149869
149757
149484
149342
149671
149782
149865
149795
149471
149351
149669
149785
149863
149792
149475
149371
149679
149791
149873
149803
149509
149448
149741
149839
149762
149561
149338
149398
149795
149830
149765
149639
149314
149443
149782
149853
149770
149649
149326
149442
149776
149852
149771
149653
149331
149451
149779
149853
149778
149666
149353
149480
149790
149860
149831
149719
149417
149227
149626
149695
149831
149695
149425
149250
149614
149732
149826
149747
149391
149275
149618
149743
149835
149759
149415
149295
149627
149751
149835
149759
149421
149313
149641
149759
149843
149771
149455
149382
149700
149811
149691
149593
149220
149382
149708
149816
149722
149596
149244
149372
149733
149815
149726
149598
149250
149374
149733
149814
149728
149602
149261
149397
149742
149820
149742
149622
149286
149423
149754
149827
149797
149680
149355
149156
149576
149656
149794
149661
149351
149184
149569
149696
149792
149707
149320
149182
149564
149698
149793
149713
149332
149198
149569
149701
149792
149710
149340
149230
149585
149712
149802
149725
149378
149309
149652
149772
149630
149530
149118
149301
149654
149772
149672
149537
149146
149281
149682
149771
149675
149537
149147
149299
149690
149773
149678
149541
149161
149304
149688
149773
149688
149555
149184
149339
149701
149781
149746
149614
149255
149039
149508
149589
149744
149588
149266
149070
149494
149632
149738
149644
149221
149083
149495
149641
149743
149652
149230
149093
149499
149644
149739
149648
149232
149108
149503
149646
149744
149654
149252
149126
149515
149655
149752
149666
149292
149217
149588
149721
149582
149403
149041
149187
149621
149706
149614
149456
149041
149193
149624
149719
149616
149465
149051
149200
149623
149717
149620
149471
149068
149210
149623
149718
149628
149486
149088
149247
149640
149727
149693
149559
149164
148967
149413
149544
149684
149557
149141
148973
149418
149575
149689
149592
149141
148979
149423
149582
149685
149589
149139
149001
149432
149585
149687
149591
149151
149016
149442
149592
149688
149593
149177
149092
149508
149652
149514
149311
148921
149061
149543
149639
149537
149363
148907
149073
149547
149654
149545
149377
148922
149095
149557
149658
149550
149386
148938
149102
149556
149657
149560
149404
148962
149145
149573
149667
149635
149486
149051
148832
149302
149461
149615
149487
149028
148827
149319
149493
149612
149497
148998
148838
149321
149496
149612
149502
149011
148860
149333
149504
149618
149512
149032
148873
149346
149512
149626
149527
149072
148982
149441
149596
149411
149229
148740
148960
149452
149575
149461
149278
148767
148964
149476
149590
149472
149293
148792
148990
149484
149589
149466
149289
148789
148981
149472
149580
149540
149374
148876
148630
149207
149349
149531
149373
148865
148659
149211
149401
149536
149413
148854
148670
149217
149409
149539
149420
148881
148699
149235
149423
149551
149441
148933
148819
149336
149515
149336
149068
148594
148775
149376
149484
149374
149165
148600
148800
149379
149500
149340
149134
148564
148783
149356
149483
149363
149164
148602
148828
149376
149499
149454
149262
148697
148439
149087
149238
149437
149258
148707
148461
149077
149290
149445
149315
148706
148496
149096
149310
149454
149321
148722
148514
149116
149324
149466
149349
148777
148653
149245
149440
149199
149005
148372
148574
149207
149377
149216
148983
148326
148595
149243
149385
149245
149018
148379
148617
149257
149399
149262
149040
148408
148666
149278
149412
149376
149160
148543
148233
148894
149125
149340
149173
148531
148281
148960
149196
149360
149214
148544
148306
148981
149209
149371
149242
148605
148497
149142
149356
149020
148801
148065
148381
149063
149247
149097
148840
148125
148406
149122
149285
149127
148873
148169
148441
149141
149297
149149
148904
148206
148488
149162
149314
149271
149044
148358
148038
148715
149014
149223
149063
148335
148083
148809
149081
149261
149110
148374
148116
148851
149104
149255
149130
148477
148205
148927
149168
148907
148609
147875
148195
148964
149140
148985
148710
147933
148225
149008
149181
149022
148752
147973
148281
149035
149202
149155
148901
148130
147787
148556
148879
149110
148921
148130
147840
148659
148955
149151
148982
148199
148042
148856
149119
148813
148479
147662
147968
148823
149018
148780
148454
147578
147904
148793
149003
148833
148523
147646
148002
148853
149045
148999
148701
147833
147441
148333
148683
148954
148739
147846
147508
148454
148783
149009
148818
147931
147730
148661
148964
148617
148242
147304
147743
148684
148901
148752
148414
147435
147780
148705
148907
148779
148440
147451
147014
148030
148447
148762
148524
147502
147151
148197
148570
148831
148610
147624
147407
148441
148789
148401
147998
146945
147413
148469
148729
148533
148150
147048
147533
148572
148794
148743
148390
147299
146814
147907
148350
148657
148432
147429
146758
147917
148330
148592
148316
147216
146989
148128
148509
148177
147687
146548
147058
148251
148524
148308
147868
146676
147213
148353
148607
148562
148166
146983
146426
147628
148108
148468
148192
147013
146607
147859
148286
148539
148345
147273
146989
148147
148496
147912
147379
146110
146723
147957
148275
148201
147766
146469
145971
147291
147851
148243
147948
146587
146127
147502
148007
148343
148065
146777
146528
147875
148305
147820
147270
145900
146623
147912
148201
148265
147842
146448
145642
147087
147695
147952
147544
146007
145682
147267
147824
147385
146724
145125
145909
147494
147876
147605
147023
145415
146205
147679
148018
147998
147496
145955
145283
146830
147463
147877
147560
146140
145989
147517
147972
147299
146637
145019
145399
147096
147561
147412
146807
145034
144478
146257
146974
147523
147101
145427
145139
146925
147516
147015
146274
144459
145455
147133
147520
147587
147012
145192
144505
146315
147011
147245
146786
145032
144280
146350
147025
146769
145987
143800
143106
145375
146258
146964
146457
144401
144040
146282
147001
146460
145547
143264
144634
146610
146988
147261
146767
144665
142963
145503
146457
145557
144472
141843
143337
145703
146340
146348
145566
142958
142495
145274
146259
145619
144555
141762
143735
145876
146441
146532
145859
143179
141247
144425
145579
144662
143389
140175
142284
144978
145700
145777
144941
141892
141482
144834
145870
145976
144919
141525
138500
142349
144116
144953
143802
140236
139966
143675
144930
144913
143537
139451
139381
143810
145153
144778
142973
137734
136393
141803
143909
142868
140544
135256
139357
143336
144419
144446
143016
138627
137385
142349
144111
143705
141921
136596
136199
141703
143487
143343
141249
135332
134898
141007
143244
143229
140856
134621
134343
140674
143206
143144
140454
134063
133808
140220
143057
142957
139987
133586
133399
139759
142849
142737
139541
133239
133101
139332
142621
142504
139135
132985
132890
138948
142384
142264
138774
132814
132755
138610
142142
142022
138458
132710
132676
138315
141900
141779
138182
132653
132638
138059
141658
141538
137945
132632
132633
137839
141418
141301
137742
132640
132653
137653
141185
141073
137572
132672
132695
137499
140962
140855
137432
132723
132753
137372
140749
140647
137318
132787
132823
137269
140547
140451
137226
132861
132901
137187
140358
140270
137153
132942
132984
137122
140184
140103
137096
133027
133070
137072
140024
139951
137051
133114
133157
137032
139880
139813
137017
133200
133243
137003
139749
139689
136991
133285
133327
136981
139632
139579
136973
133368
133408
136965
139529
139482
136959
133448
133486
136954
139437
139397
136950
133525
133561
136947
139357
139322
136945
133598
133632
136943
139288
139257
136943
133666
133698
136943
139227
139201
136944
133730
133759
136944
139175
139153
136946
133788
133815
136948
139131
139112
136951
133842
133867
136954
139093
139076
136957
133892
133915
136961
139060
139047
136965
133937
133958
136969
139033
139021
136973
133979
133998
136978
139010
139000
136983
134017
134034
136987
138990
138982
136992
134052
134067
136997
138974
138967
137002
134083
134098
137007
138960
138954
137012
134112
134126
137017
138948
138943
137022
134139
134151
137026
138938
138933
137031
134164
134175
137036
138929
138925
137040
134186
134196
137044
138921
138918
137049
134206
134215
137053
138915
138912
137057
134225
134233
137061
138909
138907
137065
134242
134249
137069
138904
138903
137073
134257
134264
137076
138900
138899
137080
134271
134278
137083
138897
138896
137087
134285
134290
137090
138894
138894
137094
134297
134302
137097
138892
138892
137101
134308
134313
137104
138891
138891
137107
134319
134323
137110
138890
138890
137114
134329
134333
137117
138889
138890
137120
134338
134342
137123
138889
138890
137127
134347
134351
137130
138889
138890
137133
134356
134360
137136
138890
138891
137140
134365
134369
137143
138891
138892
137147
134373
134377
137149
138892
138894
137153
134381
134385
137156
138894
138896
137160
134390
134393
137163
138896
138898
137167
134398
134401
137170
138898
138901
137174
134406
134409
137177
138901
138904
137181
134414
134417
137184
138904
138907
137188
134422
134425
137191
138908
138911
137195
134430
134433
137199
138912
138915
137203
134437
134441
137206
138916
138920
137210
134445
134449
137214
138920
138924
137218
134453
134457
137221
138925
138929
137226
134461
134464
137229
138930
138934
137233
134468
134472
137237
138936
138940
137241
134476
134480
137245
138941
138946
137249
134484
134487
137253
138947
138952
137257
134491
134495
137261
138953
138958
137266
134499
134503
137269
138960
138965
137274
134506
134510
137278
138966
138971
137282
134514
134517
137286
138973
138978
137290
134521
134525
137294
138980
138985
137299
134528
134532
137303
138987
138992
137307
134536
134539
137311
138994
139000
137316
134543
134546
137320
139002
139007
137324
134550
134553
137328
139009
139015
137332
134556
134560
137337
139017
139022
137341
134563
134566
137345
139024
139030
137349
134570
134573
137353
139032
139038
137358
134576
134579
137362
139040
139045
137366
134583
134586
137370
139048
139053
137374
134589
134592
137378
139055
139061
137382
134595
134598
137386
139063
139069
137391
134601
134604
137394
139071
139077
137399
134607
134610
137402
139079
139085
137407
134613
134615
137410
139087
139092
137415
134618
134621
137418
139095
139100
137423
134624
134626
137426
139103
139108
137430
134629
134631
137434
139111
139116
137438
134634
134636
137442
139119
139124
137446
134639
134641
137449
139126
139132
137453
134644
134646
137457
139134
139140
137461
134648
134650
137464
139142
139147
137468
134652
134654
137471
139149
139155
137475
134656
134658
137478
139157
139162
137482
134660
134662
137485
139164
139169
137489
134664
134665
137492
139171
139177
137495
134667
134668
137498
139179
139185
137503
134673
134675
137506
139189
139192
137511
134678
134680
137509
139189
139176
137498
134678
134670
137482
139159
139203
137503
134685
134760
137599
139355
139448
137673
134818
142056
144691
146368
146740
146890
147546
147883
148029
148173
148587
148855
149138
149349
149505
149620
149703
149762
149805
149836
149859
149877
149890
149901
149909
149916
149921
149926
149929
149931
149933
149934
149936
149936
149932
149934
149941
149946
149954
149962
149972
149983
149994
150005
150015
150021
150023
150022
150020
150017
150015
150013
150012
150010
150008
150007
150005
150002
150000
149998
149996
149994
149992
149990
149989
149988
149987
149986
149986
149986
149986
149987
149989
149991
149993
149997
150000
150005
150010
150015
150021
150027
150033
150040
150046
150052
150058
150063
150068
150072
150075
150078
150080
150081
150081
150081
150080
150079
150077
150074
150071
150068
150064
150061
150057
150053
150048
150044
150040
150036
150032
150028
150024
150020
150016
150012
150009
150006
150002
149999
149997
149994
149991
149989
149986
149984
149982
149980
149978
149977
149975
149974
149972
149971
149970
149969
149968
149967
149966
149965
149965
149964
149964
149963
149963
149962
149962
149962
149962
149962
149962
149962
149962
149962
149962
149962
149962
149962
149962
149963
149963
149963
149964
149964
149965
149965
149965
149966
149966
149967
149967
149968
149969
149969
149970
149970
149971
149972
149973
149973
149974
149975
149975
149976
149977
149978
149979
149979
149980
149981
149982
149983
149984
149985
149986
149987
149988
149989
149990
149991
149993
149994
149996
150000
150007
150012
150015
150015
150017
150004
150012
150012
150020
150026
150029
150029
150027
150026
150024
150022
150021
150020
150019
150018
150017
150016
150016
150015
150015
150014
150014
150013
150013
150012
150012
150012
150011
150011
150011
150011
150010
150010
150010
150010
150009
150009
150009
150009
150008
150008
150008
150008
150008
150007
150007
150007
150007
150006
150006
150006
150006
150006
150005
150005
150005
150005
150005
150004
150004
150004
150004
150003
150003
150003
150003
150002
150002
150002
150001
150001
150000
150000
149999
149999
149998
149997
149995
149994
149994
149995
149997
149999
150000
150004
150009
150019
150024
150024
150021
150019
150016
150013
150010
150008
150005
150003
150000
149998
149995
149993
149990
149988
149985
149983
149980
149979
149976
149975
149971
149971
149967
149966
149963
149963
149959
149959
149956
149955
149952
149952
149949
149949
149945
149945
149942
149942
149939
149939
149936
149936
149933
149934
149930
149931
149928
149928
149925
149926
149922
149923
149920
149921
149918
149918
149915
149916
149913
149913
149911
149911
149908
149909
149906
149907
149904
149905
149902
149903
149900
149901
149899
149899
149897
149898
149895
149896
149894
149895
149893
149894
149892
149893
149891
149893
149891
149893
149891
149893
149891
149894
149892
149895
149893
149896
149895
149898
149897
149900
149899
149902
149901
149905
149903
149907
149906
149910
149909
149912
149911
149915
149914
149917
149916
149920
149918
149922
149920
149923
149922
149925
149923
149926
149924
149927
149925
149927
149925
149927
149926
149927
149925
149927
149925
149927
149925
149927
149924
149926
149924
149925
149923
149924
149922
149923
149921
149922
149920
149921
149919
149920
149918
149919
149917
149917
149916
149917
149914
149915
149913
149914
149912
149913
149911
149912
149910
149911
149910
149914
149922
149931
149956
149955
149953
149965
149949
149952
149965
149949
149953
149966
149950
149953
149967
149950
149954
149968
149951
149955
149969
149952
149956
149970
149953
149957
149971
149954
149958
149971
149955
149959
149972
149956
149960
149973
149957
149960
149974
149957
149961
149975
149958
149962
149975
149959
149962
149976
149959
149963
149976
149960
149963
149977
149960
149964
149977
149960
149964
149978
149961
149964
149978
149960
149964
149978
149960
149964
149978
149960
149964
149978
149959
149963
149977
149958
149962
149976
149957
149961
149976
149956
149960
149975
149954
149958
149973
149952
149956
149972
149950
149954
149970
149948
149953
149968
149947
149951
149967
149945
149949
149966
149943
149947
149965
149941
149945
149964
149940
149944
149964
149939
149943
149962
149938
149942
149962
149938
149942
149963
149938
149943
149964
149938
149943
149964
149939
149944
149965
149939
149945
149966
149940
149946
149967
149941
149947
149969
149942
149948
149970
149944
149950
149971
149945
149951
149972
149946
149952
149974
149948
149954
149975
149949
149955
149976
149951
149957
149977
149952
149958
149979
149954
149960
149980
149955
149961
149981
149957
149963
149982
149958
149964
149983
149960
149965
149985
149961
149967
149986
149963
149968
149987
149965
149970
149988
149966
149972
149989
149968
149973
149990
149970
149975
149992
149971
149976
149993
149973
149978
149994
149975
149980
149995
149977
149981
149996
149979
149983
149998
149981
149985
149999
149983
149987
150000
149985
149989
150002
149987
149991
150003
149989
149993
150004
149991
149995
150006
149994
149997
150007
149996
150000
150008
149999
150002
150010
150002
150004
150011
150004
150007
150013
150007
150010
150014
150010
150013
150016
150013
150015
150017
150017
150018
150019
150020
150022
150020
150023
150013
150015
150015
150015
150015
150014
150014
150013
150013
150013
150012
150012
150011
150011
150011
150011
150010
150010
150010
150009
150009
150009
150008
150008
150008
150007
150007
150006
150006
150005
150005
150004
150004
150003
150002
150001
150001
150000
149999
149997
149996
149995
149994
149993
149992
149991
149991
149990
149992
149995
149996
149997
150000
150002
150005
150007
150009
150011
150012
150012
150012
150011
150011
150010
150008
150007
150006
150005
150004
150003
150001
150000
149999
149998
149997
149996
149995
149994
149993
149992
149991
149990
149989
149988
149988
149986
149969
149966
149966
149970
149985
149989
149989
149995
149995
149997
149997
149997
149998
149999
150000
150001
150002
150003
150004
150005
150006
150007
150008
150009
150010
150011
150015
150014
150013
150011
150010
150009
150008
150007
150006
150005
150004
150003
150002
150001
150001
150000
149999
149999
150000
149999
149999
149997
149998
150000
150000
150001
149994
149993
149993
149993
149993
149990
149990
149975
149977
149972
149972
149972
149973
149974
149976
149996