/*--------------------------------*- C++ -*----------------------------------*\
| =========                 |                                                 |
| \\      /  F ield         | OpenFOAM: The Open Source CFD Toolbox           |
|  \\    /   O peration     | Version:  v2006                                 |
|   \\  /    A nd           | Website:  www.openfoam.com                      |
|    \\/     M anipulation  |                                                 |
\*---------------------------------------------------------------------------*/
FoamFile
{
    version     2.0;
    format      ascii;
    class       volScalarField;
    location    "0.014";
    object      omega;
}
// * * * * * * * * * * * * * * * * * * * * * * * * * * * * * * * * * * * * * //

dimensions      [0 0 -1 0 0 0 0];


internalField   nonuniform List<scalar> 
41981
(
0.00930247
0.00930252
0.00930081
0.00930081
0.00930083
0.00930089
0.00930098
0.0093011
0.00930125
0.00930142
0.00930163
0.00930186
0.00930215
0.00930242
0.00930283
0.00930315
0.00930303
0.00930155
0.00929784
0.00929203
0.00928491
0.00927723
0.00926943
0.00926162
0.00925374
0.0092457
0.00923743
0.00922889
0.00922008
0.009211
0.00920167
0.00919211
0.00918231
0.00917227
0.009162
0.0091515
0.00914076
0.00912979
0.00911859
0.00910715
0.00909548
0.00908358
0.00907146
0.00905911
0.00904653
0.00903374
0.00902073
0.00900749
0.00899405
0.00898039
0.00896652
0.00895244
0.00893816
0.00892368
0.00890899
0.00889411
0.00887904
0.00886378
0.00884833
0.0088327
0.00881689
0.00880091
0.00878476
0.00876845
0.00875197
0.00873535
0.00871857
0.00870164
0.00868458
0.00866738
0.00865006
0.00863261
0.00861505
0.00859737
0.00857959
0.00856172
0.00854375
0.00852569
0.00850756
0.00848936
0.00847109
0.00845276
0.00843438
0.00841596
0.0083975
0.00837902
0.00836051
0.00834198
0.00832345
0.00830492
0.0082864
0.00826789
0.00824941
0.00823096
0.00821255
0.00819419
0.00817588
0.00815764
0.00813947
0.00812139
0.00810341
0.00808555
0.00806781
0.00805024
0.00803286
0.00801573
0.00799893
0.00798259
0.00796689
0.00795213
0.00793875
0.00792746
0.00791934
0.00791609
0.0079203
0.00793599
0.00796935
0.00802986
0.00813202
0.00829797
0.00856134
0.00897304
0.00960941
0.010583
0.0120502
0.0141686
0.017485
0.0229047
0.0312901
0.0432312
0.0589057
0.0781042
0.10043
0.125774
0.154991
0.190417
0.242145
0.335178
0.478601
0.682524
0.947015
1.23644
1.47665
1.61818
1.71826
1.9591
2.55842
3.8764
7.86326
12.5704
19.4923
30.9741
52.5018
58.3268
45.9222
111.994
304.848
1092.03
9768.08
54101.2
711210
722124
111972
25433.6
47318.5
164886
732958
737036
171256
54114.1
65166.4
179217
715689
703869
175696
65470.5
71576.8
179634
687876
675838
173514
70894.8
73372
176232
662323
659119
172466
72539.3
74528.9
172798
649123
643990
169883
73151.7
75000.8
170743
638824
636129
168988
73601
75406.2
170139
632663
630866
168811
74027.6
75843.9
170265
628164
626786
169179
74501
76348.1
170864
624478
623323
169868
75036.6
76910.7
171679
621241
620220
170689
75613.6
77498
172535
618278
617341
171546
76198.8
78084.2
173415
615500
614615
172422
76775.5
78657.3
174301
612850
612001
173298
77334.1
79208.7
175175
610301
609480
174157
77867.5
79732.1
176022
607843
607050
174986
78370.3
80222.7
176828
605477
604713
175772
78838.9
80678.5
177583
603209
602478
176504
79273.4
81101.5
178281
601043
600347
177179
79677.3
81495.7
178920
598978
598316
177796
80055.1
81865.5
179502
597008
596377
178358
80410.8
82215
180032
595123
594519
178870
80748.3
82547.3
180515
593314
592732
179338
81070.3
82864.9
180960
591571
591008
179767
81379.1
83170.2
181375
589883
589337
180160
81676.8
83464.9
181753
588245
587713
180521
81964.8
83750
182101
586649
586130
180853
82243.9
84026
182421
585090
584582
181161
82514.1
84292.8
182717
583563
583064
181444
82775.1
84550
182989
582063
581573
181704
83026.6
84797.2
183238
580588
580105
181941
83268.2
85034.3
183464
579133
578656
182156
83499.9
85261.6
183669
577694
577221
182351
83722.4
85479.7
183853
576266
575796
182526
83935.9
85688.8
184018
574844
574375
182681
84140.8
85889.2
184164
573424
572953
182819
84337.2
86081
184292
572001
571528
182938
84525.3
86264.5
184401
570572
570096
183039
84705.5
86440
184492
569135
568655
183121
84877.9
86607.5
184563
567688
567204
183184
85042.4
86766.8
184615
566231
565743
183227
85198.9
86917.6
184646
564764
564272
183249
85347.2
87060.1
184656
563288
562791
183251
85487.4
87194.8
184647
561805
561299
183236
85620.8
87323.5
184625
560313
559786
183212
85748.3
87445.3
184593
558799
558248
183171
85866.7
87556.6
184540
557268
556698
183108
85974.9
87658.5
184466
555728
555140
183025
86075.6
87753.9
184373
554179
553576
182926
86171.2
87845
184264
552620
552001
182811
86263.4
87932.5
184139
551048
550412
182680
86351.9
88015.5
183998
549460
548808
182533
86435.7
88093.2
183839
547854
547186
182369
86514.5
88165.5
183663
546227
545544
182187
86588
88232.2
183469
544579
543879
181987
86656
88293.1
183257
542905
542189
181771
86718.3
88347.9
183028
541204
540471
181537
86774.8
88396.4
182781
539474
538724
181283
86824.4
88436.4
182511
537714
536950
181005
86864.7
88465.8
182215
535927
535149
180700
86894.2
88484.6
181891
534113
533322
180368
86915.1
88496.1
181542
532271
531468
180012
86930.2
88501.9
181168
530401
529586
179631
86939.9
88501.7
180768
528500
527676
179226
86944.1
88495.9
180345
526568
525734
178798
86943.6
88485.4
179899
524601
523757
178348
86938.6
88469.8
179431
522597
521742
177872
86928.5
88448.3
178940
520552
519686
177371
86912.4
88420.2
178426
518464
517587
176849
86889.7
88385
177890
516330
515441
176302
86859.7
88341.3
177328
514147
513246
175729
86819.7
88286
176738
511916
511002
175133
86765.9
88216.2
176124
509635
508709
174507
86697.7
88131.5
175478
507307
506373
173845
86614.8
88031.1
174794
504938
504001
173142
86515.7
87913
174069
502535
501596
172396
86398.6
87775.7
173298
500101
499165
171604
86262.3
87618.3
172483
497640
496711
170769
86106.4
87440.8
171623
495156
494234
169889
85930.8
87242.8
170718
492651
491733
168963
85734.3
87023.3
169770
490131
489207
167995
85515.8
86780.3
168779
487585
486656
166985
85272.8
86510.6
167745
485019
484091
165925
85001.7
86210.2
166659
482446
481525
164807
84697.9
85874
165513
479879
478972
163625
84356.2
85496.4
164300
477329
476442
162370
83970.7
85071.1
163015
474809
473945
161039
83535.3
84592.9
161655
472323
471485
159637
83045.6
84059
160226
469880
469075
158170
82500.5
83470
158733
467496
466722
156651
81901.3
82826.6
157190
465164
464417
155065
81244.1
82119.3
155574
462914
462219
153393
80501.5
81335.4
153873
460800
460161
151638
79683
80482.9
152096
458826
458242
149819
78801.2
79566.7
150261
456990
456461
147951
77856.6
78588.7
148383
455290
454817
146050
76853.3
77553.6
146475
453729
453312
144127
75796.4
76466.8
144552
452312
451952
142199
74691.9
75335.1
142631
451042
450739
140290
73545
74165.7
140736
449919
449670
138442
72363.4
72968.9
138903
448939
448743
136658
71166.2
71761
137139
448100
447952
134958
69966.8
70554
135449
447389
447304
133401
68782.2
69367.5
133891
446803
446761
131947
67621.5
68207.1
132441
446311
446306
130598
66489.4
67078.6
131101
445907
445935
129363
65392.3
65989.1
129883
445576
445634
128256
64341.4
64953
128810
445311
445389
127304
63356.2
63990
127904
445096
445189
126510
62449.7
63106.4
127153
444926
445031
125856
61619.1
62299.3
126543
444798
444910
125337
60865
61570.7
126073
444702
444813
124950
60190.1
60923.5
125740
444626
444730
124672
59586.5
60358.7
125534
444559
444652
124508
59053.1
59872
125443
444494
444570
124455
58600.4
59468.4
125460
444421
444475
124506
58230.7
59145.5
125574
444331
444361
124641
57937
58894.3
125763
444206
444213
124837
57713.6
58710.3
126015
444046
444030
125077
57553
58581.8
126293
443848
443809
125344
57441.8
58497.4
126589
443608
443547
125632
57373
58456.2
126912
443321
443234
125962
57348.6
58457
127255
442976
442864
126300
57361.2
58489.4
127590
442570
442431
126629
57392.7
58526
127910
442103
441939
126941
57415.7
58546.2
128215
441584
441395
127243
57416.9
58540.8
128524
441020
440813
127564
57386.4
58496.2
128867
440411
440184
127905
57294.7
58357.7
129167
439751
439508
128172
57066.4
58049.8
129333
439046
438806
128235
56656.2
57572.8
129232
438347
438140
127924
56116.6
57006
128816
437727
437574
127368
55538.6
56427.7
128207
437240
437152
126709
54955.9
55828.9
127484
436909
436875
125953
54339.8
55195.7
126690
436715
436721
125179
53703.9
54561.1
125912
436613
436649
124451
53082.1
53951.1
125195
436575
436629
123793
52491.2
53376.1
124555
436576
436641
123211
51938.7
52846.7
123993
436601
436673
122698
51441.4
52378.3
123496
436641
436719
122240
51002.6
51958.5
123051
436693
436776
121825
50601.1
51571.9
122646
436756
436844
121445
50235.6
51230.5
122285
436831
436927
121108
49923.4
50944.4
121970
436920
437027
120815
49665.9
50708.6
121696
437029
437151
120560
49455.1
50515.5
121462
437160
437296
120349
49283.2
50359.7
121277
437312
437460
120188
49146.7
50238.4
121140
437482
437643
120075
49042
50148.8
121042
437671
437844
119995
48967.8
50087.7
120976
437879
438065
119947
48920.5
50053.7
120945
438107
438308
119941
48900.2
50046.9
120965
438358
438571
119979
48904.4
50061.4
121020
438630
438858
120042
48925.6
50087.6
121087
438931
439194
120085
48944.8
50201.5
121387
439563
434898
118910
48962.6
50053.5
122185
435924
435074
118333
48065.6
48980
118856
428114
404420
110820
44875.7
41801.4
105241
381433
361498
101862
41166.3
39306.4
98267.5
352759
342747
96116.4
38531
13580.5
7143.48
5388.5
5013.4
4691.94
4648.96
4743.57
4761.24
4734.23
4611.3
4425.62
4237.45
4020.02
3827.36
3633.39
3470.06
3320.15
3197.57
3091.53
3008.05
2940.9
2892.61
2860.18
2844.64
2845.31
2862.34
2897.57
2950.81
3026.71
3124.57
3253.72
3412.76
3619.88
3870.44
4204.54
4606.94
5183.44
5730.18
6581.57
8183.54
10240.7
11367.9
16523.5
27020.4
57162.9
150503
347949
1.25197e+06
1.28148e+06
348913
150394
160125
363840
1.31214e+06
1.34885e+06
366673
159790
161267
369658
1.34033e+06
1.34707e+06
370729
162170
164135
372559
1.37143e+06
1.39885e+06
377462
164589
164240
376801
1.39707e+06
1.39865e+06
381481
165876
165368
380408
1.39519e+06
1.39699e+06
380621
165412
165340
380636
1.39706e+06
1.3971e+06
380737
165318
165230
380717
1.39717e+06
1.39722e+06
380803
165199
165107
380783
1.3973e+06
1.39735e+06
380866
165074
164973
380830
1.39743e+06
1.39748e+06
380902
164935
164832
380868
1.39756e+06
1.39762e+06
380938
164793
164683
380892
1.3977e+06
1.39776e+06
380952
164640
164530
380909
1.39784e+06
1.3979e+06
380970
164487
164370
380915
1.39799e+06
1.39805e+06
380967
164324
164208
380917
1.39814e+06
1.3982e+06
380968
164162
164041
380907
1.39829e+06
1.39835e+06
380950
163992
163872
380894
1.39843e+06
1.3985e+06
380938
163824
163698
380871
1.39858e+06
1.39864e+06
380906
163647
163524
380844
1.39873e+06
1.3988e+06
380881
163473
163345
380807
1.39889e+06
1.39895e+06
380836
163292
163166
380768
1.39904e+06
1.3991e+06
380797
163114
162983
380718
1.39919e+06
1.39925e+06
380740
162929
162801
380666
1.39934e+06
1.39941e+06
380690
162748
162615
380605
1.3995e+06
1.39956e+06
380621
162561
162431
380542
1.39965e+06
1.39971e+06
380560
162378
162244
380470
1.39981e+06
1.39987e+06
380480
162189
162060
380397
1.39996e+06
1.40002e+06
380409
162006
161873
380316
1.40012e+06
1.40018e+06
380321
161818
161690
380234
1.40028e+06
1.40034e+06
380241
161636
161505
380144
1.40044e+06
1.4005e+06
380145
161451
161324
380055
1.4006e+06
1.40066e+06
380059
161272
161143
379959
1.40076e+06
1.40082e+06
379957
161091
160967
379866
1.40092e+06
1.40099e+06
379867
160916
160791
379765
1.40109e+06
1.40115e+06
379761
160741
160622
379670
1.40125e+06
1.40132e+06
379670
160574
160454
379567
1.40143e+06
1.4015e+06
379562
160407
160294
379472
1.4016e+06
1.40167e+06
379472
160250
160137
379371
1.40178e+06
1.40185e+06
379366
160093
159988
379278
1.40196e+06
1.40203e+06
379279
159947
159843
379183
1.40214e+06
1.40222e+06
379181
159804
159708
379097
1.40233e+06
1.40241e+06
379100
159672
159579
379011
1.40252e+06
1.4026e+06
379014
159546
159462
378936
1.40272e+06
1.4028e+06
378945
159433
159353
378865
1.40292e+06
1.40301e+06
378874
159327
159258
378807
1.40313e+06
1.40322e+06
378825
159237
159172
378756
1.40335e+06
1.40344e+06
378776
159155
159103
378723
1.40357e+06
1.40366e+06
378753
159092
159047
378700
1.4038e+06
1.4039e+06
378735
159041
159011
378700
1.40404e+06
1.40414e+06
378746
159013
158987
378713
1.40429e+06
1.40439e+06
378766
158996
158982
378752
1.40454e+06
1.40465e+06
378818
159001
158994
378809
1.40481e+06
1.40492e+06
378895
159027
159031
378906
1.40508e+06
1.4052e+06
379010
159081
159093
379029
1.40537e+06
1.40549e+06
379163
159162
159186
379204
1.40567e+06
1.4058e+06
379363
159274
159308
379416
1.40598e+06
1.40611e+06
379616
159420
159468
379698
1.40631e+06
1.40644e+06
379936
159603
159663
380041
1.40664e+06
1.40677e+06
380342
159827
159904
380489
1.40696e+06
1.40709e+06
380856
160097
160188
381056
1.40728e+06
1.40739e+06
381506
160416
160528
381806
1.40755e+06
1.40764e+06
382360
160793
160925
382781
1.40776e+06
1.40782e+06
383489
161232
161390
384096
1.40787e+06
1.40788e+06
385015
161736
161914
385895
1.40788e+06
1.40781e+06
387072
162285
162488
388264
1.40771e+06
1.4075e+06
389745
162875
163125
391290
1.40727e+06
1.40693e+06
393146
163552
163872
395161
1.40667e+06
1.40656e+06
397687
164299
164525
400018
1.40658e+06
1.40677e+06
402669
164680
164703
405163
1.40741e+06
1.40845e+06
407194
164382
163553
408060
1.41024e+06
1.41243e+06
408488
162331
159829
401890
1.38748e+06
1.36113e+06
394010
157545
156216
394006
1.3664e+06
1.39145e+06
393357
156273
153022
395691
1.39814e+06
1.37419e+06
378231
150153
148785
381153
1.35232e+06
1.33212e+06
365779
145564
142762
361903
1.30998e+06
1.26927e+06
346314
139522
137214
339175
1.23037e+06
1.21219e+06
326310
136585
135206
322507
1.21488e+06
1.17473e+06
322503
135587
133675
290991
1.10523e+06
1.03448e+06
287932
134865
137991
266096
1.64039e+06
2.9456e+06
822586
328665
175610
461098
2.15308e+06
2.00348e+06
508729
196760
196951
513849
1.94854e+06
1.86007e+06
491322
186376
188325
486308
1.78296e+06
1.75075e+06
457575
177925
178512
463513
1.67882e+06
1.61844e+06
411908
164278
168369
424550
1.5565e+06
1.47181e+06
384410
159063
160350
381406
1.41614e+06
1.32209e+06
353239
154766
155258
331633
1.16628e+06
1.78072e+06
288072
152288
346798
883359
2.95619e+06
2.059e+06
434201
172368
182827
474890
1.74667e+06
1.57285e+06
399951
157548
158667
389278
1.48239e+06
1.4029e+06
369159
147801
146283
348261
1.30215e+06
1.23779e+06
320475
140902
140395
316936
1.15172e+06
1.05363e+06
284335
138543
144315
280244
1.65238e+06
2.80009e+06
837619
325399
167014
407933
1.97758e+06
1.79968e+06
452551
181095
175315
452973
1.67807e+06
1.54077e+06
385824
164306
165614
386642
1.44911e+06
1.3183e+06
352180
158647
158187
324429
1.16435e+06
1.77918e+06
292408
157613
347116
872421
2.96531e+06
1.99258e+06
432233
170724
175598
433899
1.64135e+06
1.44704e+06
367317
151769
149598
335682
1.28611e+06
1.15502e+06
312905
143488
143469
287736
1.0416e+06
1.61857e+06
283134
150194
324292
824379
2.72416e+06
1.87933e+06
389148
168093
172929
408494
1.57237e+06
1.40882e+06
357531
161362
164083
346816
1.2255e+06
1.84985e+06
312098
164277
354988
903561
3.05034e+06
2.02846e+06
432711
176327
178364
424007
1.62147e+06
1.39345e+06
344762
153088
152639
331784
1.21536e+06
1.07176e+06
293176
146888
156596
292933
1.63094e+06
2.70913e+06
808333
329850
173101
390710
1.86012e+06
1.48374e+06
405642
178738
163462
330991
1.23624e+06
1.841e+06
327631
168424
353199
878620
2.93069e+06
1.85182e+06
405254
175501
169748
365556
1.40752e+06
1.17057e+06
310604
150450
158999
311386
1.74535e+06
2.67494e+06
805291
328843
170905
362505
1.70381e+06
1.31182e+06
360101
171183
172678
350804
2.00259e+06
2.96242e+06
854145
347680
175576
389882
1.7448e+06
1.30679e+06
350156
162913
161294
335991
1.90105e+06
2.6226e+06
745192
313092
168072
367810
1.61713e+06
2.18807e+06
380334
172015
312180
734896
2.83827e+06
1.70902e+06
387649
172691
172731
404912
2.23502e+06
2.73964e+06
560620
245903
163125
357562
1.59451e+06
1.89492e+06
397278
176768
195687
449565
2.30229e+06
2.28515e+06
495650
222532
175002
399274
2.23238e+06
1.91456e+06
417032
187536
215310
503467
2.60179e+06
3.19883e+06
611592
259817
258000
620102
3.34783e+06
2.86817e+06
562017
229905
144084
282126
2.35264e+06
2.55881e+06
1.16088e+06
530523
283366
504065
2.98992e+06
2.88802e+06
1.28265e+06
651732
359173
554272
2.92371e+06
2.80228e+06
1.29373e+06
661650
382186
572897
2.66727e+06
2.52793e+06
1.11654e+06
605671
368545
512481
2.39898e+06
2.20615e+06
1.04807e+06
556296
328490
500941
1.88062e+06
1.59042e+06
566896
337847
604141
1.21917e+06
2.76396e+06
2.2286e+06
536055
348980
346155
555401
1.81324e+06
3.23829e+06
1.37532e+06
637308
374708
451444
2.63265e+06
2.33845e+06
1.0419e+06
538461
308086
470934
1.87586e+06
1.52102e+06
501817
309813
533471
1.08269e+06
2.55516e+06
1.92e+06
461655
307910
305461
481711
1.55865e+06
2.74391e+06
1.1302e+06
534715
303703
471603
2.00404e+06
1.54246e+06
484100
299113
519290
1.07232e+06
2.61097e+06
1.93641e+06
445017
292809
289669
469027
1.54024e+06
2.63023e+06
1.0662e+06
509731
286241
440413
1.89403e+06
1.49974e+06
463123
282122
495102
1.04007e+06
2.5907e+06
1.84407e+06
424055
275183
272371
447837
1.45899e+06
2.49622e+06
1.00325e+06
478709
265366
401920
1.71024e+06
1.25628e+06
440930
259651
274387
521697
1.79874e+06
3.18326e+06
1.22766e+06
544998
286978
473788
2.22946e+06
1.66414e+06
477696
279403
510413
1.10615e+06
2.84757e+06
2.09742e+06
443298
273752
270286
465880
1.62867e+06
2.80721e+06
1.07441e+06
498658
268374
429425
2.01575e+06
1.58018e+06
460184
267803
497755
1.08424e+06
2.83756e+06
2.02178e+06
436588
265686
261863
449888
1.55223e+06
2.70912e+06
1.05371e+06
487597
262228
425818
1.94421e+06
1.5154e+06
448375
260507
486727
1.05371e+06
2.67511e+06
1.94395e+06
422901
259139
257409
442172
1.51521e+06
2.67434e+06
1.04349e+06
485586
258087
420705
1.90079e+06
1.47951e+06
448631
257316
474170
1.01277e+06
2.58878e+06
1.85118e+06
408113
253158
250892
441860
1.47268e+06
2.6019e+06
998170
472344
252836
406757
1.85332e+06
1.47888e+06
442817
253581
473899
1.01774e+06
2.58844e+06
1.86512e+06
409764
252264
251015
434295
1.47671e+06
2.57116e+06
995650
470279
250515
405297
1.82949e+06
1.44117e+06
437734
250919
471125
997531
2.51613e+06
1.8327e+06
404964
250781
252043
438046
1.44159e+06
2.51821e+06
994636
468689
249719
404929
1.82473e+06
1.4619e+06
439121
251301
479778
1.02862e+06
2.6296e+06
1.89203e+06
418543
252369
252183
438405
1.46458e+06
2.57148e+06
1.02504e+06
481183
255031
417754
1.89057e+06
1.49594e+06
459423
257268
486691
1.03599e+06
2.67356e+06
1.92716e+06
419789
256653
256480
447815
1.51091e+06
2.63962e+06
1.04104e+06
485734
258510
423981
1.94741e+06
1.56146e+06
465244
258905
505721
1.08004e+06
2.79824e+06
1.97381e+06
434287
266463
268747
488283
1.56984e+06
2.95805e+06
1.17847e+06
535773
301245
361565
2.42881e+06
2.19575e+06
934346
463827
245642
397945
1.65361e+06
1.38683e+06
449651
250864
473405
992084
2.54025e+06
1.84097e+06
410514
255600
258133
458152
1.50469e+06
2.73378e+06
1.06598e+06
493711
262876
438268
1.94744e+06
1.53845e+06
474864
263027
506099
1.07889e+06
2.78307e+06
2.03449e+06
443590
268282
269046
481337
1.62305e+06
3.05282e+06
1.21523e+06
549109
301722
378526
2.43746e+06
2.12686e+06
922336
462018
246422
399354
1.63037e+06
1.35563e+06
444685
252491
475520
1.00277e+06
2.43264e+06
1.85578e+06
418958
257637
258794
456811
1.51853e+06
2.76302e+06
1.07794e+06
505747
270553
437032
2.01402e+06
1.64166e+06
494524
275124
554491
1.21833e+06
3.08877e+06
2.46148e+06
373799
312686
483482
961459
2.22933e+06
1.69906e+06
414189
258684
265884
474090
1.43234e+06
2.72523e+06
1.08683e+06
513671
278578
449529
1.98712e+06
1.61498e+06
503360
282080
566890
1.22691e+06
3.09903e+06
2.50171e+06
383734
320073
487939
962259
2.24111e+06
1.71576e+06
420118
260896
266769
469995
1.44072e+06
2.68745e+06
1.08062e+06
512592
278650
451276
2.0187e+06
1.62981e+06
501020
282961
575180
1.24858e+06
3.05492e+06
2.47206e+06
402359
319460
491058
968349
2.2243e+06
1.78479e+06
422293
267139
274681
481103
1.51696e+06
2.95545e+06
1.20779e+06
554665
320589
377670
2.37964e+06
2.13935e+06
949928
487830
264698
426975
1.71844e+06
1.46146e+06
483677
274919
546515
1.16715e+06
2.80818e+06
2.32753e+06
384830
312971
473928
926172
2.10955e+06
1.60277e+06
414481
261384
270256
475260
1.36218e+06
2.61796e+06
1.0745e+06
514279
284444
455684
2.0221e+06
1.65808e+06
512739
288189
585304
1.27514e+06
3.11549e+06
2.54223e+06
403799
332099
504968
1.00114e+06
2.30352e+06
1.80186e+06
445607
275989
283877
502198
1.5358e+06
2.95942e+06
1.2252e+06
569131
332206
393747
2.45104e+06
2.22252e+06
979100
505282
278438
444715
1.75789e+06
1.52116e+06
510985
289124
571222
1.24983e+06
3.01042e+06
2.54169e+06
404826
328748
504794
993376
2.30447e+06
1.81528e+06
448980
279724
288424
505700
1.55072e+06
2.98942e+06
1.23439e+06
580505
341936
399020
2.458e+06
2.26554e+06
984354
518238
286305
457416
1.81951e+06
1.57768e+06
528404
297057
592245
1.25618e+06
3.06395e+06
2.5207e+06
421743
341988
519809
1.01174e+06
2.31134e+06
1.81485e+06
451657
288692
298903
513704
1.54627e+06
2.99966e+06
1.27287e+06
597052
358845
403424
2.55228e+06
2.41881e+06
1.04043e+06
549823
316951
408102
2.09322e+06
1.99519e+06
933656
486542
278546
442356
1.62746e+06
1.44035e+06
520354
292367
579489
1.21584e+06
2.86695e+06
2.36643e+06
404521
344783
520192
982969
2.19437e+06
1.75441e+06
455518
290529
303138
525752
1.50877e+06
2.92193e+06
1.24171e+06
590255
358608
406637
2.52466e+06
2.38981e+06
1.021e+06
542591
318796
417070
2.07714e+06
1.97339e+06
915288
485653
281149
448552
1.6788e+06
1.49899e+06
519898
294437
582374
1.21746e+06
2.86904e+06
2.44002e+06
418277
343432
516966
992462
2.28051e+06
1.79561e+06
456651
292849
303085
531508
1.57926e+06
3.08128e+06
1.28612e+06
601546
362210
421263
2.54306e+06
2.43909e+06
1.06309e+06
555309
325721
414231
2.14929e+06
2.0463e+06
940130
497326
288923
456043
1.66827e+06
1.48617e+06
534456
304087
597063
1.2546e+06
2.92528e+06
2.43785e+06
424114
352940
535547
1.03054e+06
2.29036e+06
1.8444e+06
478014
305254
316809
559461
1.61206e+06
3.11907e+06
1.31675e+06
626284
380943
427597
2.61547e+06
2.54665e+06
1.10011e+06
579901
342230
447763
2.1913e+06
2.08987e+06
994466
520419
302533
488878
1.7843e+06
1.58345e+06
564793
318825
640854
1.3528e+06
3.13666e+06
2.71651e+06
450072
382371
572153
1.0823e+06
2.53098e+06
2.23134e+06
437707
342601
520289
989740
2.17119e+06
1.78822e+06
485617
305654
319097
555546
1.58259e+06
3.07931e+06
1.3226e+06
636786
391203
438020
2.68675e+06
2.56798e+06
1.08829e+06
583960
347948
447608
2.24926e+06
2.22702e+06
1.01474e+06
534887
328864
428317
2.02641e+06
1.98845e+06
937294
499158
296896
467556
1.65174e+06
1.48329e+06
548487
315257
618119
1.28164e+06
2.95168e+06
2.55273e+06
431587
384431
575657
1.08096e+06
2.48324e+06
2.19368e+06
447888
344799
521437
976417
2.0849e+06
1.72662e+06
481700
307263
323856
560622
1.54711e+06
3.11818e+06
1.35992e+06
642984
388382
457549
2.63476e+06
2.46829e+06
1.08646e+06
585206
351130
450565
2.20647e+06
2.12613e+06
984008
531451
315931
489617
1.73263e+06
1.5526e+06
573937
333512
661761
1.38749e+06
3.1243e+06
2.74824e+06
460186
407807
614074
1.14852e+06
2.63501e+06
2.34165e+06
469554
370387
564956
1.06052e+06
2.32319e+06
2.10314e+06
455517
350298
524383
976417
2.04269e+06
1.68641e+06
489974
315086
330775
572323
1.52673e+06
3.00609e+06
1.32484e+06
648355
402508
454770
2.58097e+06
2.52512e+06
1.09844e+06
601918
364158
464484
2.24489e+06
2.22423e+06
1.02967e+06
555093
345673
449541
2.06046e+06
2.02418e+06
968875
518378
310773
485872
1.67547e+06
1.53733e+06
578842
332159
659365
1.36307e+06
3.13396e+06
2.62551e+06
473067
401744
601005
1.09992e+06
2.49451e+06
2.19225e+06
456524
366696
553419
1.03104e+06
2.17433e+06
1.82032e+06
517635
328740
346768
601963
1.61844e+06
3.23561e+06
1.42578e+06
683173
417785
483764
2.74554e+06
2.64272e+06
1.16502e+06
629942
382379
494827
2.38373e+06
2.36289e+06
1.0922e+06
583142
366661
475395
2.17439e+06
2.19783e+06
1.03211e+06
557138
352846
457776
2.00719e+06
1.98605e+06
965847
526089
319879
495842
1.68674e+06
1.55538e+06
585521
341432
678142
1.39776e+06
3.14102e+06
2.69666e+06
477940
420188
624851
1.13688e+06
2.57505e+06
2.28855e+06
486630
383273
576933
1.07443e+06
2.2937e+06
2.08987e+06
472795
364959
545140
1.00372e+06
2.05622e+06
1.75592e+06
514205
329793
348690
592769
1.5818e+06
3.07161e+06
1.39277e+06
681079
426969
477620
2.67955e+06
2.62307e+06
1.15876e+06
637628
387729
499446
2.33283e+06
2.28798e+06
1.06804e+06
584503
367474
469780
2.10488e+06
2.10381e+06
1.01194e+06
551547
335145
519560
1.75565e+06
1.60473e+06
611343
357192
703475
1.43408e+06
3.19946e+06
2.75497e+06
499960
437138
648951
1.1809e+06
2.67647e+06
2.41534e+06
505191
399899
608870
1.13305e+06
2.44481e+06
2.2628e+06
499628
387195
585484
1.0872e+06
2.28943e+06
2.12545e+06
484479
374372
558382
1.01961e+06
2.10225e+06
1.7497e+06
526024
340131
359064
610086
1.58419e+06
3.11942e+06
1.40972e+06
695982
428780
503407
2.71923e+06
2.63953e+06
1.16227e+06
639339
394926
498238
2.34526e+06
2.3569e+06
1.10295e+06
599085
380445
490378
2.18207e+06
2.1874e+06
1.05683e+06
575426
348329
549666
1.87522e+06
1.68923e+06
641296
371875
736558
1.51521e+06
3.338e+06
2.91853e+06
516962
460847
683821
1.25077e+06
2.82768e+06
2.50453e+06
540930
420627
633096
1.16594e+06
2.48674e+06
2.29114e+06
515184
403364
606583
1.11736e+06
2.3475e+06
2.18194e+06
502070
389059
579262
1.05902e+06
2.16446e+06
1.82397e+06
548331
354809
375357
635866
1.66561e+06
3.29661e+06
1.49772e+06
732374
452914
524174
2.8249e+06
2.71692e+06
1.22162e+06
673498
415264
527198
2.44324e+06
2.46476e+06
1.14884e+06
627147
400120
514889
2.27888e+06
2.33794e+06
1.11371e+06
606576
389908
505135
2.14624e+06
2.1377e+06
1.05174e+06
583418
358436
557081
1.85919e+06
1.71744e+06
655656
381229
752170
1.53922e+06
3.43584e+06
2.94045e+06
536760
468148
693685
1.27237e+06
2.84959e+06
2.52425e+06
544903
430887
652405
1.19884e+06
2.54114e+06
2.34679e+06
534607
416699
625771
1.14623e+06
2.38152e+06
2.20716e+06
517396
402070
595571
1.07463e+06
2.19506e+06
1.85176e+06
564111
365734
386035
651920
1.69318e+06
3.30247e+06
1.49719e+06
744561
465188
531713
2.83082e+06
2.79432e+06
1.25122e+06
692562
429302
547602
2.5124e+06
2.51226e+06
1.19298e+06
647513
414150
534674
2.31324e+06
2.37424e+06
1.13471e+06
625075
404992
521265
2.21191e+06
2.25512e+06
1.0907e+06
604883
393209
503250
2.0638e+06
2.07501e+06
1.03757e+06
583360
360581
555220
1.78938e+06
1.63977e+06
648811
385336
744400
1.4895e+06
3.22192e+06
2.81186e+06
538502
469705
694208
1.22663e+06
2.75646e+06
2.48564e+06
542181
434230
653282
1.20038e+06
2.53815e+06
2.30591e+06
543936
421741
631691
1.14895e+06
2.34058e+06
2.16823e+06
527933
409817
606199
1.08493e+06
2.15847e+06
1.8252e+06
574118
374083
394579
659800
1.66327e+06
3.24023e+06
1.48705e+06
752432
475974
541856
2.81964e+06
2.78973e+06
1.26685e+06
706527
439174
553314
2.51216e+06
2.54045e+06
1.20537e+06
661552
425182
549778
2.30612e+06
2.34103e+06
1.15311e+06
635911
412120
532689
2.13843e+06
2.12945e+06
1.08289e+06
608068
376444
577409
1.83634e+06
1.68485e+06
673091
402061
770766
1.52512e+06
3.30192e+06
2.88346e+06
555897
485357
721350
1.29669e+06
2.86318e+06
2.5356e+06
575362
453188
679841
1.23863e+06
2.55688e+06
2.39889e+06
568263
440350
656728
1.18697e+06
2.44202e+06
2.25706e+06
547971
427749
630392
1.12229e+06
2.25351e+06
1.87339e+06
595571
391310
412081
684614
1.70713e+06
3.31502e+06
1.54102e+06
781821
492819
565225
2.88551e+06
2.8649e+06
1.30641e+06
731870
456817
575176
2.57411e+06
2.60419e+06
1.24915e+06
688716
443770
574546
2.39415e+06
2.42283e+06
1.17731e+06
661030
431900
548824
2.2434e+06
2.32341e+06
1.1384e+06
640444
421008
540502
2.15944e+06
2.17296e+06
1.08638e+06
619911
387952
590730
1.85401e+06
1.73149e+06
692902
412155
787413
1.56816e+06
3.3927e+06
2.89844e+06
578497
497533
731482
1.29979e+06
2.84756e+06
2.5508e+06
582765
462698
685636
1.2368e+06
2.58674e+06
2.33604e+06
570854
447314
666738
1.18762e+06
2.40309e+06
2.22118e+06
559499
435536
638704
1.12556e+06
2.21907e+06
1.87059e+06
604550
397746
419874
693024
1.71037e+06
3.30742e+06
1.55695e+06
794470
501020
579492
2.87657e+06
2.86296e+06
1.31709e+06
741351
465153
588811
2.52697e+06
2.53498e+06
1.23685e+06
692448
449651
571327
2.36008e+06
2.44218e+06
1.19681e+06
671495
439288
564798
2.23081e+06
2.24259e+06
1.14097e+06
649178
404121
616971
1.91681e+06
1.75773e+06
714167
429574
814892
1.60009e+06
3.38105e+06
2.98932e+06
604196
511021
752137
1.33722e+06
2.94976e+06
2.56089e+06
594720
479123
713357
1.27905e+06
2.61729e+06
2.43056e+06
595183
465495
691577
1.2285e+06
2.48539e+06
2.25391e+06
577760
451722
658090
1.15414e+06
2.25418e+06
1.89271e+06
622859
411497
435142
720252
1.75074e+06
3.44958e+06
1.61842e+06
825898
517719
606164
2.93869e+06
2.86641e+06
1.32519e+06
755488
477541
599989
2.52636e+06
2.56664e+06
1.25457e+06
707596
461601
592459
2.35763e+06
2.41654e+06
1.20232e+06
682353
448999
576338
2.23462e+06
2.2503e+06
1.13547e+06
655939
411935
625362
1.91854e+06
1.78196e+06
722429
437806
839621
1.65039e+06
3.45507e+06
2.99352e+06
627728
525902
772171
1.35489e+06
2.91714e+06
2.56912e+06
612647
491457
726320
1.27968e+06
2.60461e+06
2.3697e+06
598628
472560
691600
1.21568e+06
2.39028e+06
2.00751e+06
655528
430038
453559
747100
1.8344e+06
3.53857e+06
1.66271e+06
857035
539850
627778
3.07109e+06
3.00068e+06
1.37756e+06
789587
498734
617166
2.62967e+06
2.7033e+06
1.31722e+06
742945
483449
616399
2.46671e+06
2.52766e+06
1.2618e+06
717020
470038
601898
2.28565e+06
2.29505e+06
1.19051e+06
685204
429064
647739
1.94354e+06
1.79231e+06
745884
456265
862126
1.6734e+06
3.48551e+06
3.02827e+06
631924
544855
802929
1.39822e+06
3.00261e+06
2.6425e+06
644039
510396
752159
1.32665e+06
2.65468e+06
2.41276e+06
628825
490496
711164
1.23332e+06
2.41306e+06
2.01971e+06
670464
446860
470577
765812
1.8643e+06
3.57324e+06
1.7072e+06
880469
553682
648668
3.04157e+06
3.00715e+06
1.42281e+06
812224
514566
648546
2.68513e+06
2.71043e+06
1.32785e+06
757537
495463
631002
2.47192e+06
2.56127e+06
1.27823e+06
730329
482105
620827
2.32365e+06
2.32423e+06
1.20544e+06
698775
440564
661871