/*--------------------------------*- C++ -*----------------------------------*\
| =========                 |                                                 |
| \\      /  F ield         | OpenFOAM: The Open Source CFD Toolbox           |
|  \\    /   O peration     | Version:  v2006                                 |
|   \\  /    A nd           | Website:  www.openfoam.com                      |
|    \\/     M anipulation  |                                                 |
\*---------------------------------------------------------------------------*/
FoamFile
{
    version     2.0;
    format      ascii;
    class       volScalarField;
    location    "0.069";
    object      alphat;
}
// * * * * * * * * * * * * * * * * * * * * * * * * * * * * * * * * * * * * * //

dimensions      [1 -1 -1 0 0 0 0];


internalField   nonuniform List<scalar> 
16277
(
43.8087
33.2129
90.3092
23.4481
33.7781
16.9807
6.54058
2.63203
1.41384
0.954154
0.750464
0.646835
0.584824
0.540001
0.502362
0.468471
0.437593
0.409804
0.385147
0.363455
0.344397
0.327576
0.312611
0.299179
0.287022
0.275945
0.265795
0.256458
0.247841
0.239867
0.232474
0.225607
0.21922
0.213273
0.207732
0.202566
0.197749
0.193261
0.189079
0.185185
0.181565
0.178204
0.175089
0.172209
0.169556
0.16712
0.164895
0.162875
0.161055
0.159431
0.158002
0.156767
0.155724
0.154875
0.15422
0.153764
0.153514
0.153473
0.153652
0.154053
0.15469
0.155575
0.156725
0.158159
0.159897
0.161966
0.164396
0.167224
0.170498
0.174279
0.178647
0.183708
0.189599
0.196478
0.204504
0.213786
0.224327
0.236051
0.249062
0.264501
0.286363
0.325983
0.412473
0.621674
1.15788
2.4349
4.30099
4.6005
2.72574
1.80066
0.886307
0.40405
0.219676
0.10364
0.0245577
0.00441853
0.000146401
0.000127054
0.00207674
0.00956446
0.00527019
0.00134568
0.00011128
9.9637e-05
0.00122689
0.0044318
0.00353618
0.00105454
9.20689e-05
8.61342e-05
0.00102197
0.00335344
0.00290156
0.000920532
8.10799e-05
7.76728e-05
0.000904695
0.00282631
0.00257242
0.000843072
7.43144e-05
7.24986e-05
0.000848152
0.00254624
0.00238182
0.000803041
7.02802e-05
6.90877e-05
0.000810249
0.00236723
0.00224242
0.000773925
6.74511e-05
6.66268e-05
0.000781079
0.00223589
0.00213273
0.00075027
6.53482e-05
6.47504e-05
0.00075722
0.0021307
0.00204133
0.000730109
6.37121e-05
6.32628e-05
0.000737035
0.0020422
0.00196267
0.000712413
6.2385e-05
6.20309e-05
0.000719368
0.00196543
0.00189328
0.00069644
6.12598e-05
6.09714e-05
0.000703314
0.00189731
0.00183098
0.000681712
6.02783e-05
6.0036e-05
0.000688501
0.00183591
0.0017744
0.000668009
5.93999e-05
5.91901e-05
0.000674729
0.00178
0.00172256
0.000655202
5.85971e-05
5.84111e-05
0.000661861
0.00172874
0.00167471
0.000643181
5.78519e-05
5.76841e-05
0.000649776
0.00168141
0.00163039
0.000631843
5.7152e-05
5.69983e-05
0.000638373
0.00163754
0.0015892
0.000621111
5.64883e-05
5.63458e-05
0.000627576
0.00159675
0.00155086
0.000610928
5.58543e-05
5.57207e-05
0.000617344
0.00155876
0.0015151
0.000601272
5.52449e-05
5.51189e-05
0.00060764
0.00152327
0.00148162
0.0005921
5.46566e-05
5.45374e-05
0.000598416
0.00149002
0.00145017
0.000583359
5.40867e-05
5.39732e-05
0.00058962
0.00145872
0.00142048
0.000575001
5.35321e-05
5.34235e-05
0.000581202
0.00142913
0.00139234
0.000566979
5.29902e-05
5.28856e-05
0.000573115
0.00140106
0.00136558
0.000559246
5.24585e-05
5.23571e-05
0.000565311
0.00137432
0.00134001
0.000551759
5.19344e-05
5.18355e-05
0.000557746
0.00134875
0.00131551
0.000544475
5.14158e-05
5.13186e-05
0.000550381
0.00132422
0.00129195
0.000537362
5.09005e-05
5.08043e-05
0.000543182
0.0013006
0.00126922
0.000530388
5.03863e-05
5.02905e-05
0.00053612
0.0012778
0.00124722
0.000523529
4.98713e-05
4.97754e-05
0.000529171
0.00125571
0.00122588
0.000516762
4.93539e-05
4.92573e-05
0.000522313
0.00123428
0.00120514
0.000510072
4.88323e-05
4.87345e-05
0.000515533
0.00121344
0.00118495
0.000503447
4.8305e-05
4.82058e-05
0.000508822
0.00119316
0.00116529
0.00049688
4.77706e-05
4.76698e-05
0.000502189
0.0011734
0.00114612
0.000490377
4.7228e-05
4.71257e-05
0.000495675
0.00115417
0.00112746
0.000483959
4.66767e-05
4.65729e-05
0.000489229
0.00113545
0.0011093
0.000477602
4.61159e-05
4.60105e-05
0.000482866
0.00111724
0.00109163
0.000471327
4.55452e-05
4.54384e-05
0.000476609
0.00109955
0.0010745
0.000465164
4.49644e-05
4.48567e-05
0.000470489
0.00108244
0.00105796
0.000459148
4.43742e-05
4.42663e-05
0.000464548
0.00106597
0.00104208
0.000453327
4.37757e-05
4.36685e-05
0.000458849
0.00105037
0.00102705
0.000447773
4.31709e-05
4.30659e-05
0.000453468
0.0010358
0.001013
0.00044257
4.2563e-05
4.24623e-05
0.000448493
0.00102226
0.00100004
0.00043781
4.19563e-05
4.18622e-05
0.000444029
0.00100999
0.000988433
0.000433609
4.13561e-05
4.12718e-05
0.000440204
0.000999275
0.00097848
0.000430107
4.07689e-05
4.06994e-05
0.000437166
0.000990421
0.000970514
0.000427484
4.02031e-05
4.01564e-05
0.000434986
0.000983772
0.000964924
0.000425862
3.96763e-05
3.96454e-05
0.00043349
0.000979578
0.000961825
0.000424851
3.92093e-05
3.91831e-05
0.000432715
0.000978327
0.000961697
0.000424684
3.88009e-05
3.87785e-05
0.000432783
0.000980041
0.000964499
0.000425426
3.8485e-05
3.84464e-05
0.000433665
0.000984533
0.000970121
0.000427055
3.82583e-05
3.82076e-05
0.000435243
0.000991419
0.000978029
0.000429158
3.80405e-05
3.80633e-05
0.000437209
0.00100051
0.000988104
0.000431378
3.78986e-05
3.79842e-05
0.000439145
0.00101146
0.000999857
0.000433631
3.7838e-05
3.79996e-05
0.000440764
0.00102299
0.00101182
0.000435576
3.78784e-05
3.80928e-05
0.000442093
0.00103403
0.00102307
0.000436977
3.79963e-05
3.82516e-05
0.000443358
0.00104408
0.00103333
0.000438088
3.81806e-05
3.84722e-05
0.000444359
0.00105291
0.00104241
0.000439104
3.84256e-05
3.87461e-05
0.00044526
0.00106044
0.00105013
0.000439651
3.87201e-05
3.90579e-05
0.000445921
0.00106681
0.00105628
0.000439994
3.90509e-05
3.93971e-05
0.000446357
0.00107174
0.00106057
0.000440156
3.94064e-05
3.97519e-05
0.000446564
0.00107589
0.00106352
0.000440197
3.97744e-05
4.01107e-05
0.000446629
0.00107839
0.00106482
0.000439898
4.01438e-05
4.04639e-05
0.000446559
0.00107915
0.0010636
0.00043914
4.05046e-05
4.08021e-05
0.000445834
0.00107774
0.00106104
0.000438157
4.08451e-05
4.11132e-05
0.000444866
0.0010749
0.00105744
0.000437064
4.11554e-05
4.13906e-05
0.00044376
0.00107084
0.00105282
0.000435935
4.14293e-05
4.163e-05
0.00044255
0.00106565
0.00104731
0.000434815
4.1664e-05
4.18322e-05
0.000441311
0.00105949
0.00104109
0.000433738
4.18599e-05
4.19942e-05
0.000440067
0.00105257
0.00103419
0.00043268
4.20132e-05
4.21156e-05
0.000438802
0.00104496
0.00102681
0.000431632
4.21281e-05
4.22025e-05
0.000437529
0.00103693
0.00101906
0.000430589
4.22129e-05
4.22629e-05
0.000436243
0.00102873
0.00101115
0.000429512
4.22698e-05
4.23003e-05
0.000434928
0.00102045
0.00100324
0.000428419
4.2305e-05
4.23241e-05
0.000433623
0.0010123
0.000995292
0.000427232
4.23233e-05
4.2335e-05
0.000432273
0.00100416
0.0009872
0.000425887
4.23122e-05
4.23205e-05
0.000430862
0.000995903
0.000979105
0.000424507
4.22862e-05
4.22925e-05
0.000429419
0.000987668
0.000971052
0.000423096
4.22492e-05
4.2254e-05
0.000427946
0.000979473
0.000963013
0.00042164
4.22032e-05
4.22063e-05
0.00042642
0.000971294
0.000954912
0.000420121
4.21495e-05
4.21504e-05
0.000424818
0.000963087
0.000946759
0.000418532
4.20884e-05
4.20887e-05
0.00042316
0.000954894
0.000938656
0.000416883
4.2022e-05
4.20198e-05
0.000421458
0.000946745
0.000930617
0.000415172
4.19491e-05
4.19472e-05
0.000419708
0.000938653
0.000922628
0.000413402
4.18545e-05
4.1885e-05
0.000417965
0.000930682
0.000914072
0.000411595
4.17537e-05
4.18024e-05
0.000415759
0.000923121
0.000906894
0.000408643
4.15971e-05
4.18504e-05
0.000415991
0.000920614
0.000909353
0.000415473
4.17394e-05
4.24225e-05
0.000416101
0.00091959
0.000963005
0.000437578
4.27333e-05
4.55248e-05
0.000410367
0.000936382
0.00142971
0.000596191
5.13656e-05
5.54331e-05
0.000309261
0.000710138
0.00175188
0.00401389
0.00750382
0.0106979
0.0128836
0.0169344
0.0195206
0.0218412
0.0231477
0.0237725
0.0235968
0.0225469
0.0210523
0.018655
0.0163047
0.0127413
0.0111328
0.00810067
0.00606071
0.00411641
0.00233961
0.00107385
0.000391382
0.000162572
3.13882e-05
2.04698e-05
0.000150877
0.000355016
0.000335185
0.000143182
1.96849e-05
1.89194e-05
0.000138159
0.000317731
0.000319089
0.000136223
1.87235e-05
1.86055e-05
0.000135377
0.000313981
0.00031407
0.000134096
1.84243e-05
1.84073e-05
0.000133988
0.000313749
0.000314552
0.000134048
1.84347e-05
1.84328e-05
0.000134228
0.000315261
0.000315728
0.000134481
1.84623e-05
1.84811e-05
0.000134708
0.000316683
0.000317127
0.000134905
1.84949e-05
1.85274e-05
0.000135173
0.000318138
0.000318683
0.000135383
1.85167e-05
1.85475e-05
0.000135689
0.00031975
0.000320331
0.00013592
1.85661e-05
1.85994e-05
0.000136237
0.000321423
0.000321929
0.000136389
1.86015e-05
1.86096e-05
0.000136807
0.000323032
0.00032354
0.000136873
1.86479e-05
1.86549e-05
0.000137265
0.00032468
0.000325231
0.000137417
1.86702e-05
1.86787e-05
0.000137854
0.000326473
0.000327049
0.000138021
1.87236e-05
1.87319e-05
0.00013844
0.000328296
0.000328878
0.000138647
1.87522e-05
1.87581e-05
0.000139051
0.000330172
0.000330765
0.000139241
1.88036e-05
1.88127e-05
0.000139648
0.000332026
0.000332615
0.00013986
1.88311e-05
1.88404e-05
0.000140309
0.000333926
0.000334539
0.000140466
1.88848e-05
1.8891e-05
0.000140883
0.000335869
0.000336493
0.000141129
1.89131e-05
1.89204e-05
0.00014157
0.000337867
0.000338504
0.000141854
1.89556e-05
1.89917e-05
0.000142201
0.00033988
0.000340531
0.000142455
1.8998e-05
1.901e-05
0.000142982
0.00034195
0.000342607
0.000143226
1.90433e-05
1.90809e-05
0.000143626
0.000344039
0.000344711
0.000143898
1.9089e-05
1.91009e-05
0.000144445
0.000346177
0.000346852
0.000144715
1.91357e-05
1.91735e-05
0.000145117
0.000348293
0.000348967
0.000145364
1.9179e-05
1.91916e-05
0.000145926
0.000350428
0.000351098
0.000146169
1.92243e-05
1.92635e-05
0.000146599
0.000352527
0.000353189
0.000146831
1.92685e-05
1.92811e-05
0.000147401
0.000354634
0.00035529
0.000147645
1.93145e-05
1.93526e-05
0.000148067
0.00035672
0.000357365
0.000148302
1.93577e-05
1.93709e-05
0.00014888
0.000358797
0.000359431
0.000149105
1.94037e-05
1.94422e-05
0.000149512
0.00036081
0.000361405
0.0001497
1.94452e-05
1.94556e-05
0.000150232
0.000362769
0.000363295
0.000150393
1.94854e-05
1.95192e-05
0.000150722
0.000364546
0.000364998
0.000150832
1.95177e-05
1.95233e-05
0.000151265
0.000366164
0.000366549
0.000151229
1.95592e-05
1.95598e-05
0.000151525
0.000367493
0.000367776
0.000151454
1.95664e-05
1.95592e-05
0.000151576
0.000368515
0.00036863
0.00015134
1.95873e-05
1.95732e-05
0.000151292
0.000369079
0.000369087
0.000150966
1.95693e-05
1.95495e-05
0.000150775
0.000369265
0.000369149
0.000150302
1.9554e-05
1.95563e-05
0.000149808
0.000369162
0.000368733
0.000149173
1.95283e-05
1.95e-05
0.000148617
0.000368618
0.00036783
0.000147757
1.94936e-05
1.94865e-05
0.00014688
0.000367546
0.000366313
0.00014577
1.94498e-05
1.94162e-05
0.000144826
0.000365957
0.000364383
0.000143402
1.9418e-05
1.93877e-05
0.000142251
0.000363998
0.000362197
0.000140695
1.93657e-05
1.9343e-05
0.000139462
0.000361809
0.000359813
0.000137872
1.93523e-05
1.93774e-05
0.000136437
0.000359585
0.000357727
0.00013479
1.93835e-05
1.94254e-05
0.000133486
0.000357865
0.000356606
0.000132036
1.94805e-05
1.95787e-05
0.00013104
0.000357459
0.000357114
0.000129797
1.96959e-05
1.98611e-05
0.000129126
0.000359161
0.000361029
0.00012774
2.00457e-05
2.02259e-05
0.000126804
0.000364754
0.000370359
0.000128312
2.04347e-05
2.06411e-05
0.000128983
0.000375236
0.000377922
0.000128185
2.06929e-05
2.08397e-05
0.000125816
0.000383536
0.000389819
0.000132555
2.11346e-05
2.13397e-05
0.000128693
0.000395257
0.000400562
0.000131926
2.16913e-05
2.19509e-05
0.000133735
0.000410499
0.000413205
0.000136738
2.23227e-05
2.28361e-05
0.000143545
0.000425525
0.000426745
0.000146827
2.33262e-05
2.37262e-05
0.000152214
0.000436381
0.000440437
0.000157486
2.45701e-05
2.64139e-05
0.000182935
0.000459852
0.000459231
0.000193739
1.98365e-05
1.52374e-05
4.7151e-05
0.000128853
0.000359607
0.000111449
1.79956e-05
1.88882e-05
9.97453e-05
0.000330345
0.000347782
0.000103688
1.93359e-05
1.968e-05
9.79912e-05
0.000332304
0.000357148
0.000105647
2.02547e-05
2.08247e-05
0.000103935
0.000351975
0.000385923
0.00011784
2.1486e-05
2.22252e-05
0.000116919
0.000378252
0.000414393
0.000136006
2.31046e-05
2.43164e-05
0.000140008
0.000417275
0.000467936
0.000169756
2.68793e-05
2.05652e-05
0.000188546
0.000482431
0.000129472
4.45466e-05
1.64244e-05
1.96865e-05
0.000121553
0.000404156
0.00039535
0.000112637
2.1378e-05
2.26785e-05
0.000147723
0.000488566
0.00049891
0.000149596
2.36848e-05
2.50123e-05
0.00017484
0.000556006
0.000571863
0.000187312
2.67972e-05
2.9973e-05
0.000222957
0.000624107
0.000602897
0.000240405
2.33282e-05
1.76432e-05
5.46749e-05
0.000159007
0.000489746
0.000144685
2.08846e-05
2.26051e-05
0.000134573
0.000479442
0.000550644
0.000165422
2.41023e-05
2.57586e-05
0.000165768
0.000543479
0.000618323
0.000212013
2.97299e-05
2.3759e-05
0.000244405
0.000624028
0.000168273
5.37895e-05
1.75867e-05
2.19148e-05
0.000152521
0.000555333
0.00057239
0.000159958
2.47161e-05
2.86565e-05
0.000225998
0.000737695
0.000772765
0.000266216
3.34691e-05
2.74765e-05
0.000308239
0.000783614
0.000216193
6.30296e-05
1.85135e-05
2.39874e-05
0.000204047
0.000689294
0.000685293
0.000197556
2.79564e-05
3.51405e-05
0.000295372
0.000873863
0.000890752
0.000343622
2.91563e-05
1.95214e-05
7.134e-05
0.000270456
0.000899953
0.000264901
2.79396e-05
3.52999e-05
0.000280221
0.000969167
0.00134681
0.000473766
4.83194e-05
4.02622e-05
0.000505288
0.00129479
0.000457853
0.000120281
2.62804e-05
4.6902e-05
0.000491033
0.00140866
0.00140876
0.000525322
4.37422e-05
2.98035e-05
0.000135873
0.000555979
0.00194863
0.000648253
6.49732e-05
6.40995e-05
0.000747281
0.0021177
0.000964322
0.000266366
4.07526e-05
6.49216e-05
0.000867602
0.00252814
0.00167001
0.000553875
4.32291e-05
8.02878e-05
0.000976812
0.00196976
0.0016894
0.000817162
6.60138e-05
6.67798e-05
0.000778177
0.00185146
0.00237196
0.000857645
7.64788e-05
0.000105526
0.00159899
0.00394787
0.000879046
0.00027325
5.99252e-05
6.13509e-05
0.000766015
0.00175542
0.000542709
0.000193911
4.27637e-05
4.63978e-05
0.000473742
0.00113742
0.000971203
0.000348069
4.66565e-05
2.53817e-05
8.85762e-05
0.000278001
0.000655253
0.000354544
3.06535e-05
2.89083e-05
0.00011493
0.000297139
0.000721042
0.000314665
3.30971e-05
3.53258e-05
0.000257435
0.000653686
0.000212402
7.97881e-05
2.33439e-05
2.78064e-05
0.000250154
0.00056324
0.000517016
0.00020961
3.12509e-05
2.17785e-05
6.83047e-05
0.000173232
0.000481055
0.000214117
2.52926e-05
2.92378e-05
0.000186667
0.00044292
0.00015392
6.42631e-05
2.12085e-05
2.38777e-05
0.000190946
0.000425848
0.000385929
0.000168134
2.80221e-05
2.08036e-05
5.92011e-05
0.000137537
0.000375997
0.000171672
2.25968e-05
2.69755e-05
0.000151431
0.000342441
0.000124157
5.58573e-05
2.04898e-05
2.19521e-05
0.000159996
0.000338783
0.000305556
0.000140376
2.62098e-05
2.00688e-05
5.25383e-05
0.000114261
0.00030859
0.000147267
2.09921e-05
2.56594e-05
0.000130676
0.000281593
0.000110517
5.20841e-05
2.01461e-05
2.10898e-05
0.000149352
0.000299648
0.000254551
0.000120655
2.64906e-05
2.20756e-05
9.50541e-05
0.000207507
8.20578e-05
3.70523e-05
1.79605e-05
1.74744e-05
9.9869e-05
0.000204139
0.000193673
9.27395e-05
2.24335e-05
1.83516e-05
3.84829e-05
7.87802e-05
0.000188608
9.6439e-05
1.74907e-05
2.2303e-05
8.81496e-05
0.000173809
7.30901e-05
3.62904e-05
1.77984e-05
1.66332e-05
8.88426e-05
0.000167455
0.00016096
8.52103e-05
2.15467e-05
1.8057e-05
3.61881e-05
7.05938e-05
0.000160772
8.71326e-05
1.69949e-05
2.17095e-05
8.15698e-05
0.000150547
6.67613e-05
3.45205e-05
1.7579e-05
1.63144e-05
8.07819e-05
0.00014634
0.000141029
7.82817e-05
2.13541e-05
1.76039e-05
3.37917e-05
6.39457e-05
0.000138029
7.7493e-05
1.59794e-05
2.09041e-05
7.24886e-05
0.000131567
6.1008e-05
3.37682e-05
1.72514e-05
1.55436e-05
7.15926e-05
0.000125293
0.00012009
6.62671e-05
2.0445e-05
1.68793e-05
3.09161e-05
5.41655e-05
0.000107556
7.75137e-05
1.48349e-05
1.90538e-05
3.7969e-05
6.26571e-05
0.000142368
8.28731e-05
1.72117e-05
2.18398e-05
7.61981e-05
0.000131828
6.36667e-05
3.66707e-05
1.78422e-05
1.62591e-05
7.89717e-05
0.000132168
0.000125434
7.34374e-05
2.13789e-05
1.78212e-05
3.68778e-05
6.24626e-05
0.000130818
7.87788e-05
1.62764e-05
2.1308e-05
7.33499e-05
0.00012373
6.09824e-05
3.6857e-05
1.77459e-05
1.60896e-05
7.40298e-05
0.000118293
0.000111972
6.69652e-05
2.1361e-05
1.77601e-05
3.61513e-05
5.71216e-05
0.000110063
6.9467e-05
1.57001e-05
2.06503e-05
6.29316e-05
0.000103009
5.06859e-05
3.30671e-05
1.68757e-05
1.45175e-05
6.823e-05
9.09599e-05
5.54988e-05
3.78525e-05
1.89963e-05
1.68721e-05
6.8669e-05
0.000109433
9.97939e-05
6.21895e-05
2.15262e-05
1.75609e-05
3.65453e-05
5.30854e-05
9.87602e-05
6.45146e-05
1.55818e-05
2.06128e-05
5.95249e-05
8.98077e-05
4.80682e-05
3.43052e-05
1.70667e-05
1.4556e-05
6.36604e-05
8.21796e-05
5.21885e-05
3.76385e-05
1.91998e-05
1.67491e-05
6.57583e-05
0.000100533
9.07195e-05
5.94803e-05
2.12563e-05
1.74433e-05
3.69621e-05
5.05999e-05
9.35016e-05
6.23216e-05
1.55166e-05
2.05961e-05
5.66308e-05
8.48335e-05
4.61942e-05
3.44085e-05
1.69642e-05
1.45333e-05
5.94594e-05
7.54964e-05
4.88784e-05
3.68751e-05
1.92093e-05
1.65275e-05
6.10298e-05
9.25808e-05
8.32402e-05
5.58859e-05
2.11136e-05
1.73789e-05
3.68921e-05
4.71753e-05
8.42933e-05
5.74188e-05
1.54751e-05
2.05693e-05
5.27141e-05
7.63771e-05
4.36096e-05
3.4618e-05
1.73115e-05
1.46706e-05
5.56172e-05
6.75702e-05
4.5063e-05
3.66829e-05
1.93103e-05
1.62344e-05
5.46895e-05
8.24609e-05
7.39287e-05
4.98695e-05
2.0765e-05
1.67813e-05
3.47672e-05
4.23669e-05
6.65031e-05
5.51212e-05
1.41425e-05
1.897e-05
3.69564e-05
4.48881e-05
8.14376e-05
5.41649e-05
1.60403e-05
2.09896e-05
5.0015e-05
7.29119e-05
4.25757e-05
3.58011e-05
1.72803e-05
1.45081e-05
5.36745e-05
6.5267e-05
4.48099e-05
3.78473e-05
1.90783e-05
1.59041e-05
5.40922e-05
8.01806e-05
7.19108e-05
4.97787e-05
2.07887e-05
1.71567e-05
3.60016e-05
4.2351e-05
6.48785e-05
5.49404e-05
1.42246e-05
1.91682e-05
3.82427e-05
4.45986e-05
7.90177e-05
5.29515e-05
1.61624e-05
2.10614e-05
4.90709e-05
7.09352e-05
4.20944e-05
3.65938e-05
1.7205e-05
1.44396e-05
5.42777e-05
6.3729e-05
4.43358e-05
3.86282e-05
1.91564e-05
1.61102e-05
5.28778e-05
7.77481e-05
6.92519e-05
4.88579e-05
2.08917e-05
1.74295e-05
3.65262e-05
4.15851e-05
6.04548e-05
5.39185e-05
1.44204e-05
1.89083e-05
3.97295e-05
4.38648e-05
6.69722e-05
5.14501e-05
1.5165e-05
1.9657e-05
4.0062e-05
4.63735e-05
7.90345e-05
5.25672e-05
1.6487e-05
2.09563e-05
4.90518e-05
7.04758e-05
4.26864e-05
3.77633e-05
1.70523e-05
1.42227e-05
5.43141e-05
6.31292e-05
4.45179e-05
4.01576e-05
1.92761e-05
1.61813e-05
5.21312e-05
7.62967e-05
6.83709e-05
4.87737e-05
2.10761e-05
1.75012e-05
3.77192e-05
4.19118e-05
6.00295e-05
5.35695e-05
1.46464e-05
1.92224e-05
4.06798e-05
4.42072e-05
6.58808e-05
5.16694e-05
1.55219e-05
1.96039e-05
4.09278e-05
4.62301e-05
7.77238e-05
5.17069e-05
1.62351e-05
2.1012e-05
4.86866e-05
6.92031e-05
4.25963e-05
3.90325e-05
1.71823e-05
1.42637e-05
5.44638e-05
6.20288e-05
4.58739e-05
4.22704e-05
1.92731e-05
1.54819e-05
5.26776e-05
6.76038e-05
4.78343e-05
4.30616e-05
1.97907e-05
1.65103e-05
5.29415e-05
7.90998e-05
7.06078e-05
4.98236e-05
2.13719e-05
1.75069e-05
3.99808e-05
4.38016e-05
6.22818e-05
5.58902e-05
1.44606e-05
1.92734e-05
4.30532e-05
4.64919e-05
6.77633e-05
5.38073e-05
1.54962e-05
1.9841e-05
4.38741e-05
4.83707e-05
7.94055e-05
5.35044e-05
1.65399e-05
2.12847e-05
5.05048e-05
7.08841e-05
4.44771e-05
4.13238e-05
1.74465e-05
1.46092e-05
5.63671e-05
6.37123e-05
4.77344e-05
4.44225e-05
1.95818e-05
1.58676e-05
5.44972e-05
6.90144e-05
4.95533e-05
4.50056e-05
1.98995e-05
1.64621e-05
5.41734e-05
7.98725e-05
7.13643e-05
5.09542e-05
2.11173e-05
1.73004e-05
4.09213e-05
4.42856e-05
6.28968e-05
5.5997e-05
1.45436e-05
1.95386e-05
4.36594e-05
4.69426e-05
6.70308e-05
5.305e-05
1.57719e-05
1.99981e-05
4.44964e-05
4.84397e-05
7.70467e-05
5.30667e-05
1.65741e-05
2.13882e-05
5.02812e-05
6.92754e-05
4.40529e-05
4.14885e-05
1.75652e-05
1.46122e-05
5.58807e-05
6.2374e-05
4.70739e-05
4.40636e-05
1.94216e-05
1.54125e-05
5.25441e-05
6.64312e-05
4.94062e-05
4.5065e-05
1.96329e-05
1.56134e-05
5.3922e-05
6.91121e-05
5.08012e-05
4.76945e-05
1.99309e-05
1.66332e-05
5.51396e-05
7.96109e-05
7.10388e-05
5.2457e-05
2.13315e-05
1.76511e-05
4.34199e-05
4.59385e-05
6.32171e-05
5.79097e-05
1.47768e-05
1.96284e-05
4.54501e-05
4.82007e-05
6.70121e-05
5.38267e-05
1.57882e-05
1.98971e-05
4.60237e-05
5.0396e-05
6.95102e-05
5.47067e-05
1.57901e-05
2.00267e-05
4.87217e-05
5.15626e-05
7.93554e-05
5.54861e-05
1.66155e-05
2.13236e-05
5.26687e-05
7.11226e-05
4.6311e-05
4.41852e-05
1.75752e-05
1.45996e-05
5.86275e-05
6.44466e-05
4.94109e-05
4.6637e-05
1.97322e-05
1.58666e-05
5.4297e-05
6.85869e-05
5.17078e-05
4.7666e-05
2.00573e-05
1.59999e-05
5.62218e-05
7.08554e-05
5.29777e-05
5.03568e-05
2.02498e-05
1.68775e-05
5.70844e-05
8.0839e-05
7.26061e-05
5.42749e-05
2.1541e-05
1.75685e-05
4.52457e-05
4.77844e-05
6.49692e-05
5.96806e-05
1.46835e-05
1.98344e-05
4.75016e-05
5.03289e-05
6.86364e-05
5.49072e-05
1.58076e-05
2.00429e-05
4.78443e-05
5.20179e-05
7.03084e-05
5.59505e-05
1.59115e-05
2.0334e-05
5.04357e-05
5.30095e-05
7.95609e-05
5.63663e-05
1.68343e-05
2.16707e-05
5.43403e-05
7.20476e-05
4.86175e-05
4.65493e-05
1.80888e-05
1.52472e-05
5.96919e-05
6.47443e-05
5.09135e-05
4.87275e-05
2.00678e-05
1.5858e-05
5.61995e-05
6.87555e-05
5.27169e-05
4.88897e-05
2.00006e-05
1.57876e-05
5.60002e-05
7.06714e-05
5.42783e-05
5.04343e-05
2.00716e-05
1.60864e-05
5.88725e-05
7.25786e-05
5.51211e-05
5.31339e-05
2.02753e-05
1.6851e-05
5.89372e-05
8.16753e-05
7.39225e-05
5.62225e-05
2.15539e-05
1.76844e-05
4.67602e-05
4.96289e-05
6.5341e-05
6.06149e-05
1.47252e-05
2.00957e-05
4.90549e-05
5.18497e-05
6.89099e-05
5.56049e-05
1.61245e-05
2.03339e-05
4.98409e-05
5.3652e-05
7.04506e-05
5.6579e-05
1.59548e-05
2.01495e-05
5.12708e-05
5.46392e-05
7.27744e-05
5.89329e-05
1.61283e-05
2.04077e-05
5.42316e-05
5.58395e-05
8.26837e-05
6.01378e-05
1.69551e-05
2.18112e-05
5.77334e-05
7.5077e-05
5.15687e-05
4.95213e-05
1.79751e-05
1.49035e-05
6.36791e-05
6.7988e-05
5.40696e-05
5.1716e-05
2.00052e-05
1.58607e-05
5.87241e-05
7.21349e-05
5.60424e-05
5.20416e-05
2.02825e-05
1.61198e-05
5.93807e-05
7.37075e-05
5.7215e-05
5.36143e-05
2.02455e-05
1.6133e-05
6.18334e-05
7.57545e-05
5.83385e-05
5.64209e-05
2.04872e-05
1.71594e-05
6.22352e-05
8.48819e-05
7.72935e-05
5.95495e-05
2.18267e-05
1.79665e-05
5.05227e-05
5.32693e-05
6.85314e-05
6.40035e-05
1.51132e-05
2.02805e-05
5.26888e-05
5.55317e-05
7.21097e-05
5.92224e-05
1.62564e-05
2.06186e-05
5.2891e-05
5.7226e-05
7.33782e-05
5.92272e-05
1.62874e-05
2.05121e-05
5.43318e-05
5.78828e-05
7.54374e-05
6.15884e-05
1.64485e-05
2.07094e-05
5.76482e-05
5.88276e-05
8.47033e-05
6.31759e-05
1.71694e-05
2.21061e-05
6.08985e-05
7.77529e-05
5.46086e-05
5.2481e-05
1.81805e-05
1.51824e-05
6.62902e-05
7.01957e-05
5.70962e-05
5.456e-05
2.03238e-05
1.62252e-05
6.10486e-05
7.3933e-05
5.90343e-05
5.49134e-05
2.06603e-05
1.63677e-05
6.14605e-05
7.58279e-05
6.01958e-05
5.62528e-05
2.05009e-05
1.64275e-05
6.3929e-05
7.75985e-05
6.08382e-05
5.91063e-05
2.06763e-05
1.7187e-05
6.43867e-05
8.63695e-05
7.90211e-05
6.20217e-05
2.2165e-05
1.82268e-05
5.30643e-05
5.56511e-05
6.9768e-05
6.64447e-05
1.51995e-05
2.05088e-05
5.51144e-05
5.77212e-05
7.25611e-05
6.02563e-05
1.63493e-05
2.08235e-05
5.54938e-05
5.92316e-05
7.41504e-05
6.11573e-05
1.64716e-05
2.05929e-05
5.66956e-05
6.00579e-05
7.60104e-05
6.27165e-05
1.63896e-05
2.05367e-05
5.85703e-05
6.15983e-05
7.88596e-05
6.61371e-05
1.64122e-05
2.07599e-05
6.17178e-05
6.26264e-05
8.88115e-05
6.68232e-05
1.72936e-05
2.24574e-05
6.47438e-05
8.1799e-05
5.88354e-05
5.6935e-05
1.86453e-05
1.55006e-05
7.05451e-05
7.39896e-05
6.13325e-05
5.92123e-05
2.06652e-05
1.64671e-05
6.55416e-05
7.7768e-05
6.31054e-05
5.92825e-05
2.0808e-05
1.64929e-05
6.58999e-05
8.00147e-05
6.47445e-05
6.10222e-05
2.06696e-05
1.65314e-05
6.91596e-05
8.28878e-05
6.61215e-05
6.41759e-05
2.09145e-05
1.75003e-05
6.94667e-05
9.18866e-05
8.4208e-05
6.70793e-05
2.26462e-05
1.86416e-05
5.86029e-05
6.0734e-05
7.5541e-05
7.24276e-05
1.55472e-05
2.07824e-05
6.07142e-05
6.33748e-05
7.82152e-05
6.67345e-05
1.66451e-05
2.10036e-05
6.04096e-05
6.45343e-05
7.92921e-05
6.62608e-05
1.67687e-05
2.08572e-05
6.18235e-05
6.53525e-05
8.13086e-05
6.85111e-05
1.66579e-05
2.1116e-05
6.48972e-05
6.60353e-05
9.03958e-05
6.92427e-05
1.75824e-05
2.30375e-05
6.76186e-05
8.35075e-05
6.19149e-05
6.0514e-05
1.90467e-05
1.57167e-05
7.35015e-05
7.60036e-05
6.44876e-05
6.27923e-05
2.09986e-05
1.67567e-05
6.86923e-05
7.95731e-05
6.62151e-05
6.27264e-05
2.10701e-05
1.6676e-05
6.84176e-05
8.14317e-05
6.74645e-05
6.43636e-05
2.09767e-05
1.68578e-05
7.10834e-05
8.42391e-05
6.89237e-05
6.79174e-05
2.14318e-05
1.78313e-05
7.2171e-05
9.33925e-05
8.59673e-05
7.0318e-05
2.31681e-05
1.90557e-05
6.26976e-05
6.41482e-05
7.82767e-05
7.63501e-05
1.58051e-05
2.09951e-05
6.43845e-05
6.66862e-05
8.07693e-05
6.99054e-05
1.68048e-05
2.13547e-05
6.4381e-05
6.79856e-05
8.19903e-05
6.98562e-05
1.69038e-05
2.13636e-05
6.61649e-05
6.90142e-05
8.41823e-05
7.19411e-05
1.7004e-05
2.1828e-05
6.97485e-05
6.99096e-05
9.34735e-05
7.32126e-05
1.82883e-05
2.38496e-05
7.19613e-05
8.67154e-05
6.63506e-05
6.59217e-05
1.95921e-05
1.63325e-05
7.83942e-05
8.03518e-05
6.91238e-05
6.79127e-05
2.13799e-05
1.70556e-05
7.42822e-05
8.42345e-05
7.11512e-05
6.82731e-05
2.17e-05
1.70627e-05
7.4257e-05
8.66457e-05
7.1993e-05
7.09375e-05
2.20242e-05
1.84981e-05
7.41193e-05
9.48958e-05
8.76259e-05
7.2811e-05
2.42609e-05
1.97703e-05
6.62598e-05
6.70879e-05
7.95914e-05
7.83096e-05
1.63936e-05
2.16847e-05
6.81606e-05
6.94166e-05
8.25333e-05
7.33878e-05
1.7354e-05
2.21739e-05
6.85966e-05
7.1153e-05
8.46824e-05
7.30709e-05
1.74917e-05
2.25549e-05
7.20831e-05
7.19107e-05
9.28352e-05
7.41285e-05
1.86575e-05
2.45631e-05
7.33818e-05
8.65523e-05
6.82977e-05
6.83534e-05
2.01607e-05
1.66078e-05
7.99055e-05
8.04735e-05
7.08061e-05
7.04375e-05
2.20019e-05
1.73132e-05
7.4615e-05
8.41517e-05
7.26581e-05
7.08742e-05
2.23248e-05
1.77083e-05
7.5035e-05
8.659e-05
7.39486e-05
7.4002e-05
2.27963e-05
1.89055e-05
7.60959e-05
9.45909e-05
8.80907e-05
7.5516e-05
2.50971e-05
2.02935e-05
6.96391e-05
7.0123e-05
8.09265e-05
8.09991e-05
1.66449e-05
2.23091e-05
7.17603e-05
7.19415e-05
8.39649e-05
7.55902e-05
1.77596e-05
2.28304e-05
7.23887e-05
7.39308e-05
8.66526e-05
7.55687e-05
1.80269e-05
2.33925e-05
7.63966e-05
7.50575e-05
9.51507e-05
7.74556e-05
1.94435e-05
2.55536e-05
7.70016e-05
8.90818e-05
7.19742e-05
7.29661e-05
2.06514e-05
1.69869e-05
8.36915e-05
8.36142e-05
7.46276e-05
7.54502e-05
2.28167e-05
1.81524e-05
7.93051e-05
8.78963e-05
7.73216e-05
7.63948e-05
2.34884e-05
1.87093e-05
7.93865e-05
9.11547e-05
7.9181e-05
8.05861e-05
2.42492e-05
2.01354e-05
8.16002e-05
9.97243e-05
9.34432e-05
8.14074e-05
2.65899e-05
2.15406e-05
7.67555e-05
7.63861e-05
8.72018e-05
8.78324e-05
1.76591e-05
2.34328e-05
7.90499e-05
7.8469e-05
9.11468e-05
8.23277e-05
1.86948e-05
2.46656e-05
8.17368e-05
8.03094e-05
9.94521e-05
8.18774e-05
2.05383e-05
2.70108e-05
8.124e-05
9.35086e-05
7.67771e-05
7.83361e-05
2.20228e-05
1.79169e-05
8.83617e-05
8.78569e-05
7.96121e-05
8.10179e-05
2.39796e-05
1.91183e-05
8.40011e-05
9.23927e-05
8.25178e-05
8.24935e-05
2.48734e-05
1.98203e-05
8.45151e-05
9.65161e-05
8.51648e-05
8.76701e-05
2.58343e-05
2.14791e-05
8.8104e-05
0.000105995
9.94742e-05
8.82243e-05
2.83671e-05
2.31386e-05
8.49683e-05
8.33404e-05
9.41524e-05
9.56725e-05
1.87539e-05
2.51213e-05
8.73295e-05
8.62264e-05
9.92309e-05
8.99953e-05
2.00922e-05
2.63769e-05
9.04126e-05
8.80694e-05
0.000108358
8.98883e-05
2.15561e-05
2.87805e-05
9.00902e-05
0.000102362
8.64051e-05
8.8672e-05
2.42396e-05
1.99255e-05
9.77111e-05
9.71764e-05
8.93679e-05
9.18531e-05
2.64944e-05
2.12358e-05
9.37517e-05
0.000103196
9.22692e-05
9.56076e-05
2.78878e-05
2.32618e-05
9.44947e-05
0.00011302
0.000106753
9.49783e-05
3.07428e-05
2.5113e-05
9.29512e-05
9.07355e-05
0.000101964
0.000102577
2.03573e-05
2.76984e-05
9.76066e-05
9.34773e-05
0.000112426
9.57545e-05
2.31009e-05
3.0836e-05
9.56435e-05
0.000106973
9.09377e-05
9.2216e-05
2.50695e-05
2.001e-05
0.00010326
0.000101299
9.35521e-05
9.51824e-05
2.72442e-05
2.18496e-05
9.62576e-05
0.000105767
9.56389e-05
9.90058e-05
2.90078e-05
2.41702e-05
9.68445e-05
0.000114778
0.000109204
9.81496e-05
3.21284e-05
2.62759e-05
9.71698e-05
9.46674e-05
0.000104507
0.000105142
2.15883e-05
2.92309e-05
0.000102585
9.71392e-05
0.000114537
9.93176e-05
2.45128e-05
3.27065e-05
9.96004e-05
0.000109492
9.60138e-05
9.88737e-05
2.69481e-05
2.18034e-05
0.000106767
0.000105345
9.78691e-05
0.000103539
2.93464e-05
2.39536e-05
9.94618e-05
0.000114968
0.000110076
0.000100255
3.26632e-05
2.72993e-05
9.91959e-05
9.65913e-05
0.000105676
0.000106247
2.23884e-05
3.04774e-05
0.000105341
9.93173e-05
0.000115113
0.000100921
2.52965e-05
3.40658e-05
0.000101738
0.000110409
9.83631e-05
0.000102113
2.79555e-05
2.26831e-05
0.000108437
0.000106789
0.000100626
0.000107295
3.06549e-05
2.5332e-05
0.000102272
0.000116585
0.000111895
0.00010289
3.40653e-05
2.79837e-05
0.000102953
9.96854e-05
0.000108149
0.000111447
2.18953e-05
3.04928e-05
0.000108463
0.000101969
0.000117443
0.000102667
2.57929e-05
3.52142e-05
0.000103773
0.000112913
0.000102175
0.000107501
2.94372e-05
2.40213e-05
0.000111722
0.000110321
0.000105513
0.000114221
3.26302e-05
2.71603e-05
0.000108255
0.000121848
0.000117205
0.000109428
3.63671e-05
2.99319e-05
0.000111739
0.000106426
0.000114846
0.000116535
2.42813e-05
3.29965e-05
0.000118582
0.000109365
0.000126791
0.000112821
2.71957e-05
3.6099e-05
0.000112428
0.000122043
0.000110495
0.000119855
3.14008e-05
2.71716e-05
0.000119523
0.000124954
0.000121019
0.000119105
3.77572e-05
3.20229e-05
0.000118822
0.000112642
0.000121744
0.000122709
2.62434e-05
3.55559e-05
0.00012554
0.000116807
0.000132914
0.000118401
2.96775e-05
3.95484e-05
0.000119991
0.000128084
0.000117699
0.000127942
3.32942e-05