/*--------------------------------*- C++ -*----------------------------------*\
| =========                 |                                                 |
| \\      /  F ield         | OpenFOAM: The Open Source CFD Toolbox           |
|  \\    /   O peration     | Version:  v2006                                 |
|   \\  /    A nd           | Website:  www.openfoam.com                      |
|    \\/     M anipulation  |                                                 |
\*---------------------------------------------------------------------------*/
FoamFile
{
    version     2.0;
    format      ascii;
    class       volScalarField;
    location    "0.069";
    object      p;
}
// * * * * * * * * * * * * * * * * * * * * * * * * * * * * * * * * * * * * * //

dimensions      [1 -1 -2 0 0 0 0];


internalField   nonuniform List<scalar> 
16277
(
147985
147991
147994
147980
147990
147987
147988
147991
147995
148000
148005
148011
148017
148023
148030
148036
148043
148051
148058
148066
148074
148082
148091
148100
148109
148119
148128
148138
148149
148159
148170
148181
148192
148204
148215
148227
148239
148251
148263
148276
148288
148301
148313
148326
148339
148352
148364
148377
148390
148403
148416
148428
148441
148454
148466
148479
148491
148503
148515
148527
148539
148550
148561
148572
148583
148594
148604
148614
148624
148634
148643
148652
148660
148669
148677
148684
148691
148698
148705
148711
148717
148723
148728
148732
148734
148736
148736
148736
148735
148737
148736
148740
148745
148755
148771
148783
148790
148779
148778
148774
148771
148772
148773
148767
148767
148767
148762
148762
148762
148758
148758
148758
148754
148754
148754
148752
148752
148752
148750
148749
148749
148748
148748
148748
148747
148746
148746
148746
148746
148746
148745
148745
148745
148745
148745
148745
148745
148745
148745
148745
148745
148745
148746
148746
148745
148746
148747
148747
148748
148747
148747
148749
148749
148749
148750
148750
148750
148752
148752
148752
148754
148753
148753
148756
148756
148756
148758
148758
148758
148760
148760
148761
148763
148762
148762
148765
148766
148766
148768
148768
148768
148771
148772
148772
148774
148774
148774
148778
148778
148778
148781
148781
148781
148785
148785
148785
148789
148789
148788
148793
148793
148793
148797
148797
148797
148801
148801
148802
148806
148805
148805
148810
148810
148811
148815
148815
148815
148820
148820
148820
148825
148825
148824
148830
148830
148830
148835
148835
148835
148841
148841
148841
148846
148846
148846
148852
148853
148853
148858
148858
148858
148864
148865
148865
148871
148870
148870
148877
148877
148878
148884
148883
148883
148890
148891
148891
148897
148897
148897
148904
148905
148905
148912
148911
148911
148919
148919
148919
148926
148926
148926
148934
148934
148935
148942
148942
148942
148950
148950
148951
148958
148958
148958
148967
148967
148967
148975
148975
148975
148984
148984
148984
148992
148992
148992
149001
149002
149002
149010
149010
149010
149019
149020
149020
149029
149028
149028
149038
149038
149039
149048
149047
149047
149057
149057
149058
149067
149067
149066
149076
149077
149077
149086
149086
149086
149096
149096
149096
149106
149105
149105
149115
149116
149116
149125
149125
149125
149135
149135
149135
149145
149144
149144
149154
149154
149155
149163
149163
149163
149173
149173
149173
149182
149181
149181
149190
149190
149191
149199
149198
149198
149207
149207
149207
149214
149214
149214
149222
149222
149222
149228
149228
149228
149235
149235
149235
149240
149240
149240
149245
149246
149246
149250
149250
149250
149254
149254
149254
149256
149256
149256
149259
149259
149259
149260
149259
149259
149260
149260
149260
149260
149260
149260
149259
149259
149259
149256
149256
149257
149254
149254
149254
149249
149249
149250
149245
149245
149245
149239
149239
149240
149234
149234
149234
149227
149227
149227
149221
149221
149220
149212
149213
149213
149206
149206
149205
149197
149197
149197
149190
149189
149189
149180
149180
149181
149173
149173
149172
149163
149163
149164
149156
149156
149155
149146
149147
149147
149139
149139
149139
149130
149130
149130
149123
149123
149123
149114
149115
149115
149108
149108
149108
149100
149100
149100
149094
149094
149094
149087
149087
149087
149082
149082
149082
149075
149076
149076
149071
149071
149071
149065
149066
149066
149062
149062
149061
149057
149057
149057
149054
149054
149053
149049
149050
149050
149047
149047
149047
149043
149043
149044
149041
149041
149041
149038
149038
149038
149036
149036
149036
149034
149034
149034
149032
149032
149032
149030
149030
149030
149029
149029
149029
149027
149027
149027
149025
149026
149026
149024
149024
149024
149023
149023
149023
149021
149021
149021
149021
149021
149021
149019
149019
149019
149018
149018
149019
149017
149017
149017
149016
149016
149017
149015
149015
149015
149015
149015
149015
149013
149013
149013
149013
149013
149013
149012
149012
149012
149011
149011
149011
149010
149010
149010
149009
149010
149010
149008
149008
149008
149007
149008
149008
149007
149007
149007
149006
149006
149007
149005
149005
149004
149005
149005
149006
149004
149004
149004
149003
149003
149003
149002
149002
149002
149000
149000
149001
149000
148999
148999
148999
149000
149002
149011
149008
149003
148978
148978
148982
148988
148993
149002
149000
149000
149001
149000
149000
149000
149000
149000
149000
149000
149000
149001
149000
149002
149001
149001
149002
149003
149003
149004
149005
149006
149005
149003
149000
148999
148999
148998
148995
148997
149000
148996
148998
148999
148998
148999
148999
148999
148999
148999
149000
149000
149000
149000
149000
149000
149000
149000
149000
149001
149001
149001
149002
149002
149002
149002
149002
149002
149002
149002
149002
149003
149003
149003
149003
149003
149003
149003
149004
149004
149004
149004
149004
149004
149004
149005
149005
149005
149005
149005
149005
149005
149005
149005
149005
149006
149006
149006
149006
149006
149006
149006
149006
149006
149007
149007
149007
149007
149007
149007
149007
149007
149007
149008
149008
149008
149008
149008
149008
149008
149008
149008
149009
149009
149009
149009
149009
149009
149009
149009
149009
149010
149009
149009
149010
149010
149010
149010
149010
149010
149010
149010
149010
149010
149010
149011
149011
149011
149011
149011
149011
149011
149011
149011
149011
149011
149011
149012
149012
149012
149012
149012
149012
149012
149012
149012
149012
149012
149012
149012
149013
149013
149013
149013
149013
149013
149013
149013
149013
149013
149013
149013
149013
149013
149013
149013
149014
149014
149014
149014
149014
149014
149014
149014
149014
149014
149014
149014
149014
149014
149014
149014
149014
149014
149014
149014
149014
149014
149014
149014
149014
149014
149014
149014
149014
149014
149014
149014
149014
149014
149014
149014
149014
149014
149014
149014
149014
149014
149013
149013
149013
149013
149013
149013
149013
149013
149012
149012
149013
149012
149012
149012
149012
149012
149012
149011
149011
149011
149010
149010
149011
149010
149010
149010
149009
149009
149009
149008
149008
149008
149007
149007
149007
149006
149006
149006
149005
149005
149005
149004
149004
149004
149003
149003
149002
149001
149001
149001
148999
148999
149000
148998
148997
148997
148995
148995
148996
148993
148993
148992
148989
148990
148990
148988
148987
148986
148982
148983
148984
148980
148979
148978
148974
148974
148975
148967
148968
148968
148958
148959
148961
148956
148955
148954
148947
148949
148952
148950
148948
148945
148947
148949
148951
148953
148951
148949
148952
148954
148956
148958
148956
148954
148957
148960
148962
148969
148967
148965
148972
148973
148975
148979
148977
148976
148981
148981
148981
148984
148986
148986
149007
149002
148998
149017
149024
149022
148954
148969
148968
148997
148994
148993
149008
149009
149010
149017
149015
149014
149024
149024
149025
149030
149031
149031
149035
149035
149033
149044
149043
149043
149050
149051
149052
149059
149062
149063
149066
149066
149064
149078
149080
149080
149097
149098
149091
149055
149062
149037
149084
149084
149087
149100
149101
149102
149103
149106
149110
149115
149117
149119
149119
149122
149126
149135
149130
149126
149149
149150
149153
149164
149169
149165
149145
149122
149139
149161
149158
149155
149171
149174
149177
149190
149190
149190
149200
149201
149202
149221
149217
149212
149239
149242
149238
149220
149232
149206
149241
149242
149243
149257
149267
149273
149274
149277
149280
149300
149301
149300
149324
149324
149320
149308
149319
149287
149345
149345
149346
149365
149365
149363
149382
149390
149395
149420
149422
149421
149392
149428
149415
149463
149459
149458
149475
149485
149491
149529
149526
149520
149556
149561
149560
149592
149586
149579
149650
149652
149649
149694
149699
149694
149760
149733
149751
149816
149825
149822
149901
149902
149887
149995
150002
149997
150147
150124
150087
150120
150170
150188
150273
150218
150163
150123
150178
150226
149991
149988
149957
149684
149688
149634
149308
149380
149395
149220
149168
149079
149060
149086
149096
149014
148975
148915
148938
148960
148972
148934
148907
148872
148831
148911
148880
148870
148849
148850
148844
148848
148853
148863
148853
148839
148822
148834
148846
148817
148810
148806
148823
148832
148832
148816
148827
148834
148805
148804
148802
148823
148826
148820
148829
148821
148807
148800
148801
148805
148836
148837
148828
148808
148825
148834
148802
148800
148798
148837
148838
148834
148807
148817
148834
148809
148795
148789
148839
148845
148844
148839
148829
148825
148800
148801
148808
148841
148846
148843
148833
148831
148830
148809
148806
148807
148849
148852
148849
148842
148841
148840
148833
148827
148822
148809
148840
148797
148880
148865
148839
148827
148840
148847
148843
148792
148817
148850
148856
148851
148846
148838
148829
148813
148837
148803
148876
148865
148843
148826
148842
148850
148836
148794
148817
148849
148863
148863
148859
148846
148828
148815
148791
148845
148855
148859
148849
148823
148838
148851
148799
148831
148807
148851
148866
148872
148853
148845
148838
148807
148832
148793
148875
148860
148834
148814
148827
148836
148778
148828
148794
148843
148842
148854
148814
148814
148816
148843
148848
148847
148824
148823
148823
148794
148791
148793
148834
148837
148832
148820
148819
148821
148803
148796
148795
148824
148835
148835
148828
148815
148796
148778
148781
148786
148825
148826
148816
148795
148811
148820
148799
148790
148782
148812
148828
148833
148800
148793
148789
148754
148787
148733
148804
148795
148794
148766
148766
148765
148802
148802
148795
148778
148787
148798
148756
148750
148752
148778
148787
148787
148766
148759
148752
148726
148756
148712
148771
148766
148764
148737
148735
148733
148782
148780
148769
148749
148753
148761
148712
148708
148712
148741
148751
148751
148727
148722
148718
148690
148720
148674
148734
148728
148727
148699
148697
148697
148749
148744
148732
148709
148712
148717
148671
148667
148670
148689
148710
148717
148714
148689
148650
148644
148611
148703
148680
148697
148681
148656
148654
148656
148702
148699
148688
148664
148666
148673
148612
148646
148623
148655
148657
148664
148620
148621
148622
148638
148640
148634
148611
148617
148625
148596
148572
148604
148631
148638
148627
148600
148602
148609
148614
148617
148613
148591
148587
148583
148574
148530
148559
148582
148593
148581
148548
148547
148551
148570
148577
148574
148553
148550
148551
148521
148544
148510
148586
148574
148566
148525
148524
148523
148546
148542
148528
148491
148514
148528
148528
148436
148475
148501
148535
148497
148475
148467
148471
148487
148491
148487
148458
148458
148461
148491
148504
148508
148477
148470
148465
148425
148433
148427
148454
148453
148450
148414
148412
148412
148435
148432
148420
148388
148411
148426
148432
148333
148374
148401
148435
148392
148379
148369
148373
148400
148411
148413
148369
148365
148366
148372
148377
148374
148346
148342
148344
148304
148331
148293
148340
148331
148334
148299
148299
148300
148324
148324
148317
148284
148279
148276
148309
148311
148303
148281
148288
148291
148289
148235
148259
148279
148298
148281
148232
148231
148237
148246
148252
148249
148208
148208
148210
148224
148231
148229
148203
148199
148198
148161
148178
148151
148202
148196
148194
148160
148159
148158
148198
148196
148185
148151
148151
148154
148170
148170
148160
148129
148129
148135
148065
148123
148085
148119
148105
148141
148070
148076
148074
148088
148096
148094
148046
148048
148054
148071
148079
148077
148050
148045
148044
148009
148051
147988
148088
148048
148057
148009
148013
148013
148018
148020
148012
147969
147966
147966
147979
147982
147977
147941
147937
147936
147961
147962
147953
147922
147932
147937
147934
147850
147895
147916
147951
147908
147883
147876
147883
147899
147906
147903
147874
147866
147865
147875
147883
147881
147833
147831
147833
147841
147849
147848
147811
147807
147807
147763
147802
147747
147813
147787
147797
147753
147753
147750
147768
147771
147764
147726
147723
147724
147745
147747
147741
147704
147700
147699
147740
147738
147725
147694
147697
147707
147631
147691
147648
147683
147663
147707
147626
147632
147630
147636
147645
147645
147581
147585
147590
147603
147609
147606
147559
147559
147564
147574
147586
147588
147555
147550
147536
147509
147456
147563
147521
147578
147533
147499
147496
147508
147520
147521
147511
147462
147458
147460
147470
147473
147468
147422
147417
147418
147435
147438
147432
147392
147390
147393
147409
147411
147402
147366
147367
147376
147288
147373
147318
147359
147324
147394
147293
147305
147304
147319
147328
147328
147279
147276
147277
147291
147301
147302
147236
147236
147241
147247
147256
147254
147201
147200
147202
147208
147217
147216
147172
147169
147170
147121
147155
147112
147172
147149
147157
147105
147105
147104
147113
147116
147109
147063
147059
147059
147077
147081
147075
147032
147029
147032
147056
147056
147046
147001
146999
147001
147016
147017
147007
146967
146969
146979
146882
146964
146912
146955
146926
146988
146890
146897
146896
146899
146907
146906
146839
146842
146847
146860
146869
146869
146798
146802
146809
146820
146829
146827
146778
146775
146776
146783
146793
146791
146755
146745
146741
146688
146727
146670
146748
146717
146726
146665
146664
146661
146667
146671
146664
146613
146610
146609
146634
146635
146625
146569
146563
146560
146584
146586
146577
146529
146527
146528
146546
146547
146535
146491
146492
146501
146400
146497
146433
146479
146436
146521
146397
146408
146408
146411
146419
146417
146356
146355
146357
146365
146373
146371
146304
146304
146309
146314
146321
146317
146263
146259
146261
146264
146272
146269
146208
146208
146211
146215
146226
146224
146179
146177
146170
146108
146091
146122
146136
146151
146131
146077
146073
146076
146078
146084
146075
146017
146010
146011
146026
146030
146023
145967
145963
145964
145971
145976
145969
145918
145916
145918
145930
145933
145923
145877
145881
145889
145801
145839
145810
145842
145832
145856
145776
145779
145781
145783
145795
145795
145710
145714
145720
145723
145732
145730
145662
145659
145663
145656
145663
145659
145590
145590
145594
145591
145597
145589
145549
145550
145544
145483
145460
145506
145497
145519
145498
145444
145440
145444
145449
145454
145445
145382
145376
145379
145394
145396
145385
145317
145312
145310
145322
145325
145315
145255
145253
145256
145261
145262
145251
145194
145196
145203
145101
145123
145105
145133
145127
145146
145043
145051
145059
145055
145059
145053
144985
144987
144991
144998
145006
145002
144937
144933
144936
144932
144941
144937
144861
144862
144866
144865
144878
144877
144822
144815
144810
144717
144727
144715
144766
144753
144748
144674
144673
144670
144673
144673
144663
144583
144579
144579
144568
144571
144564
144478
144462
144447
144483
144491
144484
144437
144439
144452
144334
144412
144362
144396
144381
144421
144314
144316
144319
144312
144321
144319
144227
144230
144235
144232
144241
144238
144151
144151
144156
144148
144164
144167
144085
144086
144073
143975
143930
144009
143986
144016
143982
143900
143894
143898
143850
143867
143865
143770
143753
143743
143786
143794
143785
143722
143717
143716
143732
143737
143724
143659
143663
143680
143542
143636
143569
143593
143571
143622
143488
143493
143499
143493
143507
143507
143393
143397
143402
143381
143389
143384
143278
143279
143283
143266
143281
143284
143184
143177
143175
143031
143056
143014
143007
143009
143025
142948
142936
142928
142980
142982
142969
142894
142887
142884
142896
142901
142890
142807
142804
142804
142814
142816
142800
142724
142728
142733
142599
142621
142600
142624
142625
142644
142522
142523
142527
142490
142498
142494
142373
142374
142377
142346
142361
142361
142235
142228
142230
142050
142067
141976
142086
142079
142087
142017
142011
142010
142041
142042
142028
141940
141935
141932
141935
141939
141927
141823
141819
141819
141815
141819
141805
141714
141725
141732
141577
141555
141561
141577
141605
141594
141461
141457
141468
141412
141424
141416
141260
141258
141268
141201
141210
141205
140956
141012
141050
140918
140894
140872
140999
141007
140990
140915
140914
140914
140906
140914
140902
140794
140791
140793
140778
140785
140770
140669
140678
140684
140509
140494
140494
140511
140528
140528
140388
140391
140398
140342
140359
140357
140214
140201
140189
139941
139932
139947
139838
139868
139881
139731
139686
139650
139740
139763
139762
139691
139688
139688
139709
139716
139697
139611
139617
139625
139439
139443
139431
139446
139458
139469
139298
139305
139313
139262
139280
139280
139122
139119
139110
138869
138871
138884
138886
138875
138864
138696
138681
138673
138446
138495
138519
138345
138292
138230
138141
138170
138202
138299
138322
138314
138196
138201
138207
138190
138213
138210
138074
138068
138062
137821
137841
137833
137831
137824
137818
137663
137660
137663
137584
137589
137573
137367
137376
137382
137056
137036
137041
136946
136916
136929
136472
136592
136675
136670
136649
136599
136574
136591
136597
136464
136448
136483
136508
136530
136497
136362
136352
136351
136318
136328
136306
136129
136136
136148
135838
135839
135826
135797
135807
135821
135551
135560
135570
135349
135364
135357
134909
134965
135026
134585
134452
134318
134651
134688
134697
134662
134666
134655
134532
134491
134511
134512
134548
134531
134308
134317
134334
134244
134268
134262
134025
134017
134005
133615
133607
133619
133576
133569
133547
133269
133273
133275
132570
132603
132715
132529
132424
132306
132333
132385
132436
132285
132254
132273
132401
132416
132380
132226
132208
132196
132165
132173
132145
131889
131904
131912
131430
131411
131424
131299
131320
131327
130936
130937
130949
130259
130111
130022
129727
129888
130032
129952
129872
129795
129778
129798
129818
129919
129953
129943
129800
129798
129788
129408
129396
129403
129295
129287
129256
128876
128883
128891
128113
128107
128168
127647
127464
127271
126866
127130
127327
127202
127113
126985
127007
127091
127087
127209
127261
127254
127047
127052
127033
126532
126498
126532
126159
126165
126153
125581
125493
125445
123742
124145
124473
124039
123850
123624
124336
124386
124378
124449
124442
124439
124269
124241
124260
123753
123804
123714
123307
123330
123379
122641
122449
122207
120558
121089
121483
121210
121063
120817
121793
121804
121740
121769
121767
121761
121430
121415
121453
120634
120608
120575
118240
118558
119106
119242
118990
118828
119387
119388
119491
119496
119430
119420
119150
119182
119291
118532
118164
117622
117346
117720
117986
118019
117798
117783
118791
118832
118776
118996
118761
118306
118077
118644
118950
119150
118990
118741
119644
119789
119795
120655
120546
120258
121398
121522
121547
122418
122444
122409
123124
123143
123123
123670
123679
123665
124118
124129
124124
124523
124525
124517
124872
124878
124877
125196
125196
125191
125480
125484
125485
125750
125748
125744
125986
125990
125993
126217
126214
126210
126417
126420
126423
126613
126610
126608
126785
126787
126789
126954
126951
126949
127101
127104
127107
127250
127247
127244
127378
127380
127383
127509
127505
127504
127622
127623
127626
127737
127734
127733
127837
127839
127841
127940
127937
127936
128029
128030
128033
128121
128119
128117
128201
128202
128204
128284
128281
128280
128355
128356
128358
128430
128428
128427
128495
128496
128497
128563
128561
128560
128621
128622
128623
128683
128681
128680
128736
128737
128738
128792
128791
128790
128841
128841
128842
128892
128890
128889
128936
128936
128937
128982
128981
128981
129023
129023
129024
129065
129064
129064
129102
129103
129103
129141
129141
129140
129175
129176
129176
129211
129210
129210
129242
129243
129243
129275
129274
129274
129304
129304
129304
129333
129333
129333
129360
129360
129360
129387
129387
129387
129412
129412
129412
129437
129437
129437
129460
129460
129460
129483
129483
129482
129504
129504
129504
129525
129525
129524
129544
129544
129544
129563
129563
129563
129581
129581
129581
129599
129599
129599
129615
129615
129615
129632
129632
129632
129647
129647
129647
129662
129662
129662
129676
129676
129676
129690
129691
129690
129703
129703
129703
129716
129716
129716
129728
129728
129728
129740
129740
129740
129751
129751
129751
129762
129762
129762
129772
129772
129772
129783
129783
129783
129792
129792
129792
129801
129802
129801
129810
129810
129810
129819
129819
129819
129827
129827
129827
129835
129835
129835
129842
129842
129842
129850
129850
129850
129857
129857
129856
129864
129864
129864
129870
129870
129870
129876
129876
129876
129882
129882
129882
129888
129888
129888
129893
129893
129893
129899
129899
129899
129904
129904
129904
129909
129909
129909
129914
129914
129913
129918
129918
129918
129923
129923
129922
129927
129927
129927
129931
129931
129931
129935
129935
129935
129939
129939
129938
129943
129943
129943
129946
129946
129946
129950
129949
129949
129952
129952
129952
129956
129956
129956
129959
129959
129958
129962
129962
129962
129964
129964
129964
129967
129967
129967
129969
129969
129969
129972
129972
129972
129974
129974
129974
129977
129977
129977
129979
129979
129979
129981
129981
129981
129983
129983
129983
129985
129985
129985
129986
129986
129986
129988
129988
129988
129990
129990
129990
129992
129992
129992
129993
129993
129993
129995
129995
129995
129996
129996
129996
129997
129997
129997
129998
129998
129998
130000
130000
130000
130001
130001
130001
130002
130002
130002
130003
130003
130003
130004
130004
130004
130005
130005
130005
130006
130006
130006
130007
130007
130007
130008
130008
130008
130008
130008
130008
130009
130009
130009
130010
130010
130009
130010
130010
130010
130011
130011
130011
130011
130011
130011
130012
130012
130012
130012
130012
130012
130012
130012
130012
130013
130013
130013
130013
130013
130013
130013
130013
130013
130013
130013
130013
130014
130014
130014
130014
130014
130014
130014
130014
130014
130014
130014
130014
130014
130014
130014
130014
130014
130014
130014
130014
130014
130014
130014
130014
130014
130014
130014
130014
130014
130013
130014
130013
130014
130013
130013
130013
130013
130013
130013
130013
130013
130013
130013
130013
130013
130012
130012
130012
130012
130012
130012
130011
130011
130011
130011
130011
130011
130010
130010
130010
130010
130010
130010
130009
130009
130009
130009
130009
130009
130008
130008
130008
130007
130007
130007
130006
130006
130006
130005
130005
130005
130004
130004
130004
130003
130003
130003
130002
130002
130002
130001
130001
130001
130000
129999
129999
129998
129998
129998
129997
129997
129997
129996
129996
129996
129994
129994
129994
129993
129993
129993
129992
129992
129991
129990
129990
129990
129989
129989
129989
129988
129988
129988
129986
129986
129986
129985
129985
129985
129983
129983
129983
129982
129982
129982
129980
129980
129980
129980
129980
129980
129979
129979
129979
129977
129977
129977
129973
129973
129973
129967
129967
129968
129965
129964
129963
129972
129973
129973
130004
130006
130007
130031
130027
130024
130040
130067
130036
130014
129986
130035
130070
130028
130003
130029
130055
130044
130028
130019
130014
130012
130011
130012
130012
130012
130012
130013
130013
130013
130013
130012
130012
130012
130011
130011
130010
130011
130010
130008
130010
130016
130021
130029
130037
130047
130058
130071
130083
130094
130102
130106
130109
130113
130118
130125
130132
130141
130151
130161
130173
130186
130201
130218
130236
130257
130281
130307
130338
130373
130412
130457
130508
130565
130629
130702
130783
130874
130976
131090
131216
131355
131509
131678
131863
132064
132282
132516
132767
133033
133315
133612
133922
134244
134577
134918
135267
135622
135981
136342
136704
137065
137424
137780
138132
138478
138818
139151
139477
139794
140104
140404
140696
140979
141253
141517
141773
142020
142258
142487
142708
142921
143126
143323
143512
143694
143869
144037
144198
144354
144503
144646
144783
144915
145042
145164
145281
145393
145501
145605
145705
145800
145892
145981
146066
146148
146226
146301
146374
146444
146511
146575
146637
146697
146754
146810
146863
146914
146963
147010
147056
147099
147142
147182
147221
147259
147295
147329
147363
147395
147426
147455
147484
147511
147538
147563
147587
147611
147633
147654
147675
147695
147714
147732
147749
147766
147782
147797
147811
147825
147838
147851
147862
147874
147884
147894
147904
147912
147921
147928
147935
147942
147948
147953
147958
147963
147967
147970
147976
147983
147989
147992
147992
147994
147982
147989
147989
147997
148005
148009
148014
148018
148023
148028
148033
148038
148044
148050
148057
148064
148071
148078
148086
148095
148103
148112
148121
148131
148141
148151
148161
148172
148183
148194
148205
148217
148228
148240
148252
148264
148277
148289
148301
148314
148327
148339
148352
148365
148378
148391
148403
148416
148429
148441
148454
148466
148479
148491
148503
148515
148527
148538
148550
148561
148572
148583
148593
148604
148614
148623
148633
148642
148650
148659
148667
148674
148682
148689
148695
148701
148707
148713
148718
148723
148727
148731
148732
148733
148735
148740
148749
148755
148758
148754
148752
148750
148748
148747
148746
148746
148746
148745
148746
148746
148747
148748
148750
148751
148753
148754
148757
148758
148761
148763
148766
148769
148772
148775
148779
148782
148786
148789
148794
148797
148802
148806
148811
148815
148821
148825
148831
148836
148842
148847
148853
148859
148865
148871
148878
148884
148891
148898
148905
148912
148920
148927
148935
148942
148951
148958
148967
148975
148985
148993
149002
149011
149020
149029
149039
149048
149058
149067
149077
149087
149097
149106
149116
149126
149136
149145
149155
149164
149174
149182
149191
149199
149208
149215
149223
149229
149236
149241
149246
149250
149254
149256
149259
149260
149261
149260
149259
149257
149254
149249
149245
149239
149234
149226
149220
149212
149205
149196
149189
149179
149172
149162
149155
149145
149138
149129
149122
149113
149107
149099
149093
149086
149081
149075
149070
149065
149061
149056
149053
149049
149047
149043
149041
149038
149036
149033
149032
149030
149029
149027
149026
149024
149023
149021
149021
149019
149019
149017
149017
149015
149015
149013
149013
149012
149011
149010
149010
149008
149008
149007
149007
149005
149005
149003
149003
149002
149001
149001
149001
149005
148999
149003
149004
149003
149002
149001
149002
149002
149002
149003
149003
149004
149005
149005
149005
149007
149006
149007
149008
149008
149008
149010
149009
149010
149011
149011
149011
149013
149012
149013
149015
149014
149015
149016
149016
149017
149018
149018
149019
149020
149020
149021
149023
149022
149023
149025
149024
149026
149028
149027
149029
149032
149030
149032
149035
149034
149037
149040
149039
149042
149046
149044
149048
149052
149050
149055
149060
149057
149063
149069
149066
149072
149079
149077
149084
149091
149089
149096
149105
149103
149111
149120
149118
149126
149136
149134
149142
149152
149151
149159
149170
149169
149177
149187
149186
149194
149203
149204
149210
149219
149220
149225
149233
149234
149238
149245
149248
149249
149255
149258
149257
149260
149263
149261
149262
149265
149261
149261
149264
149258
149257
149259
149252
149249
149251
149243
149239
149239
149231
149226
149226
149217
149211
149210
149201
149195
149194
149184
149177
149175
149166
149159
149157
149147
149140
149137
149127
149120
149118
149108
149101
149098
149088
149081
149078
149069
149062
149059
149050
149043
149040
149031
149024
149021
149012
149006
149003
148994
148988
148985
148977
148971
148968
148960
148954
148952
148944
148938
148936
148928
148923
148921
148913
148908
148906
148899
148894
148892
148885
148881
148879
148872
148868
148866
148860
148856
148854
148848
148844
148843
148837
148833
148832
148826
148823
148822
148816
148813
148812
148807
148804
148803
148798
148796
148795
148790
148788
148787
148783
148780
148780
148776
148774
148774
148770
148768
148768
148764
148763
148763
148759
148758
148758
148755
148754
148754
148752
148751
148751
148749
148748
148749
148747
148747
148747
148746
148746
148747
148746
148747
148747
148747
148748
148748
148749
148751
148749
148753
148743
148745
148746
148747
148748
148750
148753
148756
148760
148764
148770
148776
148782
148789
148797
148805
148814
148823
148834
148844
148856
148868
148880
148893
148907
148922
148937
148952
148969
148986
149003
149022
149040
149060
149079
149099
149119
149139
149159
149178
149197
149215
149231
149246
149258
149267
149272
149274
149272
149266
149254
149239
149222
149205
149186
149167
149148
149131
149114
149098
149085
149073
149063
149054
149047
149041
149037
149033
149029
149026
149024
149022
149020
149018
149016
149014
149013
149011
149010
149008
149007
149005
149004
149003
149002
149002
149001
149002
149002
149000
149002
149000
149001
149001
149001
149000
149001
149002
149003
149004
149005
149006
149008
149009
149010
149012
149013
149015
149016
149018
149020
149022
149020
149019
149017
149016
149014
149013
149012
149010
149009
149008
149006
149005
149004
149003
149002
149001
149001
149000
149001
149001
149000
149001
149001
149002
149003
149004
149004
149003
149002
149001
149000
149001
149002
149000
149000
149001
149001
149001
149002
149003
149005
149005
149005