/*--------------------------------*- C++ -*----------------------------------*\
| =========                 |                                                 |
| \\      /  F ield         | OpenFOAM: The Open Source CFD Toolbox           |
|  \\    /   O peration     | Version:  v2006                                 |
|   \\  /    A nd           | Website:  www.openfoam.com                      |
|    \\/     M anipulation  |                                                 |
\*---------------------------------------------------------------------------*/
FoamFile
{
    version     2.0;
    format      ascii;
    class       volVectorField;
    location    "0.069";
    object      U;
}
// * * * * * * * * * * * * * * * * * * * * * * * * * * * * * * * * * * * * * //

dimensions      [0 1 -1 0 0 0 0];


internalField   nonuniform List<vector> 
16277
(
(48.3129 0.0015257 -2.95324e-19)
(48.3132 -0.00372041 0)
(48.3128 0.00393393 0)
(48.3125 -0.00329184 0)
(48.3124 0.000467155 -4.5346e-21)
(48.3108 -0.00130368 -7.36495e-19)
(48.306 -0.00128405 8.92419e-19)
(48.2906 -0.0035993 0)
(48.2552 -0.00798793 0)
(48.1992 -0.0140544 0)
(48.1283 -0.0208062 -3.42942e-21)
(48.0502 -0.0272129 -6.9903e-21)
(47.9698 -0.0329373 1.77004e-21)
(47.8888 -0.0379802 0)
(47.8072 -0.0425269 0)
(47.7241 -0.0467443 0)
(47.6385 -0.0507457 0)
(47.5496 -0.0545906 0)
(47.4569 -0.0582965 0)
(47.3603 -0.0618651 0)
(47.2598 -0.0652945 0)
(47.1554 -0.0685879 0)
(47.0472 -0.0717547 0)
(46.9352 -0.0748077 0)
(46.8196 -0.0777607 0)
(46.7003 -0.0806249 0)
(46.5774 -0.0834091 0)
(46.4509 -0.0861184 0)
(46.3209 -0.0887553 0)
(46.1876 -0.0913199 0)
(46.0508 -0.0938105 0)
(45.9109 -0.0962245 0)
(45.7679 -0.0985584 0)
(45.6218 -0.100808 0)
(45.4728 -0.102969 0)
(45.3211 -0.105037 0)
(45.1668 -0.107007 0)
(45.0099 -0.108874 0)
(44.8508 -0.110633 0)
(44.6894 -0.112279 0)
(44.526 -0.113809 0)
(44.3607 -0.115218 0)
(44.1938 -0.116501 0)
(44.0252 -0.117655 0)
(43.8554 -0.118677 0)
(43.6843 -0.119562 0)
(43.5122 -0.120308 0)
(43.3394 -0.120911 0)
(43.1658 -0.121369 0)
(42.9919 -0.121679 0)
(42.8177 -0.121837 0)
(42.6435 -0.121842 0)
(42.4694 -0.121692 0)
(42.2957 -0.121389 0)
(42.1226 -0.120928 0)
(41.9502 -0.120279 0)
(41.7789 -0.11946 0)
(41.6087 -0.118502 0)
(41.4399 -0.117386 0)
(41.2727 -0.116103 0)
(41.1074 -0.114654 0)
(40.9441 -0.11304 0)
(40.7831 -0.111262 0)
(40.6245 -0.10932 0)
(40.4687 -0.107216 0)
(40.3156 -0.104949 0)
(40.1657 -0.102522 0)
(40.019 -0.0999329 0)
(39.8758 -0.0971785 0)
(39.7362 -0.0942534 0)
(39.6005 -0.0911486 0)
(39.4687 -0.0878525 0)
(39.3411 -0.0843525 0)
(39.2179 -0.0806391 0)
(39.0993 -0.0767081 0)
(38.9854 -0.0725575 0)
(38.8761 -0.0681701 0)
(38.7708 -0.063475 0)
(38.6685 -0.05828 -3.00513e-20)
(38.5679 -0.0522692 2.99863e-20)
(38.4687 -0.0449825 0)
(38.3731 -0.0362075 8.95563e-20)
(38.2891 -0.0265766 -5.91681e-20)
(38.23 -0.0181956 0)
(38.2039 -0.0128843 -1.71865e-18)
(38.2034 -0.0105354 1.11682e-18)
(38.2137 -0.0096385 0)
(38.2258 -0.00943368 0)
(38.2355 -0.00935522 0)
(38.2346 -0.0073842 1.73879e-17)
(38.2272 -0.00459549 -1.02933e-17)
(38.2028 -0.0102837 -1.2606e-17)
(38.1411 -0.0202365 -3.78912e-18)
(38.038 -0.0398367 2.12406e-18)
(37.8702 -0.0576757 0)
(37.6772 -0.066974 0)
(36.9673 -0.102505 -2.76477e-19)
(36.5115 -0.0930303 2.32509e-18)
(37.6857 -0.113575 1.73403e-18)
(37.9173 -0.0967218 -5.82568e-18)
(37.9414 -0.119277 0)
(37.6343 -0.133697 1.79682e-18)
(35.9973 -0.0920247 1.93181e-18)
(35.4886 -0.0845115 7.1978e-19)
(37.5735 -0.133343 4.01175e-19)
(37.9636 -0.124079 1.33779e-18)
(37.9612 -0.121241 1.33875e-18)
(37.4801 -0.122898 0)
(35.0209 -0.0739639 -1.25582e-18)
(34.5896 -0.064316 1.16915e-19)
(37.381 -0.112507 0)
(37.9471 -0.118005 0)
(37.908 -0.113525 1.65983e-19)
(37.253 -0.103542 0)
(34.187 -0.0571961 2.47599e-24)
(33.8232 -0.0518373 1.35725e-19)
(37.1364 -0.0967151 0)
(37.867 -0.111144 -1.66827e-19)
(37.8075 -0.107654 1.05551e-20)
(37.004 -0.0912554 3.94205e-19)
(33.4789 -0.0475948 -5.07015e-19)
(33.1772 -0.0430717 4.9266e-19)
(36.8892 -0.0858043 3.96138e-19)
(37.7547 -0.107182 -6.88794e-19)
(37.6832 -0.103009 -6.81636e-19)
(36.7504 -0.0811031 -7.95326e-19)
(32.885 -0.0400389 0)
(32.6241 -0.0364111 4.95082e-19)
(36.6333 -0.0770824 -4.10817e-19)
(37.6187 -0.102235 -1.06788e-20)
(37.5367 -0.0979779 6.94644e-19)
(36.4914 -0.0731242 -4.11056e-19)
(32.3666 -0.0343525 -4.95365e-19)
(32.1341 -0.031605 0)
(36.3735 -0.0703026 0)
(37.4651 -0.097391 0)
(37.3767 -0.0938554 6.84332e-19)
(36.2314 -0.067118 0)
(31.9032 -0.0301981 0)
(31.6945 -0.0279265 0)
(36.1167 -0.065165 0)
(37.3021 -0.0939987 0)
(37.207 -0.0907365 0)
(35.9732 -0.0625681 0)
(31.4816 -0.0270662 0)
(31.2878 -0.0251974 0)
(35.8582 -0.0610065 0)
(37.1274 -0.0907358 0)
(37.0262 -0.0878909 0)
(35.7131 -0.0589339 0)
(31.0876 -0.0247453 0)
(30.9063 -0.0229773 0)
(35.5992 -0.0577703 0)
(36.9436 -0.0884079 0)
(36.84 -0.0857678 0)
(35.4556 -0.0562188 0)
(30.7192 -0.0230545 0)
(30.5484 -0.0211446 0)
(35.3434 -0.0551495 0)
(36.7555 -0.0866286 0)
(36.6488 -0.0843054 0)
(35.1998 -0.0540734 0)
(30.37 -0.0216449 0)
(30.2067 -0.0197296 0)
(35.0883 -0.0532109 0)
(36.5619 -0.0853514 0)
(36.4522 -0.0833462 0)
(34.9445 -0.0524829 0)
(30.035 -0.0205118 0)
(29.8776 -0.0186424 0)
(34.8333 -0.0516973 0)
(36.3632 -0.0844365 0)
(36.2506 -0.0827251 0)
(34.689 -0.051253 0)
(29.7112 -0.0196269 0)
(29.5583 -0.0177684 0)
(34.5778 -0.0505469 0)
(36.1594 -0.0839325 0)
(36.0438 -0.0824959 0)
(34.4325 -0.050363 0)
(29.3959 -0.0189298 0)
(29.2464 -0.0170644 0)
(34.3208 -0.0497109 0)
(35.9503 -0.0838064 0)
(35.8316 -0.0826173 0)
(34.1743 -0.0497619 0)
(29.0869 -0.0183842 0)
(28.9398 -0.0164958 0)
(34.0616 -0.0491394 0)
(35.7355 -0.0840125 0)
(35.6136 -0.0830458 0)
(33.9135 -0.0494028 0)
(28.7824 -0.0179613 0)
(28.637 -0.016119 0)
(33.7995 -0.048787 0)
(35.5148 -0.0844552 0)
(35.3897 -0.0837135 0)
(33.6496 -0.0492319 0)
(28.481 -0.0176812 0)
(28.3365 -0.0158146 0)
(33.5339 -0.0485891 0)
(35.288 -0.0851535 0)
(35.1594 -0.0846186 0)
(33.3821 -0.0492183 0)
(28.1814 -0.0174753 0)
(28.0374 -0.0156409 0)
(33.2644 -0.0485552 0)
(35.0546 -0.0860883 0)
(34.9224 -0.0857507 6.86151e-19)
(33.1102 -0.0493489 0)
(27.8826 -0.0173685 0)
(27.7386 -0.0155639 0)
(32.9902 -0.0486563 0)
(34.8144 -0.087268 0)
(34.6783 -0.0871148 0)
(32.8335 -0.0496137 0)
(27.5837 -0.0173454 0)
(27.4393 -0.0155482 0)
(32.7109 -0.048833 0)
(34.5668 -0.0886757 0)
(34.4268 -0.0886251 0)
(32.5515 -0.0499586 0)
(27.2839 -0.0173834 0)
(27.1387 -0.0156015 0)
(32.426 -0.0492163 0)
(34.3116 -0.0901198 0)
(34.1674 -0.0902414 0)
(32.2635 -0.050447 0)
(26.9822 -0.0174591 0)
(26.8358 -0.0156821 0)
(32.135 -0.0497391 0)
(34.0482 -0.0917546 0)
(33.8996 -0.0920605 6.86585e-19)
(31.9691 -0.0510691 0)
(26.678 -0.0175703 0)
(26.53 -0.0158032 0)
(31.8372 -0.0503786 0)
(33.7763 -0.0936065 0)
(33.6231 -0.0940859 0)
(31.6677 -0.0518097 0)
(26.3705 -0.0177261 0)
(26.2205 -0.0159679 0)
(31.5321 -0.0511363 0)
(33.4954 -0.0956688 0)
(33.3373 -0.0963096 0)
(31.3587 -0.0526653 0)
(26.059 -0.0179261 0)
(25.9067 -0.016174 0)
(31.2191 -0.0520095 0)
(33.205 -0.0979337 0)
(33.0419 -0.0987236 0)
(31.0415 -0.0536311 0)
(25.7427 -0.0181671 0)
(25.5877 -0.0164174 0)
(30.8976 -0.0529938 0)
(32.9046 -0.100392 0)
(32.7362 -0.101317 6.87013e-19)
(30.7156 -0.0547003 0)
(25.421 -0.0184448 0)
(25.263 -0.0166931 0)
(30.5671 -0.0540829 0)
(32.5937 -0.103032 0)
(32.4198 -0.104075 0)
(30.3804 -0.0558646 0)
(25.0932 -0.0187542 0)
(24.9319 -0.0169961 0)
(30.2271 -0.0552669 0)
(32.272 -0.105836 0)
(32.0924 -0.106978 0)
(30.0355 -0.0571133 0)
(24.7587 -0.0190907 0)
(24.5939 -0.0173281 0)
(29.8772 -0.0565251 0)
(31.939 -0.108773 0)
(31.7535 -0.109997 0)
(29.6804 -0.0584239 0)
(24.4172 -0.0194512 0)
(24.2487 -0.017682 0)
(29.5169 -0.057834 0)
(31.5944 -0.111815 0)
(31.4029 -0.113097 6.87454e-19)
(29.3149 -0.0597752 0)
(24.0682 -0.0198288 0)
(23.8958 -0.0180483 0)
(29.1461 -0.0591681 0)
(31.238 -0.114911 0)
(31.0405 -0.116217 0)
(28.9389 -0.0611325 0)
(23.7116 -0.0202091 0)
(23.5354 -0.0184092 0)
(28.7647 -0.0604856 0)
(30.8697 -0.117992 0)
(30.6663 -0.119276 0)
(28.5523 -0.0624483 0)
(23.3474 -0.0205712 0)
(23.1677 -0.0187414 0)
(28.3729 -0.0617316 0)
(30.4898 -0.120963 0)
(30.2806 -0.122177 0)
(28.1556 -0.0636683 0)
(22.9762 -0.0209006 0)
(22.7932 -0.0190358 0)
(27.9713 -0.0628543 0)
(30.0986 -0.123722 0)
(29.8841 -0.124813 0)
(27.7496 -0.064738 0)
(22.5987 -0.0211801 0)
(22.4129 -0.0192669 0)
(27.5609 -0.0637898 0)
(29.6972 -0.126149 0)
(29.4778 -0.127052 0)
(27.3352 -0.065586 0)
(22.2159 -0.021382 0)
(22.0281 -0.0194058 0)
(27.1429 -0.0644571 0)
(29.2865 -0.128097 0)
(29.0632 -0.128728 0)
(26.9142 -0.066122 0)
(21.8295 -0.0214745 0)
(21.6407 -0.0194172 0)
(26.7191 -0.064754 0)
(28.8684 -0.129373 0)
(28.6421 -0.129632 0)
(26.4886 -0.0662331 0)
(21.4417 -0.0214184 0)
(21.2533 -0.0192579 0)
(26.2922 -0.0645534 0)
(28.4452 -0.129743 0)
(28.2174 -0.129508 0)
(26.0615 -0.0657806 0)
(21.0554 -0.0211671 0)
(20.8692 -0.018878 0)
(25.8655 -0.0637033 0)
(28.0199 -0.128924 0)
(27.7925 -0.128057 0)
(25.6365 -0.0646051 0)
(20.6745 -0.0206646 0)
(20.4927 -0.0182174 0)
(25.4434 -0.0620328 0)
(27.5966 -0.12659 0)
(27.372 -0.124939 0)
(25.2187 -0.0625306 0)
(20.3038 -0.019846 0)
(20.1293 -0.0172086 0)
(25.0311 -0.0593514 0)
(27.1802 -0.122375 0)
(26.9614 -0.119769 0)
(24.8139 -0.0593483 0)
(19.9493 -0.0186365 0)
(19.7857 -0.0157782 0)
(24.6355 -0.0554292 0)
(26.7772 -0.115857 0)
(26.5678 -0.112107 0)
(24.4297 -0.0548183 0)
(19.6184 -0.0169459 0)
(19.4699 -0.0138409 0)
(24.2648 -0.0500123 0)
(26.3952 -0.10656 0)
(26.1996 -0.101514 0)
(24.0749 -0.0486993 0)
(19.3199 -0.0146702 0)
(19.1914 -0.0113286 0)
(23.9284 -0.0428949 0)
(26.0433 -0.0940908 0)
(25.8665 -0.0876267 0)
(23.7599 -0.0407906 0)
(19.0637 -0.0117826 0)
(18.9617 -0.00823239 0)
(23.6367 -0.0336661 0)
(25.7318 -0.0779651 0)
(25.5794 -0.0698386 0)
(23.4956 -0.0305333 0)
(18.8615 -0.00809477 0)
(18.7965 -0.00430098 0)
(23.4017 -0.022507 0)
(25.4712 -0.0578663 0)
(25.3494 -0.0480185 0)
(23.2941 -0.0186801 0)
(18.7279 -0.00395931 0)
(18.7044 0.000151377 0)
(23.2368 -0.0102821 0)
(25.2759 -0.0337908 0)
(25.189 -0.0230976 0)
(23.1678 -0.00561251 0)
(18.6708 0.000627331 0)
(18.6928 0.00493704 0)
(23.1518 0.00354182 0)
(25.155 -0.0073238 0)
(25.1069 0.00335299 0)
(23.1251 0.00824942 0)
(18.6969 0.00516377 0)
(18.7656 0.00979448 0)
(23.153 0.0180147 0)
(25.1153 0.0200368 0)
(25.1088 0.0304455 0)
(23.1706 0.0223269 0)
(18.8085 0.00944891 0)
(18.9191 0.0139329 6.21982e-20)
(23.2395 0.0313676 0)
(25.1573 0.0453712 0)
(25.1895 0.0569012 0)
(23.2972 0.0364652 0)
(18.9994 0.0138758 -6.21982e-20)
(19.1565 0.0187255 6.21935e-20)
(23.4129 0.0461588 0)
(25.2843 0.0734083 0)
(25.3607 0.0840603 0)
(23.5166 0.0504982 0)
(19.2818 0.0190011 -6.21934e-20)
(19.4832 0.0236968 6.21872e-20)
(23.6801 0.0601194 0)
(25.5033 0.100654 0)
(25.6217 0.104507 0)
(23.8252 0.0598229 0)
(19.6442 0.0216331 -6.21873e-20)
(19.8679 0.0257892 6.218e-20)
(24.019 0.0681688 0)
(25.7957 0.118461 0)
(25.943 0.118498 0)
(24.1911 0.0657856 0)
(20.0476 0.023025 -6.21803e-20)
(20.2844 0.0264586 6.21722e-20)
(24.4068 0.0724374 0)
(26.1412 0.1295 0)
(26.3092 0.126653 0)
(24.5967 0.0685287 0)
(20.4731 0.0232043 -6.21728e-20)
(20.7145 0.0262774 6.21642e-20)
(24.8253 0.0741619 0)
(26.5235 0.135692 0)
(26.7054 0.130535 0)
(25.0256 0.0691012 0)
(20.9049 0.0226539 -6.21651e-20)
(21.1447 0.0253968 6.21561e-20)
(25.2603 0.0737206 0)
(26.9293 0.137652 0)
(27.1186 0.13044 0)
(25.4641 0.067641 0)
(21.3308 0.0214866 -6.21573e-20)
(21.5631 0.0238706 6.21482e-20)
(25.6984 0.0712573 0)
(27.3458 0.135644 0)
(27.5363 0.126774 0)
(25.8996 0.0643747 0)
(21.7391 0.0197409 -6.21498e-20)
(21.959 0.0218316 6.21408e-20)
(26.1276 0.0670823 0)
(27.7609 0.130205 0)
(27.947 0.120106 0)
(26.3206 0.0596421 0)
(22.1201 0.0175736 -6.21427e-20)
(22.3236 0.0194243 6.21338e-20)
(26.5375 0.0615732 0)
(28.1639 0.121969 0)
(28.341 0.11103 0)
(26.7178 0.0537968 0)
(22.4664 0.0150947 -6.2136e-20)
(22.6506 0.0167516 6.21276e-20)
(26.9199 0.0550814 0)
(28.546 0.111529 0)
(28.7101 0.100155 0)
(27.0839 0.0471658 0)
(22.7727 0.0124143 -6.21301e-20)
(22.9358 0.0140218 6.21221e-20)
(27.2681 0.0480051 0)
(28.9 0.0995059 0)
(29.0482 0.0880585 0)
(27.4126 0.0401905 0)
(23.0365 0.00988724 -6.21247e-20)
(23.1777 0.0114617 5.59069e-19)
(27.5771 0.0407791 4.12963e-19)
(29.2205 0.086602 -1.37628e-18)
(29.3501 0.0753867 0)
(27.7 0.033279 0)
(23.2585 0.00776221 -6.21198e-20)
(23.3765 0.00896978 6.21135e-20)
(27.8441 0.033476 0)
(29.5035 0.0734436 -6.88079e-19)
(29.6144 0.0627493 0)
(27.946 0.0266472 0)
(23.4377 0.00552496 -6.21157e-20)
(23.5333 0.00652162 6.21103e-20)
(28.0698 0.026503 0)
(29.7485 0.0604911 0)
(29.8407 0.0505323 0)
(28.1512 0.0202952 0)
(23.5759 0.00344019 -6.21124e-20)
(23.6509 0.00440403 6.21079e-20)
(28.2554 0.020122 0)
(29.9558 0.0482797 0)
(30.0299 0.0393139 0)
(28.3175 0.0146606 0)
(23.6767 0.00167905 -6.21097e-20)
(23.7334 0.00269746 6.21061e-20)
(28.4036 0.0145995 0)
(30.127 0.0372552 0)
(30.1845 0.029607 0)
(28.4482 0.00988533 0)
(23.7448 0.000272031 -6.21078e-20)
(23.7861 0.00125941 6.21048e-20)
(28.5181 0.00980605 0)
(30.2654 0.0278236 0)
(30.3082 0.0211432 0)
(28.5476 0.00534442 0)
(23.7857 -0.00111023 -6.21061e-20)
(23.8149 -1.64437e-06 6.21038e-20)
(28.6039 0.00527818 0)
(30.375 0.0196991 0)
(30.405 0.0141761 0)
(28.6205 0.00156376 0)
(23.805 -0.00224435 -6.21048e-20)
(23.8247 -0.000868376 6.21031e-20)
(28.6654 0.00183011 0)
(30.46 0.0131121 0)
(30.4793 0.00868461 0)
(28.6715 -0.00108074 0)
(23.8078 -0.00286112 -6.21042e-20)
(23.8204 -0.00136336 6.2103e-20)
(28.7071 -0.000518893 0)
(30.5246 0.00797536 0)
(30.5351 0.00427883 0)
(28.7048 -0.00295978 0)
(23.7984 -0.00320438 -6.21038e-20)
(23.8059 -0.00162859 6.2103e-20)
(28.7332 -0.0020324 0)
(30.5725 0.00388487 0)
(30.5758 0.00106603 0)
(28.7242 -0.0038029 0)
(23.7804 -0.00304259 -6.2104e-20)
(23.784 -0.00141549 6.21034e-20)
(28.7468 -0.00243036 0)
(30.6068 0.000836474 0)
(30.6046 -0.00100815 0)
(28.7327 -0.00345607 0)
(23.7562 -0.00271222 -6.21043e-20)
(23.7574 -0.00104815 6.21037e-20)
(28.7511 -0.00243152 0)
(30.6307 -0.00125769 0)
(30.6239 -0.0026916 0)
(28.7331 -0.0036778 0)
(23.728 -0.00258239 -6.21043e-20)
(23.7275 -0.00106959 6.21038e-20)
(28.7481 -0.00288279 0)
(30.6461 -0.00292793 0)
(30.6358 -0.004222 0)
(28.7272 -0.00420653 0)
(23.697 -0.00257397 -6.21044e-20)
(23.6957 -0.0011695 6.2104e-20)
(28.7399 -0.00355248 0)
(30.655 -0.00455746 0)
(30.642 -0.00527699 0)
(28.7169 -0.00448073 0)
(23.6646 -0.00250492 -6.21043e-20)
(23.663 -0.00112671 6.21039e-20)
(28.7278 -0.00371785 0)
(30.659 -0.00529965 0)
(30.6439 -0.00592569 0)
(28.7032 -0.0045643 0)
(23.6317 -0.00240637 -6.21044e-20)
(23.6297 -0.00100606 6.21042e-20)
(28.7126 -0.00369153 0)
(30.659 -0.00570745 0)
(30.6421 -0.00641613 0)
(28.6868 -0.00462409 0)
(23.5984 -0.00234138 -6.21047e-20)
(23.5967 -0.00094965 6.21045e-20)
(28.6954 -0.00376253 0)
(30.656 -0.0061736 0)
(30.6376 -0.00676883 0)
(28.6685 -0.00464715 0)
(23.5652 -0.00227191 -6.21051e-20)
(23.5639 -0.000910445 6.2105e-20)
(28.6767 -0.00381599 0)
(30.6507 -0.00652613 -6.88025e-19)
(30.6317 -0.00696095 0)
(28.6496 -0.00457587 0)
(23.533 -0.00219245 -6.21052e-20)
(23.5316 -0.000809378 6.21049e-20)
(28.6571 -0.00359314 0)
(30.6438 -0.00643537 0)
(30.6239 -0.00709427 0)
(28.6295 -0.00456813 0)
(23.5007 -0.00214372 -6.21051e-20)
(23.5006 -0.000779372 6.2105e-20)
(28.6376 -0.00366397 0)
(30.6362 -0.00664048 0)
(30.6162 -0.00661831 0)
(28.6102 -0.00415644 0)
(23.4704 -0.00196727 -6.21056e-20)
(23.4699 -0.000498663 6.21056e-20)
(28.6176 -0.00297589 0)
(30.6277 -0.00571906 0)
(30.6076 -0.0066007 0)
(28.5904 -0.00407083 0)
(23.4404 -0.00194802 -6.20755e-20)
(23.4427 -0.000401431 6.20139e-20)
(28.6001 -0.00269972 0)
(30.6209 -0.005279 -6.86724e-19)
(30.6015 -0.00453897 -6.83706e-19)
(28.574 -0.00306176 3.07388e-19)
(23.4146 -0.00161013 -5.54011e-19)
(23.4171 -0.000424714 0)
(28.5844 -0.00192016 3.23586e-25)
(30.6197 -0.00288246 0)
(30.6052 -0.00107717 -6.67799e-19)
(28.5625 -0.000466554 9.95184e-20)
(23.3882 -0.00012276 0)
(23.4235 0.00180745 -9.67757e-19)
(28.5889 0.00207291 -6.30819e-25)
(30.6354 0.00335171 -6.65916e-19)
(30.6308 0.0117572 0)
(28.5921 0.00664339 0)
(23.417 0.00228581 9.04796e-19)
(23.4932 0.0128905 -2.45024e-19)
(28.6638 0.0242187 -4.01898e-18)
(30.696 0.0323213 -5.97962e-24)
(30.7531 0.066097 5.11464e-18)
(28.7468 0.05211 0)
(23.6406 0.0281607 -1.55987e-18)
(23.9331 0.069255 -2.01077e-18)
(28.9458 0.10027 1.59556e-17)
(30.9389 0.103835 5.07879e-23)
(31.4723 0.0672923 -3.71537e-17)
(29.7405 0.133974 1.04355e-18)
(25.0777 0.127397 0)
(24.8335 0.064804 0)
(28.7935 0.127842 -8.81891e-19)
(30.6011 0.188266 7.39079e-19)
(31.7825 0.281308 -7.49135e-18)
(32.6555 0.13639 -4.27629e-22)
(33.1625 0.0296485 1.31342e-17)
(33.3347 0.00772968 -1.91333e-19)
(33.4414 0.0187107 -2.83223e-18)
(33.6509 0.0240357 2.83647e-18)
(33.735 0.0193782 0)
(33.8272 0.0214231 0)
(33.8687 0.0200698 6.1055e-19)
(33.9041 0.0218673 7.87776e-19)
(33.912 0.0205119 -1.75604e-19)
(33.901 0.0218519 8.90328e-19)
(33.8754 0.0198916 -1.4476e-18)
(33.8079 0.0199967 7.454e-19)
(33.7379 0.0129202 0)
(33.5623 0.0117263 -1.27935e-17)
(33.4626 0.00577768 -1.48605e-17)
(33.3508 0.00640591 0)
(33.2142 0.0190271 -5.28988e-19)
(32.9795 0.0112221 0)
(32.3786 -0.0267451 0)
(31.0838 -0.0727974 2.6781e-18)
(28.3649 -0.0640717 -6.93626e-18)
(24.8986 -0.0559356 0)
(17.7593 -0.065252 -3.6555e-19)
(17.2067 -0.0454622 3.45101e-19)
(24.5424 -0.0788904 -8.53565e-18)
(28.0831 -0.0868572 2.0076e-17)
(27.7924 -0.0899528 8.11718e-19)
(24.2099 -0.0638407 2.68925e-18)
(16.7658 -0.043081 -2.84137e-18)
(16.4906 -0.031423 0)
(23.9916 -0.0486207 -1.43988e-18)
(27.6025 -0.0662085 -3.70447e-18)
(27.5125 -0.0366481 0)
(23.9025 -0.0195504 9.4628e-19)
(16.2884 -0.0128607 0)
(16.2544 -0.00989747 0)
(23.8578 -0.0145686 2.22527e-19)
(27.475 -0.0180598 -1.20511e-18)
(27.4351 -0.0102879 2.36381e-25)
(23.82 -0.00948836 -2.22592e-19)
(16.1436 -0.00538955 0)
(16.1384 0.000348973 0)
(23.796 -0.00286274 0)
(27.4393 -0.00366837 -1.68567e-19)
(27.444 0.00341249 0)
(23.8008 0.00176719 0)
(16.1444 0.000684749 0)
(16.1543 0.00102121 0)
(23.8096 0.00319085 0)
(27.4522 0.00572326 0)
(27.462 0.0087631 0)
(23.822 0.00471996 0)
(16.1684 0.00149288 0)
(16.1836 0.00154097 0)
(23.8359 0.0047668 0)
(27.4735 0.00831313 0)
(27.4854 0.00944502 0)
(23.8516 0.00508823 0)
(16.2014 0.00167241 0)
(16.2204 0.00165474 0)
(23.8691 0.0051549 0)
(27.4997 0.00923668 -1.6822e-19)
(27.513 0.010821 1.6855e-19)
(23.8858 0.00596894 0)
(16.2389 0.00198356 0)
(16.259 0.00181177 0)
(23.9046 0.00548178 0)
(27.5283 0.00990071 0)
(27.5424 0.0111494 0)
(23.9226 0.00606951 0)
(16.279 0.0020258 0)
(16.2991 0.00194021 0)
(23.9413 0.00593468 0)
(27.5578 0.0108861 0)
(27.5726 0.0119868 0)
(23.96 0.00648185 0)
(16.3193 0.00215992 0)
(16.3404 0.00193121 0)
(23.9797 0.00597836 0)
(27.5891 0.0107706 0)
(27.6044 0.0115649 0)
(23.9988 0.00623987 0)
(16.3608 0.00203052 0)
(16.3812 0.00187792 0)
(24.0178 0.0059133 0)
(27.6201 0.0111026 0)
(27.6362 0.0121293 0)
(24.038 0.00648474 0)
(16.4032 0.00213297 0)
(16.4256 0.00224786 0)
(24.0588 0.00657101 0)
(27.6534 0.0117037 0)
(27.6689 0.0122842 0)
(24.0784 0.0067468 0)
(16.4475 0.00229189 0)
(16.4705 0.00210888 0)
(24.0994 0.00636184 0)
(27.6861 0.0116314 0)
(27.7022 0.0125725 0)
(24.1198 0.00673154 0)
(16.4935 0.00226385 0)
(16.5173 0.00216997 0)
(24.142 0.00622154 0)
(27.7205 0.011333 0)
(27.7374 0.0124091 0)
(24.1632 0.00676085 0)
(16.5406 0.00233161 0)
(16.5626 0.0021871 0)
(24.1838 0.00659603 0)
(27.7543 0.0120557 0)
(27.7716 0.0130254 0)
(24.2053 0.00696224 0)
(16.5864 0.00231924 0)
(16.6104 0.00233411 0)
(24.2276 0.00698398 0)
(27.7903 0.0125821 0)
(27.8069 0.0131578 0)
(24.2482 0.00724414 0)
(16.633 0.00239782 0)
(16.6566 0.00223107 0)
(24.2702 0.0066952 0)
(27.8252 0.0123887 0)
(27.8429 0.0133813 0)
(24.2922 0.00715201 0)
(16.6812 0.00241986 0)
(16.7058 0.0022364 0)
(24.315 0.00659701 0)
(27.8619 0.0123545 0)
(27.8798 0.0132998 0)
(24.3372 0.00732138 0)
(16.7301 0.00248485 -1.44085e-19)
(16.7548 0.00238886 1.43939e-19)
(24.3599 0.00712179 0)
(27.8989 0.0129474 0)
(27.9174 0.0140119 0)
(24.3828 0.007657 0)
(16.7802 0.00261002 0)
(16.8057 0.00239569 0)
(24.4063 0.00704414 0)
(27.9372 0.0129688 0)
(27.9558 0.0137187 0)
(24.4292 0.00740918 0)
(16.8307 0.00250546 0)
(16.8565 0.00243376 0)
(24.453 0.00735383 0)
(27.9759 0.013437 0)
(27.9952 0.0145747 0)
(24.4766 0.00786616 0)
(16.8823 0.00260668 0)
(16.9082 0.0024081 0)
(24.5008 0.00734801 0)
(28.0159 0.0136647 0)
(28.0355 0.0142507 0)
(24.5243 0.00757671 0)
(16.9334 0.0025109 0)
(16.9595 0.0023505 0)
(24.549 0.0073285 0)
(28.057 0.013728 0)
(28.0779 0.0147362 0)
(24.5738 0.00777054 0)
(16.9854 0.0025038 0)
(17.011 0.00227695 0)
(24.5988 0.00722709 0)
(28.0998 0.0138512 0)
(28.1209 0.0145155 0)
(24.6233 0.00745692 0)
(17.036 0.00234637 0)
(17.0616 0.00228378 0)
(24.6487 0.00744704 0)
(28.1436 0.0142643 0)
(28.166 0.0151837 0)
(24.6744 0.00779217 0)
(17.0873 0.00239196 0)
(17.1132 0.00222159 0)
(24.7007 0.00736107 0)
(28.1898 0.0144606 0)
(28.2125 0.0151787 0)
(24.7262 0.00760777 0)
(17.1381 0.0023155 0)
(17.1642 0.0022181 0)
(24.7535 0.00746082 0)
(28.2375 0.0148021 0)
(28.2625 0.0160183 0)
(24.7813 0.00798422 0)
(17.1904 0.00237183 0)
(17.2163 0.00216689 0)
(24.8095 0.00759269 0)
(28.2888 0.0154853 0)
(28.3148 0.0163311 0)
(24.8378 0.00788772 0)
(17.2415 0.00221417 0)
(17.2672 0.00205013 0)
(24.8674 0.00778391 0)
(28.343 0.0161549 0)
(28.3711 0.0170957 0)
(24.8974 0.00806697 0)
(17.2924 0.00204997 0)
(17.3175 0.00176729 0)
(24.9284 0.00746483 0)
(28.4012 0.0163139 0)
(28.431 0.0170853 0)
(24.9594 0.0076105 0)
(17.3413 0.00172375 0)
(17.3653 0.00144667 0)
(24.9918 0.00736531 0)
(28.4633 0.0168133 0)
(28.496 0.0179155 0)
(25.0252 0.00774312 0)
(17.3889 0.00143697 0)
(17.4115 0.00129049 0)
(25.0592 0.00754479 0)
(28.5306 0.0176355 0)
(28.5655 0.0184381 0)
(25.0935 0.00741702 0)
(17.4323 0.00100382 0)
(17.4535 0.000646563 0)
(25.1299 0.00726388 0)
(28.6032 0.0184251 0)
(28.642 0.0197152 0)
(25.1674 0.00765465 0)
(17.4734 0.000606294 0)
(17.4919 0.000252998 0)
(25.2064 0.00716527 0)
(28.6833 0.0192901 0)
(28.7254 0.0205092 0)
(25.2462 0.00740547 0)
(17.5093 7.76807e-05 0)
(17.5269 -0.000259935 0)
(25.2887 0.00732106 0)
(28.7709 0.0207405 0)
(28.8183 0.0225866 0)
(25.3336 0.00794063 0)
(17.545 -0.000255333 0)
(17.5628 -0.000491632 0)
(25.381 0.00794891 0)
(28.8692 0.0229625 0)
(28.9217 0.0249707 0)
(25.4308 0.00862859 0)
(17.5812 -0.000488518 0)
(17.6011 -0.000613872 0)
(25.4844 0.0090054 0)
(28.9786 0.0261439 0)
(29.0379 0.0289179 0)
(25.5417 0.0103615 0)
(17.6227 -0.000351564 0)
(17.6461 -0.000376854 0)
(25.603 0.0110187 0)
(29.1016 0.0301866 0)
(29.168 0.0332299 0)
(25.6679 0.0122836 0)
(17.6722 -0.000132685 0)
(17.7023 -5.5941e-06 0)
(25.7382 0.0135554 0)
(29.2394 0.0353236 0)
(29.3145 0.0390611 0)
(25.814 0.0156415 0)
(17.7371 0.000473335 0)
(17.778 0.0008391 0)
(25.8963 0.0171577 0)
(29.3951 0.0416643 0)
(29.4799 0.04643 0)
(25.9849 0.0199437 0)
(17.8262 0.00141265 0)
(17.883 0.00258455 0)
(26.0811 0.0231635 0)
(29.5706 0.0507942 0)
(29.6659 0.0565114 0)
(26.1844 0.026335 0)
(17.9497 0.00377106 0)
(18.0304 0.00474575 0)
(26.2981 0.0291432 0)
(29.7681 0.0612309 0)
(29.8766 0.0685361 0)
(26.422 0.0341753 0)
(18.1262 0.00681409 0)
(18.2401 0.00867279 0)
(26.5591 0.0393551 0)
(29.9935 0.0757888 1.67927e-19)
(30.1168 0.0858166 -1.68244e-19)
(26.7077 0.0467676 0)
(18.3732 0.0118227 0)
(18.5301 0.0145949 0)
(26.8699 0.0526356 0)
(30.2482 0.0950189 0)
(30.3873 0.106575 0)
(27.0471 0.0597179 0)
(18.7145 0.0177591 0)
(18.9321 0.0224426 0)
(27.2437 0.0686787 0)
(30.5383 0.11988 0)
(30.7004 0.136324 0)
(27.4604 0.077729 0)
(19.1837 0.0283461 0)
(19.4826 0.037123 0)
(27.7059 0.0895471 0)
(30.8802 0.155481 0)
(31.0872 0.181575 1.68107e-19)
(27.9929 0.103613 0)
(19.8521 0.0484845 0)
(20.315 0.0772914 0)
(28.3237 0.135883 0)
(31.3191 0.233766 -1.68629e-19)
(31.5498 0.347871 -2.70911e-18)
(28.6636 0.255602 1.48e-23)
(20.7777 0.176907 2.29276e-18)
(21.2157 0.245527 -9.11932e-18)
(28.9901 0.349331 -5.13796e-23)
(31.7573 0.464445 2.53689e-18)
(31.923 0.627957 -2.52247e-18)
(29.2593 0.514675 -7.02564e-18)
(21.6386 0.381619 9.03388e-18)
(22.0066 0.545647 1.42563e-19)
(29.4096 0.700082 -7.00089e-18)
(32.0314 0.799614 5.33398e-18)
(32.1163 0.966085 -5.46472e-18)
(29.6279 0.850648 0)
(22.3675 0.658267 0)
(22.6976 0.800475 1.80039e-17)
(29.7505 1.01142 -1.37485e-17)
(32.1822 1.1238 -5.09349e-18)
(32.2269 1.27024 0)
(29.8871 1.14872 -1.36042e-17)
(23.0664 0.920238 1.78726e-17)
(23.4586 1.04583 1.77425e-17)
(30.023 1.29153 -4.21982e-19)
(32.2756 1.4218 0)
(32.2756 1.58424 0)
(30.1118 1.47061 4.22587e-19)
(23.807 1.20518 -5.53794e-19)
(24.1067 1.31697 -1.63613e-17)
(30.1919 1.60204 0)
(32.2618 1.71662 0)
(32.2517 1.82064 -1.02944e-17)
(30.2828 1.69869 1.352e-17)
(24.4385 1.40311 -1.82894e-17)
(24.8001 1.52217 0)
(30.3696 1.82405 1.65857e-18)
(32.245 1.92779 0)
(32.222 2.05341 -9.74577e-18)
(30.4395 1.95614 -1.64282e-18)
(25.173 1.63741 -4.44086e-18)
(25.3756 1.7288 2.04744e-17)
(30.4941 2.12509 -3.46886e-17)
(32.1484 2.21697 2.4137e-17)
(31.9512 2.12645 2.98755e-17)
(30.3627 2.02165 -5.55048e-17)
(25.3508 1.60604 -2.03398e-17)
(20.2111 1.20864 -3.16137e-17)
(27.9517 1.55119 -3.12988e-18)
(30.9003 1.62594 -1.59488e-17)
(31.7054 2.25532 -3.52666e-18)
(29.0652 2.11125 4.69817e-18)
(21.4812 1.58098 -3.11026e-18)
(21.4668 1.71771 1.39743e-18)
(29.1592 2.32562 -2.11741e-18)
(31.7324 2.51046 -1.61015e-18)
(31.685 2.63384 5.26082e-17)
(29.2214 2.42683 -3.11871e-22)
(21.7937 1.81524 -4.46809e-17)
(22.217 1.97795 3.33492e-19)
(29.2371 2.57257 6.4927e-17)
(31.6067 2.76097 8.90571e-23)
(31.6159 2.86303 2.46383e-17)
(29.3849 2.66731 -3.18248e-17)
(22.7227 2.08728 4.18034e-17)
(23.2805 2.21391 -3.1841e-19)
(29.4933 2.76622 1.20811e-19)
(31.6021 2.96162 2.33386e-17)
(31.6122 3.08747 -2.38871e-17)
(29.66 2.90925 3.02566e-17)
(23.8174 2.37741 -3.09497e-19)
(24.3248 2.49018 6.17442e-19)
(29.741 2.9881 2.82962e-17)
(31.5587 3.17249 -2.36283e-17)
(31.5438 3.28812 -1.80509e-17)
(29.873 3.1422 -2.72503e-17)
(24.8271 2.65268 4.0479e-17)
(25.3124 2.75237 -2.36982e-18)
(29.979 3.21797 0)
(31.5111 3.37582 -2.62723e-18)
(31.463 3.51693 0)
(30.0699 3.36466 2.41377e-17)
(25.7368 2.88257 -6.88046e-17)
(25.8729 2.87867 5.08179e-17)
(30.0133 3.38278 0)
(31.2826 3.49735 -1.26553e-16)
(30.4745 3.09472 1.06631e-17)
(28.193 2.84445 -3.14324e-18)
(22.3115 2.33763 -3.76512e-18)
(23.6712 2.84989 0)
(29.2084 3.46098 -2.3083e-18)
(31.1045 3.64229 -6.94858e-18)
(31.1156 3.85068 0)
(29.3164 3.65175 -3.20577e-17)
(23.9626 3.03202 4.23587e-17)
(24.4972 3.14513 6.33122e-19)
(29.5206 3.72709 -9.62162e-19)
(31.1181 3.94613 0)
(31.0934 4.09107 -1.97136e-23)
(29.6095 3.93073 2.80036e-17)
(24.9026 3.35586 -3.89211e-17)
(25.2909 3.46587 3.45957e-17)
(29.6755 4.00017 3.49183e-18)
(31.0478 4.17418 0)
(30.9933 4.29533 1.98542e-17)
(29.7607 4.12557 -1.66696e-18)
(25.6909 3.59988 -2.25054e-18)
(25.8811 3.74004 4.11145e-18)
(29.736 4.31729 0)
(30.867 4.45169 -3.21819e-17)
(30.6418 4.42516 -3.70456e-18)
(29.6155 4.27393 2.28168e-18)
(25.9836 3.68192 4.607e-17)
(22.8706 3.35444 0)
(28.1035 3.99615 -3.07728e-18)
(29.9493 4.16305 7.91885e-18)
(30.3969 4.61037 3.78823e-17)
(28.8573 4.42247 -7.45173e-17)
(24.0012 3.76914 9.68953e-17)
(24.2871 3.94694 -4.36919e-17)
(28.9143 4.60093 -3.1917e-17)
(30.3088 4.81204 1.54655e-18)
(30.16 4.97103 -2.38971e-17)
(28.9023 4.7971 -3.158e-17)
(24.6622 4.18645 8.41419e-17)
(25.0366 4.35754 0)
(28.8632 4.90343 3.7313e-18)
(30.0072 5.096 0)
(29.8499 5.26399 0)
(28.8698 5.05528 9.55194e-18)
(25.4323 4.54687 0)
(25.5114 4.70372 0)
(28.6879 5.24619 -1.98105e-17)
(29.5372 5.35861 0)
(28.8882 5.14303 -2.50598e-17)
(27.3525 4.81614 2.59668e-17)
(22.9168 4.15695 0)
(24.2036 4.6976 1.01049e-16)
(28.03 5.31668 2.94725e-19)
(29.2446 5.52737 -1.78642e-18)
(29.1123 5.81525 -2.44499e-17)
(28.029 5.694 3.24152e-17)
(24.4872 5.07281 -8.72324e-17)
(24.815 5.22811 8.09742e-17)
(27.9869 5.75928 -6.00087e-17)
(28.9316 5.92985 -2.18144e-17)
(28.6931 6.14093 -3.46793e-17)
(27.9071 6.00352 8.85914e-17)
(25.0058 5.46561 -1.52631e-16)
(24.9597 5.57411 2.11229e-16)
(27.617 6.10522 9.80883e-17)
(28.316 6.20224 -1.12864e-21)
(27.7442 6.09676 -7.07538e-19)
(26.5341 5.70644 -8.27836e-19)
(22.7784 5.04193 -1.00052e-18)
(23.6924 5.8247 1.0226e-16)
(26.9029 6.43976 6.00532e-19)
(27.8465 6.57743 0)
(27.4961 6.77814 9.7708e-17)
(26.6959 6.61387 -6.65456e-17)
(23.7728 6.07806 -2.45565e-18)
(23.9927 6.40753 2.48556e-18)
(26.483 6.85752 0)
(27.1111 7.016 -5.61241e-17)
(26.5873 7.15938 -3.37752e-17)
(26.0692 7.11895 0)
(23.8562 6.65121 3.3127e-18)
(22.1257 6.11893 -1.39614e-16)
(25.1201 6.74616 1.1058e-16)
(25.9957 7.16736 0)
(25.8684 7.62053 -5.7864e-17)
(25.1634 7.55363 7.72962e-17)
(22.8217 7.08621 2.02231e-19)
(22.7581 7.34423 8.84869e-17)
(24.7947 7.66022 0)
(25.3371 7.76534 0)
(24.6756 8.02196 0)
(24.2568 8.05769 -5.40303e-17)
(22.5684 7.82479 1.55661e-16)
(22.0997 8.0047 0)
(23.5178 8.19513 0)
(23.8143 8.07642 -8.03558e-18)
(22.8283 8.43741 1.09643e-17)
(22.3476 8.29876 0)
(20.3995 7.97727 -1.32096e-16)
(20.3102 8.61587 -1.20786e-17)
(21.7447 8.78528 -1.3276e-16)
(22.1173 8.65576 2.42382e-21)
(20.8599 8.60117 -4.65546e-18)
(20.6285 8.88003 5.91472e-18)
(19.4899 8.80057 1.88024e-17)
(17.6433 8.80893 -4.52573e-18)
(19.0815 9.04892 -1.46834e-17)
(19.4743 9.03781 1.7962e-17)
(18.3398 8.87016 -8.52724e-17)
(17.9557 9.23513 1.22615e-16)
(16.9545 9.42918 -1.24218e-17)
(15.3092 9.40816 2.46788e-16)
(15.9991 8.83054 -1.5263e-16)
(16.3331 8.12643 0)
(13.3862 8.1914 -7.22842e-17)
(12.9539 8.68188 -1.203e-17)
(12.1218 9.1321 0)
(9.31091 7.7287 0)
(9.92587 6.85796 1.78636e-17)
(10.7053 5.87959 -9.03023e-18)
(7.33214 3.94124 -1.32505e-16)
(5.87036 4.90504 3.63397e-16)
(4.96311 5.15542 -2.44754e-16)
(1.89389 0.807246 1.99191e-16)
(3.16266 -0.22059 -2.70662e-16)
(5.0812 -1.14708 1.83604e-16)
(3.76961 -9.54523 0)
(1.55779 -9.57335 -4.39429e-17)
(-0.182771 -9.83344 1.27284e-16)
(3.37778 -18.2993 -9.60475e-19)
(5.06825 -17.302 4.6475e-17)
(6.51348 -16.5448 -3.20328e-17)
(11.7634 -20.9826 -9.08834e-19)