/*--------------------------------*- C++ -*----------------------------------*\
| =========                 |                                                 |
| \\      /  F ield         | OpenFOAM: The Open Source CFD Toolbox           |
|  \\    /   O peration     | Version:  v2006                                 |
|   \\  /    A nd           | Website:  www.openfoam.com                      |
|    \\/     M anipulation  |                                                 |
\*---------------------------------------------------------------------------*/
FoamFile
{
    version     2.0;
    format      ascii;
    class       volScalarField;
    location    "0.069";
    object      yPlus;
}
// * * * * * * * * * * * * * * * * * * * * * * * * * * * * * * * * * * * * * //

dimensions      [0 0 0 0 0 0 0];


internalField   uniform 0;

boundaryField
{
    bottomEmptyFaces
    {
        type            empty;
    }
    topEmptyFaces
    {
        type            empty;
    }
    inlet
    {
        type            calculated;
        value           uniform 0;
    }
    outlet
    {
        type            calculated;
        value           uniform 0;
    }
    walls
    {
        type            calculated;
        value           nonuniform List<scalar> 
1055
(
30.3905
29.6491
28.9727
28.3553
27.7957
27.2837
26.8225
26.4085
26.0439
25.7218
25.4386
25.1871
24.9664
24.7716
24.6047
24.4607
24.3411
24.2392
24.1555
24.0836
24.0251
23.9758
23.9376
23.9066
23.8838
23.8656
23.853
23.843
23.837
23.8325
23.8319
23.831
23.8328
23.8351
23.8381
23.8422
23.8459
23.8505
23.8539
23.8579
23.86
23.8627
23.8626
23.8637
23.8617
23.8615
23.8576
23.8559
23.8507
23.8479
23.8413
23.8371
23.8297
23.8246
23.8165
23.8107
23.8027
23.7966
23.7885
23.7821
23.774
23.7675
23.7591
23.7525
23.7441
23.7375
23.729
23.7224
23.714
23.7076
23.6995
23.6933
23.6854
23.6795
23.6719
23.6663
23.6591
23.6541
23.6473
23.6429
23.6365
23.6328
23.627
23.6239
23.6187
23.6165
23.612
23.6105
23.6068
23.606
23.6033
23.603
23.6013
23.6016
23.601
23.6017
23.6022
23.6034
23.605
23.6067
23.609
23.6114
23.6142
23.6175
23.6207
23.6248
23.6285
23.6333
23.6375
23.6428
23.6475
23.6533
23.6584
23.6647
23.6702
23.6768
23.6826
23.6897
23.6958
23.7032
23.7096
23.7172
23.7239
23.7318
23.7387
23.7469
23.754
23.7624
23.7697
23.7783
23.7858
23.7945
23.8022
23.811
23.8189
23.8277
23.8357
23.8447
23.8528
23.8618
23.8699
23.8789
23.8871
23.8962
23.9043
23.9134
23.9216
23.9307
23.9388
23.9478
23.956
23.9649
23.9731
23.982
23.9902
23.999
24.0071
24.016
24.024
24.0329
24.0409
24.0498
24.0578
24.0667
24.0747
24.0836
24.0916
24.1006
24.1086
24.1176
24.1256
24.1346
24.1426
24.1516
24.1594
24.1684
24.1761
24.185
24.1924
24.2012
24.2083
24.2252
24.2242
24.2248
24.2392
24.2485
24.254
24.2801
24.2891
24.3168
24.2763
24.2163
23.9996
24.1586
24.568
8.44152
7.24995
6.5958
11.3937
10.5667
9.66205
7.97642
18.262
13.3597
11.5844
11.4901
12.7352
9.36875
7.97406
12.4918
11.385
13.6571
13.6329
10.7222
9.19815
9.75558
9.67246
8.55405
7.38736
10.1485
9.91118
8.84559
7.48389
9.13198
7.6085
8.61566
7.38448
9.60377
10.0886
8.55662
7.40974
8.37505
7.30922
8.33037
7.17493
6.46033
10.4436
10.9326
9.7255
10.6065
9.49023
10.419
9.23024
9.9639
9.25318
10.1364
10.1261
10.5448
9.31903
10.2112
11.5534
8.40499
8.82775
9.01298
9.74186
10.3246
10.7705
11.8736
8.60423
9.05488
9.57688
10.3744
8.37085
9.02392
10.0083
7.31161
7.62011
8.79707
9.06474
10.1655
7.41202
7.76249
8.02734
8.50246
9.16655
9.53913
8.14591
8.70735
8.42539
9.13323
8.66535
9.39896
8.35106
8.92112
10.7559
9.39233
9.76915
7.75409
8.17123
10.5523
7.66117
8.06986
10.4385
9.09853
9.3996
8.28692
9.01145
7.97615
8.55338
7.55143
7.90819
9.88042
10.2882
11.3871
8.28131
8.71728
8.84995
9.74242
11.0293
7.94306
8.37968
8.69682
9.30372
9.12334
9.93891
9.64462
10.1039
8.98021
9.74812
8.65546
9.53122
8.51475
9.19869
9.4558
9.82428
10.8747
8.00291
8.30068
8.65831
9.40537
9.13481
9.99007
8.83349
9.59301
8.66017
9.10974
7.87715
7.69791
7.31358
7.03874
9.57225
7.43019
7.8569
8.34788
8.52575
9.45936
7.00611
7.20935
8.38727
8.59107
9.72617
7.10296
7.41141
7.59971
8.03815
8.15467
8.26261
7.02964
7.24904
7.97829
7.98451
7.82448
7.80893
9.16953
6.85782
7.02454
9.20945
7.8684
7.92821
6.81229
7.03016
9.07226
7.32567
7.0321
8.98474
7.78627
7.76532
8.67047
6.70552
6.73484
7.82961
7.74754
6.6755
6.71107
6.6892
6.8084
9.24671
7.96936
8.04815
9.29472
6.91914
7.1019
6.86185
7.08896
9.01405
8.77694
7.38824
6.97365
8.3286
6.97541
6.53778
8.33774
7.1805
6.58276
8.45789
7.07993
6.5329
8.38578
7.01124
6.46829
8.02261
6.39901
6.24934
8.25354
6.80473
6.45024
7.77794
7.36663
8.37262
7.73578
7.50742
6.4925
6.46631
8.76094
8.67438
7.27205
6.88231
7.39314
6.92821
7.09094
6.80312
8.97348
7.20056
6.93057
8.54471
6.63448
6.67719
8.73285
8.95476
10.0706
7.38938
7.68342
9.90373
7.20055
7.5194
8.58234
8.82954
7.782
8.28904
7.86398
8.33832
8.71588
9.0399
8.05388
8.58118
13.2265
11.3565
8.65261
11.2564
8.33551
11.6926
9.73661
7.02701
10.681
10.3623
7.16271
12.2635
9.99356
26.1778
24.6483
8.23397
8.77985
6.10802
25.2832
21.22
21.2293
20.3865
10.3557
20.1383
8.84691
25.4202
7.71983
20.6628
8.92245
6.10657
20.12
21.4494
20.9134
10.6962
9.5567
8.42767
7.42438
8.2763
5.95617
28.0718
26.4967
21.838
21.3818
22.1085
21.5535
25.0748
22.0433
20.922
27.163
23.2934
22.3958
9.98335
8.98888
8.44968
7.96953
7.32548
8.52157
6.07431
10.5138
9.69234
9.11786
8.62097
8.21737
7.6708
6.95455
7.82046
5.72145
9.66968
8.91778
8.47854
8.11414
7.81131
7.52045
7.27099
7.04217
6.91179
6.76497
6.39915
7.76835
5.36087
9.80743
9.26532
8.96191
8.79841
8.60078
13.9697
8.37822
8.20307
8.06515
7.91481
7.82049
10.9676
12.0111
7.67802
12.0596
12.5044
10.3993
11.2171
13.4655
11.6651
12.1899
9.7108
10.2692
10.6852
11.7236
7.58684
7.54841
7.42952
7.30704
7.21383
7.12937
7.05711
6.99965
14.7217
10.5449
11.1687
12.6178
13.1716
11.577
12.6904
6.95005
6.9127
6.88064
6.85707
6.83295
6.81426
6.804
6.79495
13.5633
14.175
12.3939
13.48
6.78863
6.7773
6.77343
6.77115
6.76497
6.7594
6.75801
6.75648
13.825
14.27
13.2435
14.3625
12.5427
13.532
16.1094
11.6465
12.3158
6.75052
15.7933
6.74459
6.74315
11.3719
12.0109
6.73899
6.73726
12.2943
13.1666
6.7283
6.72522
6.71941
15.2066
11.8569
12.9464
13.0705
13.6062
11.8117
12.7716
10.9803
11.5739
11.3935
12.2675
11.3167
12.3409
12.1862
12.6665
11.0854
12.2001
14.1088
10.1798
10.7407
10.9019
11.7476
14.4369
11.1488
12.0807
10.4305
11.0127
12.3906
12.9329
10.7981
11.6639
10.1648
10.6898
19.2139
14.3659
14.9413
6.71492
6.70456
6.69925
6.69479
20.7116
6.68476
6.67543
6.66924
19.9889
6.66402
14.534
15.4535
17.3376
17.3815
19.8338
16.8637
17.2281
14.6228
15.3397
16.7162
16.9887
6.65306
6.64314
6.63649
6.63099
6.62027
6.61054
6.60426
6.59907
6.58844
6.57891
6.57276
6.56747
6.55699
6.54704
6.54099
15.4352
6.53531
15.7259
16.2548
16.7835
14.4231
15.4049
18.213
13.1212
13.9304
6.52484
6.51519
6.50913
6.50388
6.49389
6.48412
6.47909
6.47141
17.4642
13.9946
14.9615
12.9023
13.6384
13.35
14.2844
17.1153
14.6504
15.2158
12.246
13.0321
14.811
15.4464
18.3969
15.7157
16.2075
13.3043
14.064
19.2367
19.0443
13.9674
14.6187
16.285
16.4911
16.1435
16.611
6.46685
14.1386
6.45577
14.8918
6.45047
6.44324
6.43829
6.42671
6.42207
6.41485
21.4053
6.41008
6.39908
15.9086
16.5984
6.39422
6.38798
6.38381
6.37412
6.36954
22.1815
6.36574
21.9202
18.1169
17.8874
18.7134
18.8877
19.8464
19.9545
23.5541
6.35693
18.8502
6.35059
18.6928
6.34203
6.34086
6.33245
22.7648
6.32727
6.3217
18.7531
18.4387
6.31447
22.9843
17.8987
18.443
16.8199
17.404
18.0883
18.362
15.5072
16.1752
6.31332
6.30761
6.31112
6.37386
6.41623
6.51446
6.77333
7.12386
29.3111
25.9767
30.2589
23.7722
22.1269
29.8847
27.1133
26.8788
23.3878
22.2534
9.91598
10.7593
33.3222
32.1919
31.0639
32.8759
25.5249
23.4438
30.9769
26.7806
25.3496
22.8834
12.5378
30.5855
9.97447
10.9085
10.8457
11.2645
29.1312
35.4196
27.4283
25.3796
10.2526
11.2128
10.0362
11.001
35.8246
12.8042
11.1229
11.5921
9.28413
9.76429
36.5041
9.78779
10.5773
9.12831
9.58601
36.8779
36.751
36.8338
36.499
35.7672
13.164
34.855
10.76
11.7151
10.4418
11.4848
10.2401
11.0619
9.52099
10.0356
10.4104
11.3866
11.3325
11.7758
10.2235
11.1487
33.9071
32.9606
32.05
31.1923
9.60719
10.5652
11.9836
8.68335
9.13694
9.35307
10.0876
9.77037
10.7157
25.0506
7.56375
36.4711
33.1929
31.0012
29.531
28.4213
27.3887
26.6569
25.9466
25.5499
25.0744
24.7909
24.4221
24.2085
23.9079
23.7399
23.4854
23.3472
23.1238
23.0058
22.8044
22.7008
22.5154
22.4219
22.2482
22.162
21.9971
21.9162
21.7582
21.6813
21.5286
21.4547
21.3063
21.2346
21.0896
21.0196
20.8774
20.8086
20.6687
20.6008
20.4626
20.3953
20.2584
20.1915
20.0554
19.9885
19.8529
19.7858
19.6501
19.5825
19.4464
19.3781
19.2412
19.1719
19.0339
18.9633
18.8238
18.7518
18.6104
18.5369
18.3934
18.3181
18.1723
18.0951
17.9467
17.8676
17.7165
17.6355
17.4817
17.399
17.2424
17.1581
16.9989
16.9133
16.7517
16.6652
16.5017
16.4149
16.2501
16.1639
15.9987
15.9141
15.7497
15.6681
15.506
15.4291
15.2713
15.2012
15.0498
14.9891
14.8466
14.7989
14.6689
14.6359
14.5253
14.5069
14.4189
14.4164
14.3584
14.3687
14.3438
14.3665
14.3591
14.4107
14.4188
14.4977
14.5216
14.6234
14.659
14.7763
14.8204
14.9481
14.9984
15.1337
15.1881
15.3275
15.3834
15.523
15.5785
15.7153
15.7687
15.8997
15.9497
16.0725
16.1179
16.2308
16.2711
16.3724
16.4066
16.4951
16.5229
16.5983
16.6196
16.6823
16.6976
16.7487
16.7585
16.7987
16.8032
16.8336
16.834
16.8563
16.8541
16.8695
16.8649
16.8749
16.8687
16.8754
16.8675
16.8719
16.8589
16.8622
16.8466
16.8491
16.8314
16.8333
16.8139
16.8154
16.7946
16.7958
16.774
16.7749
16.7523
16.7529
16.7295
16.73
16.7029
16.7092
16.6762
16.6855
16.6402
16.7145
16.7429
16.9448
17.2254
18.2698
20.9101
18.9401
39.9398
)
;
    }
    rightWall
    {
        type            calculated;
        value           uniform 0;
    }
    symmetryLine
    {
        type            symmetryPlane;
    }
}


// ************************************************************************* //
