/*--------------------------------*- C++ -*----------------------------------*\
| =========                 |                                                 |
| \\      /  F ield         | OpenFOAM: The Open Source CFD Toolbox           |
|  \\    /   O peration     | Version:  v2006                                 |
|   \\  /    A nd           | Website:  www.openfoam.com                      |
|    \\/     M anipulation  |                                                 |
\*---------------------------------------------------------------------------*/
FoamFile
{
    version     2.0;
    format      ascii;
    class       volScalarField;
    location    "0.109";
    object      Ma;
}
// * * * * * * * * * * * * * * * * * * * * * * * * * * * * * * * * * * * * * //

dimensions      [0 0 0 0 0 0 0];


internalField   nonuniform List<scalar> 
16277
(
0.139392
0.139393
0.139392
0.13939
0.13939
0.139384
0.13937
0.139325
0.139223
0.139061
0.138856
0.138629
0.138396
0.138162
0.137926
0.137685
0.137437
0.13718
0.136911
0.136631
0.13634
0.136038
0.135725
0.135401
0.135066
0.13472
0.134365
0.133998
0.133622
0.133236
0.13284
0.132435
0.132021
0.131598
0.131167
0.130728
0.130282
0.129828
0.129367
0.1289
0.128427
0.127949
0.127466
0.126978
0.126487
0.125992
0.125494
0.124994
0.124492
0.123988
0.123485
0.122981
0.122477
0.121975
0.121474
0.120975
0.12048
0.119987
0.119499
0.119016
0.118538
0.118066
0.1176
0.117142
0.116691
0.116248
0.115815
0.115391
0.114977
0.114573
0.114181
0.1138
0.113431
0.113075
0.112732
0.112403
0.112086
0.111782
0.111486
0.111196
0.110909
0.110632
0.11039
0.110219
0.110144
0.110142
0.110172
0.110207
0.110235
0.110232
0.110211
0.11014
0.109962
0.109664
0.10918
0.108622
0.106571
0.105256
0.108647
0.109316
0.109386
0.108499
0.103772
0.102304
0.108323
0.10945
0.109443
0.108053
0.100955
0.0997104
0.107766
0.109402
0.109288
0.107397
0.0985492
0.0974998
0.10706
0.10917
0.108998
0.106678
0.096507
0.0956371
0.106346
0.108845
0.108639
0.105946
0.0947946
0.0940424
0.105608
0.108452
0.108216
0.105198
0.0933002
0.0926297
0.104858
0.108009
0.107754
0.104448
0.0919643
0.0913627
0.104117
0.107538
0.107264
0.103703
0.090749
0.0901902
0.103371
0.107034
0.106742
0.102953
0.0896132
0.0890906
0.102624
0.106503
0.106204
0.10221
0.088551
0.0880585
0.101886
0.10596
0.105652
0.101472
0.0875443
0.0870734
0.10115
0.105401
0.105085
0.100735
0.0865786
0.0861246
0.100414
0.104828
0.104503
0.0999978
0.0856449
0.0852039
0.0996768
0.104239
0.103906
0.0992579
0.0847357
0.0843045
0.0989353
0.103636
0.103293
0.0985129
0.0838448
0.0834205
0.0981875
0.103016
0.102664
0.0977605
0.0829667
0.0825472
0.0974312
0.102379
0.102018
0.0969992
0.0820974
0.0816808
0.0966651
0.101724
0.101353
0.0962272
0.0812334
0.0808182
0.0958875
0.10105
0.100669
0.095443
0.0803718
0.0799566
0.0950966
0.100357
0.0999646
0.0946447
0.0795099
0.0790935
0.0942907
0.0996426
0.0992389
0.093831
0.0786453
0.0782264
0.0934689
0.098906
0.0984902
0.0930002
0.0777754
0.077353
0.0926292
0.098146
0.0977175
0.0921509
0.0768982
0.0764711
0.0917701
0.0973613
0.0969194
0.0912812
0.0760113
0.0755785
0.0908898
0.0965506
0.0960947
0.0903897
0.0751127
0.0746732
0.0899867
0.0957123
0.0952418
0.0894744
0.0742003
0.073753
0.089059
0.0948453
0.0943594
0.0885339
0.0732721
0.0728162
0.0881053
0.093948
0.0934462
0.0875667
0.0723264
0.071861
0.0871242
0.0930193
0.0925011
0.0865713
0.0713616
0.070886
0.0861143
0.0920581
0.0915231
0.0855468
0.0703763
0.06989
0.0850747
0.0910636
0.0905114
0.0844923
0.0693696
0.0688723
0.0840048
0.0900351
0.0894655
0.0834073
0.068341
0.0678327
0.0829045
0.0889725
0.0883858
0.0822921
0.0672907
0.0667721
0.0817743
0.0878763
0.0872731
0.0811478
0.0662202
0.065692
0.0806159
0.0867478
0.0861291
0.0799764
0.0651313
0.0645952
0.0794318
0.0855894
0.0849569
0.0787812
0.0640273
0.0634853
0.0782259
0.0844046
0.0837605
0.0775665
0.0629128
0.0623678
0.0770035
0.0831983
0.0825456
0.0763388
0.0617941
0.0612503
0.0757719
0.0819771
0.0813202
0.0751065
0.0606799
0.0601424
0.074541
0.0807501
0.0800944
0.0738807
0.0595812
0.0590567
0.0733233
0.0795288
0.0788812
0.0726754
0.0585121
0.0580088
0.0721343
0.0783278
0.0776968
0.071508
0.0574898
0.0570179
0.0709933
0.0771653
0.0765614
0.0703998
0.0565356
0.0561072
0.069924
0.0760633
0.0754994
0.0693767
0.0556747
0.0553039
0.068954
0.0750483
0.0745385
0.068468
0.0549358
0.0546415
0.0681126
0.0741496
0.0737103
0.0677056
0.0543528
0.054165
0.0674346
0.0733978
0.0730467
0.0671246
0.0539673
0.0538991
0.066959
0.0728342
0.0725837
0.06676
0.0538024
0.0538653
0.0667138
0.0724855
0.072347
0.0666367
0.0538773
0.0540751
0.0667171
0.0723711
0.0723522
0.0667678
0.0541987
0.0545175
0.0669664
0.0724921
0.0725853
0.0671329
0.0547488
0.0552015
0.0674663
0.0728583
0.0730787
0.0677652
0.0555627
0.0561432
0.0682367
0.0734903
0.0738318
0.0686552
0.0566073
0.0572522
0.069214
0.0743338
0.0747588
0.0697103
0.0577703
0.0584528
0.0703321
0.0753303
0.0758151
0.07088
0.058997
0.0596929
0.071539
0.076433
0.0769578
0.0721168
0.0602421
0.0609332
0.0727934
0.0776036
0.0781498
0.0733816
0.0614701
0.0621399
0.074057
0.078805
0.0793548
0.0746376
0.0626475
0.0632815
0.075295
0.0800025
0.0805397
0.0758521
0.0637464
0.0643332
0.0764777
0.0811653
0.0816765
0.0769981
0.0647454
0.0652766
0.0775809
0.0822678
0.0827417
0.0780544
0.0656289
0.0660994
0.0785856
0.0832894
0.0837173
0.0790029
0.0663903
0.0667973
0.0794773
0.0842143
0.0845886
0.0798321
0.0670308
0.067371
0.0802478
0.0850312
0.0853513
0.0805422
0.0675478
0.0678236
0.080899
0.0857382
0.0860045
0.0811343
0.0679467
0.0681629
0.0814347
0.0863363
0.0865506
0.0816142
0.0682377
0.0684012
0.0818622
0.0868303
0.0869964
0.0819911
0.0684342
0.0685536
0.082193
0.0872297
0.0873532
0.0822781
0.0685526
0.0686367
0.0824405
0.0875462
0.0876329
0.0824888
0.0686091
0.0686658
0.0826184
0.0877919
0.0878477
0.0826363
0.0686179
0.0686541
0.0827394
0.0879785
0.088009
0.0827328
0.0685912
0.0686124
0.0828147
0.0881169
0.0881268
0.0827889
0.068539
0.0685494
0.082854
0.0882161
0.0882096
0.0828133
0.0684686
0.0684724
0.0828662
0.0882848
0.0882656
0.0828146
0.0683873
0.0683861
0.0828578
0.0883295
0.0883003
0.0827981
0.0682982
0.0682946
0.0828346
0.088356
0.0883192
0.082769
0.0682057
0.0682
0.0827993
0.0883671
0.0883235
0.0827286
0.0681098
0.0681042
0.0827553
0.0883667
0.0883178
0.0826805
0.068013
0.068011
0.0827071
0.0883588
0.0883081
0.0826312
0.0679219
0.0679193
0.0826554
0.0883451
0.088287
0.0825728
0.0678242
0.0678187
0.0825932
0.0883217
0.0882676
0.0825187
0.0677359
0.0677336
0.0825404
0.0883024
0.0882436
0.082461
0.0676456
0.0676444
0.0824823
0.0882766
0.0882187
0.0824026
0.0675577
0.067569
0.0824344
0.0882593
0.0882029
0.082358
0.0674855
0.0674924
0.0823876
0.0882557
0.0882138
0.0823252
0.067411
0.0675138
0.0824015
0.0883006
0.08829
0.0824136
0.0674978
0.0677108
0.0826158
0.0884752
0.0886349
0.0828495
0.0681287
0.068977
0.0834282
0.089172
0.0907165
0.0857265
0.0722872
0.0715739
0.0829894
0.0881979
0.0916119
0.094126
0.0955798
0.0960836
0.0963889
0.096993
0.0972354
0.0975014
0.0976208
0.0977228
0.0977452
0.0977132
0.0976392
0.0974443
0.0972424
0.0967359
0.0964482
0.0961235
0.095727
0.0950553
0.0933217
0.0895789
0.0817494
0.071774
0.0512267
0.04963
0.0707519
0.0809507
0.080098
0.0697908
0.0483571
0.0475509
0.0691509
0.0795473
0.0792909
0.0688937
0.0469551
0.0468551
0.0687651
0.0791867
0.0790794
0.0686567
0.0465294
0.0465166
0.0685858
0.0790862
0.0790979
0.0685978
0.0465328
0.0465613
0.0686226
0.0791208
0.0791489
0.0686581
0.0466024
0.046647
0.0687004
0.0791841
0.0792167
0.0687429
0.0466947
0.0467465
0.0687913
0.0792568
0.0792963
0.0688408
0.0468012
0.0468571
0.0688934
0.0793395
0.0793789
0.0689442
0.0469122
0.0469716
0.068999
0.0794242
0.0794674
0.0690543
0.0470321
0.0470935
0.069111
0.079514
0.0795571
0.0691653
0.0471529
0.0472145
0.0692226
0.0796044
0.0796504
0.0692803
0.047278
0.0473412
0.0693396
0.0796996
0.0797447
0.0693963
0.0474035
0.0474682
0.0694562
0.0797941
0.0798417
0.0695161
0.0475345
0.047601
0.0695781
0.0798928
0.07994
0.0696375
0.0476668
0.0477344
0.0696997
0.0799913
0.080041
0.0697616
0.0478034
0.0478717
0.0698249
0.0800938
0.0801423
0.0698853
0.047939
0.0480079
0.0699486
0.0801952
0.0802469
0.0700122
0.0480785
0.0481488
0.0700778
0.0803018
0.0803524
0.0701413
0.0482192
0.0482926
0.0702086
0.0804083
0.0804619
0.0702753
0.0483662
0.0484402
0.0703433
0.0805192
0.0805723
0.0704092
0.0485132
0.048587
0.0704769
0.0806297
0.0806861
0.070545
0.0486609
0.0487346
0.0706141
0.0807461
0.080802
0.0706807
0.0488058
0.0488804
0.0707515
0.0808631
0.0809227
0.0708227
0.0489556
0.0490308
0.0708952
0.0809862
0.0810468
0.0709662
0.0491041
0.0491793
0.0710401
0.081112
0.0811756
0.0711141
0.0492544
0.0493288
0.0711894
0.0812436
0.0813094
0.0712632
0.0494001
0.0494733
0.0713406
0.0813809
0.0814521
0.0714189
0.0495454
0.049617
0.0714989
0.0815277
0.0816018
0.0715787
0.0496863
0.0497576
0.0716626
0.0816825
0.0817636
0.0717482
0.0498275
0.0498976
0.0718367
0.08185
0.0819362
0.0719254
0.0499645
0.0500316
0.0720185
0.0820293
0.0821235
0.0721136
0.0500967
0.0501608
0.0722117
0.0822236
0.0823246
0.0723115
0.0502217
0.0502837
0.0724172
0.0824338
0.0825459
0.0725266
0.0503446
0.0504039
0.0726412
0.082666
0.0827884
0.072759
0.050461
0.0505182
0.0728843
0.0829206
0.0830582
0.0730163
0.0505762
0.0506329
0.0731556
0.0832056
0.0833576
0.0733013
0.0506894
0.0507491
0.0734581
0.0835225
0.0836942
0.0736247
0.0508126
0.0508803
0.0738024
0.083878
0.0840703
0.0739908
0.0509551
0.0510408
0.0741951
0.0842778
0.0844943
0.0744125
0.0511379
0.0512509
0.0746482
0.0847264
0.0849714
0.0749011
0.051384
0.0515444
0.0751782
0.0852349
0.0855125
0.0754781
0.0517365
0.0519666
0.0758056
0.085808
0.0861204
0.0761608
0.0522388
0.0525657
0.0765537
0.0864557
0.0868109
0.0769834
0.0529537
0.0534107
0.0774534
0.0871902
0.0875943
0.0779691
0.0539456
0.0545768
0.078538
0.0880297
0.0884918
0.0791588
0.0553064
0.0561689
0.0798608
0.0890056
0.0895979
0.0806855
0.0572335
0.0585663
0.0816378
0.0902672
0.0909389
0.0826201
0.0598971
0.0611596
0.0835644
0.0915432
0.0920285
0.0843466
0.0623809
0.0634483
0.0847893
0.0923519
0.0926123
0.0854312
0.0644966
0.0654632
0.0858013
0.0928201
0.0929638
0.0862079
0.0665366
0.0676823
0.0866171
0.0931224
0.0931519
0.0869069
0.0687197
0.0696128
0.0871667
0.0931372
0.0931257
0.0874504
0.07059
0.0716579
0.0877327
0.0931304
0.0930899
0.0879663
0.072755
0.0733584
0.0881554
0.0928853
0.0922829
0.0877607
0.0732742
0.0583108
0.0809081
0.0892074
0.0916148
0.0839579
0.0620681
0.0620944
0.0843426
0.0917573
0.0916665
0.0845363
0.0630473
0.0643074
0.0846163
0.09147
0.0915305
0.0850835
0.0658257
0.0674979
0.0854427
0.0915143
0.0915663
0.0859635
0.0690972
0.0705591
0.0862079
0.0914508
0.0914609
0.0866353
0.072035
0.0734556
0.0869652
0.0913733
0.0912477
0.0872717
0.0747087
0.0750849
0.0870986
0.0906947
0.0882961
0.0819152
0.0645634
0.0687254
0.0847207
0.0902362
0.0903408
0.0851783
0.0696654
0.0712062
0.085788
0.090439
0.0904167
0.086089
0.0724133
0.0735733
0.0863047
0.0902893
0.090196
0.0865981
0.0747634
0.0753488
0.0865961
0.089917
0.0892555
0.0862317
0.075631
0.0667092
0.0817124
0.0871543
0.0885988
0.0841841
0.0700604
0.0709481
0.08439
0.0884343
0.0881197
0.0844724
0.0721478
0.0732959
0.0844197
0.087759
0.0873745
0.0845253
0.0745166
0.0748363
0.0841083
0.0865128
0.0846239
0.0802827
0.0670415
0.0711076
0.0822375
0.0858154
0.0855933
0.0825062
0.0721705
0.0731496
0.0823949
0.0851424
0.0845788
0.0823094
0.0738047
0.0737514
0.0815526
0.0835362
0.0818913
0.0784097
0.06716
0.0703636
0.0797256
0.0824729
0.0816202
0.0793038
0.070784
0.0716053
0.0788648
0.0806949
0.0793406
0.0778899
0.0713957
0.0660274
0.0751292
0.0777218
0.0777049
0.0757011
0.0688778
0.0689375
0.0748107
0.0763771
0.0747792
0.0736547
0.0688245
0.0677314
0.0717648
0.0724561
0.0701309
0.0686947
0.0631144
0.0635451
0.0675622
0.0684392
0.0650096
0.0647149
0.0615976
0.0568696
0.0607804
0.0618458
0.05869
0.0581746
0.0558957
0.0517603
0.0526347
0.0525443
0.0452036
0.0449183
0.0437167
0.0348553
0.0347507
0.0351793
0.0239796
0.0220369
0.0206146
0.0059327
0.00913298
0.0150051
0.0295607
0.0279389
0.0283315
0.0536077
0.0519388
0.0512226
0.0693127
0.0707703
0.0721996
0.0833237
0.0831552
0.0822575
0.0866982
0.0866289
0.0854394
0.0890319
0.0917235
0.0917645
0.0932376
0.0924409
0.0889794
0.0908935
0.0952233
0.0958892
0.0967948
0.0953379
0.0905292
0.0872112
0.0944941
0.0965524
0.0984746
0.0968247
0.0895516
0.0867602
0.0949729
0.0974938
0.0994022
0.097663
0.0904542
0.0893929
0.0969894
0.0994271
0.0981517
0.0950443
0.0864674
0.0897431
0.0977635
0.0998431
0.0995889
0.0966655
0.0880898
0.085078
0.0944929
0.0981
0.0998205
0.0975625
0.0888589
0.0872037
0.0964313
0.0995388
0.0977695
0.0938935
0.0837908
0.0878394
0.0969687
0.099439
0.099336
0.0961074
0.0866086
0.0830784
0.0933728
0.0974871
0.0991478
0.0965591
0.087488
0.0865047
0.0958805
0.0991709
0.0972927
0.0932144
0.0829636
0.0868727
0.0962591
0.0989104
0.0988873
0.095497
0.0858342
0.0825708
0.0929319
0.0971048
0.0988453
0.0960039
0.0866122
0.0855852
0.0953095
0.0986765
0.0967864
0.0927456
0.0822735
0.0865073
0.0958503
0.0986504
0.0986212
0.0953567
0.0855128
0.0838503
0.0940006
0.0979339
0.0956212
0.0910692
0.0790248
0.0838402
0.0946715
0.0977258
0.0978663
0.0941037
0.0827749
0.0791158
0.0909447
0.0957098
0.0978297
0.094652
0.0838227
0.082472
0.0936074
0.0975856
0.0953939
0.0908785
0.0784506
0.0835712
0.0945409
0.0976293
0.0977355
0.0939607
0.082615
0.0789209
0.0907832
0.0955649
0.0977253
0.0944274
0.0833285
0.0821432
0.0936527
0.0976519
0.095555
0.0907101
0.0788581
0.0837594
0.0946814
0.097923
0.0978536
0.0939089
0.0826522
0.0788308
0.0909471
0.0956004
0.0979023
0.0946097
0.08368
0.0826472
0.0938234
0.0978184
0.0957955
0.0911978
0.0790366
0.0841342
0.0950985
0.0982945
0.0982634
0.0942483
0.0830656
0.0786173
0.0912313
0.0958891
0.0983513
0.09502
0.0834355
0.0811504
0.0930406
0.0971417
0.0996106
0.096712
0.086418
0.0858374
0.0961222
0.0996909
0.0977208
0.0934305
0.0826826
0.0867491
0.0968156
0.0999401
0.0997504
0.0960202
0.0855135
0.0824201
0.0934835
0.0978938
0.100456
0.0973927
0.0873081
0.0866467
0.0970211
0.100568
0.0986175
0.0943776
0.0835482
0.0875956
0.0978335
0.100955
0.100635
0.0969569
0.0862794
0.0828158
0.0940627
0.0985384
0.10107
0.0979816
0.0876718
0.0871508
0.0976171
0.101386
0.0993721
0.0951381
0.0834091
0.0876595
0.0987437
0.101799
0.100372
0.096531
0.0851471
0.0889289
0.0995166
0.10247
0.102412
0.0987384
0.0879103
0.0852102
0.0963078
0.100655
0.10312
0.100236
0.0899259
0.0890883
0.0996683
0.103258
0.101212
0.0970044
0.0854731
0.0897033
0.100676
0.103622
0.102167
0.0982871
0.0869923
0.0911148
0.10138
0.104338
0.104607
0.101063
0.0907935
0.0881195
0.0987374
0.102935
0.105207
0.102333
0.092354
0.0915062
0.101708
0.10527
0.103294
0.0991793
0.0878462
0.0917918
0.102723
0.105661
0.104128
0.100227
0.0889091
0.0930628
0.103313
0.106182
0.106583
0.103071
0.0927929
0.0900206
0.100835
0.104981
0.107255
0.104405
0.0942217
0.0932148
0.103858
0.107425
0.105317
0.100801
0.0899526
0.0935692
0.104674
0.107592
0.106219
0.102185
0.0906967
0.0949211
0.105422
0.10847
0.108589
0.105005
0.0945969
0.0914615
0.102626
0.10669
0.109294
0.106441
0.0955923
0.0933988
0.104521
0.108315
0.110679
0.107896
0.0977472
0.0966556
0.107033
0.110471
0.108249
0.103888
0.0932786
0.0964889
0.107394
0.110436
0.109365
0.105359
0.0942524
0.099237
0.109179
0.111936
0.112105
0.108596
0.0984676
0.0954116
0.105766
0.110222
0.112603
0.109747
0.0991833
0.0968676
0.107722
0.111513
0.113685
0.110938
0.10089
0.0998005
0.109923
0.113417
0.111146
0.107006
0.0958742
0.0998215
0.110611
0.113438
0.112704
0.109053
0.09809
0.102452
0.112611
0.115223
0.115412
0.112066
0.101652
0.0985262
0.109023
0.113426
0.115648
0.112933
0.101811
0.099479
0.11061
0.11448
0.116759
0.114028
0.103306
0.100646
0.111492
0.115283
0.117189
0.114436
0.104337
0.103976
0.114034
0.117482
0.115844
0.111664
0.101248
0.104993
0.115524
0.118292
0.117308
0.113598
0.102815
0.106804
0.116949
0.119574
0.119534
0.116105
0.105673
0.102502
0.113038
0.117478
0.119639
0.116902
0.105522
0.102676
0.114237
0.118199
0.12039
0.117591
0.106395
0.104695
0.115816
0.119536
0.121971
0.119397
0.10932
0.108573
0.118723
0.122119
0.120318
0.116292
0.105393
0.109007
0.119927
0.122711
0.121419
0.11765
0.106422
0.110337
0.121144
0.123769
0.122588
0.119033
0.108301
0.111726
0.121878
0.124521
0.1243
0.12077
0.110417
0.107313
0.117965
0.122429
0.124906
0.122174
0.111221
0.1092
0.12025
0.124002
0.126404
0.123867
0.113175
0.11121
0.121884
0.125413
0.127573
0.125068
0.115174
0.11436
0.124285
0.127609
0.125766
0.121753
0.111106
0.114384
0.125178
0.127963
0.126548
0.122738
0.11167
0.115021
0.125985
0.128743
0.127762
0.124034
0.113168
0.11739
0.127417
0.129986
0.130142
0.126719
0.116745
0.113194
0.12444
0.128348
0.130732
0.127989
0.116824
0.114338
0.125923
0.129576
0.131852
0.129384
0.118202
0.116071
0.127181
0.130721
0.132775
0.130247
0.120034
0.119058
0.129212
0.132643
0.130524
0.126452
0.115029
0.118607
0.129824
0.132803
0.131823
0.1279
0.116505
0.1209
0.131865
0.134503
0.13348
0.129814
0.118994
0.122704
0.133294
0.135801
0.134753
0.131293
0.120733
0.124472
0.134344
0.136827
0.136814
0.133535
0.123562
0.120622
0.130613
0.134953
0.137119
0.13447
0.123265
0.1207
0.132069
0.135896
0.138103
0.135353
0.123951
0.121636
0.132991
0.136879
0.139228
0.136613
0.12586
0.124092
0.134713
0.138319
0.140561
0.138122
0.128215
0.127473
0.137389
0.140705
0.138947
0.135015
0.124006
0.127552
0.138567
0.141314
0.140156
0.136392
0.125047
0.128755
0.139915
0.142527
0.141285
0.137599
0.126545
0.130188
0.140912
0.143447
0.142241
0.138639
0.128042
0.131537
0.141617
0.144215
0.14429
0.140873
0.130843
0.127512
0.138593
0.142575
0.145066
0.142214
0.131184
0.128703
0.140158
0.143986
0.146452
0.143898
0.13265
0.130539
0.141653
0.14532
0.14747
0.144933
0.134103
0.131999
0.142789
0.146387
0.148482
0.14594
0.135939
0.135018
0.145173
0.148517
0.146603
0.142173
0.131951
0.134481
0.146104
0.148732
0.147592
0.143679
0.131931
0.136119
0.147531
0.150183
0.149153
0.145346
0.134194
0.13797
0.149007
0.151602
0.150486
0.146831
0.135903
0.139419
0.150155
0.152719
0.151686
0.14812
0.137516
0.141272
0.151357
0.153822
0.153869
0.150446
0.140464
0.136616
0.14813
0.152073
0.154536
0.151489
0.140355
0.137561
0.149249
0.153171
0.155466
0.15277
0.141145
0.138792
0.150279
0.154195
0.156614
0.153926
0.142776
0.140933
0.15186
0.155602
0.157948
0.155369
0.14459
0.142783
0.153463
0.157046
0.159333
0.156864
0.146911
0.146059
0.156077
0.159437
0.15764
0.153624
0.142568
0.146226
0.157258
0.160075
0.158925
0.155036
0.143799
0.147726
0.158884
0.161502
0.160331
0.156587
0.145509
0.148973
0.159986
0.16261
0.161351
0.157604
0.146755
0.150346
0.160998
0.163607
0.162692
0.159143
0.14858
0.152368
0.162442
0.164898
0.165034
0.161638
0.151666
0.147971
0.159405
0.163317
0.165766
0.162795
0.151481
0.148953
0.160666
0.164618
0.167144
0.164536
0.152839
0.150513
0.162189
0.165967
0.168325
0.165739
0.154342
0.152322
0.16352
0.167197
0.169425
0.166839
0.155844
0.15396
0.164787
0.168418
0.170699
0.16822
0.158066
0.157235
0.167411
0.170855
0.169111
0.165058
0.15375
0.157401
0.168736
0.17163
0.170583
0.16667
0.155064
0.159091
0.170644
0.173256
0.172095
0.168298
0.156758
0.160622
0.171907
0.174513
0.173435
0.169758
0.158693
0.162229
0.173186
0.175781
0.17481
0.171173
0.160353
0.164338
0.174582
0.177057
0.17717
0.173664
0.163508
0.159495
0.171492
0.17544
0.178097
0.174959
0.163534
0.160914
0.172797
0.176872
0.179443
0.17673
0.164887
0.16256
0.174372
0.178279
0.180828
0.178158
0.166447
0.164402
0.175901
0.179724
0.182151
0.179501
0.168095
0.166093
0.177277
0.181071
0.183556
0.180969
0.17004
0.168233
0.179045
0.182671
0.184999
0.182474
0.172413
0.171563
0.181824
0.185292
0.183648
0.179291
0.168631
0.172006
0.183407
0.18614
0.185166
0.181243
0.169778
0.173898
0.185304
0.18789
0.186837
0.183055
0.171824
0.175568
0.186698
0.18931
0.188254
0.184506
0.173634
0.177324
0.188078
0.190667
0.189731
0.18614
0.17545
0.179408
0.18957
0.192054
0.192247
0.188774
0.178441
0.175222
0.18651
0.190607
0.193177
0.190324
0.178945
0.176302
0.188008
0.192006
0.194653
0.191992
0.180304
0.178254
0.189828
0.193641
0.196132
0.193521
0.182033
0.180177
0.19142
0.195196
0.197821
0.195294
0.184245
0.182535
0.193487
0.197064
0.199449
0.197014
0.186778
0.185523
0.196141
0.199642
0.197965
0.193482
0.182628
0.186164
0.197763
0.200588
0.199507
0.195433
0.183711
0.187873
0.199557
0.202276
0.201206
0.19725
0.185752
0.189834
0.201184
0.203864
0.202922
0.199139
0.188009
0.19187
0.202877
0.205491
0.204699
0.201012
0.19005
0.194425
0.20474
0.207252
0.207723
0.204185
0.193659
0.190641
0.202
0.20624
0.209019
0.206165
0.194738
0.192387
0.204081
0.208011
0.210717
0.20801
0.196289
0.193876
0.205568
0.209533
0.212007
0.209272
0.197712
0.195615
0.207049
0.210953
0.213654
0.211019
0.199827
0.197888
0.209108
0.212835
0.215337
0.212783
0.2022
0.201458
0.212282
0.215872
0.214329
0.210003
0.198561
0.20243
0.214142
0.217073
0.216158
0.212092
0.200224
0.204787
0.216486
0.219197
0.218463
0.214558
0.202909
0.207885
0.218999
0.221474
0.220728
0.217173
0.206097
0.209643
0.220491
0.22301
0.223054
0.219369
0.208261
0.204578
0.217043
0.221283
0.224115
0.221029
0.208803
0.206241
0.218794
0.223005
0.225927
0.223138
0.210788
0.208472
0.220846
0.224911
0.227773
0.224994
0.213133
0.211009
0.222933
0.226916
0.229698
0.226985
0.215889
0.215103
0.226639
0.230423
0.22894
0.224041
0.212614
0.216648
0.229084
0.231989
0.231369
0.227159
0.214641
0.220186
0.232276
0.234816
0.233835
0.229901
0.217874
0.221547
0.233562
0.236341
0.235201
0.231183
0.219103
0.223612
0.235095
0.237863
0.238088
0.234072
0.222348
0.218634
0.231932
0.236414
0.239676
0.236389
0.223802
0.221072
0.234141
0.238552
0.241692
0.238766
0.226057
0.223939
0.236644
0.240868
0.244205
0.24135
0.229037
0.22697
0.239445
0.243563
0.246648
0.243943
0.232262
0.231823
0.243839
0.247749
0.246627
0.242197
0.229381
0.234316
0.247047
0.249982
0.248491
0.244144
0.230896
0.235331
0.248262
0.251273
0.250062
0.245768
0.232821
0.237487
0.250145
0.253093
0.252135
0.247882
0.235167
0.240114
0.252146
0.255036
0.255629
0.251482
0.239098
0.235945
0.249139
0.254012
0.257273
0.253979
0.241062
0.238554
0.251938
0.256429
0.26009
0.257192
0.244364
0.242243
0.255422
0.259655
0.263167
0.26048
0.248263
0.248512
0.260875
0.264693
0.263186
0.258767
0.24547
0.249662
0.262856
0.266137
0.264518
0.259892
0.246168
0.251052
0.264496
0.267703
0.266589
0.262021
0.248512
0.253785
0.26688
0.26993
0.269181
0.264793
0.251634
0.257079
0.269444
0.27245
0.273348
0.269078
0.256219
0.253538
0.266536
0.271827
0.27525
0.271977
0.258733
0.256474
0.270013
0.274655
0.278735
0.275864
0.262688
0.261073
0.274436
0.278754
0.282602
0.280288
0.268825
0.268606
0.280385
0.283846
0.28176
0.27699
0.264161
0.267586
0.281119
0.284471
0.283173
0.278424
0.264421
0.269921
0.283573
0.286755
0.285999
0.281419
0.267494
0.273359
0.286383
0.289452
0.290454
0.286009
0.272416
0.269534
0.283436
0.28893
0.292515
0.289034
0.275345
0.272815
0.287071
0.291942
0.296167
0.293079
0.279753
0.279654
0.29376
0.298306
0.29763
0.292249
0.277918
0.285282
0.299056
0.301994
0.300744
0.296179
0.281967
0.285968
0.300392
0.303804
0.30227
0.297282
0.282432
0.288122
0.302138
0.305549
0.306237
0.301343
0.286816
0.283469
0.298725
0.304549
0.308596
0.304805
0.289878
0.287146
0.302774
0.307932
0.312324
0.309017
0.294569
0.29406
0.309312
0.314186
0.312897
0.30696
0.291205
0.298518
0.313721
0.317411
0.317746
0.312693
0.297094
0.306645
0.320377
0.323025
0.323941
0.319669
0.305097
0.299556
0.315327
0.321207
0.324446
0.320442
0.304505
0.300807
0.317402
0.323041
0.327223
0.323534
0.308156
0.307105
0.323228
0.328591
0.327053
0.320708
0.303721
0.311244
0.327631
0.331815
0.331213
0.325482
0.308322
0.317234
0.332874
0.336407
0.339059
0.333752
0.317117
0.315003
0.332141
0.338489
0.344301
0.341045
0.326395
0.32386
0.339248
0.343943
0.347761
0.344266
0.328858
0.325592
0.342357
0.347568
0.345038
0.338162
0.321053
0.327873
0.34516
0.349463
0.348449
0.342393
0.324616
0.332958
0.349461
0.353301
0.355314
0.349594
0.332377
0.329336
0.347269
0.354088
0.359514
0.35536
0.33845
0.336599
0.354369
0.360152
0.36668
0.363823
0.349071
0.352183
0.367288
0.371085
0.369763
0.364523
0.348833
0.352386
0.368823
0.372961
0.372466
0.366711
0.348584
0.343977
0.36249
0.370014
0.375187
0.370727
0.352219
0.349163
0.368243
0.374569
0.380258
0.376321
0.3589
0.359099
0.37737
0.383214
0.382672
0.375652
0.356717
0.367384
0.384538
0.38858
0.393212
0.387901
0.369306
0.369417
0.387374
0.393868
0.399755
0.395898
0.377998
0.372904
0.393175
0.399351
0.395873
0.387621
0.366686
0.375245
0.395607
0.400834
0.399601
0.392479
0.371489
0.382467
0.401285
0.405807
0.409081
0.402671
0.382913
0.381075
0.401267
0.408905
0.415668
0.411491
0.393728
0.397216
0.416241
0.421462
0.422812
0.41663
0.398331
0.407055
0.425257
0.428946
0.428225
0.422084
0.40137
0.394494
0.416569
0.424846
0.429935
0.424546
0.404289
0.402666
0.424531
0.431594
0.430747
0.422137
0.399642
0.413618
0.433717
0.438619
0.444312
0.437663
0.4159
0.418317
0.439843
0.447006
0.456309
0.45357
0.436029
0.432586
0.453002
0.45797
0.456757
0.448966
0.425334
0.416042
0.442881
0.452702
0.45876
0.452529
0.428668
0.427108
0.453395
0.461416
0.46181
0.451749
0.425392
0.446091
0.467768
0.472268
0.482332
0.477865
0.455459
0.458975
0.481867
0.487762
0.483731
0.474432
0.447679
0.455519
0.480944
0.487733
0.486868
0.478683
0.449568
0.446867
0.477421
0.487986
0.487614
0.476316
0.442825
0.471564
0.495071
0.499841
0.511127
0.506495
0.481566
0.481497
0.508181
0.515286
0.509184
0.498401
0.465435
0.476756
0.505526
0.513391
0.513757
0.505362
0.472517
0.472447
0.507881
0.518128
0.528573
0.519311
0.482101
0.482815
0.515952
0.52872
0.535966
0.527135
0.493645
0.482014
0.521124
0.532624
0.532188
0.519337
0.475846
0.478694
0.524989
0.53694
0.542035
0.528543
0.480145
0.468924
0.523459
0.540762
0.529521
0.507499
0.451927
0.483179
0.523701
0.536028
0.533389
0.521714
0.480732
0.470046
0.516613
0.53066
0.524411
0.507859
0.451972
0.434282
0.495657
0.514308
0.5022
0.481158
0.414187
0.391084
0.465823
0.490032
0.478853
0.451817
0.371109
0.355133
0.440131
0.469565
0.461788
0.43003
0.341523
0.329408
0.42084
0.454866
0.448483
0.412278
0.31846
0.308609
0.404265
0.442518
0.43691
0.396752
0.299648
0.291467
0.389679
0.431598
0.426539
0.382998
0.284
0.277171
0.376667
0.421695
0.417054
0.370682
0.270949
0.265296
0.365043
0.412607
0.408341
0.359734
0.260162
0.255515
0.354744
0.404238
0.400289
0.350051
0.251307
0.247505
0.345643
0.396481
0.392807
0.341497
0.244072
0.24098
0.337608
0.389259
0.385831
0.333954
0.238195
0.235695
0.330524
0.382514
0.379303
0.3273
0.233453
0.231457
0.324276
0.376192
0.373181
0.321438
0.229685
0.228119
0.318781
0.370267
0.36745
0.316294
0.226734
0.225517
0.31397
0.364731
0.362108
0.311797
0.224451
0.223524
0.309768
0.359582
0.357151
0.307864
0.222721
0.22203
0.306085
0.354815
0.352573
0.304415
0.221436
0.22093
0.302852
0.350425
0.348361
0.301383
0.220498
0.220136
0.300007
0.346386
0.344493
0.298715
0.219835
0.219589
0.297503
0.342686
0.340957
0.296364
0.21939
0.219233
0.295296
0.339311
0.337741
0.294293
0.219112
0.219025
0.293352
0.33625
0.33483
0.292462
0.21897
0.218934
0.291626
0.333482
0.332199
0.290833
0.218924
0.218925
0.290091
0.330986
0.329832
0.289387
0.218942
0.218962
0.288729
0.32874
0.327703
0.288104
0.218992
0.219023
0.287523
0.326725
0.325796
0.286971
0.21906
0.21909
0.286455
0.324919
0.324085
0.285965
0.219126
0.219157
0.28551
0.323302
0.322556
0.285078
0.219192
0.219216
0.284674
0.321853
0.321184
0.284291
0.219245
0.219269
0.283938
0.320558
0.319962
0.283604
0.219297
0.219314
0.283293
0.319401
0.318865
0.282996
0.219332
0.219343
0.282722
0.318363
0.317885
0.282463
0.219358
0.219362
0.28222
0.317434
0.317002
0.28199
0.21937
0.219374
0.281777
0.316599
0.316212
0.281576
0.21938
0.21938
0.281385
0.315847
0.315496
0.281201
0.219381
0.21938
0.281031
0.315168
0.314852
0.280868
0.21938
0.219373
0.280714
0.314553
0.314264
0.280565
0.219367
0.219359
0.280427
0.313994
0.313734
0.280294
0.219353
0.21934
0.280168
0.313486
0.313247
0.280046
0.219329
0.219316
0.279933
0.313024
0.312807
0.279826
0.219305
0.21929
0.279722
0.312602
0.312402
0.279622
0.219275
0.219261
0.279531
0.312216
0.312036
0.279444
0.219248
0.219232
0.27936
0.311865
0.311702
0.27928
0.219217
0.219202
0.279206
0.311547
0.311405
0.279138
0.21919
0.219178
0.279075
0.311264
0.311136
0.279015
0.219166
0.219153
0.278958
0.311007
0.310894
0.278906
0.219144
0.219135
0.278858
0.310777
0.310676
0.278814
0.219129
0.219121
0.278773
0.310569
0.310481
0.278736
0.219118
0.219114
0.278703
0.310384
0.310306
0.278674
0.219115
0.219114
0.278646
0.310217
0.31015
0.278623
0.219119
0.219122
0.278602
0.310071
0.310013
0.278585
0.219131
0.219139
0.278569
0.309941
0.309893
0.27856
0.219153
0.219167
0.278551
0.309829
0.309789
0.278548
0.219185
0.219203
0.278544
0.309732
0.309701
0.278548
0.219227
0.219251
0.27855
0.309652
0.309629
0.278559
0.219279
0.219308
0.278567
0.309585
0.309572
0.278582
0.219341
0.219375
0.278595
0.309535
0.309528
0.278615
0.219413
0.21945
0.278633
0.309496
0.309498
0.278658
0.219493
0.219535
0.278682
0.309472
0.30948
0.278711
0.219581
0.219627
0.278738
0.309458
0.309474
0.278773
0.219677
0.219728
0.278805
0.309458
0.30948
0.278843
0.21978
0.219833
0.278879
0.309468
0.309496
0.278921
0.219889
0.219946
0.278961
0.30949
0.309521
0.279006
0.220004
0.220063
0.27905
0.30952
0.309557
0.279098
0.220125
0.220187
0.279145
0.309561
0.309601
0.279197
0.22025
0.220314
0.279247
0.309609
0.309654
0.279302
0.220379
0.220445
0.279355
0.309666
0.309715
0.279412
0.220513
0.220581
0.279468
0.30973
0.309784
0.279528
0.220651
0.220721
0.279587
0.309803
0.309861
0.279649
0.220792
0.220864
0.279711
0.309882
0.309945
0.279777
0.220938
0.221012
0.279841
0.30997
0.310036
0.279909
0.221087
0.221163
0.279976
0.310064
0.310133
0.280046
0.221239
0.221317
0.280115
0.310164
0.310237
0.280188
0.221394
0.221472
0.280258
0.31027
0.310346
0.280333
0.22155
0.22163
0.280406
0.310382
0.31046
0.280482
0.221709
0.221788
0.280556
0.310498
0.310578
0.280633
0.221868
0.221948
0.280708
0.310619
0.310701
0.280787
0.222027
0.222108
0.280863
0.310743
0.310828
0.280943
0.222188
0.222268
0.281021
0.310871
0.310957