/*--------------------------------*- C++ -*----------------------------------*\
| =========                 |                                                 |
| \\      /  F ield         | OpenFOAM: The Open Source CFD Toolbox           |
|  \\    /   O peration     | Version:  v2006                                 |
|   \\  /    A nd           | Website:  www.openfoam.com                      |
|    \\/     M anipulation  |                                                 |
\*---------------------------------------------------------------------------*/
FoamFile
{
    version     2.0;
    format      ascii;
    class       surfaceScalarField;
    location    "0.07";
    object      phi;
}
// * * * * * * * * * * * * * * * * * * * * * * * * * * * * * * * * * * * * * //

dimensions      [1 0 -1 0 0 0 0];
oriented        oriented;


internalField   nonuniform List<scalar> 
48460
(
-1.80781e-05
-0.00123371
0.00121968
3.21059e-05
-0.00115732
0.00113925
2.81021e-06
6.73344e-05
-2.15401e-05
0.00131211
2.23933e-05
0.00142877
-5.10578e-05
0.00143822
-8.07602e-06
0.00146211
-2.31498e-05
0.00143494
-1.13463e-06
0.00142754
-3.42109e-06
0.00141204
1.0076e-06
0.00140615
-2.13793e-07
0.00140118
1.97221e-09
0.0013993
-2.07124e-07
0.00139768
-2.72989e-07
0.00139644
-3.30954e-07
0.00139525
-3.79885e-07
0.00139402
-4.20753e-07
0.00139279
-4.55319e-07
0.00139158
-4.8524e-07
0.00139038
-5.11758e-07
0.00138918
-5.35878e-07
0.00138797
-5.58236e-07
0.00138675
-5.79163e-07
0.00138551
-5.98802e-07
0.00138424
-6.17208e-07
0.00138294
-6.34415e-07
0.00138161
-6.50471e-07
0.00138026
-6.65451e-07
0.00137888
-6.79445e-07
0.00137747
-6.92566e-07
0.00137603
-7.04916e-07
0.00137458
-7.16594e-07
0.0013731
-7.27682e-07
0.00137159
-7.38243e-07
0.00137007
-7.48313e-07
0.00136852
-7.57891e-07
0.00136696
-7.66991e-07
0.00136537
-7.75629e-07
0.00136377
-7.83806e-07
0.00136215
-7.91515e-07
0.00136051
-7.9875e-07
0.00135885
-8.05495e-07
0.00135718
-8.11735e-07
0.00135549
-8.17455e-07
0.00135379
-8.22638e-07
0.00135208
-8.27272e-07
0.00135036
-8.31337e-07
0.00134863
-8.34816e-07
0.00134689
-8.37699e-07
0.00134514
-8.39971e-07
0.00134339
-8.41621e-07
0.00134163
-8.42641e-07
0.00133987
-8.4302e-07
0.00133811
-8.4275e-07
0.00133634
-8.4183e-07
0.00133458
-8.40241e-07
0.00133282
-8.38059e-07
0.00133106
-8.35183e-07
0.0013293
-8.31634e-07
0.00132756
-8.27442e-07
0.00132581
-8.22599e-07
0.00132408
-8.17106e-07
0.00132236
-8.10962e-07
0.00132065
-8.04158e-07
0.00131895
-7.96682e-07
0.00131726
-7.88509e-07
0.00131559
-7.79605e-07
0.00131393
-7.69918e-07
0.00131229
-7.59392e-07
0.00131067
-7.47957e-07
0.00130907
-7.35548e-07
0.00130749
-7.22118e-07
0.00130593
-7.07661e-07
0.0013044
-6.92217e-07
0.00130289
-6.75885e-07
0.00130141
-6.58806e-07
0.00129996
-6.41073e-07
0.00129855
-6.22627e-07
0.00129715
-6.03063e-07
0.00129577
-5.81384e-07
0.0012944
-5.55722e-07
0.00129301
-5.231e-07
0.00129159
-4.79601e-07
0.00129013
-4.21159e-07
0.00128863
-3.48151e-07
0.00128714
-2.67546e-07
0.00128578
-1.93752e-07
0.0012847
-1.43364e-07
0.00128407
6.04681e-09
0.00128355
1.00158e-08
0.00128312
-1.18545e-07
0.00128141
-2.43182e-06
0.00127689
-4.10341e-06
0.00126787
-1.91476e-05
0.00124946
-2.90557e-05
0.0012246
-8.18067e-05
0.0011853
-0.000134452
0.00115868
-0.000314361
0.00116077
-0.000702436
0.00135069
-0.000209409
0.000336426
3.48875e-05
0.000588613
-1.72489e-05
0.000741834
-9.28365e-06
0.000704358
-4.39349e-05
0.000592686
-5.86687e-06
0.000541428
-3.5914e-06
0.000197258
-2.66847e-06
0.000163503
0.000132744
6.37997e-06
0.000126364
1.05765e-05
0.000159307
0.000191054
1.67812e-05
-6.98241e-06
0.000189779
8.25738e-06
-2.88144e-06
0.000155206
0.000123482
1.7911e-06
0.000121691
9.00523e-07
0.000156096
0.000188507
2.17221e-06
-7.70046e-07
0.000189667
-3.90151e-07
-1.56831e-06
0.000156894
0.000120123
2.86233e-07
0.000119837
2.00402e-06
0.000155177
0.000189538
2.1332e-06
-1.81466e-06
0.000189352
2.00084e-06
-1.29456e-06
0.000154657
0.000118542
1.18299e-06
0.000117359
1.69463e-06
0.000154145
0.000189159
1.88802e-06
-1.52839e-06
0.000188925
1.76157e-06
-2.25348e-06
0.00015487
0.000115106
1.00463e-06
0.000114101
1.44868e-06
0.000154426
0.000188698
1.67619e-06
-1.37568e-06
0.000187185
2.88845e-06
-9.236e-07
0.000153974
0.000113177
8.44203e-07
0.000112333
1.28825e-06
0.00015353
0.0001882
2.73341e-07
-1.22939e-06
0.000186667
2.76274e-06
-7.84884e-07
0.000153085
0.000111548
7.25986e-07
0.000110822
1.15835e-06
0.000152653
0.000187658
1.67013e-07
-1.11469e-06
0.000186111
2.66144e-06
-6.83501e-07
0.000152222
0.000110139
6.37628e-07
0.000109501
1.05566e-06
0.000151804
0.000187086
8.1348e-08
-1.02362e-06
0.000185532
2.5776e-06
-6.06769e-07
0.000151387
0.000108894
5.69488e-07
0.000108325
9.72551e-07
0.000150984
0.000186495
9.41983e-09
-9.49929e-07
0.000184939
2.5058e-06
-5.47157e-07
0.000150581
0.000107778
5.17114e-07
0.000107261
9.06822e-07
0.000150191
0.000185893
-4.73306e-08
-8.89097e-07
0.000184339
2.44337e-06
-4.99924e-07
0.000149802
0.000106761
4.75128e-07
0.000106286
8.52162e-07
0.000149425
0.000185287
-9.57154e-08
-8.38535e-07
0.000183736
2.38941e-06
-4.61898e-07
0.000149048
0.000105824
4.40751e-07
0.000105383
8.05723e-07
0.000148683
0.000184679
-1.3804e-07
-7.95852e-07
0.000183133
2.34219e-06
-4.30722e-07
0.000148318
0.000104952
4.12457e-07
0.00010454
7.66474e-07
0.000147964
0.000184074
-1.73976e-07
-7.57817e-07
0.000182533
2.29842e-06
-4.04026e-07
0.00014761
0.000104136
3.89466e-07
0.000103746
7.33985e-07
0.000147266
0.000183472
-2.04953e-07
-7.23282e-07
0.000181936
2.25958e-06
-3.80087e-07
0.000146923
0.000103366
3.69603e-07
0.000102997
7.04814e-07
0.000146588
0.000182873
-2.33046e-07
-7.00285e-07
0.000181344
2.22929e-06
-3.63831e-07
0.000146251
0.000102633
3.51775e-07
0.000102281
6.79653e-07
0.000145923
0.000182277
-2.52706e-07
-6.80167e-07
0.000180751
2.20576e-06
-3.49568e-07
0.000145593
0.000101931
3.36918e-07
0.000101595
6.57478e-07
0.000145272
0.000181682
-2.73244e-07
-6.60023e-07
0.000180161
2.18056e-06
-3.35877e-07
0.000144948
0.000101259
3.2413e-07
0.000100935
6.38529e-07
0.000144634
0.00018109
-2.89676e-07
-6.43003e-07
0.000179574
2.15885e-06
-3.2426e-07
0.000144315
0.00010061
3.13001e-07
0.000100297
6.22015e-07
0.000144006
0.000180499
-3.03437e-07
-6.28209e-07
0.000178988
2.13966e-06
-3.14147e-07
0.000143692
9.99831e-05
3.03231e-07
9.96799e-05
6.07541e-07
0.000143387
0.00017991
-3.14898e-07
-6.15291e-07
0.000178403
2.12262e-06
-3.05277e-07
0.000143077
9.93746e-05
2.94619e-07
9.908e-05
5.94829e-07
0.000142777
0.000179322
-3.24337e-07
-6.03802e-07
0.000177819
2.10714e-06
-2.97366e-07
0.000142471
9.87826e-05
2.87076e-07
9.84955e-05
5.83844e-07
0.000142174
0.000178734
-3.31613e-07
-5.94114e-07
0.000177234
2.09395e-06
-2.90539e-07
0.00014187
9.8205e-05
2.80441e-07
9.79245e-05
5.74338e-07
0.000141576
0.000178146
-3.37075e-07
-5.85851e-07
0.000176649
2.08253e-06
-2.84577e-07
0.000141275
9.764e-05
2.7462e-07
9.73653e-05
5.66164e-07
0.000140984
0.000177556
-3.40916e-07
-5.78635e-07
0.000176062
2.0723e-06
-2.79276e-07
0.000140684
9.70861e-05
2.69493e-07
9.68166e-05
5.59151e-07
0.000140395
0.000176965
-3.43258e-07
-5.72502e-07
0.000175474
2.06344e-06
-2.74619e-07
0.000140097
9.6542e-05
2.64893e-07
9.62771e-05
5.53022e-07
0.000139809
0.000176371
-3.44456e-07
-5.67068e-07
0.000174883
2.05545e-06
-2.70381e-07
0.000139512
9.60067e-05
2.60787e-07
9.57459e-05
5.47768e-07
0.000139225
0.000175775
-3.44412e-07
-5.62701e-07
0.000174289
2.04896e-06
-2.66728e-07
0.000138929
9.54792e-05
2.57161e-07
9.5222e-05
5.43369e-07
0.000138643
0.000175175
-3.43208e-07
-5.59272e-07
0.000173691
2.04374e-06
-2.63592e-07
0.000138347
9.49584e-05
2.54042e-07
9.47044e-05
5.39865e-07
0.000138061
0.000174572
-3.40809e-07
-5.56337e-07
0.000173089
2.03902e-06
-2.60764e-07
0.000137766
9.44436e-05
2.51392e-07
9.41922e-05
5.3723e-07
0.00013748
0.000173963
-3.37134e-07
-5.5447e-07
0.000172482
2.03579e-06
-2.58507e-07
0.000137184
9.39337e-05
2.49124e-07
9.36846e-05
5.35273e-07
0.000136898
0.00017335
-3.3253e-07
-5.53391e-07
0.00017187
2.03365e-06
-2.56676e-07
0.000136601
9.34279e-05
2.47316e-07
9.31806e-05
5.34158e-07
0.000136314
0.00017273
-3.26758e-07
-5.52942e-07
0.000171251
2.03225e-06
-2.55202e-07
0.000136016
9.29254e-05
2.45969e-07
9.26794e-05
5.33907e-07
0.000135728
0.000172105
-3.19704e-07
-5.53324e-07
0.000170626
2.03199e-06
-2.54177e-07
0.000135429
9.24252e-05
2.44956e-07
9.21802e-05
5.34258e-07
0.00013514
0.000171472
-3.11749e-07
-5.54093e-07
0.000169994
2.03222e-06
-2.53368e-07
0.000134839
9.19269e-05
2.44239e-07
9.16826e-05
5.35199e-07
0.000134548
0.000170832
-3.0283e-07
-5.55912e-07
0.000169354
2.03405e-06
-2.5308e-07
0.000134245
9.14296e-05
2.43863e-07
9.11857e-05
5.3678e-07
0.000133953
0.000170184
-2.92975e-07
-5.57936e-07
0.000168705
2.03604e-06
-2.5291e-07
0.000133648
9.09328e-05
2.4391e-07
9.06889e-05
5.39243e-07
0.000133352
0.000169526
-2.81662e-07
-5.61302e-07
0.000168048
2.04004e-06
-2.53402e-07
0.000133044
9.04355e-05
2.44318e-07
9.01911e-05
5.42392e-07
0.000132746
0.000168859
-2.69346e-07
-5.65016e-07
0.00016738
2.04444e-06
-2.54077e-07
0.000132435
8.99371e-05
2.45121e-07
8.96919e-05
5.46336e-07
0.000132134
0.000168182
-2.55725e-07
-5.69386e-07
0.000166702
2.04974e-06
-2.55083e-07
0.00013182
8.94368e-05
2.46231e-07
8.91906e-05
5.50924e-07
0.000131515
0.000167494
-2.40989e-07
-5.74615e-07
0.000166012
2.05636e-06
-2.56497e-07
0.000131197
8.89341e-05
2.47643e-07
8.86865e-05
5.56142e-07
0.000130888
0.000166793
-2.25214e-07
-5.80484e-07
0.00016531
2.06389e-06
-2.58212e-07
0.000130566
8.84282e-05
2.49458e-07
8.81788e-05
5.62208e-07
0.000130253
0.00016608
-2.08039e-07
-5.87196e-07
0.000164595
2.07262e-06
-2.60332e-07
0.000129927
8.79184e-05
2.51664e-07
8.76668e-05
5.69089e-07
0.000129609
0.000165353
-1.89522e-07
-5.94675e-07
0.000163865
2.08242e-06
-2.62821e-07
0.000129277
8.7404e-05
2.5424e-07
8.71497e-05
5.76745e-07
0.000128955
0.000164612
-1.69711e-07
-6.02914e-07
0.000163121
2.09331e-06
-2.65671e-07
0.000128617
8.6884e-05
2.5718e-07
8.66268e-05
5.85171e-07
0.000128289
0.000163855
-1.48588e-07
-6.11893e-07
0.000162362
2.10525e-06
-2.68869e-07
0.000127946
8.6358e-05
2.60461e-07
8.60975e-05
5.9433e-07
0.000127613
0.000163082
-1.26196e-07
-6.21555e-07
0.000161586
2.11817e-06
-2.72381e-07
0.000127263
8.58251e-05
2.64104e-07
8.5561e-05
6.04288e-07
0.000126923
0.000162292
-1.02405e-07
-6.32235e-07
0.000160792
2.13259e-06
-2.76365e-07
0.000126567
8.52846e-05
2.68119e-07
8.50165e-05
6.15028e-07
0.00012622
0.000161484
-7.72921e-08
-6.43169e-07
0.00015998
2.14726e-06
-2.8046e-07
0.000125858
8.47361e-05
2.72452e-07
8.44636e-05
6.26496e-07
0.000125504
0.000160658
-5.07632e-08
-6.54881e-07
0.000159149
2.1631e-06
-2.84901e-07
0.000125134
8.41787e-05
2.77071e-07
8.39016e-05
6.38648e-07
0.000124772
0.000159811
-2.29611e-08
-6.67669e-07
0.000158298
2.18048e-06
-2.89825e-07
0.000124394
8.36118e-05
2.82165e-07
8.33296e-05
6.51801e-07
0.000124025
0.000158943
6.44996e-09
-6.80932e-07
0.000157426
2.19807e-06
-2.95001e-07
0.000123639
8.30346e-05
2.8747e-07
8.27471e-05
6.6536e-07
0.000123261
0.000158055
3.64627e-08
-6.95165e-07
0.000156533
2.21748e-06
-3.00611e-07
0.000122866
8.24465e-05
2.93093e-07
8.21534e-05
6.79671e-07
0.00012248
0.000157144
6.80814e-08
-7.10231e-07
0.000155616
2.23828e-06
-3.06559e-07
0.000122076
8.18469e-05
2.99154e-07
8.15477e-05
6.95018e-07
0.00012168
0.00015621
1.01664e-07
-7.2618e-07
0.000154676
2.2604e-06
-3.12879e-07
0.000121267
8.12348e-05
3.05597e-07
8.09292e-05
7.11274e-07
0.000120861
0.00015525
1.36939e-07
-7.43033e-07
0.000153709
2.28384e-06
-3.19586e-07
0.000120438
8.06096e-05
3.1244e-07
8.02972e-05
7.28457e-07
0.000120022
0.000154264
1.73917e-07
-7.60784e-07
0.000152716
2.30858e-06
-3.26682e-07
0.000119588
7.99705e-05
3.19674e-07
7.96508e-05
7.46545e-07
0.000119161
0.00015325
2.12575e-07
-7.79422e-07
0.000151695
2.3346e-06
-3.34162e-07
0.000118715
7.93167e-05
3.27298e-07
7.89894e-05
7.65532e-07
0.000118277
0.000152207
2.52918e-07
-7.98951e-07
0.000150644
2.36191e-06
-3.42027e-07
0.00011782
7.86473e-05
3.35315e-07
7.8312e-05
7.85433e-07
0.00011737
0.000151135
2.94984e-07
-8.19396e-07
0.000149564
2.39053e-06
-3.50285e-07
0.000116901
7.79617e-05
3.43736e-07
7.7618e-05
8.06272e-07
0.000116438
0.000150031
3.38829e-07
-8.40785e-07
0.000148451
2.42053e-06
-3.58949e-07
0.000115957
7.72591e-05
3.52571e-07
7.69065e-05
8.28081e-07
0.000115481
0.000148895
3.84516e-07
-8.63163e-07
0.000147306
2.45197e-06
-3.68036e-07
0.000114986
7.65384e-05
3.61864e-07
7.61766e-05
8.50965e-07
0.000114497
0.000147725
4.32228e-07
-8.86881e-07
0.000146126
2.48539e-06
-3.77711e-07
0.000113988
7.57989e-05
3.71622e-07
7.54272e-05
8.74906e-07
0.000113484
0.000146519
4.81868e-07
-9.11404e-07
0.000144911
2.51989e-06
-3.87728e-07
0.000112961
7.50395e-05
3.81839e-07
7.46577e-05
8.9992e-07
0.000112443
0.000145277
5.33575e-07
-9.36817e-07
0.000143658
2.55565e-06
-3.98117e-07
0.000111904
7.42595e-05
3.92386e-07
7.38672e-05
9.25749e-07
0.000111371
0.000143997
5.86988e-07
-9.63174e-07
0.000142367
2.59283e-06
-4.08893e-07
0.000110816
7.34583e-05
4.03321e-07
7.30549e-05
9.52528e-07
0.000110267
0.000142678
6.42339e-07
-9.90441e-07
0.000141037
2.63136e-06
-4.20035e-07
0.000109697
7.26349e-05
4.14619e-07
7.22203e-05
9.80212e-07
0.000109131
0.000141317
6.99559e-07
-1.01861e-06
0.000139665
2.6712e-06
-4.31541e-07
0.000108544
7.17887e-05
4.26288e-07
7.13625e-05
1.00881e-06
0.000107961
0.000139915
7.58658e-07
-1.04771e-06
0.00013825
2.71235e-06
-4.43422e-07
0.000107357
7.0919e-05
4.3834e-07
7.04807e-05
1.03835e-06
0.000106757
0.000138469
8.19662e-07
-1.07774e-06
0.000136792
2.75482e-06
-4.55691e-07
0.000106135
7.0025e-05
4.50783e-07
6.95742e-05
1.06884e-06
0.000105517
0.000136978
8.82601e-07
-1.1087e-06
0.000135288
2.7986e-06
-4.68345e-07
0.000104877
6.91059e-05
4.63572e-07
6.86423e-05
1.10016e-06
0.00010424
0.000135441
9.47305e-07
-1.1402e-06
0.000133738
2.84303e-06
-4.81192e-07
0.000103581
6.81611e-05
4.76714e-07
6.76844e-05
1.13238e-06
0.000102925
0.000133857
1.01397e-06
-1.17284e-06
0.00013214
2.88916e-06
-4.9452e-07
0.000102247
6.71899e-05
4.90189e-07
6.66997e-05
1.16543e-06
0.000101572
0.000132223
1.08239e-06
-1.20673e-06
0.000130493
2.93708e-06
-5.08382e-07
0.000100874
6.61913e-05
5.0406e-07
6.56873e-05
1.1994e-06
0.000100178
0.00013054
1.15258e-06
-1.24104e-06
0.000128796
2.9853e-06
-5.22405e-07
9.94596e-05
6.51649e-05
5.18222e-07
6.46466e-05
1.23405e-06
9.87438e-05
0.000128805
1.22431e-06
-1.27576e-06
0.000127047
3.03391e-06
-5.36594e-07
9.80046e-05
6.411e-05
5.32417e-07
6.35776e-05
1.26886e-06
9.72682e-05
0.000127019
1.29677e-06
-1.31067e-06
0.000125247
3.08265e-06
-5.50826e-07
9.65083e-05
6.30268e-05
5.46609e-07
6.24802e-05
1.30377e-06
9.57512e-05
0.000125181
1.3699e-06
-1.34554e-06
0.000123395
3.13116e-06
-5.64992e-07
9.49706e-05
6.19152e-05
5.60683e-07
6.13545e-05
1.33853e-06
9.41928e-05
0.000123291
1.44331e-06
-1.38016e-06
0.000121492
3.17908e-06
-5.78996e-07
9.33916e-05
6.07755e-05
5.74513e-07
6.0201e-05
1.37285e-06
9.25933e-05
0.000121348
1.51652e-06
-1.41394e-06
0.000119537
3.22545e-06
-5.9256e-07
9.17719e-05
5.96085e-05
5.88114e-07
5.90203e-05
1.40678e-06
9.09532e-05
0.000119354
1.5897e-06
-1.44775e-06
0.00011753
3.27169e-06
-6.06121e-07
9.01116e-05
5.84142e-05
6.012e-07
5.7813e-05
1.43964e-06
8.92732e-05
0.000117308
1.66146e-06
-1.48045e-06
0.000115473
3.31582e-06
-6.1913e-07
8.84119e-05
5.71939e-05
6.14046e-07
5.65799e-05
1.47197e-06
8.75539e-05
0.000115212
1.73273e-06
-1.51202e-06
0.000113366
3.35779e-06
-6.31645e-07
8.66736e-05
5.59482e-05
6.26244e-07
5.5322e-05
1.50285e-06
8.5797e-05
0.000113067
1.80207e-06
-1.5424e-06
0.000111212
3.39758e-06
-6.43604e-07
8.48982e-05
5.46784e-05
6.38095e-07
5.40403e-05
1.53294e-06
8.40033e-05
0.000110874
1.87037e-06
-1.57314e-06
0.00010901
3.43707e-06
-6.55774e-07
8.3086e-05
5.33845e-05
6.54782e-07
5.27297e-05
1.56815e-06
8.21726e-05
0.000108636
1.9429e-06
-1.61604e-06
0.000106767
3.48503e-06
-6.80728e-07
8.12373e-05
5.2049e-05
6.83013e-07
5.1366e-05
1.61514e-06
8.03052e-05
0.000106357
2.02474e-06
-1.66112e-06
0.000104484
3.53423e-06
-7.06711e-07
7.93507e-05
5.06593e-05
7.06161e-07
4.99531e-05
1.65695e-06
7.84e-05
0.00010404
2.10099e-06
-1.70016e-06
0.000102164
3.57631e-06
-7.27637e-07
7.74275e-05
4.92255e-05
7.24177e-07
4.85013e-05
1.69158e-06
7.64601e-05
0.000101687
2.1684e-06
-1.731e-06
9.98105e-05
3.60733e-06
-7.43194e-07
7.54723e-05
4.77581e-05
7.37506e-07
4.70206e-05
1.71896e-06
7.44908e-05
9.93026e-05
2.22685e-06
-1.75359e-06
9.74292e-05
3.62707e-06
-7.53816e-07
7.3491e-05
4.62668e-05
7.45253e-07
4.55216e-05
1.73649e-06
7.24998e-05
9.6894e-05
2.27167e-06
-1.76708e-06
9.50271e-05
3.63397e-06
-7.59377e-07
7.14921e-05
4.47622e-05
7.47705e-07
4.40145e-05
1.74407e-06
7.04958e-05
9.4469e-05
2.30211e-06
-1.7702e-06
9.26137e-05
3.62552e-06
-7.59545e-07
6.94851e-05
4.32549e-05
7.45105e-07
4.25098e-05
1.74172e-06
6.84885e-05
9.20374e-05
2.31805e-06
-1.76226e-06
9.01992e-05
3.60043e-06
-7.54225e-07
6.74805e-05
4.17556e-05
7.36629e-07
4.1019e-05
1.7274e-06
6.64897e-05
8.96107e-05
2.3159e-06
-1.74227e-06
8.77959e-05
3.55711e-06
-7.43082e-07
6.54905e-05
4.02759e-05
7.22307e-07
3.95536e-05
1.70082e-06
6.4512e-05
8.72019e-05
2.29484e-06
-1.7098e-06
8.5417e-05
3.49466e-06
-7.26055e-07
6.35283e-05
3.88276e-05
7.02071e-07
3.81255e-05
1.66157e-06
6.25688e-05
8.48247e-05
2.25391e-06
-1.66464e-06
8.30767e-05
3.41261e-06
-7.03161e-07
6.16073e-05
3.74223e-05
6.76017e-07
3.67463e-05
1.60962e-06
6.06737e-05
8.24937e-05
2.1927e-06
-1.60691e-06
8.07896e-05
3.31092e-06
-6.74575e-07
5.97414e-05
3.60717e-05
6.44398e-07
3.54273e-05
1.54524e-06
5.88405e-05
8.02237e-05
2.11122e-06
-1.53701e-06
7.85706e-05
3.19005e-06
-6.40607e-07
5.79441e-05
3.47867e-05
6.07598e-07
3.41791e-05
1.46901e-06
5.70827e-05
7.80297e-05
2.00995e-06
-1.45566e-06
7.64345e-05
3.0509e-06
-6.01705e-07
5.62287e-05
3.35774e-05
5.66113e-07
3.30113e-05
1.38174e-06
5.54131e-05
7.59264e-05
1.88979e-06
-1.36348e-06
7.43956e-05
2.89425e-06
-5.58225e-07
5.46079e-05
3.24531e-05
5.20905e-07
3.19322e-05
1.28541e-06
5.38434e-05
7.39273e-05
1.75376e-06
-1.26427e-06
7.24654e-05
2.72615e-06
-5.1199e-07
5.30911e-05
3.14202e-05
4.72644e-07
3.09476e-05
1.18105e-06
5.23827e-05
7.20439e-05
1.60254e-06
-1.15718e-06
7.06567e-05
2.54443e-06
-4.62914e-07
5.16884e-05
3.04846e-05
4.2311e-07
3.00615e-05
1.07252e-06
5.1039e-05
7.0287e-05
1.44217e-06
-1.04736e-06
6.89806e-05
2.35373e-06
-4.13185e-07
5.04048e-05
2.96484e-05
3.72883e-07
2.92755e-05
9.60881e-07
4.98168e-05
6.86642e-05
1.27735e-06
-9.35429e-07
6.74371e-05
2.16247e-06
-3.63296e-07
4.92447e-05
2.89122e-05
3.23529e-07
2.85886e-05
8.49425e-07
4.87188e-05
6.71802e-05
1.10639e-06
-8.24508e-07
6.60326e-05
1.97207e-06
-3.14534e-07
4.82088e-05
2.82741e-05
2.75619e-07
2.79985e-05
7.39769e-07
4.77447e-05
6.58369e-05
9.35463e-07
-7.17265e-07
6.47676e-05
1.78654e-06
-2.68084e-07
4.72955e-05
2.77304e-05
2.30723e-07
2.74997e-05
6.35267e-07
4.6891e-05
6.46331e-05
7.69842e-07
-6.16326e-07
6.36394e-05
1.60997e-06
-2.25177e-07
4.64998e-05
2.72745e-05
1.89292e-07
2.70852e-05
5.37011e-07
4.61521e-05
6.35652e-05
6.11235e-07
-5.22034e-07
6.26441e-05
1.44309e-06
-1.85814e-07
4.58159e-05
2.68994e-05
1.52139e-07
2.67473e-05
4.47028e-07
4.5521e-05
6.26276e-05
4.63549e-07
-4.36072e-07
6.17747e-05
1.28894e-06
-1.50644e-07
4.52356e-05
2.65966e-05
1.19324e-07
2.64773e-05
3.65856e-07
4.4989e-05
6.18127e-05
3.27912e-07
-3.59559e-07
6.10209e-05
1.15132e-06
-1.20044e-07
4.47495e-05
2.63573e-05
9.14261e-08
2.62658e-05
2.94928e-07
4.4546e-05
6.11093e-05
2.06539e-07
-2.92588e-07
6.03746e-05
1.0273e-06
-9.37635e-08
4.43472e-05
2.61721e-05
6.82655e-08
2.61038e-05
2.34429e-07
4.4181e-05
6.05069e-05
1.02111e-07
-2.3694e-07
5.98225e-05
9.21333e-07
-7.27706e-08
4.40169e-05
2.6031e-05
5.07313e-08
2.59803e-05
1.86046e-07
4.38815e-05
5.99926e-05
1.60189e-08
-1.93043e-07
5.93526e-05
8.32956e-07
-5.75055e-08
4.3746e-05
2.59228e-05
3.72294e-08
2.58856e-05
1.46479e-07
4.36368e-05
5.95574e-05
-5.83083e-08
-1.59991e-07
5.89522e-05
7.65198e-07
-4.68805e-08
4.35237e-05
2.58387e-05
2.87765e-08
2.58099e-05
1.18726e-07
4.34337e-05
5.91835e-05
-1.12554e-07
-1.38573e-07
5.86042e-05
7.17867e-07
-4.11055e-08
4.33362e-05
2.57688e-05
2.58051e-08
2.5743e-05
1.03866e-07
4.32582e-05
5.88532e-05
-1.45139e-07
-1.30496e-07
5.82911e-05
6.92661e-07
-4.10429e-08
4.31687e-05
2.5702e-05
2.93004e-08
2.56727e-05
1.0346e-07
4.30946e-05
5.85487e-05
-1.54199e-07
-1.36616e-07
5.79933e-05
6.92047e-07
-4.70121e-08
4.3005e-05
2.56257e-05
3.43387e-08
2.55913e-05
1.13777e-07
4.29255e-05
5.82418e-05
-1.34713e-07
-5.19177e-07
5.80548e-05
7.06104e-07
-6.86245e-08
4.24749e-05
2.55227e-05
5.05023e-08
2.54722e-05
-2.05656e-07
4.27311e-05
5.75165e-05
3.32597e-07
-5.69146e-07
5.77062e-05
3.79514e-07
-8.77912e-08
4.22497e-05
2.53844e-05
8.60132e-08
2.52983e-05
2.22743e-07
4.2113e-05
5.75209e-05
4.07998e-07
-6.51907e-07
5.68947e-05
1.27809e-06
-1.33799e-07
4.15948e-05
2.51645e-05
1.3468e-07
2.50298e-05
-7.51077e-08
4.18046e-05
5.67657e-05
5.3891e-08
8.63134e-07
5.75631e-05
-1.66056e-06
2.20975e-07
4.24468e-05
2.52508e-05
-8.5299e-07
2.61038e-05
-1.95527e-06
4.35491e-05
5.96229e-05
-4.01511e-06
1.21095e-06
-1.96947e-06
5.45747e-07
-1.21937e-05
-0.000183074
-1.11176e-07
-0.000212631
-3.84076e-06
-0.000249876
7.98923e-06
-0.000258635
3.27908e-06
-0.000271523
6.79477e-06
-0.000277035
4.51974e-06
-0.000281883
5.45916e-06
-0.00028529
5.33722e-06
-0.000288377
5.94125e-06
-0.000291818
6.33579e-06
-0.000294785
6.73111e-06
-0.000297926
7.12856e-06
-0.000300482
7.37886e-06
-0.00030301
7.7167e-06
-0.000305256
7.88446e-06
-0.000307328
8.15926e-06
-0.000309311
8.24783e-06
-0.00031107
8.45749e-06
-0.000312872
8.4723e-06
-0.000314423
8.6164e-06
-0.000316097
8.56319e-06
-0.000317514
8.64313e-06
-0.000319104
8.52595e-06
-0.00032044
8.54523e-06
-0.000321983
8.36948e-06
-0.000323278
8.33192e-06
-0.000324802
8.10354e-06
-0.000326088
8.01104e-06
-0.000327609
7.73598e-06
-0.000328916
7.59088e-06
-0.000330449
7.27376e-06
-0.000331802
7.07754e-06
-0.000333363
6.72212e-06
-0.000334787
6.47453e-06
-0.000336321
6.08353e-06
-0.000337773
5.85059e-06
-0.000339151
5.90532e-06
-0.000340031
6.03576e-06
-0.000340139
7.9226e-06
-0.00033881
9.41368e-06
-0.000335833
1.65218e-05
-0.000330237
2.44726e-05
-0.000325854
5.59064e-05
-0.000324644
0.000121292
-0.000331171
6.17331e-05
-0.000206523
2.78195e-05
-0.000207117
2.61856e-05
-0.00018611
8.32514e-06
-0.000167265
4.94337e-06
-5.74686e-05
2.13199e-06
-4.45917e-05
-2.89173e-05
-2.94755e-06
-2.59697e-05
-6.72124e-06
-4.08181e-05
-5.28341e-05
-1.13557e-05
5.6965e-06
-4.88233e-05
-9.70737e-06
2.47497e-06
-3.75965e-05
-2.34947e-05
-1.81708e-06
-2.16777e-05
-4.02174e-06
-3.53919e-05
-4.61419e-05
-6.70316e-06
1.58147e-06
-4.52314e-05
-2.49192e-06
6.96157e-07
-3.45066e-05
-2.09815e-05
-5.95918e-07
-2.03856e-05
-1.38257e-06
-3.37199e-05
-4.42027e-05
-2.41129e-06
8.0924e-08
-4.41818e-05
-1.01857e-07
6.83334e-08
-3.37073e-05
-2.03172e-05
-1.77261e-07
-2.014e-05
-4.9838e-07
-3.33862e-05
-4.37513e-05
-9.28886e-07
-3.97113e-07
-4.4038e-05
6.83863e-07
-1.68391e-07
-3.36149e-05
-2.03084e-05
-1.98212e-07
-2.01102e-05
-4.97146e-07
-3.3316e-05
-4.36244e-05
-9.10778e-07
-3.16937e-07
-4.38594e-05
5.5195e-07
-1.88735e-07
-3.34442e-05
-2.02989e-05
-1.18311e-07
-2.01806e-05
-2.74196e-07
-3.32883e-05
-4.34685e-05
-6.65128e-07
-4.54547e-07
-4.38424e-05
8.2843e-07
-2.51134e-07
-3.34917e-05
-2.04318e-05
-1.74027e-07
-2.02577e-05
-3.88553e-07
-3.32772e-05
-4.33848e-05
-8.46147e-07
-3.49837e-07
-4.36295e-05
5.94565e-07
-2.06367e-07
-3.34207e-05
-2.04641e-05
-1.04085e-07
-2.036e-05
-2.47829e-07
-3.3277e-05
-4.3315e-05
-5.62393e-07
-4.72709e-07
-4.36931e-05
8.50862e-07
-2.63223e-07
-3.34865e-05
-2.06232e-05
-1.64279e-07
-2.0459e-05
-3.72635e-07
-3.32781e-05
-4.32407e-05
-8.25031e-07
-3.60309e-07
-4.34844e-05
6.04009e-07
-2.14609e-07
-3.34238e-05
-2.06736e-05
-9.75985e-08
-2.0576e-05
-2.38544e-07
-3.32829e-05
-4.31715e-05
-5.51438e-07
-4.77914e-07
-4.35451e-05
8.51428e-07
-2.69393e-07
-3.34914e-05
-2.08454e-05
-1.60464e-07
-2.06849e-05
-3.68831e-07
-3.3283e-05
-4.30915e-05
-8.22371e-07
-3.61439e-07
-4.33287e-05
5.98641e-07
-2.18633e-07
-3.34258e-05
-2.09035e-05
-9.49504e-08
-2.08086e-05
-2.37357e-07
-3.32834e-05
-4.30127e-05
-5.53419e-07
-4.7587e-07
-4.33769e-05
8.4009e-07
-2.72302e-07
-3.3487e-05
-2.10809e-05
-1.59657e-07
-2.09212e-05
-3.71443e-07
-3.32752e-05
-4.29185e-05
-8.29815e-07
-3.57208e-07
-4.31455e-05
5.84167e-07
-2.20289e-07
-3.34121e-05
-2.11415e-05
-9.42006e-08
-2.10473e-05
-2.4042e-07
-3.32659e-05
-4.28234e-05
-5.62464e-07
-4.69832e-07
-4.31752e-05
8.21662e-07
-2.7356e-07
-3.34622e-05
-2.13209e-05
-1.60092e-07
-2.11608e-05
-3.77056e-07
-3.32452e-05
-4.27097e-05
-8.42558e-07
-3.50629e-07
-4.29242e-05
5.65068e-07
-2.21085e-07
-3.33747e-05
-2.13819e-05
-9.3657e-08
-2.12882e-05
-2.44321e-07
-3.32241e-05
-4.25949e-05
-5.73609e-07
-4.63573e-07
-4.29329e-05
8.01542e-07
-2.74983e-07
-3.34127e-05
-2.15632e-05
-1.59741e-07
-2.14035e-05
-3.81407e-07
-3.3191e-05
-4.246e-05
-8.54264e-07
-3.46536e-07
-4.26618e-05
5.48315e-07
-2.2329e-07
-3.33142e-05
-2.16267e-05
-9.04891e-08
-2.15362e-05
-2.43118e-07
-3.31616e-05
-4.23268e-05
-5.78067e-07
-4.63563e-07
-4.26522e-05
7.89006e-07
-2.79639e-07
-3.33455e-05
-2.18159e-05
-1.54719e-07
-2.16611e-05
-3.76576e-07
-3.31236e-05
-4.21752e-05
-8.53639e-07
-3.54856e-07
-4.23682e-05
5.47901e-07
-2.31881e-07
-3.32466e-05
-2.1893e-05
-7.73479e-08
-2.18157e-05
-2.23232e-07
-3.31007e-05
-4.20341e-05
-5.57311e-07
-4.88141e-07
-4.23545e-05
8.08481e-07
-2.97745e-07
-3.32911e-05
-2.21134e-05
-1.31121e-07
-2.19824e-05
-3.38363e-07
-3.30839e-05
-4.18845e-05
-8.08428e-07
-4.12519e-07
-4.20826e-05
6.1064e-07
-2.69301e-07
-3.32272e-05
-2.22517e-05
-1.81982e-08
-2.22335e-05
-1.28657e-07
-3.31168e-05
-4.17697e-05
-4.41657e-07
-6.14595e-07
-4.20511e-05
8.96044e-07
-3.77761e-07
-3.33536e-05
-2.26113e-05
-2.20486e-08
-2.25892e-05
-2.19575e-07
-3.31561e-05
-4.16909e-05
-5.79811e-07
-6.79214e-07
-4.18387e-05
8.26991e-07
-4.20661e-07
-3.34146e-05
-2.30099e-05
1.22679e-07
-2.31325e-05
-2.65553e-08
-3.32653e-05
-4.16383e-05
-2.26897e-07
-8.55426e-07
-4.1812e-05
1.02919e-06
-4.48981e-07
-3.36717e-05
-2.35815e-05
4.05759e-08
-2.3622e-05
-2.04998e-07
-3.34261e-05
-4.15748e-05
-4.42074e-07
-6.22452e-07
-4.17665e-05
8.14284e-07
-3.86659e-07
-3.36618e-05
-2.40085e-05
1.26885e-07
-2.41354e-05
9.58534e-08
-3.36307e-05
-4.17279e-05
5.73644e-08
-8.54846e-07
-4.22063e-05
1.33319e-06
-4.26648e-07
-3.40588e-05
-2.4562e-05
4.03173e-07
-2.49652e-05
5.66369e-07
-3.42219e-05
-4.23698e-05
7.29931e-07
-2.01851e-06
-4.34283e-05
3.07577e-06
-9.81809e-07
-3.52568e-05
-2.59483e-05
1.79437e-06
-2.77295e-05
3.59264e-06
-3.70903e-05
-4.52318e-05
5.41767e-06
3.36972e-05
-2.26506e-05
-5.6247e-05
1.47266e-05
-1.81491e-05
-1.29865e-05
5.08269e-06
-1.65158e-05
7.77544e-06
-2.34682e-05
-2.92938e-05
1.56651e-05
-4.59242e-06
-3.24091e-05
8.19756e-06
-2.64534e-06
-2.61798e-05
-1.88151e-05
1.19258e-06
-2.02235e-05
2.7456e-06
-2.73939e-05
-3.36603e-05
3.86123e-06
-1.77867e-06
-6.70957e-05
3.52285e-05
-1.11611e-06
-2.81011e-05
-2.13045e-05
9.9301e-07
-2.22995e-05
3.04517e-05
-5.75576e-05
-5.7247e-05
2.06022e-05
-1.54119e-05
-5.76616e-05
1.58266e-05
-2.39861e-05
-4.89835e-05
-4.62855e-05
7.55339e-06
-5.38389e-05
1.18791e-05
-5.33092e-05
-5.7535e-05
1.17525e-05
-7.48189e-06
-5.67578e-05
6.70455e-06
-6.18209e-06
-5.46091e-05
-6.00211e-05
9.84568e-07
-6.10059e-05
-2.22033e-06
-5.14044e-05
-5.69859e-05
-1.99242e-06
1.51625e-05
-3.4738e-05
-3.74105e-05
4.41566e-06
-4.06576e-05
-5.65903e-05
-4.28327e-07
-5.61621e-05
-2.09356e-06
-3.89924e-05
-4.20546e-05
5.22298e-06
1.54877e-06
-4.11024e-05
-2.50095e-06
1.2855e-07
-3.75722e-05
-5.60336e-05
-3.41068e-06
-5.26228e-05
-6.91365e-06
-3.40692e-05
-3.76745e-05
-1.03415e-05
1.4376e-05
-3.29126e-05
-1.91378e-05
9.21876e-06
-2.89119e-05
-4.3404e-05
-1.81462e-05
-2.52577e-05
-2.56314e-05
-2.14266e-05
-2.47557e-05
-3.37883e-05
4.26514e-05
-3.44062e-06
-6.39665e-05
3.05585e-05
-9.33365e-06
5.30087e-06
-4.24056e-05
4.77066e-05
-4.89982e-05
-2.74107e-06
-4.35931e-06
-4.80795e-05
5.07224e-05
-1.42151e-05
-4.08666e-05
5.22525e-05
-4.27119e-06
9.99591e-05
-7.13886e-05
0.000171348
-7.65262e-05
8.66439e-07
-1.10261e-05
-7.97152e-05
0.000111786
2.92855e-05
-0.000152097
9.60084e-05
1.66436e-05
0.000267356
-0.000105418
0.000372774
-0.000106184
1.74095e-05
9.51227e-06
-8.64104e-05
0.000112939
-1.24432e-05
-9.09839e-05
0.000120353
9.99608e-06
0.000493127
-0.000151011
0.000644137
-0.000172149
3.11349e-05
3.93571e-05
-0.00022395
0.000161249
2.29856e-05
-0.000144877
0.000159537
3.28465e-05
0.000803674
-0.000164513
0.000968187
-0.000174048
4.23819e-05
2.43115e-05
-0.000175374
0.000189405
8.316e-05
-0.000248254
0.00016085
7.0937e-05
0.00112904
-9.06381e-05
0.00121968
-0.000106983
8.72814e-05
9.40924e-05
-0.000117915
5.86983e-05
0.00012119
-8.57964e-05
2.37437e-05
0.000122236
0.00124342
5.05806e-05
0.00119284
1.62539e-05
0.000156563
0.000173592
-3.61473e-05
-0.000137147
0.000132459
0.00017828
-0.000121327
0.000140742
0.00107151
0.000129389
0.000942122
0.000126684
0.000143447
0.000125605
0.000133538
-9.71322e-05
0.000226537
-3.79925e-06
-0.000127621
0.000173937
0.000814501
0.00014041
0.000674091
0.000157514
0.000156832
0.000154304
0.000229747
-0.000128951
0.000139685
0.00014357
-0.000126085
0.000153965
0.000548007
0.000104107
0.0004439
8.22238e-05
0.000175848
0.000237241
-1.53324e-05
-0.000126818
0.00015957
0.000204488
-0.000104024
0.000153055
0.000339875
7.92138e-05
0.000260661
9.00984e-05
0.000142171
0.000133899
0.000115769
-3.90674e-05
0.000215781
-4.28148e-05
-5.24925e-05
0.000155595
0.000208168
5.03297e-05
0.000157838
7.60503e-05
0.000129875
0.000147176
0.000144655
-5.50988e-05
0.000114718
8.75571e-05
-3.75451e-05
0.000112321
0.000120293
2.03073e-05
9.99866e-05
1.32443e-05
0.000119385
0.000183707
-5.57448e-05
-6.17622e-05
0.000117028
0.000128443
-2.82173e-05
8.58393e-05
7.17707e-05
5.01998e-05
2.15655e-05
4.4118e-05
9.19386e-05
9.16398e-05
6.94996e-05
-2.04632e-05
0.000166661
-5.45103e-05
1.70088e-05
5.43443e-05
3.86489e-05
1.01762e-05
2.76974e-05
2.58417e-05
3.98377e-05
5.74854e-05
0.000134594
-1.99156e-05
3.84484e-05
4.20987e-05
-1.38522e-05