/*--------------------------------*- C++ -*----------------------------------*\
| =========                 |                                                 |
| \\      /  F ield         | OpenFOAM: The Open Source CFD Toolbox           |
|  \\    /   O peration     | Version:  v2006                                 |
|   \\  /    A nd           | Website:  www.openfoam.com                      |
|    \\/     M anipulation  |                                                 |
\*---------------------------------------------------------------------------*/
FoamFile
{
    version     2.0;
    format      ascii;
    class       volScalarField;
    location    "0.07";
    object      rho;
}
// * * * * * * * * * * * * * * * * * * * * * * * * * * * * * * * * * * * * * //

dimensions      [1 -3 0 0 0 0 0];


internalField   nonuniform List<scalar> 
24416
(
1.69358
1.69358
1.69358
1.69358
1.69358
1.69358
1.69358
1.69358
1.69358
1.69358
1.69358
1.6936
1.69364
1.6937
1.69376
1.69384
1.69392
1.694
1.69408
1.69416
1.69425
1.69433
1.69441
1.6945
1.69458
1.69467
1.69476
1.69485
1.69494
1.69504
1.69514
1.69524
1.69534
1.69544
1.69554
1.69565
1.69575
1.69586
1.69597
1.69608
1.69619
1.6963
1.69641
1.69653
1.69664
1.69676
1.69687
1.69699
1.69711
1.69722
1.69734
1.69746
1.69758
1.6977
1.69781
1.69793
1.69805
1.69817
1.69828
1.6984
1.69852
1.69863
1.69875
1.69886
1.69897
1.69909
1.6992
1.69931
1.69941
1.69952
1.69963
1.69973
1.69984
1.69994
1.70004
1.70013
1.70023
1.70032
1.70042
1.70051
1.70059
1.70068
1.70077
1.70086
1.70095
1.70104
1.70113
1.70121
1.70128
1.70133
1.70136
1.70135
1.70133
1.70131
1.70128
1.70126
1.70124
1.70122
1.70121
1.70119
1.70118
1.70123
1.70126
1.70141
1.70156
1.70171
1.70208
1.70274
1.70311
1.70288
1.70224
1.70291
1.70296
1.70292
1.70271
1.70184
1.70145
1.70248
1.70279
1.70263
1.70226
1.70114
1.70089
1.70205
1.70246
1.70229
1.70185
1.70069
1.70053
1.70167
1.70214
1.70198
1.70149
1.70038
1.70026
1.70137
1.70185
1.70172
1.70123
1.70015
1.70006
1.70111
1.70161
1.70149
1.701
1.69998
1.69992
1.7009
1.70139
1.70129
1.7008
1.69986
1.69983
1.70073
1.7012
1.70112
1.70065
1.69979
1.69976
1.70059
1.70105
1.70098
1.70053
1.69974
1.69972
1.70048
1.70092
1.70087
1.70043
1.69971
1.6997
1.7004
1.70082
1.70078
1.70036
1.6997
1.6997
1.70034
1.70074
1.70071
1.70031
1.6997
1.6997
1.70029
1.70068
1.70066
1.70028
1.69971
1.69972
1.70027
1.70064
1.70062
1.70026
1.69973
1.69974
1.70025
1.7006
1.7006
1.70025
1.69976
1.69978
1.70025
1.70059
1.70059
1.70026
1.6998
1.69982
1.70026
1.70059
1.70059
1.70028
1.69985
1.69987
1.70029
1.7006
1.70061
1.7003
1.6999
1.69993
1.70032
1.70062
1.70063
1.70034
1.69996
1.7
1.70036
1.70065
1.70067
1.70039
1.70003
1.70007
1.70041
1.70068
1.70071
1.70044
1.70011
1.70014
1.70047
1.70073
1.70076
1.7005
1.70019
1.70023
1.70053
1.70079
1.70082
1.70057
1.70027
1.70032
1.70061
1.70085
1.70089
1.70065
1.70037
1.70041
1.70069
1.70092
1.70096
1.70073
1.70047
1.70052
1.70077
1.701
1.70105
1.70082
1.70057
1.70062
1.70087
1.70109
1.70114
1.70092
1.70068
1.70074
1.70097
1.70118
1.70123
1.70103
1.7008
1.70086
1.70108
1.70128
1.70134
1.70114
1.70092
1.70098
1.70119
1.70139
1.70145
1.70126
1.70105
1.70112
1.70131
1.7015
1.70157
1.70138
1.70119
1.70126
1.70144
1.70162
1.70169
1.70151
1.70133
1.7014
1.70158
1.70175
1.70183
1.70165
1.70148
1.70155
1.70172
1.70189
1.70196
1.7018
1.70164
1.70171
1.70187
1.70203
1.70211
1.70195
1.7018
1.70187
1.70202
1.70218
1.70226
1.70211
1.70196
1.70205
1.70218
1.70233
1.70242
1.70227
1.70214
1.70222
1.70235
1.7025
1.70259
1.70245
1.70232
1.70241
1.70253
1.70267
1.70276
1.70263
1.70251
1.7026
1.70271
1.70285
1.70294
1.70281
1.7027
1.7028
1.7029
1.70303
1.70313
1.70301
1.70291
1.703
1.7031
1.70322
1.70333
1.70321
1.70312
1.70322
1.70331
1.70342
1.70353
1.70342
1.70333
1.70344
1.70352
1.70363
1.70374
1.70364
1.70356
1.70366
1.70374
1.70384
1.70396
1.70386
1.70379
1.7039
1.70397
1.70406
1.70419
1.70409
1.70403
1.70414
1.7042
1.7043
1.70442
1.70433
1.70428
1.70439
1.70445
1.70453
1.70467
1.70458
1.70453
1.70465
1.7047
1.70478
1.70492
1.70484
1.7048
1.70492
1.70496
1.70504
1.70518
1.70511
1.70507
1.7052
1.70523
1.7053
1.70545
1.70538
1.70535
1.70548
1.70551
1.70557
1.70573
1.70566
1.70564
1.70578
1.7058
1.70586
1.70602
1.70596
1.70594
1.70608
1.70609
1.70615
1.70631
1.70626
1.70625
1.7064
1.7064
1.70645
1.70662
1.70657
1.70657
1.70672
1.70672
1.70676
1.70694
1.7069
1.7069
1.70706
1.70705
1.70708
1.70726
1.70723
1.70724
1.7074
1.70738
1.70742
1.7076
1.70757
1.70759
1.70776
1.70773
1.70776
1.70795
1.70793
1.70796
1.70812
1.70809
1.70811
1.70831
1.70829
1.70833
1.7085
1.70846
1.70848
1.70868
1.70867
1.70871
1.70889
1.70884
1.70885
1.70906
1.70906
1.70911
1.70929
1.70924
1.70924
1.70946
1.70946
1.70951
1.7097
1.70964
1.70964
1.70986
1.70987
1.70993
1.71013
1.71006
1.71005
1.71028
1.71029
1.71036
1.71056
1.71049
1.71047
1.71071
1.71073
1.71081
1.71101
1.71093
1.7109
1.71115
1.71118
1.71126
1.71147
1.71138
1.71135
1.7116
1.71163
1.71173
1.71195
1.71185
1.71181
1.71207
1.71211
1.71221
1.71243
1.71232
1.71228
1.71254
1.71259
1.7127
1.71293
1.71281
1.71276
1.71303
1.71309
1.7132
1.71344
1.71332
1.71326
1.71353
1.71359
1.71372
1.71396
1.71383
1.71376
1.71405
1.71411
1.71425
1.71449
1.71435
1.71428
1.71457
1.71464
1.71478
1.71503
1.71489
1.71481
1.71511
1.71519
1.71533
1.71559
1.71544
1.71535
1.71565
1.71574
1.71589
1.71615
1.716
1.7159
1.71621
1.7163
1.71647
1.71673
1.71657
1.71647
1.71678
1.71688
1.71705
1.71732
1.71714
1.71704
1.71736
1.71746
1.71764
1.71791
1.71773
1.71762
1.71794
1.71805
1.71823
1.71851
1.71833
1.71821
1.71854
1.71865
1.71884
1.71912
1.71893
1.71881
1.71914
1.71926
1.71945
1.71973
1.71954
1.71941
1.71974
1.71987
1.72007
1.72035
1.72015
1.72002
1.72035
1.72049
1.72069
1.72098
1.72077
1.72063
1.72097
1.72111
1.72131
1.7216
1.72139
1.72125
1.72158
1.72173
1.72193
1.72222
1.72201
1.72186
1.7222
1.72235
1.72255
1.72283
1.72263
1.72247
1.72281
1.72296
1.72316
1.72344
1.72324
1.72308
1.72341
1.72357
1.72377
1.72405
1.72384
1.72368
1.72401
1.72417
1.72437
1.72464
1.72444
1.72428
1.7246
1.72476
1.72496
1.72523
1.72503
1.72486
1.72518
1.72534
1.72554
1.7258
1.7256
1.72544
1.72575
1.7259
1.7261
1.72636
1.72616
1.726
1.7263
1.72646
1.72665
1.7269
1.72671
1.72654
1.72683
1.72699
1.72719
1.72743
1.72723
1.72707
1.72735
1.72751
1.7277
1.72793
1.72774
1.72758
1.72785
1.72801
1.7282
1.72842
1.72823
1.72807
1.72833
1.72849
1.72867
1.72888
1.7287
1.72854
1.72878
1.72894
1.72912
1.72932
1.72914
1.72898
1.72921
1.72937
1.72954
1.72973
1.72956
1.7294
1.72962
1.72977
1.72994
1.73012
1.72995
1.72979
1.73
1.73015
1.73032
1.73048
1.73032
1.73017
1.73036
1.73051
1.73066
1.73082
1.73066
1.73051
1.7307
1.73084
1.73099
1.73113
1.73098
1.73084
1.73101
1.73115
1.73129
1.73142
1.73128
1.73114
1.73129
1.73143
1.73157
1.73169
1.73155
1.73141
1.73156
1.73169
1.73182
1.73193
1.7318
1.73167
1.7318
1.73193
1.73206
1.73216
1.73203
1.73191
1.73203
1.73215
1.73228
1.73237
1.73224
1.73212
1.73224
1.73236
1.73247
1.73256
1.73244
1.73232
1.73243
1.73254
1.73265
1.73273
1.73262
1.73251
1.7326
1.73271
1.73282
1.73289
1.73278
1.73267
1.73276
1.73287
1.73297
1.73304
1.73293
1.73283
1.73291
1.73301
1.73311
1.73317
1.73308
1.73297
1.73305
1.73315
1.73324
1.7333
1.73321
1.73311
1.73318
1.73328
1.73336
1.73342
1.73333
1.73324
1.73331
1.7334
1.73348
1.73354
1.73345
1.73336
1.73343
1.73351
1.73359
1.73366
1.73357
1.73349
1.73354
1.73362
1.7337
1.73377
1.73369
1.73361
1.73367
1.73375
1.73382
1.73389
1.73382
1.73375
1.73378
1.73386
1.73394
1.73365
1.73352
1.73342
1.7334
1.73335
1.73333
1.7333
1.73332
1.73332
1.73335
1.73336
1.73339
1.73342
1.73346
1.73349
1.73353
1.73357
1.73362
1.73366
1.73371
1.73376
1.73381
1.73386
1.73392
1.73397
1.73403
1.73408
1.73414
1.73419
1.73425
1.7343
1.73436
1.73441
1.73446
1.73451
1.73456
1.73461
1.73466
1.7347
1.73475
1.73479
1.73484
1.73488
1.73492
1.73494
1.73496
1.73501
1.73504
1.73505
1.73503
1.73503
1.73507
1.73513
1.7351
1.73511
1.73514
1.73513
1.73511
1.73514
1.73517
1.7352
1.73526
1.73522
1.73517
1.73526
1.73532
1.73536
1.73545
1.73541
1.73534
1.73543
1.73551
1.73555
1.73563
1.73559
1.73552
1.73562
1.73569
1.73573
1.73581
1.73577
1.73569
1.73579
1.73586
1.7359
1.73598
1.73594
1.73587
1.73596
1.73603
1.73608
1.73615
1.73611
1.73603
1.73612
1.7362
1.73624
1.73632
1.73628
1.7362
1.73629
1.73637
1.73642
1.73649
1.73645
1.73637
1.73646
1.73654
1.73659
1.73667
1.73663
1.73655
1.73665
1.73673
1.73678
1.73686
1.73681
1.73673
1.73683
1.73691
1.73696
1.73705
1.737
1.73692
1.73702
1.73711
1.73716
1.73725
1.7372
1.73711
1.73722
1.73731
1.73735
1.73745
1.7374
1.73732
1.73743
1.73752
1.73757
1.73766
1.73762
1.73752
1.73763
1.73773
1.73778
1.73789
1.73783
1.73774
1.73786
1.73796
1.73801
1.73812
1.73807
1.73797
1.73808
1.73819
1.73825
1.73837
1.73831
1.7382
1.73833
1.73845
1.73851
1.73863
1.73857
1.73845
1.73858
1.73871
1.73877
1.7389
1.73884
1.73872
1.73886
1.73899
1.73906
1.73919
1.73913
1.73899
1.73914
1.73928
1.73934
1.73949
1.73942
1.73928
1.73941
1.73957
1.73964
1.73976
1.73968
1.7395
1.73964
1.73985
1.73994
1.74019
1.74009
1.73986
1.74024
1.74049
1.74057
1.74098
1.74089
1.74061
1.74104
1.74136
1.74144
1.74191
1.74182
1.74141
1.74171
1.74227
1.74237
1.74283
1.74272
1.74192
1.74238
1.7433
1.74338
1.74386
1.74377
1.74301
1.74154
1.74431
1.74425
1.74437
1.74409
1.74452
1.74468
1.74505
1.74496
1.74543
1.74542
1.74532
1.74588
1.74597
1.74582
1.7463
1.74642
1.74648
1.74748
1.74732
1.74704
1.74774
1.74813
1.74819
1.74902
1.74888
1.74831
1.74879
1.74954
1.74983
1.75069
1.75031
1.74952
1.74981
1.75085
1.75148
1.75226
1.7512
1.74992
1.74964
1.7511
1.75278
1.75296
1.75066
1.74932
1.74784
1.74953
1.75245
1.7518
1.74859
1.74737
1.74609
1.74722
1.75076
1.74861
1.74545
1.74481
1.74203
1.74279
1.74598
1.74247
1.74069
1.74096
1.73768
1.73737
1.73853
1.73331
1.73432
1.73493
1.73285
1.73188
1.7282
1.7222
1.7268
1.72739
1.72553
1.72521
1.71645
1.71016
1.7217
1.72167
1.71703
1.71682
1.70218
1.69238
1.7149
1.71471
1.71226
1.71085
1.67834
1.6603
1.70388
1.70892
1.70283
1.69486
1.64724
1.63183
1.68289
1.69416
1.6831
1.67061
1.62173
1.6117
1.6608
1.67493
1.66686
1.65093
1.60895
1.60393
1.63867
1.65461
1.65054
1.63542
1.6078
1.61054
1.63122
1.64729
1.63792
1.62731
1.61491
1.61902
1.63014
1.64164
1.64046
1.62974
1.62295
1.62246
1.62764
1.63416
1.64022
1.63264
1.63164
1.63442
1.63618
1.63926
1.63858
1.63565
1.63444
1.64306
1.64599
1.64682
1.64774
1.64545
1.64421
1.64082
1.64725
1.64588
1.65501
1.65283
1.64943
1.65025
1.65281
1.65403
1.65346
1.65073
1.64926
1.65587
1.65909
1.65912
1.65936
1.65788
1.65602
1.65188
1.65962
1.65763
1.66451
1.663
1.65999
1.66194
1.661
1.66342
1.66283
1.66466
1.65538
1.66424
1.66669
1.66807
1.66672
1.66375
1.66393
1.66729
1.66862
1.66977
1.66943
1.66815
1.66701
1.66544
1.66919
1.66812
1.67202
1.67253
1.66999
1.67053
1.67024
1.67159
1.67041
1.67146
1.66788
1.67151
1.67472
1.67387
1.67333
1.67218
1.67247
1.66668
1.67402
1.67282
1.67609
1.67623
1.67472
1.67428
1.67219
1.67498
1.67655
1.67602
1.67515
1.67501
1.67505
1.67593
1.67575
1.67774
1.67107
1.67624
1.67801
1.6785
1.67735
1.6747
1.67661
1.67779
1.67794
1.67916
1.67805
1.67821
1.67662
1.67712
1.67646
1.67719
1.68061
1.67838
1.67984
1.67729
1.67851
1.67862
1.67825
1.67746
1.67561
1.68036
1.68134
1.67839
1.6796
1.68256
1.67481
1.67806
1.68293
1.6804
1.6798
1.68108
1.67773
1.68084
1.68212
1.68147
1.68084
1.67936
1.68051
1.67602
1.68088
1.67939
1.68207
1.68193
1.67973
1.68098
1.67818
1.68049
1.68171
1.68137
1.68118
1.68056
1.67972
1.68097
1.6803
1.68191
1.67505
1.67923
1.6832
1.68233
1.6813
1.67842
1.68089
1.68156
1.68146
1.68184
1.68071
1.68
1.67943
1.68093
1.68182
1.68216
1.68096
1.68134
1.67894
1.68056
1.67922
1.68001
1.68032
1.68242
1.68294
1.67671
1.68314
1.68055
1.68193
1.68242
1.68018
1.67908
1.68067
1.68054
1.68157
1.68193
1.6809
1.68138
1.67963
1.68065
1.68031
1.68145
1.67669
1.67811
1.68221
1.68149
1.67957
1.67715
1.67876
1.68003
1.67871
1.68085
1.67888
1.6766
1.67826
1.67917
1.67992
1.68026
1.67929
1.67794
1.67837
1.67296
1.67888
1.67822
1.68034
1.68111
1.67625
1.67796
1.67535
1.67799
1.67799
1.67834
1.67891
1.67682
1.67678
1.67698
1.67769
1.6787
1.67724
1.67464
1.6762
1.67647
1.67747
1.6776
1.67597
1.67637
1.67506
1.67647
1.67652
1.6748
1.67291
1.67567
1.678
1.67492
1.67616
1.67917
1.66983
1.67367
1.67819
1.67615
1.67481
1.67615
1.67187
1.67348
1.675
1.67498
1.67323
1.67325
1.67202
1.67337
1.67433
1.67414
1.67257
1.67231
1.67135
1.67213
1.6731
1.67316
1.67206
1.67194
1.66986
1.66988
1.66993
1.66978
1.67337
1.66489
1.67512
1.67216
1.66362
1.67081
1.67126
1.66951
1.67065
1.66701
1.66692
1.66978
1.66974
1.66904
1.66732
1.66435
1.66668
1.66778
1.66855
1.66859
1.66641
1.66449
1.66591
1.66683
1.66735
1.66739
1.66578
1.66449
1.66427
1.6661
1.66479
1.66331
1.66294
1.66437
1.66518
1.66441
1.66395
1.66633
1.65891
1.66165
1.66592
1.66489
1.66276
1.66335
1.65935
1.66133
1.66328
1.6633
1.6614
1.66123
1.6597
1.66044
1.66187
1.66175
1.66005
1.65948
1.65865
1.65857
1.66047
1.6602
1.65874
1.6576
1.6568
1.65573
1.65588
1.65583
1.65489
1.66182
1.65409
1.64694
1.66048
1.65633
1.65701
1.65784
1.65322
1.65022
1.65555
1.65461
1.65524
1.65495
1.65335
1.65066
1.65253
1.65289
1.65347
1.65317
1.65163
1.64972
1.651
1.65164
1.65182
1.65151
1.65005
1.64706
1.65004
1.6504
1.6465
1.64756
1.64617
1.64786
1.64945
1.65026
1.64688
1.64406
1.64708
1.64634
1.64589
1.64734
1.6447
1.64254
1.64388
1.64371
1.6454
1.64554
1.643
1.64198
1.64052
1.64087
1.64367
1.64364
1.64147
1.64052
1.63859
1.63977
1.64216
1.64215
1.64103
1.63906
1.63862
1.63439
1.63743
1.63765
1.63958
1.63889
1.63623
1.6321
1.63513
1.63665
1.63709
1.6361
1.63365
1.63116
1.63314
1.63452
1.63495
1.63421
1.63196
1.63011
1.6314
1.63256
1.63282
1.63254
1.63
1.62709
1.62876
1.63012
1.63023
1.63027
1.62779
1.62587
1.62668
1.62862
1.6249
1.62334
1.62163
1.62444
1.62643
1.62664
1.62476
1.6244
1.62023
1.62028
1.62425
1.62486
1.62191
1.6215
1.61797
1.61889
1.62134
1.6221
1.61902
1.61769
1.6154
1.61636
1.61906
1.61913
1.61713
1.61535
1.61334
1.60976
1.61141
1.61294
1.6153
1.61488
1.61288
1.60844
1.61181
1.61271
1.6129
1.61259
1.60972
1.60677
1.60817
1.60978
1.60916
1.60822
1.60514
1.6008
1.60352
1.60537
1.60654
1.60602
1.60291
1.60098
1.60432
1.60524
1.60015
1.59944
1.59772
1.59982
1.60218
1.60209
1.5985
1.59713
1.59533
1.59512
1.59789
1.59795
1.59401
1.59244
1.5892
1.59011
1.59404
1.59439
1.59295
1.59061
1.58929
1.58392
1.58715
1.58865
1.59052
1.59064
1.5858
1.58244
1.58578
1.5874
1.58636
1.58545
1.58172
1.57657
1.57954
1.5818
1.58158
1.58063
1.57652
1.57349
1.57729
1.57941
1.57405
1.57195
1.56952
1.57363
1.57669
1.57706
1.57398
1.57225
1.57001
1.56854
1.57242
1.57246
1.56765
1.56638
1.56246
1.56033
1.56466
1.56608
1.56382
1.56134
1.55748
1.55456
1.55662
1.55856
1.56118
1.56047
1.55685
1.55304
1.5561
1.55786
1.55651
1.55596
1.55269
1.54656
1.55067
1.55268
1.54318
1.53961
1.53598
1.54058
1.54459
1.5457
1.54284
1.54085
1.53791
1.53907
1.54299
1.54347
1.54065
1.53829
1.53501
1.52873
1.53021
1.53237
1.53083
1.5289
1.5241
1.51643
1.52162
1.52516
1.52639
1.52512
1.51987
1.51741
1.52256
1.52499
1.51759
1.51653
1.51355
1.5125
1.51662
1.51734
1.51137
1.50942
1.50494
1.49716
1.50366
1.50677
1.50344
1.49945
1.49312
1.49063
1.49385
1.49726
1.49905
1.49793
1.49391
1.48839
1.49431
1.49672
1.48502
1.48295
1.47858
1.46957
1.47632
1.48035
1.47707
1.47252
1.46587
1.46254
1.46639
1.46993
1.47122
1.47133
1.46687
1.46303
1.46569
1.46895
1.45438
1.44753
1.44272
1.44071
1.4486
1.45158
1.44859
1.44409
1.43731
1.43172
1.43624
1.44009
1.4384
1.43792
1.43354
1.41216
1.42313
1.42941
1.414
1.40651
1.39803
1.40807
1.41418
1.4163
1.41591
1.41106
1.40497
1.39143
1.39664
1.40292
1.3917
1.38453
1.37157
1.37055
1.38094
1.38691
1.38211
1.37693
1.369
1.35108
1.35957
1.36795
1.36208
1.35405
1.3389
1.34
1.35236
1.35976
1.35308
1.34628
1.33139
1.30623
1.32859
1.33914
1.33464
1.32792
1.30977
1.29076
1.31483
1.32674
1.32542
1.31417
1.29294
1.28073
1.29827
1.3139
1.33928
1.32931
1.31694
1.33005
1.34479
1.35497
1.37498
1.36538
1.35175
1.37034
1.38346
1.3929
1.40669
1.39673
1.38394
1.39363
1.406
1.41654
1.42412
1.41318
1.40142
1.40819
1.41926
1.43048
1.43603
1.42463
1.41442
1.42016
1.42946
1.44091
1.44526
1.43388
1.42549
1.4304
1.43789
1.44911
1.45254
1.4416
1.43495
1.43917
1.44502
1.45561
1.45839
1.44824
1.44314
1.44684
1.45126
1.46093
1.46326
1.45415
1.4503
1.45351
1.45687
1.46541
1.46742
1.45948
1.45655
1.45939
1.46193
1.4693
1.4711
1.4643
1.46209
1.46462
1.46654
1.47279
1.47441
1.4687
1.46704
1.46932
1.47074
1.47595
1.47745
1.47272
1.47151
1.47359
1.47459
1.47889
1.48032
1.47642
1.4756
1.47751
1.47816
1.48171
1.4831
1.47986
1.47936
1.48111
1.48147
1.48444
1.48578
1.48306
1.48281
1.48442
1.48457
1.48707
1.48837
1.48605
1.48599
1.48748
1.48747
1.48962
1.49088
1.48886
1.48892
1.4903
1.49019
1.49209
1.4933
1.4915
1.49165
1.49293
1.49275
1.49446
1.49562
1.49399
1.49419
1.49538
1.49517
1.49674
1.49785
1.49634
1.49655
1.49767
1.49746
1.49891
1.49997
1.49857
1.49877
1.49982
1.49963
1.50098
1.50199
1.50068
1.50085
1.50184
1.50169
1.50295
1.50391
1.50268
1.50281
1.50375
1.50364
1.50483
1.50573
1.50458
1.50467
1.50556
1.5055
1.50661
1.50747
1.50639
1.50642
1.50727
1.50726
1.50831
1.50913
1.50811
1.50809
1.50889
1.50894
1.50992
1.5107
1.50975
1.50967
1.51043
1.51053
1.51145
1.51219
1.5113
1.51118
1.5119
1.51204
1.5129
1.51359
1.51276
1.51261
1.5133
1.51347
1.51427
1.51492
1.51416
1.51397
1.51463
1.51483
1.51557
1.51619
1.51548
1.51528
1.51591
1.51612
1.51681
1.5174
1.51675
1.51653
1.51713
1.51735
1.51799
1.51856
1.51795
1.51772
1.51829
1.51852
1.51911
1.51965
1.51909
1.51886
1.51941
1.51964
1.52019
1.5207
1.52019
1.51996
1.52049
1.52072
1.52122
1.52171
1.52124
1.52102
1.52152
1.52175
1.52221
1.52268
1.52225
1.52203
1.52251
1.52274
1.52316
1.52363
1.52322
1.523
1.52347
1.52369
1.52409
1.52455
1.52416
1.52394
1.52439
1.5246
1.52499
1.52543
1.52506
1.52484
1.52527
1.52549
1.52586
1.52628
1.52592
1.52571
1.52612
1.52633
1.52669
1.5271
1.52676
1.52655
1.52694
1.52715
1.52751
1.52791
1.52756
1.52735
1.52773
1.52795
1.52829
1.52868
1.52834
1.52813
1.52849
1.52871
1.52906
1.52944
1.5291
1.52888
1.52923
1.52946
1.5298
1.53018
1.52983
1.5296
1.52994
1.53018
1.53053
1.53089
1.53054
1.53031
1.53063
1.53087
1.53123
1.53158
1.53123
1.53098
1.5313
1.53155
1.53191
1.53226
1.5319
1.53164
1.53195
1.53221
1.53258
1.53291
1.53255
1.53228
1.53258
1.53286
1.53323
1.53356
1.53318
1.53291
1.5332
1.53348
1.53386
1.53418
1.5338
1.53351
1.5338
1.53409
1.53448
1.53479
1.5344
1.5341
1.53438
1.53468
1.53507
1.53537
1.53498
1.53468
1.53494
1.53526
1.53566
1.53595
1.53556
1.53524
1.5355
1.53582
1.53622
1.53651
1.53611
1.53578
1.53604
1.53637
1.53677
1.53705
1.53665
1.53631
1.53656
1.5369
1.53731
1.53758
1.53718
1.53683
1.53707
1.53742
1.53783
1.5381
1.53769
1.53734
1.53757
1.53793
1.53834
1.5386
1.53819
1.53783
1.53805
1.53842
1.53883
1.53909
1.53867
1.53831
1.53853
1.5389
1.53931
1.53956
1.53915
1.53877
1.53899
1.53936
1.53978
1.54002
1.53961
1.53923
1.53944
1.53982
1.54023
1.54046
1.54005
1.53967
1.53988
1.54026
1.54067
1.5409
1.54049
1.5401
1.5403
1.54069
1.5411
1.54131
1.54091
1.54052
1.54072
1.5411
1.54151
1.54172
1.54132
1.54093
1.54112
1.54151
1.54191
1.54212
1.54172
1.54133
1.54151
1.5419
1.5423
1.54251
1.54211
1.54172
1.5419
1.54228
1.54268
1.54288
1.54248
1.5421
1.54227
1.54266
1.54305
1.54324
1.54285
1.54246
1.54263
1.54302
1.54341
1.54359
1.54321
1.54282
1.54298
1.54337
1.54375
1.54393
1.54355
1.54317
1.54332
1.54371
1.54409
1.54426
1.54389
1.5435
1.54366
1.54404
1.54442
1.54459
1.54422
1.54383
1.54398
1.54436
1.54474
1.5449
1.54453
1.54415
1.5443
1.54468
1.54504
1.5452
1.54484
1.54446
1.5446
1.54498
1.54534
1.5455
1.54514
1.54477
1.5449
1.54528
1.54563
1.54579
1.54543
1.54506
1.54519
1.54556
1.54592
1.54606
1.54571
1.54535
1.54547
1.54584
1.54619
1.54633
1.54599
1.54562
1.54575
1.54611
1.54646
1.5466
1.54625
1.54589
1.54601
1.54638
1.54671
1.54685
1.54651
1.54616
1.54627
1.54663
1.54697
1.5471
1.54677
1.54641
1.54652
1.54688
1.54721
1.54734
1.54701
1.54666
1.54677
1.54712
1.54745
1.54757
1.54725
1.5469
1.54701
1.54735
1.54768
1.5478
1.54748
1.54713
1.54724
1.54758
1.5479
1.54802
1.5477
1.54736
1.54746
1.5478
1.54812
1.54824
1.54792
1.54758
1.54768
1.54802
1.54833
1.54844
1.54813
1.5478
1.54789
1.54823
1.54854
1.54865
1.54834
1.54801
1.5481
1.54843
1.54874
1.54884
1.54854
1.54821
1.5483
1.54863
1.54893
1.54904
1.54874
1.54841
1.54849
1.54882
1.54912
1.54922
1.54893
1.5486
1.54868
1.54901
1.54931
1.5494
1.54911
1.54879
1.54887
1.54919
1.54949
1.54958
1.54929
1.54897
1.54905
1.54937
1.54966
1.54975
1.54946
1.54915
1.54922
1.54954
1.54983
1.54992
1.54963
1.54932
1.54939
1.54971
1.54999
1.55008
1.5498
1.54949
1.54956
1.54987
1.55015
1.55024
1.54996
1.54965
1.54972
1.55003
1.55031
1.55039
1.55012
1.54981
1.54988
1.55018
1.55046
1.55054
1.55027
1.54996
1.55003
1.55033
1.55061
1.55069
1.55042
1.55011
1.55018
1.55048
1.55075
1.55083
1.55056
1.55026
1.55032
1.55062
1.55089
1.55097
1.5507
1.5504
1.55047
1.55076
1.55103
1.5511
1.55084
1.55054
1.5506
1.5509
1.55116
1.55124
1.55097
1.55068
1.55074
1.55103
1.55129
1.55136
1.5511
1.55081
1.55087
1.55115
1.55142
1.55149
1.55122
1.55094
1.55099
1.55128
1.55154
1.55161
1.55135
1.55106
1.55112
1.5514
1.55166
1.55172
1.55147
1.55119
1.55124
1.55152
1.55178
1.55184
1.55158
1.5513
1.55135
1.55163
1.55189
1.55195
1.55169
1.55142
1.55147
1.55174
1.552
1.55206
1.5518
1.55153
1.55158
1.55185
1.5521
1.55216
1.55191
1.55164
1.55169
1.55196
1.55221
1.55227
1.55201
1.55175
1.55179
1.55206
1.55231
1.55237
1.55212
1.55185
1.55189
1.55216
1.55241
1.55246
1.55221
1.55195
1.55199
1.55226
1.5525
1.55256
1.55231
1.55205
1.55209
1.55235
1.5526
1.55265
1.5524
1.55214
1.55219
1.55244
1.55269
1.55274
1.5525
1.55224
1.55228
1.55253
1.55278
1.55283
1.55258
1.55233
1.55237
1.55262
1.55286
1.55291
1.55267
1.55242
1.55246
1.55271
1.55295
1.553
1.55275
1.5525
1.55254
1.55279
1.55303
1.55308
1.55284
1.55259
1.55262
1.55287
1.55311
1.55316
1.55292
1.55267
1.5527
1.55295
1.55319
1.55323
1.55299
1.55275
1.55278
1.55303
1.55327
1.55331
1.55307
1.55283
1.55286
1.5531
1.55334
1.55338
1.55314
1.5529
1.55294
1.55318
1.55341
1.55345
1.55322
1.55298
1.55301
1.55325
1.55348
1.55352
1.55329
1.55305
1.55308
1.55332
1.55355
1.55359
1.55336
1.55312
1.55315
1.55339
1.55362
1.55366
1.55342
1.55319
1.55322
1.55345
1.55368
1.55372
1.55349
1.55325
1.55328
1.55352
1.55375
1.55378
1.55355
1.55332
1.55335
1.55358
1.55381
1.55385
1.55361
1.55338
1.55341
1.55364
1.55387
1.55391
1.55368
1.55345
1.55347
1.5537
1.55393
1.55396
1.55373
1.55351
1.55353
1.55376
1.55399
1.55402
1.55379
1.55356
1.55359
1.55382
1.55405
1.55408
1.55385
1.55362
1.55365
1.55387
1.5541
1.55413
1.5539
1.55368
1.5537
1.55393
1.55416
1.55419
1.55396
1.55373
1.55376
1.55398
1.55421
1.55424
1.55401
1.55379
1.55381
1.55403
1.55426
1.55429
1.55406
1.55384
1.55386
1.55408
1.55431
1.55434
1.55411
1.55389
1.55391
1.55413
1.55436
1.55439
1.55416
1.55394
1.55396
1.55418
1.55441
1.55444
1.55421
1.55399
1.55401
1.55423
1.55446
1.55448
1.55426
1.55404
1.55406
1.55428
1.5545
1.55453
1.5543
1.55408
1.55411
1.55432
1.55455
1.55457
1.55435
1.55413
1.55415
1.55437
1.55459
1.55462
1.55439
1.55418
1.5542
1.55441
1.55463
1.55466
1.55443
1.55422
1.55424
1.55445
1.55468
1.5547
1.55448
1.55426
1.55428
1.5545
1.55472
1.55474
1.55452
1.5543
1.55432
1.55454
1.55476
1.55478
1.55456
1.55435
1.55436
1.55458
1.5548
1.55482
1.5546
1.55439
1.5544
1.55461
1.55484
1.55486
1.55464
1.55443
1.55444
1.55465
1.55488
1.5549
1.55467
1.55446
1.55448
1.55469
1.55491
1.55493
1.55471
1.5545
1.55452
1.55473
1.55495
1.55497
1.55475
1.55454
1.55456
1.55476
1.55499
1.555
1.55478
1.55458
1.55459
1.5548
1.55502
1.55504
1.55482
1.55461
1.55463
1.55483
1.55506
1.55507
1.55485
1.55465
1.55466
1.55487
1.55509
1.55511
1.55489
1.55468
1.5547
1.5549
1.55512
1.55514
1.55492
1.55472
1.55473
1.55493
1.55515
1.55517
1.55495
1.55475
1.55476
1.55497
1.55519
1.5552
1.55498
1.55478
1.5548
1.555
1.55522
1.55523
1.55502
1.55482
1.55483
1.55503
1.55525
1.55526
1.55505
1.55485
1.55486
1.55506
1.55528
1.55529
1.55508
1.55488
1.55489
1.55509
1.5553
1.55532
1.55511
1.55491
1.55492
1.55512
1.55533
1.55535
1.55513
1.55494
1.55495
1.55514
1.55536
1.55538
1.55516
1.55497
1.55498
1.55517
1.55539
1.5554
1.55519
1.555
1.555
1.5552
1.55541
1.55543
1.55522
1.55502
1.55503
1.55522
1.55544
1.55545
1.55524
1.55505
1.55506
1.55525
1.55546
1.55548
1.55527
1.55508
1.55508
1.55528
1.55549
1.5555
1.55529
1.5551
1.55511
1.5553
1.55551
1.55553
1.55532
1.55513
1.55513
1.55532
1.55553
1.55555
1.55534
1.55515
1.55516
1.55535
1.55556
1.55557
1.55536
1.55517
1.55518
1.55537
1.55558
1.55559
1.55538
1.55519
1.5552
1.55539
1.5556
1.55561
1.5554
1.55522
1.55522
1.55541
1.55562
1.55563
1.55542
1.55524
1.55524
1.55543
1.55564
1.55565
1.55544
1.55525
1.55526
1.55544
1.55566
1.55566
1.55546
1.55527
1.55528
1.55546
1.55567
1.55568
1.55547
1.55529
1.55529
1.55548
1.55568
1.55569
1.55549
1.5553
1.55531
1.55549
1.5557
1.55571
1.5555
1.55531
1.55532
1.5555
1.55571
1.55572
1.55551
1.55533
1.55533
1.55551
1.55572
1.55573
1.55552
1.55534
1.55534
1.55552
1.55573
1.55573
1.55553
1.55535
1.55535
1.55553
1.55574
1.55574
1.55554
1.55535
1.55536
1.55554
1.55574
1.55575
1.55554
1.55536
1.55537
1.55555
1.55575
1.55575
1.55555
1.55537
1.55537
1.55555
1.55576
1.55576
1.55556
1.55537
1.55538
1.55556
1.55576
1.55577
1.55556
1.55538
1.55539
1.55557
1.55577
1.55577
1.55557
1.55539
1.55539
1.55557
1.55578
1.55577
1.55557
1.55539
1.5554
1.55558
1.55578
1.55578
1.55558
1.55539
1.5554
1.55558
1.55578
1.55577
1.55557
1.55539
1.55539
1.55555
1.55576
1.55573
1.55552
1.55534
1.55538
1.55556
1.55582
1.55615
1.55582
1.55562
1.55626
1.55646
1.55691
1.55714
1.55674
1.55658
1.55733
1.55767
1.55887
1.55996
1.56098
1.56163
1.56216
1.56251
1.56355
1.56432
1.56502
1.56553
1.5661
1.56668
1.56723
1.56773
1.56819
1.56859
1.56895
1.56927
1.56954
1.56977
1.56997
1.57014
1.57029
1.57042
1.57052
1.57061
1.57069
1.57075
1.57081
1.57085
1.57089
1.57092
1.57095
1.57096
1.57097
1.57098
1.57098
1.57099
1.57098
1.57098
1.57097
1.57096
1.57095
1.57094
1.57093
1.57092
1.5709
1.57089
1.57088
1.57086
1.57088
1.57084
1.57087
1.57082
1.57083
1.57106
1.57111
1.57113
1.57115
1.57117
1.5712
1.57123
1.57125
1.57128
1.57132
1.57135
1.57139
1.57144
1.57148
1.57154
1.57159
1.57166
1.57173
1.57181
1.5719
1.57199
1.5721
1.57221
1.57234
1.57247
1.57262
1.57277
1.57293
1.5731
1.57328
1.57345
1.57362
1.57379
1.57394
1.57407
1.57417
1.57422
1.57424
1.57425
1.57424
1.57425
1.57428
1.57432
1.57437
1.57444
1.57451
1.57459
1.57467
1.57476
1.57485
1.57494
1.57504
1.57514
1.57524
1.57535
1.57546
1.57558
1.57571
1.57584
1.57598
1.57614
1.5763
1.57648
1.57666
1.57687
1.57709
1.57732
1.57758
1.57785
1.57814
1.57845
1.57879
1.57915
1.57953
1.57993
1.58037
1.58082
1.58131
1.58183
1.58237
1.58295
1.58355
1.58419
1.58487
1.58558
1.58632
1.5871
1.58791
1.58877
1.58966
1.59058
1.59155
1.59255
1.59358
1.59466
1.59577
1.59691
1.59809
1.59931
1.60055
1.60183
1.60313
1.60447
1.60583
1.60721
1.60862
1.61005
1.61149
1.61295
1.61443
1.61591
1.61741
1.61892
1.62043
1.62194
1.62345
1.62496
1.62647
1.62797
1.62947
1.63096
1.63243
1.6339
1.63535
1.63679
1.63821
1.63961
1.641
1.64237
1.64371
1.64504
1.64634
1.64762
1.64888
1.65012
1.65133
1.65252
1.65369
1.65483
1.65595
1.65704
1.65811
1.65916
1.66018
1.66118
1.66216
1.66311
1.66404
1.66494
1.66583
1.66669
1.66753
1.66835
1.66915
1.66992
1.67068
1.67142
1.67213
1.67283
1.67351
1.67417
1.67482
1.67544
1.67605
1.67664
1.67722
1.67778
1.67832
1.67885
1.67937
1.67987
1.68035
1.68083
1.68128
1.68173
1.68216
1.68258
1.68299
1.68339
1.68378
1.68415
1.68452
1.68487
1.68521
1.68555
1.68587
1.68619
1.68649
1.68679
1.68708
1.68735
1.68762
1.68789
1.68814
1.68839
1.68863
1.68886
1.68908
1.6893
1.68951
1.68971
1.68991
1.6901
1.69028
1.69046
1.69063
1.69079
1.69095
1.6911
1.69125
1.69139
1.69153
1.69166
1.69178
1.6919
1.69202
1.69213
1.69223
1.69233
1.69242
1.69251
1.69259
1.69267
1.69275
1.69283
1.69291
1.69301
1.69312
1.69325
1.6934
1.69351
1.69356
1.69359
1.6936
1.69359
1.69359
1.69359
1.69359
1.69358
1.69358
1.69358
1.69358
1.69358
1.69358
1.69358
1.69359
1.69363
1.69376
1.6939
1.69398
1.69404
1.6941
1.69416
1.69423
1.69429
1.69435
1.69442
1.69448
1.69455
1.69463
1.6947
1.69478
1.69487
1.69495
1.69504
1.69513
1.69522
1.69531
1.6954
1.6955
1.6956
1.6957
1.6958
1.69591
1.69601
1.69612
1.69623
1.69634
1.69645
1.69656
1.69667
1.69678
1.6969
1.69701
1.69713
1.69724
1.69736
1.69747
1.69759
1.69771
1.69782
1.69794
1.69805
1.69817
1.69828
1.6984
1.69851
1.69862
1.69874
1.69885
1.69896
1.69907
1.69918
1.69928
1.69939
1.69949
1.69959
1.69969
1.69979
1.69989
1.69998
1.70008
1.70017
1.70025
1.70034
1.70042
1.7005
1.70057
1.70065
1.70072
1.70079
1.70086
1.70093
1.70099
1.70106
1.70112
1.70122
1.70132
1.70133
1.70131
1.70128
1.70125
1.70123
1.70123
1.70127
1.70138
1.70161
1.70204
1.70248
1.70263
1.70266
1.70254
1.70242
1.7023
1.70219
1.70208
1.70197
1.70187
1.70178
1.70169
1.70161
1.70153
1.70146
1.7014
1.70134
1.70128
1.70124
1.70119
1.70116
1.70112
1.70109
1.70106
1.70104
1.70102
1.701
1.70099
1.70098
1.70097
1.70097
1.70097
1.70097
1.70097
1.70098
1.70099
1.701
1.70101
1.70103
1.70105
1.70107
1.70109
1.70112
1.70115
1.70117
1.70121
1.70124
1.70127
1.70131
1.70135
1.70139
1.70143
1.70148
1.70152
1.70157
1.70162
1.70167
1.70173
1.70178
1.70184
1.70189
1.70196
1.70202
1.70208
1.70214
1.70221
1.70228
1.70235
1.70242
1.7025
1.70257
1.70265
1.70273
1.70281
1.70289
1.70298
1.70306
1.70316
1.70324
1.70334
1.70343
1.70353
1.70362
1.70372
1.70382
1.70393
1.70403
1.70414
1.70424
1.70436
1.70447
1.70459
1.7047
1.70483
1.70494
1.70507
1.70519
1.70533
1.70545
1.70559
1.70572
1.70586
1.70599
1.70614
1.70628
1.70643
1.70657
1.70673
1.70688
1.70704
1.70719
1.70736
1.70752
1.7077
1.70785
1.70804
1.7082
1.70839
1.70855
1.70875
1.70892
1.70913
1.7093
1.70951
1.70969
1.70991
1.71009
1.71032
1.71051
1.71074
1.71093
1.71117
1.71137
1.71162
1.71182
1.71207
1.71228
1.71254
1.71276
1.71302
1.71324
1.71351
1.71374
1.71402
1.71425
1.71453
1.71477
1.71506
1.7153
1.7156
1.71584
1.71615
1.7164
1.7167
1.71696
1.71727
1.71753
1.71785
1.71811
1.71843
1.7187
1.71902
1.71929
1.71962
1.71989
1.72022
1.7205
1.72083
1.7211
1.72143
1.72171
1.72204
1.72231
1.72264
1.72292