/*--------------------------------*- C++ -*----------------------------------*\
| =========                 |                                                 |
| \\      /  F ield         | OpenFOAM: The Open Source CFD Toolbox           |
|  \\    /   O peration     | Version:  v2006                                 |
|   \\  /    A nd           | Website:  www.openfoam.com                      |
|    \\/     M anipulation  |                                                 |
\*---------------------------------------------------------------------------*/
FoamFile
{
    version     2.0;
    format      ascii;
    class       volScalarField;
    location    "0.07";
    object      T;
}
// * * * * * * * * * * * * * * * * * * * * * * * * * * * * * * * * * * * * * //

dimensions      [0 0 0 1 0 0 0];


internalField   nonuniform List<scalar> 
24416
(
296.602
296.602
296.602
296.602
296.602
296.602
296.602
296.602
296.602
296.602
296.602
296.602
296.604
296.608
296.612
296.618
296.624
296.63
296.636
296.642
296.648
296.654
296.66
296.667
296.673
296.679
296.686
296.693
296.7
296.707
296.714
296.721
296.728
296.736
296.743
296.751
296.759
296.767
296.775
296.783
296.791
296.799
296.807
296.815
296.824
296.832
296.841
296.849
296.858
296.866
296.875
296.883
296.892
296.901
296.909
296.918
296.926
296.935
296.943
296.952
296.96
296.969
296.977
296.985
296.994
297.002
297.01
297.018
297.026
297.033
297.041
297.049
297.056
297.064
297.071
297.078
297.085
297.092
297.099
297.105
297.112
297.118
297.124
297.131
297.138
297.144
297.151
297.157
297.162
297.164
297.165
297.164
297.162
297.161
297.16
297.159
297.158
297.157
297.156
297.155
297.155
297.156
297.158
297.163
297.171
297.183
297.197
297.22
297.244
297.343
297.365
297.243
297.208
297.206
297.25
297.405
297.441
297.262
297.207
297.21
297.272
297.464
297.485
297.284
297.215
297.221
297.295
297.495
297.505
297.306
297.227
297.233
297.315
297.509
297.514
297.321
297.238
297.244
297.328
297.516
297.516
297.333
297.249
297.254
297.339
297.515
297.513
297.343
297.259
297.264
297.347
297.511
297.507
297.351
297.269
297.274
297.354
297.505
297.501
297.357
297.278
297.282
297.36
297.498
297.494
297.363
297.287
297.291
297.365
297.491
297.488
297.368
297.295
297.298
297.37
297.486
297.483
297.372
297.302
297.305
297.374
297.48
297.478
297.376
297.309
297.312
297.377
297.476
297.474
297.379
297.316
297.318
297.381
297.472
297.471
297.383
297.322
297.324
297.384
297.469
297.469
297.387
297.328
297.331
297.388
297.467
297.467
297.39
297.335
297.337
297.392
297.466
297.466
297.394
297.341
297.343
297.396
297.465
297.465
297.398
297.347
297.349
297.4
297.465
297.465
297.402
297.353
297.355
297.404
297.465
297.466
297.407
297.359
297.361
297.408
297.466
297.467
297.411
297.366
297.368
297.413
297.467
297.469
297.416
297.372
297.374
297.418
297.469
297.471
297.421
297.379
297.381
297.423
297.472
297.473
297.426
297.386
297.388
297.428
297.474
297.476
297.432
297.393
297.395
297.434
297.478
297.48
297.438
297.4
297.403
297.44
297.481
297.484
297.444
297.408
297.41
297.446
297.485
297.488
297.45
297.416
297.418
297.453
297.49
297.493
297.457
297.424
297.426
297.46
297.495
297.498
297.464
297.432
297.435
297.467
297.5
297.504
297.472
297.441
297.443
297.474
297.506
297.51
297.479
297.45
297.452
297.482
297.512
297.516
297.487
297.459
297.462
297.49
297.518
297.523
297.496
297.468
297.471
297.499
297.525
297.53
297.504
297.478
297.481
297.507
297.532
297.537
297.513
297.488
297.491
297.517
297.54
297.545
297.523
297.498
297.502
297.526
297.548
297.553
297.532
297.509
297.513
297.536
297.556
297.562
297.543
297.52
297.524
297.546
297.565
297.571
297.553
297.532
297.535
297.557
297.574
297.58
297.564
297.544
297.548
297.568
297.584
297.59
297.575
297.556
297.56
297.579
297.594
297.601
297.587
297.569
297.573
297.591
297.604
297.612
297.599
297.582
297.586
297.603
297.615
297.623
297.612
297.595
297.6
297.616
297.627
297.635
297.625
297.609
297.614
297.629
297.639
297.647
297.638
297.624
297.629
297.643
297.651
297.66
297.652
297.639
297.644
297.657
297.664
297.673
297.667
297.654
297.66
297.672
297.678
297.687
297.682
297.67
297.676
297.687
297.692
297.701
297.698
297.687
297.692
297.703
297.706
297.716
297.714
297.704
297.71
297.719
297.721
297.732
297.73
297.722
297.728
297.736
297.737
297.748
297.747
297.74
297.746
297.753
297.753
297.764
297.765
297.759
297.765
297.771
297.77
297.781
297.783
297.778
297.784
297.79
297.787
297.799
297.802
297.798
297.805
297.809
297.805
297.817
297.822
297.818
297.825
297.828
297.823
297.836
297.842
297.84
297.847
297.849
297.842
297.855
297.862
297.861
297.868
297.869
297.862
297.875
297.884
297.884
297.891
297.891
297.882
297.895
297.905
297.906
297.914
297.913
297.902
297.916
297.928
297.93
297.938
297.936
297.924
297.938
297.951
297.954
297.962
297.959
297.946
297.96
297.975
297.979
297.987
297.983
297.968
297.983
297.999
298.004
298.013
298.007
297.991
298.007
298.024
298.03
298.039
298.032
298.015
298.031
298.049
298.057
298.066
298.058
298.039
298.056
298.075
298.084
298.093
298.084
298.064
298.081
298.102
298.112
298.122
298.111
298.09
298.107
298.129
298.141
298.15
298.139
298.116
298.134
298.157
298.17
298.18
298.167
298.143
298.161
298.186
298.2
298.21
298.196
298.171
298.189
298.215
298.23
298.24
298.225
298.199
298.218
298.245
298.261
298.271
298.255
298.228
298.247
298.275
298.292
298.303
298.286
298.257
298.276
298.306
298.324
298.335
298.316
298.287
298.306
298.337
298.357
298.367
298.348
298.317
298.337
298.368
298.389
298.4
298.38
298.348
298.367
298.4
298.422
298.433
298.412
298.379
298.399
298.433
298.456
298.467
298.444
298.41
298.43
298.465
298.489
298.5
298.477
298.442
298.462
298.498
298.523
298.534
298.51
298.474
298.494
298.531
298.557
298.568
298.543
298.506
298.527
298.564
298.591
298.602
298.576
298.539
298.56
298.597
298.625
298.636
298.609
298.573
298.593
298.63
298.658
298.669
298.642
298.606
298.626
298.663
298.692
298.703
298.675
298.639
298.659
298.696
298.725
298.736
298.708
298.672
298.692
298.728
298.758
298.768
298.74
298.704
298.724
298.76
298.79
298.8
298.772
298.736
298.756
298.791
298.821
298.832
298.803
298.768
298.787
298.822
298.852
298.862
298.833
298.799
298.817
298.852
298.882
298.892
298.863
298.829
298.847
298.881
298.911
298.92
298.891
298.858
298.875
298.909
298.939
298.948
298.919
298.886
298.903
298.936
298.966
298.974
298.946
298.913
298.93
298.962
298.991
299
298.971
298.94
298.956
298.987
299.016
299.024
298.996
298.965
298.981
299.011
299.039
299.047
299.019
298.99
299.004
299.034
299.062
299.069
299.042
299.013
299.027
299.056
299.083
299.089
299.063
299.036
299.049
299.076
299.103
299.109
299.084
299.057
299.07
299.096
299.122
299.128
299.103
299.077
299.089
299.115
299.14
299.145
299.121
299.097
299.108
299.133
299.157
299.162
299.139
299.115
299.126
299.149
299.173
299.177
299.155
299.133
299.143
299.165
299.188
299.192
299.171
299.149
299.159
299.18
299.202
299.206
299.185
299.165
299.174
299.194
299.215
299.219
299.199
299.18
299.189
299.208
299.228
299.232
299.213
299.194
299.202
299.221
299.24
299.244
299.225
299.208
299.215
299.233
299.251
299.255
299.237
299.22
299.228
299.245
299.262
299.266
299.249
299.233
299.24
299.256
299.273
299.276
299.26
299.245
299.251
299.267
299.283
299.287
299.271
299.257
299.262
299.277
299.293
299.297
299.282
299.269
299.273
299.287
299.302
299.307
299.293
299.28
299.284
299.297
299.311
299.316
299.303
299.29
299.293
299.306
299.319
299.327
299.314
299.3
299.35
299.373
299.385
299.391
299.394
299.399
299.399
299.398
299.395
299.392
299.388
299.384
299.379
299.374
299.369
299.363
299.357
299.351
299.345
299.339
299.333
299.326
299.32
299.313
299.307
299.301
299.294
299.287
299.281
299.274
299.268
299.261
299.254
299.247
299.239
299.232
299.224
299.216
299.207
299.198
299.189
299.18
299.17
299.16
299.152
299.144
299.138
299.136
299.136
299.144
299.147
299.141
299.14
299.145
299.143
299.146
299.148
299.149
299.152
299.148
299.145
299.146
299.152
299.161
299.166
299.155
299.149
299.149
299.156
299.168
299.172
299.16
299.153
299.153
299.161
299.173
299.176
299.164
299.156
299.156
299.164
299.177
299.179
299.166
299.158
299.158
299.166
299.179
299.181
299.169
299.161
299.16
299.168
299.181
299.184
299.17
299.162
299.162
299.17
299.183
299.186
299.173
299.164
299.164
299.172
299.185
299.188
299.174
299.166
299.166
299.174
299.188
299.19
299.176
299.168
299.168
299.176
299.19
299.193
299.179
299.17
299.17
299.179
299.193
299.196
299.181
299.173
299.173
299.181
299.196
299.2
299.184
299.176
299.176
299.185
299.2
299.204
299.188
299.179
299.18
299.189
299.205
299.209
299.192
299.183
299.184
299.193
299.21
299.214
299.197
299.187
299.188
299.198
299.216
299.221
299.202
299.192
299.193
299.203
299.222
299.227
299.207
299.196
299.197
299.208
299.228
299.233
299.211
299.2
299.201
299.212
299.234
299.238
299.215
299.204
299.205
299.216
299.239
299.242
299.218
299.207
299.207
299.219
299.243
299.245
299.22
299.209
299.207
299.218
299.244
299.244
299.216
299.205
299.204
299.213
299.242
299.247
299.215
299.205
299.208
299.218
299.256
299.275
299.228
299.216
299.222
299.238
299.304
299.338
299.247
299.232
299.238
299.251
299.379
299.402
299.251
299.246
299.258
299.27
299.394
299.752
299.077
299.28
299.346
299.331
299.319
299.363
299.326
299.315
299.341
299.345
299.37
299.374
299.357
299.36
299.388
299.375
299.367
299.411
299.412
299.415
299.444
299.436
299.438
299.466
299.469
299.478
299.51
299.497
299.476
299.515
299.528
299.532
299.558
299.559
299.544
299.587
299.588
299.586
299.619
299.622
299.616
299.645
299.649
299.648
299.662
299.654
299.657
299.644
299.643
299.645
299.619
299.602
299.596
299.515
299.54
299.567
299.467
299.432
299.376
299.179
299.277
299.304
299.2
299.13
298.944
298.667
298.93
299.033
298.768
298.687
298.377
298.035
298.522
298.64
298.373
298.278
297.733
297.212
297.974
298.084
297.863
297.763
296.927
296.268
297.11
297.41
296.717
296.315
296.042
295.779
295.278
295.623
295.118
294.736
295.702
295.913
294.64
294.764
294.59
294.83
296.334
297.014
295.219
294.586
294.723
295.858
297.631
298.594
297.115
295.496
295.796
297.658
299.138
299.661
298.335
296.219
297.678
299.188
299.999
300.298
299.306
297.55
298.138
299.752
300.387
300.623
300.328
299.361
299.169
300.495
300.687
300.68
300.491
299.844
300.428
300.292
301.212
300.499
300.264
299.832
299.993
300.348
300.672
300.937
300.398
300.114
299.658
299.792
300.667
300.498
300.091
299.831
300.04
299.959
300.874
300.142
299.842
299.53
299.657
299.862
300.315
300.611
299.865
299.671
299.43
299.279
300.318
299.871
299.789
299.457
299.216
299.513
300.494
300.082
298.896
299.243
299.274
299.356
299.883
299.515
299.293
299.018
299.088
299.271
299.593
299.464
299.353
299.06
299.007
298.944
299.335
299.287
299.199
299.017
298.934
299.294
299.315
299.274
298.797
298.886
298.894
299.024
299.155
299.539
299.006
298.637
298.877
298.198
299.278
299.016
298.838
298.73
298.59
298.766
298.896
298.948
298.758
298.66
298.365
298.686
299.081
299.017
298.11
298.555
298.467
298.565
298.713
298.647
298.564
298.322
298.431
298.479
298.723
298.74
298.225
298.564
298.182
298.278
298.465
298.498
298.43
298.32
298.42
297.9
299.112
297.84
298.492
298.207
297.908
297.93
298.578
298.309
297.865
298.002
297.958
297.978
298.29
298.08
297.894
297.925
297.901
298.109
298.063
298.146
298.114
297.782
297.942
297.397
298.403
298.036
297.978
297.885
297.723
297.906
297.898
297.95
297.874
297.731
297.418
297.841
298.113
298.308
296.948
297.73
297.58
297.523
297.884
297.581
297.625
297.439
297.484
297.437
297.744
297.596
297.399
297.329
297.376
297.398
297.686
297.8
297.046
297.503
297.238
297.693
296.838
297.553
297.105
297.133
297.101
296.959
297.39
297.215
297.101
297.017
297.013
297.045
297.173
297.111
297.185
297.041
296.651
297.187
297.059
297.596
296.266
296.992
296.919
296.804
297.252
297.041
296.906
296.735
296.871
296.986
297.104
296.99
296.823
296.702
296.684
296.889
297.024
296.956
296.905
296.405
296.665
295.747
297.403
296.867
296.489
296.553
296.477
296.663
296.46
296.732
296.339
296.571
296.376
296.427
296.491
296.672
296.33
296.363
296.251
296.289
296.539
296.424
296.461
296.254
295.798
296.753
296.202
295.849
296.483
296.209
295.788
295.953
296.601
296.407
295.56
296.019
295.775
295.896
296.226
296.178
295.84
295.895
295.842
295.949
296.004
296.016
295.89
295.814
295.812
295.897
296.034
295.975
295.782
295.74
295.678
295.782
296.037
296.244
295.299
295.867
295.102
296.9
294.919
294.963
296.9
295.335
295.473
295.612
295.623
295.731
295.926
295.269
295.339
295.352
295.832
295.86
295.511
295.303
295.239
295.306
295.675
295.67
295.417
295.247
295.174
295.238
295.49
295.545
295.449
295.153
294.912
295.633
295.082
294.808
295.607
295.026
294.859
295.05
295.448
295.402
294.659
294.878
294.746
294.943
295.213
295.124
294.723
294.764
294.713
294.844
294.978
294.99
294.788
294.714
294.699
294.83
294.96
294.972
294.6
294.641
294.597
294.877
294.891
295.164
294.307
294.792
294.837
294.09
295.141
295.87
293.88
294.384
294.338
294.069
295.033
294.922
294.246
294.259
294.222
294.166
294.642
294.516
294.277
294.187
294.092
294.21
294.457
294.432
294.205
294.071
293.982
294.038
294.324
294.42
294.024
293.896
294.221
293.636
294.566
294.51
293.42
293.791
293.909
293.838
294.178
293.93
293.932
293.616
293.818
293.826
294.091
293.856
293.718
293.488
293.6
293.579
294.023
293.824
293.477
293.369
293.416
293.512
293.959
293.734
293.348
293.271
293.171
293.49
293.72
293.584
293.555
293.137
293.013
292.88
293.573
293.577
293.327
292.927
292.868
292.932
293.529
293.35
293.118
292.837
292.769
292.883
293.336
293.243
293.015
292.782
292.646
292.702
293.211
293.124
292.868
292.646
292.551
292.594
293.008
293.022
292.79
292.458
292.432
292.907
292.807
292.702
292.675
292.309
292.25
292.603
292.832
292.926
292.218
292.177
292.081
292.335
292.764
292.591
292.017
291.965
291.899
292.169
292.408
292.295
291.79
291.798
291.713
292.055
292.347
292.32
292.101
291.815
291.579
291.801
292.12
292.183
291.809
291.571
291.437
291.411
292.123
291.835
291.664
291.352
291.155
291.275
291.83
291.76
291.41
291.157
290.992
291.116
291.657
291.639
291.182
290.88
291.204
290.936
291.933
291.208
290.974
290.672
290.826
290.83
291.377
290.948
290.748
290.499
290.495
290.517
291.116
290.889
290.379
290.264
290.168
290.494
290.972
290.834
290.7
290.134
289.978
289.853
290.902
290.614
290.241
289.851
289.685
289.752
290.548
290.291
289.958
289.597
289.39
289.549
290.12
290.249
289.619
289.275
289.495
289.827
290.248
289.906
289.348
289.127
289.151
289.406
289.85
289.561
289.138
288.884
288.794
288.83
289.49
289.162
288.609
288.484
288.371
288.742
289.365
289.33
288.914
288.579
288.167
288.378
289.033
289.03
288.475
288.188
287.877
288.059
288.629
288.536
287.834
287.547
287.682
288.049
288.49
288.241
287.579
287.373
287.441
287.767
288.321
287.973
287.329
287.118
286.857
287.287
288.049
287.488
287.28
286.809
286.343
286.631
287.232
287.381
286.76
286.349
286.133
286.303
287.166
287.224
286.47
285.864
286.174
286.069
287.182
286.469
285.932
285.538
285.407
285.432
286.326
285.715
284.995
284.815
284.632
285.101
286.012
285.938
285.385
284.804
284.402
284.656
285.488
285.385
284.546
283.912
284.096
283.999
285.183
284.419
283.548
283.324
283.173
283.758
284.742
284.79
283.853
283.396
282.957
283.247
283.795
283.579
282.484
282.275
281.938
283.158
282.792
282.889
282.013
281.686
281.469
282.042
283.216
282.799
282.223
281.387
280.714
280.618
281.744
281.38
280.475
280.016
280.082
280.783
281.53
280.993
280.03
279.718
279.039
279.699
280.922
280.014
279.759
278.765
278.164
278.186
279.385
279.712
278.292
277.845
277.357
277.796
279.334
278.943
278.258
277.057
276.562
276.713
278.383
278.344
276.609
276.173
275.677
276.165
278.091
278.489
276.026
275.292
274.981
275.653
278.213
279.139
276.232
275.014
275.232
276.434
279.322
280.874
278.891
276.92
276.659
278.025
279.656
282.779
280.169
278.645
280.277
282.027
284.704
286.301
283.602
281.69
282.78
284.802
287.423
288.285
285.774
283.663
284.415
286.596
288.972
289.575
287.34
285.102
285.735
288.007
290.064
290.475
288.606
286.325
286.87
289.135
290.818
291.114
289.613
287.384
287.867
290.039
291.368
291.592
290.424
288.325
288.751
290.761
291.777
291.942
291.062
289.15
289.519
291.322
292.085
292.218
291.553
289.866
290.184
291.752
292.329
292.432
291.931
290.479
290.747
292.085
292.518
292.602
292.227
290.998
291.227
292.349
292.672
292.74
292.465
291.442
291.635
292.563
292.796
292.85
292.657
291.815
291.972
292.736
292.892
292.935
292.812
292.118
292.244
292.875
292.969
293.005
292.938
292.36
292.46
292.989
293.033
293.064
293.04
292.554
292.632
293.081
293.089
293.118
293.123
292.706
292.765
293.156
293.14
293.166
293.19
292.823
292.868
293.216
293.184
293.206
293.244
292.914
292.948
293.264
293.223
293.242
293.286
292.984
293.01
293.301
293.257
293.274
293.318
293.038
293.057
293.328
293.287
293.301
293.341
293.079
293.093
293.347
293.312
293.323
293.356
293.111
293.121
293.36
293.332
293.341
293.365
293.135
293.142
293.366
293.348
293.355
293.368
293.153
293.157
293.367
293.359
293.364
293.367
293.165
293.168
293.365
293.368
293.371
293.363
293.174
293.175
293.36
293.374
293.376
293.358
293.18
293.181
293.354
293.377
293.378
293.352
293.186
293.187
293.348
293.377
293.377
293.346
293.19
293.191
293.341
293.375
293.374
293.338
293.194
293.194
293.332
293.371
293.369
293.329
293.195
293.195
293.323
293.364
293.362
293.319
293.196
293.195
293.313
293.356
293.353
293.31
293.195
293.194
293.303
293.347
293.344
293.299
293.194
293.192
293.292
293.336
293.332
293.288
293.191
293.189
293.28
293.324
293.319
293.276
293.187
293.183
293.267
293.31
293.306
293.263
293.181
293.175
293.254
293.296
293.291
293.249
293.172
293.165
293.24
293.282
293.276
293.235
293.161
293.153
293.225
293.266
293.261
293.22
293.149
293.14
293.21
293.25
293.245
293.204
293.136
293.126
293.194
293.234
293.229
293.188
293.121
293.11
293.177
293.217
293.212
293.171
293.104
293.093
293.159
293.2
293.194
293.152
293.086
293.074
293.14
293.183
293.177
293.133
293.067
293.054
293.121
293.165
293.158
293.114
293.047
293.033
293.1
293.146
293.139
293.093
293.025
293.011
293.079
293.126
293.12
293.071
293.003
292.988
293.057
293.106
293.099
293.049
292.979
292.964
293.034
293.085
293.078
293.026
292.955
292.939
293.011
293.064
293.056
293.002
292.929
292.913
292.986
293.041
293.033
292.977
292.903
292.887
292.961
293.019
293.01
292.952
292.877
292.861
292.936
292.995
292.986
292.926
292.85
292.834
292.91
292.971
292.962
292.9
292.823
292.807
292.884
292.947
292.937
292.873
292.796
292.78
292.857
292.922
292.912
292.846
292.769
292.752
292.83
292.896
292.887
292.819
292.741
292.724
292.803
292.871
292.861
292.792
292.714
292.697
292.775
292.845
292.835
292.765
292.686
292.669
292.748
292.818
292.808
292.737
292.659
292.642
292.721
292.792
292.782
292.71
292.631
292.614
292.693
292.765
292.755
292.683
292.604
292.587
292.666
292.739
292.729
292.655
292.577
292.561
292.639
292.712
292.702
292.628
292.55
292.534
292.612
292.686
292.675
292.601
292.524
292.508
292.585
292.659
292.649
292.575
292.498
292.482
292.559
292.633
292.622
292.548
292.472
292.456
292.532
292.606
292.596
292.522
292.446
292.431
292.506
292.58
292.57
292.496
292.421
292.405
292.48
292.554
292.544
292.47
292.396
292.381
292.455
292.529
292.519
292.445
292.372
292.356
292.43
292.503
292.493
292.42
292.347
292.332
292.405
292.478
292.468
292.395
292.323
292.309
292.38
292.453
292.443
292.37
292.3
292.285
292.356
292.428
292.418
292.346
292.277
292.262
292.332
292.404
292.394
292.323
292.254
292.24
292.308
292.38
292.37
292.299
292.231
292.217
292.285
292.356
292.347
292.276
292.209
292.196
292.262
292.333
292.324
292.254
292.187
292.174
292.24
292.31
292.301
292.231
292.166
292.153
292.218
292.287
292.278
292.209
292.145
292.132
292.196
292.265
292.256
292.188
292.124
292.111
292.175
292.243
292.234
292.167
292.104
292.091
292.154
292.221
292.213
292.146
292.084
292.071
292.133
292.2
292.192
292.126
292.064
292.052
292.113
292.179
292.171
292.105
292.045
292.033
292.093
292.159
292.151
292.086
292.026
292.014
292.074
292.139
292.131
292.066
292.007
291.996
292.055
292.119
292.111
292.048
291.989
291.978
292.036
292.1
292.092
292.029
291.971
291.96
292.018
292.081
292.073
292.011
291.953
291.942
292
292.062
292.055
291.993
291.936
291.925
291.982
292.044
292.036
291.975
291.919
291.908
291.964
292.026
292.019
291.957
291.902
291.891
291.947
292.008
292.001
291.94
291.885
291.875
291.93
291.99
291.984
291.924
291.869
291.859
291.914
291.973
291.967
291.907
291.853
291.843
291.897
291.956
291.95
291.891
291.838
291.828
291.881
291.94
291.933
291.875
291.822
291.812
291.866
291.924
291.917
291.86
291.807
291.798
291.85
291.908
291.901
291.844
291.792
291.783
291.835
291.892
291.886
291.829
291.777
291.768
291.82
291.877
291.871
291.814
291.763
291.754
291.805
291.861
291.856
291.8
291.749
291.74
291.791
291.847
291.841
291.785
291.735
291.726
291.777
291.832
291.826
291.771
291.721
291.713
291.763
291.817
291.812
291.758
291.708
291.699
291.749
291.803
291.798
291.744
291.695
291.686
291.736
291.789
291.784
291.731
291.682
291.674
291.723
291.776
291.771
291.718
291.669
291.661
291.71
291.762
291.757
291.705
291.657
291.649
291.697
291.749
291.744
291.692
291.644
291.637
291.685
291.736
291.731
291.68
291.632
291.625
291.672
291.724
291.719
291.668
291.62
291.613
291.66
291.711
291.706
291.656
291.609
291.601
291.649
291.699
291.694
291.644
291.597
291.59
291.637
291.687
291.682
291.632
291.586
291.579
291.625
291.675
291.67
291.621
291.575
291.568
291.614
291.663
291.659
291.61
291.564
291.557
291.603
291.652
291.647
291.599
291.553
291.546
291.592
291.64
291.636
291.588
291.542
291.536
291.581
291.629
291.625
291.577
291.532
291.525
291.571
291.618
291.614
291.567
291.522
291.515
291.56
291.607
291.603
291.556
291.511
291.505
291.55
291.597
291.593
291.546
291.501
291.495
291.54
291.586
291.582
291.536
291.491
291.485
291.53
291.576
291.572
291.526
291.482
291.476
291.52
291.566
291.562
291.516
291.472
291.466
291.511
291.556
291.552
291.507
291.463
291.457
291.501
291.546
291.542
291.497
291.453
291.448
291.492
291.536
291.533
291.488
291.444
291.438
291.482
291.527
291.523
291.479
291.435
291.429
291.473
291.517
291.514
291.47
291.426
291.421
291.464
291.508
291.504
291.461
291.417
291.412
291.455
291.499
291.495
291.452
291.409
291.403
291.447
291.49
291.486
291.443
291.4
291.395
291.438
291.481
291.477
291.435
291.391
291.386
291.429
291.472
291.469
291.426
291.383
291.378
291.421
291.464
291.46
291.418
291.375
291.37
291.413
291.455
291.452
291.409
291.366
291.361
291.404
291.447
291.443
291.401
291.358
291.353
291.396
291.438
291.435
291.393
291.35
291.345
291.388
291.43
291.427
291.385
291.342
291.337
291.38
291.422
291.418
291.377
291.335
291.33
291.372
291.414
291.41
291.369
291.327
291.322
291.365
291.406
291.402
291.361
291.319
291.314
291.357
291.398
291.394
291.354
291.312
291.307
291.349
291.39
291.387
291.346
291.304
291.299
291.342
291.382
291.379
291.339
291.296
291.292
291.334
291.375
291.371
291.331
291.289
291.285
291.327
291.367
291.364
291.324
291.281
291.277
291.32
291.36
291.356
291.316
291.274
291.27
291.312
291.352
291.349
291.309
291.267
291.263
291.305
291.345
291.342
291.302
291.26
291.256
291.298
291.338
291.334
291.295
291.253
291.249
291.291
291.33
291.327
291.288
291.246
291.242
291.284
291.323
291.32
291.281
291.239
291.235
291.277
291.316
291.313
291.274
291.232
291.228
291.27
291.309
291.306
291.267
291.226
291.222
291.263
291.302
291.299
291.26
291.219
291.215
291.257
291.295
291.292
291.254
291.212
291.208
291.25
291.288
291.286
291.247
291.206
291.202
291.243
291.281
291.279
291.24
291.199
291.195
291.237
291.275
291.272
291.234
291.193
291.189
291.23
291.268
291.265
291.227
291.186
291.183
291.223
291.261
291.259
291.221
291.18
291.176
291.217
291.254
291.252
291.215
291.174
291.17
291.211
291.248
291.245
291.208
291.167
291.164
291.204
291.241
291.239
291.202
291.161
291.157
291.198
291.235
291.232
291.196
291.155
291.151
291.191
291.228
291.226
291.189
291.149
291.145
291.185
291.222
291.22
291.183
291.143
291.139
291.179
291.215
291.213
291.177
291.137
291.133
291.173
291.209
291.207
291.171
291.131
291.127
291.167
291.203
291.201
291.165
291.125
291.121
291.161
291.196
291.194
291.158
291.119
291.115
291.154
291.19
291.188
291.152
291.113
291.109
291.148
291.184
291.182
291.146
291.107
291.103
291.142
291.178
291.176
291.14
291.101
291.097
291.136
291.172
291.169
291.134
291.095
291.091
291.13
291.165
291.163
291.128
291.089
291.085
291.124
291.159
291.157
291.122
291.083
291.079
291.118
291.153
291.151
291.116
291.077
291.073
291.112
291.147
291.144
291.11
291.07
291.067
291.106
291.141
291.138
291.104
291.065
291.061
291.1
291.135
291.132
291.097
291.059
291.055
291.094
291.128
291.125
291.091
291.053
291.049
291.087
291.122
291.119
291.085
291.046
291.043
291.081
291.116
291.113
291.079
291.04
291.037
291.075
291.109
291.106
291.072
291.034
291.03
291.069
291.103
291.1
291.066
291.028
291.024
291.063
291.097
291.094
291.06
291.022
291.018
291.056
291.091
291.087
291.053
291.016
291.012
291.05
291.085
291.081
291.047
291.009
291.006
291.044
291.079
291.075
291.041
291.003
291
291.038
291.073
291.069
291.035
290.997
290.994
291.032
291.067
291.063
291.029
290.991
290.989
291.026
291.06
291.056
291.023
290.985
290.983
291.019
291.054
291.049
291.016
290.978
290.975
291.013
291.047
291.04
291.009
290.971
290.965
291.003
291.038
291.032
290.999
290.95
290.927
290.989
291.021
290.992
290.962
290.88
290.884
290.956
290.981
290.852
290.802
290.551
290.34
290.185
290.124
289.924
289.783
289.703
289.653
289.482
289.32
289.18
289.053
288.94
288.84
288.752
288.675
288.608
288.55
288.501
288.458
288.421
288.39
288.363
288.341
288.321
288.305
288.291
288.278
288.268
288.259
288.251
288.245
288.239
288.234
288.23
288.226
288.223
288.22
288.217
288.215
288.213
288.211
288.21
288.208
288.207
288.206
288.205
288.205
288.204
288.204
288.203
288.203
288.203
288.203
288.203
288.202
288.202
288.202
288.201
288.201
288.2
288.2
288.199
288.198
288.198
288.197
288.196
288.195
288.195
288.194
288.193
288.192
288.191
288.191
288.19
288.189
288.188
288.187
288.187
288.186
288.185
288.185
288.184
288.184
288.183
288.183
288.183
288.182
288.182
288.182
288.182
288.181
288.181
288.18
288.18
288.179
288.178
288.177
288.176
288.177
288.177
288.179
288.181
288.185
288.189
288.194
288.2
288.207
288.216
288.225
288.235
288.246
288.258
288.271
288.286
288.301
288.317
288.335
288.353
288.373
288.394
288.416
288.44
288.465
288.491
288.519
288.548
288.58
288.612
288.647
288.683
288.721
288.762
288.804
288.848
288.894
288.943
288.994
289.047
289.103
289.161
289.222
289.285
289.35
289.418
289.489
289.562
289.638
289.717
289.798
289.881
289.967
290.055
290.145
290.238
290.333
290.43
290.528
290.629
290.731
290.835
290.94
291.046
291.153
291.261
291.37
291.479
291.589
291.699
291.809
291.919
292.029
292.139
292.248
292.356
292.464
292.571
292.677
292.781
292.885
292.987
293.088
293.188
293.286
293.382
293.477
293.57
293.662
293.752
293.84
293.926
294.01
294.093
294.174
294.253
294.33
294.405
294.479
294.55
294.62
294.688
294.755
294.819
294.882
294.944
295.003
295.061
295.117
295.172
295.225
295.277
295.327
295.375
295.422
295.468
295.513
295.556
295.597
295.638
295.677
295.715
295.751
295.787
295.821
295.854
295.886
295.917
295.947
295.976
296.004
296.031
296.058
296.083
296.107
296.13
296.153
296.175
296.196
296.216
296.236
296.254
296.272
296.29
296.306
296.322
296.338
296.353
296.367
296.381
296.394
296.406
296.418
296.43
296.441
296.452
296.462
296.471
296.481
296.49
296.498
296.506
296.514
296.521
296.528
296.535
296.541
296.547
296.552
296.558
296.562
296.567
296.571
296.575
296.579
296.582
296.585
296.588
296.591
296.593
296.595
296.596
296.598
296.599
296.6
296.601
296.601
296.601
296.601
296.602
296.602
296.602
296.602
296.602
296.602
296.602
296.602
296.602
296.602
296.602
296.602
296.602
296.602
296.602
296.604
296.607
296.611
296.616
296.621
296.627
296.633
296.639
296.645
296.651
296.657
296.663
296.669
296.676
296.682
296.689
296.696
296.703
296.711
296.718
296.725
296.733
296.741
296.748
296.756
296.764
296.772
296.781
296.789
296.797
296.805
296.814
296.822
296.831
296.839
296.848
296.857
296.865
296.874
296.883
296.891
296.9
296.909
296.917
296.926
296.935
296.943
296.952
296.96
296.969
296.977
296.986
296.994
297.002
297.01
297.019
297.027
297.035
297.042
297.05
297.058
297.065
297.072
297.08
297.087
297.094
297.1
297.107
297.113
297.12
297.126
297.133
297.139
297.145
297.151
297.156
297.159
297.161
297.162
297.161
297.161
297.161
297.16
297.16
297.159
297.159
297.158
297.158
297.158
297.159
297.161
297.164
297.174
297.175
297.175
297.177
297.179
297.182
297.185
297.189
297.192
297.196
297.2
297.204
297.208
297.212
297.216
297.22
297.224
297.228
297.232
297.235
297.239
297.243
297.247
297.251
297.255
297.258
297.263
297.266
297.27
297.273
297.278
297.281
297.285
297.288
297.293
297.296
297.301
297.303
297.308
297.311
297.316
297.319
297.324
297.327
297.332
297.335
297.341
297.344
297.349
297.352
297.358
297.361
297.367
297.37
297.376
297.38
297.386
297.389
297.395
297.399
297.405
297.409
297.416
297.419
297.426
297.43
297.437
297.441
297.449
297.452
297.46
297.464
297.472
297.476
297.484
297.488
297.497
297.501
297.51
297.514
297.523
297.528
297.537
297.542
297.551
297.556
297.566
297.571
297.581
297.586
297.597
297.602
297.613
297.619
297.63
297.635
297.647
297.653
297.665
297.671
297.683
297.689
297.702
297.708
297.721
297.728
297.741
297.748
297.762
297.769
297.783
297.79
297.805
297.812
297.827
297.835
297.85
297.858
297.874
297.882
297.898
297.907
297.923
297.932
297.949
297.958
297.975
297.984
298.002
298.011
298.03
298.039
298.058
298.068
298.087
298.097
298.116
298.126
298.147
298.157
298.177
298.188
298.209
298.219
298.241
298.252
298.273
298.284
298.307
298.318
298.34
298.351
298.374
298.386
298.409
298.42
298.443
298.455
298.478
298.49
298.514
298.526
298.549
298.561
298.585
298.597
298.62
298.632
298.655
298.667
298.69
298.702
298.725
298.737
298.759
298.771
298.793
298.804