/*--------------------------------*- C++ -*----------------------------------*\
| =========                 |                                                 |
| \\      /  F ield         | OpenFOAM: The Open Source CFD Toolbox           |
|  \\    /   O peration     | Version:  v2006                                 |
|   \\  /    A nd           | Website:  www.openfoam.com                      |
|    \\/     M anipulation  |                                                 |
\*---------------------------------------------------------------------------*/
FoamFile
{
    version     2.0;
    format      ascii;
    class       volScalarField;
    location    "0.07";
    object      turbulenceProperties:I;
}
// * * * * * * * * * * * * * * * * * * * * * * * * * * * * * * * * * * * * * //

dimensions      [0 0 0 0 0 0 0];


internalField   nonuniform List<scalar> 
24416
(
0.15
0.15
0.15
0.15
0.15
0.15
0.15
0.15
0.15
0.15
0.15
0.15
0.150002
0.150005
0.150007
0.150009
0.150011
0.150012
0.150012
0.150011
0.150011
0.15001
0.150009
0.150008
0.150007
0.150007
0.150006
0.150006
0.150005
0.150005
0.150005
0.150004
0.150004
0.150004
0.150003
0.150003
0.150003
0.150003
0.150003
0.150002
0.150002
0.150002
0.150002
0.150002
0.150002
0.150002
0.150001
0.150001
0.150001
0.150001
0.150001
0.150001
0.150001
0.150001
0.150001
0.150001
0.150001
0.150001
0.150001
0.150001
0.15
0.15
0.15
0.15
0.15
0.15
0.15
0.15
0.15
0.15
0.15
0.15
0.15
0.149999
0.149999
0.149999
0.149999
0.149999
0.149999
0.149998
0.149998
0.149997
0.149997
0.149997
0.149998
0.150001
0.150005
0.150012
0.150021
0.150031
0.150038
0.15004
0.150032
0.150015
0.15
0.149982
0.14997
0.149962
0.149957
0.149953
0.149948
0.149967
0.149989
0.149988
0.15
0.150007
0.15001
0.149861
0.149317
0.145302
0.139126
0.145679
0.148752
0.146557
0.140665
0.134044
0.130105
0.136432
0.144146
0.14136
0.131833
0.126526
0.124025
0.128733
0.138981
0.136261
0.125162
0.121659
0.120119
0.123024
0.134343
0.131972
0.120186
0.118543
0.117494
0.118565
0.130488
0.12836
0.116564
0.116381
0.115721
0.115603
0.127267
0.125467
0.114122
0.114936
0.114531
0.11355
0.12467
0.123119
0.112403
0.113963
0.113715
0.112066
0.122538
0.121182
0.111153
0.113297
0.113143
0.110943
0.120747
0.119553
0.110211
0.112828
0.112732
0.110065
0.119201
0.118151
0.109464
0.112487
0.112428
0.109362
0.117858
0.116916
0.108852
0.11223
0.112196
0.108779
0.11667
0.115814
0.108335
0.112029
0.112011
0.108283
0.115604
0.114818
0.107889
0.111868
0.11186
0.107851
0.114637
0.113906
0.107493
0.111731
0.111731
0.107467
0.113748
0.113069
0.107143
0.111619
0.111626
0.107128
0.112933
0.112294
0.106828
0.111523
0.111533
0.106821
0.112176
0.111573
0.106543
0.111438
0.111451
0.106542
0.11147
0.1109
0.106283
0.111363
0.111379
0.106289
0.11081
0.11027
0.106047
0.111297
0.111315
0.106059
0.110193
0.10968
0.105832
0.111238
0.111258
0.105849
0.109615
0.109126
0.105637
0.111186
0.111208
0.10566
0.109073
0.108608
0.10546
0.111141
0.111165
0.105488
0.108565
0.108122
0.105301
0.111102
0.111127
0.105335
0.10809
0.107669
0.10516
0.111069
0.111095
0.105198
0.107646
0.107246
0.105035
0.111041
0.111069
0.105079
0.107234
0.106854
0.104927
0.111018
0.111048
0.104976
0.106851
0.106489
0.104835
0.111001
0.111033
0.104888
0.106495
0.106151
0.104757
0.110989
0.111023
0.104816
0.106165
0.105837
0.104694
0.110982
0.111017
0.104757
0.10586
0.105548
0.104644
0.110979
0.111016
0.104712
0.105578
0.105281
0.104607
0.110981
0.11102
0.104679
0.105319
0.105036
0.104581
0.110988
0.111028
0.104658
0.105081
0.104812
0.104568
0.110998
0.11104
0.104649
0.104865
0.104609
0.104566
0.111012
0.111056
0.104651
0.104669
0.104425
0.104575
0.111031
0.111076
0.104665
0.104493
0.10426
0.104595
0.111053
0.111099
0.104689
0.104335
0.104114
0.104625
0.111079
0.111127
0.104723
0.104195
0.103985
0.104665
0.111108
0.111159
0.104768
0.104073
0.103873
0.104715
0.111142
0.111194
0.104823
0.103969
0.103779
0.104775
0.111179
0.111233
0.104887
0.103881
0.1037
0.104845
0.111219
0.111275
0.104961
0.103809
0.103638
0.104923
0.111263
0.111321
0.105045
0.103754
0.103591
0.105011
0.111311
0.111371
0.105138
0.103714
0.10356
0.105109
0.111363
0.111425
0.105241
0.103691
0.103545
0.105216
0.111418
0.111482
0.105353
0.103683
0.103545
0.105333
0.111477
0.111544
0.105476
0.103691
0.103562
0.10546
0.11154
0.111609
0.105609
0.103716
0.103595
0.105598
0.111607
0.111679
0.105752
0.103757
0.103645
0.105746
0.111677
0.111752
0.105907
0.103816
0.103711
0.105906
0.111753
0.11183
0.106074
0.103891
0.103794
0.106077
0.111832
0.111913
0.106253
0.103983
0.103894
0.106261
0.111917
0.112001
0.106444
0.104092
0.104012
0.106458
0.112006
0.112094
0.106649
0.104219
0.104148
0.106667
0.112101
0.112192
0.106867
0.104365
0.104302
0.106891
0.112201
0.112296
0.107099
0.104529
0.104475
0.107128
0.112306
0.112406
0.107346
0.104712
0.104667
0.10738
0.112418
0.112521
0.107607
0.104916
0.10488
0.107647
0.112534
0.112642
0.107884
0.10514
0.105113
0.10793
0.112657
0.11277
0.108178
0.105386
0.105369
0.108229
0.112786
0.112904
0.108489
0.105655
0.105648
0.108546
0.112922
0.113045
0.108819
0.105948
0.105951
0.108883
0.113065
0.113193
0.109168
0.106265
0.10628
0.109239
0.113216
0.11335
0.109538
0.10661
0.106636
0.109617
0.113375
0.113514
0.109931
0.106983
0.107021
0.110019
0.113541
0.113688
0.110348
0.107385
0.107437
0.110444
0.113717
0.11387
0.11079
0.107819
0.107883
0.110895
0.113902
0.114062
0.111259
0.108284
0.108363
0.111374
0.114096
0.114263
0.111755
0.108784
0.108877
0.11188
0.1143
0.114475
0.112281
0.10932
0.109427
0.112416
0.114514
0.114698
0.112838
0.109893
0.110016
0.112984
0.114739
0.114932
0.113428
0.110506
0.110645
0.113586
0.114975
0.115177
0.114053
0.11116
0.111316
0.114223
0.115223
0.115435
0.114714
0.111859
0.112033
0.114898
0.115483
0.115706
0.115415
0.112605
0.112799
0.115613
0.115756
0.11599
0.116159
0.113401
0.113616
0.116371
0.116043
0.116287
0.116947
0.114252
0.114488
0.117176
0.116342
0.116599
0.117783
0.115158
0.115418
0.11803
0.116656
0.116925
0.118671
0.116125
0.116408
0.118935
0.116984
0.117265
0.119611
0.117153
0.117462
0.119894
0.117326
0.117621
0.120607
0.118247
0.118582
0.12091
0.117684
0.11799
0.121662
0.11941
0.119772
0.121985
0.11806
0.118372
0.122778
0.120646
0.121036
0.123123
0.118457
0.118757
0.12396
0.121958
0.12238
0.124331
0.11889
0.119127
0.125211
0.123352
0.123805
0.125607
0.119427
0.120078
0.126555
0.124829
0.125317
0.127017
0.120611
0.121413
0.128043
0.126398
0.12693
0.128579
0.122048
0.122935
0.129687
0.128073
0.128655
0.130297
0.123637
0.12459
0.131486
0.129864
0.130498
0.13217
0.125349
0.126363
0.133442
0.131776
0.132463
0.134197
0.127173
0.128245
0.135551
0.13381
0.134552
0.136375
0.129103
0.13023
0.137807
0.135968
0.136764
0.138696
0.13113
0.132306
0.140203
0.138248
0.139093
0.14115
0.133243
0.134461
0.142723
0.140639
0.141529
0.14372
0.135425
0.136677
0.14535
0.143131
0.144058
0.146386
0.137657
0.138931
0.14806
0.145706
0.146659
0.149121
0.139916
0.141199
0.150823
0.148341
0.149308
0.151891
0.142172
0.143449
0.153602
0.151009
0.151973
0.154659
0.144394
0.145646
0.156356
0.153677
0.154621
0.157379
0.146545
0.147751
0.159037
0.156306
0.15721
0.160003
0.148585
0.149728
0.161596
0.158856
0.159696
0.162478
0.150477
0.151538
0.163982
0.161284
0.16204
0.164761
0.152188
0.153149
0.16615
0.163548
0.164201
0.166799
0.153684
0.154532
0.168052
0.165608
0.166144
0.168559
0.154944
0.155669
0.16966
0.167431
0.167835
0.170011
0.155952
0.156552
0.170948
0.168989
0.169252
0.171135
0.156707
0.157182
0.171904
0.170265
0.170383
0.171929
0.157215
0.157569
0.172531
0.171252
0.171226
0.172401
0.157491
0.157735
0.172842
0.171948
0.17179
0.172566
0.157557
0.157705
0.172862
0.172371
0.172084
0.17246
0.157445
0.157509
0.172621
0.172534
0.172126
0.172105
0.157185
0.157177
0.172153
0.172461
0.171953
0.171542
0.156814
0.156751
0.171499
0.172175
0.17159
0.170823
0.156367
0.156269
0.170711
0.171721
0.171076
0.169989
0.155878
0.155764
0.169828
0.171142
0.170456
0.169079
0.15538
0.155271
0.168893
0.170483
0.16976
0.168096
0.154891
0.154826
0.168012
0.169821
0.16908
0.167035
0.154465
0.154463
0.167032
0.169118
0.168487
0.166257
0.154235
0.154252
0.166243
0.168561
0.168073
0.165661
0.154304
0.154351
0.16538
0.167853
0.167512
0.165088
0.154344
0.154277
0.165672
0.167435
0.167913
0.166186
0.154315
0.174983
0.179228
0.184325
0.192495
0.201709
0.208497
0.215305
0.220498
0.225897
0.230424
0.2351
0.239177
0.243336
0.247042
0.250785
0.254168
0.257556
0.260641
0.263707
0.266503
0.269264
0.271771
0.27423
0.276439
0.278586
0.280479
0.282294
0.283844
0.285297
0.286458
0.287497
0.288217
0.288779
0.288959
0.288922
0.288409
0.287585
0.286135
0.284235
0.281469
0.278034
0.273375
0.267644
0.260066
0.252232
0.240403
0.226259
0.208339
0.18564
0.160535
0.146822
0.138916
0.141112
0.145368
0.158525
0.157888
0.145464
0.143185
0.145021
0.144279
0.156364
0.157471
0.145816
0.146882
0.147781
0.146515
0.158404
0.158753
0.146671
0.148603
0.148913
0.147656
0.160523
0.160899
0.147843
0.149095
0.149463
0.149162
0.162835
0.162972
0.149076
0.149507
0.149864
0.150458
0.164964
0.165225
0.150452
0.149769
0.150177
0.151931
0.167266
0.167381
0.15178
0.150104
0.150512
0.153284
0.169549
0.169843
0.153267
0.150355
0.150828
0.154894
0.172057
0.172196
0.154743
0.150689
0.151189
0.156429
0.174588
0.174953
0.156437
0.151011
0.151551
0.158243
0.17737
0.177554
0.158119
0.151392
0.151976
0.160009
0.180203
0.180656
0.160062
0.151801
0.152424
0.162078
0.183317
0.183572
0.161998
0.152258
0.15294
0.164117
0.186511
0.187072
0.164228
0.152778
0.1535
0.166482
0.190011
0.190349
0.166457
0.153335
0.154135
0.168846
0.193633
0.194328
0.169026
0.153991
0.154832
0.171556
0.197598
0.198036
0.171591
0.154663
0.1556
0.174287
0.201734
0.202586
0.174529
0.155461
0.156423
0.177338
0.206243
0.206783
0.177401
0.156215
0.157272
0.180375
0.210964
0.211965
0.180615
0.157072
0.158113
0.183625
0.21607
0.216709
0.183598
0.157773
0.158954
0.186843
0.221475
0.222607
0.186975
0.158541
0.159816
0.190263
0.227289
0.227831
0.189722
0.158859
0.159765
0.193568
0.233162
0.234144
0.193029
0.158298
0.159604
0.198462
0.240691
0.242401
0.198439
0.158926
0.160621
0.20442
0.250638
0.254202
0.205685
0.160987
0.163787
0.211929
0.264056
0.269467
0.214736
0.166617
0.176913
0.229745
0.281767
0.289136
0.251227
0.190923
0.163831
0.173121
0.227678
0.286412
0.224629
0.171361
0.173378
0.22537
0.29343
0.323837
0.242491
0.187472
0.213152
0.263094
0.369533
0.437444
0.334657
0.250236
0.301816
0.419382
0.482642
0.533211
0.46095
0.330395
0.372077
0.530586
0.59979
0.658145
0.586296
0.404308
0.443797
0.635624
0.697862
0.782149
0.738565
0.533965
0.660458
0.878253
0.893512
1
1
0.850708
1
1
1
1
1
1
1
1
1
0.943283
0.998011
0.944114
0.701902
0.800883
0.787516
0.611651
0.624433
0.542034
0.438588
0.513249
0.513705
0.449974
0.443809
0.370286
0.319062
0.380033
0.384091
0.336288
0.333215
0.280709
0.252819
0.30439
0.307499
0.277808
0.276507
0.228165
0.207765
0.256099
0.257172
0.240621
0.239653
0.189253
0.172183
0.21806
0.225929
0.2049
0.1934
0.159107
0.150563
0.17272
0.185827
0.173856
0.161278
0.14508
0.14257
0.153873
0.160651
0.151907
0.150878
0.143265
0.146204
0.149217
0.146255
0.142955
0.149114
0.152538
0.160762
0.150885
0.140957
0.138593
0.152027
0.171401
0.180922
0.153874
0.140234
0.139454
0.156374
0.188955
0.192616
0.155638
0.138475
0.141748
0.15733
0.19123
0.184661
0.159938
0.138543
0.140373
0.153004
0.165385
0.161098
0.146347
0.139212
0.121494
0.124636
0.154653
0.143369
0.125605
0.12223
0.120581
0.123122
0.142142
0.144822
0.108753
0.105639
0.102777
0.105639
0.129496
0.130912
0.104191
0.101131
0.0903527
0.0975148
0.137707
0.121192
0.0930703
0.0912514
0.0895598
0.0927251
0.123238
0.134675
0.0895123
0.0823121
0.0802746
0.0828189
0.114842
0.118039
0.0829459
0.0795517
0.0747083
0.0827795
0.131259
0.112534
0.0794394
0.0761811
0.0717003
0.0798413
0.123104
0.104358
0.0754932
0.0765528
0.0749882
0.0762086
0.108551
0.121504
0.078023
0.0695064
0.0760461
0.0744734
0.103621
0.108478
0.0752946
0.0744885
0.0686716
0.0766176
0.12148
0.102953
0.0725762
0.0738451
0.0723105
0.073711
0.107618
0.122404
0.0755425
0.0677582
0.0685033
0.0713557
0.104784
0.11484
0.0735269
0.0648723
0.0690064
0.0681599
0.0989576
0.103785
0.0698182
0.0676538
0.0645643
0.0736143
0.116966
0.100346
0.066089
0.0647371
0.0623096
0.0713966
0.111203
0.0957791
0.0647791
0.0640545
0.0625419
0.0646241
0.100221
0.111084
0.0718573
0.0612821
0.0613623
0.0635742
0.0959195
0.102333
0.0640057
0.0606536
0.0602387
0.0731452
0.115161
0.0986344
0.0608308
0.060171
0.0587317
0.0702819
0.110166
0.0950872
0.05917
0.0599321
0.0578502
0.0662404
0.105768
0.0909983
0.0598197
0.059492
0.0574024
0.0599618
0.0958843
0.108133
0.0705897
0.0579229
0.0573639
0.0582502
0.0942821
0.105036
0.0663425
0.05631
0.0572805
0.0587677
0.0901434
0.0950432
0.0591027
0.0549313
0.056769
0.0710194
0.108054
0.0935197
0.0559536
0.0540007
0.0545581
0.0672081
0.104991
0.0897671
0.0536347
0.0537537
0.0533362
0.0639404
0.0993723
0.0859079
0.0556533
0.0543833
0.0524409
0.0562604
0.0917833
0.103383
0.0695912
0.0544996
0.051738
0.0527676
0.0893321
0.100619
0.0658429
0.0525895
0.0519441
0.052173
0.0868367
0.0970055
0.0615749
0.0516803
0.0527121
0.0538143
0.0848952
0.0901668
0.0548151
0.0506488
0.0532213
0.0681664
0.102136
0.0877408
0.0519133
0.0499845
0.0511638
0.0645671
0.0997032
0.0858039
0.049822
0.0494298
0.0500255
0.0615244
0.0955422
0.0826511
0.0520156
0.050463
0.0485454
0.0530701
0.0876326
0.0998726
0.0672113
0.0515832
0.0482061
0.0506001
0.0859504
0.097885
0.0636589
0.0497917
0.0479138
0.0479197
0.0842938
0.0938455
0.0619452
0.0491203
0.0478768
0.0481794
0.0814729
0.0906758
0.0596951
0.0485529
0.0487517
0.0500541
0.0790098
0.0845569
0.0518763
0.0471457
0.0503496
0.0661856
0.0964415
0.0839147
0.049028
0.0471324
0.0487939
0.0620494
0.0956325
0.0827012
0.0475519
0.0466021
0.048149
0.0603503
0.0929937
0.0807889
0.0466315
0.0463019
0.0477204
0.0596103
0.0908141
0.0791905
0.0465792
0.0461061
0.0469232
0.0580994
0.0878297
0.0762527
0.048181
0.0467549
0.0450822
0.0493342
0.0815408
0.092207
0.064618
0.0484539
0.0452819
0.0470199
0.0808618
0.0917697
0.0602176
0.0472373
0.0449207
0.045877
0.079349
0.0887348
0.058539
0.0465792
0.0445314
0.0451278
0.0773751
0.0866692
0.0576422
0.0460918
0.044379
0.0449907
0.0759162
0.0841971
0.0570403
0.0455542
0.04517
0.0466383
0.0734984
0.0785834
0.0483335
0.0437225
0.0473135
0.0626157
0.0894201
0.0783009
0.0460238
0.0440733
0.0461911
0.0588675
0.0890936
0.0774206
0.044645
0.0433672
0.0454703
0.0575284
0.0872113
0.0759239
0.0439363
0.0429232
0.0448124
0.0565618
0.0849627
0.0744581
0.0435526
0.042619
0.0440279
0.0560296
0.0824463
0.0717041
0.0450663
0.043431
0.0420162
0.0464594
0.0767295
0.0868784
0.0619207
0.0457501
0.0425505
0.0443905
0.0766928
0.0869841
0.0573329
0.0448142
0.0419068
0.0430074
0.0755179
0.0847051
0.055695
0.0440316
0.0414178
0.0423188
0.0738216
0.0823213
0.0549279
0.0434377
0.0412278
0.0421779
0.072212
0.0799096
0.0544702
0.0427668
0.0418994
0.0436216
0.0695772
0.0746538
0.0454785
0.0407578
0.0446388
0.0605886
0.0849031
0.0746477
0.0437036
0.0413719
0.0438311
0.0568791
0.0849176
0.073517
0.0412819
0.0406916
0.0429146
0.0549072
0.0819941
0.0718531
0.0410581
0.0401923
0.0424407
0.0543231
0.080201
0.0702581
0.0412753
0.039945
0.0416863
0.0537323
0.0780569
0.0683999
0.042605
0.0406526
0.0394103
0.044101
0.0730091
0.0829435
0.058669
0.0436092
0.0401296
0.0428022
0.0719062
0.0822611
0.0552666
0.0426767
0.0396076
0.0407887
0.0712454
0.079953
0.0535647
0.041961
0.0392561
0.0403279
0.0696081
0.0775693
0.0528404
0.0415306
0.0390348
0.0403336
0.0676166
0.0750837
0.0520862
0.0407309
0.0394455
0.0413789
0.0656084
0.0702971
0.0432173
0.0384458
0.0426098
0.0573591
0.0802722
0.0710519
0.0418086
0.0394256
0.0419278
0.0539687
0.0806254
0.0695315
0.0400729
0.0387899
0.0411021
0.0524427
0.077591
0.0671547
0.0396411
0.0382849
0.0400723
0.0512933
0.0745505
0.0653147
0.0404994
0.0385344
0.0374405
0.0419077
0.070076
0.0795355
0.0567223
0.041803
0.038475
0.0409266
0.0699471
0.0789038
0.0528481
0.0410238
0.037931
0.039041
0.0680517
0.0752907
0.0509401
0.040145
0.0373483
0.0384652
0.0653811
0.072533
0.0502085
0.0391971
0.0376609
0.0396913
0.0634597
0.0684533
0.0415539
0.0368849
0.041265
0.0561852
0.0771563
0.067739
0.0398907
0.0378083
0.0402135
0.051897
0.0760083
0.0656411
0.0380162
0.0371368
0.0389861
0.0500364
0.0725978
0.0633708
0.0390853
0.0372717
0.0363229
0.0409044
0.0681416
0.0772621
0.0551498
0.0410437
0.0372004
0.0398898
0.0672762
0.0757018
0.0512406
0.0398595
0.0366177
0.0377092
0.0646482
0.0717121
0.0491976
0.0385012
0.0365797
0.0384302
0.0624717
0.067451
0.0402452
0.0357332
0.0404886
0.0547799
0.0764481
0.0667127
0.0391346
0.036649
0.0394682
0.0507836
0.074535
0.0639602
0.0370703
0.0360657
0.0378921
0.0485544
0.070696
0.0612828
0.0377663
0.0359255
0.0350414
0.0392996
0.0663116
0.074687
0.053799
0.0397243
0.0358868
0.0386456
0.0649604
0.072663
0.0495328
0.0382002
0.0356627
0.0376385
0.0621258
0.0662118
0.0386247
0.0344119
0.039521
0.0537615
0.0747244
0.0649657
0.0381474
0.0352226
0.0379941
0.0494234
0.0730163
0.0624316
0.0371466
0.0350668
0.0340276
0.0385388
0.0668564
0.0743301
0.0528266
0.0388878
0.0344386
0.0369644
0.0632563
0.0714457
0.0488664
0.0374166
0.0344168
0.0366977
0.0617676
0.0668726
0.0381991
0.0336619
0.0387092
0.053332
0.0741219
0.0629666
0.0367728
0.0341602
0.0365966
0.04769
0.0699323
0.059702
0.0355817
0.0335164
0.0326433
0.0367352
0.0646154
0.0726396
0.0515301
0.0372216
0.0334486
0.036979
0.0621118
0.0664286
0.0371087
0.0325688
0.0372074
0.0519791
0.0732826
0.0619312
0.036293
0.0328008
0.0320677
0.0370203
0.0671252
0.0753557
0.0526053
0.0374268
0.0327471
0.0366116
0.0637359
0.0667008
0.0364246
0.0316618
0.0372733
0.0520021
0.0750394
0.0631414
0.0360262
0.0321372
0.0313739
0.0367243
0.0678939
0.0761244
0.0522308
0.0370893
0.0317008
0.0355863
0.0619701
0.0655345
0.0356271
0.0306303
0.0364857
0.0518178
0.0741978
0.0627321
0.0355814
0.0312885
0.0304304
0.0353352
0.0665351
0.0736899
0.0505893
0.0357045
0.0303781
0.0342474
0.0609486
0.0659522
0.0367431
0.02968
0.0291015
0.0367458
0.0701449
0.0777708
0.0529345
0.0362999
0.0300499
0.0345783
0.0635814
0.0689581
0.0353174
0.0291874
0.0282338
0.03613
0.0719629
0.0778588
0.0402971
0.0281801
0.0272103
0.0372036
0.0815699
0.0874719
0.0425426
0.0278262
0.0269459
0.0381107
0.0901066
0.0982083
0.0618966
0.0387059
0.0301231
0.0377295
0.07738
0.0856195
0.04035
0.0308967
0.031665
0.0443253
0.0948501
0.101576
0.0475422
0.0324626
0.0330431
0.0504045
0.106911
0.110679
0.0530096
0.033592
0.0341239
0.0555703
0.113007
0.114631
0.0581365
0.0347792
0.0355555
0.0607322
0.115671
0.116313
0.0635511
0.0364305
0.037487
0.0662938
0.116625
0.11672
0.0692987
0.0386028
0.0400096
0.0721787
0.116681
0.116574
0.0750908
0.0413701
0.0430442
0.0777686
0.11642
0.116247
0.0802571
0.0448446
0.0469521
0.0824755
0.116059
0.11586
0.0846052
0.0490192
0.0511561
0.0866848
0.115665
0.115484
0.0887039
0.0532468
0.0554021
0.0906734
0.115328
0.115197
0.0925806
0.0574972
0.0596616
0.0944368
0.115099
0.11503
0.0962263
0.0617427
0.0638954
0.0979635
0.114996
0.114991
0.0996362
0.0659425
0.0680002
0.101258
0.115019
0.115078
0.102814
0.0699545
0.0719134
0.104314
0.115165
0.115273
0.105739
0.0737654
0.0756234
0.107099
0.115401
0.115543
0.108382
0.0773734
0.0791214
0.109599
0.115693
0.11585
0.110732
0.0807539
0.0823818
0.111785
0.116004
0.116159
0.112775
0.0838896
0.0853889
0.113688
0.116306
0.116446
0.114522
0.0867622
0.0881266
0.11528
0.116571
0.116686
0.115969
0.0893642
0.0905894
0.116588
0.116781
0.116865
0.11714
0.0916874
0.0927744
0.117623
0.116925
0.116974
0.11805
0.0937385
0.0946892
0.118414
0.117
0.117015
0.118729
0.0955227
0.0963432
0.118983
0.117006
0.11699
0.119198
0.0970528
0.0977443
0.119362
0.116951
0.116906
0.119489
0.0983406
0.0989152
0.119571
0.116838
0.116771
0.119623
0.0994166
0.0998835
0.119644
0.116676
0.116594
0.119631
0.100296
0.100679
0.119595
0.116476
0.116378
0.11953
0.101013
0.101331
0.119451
0.116246
0.116136
0.119342
0.101584
0.101848
0.119226
0.115991
0.115872
0.119084
0.102035
0.10225
0.118939
0.115718
0.115593
0.118775
0.102387
0.102554
0.118605
0.115433
0.115306
0.118425
0.102653
0.102781
0.118239
0.115142
0.115015
0.11805
0.10285
0.102945
0.11785
0.11485
0.114724
0.117654
0.102991
0.103061
0.117446
0.11456
0.114438
0.117246
0.103091
0.103135
0.117028
0.114276
0.114157
0.116827
0.103153
0.103176
0.116605
0.113997
0.113883
0.116411
0.103187
0.103189
0.116179
0.113732
0.113617
0.115991
0.103194
0.103179
0.115764
0.113476
0.113365
0.115586
0.103182
0.103141
0.11536
0.113235
0.113123
0.115191
0.103126
0.103062
0.114971
0.113005
0.112897
0.114805
0.103035
0.102953
0.114588
0.112786
0.112679
0.114422
0.102918
0.102829
0.114209
0.112571
0.112473
0.114047
0.102787
0.102691
0.113833
0.112365
0.112273
0.113674
0.102645
0.102549
0.113467
0.112168
0.112084
0.113311
0.1025
0.102404
0.113109
0.111981
0.111902
0.112955
0.102351
0.10226
0.112762
0.111801
0.11173
0.112612
0.102206
0.102116
0.112425
0.111631
0.111565
0.112279
0.10206
0.101976
0.112102
0.111471
0.11141
0.111961
0.101918
0.101835
0.111791
0.111321
0.111263
0.111654
0.101775
0.101697
0.111494
0.111181
0.111127
0.111363
0.101636
0.101559
0.11121
0.11105
0.110998
0.111081
0.101494
0.101421
0.110937
0.110927
0.110879
0.110812
0.101355
0.101281
0.110674
0.110813
0.110766
0.110551
0.101212
0.10114
0.11042
0.110706
0.110663
0.1103
0.101071
0.100996
0.110175
0.110606
0.110564
0.110054
0.100924
0.10085
0.109936
0.11051
0.110472
0.109818
0.100775
0.100697
0.1097
0.11042
0.110384
0.109584
0.100621
0.100541
0.109467
0.110333
0.1103
0.109356
0.100462
0.10038
0.109239
0.110252
0.110219
0.109129
0.100299
0.100214
0.109014
0.110173
0.110142
0.108906
0.10013
0.100042
0.108791
0.110097
0.110067
0.108685
0.0999565
0.0998663
0.10857
0.110023
0.109995
0.108466
0.0997783
0.0996851
0.108352
0.109952
0.109923
0.108247
0.0995947
0.0995002
0.108136
0.109882
0.109855
0.108032
0.0994073
0.0993082
0.107919
0.109814
0.109787
0.107815
0.0992145
0.0991149
0.107706
0.109746
0.109721
0.107604
0.0990185
0.0989143
0.107491
0.109681
0.109656
0.107391
0.0988164
0.0987113
0.10728
0.109617
0.109592
0.10718
0.0986124
0.098504
0.107069
0.109553
0.109528
0.10697
0.0984036
0.0982935
0.10686
0.109491
0.109467
0.106761
0.0981927
0.0980796
0.106653
0.10943
0.109405
0.106554
0.0979789
0.0978654
0.106448
0.109369
0.109346
0.10635
0.097763
0.0976457
0.106244
0.10931
0.109286
0.106146
0.0975442
0.0974281
0.106042
0.109251
0.109228
0.105946
0.0973253
0.0972056
0.105842
0.109193
0.10917
0.105747
0.097104
0.0969864
0.105645
0.109136
0.109114
0.105552
0.096884
0.0967639
0.105451
0.109081
0.109058
0.105358
0.0966616
0.0965417
0.105258
0.109025
0.109004
0.105167
0.0964404
0.096319
0.105068
0.108971
0.10895
0.104977
0.0962186
0.0960989
0.104881
0.108918
0.108897
0.104792
0.0959981
0.0958772
0.104697
0.108866
0.108845
0.10461
0.0957776
0.0956584
0.104517
0.108816
0.108795
0.104431
0.0955599
0.0954402
0.10434
0.108766
0.108746
0.104254
0.0953431
0.0952256
0.104165
0.108717
0.108698
0.104082
0.0951282
0.0950093
0.103994
0.10867
0.10865
0.103912
0.0949135
0.094797
0.103826
0.108623
0.108604
0.103746
0.0947026
0.0945865
0.103662
0.108577
0.108558
0.103583
0.094493
0.0943784
0.1035
0.108533
0.108515
0.103424
0.0942865
0.0941726
0.103343
0.10849
0.108471
0.103267
0.0940818
0.093968
0.103194
0.108448
0.108431
0.103118
0.0938796
0.0937681
0.103042
0.108408
0.108391
0.102962
0.0936823
0.0935749
0.102887
0.108366
0.10835
0.102817
0.0934876
0.0933775
0.102744
0.108327
0.108311
0.102675
0.0932933
0.0931878
0.102604
0.108288
0.108273
0.102537
0.0931036
0.0929971
0.102467
0.108252
0.108237
0.1024
0.0929159
0.0928135
0.102332
0.108215
0.108201
0.102268
0.0927323
0.0926292
0.102201
0.10818
0.108166
0.102138
0.092551
0.092452
0.102073
0.108146
0.108132
0.102011
0.0923737
0.092274
0.101948
0.108113
0.108099
0.101887
0.0921987
0.092103
0.101825
0.10808
0.108067
0.101767
0.0920276
0.0919315
0.101707
0.108049
0.108036
0.101649
0.0918589
0.091767
0.10159
0.108018
0.108006
0.101535
0.0916938
0.0916021
0.101477
0.107988
0.107976
0.101422
0.0915313
0.091444
0.101367
0.107959
0.107948
0.101314
0.0913726
0.0912853
0.10126
0.107932
0.10792
0.101207
0.0912165
0.0911332
0.101154
0.107904
0.107893
0.101105
0.0910651
0.0909826
0.101053
0.107878
0.107867
0.101003
0.0909121
0.0908339
0.100953
0.107852
0.107841
0.100905
0.0907662
0.0906872
0.100855
0.107827
0.107817
0.100808
0.0906219
0.0905467
0.10076
0.107802
0.107792
0.100715
0.0904823
0.0904072
0.100668
0.107779
0.107769
0.100622
0.090341
0.0902691
0.100577
0.107756
0.107746
0.100533
0.0902079
0.0901346
0.100489
0.107734
0.107724
0.100446
0.0900738
0.0900031
0.100402
0.107711
0.107702
0.10036
0.0899424
0.0898753
0.100318
0.10769
0.107681
0.100276
0.0898119
0.0897485
0.100235
0.107669
0.10766
0.100195
0.0896882
0.089623
0.100154
0.107649
0.10764
0.100115
0.0895654
0.0895038
0.100076
0.107629
0.107621
0.100038
0.0894467
0.0893827
0.0999996
0.10761
0.107601
0.0999622
0.0893293
0.0892672
0.099925
0.107591
0.107583
0.0998888
0.0892142
0.0891546
0.0998528
0.107573
0.107565
0.0998171
0.0891009
0.0890456
0.0997822
0.107555
0.107548
0.0997478
0.0889918
0.0889355
0.0997136
0.107538
0.10753
0.0996802
0.088887
0.0888287
0.0996465
0.107521
0.107514
0.099614
0.0887814
0.0887251
0.0995813
0.107505
0.107498
0.0995495
0.0886781
0.0886239
0.0995175
0.107488
0.107482
0.0994866
0.0885771
0.0885261
0.0994562
0.107473
0.107467
0.0994247
0.0884767
0.0884287
0.0993949
0.107458
0.107452
0.0993658
0.0883834
0.0883353
0.0993371
0.107443
0.107437
0.0993072
0.0882872
0.0882424
0.099279
0.107429
0.107423
0.0992514
0.0881974
0.0881505
0.0992236
0.107415
0.10741
0.0991958
0.0881078
0.0880647
0.0991694
0.107402
0.107396
0.0991432
0.0880215
0.0879766
0.099117
0.107389
0.107383
0.0990907
0.0879357
0.0878948
0.0990657
0.107376
0.107371
0.0990409
0.0878535
0.0878106
0.0990161
0.107364
0.107359
0.0989911
0.0877716
0.0877328
0.0989675
0.107352
0.107347
0.0989441
0.0876933
0.0876525
0.0989206
0.10734
0.107335
0.0988969
0.0876154
0.0875787
0.0988747
0.107329
0.107324
0.0988526
0.087541
0.0875021
0.0988304
0.107318
0.107313
0.098808
0.0874668
0.087432
0.0987871
0.107307
0.107303
0.0987662
0.0873961
0.0873591
0.0987453
0.107297
0.107293
0.0987242
0.0873256
0.0872926
0.0987045
0.107286
0.107283
0.0986848
0.0872585
0.0872231
0.0986651
0.107277
0.107273
0.0986452
0.0871917
0.0871599
0.0986266
0.107267
0.107264
0.0986086
0.0871281
0.0870933
0.0985891
0.107258
0.107255
0.0985713
0.0870656
0.0870319
0.098553
0.107249
0.107246
0.0985357
0.0870039
0.0869727
0.0985186
0.107241
0.107238
0.0985007
0.0869427
0.0869165
0.0984844
0.107232
0.107229
0.0984675
0.0868842
0.0868584
0.0984517
0.107224
0.107221
0.0984352
0.0868282
0.0868013
0.0984197
0.107217
0.107214
0.0984044
0.086775
0.0867476
0.0983895
0.107209
0.107207
0.0983732
0.0867188
0.086694
0.0983585
0.107202
0.107199
0.0983444
0.0866682
0.0866398
0.0983291
0.107195
0.107192
0.0983152
0.0866181
0.08659
0.0983009
0.107188
0.107186
0.0982875
0.0865689
0.0865411
0.0982736
0.107182
0.107179
0.0982605
0.0865205
0.0864935
0.098247
0.107175
0.107173
0.0982344
0.0864735
0.086447
0.0982214
0.107169
0.107167
0.0982091
0.0864274
0.0864018
0.0981964
0.107163
0.107161
0.0981846
0.0863827
0.0863578
0.0981722
0.107157
0.107155
0.0981606
0.0863389
0.086315
0.0981488
0.107152
0.10715
0.0981376
0.0862963
0.0862735
0.0981261
0.107147
0.107145
0.0981151
0.0862546
0.0862332
0.098104
0.107141
0.10714
0.0980935
0.0862138
0.0861942
0.0980827
0.107136
0.107135
0.0980722
0.0861736
0.0861544
0.0980615
0.107131
0.10713
0.0980516
0.0861368
0.0861172
0.0980414
0.107127
0.107125
0.0980316
0.0860988
0.0860789
0.0980214
0.107122
0.107121
0.0980121
0.086064
0.0860429
0.0980024
0.107118
0.107116
0.0979931
0.0860282
0.0860076
0.0979837
0.107113
0.107112
0.0979748
0.0859935
0.0859734
0.0979655
0.107109
0.107107
0.0979566
0.0859594
0.0859397
0.0979475
0.107105
0.107103
0.0979391
0.0859262
0.0859068
0.0979301
0.1071
0.107099
0.0979217
0.0858934
0.0858748
0.097913
0.107096
0.107095
0.0979049
0.0858614
0.0858442
0.0978967
0.107092
0.107091
0.097888
0.085829
0.0858154
0.0978802
0.107088
0.107087
0.0978723
0.0857989
0.0857825
0.0978642
0.107085
0.107084
0.0978558
0.0857679
0.085755
0.0978483
0.107081
0.10708
0.0978407
0.0857393
0.0857233
0.0978328
0.107077
0.107076
0.0978246
0.0857095
0.0856969
0.0978173
0.107073
0.107072
0.0978099
0.0856819
0.0856662
0.0978022
0.107069
0.107068
0.0977942
0.085653
0.0856405
0.097787
0.107065
0.107064
0.0977798
0.0856262
0.08561
0.0977717
0.107061
0.10706
0.0977642
0.0855988
0.0855829
0.0977566
0.107057
0.107056
0.0977492
0.085572
0.0855563
0.0977416
0.107053
0.107052
0.0977337
0.0855446
0.0855308
0.0977263
0.107049
0.107047
0.0977188
0.0855193
0.0855027
0.0977106
0.107044
0.107042
0.0977034
0.0854916
0.0854709
0.0976999
0.10704
0.107038
0.097685
0.0854635
0.085451
0.0976772
0.107034
0.107032
0.0976685
0.085434
0.0854227
0.0976604
0.107028
0.107027
0.0976519
0.0854079
0.085393
0.0976434
0.107023
0.107021
0.0976344
0.0853794
0.0853677
0.0976261
0.107017
0.107016
0.0976172
0.0853527
0.0853375
0.0976084
0.107012
0.10701
0.0975993
0.085324
0.0853122
0.0975911
0.107007
0.107005
0.0975823
0.0852973
0.0852824
0.0975736
0.107002
0.107001
0.0975646
0.085269
0.0852578
0.0975571
0.106998
0.106997
0.0975489
0.0852433
0.0852289
0.0975409
0.106994
0.106994
0.0975333
0.0852173
0.0852027
0.0975258
0.106991
0.106991
0.097519
0.0851925
0.0851787
0.0975119
0.106989
0.106988
0.097505
0.0851684
0.0851548
0.0974979
0.106986
0.106984
0.097491
0.0851443
0.0851292
0.0974831
0.106982
0.106977
0.0974753
0.085121
0.0851033
0.0974654
0.106976
0.106953
0.0974489
0.0850902
0.0850757
0.0974461
0.106952
0.106925
0.0974175
0.085061
0.0850371
0.0973901
0.106932
0.106882
0.0972783
0.084913
0.0844797
0.0968817
0.106858
0.106614
0.0960975
0.0837862
0.0832089
0.0955428
0.106497
0.0743743
0.0652852
0.061686
0.0613206
0.0629849
0.0667293
0.0690294
0.0702764
0.0733697
0.0760295
0.0772575
0.078234
0.0790185
0.0795738
0.0799418
0.0801345
0.0801919
0.0801479
0.0800349
0.079879
0.0796998
0.0795117
0.0793243
0.0791439
0.0789742
0.0788171
0.0786733
0.0785427
0.0784247
0.0783184
0.0782229
0.0781371
0.0780602
0.0779912
0.0779293
0.0778737