/*--------------------------------*- C++ -*----------------------------------*\
| =========                 |                                                 |
| \\      /  F ield         | OpenFOAM: The Open Source CFD Toolbox           |
|  \\    /   O peration     | Version:  v2006                                 |
|   \\  /    A nd           | Website:  www.openfoam.com                      |
|    \\/     M anipulation  |                                                 |
\*---------------------------------------------------------------------------*/
FoamFile
{
    version     2.0;
    format      ascii;
    class       volScalarField;
    location    "0.053";
    object      turbulenceProperties:L;
}
// * * * * * * * * * * * * * * * * * * * * * * * * * * * * * * * * * * * * * //

dimensions      [0 1 0 0 0 0 0];


internalField   nonuniform List<scalar> 
16277
(
1998.77
1998.76
1999.14
1999.26
1999.6
1999.51
1999.49
1999.29
1998.81
1998.12
1997.37
1996.68
1996.08
1995.58
1995.13
1994.72
1994.32
1993.93
1993.54
1993.17
1992.81
1992.45
1992.11
1991.77
1991.44
1991.12
1990.8
1990.49
1990.19
1989.89
1989.59
1989.31
1989.03
1988.75
1988.49
1988.23
1987.98
1987.74
1987.51
1987.29
1987.08
1986.88
1986.69
1986.52
1986.36
1986.21
1986.07
1985.95
1985.85
1985.76
1985.69
1985.63
1985.59
1985.57
1985.57
1985.58
1985.62
1985.67
1985.75
1985.84
1985.95
1986.06
1986.18
1986.25
1986.18
1985.75
1984.4
1980.76
1971.2
1947.5
1896.7
1794.44
1607.78
1316.4
954.756
611.934
356.474
195.396
103.489
54.2307
28.4253
15.2732
9.12594
7.01429
5.13176
4.27756
3.52509
1.9353
1.11814
0.88607
0.988407
0.374177
0.121355
0.032075
0.0037253
0.000676235
4.70418e-05
4.51109e-05
0.000325013
0.00146002
0.000819234
0.000221171
4.31575e-05
4.18663e-05
0.000207442
0.000698859
0.000573419
0.000187014
4.15217e-05
4.10403e-05
0.000185002
0.000550565
0.000489887
0.000173553
4.07296e-05
4.03716e-05
0.000173034
0.000482192
0.000449741
0.000166466
4.01594e-05
4.00757e-05
0.000168994
0.00044878
0.0004286
0.000163765
3.99809e-05
3.99174e-05
0.000166281
0.000428799
0.00041356
0.000161754
3.98364e-05
3.97865e-05
0.000164001
0.000414579
0.000401806
0.000159924
3.97153e-05
3.96745e-05
0.000161965
0.000403229
0.000391935
0.000158198
3.96113e-05
3.95762e-05
0.000160129
0.000393602
0.000383336
0.000156562
3.95184e-05
3.94872e-05
0.000158432
0.00038515
0.000375644
0.00015499
3.94332e-05
3.94049e-05
0.000156802
0.000377548
0.00036864
0.000153467
3.93535e-05
3.93271e-05
0.000155237
0.000370605
0.000362204
0.000152004
3.92775e-05
3.92524e-05
0.000153744
0.000364216
0.000356242
0.000150607
3.92039e-05
3.91797e-05
0.000152326
0.000358304
0.000350689
0.000149278
3.91319e-05
3.91083e-05
0.000150978
0.000352808
0.000345518
0.000148014
3.90609e-05
3.90376e-05
0.000149698
0.000347689
0.000340693
0.00014681
3.89903e-05
3.89671e-05
0.000148481
0.000342911
0.000336183
0.000145666
3.89197e-05
3.88965e-05
0.000147326
0.000338443
0.000331962
0.000144581
3.88488e-05
3.88254e-05
0.000146233
0.000334257
0.000327998
0.000143554
3.87773e-05
3.87537e-05
0.000145197
0.000330319
0.00032426
0.000142578
3.8705e-05
3.8681e-05
0.000144213
0.000326598
0.000320719
0.00014165
3.86316e-05
3.86071e-05
0.000143278
0.000323071
0.000317355
0.000140766
3.85568e-05
3.85317e-05
0.000142386
0.000319714
0.000314146
0.000139922
3.84803e-05
3.84545e-05
0.000141532
0.00031651
0.000311075
0.000139111
3.84018e-05
3.83752e-05
0.000140713
0.000313438
0.000308126
0.000138331
3.8321e-05
3.82935e-05
0.000139925
0.000310486
0.000305286
0.000137579
3.82375e-05
3.82089e-05
0.000139163
0.00030764
0.000302543
0.00013685
3.8151e-05
3.8121e-05
0.000138426
0.00030489
0.000299888
0.000136143
3.8061e-05
3.80296e-05
0.000137711
0.000302226
0.000297314
0.000135455
3.79672e-05
3.79342e-05
0.000137016
0.000299643
0.000294815
0.000134787
3.78691e-05
3.78344e-05
0.000136341
0.000297137
0.000292391
0.000134138
3.77664e-05
3.77298e-05
0.000135686
0.000294706
0.000290039
0.000133507
3.76585e-05
3.76199e-05
0.000135056
0.000292351
0.000287762
0.000132899
3.75452e-05
3.75045e-05
0.000134462
0.000290076
0.000285566
0.000132318
3.7426e-05
3.73832e-05
0.000133892
0.000287885
0.000283455
0.00013176
3.73008e-05
3.72558e-05
0.000133351
0.000285783
0.000281435
0.000131233
3.71693e-05
3.71221e-05
0.000132848
0.000283781
0.000279519
0.000130744
3.70314e-05
3.69821e-05
0.000132389
0.000281892
0.000277724
0.000130302
3.68873e-05
3.68361e-05
0.000131986
0.000280138
0.000276075
0.000129917
3.67372e-05
3.66846e-05
0.000131652
0.000278584
0.000274616
0.000129607
3.65821e-05
3.65287e-05
0.000131406
0.000277265
0.000273379
0.000129389
3.64232e-05
3.63699e-05
0.000131266
0.000276185
0.000272396
0.000129284
3.62623e-05
3.62104e-05
0.000131256
0.000275405
0.000271731
0.000129317
3.61021e-05
3.60532e-05
0.000131405
0.000274995
0.000271459
0.000129518
3.59461e-05
3.59025e-05
0.000131743
0.000275032
0.000271658
0.000129925
3.57986e-05
3.57634e-05
0.00013228
0.000275597
0.000272418
0.000130558
3.56662e-05
3.56413e-05
0.000132967
0.000276744
0.000273772
0.000131339
3.55568e-05
3.55426e-05
0.000133827
0.000278613
0.000275848
0.000132313
3.54742e-05
3.54723e-05
0.000134872
0.0002812
0.000278625
0.000133478
3.54268e-05
3.54349e-05
0.000136073
0.000284444
0.00028205
0.000134803
3.54212e-05
3.54331e-05
0.000137375
0.000288221
0.000285976
0.000136177
3.54273e-05
3.54678e-05
0.000138698
0.000292477
0.000290363
0.000137506
3.54742e-05
3.55354e-05
0.000139925
0.000297092
0.00029504
0.000138745
3.5554e-05
3.56317e-05
0.000140946
0.000301677
0.000299589
0.000139769
3.56588e-05
3.57466e-05
0.000141752
0.000305923
0.000303736
0.000140493
3.57793e-05
3.58728e-05
0.000142399
0.000309674
0.000307375
0.000140976
3.59092e-05
3.60057e-05
0.000142804
0.000312842
0.000310433
0.000141282
3.6044e-05
3.61408e-05
0.000143007
0.000315384
0.000312855
0.000141326
3.61792e-05
3.62736e-05
0.000142984
0.000317298
0.00031459
0.000141162
3.63107e-05
3.64007e-05
0.000142759
0.000318569
0.000315614
0.00014082
3.64355e-05
3.65195e-05
0.000142352
0.000319406
0.000316051
0.000140337
3.65512e-05
3.66281e-05
0.000141813
0.000319583
0.000315836
0.000139668
3.66563e-05
3.67254e-05
0.000141167
0.000319115
0.000314768
0.000138811
3.67499e-05
3.68107e-05
0.00014031
0.000317946
0.00031326
0.000137884
3.68311e-05
3.68833e-05
0.000139386
0.000316346
0.000311444
0.000136935
3.68997e-05
3.69435e-05
0.000138439
0.000314423
0.000309376
0.000136
3.69559e-05
3.69919e-05
0.000137498
0.000312241
0.000307127
0.000135104
3.70007e-05
3.70296e-05
0.000136592
0.00030988
0.000304772
0.000134267
3.70351e-05
3.70578e-05
0.00013574
0.000307421
0.000302371
0.000133495
3.70605e-05
3.70779e-05
0.000134948
0.000304916
0.00029997
0.000132791
3.70783e-05
3.70907e-05
0.000134219
0.000302425
0.000297597
0.000132149
3.70895e-05
3.70981e-05
0.000133549
0.000300001
0.000295303
0.000131563
3.70957e-05
3.71011e-05
0.000132934
0.000297663
0.000293105
0.000131028
3.70978e-05
3.71013e-05
0.000132372
0.000295445
0.000291002
0.000130521
3.70963e-05
3.70986e-05
0.000131851
0.000293332
0.000288991
0.000130031
3.70913e-05
3.70931e-05
0.000131366
0.000291313
0.000287072
0.000129581
3.70843e-05
3.70857e-05
0.000130921
0.000289386
0.000285238
0.000129164
3.70757e-05
3.70768e-05
0.000130505
0.000287544
0.000283481
0.000128769
3.70659e-05
3.70667e-05
0.000130107
0.000285777
0.00028177
0.000128388
3.7055e-05
3.70557e-05
0.00012972
0.000284068
0.0002801
0.000128015
3.70433e-05
3.70438e-05
0.000129341
0.000282412
0.000278488
0.000127648
3.70308e-05
3.70312e-05
0.00012897
0.000280812
0.000276932
0.000127287
3.70179e-05
3.70182e-05
0.000128608
0.000279267
0.00027543
0.000126933
3.69968e-05
3.70128e-05
0.000128267
0.000277794
0.000273793
0.000126575
3.69756e-05
3.69994e-05
0.000127803
0.000276449
0.00027259
0.000125901
3.69318e-05
3.71168e-05
0.000128102
0.000276631
0.000274138
0.000127995
3.72229e-05
3.77419e-05
0.000128382
0.000277325
0.000290702
0.000134785
3.84467e-05
4.11145e-05
0.000127561
0.000283184
0.000420854
0.000235612
4.70794e-05
4.18584e-05
9.89388e-05
0.000220325
0.000497231
0.00104745
0.00181632
0.00244923
0.00284776
0.00358546
0.00402902
0.00441522
0.00461616
0.00469691
0.00464207
0.00443593
0.00416158
0.00372751
0.00331052
0.00266392
0.00237929
0.00181489
0.00142325
0.00102164
0.000619169
0.000299951
0.000116216
5.02299e-05
1.28672e-05
1.18226e-05
4.63095e-05
0.000105585
9.97365e-05
4.38323e-05
1.10147e-05
1.04042e-05
4.2013e-05
9.47319e-05
9.46655e-05
4.16761e-05
1.02045e-05
1.0087e-05
4.14034e-05
9.31935e-05
9.30759e-05
4.09985e-05
9.96364e-06
9.95346e-06
4.09214e-05
9.28467e-05
9.30251e-05
4.09503e-05
9.96319e-06
9.96165e-06
4.09551e-05
9.31237e-05
9.31932e-05
4.09785e-05
9.97324e-06
9.97881e-06
4.10081e-05
9.33549e-05
9.34269e-05
4.10296e-05
9.98479e-06
9.99689e-06
4.10669e-05
9.35936e-05
9.36929e-05
4.10859e-05
9.99176e-06
1.00044e-05
4.11349e-05
9.38594e-05
9.39599e-05
4.11569e-05
1.00107e-05
1.00237e-05
4.11996e-05
9.41305e-05
9.42272e-05
4.12199e-05
1.00246e-05
1.00264e-05
4.1278e-05
9.44196e-05
9.45091e-05
4.12951e-05
1.00446e-05
1.00465e-05
4.13496e-05
9.47059e-05
9.47969e-05
4.13665e-05
1.00537e-05
1.00554e-05
4.14307e-05
9.50016e-05
9.50939e-05
4.14478e-05
1.00741e-05
1.0076e-05
4.15045e-05
9.52991e-05
9.53945e-05
4.15237e-05
1.00837e-05
1.00855e-05
4.15902e-05
9.56113e-05
9.57094e-05
4.16107e-05
1.01046e-05
1.01067e-05
4.16705e-05
9.59208e-05
9.60184e-05
4.16915e-05
1.01147e-05
1.01167e-05
4.17562e-05
9.6238e-05
9.63385e-05
4.17816e-05
1.01362e-05
1.01384e-05
4.18397e-05
9.65545e-05
9.66552e-05
4.18627e-05
1.01465e-05
1.0149e-05
4.19337e-05
9.68793e-05
9.69801e-05
4.19572e-05
1.01629e-05
1.01772e-05
4.20137e-05
9.72027e-05
9.73052e-05
4.20456e-05
1.01795e-05
1.01825e-05
4.21138e-05
9.75279e-05
9.76286e-05
4.21399e-05
1.01963e-05
1.02109e-05
4.21985e-05
9.78512e-05
9.79544e-05
4.22284e-05
1.02132e-05
1.02164e-05
4.22996e-05
9.81807e-05
9.82809e-05
4.23244e-05
1.02301e-05
1.0245e-05
4.23852e-05
9.85003e-05
9.86015e-05
4.2413e-05
1.02475e-05
1.02512e-05
4.24884e-05
9.88288e-05
9.89282e-05
4.25129e-05
1.02651e-05
1.02801e-05
4.25765e-05
9.91417e-05
9.92374e-05
4.25998e-05
1.02825e-05
1.02861e-05
4.26752e-05
9.9452e-05
9.95448e-05
4.26973e-05
1.03e-05
1.0315e-05
4.27612e-05
9.97501e-05
9.98338e-05
4.27766e-05
1.0317e-05
1.03204e-05
4.28476e-05
0.000100036
0.000100111
4.28616e-05
1.03339e-05
1.03487e-05
4.29203e-05
0.000100299
0.000100368
4.29272e-05
1.03504e-05
1.03533e-05
4.29885e-05
0.000100551
0.000100606
4.29914e-05
1.03664e-05
1.03803e-05
4.3037e-05
0.000100769
0.000100812
4.30314e-05
1.03814e-05
1.03832e-05
4.30719e-05
0.00010096
0.000100994
4.30638e-05
1.04013e-05
1.04025e-05
4.30818e-05
0.000101116
0.000101131
4.30594e-05
1.04087e-05
1.0409e-05
4.30692e-05
0.00010123
0.00010123
4.30292e-05
1.04261e-05
1.04254e-05
4.30101e-05
0.000101286
0.00010126
4.29491e-05
1.04303e-05
1.04284e-05
4.29061e-05
0.000101278
0.000101252
4.28183e-05
1.04386e-05
1.04488e-05
4.27455e-05
0.000101253
0.000101191
4.26312e-05
1.04469e-05
1.04449e-05
4.25323e-05
0.000101189
0.000101081
4.23852e-05
1.04547e-05
1.04646e-05
4.22464e-05
0.000101065
0.000100911
4.2052e-05
1.0463e-05
1.04627e-05
4.18884e-05
0.00010092
0.000100733
4.16571e-05
1.04805e-05
1.04833e-05
4.14491e-05
0.00010074
0.000100524
4.11778e-05
1.04937e-05
1.05018e-05
4.09503e-05
0.000100569
0.000100363
4.06478e-05
1.05244e-05
1.05522e-05
4.0397e-05
0.000100481
0.000100338
4.00796e-05
1.05728e-05
1.06066e-05
3.98089e-05
0.000100515
0.000100533
3.95042e-05
1.0647e-05
1.06953e-05
3.92381e-05
0.000100863
0.000101223
3.89895e-05
1.07545e-05
1.08251e-05
3.87729e-05
0.000101815
0.000102632
3.86214e-05
1.09093e-05
1.10006e-05
3.86093e-05
0.000103735
0.000105479
3.92714e-05
1.11808e-05
1.13557e-05
3.98099e-05
0.000106841
0.000107711
3.99644e-05
1.13342e-05
1.1474e-05
3.94719e-05
0.000108937
0.000110744
4.1683e-05
1.1733e-05
1.18811e-05
4.09072e-05
0.000111692
0.000113006
4.20765e-05
1.21578e-05
1.24078e-05
4.27333e-05
0.000114822
0.000115169
4.36922e-05
1.27672e-05
1.32359e-05
4.5572e-05
0.000117076
0.000116812
4.65025e-05
1.36268e-05
1.39303e-05
4.7531e-05
0.000117573
0.000117136
4.82991e-05
1.45873e-05
1.57468e-05
5.40041e-05
0.00011917
0.000117477
5.5964e-05
1.08463e-05
6.22539e-06
1.64584e-05
4.17e-05
0.000100035
3.59554e-05
8.36046e-06
9.22287e-06
3.20997e-05
9.251e-05
9.67127e-05
3.3648e-05
9.44179e-06
9.62984e-06
3.22605e-05
9.31902e-05
9.88472e-05
3.46967e-05
1.0033e-05
1.05003e-05
3.4268e-05
9.74482e-05
0.000104403
3.83024e-05
1.10843e-05
1.17053e-05
3.78761e-05
0.000102184
0.000108326
4.26984e-05
1.24478e-05
1.33589e-05
4.32184e-05
0.000107889
0.000114739
4.95347e-05
1.48804e-05
1.05466e-05
5.36445e-05
0.000115236
4.10725e-05
1.58856e-05
6.51268e-06
9.02265e-06
3.78357e-05
0.000104592
0.000101181
3.50425e-05
1.06445e-05
1.18108e-05
4.4034e-05
0.000118472
0.000119361
4.41757e-05
1.26749e-05
1.37195e-05
4.97143e-05
0.000128137
0.000129584
5.20175e-05
1.48611e-05
1.6435e-05
5.86772e-05
0.000135916
0.000130913
6.0916e-05
1.16299e-05
6.99521e-06
1.72281e-05
4.68852e-05
0.000114115
4.22059e-05
9.6391e-06
1.10837e-05
3.93721e-05
0.000110681
0.000121286
4.61648e-05
1.1995e-05
1.30451e-05
4.54876e-05
0.000118642
0.000127166
5.38132e-05
1.48627e-05
1.08015e-05
6.01888e-05
0.000126064
4.59616e-05
1.75679e-05
6.71332e-06
9.62051e-06
4.15339e-05
0.000117252
0.000117583
4.22331e-05
1.17375e-05
1.38891e-05
5.46118e-05
0.000140944
0.000143811
6.12523e-05
1.59374e-05
1.15427e-05
6.68508e-05
0.000141455
5.21484e-05
1.90092e-05
6.90754e-06
9.91849e-06
4.93844e-05
0.000128796
0.000125663
4.64459e-05
1.21606e-05
1.4595e-05
6.11375e-05
0.000147097
0.000146403
6.82871e-05
1.08834e-05
6.7623e-06
1.99132e-05
5.68532e-05
0.000146371
5.51105e-05
1.04379e-05
1.36693e-05
5.54081e-05
0.000151767
0.000193277
8.11285e-05
1.68806e-05
1.27971e-05
8.33164e-05
0.000182993
7.6759e-05
2.58978e-05
8.22728e-06
1.35033e-05
7.82279e-05
0.000190147
0.000185911
7.97738e-05
1.12155e-05
7.71639e-06
2.58908e-05
8.29017e-05
0.00023675
9.06293e-05
1.40461e-05
1.24425e-05
9.89035e-05
0.000249241
0.00011998
4.20322e-05
9.6677e-06
1.10669e-05
0.000100661
0.000272849
0.000186729
7.29876e-05
1.01017e-05
1.36142e-05
0.000107823
0.000319913
0.000266175
9.03161e-05
1.12645e-05
1.11417e-05
8.69512e-05
0.000256869
0.000280048
9.68435e-05
1.30471e-05
1.7071e-05
0.000171698
0.000472452
0.000104834
3.9216e-05
1.41118e-05
1.31157e-05
9.5628e-05
0.00020342
7.48908e-05
3.15473e-05
1.21623e-05
1.35047e-05
6.9151e-05
0.000148098
0.000133037
5.59977e-05
1.47463e-05
8.19137e-06
1.96626e-05
4.85725e-05
9.96264e-05
6.53731e-05
9.92187e-06
1.05171e-05
2.49769e-05
5.4973e-05
0.000116176
5.87715e-05
1.28503e-05
1.47665e-05
5.14999e-05
0.000109745
4.59853e-05
1.97576e-05
8.9325e-06
1.17213e-05
5.30127e-05
0.000100533
9.65836e-05
4.72805e-05
1.3988e-05
8.55094e-06
1.83578e-05
4.18579e-05
9.33776e-05
4.95564e-05
1.12566e-05
1.36103e-05
4.53014e-05
9.01248e-05
4.00008e-05
1.80476e-05
8.50248e-06
1.11003e-05
4.74218e-05
8.89272e-05
8.4908e-05
4.35825e-05
1.34651e-05
8.42254e-06
1.7322e-05
3.80395e-05
8.38784e-05
4.50503e-05
1.09636e-05
1.34663e-05
4.14438e-05
8.04833e-05
3.64789e-05
1.70395e-05
8.5277e-06
1.1117e-05
4.41241e-05
8.0367e-05
7.65302e-05
4.03542e-05
1.35523e-05
8.51016e-06
1.66478e-05
3.54042e-05
7.77183e-05
4.28765e-05
1.10647e-05
1.37123e-05
3.95992e-05
7.46038e-05
3.5608e-05
1.70656e-05
8.8486e-06
1.16416e-05
4.45879e-05
7.81111e-05
7.14577e-05
3.77033e-05
1.50586e-05
1.11335e-05
3.16633e-05
6.29075e-05
2.88595e-05
1.37706e-05
7.13104e-06
9.15296e-06
3.4166e-05
6.17428e-05
6.06788e-05
3.23895e-05
1.15889e-05
7.29409e-06
1.32788e-05
2.87687e-05
5.92108e-05
3.34597e-05
9.28559e-06
1.17692e-05
3.1256e-05
5.72906e-05
2.77136e-05
1.39472e-05
7.43158e-06
9.28934e-06
3.2991e-05
5.62036e-05
5.52811e-05
3.13522e-05
1.16929e-05
7.37785e-06
1.30917e-05
2.73448e-05
5.49203e-05
3.19892e-05
9.32775e-06
1.17703e-05
3.01951e-05
5.31623e-05
2.65612e-05
1.28641e-05
7.30348e-06
9.15824e-06
3.04982e-05
5.22465e-05
5.166e-05
3.00248e-05
1.17669e-05
7.46912e-06
1.31478e-05
2.59051e-05
5.14231e-05
3.0762e-05
9.23653e-06
1.17491e-05
2.92398e-05
5.02015e-05
2.53903e-05
1.30578e-05
7.31899e-06
8.86607e-06
2.91957e-05
4.82335e-05
4.77929e-05
2.80671e-05
1.12367e-05
6.92687e-06
1.20351e-05
2.34036e-05
4.29404e-05
3.39471e-05
7.96752e-06
9.41845e-06
1.51269e-05
2.6904e-05
5.43141e-05
3.27563e-05
1.12097e-05
1.3596e-05
3.05503e-05
5.19746e-05
2.70287e-05
1.43091e-05
8.41743e-06
1.02572e-05
3.2222e-05
5.17189e-05
5.02298e-05
3.01044e-05
1.30364e-05
8.30283e-06
1.42554e-05
2.66166e-05
5.13334e-05
3.19572e-05
1.01858e-05
1.28356e-05
3.00447e-05
4.98276e-05
2.59765e-05
1.39787e-05
8.09882e-06
9.82834e-06
3.05833e-05
4.82699e-05
4.6785e-05
2.81072e-05
1.2532e-05
7.90917e-06
1.36218e-05
2.48209e-05
4.60975e-05
2.90886e-05
9.42655e-06
1.18251e-05
2.71053e-05
4.43565e-05
2.25896e-05
1.26472e-05
7.20439e-06
8.08124e-06
3.16803e-05
3.9413e-05
2.49862e-05
1.50368e-05
9.47136e-06
1.09603e-05
2.87989e-05
4.66005e-05
4.41109e-05
2.66529e-05
1.32875e-05
8.1606e-06
1.38784e-05
2.39132e-05
4.32834e-05
2.80598e-05
9.65795e-06
1.21717e-05
2.6315e-05
4.11701e-05
2.20967e-05
1.30641e-05
7.56991e-06
8.34724e-06
3.00693e-05
3.75816e-05
2.44301e-05
1.51219e-05
9.80556e-06
1.13299e-05
2.87738e-05
4.49596e-05
4.21609e-05
2.62961e-05
1.35994e-05
8.32277e-06
1.3965e-05
2.34025e-05
4.21046e-05
2.7594e-05
9.86262e-06
1.23028e-05
2.5275e-05
3.99031e-05
2.14692e-05
1.29604e-05
7.53564e-06
8.31728e-06
2.86468e-05
3.55164e-05
2.33465e-05
1.48102e-05
9.75455e-06
1.10805e-05
2.72623e-05
4.24674e-05
3.98201e-05
2.50293e-05
1.3294e-05
8.15633e-06
1.37456e-05
2.21869e-05
3.91163e-05
2.59122e-05
9.76036e-06
1.21133e-05
2.37452e-05
3.71925e-05
2.00845e-05
1.19692e-05
7.27728e-06
8.11437e-06
2.54366e-05
3.28939e-05
2.1921e-05
1.41965e-05
9.57224e-06
1.08727e-05
2.60339e-05
3.92794e-05
3.65702e-05
2.33698e-05
1.29446e-05
7.61919e-06
1.28018e-05
2.0175e-05
3.2619e-05
2.69038e-05
8.2542e-06
9.62144e-06
1.45848e-05
2.19157e-05
3.89252e-05
2.50877e-05
1.08709e-05
1.3222e-05
2.30333e-05
3.63078e-05
2.0068e-05
1.26847e-05
7.8871e-06
8.49982e-06
2.52647e-05
3.21395e-05
2.19137e-05
1.4695e-05
9.87645e-06
1.10035e-05
2.55965e-05
3.86004e-05
3.59345e-05
2.30867e-05
1.3267e-05
7.80065e-06
1.25623e-05
1.99011e-05
3.18553e-05
2.56046e-05
8.31926e-06
9.79991e-06
1.45633e-05
2.16524e-05
3.79273e-05
2.49456e-05
1.10523e-05
1.32486e-05
2.26909e-05
3.53838e-05
1.98523e-05
1.30609e-05
7.93745e-06
8.51694e-06
2.62031e-05
3.13515e-05
2.15264e-05
1.48805e-05
9.85466e-06
1.0899e-05
2.44471e-05
3.729e-05
3.46313e-05
2.22021e-05
1.29473e-05
7.63149e-06
1.23292e-05
1.92078e-05
3.01089e-05
2.47852e-05
8.12559e-06
9.24377e-06
1.42463e-05
2.07795e-05
3.28827e-05
2.50408e-05
9.55009e-06
1.09096e-05
1.53004e-05
2.24486e-05
3.78909e-05
2.46549e-05
1.18186e-05
1.37478e-05
2.23806e-05
3.50529e-05
1.98039e-05
1.296e-05
8.0436e-06
8.56504e-06
2.53831e-05
3.08264e-05
2.1305e-05
1.49603e-05
1.00352e-05
1.10757e-05
2.40622e-05
3.6319e-05
3.38481e-05
2.18501e-05
1.31028e-05
7.65791e-06
1.23548e-05
1.90067e-05
2.94577e-05
2.4184e-05
8.18537e-06
9.34798e-06
1.42714e-05
2.05828e-05
3.2128e-05
2.45951e-05
9.61933e-06
1.07335e-05
1.53847e-05
2.21695e-05
3.70302e-05
2.41541e-05
1.16145e-05
1.37232e-05
2.2107e-05
3.42559e-05
1.94685e-05
1.31293e-05
8.14389e-06
8.4921e-06
2.57728e-05
2.98874e-05
2.12067e-05
1.52058e-05
9.75592e-06
9.91387e-06
2.53507e-05
3.26566e-05
2.25225e-05
1.58405e-05
1.10606e-05
1.18666e-05
2.41271e-05
3.72118e-05
3.43051e-05
2.19441e-05
1.38777e-05
8.15771e-06
1.30645e-05
1.9605e-05
2.98917e-05
2.52375e-05
8.49639e-06
9.69347e-06
1.49393e-05
2.11302e-05
3.23905e-05
2.52705e-05
9.9523e-06
1.11432e-05
1.58177e-05
2.25043e-05
3.70806e-05
2.42461e-05
1.2054e-05
1.4086e-05
2.21793e-05
3.42545e-05
1.97657e-05
1.34783e-05
8.39407e-06
8.81088e-06
2.57171e-05
3.00554e-05
2.14302e-05
1.54048e-05
1.00346e-05
1.01701e-05
2.55051e-05
3.25712e-05
2.26611e-05
1.59909e-05
1.11524e-05
1.18316e-05
2.40207e-05
3.69562e-05
3.39773e-05
2.19245e-05
1.3703e-05
8.12779e-06
1.32443e-05
1.93772e-05
2.90226e-05
2.56748e-05
8.45385e-06
9.59493e-06
1.5011e-05
2.0721e-05
3.139e-05
2.48643e-05
9.8773e-06
1.09222e-05
1.55612e-05
2.1874e-05
3.54958e-05
2.33341e-05
1.17718e-05
1.37907e-05
2.14881e-05
3.28191e-05
1.90945e-05
1.32478e-05
8.26677e-06
8.59338e-06
2.52239e-05
2.86916e-05
2.05662e-05
1.4833e-05
9.60934e-06
9.72532e-06
2.42076e-05
3.08718e-05
2.17946e-05
1.54529e-05
1.06807e-05
1.05056e-05
2.48158e-05
3.21705e-05
2.26868e-05
1.64444e-05
1.15964e-05
1.23838e-05
2.40588e-05
3.61138e-05
3.31473e-05
2.18836e-05
1.42323e-05
8.2859e-06
1.30834e-05
1.93069e-05
2.88839e-05
2.4499e-05
8.55634e-06
9.64942e-06
1.47368e-05
2.06573e-05
3.05986e-05
2.40842e-05
9.80173e-06
1.06601e-05
1.53801e-05
2.17931e-05
3.18236e-05
2.45759e-05
1.05657e-05
1.16363e-05
1.63385e-05
2.25768e-05
3.56428e-05
2.38084e-05
1.22816e-05
1.42273e-05
2.1927e-05
3.28955e-05
1.94462e-05
1.36077e-05
8.51631e-06
8.74729e-06
2.55385e-05
2.86922e-05
2.08056e-05
1.51594e-05
9.86742e-06
1.00323e-05
2.41693e-05
3.08219e-05
2.19841e-05
1.57197e-05
1.09575e-05
1.08664e-05
2.49398e-05
3.19822e-05
2.28283e-05
1.66374e-05
1.18865e-05
1.25333e-05
2.4058e-05
3.57662e-05
3.29131e-05
2.20556e-05
1.44007e-05
8.55425e-06
1.36542e-05
1.9559e-05
2.86937e-05
2.54796e-05
8.75684e-06
9.83727e-06
1.51501e-05
2.08486e-05
3.03966e-05
2.41219e-05
9.84254e-06
1.06769e-05
1.53789e-05
2.1668e-05
3.1228e-05
2.42717e-05
1.05783e-05
1.16656e-05
1.63229e-05
2.24389e-05
3.47313e-05
2.34403e-05
1.23858e-05
1.4244e-05
2.1552e-05
3.22527e-05
1.92459e-05
1.32155e-05
8.43374e-06
8.85277e-06
2.38803e-05
2.80596e-05
2.05582e-05
1.49509e-05
9.94759e-06
1.00098e-05
2.41818e-05
3.00476e-05
2.15906e-05
1.54567e-05
1.07679e-05
1.03803e-05
2.3931e-05
3.08908e-05
2.22806e-05
1.59757e-05
1.12266e-05
1.10862e-05
2.49447e-05
3.16905e-05
2.28155e-05
1.68992e-05
1.20408e-05
1.25326e-05
2.38572e-05
3.5095e-05
3.24394e-05
2.18816e-05
1.43125e-05
8.49103e-06
1.35508e-05
1.9454e-05
2.79949e-05
2.51043e-05
8.72458e-06
9.8389e-06
1.50202e-05
2.05746e-05
2.94671e-05
2.35781e-05
1.0002e-05
1.08176e-05
1.53732e-05
2.14118e-05
3.02739e-05
2.36754e-05
1.05156e-05
1.13425e-05
1.6001e-05
2.20591e-05
3.12762e-05
2.46669e-05
1.11262e-05
1.20895e-05
1.68718e-05
2.2747e-05
3.49114e-05
2.38891e-05
1.27591e-05
1.47285e-05
2.21637e-05
3.24086e-05
1.98064e-05
1.40018e-05
8.8838e-06
9.20017e-06
2.54872e-05
2.82895e-05
2.08395e-05
1.53858e-05
1.0233e-05
1.01615e-05
2.40719e-05
3.01128e-05
2.18432e-05
1.57321e-05
1.10496e-05
1.08487e-05
2.42832e-05
3.09041e-05
2.24675e-05
1.63243e-05
1.16102e-05
1.13011e-05
2.51025e-05
3.16912e-05
2.30941e-05
1.72015e-05
1.23244e-05
1.29569e-05
2.41016e-05
3.50023e-05
3.24607e-05
2.21642e-05
1.47127e-05
8.85639e-06
1.40266e-05
1.98984e-05
2.81917e-05
2.51488e-05
9.15114e-06
1.01429e-05
1.53736e-05
2.09905e-05
2.96333e-05
2.38967e-05
1.00955e-05
1.0914e-05
1.56043e-05
2.1737e-05
3.0229e-05
2.37631e-05
1.07092e-05
1.15206e-05
1.61985e-05
2.2245e-05
3.11099e-05
2.47285e-05
1.1465e-05
1.24103e-05
1.71422e-05
2.28233e-05
3.43686e-05
2.40284e-05
1.30871e-05
1.49786e-05
2.22422e-05
3.21225e-05
1.99546e-05
1.41623e-05
9.01164e-06
9.29981e-06
2.52924e-05
2.82455e-05
2.10318e-05
1.55247e-05
1.0317e-05
1.0344e-05
2.4062e-05
2.98098e-05
2.19959e-05
1.59134e-05
1.12141e-05
1.09579e-05
2.41345e-05
3.06124e-05
2.25681e-05
1.64383e-05
1.17021e-05
1.14993e-05
2.50033e-05
3.1303e-05
2.30046e-05
1.71947e-05
1.23969e-05
1.29717e-05
2.39014e-05
3.43393e-05
3.19746e-05
2.20207e-05
1.47546e-05
8.86106e-06
1.40506e-05
1.97935e-05
2.76351e-05
2.50594e-05
9.19099e-06
1.01754e-05
1.52943e-05
2.07569e-05
2.88222e-05
2.33657e-05
1.02301e-05
1.11093e-05
1.56498e-05
2.15042e-05
2.94938e-05
2.34528e-05
1.0834e-05
1.15328e-05
1.61537e-05
2.20178e-05
3.01964e-05
2.42442e-05
1.12674e-05
1.19722e-05
1.66982e-05
2.25852e-05
3.11603e-05
2.50729e-05
1.17242e-05
1.27036e-05
1.75182e-05
2.31941e-05
3.45657e-05
2.43408e-05
1.35125e-05
1.54283e-05
2.25494e-05
3.2355e-05
2.03182e-05
1.43984e-05
9.32472e-06
9.69369e-06
2.51048e-05
2.83857e-05
2.14641e-05
1.59637e-05
1.07985e-05
1.08828e-05
2.45399e-05
3.00227e-05
2.24039e-05
1.64137e-05
1.16963e-05
1.14854e-05
2.46984e-05
3.08719e-05
2.3036e-05
1.69266e-05
1.22102e-05
1.19692e-05
2.54159e-05
3.18099e-05
2.37036e-05
1.78555e-05
1.29859e-05
1.36906e-05
2.46723e-05
3.49058e-05
3.24863e-05
2.2761e-05
1.55112e-05
9.39022e-06
1.46223e-05
2.04415e-05
2.83848e-05
2.54509e-05
9.7441e-06
1.08069e-05
1.60085e-05
2.15834e-05
2.95876e-05
2.43522e-05
1.07548e-05
1.15361e-05
1.6248e-05
2.22695e-05
3.00889e-05
2.42026e-05
1.14222e-05
1.21181e-05
1.67727e-05
2.27233e-05
3.08288e-05
2.4912e-05
1.19039e-05
1.28684e-05
1.76261e-05
2.32177e-05
3.39305e-05
2.41729e-05
1.37084e-05
1.5664e-05
2.25147e-05
3.1825e-05
2.03274e-05
1.45005e-05
9.49148e-06
9.8473e-06
2.48154e-05
2.80077e-05
2.1498e-05
1.61079e-05
1.1004e-05
1.11176e-05
2.45121e-05
2.9585e-05
2.24487e-05
1.65739e-05
1.19088e-05
1.16478e-05
2.45806e-05
3.0374e-05
2.30084e-05
1.71125e-05
1.24024e-05
1.22813e-05
2.51965e-05
3.13129e-05
2.36999e-05
1.80324e-05
1.32522e-05
1.39718e-05
2.46418e-05
3.43638e-05
3.20605e-05
2.28187e-05
1.57938e-05
9.62173e-06
1.48174e-05
2.05988e-05
2.82658e-05
2.54781e-05
9.91299e-06
1.09206e-05
1.61257e-05
2.16469e-05
2.93707e-05
2.4316e-05
1.10383e-05
1.1847e-05
1.64574e-05
2.23722e-05
2.99021e-05
2.42724e-05
1.16706e-05
1.2452e-05
1.70622e-05
2.28651e-05
3.0678e-05
2.49308e-05
1.22718e-05
1.33063e-05
1.80143e-05
2.34317e-05
3.37497e-05
2.44456e-05
1.42105e-05
1.61022e-05
2.28774e-05
3.17527e-05
2.08335e-05
1.51738e-05
9.94734e-06
1.03564e-05
2.54595e-05
2.84095e-05
2.19682e-05
1.66331e-05
1.13399e-05
1.14749e-05
2.52113e-05
2.99503e-05
2.29023e-05
1.71266e-05
1.22963e-05
1.20929e-05
2.51966e-05
3.08502e-05
2.34059e-05
1.77964e-05
1.31024e-05
1.39151e-05
2.40642e-05
3.35888e-05
3.14177e-05
2.24642e-05
1.574e-05
9.66613e-06
1.48571e-05
2.03938e-05
2.75996e-05
2.5016e-05
1.00543e-05
1.10678e-05
1.62871e-05
2.15214e-05
2.88798e-05
2.45169e-05
1.12266e-05
1.20333e-05
1.66875e-05
2.2304e-05
2.97324e-05
2.42948e-05
1.20656e-05
1.31228e-05
1.75973e-05
2.28913e-05
3.25458e-05
2.37112e-05
1.39461e-05
1.58389e-05
2.22855e-05
3.06783e-05
2.03056e-05
1.46971e-05
9.76996e-06
1.01482e-05
2.44362e-05
2.73327e-05
2.14357e-05
1.63201e-05
1.12091e-05
1.14163e-05
2.43658e-05
2.8951e-05
2.24109e-05
1.69011e-05
1.23004e-05
1.22023e-05
2.44862e-05
2.9875e-05
2.29726e-05
1.76421e-05
1.30898e-05
1.38738e-05
2.36557e-05
3.2451e-05
3.05507e-05
2.21864e-05
1.57823e-05
9.71652e-06
1.48689e-05
2.0309e-05
2.71109e-05
2.48211e-05
1.01093e-05
1.11813e-05
1.6356e-05
2.13855e-05
2.83938e-05
2.43613e-05
1.14317e-05
1.22375e-05
1.68333e-05
2.22088e-05
2.93629e-05
2.40892e-05
1.22462e-05
1.3298e-05
1.77454e-05
2.28621e-05
3.22274e-05
2.36957e-05
1.41809e-05
1.60315e-05
2.2434e-05
3.04799e-05
2.05227e-05
1.52535e-05
9.98603e-06
1.0481e-05
2.51005e-05
2.74636e-05
2.16563e-05
1.67231e-05
1.15469e-05
1.17636e-05
2.46864e-05
2.90311e-05
2.26974e-05
1.73279e-05
1.26292e-05
1.27053e-05
2.4697e-05
3.0085e-05
2.33966e-05
1.82077e-05
1.36574e-05
1.44657e-05
2.41702e-05
3.27991e-05
3.09688e-05
2.27906e-05
1.63121e-05
1.01914e-05
1.53972e-05
2.09185e-05
2.77333e-05
2.51817e-05
1.06808e-05
1.17115e-05
1.69943e-05
2.20187e-05
2.93335e-05
2.48292e-05
1.21134e-05
1.32729e-05
1.79504e-05
2.30636e-05
3.21536e-05
2.38678e-05
1.43588e-05
1.62343e-05
2.26852e-05
3.05558e-05
2.06242e-05
1.53339e-05
1.02147e-05
1.07707e-05
2.5006e-05
2.75182e-05
2.19248e-05
1.70472e-05
1.18592e-05
1.21437e-05
2.49378e-05
2.91711e-05
2.30217e-05
1.77396e-05
1.30134e-05
1.31893e-05
2.50348e-05
3.04476e-05
2.39294e-05
1.87702e-05
1.41807e-05
1.52105e-05
2.48871e-05
3.34084e-05
3.14964e-05
2.35048e-05
1.71402e-05
1.08021e-05
1.60134e-05
2.16082e-05
2.84792e-05
2.57229e-05
1.12385e-05
1.23508e-05
1.76859e-05
2.28328e-05
3.02696e-05
2.55471e-05
1.28157e-05
1.39115e-05
1.87161e-05
2.39126e-05
3.32749e-05
2.48231e-05
1.49504e-05
1.70202e-05
2.35869e-05
3.16689e-05
2.18406e-05
1.62864e-05
1.10576e-05
1.16377e-05
2.5776e-05
2.8736e-05
2.30461e-05
1.80489e-05
1.26768e-05
1.32021e-05
2.5852e-05
3.07145e-05
2.43576e-05
1.9214e-05
1.4343e-05
1.55841e-05
2.53478e-05
3.38153e-05
3.20735e-05
2.4028e-05
1.75665e-05
1.12369e-05
1.65183e-05
2.22228e-05
2.93559e-05
2.60721e-05
1.18798e-05
1.32405e-05
1.85812e-05
2.35477e-05
3.28004e-05
2.50053e-05
1.47064e-05
1.67539e-05
2.37527e-05
3.14377e-05
2.17556e-05
1.60478e-05
1.06964e-05
1.1335e-05
2.60738e-05
2.86078e-05
2.28401e-05
1.76769e-05
1.24687e-05
1.30293e-05
2.52291e-05
3.02049e-05
2.39851e-05
1.88469e-05
1.41981e-05
1.54108e-05
2.47769e-05
3.30574e-05
3.15742e-05
2.36202e-05
1.7354e-05
1.12035e-05
1.64938e-05
2.21012e-05
2.89629e-05
2.56994e-05
1.19899e-05
1.33238e-05
1.86959e-05
2.34498e-05
3.24068e-05
2.50524e-05
1.49362e-05
1.70171e-05
2.39031e-05
3.11693e-05
2.20054e-05
1.64115e-05
1.11131e-05
1.18662e-05
2.57606e-05
2.87576e-05
2.31455e-05
1.84382e-05
1.30781e-05
1.44387e-05
2.44322e-05
3.20109e-05
3.08123e-05
2.32613e-05
1.6536e-05
1.0804e-05
1.5878e-05
2.14831e-05
2.82075e-05
2.49478e-05
1.17723e-05
1.31051e-05
1.81954e-05
2.28654e-05
3.15592e-05
2.43968e-05
1.46979e-05
1.68308e-05
2.33675e-05
3.0445e-05
2.1627e-05
1.62258e-05
1.10281e-05
1.18628e-05
2.526e-05
2.82534e-05
2.29095e-05
1.83708e-05
1.31304e-05
1.45917e-05
2.43864e-05
3.15351e-05
3.03944e-05
2.32513e-05
1.66362e-05
1.08446e-05
1.59639e-05
2.14883e-05
2.81349e-05
2.58003e-05
1.16428e-05
1.30061e-05
1.80862e-05
2.26943e-05
3.13596e-05
2.39373e-05
1.47801e-05
1.69787e-05
2.30522e-05
3.02939e-05
2.16541e-05
1.63051e-05
1.12822e-05
1.22515e-05
2.491e-05
2.82195e-05
2.31296e-05
1.87213e-05
1.35857e-05
1.52443e-05
2.48411e-05
3.19069e-05
3.08252e-05
2.3825e-05
1.73392e-05
1.14851e-05
1.67134e-05
2.21702e-05
2.8945e-05
2.56587e-05
1.2474e-05
1.38574e-05
1.91843e-05
2.36907e-05
3.28652e-05
2.56373e-05
1.57498e-05
1.79868e-05
2.47923e-05
3.18819e-05
2.29956e-05
1.76785e-05
1.24149e-05
1.44388e-05
2.5596e-05
3.14971e-05
3.06924e-05
2.46006e-05
1.68563e-05
1.15024e-05
1.68023e-05
2.23086e-05
2.94102e-05
2.57398e-05
1.26701e-05
1.40614e-05
1.93475e-05
2.40987e-05