/*--------------------------------*- C++ -*----------------------------------*\
| =========                 |                                                 |
| \\      /  F ield         | OpenFOAM: The Open Source CFD Toolbox           |
|  \\    /   O peration     | Version:  v2006                                 |
|   \\  /    A nd           | Website:  www.openfoam.com                      |
|    \\/     M anipulation  |                                                 |
\*---------------------------------------------------------------------------*/
FoamFile
{
    version     2.0;
    format      ascii;
    class       volScalarField;
    location    "0.095";
    object      nut;
}
// * * * * * * * * * * * * * * * * * * * * * * * * * * * * * * * * * * * * * //

dimensions      [0 2 -1 0 0 0 0];


internalField   nonuniform List<scalar> 
38932
(
0.0606736
0.060675
0.0606913
0.0606896
0.0606854
0.0606785
0.0606681
0.0606547
0.0606377
0.0606179
0.0605949
0.060569
0.0605402
0.0605084
0.0604737
0.0604361
0.0603955
0.060352
0.0603055
0.0602562
0.060204
0.060149
0.0600912
0.0600305
0.0599671
0.0599009
0.059832
0.0597604
0.0596861
0.0596092
0.0595297
0.0594477
0.0593631
0.059276
0.0591864
0.0590945
0.0590001
0.0589035
0.0588045
0.0587033
0.0585999
0.0584943
0.0583867
0.058277
0.0581653
0.0580516
0.057936
0.0578186
0.0576994
0.0575785
0.0574559
0.0573318
0.057206
0.0570788
0.0569502
0.0568202
0.056689
0.0565565
0.0564229
0.0562883
0.0561526
0.056016
0.0558785
0.0557403
0.0556014
0.0554619
0.0553218
0.0551813
0.0550404
0.0548993
0.0547579
0.0546164
0.0544749
0.0543335
0.0541922
0.0540511
0.0539104
0.0537701
0.0536303
0.0534911
0.0533526
0.0532149
0.053078
0.0529422
0.0528074
0.0526737
0.0525413
0.0524103
0.0522807
0.0521526
0.0520262
0.0519014
0.0517785
0.0516574
0.0515384
0.0514214
0.0513065
0.0511939
0.0510836
0.0509758
0.0508704
0.0507675
0.0506673
0.0505698
0.0504751
0.0503832
0.0502942
0.0502081
0.0501251
0.0500451
0.0499682
0.0498945
0.049824
0.0497567
0.0496927
0.049632
0.0495747
0.0495208
0.0494704
0.0494235
0.04938
0.049339
0.0492966
0.0492364
0.0491586
0.0489662
0.0483707
0.0458494
0.0372646
0.0132527
0.00491977
0.000178903
0.000189017
0.00205053
0.0054708
0.00380137
0.00138072
0.000186431
0.000181471
0.00108461
0.00297261
0.00255693
0.000915748
0.000176221
0.000169521
0.000814916
0.00226793
0.00209273
0.000757999
0.000164072
0.000158626
0.000710659
0.00198119
0.00190764
0.000686276
0.000154232
0.000150779
0.000668308
0.00185271
0.00181008
0.000654623
0.000147909
0.00014545
0.000643652
0.00177447
0.00174321
0.000634374
0.000143342
0.000141516
0.00062618
0.00171464
0.00168768
0.000618641
0.000139915
0.000138492
0.000611508
0.00166186
0.0016369
0.000604636
0.000137212
0.000136045
0.000597954
0.00161267
0.00158914
0.000591433
0.000134967
0.000133962
0.000585065
0.00156629
0.00154412
0.000578853
0.000133015
0.000132115
0.000572802
0.00152264
0.00150186
0.000566921
0.000131254
0.000130424
0.000561215
0.00148176
0.00146234
0.000555689
0.000129621
0.000128839
0.000550343
0.00144358
0.00142546
0.000545178
0.000128076
0.000127327
0.00054019
0.00140797
0.00139107
0.000535374
0.000126592
0.000125868
0.000530726
0.00137473
0.00135894
0.00052624
0.000125151
0.000124442
0.000521908
0.00134366
0.00132887
0.000517725
0.000123739
0.000123039
0.000513683
0.00131454
0.00130065
0.000509778
0.000122342
0.000121646
0.000506001
0.00128718
0.0012741
0.000502348
0.00012095
0.000120253
0.000498814
0.00126141
0.00124907
0.000495392
0.000119554
0.000118852
0.000492078
0.00123708
0.00122541
0.000488869
0.000118145
0.000117433
0.000485759
0.00121407
0.00120302
0.000482746
0.000116715
0.000115989
0.000479825
0.00119226
0.00118177
0.000476994
0.000115256
0.000114512
0.00047425
0.00117156
0.0011616
0.000471591
0.000113759
0.000112993
0.000469013
0.00115189
0.00114242
0.000466517
0.000112216
0.000111425
0.0004641
0.00113319
0.00112419
0.00046176
0.00011062
0.000109799
0.000459498
0.00111541
0.00110684
0.000457311
0.000108962
0.000108107
0.000455201
0.00109849
0.00109035
0.000453167
0.000107233
0.000106339
0.000451209
0.00108242
0.0010747
0.000449329
0.000105424
0.000104486
0.000447527
0.00106719
0.00105987
0.000445805
0.000103524
0.000102537
0.000444166
0.00105277
0.00104588
0.000442612
0.000101523
0.000100482
0.000441148
0.00103921
0.00103275
0.000439777
9.94103e-05
9.83078e-05
0.000438506
0.00102652
0.00102053
0.00043734
9.71726e-05
9.60032e-05
0.000436289
0.00101479
0.00100931
0.000435358
9.4798e-05
9.35554e-05
0.000434563
0.00100411
0.000999212
0.000433913
9.22739e-05
9.09522e-05
0.000433424
0.000994633
0.000990412
0.000433111
8.95884e-05
8.81821e-05
0.000433003
0.000986587
0.000983182
0.000433113
8.67313e-05
8.52364e-05
0.000433485
0.00098027
0.000977862
0.000434132
8.36958e-05
8.21112e-05
0.000435117
0.000976084
0.000974935
0.000436462
8.04823e-05
7.88123e-05
0.000438251
0.000974603
0.000975073
0.00044052
7.71035e-05
7.53613e-05
0.000443358
0.000976567
0.000979196
0.000446846
7.35912e-05
7.18042e-05
0.0004511
0.000983143
0.000988433
0.000456162
7.00088e-05
6.822e-05
0.000462177
0.00099545
0.0010043
0.000469239
6.64527e-05
6.47282e-05
0.000477404
0.00101503
0.0010273
0.000486468
6.30465e-05
6.14278e-05
0.000496614
0.00104191
0.00105839
0.000507566
5.98679e-05
5.83559e-05
0.000519082
0.00107691
0.00109721
0.000531046
5.6893e-05
5.53366e-05
0.000541303
0.0011185
0.00114047
0.000548774
5.43883e-05
5.40934e-05
0.000550903
0.00116296
0.00118706
0.00055083
5.34455e-05
5.22762e-05
0.000546128
0.00120486
0.00121087
0.000534653
5.05006e-05
4.81637e-05
0.000514556
0.00120009
0.00117182
0.00048652
4.53354e-05
4.21439e-05
0.000450216
0.00112364
0.00105352
0.000406091
3.88683e-05
3.58315e-05
0.000356747
0.000961693
0.000840918
0.000300773
3.31903e-05
3.16794e-05
0.000239102
0.000695903
0.000589131
0.000202738
3.12152e-05
3.12167e-05
0.000186104
0.000531259
0.000505248
0.000177583
3.15667e-05
3.19613e-05
0.000173425
0.000494484
0.000491872
0.000173309
3.24279e-05
3.28633e-05
0.000175736
0.000497158
0.000507896
0.000179648
3.32378e-05
3.35492e-05
0.00018396
0.000519617
0.000531899
0.000188757
3.37749e-05
3.38893e-05
0.000193272
0.000544309
0.000555252
0.0001972
3.39215e-05
3.39037e-05
0.000200139
0.00056485
0.00057495
0.00020358
3.37953e-05
3.35765e-05
0.00020591
0.000582206
0.000587998
0.000207996
3.32917e-05
3.29215e-05
0.000209519
0.000592108
0.000594178
0.000210473
3.24723e-05
3.19644e-05
0.000210916
0.000594491
0.000592767
0.000210694
3.13673e-05
3.07178e-05
0.000209996
0.000589278
0.000583849
0.000208673
3.00029e-05
2.92162e-05
0.000206769
0.000576579
0.000567482
0.000204342
2.83724e-05
2.74726e-05
0.000201367
0.000556588
0.000543851
0.000197833
2.64982e-05
2.54732e-05
0.000193804
0.000529245
0.000512469
0.000189141
2.43498e-05
2.32077e-05
0.000183954
0.00049326
0.000471089
0.000177921
2.19245e-05
2.04683e-05
0.00017091
0.000444839
0.000411821
0.000161987
1.87204e-05
1.67687e-05
0.000150093
0.000367964
0.000307154
0.000132593
1.41977e-05
1.10739e-05
0.000105972
0.000223132
0.000113418
5.75425e-05
8.19105e-06
5.26914e-06
2.53341e-05
2.86776e-05
3.59329e-05
4.83537e-05
5.97544e-05
7.18189e-05
7.97048e-05
8.74529e-05
9.28104e-05
9.78905e-05
0.000101871
0.000105359
0.000108278
0.000110806
0.000111936
0.000113253
0.000113365
0.000125541
0.000120573
0.000115489
0.000106503
6.7563e-05
3.77411e-05
4.68813e-05
5.57841e-05
3.76412e-05
1.8006e-05
1.96164e-05
2.05398e-05
1.89285e-05
1.66989e-05
1.46357e-05
8.57635e-06
6.64157e-06
5.30471e-06
4.28353e-06
3.23516e-06
7.06651e-06
1.30441e-05
2.09486e-05
3.59613e-05
8.96397e-05
6.28436e-05
3.81596e-05
1.60749e-05
4.08475e-06
5.16262e-06
3.01755e-05
7.16865e-05
0.000111737
0.000151117
0.000198441
0.000144167
9.14822e-05
3.79988e-05
5.98187e-06
6.39898e-06
4.32252e-05
0.000104872
0.000167697
0.000230652
0.000250106
0.000182624
0.000112829
4.63405e-05
6.68544e-06
6.71383e-06
4.7236e-05
0.000115366
0.000187254
0.000256894
0.000256527
0.000186525
0.00011467
4.68522e-05
6.59503e-06
6.39742e-06
4.60778e-05
0.000112581
0.000183206
0.000252476
0.000246196
0.000179068
0.000110185
4.53341e-05
6.15327e-06
5.9421e-06
4.48848e-05
0.000108522
0.000175901
0.000241607
0.000240002
0.000174267
0.00010772
4.49048e-05
5.7625e-06
5.60876e-06
4.49506e-05
0.000107114
0.000173237
0.000238943
0.000238209
0.000172133
0.000106364
4.48302e-05
5.42139e-06
5.19484e-06
4.40155e-05
0.000104537
0.00017003
0.000236622
0.000231031
0.000164554
0.000100382
4.18969e-05
4.85069e-06
4.51369e-06
3.77717e-05
9.26438e-05
0.000155102
0.000221684
0.000208321
0.000141634
8.16364e-05
3.20503e-05
4.03312e-06
3.24365e-06
2.4167e-05
6.6666e-05
0.000123645
0.000190851
0.000166842
9.98737e-05
4.52423e-05
1.27339e-05
2.03435e-06
1.35085e-06
6.20345e-06
2.85972e-05
7.03963e-05
0.000133339
9.20517e-05
3.98985e-05
1.79503e-05
5.31155e-06
1.39011e-06
1.62449e-06
3.23585e-06
1.05185e-05
2.69309e-05
5.2392e-05
3.74078e-05
1.50786e-05
5.63146e-06
2.85435e-06
3.03403e-06
3.03978e-06
2.805e-06
5.54686e-06
1.52902e-05
3.83049e-05
3.78058e-05
1.50091e-05
5.62632e-06
3.07994e-06
3.23496e-06
3.20406e-06
3.4063e-06
6.18712e-06
1.59824e-05
3.92399e-05
4.00878e-05
1.68273e-05
6.8827e-06
3.77756e-06
3.02542e-06
3.2092e-06
3.55248e-06
7.486e-06
1.86126e-05
4.31288e-05
4.49092e-05
1.81089e-05
7.02807e-06
3.68307e-06
3.88023e-06
3.80986e-06
4.0619e-06
7.69805e-06
1.93265e-05
4.66928e-05
4.93864e-05
2.21931e-05
9.29864e-06
4.50321e-06
3.1288e-06
3.42228e-06
4.2084e-06
1.01108e-05
2.37454e-05
5.17792e-05
5.54104e-05
2.56364e-05
1.02068e-05
4.10425e-06
3.51059e-06
3.48604e-06
4.70085e-06
1.0969e-05
2.71477e-05
5.84493e-05
6.48661e-05
3.23739e-05
1.25695e-05
4.30266e-06
3.099e-06
3.40065e-06
4.83424e-06
1.19917e-05
2.98605e-05
6.25451e-05
6.5079e-05
3.21893e-05
1.29355e-05
4.5652e-06
3.5725e-06
4.16364e-06
4.87039e-06
1.28534e-05
3.03054e-05
6.37778e-05
6.3982e-05
2.98627e-05
1.28041e-05
5.65261e-06
4.1201e-06
3.87189e-06
6.34637e-06
1.41881e-05
3.04546e-05
6.21823e-05
6.40969e-05
3.16698e-05
1.51123e-05
6.137e-06
4.11716e-06
4.56691e-06
6.09649e-06
1.65704e-05
3.29574e-05
6.69014e-05
7.27036e-05
3.44393e-05
1.55926e-05
5.99907e-06
4.85471e-06
4.44844e-06
7.16429e-06
1.67296e-05
3.47261e-05
7.21083e-05
7.70732e-05
3.96049e-05
1.75708e-05
6.73767e-06
4.13153e-06
4.48825e-06
6.10765e-06
1.93987e-05
4.20399e-05
7.98257e-05
8.36825e-05
4.38075e-05
1.96531e-05
5.96271e-06
4.32963e-06
4.53022e-06
6.90043e-06
2.0191e-05
4.30712e-05
8.36778e-05
8.75588e-05
4.73535e-05
2.14448e-05
7.21962e-06
3.90772e-06
4.51266e-06
6.77475e-06
2.2762e-05
4.71863e-05
8.8591e-05
9.11944e-05
4.84406e-05
2.17811e-05
6.86738e-06
4.46958e-06
4.379e-06
8.52938e-06
2.33772e-05
4.71062e-05
8.75446e-05
9.03571e-05
4.92416e-05
2.30475e-05
7.25578e-06
4.85343e-06
5.53724e-06
7.85864e-06
2.41101e-05
4.68702e-05
8.96023e-05
9.16172e-05
4.88179e-05
2.40681e-05
8.75294e-06
5.16019e-06
5.28888e-06
8.97547e-06
2.68915e-05
5.23965e-05
9.41245e-05
0.000104218
5.59094e-05
2.73045e-05
7.6138e-06
5.10363e-06
5.74245e-06
8.61991e-06
2.94406e-05
5.43211e-05
0.00010534
0.0001158
6.47573e-05
2.99728e-05
7.91893e-06
5.02562e-06
4.47588e-06
9.80584e-06
3.13491e-05
6.60245e-05
0.000115081
0.000117498
6.81382e-05
3.20034e-05
9.61163e-06
4.63709e-06
4.81242e-06
9.77216e-06
3.32182e-05
6.94377e-05
0.000118085
0.000118028
6.7082e-05
3.24469e-05
8.94159e-06
4.96245e-06
5.62169e-06
9.40106e-06
3.34468e-05
6.47459e-05
0.000117124
0.000118974
6.81228e-05
3.31851e-05
1.08017e-05
5.13915e-06
5.54376e-06
1.00277e-05
3.56619e-05
6.79171e-05
0.000119138
0.000121239
6.82578e-05
3.33096e-05
9.50198e-06
5.82212e-06
5.77726e-06
1.25542e-05
3.61671e-05
6.72083e-05
0.000117966
0.000122155
7.17077e-05
3.60622e-05
1.17701e-05
5.82194e-06
6.58429e-06
1.03315e-05
3.81537e-05
7.25995e-05
0.000125923
0.000128613
7.23502e-05
3.77908e-05
1.06338e-05
6.24877e-06
6.4372e-06
1.25566e-05
4.01561e-05
7.28057e-05
0.000128463
0.000133386
7.72059e-05
3.94135e-05
1.31945e-05
6.14001e-06
6.13392e-06
1.21765e-05
4.34766e-05
8.07001e-05
0.000138228
0.000141992
8.09016e-05
3.97561e-05
1.10967e-05
6.65798e-06
6.96893e-06
1.29514e-05
4.33426e-05
7.97966e-05
0.000140882
0.000145949
8.54953e-05
4.30746e-05
1.39214e-05
6.48291e-06
7.25634e-06
1.19605e-05
4.52974e-05
8.75412e-05
0.000150713
0.000152883
8.63967e-05
4.47861e-05
1.21768e-05
6.78804e-06
7.07468e-06
1.5333e-05
4.81651e-05
8.86981e-05
0.000152993
0.000160202
9.23447e-05
4.62768e-05
1.31165e-05
6.53049e-06
7.49944e-06
1.35185e-05
5.12343e-05
8.72432e-05
0.000157351
0.000162001
9.50387e-05
4.82711e-05
1.53558e-05
7.01177e-06
7.11873e-06
1.40171e-05
5.28646e-05
9.68425e-05
0.000167295
0.000172306
9.85595e-05
4.87833e-05
1.35951e-05
7.48472e-06
7.24435e-06
1.73115e-05
5.38717e-05
0.000101394
0.00017464
0.000178309
9.92982e-05
4.76337e-05
1.25146e-05
7.67242e-06
8.81409e-06
1.38195e-05
5.04246e-05
8.77494e-05
0.000158944
0.00016022
9.10916e-05
4.96344e-05
1.50344e-05
8.06554e-06
7.91739e-06
1.80492e-05
5.16521e-05
9.6854e-05
0.00016707
0.000187827
0.000101517
4.95899e-05
1.5001e-05
9.04022e-06
9.45457e-06
1.64894e-05
5.12764e-05
0.000116163
0.000208219
0.00028757
0.00015899
7.06837e-05
2.48337e-05
1.26163e-05
1.61635e-05
4.2259e-05
0.000126029
0.000284627
0.000514464
0.000639063
0.000390662
0.000196033
6.78704e-05
2.03143e-05
2.47083e-05
0.000101544
0.000270613
0.000496876
0.000771727
0.000894604
0.000600522
0.000343762
0.000136397
2.88227e-05
3.23389e-05
0.000170715
0.000411509
0.000694935
0.00100782
0.00111318
0.000782957
0.000473509
0.000199107
3.51633e-05
3.80072e-05
0.00022652
0.000529697
0.000862061
0.00120728
0.00128193
0.000931509
0.00058177
0.000253462
4.07268e-05
4.31384e-05
0.000281143
0.000634768
0.00100529
0.00137397
0.00146072
0.00107124
0.00067968
0.000302911
4.52514e-05
4.77212e-05
0.000319406
0.000721608
0.00113717
0.00155171
0.00164559
0.00120574
0.000765604
0.000340794
5.07891e-05
5.59089e-05
0.00036018
0.000809634
0.00126874
0.00171991
0.00179464
0.0013392
0.000864446
0.000392874
6.10958e-05
6.53317e-05
0.000428406
0.000927155
0.00142645
0.00190525
0.00201719
0.00151521
0.000990168
0.000460509
6.92159e-05
7.31597e-05
0.0004977
0.00105321
0.00160258
0.00212491
0.00223408
0.00168473
0.00111202
0.000534732
7.57111e-05
7.62029e-05
0.000553702
0.00114505
0.00173717
0.00233561
0.00225173
0.00170194
0.00112401
0.000541821
7.47358e-05
7.31432e-05
0.000525964
0.00108777
0.00163173
0.00212227
0.002228
0.00167457
0.00110529
0.000529512
7.44614e-05
7.53422e-05
0.00055331
0.00115351
0.00175108
0.00232932
0.00243025
0.00182904
0.00120743
0.000585004
7.73134e-05
7.76201e-05
0.000601302
0.00125339
0.00190052
0.0025252
0.00261179
0.00196428
0.00129336
0.00061912
7.98366e-05
7.78354e-05
0.000620031
0.00130744
0.00199886
0.00267829
0.00266394
0.0019696
0.00128603
0.00061167
7.67302e-05
7.14439e-05
0.000576629
0.00121216
0.00184105
0.00242203
0.00216496
0.00167165
0.00111219
0.000529333
6.59257e-05
6.045e-05
0.000488491
0.00103308
0.0015778
0.00212551
0.00199831
0.00149474
0.000972591
0.000454517
5.67724e-05
5.29248e-05
0.000426242
0.000914751
0.0013987
0.00184358
0.00187285
0.0013822
0.000893896
0.000415177
5.23869e-05
5.14183e-05
0.000411653
0.000895651
0.00139409
0.00189295
0.00188814
0.00139482
0.000896673
0.000412402
5.17077e-05
5.13979e-05
0.000413197
0.000896413
0.00139453
0.00188967
0.00189708
0.00139834
0.000897437
0.000414646
5.21024e-05
5.1124e-05
0.000414752
0.000901596
0.00140836
0.00191612
0.0019347
0.0014055
0.000899473
0.000414714
5.11882e-05
4.92975e-05
0.000402733
0.000870756
0.00135398
0.00183139
0.00171591
0.00128907
0.00083158
0.000383657
4.75144e-05
4.79554e-05
0.000384912
0.000841239
0.001315
0.00179419
0.00187026
0.00137039
0.00087475
0.000400783
4.98716e-05
5.11877e-05
0.000421622
0.000913132
0.00142778
0.00194509
0.00201791
0.00147879
0.000946114
0.000436436
5.13933e-05
5.05109e-05
0.000436067
0.000951614
0.00149777
0.00207115
0.00196791
0.00145116
0.000926746
0.000422729
4.85152e-05
4.60705e-05
0.000405946
0.000894801
0.00139089
0.00185343
0.00194787
0.00142555
0.00090608
0.000405659
4.53787e-05
4.75532e-05
0.000419471
0.00094232
0.0014893
0.00204308
0.00213102
0.00155471
0.000984665
0.000438265
4.93862e-05
5.06237e-05
0.000453989
0.00101731
0.00161103
0.00221313
0.00228034
0.00163735
0.00103112
0.000461314
5.11438e-05
5.04781e-05
0.000456852
0.00101213
0.00159395
0.00217223
0.00205822
0.00154111
0.000990642
0.000449417
4.99466e-05
5.03012e-05
0.000454755
0.00101127
0.00158773
0.00216927
0.0022831
0.00166638
0.00105503
0.000471816
5.17976e-05
5.43847e-05
0.00049131
0.00110322
0.00174419
0.00239225
0.0024953
0.00181692
0.00114819
0.000517227
5.61309e-05
5.67516e-05
0.000523351
0.00116907
0.00185407
0.00258313
0.00246819
0.00180932
0.00115028
0.000519666
5.59633e-05
5.49662e-05
0.000516337
0.00113507
0.00176251
0.00235157
0.00248538
0.00182154
0.00116179
0.000523999
5.53635e-05
5.69124e-05
0.000544725
0.00121757
0.00191827
0.00262388
0.00276033
0.00201057
0.00127056
0.000568503
5.96469e-05
6.14571e-05
0.000584339
0.00129981
0.00206209
0.00287425
0.00275908
0.00202646
0.00129345
0.000584832
6.14658e-05
6.06245e-05
0.000583253
0.00127977
0.001987
0.00264495
0.00280507
0.0020588
0.00131198
0.000592971
6.14402e-05
6.40587e-05
0.000617344
0.00137072
0.00216316
0.00297073
0.00311066
0.00222629
0.00140572
0.00063644
6.63021e-05
6.57604e-05
0.000637506
0.00140035
0.00219623
0.00299558
0.00288775
0.00216638
0.00139646
0.000637706
6.60095e-05
6.74585e-05
0.000655047
0.00144422
0.00225965
0.00307485
0.00326778
0.00238352
0.00151098
0.000682912
7.00185e-05
7.2194e-05
0.000703953
0.00155457
0.00246508
0.00344283
0.0033298
0.00244488
0.00156496
0.000714469
7.31931e-05
7.40332e-05
0.000726551
0.00157497
0.00242892
0.00322778
0.0034519
0.00254335
0.00163459
0.000748077
7.5211e-05
7.64883e-05
0.000774699
0.00171699
0.00270057
0.0036916
0.00391398
0.00281317
0.00177855
0.000807789
8.16662e-05
8.61931e-05
0.000839292
0.00180933
0.0028115
0.00381552
0.00373292
0.00281932
0.00184128
0.000863368
9.06207e-05
9.53252e-05
0.000900006
0.00191105
0.00295708
0.00400366
0.00427583
0.00308833
0.00198151
0.000933654
9.95075e-05
0.000101262
0.000953992
0.00200886
0.00309433
0.00418334
0.00411024
0.00310751
0.00203467
0.000966299
9.9343e-05
9.66184e-05
0.000968839
0.00209074
0.0032563
0.00441532
0.00473164
0.00339179
0.00213833
0.000957935
8.9462e-05
9.11251e-05
0.000959442
0.00216243
0.0034115
0.00464857
0.00461146
0.00345544
0.00221967
0.0010054
9.99143e-05
0.000108895
0.00105604
0.00230329
0.00360671
0.00498766
0.00496657
0.00367877
0.00237724
0.00110559
0.000117023
0.000126599
0.00116575
0.00246525
0.00377451
0.00498021
0.00541791
0.00396272
0.00257263
0.00122502
0.000135527
0.000144297
0.00128303
0.00266403
0.00405931
0.00542824
0.00546731
0.00418225
0.0027743
0.00134834
0.000153874
0.000162987
0.0014176
0.00290446
0.00440835
0.00596292
0.00600593
0.00453213
0.00301638
0.0014819
0.000172562
0.000183071
0.00155389
0.00314619
0.00469005
0.0060662
0.00658836
0.00491265
0.00325643
0.00160776
0.000188888
0.000181076
0.00160372
0.00326787
0.00494506
0.00658188
0.00656091
0.00491253
0.00320806
0.00154401
0.000177762
0.000191822
0.00154189
0.00317865
0.00489403
0.00657129
0.00677262
0.00502561
0.00326199
0.00160313
0.000216544
0.000225931
0.00167887
0.00340823
0.00519273
0.00692451
0.00739176
0.00551436
0.00358704
0.00172655
0.000217498
0.000198271
0.00169434
0.00364118
0.00565732
0.00771548
0.00756903
0.00563511
0.00365847
0.00174088
0.000210021
0.000255959
0.00187574
0.00373281
0.00561149
0.00744155
0.00732604
0.00557041
0.0037997
0.00200386
0.000295445
0.000311983
0.00204169
0.00373073
0.00544679
0.00716042
0.00690117
0.00517369
0.003455
0.00178046
0.000313799
0.000301039
0.00143252
0.00300477
0.00469498
0.00644028
0.00544212
0.00396385
0.00249557
0.00112827
0.00026684
0.000229006
0.000909066
0.00211163
0.0034628
0.0048502
0.00426939
0.00303437
0.00187121
0.00083451
0.000207323
0.000192943
0.00072798
0.00168483
0.00278661
0.00398618
0.00358465
0.0025277
0.00153055
0.000653516
0.00017638
0.000162906
0.000583946
0.00141942
0.00239241
0.00345539
0.00313363
0.00217747
0.00128535
0.00051305
0.000144711
0.00012171
0.000464035
0.0012271
0.0021246
0.00311367
0.00286387
0.00198892
0.00116044
0.00043226
0.00010881
0.000109879
0.000474847
0.00118361
0.00201035
0.00293321
0.00274494
0.00194178
0.00117999
0.000497745
0.000109153
0.000107306
0.000523452
0.0012142
0.00199676
0.00285958
0.0027711
0.0019424
0.00120396
0.000531051
0.000105063
0.000100143
0.000516372
0.00114799
0.00180795
0.00244112
0.00252208
0.00182878
0.00116161
0.000524023
9.5295e-05
9.43239e-05
0.00055394
0.00117192
0.00180687
0.0024533
0.00261028
0.00189735
0.00122552
0.000588928
9.71087e-05
0.000100145
0.000607316
0.0012385
0.00189228
0.00260547
0.00238116
0.00181665
0.0012218
0.000617951
0.000102431
0.000102641
0.000613808
0.0012325
0.00185449
0.0024871
0.00248207
0.0018325
0.00122285
0.000610523
0.000101705
9.91247e-05
0.000587901
0.00118244
0.0017545
0.00228349
0.00238057
0.00178317
0.00118026
0.000567463
9.51387e-05
9.10098e-05
0.000560236
0.00116522
0.00175889
0.00237987
0.00219385
0.00168804
0.0011308
0.00054321
8.72175e-05
8.36027e-05
0.000544806
0.00114212
0.00171927
0.0022816
0.00227319
0.00173192
0.00116522
0.000571405
8.27113e-05
8.53262e-05
0.000603558
0.00122015
0.00182544
0.00242526
0.00246207
0.00184035
0.00123862
0.000620762
8.74436e-05
8.83671e-05
0.000621448
0.00122851
0.00179409
0.00230965
0.00242094
0.00184413
0.00124757
0.00062911
8.88348e-05
8.93925e-05
0.000634135
0.0012523
0.00184676
0.00245206
0.00230179
0.00179664
0.00123377
0.000627205
8.92358e-05
8.94909e-05
0.000634328
0.00125325
0.00184348
0.00240924
0.00243998
0.00183941
0.00124739
0.000627461
8.90845e-05
8.83686e-05
0.000621643
0.00122789
0.00178993
0.00229517
0.00239845
0.00183248
0.00123966
0.000621125
8.75855e-05
8.66777e-05
0.000612605
0.00123536
0.001832
0.00243177
0.00228783
0.0017811
0.00121398
0.000605047
8.52562e-05
8.43016e-05
0.000605748
0.00122882
0.00182448
0.00239134
0.00242694
0.00182419
0.00122612
0.000604131
8.3243e-05
8.18531e-05
0.000592358
0.00120573
0.00177861
0.0022867
0.00239238
0.00182629
0.00122895
0.00060725
8.15508e-05
8.13884e-05
0.000604039
0.00122738
0.00182771
0.00243353
0.00229661
0.00178482
0.00121006
0.000598308
8.06684e-05
7.99177e-05
0.000596636
0.00122907
0.00183427
0.00240755
0.00245352
0.00183679
0.0012217
0.000590407
7.85769e-05
7.61207e-05
0.000561233
0.00117624
0.00176507
0.00232835
0.00217427
0.0016836
0.00112551
0.000534308
7.31643e-05
7.13438e-05
0.000534115
0.00113089
0.00171086
0.00226095
0.0022966
0.00170761
0.00112767
0.0005359
7.02818e-05
6.97044e-05
0.000536155
0.00111385
0.00166689
0.00216442
0.00226831
0.00171526
0.00113585
0.000543367
6.95866e-05
6.91998e-05
0.000540225
0.00113511
0.0017178
0.00231001
0.00217819
0.00167793
0.00112015
0.000536864
6.85284e-05
6.83172e-05
0.000536985
0.00113721
0.00172379
0.00228186
0.00232539
0.00172782
0.00113896
0.000542402
6.79439e-05
6.76545e-05
0.00053024
0.0011212
0.00168655
0.00219054
0.00229429
0.00173158
0.00114039
0.000538183
6.71081e-05
6.70789e-05
0.000535229
0.00113752
0.0017309
0.00233437
0.00219653
0.00168808
0.00112053
0.000529808
6.64625e-05
6.63103e-05
0.000535427
0.00113761
0.00173127
0.00229821
0.00233723
0.00173139
0.00113473
0.000530641
6.60371e-05
6.52427e-05
0.000523095
0.00111531
0.00168464
0.00219629
0.00229607
0.00172582
0.00113013
0.000528462
6.5093e-05
6.47373e-05
0.00052318
0.00112552
0.00172476
0.0023347
0.00219078
0.00167618
0.00110278
0.000511382
6.36764e-05
6.29575e-05
0.000517013
0.00111799
0.00171472
0.00228834
0.00232339
0.00171016
0.00111304
0.000516779
6.25788e-05
6.19165e-05
0.000505062
0.00109125
0.00166355
0.00217948
0.00227568
0.00170182
0.00110588
0.000509015
6.12011e-05
6.09739e-05
0.000508129
0.00110069
0.00169832
0.0023087
0.00216618
0.00165209
0.00108315
0.000498877
6.0253e-05
5.93455e-05
0.000499094
0.00109432
0.00168976
0.00226279
0.00229644
0.00168562
0.00109013
0.000500719
5.88088e-05
5.84599e-05
0.000489545
0.0010734
0.00164425
0.00215894
0.00226197
0.0016882
0.00109133
0.000497399
5.82487e-05
5.85477e-05
0.000496458
0.00109361
0.00169396
0.0023074
0.00218782
0.00166532
0.0010886
0.000497493
5.84185e-05
5.9767e-05
0.000509612
0.00111897
0.00172948
0.00231349
0.00238101
0.0017553
0.00113735
0.000519685
6.09119e-05
6.20596e-05
0.000532743
0.00115803
0.00176289
0.00230319
0.00247168
0.0018686
0.00122134
0.000559387
6.47848e-05
6.70039e-05
0.000591712
0.0012752
0.00194934
0.00262279
0.00259692
0.00200286
0.00133292
0.000621639
7.32956e-05
7.84281e-05
0.000681527
0.00144908
0.00215948
0.00277388
0.00303699
0.00238086
0.00160903
0.000756699
8.90999e-05
9.96633e-05
0.000853334
0.00182433
0.00274182
0.00357288
0.00388179
0.00292731
0.00194567
0.000911524
0.000107079
0.000111888
0.000923802
0.0019545
0.00293042
0.00385588
0.00365331
0.00285067
0.00191955
0.00091215
0.000113076
0.000115433
0.000923398
0.00195172
0.00292009
0.00380613
0.00385195
0.00297084
0.00199935
0.00095096
0.000119843
0.000124539
0.000993393
0.00208909
0.00313966
0.00410442
0.00420234
0.0031755
0.00211911
0.00101345
0.000129202
0.000132255
0.00100976
0.00209302
0.00309854
0.00397067
0.00415034
0.00317951
0.00212557
0.00101742
0.000126831
0.000125694
0.00101519
0.00211861
0.00317769
0.00421512
0.00396002
0.00308243
0.00207423
0.000995929
0.000123928
0.000123377
0.00100689
0.00210613
0.0031592
0.00413225
0.00419212
0.00315703
0.00210381
0.00100977
0.000123467
0.000122764
0.000992642
0.00206134
0.00306111
0.0039363
0.00410816
0.00313504
0.00208801
0.000997738
0.000122031
0.00012154
0.000997819
0.00208357
0.00313285
0.0041682
0.00391161
0.00303467
0.00203663
0.000972195
0.0001205
0.000120229
0.000982633
0.0020652
0.00310986
0.00408499
0.00414491
0.00310855
0.00206175
0.000983925
0.000120176
0.000119003
0.000965328
0.00201895
0.00301179
0.00388783
0.00405929
0.0030842
0.00204425
0.000969981
0.000118393
0.000117773
0.000961177
0.00203116
0.00307659
0.00411289
0.00385046
0.00297403
0.00198328
0.000940372
0.000116556
0.000115606
0.000938204
0.00199978
0.00303828
0.00401654
0.00405427
0.00302265
0.00198645
0.000932107
0.000114094
0.000113153
0.000918314
0.00194075
0.00291859
0.0037873
0.00392768
0.00297621
0.00196622
0.0009275
0.000113808
0.000115615
0.000942188
0.00199472
0.00300118
0.00393382
0.00416936
0.00314825
0.00206466
0.000967923
0.000118147
0.000119329
0.000970651
0.00207286
0.00315161
0.00422396
0.00395093
0.00304332
0.00202118
0.000955016
0.000118987
0.000118267
0.000955336
0.00203876
0.00310499
0.00411548
0.00413785
0.0030763
0.00201398
0.000943133
0.000116726
0.000115135
0.000917928
0.00195858
0.00296102
0.00384905
0.00398676
0.00300902
0.00197557
0.000922857
0.000114701
0.000115905
0.000933139
0.00199711
0.00302431
0.00397915
0.00421471
0.00316697
0.00206333
0.000956705
0.000117572
0.000118226
0.000959734
0.0020643
0.00316038
0.00425579
0.00396233
0.00303935
0.00200594
0.000937359
0.000117458
0.000116373
0.000936034
0.00201895
0.00309835
0.0041279
0.00414154
0.00306259
0.00199081
0.000920411
0.000115149
0.000114073
0.00089977
0.00193192
0.00293681
0.00383479
0.00397166
0.00298147
0.00194493
0.000900805
0.000113894
0.000114843
0.000910833
0.00196371
0.00299063
0.0039551
0.00419166
0.00313177
0.00202484
0.000931468
0.000116584
0.000116925
0.000932125
0.00202458
0.00312235
0.00422581
0.00391541
0.00299292
0.0019648
0.000911581
0.000115934
0.000114996
0.000907996
0.00197185
0.0030455
0.00407773
0.00408445
0.00300746
0.00194206
0.000890735
0.000113791
0.000111985
0.000859676
0.00187379
0.00286885
0.00376515
0.00389828
0.0029107
0.00188144
0.000862322
0.000111473
0.000112116
0.000869703
0.00189626
0.00290854
0.00386822
0.00410147
0.00304081
0.00194868
0.000887915
0.000113266
0.000113701
0.000888013
0.00194363
0.00301969
0.00411647
0.0037913
0.00288452
0.00188265
0.0008677
0.000112545
0.000112715
0.000868009
0.00189155
0.00292731
0.00392571
0.00389245
0.00292684
0.00190847
0.000878199
0.000114041
0.000115365
0.000893222
0.00195507
0.00305088
0.00412209
0.00413402
0.00302977
0.00194462
0.000887779
0.000115058
0.000113482
0.000855268
0.00187585
0.00288199
0.0037929
0.0039258
0.00291936
0.00187727
0.000853891
0.000112771
0.000113262
0.000858114
0.00188396
0.00290806
0.00388114
0.00411001
0.00303014
0.00193112
0.00087336
0.000113985
0.000113808
0.000870924
0.0019209
0.00300455
0.00411483
0.00376612
0.00285501
0.00185345
0.000848756
0.000112927
0.000112845
0.000844877
0.00185678
0.00289252
0.00389953
0.00385192
0.002881
0.00186502
0.00085012
0.000113439
0.000114443
0.000864971
0.0019122
0.00300569
0.00408292
0.00408738
0.0029775
0.00189817
0.000861636
0.000114529
0.000113456
0.000827171
0.0018257
0.00282281
0.00373174
0.00386419
0.00285532
0.00182201
0.000821037
0.000112612
0.000113018
0.000830154
0.00183063
0.00284262
0.00381351
0.00403995
0.00296327
0.00187634
0.000843793
0.000113884
0.000113159
0.000838432
0.00186003
0.00293228
0.00403919
0.00367497
0.00277328
0.00178602
0.000806736
0.000111501
0.000110356
0.000800563
0.00178228
0.00280335
0.00380645
0.00374371
0.0027823
0.00178302
0.000801964
0.000110471
0.000111212
0.000815328
0.00182322
0.0028952
0.00396795
0.00396175
0.00286211
0.00180488
0.00080002
0.000110614
0.000108293
0.00076096
0.00171959
0.00269399
0.00358686
0.00371412
0.00271713
0.00171253
0.00075648
0.000106848
0.000108019
0.000768179
0.00171951
0.00270038
0.0036481
0.00385101
0.00280969
0.00177525
0.000793886
0.000110668
0.000112575
0.00080839
0.00179934
0.00281393
0.00379534
0.00403376
0.00294123
0.00184806
0.000825883
0.000114286
0.000114383
0.000820857
0.00183737
0.00291068
0.00402465
0.00363846
0.00273228
0.00174525
0.000776766
0.000112516
0.000111253
0.000770824
0.00173546
0.00275662
0.00377253
0.00369509
0.00272838
0.001733
0.000772497
0.000111073
0.000111122
0.000781971
0.00176716
0.00283771
0.00391747
0.00390176
0.00279878
0.0017476
0.000762758
0.000109988
0.000107713
0.000734668
0.00166188
0.00262229
0.00351306
0.0036421
0.00264658
0.00165383
0.000729012
0.000106901
0.000107127
0.000732045
0.00165559
0.00261989
0.00356218
0.00376834
0.00272666
0.0017055
0.00075448
0.000108887
0.000111195
0.000767831
0.00172598
0.00272375
0.00369648
0.00393019
0.00284397
0.00176728
0.000777417
0.000112319