/*--------------------------------*- C++ -*----------------------------------*\
| =========                 |                                                 |
| \\      /  F ield         | OpenFOAM: The Open Source CFD Toolbox           |
|  \\    /   O peration     | Version:  v2006                                 |
|   \\  /    A nd           | Website:  www.openfoam.com                      |
|    \\/     M anipulation  |                                                 |
\*---------------------------------------------------------------------------*/
FoamFile
{
    version     2.0;
    format      ascii;
    class       volScalarField;
    location    "0.004";
    object      turbulenceProperties:I;
}
// * * * * * * * * * * * * * * * * * * * * * * * * * * * * * * * * * * * * * //

dimensions      [0 0 0 0 0 0 0];


internalField   nonuniform List<scalar> 
16277
(
0.145418
0.145452
0.149537
0.149709
0.149679
0.149674
0.149444
0.14947
0.149654
0.149687
0.149452
0.148958
0.148379
0.147911
0.14755
0.147265
0.147042
0.146876
0.146755
0.146662
0.146577
0.146476
0.146333
0.146115
0.145792
0.145349
0.144791
0.144146
0.143453
0.142749
0.142061
0.141404
0.14079
0.140222
0.139703
0.139235
0.138817
0.138446
0.138115
0.137817
0.137547
0.137301
0.137078
0.136878
0.136701
0.136546
0.136409
0.136287
0.136169
0.136046
0.135906
0.135736
0.135527
0.135275
0.134981
0.134651
0.134294
0.133918
0.133531
0.13314
0.132752
0.132373
0.132007
0.13166
0.131336
0.131038
0.130773
0.130545
0.13036
0.130224
0.130142
0.130123
0.130174
0.130305
0.130529
0.130861
0.131316
0.131901
0.13261
0.133407
0.134269
0.135188
0.136213
0.137284
0.138524
0.139791
0.141252
0.141179
0.137435
0.143706
0.14919
0.148406
0.148342
0.145964
0.144649
0.142552
0.134548
0.101804
0.111905
0.123801
0.100353
0.0877017
0.0858936
0.0848459
0.0843222
0.0951777
0.101662
0.0901765
0.0879016
0.0929831
0.103906
0.117808
0.127381
0.110949
0.0955333
0.0969257
0.116056
0.134018
0.136298
0.117318
0.0973161
0.0968089
0.118134
0.137613
0.136865
0.116466
0.0948755
0.094211
0.115441
0.136369
0.135026
0.113912
0.0936368
0.0939776
0.11454
0.135622
0.136048
0.114964
0.0943433
0.0954652
0.117586
0.138852
0.141089
0.119517
0.0964508
0.0987125
0.124635
0.1469
0.149873
0.126982
0.0999173
0.102826
0.132927
0.15693
0.160357
0.135637
0.104306
0.10781
0.142423
0.168223
0.17162
0.145129
0.10925
0.11255
0.151436
0.178952
0.181714
0.153574
0.113781
0.116671
0.158647
0.187654
0.189668
0.160183
0.117674
0.119795
0.163952
0.194135
0.195514
0.164998
0.120535
0.121939
0.167626
0.198651
0.199685
0.168459
0.122559
0.123621
0.170286
0.201824
0.20242
0.170698
0.123751
0.124727
0.172282
0.204075
0.203912
0.172038
0.124448
0.125406
0.173531
0.205359
0.204504
0.172747
0.124924
0.12601
0.174063
0.205624
0.203719
0.172482
0.12532
0.126436
0.173539
0.204301
0.201217
0.171181
0.125408
0.126596
0.172082
0.201366
0.197305
0.169146
0.125289
0.126351
0.169713
0.196841
0.191212
0.165541
0.124124
0.124232
0.16499
0.189467
0.180966
0.158064
0.12063
0.11985
0.15573
0.177329
0.166691
0.14723
0.116685
0.116584
0.145111
0.162675
0.153767
0.138911
0.115155
0.116217
0.138696
0.151517
0.146317
0.135642
0.116224
0.118053
0.137159
0.146609
0.145179
0.136881
0.118999
0.121415
0.139746
0.147319
0.148583
0.141346
0.122894
0.12575
0.145347
0.15178
0.154587
0.148504
0.127876
0.131699
0.154028
0.158652
0.162553
0.159556
0.135289
0.141489
0.167402
0.167543
0.172068
0.175101
0.147446
0.154634
0.184486
0.177319
0.181173
0.190558
0.158685
0.160874
0.194668
0.183687
0.181156
0.190517
0.157727
0.154916
0.18514
0.174961
0.163546
0.176943
0.151334
0.149741
0.172844
0.152329
0.141416
0.168122
0.148066
0.147547
0.166989
0.13395
0.129441
0.164421
0.146468
0.145881
0.164009
0.12699
0.125523
0.161653
0.144451
0.142943
0.160603
0.124521
0.123567
0.157796
0.140809
0.138424
0.155875
0.122536
0.121239
0.152408
0.135445
0.13186
0.149144
0.119613
0.117628
0.144633
0.127754
0.122675
0.139542
0.115026
0.112033
0.133782
0.117157
0.110516
0.12676
0.108335
0.104181
0.119458
0.10369
0.0961681
0.110291
0.0993146
0.0933066
0.101039
0.0889244
0.0819785
0.0909258
0.087057
0.0794655
0.0808624
0.0752945
0.0699005
0.0713605
0.0731136
0.0657381
0.0626603
0.0657294
0.0632986
0.0553896
0.0601257
0.0538887
0.0489069
0.0613367
0.0601247
0.0443799
0.0501756
0.0460459
0.0398146
0.0591158
0.0583831
0.0369768
0.0436247
0.0409276
0.0341534
0.0584507
0.058868
0.0327264
0.0393865
0.0382576
0.031546
0.0614645
0.0627747
0.0311949
0.0383512
0.038712
0.0311812
0.065251
0.0666273
0.0327044
0.0413586
0.0450873
0.0338394
0.0685831
0.0700469
0.0367871
0.0495676
0.0550953
0.0388859
0.0715889
0.073075
0.0427901
0.0602246
0.0666481
0.0458261
0.0743637
0.0758813
0.0499758
0.0715538
0.0781941
0.0536997
0.0770539
0.0786626
0.0575307
0.0826134
0.0893929
0.0616088
0.0800177
0.0817094
0.0651049
0.0936598
0.100629
0.0695502
0.0834423
0.0855788
0.0732855
0.105385
0.112872
0.0781482
0.0878478
0.0906672
0.0825342
0.118494
0.126597
0.0876668
0.0936345
0.0973425
0.0928497
0.133556
0.142303
0.0982395
0.101184
0.105905
0.104122
0.150907
0.161394
0.110223
0.110836
0.116752
0.116866
0.171526
0.185744
0.12428
0.123013
0.130394
0.131978
0.198057
0.217402
0.140976
0.138382
0.147471
0.150448
0.234192
0.259221
0.161075
0.157574
0.169812
0.174335
0.287843
0.319157
0.186454
0.181938
0.19977
0.206886
0.374862
0.411526
0.219232
0.212838
0.241161
0.253549
0.5358
0.585299
0.265816
0.254632
0.294357
0.315896
0.850882
1
0.336955
0.314011
0.372363
0.415843
1
1
0.451561
0.400802
0.489716
0.586529
1
1
0.66157
0.53633
0.677534
0.928036
1
0.983821
1
0.763243
1
1
0.748589
0.670174
1
1
1
1
0.570502
0.533104
1
1
1
1
0.481805
0.458952
1
1
1
1
0.430454
0.415116
1
1
1
0.983675
0.399138
0.387195
0.908501
1
1
0.823563
0.37889
0.369142
0.783917
1
1
0.738249
0.36487
0.357702
0.716557
1
1
0.6936
0.357732
0.353835
0.684383
1
1
0.678501
0.359457
0.360558
0.682659
1
1
0.693632
0.374046
0.382174
0.716836
1
1
0.749419
0.405307
0.423086
0.805711
1
1
0.875478
0.460209
0.494738
1
1
1
1
0.557751
0.622245
1
1
1
1
0.751282
0.866625
1
1
1
1
1
1
1
1
1
1
1
1
0.893016
1
1
0.556889
1
1
0.585805
1
0.736086
0.386424
0.872262
1
0.629834
1
0.821151
0.478779
0.8763
1
0.458625
0.224267
0.260671
0.183037
0.152324
0.147018
0.163126
0.169508
0.187219
0.188998
0.194107
0.18991
0.181325
0.180727
0.161665
0.169526
0.176858
0.192377
0.185874
0.220977
0.281547
0.37004
0.386444
0.141016
0.128333
0.384733
0.388406
0.402778
0.376974
0.120518
0.117341
0.428909
0.486299
0.461511
0.411395
0.114245
0.114278
0.453683
0.535295
0.525301
0.478044
0.113898
0.113847
0.492246
0.558289
0.475025
0.440833
0.113102
0.111979
0.427138
0.495235
0.553856
0.50146
0.113819
0.113917
0.495312
0.582968
0.501734
0.457751
0.113827
0.112632
0.437962
0.518925
0.604861
0.539254
0.114863
0.115105
0.533209
0.640807
0.545439
0.491987
0.115214
0.114131
0.467534
0.572566
0.668736
0.583043
0.116518
0.116577
0.572906
0.698332
0.575395
0.521999
0.116642
0.11526
0.489823
0.599597
0.699898
0.614987
0.117655
0.117659
0.597559
0.734261
0.59533
0.540883
0.117735
0.116289
0.505057
0.620842
0.72806
0.641024
0.118779
0.118813
0.622002
0.766049
0.613548
0.560025
0.118915
0.11743
0.52147
0.640996
0.754721
0.669933
0.119993
0.120046
0.649512
0.797167
0.628772
0.581435
0.120175
0.118655
0.540581
0.660829
0.781816
0.704757
0.121289
0.12132
0.6849
0.830197
0.650765
0.60702
0.121435
0.120053
0.563172
0.701936
0.840829
0.748978
0.122811
0.122809
0.731414
0.892778
0.690992
0.64623
0.122954
0.121554
0.599723
0.753631
0.925704
0.828163
0.124486
0.12457
0.814847
0.999598
0.761787
0.718139
0.124802
0.123408
0.667348
0.846169
1
0.98227
0.126559
0.126753
0.976991
1
0.888759
0.854778
0.127118
0.125764
0.796596
1
1
1
0.129111
0.129439
1
1
1
1
0.130031
0.128858
1
1
1
1
0.132288
0.132893
1
1
1
1
0.133704
0.13242
1
1
1
1
0.136963
0.13747
1
1
1
1
0.138403
0.136997
1
1
1
1
0.142958
0.144027
1
1
1
1
0.145091
0.143783
1
1
1
0.81366
0.150959
0.153095
0.741247
1
1
0.745926
0.154701
0.153895
0.70135
1
0.819025
0.501507
0.16345
0.166695
0.465717
0.718574
0.810238
0.461465
0.169069
0.169445
0.437746
0.67302
0.566242
0.349577
0.183503
0.189181
0.327765
0.517582
0.551546
0.321016
0.194076
0.196533
0.3045
0.482813
0.424807
0.258519
0.221497
0.23381
0.244338
0.395954
0.408836
0.237751
0.24499
0.249687
0.226593
0.375181
0.33442
0.198502
0.309019
0.341157
0.189455
0.318238
0.320056
0.183006
0.378669
0.423035
0.173649
0.295718
0.269847
0.156602
0.706694
1
0.149742
0.259586
0.25971
0.144515
1
1
0.138374
0.245867
0.230515
0.12847
1
0.798539
0.124576
0.225198
0.226614
0.121953
0.605123
0.476939
0.117463
0.217386
0.209612
0.112344
0.365861
0.315753
0.108965
0.2052
0.204298
0.105923
0.279391
0.251912
0.102161
0.197703
0.192241
0.0987752
0.225282
0.206752
0.0969847
0.189101
0.18846
0.095766
0.19263
0.179925
0.0927956
0.182441
0.175552
0.0894767
0.168502
0.158912
0.0866572
0.167731
0.155134
0.0780887
0.149365
0.140651
0.066466
0.130117
0.110457
0.060972
0.132249
0.120699
0.0588976
0.101625
0.108835
0.0657696
0.117637
0.13043
0.0353034
0.0494168
0.0886383
0.0430073
0.120153
0.115466
0.0441365
0.0927792
0.0995681
0.0454256
0.113896
0.110644
0.0458783
0.100844
0.105102
0.0470484
0.107669
0.104541
0.0487208
0.10728
0.112577
0.0510254
0.10094
0.0973022
0.0525984
0.114498
0.11727
0.0529922
0.093443
0.0902735
0.0517261
0.112415
0.0908856
0.0424766
0.0860182
0.0968202
0.0426138
0.0782612
0.0438923
0.034788
0.119627
0.104096
0.0338413
0.0686594
0.0839156
0.0395617
0.0975767
0.0936976
0.0470457
0.103909
0.114881
0.0531007
0.0914468
0.0903736
0.0596693
0.127606
0.136285
0.0673972
0.0905013
0.0907214
0.0765666
0.14061
0.0858369
0.0590236
0.0974157
0.114542
0.0501698
0.0666009
0.0889593
0.0514208
0.103731
0.10015
0.0554407
0.101735
0.120719
0.064132
0.101041
0.101955
0.0727485
0.134401
0.191866
0.099701
0.102257
0.109264
0.114138
0.142664
0.124374
0.0912737
0.113963
0.108664
0.110025
0.17905
0.257732
0.143612
0.115208
0.132374
0.170887
0.30963
1
0.324773
0.158036
0.134796
0.327059
0.281272
0.798162
0.600951
0.117652
0.134432
0.727854
1
0.410025
1
0.220515
0.59216
0.250317
0.220245
0.285213
0.327301
0.412859
1
0.223724
0.213844
0.160625
0.170925
0.656918
0.407403
0.140526
0.137239
0.114925
0.0866895
0.261686
0.270945
0.110427
0.10535
0.0953999
0.0970398
0.198057
0.151136
0.0676877
0.085027
0.0780158
0.0879625
0.174011
0.148986
0.0728246
0.0688904
0.0629445
0.0470154
0.106046
0.126961
0.0675892
0.0566948
0.0513855
0.0410613
0.0892844
0.1098
0.0588563
0.0459345
0.0409063
0.0420685
0.0742371
0.075414
0.0342385
0.0326778
0.0306726
0.0357902
0.0824343
0.0979817
0.0352623
0.0295944
0.0312567
0.0346507
0.106242
0.113624
0.0228199
0.0311249
0.0514655
0.0738344
0.136271
0.130133
0.061758
0.0424665
0.0610909
0.0839127
0.147294
0.132058
0.0663663
0.0512112
0.0583086
0.0821571
0.14394
0.165539
0.0927591
0.0725473
0.0600837
0.080473
0.147595
0.171403
0.0914883
0.0699163
0.0592759
0.0755572
0.142005
0.152966
0.0862019
0.0629703
0.0744412
0.0971036
0.183341
0.146395
0.0798994
0.0632335
0.0655276
0.0881888
0.157487
0.184012
0.0965623
0.0737708
0.0636336
0.0779722
0.144058
0.157196
0.0854825
0.0641222
0.0705337
0.093227
0.184169
0.142149
0.0748331
0.061973
0.0593894
0.0793013
0.155421
0.182583
0.0873632
0.0646807
0.0548346
0.0659341
0.137655
0.153829
0.0719556
0.0518989
0.057905
0.0823242
0.183338
0.142475
0.0613853
0.0497034
0.0491016
0.0701112
0.158073
0.187115
0.0803386
0.0546409
0.0482155
0.0604519
0.147924
0.164878
0.0689111
0.0489252
0.0539825
0.0796362
0.200029
0.160978
0.0642067
0.0495095
0.0527278
0.0704229
0.184206
0.206049
0.0855831
0.0616535
0.0709331
0.0893444
0.230688
0.193957
0.0789911
0.0668034
0.0742375
0.0893586
0.22418
0.302073
0.0960214
0.0801089
0.088433
0.102313
0.276135
0.330792
0.119701
0.101301
0.102217
0.128983
0.932918
0.415733
0.147239
0.139856
0.146388
0.156168
0.43105
1
0.158571
0.126233
0.184232
0.175945
0.417486
0.400547
0.159748
0.165102
0.110182
0.139532
0.648491
0.286851
0.15135
0.172796
0.148494
0.134915
0.299333
0.357424
0.121897
0.0911244
0.150184
0.127712
0.216621
0.234502
0.111603
0.120778
0.0822022
0.0991202
0.249502
0.178871
0.0967991
0.114049
0.0959068
0.0917373
0.199625
0.216619
0.0858719
0.0721518
0.0913103
0.0870066
0.164911
0.193038
0.0822157
0.0719372
0.0970635
0.0872542
0.152146
0.16913
0.0876147
0.0887307
0.0723996
0.0869552
0.187213
0.146734
0.0894446
0.095386
0.0883951
0.0876064
0.160281
0.17441
0.0840062
0.0738263
0.0893936
0.0817066
0.135377
0.149195
0.0783429
0.0781561
0.0669643
0.0772376
0.165113
0.128636
0.0682479
0.0697464
0.0628291
0.0681746
0.144256
0.161198
0.0742295
0.057894
0.0585848
0.0589572
0.122586
0.13933
0.0643976
0.0543941
0.0530966
0.0720052
0.15631
0.125603
0.0541618
0.0499754
0.0492594
0.0646349
0.14614
0.118148
0.0543037
0.0510456
0.049442
0.0586836
0.130702
0.150483
0.071778
0.0516093
0.0509766
0.0558227
0.117606
0.130367
0.0572966
0.0479871
0.0506033
0.0733974
0.149848
0.117954
0.0498188
0.0470312
0.0468021
0.0639981
0.138032
0.110626
0.0505394
0.0463989
0.0435905
0.0513795
0.120243
0.140634
0.071077
0.046744
0.0445362
0.0502147
0.112084
0.122679
0.0520023
0.0427241
0.047163
0.0726375
0.142751
0.113851
0.0458594
0.0422403
0.0438806
0.0632893
0.132736
0.107171
0.0472218
0.0423573
0.0409218
0.0487996
0.116181
0.135565
0.0706136
0.0453127
0.0416288
0.0480679
0.109333
0.118547
0.0491216
0.0397904
0.0453088
0.0720084
0.138038
0.110908
0.043141
0.0390584
0.0412456
0.061764
0.128489
0.102717
0.0423129
0.0374005
0.0357839
0.044992
0.112119
0.131224
0.0700794
0.0422838
0.0371884
0.0411013
0.106762
0.123843
0.061045
0.0399738
0.0360601
0.0412135
0.100187
0.109544
0.0435142
0.0348158
0.0423381
0.0699959
0.127953
0.104837
0.0415186
0.036352
0.0397002
0.0609022
0.121091
0.0970819
0.0405732
0.0355566
0.0343219
0.0434305
0.106152
0.124091
0.0695264
0.042411
0.0349091
0.0397146
0.102056
0.118352
0.0600849
0.0391654
0.0336921
0.0389179
0.0961214
0.105226
0.042386
0.0327072
0.042086
0.0689457
0.122871
0.100657
0.03937
0.0341751
0.0390713
0.0596217
0.116032
0.0950261
0.0384245
0.0327557
0.0318296
0.0413575
0.103583
0.120663
0.0683738
0.0417712
0.033203
0.0379816
0.100088
0.116136
0.0611711
0.0397971
0.0318762
0.0347635
0.0945983
0.11002
0.0579575
0.0377363
0.0311389
0.0367693
0.0905131
0.0985806
0.0404604
0.0304318
0.0408376
0.066559
0.114694
0.0951853
0.0376139
0.0317856
0.0382526
0.0587471
0.110456
0.0910185
0.0365403
0.0302737
0.0297981
0.0403818
0.0995076
0.115658
0.0668012
0.0412819
0.0314646
0.0371943
0.0972442
0.112554
0.0600835
0.0391249
0.0300749
0.0339
0.0929234
0.106141
0.0566269
0.0368439
0.0286717
0.035114
0.0870337
0.0949957
0.0385419
0.0283662
0.0400386
0.064768
0.11048
0.0927369
0.0362686
0.0303039
0.0381167
0.0580494
0.107874
0.0893086
0.0326396
0.0290091
0.0364098
0.0557488
0.102605
0.085873
0.0350979
0.0280102
0.0280738
0.0395742
0.0939895
0.108651
0.0645658
0.0402849
0.0301138
0.0364135
0.091089
0.105806
0.057861
0.0381512
0.0285983
0.0326313
0.0875872
0.100347
0.0552482
0.0361889
0.0272153
0.0343975
0.0833546
0.0907913
0.0383504
0.027271
0.0396165
0.0632513
0.105317
0.0890915
0.0360009
0.0295279
0.03786
0.0572906
0.10342
0.0868881
0.0329023
0.0282291
0.0360166
0.0549329
0.0989402
0.0825446
0.0345727
0.0269391
0.0271315
0.0386361
0.0900513
0.104661
0.062968
0.0399878
0.0294747
0.0357281
0.0892024
0.103394
0.0567292
0.0379405
0.0279762
0.0318506
0.0861205
0.0983698
0.0546271
0.0361635
0.026437
0.0342423
0.0820238
0.0892906
0.0381728
0.0267319
0.0398323
0.0630079
0.103487
0.0876705
0.035985
0.0292346
0.0377655
0.0568319
0.101525
0.0840319
0.0317781
0.0276437
0.0360767
0.0538599
0.0965696
0.081426
0.0313792
0.026707
0.0350095
0.0528501
0.0932804
0.0785855
0.0336776
0.0257017
0.0262913
0.0382022
0.0857306
0.0996221
0.0618667
0.0395097
0.0290329
0.0359726
0.0856984
0.0997919
0.0562861
0.0377142
0.0277262
0.0325551
0.0842503
0.0961923
0.0539675
0.0361103
0.0267726
0.0316751
0.0804817
0.0917418
0.0527481
0.0349966
0.0256237
0.0337243
0.0774885
0.0842988
0.0374097
0.026092
0.039045
0.0606667
0.09768
0.0834862
0.0353259
0.0287181
0.0372114
0.0552744
0.0971329
0.0815527
0.031714
0.02726
0.0356308
0.0527561
0.0931734
0.0787551
0.0312598
0.0264905
0.0347365
0.0522555
0.0897737
0.0763651
0.0337492
0.0255396
0.0261558
0.0376093
0.0829217
0.0958231
0.0602876
0.0389981
0.0288312
0.0355562
0.0823645
0.0957772
0.0548455
0.0372255
0.0274133
0.0316673
0.0807326
0.0924836
0.0528318
0.0357696
0.0266687
0.0316352
0.0783543
0.0892604
0.0520234
0.0347531
0.0255416
0.0336006
0.075566
0.0822147
0.0377039
0.0260868
0.0390329
0.0598224
0.095125
0.082005
0.0355011
0.0288836
0.0372533
0.054677
0.0948447
0.0796453
0.0316593
0.0274079
0.0356797
0.0524408
0.0909137
0.0773459
0.0314477
0.0267008
0.0349039
0.0513998
0.0886761
0.0756841
0.0313887
0.0262638
0.0343585
0.0508359
0.0860772
0.0738604
0.0336552
0.025424
0.0261094
0.0375231
0.0803637
0.093206
0.0594017
0.0388183
0.0288427
0.035492
0.080259
0.0934129
0.0542469
0.0372106
0.0275393
0.0318576
0.0789961
0.090054
0.0521844
0.0356678
0.0267611
0.0314544
0.0763812
0.0871695
0.0510818
0.0348019
0.026189
0.0314521
0.0746634
0.0847701
0.0503951
0.0340288
0.0251592
0.0331777
0.0723078
0.0784424
0.0365891
0.0257606
0.038158
0.0579073
0.0905307
0.077498
0.0346974
0.0284701
0.0368025
0.0533923
0.0899146
0.0760873
0.0318284
0.0272918
0.0352801
0.0511637
0.0871368
0.0744371
0.0312728
0.0266591
0.0346961
0.0505101
0.0850001
0.0729438
0.0315837
0.0263309
0.034002
0.0496382
0.0827651
0.0711718
0.0332283
0.0254083
0.0260959
0.0369618
0.0772326
0.0892439
0.0576474
0.0382145
0.0287244
0.0351014
0.0775211
0.0897194
0.0529347
0.0367072
0.0274486
0.0317986
0.0765402
0.0872725
0.0509232
0.0352913
0.0267935
0.0311395
0.0744884
0.0847158
0.0500949
0.0345931
0.0262938
0.031249
0.0725859
0.0819846
0.0495678
0.0340227
0.0253812
0.0330517
0.0700769
0.0759554
0.0365852
0.0259772
0.0378953
0.0568322
0.0875811
0.0758119
0.0346941
0.0284411
0.0364316
0.0522689
0.0877063
0.0745408
0.031556
0.0273243
0.0349349
0.0500815
0.0849751
0.0727627
0.0309948
0.0266486
0.0343331
0.0493809
0.0827657
0.0712962
0.031242
0.0262706
0.0338286
0.0490311
0.0807083
0.0694485
0.033088
0.0254441
0.0261361
0.0368196
0.0754431
0.0872224
0.0567618
0.0380074
0.0287385
0.0348146
0.0755307
0.0874936
0.0523696
0.0366052
0.0275872
0.0318548
0.0743738
0.0846324
0.050144
0.0351383
0.0268874
0.0311808
0.0726727
0.0826391
0.0493398
0.034467
0.0264778
0.0311286
0.0711379
0.0808078
0.0488887
0.0340375
0.0261526
0.0312433
0.0695478
0.0786556
0.0482582
0.0334443
0.0251462
0.0325692
0.0673525
0.0729228
0.0359431
0.0257429
0.0372033
0.055092
0.083939
0.0726353
0.0341841
0.0282426
0.0358109
0.0508095
0.0838392
0.0714201
0.0312517
0.0271103
0.0344887
0.0489306
0.0811407
0.0696435
0.0309082
0.0265487
0.0339159
0.0483536
0.0790211
0.0682136
0.0312345
0.02617
0.0333279
0.0475589
0.0770214
0.0664895
0.0324902
0.0252647
0.0259772
0.0359095
0.0720483
0.0828577
0.0546944
0.0372449
0.0284281
0.0342383
0.0719054
0.0831442
0.0507131
0.0358738
0.0274121
0.0316292
0.0713695
0.0810612
0.0488641
0.0345873
0.0268276
0.0310238
0.0697637
0.0788878
0.0481368
0.0340095
0.026382
0.0311323
0.068062
0.0766899
0.0474281
0.0333862
0.025342
0.0324327
0.0658396
0.0714895
0.0356619
0.0259461
0.0370622
0.0543921
0.0820944
0.0709998
0.0342016
0.0282717
0.0355892
0.0501374
0.0817896
0.0698887
0.0313287
0.0271911
0.0342614
0.0482807
0.0791418
0.0681035
0.0308707
0.0265946
0.0336255
0.0473689
0.0770596
0.0666279
0.0308541
0.0261293
0.0329678
0.0466812
0.0749252
0.0645094
0.0321183
0.025174
0.0258486
0.035435
0.0700883
0.0806514
0.0536714
0.0367007
0.0281011
0.0338027
0.0700294
0.0808184
0.0497246
0.035386
0.0272086
0.0313356
0.0692551
0.0785371
0.0481373
0.0341965
0.0267139
0.0310365
0.0676939
0.0764748
0.0472852
0.0336727
0.0262615
0.0309219
0.0660449
0.0742598
0.0464556
0.0329941
0.0252038
0.0319581
0.0638718
0.0693279
0.0349764
0.0257738
0.0363319
0.0529025
0.0794593
0.0690692
0.0335422
0.0279158
0.0350059
0.0489718
0.079099
0.0676216
0.0309652
0.0269052
0.0336786
0.0469553
0.0762526
0.0654742
0.0304589
0.026243
0.0329506
0.0461821
0.0737892
0.0639851
0.0321221
0.0253378
0.0260039
0.035295
0.0697696
0.0801626
0.0534843
0.0367616
0.0283323
0.0339477
0.0697187
0.079905
0.0492784
0.0352918
0.0272612
0.0311971
0.0684424
0.0771517
0.0474176
0.03401
0.0265205
0.0307491
0.0661066
0.0740929
0.0464102
0.0331542
0.0253942
0.0319892
0.0635115
0.0690268
0.0348762
0.0259038
0.0363526
0.0528094
0.0791809
0.0686675
0.033482
0.0280032
0.0347837
0.0484159
0.0784577
0.0665822
0.0304559
0.0268009
0.0335093
0.0465804
0.0752864
0.0653222
0.0305216
0.0262613
0.0329568
0.0461193
0.0733849
0.0631083
0.0320185
0.0253552
0.0259718
0.0351618
0.0688889
0.0791186
0.0530237
0.0364646
0.028113
0.0336626
0.068535
0.0784859
0.04861
0.0349639
0.027088
0.0308057
0.0670237
0.0752916
0.0465816
0.0336075
0.026253
0.0304379
0.0646723
0.0726123
0.045579
0.0326724
0.0250751
0.0314745
0.0622552
0.067645
0.0340913
0.025526
0.0356303
0.0513803
0.0773069
0.0668234
0.0325983
0.0275001
0.0343431
0.0477091
0.076509
0.0656576
0.0305494
0.0266194
0.0331332
0.0457914
0.0737599
0.0634794
0.0300763
0.0259759
0.0324487
0.0450931
0.0714345
0.0614827
0.031473
0.0250139
0.0255792
0.0343643
0.0670325
0.0766699
0.0515359
0.0357492
0.0276556
0.0329728
0.0664498
0.0754724
0.0473108
0.0342449
0.0264885
0.0305004
0.0642589
0.0722324
0.0452766
0.032742
0.0250301
0.031145
0.061587
0.0665344
0.0332357
0.0253918
0.0354082
0.0511669
0.0759877
0.0657745
0.0326678
0.0274124
0.034091
0.0470636
0.0747942
0.0640401
0.0303607
0.0264432
0.0327733
0.0451572
0.0721886
0.0618999
0.0297574
0.0257206
0.0319736
0.0442879
0.0697307
0.0598669
0.0307969
0.0245995
0.0251976
0.0335768
0.0652227
0.0740392
0.0504032
0.0351009
0.0270689
0.0325741
0.0640044
0.0727597
0.0461665
0.0335845
0.0260015
0.0299701
0.0619505
0.0697495
0.0441451
0.0320454
0.0245445
0.030382
0.0590331
0.064298
0.0328223
0.0249703
0.0347524
0.049747
0.0733887
0.0636804
0.0322046
0.0269117
0.0334683
0.0459925
0.0724214
0.0616479
0.0300608
0.025916
0.0320437
0.0440709
0.0694485
0.0595856
0.0304819
0.0245555
0.0251137
0.0331523
0.0649117
0.07303
0.0499327
0.0348166
0.026754
0.0324093
0.062545
0.0711322
0.0457658
0.0332235
0.02507
0.0307847
0.0603755
0.0655925
0.0329689
0.0253399
0.0347252
0.0496252
0.0737465
0.0624677
0.0316821
0.0268511
0.0334226
0.0458813
0.0716756
0.0614393
0.0301969
0.0259826
0.0322088
0.0443145
0.0695615
0.0597665
0.0306697
0.0247304
0.0252005
0.033366
0.0651923
0.0734606
0.0499397
0.0348698
0.0268354
0.0324154
0.0628845
0.071258
0.0455683
0.0331821
0.025007
0.0305605
0.0604274
0.0656576
0.0326337
0.0252797
0.0347217
0.0497191
0.0739543
0.0626348
0.0319269
0.0267212
0.0329809
0.0451682
0.0707458
0.0595402
0.0305081
0.0248187
0.0251691
0.0329773
0.0652773
0.0745762
0.0503914
0.0350719
0.0269772
0.0323256
0.0633932
0.0718683
0.0460755
0.0334431
0.025103
0.0307484
0.0607574
0.0660729
0.0328939
0.0253691
0.0349636
0.0501675
0.0745246
0.0631856
0.0321519
0.0268093
0.0332575
0.0456241
0.0715042
0.0604657
0.030611
0.0249618
0.0251771
0.0327039
0.0657567
0.0741757
0.0498642
0.0346489
0.0265115
0.0310551
0.0611265
0.0699631
0.0452035
0.0329114
0.0246482
0.0304914
0.059998
0.0657092
0.0326351
0.0250327
0.0347775
0.050081
0.0745149
0.0632296
0.0320147
0.0265712
0.0330991
0.0456085
0.0715696
0.0605857
0.0304637
0.0247313
0.0249897
0.0326063
0.0657235
0.0741052
0.0500054
0.0346447
0.0263763
0.0318413
0.0625017
0.070553
0.0451201
0.0327126
0.024162
0.0298453
0.0587564
0.0629148
0.0308504
0.0241864
0.0336641
0.048796
0.0719025
0.0616453
0.0317715
0.0250762
0.0253448
0.0334483
0.0672328
0.0760097
0.0510279
0.0354435
0.0267228
0.0322671
0.0641065
0.0722335
0.0459706
0.0332842
0.0245381
0.0302905
0.0608317
0.0656004
0.0322956
0.0247761
0.0342713
0.0497282
0.0736206
0.0619608
0.0321975
0.0252338
0.0250147
0.0323721
0.066191
0.0745373
0.0499593
0.0345102
0.025266
0.032132
0.0628089
0.0685317
0.03332
0.025377
0.03568
0.0516772
0.0776054
0.0649887
0.032351
0.0267958
0.0335021
0.0463847
0.0729316
0.0609479
0.0302805
0.0244471
0.0246462
0.0321468
0.0654692
0.0731856
0.0495505
0.0340695
0.0248493
0.0318377
0.0611554
0.0649526
0.0316935
0.0245937
0.0338978
0.0488905
0.0730582
0.0615437
0.0314029
0.0246588
0.0248405
0.0327596
0.0670345
0.0758964
0.0510122
0.0348887
0.0252293
0.0323333
0.0634116
0.0680191
0.0331338
0.025233
0.0349396
0.0508573
0.075892
0.062951
0.032022
0.0251618
0.0250078
0.0325859
0.0670841
0.0743545
0.0493768
0.0341616
0.0245143
0.0309551
0.0610982
0.0656265
0.0345115
0.0249736
0.0256448
0.0365835
0.0720286
0.0810858
0.0540613
0.0366124
0.0259931
0.033524
0.0667888
0.0712165
0.0337215
0.0257237
0.0352177
0.0515905
0.0787984
0.0638574
0.0317701
0.0249046
0.0245592
0.0329427
0.0661204
0.0706679
0.0346772
0.0248434
0.0357216
0.0532797
0.0804699
0.0667302
0.0327078
0.0251508
0.0255061
0.0354836
0.0710016
0.0763665
0.0371551
0.0260492
0.0367182
0.0547477
0.0835334
0.0653847
0.0325285
0.0252672
0.0248709
0.0336828
0.0682643
0.073388
0.035312
0.0249342
0.0356294
0.0536755
0.0834081
0.0681078
0.0325855
0.0247287
0.0242962
0.0321393
0.0716808
0.0768908
0.0387928
0.0256266
0.024801
0.0344502
0.0772487
0.0853094
0.055664
0.0363258
0.0247495
0.0329851
0.0698615
0.0749671
0.0336845
0.0247363
0.0251721
0.037949
0.0801228
0.0826432
0.0354897
0.0242037
0.0250004
0.0401223
0.0859086
0.0901681
0.0395769
0.0243259
0.0366769
0.0589836
0.098735
0.0729266
0.0332861
0.0243337
0.0238706
0.0331026
0.0752699
0.0807329
0.0372711
0.0242123
0.024257
0.0378935
0.0867411
0.092213
0.039315
0.0245732
0.0251241
0.0420763
0.0968472
0.101758
0.0444711
0.0257172
0.0262975
0.046698
0.10562
0.10762
0.0490651
0.0269135
0.0274226
0.0510243
0.108778
0.109475
0.0532437
0.0280412
0.0286082
0.0553783
0.109866
0.110033
0.0579066
0.0293882
0.0300679
0.060321
0.110103
0.110126
0.0627577
0.0310353
0.031851
0.0650891
0.110119
0.110111
0.0674227
0.0329628
0.0338999
0.0696727
0.110098
0.110097
0.0718875
0.0351337
0.0362299
0.0739607
0.110109
0.11014
0.0759106
0.0376828
0.0389356
0.0777521
0.110192
0.110269
0.0795066
0.0404899
0.0417889
0.0811849
0.110364
0.110483
0.0828192
0.0433359
0.0446303
0.0843767
0.110617
0.110774
0.0858878
0.0461718
0.0474628
0.087319
0.110945
0.111134
0.0887021
0.048997
0.0502889
0.0899965
0.111326
0.111531
0.0912461
0.0518129
0.0531038
0.0924015
0.111732
0.111943
0.093513
0.0546189
0.0559094
0.0945329
0.112145
0.112348
0.0955049
0.0574163
0.0586991
0.0963951
0.112541
0.11273
0.0972318
0.0602067
0.0614605
0.0979973
0.112906
0.113073
0.0987157
0.0629154
0.0641132
0.0993795
0.113227
0.113371
0.0999835
0.0655011
0.0666308
0.100554
0.1135
0.113623
0.101086
0.0679399
0.0689922
0.10156
0.113725
0.113828
0.102022
0.0702139
0.071186
0.102424
0.113909
0.113989
0.102818
0.0723135
0.0731985
0.10316
0.11405
0.11411
0.103496
0.0742307
0.0750296
0.103786
0.114154
0.114195
0.104067
0.0759654
0.0766757
0.104309
0.114222
0.114248
0.104541
0.0775152
0.0781414
0.10474
0.114262
0.11427
0.104926
0.0788867
0.0794325
0.105086
0.11427
0.11426
0.105223
0.080088
0.0805565
0.105341
0.114246
0.114219
0.10543
0.0811184
0.081516
0.105513
0.114192
0.114154
0.105563
0.0819929
0.082332
0.105621
0.114122
0.114075
0.105642
0.0827309
0.0830235
0.105683
0.114039
0.113988
0.10568
0.0833573
0.0836132
0.10571
0.113951
0.113895
0.105688
0.0838863
0.0841147
0.105706
0.113855
0.113798
0.10567
0.0843414
0.0845321
0.105673
0.113758
0.1137
0.105628
0.0847327
0.0848903
0.10562
0.113658
0.113602
0.10557
0.0850634
0.0851807
0.105552
0.113561
0.113506
0.105499
0.0853297
0.0854139
0.105477
0.113467
0.113416
0.105421
0.085544
0.0856018
0.105394
0.113379
0.113331
0.105336
0.0857148
0.0857556
0.105309
0.113298
0.113254
0.105251
0.0858572
0.0858864
0.105224
0.113226
0.113186
0.105167
0.0859778
0.086
0.105143
0.113162
0.113128
0.105088
0.0860848
0.0861081
0.105069
0.11311
0.11308
0.105018
0.0861884
0.0862131
0.105005
0.113069
0.113046
0.10496
0.0862943
0.0863245
0.104957
0.113042
0.113025
0.10492
0.0864089
0.0864478
0.104928
0.113029
0.11302
0.104901
0.0865392
0.0865888
0.104923
0.113032
0.113031
0.104907
0.0866874
0.0867485
0.104942
0.113052
0.113061
0.104939
0.0868569
0.0869306
0.10499
0.113093
0.113111
0.105001
0.0870488
0.0871362
0.105069
0.113154
0.113182
0.105094
0.0872666
0.0873683
0.105178
0.113236
0.113274
0.105218
0.0875099
0.0876257
0.105318
0.113339
0.113388
0.105373
0.08778
0.0879106
0.10549
0.113463
0.113521
0.105558
0.0880754
0.088221
0.105691
0.113606
0.113674
0.105773
0.0883977
0.0885584
0.105922
0.113771
0.113847
0.106018
0.0887456
0.0889213
0.106183
0.113952
0.114038
0.106293
0.08912
0.0893104
0.106473
0.114154
0.114248
0.106596
0.0895193
0.0897236
0.106791
0.114371
0.114474
0.106928
0.0899436
0.090162
0.107136
0.114606
0.114715
0.107287
0.0903908
0.0906208
0.107507
0.114853
0.11497
0.107672
0.0908613
0.0911011
0.107903
0.115114
0.115235
0.108078
0.0913511
0.0915993
0.108319
0.115382
0.115508
0.108506
0.0918598
0.0921161
0.108755
0.115659
0.115785
0.10895
0.092384
0.0926466
0.109206
0.115936
0.116064
0.109408
0.0929223
0.0931912
0.109669
0.116215
0.116339
0.109875
0.0934696
0.0937437
0.110139
0.116486
0.116609
0.110347
0.0940247
0.0943024
0.110613
0.116752
0.116867
0.11082
0.094582
0.0948614
0.111084
0.117003
0.117112
0.111289
0.0951398
0.0954192
0.11155
0.117241
0.11734
0.111751
0.0956926
0.09597
0.112005
0.117458
0.117548
0.112199
0.0962386
0.096512
0.112447
0.117657
0.117734
0.112632
0.0967737
0.0970399
0.11287
0.117829
0.117896
0.113045
0.0972953
0.0975537
0.113273
0.11798
0.118031
0.113435
0.0977997
0.0980486
0.11365
0.118101
0.11814
0.113799
0.0982859
0.0985244
0.114001
0.118198
0.118222
0.114135
0.0987501
0.098977
0.114322
0.118264
0.118275
0.114442
0.0991921
0.0994067
0.114614
0.118305
0.1183
0.114716
0.0996083
0.0998095
0.114871
0.118315
0.118298
0.114957
0.0999988
0.100186
0.115096
0.1183
0.118267
0.115164
0.100361
0.100533
0.115285
0.118256
0.11821
0.115336
0.100695
0.100852
0.11544
0.118188
0.118126
0.115472
0.100997
0.101139
0.115557
0.118091
0.118017
0.115572
0.10127
0.101396
0.115638
0.117973
0.117884
0.115637
0.10151
0.10162
0.115679
0.117829
0.117726
0.115662
0.101718
0.101813
0.11568
0.117664
0.117545
0.115647
0.101892
0.101969
0.115645
0.117474