/*--------------------------------*- C++ -*----------------------------------*\
| =========                 |                                                 |
| \\      /  F ield         | OpenFOAM: The Open Source CFD Toolbox           |
|  \\    /   O peration     | Version:  v2006                                 |
|   \\  /    A nd           | Website:  www.openfoam.com                      |
|    \\/     M anipulation  |                                                 |
\*---------------------------------------------------------------------------*/
FoamFile
{
    version     2.0;
    format      ascii;
    class       volScalarField;
    location    "0.04";
    object      isentropic(p);
}
// * * * * * * * * * * * * * * * * * * * * * * * * * * * * * * * * * * * * * //

dimensions      [1 -1 -2 0 0 0 0];


internalField   nonuniform List<scalar> 
11076
(
150034
150034
150034
150034
150034
150034
150034
150034
150036
150038
150039
150038
150037
150035
150035
150034
150033
150033
150033
150032
150032
150032
150031
150031
150031
150030
150030
150029
150029
150029
150028
150028
150028
150027
150027
150026
150026
150026
150025
150025
150025
150024
150024
150024
150023
150023
150022
150022
150022
150021
150021
150021
150020
150019
150018
150017
150015
150015
150017
150020
150022
150024
150024
150024
150022
150024
150026
150025
150034
150049
150047
149960
149871
150037
150063
150062
150021
149792
149714
150002
150057
150047
149979
149643
149578
149956
150035
150022
149931
149519
149466
149908
150010
149997
149885
149418
149375
149863
149984
149971
149841
149336
149300
149821
149959
149946
149801
149266
149236
149782
149934
149921
149763
149207
149180
149746
149910
149898
149728
149155
149132
149712
149887
149875
149696
149110
149090
149681
149865
149854
149666
149071
149053
149652
149845
149834
149638
149036
149020
149625
149825
149815
149612
149004
148990
149600
149806
149797
149588
148976
148964
149577
149789
149779
149566
148951
148940
149555
149772
149763
149545
148929
148919
149535
149756
149747
149525
148909
148900
149516
149740
149732
149506
148891
148883
149498
149726
149718
149489
148875
148868
149481
149712
149704
149472
148861
148855
149465
149699
149691
149457
148848
148843
149450
149686
149679
149443
148838
148833
149436
149674
149667
149429
148829
148825
149423
149662
149656
149417
148821
148818
149411
149652
149646
149405
148815
148813
149400
149641
149635
149394
148811
148809
149389
149631
149626
149384
148808
148807
149380
149622
149616
149375
148806
148805
149371
149612
149607
149366
148805
148806
149362
149603
149598
149358
148806
148807
149354
149595
149590
149350
148808
148810
149347
149587
149582
149344
148812
148815
149341
149579
149575
149338
148818
148821
149336
149572
149568
149334
148825
148829
149332
149566
149562
149330
148833
148838
149328
149560
149556
149327
148843
148849
149325
149554
149550
149324
148855
148862
149323
149548
149545
149322
148868
148875
149321
149543
149539
149320
148882
148889
149320
149537
149534
149319
148897
148905
149319
149532
149528
149318
148913
148922
149319
149527
149523
149318
148930
148940
149319
149522
149519
149320
148950
148960
149321
149518
149516
149322
148971
148983
149325
149515
149514
149327
148995
149008
149331
149514
149514
149334
149020
149033
149338
149515
149515
149342
149046
149061
149348
149517
149518
149353
149075
149090
149359
149520
149522
149365
149104
149119
149371
149525
149527
149377
149133
149148
149384
149530
149533
149391
149162
149176
149399
149537
149540
149406
149190
149204
149414
149545
149549
149422
149217
149230
149430
149555
149559
149439
149243
149256
149447
149565
149571
149456
149268
149280
149465
149577
149583
149473
149292
149304
149483
149590
149596
149491
149315
149325
149500
149603
149610
149508
149335
149345
149517
149616
149622
149524
149353
149361
149532
149629
149635
149539
149369
149376
149547
149641
149647
149553
149383
149389
149560
149652
149658
149566
149395
149400
149573
149663
149668
149578
149405
149410
149583
149673
149677
149587
149413
149417
149592
149681
149684
149595
149420
149422
149599
149687
149689
149601
149423
149425
149604
149692
149694
149606
149426
149428
149609
149697
149699
149612
149430
149432
149615
149703
149706
149618
149435
149438
149623
149710
149714
149626
149440
149443
149630
149717
149721
149633
149446
149449
149637
149725
149728
149640
149451
149452
149642
149730
149732
149644
149453
149454
149645
149733
149734
149646
149455
149455
149648
149736
149740
149651
149458
149466
149659
149748
149755
149666
149473
149844
149901
149939
149963
149979
150010
150025
150048
150061
150078
150089
150103
150111
150123
150130
150139
150144
150149
150151
150149
150141
150131
150114
150072
149972
149831
149517
149485
149806
149955
149933
149777
149450
149417
149753
149913
149897
149736
149396
149393
149737
149898
149893
149731
149389
149394
149735
149900
149896
149730
149392
149399
149738
149903
149899
149737
149397
149403
149745
149907
149905
149741
149402
149410
149750
149913
149910
149750
149408
149416
149757
149919
149917
149756
149416
149424
149764
149925
149924
149763
149423
149431
149772
149931
149930
149770
149431
149437
149780
149937
149936
149777
149437
149444
149786
149943
149942
149785
149444
149451
149795
149949
149949
149792
149451
149459
149802
149956
149956
149800
149459
149467
149810
149963
149963
149809
149467
149475
149818
149970
149969
149817
149475
149483
149826
149977
149976
149826
149483
149490
149836
149984
149982
149835
149490
149498
149843
149991
149990
149842
149498
149506
149851
149998
149997
149851
149506
149514
149860
150005
150005
149860
149515
149523
149870
150013
150013
149869
149524
149532
149881
150021
150022
149880
149534
149542
149892
150031
150032
149892
149545
149553
149905
150041
150044
149906
149556
149566
149919
150053
150056
149921
149570
149581
149935
150065
150068
149941
149586
149599
149953
150079
150084
149958
149607
149621
149974
150095
150101
149983
149633
149651
150001
150114
150124
150015
149670
149695
150037
150141
150155
150052
149722
149748
150074
150171
150182
150088
149772
149800
150109
150197
150204
150117
149820
149853
150141
150221
150233
150157
149884
149912
150173
150244
150252
150185
149938
149975
150205
150265
150275
150220
150007
150037
150233
150284
150293
150246
150073
150112
150262
150302
150323
150271
150162
150222
150339
150360
150360
150345
150229
150234
150343
150363
150374
150356
150250
150278
150380
150388
150399
150398
150292
150318
150418
150409
150419
150437
150338
150361
150458
150430
150439
150478
150382
150402
150486
150438
150458
150520
150410
150436
150538
150463
150482
150539
150462
150482
150529
150493
150476
150520
150490
150496
150541
150506
150493
150550
150506
150521
150572
150513
150506
150580
150543
150565
150564
150492
150464
150540
150585
150596
150520
150444
150434
150506
150606
150597
150473
150415
150369
150424
150563
150545
150409
150382
150351
150375
150532
150516
150342
150336
150387
150377
150497
150477
150331
150330
150310
150312
150424
150414
150349
150321
150286
150313
150352
150336
150317
150288
150296
150337
150273
150264
150374
150324
150343
150423
150098
149926
150509
150387
150483
150546
149609
149362
150522
150472
150483
150359
148997
148664
150112
150323
150154
149870
148365
148166
149596
150001
149741
149319
147954
147859
149158
149647
149521
148972
147762
147713
148798
149319
149330
148731
147675
147659
148633
149238
149133
148553
147639
147644
148648
149230
149210
148672
147649
147655
148750
149293
149241
148692
147640
147622
148576
149103
148990
148472
147604
147615
148544
149097
149050
148511
147605
147591
148445
148955
149060
148538
147621
147622
148502
149003
148869
148393
147605
147597
148319
148771
148914
148434
147638
147648
148376
148827
148594
148036
147580
147820
148112
148717
148662
148107
147774
147721
148081
148530
148334
147890
147644
148019
148445
148676
148637
148387
147966
147845
148225
148470
148789
148608
148202
148151
148557
148759
148702
148494
148113
147945
148381
148554
148852
148700
148298
148255
148631
148815
148673
148510
148123
148427
148792
148935
148901
148732
148373
148246
148583
148765
149004
148877
148538
148483
148823
148978
148842
148670
148345
148603
148941
149065
149050
148906
148565
148485
148829
149000
148883
148623
148400
148619
148951
149085
149073
148921
148554
148440
148738
148944
149135
149006
148669
148596
148944
149102
148968
148843
148435
148717
149072
149181
149154
149009
148666
148484
148872
149007
149212
149105
148731
148708
149043
149191
149048
148936
148511
148768
149140
149247
149217
149069
148708
148547
148890
149076
149291
149131
148870
148702
149008
149191
149341
149238
148892
148828
149161
149308
149172
149013
148679
148941
149273
149375
149359
149224
148884
148719
149061
149218
149398
149290
148944
148876
149226
149369
149232
149093
148713
148975
149328
149429
149404
149265
148906
148727
149088
149249
149426
149340
148927
148789
149186
149317
149488
149390
149031
148974
149325
149460
149321
149153
148808
149020
149380
149486
149454
149312
148937
148763
149126
149308
149499
149368
149030
148880
149227
149400
149541
149444
149076
148996
149373
149511
149361
149197
148823
149046
149431
149541
149513
149365
148978
148812
149208
149368
149548
149423
149049
148884
149272
149437
149581
149481
149094
149013
149400
149544
149384
149214
148824
149080
149472
149571
149477
149329
148936
149133
149519
149615
149579
149440
149053
148866
149256
149424
149595
149487
149092
149003
149414
149564
149410
149240
148829
149049
149488
149591
149479
149329
148899
149102
149517
149623
149583
149430
149010
148813
149233
149413
149592
149482
149027
148884
149332
149490
149635
149534
149109
149013
149447
149598
149424
149239
148814
149044
149486
149603
149486
149314
148871
149084
149527
149637
149605
149449
149001
148792
149236
149427
149608
149497
149040
148851
149316
149491
149638
149533
149086
148989
149445
149603
149412
149215
148762
149007
149486
149607
149493
149315
148840
149074
149536
149643
149600
149434
148957
148739
149211
149411
149597
149479
148987
148791
149293
149476
149631
149520
149032
148931
149427
149595
149405
149199
148714
148959
149470
149596
149466
149275
148758
149010
149511
149624
149583
149407
148891
148654
149163
149378
149571
149441
148909
148716
149249
149445
149605
149486
148968
148859
149386
149567
149354
149133
148610
148864
149421
149558
149423
149218
148661
148927
149467
149590
149544
149352
148795
148541
149092
149325
149534
149399
148823
148604
149188
149398
149564
149438
148870
148750
149329
149522
149291
149052
148477
148772
149370
149510
149363
149141
148533
148825
149409
149540
149498
149295
148696
148391
148995
149249
149473
149329
148709
148462
149094
149324
149508
149376
148769
148627
149255
149464
149213
148953
148336
148646
149290
149447
149294
149053
148408
148695
149330
149477
149420
149196
148543
148237
148891
149164
149401
149239
148553
148307
148998
149245
149442
149301
148641
148498
149176
149401
149123
148843
148171
148499
149201
149365
149191
148931
148216
148539
149237
149393
149347
149107
148391
148054
148763
149062
149319
149148
148416
148140
148885
149152
149360
149209
148500
148368
149091
149326
148993
148681
147950
148311
149075
149262
149083
148803
148032
148396
149144
149309
149261
149002
148228
147867
148636
148954
149228
149049
148259
147970
148775
149061
149266
149111
148370
148150
148934
149195
148885
148557
147760
148196
148989
149177
149149
148868
148034
147610
148457
148810
149113
148912
148046
147725
148608
148926
149160
148991
148167
147953
148817
149098
148715
148347
147480
147919
148810
149026
148827
148502
147601
148043
148906
149097
149048
148750
147856
147444
148339
148707
149009
148809
147930
147759
148699
149005
148558
148147
147192
147640
148634
148879
148642
148277
147267
147763
148723
148937
148905
148572
147579
147110
148110
148522
148857
148631
147652
147472
148514
148856
148397
147959
146916
147372
148463
148728
148443
148036
146933
147489
148541
148784
148747
148387
147310
146810
147889
148341
148703
148453
147393
147205
148325
148703
148254
147799
146695
147019
148237
148542
148227
147786
146579
147179
148330
148597
148563
148167
146982
146478
147658
148143
148535
148270
147132
146908
148131
148532
148085
147601
146398
146749
148029
148366
148274
147810
146461
145932
147281
147834
148307
147998
146698
146467
147845
148308
147792
147215
145838
146668
147938
148233
148242
147784
146381
145431
146895
147530
148026
147661
146243
145961
147472
147988
147483
146861
145346
146214
147655
147994
148041
147517
145946
145331
146867
147478
147780
147337
145688
145313
147042
147635
147101
146409
144705
145675
147302
147697
147730
147147
145407
144736
146455
147157
147632
147349
145933
145093
146829
147432
146729
146005
144255
145311
146950
147354
147401
146818
145044
144388
146178
146893
147371
147101
145672
145017
146797
147319
146856
146134
144169
143426
145449
146264
146945
146517
144659
144401
146531
147140
147076
146395
144207
142345
144769
145833
146514
145879
143639
143274
145745
146527
146411
145492
142927
142297
144807
145823
146222
145458
142864
142183
145095
146052
145846
144775
141735
141070
144060
145244
145999
145471
143165
141754
144865
145806
145511
144505
141186
140971
144476
145491
145389
144145
140376
138170
142101
143786
144954
144026
140849
140590
144043
145087
144684
143250
139087
138674
143142
144481
144129
142506
137454
136439
141997
143700
143273
141347
135467
134911
141069
143168
143174
140896
134648
134358
140725
143178
143062
140425
134053
133786
140191
142980
142814
139886
133552
133373
139675
142718
142533
139390
133211
133089
139206
142433
142235
138948
132972
132896
138791
142130
141932
138562
132817
132777
138434
141833
141635
138235
132727
132714
138135
141540
141351
137963
132685
132692
137890
141267
141083
137742
132681
132703
137690
141007
140836
137565
132705
132740
137533
140773
140612
137427
132753
132803
137408
140558
140411
137318
132824
132887
137316
140371
140233
137240
132912
132983
137246
140208
140083
137182
133012
133088
137201
140072
139957
137147
133118
133197
137172
139959
139856
137126
133227
133307
137161
139873
139779
137123
133337
133416
137161
139802
139718
137128
133444
133523
137175
139751
139675
137148
133551
133627
137195
139715
139646
137172
133652
133727
137226
139694
139631
137207
133751
133823
137260
139683
139627
137244
133845
133915
137303
139685
139632
137290
133936
134003
137347
139693
139645
137337
134022
134088
137398
139710
139664
137390
134106
134168
137449
139730
139688
137442
134185
134246
137504
139758
139718
137499
134262
134320
137559
139787
139750
137554
134334
134391
137616
139820
139784
137612
134404
134459
137672
139854
139821
137668
134471
134524
137730
139892
139859
137727
134535
134587
137786
139928
139897
137783
134597
134647
137844
139967
139936
137841
134656
134705
137898
140005
139976
137895
134713
134760
137954
140045
140015
137950
134767
134813
138006
140082
140053
138001
134819
134864
138059
140121
140091
138053
134869
134912
138107
140157
140128
138101
134916
134957
138156
140193
140164
138149
134960
135000
138200
140227
140198
138192
135002
135041
138245
140262
140232
138236
135042
135079
138285
140293
140264
138275
135079
135115
138325
140325
140294
138314
135114
135148
138361
140354
140324
138349
135146
135180
138397
140383
140352
138384
135177
135209
138429
140409
140379
138415
135204
135236
138461
140436
140404
138447
135231
135261
138490
140460
140429
138474
135255
135284
138519
140484
140452
138503
135278
135306
138544
140506
140474
138527
135299
135326
138570
140527
140495
138552
135318
135345
138592
140547
140515
138574
135336
135363
138615
140567
140533
138596
135354
135379
138635
140584
140551
138615
135369
135394
138655
140602
140568
138635
135384
135408
138672
140617
140584
138652
135397
135421
138691
140633
140599
138670
135410
135433
138706
140647
140613
138684
135421
135444
138722
140661
140626
138700
135432
135455
138735
140673
140639
138713
135442
135464
138749
140685
140650
138727
135452
135473
138761
140696
140661
138738
135460
135481
138773
140707
140671
138750
135468
135489
138783
140716
140681
138759
135475
135496
138794
140726
140690
138770
135482
135502
138802
140734
140699
138778
135488
135508
138812
140743
140706
138788
135494
135513
138819
140750
140714
138794
135498
135518
138828
140757
140720
138803
135503
135522
138834
140763
140727
138808
135507
135526
138841
140769
140732
138815
135511
135530
138846
140774
140738
138820
135514
135533
138852
140780
140742
138826
135518
135536
138856
140784
140747
138830
135520
135538
138862
140789
140751
138835
135523
135540
138865
140792
140755
138838
135524
135542
138870
140796
140758
138843
135526
135544
138872
140798
140761
138845
135528
135545
138876
140802
140764
138849
135529
135546
138878
140804
140766
138851
135530
135547
138881
140807
140768
138854
135531
135548
138883
140808
140771
138855
135531
135548
138885
140810
140772
138858
135532
135549
138886
140811
140774
138858
135532
135549
138888
140813
140775
138861
135532
135549
138889
140814
140776
138861
135531
135548
138891
140815
140777
138863
135531
135548
138891
140816
140778
138862
135530
135547
138892
140817
140778
138864
135530
135546
138892
140817
140779
138863
135528
135545
138893
140817
140778
138864
135527
135543
138892
140817
140779
138863
135525
135541
138892
140817
140778
138864
135524
135540
138891
140817
140778
138862
135522
135538
138892
140817
140778
138863
135520
135536
138892
140817
140779
138863
135517
135537
138891
140818
140780
138863
135519
135536
138893
140820
140783
138865
135516
135541
138903
140835
140806
138884
135521
135572
138951
140908
140972
138997
135601
135750
139187
141247
141627
139493
135995
136298
139856
142024
142314
140157
136557
144395
145586
146103
146807
147380
147555
147725
148253
148583
148895
149125
149301
149439
149545
149626
149688
149736
149772
149800
149821
149838
149852
149862
149870
149877
149882
149885
149886
149888
149888
149888
149894
149897
149901
149905
149910
149916
149923
149931
149941
149953
149966
149982
149999
150017
150036
150052
150064
150067
150064
150058
150051
150045
150040
150035
150031
150026
150021
150016
150011
150007
150002
149997
149993
149988
149985
149981
149978
149976
149974
149972
149972
149972
149972
149973
149975
149978
149981
149984
149987
149991
149995
149998
150002
150005
150007
150009
150011
150012
150012
150012
150011
150010
150008
150006
150003
150000
149997
149993
149990
149986
149982
149978
149974
149971
149967
149963
149960
149957
149954
149951
149948
149945
149943
149941
149939
149937
149935
149933
149932
149931
149930
149929
149928
149927
149927
149926
149926
149926
149926
149926
149926
149926
149926
149927
149927
149928
149928
149929
149930
149931
149932
149933
149935
149936
149938
149939
149941
149943
149944
149946
149948
149949
149951
149953
149954
149956
149958
149960
149962
149964
149966
149968
149970
149972
149974
149976
149978
149979
149981
149984
149987
149993
150005
150021
150030
150033
150034
150034
150034
150033
150034
150044
150062
150069
150068
150065
150061
150057
150054
150051
150049
150047
150045
150043
150042
150040
150039
150038
150037
150036
150035
150034
150033
150032
150031
150030
150030
150029
150028
150027
150027
150026
150025
150024
150024
150023
150022
150021
150020
150019
150018
150017
150016
150015
150013
150012
150009
150007
150004
150000
149998
149999
150004
150011
150014
150017
150026
150047
150065
150070
150068
150063
150057
150051
150045
150039
150033
150027
150021
150015
150009
150003
149997
149991
149985
149980
149974
149969
149963
149958
149953
149947
149943
149937
149933
149928
149923
149918
149914
149909
149905
149900
149896
149892
149888
149884
149880
149876
149872
149868
149864
149860
149857
149853
149850
149846
149843
149839
149836
149833
149829
149826
149822
149819
149816
149812
149809
149806
149803
149800
149798
149795
149792
149789
149787
149784
149781
149778
149775
149772
149769
149766
149763
149760
149756
149753
149749
149746
149743
149739
149736
149733
149731
149729
149726
149724
149722
149721
149720
149719
149718
149716
149716
149715
149714
149714
149714
149714
149714
149715
149716
149717
149719
149721
149724
149726
149730
149733
149737
149740
149744
149746
149750
149753
149757
149761
149765
149768
149772
149775
149779
149781
149784
149786
149788
149789
149792
149793
149795
149796
149800
149802
149806
149808
149812
149815
149819
149821
149823
149825
149826
149827
149829
149832
149837
149898
149896
149939
149939
149963
149963
149963
149937
149893
149889
149930
149935
149891
149888
149928
149962
149961
149933
149889
149885
149927
149931
149885
149881
149924
149959
149956
149928
149881
149876
149920
149925
149875
149871
149917
149954
149953
149922
149871
149868
149914
149920
149869
149866
149913
149952
149953
149920
149867
149864
149914
149920
149866
149863
149914
149954
149954
149921
149864
149861
149913
149919
149862
149858
149911
149954
149953
149918
149858
149854
149910
149916
149854
149849
149907
149952
149952
149914
149850
149845
149905
149912
149846
149842
149904
149952
149953
149912
149843
149838
149903
149911
149839
149835
149901
149953
149954
149910
149835
149831
149901
149909
149832
149829
149901
149956
149959
149910
149831
149828
149902
149912
149830
149828
149905
149963
149967
149916
149830
149830
149908
149920
149832
149832
149912
149971
149975
149924
149834
149835
149916
149928
149837
149838
149920
149979
149983
149932
149841
149841
149923
149935
149844
149845
149926
149986
149988
149938
149847
149849
149930
149942
149851
149853
149933
149991
149994
149946
149856
149858
149937
149949
149861
149863
149941
149997
150000
149953
149867
149869
149945
149958
149873
149875
149950
150003
150006
149962
149879
149881
149954
149965
149884
149886
149957
150009
150010
149968
149890
149891
149960
149970
149894
149895
149962
150012
150013
149973
149898
149899
149965
149974
149902
149903
149966
150013
150014
149976
149906
149906
149968
149978
149910
149910
149970
150015
150016
149979
149913
149914
149972
149981
149917
149918
149974
150017
150018
149983
149921
149922
149977
149985
149926
149926
149979
150019
150020
149988
149930
149931
149982
149990
149934
149935
149984
150021
150022
149992
149939
149939
149986
149994
149943
149943
149989
150023
150024
149996
149947
149948
149991
149998
149951
149952
149993
150025
150026
150000
149956
149957
149996
150002
149960
149961
149998
150027
150028
150005
149965
149966
150001
150007
149970
149971
150004
150029
150031
150010
149975
149976
150007
150012
149980
149982
150010
150032
150033
150015
149986
149987
150013
150018
149991
149993
150017
150035
150036
150021
149997
149999
150020
150024
150003
150005
150024
150038
150040
150028
150009
150011
150027
150031
150015
150017
150031
150041
150043
150035
150021
150024
150035
150039
150028
150031
150040
150045
150047
150043
150035
150038
150045
150048
150042
150045
150050
150050
150052
150052
150049
150053
150055
150058
150057
150061
150060
150053
150053
150062
150064
150068
150064
150033
150042
150046
150047
150047
150047
150047
150047
150047
150047
150048
150048
150049
150049
150050
150050
150051
150052
150052
150053
150054
150055
150056
150057
150058
150059
150059
150059
150060
150061
150061
150062
150062
150062
150062
150061
150060
150057
150055
150052
150050
150047
150045
150043
150040
150037
150033
150029
150025
150021
150017
150015
150014
150014
150014
150015
150016
150017
150018
150019
150019
150019
150018
150017
150016
150016
150017
150018
150018
150019
150020
150014
149972
149976
150012
150024
150024
150051
150050
150060
150060
150057
150085
150081
150080
150088
150088
150105
150104
150111
150111
150109
150128
150125
150124
150130
150129
150141
150140
150144
150144
150144
150154
150151
150150
150152
150153
150147
150147
150133
150124
150123
150124
150126
150109
150106
150053
150061
150044
150103
150096
150037
150042
150102
150123
150147
150147
150124
150104
150096
150038
150044
150040
150098
150106
150126
150150
150157
150146
150130
150110
150086
150057
150057
150087
150111
150132
150135
150113
150088
150057
150058
150089
150091
150058
150059
150093
150120
150118
150116
150138
150141
150144
150146
150122
150094
150060
150062
150096
150097
150063
150063
150098
150126
150125
150124
150147
150149
150150
150152
150127
150098
150064
150063
150099
150099
150063
150062
150098
150132
150130
150129
150155
150158
150163
150193
150184
150178
150174
150171
150170
150168
150166
150163
150160
150157
150153
150150
150162
150155
150151
150129
150133
150136
150157
150160
150167
150171
150175
150180
150176
150173
150171
150167
150165
150162
150143
150139
150120
150111
150116
150107
150112
150104
150109
150101
150043
150046
150050
150047
150054
150051
150058
150056
150063
150060
150115
150123
150119
150065
150067
150072
150127
150147
150150
150131
150123
150070
150076
150074
150127
150135
150154
150157
150161
150165
150178
150181
150184
150186
150188
150191
150191
150190
150188
150187
150185
150183
150172
150168
150151
150143
150147
150139
150143
150135
150139
150131
150079
150081
150086
150084
150091
150089
150096
150095
150101
150099
150147
150155
150151
150105
150106
150111
150158
150175
150178
150162
150155
150109
150116
150115
150159
150166
150181
150184
150187
150191
150194
150195
150195
150199
150208
150220
150224
150219
150207
150206
150200
150199
150200
150195
150183
150176
150178
150171
150173
150167
150169
150163
150120
150121
150126
150126
150132
150132
150138
150139
150145
150146
150182
150188
150187
150154
150153
150161
150193
150204
150210
150198
150193
150162
150169
150171
150199
150204
150217
150227
150240
150254
150241
150246
150234
150203
150168
150133
150098
150061
150060
150098
150098
150059
150059
150096
150139
150137
150135
150173
150180
150189
150185
150136
150097
150060
150061
150097
150097
150064
150067
150096
150115
150127
150135
150176
150155
150132
150118
150107
150092
150070
150072
150091
150092
150073
150075
150094
150107
150104
150104
150113
150113
150115
150117
150109
150096
150077
150079
150099
150101
150081
150084
150103
150114
150113
150111
150119
150120
150121
150124
150124
150123
150121
150119
150117
150117
150126
150152
150184
150219
150243
150247
150229
150214
150250
150268
150287
150315
150306
150291
150284
150269
150263
150280
150267
150260
150255
150245
150238
150227
150220
150213
150207
150182
150178
150191
150198
150210
150221
150233
150242
150251
150258
150269
150275
150285
150278
150269
150285
150289
150291
150302
150301
150297
150291
150299
150305
150310
150314
150315
150328
150343
150348
150320
150330
150289
150247
150198
150173
150159
150150
150251
150278
150316
150321
150355
150357
150376
150371
150364
150358
150356
150345
150329
150322
150312
150310
150325
150339
150363
150365
150374
150380
150386
150377
150367
150395
150388
150391
150378
150381
150378
150397
150397
150409
150401
150414
150420
150398
150380
150355
150351
150349
150351
150377
150371
150381
150317
150372
150357
150338
150335
150413
150403
150434
150415
150403
150404
150436
150437
150446
150461
150429
150427
150390
150345
150329
150267
150174
150262
150255
150299
150337
150389
150367
150430
150415
150448
150423
150477
150475
150466
150449
150446
150393
150427
150410
150397
150367
150335
150356
150310
150334
150350
150350
150397
150355
150390
150383
150349
150348
150341
150326
150285
150283
150202
150189
150201
150095
150125
150113
150118
150120
150121
150118
150104
150092
150175
150175
150229
150251
150246
150264
150261
150327
150330
150330
150309
150298
150266
150282
150301
150289
150308
150358
150364
150258
150283
150294
150272
150275
150281
150279
150276
150299
150281
150269
150274
150335
150279
150385
150291
150376
150243
150197
150018
149829
149904
149695
149540
149660
149848
149842
149978
150078
150133
150060
150201
150240
150293
150254
150240
150260
150261
150263
150255
150269
150222
150129
150201
150214
150223
150229
150163
150144
150075
150152
150195
150189
150086
150093
149891
149907
149707
149596
149386
149508
149462
149569
149438
149330
149240
149355
149261
149181
149289
149208
149117
149037
149184
149069
148932
149118
148925
148862
148752
148998
148964
148860
149065
149055
149002
148910
149103
149075
148991
149155
149130
149051
149209
149187
149112
149255
149250
149208
149132
149272
149258
149181
149313
149291
149216
149357
149336
149258
149383
149368
149297
149427
149402
149322
149440
149398
149517
149491
149414
149526
149517
149444
149555
149535
149465
149571
149556
149474
149582
149525
149618
149603
149532
149634
149611
149529
149630
149588
149686
149664
149583
149678
149663
149589
149684
149629
149708
149687
149604
149705
149666
149734
149715
149636
149729
149713
149632
149722
149669
149750
149726
149635
149728
149681
149767
149745
149651
149742
149686
149764
149746
149654
149744
149688
149778
149754
149653
149747
149696
149769
149746
149646
149739
149681
149770
149750
149649
149740
149678
149756
149734
149625
149723
149662
149755
149731
149617
149717
149650
149732
149706
149589
149694
149627
149722
149694
149571
149678
149605
149693
149666
149533
149649
149574
149681
149652
149516
149632
149554
149647
149610
149470
149595
149516
149625
149596
149445
149569
149474
149581
149548
149394
149529
149444
149564
149531
149353
149495
149395
149510
149478
149312
149456
149368
149489
149433
149264
149417
149390
149207
149372
149270
149394
149339
149128
149318
149202
149335
149300
149119
149292
149258
149012
149206
149050
149223
149192
148983
149179
149147
148891
149111
148916
149108
149065
148842
149062
149033
148766
148982
148746
148972
148930
148691
148931
148894
148633
148873
148744
148468
148768
148737
148442
148725
148649
148255
148595
148505
148198
148533
148524
148180
148496
148269
147916
148301
148288
147953
148323
148068
147614
148058
148029
147707
148133
147958
147643
147231
147717
147778
147676
147006
147644
147483
147363
146989
147459
147116
146923
146568
147308
146975
146720
146612
146464
145614
146455
146215
145943
145759
145496
145231
144910
144885
144936
145022
145020
145060
145018
145055
144999
145035
144967
145004
144927
144967
144884
144927
144837
144882
144786
144833
144732
144781
144675
144725
144615
144666
144553
144603
144488