/*--------------------------------*- C++ -*----------------------------------*\
| =========                 |                                                 |
| \\      /  F ield         | OpenFOAM: The Open Source CFD Toolbox           |
|  \\    /   O peration     | Version:  v2006                                 |
|   \\  /    A nd           | Website:  www.openfoam.com                      |
|    \\/     M anipulation  |                                                 |
\*---------------------------------------------------------------------------*/
FoamFile
{
    version     2.0;
    format      ascii;
    class       volScalarField;
    location    "0.014";
    object      alphat;
}
// * * * * * * * * * * * * * * * * * * * * * * * * * * * * * * * * * * * * * //

dimensions      [1 -1 -1 0 0 0 0];


internalField   nonuniform List<scalar> 
12716
(
8.81356
8.08417
51.1253
56.6351
70.5023
121.014
80.1484
16.4168
4.06949
1.72704
1.07023
0.83281
0.726994
0.663532
0.613007
0.56827
0.528783
0.494696
0.465558
0.440561
0.418908
0.399977
0.383304
0.368525
0.355342
0.343518
0.33287
0.323257
0.314558
0.306678
0.299541
0.293098
0.287306
0.282135
0.277561
0.273566
0.270144
0.267302
0.265047
0.263374
0.26234
0.262
0.262364
0.263489
0.26545
0.268349
0.272314
0.277511
0.284126
0.292333
0.302234
0.313829
0.327117
0.342574
0.362376
0.393261
0.453591
0.592237
0.943633
1.89448
4.19669
6.72968
6.08029
3.29091
1.50401
0.688885
0.341065
0.149023
0.036304
0.00632287
0.000204062
0.000173689
0.00278422
0.0129476
0.00786642
0.00197793
0.000152514
0.000134584
0.0016593
0.00597443
0.00514091
0.00151685
0.000124546
0.00011523
0.00140168
0.0045551
0.00422126
0.00133888
0.000109414
0.000104251
0.00127745
0.00391137
0.00375414
0.00124818
0.00010092
9.75385e-05
0.00119641
0.00353059
0.00344474
0.00118084
9.5407e-05
9.29829e-05
0.00113965
0.00328122
0.00322058
0.00113011
9.15231e-05
8.96766e-05
0.00109545
0.00309082
0.00304465
0.00108888
8.86031e-05
8.71353e-05
0.00105918
0.00293544
0.0028987
0.00105335
8.6293e-05
8.50807e-05
0.00102771
0.00280362
0.00277376
0.00102235
8.43945e-05
8.33662e-05
0.000999752
0.00268931
0.00266468
0.000994943
8.27896e-05
8.18906e-05
0.000974698
0.00258862
0.00256794
0.000970361
8.13935e-05
8.05957e-05
0.000952031
0.00249909
0.00248115
0.000948099
8.016e-05
7.94416e-05
0.000931343
0.00241867
0.00240299
0.000927793
7.90539e-05
7.83983e-05
0.000912376
0.00234588
0.00233203
0.000909169
7.80487e-05
7.74422e-05
0.000894871
0.00227947
0.00226716
0.000891953
7.71214e-05
7.65516e-05
0.000878558
0.00221845
0.00220738
0.000875874
7.62516e-05
7.57078e-05
0.000863176
0.00216188
0.00215177
0.000860676
7.54222e-05
7.48962e-05
0.000848497
0.0021089
0.00209953
0.000846144
7.462e-05
7.41055e-05
0.000834348
0.0020587
0.00204997
0.000832108
7.38351e-05
7.33279e-05
0.000820593
0.00201083
0.00200263
0.000818448
7.3061e-05
7.25585e-05
0.000807146
0.00196492
0.00195715
0.000805084
7.22937e-05
7.17939e-05
0.000793948
0.00192067
0.00191323
0.000791955
7.15305e-05
7.10319e-05
0.000780943
0.00187781
0.0018706
0.000778999
7.07693e-05
7.02709e-05
0.000768073
0.00183608
0.00182903
0.000766164
7.00091e-05
6.95097e-05
0.000755294
0.00179531
0.00178836
0.000753411
6.92486e-05
6.87469e-05
0.00074257
0.00175537
0.0017485
0.00074071
6.84863e-05
6.79804e-05
0.000729873
0.00171619
0.00170936
0.000728031
6.77193e-05
6.72066e-05
0.000717172
0.00167767
0.00167085
0.000715332
6.69429e-05
6.64198e-05
0.000704412
0.00163971
0.00163284
0.000702548
6.61507e-05
6.56129e-05
0.000691515
0.00160212
0.00159511
0.000689593
6.53356e-05
6.47781e-05
0.000678381
0.00156468
0.00155743
0.000676359
6.44902e-05
6.39086e-05
0.000664889
0.0015271
0.00151948
0.00066271
6.36081e-05
6.29977e-05
0.000650899
0.00148905
0.00148095
0.000648504
6.26824e-05
6.20375e-05
0.000636275
0.00145008
0.00144146
0.000633646
6.17044e-05
6.10189e-05
0.000620924
0.00140999
0.00140081
0.000618024
6.06656e-05
5.99343e-05
0.00060473
0.00136857
0.00135871
0.000601517
5.95594e-05
5.87764e-05
0.00058756
0.00132549
0.00131485
0.000583963
5.83753e-05
5.753e-05
0.000569197
0.00128034
0.0012687
0.000565076
5.70981e-05
5.61787e-05
0.000549277
0.0012324
0.00121948
0.000544413
5.57117e-05
5.47016e-05
0.000527346
0.0011809
0.00116614
0.000521317
5.41932e-05
5.30708e-05
0.000502588
0.00112459
0.00110689
0.000494773
5.25031e-05
5.12631e-05
0.000474032
0.00106113
0.00103739
0.000461818
5.0515e-05
4.925e-05
0.000440073
0.000988954
0.000949402
0.000418806
4.79449e-05
4.68997e-05
0.000395918
0.000898195
0.000835679
0.000359562
4.42179e-05
4.30123e-05
0.000328498
0.000767359
0.0006826
0.000274568
3.94139e-05
2.18264e-05
0.000135539
0.000510602
0.000340984
9.27973e-05
2.17691e-05
3.58312e-05
0.000162826
0.000300774
0.000349585
0.000291803
4.51202e-05
4.83202e-05
0.000396095
0.000509589
0.000602283
0.00046735
4.62839e-05
3.4627e-05
0.000465342
0.000653855
0.000623672
0.000342702
1.45097e-05
3.0445e-06
9.67093e-05
0.000349237
0.000174948
3.45426e-05
1.22482e-06
2.44559e-06
2.26155e-05
0.000145817
0.000240095
4.54464e-05
4.48264e-06
7.95839e-06
5.44421e-05
0.00026698
0.000446696
0.000108935
1.22567e-05
1.58072e-05
0.000131995
0.000520508
0.000724931
0.000207426
1.89627e-05
2.03289e-05
0.000230016
0.000793605
0.000954052
0.000297255
2.14119e-05
1.88635e-05
0.00029501
0.000964678
0.00100099
0.000309478
1.79549e-05
1.40171e-05
0.000278568
0.000942536
0.000923216
0.000270641
1.24397e-05
9.84822e-06
0.000242872
0.000855315
0.000839776
0.000238662
9.01998e-06
7.56577e-06
0.000220119
0.000791328
0.00079236
0.000224303
7.63047e-06
6.78548e-06
0.000214989
0.000771557
0.00078959
0.000225053
7.44081e-06
7.17464e-06
0.000221904
0.000780681
0.000811419
0.000234854
8.08211e-06
8.1446e-06
0.000234821
0.000812589
0.000844404
0.000247312
9.0167e-06
9.2796e-06
0.000247358
0.000846274
0.000872897
0.000257474
1.00496e-05
1.03931e-05
0.000256892
0.000872998
0.000892472
0.000264123
1.10676e-05
1.1405e-05
0.000262688
0.00089009
0.000903561
0.000267203
1.19527e-05
1.22028e-05
0.000264611
0.000898232
0.000907209
0.000267087
1.26535e-05
1.27829e-05
0.000263616
0.00089942
0.000906889
0.000265408
1.32108e-05
1.33278e-05
0.000261766
0.00089782
0.000904551
0.000263177
1.37514e-05
1.38842e-05
0.000259691
0.000895436
0.000901724
0.000260842
1.43015e-05
1.44434e-05
0.000257454
0.000893158
0.000898777
0.000258321
1.48494e-05
1.4989e-05
0.000254737
0.000890336
0.000895138
0.000255247
1.5377e-05
1.55083e-05
0.000251144
0.000885995
0.000889523
0.000251125
1.58743e-05
1.59927e-05
0.000246216
0.000878949
0.000880738
0.000245518
1.63329e-05
1.64292e-05
0.000239371
0.000867602
0.000866831
0.000237752
1.67367e-05
1.68134e-05
0.000229893
0.00084942
0.000845385
0.000227198
1.71094e-05
1.71829e-05
0.000217503
0.000822656
0.000814426
0.000213661
1.74885e-05
1.73411e-05
0.000202012
0.000785369
0.000773568
0.000197235
1.70874e-05
1.66602e-05
0.000183981
0.000737143
0.000721723
0.000178253
1.65011e-05
1.61834e-05
0.000163649
0.000678176
0.000659023
0.000156418
1.60817e-05
1.59071e-05
0.000139236
0.000610792
0.000585996
0.000126571
1.58809e-05
1.58797e-05
0.000111389
0.000534214
0.000501632
0.000100588
1.59499e-05
1.60596e-05
9.01385e-05
0.000451285
0.000413212
8.21496e-05
1.62175e-05
1.64046e-05
7.604e-05
0.000374237
0.000340097
7.23104e-05
1.6754e-05
1.68519e-05
6.91533e-05
0.000317943
0.000273705
6.67805e-05
1.74668e-05
1.72922e-05
6.63987e-05
0.00027834
0.000249165
6.64991e-05
1.79885e-05
0.00116808
0.00258799
0.00374845
0.00477397
0.00576505
0.00672405
0.00755361
0.00822609
0.00872109
0.00901573
0.0091865
0.00921883
0.00915687
0.00896656
0.00862737
0.00802502
0.00728793
0.00608371
0.00534585
0.00432053
0.00277048
0.0017228
0.0013567
0.000686296
0.000261822
0.000138834
2.25972e-05
1.61522e-05
0.000131262
0.000238937
9.52532e-05
3.55459e-05
7.08051e-06
1.10954e-05
7.99721e-05
0.000188977
0.000175747
7.77443e-05
1.19036e-05
1.21593e-05
7.98987e-05
0.000187582
0.000176614
7.71801e-05
1.17271e-05
1.19289e-05
7.76968e-05
0.000182152
0.000175055
7.62522e-05
1.16824e-05
1.19092e-05
7.78035e-05
0.000181135
0.000176541
7.67227e-05
1.16798e-05
1.20498e-05
7.78692e-05
0.000183908
0.000179078
7.747e-05
1.21359e-05
1.24953e-05
7.90514e-05
0.000186535
0.000182239
7.88812e-05
1.25917e-05
1.28042e-05
8.03098e-05
0.000189539
0.000185159
8.01623e-05
1.2826e-05
1.3035e-05
8.16133e-05
0.000192711
0.000188256
8.14784e-05
1.30536e-05
1.32632e-05
8.29584e-05
0.000196041
0.000191487
8.28485e-05
1.32818e-05
1.34939e-05
8.43452e-05
0.000199584
0.000195028
8.42304e-05
1.35101e-05
1.37217e-05
8.57479e-05
0.00020348
0.000198847
8.56018e-05
1.37339e-05
1.39438e-05
8.72228e-05
0.000207633
0.000202876
8.70271e-05
1.39547e-05
1.41642e-05
8.87635e-05
0.00021193
0.000207019
8.8474e-05
1.41696e-05
1.43805e-05
9.03378e-05
0.000216443
0.000211462
8.99378e-05
1.43785e-05
1.45901e-05
9.19774e-05
0.000221307
0.000216164
9.14578e-05
1.45832e-05
1.47994e-05
9.37252e-05
0.000226338
0.000221003
9.30424e-05
1.47905e-05
1.50066e-05
9.55017e-05
0.000231455
0.000225926
9.4608e-05
1.49941e-05
1.52018e-05
9.7279e-05
0.000236785
0.00023114
9.61716e-05
1.51852e-05
1.53932e-05
9.91516e-05
0.000242482
0.000236657
9.78167e-05
1.53778e-05
1.55913e-05
0.000101167
0.000248406
0.000242389
9.95451e-05
1.55777e-05
1.57913e-05
0.000103254
0.000254548
0.000248334
0.000101296
1.57773e-05
1.59883e-05
0.000105408
0.000260974
0.000254582
0.000103089
1.59729e-05
1.61848e-05
0.000107664
0.000267708
0.000261077
0.000104952
1.61701e-05
1.63846e-05
0.000110027
0.000274666
0.000267832
0.000106871
1.63691e-05
1.65797e-05
0.000112384
0.000281937
0.00027487
0.000108772
1.65598e-05
1.6768e-05
0.000114414
0.000289511
0.000282202
0.000110725
1.67478e-05
1.69582e-05
0.000116512
0.000297415
0.000289844
0.000112743
1.69394e-05
1.71502e-05
0.000118687
0.000305645
0.000297825
0.000114833
1.71319e-05
1.73434e-05
0.000120933
0.000314262
0.000306158
0.000116988
1.7326e-05
1.75386e-05
0.000123265
0.000323226
0.000314842
0.000119226
1.7522e-05
1.77358e-05
0.000125668
0.00033259
0.000323896
0.000121522
1.77193e-05
1.79324e-05
0.000128141
0.000342326
0.000333318
0.000123882
1.79151e-05
1.81288e-05
0.000130654
0.000352464
0.000343109
0.000126267
1.81108e-05
1.83246e-05
0.000133191
0.000362973
0.000353268
0.000128666
1.83059e-05
1.85221e-05
0.000135696
0.000373886
0.000363774
0.000131006
1.85034e-05
1.87232e-05
0.000138126
0.00038519
0.000374718
0.000133259
1.8705e-05
1.89403e-05
0.000140437
0.000397202
0.000386444
0.00013537
1.89288e-05
1.91847e-05
0.00014268
0.000410403
0.000399658
0.000137444
1.92073e-05
1.94995e-05
0.000145106
0.000425926
0.000415499
0.000139843
1.95875e-05
1.99098e-05
0.000148648
0.000444994
0.000434833
0.000143929
2.0006e-05
2.03176e-05
0.000155718
0.000473221
0.000460619
0.00014907
2.05013e-05
2.08389e-05
0.000164881
0.000500525
0.00048734
0.000156628
2.07791e-05
2.11972e-05
0.000173991
0.000534152
0.000518318
0.000165605
2.12633e-05
2.17898e-05
0.000182673
0.000564426
0.00055299
0.0001779
2.19254e-05
2.23693e-05
0.000192297
0.000603619
0.000592301
0.000186786
2.25081e-05
2.29689e-05
0.000202897
0.000646217
0.000639608
0.000203353
2.3351e-05
2.38466e-05
0.00022457
0.000700135
0.000691426
0.000217943
2.40682e-05
2.45913e-05
0.000238131
0.000748702
0.000742634
0.000233187
2.48302e-05
2.53626e-05
0.000253644
0.000802537
0.000798652
0.000250796
2.57726e-05
2.64534e-05
0.0002718
0.000854882
0.000845175
0.000270577
2.69381e-05
2.77213e-05
0.000281855
0.000889869
0.000874859
0.000282611
2.87439e-05
3.04597e-05
0.000299935
0.000920574
0.00090336
0.000300167
3.32424e-05
3.9797e-05
0.000355325
0.00095736
0.000924292
0.000407053
3.21576e-05
1.95644e-05
8.07179e-05
0.000267248
0.000786058
0.00024587
2.50531e-05
2.76114e-05
0.000234945
0.000768353
0.000892547
0.000282443
3.14785e-05
3.60118e-05
0.000279273
0.000947167
0.00126505
0.000332595
4.7321e-05
8.40316e-05
0.00047105
0.00215929
0.00325306
0.00131804
0.000152813
0.00018154
0.00131694
0.00356194
0.00442847
0.00186456
0.000224567
0.000252299
0.00208324
0.00485559
0.00475177
0.00207009
0.000243858
0.000221529
0.00166586
0.00372921
0.00458593
0.00191456
0.000272135
0.000322565
0.00215235
0.00489787
0.00523245
0.002315
0.000371775
0.000389944
0.00246134
0.00554855
0.00558312
0.0025502
0.000415505
0.000449529
0.00289559
0.00647117
0.00682476
0.00307253
0.000474067
0.000463535
0.00322646
0.00705338
0.00592953
0.00281528
0.000428525
0.000416132
0.00285481
0.0060115
0.00594799
0.00282118
0.00041436
0.000401636
0.00287567
0.00597786
0.00500451
0.00257976
0.000375936
0.000378793
0.00266447
0.00532461
0.00580044
0.00292708
0.000411414
0.000439155
0.00311007
0.00511693
0.00444776
0.0031234
0.0004448
0.000467919
0.00321175
0.0040506
0.00382116
0.00359155
0.000514669
0.000597487
0.0032364
0.00361375
0.0029589
0.00295533
0.000619848
0.000698567
0.00240618
0.00257565
0.00251455
0.00200351
0.000790839
0.00089691
0.00185655
0.00209475
0.0017036
0.00148802
0.000958346
0.000812657
0.00133689
0.0017484
0.00173923
0.00114924
0.000993075
0.000595659
0.00102549
0.00156606
0.00193806
0.00106501
0.000735851
0.000377367
0.00103185
0.00249042
0.00207073
0.000829921
0.000390585
0.000357477
0.000657995
0.00150909
0.000843485
0.000566365
0.000368981
0.000384621
0.000549338
0.000911245
0.000781175
0.00052923
0.000379922
0.000321373
0.000439731
0.000614126
0.000674242
0.000392357
0.000268886
0.000210433
0.000394662
0.000659606
0.000553914
0.000263738
0.000129655
0.000117233
0.000154001
0.00039887
0.00045628
0.000174455
0.000147386
0.000170659
0.000179468
0.000467827
0.00041051
0.000183646
0.000188707
0.000202951
0.000253201
0.000335354
0.000509432
0.000379529
0.000227848
0.000267409
0.000424561
0.000451412
0.00078302
0.000630768
0.000318367
0.000365636
0.000809057
0.000732141
0.000898557
0.00091507
0.000368772
0.000389487
0.00101458
0.000882868
0.00117752
0.00108201
0.000425451
0.00044384
0.00120492
0.00114895
0.00124945
0.00125059
0.000409684
0.000400578
0.00140095
0.00125042
0.00157533
0.00153276
0.000430284
0.000425302
0.00168652
0.00152645
0.00167286
0.0016997
0.000361463
0.000301485
0.00161419
0.00184294
0.00175832
0.00156693
0.00028886
0.000331673
0.00173197
0.00214445
0.00198561
0.00167452
0.000305447
0.000230132
0.00144734
0.00215125
0.00171307
0.00079606
9.58572e-05
8.6634e-05
0.0010109
0.00210228
0.00198811
0.000853009
0.000107388
9.102e-05
0.000797681
0.00164469
0.00153371
0.000747206
7.53761e-05
3.79633e-05
0.00033678
0.00086402
0.00169146
0.000936347
0.000103252
0.000119796
0.000792675
0.00163424
0.00133315
0.000561525
7.99559e-05
5.60488e-05
0.000514186
0.00123777
0.000573605
0.000186484
3.17587e-05
6.74659e-05
0.000745751
0.00141779
0.00130778
0.000592564
7.50148e-05
5.30057e-05
0.000500738
0.00118142
0.000492157
0.000168021
3.11362e-05
5.6009e-05
0.000674162
0.00128003
0.00116632
0.000512404
6.39955e-05
4.54139e-05
0.000414218
0.00102966
0.000400451
0.000137608
2.78866e-05
4.55954e-05
0.000568428
0.00111323
0.00107376
0.000484816
5.53329e-05
4.21445e-05
0.000322074
0.000863034
0.000820823
0.000298194
3.30966e-05
2.29841e-05
0.000102294
0.000302178
0.000918265
0.000462778
3.62192e-05
4.43597e-05
0.000364701
0.000851992
0.000751931
0.000287594
3.3324e-05
2.30748e-05
9.4103e-05
0.000265456
0.000810798
0.000408008
3.31129e-05
4.0225e-05
0.000311124
0.000739205
0.000678017
0.000261537
3.11838e-05
2.26911e-05
8.98021e-05
0.000239129
0.000762382
0.00038531
3.16324e-05
3.95895e-05
0.000301406
0.000706437
0.000621702
0.000241013
3.02692e-05
2.24212e-05
8.35742e-05
0.000212162
0.000675597
0.000331551
2.941e-05
3.72604e-05
0.000266449
0.000619187
0.000562025
0.000223728
2.87735e-05
2.21266e-05
8.02455e-05
0.000197091
0.000649158
0.000322105
2.85298e-05
3.67486e-05
0.000261991
0.000601666
0.00051517
0.000206884
2.87155e-05
2.19673e-05
7.60897e-05
0.000178713
0.000570858
0.000275423
2.68614e-05
3.2619e-05
0.000250851
0.000556305
0.000205897
9.24127e-05
2.41454e-05
2.94577e-05
0.000319849
0.000625328
0.000565885
0.000258824
3.78433e-05
3.0068e-05
0.000209664
0.000470207
0.000174639
8.12148e-05
2.28949e-05
2.70232e-05
0.000268739
0.000538769
0.000491093
0.000232909
3.54138e-05
2.87115e-05
0.000191431
0.000419773
0.000157901
7.44414e-05
2.24503e-05
2.51829e-05
0.000232142
0.000464314
0.000433839
0.000210506
3.12685e-05
2.35215e-05
8.3613e-05
0.000168801
0.000481648
0.000249688
2.62312e-05
3.45159e-05
0.00020852
0.00042179
0.000364317
0.000172756
2.81623e-05
2.26354e-05
7.10231e-05
0.000145291
0.00040551
0.000209473
2.39352e-05
3.03685e-05
0.000192419
0.000383457
0.000157412
8.08529e-05
2.36221e-05
2.52992e-05
0.000227446
0.000432756
0.000393018
0.000202718
3.36125e-05
2.84716e-05
0.000165457
0.000334484
0.000139344
7.09749e-05
2.30037e-05
2.33205e-05
0.000198537
0.000369189
0.000346799
0.000180217
2.96645e-05
2.3372e-05
7.83888e-05
0.000147488
0.000383214
0.00020962
2.42278e-05
3.21364e-05
0.000180268
0.000336336
0.000295022
0.000153456
2.72386e-05
2.25121e-05
6.7052e-05
0.000129767
0.000310844
0.000173315
2.21806e-05
2.87784e-05
0.000163768
0.000298304
0.000135176
7.41017e-05
2.30176e-05
2.29412e-05
0.000185081
0.000325613
0.000294696
0.000165806
3.09523e-05
2.66301e-05
0.000144284
0.000260421
0.000118928
6.4022e-05
2.21384e-05
2.13673e-05
0.000158147
0.000271744
0.000262728
0.000151911
2.7837e-05
2.23927e-05
6.96265e-05
0.000121267
0.000280621
0.000166266
2.15471e-05
2.8122e-05
0.000157562
0.000266627
0.000126267
7.28683e-05
2.26479e-05
2.18155e-05
0.000168451
0.000275178
0.000260044
0.000156268
2.85929e-05
2.31049e-05
7.56717e-05
0.000128024
0.000284259
0.000170948
2.23825e-05
3.0259e-05
0.000154411
0.000256134
0.000230667
0.000134251
2.63522e-05
2.21856e-05
6.80008e-05
0.000113472
0.000224895
0.000144662
2.0947e-05
2.78399e-05
0.000134811
0.000214921
0.000112199
7.32674e-05
2.26389e-05
2.10026e-05
0.000144789
0.000215845
0.000207245
0.000134044
2.76191e-05
2.24155e-05
7.41061e-05
0.000111584
0.000223678
0.000149433
2.1056e-05
2.78624e-05
0.000137968
0.000212282
0.00011612
7.77726e-05
2.27561e-05
2.17102e-05
0.000150874
0.000224666
0.000218974
0.000142824
3.00955e-05
2.6774e-05
0.000122594
0.000192574
0.000103194
7.06753e-05
2.2474e-05
2.05365e-05
0.000133495
0.000197313
0.00018668
0.000125448
2.76191e-05
2.25451e-05
7.4116e-05
0.000104025
0.000199619
0.000137732
2.06565e-05
2.77962e-05
0.000128639
0.000186502
0.000106241
7.7242e-05
2.2707e-05
2.09954e-05
0.000138978
0.000197783
0.000184588
0.000128983
2.81489e-05
2.28427e-05
7.87735e-05
0.000106498
0.00019992
0.000140475
2.10226e-05
2.8234e-05
0.000131326
0.000186211
0.000108161
8.11292e-05
2.3118e-05
2.1333e-05
0.000141297
0.000198337
0.000184297
0.000131528
2.87527e-05
2.37037e-05
8.37151e-05
0.000108836
0.00019793
0.000139552
2.20139e-05
3.07963e-05
0.000134874
0.000189516
0.000169093
0.000119197
2.75604e-05
2.30074e-05
7.56604e-05
9.54226e-05
0.000171501
0.000122395
2.069e-05
2.84033e-05
0.000116654
0.000160175
9.46896e-05
7.86626e-05
2.32049e-05
2.06904e-05
0.000122411
0.000166679
0.000155934
0.000116074
2.82749e-05
2.31694e-05
7.95782e-05
9.39229e-05
0.00016748
0.00012365
2.08302e-05
2.84648e-05
0.000116836
0.000155596
9.46899e-05
8.13993e-05
2.33581e-05
2.08694e-05
0.000123005
0.000164763
0.000154432
0.00011691
2.85925e-05
2.3727e-05
8.285e-05
9.49795e-05
0.000166699
0.000124877
2.12537e-05
2.90728e-05
0.000118322
0.000155661
9.64565e-05
8.50349e-05
2.40519e-05
2.16466e-05
0.000125245
0.000165997
0.000155977
0.000119244
2.96355e-05
2.46076e-05
8.70437e-05
9.75391e-05
0.000168814
0.000127811
2.19796e-05
2.99473e-05
0.000121444
0.000157984
9.93793e-05
8.92042e-05
2.49683e-05
2.22701e-05
0.000128183
0.000168524
0.00015858
0.000122543
3.04779e-05
2.55606e-05
9.15031e-05
0.000100649
0.000171773
0.000131063
2.28731e-05
3.12146e-05
0.000125186
0.000161439
0.00010393
9.5226e-05
2.63588e-05
2.39546e-05
0.0001341
0.000176793
0.000171696
0.000134815
3.35982e-05
3.04746e-05
0.000121719
0.000154028
9.65925e-05
8.84207e-05
2.55338e-05
2.26689e-05
0.000122525
0.000161927
0.0001536
0.00011777
3.14369e-05
2.60973e-05
9.0527e-05
9.70767e-05
0.000163085
0.000125064
2.29637e-05
3.14927e-05
0.000119992
0.000153471
9.88554e-05
9.25806e-05
2.61107e-05
2.3e-05
0.000126057
0.000162594
0.00015275
0.000120941
3.15519e-05
2.63263e-05
9.41667e-05
9.94128e-05
0.000164223
0.000127594
2.33444e-05
3.19836e-05
0.000122683
0.000154699
0.000101408
9.58818e-05
2.66384e-05
2.34287e-05
0.000128758
0.000165032
0.000155252
0.00012381
3.22304e-05
2.68738e-05
9.74787e-05
0.000102229
0.000166987
0.000130309
2.36872e-05
3.26182e-05
0.000125501
0.000157601
0.00010454
9.97433e-05
2.74078e-05
2.42112e-05
0.000132384
0.000168374
0.000158653
0.000127444
3.31653e-05
2.77853e-05
0.000101766
0.000105694
0.000171087
0.000134745
2.45858e-05
3.37831e-05
0.000129882
0.000161735
0.000108432
0.000104219
2.83102e-05
2.48743e-05
0.000136989
0.000173288
0.000163465
0.000132013
3.4087e-05
2.86561e-05
0.000106201
0.000109944
0.000176688
0.000139615
2.5344e-05
3.49278e-05
0.000134774
0.000167459
0.000114109
0.000110115
2.97111e-05
2.65413e-05
0.000143139
0.00018228
0.000175404
0.000145898
3.73499e-05
3.37081e-05
0.000133394
0.0001573
0.000108583
0.000101935
2.83997e-05
2.50276e-05
0.000128956
0.000162301
0.000154852
0.000124906
3.48622e-05
2.92545e-05
0.000103338
0.000107228
0.000160223
0.000128885
2.5384e-05
3.50333e-05
0.000124875
0.000151597
0.000106737
0.000104993
2.91738e-05
2.54038e-05
0.000129422
0.000158422
0.000150911
0.000125492
3.52027e-05
2.94263e-05
0.000106428
0.000107064
0.000160287
0.000130965
2.56237e-05
3.53231e-05
0.000126999
0.000152166
0.00010859
0.000108506
2.9644e-05
2.58971e-05
0.000132651
0.000162081
0.000154492
0.000128912
3.56229e-05
3.01211e-05
0.000110651
0.000110271
0.000166027
0.000135812
2.64147e-05
3.64876e-05
0.000131945
0.000158244
0.000113444
0.000114056
3.07027e-05
2.70023e-05
0.000139196
0.000169525
0.000162008
0.000135498
3.72016e-05
3.18184e-05
0.00011844
0.000116816
0.000178499
0.000144618
2.83482e-05
3.99016e-05
0.000149613
0.00017212
0.000156622
0.000139183
3.62517e-05
3.07965e-05
0.000112654
0.000115457
0.000165239
0.000135618
2.70046e-05
3.80883e-05
0.000132145
0.000158908
0.000114837
0.0001162
3.21883e-05
2.77603e-05
0.000138821
0.000167243
0.000159596
0.000135014
3.83573e-05
3.22474e-05
0.000119005
0.000116487
0.000170718
0.000142279
2.79821e-05
3.85219e-05
0.000138262
0.000163561
0.000119978
0.000121903
3.25611e-05
2.83646e-05
0.000145322
0.000174248
0.000166281
0.000141643
3.88262e-05
3.30999e-05
0.000125679
0.000122965
0.000178888
0.000148284
2.94874e-05
4.15961e-05
0.000153833
0.000170268
0.000157766
0.000144209
3.80706e-05
3.27232e-05
0.000119194
0.000121197
0.00016715
0.000140154
2.86327e-05
4.00653e-05
0.000136594
0.000160437
0.000119718
0.000122787
3.36626e-05
2.91253e-05
0.000142514
0.000168998
0.000162284
0.000139224
4.02713e-05
3.43362e-05
0.000127327
0.000122152
0.000176669
0.000147731
3.02076e-05
4.29856e-05
0.000154603
0.000169205
0.000155764
0.000145826
3.93671e-05
3.3805e-05
0.000123634
0.00012261
0.000167587
0.000141936
2.9526e-05
4.1355e-05
0.000138884
0.00016143
0.000122803
0.000127483
3.48794e-05
3.00486e-05
0.000146212
0.000171233
0.000163348
0.000142923
4.14503e-05
3.4816e-05
0.000131287
0.000125388
0.00017629
0.000149161
3.03701e-05
4.35617e-05
0.000156307
0.000167326
0.00015632
0.000147612
4.00988e-05
3.47423e-05
0.00012606
0.000125281
0.000167798
0.000143525
3.02278e-05
4.24307e-05
0.000140341
0.000161419
0.00012524
0.000130585
3.57561e-05
3.07822e-05
0.000147242
0.000170883
0.000164113
0.000144209
4.27042e-05
3.66075e-05
0.000136621
0.000128204
0.000180282
0.000153819
3.18948e-05
4.52267e-05
0.000161588
0.000172948
0.00016022
0.000154322
4.19799e-05
3.63772e-05
0.000135862
0.000131307
0.000175164
0.000151242
3.19066e-05
4.46238e-05
0.000148891
0.000169274
0.000134558
0.000142437
3.82113e-05
3.33909e-05
0.000158071
0.000183102
0.000176888
0.000167238
4.71631e-05
4.25148e-05
0.000158758
0.000163237
0.0001343
0.000137976
3.64837e-05
3.19401e-05
0.000151977
0.000176284
0.000171107
0.000149301
4.53116e-05
3.93812e-05
0.000144668
0.000137522
0.000182925
0.000159303
3.43311e-05
4.87148e-05
0.000168557
0.000176868
0.000164688
0.000161957
4.48042e-05
3.85857e-05
0.000145466
0.000139601
0.000178793
0.000157087
3.3694e-05
4.83801e-05
0.000166347
0.000171997
0.000162945
0.000157181
4.40174e-05
3.87365e-05
0.000140421
0.000137443
0.000173914
0.000151942
3.39171e-05
4.77571e-05
0.000150282
0.00016853
0.000139105
0.00015028
4.08949e-05
3.56359e-05
0.00016164
0.00018327
0.000177252
0.000171055
5.05336e-05
4.68367e-05
0.000165274
0.000166227
0.000143005
0.00015333
4.06343e-05
3.50976e-05
0.00016429
0.000186973
0.000181545
0.000173892
5.04966e-05
4.73368e-05
0.000167695
0.000170392
0.000146945
0.000155288
4.1661e-05
3.68654e-05
0.000165918
0.000187842
0.000182629
0.000175515
5.29301e-05
4.92613e-05
0.00016877
0.000173086
0.000150549
0.000158049
4.27486e-05
3.67298e-05
0.00016702
0.000187697
0.000183086
0.000177066
5.22761e-05
4.86392e-05
0.000170326
0.000172443
0.000150875
0.000159847
4.32121e-05
3.82192e-05
0.000168702
0.00018924
0.000182162
0.000169422
5.52271e-05
5.3267e-05
0.000183514
0.000173796
0.000169172
0.000173297
5.00769e-05
4.40856e-05
0.000156452
0.000152652
0.000181482
0.000162358
3.74998e-05
5.48639e-05
0.000172757
0.000176465
0.00016808
0.000166694
5.17375e-05
4.55192e-05
0.000161971
0.000150453
0.000186492
0.000168094
3.96468e-05
5.73816e-05
0.000167335
0.000179874
0.000172129
0.000179879
5.63691e-05
5.13432e-05
0.000170908
0.000166786
0.000150877
0.000162603
4.61675e-05
4.09107e-05
0.000168821
0.000188787
0.000183938
0.000167347
6.05573e-05
5.83827e-05
0.000187163
0.000176152
0.000170244
0.000178453
5.45975e-05
4.74263e-05
0.000167796
0.000156797
0.000190483
0.000171165
3.94362e-05
5.85707e-05
0.000174765
0.00018343
0.000178149
0.000181311
5.87679e-05
5.96632e-05
0.000180487
0.000173172
0.000170711
0.000171734
5.81346e-05
5.13679e-05
0.000168878
0.000157023
0.000190132
0.000170447
4.20944e-05
6.30068e-05
0.000175734
0.000185968
0.000180279
0.000176846
6.46246e-05
6.61036e-05
0.000183359
0.000175375
0.000173375
0.000177794
6.62333e-05
6.4712e-05
0.000182672
0.000169374
0.000165248
0.000172723
6.1752e-05
5.54886e-05
0.000172669
0.000157124
0.000187531
0.000172678
4.55592e-05
6.40643e-05
0.000169729
0.000182564
0.000175991
0.000183218
6.42038e-05
6.73731e-05
0.000181769
0.000173958
0.000172322
0.000179973
6.99735e-05
7.16888e-05
0.000176774
0.000172021
0.000169559
0.000179239
7.46148e-05
7.57064e-05
0.000174554
0.000169263
0.000168955
0.000184178
7.69825e-05
7.82524e-05
0.000187359
0.000169686
0.000171953
0.000199607
7.76814e-05
7.59739e-05
0.000207174
0.00017336
0.000178751
0.000222761
7.40832e-05
7.18627e-05
0.00022964
0.000180751
0.000189059
0.000242633
6.99264e-05
6.79038e-05
0.000241238
0.000191736
0.00020232
0.000254055
6.62363e-05
6.45562e-05
0.000253881
0.000205949
0.000218507
0.000265056
6.31853e-05
6.18835e-05
0.000268571
0.000222905
0.000238616
0.000276403
6.07864e-05
5.97994e-05
0.000281929
0.000244277
0.000263526
0.000287593
5.89445e-05
5.82105e-05
0.000293377
0.000269815
0.000291229
0.000299134
5.75562e-05
5.70413e-05
0.000304769
0.000298545
0.00032092
0.000310698
5.65342e-05
5.62307e-05
0.000316555
0.000329473
0.00035307
0.00032276
5.58233e-05
5.57163e-05
0.000328714
0.000360072
0.000385836
0.000334843
5.53926e-05
5.54304e-05
0.000340771
0.00038753
0.000413444
0.000347034
5.5193e-05
5.53038e-05
0.000352783
0.000415158
0.000440289
0.000358854
5.5165e-05
5.53082e-05
0.000364481
0.000441906
0.000466573
0.000370577
5.52612e-05
5.54194e-05
0.000375811
0.000467883
0.000491487
0.000381613
5.54373e-05
5.55926e-05
0.00038655
0.000492507
0.000515248
0.000392283
5.5644e-05
5.5795e-05
0.00039674
0.000515713
0.000537165
0.000402096
5.58724e-05
5.60163e-05
0.000406238
0.000537299
0.000557571
0.000411335
5.609e-05
5.62442e-05
0.000415064
0.00055721
0.000576117
0.000419592
5.63132e-05
5.64723e-05
0.000422966
0.000575625
0.000593618
0.000427278
5.65275e-05
5.66821e-05
0.000430134
0.000592626
0.000609466
0.00043407
5.67282e-05
5.6876e-05
0.00043659
0.000608402
0.000624453
0.000440323
5.69109e-05
5.70515e-05
0.000442362
0.00062292
0.000638066
0.000445749
5.70791e-05
5.72117e-05
0.000447513
0.00063653
0.000651013
0.000450714
5.72302e-05
5.73545e-05
0.00045206
0.000649048
0.00066285
0.000454952
5.73676e-05
5.74842e-05
0.000456097
0.000660945
0.000674199
0.000458827
5.74901e-05
5.75983e-05
0.000459617
0.000671887
0.00068467
0.000462088
5.76003e-05
5.7702e-05
0.000462745
0.000682462
0.000694804
0.00046509
5.76988e-05
5.7793e-05
0.00046545
0.000692197
0.000704181
0.000467577
5.77866e-05
5.78756e-05
0.000467758
0.000701486
0.000713332
0.000469823
5.7866e-05
5.795e-05
0.000469898
0.00071044
0.000721877
0.000471776
5.79383e-05
5.80188e-05
0.000471851
0.000719236
0.000730436
0.000473664
5.80046e-05
5.80815e-05
0.000473531
0.000727409
0.000738382
0.000475169
5.80669e-05
5.81406e-05
0.000475058
0.000735489
0.000746397
0.000476678
5.81242e-05
5.81946e-05
0.000476387
0.000743087
0.000753809
0.000477854
5.81777e-05
5.82455e-05
0.000477621
0.000750613
0.000761273
0.000479095
5.82272e-05
5.8293e-05
0.000478703
0.000757664
0.000767612
0.000480039
5.82751e-05
5.8339e-05
0.000479724
0.000764611
0.00077224
0.000481093
5.83206e-05
5.83827e-05
0.000480613
0.000770848
0.000776493
0.00048184
5.83652e-05
5.84248e-05
0.000481419
0.000776778
0.00078021
0.000482671
5.84073e-05
5.84638e-05
0.000482079
0.000782025
0.000783624
0.000483182
5.84469e-05
5.84997e-05
0.000482652
0.000787075
0.000786612
0.00048378
5.84825e-05
5.85315e-05
0.000483079
0.000791536
0.000789377
0.000484061
5.85152e-05
5.85602e-05
0.000483434
0.000795856
0.000791853
0.000484452
5.85438e-05
5.85857e-05
0.000483679
0.00079817
0.000794006
0.000484557
5.85699e-05
5.86083e-05
0.000483871
0.000800499
0.000795895
0.00048478
5.85926e-05
5.86278e-05
0.000483946
0.000802084
0.000797502
0.000484718
5.86127e-05
5.8644e-05
0.00048397
0.000803899
0.000798918
0.000484788
5.86289e-05
5.86571e-05
0.000483898
0.000805032
0.000800118
0.000484588
5.86426e-05
5.86675e-05
0.000483793
0.000806464
0.000801185
0.000484541
5.86531e-05
5.86753e-05
0.000483612
0.000807261
0.000802082
0.000484241
5.86618e-05
5.8681e-05
0.000483416
0.000808407
0.000802889