/*--------------------------------*- C++ -*----------------------------------*\
| =========                 |                                                 |
| \\      /  F ield         | OpenFOAM: The Open Source CFD Toolbox           |
|  \\    /   O peration     | Version:  v2006                                 |
|   \\  /    A nd           | Website:  www.openfoam.com                      |
|    \\/     M anipulation  |                                                 |
\*---------------------------------------------------------------------------*/
FoamFile
{
    version     2.0;
    format      ascii;
    class       volScalarField;
    location    "0.031";
    object      Ma;
}
// * * * * * * * * * * * * * * * * * * * * * * * * * * * * * * * * * * * * * //

dimensions      [0 0 0 0 0 0 0];


internalField   nonuniform List<scalar> 
16277
(
0.139414
0.139416
0.139414
0.139412
0.139412
0.139404
0.139389
0.139343
0.139238
0.139075
0.138869
0.138642
0.13841
0.138175
0.137939
0.137699
0.137451
0.137193
0.136925
0.136645
0.136354
0.136051
0.135738
0.135414
0.135079
0.134733
0.134378
0.134011
0.133635
0.133249
0.132853
0.132448
0.132034
0.131611
0.13118
0.130741
0.130294
0.12984
0.129379
0.128912
0.128439
0.127961
0.127477
0.12699
0.126498
0.126003
0.125505
0.125004
0.124502
0.123999
0.123494
0.12299
0.122486
0.121983
0.121482
0.120983
0.120487
0.119994
0.119506
0.119022
0.118543
0.11807
0.117604
0.117145
0.116694
0.11625
0.115816
0.115391
0.114977
0.114572
0.114179
0.113797
0.113428
0.113071
0.112727
0.112397
0.112081
0.111776
0.111479
0.111188
0.110901
0.110624
0.11038
0.110209
0.110132
0.11013
0.11016
0.110195
0.110223
0.110221
0.1102
0.110129
0.109952
0.109654
0.10917
0.108613
0.106562
0.105247
0.108638
0.109306
0.109376
0.108489
0.103763
0.102294
0.108313
0.109439
0.109432
0.108042
0.100944
0.0996994
0.107755
0.10939
0.109277
0.107385
0.0985377
0.0974876
0.107048
0.109158
0.108985
0.106665
0.0964943
0.0956238
0.106333
0.108832
0.108625
0.105931
0.0947807
0.0940279
0.105593
0.108438
0.108201
0.105183
0.093286
0.0926162
0.104844
0.107995
0.107739
0.104434
0.0919509
0.0913482
0.104101
0.107523
0.107245
0.103685
0.0907314
0.0901714
0.103352
0.107014
0.106723
0.102934
0.0895953
0.0890728
0.102605
0.106484
0.106185
0.10219
0.0885326
0.0880395
0.101865
0.10594
0.105631
0.101451
0.0875249
0.0870537
0.101128
0.10538
0.105063
0.100713
0.0865584
0.0861041
0.100392
0.104805
0.10448
0.0999749
0.085624
0.0851827
0.0996534
0.104216
0.103882
0.0992341
0.0847141
0.0842825
0.098911
0.103611
0.103269
0.098488
0.0838223
0.0833976
0.0981622
0.10299
0.102638
0.0977348
0.0829434
0.0825235
0.0974051
0.102353
0.101991
0.0969726
0.0820734
0.0816564
0.0966382
0.101697
0.101326
0.0962
0.0812088
0.0807932
0.0958599
0.101023
0.100641
0.095415
0.0803465
0.079931
0.0950682
0.100329
0.0999361
0.094616
0.0794839
0.0790672
0.0942616
0.0996138
0.0992098
0.0938016
0.0786187
0.0781995
0.0934392
0.0988767
0.0984605
0.0929703
0.0777482
0.0773254
0.092599
0.0981161
0.0976873
0.0921203
0.0768702
0.0764428
0.0917393
0.0973309
0.0968887
0.0912501
0.0759828
0.0755497
0.0908584
0.0965197
0.0960635
0.090358
0.0750836
0.0746437
0.0899548
0.095681
0.0952103
0.0894423
0.0741706
0.0737231
0.0890267
0.0948136
0.0943277
0.0885015
0.0732421
0.0727859
0.0880727
0.0939162
0.0934143
0.087534
0.072296
0.0718304
0.0870913
0.0929874
0.0924691
0.0865385
0.0713309
0.0708552
0.0860813
0.0920261
0.091491
0.0855138
0.0703454
0.069859
0.0850416
0.0910316
0.0904793
0.0844591
0.0693385
0.0688411
0.0839717
0.0900031
0.0894336
0.0833741
0.0683098
0.0678014
0.0828712
0.0889405
0.0883539
0.0822588
0.0672594
0.0667407
0.081741
0.0878443
0.0872411
0.0811144
0.0661886
0.0656604
0.0805824
0.0867158
0.0860971
0.0799428
0.0650994
0.0645632
0.079398
0.0855573
0.0849247
0.0787472
0.0639951
0.0634529
0.0781918
0.0843724
0.0837281
0.0775322
0.0628802
0.062335
0.0769691
0.0831658
0.0825131
0.0763042
0.0617611
0.061217
0.0757371
0.0819445
0.0812875
0.0750715
0.0606464
0.0601086
0.0745058
0.0807173
0.0800614
0.0738452
0.0595471
0.0590223
0.0732875
0.0794957
0.0788478
0.0726394
0.0584773
0.0579737
0.0720979
0.0782943
0.0776631
0.0714713
0.0574543
0.056982
0.0709563
0.0771314
0.0765273
0.0703626
0.0564993
0.0560707
0.0698864
0.0760291
0.075465
0.0693389
0.0556378
0.0552667
0.068916
0.0750138
0.0745038
0.0684298
0.0548983
0.0546036
0.0680743
0.0741149
0.0736754
0.0676671
0.0543147
0.0541267
0.067396
0.0733628
0.0730117
0.0670858
0.053929
0.0538607
0.0669201
0.0727992
0.0725487
0.0667211
0.053764
0.0538269
0.0666749
0.0724505
0.0723119
0.0665978
0.053839
0.0540369
0.0666782
0.0723361
0.0723174
0.0667291
0.0541608
0.0544795
0.0669277
0.0724572
0.0725502
0.0670942
0.0547109
0.0551652
0.0674288
0.0728243
0.0730455
0.0677287
0.0555277
0.0561087
0.0682006
0.0734575
0.0737995
0.0686197
0.0565735
0.0572192
0.0691794
0.0743021
0.0747275
0.0696762
0.057738
0.0584212
0.0702987
0.0752995
0.0757847
0.0708471
0.0589661
0.0596627
0.0715068
0.0764031
0.0769282
0.0720851
0.0602126
0.0609046
0.0727625
0.0775745
0.0781211
0.0733512
0.0614423
0.0621128
0.0740272
0.0787768
0.0793269
0.0746083
0.0626212
0.0632559
0.0752664
0.079975
0.0805126
0.075824
0.0637215
0.0643089
0.0764501
0.0811385
0.0816499
0.0769711
0.0647217
0.0652535
0.0775543
0.0822416
0.0827156
0.0780281
0.0656062
0.0660771
0.0785597
0.0832636
0.0836916
0.0789773
0.0663683
0.0667757
0.079452
0.0841888
0.0845632
0.0798071
0.0670096
0.0673501
0.080223
0.0850059
0.0853261
0.0805176
0.0675271
0.0678032
0.0808747
0.0857131
0.0859794
0.0811102
0.0679266
0.0681432
0.0814107
0.0863113
0.0865255
0.0815904
0.0682181
0.0683819
0.0818386
0.0868054
0.0869714
0.0819676
0.0684152
0.0685348
0.0821696
0.0872047
0.0873281
0.0822548
0.068534
0.0686184
0.0824174
0.0875211
0.0876078
0.0824657
0.068591
0.0686481
0.0825956
0.0877668
0.0878228
0.0826138
0.0686006
0.0686374
0.0827172
0.0879538
0.0879845
0.082711
0.068575
0.0685971
0.0827934
0.0880928
0.0881029
0.0827681
0.0685242
0.0685351
0.0828335
0.0881923
0.0881858
0.0827931
0.0684548
0.068459
0.0828462
0.0882611
0.0882418
0.0827946
0.068374
0.0683736
0.0828382
0.0883058
0.0882764
0.0827784
0.0682857
0.0682821
0.0828145
0.0883314
0.0882941
0.0827484
0.0681925
0.0681879
0.0827797
0.0883428
0.0882993
0.0827091
0.0680979
0.0680931
0.0827367
0.088343
0.0882946
0.0826627
0.068003
0.0679988
0.0826878
0.0883347
0.0882826
0.0826114
0.0679089
0.0679053
0.0826348
0.0883199
0.088265
0.0825566
0.0678159
0.0678132
0.082579
0.0883004
0.0882435
0.0824999
0.0677246
0.0677233
0.0825222
0.088278
0.0882201
0.0824431
0.0676359
0.067637
0.0824664
0.0882549
0.0881973
0.0823888
0.0675523
0.0675572
0.0824148
0.0882343
0.0881785
0.08234
0.0674762
0.0674867
0.0823726
0.0882332
0.0881931
0.0823112
0.0674052
0.0675048
0.082385
0.0882778
0.0882638
0.0823931
0.067485
0.0677086
0.082603
0.0884547
0.088618
0.0828404
0.06813
0.0689624
0.0834061
0.0891438
0.0906848
0.0857012
0.0722717
0.071566
0.0829735
0.0881762
0.091587
0.0940965
0.0955497
0.0960493
0.0963551
0.0969592
0.0972017
0.097468
0.0975875
0.0976902
0.0977129
0.0976813
0.0976077
0.0974132
0.0972118
0.0967058
0.0964176
0.0960957
0.0957005
0.0950218
0.0932921
0.0895599
0.0817366
0.071769
0.0512715
0.0496422
0.0707376
0.0809282
0.0800819
0.0697754
0.0483523
0.0475442
0.0691413
0.0795389
0.0792797
0.0688793
0.0469387
0.0468426
0.0687517
0.0791708
0.0790595
0.068641
0.046514
0.0465006
0.0685703
0.079069
0.0790819
0.0685833
0.0465174
0.0465466
0.0686087
0.0791055
0.0791334
0.0686447
0.0465882
0.0466335
0.0686879
0.0791691
0.079202
0.0687309
0.0466813
0.0467328
0.0687792
0.079242
0.0792808
0.0688279
0.0467868
0.0468422
0.0688802
0.079324
0.0793634
0.0689305
0.0468968
0.0469547
0.0689842
0.079408
0.079451
0.0690386
0.0470139
0.0470745
0.069095
0.0794981
0.079541
0.0691491
0.0471337
0.0471958
0.0692063
0.0795882
0.079634
0.0692638
0.0472595
0.0473228
0.069323
0.079683
0.0797279
0.0693799
0.0473859
0.0474512
0.0694398
0.0797771
0.0798248
0.0694995
0.0475177
0.047584
0.0695612
0.0798758
0.0799228
0.0696203
0.0476497
0.047717
0.0696824
0.079974
0.0800236
0.0697444
0.0477861
0.047855
0.0698083
0.0800767
0.0801258
0.0698696
0.0479231
0.0479929
0.0699338
0.0801788
0.0802303
0.0699977
0.0480642
0.0481352
0.0700635
0.0802852
0.0803361
0.0701267
0.0482055
0.0482774
0.070193
0.0803916
0.0804452
0.0702592
0.0483504
0.0484239
0.0703271
0.0805025
0.080556
0.0703926
0.0484958
0.0485697
0.0704612
0.080614
0.0806705
0.0705298
0.0486443
0.0487194
0.0706
0.0807306
0.0807872
0.070668
0.0487925
0.0488675
0.070739
0.0808485
0.0809084
0.0708101
0.0489428
0.0490182
0.0708827
0.080972
0.0810323
0.0709532
0.0490911
0.0491659
0.0710269
0.0810977
0.0811621
0.071101
0.0492406
0.0493154
0.0711769
0.0812308
0.0812967
0.0712512
0.0493874
0.049461
0.0713289
0.0813681
0.0814392
0.0714076
0.0495342
0.0496075
0.0714884
0.081515
0.081589
0.0715684
0.0496777
0.0497492
0.0716522
0.0816692
0.0817498
0.0717375
0.0498195
0.0498897
0.0718258
0.0818362
0.0819224
0.0719147
0.0499565
0.0500234
0.0720077
0.0820154
0.0821098
0.072103
0.0500881
0.0501517
0.0722013
0.0822107
0.082312
0.0723006
0.0502113
0.0502715
0.0724052
0.082421
0.0825325
0.0725135
0.0503304
0.0503875
0.0726267
0.0826517
0.0827734
0.072743
0.0504417
0.050496
0.0728667
0.082905
0.0830417
0.0729968
0.0505509
0.0506053
0.0731344
0.0831882
0.0833395
0.0732785
0.0506607
0.0507195
0.0734334
0.0835033
0.0836745
0.0735985
0.0507835
0.0508527
0.0737751
0.0838582
0.0840495
0.0739625
0.0509288
0.0510152
0.0741657
0.0842558
0.0844722
0.0743838
0.0511149
0.0512313
0.0746197
0.0847033
0.0849461
0.074873
0.0513669
0.0515311
0.0751513
0.0852075
0.0854841
0.0754529
0.0517272
0.0519621
0.0757828
0.0857792
0.0860911
0.0761401
0.0522393
0.0525677
0.0765344
0.0864269
0.0867832
0.0769638
0.0529511
0.0534014
0.0774329
0.087163
0.0875661
0.0779442
0.0539289
0.0545483
0.0785086
0.088004
0.0884722
0.0791285
0.0552608
0.056113
0.0798277
0.0889887
0.0895812
0.0806521
0.0571791
0.0585144
0.0816062
0.0902501
0.0909211
0.0825881
0.0598442
0.061103
0.0835313
0.0915245
0.0920075
0.0843107
0.0623222
0.0633895
0.084751
0.0923282
0.0925839
0.0853901
0.0644386
0.0654057
0.0857593
0.0927906
0.0929356
0.0861666
0.0664797
0.0676203
0.0865733
0.0930935
0.0931176
0.0868554
0.0686488
0.0695371
0.0871097
0.0931024
0.0930924
0.0873886
0.0705139
0.0715783
0.0876579
0.0930916
0.0930473
0.0878777
0.0726715
0.073278
0.0880583
0.0928458
0.0922414
0.0876438
0.0731993
0.0583603
0.0807734
0.0891399
0.0915764
0.0839609
0.0620452
0.0620742
0.0842895
0.0917169
0.0916225
0.0845007
0.0630134
0.0642568
0.0845777
0.0914295
0.0914787
0.0850196
0.0657394
0.0673395
0.0853534
0.0914737
0.0915561
0.0858857
0.0689359
0.0704504
0.0861363
0.0914247
0.0914102
0.0865635
0.0719663
0.0733825
0.0868799
0.0913285
0.0912093
0.0871646
0.0746304
0.0750672
0.0870027
0.0906881
0.0882967
0.0818385
0.0646826
0.0686173
0.0847634
0.0902596
0.0903291
0.0851258
0.0695826
0.0711755
0.0857413
0.0903824
0.0903806
0.0860686
0.0723907
0.0735473
0.0862915
0.0902669
0.090176
0.086587
0.0747213
0.0752932
0.0865883
0.0898808
0.0892059
0.0862232
0.0755253
0.0664912
0.0816618
0.08712
0.0885754
0.0840679
0.0699393
0.0707923
0.084307
0.0884085
0.0880584
0.0843838
0.072035
0.0732123
0.0843342
0.0876944
0.08732
0.0844232
0.0744321
0.0747659
0.0839794
0.0864768
0.0845421
0.0801407
0.0671195
0.0709638
0.0822208
0.0857808
0.0855348
0.082402
0.072037
0.0730419
0.082309
0.0850887
0.0845303
0.0822156
0.0737268
0.073709
0.0814354
0.0834793
0.0818179
0.0783025
0.0672404
0.0702391
0.0797071
0.0824353
0.0815675
0.079219
0.0707009
0.0715451
0.0787895
0.0806564
0.0792932
0.0777922
0.0713914
0.0661602
0.075038
0.077668
0.0776903
0.0756972
0.0687651
0.0688646
0.0747395
0.0763271
0.0747312
0.0736145
0.0687899
0.067684
0.0717208
0.0724194
0.0700858
0.068632
0.0630525
0.0635108
0.0675191
0.0683888
0.064982
0.0647042
0.0615364
0.0567546
0.060762
0.0618173
0.0586319
0.0581008
0.0558628
0.0516967
0.0525741
0.0524748
0.0451429
0.0448598
0.0436614
0.0347908
0.0346827
0.035112
0.0239194
0.0219782
0.0205585
0.00585901
0.00910092
0.0149889
0.0296204
0.0280063
0.0284009
0.0536801
0.0520102
0.0512909
0.0693782
0.0708372
0.0722659
0.0833831
0.0832168
0.0823185
0.0867526
0.0866827
0.0854903
0.0890764
0.0917722
0.0918157
0.0932695
0.0924792
0.0890169
0.0909108
0.0952323
0.095907
0.0968517
0.0953933
0.0903945
0.0875369
0.0944764
0.0965691
0.0984235
0.0967747
0.0896939
0.0867245
0.0949239
0.0975084
0.0994274
0.0976564
0.0904445
0.0893925
0.0969847
0.0994074
0.0981388
0.0950403
0.0864496
0.0896899
0.0977311
0.0998814
0.0995739
0.0966906
0.0881255
0.0851219
0.0945243
0.0980665
0.0998554
0.097467
0.0887651
0.0872274
0.0964506
0.0995316
0.0977415
0.0939643
0.0838903
0.0878412
0.096989
0.0994982
0.0992983
0.0961465
0.0866787
0.0831194
0.0933841
0.0973739
0.0991792
0.0965327
0.0874666
0.0866338
0.0959436
0.0991426
0.0971931
0.0932597
0.0830734
0.0868418
0.0961885
0.0989199
0.0988513
0.0955455
0.085956
0.0827491
0.093007
0.0970085
0.0988395
0.0960383
0.0866701
0.0855964
0.0953171
0.0986935
0.0967995
0.0927706
0.0823061
0.0865151
0.0958397
0.0986632
0.0986921
0.0953482
0.0854885
0.0838456
0.0941187
0.0978999
0.095461
0.0909418
0.0793572
0.0838919
0.0945104
0.0976746
0.0978106
0.0939488
0.0829021
0.0789186
0.0908563
0.0956359
0.0977402
0.0945822
0.0836333
0.0822702
0.0936595
0.0976076
0.0953652
0.0907962
0.0785118
0.0835455
0.0944765
0.0976243
0.0977334
0.0938573
0.0826287
0.078767
0.0907857
0.0955386
0.0976544
0.0944441
0.0832313
0.082204
0.0936452
0.0976486
0.0956016
0.0907504
0.0786731
0.0836325
0.0947007
0.0978876
0.0979101
0.094009
0.0824946
0.0789031
0.0908946
0.0956147
0.0979114
0.0945085
0.0836589
0.0824753
0.0938101
0.0978645
0.0957845
0.0910964
0.0791667
0.0841554
0.0949522
0.0982828
0.0982268
0.0942261
0.0829241
0.078878
0.0910627
0.0957609
0.0982429
0.0948296
0.0834512
0.081088
0.0928781
0.0970789
0.0995426
0.0966757
0.0864467
0.0858566
0.0960447
0.0996071
0.0976146
0.0932562
0.0825359
0.0866455
0.0967407
0.0998376
0.0997544
0.0959755
0.0854246
0.082271
0.093378
0.0978857
0.100389
0.0973678
0.0872246
0.0864984
0.0969711
0.100641
0.0987106
0.0943248
0.0834106
0.0876501
0.0979599
0.100954
0.100706
0.096956
0.0862055
0.0825682
0.0939368
0.0985908
0.101037
0.0978984
0.0875808
0.0869353
0.0976351
0.101421
0.0993319
0.095022
0.0836052
0.0877291
0.0986066
0.101697
0.100362
0.0963857
0.0851006
0.0889147
0.0994532
0.102442
0.102352
0.0986842
0.0879102
0.0851806
0.0962659
0.100586
0.103049
0.100146
0.0898747
0.0889118
0.0996718
0.103258
0.101197
0.0969272
0.0856237
0.089761
0.100569
0.103597
0.102134
0.0982051
0.0870163
0.0911325
0.101357
0.104336
0.104574
0.101026
0.0908141
0.0880971
0.0986839
0.102889
0.105166
0.102278
0.0923176
0.0913364
0.101731
0.105307
0.103285
0.0990917
0.0879877
0.0918224
0.1026
0.105619
0.104105
0.100125
0.0889022
0.093098
0.103296
0.10618
0.106527
0.103049
0.0928509
0.0900012
0.100758
0.104885
0.107195
0.104391
0.0941666
0.0933467
0.103812
0.107433
0.105334
0.10079
0.0897316
0.0933811
0.104714
0.107603
0.106184
0.102238
0.0906668
0.0949302
0.105452
0.108384
0.108638
0.105013
0.09444
0.0915325
0.10258
0.106781
0.109298
0.106367
0.0956087
0.0934344
0.104473
0.108283
0.110618
0.107894
0.0977839
0.0966969
0.106975
0.110456
0.108313
0.10393
0.0931851
0.0964747
0.107433
0.110431
0.109376
0.105404
0.0942798
0.0992414
0.109189
0.111932
0.112098
0.108597
0.0985618
0.0953266
0.10584
0.110235
0.112571
0.109785
0.0991387
0.0968539
0.107741
0.111485
0.113648
0.11096
0.100917
0.0997464
0.109972
0.113454
0.111177
0.106975
0.0960205
0.0998482
0.110539
0.113416
0.11266
0.109002
0.0981107
0.102451
0.112595
0.115188
0.11542
0.112035
0.101829
0.0983302
0.109054
0.113456
0.115679
0.112963
0.101732
0.0994563
0.110597
0.114506
0.11676
0.114023
0.103252
0.1006
0.111495
0.11528
0.117201
0.114481
0.104352
0.103963
0.11404
0.117476
0.115798
0.11165
0.101179
0.104959
0.115478
0.118298
0.117288
0.113575
0.102778
0.106766
0.116953
0.119536
0.119552
0.116068
0.105809
0.10226
0.113046
0.117511
0.11969
0.116939
0.105424
0.102639
0.114224
0.118245
0.12041
0.117601
0.106339
0.104634
0.115822
0.11956
0.121978
0.119392
0.10929
0.108487
0.11878
0.122172
0.120328
0.11629
0.105584
0.109067
0.119862
0.122678
0.121398
0.117617
0.106452
0.110355
0.121128
0.123761
0.122566
0.119021
0.108321
0.111689
0.121836
0.12449
0.124266
0.120731
0.110467
0.107178
0.117992
0.12243
0.124897
0.122211
0.111194
0.109201
0.120265
0.124005
0.126392
0.123857
0.113151
0.111183
0.12187
0.125402
0.127555
0.125046
0.115156
0.114318
0.124306
0.127619
0.125743
0.121722
0.11122
0.114389
0.125106
0.127928
0.1265
0.12269
0.111672
0.115015
0.125953
0.128718
0.127744
0.124003
0.113151
0.117351
0.127355
0.129947
0.130163
0.126742
0.116589
0.113482
0.124403
0.128339
0.130654
0.127942
0.116903
0.114376
0.125938
0.129517
0.131822
0.129355
0.118236
0.116102
0.127158
0.130687
0.132746
0.130185
0.120027
0.118922
0.12924
0.132651
0.130495
0.126411
0.115348
0.118682
0.129744
0.132716
0.13175
0.127892
0.116521
0.120909
0.131829
0.134466
0.13343
0.129766
0.118996
0.122689
0.133258
0.135774
0.134708
0.13125
0.120711
0.124424
0.134315
0.136764
0.136811
0.133496
0.123657
0.120382
0.130619
0.134982
0.137125
0.134482
0.123171
0.120657
0.13202
0.135895
0.138086
0.135323
0.123874
0.121557
0.132959
0.136858
0.139213
0.136596
0.125812
0.124041
0.134693
0.138306
0.140532
0.138063
0.128162
0.127338
0.137408
0.140713
0.138918
0.13497
0.124258
0.127602
0.138489
0.141246
0.140084
0.136363
0.125044
0.128744
0.139871
0.142486
0.141245
0.137565
0.126542
0.13018
0.140879
0.143417
0.142212
0.138608
0.128021
0.131495
0.141548
0.144175
0.144303
0.140899
0.130711
0.127816
0.138552
0.142563
0.144976
0.142162
0.131236
0.128704
0.140177
0.143911
0.146401
0.143853
0.132644
0.130547
0.141617
0.145275
0.147443
0.144906
0.134109
0.131993
0.142755
0.14635
0.14843
0.145928
0.135911
0.135171
0.145146
0.148527
0.146629
0.142163
0.131689
0.13437
0.146136
0.148757
0.147615
0.143616
0.131898
0.136039
0.147497
0.150176
0.149156
0.145319
0.134113
0.137935
0.149011
0.151606
0.150488
0.146828
0.135866
0.13939
0.150145
0.152713
0.151665
0.148093
0.137473
0.141222
0.151282
0.153782
0.15388
0.15047
0.14025
0.137012
0.148086
0.15206
0.154392
0.15144
0.140404
0.137531
0.149319
0.153089
0.155419
0.152747
0.141166
0.138821
0.15026
0.154147
0.156585
0.153905
0.142808
0.140955
0.151847
0.155583
0.157931
0.155352
0.144589
0.142772
0.153445
0.157025
0.159302
0.156822
0.146889
0.145969
0.156086
0.159435
0.15762
0.153568
0.142753
0.146251
0.157194
0.160015
0.158867
0.155005
0.143795
0.147705
0.158849
0.161472
0.160298
0.156556
0.145496
0.148966
0.15996
0.162584
0.161324
0.157579
0.146743
0.150323
0.16097
0.163582
0.16266
0.159111
0.148543
0.15232
0.162363
0.16485
0.165049
0.161663
0.151493
0.148347
0.159376
0.16331
0.165657
0.162736
0.151566
0.148946
0.16071
0.164539
0.167094
0.164511
0.152837
0.15052
0.162157
0.165918
0.168294
0.165713
0.154363
0.152332
0.163495
0.167166
0.169395
0.166808
0.155828
0.153931
0.164754
0.168382
0.170652
0.168156
0.158027
0.157136
0.167426
0.170862
0.169096
0.165022
0.153984
0.157438
0.168651
0.171555
0.170507
0.166633
0.155058
0.159071
0.170608
0.17322
0.172063
0.168266
0.15675
0.160628
0.171888
0.174493
0.173414
0.16974
0.158695
0.162212
0.173161
0.175759
0.174783
0.171144
0.160321
0.164294
0.174501
0.177012
0.177187
0.173696
0.163301
0.159952
0.171484
0.175447
0.17794
0.174885
0.163608
0.160849
0.172865
0.176764
0.179395
0.176737
0.164906
0.162602
0.174366
0.178238
0.18079
0.178129
0.166477
0.164424
0.175877
0.179691
0.182124
0.179476
0.168097
0.166084
0.177253
0.181042
0.18353
0.180943
0.170019
0.1682
0.179012
0.182638
0.184957
0.182439
0.172358
0.171609
0.181831
0.185301
0.183646
0.179316
0.168566
0.171947
0.183368
0.186106
0.185143
0.181227
0.16974
0.173844
0.185267
0.187877
0.186821
0.183018
0.171773
0.17555
0.186689
0.1893
0.188245
0.184497
0.173609
0.177301
0.188062
0.19065
0.189705
0.186113
0.175416
0.179367
0.189518
0.192018
0.192269
0.188794
0.178393
0.175416
0.186484
0.190613
0.193114
0.190264
0.178946
0.176292
0.187981
0.191943
0.194628
0.191967
0.180293
0.178244
0.189812
0.193623
0.196116
0.193509
0.182039
0.180179
0.191408
0.195179
0.197805
0.195278
0.184234
0.182519
0.193465
0.197043
0.199415
0.196991
0.18674
0.185568
0.196149
0.199647
0.197982
0.193486
0.182534
0.18611
0.19775
0.200549
0.199487
0.195445
0.183695
0.187818
0.199525
0.202258
0.201186
0.197209
0.185701
0.189825
0.201176
0.203856
0.202921
0.199138
0.187993
0.191857
0.202872
0.205483
0.204683
0.200995
0.190024
0.194381
0.204686
0.207212
0.207745
0.20421
0.193625
0.190789
0.201995
0.206246
0.208946
0.206113
0.194701
0.192365
0.20405
0.207945
0.21067
0.207974
0.196242
0.193856
0.205545
0.209504
0.211989
0.209261
0.197719
0.195622
0.207039
0.210937
0.213633
0.210999
0.199817
0.197866
0.209077
0.212805
0.215296
0.212733
0.202164
0.201435
0.212295
0.215873
0.214331
0.210014
0.198647
0.202379
0.214077
0.217025
0.216086
0.212043
0.200162
0.204763
0.216455
0.219161
0.218442
0.214543
0.202915
0.207892
0.218992
0.221464
0.220711
0.217158
0.206085
0.209608
0.220422
0.222963
0.22306
0.21937
0.208136
0.204843
0.217016
0.221298
0.224061
0.220959
0.208926
0.206292
0.218759
0.222902
0.225873
0.22309
0.210768
0.208463
0.220819
0.224884
0.227755
0.22498
0.213141
0.211012
0.222913
0.226896
0.229652
0.226959
0.215854
0.215204
0.226669
0.230433
0.228956
0.224016
0.212491
0.216487
0.229018
0.231883
0.231339
0.227159
0.214568
0.220174
0.232293
0.234851
0.233802
0.229877
0.217836
0.221466
0.23351
0.236304
0.23518
0.231151
0.219027
0.223553
0.235022
0.23782
0.238118
0.234084
0.222163
0.21897
0.231936
0.236475
0.239638
0.236356
0.223995
0.221173
0.234124
0.238453
0.241603
0.238689
0.226012
0.223882
0.236576
0.240813
0.244178
0.241332
0.22904
0.226965
0.239433
0.243537
0.24658
0.243855
0.232191
0.231797
0.243862
0.247782
0.246652
0.242204
0.229632
0.234408
0.247005
0.249939
0.248455
0.244139
0.231059
0.235318
0.248188
0.251219
0.250004
0.245701
0.232803
0.237462
0.250108
0.253063
0.2521
0.247849
0.235137
0.24007
0.252076
0.254987
0.255654
0.251526
0.239095
0.236089
0.249158
0.25401
0.257166
0.253872
0.240975
0.238524
0.251877
0.25635
0.260073
0.257191
0.244376
0.242286
0.255418
0.259633
0.263068
0.260344
0.24821
0.24848
0.260941
0.264761
0.263266
0.258887
0.245844
0.249757
0.262749
0.26606
0.264422
0.259781
0.246362
0.251104
0.264411
0.267652
0.266549
0.261967
0.24855
0.253792
0.266858
0.269915
0.269166
0.264783
0.251651
0.257058
0.269412
0.272411
0.27333
0.269061
0.256256
0.253572
0.266576
0.271829
0.275221
0.271943
0.258689
0.256406
0.269934
0.274618
0.278735
0.275846
0.262686
0.261058
0.274438
0.278746
0.282585
0.280259
0.268787
0.268557
0.280365
0.283826
0.281742
0.276965
0.26412
0.267557
0.2811
0.284453
0.283155
0.278403
0.264397
0.269906
0.283556
0.286741
0.285984
0.281404
0.26748
0.273344
0.286368
0.289438
0.290441
0.285997
0.272401
0.269524
0.283425
0.288918
0.292504
0.289025
0.275332
0.272805
0.287057
0.291929
0.296153
0.293064
0.279733
0.27964
0.293744
0.29829
0.297613
0.292235
0.277909
0.285267
0.299038
0.301975
0.300723
0.29616
0.28195
0.285947
0.300372
0.303786
0.302249
0.297255
0.282403
0.2881
0.3021
0.305521
0.306261
0.301381
0.28682
0.283544
0.298784
0.304589
0.308549
0.304737
0.289806
0.287067
0.302687
0.307874
0.312288
0.308988
0.294557
0.294088
0.309311
0.314174
0.312882
0.306965
0.291241
0.29847
0.313669
0.317389
0.317714
0.312663
0.297079
0.306632
0.320368
0.322993
0.323914
0.31965
0.305131
0.299577
0.315307
0.321176
0.324422
0.320417
0.304511
0.300793
0.317416
0.323026
0.327203
0.323509
0.30814
0.307121
0.323301
0.328652
0.327086
0.320735
0.303826
0.311096
0.327513
0.331708
0.331148
0.325394
0.308306
0.317222
0.332863
0.33639
0.339041
0.333769
0.317168
0.314974
0.332019
0.338399
0.344278
0.341111
0.326353
0.324031
0.339494
0.344029
0.347696
0.344248
0.328754
0.325635
0.342324
0.347524
0.34509
0.338243
0.321182
0.327812
0.345057
0.349369
0.348344
0.342356
0.324416
0.332915
0.349406
0.353271
0.355405
0.349729
0.332395
0.329419
0.347423
0.354184
0.359423
0.355255
0.338252
0.336543
0.35427
0.360058
0.366641
0.363806
0.349012
0.352221
0.367285
0.371072
0.36972
0.364491
0.348829
0.352374
0.368815
0.372938
0.372461
0.366704
0.348684
0.343974
0.362531
0.369982
0.375098
0.370573
0.352122
0.34898
0.368218
0.374484
0.380244
0.376284
0.358875
0.35911
0.37749
0.383278
0.382706
0.375711
0.356733
0.367231
0.384499
0.388542
0.393188
0.387832
0.369284
0.369462
0.387482
0.393852
0.399707
0.395818
0.37793
0.372839
0.393138
0.399279
0.395904
0.387644
0.36665
0.37521
0.395592
0.400821
0.39957
0.392473
0.371368
0.382403
0.401265
0.405784
0.409047
0.402628
0.382829
0.381018
0.401253
0.408869
0.415662
0.411495
0.393676
0.397305
0.416229
0.42144
0.422799
0.416766
0.398368
0.407034
0.425221
0.428943
0.428206
0.422098
0.401247
0.394369
0.416556
0.424837
0.429926
0.424557
0.40421
0.402618
0.424534
0.431592
0.430746
0.422114
0.399617
0.413608
0.433693
0.438604
0.444327
0.437666
0.415898
0.418349
0.43985
0.447017
0.456312
0.453579
0.436025
0.432586
0.452951
0.45793
0.456722
0.448936
0.425233
0.415936
0.442995
0.452739
0.458648
0.452568
0.428581
0.427224
0.453341
0.461427
0.46168
0.451804
0.425553
0.446048
0.467404
0.472155
0.482299
0.478128
0.455628
0.459051
0.482047
0.48779
0.483692
0.474404
0.447479
0.455359
0.480942
0.487729
0.486806
0.478536
0.449505
0.446421
0.477008
0.487809
0.487685
0.476014
0.442641
0.471448
0.495674
0.499974
0.511284
0.506981
0.482391
0.481605
0.508075
0.515162
0.509067
0.498138
0.465617
0.476681
0.505531
0.513188
0.513704
0.505141
0.472613
0.472238
0.507651
0.517971
0.528637
0.519356
0.482694
0.484313
0.516963
0.528864
0.536079
0.526618
0.494355
0.481263
0.520763
0.532417
0.532169
0.519339
0.475305
0.478219
0.525236
0.53701
0.542239
0.529054
0.479822
0.469065
0.523679
0.540926
0.529309
0.507269
0.451808
0.483197
0.522873
0.535777
0.533316
0.521892
0.480586
0.469657
0.516923
0.530729
0.524551
0.5082
0.451458
0.433936
0.495981
0.514471
0.502359
0.481418
0.414048
0.391008
0.466001
0.490163
0.478988
0.451979
0.37102
0.355024
0.440317
0.469722
0.461934
0.430228
0.341429
0.329359
0.421028
0.45497
0.448553
0.412444
0.318447
0.30859
0.404386
0.442568
0.436942
0.396812
0.299594
0.29139
0.389688
0.431614
0.426554
0.382992
0.283926
0.277112
0.376675
0.421725
0.417107
0.370712
0.270904
0.265261
0.365088
0.412677
0.408417
0.359784
0.260138
0.255499
0.354792
0.404312
0.400358
0.350096
0.251292
0.247486
0.345684
0.396546
0.392873
0.341539
0.244048
0.240954
0.337649
0.389326
0.385898
0.333992
0.238175
0.235684
0.33056
0.382578
0.379364
0.327336
0.233452
0.231461
0.324312
0.376252
0.373242
0.321474
0.229688
0.22812
0.318817
0.370329
0.367511
0.316329
0.226737
0.225525
0.314005
0.364789
0.362164
0.311833
0.224465
0.223543
0.309805
0.359634
0.3572
0.307904
0.22275
0.222067
0.306127
0.354862
0.35262
0.304461
0.221478
0.220975
0.3029
0.350471
0.348407
0.301434
0.220547
0.220182
0.300056
0.346432
0.344538
0.298761
0.219875
0.219624
0.297548
0.342731
0.341002
0.296407
0.219421
0.219261
0.295337
0.339356
0.337786
0.294332
0.219136
0.219045
0.293388
0.336296
0.334874
0.292495
0.218988
0.218952
0.291657
0.333525
0.332241
0.290864
0.218942
0.218942
0.29012
0.331025
0.329868
0.289416
0.218958
0.218975
0.288756
0.328775
0.327737
0.288131
0.219003
0.21903
0.287548
0.326756
0.325825
0.286994
0.219065
0.219092
0.286476
0.324947
0.32411
0.285983
0.219126
0.219154
0.285525
0.323325
0.322576
0.285089
0.219188
0.219212
0.284683
0.321871
0.321199
0.284298
0.219242
0.219268
0.283944
0.320571
0.319973
0.283609
0.219298
0.219317
0.283298
0.319411
0.318873
0.283001
0.219338
0.219352
0.282728
0.318371
0.317892
0.28247
0.219368
0.219375
0.282229
0.317441
0.31701
0.282
0.219384
0.219387
0.28179
0.316608
0.316223
0.281589
0.219394
0.219393
0.2814
0.31586
0.31551
0.281217
0.219394
0.219392
0.281048
0.315184
0.314869
0.280886
0.219393
0.219385
0.280732
0.314572
0.314284
0.280584
0.21938
0.219373
0.280446
0.314016
0.313756
0.280314
0.219368
0.219356
0.280189
0.31351
0.313271
0.280068
0.219345
0.219333
0.279956
0.313049
0.312834
0.279849
0.219324
0.219309
0.279746
0.312629
0.31243
0.279647
0.219296
0.219281
0.279556
0.312245
0.312067
0.27947
0.21927
0.219255
0.279387
0.311895
0.311734
0.279308
0.219241
0.219226
0.279235
0.311579
0.311438
0.279168
0.219216
0.219204
0.279106
0.311297
0.31117
0.279046
0.219193
0.219181
0.27899
0.31104
0.310928
0.278938
0.219172
0.219163
0.278891
0.310811
0.310712
0.278848
0.219157
0.219149
0.278808
0.310605
0.310518
0.278771
0.219147
0.219143
0.278739
0.310421
0.310345
0.27871
0.219144
0.219143
0.278683
0.310256
0.31019
0.27866
0.219147
0.219151
0.278639
0.31011
0.310053
0.278622
0.21916
0.219168
0.278607
0.309981
0.309933
0.278597
0.219182
0.219195
0.278588
0.309869
0.30983
0.278585
0.219214
0.219232
0.278582
0.309773
0.309743
0.278585
0.219256
0.21928
0.278588
0.309693
0.309671
0.278597
0.219309
0.219337
0.278605
0.309627
0.309613
0.27862
0.21937
0.219404
0.278633
0.309576
0.30957
0.278653
0.219441
0.219478
0.278671
0.309538
0.30954
0.278696
0.21952
0.219563
0.278719
0.309514
0.309522
0.278748
0.219608
0.219654
0.278775
0.3095
0.309516
0.278809
0.219703
0.219754
0.278841
0.309499
0.30952
0.278879
0.219806
0.219859
0.278914
0.309509
0.309535
0.278956
0.219915
0.219972
0.278996
0.309529
0.30956
0.27904
0.22003
0.220089
0.279083
0.309558
0.309595
0.279132
0.22015
0.220212
0.279179
0.309598
0.309639
0.27923
0.220276
0.220339
0.27928
0.309646
0.309691
0.279335
0.220405
0.220471
0.279388
0.309702
0.309752
0.279445
0.220539
0.220607
0.279501
0.309767
0.309821
0.279562
0.220677
0.220748
0.279621
0.30984
0.309899
0.279685
0.22082
0.220893
0.279747
0.309921
0.309984
0.279813
0.220967
0.221042
0.279878
0.310009
0.310076
0.279946
0.221117
0.221193
0.280013
0.310104
0.310174
0.280084
0.22127
0.221347
0.280154
0.310205
0.310278
0.280227
0.221425
0.221503
0.280298
0.310312
0.310388
0.280373
0.221582
0.221662
0.280446
0.310425
0.310503
0.280523
0.221741
0.221821
0.280597
0.310542
0.310623
0.280675
0.221901
0.221981
0.280751
0.310664
0.310747
0.28083
0.222061
0.222142
0.280907
0.310789
0.310874
0.280987
0.222222
0.222302
0.281065
0.310918
0.311004
0.281145
0.222382