/*--------------------------------*- C++ -*----------------------------------*\
| =========                 |                                                 |
| \\      /  F ield         | OpenFOAM: The Open Source CFD Toolbox           |
|  \\    /   O peration     | Version:  v2006                                 |
|   \\  /    A nd           | Website:  www.openfoam.com                      |
|    \\/     M anipulation  |                                                 |
\*---------------------------------------------------------------------------*/
FoamFile
{
    version     2.0;
    format      ascii;
    class       volScalarField;
    location    "0.031";
    object      omega;
}
// * * * * * * * * * * * * * * * * * * * * * * * * * * * * * * * * * * * * * //

dimensions      [0 0 -1 0 0 0 0];


internalField   nonuniform List<scalar> 
16277
(
0.00810922
0.00810842
0.00810759
0.00810724
0.00810596
0.00810553
0.00810445
0.00810262
0.0080988
0.00809248
0.00808387
0.00807366
0.00806254
0.0080509
0.00803888
0.00802646
0.00801355
0.00800006
0.00798592
0.0079711
0.00795559
0.00793938
0.0079225
0.00790495
0.00788674
0.00786789
0.00784841
0.0078283
0.00780758
0.00778625
0.00776434
0.00774185
0.00771881
0.00769522
0.00767111
0.0076465
0.00762141
0.00759586
0.00756987
0.00754346
0.00751667
0.00748951
0.00746201
0.0074342
0.0074061
0.00737776
0.00734918
0.00732041
0.00729147
0.0072624
0.00723322
0.00720397
0.00717469
0.0071454
0.00711614
0.00708695
0.00705785
0.00702888
0.00700008
0.00697149
0.00694316
0.00691514
0.00688752
0.00686046
0.00683432
0.0068099
0.00678911
0.00677664
0.00678488
0.00684296
0.00700124
0.00737349
0.00819839
0.00997204
0.0136895
0.0212644
0.0363445
0.066001
0.124059
0.235469
0.445564
0.815448
1.30064
1.80861
2.48952
2.99518
3.64053
6.62862
11.4702
14.4681
12.9697
34.2717
105.41
397.767
3406.27
18599.5
254880
251697
37846.7
8637.33
15117.4
52961.7
248565
245273
54893.7
17470.2
20707.1
58057.7
236453
232033
57497.8
21302.1
23281.6
58852
226110
223290
58189.1
23408.2
24491.9
58591.2
218921
216056
57195.6
24347.1
24970.9
57668.4
212523
210468
56440
24795.3
25251.7
56969.8
207754
206201
55933.2
25054.9
25442.9
56501.2
204007
202783
55596.9
25239.9
25595.3
56189.5
200929
199922
55363.4
25389.9
25725.9
55980.3
198297
197440
55200.1
25520
25843.4
55841.3
195979
195227
55096
25638
25952
55749.5
193883
193206
55027.8
25746.5
26051.7
55685
191949
191325
54978.6
25845.9
26143.9
55633.8
190134
189549
54937.9
25936.4
26228.5
55588.3
188409
187854
54900.1
26018
26303.9
55543.9
186754
186221
54861.4
26090.1
26370.2
55497.3
185153
184637
54819.2
26153.3
26427.9
55446.2
183595
183091
54771.3
26208.4
26478.1
55389.1
182071
181577
54716.9
26256.2
26521.5
55325.2
180574
180087
54655.5
26297.8
26559.1
55254.1
179099
178617
54586.5
26333.9
26591.5
55175.2
177639
177160
54509.3
26364.9
26619
55087.6
176190
175712
54423.1
26391
26641.7
54991.1
174747
174268
54327.8
26412.7
26660.1
54885.1
173304
172823
54222.9
26430.1
26674.3
54769.3
171858
171373
54107.9
26443.3
26684.3
54643
170404
169913
53982.3
26452.6
26690.3
54505.8
168938
168439
53845.4
26457.7
26692.1
54356.9
167456
166948
53696.6
26458.7
26689.6
54195.7
165954
165437
53535.1
26455.2
26682.4
54021.2
164431
163902
53360.1
26447
26670.1
53832.5
162883
162342
53170.4
26433.5
26652.3
53628.6
161308
160756
52963.5
26414.1
26628.1
53407.5
159705
159142
52734.5
26388
26596.6
53167.4
158076
157503
52487.9
26354.2
26557
52908.7
156421
155839
52220.7
26311.9
26508.1
52628.5
154743
154154
51930.3
26259.8
26448.6
52324.4
153046
152453
51614
26196.2
26376.5
51993.7
151336
150743
51269.1
26119
26289.5
51633.4
149622
149035
50891.7
26022.4
26183.9
51240
147916
147343
50478.3
25903.5
26057.2
50809.8
146234
145684
50025.6
25762.8
25907.4
50339.6
144596
144079
49529.9
25595.5
25729.7
49826
143024
142554
48987.4
25397.1
25519.4
49265.3
141547
141142
48395.1
25163
25272.3
48654.5
140198
139880
47758.1
24889.5
24984.6
47995.8
139022
138802
47099.2
24576.3
24656.7
47310.3
138074
137951
46409.1
24215
24282.2
46594.5
137373
137354
45696.6
23811.5
23868.4
45862.3
136973
137038
44982.6
23376.8
23426.7
45134.4
136828
137020
44292.2
22926.2
22972.7
44444.6
136970
137306
43645.7
22466.9
22512.3
43813.5
137358
137874
43072.5
22011.7
22063
43258.9
138031
138697
42607.4
21590.9
21654
42818.6
138932
139703
42253.2
21222.4
21301.2
42516.2
139994
140837
41991
20912.7
21008.6
42334.3
141171
142068
41848.8
20664.9
20778
42250.2
142430
143359
41816.6
20479
20609.6
42278.6
143733
144667
41894
20354.6
20502.5
42411.7
145041
145959
42069.6
20286.7
20453
42636.2
146321
147204
42332.4
20259.3
20454
42937.4
147543
148374
42664.1
20284.4
20507.3
43322.6
148683
149449
43051.1
20358.8
20623.4
43786
149724
150414
43510
20482.5
20773.2
44279.9
150648
151252
43995.6
20636.3
20945.3
44786.3
151444
151960
44490.9
20811.2
21134.1
45289.4
152108
152538
44981.1
21001.3
21333
45775.7
152644
152993
45453.2
21199.7
21535.2
46234.5
153061
153339
45897.2
21400
21735.2
46658.4
153373
153588
46306.6
21597
21928.6
47043.3
153594
153749
46677.7
21786.5
22111.6
47387.6
153736
153844
47009.2
21965.2
22282.1
47692.4
153816
153886
47302.7
22131.2
22438.8
47959.3
153846
153891
47559.7
22283.6
22581.7
48195.9
153833
153864
47784.8
22422.3
22711.2
48405.9
153777
153801
47980.4
22547.7
22827.7
48585.5
153696
153715
48147.1
22660.4
22931.9
48738.6
153595
153610
48289.5
22761.2
23025
48870.1
153479
153491
48412.6
22851.2
23109.7
48984.2
153351
153360
48520
22932.1
23186.7
49083.9
153212
153220
48614.1
23004.5
23255.1
49171.3
153066
153072
48696.7
23068.6
23315.4
49247.7
152913
152918
48768.9
23125
23368.3
49313.9
152787
152730
48826.3
23172.6
23428.7
49374.1
152660
152574
48919.1
23207.9
23450.8
49544.2
152614
151946
48720.3
23115.2
23250.7
48735.2
151409
149509
48525.6
22971.8
21899
46298.4
147078
138302
48477
22435.4
15511.8
27040.2
124039
139401
60750.2
28116.7
13618.2
7032.4
4372.94
3429.16
3054.98
2533.58
2313.08
2155.27
2089.74
2073.04
2106.63
2204.29
2338.39
2582.65
2861.51
3453.04
3781.92
4729.05
5752.91
7582.55
11733.6
22961.2
55506.7
128191
406168
435350
139057
61200.8
64767.9
147161
461131
483197
153626
68231.7
68348.5
155075
489385
495231
156282
69524.2
69710.4
157868
498950
499568
158252
69963.9
69896.9
158266
499357
499735
158307
69909.5
69900.8
158332
499568
499678
158319
69870.8
69859.9
158326
499805
499658
158311
69831.9
69803.8
158317
500354
500215
158283
69780.3
69752.8
158277
500342
500212
158262
69719.5
69702.1
158266
500629
501069
158190
69663.8
69648.9
158235
500637
501076
158160
69615.8
69599.2
158220
501226
501665
158104
69558.1
69542.4
158160
501243
501673
158074
69506
69489.4
158135
501833
502278
158019
69447.8
69430.9
158076
501869
502317
157984
69392.7
69376.4
158045
502486
502938
157928
69336.6
69320.7
157987
502536
502993
157895
69284.7
69269.6
157954
503168
503627
157837
69233.3
69219.3
157892
503517
503414
157853
69184.8
69170.7
157854
503872
504345
157776
69139.2
69126.8
157815
504235
504142
157786
69097.5
69085.9
157794
504603
505084
157724
69059.8
69050.2
157769
504976
504890
157746
69027.3
69019.2
157767
505354
505840
157707
69000.5
68995
157766
505733
505651
157751
68981.4
68978.5
157797
506114
506603
157755
68969.7
68970
157836
506495
506413
157836
68964.3
68968.5
157919
506873
507361
157901
68966
68973.9
158013
507248
507164
158045
68974.9
68990.4
158163
507620
508105
158176
68994.5
69008.2
158335
507987
507893
158402
69010.2
69032.6
158565
508335
508805
158642
69043
69076.1
158864
508384
508839
158987
69088
69121.4
159244
508978
509385
159375
69135.3
69171.1
159679
508929
509330
159871
69184
69214.9
160212
509447
509827
160426
69225.9
69253.1
160810
509633
509436
161107
69260.6
69277.3
161515
509804
510171
161822
69278.3
69283.8
162279
509971
509782
162643
69263.5
69255.3
163113
510172
510595
163463
69202.8
69175.9
163963
510173
510664
164307
69087.5
69031.8
164799
510902
511509
165070
68895.7
68795.3
165495
511612
511857
165708
68595.3
68422.2
165941
512779
513606
166056
68113.3
67854.5
166150
514539
515769
166165
67505.5
67132.9
166012
517297
519181
165530
66540.5
65947.4
164757
521210
523485
163629
65184.2
64092.3
160194
520816
518195
156565
63229.4
62701.9
154503
524587
521971
155435
62215.1
61198.9
146867
514220
511226
148066
61045.6
60478.7
143515
503150
496213
141164
60150.9
60251.5
138366
484459
469662
133672
60086.8
60427.1
131394
459199
452389
130555
60958.4
61879.6
131014
434358
405981
122517
62621.3
64320.7
120974
594959
973783
349223
142395
69588.9
172891
728111
656142
187286
74611.5
71564.4
176313
648974
642691
181635
73891.6
71052.6
170179
623702
602128
171444
72027.1
68744.5
155571
575640
548608
158262
70383.3
68714
145439
519637
487940
146338
69870.3
69090.4
135885
444494
635273
129262
70038.4
147343
357794
1.00195e+06
719436
164498
71175.2
73963.1
176240
606021
547691
145450
66644.4
67053.2
146593
513412
478379
135663
65066.7
65431.2
132140
447355
413558
123144
64989.6
67988.7
123118
598256
940270
345428
140536
72789.9
157068
683484
594394
167935
75669.7
72284.4
150147
556302
516946
154830
74600.6
74142.9
142698
466245
664464
135149
76308.2
155061
356009
1.00952e+06
704829
172170
78423.1
79802
173236
578096
501403
146769
71767.3
72354.6
138669
449477
652659
136552
75752.3
154314
357463
996319
704528
163248
80487.1
83778.8
176832
579506
510962
153572
78112.5
80453.3
146433
717542
1.041e+06
373081
162412
80832.8
168919
705624
551760
174323
80289.9
68982
137744
486256
664814
139375
73981.4
148636
343061
902914
624204
152345
74398.9
77724.4
156540
789483
985246
375133
152855
66458.3
150562
656178
792391
146249
65239.4
128059
288192
833772
1.01256e+06
163654
64924.4
91462.7
198531
809386
826806
160456
58674.2
71116.2
191342
993316
1.02869e+06
196807
72999.5
65736.1
175127
915521
800372
104009
39065.5
153626
341426
806636
935718
160989
81540
186091
374637
846898
781425
189822
99454.6
105701
214429
673029
1.11796e+06
463472
225479
127934
172636
955811
827055
369478
191776
104586
178230
694329
574757
188144
105732
193687
393208
915566
716482
171617
107606
106960
180733
574489
927303
389971
190580
106325
167958
713620
572644
174505
104616
184145
378591
913313
698981
163733
103793
103681
171507
563735
908319
380481
183309
102506
162154
685440
550607
169234
101499
179057
369945
884963
658159
157247
100388
100065
165133
535203
875158
365352
175952
98621.5
154946
646588
520394
161386
97652.9
167823
344630
828516
602346
144315
94308.3
94740.4
162089
463307
634920
186840
102500
194284
408208
1.04333e+06
746292
171953
106635
104539
178991
594719
983077
406616
187150
103393
164123
715540
580989
171471
102274
183723
376280
974393
711066
162288
103662
102808
171026
574847
957618
393770
182988
101914
160441
695284
568587
168636
101716
180719
394491
968569
703829
161922
101422
100730
165054
567035
956731
381708
183169
102232
160695
694814
561999
171832
102419
186207
383147
966548
719865
164376
104507
104227
175880
590377
1.03619e+06
410451
197289
114110
143071
815454
730439
322963
167010
93969.1
144620
555862
474495
154018
95252.1
168236
345942
823418
614491
147167
95640.7
96318.8
157211
502634
846073
350865
170442
95989.8
148498
623361
513981
155797
95668
173443
363294
875979
651765
152620
98012.7
99197.6
163733
530233
900394
375840
179883
100370
158430
677952
567028
168628
100686
194681
406673
1.01498e+06
808650
141063
114419
172481
329643
738594
576448
155403
97837.6
99532.1
164577
495533
867719
364392
178674
101963
158286
662080
551121
166698
102372
193586
399898
966448
781636
142015
114107
170428
325140
716599
556455
150540
96249.7
98635.4
162612
485061
857657
364067
177407
101641
157773
652085
550728
171582
102768
196935
407270
985687
794192
145818
116745
175001
333635
732437
576439
156644
99666.9
101855
169309
504457
891698
375385
184476
105595
164482
669909
568763
179611
106440
204540
450834
1.01944e+06
824222
160568
119563
179350
338870
762140
594464
157048
102285
105737
179539
527837
983606
417645
203164
121076
150384
807708
760759
340704
181012
103717
164604
598467
519579
179353
106358
201029
423356
947300
786549
159281
120781
178665
333382
743272
591201
159786
103391
107174
180925
520165
967370
435378
204754
122769
158564
813074
763359
340563
182314
105612
164142
598634
529200
185160
108958
208197
420947
968691
802654
155247
125465
185354
341884
762239
614605
169206
107608
111446
188880
549547
1.01343e+06
458028
214467
130764
167613
859140
836495
365365
195731
118953
153257
715538
685033
328916
177198
106265
168032
563173
514020
189544
111028
210735
431489
968028
810709
160622
128111
189139
345530
768309
618743
173653
111083
114960
196586
556640
1.03589e+06
469474
221518
134786
175979
878524
848125
372929
200325
122384
157220
731920
716570
333491
181234
108941
173554
587933
529632
193465
113772
217912
438329
990735
844954
160136
133528
197707
359126
815716
714063
160253
122561
182411
332860
701272
583431
175494
110293
115578
199790
531010
989472
450318
218696
135434
169640
854406
836516
367118
200779
124526
158494
722259
707467
336029
184019
111399
176534
581138
529472
198775
116775
220596
442010
985092
836101
165336
136339
201483
364450
814712
717442
164383
125719
186214
341248
716543
601421
180331
113385
119103
204449
555073
1.04722e+06
455259
228609
141956
165816
897353
878527
383691
211780
131954
169935
756776
750510
358290
196371
119038
188328
616426
560836
210977
124285
234433
463147
1.04314e+06
890117
171058
145308
215876
394346
883681
772398
176309
135251
201901
366663
778237
706158
170276
129476
191305
342369
704548
587614
184044
117916
124924
211229
546103
1.03511e+06
481946
236475
147827
189125
911387
904525
400060
218404
138115
175066
790303
798848
373618
204423
132399
174369
715656
715118
351619
195223
120974
189294
603989
557620
212552
127252
238682
469787
1.04451e+06
905670
174208
149987
221143
398510
896219
781100
183207
139789
207356
374287
788904
708300
175156
134281
197087
353116
711689
602664
191164
122470
129576
216202
560176
1.05755e+06
477957
242386
152833
178378
921667
917117
406939
225844
144363
186850
814253
832573
393291
215265
140093
184099
747212
745721
368295
204718
127693
199229
624159
580085
226381
134208
252633
504224
1.07779e+06
932836
205474
158804
231308
417994
927583
814500
180381
146830
218077
393925
837332
775027
188962
142904
211180
381006
795155
719253
182516
139879
205075
361141
729593
627767
201020
128791
136314
227853
589226
1.12487e+06
504317
255302
161850
187294
969931
961071
431263
239977
154214
199762
836992
856023
410673
227360
149540
195151
782924
803682
390416
218690
144556
189342
733372
744343
370120
209559
131704
203878
628877
582172
227973
138539
256144
498086
1.08151e+06
927006
189995
163390
241324
427131
934149
833576
199395
154275
228131
408937
852157
772823
195181
150089
220677
392070
799014
734731
191663
146709
212552
370546
743178
632955
207628
134812
142474
235586
596760
1.11994e+06
511659
262349
168152
195297
965266
972042
437621
246626
160120
206908
869926
893197
423726
235995
156479
202913
809702
831856
404585
228368
151915
197610
745191
756758
382363
219943
139801
212413
639266
598550
239472
146554
267474
518668
1.11874e+06
966081
200639
171312
251642
441871
974570
861924
208205
162278
237786
422515
881609
803988
204587
157765
230782
406723
833306
758634
200466
154478
224097
390020
775711
662283
219034
142801
150802
249026
626579
1.18542e+06
539131
277514
178358
203520
1.01107e+06
1.01868e+06
463882
262953
170989
222063
897103
917325
443505
250183
166612
214912
838542
872159
425218
242510
163028
210465
797149
830231
410938
235974
158536
205054
758654
772253
391758
227266
144934
219940
646003
608264
248453
152281
277546
532476
1.12529e+06
967587
218625
178835
259368
452718
975886
857011
211086
168274
245425
429359
881687
798758
211468
163857
238078
415675
830898
758572
208588
159880
229713
392684
770368
653058
222673
147257
155938
253176
621253
1.15494e+06
543377
284742
183713
218759
991201
999718
464182
266717
174882
222022
893357
922955
447786
254519
171271
220287
830042
863750
430189
247745
167356
216574
786163
803607
409362
239726
153607
231867
670491
632648
260895
161352
292864
558347
1.1657e+06
1.00204e+06
233834
189219
272591
473322
1.00566e+06
880777
222085
177733
257165
446836
907259
825859
222431
172671
249316
430339
859505
775274
218627
168129
240260
408583
796052
672950
232715
154880
163921
264827
643335
1.18674e+06
565221
296708
192350
230224
1.02606e+06
1.04321e+06
486255
279620
183885
233433
913288
943337
467197
266740
179991
232203
850777
884750
446395
259304
175606
227624
800255
819716
422657
250084
161116
240501
682940
651118
270082
168980
300605
565314
1.17754e+06
1.00709e+06
237328
195573
281664
482527
1.02464e+06
895113
230138
184558
266687
457874
927924
837340
229692
178969
258567
440753
861769
723733
251808
165459
174891
284451
692708
1.26826e+06
605554
318776
206744
245901
1.07998e+06
1.08772e+06
505747
297012
195438
244375
947886
983464
487393
282033
188691
244059
865757
884666
457953
270343
173012
259802
738726
703881
291507
181288
326399
614764
1.26479e+06
1.08459e+06
264591
211428
303342
522136
1.10552e+06
952535
245166
197846
285584
488457
985512
880282
246871
191409
276460
470243
914058
765812
267775
176918
186450
302516
730958
1.33416e+06
641269
336709
218658
259037
1.13038e+06
1.13602e+06
529643
313419
206726
257462
976819
1.01798e+06
508825
296941
198822
258273
899626
925350
478908
283861
181895
272204
771016
739861
303287
190237
339447
632273
1.32518e+06
1.11272e+06
264709
220399
317010
536341
1.1316e+06
976686
259609
207338
298196
506113
1.01502e+06
893564
258642
199827
286935
482086
928622
780097
276740
184055
193490
311153
750739
1.33913e+06
649898
346969
225486
274884
1.12529e+06
1.14687e+06
544072
322478
210971
266789
975189
994082
506502
300812
191409
286250
813271
779259
314541
199836
360467
678232
1.39154e+06
1.15251e+06
282343
232091
331949
555413
1.16552e+06
1.00167e+06
271352
217089
311349
526433
1.045e+06
911707
270550
207640
296229
496019
948433
784532
282882
189694
200129
318023
754435
1.3319e+06
659497
355955
231354
288657
1.12819e+06
1.15324e+06
557353
330132
216321
275200
979279
1.00918e+06
515957
308013
195865
291949
827199
788765
324651
204420
363312
671055
1.35924e+06
1.13636e+06
294772
235786
337214
565474
1.16755e+06
985389
281047
219107
311759
519420
1.01109e+06
822862
294763
198090
208099
330075
789521
1.37199e+06
684720
369030
237530
302938
1.13843e+06
1.14357e+06
568391
338755
210007
307814
904548
859007
341195
217718
387193
721853
1.49843e+06
1.23133e+06
306159
249424
361817
614977
1.26064e+06
1.05831e+06
304999
233754
335399
562640
1.08378e+06
882556
318122
211812
221070
355123
848292
1.46219e+06
725721
391758
251845
321765
1.20014e+06
1.20595e+06
593352
357377
220550
320388
943903
894792
353506
228055
401897
745215
1.52268e+06
1.24615e+06
325523
257997
370460
617819
1.26561e+06
1.00201e+06
338470
227708
235575
376977
949620
1.62369e+06
799340
425955
269681
346449
1.29581e+06
1.29953e+06
647273
386304
234961
344584
1.01129e+06
953656
379207
242440
428892
797227
1.61826e+06
1.31266e+06
347249
273178
391702
649330
1.32243e+06
1.04224e+06
351810
239420
247571
390050
988821
1.69008e+06
827984
442131
279871
340916
1.35429e+06
1.37086e+06
681385
405773
244754
367507
1.05431e+06
990818
400534
252387
447697
824165
1.65683e+06
1.32974e+06
368769
283515
404768
670256
1.34133e+06
1.04544e+06
359791
245740
253646
395451
991891
1.66449e+06
828388
446100
282621
364649
1.33439e+06
1.34063e+06
665107
402294
242517
355110
1.02589e+06
965764
379511
248441
434054
798444
1.57289e+06
1.17705e+06
378320
261171
266379
408456
1.08471e+06
1.76336e+06
867357
469531
291378
383009
1.39122e+06
1.39745e+06
696834
417628
250214
367551
1.06768e+06
1.00666e+06
401579
258151
445083
813740
1.62014e+06
1.21876e+06
390324
266421
268768
406794
1.11668e+06
1.78841e+06
883704
471554
277435
413390
1.31232e+06
1.18927e+06
439401
279721
502070
939936
1.90288e+06
1.47014e+06
409047
308273
443601
737126
1.46534e+06
1.10196e+06
383519
260081
267855
415966
1.03167e+06
1.63767e+06
831024
458812
270056
397556
1.21698e+06
1.11206e+06
409118
272297
472407
870769
1.76035e+06
1.27348e+06
408900
276015
279138
433244
1.14947e+06
1.77439e+06
885084
483025
278459
413035
1.28137e+06
1.15632e+06
434918
280901
482146
882990
1.76943e+06
1.28819e+06
413250
279983
283665
437084
1.17468e+06
1.82363e+06
899125
488353
281038
416054
1.30663e+06
1.12015e+06
453387
286486
299495
511755
1.47151e+06
2.20012e+06
1.06237e+06
543292
304742
469721
1.50846e+06
1.33416e+06
485438
302979
525376
979976
1.98796e+06
1.38386e+06
447623
295370
295686
458461
1.18312e+06
1.53995e+06
526079
308475
569468
1.11812e+06
2.2668e+06
1.50904e+06
484829
308763
311875
505810
1.2687e+06
1.63799e+06
565728
326011
589603
1.15385e+06
2.40051e+06
1.60382e+06
492103
316718
317767
511596
1.34685e+06
1.68523e+06
575939
324748
590545
1.16146e+06
2.39691e+06
1.5472e+06
497268
313133
304670
490201
1.27226e+06
1.53061e+06
606950
333485
329178
558094
1.95526e+06
2.71639e+06
1.35887e+06
654397
332221
553318
1.68552e+06
1.35927e+06
554750
327515
334935
621931
1.59595e+06
1.80663e+06
592013
317913
342255
727565
1.96e+06
2.15898e+06
734476
326374
644290
1.35517e+06
2.77223e+06
1.61814e+06
527904
311857
303337
518637
1.28384e+06
1.39759e+06
565064
303142
296396
561285
1.47107e+06
1.5267e+06
573528
291541
289140
600415
1.53711e+06
1.52056e+06
609432
287498
284683
614470
1.49747e+06
1.46176e+06
613172
283058
280351
608250
1.42513e+06
1.38679e+06
599096
278273
276035
592078
1.34879e+06
1.31229e+06
587147
274935
273940
583922
1.27826e+06
1.24673e+06
582105
273964
274112
581177
1.21765e+06
1.19099e+06
580852
274948
275913
580760
1.1667e+06
1.14486e+06
580604
277547
278973
580243
1.12515e+06
1.10749e+06
579570
280785
282219
578406
1.09158e+06
1.07738e+06
576861
283775
284875
574735
1.06466e+06
1.0534e+06
572245
285941
286538
569191
1.0434e+06
1.03464e+06
565892
287018
286951
562068
1.02694e+06
1.02032e+06
558098
286772
286157
553639
1.01454e+06
1.00961e+06
549142
285431
284045
544203
1.00532e+06
1.0017e+06
539311
282902
281154
534027
998567
995948
528699
280070
278390
523114
993673
991804
517635
277355
275718
511970
990216
988934
506481
274695
273087
500862
987847
987025
495501
272076
270475
490036
986314
985749
484866
269447
267833
479627
985244
984874
474721
266779
265141
469776
984502
984230
465163
264049
262390
460552
983991
983787
456274
261279
259610
452006
983631
983474
448063
258495
256830
444125
983349
983174
440517
255718
254074
436906
983033
982824
433616
252972
251347
430318
982661
982399
427343
250272
248682
424345
982209
981900
421657
247629
246088
418942
981679
981312
416529
245065
243584
414074
981047
980642
411904
242588
241167
409686
980349
979912
407748
240201
238833
405752
979583
979130
404013
237879
236547
402210
978778
978311
400658
235625
234336
399026
977936
977469
397632
233444
232201
396149
977090
976625
394910
231346
230150
393571
976247
975792
392453
229332
228185
391236
975425
974973
390234
227411
226315
389125
974612
974169
388217
225579
224531
387199
973819
973381
386387
223841
222841
385454
973040
972610
384714
222188
221232
383850
972282
971866
383192
220620
219717
382398
971548
971140
381792
219134
218274
381054
970839
970450
380515
217731
216913
379835
970165
969789
379340
216402
215624
378713
969527
969176
378262
215145
214409
377687
968937
968608
377277
213961
213262
376749
968396
968092
376367
212840
212180
375885
967910
967632
375531
211785
211161
375087
967481
967231
374757
210789
210200
374347
967110
966891
374043
209852
209295
373659
966796
966614
373380
208967
208441
373020
966541
966397
372762
208135
207635
372421
966345
966240
372180
207349
206874
371859
966208
966140
371634
206608
206155
371328
966126
966099
371118
205907
205476
370830
966103
966101
370631
205245
204833
370358
966130
966147
370170
204617
204224
369913
966207
966241
369736
204022
203646
369491
966330
966379
369323
203458
203099
369095
966494
966561
368935
202923
202578
368719
966696
966779
368567
202415
202084
368365
966932
967029
368221
201933
201614
368030
967199
967310
367894
201473
201166
367716
967494
967617
367588
201036
200738
367420
967814
967948
367300
200618
200332
367144
968157
968301
367030
200220
199944
366886
968520
968674
366777
199839
199574
366645
968901
969063
366541
199474
199220
366419
969299
969471
366320
199126
198882
366209
969714
969894
366114
198792
198557
366013
970144
970331
365923
198472
198246
365832
970586
970778
365747
198166
197948
365664
971038
971236
365585
197873
197662
365511
971499
971702
365436
197591
197388
365370
971967
972174
365301
197320
197125
365243
972441
972649
365179
197061
196871
365126
972919
973128
365070
196811
196628
365022
973399
973609
364971
196571
196394
364928
973882
974092
364883
196341
196169
364847
974363
974573
364806
196119
195953
364777
974844
975055
364739
195906
195746
364715
975325
975535
364681
195702
195546
364661
975805
976015
364631
195504
195352
364615
976285
976493
364589
195313
195165
364574
976765
976973
364553
195128
194984
364541
977246
977453
364524
194949
194808
364513
977728
977936
364502
194775
194638
364493
978213
978421
364485
194607
194472
364478
978700
978909
364475
194443
194311
364471
979190
979399
364470
194284
194155
364471
979683
979892
364475
194130
194005
364479
980176
980384
364488
193981
193859
364495
980667
980873
364512
193839
193721
364522
981153
981354
364544
193703
193588
364558
981633
981826
364583
193572
193484
364607
982103
982285
364633
193421
193347
364653
982192
982750
364690
193335
193227
364710
983393
983181
364751
193236
193097
364778
983476
983607
364946
193124
192955
364574
983498
983432
364819
192915
192571
364033
983045
985212
365490
193150
193365
366479
989071
998341
371201
195236
196150
372178
993576
981372
361308
191046
188879
356562
963870
105147
57939.8
31254.3
19284.1
17992.3
12108.5
8882.11
7353.11
6957.34
5242.77
3813.6
2984.33
2259.07
1645.01
1165.08
813.134
572.422
410.832
302.913
229.732
179.095
143.264
117.377
98.3153
84.0756
73.3051
65.179
59.0419
54.5975
51.467
49.4552
48.2909
47.7656
47.2485
46.32
45.0451
43.5086
41.8212
40.0245
38.1839
36.2914
34.3569
32.3609
30.2878
28.108
25.3151
21.25
16.1899
11.2818
7.37024
4.60322
2.77924
1.64125
0.973339
0.616109
0.4441
0.366971
0.334432
0.321011
0.315148
0.312222
0.309911
0.307768
0.305727
0.303746
0.301787
0.299818
0.297812
0.295738
0.29357
0.29128
0.288842
0.28623
0.283418
0.280385
0.277107
0.273564
0.269737
0.265611
0.261175
0.256424
0.251358
0.245982
0.240307
0.234351
0.228135
0.221689
0.215043
0.208235
0.201302
0.194283
0.187216
0.18014
0.173091
0.166105
0.159212
0.152441
0.145816
0.139357
0.133083
0.127005
0.121138
0.115487
0.110057
0.104851
0.0998693
0.0951097
0.0905721
0.0862489
0.0821374
0.0782303
0.0745211
0.0710027
0.0676679
0.0645088
0.0615178
0.0586869
0.0560087
0.0534755
0.0510799
0.0488145
0.0466733
0.0446485
0.0427347
0.0409249
0.039214
0.0375958
0.0360657
0.0346184
0.0332488
0.0319529
0.0307262
0.029565
0.0284651
0.0274232
0.0264362
0.0255004
0.0246132
0.023772
0.0229739
0.0222164
0.0214974
0.0208146
0.0201659
0.0195496
0.0189638
0.0184069
0.0178771
0.0173731
0.0168935
0.0164371
0.0160024
0.0155886
0.0151943
0.0148188
0.0144609
0.0141199
0.0137948
0.013485
0.0131896
0.0129081
0.0126396
0.0123836
0.0121395
0.0119067
0.0116847
0.011473
0.0112711
0.0110786
0.010895
0.01072
0.0105532
0.0103942
0.0102426
0.0100983
0.00996083
0.00982996
0.00970543
0.00958698
0.00947438
0.0093674
0.00926583
0.00916944
0.00907806
0.00899149
0.00890956
0.00883212
0.00875903
0.00869014
0.00862535
0.00856456
0.00850768
0.00845464
0.00840538
0.00835984
0.00831799
0.0082798
0.00824528
0.00821446
0.00818747
0.00816446
0.00814565
0.00813122
0.0081216
0.00811615
0.00811408
0.0081127
0.00811119
0.00811123
0.00811085
0.0081107
0.00811114
0.0081125
0.00811485
0.00811742
0.0081188
0.00811806
0.00811519
0.0081107
0.00810506
0.00809856
0.00809134
0.00808342
0.00807476
0.00806532
0.00805508
0.008044
0.00803209
0.00801935
0.0080058
0.00799144
0.0079763
0.00796037
0.00794369
0.00792624
0.00790806
0.00788915
0.00786953
0.00784921
0.00782821
0.00780656
0.00778425
0.00776133
0.00773779
0.00771367
0.00768899
0.00766376
0.00763801
0.00761176
0.00758503
0.00755785
0.00753025
0.00750225
0.00747388
0.00744517
0.00741614
0.00738682
0.00735724
0.00732745
0.00729746
0.00726732
0.00723707
0.00720675
0.00717646
0.00714633
0.00711672
0.00708834
0.00706287
0.00704416
0.00704079
0.00707221
0.00718134
0.00746124
0.00810933
0.00953339
0.0125924
0.019025
0.0322299
0.0586644
0.110264
0.208678
0.392253
0.728613
1.33821
2.43733
4.39885
7.75262
12.8764
19.2534
25.4013
30.658
37.2346
54.6797
111.262
353.261
1710.46
5117.49
6291.63
6387.45
7292.33
7252.03
7983.18
7895.77
8503.21
8381.46
8922.29
8776.92
9268.81
9106.59
9560.92
9386.33
9811.01
9627.01
10027.9
9836.34
10217.8
10020.2
10385.5
10182.9
10534.1
10327.2
10666
10455.6
10783.7
10570.4
10889.3
10673.6
10984.8
10767.3
11071.9
10853
11152.1
10932.2
11226.3
11005.8
11295.8
11074.9
11361.2
11140
11422.9
11201.6
11481.6
11260.2
11537.6
11316.3
11591.4
11370.2
11643
11422
11692.9
11471.6
11741.2
11519.1
11787
11564.3
11830.6
11607.4
11872.2
11648.5
11911.5
11687.3
11948.4
11723.6
11982.5
11756.8
12013.1
11786.2
12039.2
11810.6
12059.6
11828.6
12072.6
11838.5
12075.8
11837.7
12067.1
11823.6
12043.4
11793.2
12001.3
11742.9
11937.3
11669.2
11847.6
11567.3
11729.2
11429.8
11580.9
11268.4
11408.5
11084.4
11214.1
10881.9
11002
10663.6
10777.3
10438.7
10549.8
10218.8
10329.3
10010.3
10121.4
9816.69
9929.79
9641.03
9757.06
9485.36
9605.11
9350.97
9475.05
9238.26
9367.03
9146.7
9280.33
9070.81
9212.64
9012.75
9165.08
8974.89
9138.96
8957.6
9133.07
8958.97
9144.66
8976.04
9170.53
9005.67
9207.48
9044.84
9252.88
9090.92
9305.21
9141.89
9359.51
9194.6
9414.4
9247.72
9468.65
9300.05
9521.29
9350.66
9571.56
9398.89
9619.27
9444.51
9664.85
9487.49
9707.35
9527.38
9746.59
9564.12
9782.63
9597.81
9815.53
9628.47
9845.32
9656.06
9871.86
9677.88
9904.65
9695.82
9938.92
9700.81
9949.21
9545.36
9868.79
8911.01
8750.45
7011.86
4673.2
5043.39
5502.06
3489.69
5964.06
5551.2
3507.67
6013.2
5554.64
3540.57
6026.22
5566.13
3535.9
6020.55
5559.66
3531.3
6006.2
5548.44
3522.16
5992.62
5535.7
3511.61
5977.86
5521.44
3500.7
5961.54