/*--------------------------------*- C++ -*----------------------------------*\
| =========                 |                                                 |
| \\      /  F ield         | OpenFOAM: The Open Source CFD Toolbox           |
|  \\    /   O peration     | Version:  v2006                                 |
|   \\  /    A nd           | Website:  www.openfoam.com                      |
|    \\/     M anipulation  |                                                 |
\*---------------------------------------------------------------------------*/
FoamFile
{
    version     2.0;
    format      ascii;
    class       volScalarField;
    location    "0.006";
    object      Ma;
}
// * * * * * * * * * * * * * * * * * * * * * * * * * * * * * * * * * * * * * //

dimensions      [0 0 0 0 0 0 0];


internalField   nonuniform List<scalar> 
9148
(
0.164697
0.164719
0.164693
0.164668
0.164611
0.164503
0.164324
0.164068
0.163747
0.163385
0.162991
0.162574
0.162133
0.161668
0.161177
0.160657
0.160108
0.159529
0.158919
0.158279
0.157609
0.156911
0.156184
0.15543
0.15465
0.153846
0.153018
0.152169
0.151301
0.150415
0.149513
0.148598
0.147671
0.146735
0.145793
0.144846
0.143898
0.14295
0.142004
0.141064
0.140132
0.13921
0.138301
0.137406
0.136529
0.135672
0.134836
0.134025
0.133239
0.132482
0.131754
0.131059
0.130398
0.129771
0.129178
0.128618
0.128092
0.127603
0.127161
0.126789
0.126526
0.126395
0.126368
0.126394
0.126418
0.126428
0.126415
0.126324
0.126103
0.125612
0.124959
0.12243
0.120828
0.125015
0.12578
0.125861
0.124847
0.119132
0.117396
0.124554
0.12586
0.125766
0.124183
0.115862
0.114359
0.123703
0.125585
0.125342
0.123204
0.112996
0.111695
0.122652
0.125067
0.124762
0.122123
0.110476
0.109339
0.121578
0.124432
0.124071
0.121015
0.108248
0.107218
0.12044
0.123703
0.123293
0.119852
0.106219
0.105273
0.119255
0.12288
0.122424
0.118644
0.104357
0.103489
0.118028
0.12197
0.121474
0.117399
0.102647
0.101845
0.116767
0.120983
0.120451
0.116125
0.101063
0.100309
0.11548
0.119927
0.119362
0.114824
0.0995652
0.0988374
0.114165
0.11881
0.118215
0.113493
0.0981091
0.0973866
0.112817
0.117634
0.11701
0.112126
0.0966555
0.0959222
0.111428
0.1164
0.115746
0.110713
0.095174
0.0944201
0.109989
0.115105
0.114419
0.109247
0.0936474
0.0928703
0.108493
0.113745
0.113024
0.107719
0.0920735
0.0912743
0.106934
0.112314
0.111554
0.106128
0.0904554
0.0896359
0.105308
0.110806
0.110006
0.104468
0.0887967
0.0879559
0.103613
0.109216
0.108373
0.102735
0.0870932
0.0862254
0.101841
0.10754
0.106651
0.100921
0.0853316
0.0844275
0.0999824
0.10577
0.104833
0.0990159
0.0834924
0.0825423
0.0980275
0.103903
0.102914
0.097009
0.0815558
0.0805501
0.0959656
0.101932
0.100888
0.0948885
0.0795016
0.0784278
0.0937812
0.0998468
0.0987409
0.0926366
0.0773045
0.0761534
0.0914587
0.097637
0.0964633
0.0902384
0.0749456
0.0737085
0.0889811
0.0952885
0.0940401
0.0876784
0.0724113
0.0710864
0.086337
0.0927889
0.0914608
0.0849475
0.0696991
0.0682852
0.0835172
0.0901283
0.0887147
0.0820357
0.0668064
0.0653031
0.080513
0.0872969
0.0857948
0.078937
0.0637339
0.0621402
0.0773178
0.0842871
0.0826901
0.0756417
0.0604776
0.0587899
0.0739201
0.0810855
0.0793851
0.0721364
0.0570292
0.0552403
0.0703024
0.0776729
0.075856
0.0683986
0.0533708
0.0514658
0.0664354
0.0740195
0.0720649
0.0643899
0.0494675
0.0474209
0.0622693
0.0700766
0.0679474
0.0600439
0.0452629
0.0430317
0.0577155
0.0657592
0.063392
0.0552438
0.0406553
0.0381602
0.0526209
0.0609228
0.0582124
0.0497895
0.0354591
0.0325553
0.046724
0.0553291
0.0521075
0.0433383
0.0293099
0.0256993
0.0395657
0.0485906
0.044568
0.0352608
0.0215274
0.0166671
0.0302552
0.0400293
0.0347135
0.0243122
0.0107616
0.00248862
0.0171194
0.0287354
0.0221407
0.00845857
0.0118686
0.0201746
0.0092098
0.013505
0.00619674
0.020645
0.0253463
0.0305228
0.0284402
0.0165101
0.0234114
0.033497
0.0348928
0.0368046
0.0360565
0.0272406
0.0292578
0.0364294
0.036198
0.0344277
0.0363706
0.0306144
0.0323161
0.0367568
0.0326631
0.0314542
0.0370715
0.0339784
0.0355913
0.0376153
0.031141
0.0318054
0.0384801
0.0369604
0.0382826
0.0395228
0.0329659
0.0342006
0.040553
0.039276
0.0398833
0.0412063
0.0352007
0.0358737
0.0415303
0.0400925
0.0397466
0.0412572
0.0360214
0.0356663
0.0404438
0.0389082
0.0375856
0.0390323
0.0346508
0.0331046
0.0371547
0.035812
0.0337815
0.0349893
0.0311554
0.0290639
0.0327124
0.0316476
0.029537
0.0304705
0.0269535
0.0249704
0.0283443
0.0275384
0.0256338
0.0263432
0.0231042
0.0213757
0.0244523
0.0238332
0.0220882
0.022646
0.0197338
0.0181802
0.0209121
0.0204158
0.0187802
0.0192393
0.0166841
0.0152639
0.0176399
0.0172224
0.0157326
0.0161238
0.0139197
0.0126611
0.0146922
0.0143307
0.0130302
0.0133689
0.0114988
0.0104172
0.0121232
0.0118102
0.0107047
0.0109954
0.00943714
0.00851801
0.00992441
0.00965964
0.00872263
0.00896324
0.00768959
0.00691096
0.00804723
0.00783223
0.00701829
0.00721098
0.00619398
0.00553192
0.00642942
0.00626009
0.00552675
0.00567512
0.00488429
0.00431305
0.00500212
0.00487573
0.00417638
0.00428303
0.00369415
0.0031771
0.00368136
0.00359267
0.00292125
0.00299534
0.00258019
0.00212588
0.00249326
0.00242958
0.00186529
0.00191506
0.00161677
0.00116248
0.00139162
0.00136886
0.000823651
0.000832076
0.000678667
0.000247549
0.00030396
0.000334212
0.000421387
0.000585939
0.000760475
0.00087161
0.000964817
0.000980189
0.000962766
0.000963922
0.000945055
0.000931044
0.000895805
0.000862575
0.000808482
0.000743981
0.000692319
0.000593395
0.000512396
0.000350552
0.000311069
0.000293221
0.000290548
0.000140412
0.00014005
0.000197576
7.34639e-05
5.82944e-05
5.27696e-05
7.56878e-05
6.96334e-05
6.71098e-05
0.000123226
0.000148894
0.000106335
0.000152105
0.000165688
0.000118492
0.000312372
0.000354834
0.000286494
0.000324785
0.000395914
0.00034962
0.00051507
0.000569565
0.000443995
0.000472935
0.000594153
0.000522377
0.000647742
0.00073562
0.000580876
0.00060828
0.000756863
0.000658409
0.000726806
0.000857298
0.000682778
0.000709122
0.000871886
0.000724589
0.000913547
0.00105862
0.000844069
0.000889386
0.00111519
0.000968603
0.00102399
0.00118659
0.000947642
0.000977905
0.00121183
0.00104696
0.00125365
0.00140367
0.00111237
0.00117284
0.00148868
0.00134151
0.00136539
0.00152762
0.00121039
0.00124041
0.00155177
0.00138997
0.00158938
0.00172861
0.0013648
0.00143289
0.00182934
0.00169894
0.00171632
0.00185046
0.00145556
0.00148877
0.00188305
0.00175547
0.00196136
0.00205231
0.00160331
0.00168869
0.00219226
0.00212083
0.00217571
0.00222598
0.00170729
0.00176394
0.00230857
0.0022741
0.00251156
0.00249213
0.00187511
0.00200466
0.00272679
0.00278228
0.00296921
0.00285277
0.00205627
0.00219219
0.0030837
0.00322401
0.00357259
0.00336715
0.00236104
0.00263105
0.00385012
0.00409363
0.00459588
0.00428432
0.00284348
0.00314697
0.00480294
0.00515406
0.0056692
0.00525466
0.003432
0.00392391
0.00599253
0.00643283
0.00740759
0.00695275
0.00460561
0.00541845
0.00803939
0.00847112
0.00953249
0.0090993
0.00629241
0.00708024
0.0102025
0.0107835
0.0132889
0.0128333
0.0100422
0.0106765
0.0135828
0.0141713
0.0164192
0.0159726
0.0116836
0.0146014
0.0190675
0.0193837
0.0228315
0.0225291
0.0182048
0.0221516
0.0265505
0.0270258
0.0336155
0.0332477
0.0289531
0.0322769
0.0363187
0.0374317
0.0432974
0.0432462
0.039147
0.0484897
0.0523314
0.0517725
0.0639678
0.0654618
0.0623011
0.0711125
0.0741352
0.0744178
0.0879282
0.0903369
0.0889929
0.114088
0.111029
0.105597
0.131338
0.13493
0.136476
0.163533
0.160817
0.156767
0.18059
0.191997
0.209597
0.240413
0.21976
0.208803
0.218808
0.235253
0.24039
0.204404
0.212446
0.202258
0.198586
0.196069
0.16318
0.148062
0.181025
0.18814
0.169065
0.160922
0.134767
0.115904
0.140579
0.150732
0.150118
0.137931
0.110419
0.0981535
0.122477
0.134565
0.138537
0.126341
0.101681
0.0930681
0.114898
0.126503
0.13107
0.119607
0.0969534
0.092554
0.112571
0.123434
0.113588
0.1031
0.0850632
0.090249
0.109245
0.118875
0.111372
0.102126
0.084688
0.0905804
0.108132
0.116681
0.112467
0.104147
0.0882418
0.0828872
0.0975716
0.10573
0.111014
0.10366
0.0879899
0.0840557
0.0986476
0.105965
0.11137
0.104594
0.0897798
0.0865905
0.100208
0.106992
0.112006
0.105677
0.0919731
0.0908232
0.103493
0.109878
0.10533
0.0988815
0.0868412
0.0911057
0.104326
0.110053
0.10676
0.100745
0.0881851
0.0935598
0.106261
0.111451
0.108297
0.102807
0.0909139
0.0954545
0.107503
0.112305
0.109492
0.104354
0.0932317
0.0972195
0.108829
0.113562
0.111163
0.106148
0.0953432
0.0996846
0.110761
0.115325
0.11457
0.109583
0.0989359
0.0959731
0.106404
0.111516
0.115725
0.111384
0.0997716
0.0973391
0.108606
0.113548
0.117826
0.113727
0.102276
0.100405
0.111151
0.115798
0.119689
0.115587
0.104207
0.102416
0.113116
0.117794
0.121754
0.117952
0.106993
0.104985
0.115338
0.119762
0.123394
0.119587
0.108677
0.107527
0.117665
0.121964
0.125792
0.122223
0.111623
0.109543
0.11967
0.123954
0.127526
0.123979
0.113463
0.112396
0.122146
0.126279
0.129984
0.126579
0.116224
0.11435
0.124258
0.12839
0.131902
0.128515
0.11816
0.117093
0.126759
0.130771
0.13441
0.131154
0.120874
0.119057
0.128894
0.132925
0.136426
0.133189
0.122877
0.121877
0.13155
0.13548
0.139148
0.136078
0.125863
0.124036
0.133834
0.137741
0.141149
0.138
0.127564
0.126392
0.136267
0.140182
0.143879
0.140857
0.130187
0.128424
0.138555
0.142518
0.145211
0.141567
0.130052
0.134918
0.14606
0.149044
0.148105
0.14435
0.134662
0.138247
0.148291
0.15141
0.1502
0.146318
0.136902
0.14058
0.150537
0.153639
0.153
0.149177
0.139853
0.144233
0.154011
0.156877
0.156053
0.15241
0.143113
0.146312
0.156426
0.159382
0.158481
0.154611
0.14488
0.149194
0.159419
0.162308
0.161691
0.157944
0.148249
0.151905
0.162508
0.165335
0.164116
0.160247
0.150011
0.152057
0.163475
0.166894
0.170988
0.16837
0.157231
0.15696
0.16679
0.170381
0.173889
0.171012
0.160917
0.159968
0.169383
0.173128
0.176855
0.173941
0.163999
0.163239
0.172639
0.17639
0.180314
0.177636
0.167861
0.166948
0.176219
0.179804
0.183303
0.180586
0.170404
0.169033
0.178798
0.182504
0.185436
0.182402
0.171494
0.176372
0.187166
0.189443
0.188996
0.185612
0.176025
0.179684
0.189547
0.192135
0.191558
0.188003
0.178695
0.182491
0.192363
0.194972
0.194738
0.191191
0.181769
0.186115
0.196087
0.198554
0.198169
0.194649
0.185043
0.18881
0.199326
0.201777
0.201281
0.197729
0.187608
0.19001
0.201334
0.204274
0.208388
0.206223
0.194929
0.194564
0.204746
0.208161
0.211773
0.209215
0.198928
0.198272
0.207991
0.211579
0.215474
0.212923
0.202741
0.201906
0.211663
0.215274
0.219161
0.216703
0.206374
0.205388
0.215253
0.218779
0.221757
0.218901
0.207917
0.212844
0.223859
0.225916
0.225859
0.222508
0.212528
0.216814
0.226966
0.229234
0.229121
0.225711
0.216002
0.220501
0.230508
0.232777
0.232742
0.229308
0.219594
0.223969
0.234134
0.236432
0.236489
0.233004
0.223042
0.227995
0.238405
0.240581
0.240438
0.237053
0.226981
0.229434
0.240682
0.243402
0.247819
0.24584
0.234497
0.234221
0.244592
0.248008
0.251776
0.249534
0.239097
0.23862
0.24863
0.252087
0.256137
0.254017
0.243728
0.242652
0.252731
0.256158
0.259833
0.257511
0.246835
0.245826
0.256333
0.25997
0.264245
0.261994
0.250921
0.249924
0.260704
0.264326
0.267776
0.265084
0.25338
0.25901
0.270834
0.272532
0.272692
0.269347
0.258452
0.262788
0.274
0.276334
0.276658
0.272874
0.261973
0.267806
0.278975
0.281258
0.282306
0.278677
0.2678
0.273912
0.285031
0.287036
0.286917
0.283322
0.272166
0.276494
0.288484
0.29097
0.29125
0.287266
0.275537
0.279968
0.292593
0.295475
0.301465
0.299885
0.287756
0.28833
0.299243
0.302507
0.306778
0.304622
0.293216
0.292273
0.303462
0.307205
0.311834
0.309458
0.297906
0.29774
0.309114
0.313042
0.318679
0.316747
0.305809
0.306265
0.316916
0.320266
0.325307
0.323347
0.312064
0.310384
0.321918
0.325605
0.330173
0.327853
0.315748
0.315205
0.327344
0.331368
0.33741
0.335404
0.323562
0.32442
0.33601
0.33958
0.345307
0.343468
0.331386
0.3295
0.341942
0.345719
0.350655
0.348254
0.33512
0.334593
0.347842
0.352167
0.359012
0.357143
0.344332
0.345599
0.358038
0.361661
0.368039
0.366061
0.352546
0.350193
0.363921
0.368142
0.372627
0.369443
0.354596
0.363905
0.378397
0.379917
0.38336
0.379727
0.366551
0.377669
0.389536
0.390601
0.392373
0.389265
0.377371
0.383058
0.395364
0.397577
0.402602
0.398236
0.384849
0.385516
0.399396
0.40485
0.413864
0.412534
0.400728
0.402145
0.414088
0.417204
0.423675
0.421466
0.407624
0.406323
0.420976
0.425565
0.434034
0.432091
0.417842
0.422519
0.436417
0.44021
0.450751
0.450036
0.436542
0.434149
0.448641
0.452454
0.458957
0.456636
0.441786
0.443946
0.459131
0.463765
0.475836
0.476298
0.46561
0.469906
0.480247
0.48183
0.488719
0.48755
0.475069
0.477112
0.491929
0.496316
0.503434
0.49825
0.482912
0.505474
0.518737
0.518276
0.523033
0.520101
0.505263
0.5168
0.531429
0.532613
0.54244
0.539635
0.524671
0.550247
0.560751
0.558155
0.570515
0.56922
0.555791
0.559229
0.574917
0.578699
0.593674
0.597071
0.588719
0.600306
0.610643
0.609566
0.619323
0.617519
0.602215
0.633193
0.639549
0.634108
0.65129
0.654505
0.644016
0.656961
0.67124
0.668805
0.675088
0.675042
0.65721
0.676488
0.685396
0.681149
0.680815
0.685186
0.675964
0.654855
0.675385
0.674848
0.656596
0.650925
0.612153
0.543645
0.603916
0.616529
0.565852
0.546668
0.469361
0.420066
0.505017
0.528185
0.504327
0.47735
0.386971
0.361324
0.454702
0.485675
0.469342
0.434735
0.338344
0.318078
0.415879
0.453939
0.440599
0.399496
0.300258
0.285051
0.384194
0.427906
0.416829
0.370876
0.271558
0.259603
0.357923
0.405721
0.395981
0.346626
0.248642
0.238852
0.335484
0.385931
0.377262
0.325916
0.229917
0.222008
0.316401
0.368294
0.360753
0.308456
0.214907
0.208698
0.300459
0.352791
0.346242
0.293937
0.203193
0.198428
0.287244
0.339281
0.333677
0.281908
0.194277
0.190718
0.276296
0.327537
0.322691
0.271931
0.187658
0.185064
0.267225
0.31734
0.313259
0.263682
0.182948
0.181138
0.259795
0.308583
0.30511
0.256847
0.179954
0.178687
0.253638
0.3011
0.298298
0.251431
0.178169
0.177317
0.248811
0.294847
0.29277
0.247151
0.177239
0.17666
0.245019
0.289836
0.288411
0.24393
0.176909
0.176564
0.242242
0.285902
0.285024
0.241555
0.177036
0.17684
0.240221
0.282897
0.282493
0.23996
0.177481
0.177455
0.238978
0.280701
0.280678
0.239001
0.178234
0.178289
0.238259
0.279151
0.279432
0.23857
0.179146
0.179307
0.238069
0.278136
0.278663
0.238557
0.180252
0.180461
0.238216
0.277558
0.278273
0.2389
0.181451
0.181741
0.238729
0.277336
0.2782
0.239516
0.18279
0.183102
0.239443
0.277396
0.278366
0.240356
0.184173
0.184546
0.240404
0.277684
0.278737
0.241365
0.185655
0.186029
0.241462
0.278144
0.279248
0.2425
0.187134
0.187551
0.242681
0.278746
0.279891
0.243731
0.188675
0.189074
0.243927
0.279447
0.280608
0.245022
0.190178
0.190606
0.245277
0.280233
0.28141
0.24636
0.191715
0.192113
0.246609
0.28107
0.282244
0.247715
0.193188
0.193607
0.248006
0.281956
0.283131
0.249086
0.194678
0.19506
0.249358
0.282864
0.284025
0.250447
0.196088
0.196482
0.250746
0.283796
0.284948
0.251801
0.197501
0.197853
0.252071
0.284728
0.285858
0.253126
0.198825
0.199183
0.253414
0.285664
0.286782
0.254431
0.200143
0.200463
0.254691
0.286596
0.287689
0.255706
0.201378
0.201696
0.255967
0.287516
0.288594
0.256941
0.202595
0.202877
0.257161
0.288422
0.289506
0.25814
0.20373
0.204003
0.258353
0.289332
0.290356
0.259281
0.204832
0.205066
0.259453
0.29018
0.29118
0.260381
0.205854
0.206082
0.260545
0.291007
0.291988
0.261421
0.206846
0.207038
0.261547
0.291812
0.292764
0.262417
0.207762
0.207941
0.262534
0.292585
0.293517
0.263351
0.208639
0.208783
0.263434
0.293334
0.294239
0.264247
0.209442
0.209569
0.264319
0.294046
0.294933
0.265083
0.210204
0.210301
0.265127
0.29474
0.295602
0.26589
0.210901
0.210982
0.265922
0.295396
0.296242
0.266639
0.21156
0.211614
0.266645
0.296035
0.296856
0.267363
0.212159
0.212199
0.267358
0.296635
0.29744
0.268031
0.212725
0.21274
0.268
0.297218
0.298
0.268677
0.213237
0.213241
0.268637
0.297762
0.29853
0.269271
0.213722
0.213703
0.269206
0.298291
0.299037
0.269846
0.214159
0.214131
0.269772
0.298782
0.299515
0.270371
0.214574
0.214526
0.270274
0.299259
0.29997
0.27088
0.214947
0.214891
0.270775
0.299698
0.300398
0.271341
0.215302
0.215228
0.271216
0.300125
0.300804
0.27179
0.215619
0.215539
0.271658
0.300515
0.301185
0.272193
0.215922
0.215826
0.272042
0.300895
0.301545
0.272587
0.216191
0.21609
0.27243
0.30124
0.301881
0.272938
0.216449
0.216333
0.272763
0.301575
0.302198
0.273283
0.216676
0.216557
0.273103
0.301878
0.302494
0.273586
0.216894
0.216761
0.273389
0.302174
0.302772
0.273886
0.217083
0.216948
0.273685
0.302438
0.30303
0.274147
0.217266
0.217118
0.273929
0.302696
0.303272
0.274405
0.217423
0.217274
0.274185
0.302924
0.303494
0.274627
0.217576
0.217414
0.274392
0.303147
0.303703
0.274849
0.217704
0.217542
0.274612
0.303343
0.303893
0.275036
0.217829
0.217655
0.274783
0.303534
0.30407
0.275223
0.217931
0.217757
0.27497
0.303698
0.30423
0.275377
0.218031
0.217847
0.27511
0.30386
0.304378
0.275534
0.21811
0.217927
0.275266
0.303996
0.304512
0.275659
0.21819
0.217996
0.275378
0.30413
0.304633
0.275787
0.218248
0.218056
0.275507
0.30424
0.30474
0.275885
0.218308
0.218105
0.275591
0.304348
0.304836
0.275987
0.218347
0.218147
0.275695
0.304433
0.304919
0.27606
0.218388
0.218177
0.275754
0.304517
0.304991
0.276138
0.218411
0.218203
0.275835
0.30458
0.305052
0.276188
0.218436
0.218217
0.27587
0.30464
0.305102
0.276243
0.218442
0.218229
0.275931
0.304683
0.305144
0.276275
0.218455
0.218229
0.275947
0.304724
0.305175
0.27631
0.218448
0.218229
0.27599
0.304749
0.3052
0.276325
0.21845
0.218218
0.27599
0.304772
0.305215
0.276345
0.218432
0.218208
0.276017
0.304782
0.305225
0.276345
0.218424
0.218188
0.276003
0.304791
0.305227
0.276351
0.218397
0.21817
0.276018
0.304788
0.305225
0.27634
0.218382
0.218144
0.275993
0.304786
0.305215
0.276336
0.21835
0.218121
0.275999
0.304773
0.305204
0.276317
0.218332
0.218092
0.275966
0.304762
0.305186
0.276306
0.218298
0.218067
0.275966
0.304741
0.305168
0.27628
0.218276
0.218033
0.275925
0.304721
0.305141
0.276261
0.218234
0.217999
0.275915
0.30469
0.30511
0.276223
0.218202
0.217953
0.275861
0.304658
0.305067
0.276187
0.218144
0.217899
0.275829
0.304606
0.305012
0.276124
0.218088
0.217828
0.275747
0.304547
0.30494
0.276057
0.218004
0.217744
0.275682
0.304463
0.304852
0.275982
0.217917
0.217639
0.275588
0.304371
0.304767
0.275851
0.217854
0.217571
0.27546
0.304297
0.304696
0.27574
0.21769
0.217353
0.275332
0.304186
0.304649
0.275627
0.217525
0.217127
0.275239
0.30415
0.304848
0.275686
0.217462
0.217061
0.275432
0.304482
0.305479
0.276106
0.217662
0.217693
0.276286
0.30581
0.308672
0.278076
0.219343
0.222289
0.281256
0.312642
0.315567
0.284389
0.22554
0.348706
0.370005
0.377128
0.380379
0.392461
0.399731
0.404362
0.407636
0.417398
0.423503
0.430387
0.435826
0.439813
0.44283
0.44495
0.446364
0.447257
0.447804
0.448149
0.448382
0.448553
0.44869
0.448804
0.448902
0.448981
0.449048
0.449092
0.449136
0.449137
0.449156
0.449137
0.449142
0.449558
0.449777
0.450027
0.45034
0.450686
0.45108
0.451499
0.451942
0.452391
0.45284
0.453271
0.453665
0.453992
0.454236
0.454417
0.45456
0.454668
0.454738
0.454768
0.454762
0.454727
0.454666
0.45455
0.45434
0.454047
0.453688
0.453255
0.452738
0.452134
0.451442
0.450656
0.449773
0.448784
0.447681
0.446452
0.445085
0.443566
0.441881
0.440012
0.437944
0.435658
0.433137
0.430365
0.427326
0.424006
0.420397
0.416492
0.412288
0.407787
0.402996
0.397926
0.392593
0.387016
0.381219
0.375226
0.369066
0.36277
0.356365
0.349885
0.34336
0.336819
0.330287
0.323791
0.317352
0.310994
0.304736
0.298596
0.292589
0.286729
0.281027
0.275491
0.270127
0.264939
0.25993
0.255101
0.250449
0.245974
0.241671
0.237537
0.233568
0.22976
0.226107
0.222605
0.219251
0.216039
0.212967
0.21003
0.207226
0.204551
0.202002
0.199576
0.197269
0.195077
0.192997
0.191024
0.189154
0.187382
0.185704
0.184115
0.18261
0.181184
0.179834
0.178554
0.177342
0.176194
0.175106
0.174077
0.173103
0.172183
0.171315
0.170498
0.169732
0.169016
0.168355
0.167749
0.167204
0.166721
0.166301
0.165945
0.165648
0.165405
0.165208
0.165058
0.164938
0.16482
0.164802
0.164762
0.164684
0.164547
0.164332
0.164044
0.163699
0.163313
0.162895
0.162448
0.161976
0.161476
0.160947
0.160386
0.159795
0.159172
0.158519
0.157835
0.157122
0.156381
0.155612
0.154818
0.153999
0.153156
0.152293
0.151409
0.150508
0.149592
0.148661
0.14772
0.146769
0.145812
0.144851
0.143887
0.142924
0.141965
0.14101
0.140064
0.139128
0.138205
0.137297
0.136406
0.135535
0.134686
0.133861
0.133061
0.13229
0.131549
0.130841
0.130166
0.129525
0.128915
0.128335
0.127784
0.127268
0.126808
0.126448
0.126241
0.126199
0.126267
0.126359
0.126396
0.12642
0.126345
0.126267
0.126151
0.126004
0.12583
0.12563
0.125406
0.125158
0.124887
0.124593
0.124277
0.123939
0.123581
0.1232
0.1228
0.122378
0.121938
0.121476
0.120998
0.120498
0.119983
0.119446
0.118894
0.11832
0.11773
0.117118
0.116488
0.115835
0.115163
0.114467
0.113751
0.113009
0.112247
0.111457
0.110646
0.109807
0.108946
0.108057
0.107145
0.106204
0.105238
0.10424
0.103217
0.102161
0.101076
0.0999555
0.0988043
0.0976165
0.0963944
0.0951336
0.0938383
0.0925022
0.0911285
0.0897114
0.0882531
0.0867466
0.0851929
0.0835841
0.0819194
0.0801892
0.07839
0.0765088
0.0745375
0.0724567
0.0702512
0.0678918
0.0653543
0.0625993
0.0595921
0.0562883
0.0526735
0.0487807
0.0447569
0.0408066
0.0367228
0.0315811
0.0248646
0.0167616
0.00872074
0.00421874
0.0101252
0.0168683
0.0215977
0.0262974
0.0295053
0.032242
0.033979
0.0351498
0.035799
0.0358478
0.0353888
0.0343522
0.0329403
0.0312386
0.029478
0.0276509
0.0259541
0.0242513
0.0226659
0.0210591
0.0195331
0.0179932
0.0165293
0.0151138
0.0137751
0.0125362
0.0113636
0.0103103
0.00930185
0.0084083
0.00754596
0.00677034
0.00603107
0.00533537
0.00469411
0.0040401
0.00346138
0.00283238
0.00234904
0.00179897
0.00132941
0.000819367
0.000834556
0.000905741
0.00127282
0.00126294
0.00174888
0.00167096
0.00212883
0.00220578
0.00275839
0.00271249
0.00236378
0.0015128
0.00114873
0.000913709
0.000980251
0.00124534
0.0015765
0.00139403
0.00116439
0.000994563
0.00102164
0.00124625
0.00153813
0.00209185
0.00294626
0.00335026
0.00323779
0.00333758
0.00391957
0.00381787
0.00437831
0.00452315
0.00513767
0.00495663
0.00445373
0.00560775
0.00559523
0.00578969
0.00648565
0.00621222
0.00696035
0.00722115
0.00801521
0.00761028
0.0069017
0.00834331
0.00850805
0.00886599
0.00977103
0.0091911
0.0102756
0.0107748
0.0118023
0.0109883
0.00997219
0.0117575
0.0122808
0.0129808
0.0141224
0.0129978
0.0144691
0.0154675
0.0166411
0.015028
0.0134315
0.014411
0.0165711
0.0180809
0.0191366
0.0166452
0.0181276
0.020548
0.0214014
0.0175319
0.0141999
0.0118219
0.0189418
0.0227858
0.0234148
0.0175635
0.0190369
0.0248164
0.025297
0.016963
0.00718602
0.00227225
0.0182709
0.02655
0.0267584
0.0155136
0.015632
0.0273371
0.0268139
0.0127862
0.0119408
0.0220874
0.010528
0.0258573
0.0239264
0.0087723
0.00639409
0.0207571
0.0179952
0.0101655
0.0317806
0.0405593
0.0130971
0.0122041
0.0101207
0.0179971
0.0231706
0.00634416
0.011349
0.0286366
0.0481287
0.0545448
0.0336801
0.0174302
0.0241355
0.0393678
0.0438576
0.0307127
0.0365615
0.048534
0.0597221
0.0635697
0.051695
0.0417147
0.0458092
0.0548082
0.0567601
0.0489773
0.051752
0.0592201
0.0664512
0.0691348
0.0612055
0.0545043
0.0575302
0.063754
0.0660558
0.060479
0.0634452
0.0684998
0.0722281
0.0756232
0.0707914
0.0661771
0.0687679
0.0729762
0.075139
0.0711673
0.073427
0.0770784
0.079078
0.082446
0.0790782
0.0755435
0.0775455
0.0808203
0.082676
0.0794458
0.0812536
0.0842584
0.0856699
0.0887096
0.0859867
0.0829897
0.0846462
0.0874343
0.0890486
0.0862503
0.0877833
0.0903839
0.0915572
0.094223
0.0918961
0.0892772
0.090707
0.0931369
0.0945585
0.0921069
0.0934481
0.095719
0.0967236
0.0990753
0.0970596
0.0947664
0.0960299
0.0981513
0.0994168
0.0972742
0.0984661
0.100444
0.101288
0.103371
0.101636
0.0996429
0.100769
0.102604
0.103729
0.101878
0.102936
0.104642
0.105337
0.107195
0.105704
0.103984
0.104982
0.106569
0.107571
0.105972
0.106913
0.108391
0.108956
0.110616
0.109332
0.107848
0.108734
0.110107
0.110988
0.109615
0.110447
0.111716
0.112174
0.113633
0.112542
0.111277
0.112059
0.113226
0.114
0.112839
0.113573
0.114641
0.115
0.116278
0.115363
0.114304
0.11499
0.115964
0.116635
0.115673
0.116314
0.117197
0.117469
0.118577
0.117821
0.116952
0.11755
0.118346
0.118925
0.118145
0.118702
0.119415
0.119606
0.12056
0.11995
0.119256
0.119775
0.120406
0.1209
0.120289
0.12077
0.121323
0.121441
0.122252
0.121777
0.121245
0.12169
0.122168
0.122581
0.122126
0.122534
0.122939
0.122994
0.123664
0.123312
0.122931
0.123301
0.123636
0.123968
0.123658
0.12399
0.124258
0.124262
0.124787
0.124549
0.124305
0.124598
0.124804
0.125055
0.124873
0.125126
0.125274
0.125237
0.125613
0.125485
0.125359
0.125572
0.125669
0.125838
0.125764
0.125935
0.125985
0.125913
0.126136
0.126111
0.126082
0.126208
0.126218
0.126299
0.126306
0.12638
0.126361
0.12628
0.12617
0.126018
0.125807
0.12553
0.125184
0.124767
0.124279
0.123723
0.1231
0.122412
0.121659
0.120842
0.119958
0.119005
0.117979
0.116877
0.115696
0.114431
0.113082
0.111639
0.1101
0.10847
0.106749
0.104929
0.103014
0.100991
0.0988391
0.0965453
0.0940997
0.0914907
0.0887128
0.085774
0.0827104
0.0796057
0.0765862
0.0738082
0.0713745
0.0690047
0.0661805
0.062596
0.0581361
0.0526785
0.0460824
0.0384154
0.0300672
0.0213961
0.0129918
0.00555784
0.00268197
0.00658642
0.00877196
0.00892445
0.00803328
0.00692889
0.00585885
0.00484474
0.00389319
0.00344882
0.00267226
0.00192746
0.00134895
0.00119404
0.00102429
0.00102224
0.00123319
0.00149038
0.00127036
0.0011518
0.000989552
0.000961662
0.00115995
0.00139927
0.0017735
0.00240094
0.00213443
0.00159197
0.0011566
0.00106566
0.000909643
0.000859468
0.00103825
0.00126652
0.00105036
0.00095608
0.000793124
0.000744957
0.000930823
0.00116222
0.00150445
0.00198052
0.00238633
0.00261001
0.00301979
0.00355089
0.00418632
0.00491722
0.00559159
0.00424503
0.00399584
0.0031253
0.00295486
0.00263446
0.00267732
0.00238263
0.00297527
0.00215791
0.00401402
0.00608956
0.00568791
0.00233848
0.00233295
0.00327058
0.00259585
0.00819145
0.0125724
0.0059553
0.00139304
0.00347701
0.00181364
0.00322098
0.00278326
0.00270163
0.00252821
0.00223169
0.00183477
0.00135487
0.000918197
0.00082897
0.00065574
0.000577245
0.000762393
0.00100942
0.000899847
0.000741738
0.000498995
0.000487765
0.000730905
0.00100905
0.00139425
0.00184666
0.00156296
0.0013472
0.00112097
0.00094932
0.000731825
0.000429638
0.000426139
9.01766e-05
0.00031395
0.000260793
0.000148569
0.000126601
0.000267974
0.000465259
0.000351603
0.000394272
0.000511362
0.000571897
0.000813173
0.000718137
0.000683561
0.000577518
0.000587282
0.000723688
0.000857393
0.000912924
0.000864233
0.00107253
0.00124761
0.00146274
0.00180227
0.00202982
0.00232573
0.00278103
0.00327699
0.00387394
0.00372879
0.00332726
0.00304454
0.00275354
0.00251566
0.00226363
0.00189125
0.00167238
0.00176212
0.001645
0.00137957
0.0013351
0.00130474
0.00121622
0.000975046
0.000961613
0.000790129
0.000724028
0.000779926
0.00101255
0.00107777
0.00112136
0.00113827
0.00140552
0.00151045
0.00152225
0.00176838
0.00182373
0.00208333
0.00180424
0.001535
0.0019362
0.0022207
0.00212232
0.00237442
0.00229702
0.00221847
0.00194227
0.00196532
0.00224303
0.00255668
0.00273195
0.00266554
0.00300749
0.00345318
0.00399695
0.00413677
0.00486472
0.00494865
0.00752087
0.00557733
0.0110755
0.00872468
0.0162771
0.0252814
0.0204279
0.0151006
0.00867813
0.0155389
0.0230515
0.0315927
0.0233894
0.0320104
0.0401875
0.0471985
0.0385489
0.0293374
0.0354102
0.0453923
0.0541159
0.0617912
0.0530632
0.0421888
0.030362
0.0195288
0.0235237
0.0136043
0.0123236
0.00852859
0.0070611
0.00557637
0.00573467
0.00481622
0.00466743
0.00418545
0.00383305
0.00354365
0.00343557
0.00317176
0.00289665
0.00275287
0.00246642
0.00242576
0.00254371
0.00284747
0.00312868
0.0032931
0.00352698
0.00392894
0.0044055
0.00486268
0.00497831
0.00553517
0.0060326
0.00596888
0.00537516
0.00672829
0.00687077
0.00734423
0.00900779
0.00859673
0.0075846
0.00765507
0.0086381
0.00968208
0.00937704
0.0110859
0.0126896
0.0168278
0.0157028
0.0226766
0.0278687
0.0312926
0.0242182
0.0220503
0.0176158
0.0157222
0.0129951
0.013302
0.0110485
0.0157824
0.018272
0.0191441
0.0166764
0.0226954
0.0221939
0.026411
0.0257242
0.0305895
0.0342888
0.0365944
0.0316563
0.0331841
0.0270446
0.0389832
0.0426044
0.0501676
0.0461188
0.0431404
0.0413145
0.0418749
0.0379519
0.0374347
0.0508596
0.0626682
0.07115
0.0835877
0.0788442
0.0651559
0.0428768
0.0488759
0.0606762
0.045787
0.0486259
0.0542753
0.0609152
0.072727
0.0648532
0.0718614
0.083516
0.0958931
0.083279
0.0763842
0.079827
0.102147
0.0869633
0.101176
0.117138
0.111423
0.0979588
0.0832114
0.134224
0.13963
0.133941
0.11566
0.112625
0.122911
0.128081
0.142842
0.155722
0.167787
0.162525
0.191914
0.176205
0.158485
0.144818
0.132118
0.116627
0.103334
0.088945
0.088609
0.104125
0.101754
0.122965
0.141109
0.145506
0.162317
0.171131
0.189096
0.202656
0.208038
0.201883
0.195792
0.201701
0.193549
0.188909
0.175932
0.160036
0.161368
0.148275
0.151694
0.140501
0.144531
0.136426
0.126711
0.131584
0.123688
0.129647
0.123924
0.11698
0.1227
0.116812
0.122462
0.117238
0.122782
0.119062
0.114402
0.119508
0.11538
0.119848
0.115922
0.120932
0.117271
0.121992
0.118789
0.124065
0.121992
0.118847
0.123409
0.120662
0.125307
0.122561
0.126809
0.124322
0.128615
0.126074
0.130221
0.128098
0.132186
0.129941
0.133971
0.132091
0.136091
0.134106
0.13804
0.136362
0.140276
0.138484
0.142384
0.140908
0.144764
0.143086
0.146899
0.145511
0.149244
0.14741
0.150733
0.153082
0.155515
0.151296
0.153581
0.149058
0.151467
0.146976
0.149465
0.144716
0.147353
0.14273
0.145478
0.140657
0.143628
0.138846
0.14191
0.136887
0.140145
0.135243
0.138604
0.133497
0.137101
0.132057
0.135747
0.130417
0.134248
0.129001
0.13277
0.127054
0.130394
0.137246
0.144277
0.141841
0.146505
0.137612
0.140064
0.144431
0.148897
0.142628
0.146947
0.151656
0.143106
0.145633
0.14997
0.154623
0.148905
0.153096
0.157991
0.149751
0.152582
0.156744
0.161537
0.156438
0.160413
0.165306
0.15753
0.160231
0.157364
0.154778
0.15326
0.156887
0.15547
0.159445
0.158419
0.162141
0.16101
0.164848
0.163832
0.167615
0.166685
0.17033
0.168855
0.172258
0.174056
0.175392
0.171816
0.173764
0.169064
0.170428
0.166538
0.168774
0.163766
0.165408
0.161342
0.163983
0.15911
0.161296