/*--------------------------------*- C++ -*----------------------------------*\
| =========                 |                                                 |
| \\      /  F ield         | OpenFOAM: The Open Source CFD Toolbox           |
|  \\    /   O peration     | Version:  v2006                                 |
|   \\  /    A nd           | Website:  www.openfoam.com                      |
|    \\/     M anipulation  |                                                 |
\*---------------------------------------------------------------------------*/
FoamFile
{
    version     2.0;
    format      ascii;
    class       volScalarField;
    location    "0.006";
    object      rho;
}
// * * * * * * * * * * * * * * * * * * * * * * * * * * * * * * * * * * * * * //

dimensions      [1 -3 0 0 0 0 0];


internalField   nonuniform List<scalar> 
9148
(
1.71819
1.71819
1.71846
1.71845
1.71841
1.71841
1.71845
1.71851
1.7186
1.7187
1.7188
1.71891
1.71903
1.71916
1.71928
1.71942
1.71956
1.71972
1.71988
1.72005
1.72023
1.72041
1.72061
1.72081
1.72101
1.72122
1.72144
1.72167
1.72189
1.72212
1.72236
1.72259
1.72283
1.72307
1.72331
1.72354
1.72378
1.72402
1.72425
1.72448
1.72471
1.72493
1.72515
1.72536
1.72557
1.72577
1.72596
1.72615
1.72633
1.7265
1.72667
1.72682
1.72697
1.7271
1.72723
1.72735
1.72745
1.72755
1.72764
1.72771
1.72777
1.72781
1.72782
1.72779
1.72778
1.72778
1.72781
1.72788
1.72803
1.72825
1.72836
1.72824
1.72814
1.72838
1.7284
1.72846
1.72839
1.7281
1.72808
1.72842
1.72851
1.72856
1.72845
1.7281
1.72814
1.72849
1.72862
1.72869
1.72856
1.72822
1.72831
1.72865
1.72878
1.72888
1.72875
1.72842
1.72854
1.72886
1.72899
1.72912
1.72898
1.72867
1.72882
1.72912
1.72925
1.7294
1.72927
1.72897
1.72914
1.72942
1.72955
1.72972
1.72959
1.72932
1.7295
1.72976
1.72989
1.73006
1.72993
1.72968
1.72986
1.7301
1.73023
1.7304
1.73027
1.73003
1.7302
1.73043
1.73056
1.73072
1.73059
1.73036
1.7305
1.73073
1.73086
1.731
1.73086
1.73063
1.73075
1.73098
1.73112
1.73123
1.73109
1.73087
1.73098
1.73119
1.73134
1.73143
1.73129
1.73109
1.7312
1.73139
1.73152
1.73161
1.73148
1.7313
1.73141
1.73157
1.73169
1.73178
1.73166
1.73152
1.73163
1.73175
1.73186
1.73194
1.73184
1.73173
1.73184
1.73192
1.73201
1.73209
1.73201
1.73193
1.73202
1.73209
1.73216
1.73223
1.73216
1.73209
1.73215
1.73222
1.73228
1.73233
1.73227
1.7322
1.73224
1.7323
1.73237
1.7324
1.73233
1.73226
1.73227
1.73234
1.73241
1.73242
1.73235
1.73228
1.73227
1.73234
1.73241
1.7324
1.73233
1.73226
1.73224
1.7323
1.73237
1.73235
1.73228
1.73222
1.73218
1.73224
1.73231
1.73227
1.73221
1.73215
1.73211
1.73216
1.73222
1.73217
1.73211
1.73206
1.732
1.73204
1.7321
1.73204
1.73198
1.73194
1.73186
1.7319
1.73196
1.73188
1.73183
1.73179
1.7317
1.73174
1.73179
1.73171
1.73166
1.73162
1.73154
1.73156
1.73161
1.73152
1.73147
1.73146
1.73138
1.73138
1.73141
1.73132
1.73129
1.73131
1.73124
1.73121
1.73122
1.73113
1.73113
1.73118
1.73113
1.73106
1.73105
1.73098
1.731
1.7311
1.73107
1.73095
1.73091
1.73086
1.73092
1.73107
1.73107
1.7309
1.73083
1.73081
1.7309
1.73109
1.73112
1.73091
1.73079
1.7308
1.73094
1.73116
1.73121
1.73098
1.73082
1.73087
1.73104
1.73126
1.73131
1.7311
1.73092
1.73101
1.73118
1.73136
1.73141
1.73125
1.73108
1.73118
1.73135
1.73146
1.73106
1.73135
1.73126
1.73097
1.72983
1.72589
1.71972
1.72222
1.72839
1.7222
1.71917
1.71892
1.71884
1.719
1.71958
1.71964
1.71885
1.71843
1.71829
1.71861
1.71946
1.71898
1.71823
1.71804
1.71782
1.71766
1.71795
1.71715
1.71724
1.7177
1.71753
1.717
1.71667
1.71619
1.71668
1.71723
1.717
1.71636
1.71586
1.71541
1.71599
1.71672
1.71649
1.71567
1.71507
1.71469
1.71535
1.71625
1.7161
1.71512
1.7144
1.7141
1.71492
1.71595
1.71586
1.71481
1.71391
1.71376
1.71479
1.7158
1.71576
1.71481
1.71371
1.71373
1.71489
1.71572
1.71564
1.71495
1.7139
1.71405
1.715
1.71553
1.71538
1.71496
1.7142
1.71435
1.71496
1.71521
1.715
1.71486
1.71438
1.71449
1.71475
1.71479
1.71455
1.71458
1.71441
1.71431
1.71436
1.71431
1.71403
1.7141
1.71412
1.71387
1.71385
1.71379
1.71352
1.71355
1.71359
1.71329
1.71324
1.7132
1.71284
1.7129
1.71296
1.71259
1.7125
1.71238
1.71187
1.71204
1.71218
1.71172
1.71157
1.71146
1.71118
1.71123
1.71131
1.71099
1.71095
1.71092
1.71063
1.71065
1.71069
1.71038
1.71033
1.71028
1.70999
1.71003
1.71008
1.70986
1.70983
1.70981
1.70965
1.70966
1.70967
1.70952
1.70951
1.70951
1.70939
1.70939
1.70939
1.70928
1.70929
1.7093
1.70918
1.70918
1.70918
1.7091
1.70908
1.70906
1.709
1.70902
1.70905
1.70909
1.70912
1.70912
1.70913
1.70914
1.70915
1.70916
1.70916
1.70917
1.70918
1.70919
1.7092
1.70921
1.70921
1.70922
1.70922
1.70923
1.70923
1.70922
1.70922
1.70921
1.70923
1.70925
1.70925
1.70924
1.70923
1.70922
1.70925
1.70926
1.70926
1.70931
1.70931
1.70931
1.70938
1.70937
1.70936
1.7094
1.70942
1.70943
1.70947
1.70946
1.70944
1.70948
1.7095
1.7095
1.70954
1.70953
1.70952
1.70957
1.70958
1.70959
1.70967
1.70967
1.70965
1.70978
1.70981
1.70982
1.70994
1.70992
1.70988
1.70994
1.70999
1.71
1.71004
1.71002
1.70998
1.71
1.71003
1.71005
1.70999
1.70998
1.70997
1.70995
1.70994
1.70993
1.70992
1.70993
1.70996
1.71001
1.70996
1.70994
1.71
1.71002
1.71007
1.71017
1.71012
1.7101
1.71023
1.71026
1.7103
1.71045
1.71042
1.7104
1.71059
1.71061
1.71062
1.71078
1.71077
1.71076
1.71093
1.71093
1.71093
1.71108
1.71108
1.71108
1.71123
1.71123
1.71123
1.71137
1.71137
1.71137
1.71151
1.71151
1.71152
1.71166
1.71165
1.71164
1.71179
1.7118
1.71181
1.71196
1.71195
1.71193
1.71209
1.71211
1.71212
1.71229
1.71227
1.71225
1.71242
1.71244
1.71246
1.71262
1.7126
1.71258
1.71275
1.71277
1.71281
1.71301
1.71297
1.71293
1.7131
1.71315
1.7132
1.71339
1.71333
1.71328
1.71342
1.7135
1.71357
1.71385
1.71378
1.71368
1.71375
1.71381
1.71388
1.71403
1.71399
1.71392
1.71398
1.71408
1.71414
1.71429
1.71421
1.71408
1.71414
1.7143
1.7144
1.71454
1.71453
1.71433
1.71397
1.7141
1.71418
1.71404
1.71404
1.71387
1.71353
1.71367
1.71369
1.71332
1.71347
1.71308
1.71132
1.71172
1.71176
1.71001
1.70995
1.71037
1.70696
1.70738
1.70688
1.70436
1.7028
1.70135
1.69162
1.69385
1.69557
1.68036
1.67836
1.67426
1.65444
1.66817
1.6711
1.65386
1.65368
1.63006
1.61727
1.64061
1.64922
1.64849
1.64452
1.6372
1.64771
1.6544
1.65868
1.65994
1.65545
1.65029
1.65344
1.65635
1.65881
1.66633
1.66415
1.66112
1.66314
1.6644
1.66613
1.67178
1.67008
1.66805
1.66873
1.66958
1.67108
1.67585
1.67436
1.67282
1.67392
1.67484
1.67613
1.67569
1.67483
1.67442
1.67759
1.67848
1.67922
1.67876
1.67823
1.67787
1.68048
1.68115
1.68193
1.68206
1.68129
1.68089
1.68111
1.68126
1.6817
1.68409
1.68365
1.68321
1.68319
1.68335
1.6837
1.68571
1.68532
1.68489
1.68475
1.68493
1.68518
1.6873
1.68686
1.6863
1.68635
1.68668
1.68719
1.6867
1.68643
1.68628
1.68762
1.6881
1.68838
1.68791
1.68765
1.68747
1.68841
1.6889
1.68914
1.68855
1.68825
1.68799
1.68911
1.68964
1.68984
1.68915
1.68883
1.68854
1.68966
1.6902
1.69045
1.68971
1.68947
1.68919
1.6899
1.6906
1.69097
1.69053
1.69013
1.68968
1.6891
1.68936
1.68965
1.69077
1.69054
1.68992
1.6892
1.68956
1.68994
1.6908
1.69058
1.6899
1.6889
1.68931
1.68978
1.69061
1.69035
1.68964
1.68884
1.6892
1.68964
1.6903
1.69005
1.68929
1.68819
1.68865
1.68916
1.68999
1.68981
1.68909
1.68807
1.68847
1.6889
1.68941
1.68912
1.68836
1.68741
1.68785
1.68832
1.68906
1.68888
1.68815
1.68707
1.68749
1.68792
1.6884
1.68814
1.68734
1.68638
1.68684
1.6873
1.68798
1.68779
1.68703
1.686
1.68644
1.68684
1.6873
1.68706
1.68618
1.68531
1.68578
1.6862
1.68687
1.6867
1.68597
1.68492
1.6854
1.68575
1.68619
1.68596
1.68505
1.68419
1.68471
1.6851
1.68588
1.68571
1.68496
1.68393
1.68448
1.68476
1.68534
1.68509
1.68424
1.68321
1.6838
1.68408
1.68464
1.68418
1.68363
1.68389
1.68489
1.6854
1.68393
1.68335
1.6827
1.68331
1.68423
1.68455
1.6835
1.68311
1.68254
1.6834
1.68413
1.68429
1.68322
1.68295
1.68243
1.68268
1.68348
1.68367
1.68255
1.68228
1.68168
1.68233
1.68302
1.68319
1.68221
1.68206
1.68158
1.68204
1.68275
1.68287
1.68162
1.68141
1.68078
1.68109
1.68191
1.68211
1.68087
1.68065
1.68001
1.68064
1.68112
1.68145
1.68186
1.68154
1.68051
1.67916
1.67989
1.68034
1.68091
1.68072
1.67989
1.67888
1.67946
1.67973
1.68036
1.68026
1.67952
1.67839
1.67895
1.67914
1.67949
1.67939
1.67868
1.67729
1.67794
1.67815
1.67872
1.67856
1.67777
1.67657
1.67724
1.6774
1.67763
1.67729
1.67666
1.67643
1.67755
1.67791
1.67627
1.67574
1.67494
1.67559
1.67652
1.67674
1.67548
1.67513
1.67443
1.67495
1.67579
1.6759
1.67458
1.67435
1.6737
1.6737
1.67461
1.67477
1.67331
1.67308
1.67233
1.67281
1.67368
1.67383
1.67226
1.67195
1.67112
1.67113
1.67194
1.67237
1.67252
1.67224
1.67099
1.66913
1.6701
1.67065
1.67103
1.67089
1.66993
1.66824
1.6691
1.66942
1.66975
1.66958
1.66857
1.66695
1.66777
1.6681
1.66841
1.66822
1.66724
1.6653
1.66624
1.66657
1.6668
1.6663
1.66549
1.66494
1.6664
1.66678
1.66472
1.66412
1.66307
1.66354
1.66471
1.66493
1.66326
1.66268
1.66171
1.66216
1.66321
1.66335
1.6616
1.66118
1.66025
1.66059
1.66166
1.66177
1.65994
1.6596
1.65863
1.65881
1.65987
1.66001
1.6579
1.65741
1.6563
1.65647
1.65745
1.65802
1.65796
1.65761
1.65594
1.65375
1.65497
1.65558
1.65565
1.65543
1.65408
1.65189
1.65301
1.6536
1.65343
1.65316
1.65175
1.6495
1.6507
1.65129
1.6517
1.65149
1.65015
1.64801
1.64913
1.64963
1.6495
1.64927
1.64782
1.64533
1.64653
1.64709
1.647
1.64625
1.64499
1.64402
1.64615
1.64663
1.64376
1.64293
1.64125
1.64206
1.64379
1.64407
1.6418
1.64112
1.6398
1.63975
1.64133
1.64156
1.63897
1.63827
1.63698
1.63567
1.63761
1.63813
1.63556
1.63469
1.63306
1.6345
1.63603
1.63617
1.63359
1.63298
1.63149
1.63062
1.63205
1.6328
1.63249
1.63203
1.62973
1.62522
1.62739
1.62861
1.6283
1.62781
1.62569
1.62296
1.62466
1.62551
1.62564
1.62536
1.62345
1.62048
1.62201
1.62265
1.62184
1.62154
1.6197
1.61543
1.61728
1.61829
1.61739
1.61672
1.6145
1.61175
1.61357
1.61449
1.61474
1.61461
1.61259
1.60936
1.61107
1.6117
1.61067
1.61055
1.60861
1.60376
1.60577
1.6069
1.60506
1.60433
1.6018
1.59859
1.60072
1.60174
1.60197
1.6019
1.59976
1.59604
1.59793
1.59871
1.59705
1.59704
1.59489
1.58883
1.59118
1.59244
1.5902
1.58928
1.58622
1.58272
1.58526
1.58667
1.58621
1.58529
1.58321
1.5818
1.58526
1.58529
1.57993
1.57866
1.57575
1.57273
1.5756
1.57632
1.57129
1.56965
1.56639
1.5687
1.57069
1.57103
1.56814
1.56751
1.56531
1.55956
1.56056
1.56179
1.55898
1.55919
1.55713
1.54547
1.54962
1.55177
1.55086
1.55027
1.54697
1.54297
1.54558
1.54687
1.54476
1.54499
1.54242
1.53401
1.53714
1.5387
1.53089
1.52896
1.52421
1.51877
1.52275
1.52469
1.5244
1.52416
1.52129
1.51531
1.51845
1.51955
1.51269
1.51252
1.50879
1.49134
1.49859
1.50301
1.49871
1.49777
1.49383
1.49029
1.49365
1.49665
1.48466
1.48369
1.48091
1.46516
1.47084
1.4735
1.46388
1.45987
1.45301
1.45659
1.45968
1.4606
1.45475
1.4523
1.44679
1.42838
1.43599
1.43932
1.42867
1.42347
1.41431
1.40764
1.41231
1.41576
1.40298
1.40213
1.39481
1.3688
1.38302
1.38946
1.37488
1.36989
1.35963
1.34973
1.35738
1.36002
1.34699
1.33764
1.31832
1.31849
1.32717
1.33121
1.30394
1.29206
1.27033
1.28307
1.29306
1.30052
1.29601
1.28219
1.25148
1.24641
1.27855
1.29035
1.28908
1.27779
1.24357
1.26983
1.29729
1.30142
1.34112
1.33894
1.31826
1.35255
1.37013
1.37488
1.39327
1.3863
1.37009
1.38256
1.39643
1.40444
1.41335
1.40422
1.39184
1.40135
1.41178
1.42102
1.42759
1.41777
1.40871
1.41595
1.42352
1.43287
1.43742
1.42791
1.42156
1.42725
1.43258
1.44129
1.44492
1.43629
1.43196
1.4367
1.44038
1.44806
1.45113
1.4437
1.44077
1.44478
1.44729
1.45382
1.45649
1.45031
1.44832
1.45172
1.45341
1.45882
1.46121
1.45617
1.45482
1.45775
1.4589
1.46333
1.46554
1.46141
1.4605
1.46305
1.4638
1.46746
1.46955
1.46611
1.46553
1.46779
1.46826
1.47133
1.47337
1.47041
1.47005
1.47207
1.47233
1.475
1.47699
1.47433
1.47415
1.47598
1.47612
1.4785
1.4804
1.47803
1.47791
1.47959
1.47969
1.48188
1.4837
1.48149
1.48138
1.48291
1.48305
1.48512
1.48686
1.48477
1.48461
1.48601
1.48622
1.4882
1.48982
1.48784
1.48759
1.48891
1.48921
1.49109
1.49263
1.49074
1.4904
1.49165
1.49203
1.4938
1.49525
1.49345
1.49301
1.49418
1.49463
1.4963
1.49771
1.496
1.49547
1.49658
1.49714
1.49867
1.49999
1.49838
1.49778
1.49882
1.49944
1.50087
1.50214
1.50062
1.49996
1.50095
1.50161
1.50296
1.50414
1.50271
1.502
1.50292
1.50363
1.5049
1.50602
1.50466
1.50392
1.50479
1.50552
1.50671
1.50774
1.50647
1.50571
1.50652
1.50727
1.50838
1.50936
1.50817
1.5074
1.50815
1.50891
1.50995
1.51084
1.50973
1.50896
1.50966
1.51041
1.51139
1.51223
1.51121
1.51044
1.51109
1.51183
1.51275
1.51351
1.51255
1.51179
1.51239
1.51313
1.51399
1.51472
1.51382
1.51307
1.51363
1.51435
1.51516
1.51582
1.51498
1.51425
1.51476
1.51547
1.51622
1.51687
1.51607
1.51536
1.51584
1.51652
1.51724
1.51782
1.51707
1.51638
1.51681
1.51748
1.51816
1.51873
1.51802
1.51734
1.51775
1.5184
1.51905
1.51957
1.51888
1.51823
1.5186
1.51924
1.51986
1.52036
1.5197
1.51906
1.51941
1.52003
1.52063
1.52109
1.52045
1.51983
1.52016
1.52075
1.52134
1.52179
1.52117
1.52056
1.52086
1.52145
1.52201
1.52242
1.52182
1.52124
1.52152
1.52209
1.52263
1.52304
1.52245
1.52188
1.52214
1.5227
1.52323
1.52359
1.52303
1.52247
1.52271
1.52326
1.52377
1.52414
1.52358
1.52304
1.52326
1.52379
1.5243
1.52463
1.52409
1.52356
1.52377
1.52429
1.52478
1.52511
1.52458
1.52406
1.52426
1.52477
1.52525
1.52556
1.52503
1.52453
1.52471
1.52521
1.52569
1.52599
1.52547
1.52497
1.52514
1.52564
1.52611
1.52639
1.52588
1.52539
1.52555
1.52604
1.5265
1.52678
1.52628
1.52579
1.52594
1.52643
1.52688
1.52715
1.52665
1.52617
1.52631
1.52679
1.52724
1.52751
1.52701
1.52653
1.52667
1.52714
1.52759
1.52784
1.52736
1.52688
1.527
1.52748
1.52793
1.52818
1.52769
1.52722
1.52734
1.52781
1.52825
1.52849
1.52801
1.52754
1.52765
1.52812
1.52856
1.5288
1.52833
1.52786
1.52797
1.52843
1.52887
1.5291
1.52862
1.52816
1.52826
1.52873
1.52916
1.52939
1.52892
1.52846
1.52856
1.52903
1.52946
1.52968
1.5292
1.52875
1.52884
1.52931
1.52974
1.52996
1.52949
1.52903
1.52913
1.52959
1.53002
1.53023
1.52976
1.52931
1.52939
1.52986
1.53029
1.5305
1.53003
1.52958
1.52967
1.53013
1.53056
1.53076
1.5303
1.52984
1.52993
1.53039
1.53082
1.53102
1.53056
1.5301
1.53019
1.53065
1.53109
1.53128
1.53081
1.53036
1.53044
1.53091
1.53134
1.53154
1.53107
1.53061
1.5307
1.53116
1.5316
1.53179
1.53132
1.53087
1.53095
1.53141
1.53185
1.53204
1.53157
1.53112
1.5312
1.53166
1.5321
1.53229
1.53182
1.53136
1.53145
1.53191
1.53235
1.53254
1.53207
1.53162
1.53171
1.53216
1.5326
1.53279
1.53232
1.53186
1.53195
1.53241
1.53285
1.53304
1.53257
1.53212
1.53221
1.53266
1.53311
1.53329
1.53282
1.53237
1.53246
1.53291
1.53336
1.53354
1.53307
1.53263
1.53272
1.53317
1.53362
1.5338
1.53333
1.53288
1.53298
1.53342
1.53387
1.53406
1.53359
1.53315
1.53324
1.53369
1.53413
1.53432
1.53384
1.53341
1.5335
1.53394
1.53439
1.53458
1.53411
1.53368
1.53378
1.53421
1.53466
1.53484
1.53437
1.53395
1.53405
1.53448
1.53492
1.53511
1.53465
1.53422
1.53433
1.53475
1.5352
1.53538
1.53492
1.5345
1.5346
1.53502
1.53547
1.53566
1.5352
1.53478
1.53489
1.53531
1.53575
1.53594
1.53547
1.53507
1.53517
1.53558
1.53602
1.53622
1.53576
1.53536
1.53547
1.53587
1.53631
1.5365
1.53604
1.53565
1.53576
1.53616
1.53659
1.53679
1.53634
1.53595
1.53606
1.53645
1.53688
1.53707
1.53663
1.53624
1.53635
1.53674
1.53717
1.53736
1.53693
1.53655
1.53666
1.53704
1.53746
1.53765
1.53722
1.53685
1.53696
1.53733
1.53775
1.53795
1.53752
1.53716
1.53727
1.53764
1.53805
1.53824
1.53782
1.53746
1.53758
1.53794
1.53834
1.53855
1.53813
1.53778
1.5379
1.53825
1.53865
1.53885
1.53843
1.53809
1.53821
1.53855
1.53895
1.53915
1.53875
1.53841
1.53854
1.53887
1.53926
1.53946
1.53906
1.53874
1.53886
1.53919
1.53957
1.53978
1.53939
1.53907
1.5392
1.53952
1.5399
1.54011
1.53972
1.53941
1.53954
1.53985
1.54021
1.54045
1.54006
1.53976
1.53991
1.5402
1.54057
1.5408
1.54042
1.54012
1.54027
1.54056
1.54092
1.54122
1.54082
1.54054
1.54071
1.541
1.54135
1.5417
1.54131
1.54102
1.54121
1.5415
1.54185
1.54222
1.54181
1.5415
1.54172
1.54203
1.54244
1.54332
1.54269
1.54235
1.54337
1.54371
1.54434
1.54445
1.54393
1.54368
1.54534
1.54947
1.55119
1.55125
1.55519
1.559
1.55988
1.55976
1.56219
1.56437
1.56572
1.56674
1.56764
1.56845
1.56917
1.56976
1.57022
1.57057
1.57081
1.57098
1.57107
1.57111
1.57111
1.57107
1.571
1.57091
1.5708
1.57074
1.57068
1.57065
1.57057
1.57057
1.57077
1.57017
1.56936
1.56867
1.56791
1.56711
1.56629
1.56546
1.56462
1.56379
1.563
1.56227
1.56166
1.56119
1.56085
1.56058
1.56039
1.56027
1.5602
1.56015
1.56009
1.55999
1.55991
1.55994
1.56
1.56008
1.56023
1.56043
1.56069
1.561
1.56136
1.56179
1.56227
1.56282
1.56343
1.56412
1.5649
1.56577
1.56674
1.56783
1.56904
1.5704
1.5719
1.57356
1.57538
1.57737
1.57953
1.58185
1.58434
1.58698
1.58977
1.59268
1.59571
1.59884
1.60204
1.60531
1.60861
1.61195
1.61529
1.61862
1.62194
1.62523
1.62848
1.63168
1.63481
1.63788
1.64088
1.6438
1.64665
1.64942
1.65212
1.65474
1.65728
1.65975
1.66214
1.66446
1.66671
1.66888
1.67098
1.67301
1.67496
1.67685
1.67867
1.68042
1.6821
1.68372
1.68528
1.68678
1.68822
1.68961
1.69094
1.69223
1.69346
1.69464
1.69579
1.69688
1.69794
1.69896
1.69994
1.70088
1.70179
1.70267
1.70353
1.70435
1.70515
1.70591
1.70666
1.70737
1.70806
1.70872
1.70934
1.70994
1.71051
1.71106
1.71158
1.71209
1.71259
1.71311
1.71364
1.7142
1.7148
1.71545
1.7161
1.71675
1.71751
1.7175
1.7175
1.71753
1.71759
1.71769
1.7178
1.71792
1.71805
1.71818
1.71832
1.71847
1.71862
1.71878
1.71895
1.71913
1.71932
1.71952
1.71972
1.71994
1.72017
1.7204
1.72064
1.72089
1.72114
1.7214
1.72167
1.72194
1.72221
1.72249
1.72276
1.72304
1.72332
1.72359
1.72387
1.72414
1.7244
1.72467
1.72492
1.72518
1.72542
1.72566
1.72589
1.72612
1.72633
1.72654
1.72674
1.72692
1.7271
1.72727
1.72742
1.72756
1.7277
1.72782
1.72792
1.72802
1.72812
1.72821
1.72831
1.7284
1.72846
1.72856
1.72872
1.72872
1.72869
1.72878
1.72887
1.72898
1.72909
1.72922
1.72935
1.7295
1.72966
1.72982
1.72999
1.73017
1.73034
1.73051
1.73068
1.73084
1.73099
1.73113
1.73126
1.73138
1.73149
1.73159
1.73168
1.73177
1.73185
1.73193
1.73201
1.73208
1.73215
1.73222
1.73228
1.73234
1.73239
1.73243
1.73247
1.7325
1.73252
1.73252
1.73252
1.73251
1.73249
1.73246
1.73242
1.73238
1.73233
1.73228
1.73222
1.73215
1.73207
1.73199
1.73191
1.73181
1.73172
1.73162
1.73151
1.73141
1.7313
1.7312
1.7311
1.73102
1.73093
1.73087
1.7308
1.73076
1.73072
1.7307
1.73069
1.73071
1.73073
1.73079
1.73085
1.73092
1.73094
1.73089
1.73034
1.72896
1.72674
1.72435
1.72309
1.72176
1.72018
1.71806
1.71698
1.71601
1.71553
1.71497
1.71475
1.7143
1.71405
1.71366
1.71341
1.7131
1.71291
1.7127
1.71262
1.71264
1.7128
1.71305
1.71334
1.71368
1.71389
1.71403
1.71398
1.71383
1.71361
1.71332
1.713
1.71265
1.71227
1.71184
1.71142
1.71105
1.71073
1.71042
1.71014
1.7099
1.7097
1.70953
1.70939
1.70928
1.70919
1.70913
1.70915
1.70916
1.70922
1.70921
1.70929
1.7093
1.70942
1.70941
1.70956
1.70957
1.70948
1.7093
1.70923
1.70917
1.70918
1.70923
1.70931
1.70932
1.70925
1.70919
1.7092
1.70925
1.70933
1.7095
1.7099
1.70987
1.70975
1.70973
1.70994
1.70996
1.71021
1.71018
1.71046
1.71049
1.71038
1.71104
1.71081
1.71077
1.71111
1.71115
1.71155
1.71149
1.71191
1.71196
1.71186
1.71252
1.71234
1.71231
1.71268
1.71269
1.71298
1.71303
1.71328
1.71313
1.71278
1.71243
1.71329
1.71348
1.71355
1.71307
1.71298
1.71357
1.71313
1.7121
1.71134
1.71121
1.71186
1.71275
1.71217
1.71146
1.71141
1.71188
1.71178
1.7116
1.71203
1.7141
1.71174
1.71177
1.71198
1.71252
1.71304
1.71224
1.71269
1.71464
1.71792
1.71993
1.7153
1.71335
1.71393
1.71619
1.71663
1.7145
1.71476
1.71646
1.72062
1.72168
1.71717
1.71509
1.71505
1.71668
1.71834
1.71562
1.71568
1.7184
1.72349
1.72561
1.72143
1.71688
1.71789
1.72217
1.72507
1.7207
1.72243
1.7256
1.72712
1.72813
1.72734
1.72476
1.72577
1.72754
1.72863
1.72725
1.72816
1.7289
1.7289
1.72948
1.72954
1.72923
1.72988
1.72984
1.73025
1.7304
1.73059
1.73034
1.72992
1.73023
1.73057
1.73071
1.73071
1.73052
1.73066
1.73071
1.73069
1.73058
1.73044
1.73061
1.73069
1.73068
1.73067
1.73065
1.73076
1.73069
1.73071
1.73075
1.73079
1.73098
1.73087
1.73076
1.73081
1.73089
1.73102
1.73088
1.73095
1.73106
1.73119
1.7314
1.7312
1.73104
1.73113
1.73126
1.7314
1.73123
1.73133
1.73147
1.73163
1.73185
1.73162
1.73144
1.73154
1.73168
1.73183
1.73165
1.73175
1.73189
1.73207
1.73226
1.73203
1.73186
1.73195
1.73209
1.73221
1.73204
1.73212
1.73226
1.73244
1.73259
1.73237
1.7322
1.73227
1.7324
1.73251
1.73235
1.7324
1.73253
1.73271
1.7328
1.73261
1.73246
1.7325
1.73262
1.73269
1.73254
1.73257
1.73268
1.73286
1.73288
1.73273
1.7326
1.73261
1.73272
1.73275
1.73263
1.73263
1.73272
1.73289
1.73286
1.73274
1.73262
1.7326
1.73269
1.73269
1.73257
1.73253
1.73263
1.7328
1.73271
1.73261
1.73249
1.73244
1.73254
1.73251
1.73239
1.73233
1.73242
1.7326
1.73246
1.73238
1.73227
1.73219
1.73228
1.73223
1.73212
1.73204
1.73212
1.73229
1.7321
1.73206
1.73196
1.73187
1.73194
1.73186
1.73178
1.73168
1.73173
1.73188
1.73163
1.73164
1.73157
1.73145
1.73149
1.73138
1.73132
1.73118
1.73121
1.73135
1.73105
1.73108
1.73104
1.73088
1.73091
1.73076
1.73072
1.73055
1.73057
1.73072
1.73039
1.73042
1.73038
1.7302
1.73023
1.73008
1.73004
1.72986
1.7299
1.73006
1.72975
1.72976
1.72971
1.72955
1.72959
1.72947
1.72941
1.72927
1.72931
1.72946
1.72918
1.7292
1.72915
1.72903
1.72906
1.72896
1.72892
1.72881
1.72883
1.7289
1.72886
1.72921
1.72953
1.72984
1.73016
1.73048
1.7308
1.73111
1.73141
1.73169
1.73194
1.73217
1.73237
1.73254
1.73268
1.7328
1.73289
1.73295
1.73298
1.73297
1.73295
1.73289
1.7328
1.73268
1.73252
1.73234
1.73214
1.73191
1.73167
1.73141
1.73116
1.73091
1.73066
1.73043
1.73019
1.72993
1.72963
1.72925
1.72882
1.72832
1.7277
1.72687
1.72581
1.7245
1.72331
1.72235
1.72125
1.7192
1.71602
1.7127
1.71108
1.71128
1.71237
1.71243
1.71195
1.71115
1.71044
1.71046
1.70991
1.70951
1.70934
1.70926
1.7092
1.70921
1.70927
1.70934
1.70935
1.70928
1.70922
1.70923
1.70928
1.70935
1.70951
1.7099
1.70988
1.70951
1.70935
1.70929
1.70923
1.70924
1.70929
1.70936
1.70936
1.70929
1.70924
1.70925
1.7093
1.70936
1.70951
1.70985
1.71031
1.71038
1.71043
1.71114
1.71118
1.71196
1.71236
1.71232
1.71192
1.71186
1.71105
1.71092
1.71173
1.71239
1.71234
1.71203
1.71188
1.71199
1.71114
1.7115
1.71336
1.71217
1.71526
1.71706
1.71812
1.71422
1.71193
1.71226
1.71237
1.71279
1.71233
1.71149
1.71079
1.71025
1.70983
1.70951
1.70936
1.7093
1.70925
1.70926
1.7093
1.70937
1.70937
1.7093
1.70926
1.70925
1.70931
1.70938
1.70952
1.70983
1.70979
1.70965
1.70952
1.70941
1.70932
1.70926
1.70928
1.70923
1.70926
1.70927
1.70929
1.70932
1.7093
1.70933
1.70936
1.7094
1.70936
1.70935
1.70944
1.70945
1.70941
1.70944
1.70948
1.70953
1.7095
1.70957
1.70956
1.70969
1.70982
1.70996
1.70994
1.7101
1.7102
1.71066
1.71124
1.71197
1.71164
1.71132
1.71102
1.71076
1.71051
1.7103
1.71028
1.7101
1.71005
1.71
1.70995
1.7099
1.70985
1.70979
1.70972
1.70965
1.7097
1.7096
1.70979
1.70985
1.7099
1.70994
1.70997
1.70999
1.71003
1.71008
1.71012
1.7102
1.71029
1.71025
1.71016
1.71036
1.7104
1.71049
1.71073
1.71064
1.71052
1.71049
1.71063
1.71078
1.71078
1.71092
1.71101
1.71129
1.7116
1.71192
1.712
1.71242
1.71284
1.71327
1.71266
1.71424
1.71445
1.71853
1.72184
1.72137
1.7205
1.71885
1.72146
1.72248
1.72352
1.72282
1.72363
1.72421
1.72446
1.72389
1.72305
1.72337
1.72404
1.72448
1.72424
1.72399
1.72352
1.72197
1.71836
1.71708
1.71369
1.7137
1.71361
1.71328
1.71286
1.71268
1.71229
1.71215
1.71197
1.71181
1.71166
1.7115
1.71136
1.71121
1.71107
1.71107
1.71092
1.71122
1.71136
1.71151
1.71166
1.71181
1.71196
1.71213
1.7123
1.71233
1.7125
1.7127
1.71266
1.71248
1.71285
1.7129
1.71316
1.71362
1.71334
1.71315
1.71307
1.71327
1.71346
1.71358
1.71377
1.71388
1.71395
1.71381
1.7152
1.71659
1.71564
1.71462
1.71443
1.71417
1.71412
1.71397
1.71392
1.71367
1.71411
1.71423
1.7142
1.71406
1.71436
1.71442
1.71448
1.71448
1.71479
1.71515
1.71469
1.71456
1.71446
1.71445
1.71432
1.71415
1.71391
1.7144
1.71535
1.71645
1.7183
1.71963
1.72193
1.72339
1.72362
1.72368
1.72272
1.72327
1.72284
1.72024
1.72017
1.7186
1.71676
1.71643
1.71479
1.7134
1.71304
1.71607
1.7158
1.71302
1.71516
1.71822
1.72151
1.72019
1.71781
1.71749
1.71536
1.7126
1.70986
1.70951
1.71211
1.70645
1.70775
1.71036
1.71342
1.71413
1.71568
1.71119
1.70904
1.70578
1.69971
1.69795
1.68781
1.69909
1.70296
1.71141
1.71238
1.71666
1.71818
1.72061
1.72099
1.71886
1.72087
1.71758
1.71332
1.70947
1.70598
1.69945
1.69135
1.68222
1.67725
1.66348
1.66752
1.6785
1.6843
1.67587
1.67013
1.66644
1.67451
1.6715
1.6773
1.67529
1.67956
1.6796
1.67835
1.68212
1.68144
1.68411
1.68436
1.68348
1.68621
1.68515
1.6877
1.68685
1.68878
1.68886
1.6879
1.68988
1.68877
1.69078
1.68943
1.69155
1.69006
1.69201
1.69083
1.69232
1.692
1.69055
1.69234
1.69063
1.69237
1.69041
1.69222
1.69019
1.69189
1.68976
1.69151
1.68939
1.69105
1.68887
1.69058
1.6884
1.69008
1.68785
1.68955
1.68733
1.68898
1.68676
1.68838
1.68624
1.68774
1.68575
1.687
1.68542
1.68616
1.6852
1.68544
1.68792
1.6901
1.68911
1.69076
1.68984
1.69132
1.69046
1.69193
1.69105
1.69244
1.69156
1.693
1.69209
1.69344
1.69255
1.6939
1.69302
1.69421
1.69336
1.69452
1.69368
1.69464
1.69385
1.69473
1.69392
1.69463
1.69376
1.69444
1.69348
1.69385
1.69493
1.69589
1.69564
1.6963
1.69535
1.69529
1.69581
1.69617
1.69515
1.69557
1.69588
1.6951
1.69467
1.69504
1.69517
1.6939
1.69421
1.69439
1.69358
1.69292
1.69317
1.69322
1.69175
1.69197
1.69198
1.69122
1.69055
1.68933
1.68667
1.68445
1.68587
1.68403
1.68532
1.68359
1.68472
1.68309
1.68411
1.68275
1.68332
1.68221
1.68251
1.6817
1.68178
1.68393
1.68573
1.68488
1.68641
1.68567
1.68711
1.68638
1.6877
1.68696
1.68844
1.68762
1.68906
1.68831
1.68993
1.69058
1.68917
1.68913
1.6877
1.68758
1.68624
1.68602
1.68478
1.6827
1.68073
1.68196
1.68015
1.6811
1.67945
1.68014
1.67873
1.679
1.67818
1.67802
1.67855
1.67661
1.67743
1.67577
1.67638
1.67488
1.6752
1.67396
1.67382
1.67287
1.67258
1.6747
1.67622
1.676
1.67729
1.67722
1.67845
1.67832
1.67948
1.67934
1.68054
1.68041
1.67999
1.68145
1.68114
1.68237
1.68206
1.68322
1.68293
1.68408
1.68386
1.68477
1.68491
1.68593
1.68448
1.6841
1.68417
1.68327
1.68273
1.68225
1.68237
1.68139
1.68086
1.68034
1.67885
1.67826
1.67663
1.67608
1.67495
1.67305
1.67095
1.67158
1.66992
1.67011
1.66856
1.66848
1.6674
1.66695
1.66895
1.66894
1.66697
1.66508
1.66529
1.66343
1.66371
1.66192
1.66197
1.66037
1.65995
1.6587
1.65813
1.65806
1.65595
1.65596
1.65396
1.65398
1.65198
1.65189
1.65
1.64951
1.64795
1.64713
1.64964
1.64923
1.64674
1.64446
1.6442
1.64202
1.64157
1.63922
1.63886
1.63636
1.63601
1.63402
1.63322
1.63169
1.62919
1.6285
1.62611
1.62522
1.62284
1.62158
1.61887
1.61783
1.61526
1.61431
1.6118
1.6101
1.60692
1.60579
1.60276
1.60152
1.59849
1.5965
1.59275
1.59092
1.58755
1.58621
1.59046
1.58918
1.5838
1.57948
1.57744
1.57289
1.57167
1.56728
1.56157
1.55931
1.55382
1.55208
1.54724
1.54409
1.53814
1.53424
1.52711
1.5259
1.51941
1.5145
1.50511
1.5048
1.49607
1.48489
1.48094
1.46823
1.4666
1.45448
1.45281
1.43483
1.41823
1.42048
1.39944
1.3804
1.38845
1.36413
1.34474
1.32185
1.34328
1.32287
1.31714
1.31833
1.32522
1.35635
1.38449
1.40438
1.41433
1.42517
1.43159
1.4402
1.44446
1.45112
1.45404
1.45966
1.46182
1.46667
1.46827
1.47248
1.47361
1.47731
1.47809
1.4814
1.48193
1.48494
1.48529
1.48807
1.48828
1.49086
1.491
1.49342
1.49348
1.49573
1.49575
1.49786
1.49786
1.49981
1.49983
1.50167
1.50168
1.50337
1.50339
1.50499
1.50504
1.50652
1.50656
1.508
1.50802
1.50937
1.50938
1.51071
1.5107
1.51194
1.51193
1.51316
1.51312
1.51424
1.51426
1.5153
1.51538
1.51626
1.5164
1.51723
1.5174
1.51812
1.51829
1.51902
1.51918
1.51981
1.51997
1.52062
1.52077
1.52133
1.52147
1.52205
1.52218
1.52268
1.52281
1.52332
1.52343
1.52388
1.52399
1.52445
1.52455
1.52495
1.52505
1.52546
1.52554
1.52591
1.52599
1.52636
1.52644
1.52677
1.52684
1.52718
1.52725
1.52755
1.52761
1.52793
1.52799
1.52827
1.52832
1.52861
1.52866
1.52893
1.52898
1.52925
1.5293
1.52955
1.52959
1.52986
1.5299
1.53014
1.53017
1.53043
1.53047
1.5307
1.53074
1.53098
1.53102
1.53125
1.53128
1.53152
1.53156
1.53178
1.53181
1.53205
1.53209
1.53231
1.53234
1.53258
1.53261
1.53282
1.53285
1.53309
1.53312
1.53334
1.53337
1.5336
1.53364
1.53385
1.53388
1.53412
1.53415
1.53437
1.5344
1.53464
1.53467
1.53489
1.53492
1.53516
1.5352
1.53541
1.53545
1.53569
1.53573
1.53595
1.53599
1.53623
1.53627
1.53649
1.53654
1.53678
1.53682
1.53705
1.53709
1.53734
1.53738
1.53761
1.53765
1.5379
1.53794
1.53817
1.53822
1.53847
1.53851
1.53874
1.53879
1.53904
1.53909
1.53932
1.53937
1.53962
1.53967
1.5399
1.53996
1.54021
1.54026
1.5405
1.54056
1.54082
1.54088
1.54112
1.54119
1.54146
1.54153
1.54178
1.54187
1.54219
1.54231
1.5427
1.54279
1.54343
1.54345
1.54435
1.54529
1.54951
1.54853
1.55091
1.54674
1.54708
1.54897
1.54575
1.54609
1.54755
1.5451
1.54553
1.5471
1.54458
1.54502
1.54631
1.54425
1.54475
1.54626
1.54388
1.54437
1.54563
1.54359
1.54412
1.54559
1.54327
1.54377
1.54501
1.543
1.54353
1.545
1.54269
1.54319
1.54445
1.54243
1.54296
1.54444
1.54213
1.54263
1.5439
1.54187
1.54241
1.5439
1.54157
1.54208
1.54337
1.54132
1.54186
1.54337
1.54102
1.54154
1.54284
1.54077
1.54132
1.54284
1.54048
1.54099
1.54232
1.54023
1.54078
1.54232
1.53994
1.54046
1.54181
1.53969
1.54024
1.5418
1.5394
1.53993
1.5413
1.53916
1.53972
1.54129
1.53888
1.53941
1.5408
1.53864
1.5392
1.5408
1.53836
1.5389
1.54031
1.53813
1.5387
1.54032
1.53786
1.53841
1.53984
1.53763
1.53822
1.53985
1.53737
1.53793
1.53939
1.53714
1.53774
1.5394
1.53689
1.53745
1.53894
1.53667
1.53727
1.53896
1.53641
1.53699
1.53851
1.5362
1.53681
1.53854
1.53594
1.53653
1.53808
1.53573
1.53636
1.53812
1.53548
1.53608
1.53766
1.53527
1.53591
1.53771
1.53502
1.53564
1.53726
1.53481
1.53547
1.53731
1.53457
1.53521
1.53686
1.53437
1.53504
1.53692
1.53412
1.53478
1.53647
1.53393
1.53463
1.53654
1.53369
1.53437
1.5361
1.53349
1.53421
1.53616
1.53325
1.53395
1.53572
1.53305
1.5338
1.53579
1.53281
1.53353
1.53533
1.53261
1.53337
1.53539
1.53236
1.5331
1.53493
1.53215
1.53293
1.53498
1.53189
1.53264
1.53449
1.53166
1.53246
1.53453
1.53138
1.53216
1.53402
1.53114
1.53196
1.53404
1.53084
1.53163
1.53348
1.53056
1.5314
1.53347
1.53023
1.53103
1.53287
1.52992
1.53077
1.53282
1.52955
1.53036
1.53216
1.5292
1.53005
1.53207
1.52878
1.52959
1.53135
1.52838
1.52924
1.5312
1.5279
1.52872
1.53041
1.52745
1.52832
1.53019
1.52689
1.5277
1.52931
1.52638
1.52724
1.52902
1.52574
1.52655
1.52803
1.52514
1.526
1.52766
1.52442
1.52521
1.52657
1.52371
1.52455
1.5261
1.52287
1.52364
1.52487
1.52204
1.52286
1.52429
1.52107