/*--------------------------------*- C++ -*----------------------------------*\
| =========                 |                                                 |
| \\      /  F ield         | OpenFOAM: The Open Source CFD Toolbox           |
|  \\    /   O peration     | Version:  v2006                                 |
|   \\  /    A nd           | Website:  www.openfoam.com                      |
|    \\/     M anipulation  |                                                 |
\*---------------------------------------------------------------------------*/
FoamFile
{
    version     2.0;
    format      ascii;
    class       volScalarField;
    location    "0.078";
    object      yPlus;
}
// * * * * * * * * * * * * * * * * * * * * * * * * * * * * * * * * * * * * * //

dimensions      [0 0 0 0 0 0 0];


internalField   uniform 0;

boundaryField
{
    bottomEmptyFaces
    {
        type            empty;
    }
    topEmptyFaces
    {
        type            empty;
    }
    inlet
    {
        type            calculated;
        value           uniform 0;
    }
    outlet
    {
        type            calculated;
        value           uniform 0;
    }
    walls
    {
        type            calculated;
        value           nonuniform List<scalar> 
988
(
13.3689
13.3777
13.3856
13.3942
13.402
13.4104
13.418
13.4262
13.4336
13.4416
13.4487
13.4565
13.4635
13.471
13.4777
13.485
13.4916
13.4987
13.5051
13.512
13.5182
13.5249
13.5309
13.5374
13.5433
13.5496
13.5553
13.5615
13.567
13.573
13.5784
13.5841
13.5894
13.5951
13.6002
13.6056
13.6106
13.6159
13.6207
13.6259
13.6306
13.6356
13.6401
13.6449
13.6494
13.654
13.6584
13.6629
13.667
13.6714
13.6754
13.6796
13.6835
13.6876
13.6914
13.6953
13.699
13.7028
13.7064
13.71
13.7135
13.7171
13.7203
13.7239
13.727
13.7304
13.7335
13.7368
13.7398
13.7429
13.7459
13.7489
13.7517
13.7547
13.7573
13.7602
13.7628
13.7656
13.7681
13.7708
13.7732
13.7758
13.7781
13.7806
13.7829
13.7853
13.7875
13.7898
13.7919
13.7942
13.7962
13.7984
13.8004
13.8025
13.8044
13.8064
13.8083
13.8102
13.812
13.8139
13.8156
13.8175
13.8191
13.8209
13.8225
13.8242
13.8257
13.8275
13.829
13.8306
13.832
13.8336
13.835
13.8366
13.8379
13.8394
13.8407
13.8422
13.8434
13.8449
13.8461
13.8475
13.8486
13.85
13.8512
13.8525
13.8536
13.8549
13.8559
13.8572
13.8582
13.8595
13.8605
13.8617
13.8627
13.8638
13.8648
13.8659
13.8669
13.8679
13.8688
13.8699
13.8708
13.8718
13.8727
13.8737
13.8745
13.8755
13.8763
13.8772
13.8781
13.879
13.8798
13.8807
13.8814
13.8823
13.8831
13.8839
13.8847
13.8855
13.8863
13.8871
13.8878
13.8886
13.8893
13.8902
13.8908
13.8916
13.8923
13.8931
13.8937
13.8946
13.8952
13.896
13.8966
13.8974
13.898
13.8988
13.8994
13.9002
13.9008
13.9016
13.9023
13.903
13.9037
13.9045
13.9052
13.906
13.9068
13.9075
13.9085
13.9093
13.91
13.911
13.9116
13.9127
13.9134
13.9145
13.9153
13.9164
13.9172
13.9183
13.9191
13.9203
13.9211
13.9223
13.923
13.9242
13.9249
13.926
13.9267
13.9277
13.9284
13.9294
13.93
13.931
13.9318
13.9327
13.9342
13.9252
13.9472
13.9185
13.9328
13.9131
14.2124
14.6754
11.0219
7.66261
8.21344
9.75566
8.53318
8.69194
7.05541
7.3103
8.5773
9.22667
8.28193
9.02927
8.31909
9.0342
8.89185
9.55856
9.61788
9.91686
8.51509
9.25746
10.6464
9.29244
9.5833
7.76454
8.04771
10.248
8.12182
8.71262
8.95133
9.11917
8.09207
8.59041
7.4107
7.77514
7.79698
8.49587
59.8709
38.7483
47.9202
9.77008
7.31288
6.07321
30.7514
9.39364
16.7627
422.403
188.87
125.659
156.789
356.198
238.178
278.423
478.755
513.993
509.263
420.38
475.266
107.475
72.3875
84.3526
376.592
281.642
315.728
240.134
202.747
147.732
164.736
124.86
105.135
84.2504
69.5607
55.5779
43.5958
45.8623
20.2397
19.0185
18.7121
18.4659
6.47117
6.62858
18.5963
17.4119
22.7417
17.0521
15.0304
7.75211
7.75005
23.4272
23.5132
8.42575
6.32152
6.38315
6.81155
7.12004
23.5629
23.2848
8.4362
7.31928
7.2323
6.38981
6.40322
7.38275
7.30298
22.7302
22.1314
21.4355
20.7158
19.9999
19.3092
18.6542
18.0408
7.63935
7.41599
6.29351
5.78079
7.29322
6.81414
6.45619
5.76427
5.56882
6.25177
5.73998
17.469
16.9386
16.4478
15.9943
7.37823
6.22633
5.22005
15.5784
15.1973
6.76676
5.39525
5.00768
7.107
5.84755
5.20991
7.98734
6.52238
5.37234
6.62922
6.04554
14.8512
14.5369
8.25108
7.82924
5.94068
5.86073
7.13393
6.76615
7.69454
6.54615
6.28609
5.82205
5.81651
8.14927
8.23789
8.01368
8.05208
7.14038
7.51748
9.11126
6.67494
6.84618
7.22844
7.6056
7.69635
8.31603
7.37517
7.80392
9.34313
6.85009
7.05317
8.92762
6.47659
6.67384
42.1273
34.8022
28.1049
14.2541
16.3593
13.9995
8.47504
7.10353
13.7724
6.16686
13.5699
5.58983
13.3915
13.2342
13.0973
12.978
7.43122
4.16087
8.74062
7.74566
7.39488
12.8754
7.13326
7.04605
12.7869
12.7115
6.89646
12.6475
6.86424
6.74052
6.71719
12.5931
6.59444
6.57508
12.5472
12.5088
12.4766
6.46371
6.4376
6.34588
6.35059
6.27607
6.26141
6.18299
6.20008
6.13033
6.1182
12.4495
6.04801
6.06569
12.4268
12.4072
12.3907
12.376
12.3633
12.3512
12.3407
12.3301
12.3205
6.0023
12.3103
5.99176
12.301
5.92815
5.94609
5.88793
5.87849
12.2906
12.2813
5.82007
12.27
5.83807
12.2614
5.78416
5.77562
5.72157
5.73969
5.68963
5.68215
5.63239
5.65095
5.6048
5.59852
5.55788
5.56941
5.532
5.52769
5.49255
5.50602
5.48347
5.48423
5.49567
5.56397
5.6889
5.94427
6.45036
7.0485
12.2495
12.2411
12.2295
12.2213
12.2099
12.2021
12.1907
12.1835
12.1727
12.1664
12.1561
12.1508
12.1416
12.1375
12.1294
12.1265
12.1199
12.1187
12.1134
12.1137
12.1104
12.1117
12.1101
12.1125
12.1131
12.1164
12.119
12.1232
12.1272
12.1322
12.1367
12.1429
12.1482
12.1555
12.1612
12.1694
12.1757
12.185
12.1918
12.2019
12.2093
12.2205
12.2285
12.2403
12.2493
12.2619
12.2718
12.2849
12.2958
12.3096
12.3213
12.3355
12.3481
12.3629
12.3761
12.3912
12.4052
12.4208
12.4351
12.4511
12.4658
12.4822
12.4971
12.5137
12.5288
12.5457
12.5609
12.5778
12.5932
12.6102
12.6256
12.6426
12.658
12.6749
12.6903
12.7071
12.7224
12.7391
12.7542
12.7707
12.7857
12.802
12.8167
12.8328
12.8473
12.8632
12.8775
12.8929
12.907
12.9223
12.936
12.9509
12.9644
12.979
12.9922
13.0065
13.0194
13.0333
13.0458
13.0594
13.0717
13.085
13.0969
13.1098
13.1215
13.1341
13.1453
13.1576
13.1686
13.1805
13.1913
13.2028
13.2133
13.2246
13.2347
13.2456
13.2556
13.2662
13.2758
13.2861
13.2955
13.3055
13.3146
13.3243
13.3332
13.3425
13.3513
13.3604
13.285
10.2364
10.9648
11.4311
11.6517
9.59014
10.2263
10.8446
11.192
12.4765
9.19675
9.6322
9.8555
10.7542
13.0329
11.3025
11.5858
10.2642
11.1653
10.0181
10.6189
9.46562
9.86437
14.0836
14.5465
12.6001
12.6245
10.6408
11.103
14.0536
10.4845
10.7811
12.0594
12.222
10.4193
10.8322
12.3372
12.3895
15.6904
15.5757
15.4398
12.8056
12.6243
12.6651
12.3877
16.0911
17.1409
16.0896
13.3699
13.1276
14.0406
13.4097
15.6764
13.0451
12.6716
13.0784
12.6189
14.8858
11.0121
11.3751
13.0397
13.0654
13.5183
11.6675
11.996
10.699
11.4375
11.974
12.2346
9.95128
10.3172
10.4903
11.1583
9.69235
10.1058
9.73323
10.6283
9.51986
10.3178
11.762
9.39118
10.1715
10.2336
10.6054
9.16656
9.88612
8.50917
8.95253
8.83477
9.48095
11.3462
9.92555
10.2792
8.2678
8.5451
9.20546
9.91016
8.9349
9.70796
8.71375
9.35293
8.01443
8.44586
9.1274
10.0104
12.1693
10.6028
10.9818
8.86352
9.24524
19.2478
14.8563
14.1288
16.9239
15.1697
14.1275
7.64906
15.2767
32.9589
30.6934
29.1234
28.0189
27.1919
26.5197
25.9007
25.191
24.6177
24.1792
23.8569
23.5235
23.2839
23.0211
22.8351
22.6216
22.4706
22.2922
22.1648
22.0114
21.9008
21.7654
21.6671
21.5453
21.4563
21.3448
21.263
21.1597
21.0838
20.9872
20.9158
20.8246
20.757
20.6703
20.606
20.5233
20.4618
20.3824
20.3234
20.2471
20.1901
20.1165
20.0613
19.9901
19.9366
19.8676
19.8156
19.7485
19.6978
19.6324
19.5829
19.5192
19.4708
19.4086
19.3612
19.3003
19.2537
19.194
19.1483
19.0897
19.0446
18.9869
18.9424
18.8855
18.8416
18.7854
18.7419
18.6863
18.6431
18.5881
18.5452
18.4905
18.4479
18.3935
18.351
18.2969
18.2544
18.2004
18.158
18.104
18.0615
18.0075
17.9649
17.9107
17.8679
17.8135
17.7705
17.7157
17.6723
17.6172
17.5734
17.5177
17.4735
17.4173
17.3725
17.3157
17.2703
17.2128
17.1668
17.1085
17.0618
17.0026
16.9552
16.8951
16.8469
16.7858
16.7367
16.6746
16.6246
16.5612
16.5102
16.4457
16.3936
16.3276
16.2744
16.207
16.1526
16.0837
16.028
15.9574
15.9004
15.8281
15.7697
15.6956
15.6356
15.5596
15.4981
15.4201
15.3569
15.2768
15.2119
15.1297
15.063
14.9785
14.91
14.8232
14.7527
14.6634
14.5909
14.4991
14.4245
14.33
14.2533
14.156
14.0771
13.9769
13.8957
13.7926
13.709
13.6028
13.5168
13.4074
13.319
13.2065
13.1156
12.9999
12.9066
12.7877
12.692
12.5699
12.4717
12.3465
12.2458
12.1179
12.014
11.8844
11.7758
11.6476
11.5293
11.4115
11.3245
11.2207
11.1391
11.0365
10.9541
10.8499
10.7656
10.6594
10.5732
10.4653
10.3776
10.2683
10.1797
10.0695
9.98044
9.86992
9.78114
9.67098
9.58312
9.47405
9.38785
9.28061
9.19682
9.09217
9.01152
8.91021
8.8334
8.73618
8.66391
8.57132
8.5041
8.41675
8.35496
8.27322
8.21705
8.14106
8.09061
8.02047
7.97571
7.91137
7.87208
7.81322
7.77897
7.72529
7.69565
7.64682
7.62131
7.57687
7.55497
7.51452
7.49569
7.45866
7.44196
7.40789
7.39271
7.36123
7.34715
7.31751
7.30396
7.27519
7.26149
7.23136
7.21873
7.18302
7.17092
7.14122
7.1171
7.10175
7.04195
7.05971
7.19928
35.7701
7.40917
)
;
    }
    rightWall
    {
        type            calculated;
        value           uniform 0;
    }
    symmetryLine
    {
        type            symmetryPlane;
    }
}


// ************************************************************************* //
