/*--------------------------------*- C++ -*----------------------------------*\
| =========                 |                                                 |
| \\      /  F ield         | OpenFOAM: The Open Source CFD Toolbox           |
|  \\    /   O peration     | Version:  v2006                                 |
|   \\  /    A nd           | Website:  www.openfoam.com                      |
|    \\/     M anipulation  |                                                 |
\*---------------------------------------------------------------------------*/
FoamFile
{
    version     2.0;
    format      ascii;
    class       volScalarField;
    location    "0.137";
    object      yPlus;
}
// * * * * * * * * * * * * * * * * * * * * * * * * * * * * * * * * * * * * * //

dimensions      [0 0 0 0 0 0 0];


internalField   uniform 0;

boundaryField
{
    bottomEmptyFaces
    {
        type            empty;
    }
    topEmptyFaces
    {
        type            empty;
    }
    inlet
    {
        type            calculated;
        value           uniform 0;
    }
    outlet
    {
        type            calculated;
        value           uniform 0;
    }
    walls
    {
        type            calculated;
        value           nonuniform List<scalar> 
1055
(
30.3902
29.6408
28.957
28.3368
27.7788
27.2704
26.8127
26.4018
26.0397
25.7192
25.4366
25.186
24.965
24.7669
24.5982
24.4542
24.3353
24.2347
24.1521
24.0821
24.025
23.9766
23.9391
23.9084
23.8861
23.8681
23.8558
23.846
23.8395
23.8345
23.8337
23.8327
23.8343
23.837
23.8404
23.8447
23.8484
23.8527
23.8555
23.859
23.8606
23.863
23.8627
23.8636
23.8612
23.8607
23.8564
23.8546
23.8491
23.8463
23.84
23.8361
23.8293
23.8245
23.8171
23.8115
23.8038
23.7979
23.7899
23.7835
23.7755
23.7692
23.7609
23.7543
23.746
23.7395
23.731
23.7244
23.7159
23.7094
23.701
23.6946
23.6864
23.6802
23.6724
23.6667
23.6592
23.654
23.6471
23.6425
23.6361
23.6323
23.6265
23.6234
23.6182
23.6161
23.6116
23.6102
23.6065
23.6058
23.6031
23.603
23.6014
23.6017
23.6012
23.602
23.6024
23.6038
23.6053
23.607
23.6093
23.6117
23.6144
23.6176
23.6208
23.6249
23.6286
23.6333
23.6375
23.6429
23.6476
23.6534
23.6585
23.6648
23.6703
23.677
23.6828
23.6898
23.696
23.7033
23.7097
23.7174
23.724
23.7319
23.7388
23.7469
23.754
23.7623
23.7697
23.7782
23.7857
23.7944
23.8021
23.8109
23.8187
23.8276
23.8355
23.8445
23.8526
23.8615
23.8697
23.8787
23.8868
23.8959
23.904
23.9131
23.9213
23.9303
23.9385
23.9474
23.9556
23.9646
23.9728
23.9817
23.9898
23.9987
24.0069
24.0158
24.0238
24.0327
24.0408
24.0497
24.0577
24.0667
24.0747
24.0837
24.0917
24.1007
24.1087
24.1177
24.1257
24.1347
24.1427
24.1517
24.1595
24.1685
24.1762
24.1851
24.1925
24.2013
24.2084
24.2253
24.2242
24.2248
24.2393
24.2485
24.254
24.2801
24.2891
24.3167
24.2762
24.2161
23.9995
24.1584
24.5679
8.43744
7.2591
6.57129
11.4041
10.5886
9.67177
7.98514
18.2618
13.3596
11.5844
11.4902
12.7367
9.36527
7.9926
12.4895
11.3846
13.6568
13.6328
10.7275
9.20577
9.78183
9.66863
8.5463
7.38891
10.121
9.922
8.83714
7.47428
9.14019
7.62831
8.61749
7.39479
9.59807
10.0971
8.55221
7.40891
8.38408
7.31669
8.34669
7.18275
6.48002
10.4448
10.9348
9.7323
10.6112
9.48682
10.4148
9.23076
9.96906
9.25071
10.1328
10.1263
10.5457
9.32435
10.2158
11.5509
8.37771
8.85756
9.01449
9.75402
10.3246
10.7718
11.8732
8.58388
9.08273
9.58482
10.3812
8.36926
9.0307
10.0087
7.29988
7.64045
8.79997
9.06732
10.1663
7.3948
7.78169
8.02755
8.50782
9.16588
9.53573
8.14481
8.69832
8.42292
9.13381
8.66725
9.39916
8.35132
8.92632
10.7553
9.3954
9.7722
7.73726
8.19539
10.55
7.64537
8.08956
10.4396
9.10227
9.40424
8.29135
9.01466
7.97736
8.56195
7.56997
7.88456
9.88207
10.289
11.3893
8.26491
8.74004
8.85055
9.7416
11.0256
7.92705
8.40464
8.69393
9.31206
9.12894
9.94478
9.64519
10.1028
8.97591
9.74386
8.65374
9.53218
8.51069
9.18507
9.45995
9.82959
10.8789
8.02651
8.2741
8.66094
9.40635
9.13414
9.98801
8.83293
9.59678
8.68609
9.10822
7.87242
7.6889
7.3222
7.0405
9.57151
7.43314
7.85398
8.34794
8.52853
9.45003
7.01875
7.18906
8.38907
8.59542
9.7256
7.09505
7.42731
7.60249
8.0352
8.15141
8.25765
7.02947
7.25309
7.97771
7.98566
7.82707
7.80361
9.1701
6.86716
7.01153
9.2095
7.87372
7.93356
6.819
7.01463
9.06963
7.33824
7.03339
8.98585
7.7821
7.74934
8.67141
6.70392
6.71144
7.82529
7.74029
6.66819
6.73412
6.66956
6.81198
9.23879
7.97318
8.05204
9.29908
6.91282
7.11992
6.8739
7.06493
9.00262
8.77993
7.39202
6.96761
8.3301
6.95073
6.52787
8.31583
7.17721
6.54977
8.48227
7.07358
6.55634
8.39391
7.03017
6.47616
8.05397
6.3845
6.2651
8.25339
6.79889
6.45346
7.7848
7.38157
8.397
7.72546
7.50271
6.48222
6.4936
8.74601
8.63702
7.26276
6.87723
7.38288
6.92711
7.08892
6.78747
8.96117
7.20464
6.92202
8.56691
6.62504
6.69806
8.7308
8.95214
10.0695
7.38355
7.69655
9.90669
7.21219
7.50274
8.58724
8.83174
7.78143
8.2898
7.86108
8.33591
8.71758
9.04006
8.05306
8.58134
13.2267
11.3566
8.65282
11.2563
8.33589
11.6914
9.73322
7.02152
10.6666
10.3573
7.15628
12.2586
10.0004
26.1744
24.6655
8.23791
8.78112
6.10935
25.2829
21.2204
21.2295
20.3864
10.3676
20.1394
8.86458
25.4198
7.73032
20.6629
8.91857
6.10351
20.0842
21.4447
20.909
10.6921
9.5739
8.43606
7.42433
8.27002
5.94872
28.07
26.5024
21.8389
21.3836
22.1118
21.5557
25.0685
22.0295
20.9518
27.1663
23.301
22.3591
9.98923
8.99911
8.46348
7.97723
7.32678
8.52823
6.07413
10.4997
9.68064
9.11385
8.61004
8.22336
7.67549
6.95325
7.82133
5.71589
9.68814
8.93175
8.48787
8.12156
7.82087
7.52436
7.27187
7.04607
6.92547
6.78109
6.40996
7.7723
5.36729
9.81803
9.27614
8.96648
8.79787
8.60048
13.967
8.37721
8.20139
8.06246
7.9118
7.81784
10.9698
12.0123
7.67555
12.0604
12.5061
10.3979
11.2249
13.4645
11.6654
12.1885
9.69492
10.2881
10.6815
11.7213
7.58465
7.54528
7.42696
7.30383
7.21078
7.12768
7.05551
6.99806
14.7055
10.5006
11.2114
12.6179
13.1767
11.5869
12.6928
6.9507
6.91259
6.87977
6.8583
6.83616
6.81785
6.80653
6.7958
13.5656
14.1756
12.3975
13.4835
6.78952
6.77961
6.77686
6.77603
6.77041
6.76415
6.76193
6.75942
13.8247
14.272
13.2516
14.376
12.5624
13.5428
16.0958
11.6236
12.3722
6.75287
15.7954
6.74625
6.7443
11.3561
12.0428
6.73949
6.73693
12.2928
13.1763
6.72736
6.72383
6.71809
15.2105
11.8462
12.9467
13.0684
13.5958
11.8187
12.7751
10.9681
11.6211
11.4083
12.279
11.3101
12.341
12.1872
12.6649
11.082
12.201
14.1068
10.1505
10.7814
10.9115
11.7581
14.4481
11.1431
12.0694
10.4544
10.9809
12.3926
12.9301
10.7986
11.6686
10.1575
10.7024
19.2175
14.37
14.9393
6.71368
6.70356
6.69866
6.69446
20.7141
6.68447
6.6754
6.669
20.0017
6.66356
14.5055
15.4561
17.3371
17.4066
19.8317
16.862
17.2434
14.601
15.3571
16.7189
16.9907
6.65292
6.6435
6.63717
6.63202
6.62139
6.61165
6.60518
6.59969
6.58872
6.57871
6.57239
6.5671
6.55673
6.54712
6.54091
15.433
6.53592
15.7242
16.2555
16.7837
14.4234
15.4052
18.2113
13.1212
13.9301
6.52571
6.51586
6.50993
6.50416
6.49405
6.48436
6.47922
6.47176
17.4681
13.9953
14.9633
12.9074
13.6449
13.3494
14.2809
17.1169
14.6431
15.2088
12.2643
13.0349
14.8118
15.4424
18.3953
15.7144
16.2065
13.3014
14.0628
19.243
19.0423
13.9597
14.6316
16.2845
16.4952
16.1425
16.6161
6.46685
14.1286
6.4556
14.8943
6.45049
6.44303
6.43822
6.42698
6.42237
6.41532
21.3925
6.41082
6.39974
15.8801
16.6135
6.39519
6.38848
6.38371
6.37335
6.36884
22.1953
6.36515
21.9245
18.1181
17.8929
18.7125
18.9006
19.8519
19.9499
23.5446
6.35639
18.8398
6.35072
18.684
6.34239
6.34083
6.3328
22.7675
6.32725
6.32212
18.7589
18.396
6.31499
23.0013
17.8991
18.4089
16.8463
17.3736
18.0952
18.3635
15.5361
16.1502
6.31341
6.30784
6.31121
6.37412
6.41711
6.5176
6.77943
7.12737
29.3255
26.0079
30.2362
23.7613
22.1271
29.9235
27.1199
26.8421
23.3171
22.372
9.91918
10.7651
33.2973
32.198
31.017
32.8831
25.5116
23.4602
30.9327
26.9145
25.3901
22.722
12.5424
30.542
9.97548
10.9116
10.8478
11.265
29.1242
35.5764
27.4499
25.2797
10.2509
11.2121
10.038
11.0008
35.8563
12.8013
11.1231
11.5912
9.26586
9.78658
36.407
9.78418
10.5693
9.13936
9.57374
36.8218
36.7593
36.8576
36.5373
35.7768
13.165
34.8441
10.757
11.7133
10.4436
11.4845
10.2394
11.0585
9.53482
10.0167
10.4145
11.3885
11.3341
11.7778
10.22
11.1469
33.8963
32.9586
32.0541
31.197
9.59957
10.5591
11.9807
8.65152
9.17117
9.35602
10.1037
9.78018
10.7224
25.0505
7.57422
36.471
33.1928
31.0012
29.531
28.4213
27.3887
26.6569
25.9466
25.5499
25.0744
24.7909
24.4221
24.2085
23.9079
23.7399
23.4854
23.3472
23.1238
23.0058
22.8044
22.7008
22.5154
22.4219
22.2482
22.162
21.9971
21.9162
21.7582
21.6813
21.5286
21.4547
21.3063
21.2346
21.0897
21.0196
20.8774
20.8086
20.6687
20.6008
20.4626
20.3953
20.2585
20.1915
20.0555
19.9886
19.8529
19.7858
19.6502
19.5826
19.4465
19.3782
19.2413
19.172
19.0339
18.9634
18.8238
18.7519
18.6105
18.5369
18.3935
18.3181
18.1723
18.0951
17.9467
17.8676
17.7165
17.6355
17.4817
17.399
17.2424
17.1581
16.9989
16.9133
16.7517
16.6652
16.5017
16.415
16.2502
16.164
15.9988
15.9142
15.7498
15.6682
15.5061
15.4292
15.2713
15.2012
15.0498
14.9892
14.8466
14.799
14.669
14.636
14.5254
14.507
14.419
14.4166
14.3587
14.3689
14.3441
14.3669
14.3595
14.4113
14.4187
14.4969
14.5213
14.6237
14.6592
14.7763
14.8205
14.9482
14.9986
15.1338
15.1882
15.3277
15.3836
15.5232
15.5787
15.7154
15.7689
15.8999
15.9498
16.0727
16.1181
16.2309
16.2711
16.3724
16.4066
16.4951
16.5229
16.5983
16.6197
16.6825
16.6978
16.7487
16.7581
16.7983
16.8029
16.8345
16.8353
16.8572
16.8547
16.8698
16.8655
16.8749
16.8693
16.8756
16.8664
16.8717
16.8583
16.8621
16.8474
16.8473
16.8297
16.832
16.8124
16.8146
16.7963
16.7955
16.7735
16.7742
16.7503
16.752
16.7293
16.7279
16.7034
16.7072
16.6735
16.6837
16.6381
16.7133
16.7419
16.9447
17.227
18.2715
20.9097
18.9388
39.9396
)
;
    }
    rightWall
    {
        type            calculated;
        value           uniform 0;
    }
    symmetryLine
    {
        type            symmetryPlane;
    }
}


// ************************************************************************* //
