/*--------------------------------*- C++ -*----------------------------------*\
| =========                 |                                                 |
| \\      /  F ield         | OpenFOAM: The Open Source CFD Toolbox           |
|  \\    /   O peration     | Version:  v2006                                 |
|   \\  /    A nd           | Website:  www.openfoam.com                      |
|    \\/     M anipulation  |                                                 |
\*---------------------------------------------------------------------------*/
FoamFile
{
    version     2.0;
    format      ascii;
    class       surfaceScalarField;
    location    "0.118";
    object      phi;
}
// * * * * * * * * * * * * * * * * * * * * * * * * * * * * * * * * * * * * * //

dimensions      [1 0 -1 0 0 0 0];
oriented        oriented;


internalField   nonuniform List<scalar> 
32242
(
-2.61583e-05
-0.0013544
0.00133512
4.55308e-05
-0.00127013
0.00124391
8.34946e-06
7.76985e-05
-3.49486e-06
0.00146285
3.80288e-05
0.00159994
-3.29062e-05
0.00165139
-3.66772e-06
0.00169139
-1.63741e-05
0.00168406
-2.32976e-06
0.00168002
-2.43074e-06
0.00166947
-4.47775e-07
0.00166257
-1.01571e-06
0.00165676
-1.15332e-06
0.00165309
-1.2792e-06
0.00164974
-1.47962e-06
0.00164692
-1.51016e-06
0.00164385
-1.61867e-06
0.00164092
-1.72318e-06
0.00163777
-1.82368e-06
0.0016345
-1.92019e-06
0.00163109
-2.01293e-06
0.00162755
-2.10221e-06
0.00162388
-2.18843e-06
0.00162008
-2.27195e-06
0.00161616
-2.35307e-06
0.00161211
-2.43197e-06
0.00160794
-2.50878e-06
0.00160365
-2.58353e-06
0.00159924
-2.65619e-06
0.00159472
-2.72671e-06
0.00159008
-2.79499e-06
0.00158533
-2.86093e-06
0.00158047
-2.92441e-06
0.00157551
-2.98528e-06
0.00157045
-3.04342e-06
0.0015653
-3.09869e-06
0.00156006
-3.15094e-06
0.00155473
-3.20003e-06
0.00154932
-3.24584e-06
0.00154383
-3.28825e-06
0.00153828
-3.32713e-06
0.00153265
-3.36237e-06
0.00152698
-3.39386e-06
0.00152124
-3.42149e-06
0.00151546
-3.44516e-06
0.00150964
-3.46479e-06
0.00150378
-3.48027e-06
0.0014979
-3.49153e-06
0.00149199
-3.49847e-06
0.00148606
-3.50104e-06
0.00148013
-3.49918e-06
0.00147419
-3.49284e-06
0.00146826
-3.48207e-06
0.00146234
-3.4667e-06
0.00145643
-3.44519e-06
0.00145055
-3.41998e-06
0.00144471
-3.39045e-06
0.0014389
-3.3561e-06
0.00143314
-3.317e-06
0.00142744
-3.27314e-06
0.0014218
-3.22455e-06
0.00141622
-3.17124e-06
0.00141073
-3.11323e-06
0.00140531
-3.05056e-06
0.00139999
-2.98323e-06
0.00139476
-2.91125e-06
0.00138964
-2.83456e-06
0.00138462
-2.75303e-06
0.00137973
-2.66645e-06
0.00137496
-2.57453e-06
0.00137031
-2.4769e-06
0.0013658
-2.37324e-06
0.00136144
-2.26332e-06
0.00135722
-2.14705e-06
0.00135316
-2.02415e-06
0.00134926
-1.89339e-06
0.00134552
-1.75131e-06
0.00134191
-9.22015e-07
0.00133772
-1.39995e-06
0.00133426
-1.1698e-06
0.00132816
-2.8954e-06
0.00131955
-4.61649e-06
0.00130742
-1.96294e-05
0.00128696
-3.00953e-05
0.00126105
-8.36234e-05
0.00122473
-0.000143177
0.00120262
-0.000328502
0.00121428
-0.000736196
0.00140183
-0.000202563
0.000361196
2.04325e-05
0.000599541
4.44663e-06
0.000786406
-3.85985e-05
0.000696037
-1.24937e-05
0.000609994
-7.50924e-06
0.000220539
-4.58123e-06
0.000183625
0.000148435
8.52639e-06
0.000139909
1.73474e-05
0.000174804
0.000210943
2.69429e-05
-1.36292e-05
0.000203716
2.08567e-05
-6.80518e-06
0.00016798
0.000133103
2.50445e-06
0.000130599
4.12783e-06
0.000166356
0.00020248
5.36316e-06
-4.65159e-06
0.000200395
6.73666e-06
-2.87151e-06
0.000164576
0.000127728
1.54677e-06
0.000126181
2.0287e-06
0.000164094
0.00020028
2.14367e-06
-4.459e-06
0.000198717
6.02268e-06
-2.60027e-06
0.000162236
0.00012358
1.26911e-06
0.000122311
1.14655e-06
0.000162358
0.000198482
1.3816e-06
-3.62737e-06
0.000197498
4.61064e-06
-1.7761e-06
0.000160507
0.000120535
4.71948e-07
0.000120063
3.54608e-07
0.000160624
0.000197859
-6.22631e-09
-2.83715e-06
0.00019616
4.53635e-06
-1.60637e-06
0.000159394
0.000118457
3.42448e-07
0.000118115
2.39686e-07
0.000159496
0.000196461
-6.07088e-08
-2.71692e-06
0.000195374
3.80384e-06
-1.48144e-06
0.000158261
0.000116633
2.5116e-07
0.000116382
1.47975e-07
0.000158364
0.00019564
-1.18489e-07
-2.62297e-06
0.000194523
3.74036e-06
-1.38807e-06
0.000157129
0.000114994
1.83382e-07
0.000114811
8.27002e-08
0.00015723
0.000194759
-1.53475e-07
-2.54962e-06
0.000193618
3.6907e-06
-1.31737e-06
0.000155998
0.000113493
1.32276e-07
0.000113361
2.73579e-08
0.000156103
0.000193833
-1.87645e-07
-2.48675e-06
0.000192676
3.64344e-06
-1.26183e-06
0.000154878
0.000112099
9.26044e-08
0.000112007
-1.27147e-08
0.000154983
0.000192873
-2.09153e-07
-2.43707e-06
0.000191704
3.60576e-06
-1.22106e-06
0.000153767
0.000110785
6.11227e-08
0.000110724
-4.22106e-08
0.00015387
0.000191884
-2.2216e-07
-2.39752e-06
0.000190702
3.5796e-06
-1.18739e-06
0.00015266
0.000109537
3.88199e-08
0.000109498
-6.16248e-08
0.000152761
0.000190868
-2.27494e-07
-2.36732e-06
0.000189674
3.56129e-06
-1.1601e-06
0.000151553
0.000108338
2.28624e-08
0.000108315
-7.47119e-08
0.000151651
0.000189825
-2.26391e-07
-2.34308e-06
0.00018862
3.54831e-06
-1.1378e-06
0.000150446
0.000107177
1.16342e-08
0.000107166
-8.1178e-08
0.000150539
0.000188757
-2.18061e-07
-2.32497e-06
0.00018754
3.54187e-06
-1.11993e-06
0.000149334
0.000106046
4.39109e-09
0.000106042
-8.17514e-08
0.00014942
0.000187661
-2.02905e-07
-2.31215e-06
0.000186432
3.54138e-06
-1.10574e-06
0.000148213
0.000104936
4.74261e-10
0.000104935
-7.72175e-08
0.000148291
0.000186537
-1.81605e-07
-2.30384e-06
0.000185294
3.54617e-06
-1.0946e-06
0.000147082
0.000103841
-1.14078e-09
0.000103842
-6.88901e-08
0.00014715
0.000185381
-1.55894e-07
-2.29901e-06
0.000184126
3.55501e-06
-1.08598e-06
0.000145937
0.000102756
-4.23219e-10
0.000102756
-5.69972e-08
0.000145993
0.000184194
-1.25716e-07
-2.29728e-06
0.000182924
3.56774e-06
-1.07929e-06
0.000144775
0.000101677
2.10205e-09
0.000101675
-4.17624e-08
0.000144819
0.000182973
-9.10905e-08
-2.29851e-06
0.000181687
3.58439e-06
-1.0744e-06
0.000143595
0.000100601
6.35466e-09
0.000100595
-2.32885e-08
0.000143625
0.000181716
-5.1973e-08
-2.30261e-06
0.000180414
3.6051e-06
-1.07119e-06
0.000142394
9.95234e-05
1.19614e-08
9.95114e-05
-2.41296e-09
0.000142408
0.000180421
-9.70724e-09
-2.30851e-06
0.000179102
3.62799e-06
-1.06922e-06
0.000141169
9.84423e-05
1.98518e-08
9.84224e-05
2.25648e-08
0.000141166
0.000179085
3.92562e-08
-2.3163e-06
0.000177748
3.65295e-06
-1.06833e-06
0.000139918
9.73541e-05
2.92055e-08
9.7325e-05
5.03813e-08
0.000139897
0.000177706
9.24237e-08
-2.32661e-06
0.000176352
3.6815e-06
-1.06876e-06
0.000138639
9.62562e-05
3.99793e-08
9.62162e-05
8.10248e-08
0.000138598
0.000176283
1.49727e-07
-2.33937e-06
0.000174909
3.71361e-06
-1.07048e-06
0.000137329
9.51457e-05
5.22115e-08
9.50935e-05
1.14571e-07
0.000137267
0.000174812
2.11382e-07
-2.35448e-06
0.000173417
3.74913e-06
-1.07343e-06
0.000135986
9.402e-05
6.58679e-08
9.39541e-05
1.5097e-07
0.0001359
0.00017329
2.77379e-07
-2.3718e-06
0.000171874
3.78788e-06
-1.07753e-06
0.000134606
9.28765e-05
8.0882e-08
9.27955e-05
1.90113e-07
0.000134497
0.000171717
3.47609e-07
-2.39116e-06
0.000170278
3.82965e-06
-1.08268e-06
0.000133188
9.17128e-05
9.71612e-08
9.16156e-05
2.31836e-07
0.000133054
0.000170088
4.21857e-07
-2.41235e-06
0.000168626
3.8741e-06
-1.08874e-06
0.00013173
9.05269e-05
1.14589e-07
9.04123e-05
2.75923e-07
0.000131569
0.000168402
4.99816e-07
-2.43509e-06
0.000166917
3.92087e-06
-1.09561e-06
0.000130229
8.93167e-05
1.33036e-07
8.91836e-05
3.2213e-07
0.00013004
0.000166658
5.81032e-07
-2.45892e-06
0.000165147
3.9693e-06
-1.10303e-06
0.000128684
8.80806e-05
1.5226e-07
8.79284e-05
3.69972e-07
0.000128466
0.000164853
6.64828e-07
-2.48337e-06
0.000163317
4.01867e-06
-1.11079e-06
0.000127094
8.68176e-05
1.71972e-07
8.66456e-05
4.18854e-07
0.000126847
0.000162986
7.50281e-07
-2.50762e-06
0.000161426
4.06777e-06
-1.11847e-06
0.000125458
8.55272e-05
1.91691e-07
8.53355e-05
4.67808e-07
0.000125182
0.000161057
8.35946e-07
-2.5306e-06
0.000159473
4.11494e-06
-1.12551e-06
0.000123777
8.42099e-05
2.10775e-07
8.39991e-05
5.15572e-07
0.000123472
0.000159069
9.1986e-07
-2.55108e-06
0.000157461
4.15822e-06
-1.13142e-06
0.000122052
8.28676e-05
2.28745e-07
8.26387e-05
5.60877e-07
0.00012172
0.000157022
9.99892e-07
-2.56773e-06
0.000155394
4.19542e-06
-1.13561e-06
0.000120288
8.1503e-05
2.44857e-07
8.12581e-05
6.0216e-07
0.00011993
0.000154923
1.07356e-06
-2.5789e-06
0.000153278
4.22389e-06
-1.1373e-06
0.000118488
8.01208e-05
2.58192e-07
7.98626e-05
6.37441e-07
0.000118109
0.000152778
1.13768e-06
-2.58247e-06
0.00015112
4.24023e-06
-1.13553e-06
0.000116662
7.8727e-05
2.67597e-07
7.84595e-05
6.64202e-07
0.000116266
0.000150596
1.18824e-06
-2.5758e-06
0.000148931
4.24021e-06
-1.1291e-06
0.000114819
7.73304e-05
2.71652e-07
7.70588e-05
6.7932e-07
0.000114411
0.000148391
1.22021e-06
-2.5557e-06
0.000146728
4.21869e-06
-1.11659e-06
0.000112972
7.59422e-05
2.68668e-07
7.56735e-05
6.79042e-07
0.000112562
0.000146179
1.22758e-06
-2.51845e-06
0.000144528
4.16967e-06
-1.09633e-06
0.00011114
7.45772e-05
2.56691e-07
7.43204e-05
6.59112e-07
0.000110737
0.000143983
1.20342e-06
-2.45995e-06
0.000142357
4.08636e-06
-1.06645e-06
0.000109344
7.32538e-05
2.33527e-07
7.30201e-05
6.14713e-07
0.000108962
0.000141831
1.13983e-06
-2.37537e-06
0.000140246
3.96088e-06
-1.02483e-06
0.000107611
7.19951e-05
1.96625e-07
7.17983e-05
5.40136e-07
0.000107268
0.000139758
1.02751e-06
-2.2593e-06
0.000138233
3.78436e-06
-9.69137e-07
0.000105977
7.0829e-05
1.43145e-07
7.06857e-05
4.29088e-07
0.000105691
0.000137805
8.56061e-07
-2.10647e-06
0.000136364
3.54804e-06
-8.97107e-07
0.000104482
6.97885e-05
7.08878e-08
6.97175e-05
2.76515e-07
0.000104276
0.000136023
6.17109e-07
-1.91242e-06
0.00013469
3.24548e-06
-8.05081e-07
0.000103169
6.89124e-05
-2.45078e-08
6.8937e-05
7.55372e-08
0.000103069
0.000134466
2.99415e-07
-1.66773e-06
0.000133268
2.86578e-06
-6.86889e-07
0.000102088
6.82502e-05
-1.47855e-07
6.83982e-05
-1.81838e-07
0.000102122
0.00013319
-1.03601e-07
-1.37926e-06
0.000132166
2.40326e-06
-5.53289e-07
0.000101296
6.78451e-05
-2.84755e-07
6.813e-05
-4.79285e-07
0.000101491
0.000132264
-5.7659e-07
-1.05628e-06
0.000131439
1.88181e-06
-4.06192e-07
0.000100841
6.77239e-05
-4.35644e-07
6.81597e-05
-8.11373e-07
0.000101217
0.000131739
-1.11113e-06
-7.16913e-07
0.000131125
1.33086e-06
-2.53742e-07
0.000100754
6.79061e-05
-5.90864e-07
6.8497e-05
-1.15876e-06
0.000101322
0.000131643
-1.67686e-06
-3.73954e-07
0.000131249
7.67743e-07
-1.01538e-07
0.00010105
6.83955e-05
-7.34562e-07
6.91301e-05
-1.48553e-06
0.000101801
0.00013198
-2.21653e-06
-4.11511e-08
0.000131799
2.22581e-07
5.02761e-08
0.000101709
6.91803e-05
-8.96234e-07
7.00765e-05
-1.84924e-06
0.000102662
0.000132766
-2.81643e-06
3.00571e-07
0.000132808
-3.42816e-07
2.00292e-07
0.000102762
7.02767e-05
-1.0548e-06
7.13314e-05
-2.20211e-06
0.000103909
0.00013401
-3.4042e-06
5.40642e-07
0.000134237
-7.67388e-07
2.89724e-07
0.00010416
7.1621e-05
-1.14251e-06
7.27634e-05
-2.42836e-06
0.000105446
0.000135614
-3.80561e-06
6.93288e-07
0.000135972
-1.052e-06
3.41842e-07
0.000105797
7.31052e-05
-1.18853e-06
7.42937e-05
-2.56632e-06
0.000107175
0.000137472
-4.06556e-06
7.67432e-07
0.000137918
-1.21384e-06
3.57586e-07
0.000107585
7.46513e-05
-1.20779e-06
7.58591e-05
-2.6439e-06
0.000109021
0.000139503
-4.22872e-06
7.86916e-07
0.000140003
-1.28666e-06
3.49669e-07
0.000109458
7.62088e-05
-1.20412e-06
7.7413e-05
-2.66864e-06
0.000110923
0.000141639
-4.305e-06
7.56163e-07
0.000142159
-1.27577e-06
3.20448e-07
0.000111359
7.77336e-05
-1.17872e-06
7.89124e-05
-2.64345e-06
0.000112824
0.000143813
-4.29788e-06
6.80776e-07
0.000144322
-1.18944e-06
2.72197e-07
0.000113232
7.91847e-05
-1.13522e-06
8.032e-05
-2.57518e-06
0.000114672
0.000145965
-4.21733e-06
5.68796e-07
0.000146435
-1.0396e-06
2.09272e-07
0.000115032
8.05293e-05
-1.07771e-06
8.1607e-05
-2.47212e-06
0.000116426
0.000148039
-4.07612e-06
4.28741e-07
0.00014845
-8.39274e-07
1.35624e-07
0.000116719
8.17425e-05
-1.00968e-06
8.27521e-05
-2.34199e-06
0.000118052
0.000149994
-3.88615e-06
2.68487e-07
0.000150326
-6.01086e-07
5.53175e-08
0.000118265
8.28072e-05
-9.36759e-07
8.37437e-05
-2.19271e-06
0.00011952
0.000151793
-3.66007e-06
9.64163e-08
0.000152034
-3.37611e-07
-2.68638e-08
0.000119643
8.37165e-05
-8.64293e-07
8.45805e-05
-2.03433e-06
0.000120813
0.00015341
-3.41137e-06
-7.95403e-08
0.00015355
-6.07126e-08
-1.0808e-07
0.000120841
8.44721e-05
-7.89496e-07
8.52613e-05
-1.87255e-06
0.000121924
0.000154831
-3.15357e-06
-2.49911e-07
0.000154871
2.09754e-07
-1.86337e-07
0.00012186
8.50747e-05
-7.17273e-07
8.57919e-05
-1.71367e-06
0.000122856
0.000156053
-2.89672e-06
-4.11688e-07
0.000155994
4.70619e-07
-2.59072e-07
0.000122703
8.55329e-05
-6.5121e-07
8.61842e-05
-1.56508e-06
0.000123617
0.000157082
-2.65245e-06
-5.58662e-07
0.000156929
7.12924e-07
-3.23131e-07
0.000123382
8.58609e-05
-5.92775e-07
8.64538e-05
-1.4306e-06
0.00012422
0.000157927
-2.42833e-06
-6.87068e-07
0.000157688
9.26041e-07
-3.77753e-07
0.000123911
8.60766e-05
-5.4337e-07
8.66211e-05
-1.31463e-06
0.000124683
0.000158607
-2.23423e-06
-7.96768e-07
0.000158292
1.1075e-06
-4.23586e-07
0.00012431
8.62005e-05
-5.0518e-07
8.67065e-05
-1.2203e-06
0.000125026
0.000159141
-2.07039e-06
-8.77257e-07
0.000158763
1.26125e-06
-4.51397e-07
0.0001246
8.62516e-05
-4.80229e-07
8.67274e-05
-1.14956e-06
0.000125268
0.000159555
-1.93439e-06
-9.43901e-07
0.000159123
1.38241e-06
-4.75515e-07
0.000124799
8.62464e-05
-4.47575e-07
8.67e-05
-1.07752e-06
0.000125429
0.000159868
-1.83148e-06
-1.01322e-06
0.00015939
1.4744e-06
-5.07708e-07
0.000124926
8.6203e-05
-4.44335e-07
8.66394e-05
-1.04495e-06
0.000125525
0.000160099
-1.74002e-06
-1.01633e-06
0.000159588
1.55242e-06
-4.90966e-07
0.000124996
8.61297e-05
-4.35742e-07
8.65526e-05
-1.01603e-06
0.000125573
0.00016026
-1.67154e-06
-1.08456e-06
0.000159724
1.59912e-06
-5.31095e-07
0.000125022
8.60359e-05
-4.05899e-07
8.64522e-05
-9.6238e-07
0.00012558
0.00016037
-1.62473e-06
-1.09598e-06
0.00015981
1.65091e-06
-5.28959e-07
0.000125017
8.59307e-05
-4.20435e-07
8.63433e-05
-9.65302e-07
0.000125561
0.000160445
-1.58514e-06
-1.06992e-06
0.000159866
1.67416e-06
-5.00768e-07
0.000124984
8.58198e-05
-4.26218e-07
8.62237e-05
-9.67858e-07
0.00012552
0.00016048
-1.55719e-06
-1.12883e-06
0.000159891
1.69328e-06
-5.39553e-07
0.000124933
8.57009e-05
-3.84878e-07
8.61081e-05
-9.07872e-07
0.000125464
0.000160495
-1.53729e-06
-1.14539e-06
0.000159889
1.73077e-06
-5.49174e-07
0.000124872
8.55784e-05
-3.97973e-07
8.59851e-05
-9.18728e-07
0.000125396
0.000160483
-1.52227e-06
-1.09193e-06
0.000159883
1.71651e-06
-5.00122e-07
0.000124796
8.546e-05
-4.27652e-07
8.58659e-05
-9.54738e-07
0.000125319
0.000160474
-1.51869e-06
-1.12216e-06
0.000159857
1.73661e-06
-5.23167e-07
0.000124719
8.53404e-05
-3.98353e-07
8.57464e-05
-9.12267e-07
0.000125234
0.000160444
-1.50969e-06
-1.13009e-06
0.000159821
1.75344e-06
-5.27159e-07
0.000124634
8.52228e-05
-4.05007e-07
8.56302e-05
-9.20053e-07
0.000125151
0.000160401
-1.49918e-06
-1.10387e-06
0.000159783
1.74124e-06
-5.04638e-07
0.000124547
8.51093e-05
-4.29417e-07
8.55149e-05
-9.47253e-07
0.000125059
0.000160363
-1.50177e-06
-1.1261e-06
0.00015974
1.73754e-06
-5.25117e-07
0.00012446
8.50006e-05
-3.9269e-07
8.54116e-05
-9.04244e-07
0.000124969
0.000160317
-1.52102e-06
-1.10217e-06
0.000159695
1.74665e-06
-5.06784e-07
0.000124377
8.48955e-05
-4.29676e-07
8.53089e-05
-9.52519e-07
0.000124901
0.000160292
-1.51399e-06
-1.1049e-06
0.000159676
1.69319e-06
-5.13643e-07
0.000124303
8.48002e-05
-4.15013e-07
8.52272e-05
-9.57967e-07
0.000124853
0.00016082
-2.10654e-06
-5.13888e-07
0.00015972
1.63513e-06
-4.48037e-07
0.000124784
8.47631e-05
-9.40469e-07
8.56921e-05
-1.58311e-06
0.00012542
0.000161464
-3.31675e-06
1.56087e-07
0.000161535
-2.3913e-07
6.72425e-08
0.000125514
8.57724e-05
-1.66964e-06
8.74367e-05
-4.55489e-06
0.000128405
0.000164092
-7.09837e-06
6.13506e-06
0.000168397
-1.04383e-05
2.97637e-06
0.000131557
9.04104e-05
-8.67203e-06
9.90687e-05
-1.96851e-05
0.000142568
0.000181981
-3.32584e-05
4.33001e-05
0.000211514
-7.28132e-05
1.94585e-05
0.000166416
0.000118527
3.935e-05
9.49952e-05
0.00016598
3.99778e-05
-0.000288201
-5.72862e-05
-0.000326086
-6.18111e-05
-0.000510474
-2.49811e-05
-0.000550481
-1.59412e-05
-0.000577072
-3.11886e-06
-0.00057975
-2.56335e-06
-0.000584686
-2.03677e-07
-0.000585158
-8.04027e-07
-0.000585848
9.64486e-07
-0.000585304
1.54883e-06
-0.000583077
5.07415e-06
-0.000577013
9.78012e-06
-0.000568951
2.14738e-05
-0.000554888
3.8396e-05
-0.000540864
8.52405e-05
-0.000536064
0.000189247
-0.000544791
8.52779e-05
-0.000335922
4.86792e-05
-0.000332974
2.7201e-05
-0.000323184
2.7226e-05
-0.000275557
7.96691e-06
-0.000237155
4.49401e-06
-8.35402e-05
1.83437e-06
-5.64666e-05
-3.04995e-05
-2.26953e-06
-2.82487e-05
-5.96064e-06
-5.27793e-05
-7.84022e-05
-1.10644e-05
4.03895e-06
-7.53559e-05
-7.12451e-06
1.4031e-06
-5.01384e-05
-2.68228e-05
-9.37505e-07
-2.58509e-05
-1.67639e-06
-4.93893e-05
-7.35615e-05
-3.52809e-06
6.71319e-07
-7.29202e-05
-1.33931e-06
1.47579e-07
-4.88597e-05
-2.56861e-05
-4.28789e-07
-2.52509e-05
-5.47352e-07
-4.87398e-05
-7.23148e-05
-1.16701e-06
5.28597e-07
-7.27568e-05
-8.36841e-08
6.84135e-08
-4.82793e-05
-2.51834e-05
-4.35682e-09
-2.51803e-05
-2.50366e-08
-4.82596e-05
-7.27654e-05
-1.67385e-08
-2.34937e-08
-7.27808e-05
4.03547e-08
-1.20462e-08
-4.82683e-05
-2.51896e-05
2.00124e-08
-2.52092e-05
4.13935e-08
-4.82905e-05
-7.28031e-05
5.9875e-08
-5.55666e-08
-7.28343e-05
8.57668e-08
-2.61294e-08
-4.83186e-05
-2.52331e-05
2.48504e-08
-2.52574e-05
5.28665e-08
-4.83473e-05
-7.28624e-05
7.77986e-08
-6.40488e-08
-7.28985e-05
9.77474e-08
-2.99568e-08
-4.83806e-05
-2.52853e-05
2.95468e-08
-2.53127e-05
6.33167e-08
-4.84134e-05
-7.29319e-05
9.40396e-08
-7.29832e-08
-7.29733e-05
1.12037e-07
-3.40991e-08
-4.84508e-05
-2.53439e-05
3.10175e-08
-2.53727e-05
6.70841e-08
-4.84859e-05
-7.30092e-05
1.0044e-07
-7.18521e-08
-7.30505e-05
1.10033e-07
-3.33604e-08
-4.85239e-05
-2.54042e-05
3.24778e-08
-2.54349e-05
6.99021e-08
-4.8561e-05
-7.30884e-05
1.0455e-07
-7.84732e-08
-7.31334e-05
1.20123e-07
-3.66948e-08
-4.8602e-05
-2.54692e-05
3.37502e-08
-2.55007e-05
7.23992e-08
-4.86398e-05
-7.3173e-05
1.08706e-07
-7.70875e-08
-7.32172e-05
1.17376e-07
-3.62158e-08
-4.86801e-05
-2.55346e-05
3.3752e-08
-2.5567e-05
7.3794e-08
-4.87195e-05
-7.32563e-05
1.12006e-07
-7.66707e-08
-7.33038e-05
1.27928e-07
-3.45137e-08
-4.8762e-05
-2.56035e-05
3.12378e-08
-2.56371e-05
7.12044e-08
-4.88023e-05
-7.33447e-05
1.16381e-07
-7.70051e-08
-7.33905e-05
1.24413e-07
-3.45407e-08
-4.88451e-05
-2.56726e-05
3.64339e-08
-2.57066e-05
7.80433e-08
-4.88858e-05
-7.34331e-05
1.17015e-07
-8.553e-08
-7.34817e-05
1.29816e-07
-4.03204e-08
-4.89302e-05
-2.57441e-05
3.691e-08
-2.57787e-05
7.90464e-08
-4.89716e-05
-7.35246e-05
1.18442e-07
-8.32775e-08
-7.35726e-05
1.27187e-07
-3.93751e-08
-4.90151e-05
-2.58158e-05
3.76828e-08
-2.58512e-05
8.09543e-08
-4.90576e-05
-7.3616e-05
1.21196e-07
-8.44056e-08
-7.3666e-05
1.35834e-07
-3.85398e-08
-4.91032e-05
-2.589e-05
3.40096e-08
-2.59265e-05
7.64909e-08
-4.91461e-05
-7.37107e-05
1.25324e-07
-8.10362e-08
-7.37587e-05
1.32974e-07
-3.60873e-08
-4.91912e-05
-2.59643e-05
3.83775e-08
-2.60011e-05
8.29834e-08
-4.92353e-05
-7.38049e-05
1.27121e-07
-9.14995e-08
-7.38569e-05
1.38979e-07
-4.32413e-08
-4.92823e-05
-2.60409e-05
3.99591e-08
-2.60779e-05
8.54271e-08
-4.93265e-05
-7.39031e-05
1.28198e-07
-8.94287e-08
-7.3954e-05
1.36983e-07
-4.19054e-08
-4.9373e-05
-2.61173e-05
4.11369e-08
-2.61553e-05
8.79468e-08
-4.94182e-05
-7.40015e-05
1.32613e-07
-9.42372e-08
-7.40561e-05
1.44851e-07
-4.41596e-08
-4.94672e-05
-2.61966e-05
4.11934e-08
-2.62341e-05
8.86021e-08
-4.95125e-05
-7.41043e-05
1.34364e-07
-9.12157e-08
-7.41579e-05
1.4066e-07
-4.24985e-08
-4.95605e-05
-2.62741e-05
4.18724e-08
-2.63129e-05
8.99598e-08
-4.96072e-05
-7.42074e-05
1.36275e-07
-9.5319e-08
-7.42639e-05
1.47569e-07
-4.44918e-08
-4.96573e-05
-2.63548e-05
4.14313e-08
-2.63939e-05
8.94343e-08
-4.97049e-05
-7.4316e-05
1.36907e-07
-9.33692e-08
-7.43719e-05
1.44687e-07
-4.30273e-08
-4.97547e-05
-2.64343e-05
4.08308e-08
-2.64741e-05
9.03005e-08
-4.98043e-05
-7.44251e-05
1.40572e-07
-9.13794e-08
-7.4484e-05
1.53848e-07
-4.0321e-08
-4.98552e-05
-2.65157e-05
3.6272e-08
-2.6556e-05
8.45153e-08
-4.99055e-05
-7.45402e-05
1.44046e-07
-8.74158e-08
-7.45989e-05
1.51113e-07
-3.73314e-08
-4.99563e-05
-2.65961e-05
3.66091e-08
-2.66358e-05
8.61909e-08
-5.00072e-05
-7.46563e-05
1.47031e-07
-9.17983e-08
-7.47199e-05
1.5947e-07
-3.88166e-08
-5.00613e-05
-2.66775e-05
3.58243e-08
-2.67163e-05
8.68045e-08
-5.01133e-05
-7.47798e-05
1.50827e-07
-8.98384e-08
-7.48443e-05
1.58604e-07
-3.68576e-08
-5.01672e-05
-2.67561e-05
3.60586e-08
-2.6795e-05
8.89922e-08
-5.02212e-05
-7.49077e-05
1.56289e-07
-9.42314e-08
-7.49782e-05
1.68443e-07
-3.79446e-08
-5.02788e-05
-2.68361e-05
3.545e-08
-2.68738e-05
9.04679e-08
-5.03345e-05
-7.50454e-05
1.61997e-07
-9.41629e-08
-7.51181e-05
1.71634e-07
-3.63102e-08
-5.03929e-05
-2.69126e-05
3.52156e-08
-2.69506e-05
9.35218e-08
-5.04519e-05
-7.51906e-05
1.70796e-07
-9.9611e-08
-7.52698e-05
1.83034e-07
-3.73518e-08
-5.05146e-05
-2.69902e-05
3.77361e-08
-2.70265e-05
9.97554e-08
-5.05763e-05
-7.53485e-05
1.75424e-07
-1.05362e-07
-7.54327e-05
1.84392e-07
-3.9876e-08
-5.06411e-05
-2.70633e-05
3.85396e-08
-2.70988e-05
1.05288e-07
-5.07068e-05
-7.5517e-05
1.84487e-07
-1.09836e-07
-7.56085e-05
1.96924e-07
-3.93609e-08
-5.07761e-05
-2.71352e-05
3.59172e-08
-2.71681e-05
1.05967e-07
-5.08449e-05
-7.56993e-05
1.92618e-07
-1.10795e-07
-7.57976e-05
2.03959e-07
-3.69328e-08
-5.09176e-05
-2.72016e-05
3.46538e-08
-2.72327e-05
1.10251e-07
-5.0992e-05
-7.58979e-05
2.06066e-07
-1.12211e-07
-7.60064e-05
2.2194e-07
-3.25342e-08
-5.10712e-05
-2.7265e-05
2.67378e-08
-2.72946e-05
1.07339e-07
-5.1152e-05
-7.61144e-05
2.21785e-07
-1.1307e-07
-7.62335e-05
2.37892e-07
-2.81985e-08
-5.12373e-05
-2.73255e-05
3.08032e-08
-2.73547e-05
1.20721e-07
-5.13265e-05
-7.63561e-05
2.41015e-07
-1.32971e-07
-7.64891e-05
2.59791e-07
-3.58616e-08
-5.1422e-05
-2.7386e-05
3.35361e-08
-2.74154e-05
1.33797e-07
-5.15205e-05
-7.66245e-05
2.63928e-07
-1.44428e-07
-7.67707e-05
2.86264e-07
-3.61986e-08
-5.16262e-05
-2.74469e-05
3.64209e-08
-2.74788e-05
1.50366e-07
-5.17379e-05
-7.69231e-05
2.98055e-07
-1.63478e-07
-7.70883e-05
3.23065e-07
-4.04528e-08
-5.1859e-05
-2.75149e-05
4.12356e-08
-2.75515e-05
1.7021e-07
-5.1986e-05
-7.72587e-05
3.34937e-07
-1.87317e-07
-7.74433e-05
3.64034e-07
-4.79207e-08
-5.21243e-05
-2.75951e-05
5.34517e-08
-2.76447e-05
2.0153e-07
-5.22725e-05
-7.76364e-05
3.843e-07
-2.27493e-07
-7.78451e-05
4.23481e-07
-6.53134e-08
-5.24352e-05
-2.77051e-05
7.28527e-08
-2.77736e-05
2.44916e-07
-5.2606e-05
-7.80633e-05
4.55237e-07
-2.65073e-07
-7.82953e-05
5.06606e-07
-7.81875e-08
-5.27936e-05
-2.78565e-05
8.79103e-08
-2.79528e-05
2.90699e-07
-5.29976e-05
-7.85387e-05
5.51457e-07
-3.28441e-07
-7.88016e-05
6.12258e-07
-1.06945e-07
-5.32186e-05
-2.8068e-05
1.32862e-07
-2.82028e-05
3.72281e-07
-5.34564e-05
-7.90795e-05
6.61655e-07
-4.4017e-07
-7.93789e-05
7.22435e-07
-1.72734e-07
-5.37201e-05
-2.83645e-05
2.06918e-07
-2.85563e-05
4.96567e-07
-5.40064e-05
-7.96948e-05
7.86744e-07
-5.62775e-07
-8.00304e-05
8.69577e-07
-2.44016e-07
-5.43219e-05
-2.8784e-05
2.82652e-07
-2.9049e-05
6.29265e-07
-5.46653e-05
-8.0388e-05
9.56041e-07
-6.97858e-07
-8.07767e-05
1.07295e-06
-3.19876e-07
-5.50408e-05
-2.93605e-05
3.46818e-07
-2.97265e-05
7.62476e-07
-5.54615e-05
-8.11856e-05
1.20146e-06
-8.69231e-07
-8.16339e-05
1.36339e-06
-4.06065e-07
-5.59322e-05
-3.01621e-05
4.86509e-07
-3.06698e-05
1.00009e-06
-5.64526e-05
-8.21346e-05
1.53358e-06
-1.19595e-06
-8.26994e-05
1.73959e-06
-5.97047e-07
-5.7048e-05
-3.1254e-05
8.53618e-07
-3.20889e-05
1.59872e-06
-5.77875e-05
-8.28055e-05
1.67322e-06
-1.54691e-06
-8.33162e-05
2.04034e-06
-9.54033e-07
-5.83761e-05
-3.30317e-05
7.40942e-07
-3.37738e-05
1.39848e-06
-5.90337e-05
-8.3855e-05
1.93646e-06
-1.23558e-06
-8.53433e-05
2.72748e-06
-2.90553e-07
-5.9978e-05
-3.40648e-05
1.28563e-06
-3.53484e-05
1.67492e-06
-6.03667e-05
-8.61417e-05
2.46911e-06
-1.9738e-06
-8.69289e-05
2.761e-06
-5.87523e-07
-6.17529e-05
-3.59368e-05
9.21111e-07
-3.68581e-05
1.69225e-06
-6.25237e-05
-8.81977e-05
2.96156e-06
-2.34621e-06
-8.88919e-05
3.03902e-06
-1.02714e-06
-6.38405e-05
-3.78827e-05
1.09806e-06
-3.89791e-05
1.93312e-06
-6.46754e-05
-9.06794e-05
3.71946e-06
-2.6512e-06
-9.18734e-05
3.84111e-06
-1.39068e-06
-6.59382e-05
-4.03706e-05
1.35048e-06
-4.17253e-05
2.5904e-06
-6.7182e-05
-9.29762e-05
3.69025e-06
-2.54891e-06
-9.47833e-05
4.35301e-06
-1.12276e-06
-6.86122e-05
-4.28574e-05
1.05345e-06
-4.39065e-05
2.84604e-06
-7.04015e-05
-9.66049e-05
4.66736e-06
-4.29688e-06
-9.95938e-05
7.28514e-06
-2.42349e-06
-7.22749e-05
-4.63222e-05
2.49403e-06
-4.87978e-05
6.33647e-06
-7.61316e-05
-0.000103753
1.04861e-05
6.79432e-05
-5.05211e-05
-0.000121134
2.71866e-05
-3.54129e-05
-2.16339e-05
4.32952e-06
-2.61478e-05
1.51943e-05
-4.58276e-05
-6.59726e-05
3.02885e-05
-8.61014e-06
-7.30565e-05
1.57108e-05
-3.01421e-06
-5.14785e-05
-2.90956e-05
1.04225e-06
-3.0147e-05
2.35224e-06
-5.27985e-05
-7.43201e-05
3.61061e-06
-1.32932e-07
-7.44708e-05
2.9054e-07
-3.16948e-07
-5.26145e-05
-3.04709e-05
1.47087e-06
-3.1962e-05
3.24722e-06
-5.4396e-05
-7.61796e-05
5.00328e-06
-2.38587e-06
-7.74108e-05
3.66399e-06
-1.14026e-06
-5.56453e-05
-3.3116e-05
2.20628e-06
-3.53171e-05
4.29295e-06
-5.77321e-05
-7.98204e-05
6.70253e-06
-2.79529e-06
-8.19233e-05
4.80848e-06
-1.58449e-06
-5.89226e-05
-3.68477e-05
2.43156e-06
-3.92386e-05
5.04362e-06
-6.1516e-05
-8.44496e-05
7.49555e-06
-4.3316e-06
-8.72169e-05
7.1961e-06
-1.96955e-06
-6.38872e-05
-4.12603e-05
2.64414e-06
-4.39733e-05
6.32592e-06
-6.75923e-05
-9.22837e-05
1.15326e-05
-9.56767e-06
-9.92078e-05
1.6384e-05
-4.29458e-06
-7.28408e-05
-4.82182e-05
-2.57051e-05
-2.25024e-05
-6.31134e-05
-3.54851e-05
-4.95129e-05
-0.000112776
-1.77094e-05
-6.56873e-05
3.3423e-05
-6.33724e-06
-4.63168e-05
-2.90733e-05
4.4544e-06
-3.34831e-05
1.22228e-05
-5.42055e-05
-7.42642e-05
2.0977e-05
-7.2571e-06
-8.07152e-05
1.38248e-05
-3.57157e-06
-5.79144e-05
-3.71219e-05
2.44774e-06
-3.96535e-05
6.32376e-06
-6.18143e-05
-8.45199e-05
1.02753e-05
-5.41265e-06
-8.81039e-05
9.05e-06
-2.40914e-06
-6.48386e-05
-4.20994e-05
2.70288e-06
-4.47433e-05
5.8021e-06
-6.79208e-05
-9.17817e-05
9.37108e-06
-7.01195e-06
-9.6908e-05
1.21893e-05
-2.96959e-06
-7.197e-05
-4.77365e-05
3.17686e-06
-5.08933e-05
6.95664e-06
-7.57598e-05
-0.000101495
1.15033e-05
6.56504e-05
-5.04016e-05
-0.000116753
2.68311e-05
-3.69236e-05
-2.40538e-05
7.14994e-06
-3.06841e-05
1.74462e-05
-4.80595e-05
-6.62703e-05
3.37212e-05
-1.14543e-05
-7.56945e-05
2.08913e-05
-4.37628e-06
-5.50741e-05
-3.51553e-05
2.80372e-06
-3.79567e-05
6.05315e-06
-5.83101e-05
-7.90272e-05
9.42595e-06
-3.92463e-06
-8.09744e-05
5.82019e-06
-1.82342e-06
-6.04041e-05
-3.9762e-05
3.17421e-06
-4.29638e-05
6.57471e-06
-6.3815e-05
-8.66699e-05
1.23222e-05
-9.34391e-06
-9.27455e-05
1.5445e-05
-4.29799e-06
-6.88476e-05
-4.72669e-05
-2.42089e-05
-2.30584e-05
-5.88563e-05
-3.42883e-05
-4.6814e-05
-0.000104751
-1.89497e-05
-6.23418e-05
3.3997e-05
-6.6092e-06
-4.6012e-05
-2.99621e-05
6.14742e-06
-3.60385e-05
1.39558e-05
-5.39284e-05
-7.23317e-05
2.40572e-05
-9.69349e-06
-8.06685e-05
1.80648e-05
-4.11577e-06
-5.95245e-05
-4.01828e-05
4.55665e-06
-4.47419e-05
9.56608e-06
-6.4536e-05
-8.73276e-05
1.62311e-05
-7.63402e-06
-9.16996e-05
1.19929e-05
-3.38049e-06
-6.87849e-05
-4.81281e-05
-2.50976e-05
-2.30212e-05
-5.95921e-05
-3.43612e-05
-4.60676e-05
-0.000105183
-1.8254e-05
-6.06007e-05
3.2322e-05
-7.03355e-06
-4.49042e-05
-3.03855e-05
5.21419e-06
-3.54783e-05
1.20765e-05
-5.18653e-05
-6.97507e-05
2.12798e-05
-9.06831e-06
-7.60145e-05
1.53798e-05
-4.00985e-06
-5.69348e-05
-3.95194e-05
4.58755e-06
-4.41281e-05
1.04129e-05
-6.27415e-05
-8.28509e-05
1.72878e-05
5.32881e-05
-4.24857e-05
-9.36389e-05
2.22889e-05
-3.18314e-05
-2.18193e-05
7.23364e-06
-2.93308e-05
1.87235e-05
-4.27101e-05
-5.66276e-05
3.23795e-05
-1.47267e-05
-6.82668e-05
2.63252e-05
-6.6079e-06
-5.09161e-05
-3.57735e-05
5.45752e-06
-4.11992e-05
1.2536e-05
-5.79826e-05
-7.68507e-05
2.10264e-05
-7.68339e-06
-8.1442e-05
1.23175e-05
-3.99674e-06
-6.1667e-05
-4.52067e-05
-2.26051e-05
-2.26002e-05
-5.25784e-05
-3.1696e-05
-4.1902e-05
-9.2127e-05
-1.88292e-05
-5.6024e-05
3.29826e-05
-7.5436e-06
-4.2924e-05
-3.02214e-05
6.8649e-06
-3.70196e-05
1.40988e-05
-5.01613e-05
-6.54241e-05
2.34235e-05
4.23692e-05
-3.41961e-05
-7.362e-05
1.80805e-05
-2.57582e-05
-1.90229e-05
7.41668e-06
-2.59461e-05
1.67552e-05
-3.5928e-05
-4.73503e-05
3.03266e-05
-1.37618e-05
-5.55414e-05
2.19464e-05
-6.55276e-06
-4.30774e-05
-3.26005e-05
-1.63714e-05
-1.62306e-05
-3.78843e-05
-2.15725e-05
-2.78428e-05
-6.55614e-05
-1.081e-05
-3.52749e-05
1.82418e-05
-5.07432e-06
-2.73043e-05
-2.13038e-05
-1.27101e-05
-8.59438e-06
-2.85045e-05
-1.15109e-05
-1.52063e-05
-4.85735e-05
7.86929e-07
-1.65242e-05
5.3041e-07
5.63761e-07
-1.12882e-05
-8.03105e-06
-1.36058e-05
5.57437e-06
-3.2408e-05
7.51353e-06
9.60558e-06
-5.85386e-05
2.53887e-05
2.64185e-05
-4.22023e-05
1.17343e-05
2.11675e-05
1.73084e-05
-1.08391e-05
2.81474e-05
-2.39414e-05
3.42698e-05
4.28855e-05
-4.04086e-05
2.75693e-05
6.34843e-05
-4.81673e-05
1.15362e-05
5.03033e-05
3.96839e-05
-1.3483e-05
5.31665e-05
-3.28856e-05
6.97054e-05
8.96915e-05
-5.90928e-05
-4.88753e-05
5.56668e-05
8.2899e-05
-2.13116e-05
4.21413e-05
3.18547e-05
-1.91357e-05
5.0993e-05
-4.37014e-05
6.671e-05
8.72897e-05
-7.53203e-05
-4.04013e-05
5.927e-05
6.84323e-05
-1.84023e-05
4.47173e-05
3.25941e-05
-2.40902e-05
5.66322e-05
-5.57912e-05
7.64153e-05
9.96737e-05
-9.61409e-05
-3.73369e-05
7.50803e-05
6.21406e-05
-1.65964e-05
5.54667e-05
4.01595e-05
1.3225e-05
2.62916e-05
3.30771e-05
3.67756e-05
4.89616e-05
5.85077e-05
4.83019e-05
8.6201e-05
-8.5175e-05
1.95352e-05
6.47314e-05
4.63096e-05
1.39658e-05
3.2317e-05
3.31304e-05
4.57e-05
6.01757e-05
5.90303e-05
5.98521e-05
0.000107308
-0.000106976
2.47402e-05
8.07921e-05
5.70646e-05
1.40992e-05
4.29635e-05
3.32871e-05
6.16081e-05