/*--------------------------------*- C++ -*----------------------------------*\
| =========                 |                                                 |
| \\      /  F ield         | OpenFOAM: The Open Source CFD Toolbox           |
|  \\    /   O peration     | Version:  v2006                                 |
|   \\  /    A nd           | Website:  www.openfoam.com                      |
|    \\/     M anipulation  |                                                 |
\*---------------------------------------------------------------------------*/
FoamFile
{
    version     2.0;
    format      ascii;
    class       volScalarField;
    location    "0.017";
    object      Co;
}
// * * * * * * * * * * * * * * * * * * * * * * * * * * * * * * * * * * * * * //

dimensions      [0 0 0 0 0 0 0];


internalField   nonuniform List<scalar> 
16277
(
0.00660719
0.00629768
0.00683533
0.00709667
0.00713483
0.00698521
0.00698181
0.00686458
0.0068142
0.00680104
0.00676382
0.00674976
0.00673607
0.00672633
0.00671554
0.00670462
0.00669314
0.00668104
0.00666856
0.00665553
0.00664192
0.00662773
0.00661301
0.00659775
0.00658198
0.00656566
0.00654884
0.00653151
0.00651368
0.00649537
0.00647659
0.00645735
0.00643767
0.00641757
0.00639705
0.00637614
0.00635486
0.00633321
0.00631123
0.00628892
0.00626631
0.00624343
0.00622028
0.0061969
0.0061733
0.00614951
0.00612556
0.00610146
0.00607725
0.00605294
0.00602857
0.00600416
0.00597973
0.00595533
0.00593097
0.00590668
0.0058825
0.00585845
0.00583456
0.00581086
0.00578738
0.00576415
0.0057412
0.00571856
0.00569626
0.00567433
0.0056528
0.00563169
0.00561104
0.00559088
0.00557122
0.0055521
0.00553353
0.00551556
0.00549821
0.0054815
0.00546541
0.00544985
0.0054333
0.00541833
0.00540504
0.00539562
0.00539347
0.00542606
0.00548903
0.00566073
0.00597126
0.00668167
0.00833636
0.0118862
0.0178233
0.0140219
0.0125963
0.0120653
0.0117986
0.0115376
0.0110177
0.0099911
0.0109642
0.0115972
0.0108049
0.0106881
0.0100549
0.00830231
0.00893839
0.00914262
0.00909404
0.00909166
0.00852911
0.00776023
0.00846039
0.00863135
0.00889835
0.00874297
0.00796524
0.00774909
0.00854511
0.00872828
0.00893089
0.00871217
0.00781466
0.00771711
0.00858649
0.00877776
0.00894536
0.00868627
0.00772054
0.00762109
0.00855925
0.00877943
0.00890528
0.00863039
0.00760296
0.00750777
0.00849938
0.00874854
0.00886644
0.00856611
0.00749142
0.00740154
0.00843528
0.00870949
0.008824
0.00850164
0.00738949
0.00730407
0.0083719
0.00866821
0.00877994
0.008438
0.00729532
0.00721343
0.00830956
0.00862523
0.00873476
0.00837516
0.00720696
0.00712811
0.00824896
0.00858153
0.00868814
0.0083127
0.00712338
0.00704669
0.00818847
0.00853627
0.00864057
0.00825062
0.00704332
0.00696841
0.00812797
0.00848953
0.00859191
0.00818877
0.006966
0.00689253
0.00806704
0.00844076
0.00854211
0.0081269
0.00689085
0.00681843
0.00800559
0.00839036
0.00849088
0.00806468
0.00681738
0.0067458
0.00794357
0.00833827
0.0084385
0.00800197
0.0067452
0.00667438
0.00788079
0.00828451
0.0083849
0.00793873
0.00667393
0.00660369
0.00781715
0.00822902
0.00832999
0.00787477
0.00660322
0.00653339
0.00775251
0.00817178
0.00827359
0.0078099
0.00653273
0.00646319
0.00768673
0.00811272
0.00821559
0.00774396
0.00646225
0.0063929
0.00762052
0.00805361
0.00815584
0.00767681
0.00639153
0.00632231
0.0075535
0.007994
0.00809434
0.00760838
0.00632042
0.00625128
0.00748518
0.00793266
0.00803108
0.0075386
0.00624882
0.0061797
0.00741547
0.00786955
0.00796596
0.00746734
0.00617655
0.00610734
0.0073442
0.00780454
0.00789879
0.00739436
0.00610336
0.00603388
0.00727112
0.0077374
0.00782935
0.00731943
0.00602889
0.005959
0.00719596
0.00766792
0.00775742
0.00724226
0.00595282
0.00588236
0.00711848
0.00759591
0.00768282
0.00716261
0.00587483
0.00580367
0.00703844
0.00752117
0.00760536
0.00708029
0.00579465
0.0057227
0.00695565
0.00744354
0.00752487
0.00699508
0.00571209
0.00563929
0.00686994
0.00736286
0.00744121
0.00690685
0.00562703
0.00555336
0.00678121
0.00727901
0.00735429
0.00681554
0.00553943
0.00546493
0.00668941
0.00719192
0.00726409
0.00672113
0.00544935
0.00537407
0.00659456
0.0071016
0.00717059
0.00662366
0.0053569
0.00528093
0.00649672
0.00700805
0.00707384
0.00652322
0.00526221
0.00518563
0.00639599
0.0069113
0.00697389
0.00641993
0.00516546
0.00508842
0.00629254
0.00681146
0.00687092
0.00631405
0.00506698
0.00498973
0.00618671
0.00670878
0.00676526
0.00620602
0.00496732
0.00489022
0.00607904
0.00660365
0.0066574
0.00609647
0.00486724
0.00479074
0.00597022
0.00649659
0.00654792
0.00598618
0.00476769
0.00469233
0.00586112
0.00638826
0.00643759
0.00587615
0.0046698
0.00459622
0.00575282
0.00627951
0.00632743
0.00576761
0.00457496
0.00450397
0.0056467
0.00617149
0.00621879
0.00566215
0.00448491
0.00441746
0.00554453
0.00606569
0.00611338
0.00556175
0.00440172
0.0043389
0.00544839
0.00596394
0.00601326
0.00546869
0.00432775
0.00427077
0.00536073
0.00586845
0.00592073
0.00538533
0.00426554
0.00421896
0.00528627
0.00578134
0.00583817
0.00531422
0.0042184
0.00419018
0.00524521
0.00572752
0.00576899
0.00525932
0.00418956
0.0041812
0.00522639
0.00570664
0.00571686
0.00522343
0.00418051
0.00419293
0.00522892
0.00570645
0.00568165
0.00520607
0.00419218
0.00422481
0.00525215
0.00572585
0.00567243
0.00521566
0.00422466
0.00427689
0.0052962
0.0057654
0.00569682
0.0052622
0.00428691
0.00434968
0.00536141
0.00582589
0.00576326
0.00533391
0.00436677
0.00443647
0.00544169
0.00590062
0.00583933
0.0054171
0.00445715
0.00453005
0.0055297
0.00598158
0.00592188
0.00550712
0.00455213
0.00462657
0.00562326
0.00606822
0.00600871
0.00560109
0.00464848
0.00472295
0.00571919
0.00615774
0.00609692
0.00569584
0.00474323
0.00481624
0.00581427
0.00624705
0.00618367
0.00578838
0.00483355
0.00490379
0.00590571
0.00633351
0.00626664
0.00587624
0.00491708
0.00498357
0.00599137
0.00641512
0.0063441
0.00595758
0.00499211
0.00505418
0.00606968
0.00649038
0.00641476
0.00603109
0.00505755
0.00511484
0.00613958
0.00655818
0.00647774
0.00609621
0.00511328
0.00516562
0.00620042
0.00661782
0.00653427
0.00615821
0.00516399
0.00520639
0.00625155
0.00666877
0.00659527
0.00621735
0.00520468
0.0052374
0.00629338
0.00671125
0.00665163
0.00626677
0.00523561
0.00525938
0.00632651
0.00674583
0.00669893
0.0063067
0.00525746
0.0052733
0.00635168
0.00677312
0.00673751
0.00633773
0.00527126
0.00528037
0.00636985
0.00679398
0.00676809
0.00636081
0.00527823
0.00528177
0.0063819
0.00680906
0.0067913
0.00637683
0.00527958
0.00527883
0.00638907
0.00681966
0.00680835
0.00638706
0.00527666
0.00527267
0.00639267
0.00682723
0.00682094
0.00639292
0.00527054
0.0052646
0.00639342
0.00683188
0.00682958
0.00639535
0.00526255
0.0052551
0.00639179
0.00683419
0.00683501
0.00639498
0.00525313
0.00524449
0.00638828
0.00683464
0.00683779
0.00639237
0.00524258
0.00523323
0.00638345
0.00683372
0.00683849
0.00638808
0.00523139
0.00522166
0.00637764
0.00683171
0.00683761
0.00638255
0.00521987
0.00521021
0.00637131
0.00682906
0.00683547
0.00637616
0.0052085
0.00519914
0.00636466
0.0068259
0.00683265
0.00636943
0.00519752
0.00518846
0.00635782
0.00682237
0.00682927
0.00636247
0.00518694
0.00517829
0.006351
0.00681867
0.00682547
0.00635541
0.00517686
0.00516873
0.00634439
0.006815
0.00682147
0.00634846
0.00516736
0.0051598
0.00633807
0.00681144
0.00681755
0.00634185
0.00515854
0.00515162
0.00633221
0.00680812
0.0068138
0.0063357
0.00514795
0.00513672
0.00631454
0.00679199
0.00676654
0.00628317
0.00509765
0.00508513
0.00625512
0.00673974
0.00660547
0.0060955
0.00493552
0.00503132
0.00618582
0.00665799
0.00637384
0.00584663
0.00470686
0.00520134
0.00639242
0.00684281
0.00684576
0.00617643
0.004891
0.00605637
0.00757983
0.00825275
0.00896121
0.00792962
0.00610529
0.00765304
0.0111489
0.0139921
0.0131419
0.0170925
0.014616
0.0137223
0.0130933
0.0129354
0.0128342
0.0128729
0.0128862
0.0129186
0.012936
0.0129971
0.0131003
0.0132646
0.013616
0.0144609
0.0185094
0.0264166
0.028338
0.0258374
0.0244515
0.022301
0.0198889
0.0169419
0.0114937
0.0102078
0.0155384
0.0187468
0.0167255
0.0144343
0.00970456
0.00806028
0.0121074
0.014221
0.0132911
0.0115611
0.00779224
0.00719546
0.0108054
0.0125733
0.0123491
0.010698
0.00710067
0.00697935
0.0104986
0.0121868
0.0121994
0.0104947
0.00697219
0.00697011
0.0104904
0.0121815
0.0121905
0.010499
0.00698429
0.0069911
0.0105052
0.0121951
0.0122034
0.010514
0.00699929
0.00700026
0.0105005
0.012197
0.0122306
0.0105525
0.00702356
0.00702515
0.0105392
0.0122243
0.0122329
0.0105488
0.00703456
0.00703677
0.0105366
0.0122154
0.0122742
0.0105789
0.00705415
0.00707084
0.0105877
0.0122563
0.0122655
0.0105769
0.00706704
0.00708425
0.0105865
0.0122486
0.012308
0.0106191
0.00709541
0.00711296
0.0106286
0.0122908
0.0123005
0.0106184
0.00710985
0.00712786
0.0106287
0.0122842
0.0123442
0.010662
0.00713972
0.00715803
0.0106721
0.0123275
0.0123377
0.0106625
0.00715553
0.00717431
0.0106735
0.012322
0.0123826
0.0107074
0.00718683
0.00720588
0.0107182
0.0123665
0.0123772
0.010709
0.00720394
0.00722345
0.0107206
0.012362
0.0124232
0.0107551
0.0072366
0.00725639
0.0107666
0.0124075
0.0124189
0.0107687
0.00726228
0.00726803
0.0107594
0.0124042
0.0124661
0.0108054
0.00728914
0.00730971
0.0108176
0.0124511
0.0124632
0.0108204
0.00731627
0.00732268
0.0108118
0.0124492
0.012512
0.0108586
0.00734453
0.00736581
0.0108715
0.0124977
0.0125106
0.010875
0.00737293
0.00737985
0.010867
0.0124973
0.0125611
0.0109147
0.00740227
0.00742403
0.0109283
0.0125475
0.0125612
0.0109324
0.00743145
0.00743861
0.0109249
0.0125486
0.0126136
0.0109735
0.00746132
0.00748327
0.0109877
0.0126007
0.0126154
0.0109925
0.00749071
0.00749778
0.0109856
0.0126038
0.0126702
0.0110352
0.0075205
0.00754237
0.0110503
0.0126585
0.0126745
0.0110558
0.00754951
0.0075562
0.0110498
0.0126642
0.0127324
0.0111006
0.00757856
0.00760002
0.0111169
0.0127222
0.0127401
0.0111236
0.00760651
0.00761247
0.0111188
0.0127316
0.0128024
0.0111714
0.00763418
0.00765497
0.0111894
0.0127946
0.0128152
0.0111869
0.00765304
0.00767353
0.0112065
0.0128095
0.0128838
0.0112506
0.00768688
0.00770701
0.0112713
0.0128793
0.0129036
0.0112717
0.00770439
0.00772451
0.0112948
0.012902
0.0129811
0.0113429
0.00773767
0.00775793
0.011368
0.0129813
0.013011
0.0113844
0.00776342
0.00776908
0.0113902
0.013015
0.0131008
0.0114562
0.00779172
0.00781464
0.0114883
0.0131077
0.0131449
0.0115125
0.0078237
0.00783416
0.011527
0.0131568
0.0132518
0.0116031
0.00786311
0.00789428
0.0116465
0.0132681
0.0133157
0.0116715
0.00790571
0.00794466
0.011723
0.0133387
0.0134463
0.0118034
0.00798122
0.00803121
0.0118644
0.0134757
0.0135377
0.0119202
0.00807273
0.00813836
0.0119933
0.0135895
0.0136875
0.0120742
0.00819772
0.0082761
0.0121622
0.0137487
0.0138314
0.0122602
0.00836803
0.00847549
0.0123687
0.013921
0.0140205
0.0124909
0.00860202
0.00875066
0.0126275
0.0141293
0.0142695
0.0128083
0.00894315
0.00916827
0.0130038
0.0144023
0.014547
0.0131887
0.00940969
0.00957398
0.013294
0.014604
0.0147511
0.0133503
0.00972374
0.0100409
0.0136132
0.0148327
0.0149224
0.0136659
0.0101142
0.0103446
0.0137646
0.0149731
0.0150991
0.013931
0.0105639
0.0108002
0.0140249
0.015198
0.0154408
0.014385
0.0111836
0.0113912
0.0144962
0.0155411
0.0158936
0.0149075
0.0119005
0.0120707
0.0149933
0.0159654
0.0160617
0.0155365
0.0129109
0.0125457
0.0143757
0.0140232
0.0417674
0.0307566
0.0179202
0.0121278
0.019969
0.0275569
0.018345
0.0162267
0.0112867
0.0105024
0.0144139
0.0156771
0.0150954
0.0140823
0.0105295
0.0106449
0.0143348
0.0155937
0.0153641
0.0142363
0.0108163
0.0112603
0.0146614
0.0158285
0.0155609
0.0144706
0.0114279
0.0121502
0.0152643
0.0162713
0.0161599
0.0151612
0.012323
0.0130936
0.0157388
0.0164651
0.0143797
0.0147313
0.0130416
0.01825
0.0301468
0.0405269
0.0284433
0.0211014
0.0136175
0.0128794
0.0171992
0.0191803
0.0171747
0.0158764
0.012522
0.0126047
0.0156941
0.0167331
0.0165583
0.0156577
0.0128523
0.0129701
0.0156196
0.0164647
0.0163917
0.0158345
0.0135032
0.0131525
0.0144078
0.0138182
0.0403548
0.0301458
0.0185367
0.0142419
0.0213915
0.0284569
0.0191329
0.0173174
0.0133755
0.0130566
0.0159395
0.0167164
0.0160932
0.0155466
0.0131491
0.01355
0.0158284
0.0163645
0.014081
0.0147324
0.0134953
0.0184948
0.0296436
0.0392503
0.0288755
0.0217939
0.014716
0.0142743
0.017973
0.0196411
0.0175378
0.016445
0.0137417
0.014221
0.0163916
0.016753
0.0135897
0.014403
0.0135574
0.0188904
0.0295568
0.0389819
0.0283885
0.0218742
0.0151402
0.0141481
0.0173437
0.0187275
0.016418
0.0159803
0.0138762
0.013714
0.0145394
0.0137308
0.0371661
0.0283933
0.0183959
0.0153067
0.021833
0.028236
0.0189805
0.0174916
0.0144645
0.0141935
0.0160908
0.0165198
0.0127537
0.0138463
0.0136682
0.0183074
0.0273276
0.0346175
0.0258244
0.0207844
0.0154137
0.0137593
0.0146504
0.0139655
0.0320314
0.0254231
0.0172172
0.0142809
0.019299
0.0239068
0.0119525
0.0127693
0.0122316
0.0143479
0.0200911
0.0240202
0.0119903
0.0112587
0.00974704
0.0098136
0.0143506
0.0174618
0.00509195
0.00465186
0.0036551
0.00548896
0.00893702
0.0109589
0.0144075
0.0127548
0.00973282
0.0151986
0.0178713
0.0192884
0.0230767
0.0220194
0.0196337
0.0212842
0.0224489
0.0220204
0.0383191
0.0332306
0.0251802
0.0256586
0.0336707
0.038973
0.0382153
0.0336227
0.0260523
0.0272447
0.0369273
0.0434214
0.0271118
0.0272539
0.0238765
0.0256916
0.0364449
0.046271
0.0492647
0.0389571
0.0266389
0.0241743
0.0318197
0.0370495
0.0456259
0.0373414
0.0263913
0.0222259
0.0255932
0.0259839
0.0432182
0.0339722
0.0241668
0.0261029
0.0386682
0.0491465
0.0252285
0.0248332
0.0214094
0.0233414
0.0331842
0.0421914
0.0488847
0.0382453
0.0254582
0.0208312
0.0241552
0.024614
0.0416083
0.0324408
0.0227344
0.025048
0.0378107
0.0485833
0.0245366
0.0240297
0.0205523
0.0225876
0.0320661
0.0411604
0.0483822
0.0376899
0.0251074
0.0205426
0.0238723
0.0242726
0.0408671
0.0319585
0.0223264
0.024687
0.0374354
0.0480077
0.024339
0.0238064
0.0203619
0.0221775
0.0315936
0.0405733
0.0479554
0.0371882
0.0245381
0.019982
0.0233043
0.0238347
0.039463
0.0307543
0.0216411
0.0242154
0.0367876
0.0473716
0.0211068
0.021306
0.0190211
0.0198805
0.0251824
0.0278573
0.0404734
0.0308476
0.0211614
0.0233786
0.0365082
0.0476234
0.0227324
0.0223749
0.019093
0.0209819
0.0307452
0.0400092
0.04712
0.0363879
0.0235999
0.0193508
0.0229653
0.0235985
0.0404717
0.0310798
0.0210672
0.0236091
0.0367262
0.047398
0.0234549
0.0229747
0.0194075
0.0212055
0.0310748
0.0404833
0.0475664
0.0364951
0.0236028
0.0194064
0.0231716
0.0238666
0.0404821
0.0311278
0.0212715
0.0237467
0.036568
0.0475203
0.0235932
0.0230394
0.0193127
0.0215519
0.0314824
0.0405053
0.0475931
0.0368127
0.0238856
0.0196537
0.0235192
0.0241185
0.0411468
0.0316402
0.0216485
0.0241551
0.0370586
0.0478982
0.0242584
0.0236954
0.0198863
0.0219632
0.0325614
0.0425547
0.0473942
0.0367014
0.023827
0.0214524
0.0293129
0.0347974
0.044152
0.0357282
0.0242672
0.0206261
0.0244756
0.0252122
0.041506
0.0323634
0.0224736
0.024674
0.037391
0.0479397
0.0248601
0.0240128
0.0201833
0.0221821
0.0320726
0.0411655
0.0482255
0.0376076
0.0246796
0.0204396
0.0240988
0.0246956
0.0419607
0.0325813
0.0225293
0.0248101
0.0377473
0.0484868
0.0250893
0.0243212
0.0204621
0.0225952
0.0326654
0.0421651
0.0488966
0.0380585
0.0251661
0.0209774
0.0247813
0.0254851
0.0443673
0.0340748
0.0232227
0.0248832
0.0378664
0.0488201
0.0368191
0.0311594
0.0227545
0.0247841
0.036318
0.0448597
0.0261769
0.0252919
0.0211756
0.0234713
0.0339815
0.0435095
0.0495966
0.0389396
0.0256973
0.0214153
0.0253638
0.0261148
0.0454267
0.0350253
0.023839
0.0253795
0.0384217
0.0496012
0.0373802
0.0315697
0.0232665
0.0256059
0.0371999
0.0458629
0.0271665
0.0262855
0.0220913
0.0242172
0.0346922
0.0445485
0.0506188
0.0396474
0.0264391
0.0222074
0.0262297
0.0268756
0.0464383
0.0357245
0.024477
0.0259774
0.0390799
0.0502465
0.038345
0.0324097
0.0238183
0.0261491
0.0379051
0.0465334
0.0274956
0.0266943
0.0226388
0.0247274
0.0356456
0.0458458
0.0515759
0.0407435
0.027094
0.0227956
0.0268103
0.0274932
0.0477264
0.0367425
0.0251227
0.0266505
0.0401049
0.0514352
0.0393792
0.0333004
0.0244232
0.0268609
0.0388429
0.0474467
0.0286834
0.0277562
0.0233884
0.0257245
0.0373538
0.0486628
0.0521016
0.0407959
0.0272706
0.0252815
0.0341849
0.0403802
0.0483933
0.0396745
0.0276574
0.0237291
0.0281583
0.02907
0.0492151
0.0382088
0.0263643
0.0276
0.0410321
0.0524021
0.0408935
0.0345779
0.0256174
0.0282022
0.0402019
0.0490208
0.0298695
0.0289581
0.0243651
0.0270586
0.0389944
0.0503305
0.053597
0.0421102
0.0284838
0.0262762
0.0353842
0.0417992
0.0497769
0.040863
0.0285995
0.0247894
0.0292692
0.0301317
0.0508749
0.0394987
0.0270352
0.0286571
0.0427018
0.0542214
0.04266
0.0360106
0.0266328
0.0289702
0.0413758
0.0505316
0.0309316
0.0299948
0.0253085
0.0278332
0.0406635
0.0524474
0.0548457
0.0432904
0.0291717
0.0275623
0.0377378
0.0448403
0.0504205
0.0413072
0.0291234
0.0272037
0.0368187
0.0432233
0.050523
0.0418268
0.0294484
0.0259667
0.0308806
0.0319471
0.0533184
0.0413697
0.0288458
0.0301692
0.0444212
0.0561487
0.0447178
0.0378259
0.0280462
0.030233
0.0431464
0.0521082
0.0320463
0.0311818
0.0264821
0.0290478
0.0422106
0.0545648
0.0567763
0.0447205
0.0302116
0.028419
0.0389519
0.0466093
0.0522648
0.0426081
0.0299442
0.0284476
0.0382586
0.0451424
0.052651
0.0436376
0.0310759
0.0270419
0.0320997
0.0332646
0.0560584
0.0436219
0.0302449
0.0313521
0.0460659
0.0583021
0.0481885
0.0402839
0.0294242
0.0310388
0.0439509
0.053464
0.0467697
0.0396687
0.0295188
0.0315062
0.0444117
0.0533826
0.03401
0.0328055
0.0276934
0.0305992
0.0441439
0.0570718
0.0589649
0.0467224
0.0318663
0.0303148
0.0413553
0.0492281
0.0547347
0.0451214
0.0319247
0.0303541
0.0406022
0.0475964
0.0548769
0.0457999
0.0326385
0.0287058
0.0339257
0.034998
0.0583724
0.0453964
0.0315779
0.0329278
0.0480098
0.0604331
0.0502361
0.0419798
0.0306557
0.0324892
0.0457731
0.0555139
0.0488502
0.0412905
0.0307545
0.0335081
0.0466587
0.0559309
0.035671
0.0344878
0.0293224
0.0324764
0.0469064
0.0602203
0.0618011
0.0488415
0.0333665
0.0316586
0.0434468
0.0516915
0.0571556
0.0472048
0.0332845
0.0318646
0.0427134
0.0500488
0.0573574
0.0477838
0.0342672
0.0299463
0.0352974
0.0364242
0.0614241
0.047599
0.0331286
0.0342285
0.0498894
0.0629887
0.0529998
0.0444396
0.0327131
0.0344966
0.0482896
0.0582061
0.0534444
0.0450659
0.0330286
0.0347691
0.0483085
0.0582382
0.0520399
0.0442125
0.0328629
0.0355439
0.0494442
0.0587926
0.0383533
0.0371086
0.0313085
0.0347453
0.0496831
0.0635467
0.0646772
0.0512751
0.0353944
0.0337385
0.0459041
0.0546056
0.0591456
0.0490496
0.0351458
0.0338179
0.0458191
0.0546808
0.0595616
0.0495348
0.035865
0.0339064
0.0454527
0.0532368
0.0605055
0.0507033
0.0366035
0.0320949
0.0378209
0.0390718
0.065514
0.0513273
0.0358225
0.0367335
0.0532023
0.0664775
0.0563499
0.0473996
0.0349321
0.0365536
0.0508711
0.0614136
0.0565165
0.0478408
0.0350902
0.0368281
0.0510562
0.0611428
0.054938
0.0467874
0.0350068
0.037554
0.0517824
0.0620682
0.0404484
0.0390664
0.033037
0.0369416
0.0527973
0.0673803
0.0684362
0.054402
0.0377015
0.0359453
0.048693
0.0580905
0.062826
0.0521292
0.0376117
0.0364223
0.0493171
0.0585228
0.0630727
0.0526079
0.0381243
0.0360376
0.0478986
0.0564993
0.0639144
0.0535451
0.0389676
0.0342283
0.0400995
0.0411579
0.0693729
0.054284
0.0377864
0.0387186
0.0561619
0.0704422
0.0597981
0.0501036
0.0368902
0.0387496
0.0540177
0.0648726
0.0605515
0.0510305
0.0377105
0.039275
0.0539089
0.0643831
0.0609831
0.051066
0.0376252
0.0397989
0.0544838
0.0652063
0.0595156
0.0505159
0.0377551
0.0402813
0.0553592
0.0660682
0.0429992
0.0416705
0.0356052
0.0397691
0.0562516
0.0723114
0.0728098
0.0580459
0.0406214
0.0384726
0.0521481
0.0619005
0.0668511
0.0558872
0.0401634
0.0389442
0.0524572
0.0621252
0.0664349
0.0557506
0.0407149
0.039082
0.0527476
0.0624937
0.0674479
0.0563016
0.041197
0.0390952
0.0517248
0.0610703
0.0686829
0.0575666
0.0421957
0.036823
0.0430089
0.0445885
0.0747847
0.0585886
0.0412436
0.0424494
0.0606724
0.0755736
0.0645329
0.0547764
0.0406488
0.0421755
0.0581434
0.069614
0.0646934
0.0549012
0.0407528
0.0424295
0.0578424
0.0689843
0.0653734
0.0551958
0.0409545
0.0429303
0.0585429
0.0697476
0.0638298
0.0539482
0.0405693
0.0435663
0.0594008
0.0707179
0.0462708
0.0450371
0.038464
0.04272
0.0606096
0.0772161
0.0782727
0.0623895
0.0435997
0.0417153
0.0561823
0.0666639
0.0720769
0.0596103
0.0433308
0.0420085
0.056572
0.0670192
0.0712096
0.0600277
0.0439394
0.0421919
0.0568009
0.0677357
0.0725865
0.0609007
0.0444547
0.0422091
0.0559755
0.0655038
0.0736199
0.0622316
0.045381
0.0398804
0.046379
0.0477326
0.0805998
0.0627997
0.0444802
0.045452
0.0646665
0.0815025
0.0693201
0.0586684
0.043594
0.0453283
0.0624808
0.0748342
0.0697141
0.0586473
0.0437302
0.0457125
0.0619754
0.074083
0.0704075
0.0592859
0.0440338
0.0462381
0.0628002
0.0747765
0.0685998
0.0583201
0.0440287
0.0471153
0.0642368
0.0761202
0.049561
0.0482438
0.0415223
0.0461822
0.065279
0.0835861
0.0844703
0.0673175
0.0473073
0.0452953
0.0607582
0.0718561
0.0773816
0.0648264
0.0471226
0.0454653
0.061165
0.0722826
0.0769957
0.0646772
0.0473991
0.0457587
0.0616054
0.0730811
0.0775807
0.0653211
0.0480966
0.0461538
0.0618449
0.0732024
0.0784987
0.0660579
0.048737
0.0459969
0.060448
0.0710061
0.0798082
0.0672414
0.0496877
0.0435658
0.0504335
0.0519096
0.0871263
0.0683038
0.0485392
0.0498955
0.0708585
0.0880907
0.075139
0.0635716
0.0475983
0.0495228
0.0679258
0.0812588
0.0756333
0.0641325
0.0479714
0.0501433
0.0680319
0.0806194
0.0761916
0.064453
0.0484022
0.0506819
0.0683821
0.0817521
0.0739818
0.0630939
0.0479678
0.0512807
0.0695826
0.0825898
0.0543461
0.0527052
0.0454019
0.0506222
0.0712084
0.0907163
0.0915647
0.0736553
0.0517707
0.0494056
0.0659654
0.0779519
0.0838071
0.0698569
0.0512951
0.0496356
0.0663711
0.0784166
0.0835092
0.0703933
0.0518538
0.0501196
0.0668447
0.0788391
0.0845117
0.0711799
0.0525218
0.0499088
0.0654825
0.0766268
0.0860446
0.0728752
0.0535945
0.0469874
0.0542805
0.0557756
0.0941017
0.0739661
0.0528544
0.0541623
0.0765254
0.0950191
0.0809361
0.0684456
0.0514179
0.0535292
0.073139
0.0875471
0.0814299
0.0690129
0.051816
0.0542405
0.073217
0.0871642
0.0820287
0.0693746
0.0520846
0.054774
0.0739561
0.0881269
0.0797491
0.0680971
0.0519746
0.055756
0.0753963
0.0890939
0.0586254
0.0569796
0.0492459
0.0549704
0.0769377
0.0981045
0.0990994
0.0793233
0.0564178
0.05404
0.0716611
0.0844668
0.0906114
0.076085
0.0560184
0.0541165
0.0718351
0.0846777
0.0905973
0.0761739
0.0565669
0.0543056
0.0721631
0.0850441
0.0915874
0.0772115
0.0571474
0.0538476
0.070489
0.0824502
0.0931323
0.0788998
0.0581133
0.0510933
0.0587892
0.0603459
0.101417
0.0796411
0.0569093
0.0584855
0.0825016
0.102946
0.0873612
0.0740501
0.0559726
0.0584193
0.0793054
0.0950034
0.0880348
0.0747974
0.056512
0.059194
0.0795474
0.0947134
0.0861926
0.0737567
0.0563413
0.0597885
0.0811799
0.096283
0.0621997
0.0607392
0.0528723
0.0590093
0.0826378
0.105145
0.106348
0.0855642
0.0604481
0.057617
0.0763597
0.0901304
0.0980393
0.0816158
0.0599062
0.0579407
0.0766452
0.0901357
0.0980473
0.0823741
0.0609219
0.0576843
0.0753577
0.0879549
0.0995512
0.0841949
0.0621616
0.054491
0.0624964
0.0639219
0.108789
0.0853857
0.0610184
0.0628159
0.0888577
0.11044
0.0935861
0.0793002
0.0599109
0.0627279
0.0853367
0.101811
0.0940077
0.0800591
0.0604304
0.0628656
0.085017
0.101408
0.0918437
0.0785061
0.0600775
0.064314
0.0869786
0.103195
0.0660183
0.0646058
0.0562715
0.0632552
0.0882638
0.112472
0.114323
0.0915219
0.0650018
0.0615179
0.0815909
0.0962324
0.104923
0.0880985
0.0645381
0.0622508
0.0821804
0.0964691
0.10509
0.0881741
0.0652273
0.0618372
0.0806442
0.0940515
0.107015
0.0905025
0.0667233
0.058617
0.0670545
0.0685147
0.117162
0.0920543
0.0658503
0.067701
0.0959689
0.119526
0.100108
0.0849902
0.064263
0.0672391
0.091377
0.109646
0.100314
0.085315
0.0644877
0.0675195
0.0914523
0.108905
0.0978848
0.0838122
0.0642024
0.0688542
0.0931327
0.110475
0.0706343
0.0690744
0.0603645
0.0674571
0.0940912
0.119691
0.123068
0.0983275
0.0696257
0.0663544
0.0871913
0.102496
0.113562
0.0946322
0.0695555
0.0660475
0.0856281
0.0993596
0.11467
0.0967834
0.0710916
0.0628857
0.071529
0.0726949
0.124696
0.0983569
0.0705435
0.0726483
0.102822
0.127994
0.106278
0.090239
0.0684949
0.0717524
0.0972587
0.116792
0.106279
0.0905112
0.0686658
0.0724453
0.0980431
0.116691
0.103474
0.0887972
0.0684254
0.0739356
0.099857
0.118653
0.0760744
0.074185
0.0645585
0.0727507
0.100764
0.127582
0.130887
0.105247
0.0749796
0.0710827
0.0931765
0.109331
0.121674
0.101577
0.0745539
0.0710845
0.0915378
0.10603
0.122841
0.103634
0.0771763
0.0675101
0.076537
0.077544
0.131193
0.103518
0.0744652
0.0773804
0.109117
0.135695
0.111967
0.0952252
0.0726539
0.0772347
0.10475
0.125616
0.108337
0.0931811
0.0720719
0.0781532
0.105983
0.125863
0.0797709
0.0779161
0.0679842
0.0766301
0.105765
0.133779
0.140266
0.112279
0.0798621
0.0739038
0.0951652
0.110565
0.130515
0.109367
0.0801997
0.0698502
0.0790422
0.0800107
0.139076
0.109587
0.079067
0.0825456
0.116074
0.144027
0.119098
0.10192
0.0779987
0.0812433
0.110742
0.13282
0.114955
0.0990455
0.0766494
0.0818852
0.111388
0.132677
0.0827718
0.0814269
0.0717507
0.0797784
0.110512
0.140233
0.147725
0.117971
0.083478
0.077113
0.0994956
0.115615
0.137561
0.115188
0.0838449
0.0725581
0.0820771
0.0831747
0.144213
0.113697
0.0819069
0.0858723
0.121888
0.152324
0.120735
0.103863
0.0804948
0.0871691
0.118907
0.142335
0.085235
0.0848665
0.0756887
0.0834483
0.116133
0.147697
0.156928
0.125339
0.0881197
0.0811826
0.104583
0.121233
0.144974
0.121137
0.0881106
0.0760851
0.0857781
0.0866546
0.150833
0.118571
0.0853286
0.0896534
0.127546
0.160467
0.125293
0.107806
0.083336
0.0901268
0.124319
0.148723
0.0886142
0.0880645
0.0782117
0.0882764
0.122339
0.155471
0.167077
0.134244
0.0946697
0.0877492
0.11221
0.128784
0.154124
0.128502
0.0933786
0.0803398
0.0900924
0.0908765
0.158036
0.12445
0.0897884
0.094425
0.134097
0.168478
0.130567
0.112398
0.0872235
0.0944669
0.130068
0.156792
0.0927242
0.0921271
0.0819255
0.0917996
0.126733
0.160598
0.173349
0.13882
0.0976658
0.0896496
0.114567
0.132433
0.16339
0.136269
0.0994506
0.0858071
0.0951127
0.0952196
0.161248
0.129063
0.0948312
0.100954
0.144356
0.180237
0.0950253
0.0943889
0.0846739
0.0948011
0.131191
0.166349
0.180326
0.143602
0.100505
0.0919118
0.117778
0.136196
0.167235
0.139069
0.100854
0.0866008
0.0971423
0.0979049
0.164304
0.130906
0.0962756
0.105001
0.15042
0.187841
0.09659
0.0971221
0.0882749
0.100068
0.13567
0.170041
0.194467
0.154404
0.108124
0.088927
0.0984261
0.0984301
0.176099
0.138996
0.10038
0.107491
0.154047
0.194405
0.143833
0.124551
0.0974857
0.107802
0.149318
0.179525
0.103296
0.102637
0.0917628
0.102104
0.137693
0.172008
0.20058
0.160366
0.112383
0.0937313
0.102707
0.102365
0.17773
0.142521
0.10586
0.114505
0.163729
0.205738
0.103307
0.103193
0.0934359
0.103745
0.140447
0.17582
0.207861
0.164908
0.114682
0.0938888
0.103556
0.103598
0.177608
0.141789
0.104833
0.116212
0.167542
0.210626
0.106051
0.106162
0.0961655
0.107873
0.144886
0.181251
0.218284
0.174059
0.121363
0.0940271
0.0976341
0.0927907
0.123472
0.115264
0.0981097
0.105389
0.144955
0.185339
0.225238
0.17534
0.119144
0.0959382
0.104732
0.103708
0.182777
0.145423
0.107622
0.123587
0.179831
0.228047
0.0928556
0.0979059
0.095857
0.105662
0.122936
0.130252
0.191777
0.150515
0.10964
0.123652
0.183472
0.237001
0.0934967
0.0978708
0.0940306
0.100745
0.118923
0.127949
0.191407
0.149223
0.108983
0.12925
0.190718
0.243449
0.092089
0.0985391
0.0975212
0.106353
0.123697
0.129981
0.190376
0.148489
0.107995
0.127902
0.190872
0.246942
0.091228
0.096689
0.0943353
0.0990318
0.110903
0.11433
0.130418
0.120244
0.103095
0.114564
0.156956
0.197864
0.249205
0.190911
0.125636
0.0907933
0.0938686
0.0891575
0.104012
0.102386
0.0927105
0.0917495
0.100402
0.102675
0.107867
0.105715
0.0938406
0.0928237
0.112055
0.120005
0.17738
0.135656
0.0967393
0.124052
0.190517
0.250232
0.0843412
0.0897319
0.087621
0.0869172
0.0962456
0.0968641
0.0919348
0.08823
0.0777254
0.0765211
0.087638
0.0901173
0.0868914
0.083452
0.0708129
0.0662958
0.0796915
0.0837802
0.0807455
0.0761381
0.0619612
0.0590769
0.0738272
0.0788947
0.0769493
0.0716526
0.0564205
0.0542329
0.0698682
0.0756242
0.074244
0.068213
0.052281
0.0506215
0.0668125
0.0732076
0.0721608
0.0655061
0.0491176
0.047745
0.0642799
0.0712617
0.0703895
0.0632445
0.0465825
0.0453439
0.0620259
0.0695764
0.0686447
0.0609847
0.0442954
0.0433429
0.0600062
0.0679018
0.067105
0.0590814
0.0424771
0.0416922
0.0582144
0.0664251
0.0656867
0.0573948
0.0409792
0.0403344
0.056628
0.0650605
0.0643729
0.0559028
0.0397499
0.0392241
0.0552258
0.0637939
0.0631522
0.0545855
0.0387493
0.0383246
0.053989
0.0626154
0.0620135
0.0534237
0.0379424
0.0376034
0.0528992
0.0615148
0.0609514
0.0524026
0.0373001
0.0370333
0.0519437
0.0604893
0.0599611
0.0515082
0.036795
0.0365876
0.0511076
0.0595331
0.0590396
0.050727
0.0364029
0.0362441
0.0503782
0.0586456
0.0581859
0.0500449
0.036103
0.0359837
0.0497399
0.0578247
0.0573975
0.0494471
0.0358778
0.0357901
0.0491803
0.0570678
0.0566717
0.0489227
0.0357123
0.0356497
0.0486892
0.056372
0.0560054
0.0484623
0.0355941
0.0355512
0.0482579
0.0557347
0.0553969
0.0480578
0.0355128
0.0354851
0.0478787
0.0551539
0.054843
0.0477016
0.0354598
0.0354435
0.0475441
0.0546263
0.0543415
0.0473904
0.0354334
0.0354256
0.0472511
0.0541497
0.053888
0.0471156
0.035425
0.0354225
0.0469915
0.0537192
0.0534802
0.0468708
0.0354256
0.0354254
0.0467604
0.0533327
0.0531129
0.0466524
0.0354305
0.0354317
0.0465543
0.0529844
0.0527839
0.0464584
0.0354373
0.0354381
0.0463713
0.0526727
0.0524878
0.0462854
0.0354437
0.0354445
0.0462082
0.0523919
0.0522231
0.0461319
0.0354493
0.0354488
0.0460634
0.0521412
0.0519841
0.0459949
0.0354534
0.0354531
0.0459346
0.0519144
0.0517714
0.0458745
0.035457
0.035455
0.0458215
0.051714
0.0515806
0.0457674
0.0354577
0.0354555
0.0457204
0.0515317
0.0514096
0.0456728
0.0354571
0.0354534
0.0456312
0.0513698
0.0512552
0.0455883
0.0354543
0.0354506
0.0455515
0.0512223
0.0511168
0.0455135
0.0354508
0.035446
0.0454805
0.0510912
0.0509911
0.0454455
0.0354457
0.0354411
0.0454158
0.0509707
0.0508779
0.0453844
0.0354402
0.0354345
0.0453575
0.050863
0.0507739
0.0453282
0.035433
0.0354275
0.0453039
0.0507628
0.0506798
0.0452776
0.0354257
0.0354205
0.0452564
0.0506733
0.0505928
0.0452308
0.0354171
0.0354121