/*--------------------------------*- C++ -*----------------------------------*\
| =========                 |                                                 |
| \\      /  F ield         | OpenFOAM: The Open Source CFD Toolbox           |
|  \\    /   O peration     | Version:  v2006                                 |
|   \\  /    A nd           | Website:  www.openfoam.com                      |
|    \\/     M anipulation  |                                                 |
\*---------------------------------------------------------------------------*/
FoamFile
{
    version     2.0;
    format      ascii;
    class       volScalarField;
    location    "0.017";
    object      nut;
}
// * * * * * * * * * * * * * * * * * * * * * * * * * * * * * * * * * * * * * //

dimensions      [0 2 -1 0 0 0 0];


internalField   nonuniform List<scalar> 
16277
(
27.9937
45.8009
50.179
28.6016
53.1458
36.663
7.06574
2.15752
0.991492
0.61523
0.462729
0.390047
0.348429
0.319133
0.295154
0.274112
0.255292
0.238523
0.223712
0.210727
0.199365
0.189342
0.180478
0.172614
0.165478
0.158996
0.153132
0.14775
0.142793
0.138222
0.133994
0.130072
0.126426
0.123029
0.119861
0.116903
0.114141
0.111563
0.109157
0.106913
0.104823
0.102879
0.101073
0.0993973
0.0978475
0.0964185
0.0951061
0.0939072
0.0928205
0.0918446
0.0909789
0.090223
0.0895768
0.0890407
0.0886154
0.0883022
0.0881025
0.0880189
0.0880547
0.0882148
0.0885051
0.0889335
0.0895092
0.0902432
0.0911488
0.092241
0.0935376
0.0950589
0.0968289
0.0988779
0.101245
0.103986
0.107172
0.110889
0.115218
0.120205
0.125827
0.132022
0.138871
0.147083
0.158929
0.18046
0.22652
0.334124
0.597492
1.19903
2.12811
2.45318
1.50217
1.01149
0.522256
0.233415
0.12436
0.0586872
0.0140074
0.00252169
8.3587e-05
7.24776e-05
0.00118486
0.00545807
0.00300643
0.000767155
6.3421e-05
5.6733e-05
0.000699066
0.00252766
0.0020176
0.000600854
5.2382e-05
4.89702e-05
0.000581979
0.00191312
0.00165486
0.000523907
4.60653e-05
4.41044e-05
0.00051456
0.00161124
0.00146457
0.000478813
4.21711e-05
4.11178e-05
0.000481383
0.00144843
0.00135217
0.000454904
3.98355e-05
3.91376e-05
0.000458528
0.00134255
0.00126898
0.000437155
3.81907e-05
3.77045e-05
0.000440804
0.00126411
0.00120346
0.000422812
3.69694e-05
3.6617e-05
0.000426468
0.00120147
0.0011494
0.00041083
3.60227e-05
3.57574e-05
0.000414585
0.0011493
0.00110334
0.000400515
3.52583e-05
3.50517e-05
0.000404317
0.00110452
0.00106316
0.00039134
3.46172e-05
3.44482e-05
0.000395112
0.00106516
0.00102737
0.000382936
3.40568e-05
3.39133e-05
0.000386675
0.00102995
0.000995085
0.000375159
3.35548e-05
3.34323e-05
0.000378889
0.000998126
0.000965778
0.000367964
3.31019e-05
3.29955e-05
0.000371684
0.000969162
0.00093893
0.000361274
3.26861e-05
3.2591e-05
0.000364995
0.000942661
0.000914315
0.000355064
3.2299e-05
3.22143e-05
0.00035879
0.000918411
0.000891774
0.000349287
3.19363e-05
3.18592e-05
0.000353004
0.000896196
0.000871081
0.00034387
3.15917e-05
3.15201e-05
0.000347573
0.00087578
0.000852019
0.000338774
3.12611e-05
3.1194e-05
0.000342472
0.000856967
0.00083442
0.000333986
3.0942e-05
3.08787e-05
0.000337678
0.000839572
0.000818065
0.000329459
3.0632e-05
3.05716e-05
0.000333129
0.000823351
0.000802719
0.000325134
3.03292e-05
3.02716e-05
0.000328773
0.000808086
0.000788222
0.000320978
3.0033e-05
2.99781e-05
0.000324587
0.000793645
0.000774475
0.000316973
2.97425e-05
2.96897e-05
0.000320545
0.000779921
0.000761367
0.000313092
2.94562e-05
2.94053e-05
0.000316624
0.000766813
0.000748825
0.000309317
2.9173e-05
2.91234e-05
0.000312806
0.000754261
0.00073678
0.000305623
2.8891e-05
2.88419e-05
0.000309059
0.000742174
0.000725105
0.000301971
2.86076e-05
2.8558e-05
0.00030534
0.000730411
0.000713654
0.000298316
2.83202e-05
2.82689e-05
0.000301608
0.000718833
0.000702303
0.000294624
2.8026e-05
2.79722e-05
0.000297832
0.000707334
0.000690968
0.000290868
2.77233e-05
2.76664e-05
0.000293989
0.000695833
0.000679581
0.000287033
2.74109e-05
2.73506e-05
0.000290062
0.000684262
0.000668095
0.000283112
2.70881e-05
2.70246e-05
0.000286052
0.000672585
0.000656503
0.000279111
2.67548e-05
2.66882e-05
0.00028201
0.000660817
0.000644853
0.00027507
2.64111e-05
2.63416e-05
0.000277918
0.000649013
0.000633189
0.000270983
2.6057e-05
2.59845e-05
0.00027379
0.000637206
0.000621527
0.000266859
2.5692e-05
2.56166e-05
0.000269636
0.00062541
0.000609879
0.000262711
2.53159e-05
2.52377e-05
0.000265473
0.000613644
0.000598276
0.000258562
2.49291e-05
2.48484e-05
0.000261329
0.000601952
0.000586794
0.000254447
2.45324e-05
2.44501e-05
0.000257248
0.000590441
0.000575564
0.000250421
2.41281e-05
2.40454e-05
0.000253296
0.00057943
0.000564815
0.000246561
2.37191e-05
2.3638e-05
0.000249548
0.000568902
0.000554631
0.00024294
2.33095e-05
2.32318e-05
0.000246083
0.000559062
0.000545227
0.00023964
2.29036e-05
2.28316e-05
0.00024299
0.000550134
0.000536834
0.000236759
2.25064e-05
2.24429e-05
0.000240375
0.000542361
0.0005297
0.000234407
2.21237e-05
2.20733e-05
0.000238347
0.000535992
0.000524074
0.000232721
2.17624e-05
2.17321e-05
0.000236918
0.000531272
0.00052022
0.000231697
2.14387e-05
2.14169e-05
0.000235988
0.000528394
0.000518195
0.00023113
2.11618e-05
2.11455e-05
0.000235563
0.000527532
0.000518166
0.00023113
2.09367e-05
2.09205e-05
0.000235677
0.000528598
0.000520031
0.000231698
2.07812e-05
2.07479e-05
0.000236279
0.000531381
0.000523535
0.000232725
2.06475e-05
2.06494e-05
0.000237317
0.000535794
0.00052877
0.00023392
2.05535e-05
2.05935e-05
0.000238424
0.000541731
0.000535428
0.000235263
2.051e-05
2.05978e-05
0.000239448
0.000548518
0.000542607
0.000236519
2.05275e-05
2.06472e-05
0.000240299
0.000555285
0.000549616
0.000237553
2.05921e-05
2.07366e-05
0.000241116
0.000561775
0.000556338
0.000238397
2.06965e-05
2.0861e-05
0.000241916
0.000567874
0.000562707
0.00023922
2.0836e-05
2.10197e-05
0.000242753
0.000573565
0.000568603
0.000239905
2.10071e-05
2.1202e-05
0.000243519
0.00057886
0.000573745
0.000240481
2.12005e-05
2.14011e-05
0.000244155
0.000583396
0.000577961
0.000240939
2.14086e-05
2.16082e-05
0.000244637
0.000587138
0.000581289
0.000241272
2.16222e-05
2.18144e-05
0.000244938
0.000590289
0.00058374
0.00024148
2.18328e-05
2.2013e-05
0.000245178
0.000592304
0.00058498
0.000241286
2.20344e-05
2.21992e-05
0.000244907
0.00059291
0.00058456
0.000240785
2.22205e-05
2.23652e-05
0.000244309
0.000591936
0.000582901
0.000240063
2.23845e-05
2.2507e-05
0.000243464
0.00058964
0.000580068
0.000239157
2.25231e-05
2.26229e-05
0.00024242
0.000586144
0.000576159
0.000238113
2.2635e-05
2.2713e-05
0.000241241
0.000581773
0.000571479
0.000236984
2.27208e-05
2.2778e-05
0.000239979
0.000576708
0.000566212
0.000235809
2.27821e-05
2.28169e-05
0.000238667
0.000571188
0.000560446
0.000234604
2.28195e-05
2.28374e-05
0.000237314
0.000565219
0.000554346
0.000233331
2.28378e-05
2.2846e-05
0.000235957
0.000558955
0.000548061
0.000232048
2.28352e-05
2.28399e-05
0.0002346
0.000552535
0.000541671
0.000230744
2.28176e-05
2.2821e-05
0.000233209
0.000546005
0.000535184
0.000229398
2.27912e-05
2.27938e-05
0.000231802
0.000539395
0.00052868
0.000228025
2.27576e-05
2.27582e-05
0.000230396
0.000532788
0.000522242
0.000226666
2.27159e-05
2.27151e-05
0.000229022
0.000526281
0.000515992
0.000225347
2.26697e-05
2.26687e-05
0.000227712
0.000519985
0.000509973
0.00022408
2.26223e-05
2.26211e-05
0.000226442
0.000513943
0.000504182
0.000222855
2.25739e-05
2.25726e-05
0.000225215
0.000508172
0.000498703
0.000221682
2.25252e-05
2.2524e-05
0.000224045
0.000502736
0.000493578
0.000220576
2.24772e-05
2.24763e-05
0.000222941
0.000497667
0.00048882
0.000219538
2.24305e-05
2.24298e-05
0.000221903
0.00049295
0.000484391
0.000218557
2.23751e-05
2.23931e-05
0.000220953
0.000488596
0.000479938
0.000217638
2.23204e-05
2.2347e-05
0.000219845
0.00048473
0.000476479
0.000216179
2.2236e-05
2.23758e-05
0.000220098
0.000483907
0.000478455
0.000219942
2.23227e-05
2.2695e-05
0.000220355
0.000483803
0.000507698
0.000231912
2.28798e-05
2.44166e-05
0.00021751
0.000493482
0.000754146
0.000311335
2.76238e-05
3.02289e-05
0.000164124
0.000375811
0.00091985
0.00210467
0.00389877
0.00551568
0.00661435
0.00867728
0.00995827
0.0111189
0.0117682
0.0120955
0.0120352
0.011538
0.0108252
0.00964275
0.00848417
0.00666884
0.00585422
0.00428877
0.00322657
0.00220474
0.001257
0.000578543
0.000211384
8.77853e-05
1.82492e-05
1.12822e-05
8.13325e-05
0.000191562
0.000180878
7.71586e-05
1.08222e-05
1.03778e-05
7.43801e-05
0.00017145
0.000171978
7.32928e-05
1.02558e-05
1.01901e-05
7.28663e-05
0.000169203
0.00016929
7.21308e-05
1.0079e-05
1.00701e-05
7.20867e-05
0.000169032
0.000169534
7.21216e-05
1.00845e-05
1.0086e-05
7.2219e-05
0.000169882
0.000170151
7.23449e-05
1.01035e-05
1.0112e-05
7.24519e-05
0.00017066
0.000170901
7.25714e-05
1.01221e-05
1.01395e-05
7.27036e-05
0.000171452
0.000171749
7.28287e-05
1.01351e-05
1.0154e-05
7.29932e-05
0.00017232
0.00017263
7.30944e-05
1.01632e-05
1.0183e-05
7.32691e-05
0.000173237
0.00017353
7.33517e-05
1.0185e-05
1.01916e-05
7.35977e-05
0.000174186
0.00017449
7.36585e-05
1.02155e-05
1.02217e-05
7.38873e-05
0.000175162
0.000175479
7.3985e-05
1.02329e-05
1.02387e-05
7.42183e-05
0.000176184
0.000176512
7.43065e-05
1.02644e-05
1.02707e-05
7.45404e-05
0.000177235
0.000177578
7.46555e-05
1.0283e-05
1.02894e-05
7.49009e-05
0.000178334
0.000178688
7.50027e-05
1.03161e-05
1.03231e-05
7.52521e-05
0.000179465
0.000179834
7.53801e-05
1.03363e-05
1.03434e-05
7.56423e-05
0.000180643
0.000181022
7.57558e-05
1.03711e-05
1.03789e-05
7.60228e-05
0.000181849
0.000182243
7.61623e-05
1.03929e-05
1.0401e-05
7.64423e-05
0.000183101
0.000183505
7.66055e-05
1.04227e-05
1.04456e-05
7.6837e-05
0.000184382
0.000184799
7.69923e-05
1.04521e-05
1.04621e-05
7.73139e-05
0.000185704
0.00018613
7.74749e-05
1.04837e-05
1.0508e-05
7.77326e-05
0.000187049
0.000187487
7.78921e-05
1.05146e-05
1.05257e-05
7.82378e-05
0.000188434
0.000188879
7.84048e-05
1.05476e-05
1.0573e-05
7.86828e-05
0.000189835
0.000190289
7.88479e-05
1.05797e-05
1.05916e-05
7.92126e-05
0.000191267
0.000191724
7.93842e-05
1.06137e-05
1.06398e-05
7.96759e-05
0.000192699
0.00019316
7.98418e-05
1.06465e-05
1.06587e-05
8.02186e-05
0.00019415
0.00019461
8.03888e-05
1.06808e-05
1.0707e-05
8.0686e-05
0.000195591
0.000196045
8.08446e-05
1.07134e-05
1.07254e-05
8.12234e-05
0.000197036
0.000197482
8.13804e-05
1.07468e-05
1.07725e-05
8.16685e-05
0.000198443
0.000198864
8.18061e-05
1.07777e-05
1.07884e-05
8.2165e-05
0.000199816
0.000200211
8.22885e-05
1.08082e-05
1.08322e-05
8.25408e-05
0.000201105
0.000201463
8.26301e-05
1.08349e-05
1.0843e-05
8.29334e-05
0.000202311
0.000202626
8.29506e-05
1.08669e-05
1.08722e-05
8.31799e-05
0.000203379
0.000203652
8.31875e-05
1.08797e-05
1.08816e-05
8.33509e-05
0.000204317
0.000204527
8.32875e-05
1.09023e-05
1.0901e-05
8.33642e-05
0.000205054
0.00020521
8.32571e-05
1.09041e-05
1.0899e-05
8.32443e-05
0.000205601
0.000205688
8.30788e-05
1.0907e-05
1.0913e-05
8.28736e-05
0.000205883
0.000205886
8.26018e-05
1.09023e-05
1.08914e-05
8.24011e-05
0.000205977
0.000205819
8.20089e-05
1.08928e-05
1.08937e-05
8.16017e-05
0.000205844
0.000205471
8.10791e-05
1.08775e-05
1.08635e-05
8.06512e-05
0.000205474
0.000204898
7.99739e-05
1.08697e-05
1.08569e-05
7.9423e-05
0.000204866
0.000204141
7.86667e-05
1.08513e-05
1.08432e-05
7.80384e-05
0.000204121
0.000203295
7.72345e-05
1.08523e-05
1.08688e-05
7.65005e-05
0.000203324
0.000202511
7.56681e-05
1.08756e-05
1.09026e-05
7.49813e-05
0.000202722
0.000202152
7.41747e-05
1.09369e-05
1.09908e-05
7.3574e-05
0.000202659
0.000202726
7.28871e-05
1.10583e-05
1.11533e-05
7.23507e-05
0.000203952
0.000205209
7.13753e-05
1.12627e-05
1.13771e-05
7.09635e-05
0.000207565
0.00021084
7.18478e-05
1.1506e-05
1.16302e-05
7.22832e-05
0.00021389
0.000215575
7.195e-05
1.16678e-05
1.17612e-05
7.06645e-05
0.000219041
0.00022273
7.44824e-05
1.19393e-05
1.20639e-05
7.24561e-05
0.000225994
0.000229048
7.4295e-05
1.22752e-05
1.24329e-05
7.53453e-05
0.000235004
0.000236671
7.7079e-05
1.26545e-05
1.2959e-05
8.11575e-05
0.000244358
0.000245546
8.32476e-05
1.32562e-05
1.35162e-05
8.67138e-05
0.00025195
0.000253865
8.9767e-05
1.4023e-05
1.50685e-05
0.000104511
0.000264956
0.000263264
0.000110851
1.13127e-05
8.58104e-06
2.66993e-05
7.32421e-05
0.000205992
6.28324e-05
1.0111e-05
1.06269e-05
5.64277e-05
0.000189031
0.0001993
5.85887e-05
1.08959e-05
1.10921e-05
5.5328e-05
0.000190405
0.000205082
5.95798e-05
1.14298e-05
1.17712e-05
5.87351e-05
0.000202265
0.000222772
6.6956e-05
1.21848e-05
1.26237e-05
6.65239e-05
0.000218527
0.000239909
7.78063e-05
1.31602e-05
1.38789e-05
7.99885e-05
0.00024155
0.000269351
9.68724e-05
1.53464e-05
1.1739e-05
0.00010782
0.000275257
7.3765e-05
2.51625e-05
9.24023e-06
1.11151e-05
6.85397e-05
0.000231575
0.000226393
6.36282e-05
1.2098e-05
1.2881e-05
8.33889e-05
0.000280035
0.000285646
8.42532e-05
1.3415e-05
1.42198e-05
9.85216e-05
0.000318269
0.000327219
0.000105498
1.52053e-05
1.70509e-05
0.000126235
0.00035737
0.000346744
0.00013678
1.32897e-05
9.89468e-06
3.04135e-05
9.11461e-05
0.000283117
8.22072e-05
1.18368e-05
1.28273e-05
7.64656e-05
0.000277091
0.000318322
9.43098e-05
1.37234e-05
1.46853e-05
9.4383e-05
0.000313845
0.000355708
0.000120826
1.69743e-05
1.36383e-05
0.000141513
0.000358199
9.70179e-05
3.05928e-05
9.98769e-06
1.24321e-05
8.66696e-05
0.000321039
0.000330534
9.1343e-05
1.40981e-05
1.64275e-05
0.000130205
0.000426661
0.000446595
0.000152565
1.91782e-05
1.57909e-05
0.000177795
0.000451038
0.00012565
3.60034e-05
1.04946e-05
1.36757e-05
0.000117232
0.000400642
0.000397919
0.000113661
1.59933e-05
2.02077e-05
0.000169856
0.000504977
0.000513946
0.000198499
1.68232e-05
1.10373e-05
4.08799e-05
0.000157272
0.000519791
0.000152528
1.59768e-05
2.02656e-05
0.000161253
0.000560031
0.000779864
0.000271992
2.78306e-05
2.34986e-05
0.000290775
0.000751616
0.000266607
6.88483e-05
1.50468e-05
2.73142e-05
0.000282587
0.000818217
0.000819005
0.000301639
2.56141e-05
1.66475e-05
7.78074e-05
0.000324023
0.00112525
0.0003728
3.7668e-05
3.58512e-05
0.000429732
0.00122761
0.000573259
0.000159415
2.20038e-05
3.58804e-05
0.000473673
0.00137692
0.00106445
0.000350532
2.60599e-05
4.45343e-05
0.000546816
0.00109285
0.000974082
0.000457978
3.72878e-05
3.8207e-05
0.000440265
0.00107225
0.00139082
0.000487503
4.19281e-05
5.87076e-05
0.000923907
0.0023296
0.000496669
0.000155417
3.40943e-05
3.48162e-05
0.000434863
0.00098492
0.000307403
0.000110833
2.45564e-05
2.65156e-05
0.000267622
0.000638493
0.000544253
0.000197436
2.67666e-05
1.47544e-05
5.14303e-05
0.000156456
0.000366331
0.000204992
1.76451e-05
1.66975e-05
6.65572e-05
0.000167812
0.000404271
0.000178458
1.89871e-05
2.03013e-05
0.000145283
0.000365209
0.000119545
4.54508e-05
1.34693e-05
1.5948e-05
0.000141251
0.000315918
0.000289249
0.000118729
1.79315e-05
1.25492e-05
3.90288e-05
9.76596e-05
0.000268367
0.000120269
1.44653e-05
1.67304e-05
0.000105093
0.000245946
8.62245e-05
3.65576e-05
1.22239e-05
1.36366e-05
0.000107173
0.000236179
0.000213561
9.43896e-05
1.60209e-05
1.19509e-05
3.35338e-05
7.68514e-05
0.000208351
9.61545e-05
1.2876e-05
1.54521e-05
8.48677e-05
0.000189487
6.94439e-05
3.15756e-05
1.17741e-05
1.25108e-05
8.94159e-05
0.000187618
0.000169563
7.86443e-05
1.49943e-05
1.15475e-05
2.97569e-05
6.43527e-05
0.00017135
8.26757e-05
1.19676e-05
1.46945e-05
7.34627e-05
0.000156611
6.22782e-05
2.9529e-05
1.15904e-05
1.20155e-05
8.38224e-05
0.000166751
0.000142051
6.79063e-05
1.51779e-05
1.26647e-05
5.40337e-05
0.000115961
4.62001e-05
2.15439e-05
1.06007e-05
1.01446e-05
5.64543e-05
0.000114088
0.000107925
5.28026e-05
1.29279e-05
1.04316e-05
2.14605e-05
4.45109e-05
0.000105115
5.40099e-05
9.883e-06
1.27224e-05
4.99398e-05
9.78788e-05
4.16533e-05
2.09536e-05
1.03299e-05
9.64167e-06
5.03738e-05
9.31918e-05
8.93598e-05
4.80315e-05
1.2433e-05
1.02549e-05
2.01143e-05
3.93342e-05
8.84176e-05
4.84229e-05
9.57663e-06
1.23543e-05
4.58254e-05
8.34746e-05
3.78103e-05
1.96143e-05
1.00843e-05
9.29864e-06
4.47101e-05
8.09364e-05
7.79483e-05
4.37258e-05
1.21715e-05
1.01332e-05
1.90628e-05
3.56837e-05
7.61569e-05
4.34482e-05
9.18872e-06
1.20479e-05
4.11196e-05
7.2751e-05
3.40416e-05
1.88715e-05
9.94437e-06
8.92601e-06
4.03501e-05
6.88008e-05
6.69974e-05
3.82786e-05
1.1794e-05
9.76602e-06
1.73145e-05
3.04035e-05
5.97549e-05
4.45508e-05
8.5669e-06
1.10346e-05
2.14901e-05
3.49905e-05
7.90332e-05
4.57401e-05
9.83864e-06
1.24563e-05
4.21524e-05
7.3253e-05
3.58743e-05
2.10333e-05
1.0223e-05
9.32539e-06
4.44917e-05
7.34676e-05
6.97386e-05
4.1184e-05
1.23136e-05
1.0264e-05
2.10063e-05
3.49561e-05
7.26297e-05
4.42207e-05
9.31614e-06
1.2193e-05
4.09958e-05
6.87126e-05
3.41976e-05
2.10483e-05
1.01745e-05
9.23416e-06
4.14829e-05
6.57259e-05
6.23667e-05
3.75635e-05
1.22718e-05
1.02122e-05
2.05377e-05
3.19946e-05
6.1693e-05
3.90199e-05
8.99208e-06
1.18478e-05
3.54069e-05
5.7228e-05
2.86123e-05
1.89204e-05
9.7447e-06
8.3629e-06
3.86881e-05
5.12052e-05
3.12371e-05
2.16609e-05
1.09443e-05
9.67194e-06
3.80293e-05
6.09062e-05
5.53744e-05
3.46125e-05
1.23399e-05
1.00841e-05
2.0915e-05
2.9967e-05
5.56622e-05
3.64204e-05
8.97094e-06
1.18806e-05
3.36119e-05
5.05006e-05
2.72534e-05
1.96561e-05
9.87921e-06
8.39136e-06
3.60256e-05
4.58552e-05
2.91927e-05
2.14502e-05
1.10566e-05
9.6015e-06
3.64711e-05
5.6049e-05
5.07326e-05
3.31089e-05
1.22037e-05
1.00406e-05
2.11129e-05
2.8495e-05
5.26693e-05
3.5178e-05
8.94064e-06
1.18761e-05
3.20068e-05
4.78262e-05
2.61956e-05
1.97015e-05
9.83864e-06
8.37888e-06
3.38194e-05
4.24395e-05
2.7565e-05
2.11271e-05
1.10732e-05
9.48669e-06
3.41263e-05
5.19863e-05
4.677e-05
3.1247e-05
1.21305e-05
1.00045e-05
2.10459e-05
2.66297e-05
4.74923e-05
3.24799e-05
8.92921e-06
1.18434e-05
2.9783e-05
4.32313e-05
2.44502e-05
1.94656e-05
9.80509e-06
8.32109e-06
3.10506e-05
3.81276e-05
2.54436e-05
2.0584e-05
1.10416e-05
9.32165e-06
3.11129e-05
4.64922e-05
4.16435e-05
2.84916e-05
1.19848e-05
9.73926e-06
1.98826e-05
2.39946e-05
3.74879e-05
3.12782e-05
8.14792e-06
1.09168e-05
2.11083e-05
2.5371e-05
4.60338e-05
3.05489e-05
9.22049e-06
1.20834e-05
2.82343e-05
4.12637e-05
2.41562e-05
2.04252e-05
9.9177e-06
8.33766e-06
3.04995e-05
3.70924e-05
2.54664e-05
2.15392e-05
1.09892e-05
9.15222e-06
3.08105e-05
4.55432e-05
4.07916e-05
2.83423e-05
1.19674e-05
9.82008e-06
2.04605e-05
2.39665e-05
3.67553e-05
3.10174e-05
8.14979e-06
1.103e-05
2.16804e-05
2.52817e-05
4.48442e-05
3.01633e-05
9.29691e-06
1.21288e-05
2.80508e-05
4.02791e-05
2.40124e-05
2.09869e-05
9.96979e-06
8.3381e-06
3.09771e-05
3.61865e-05
2.52102e-05
2.2142e-05
1.10521e-05
9.28009e-06
2.99396e-05
4.41249e-05
3.93873e-05
2.76381e-05
1.20152e-05
9.9126e-06
2.07335e-05
2.34924e-05
3.48567e-05
3.05067e-05
8.20536e-06
1.09008e-05
2.26238e-05
2.51357e-05
3.81522e-05
2.9408e-05
8.73915e-06
1.13353e-05
2.27906e-05
2.64391e-05
4.50027e-05
3.00012e-05
9.48969e-06
1.20707e-05
2.79701e-05
4.01313e-05
2.43048e-05
2.15564e-05
9.85954e-06
8.20814e-06
3.09128e-05
3.59132e-05
2.53764e-05
2.30069e-05
1.11224e-05
9.32644e-06
2.9714e-05
4.33801e-05
3.89203e-05
2.77418e-05
1.21283e-05
9.95957e-06
2.14162e-05
2.36957e-05
3.45374e-05
3.03463e-05
8.32562e-06
1.10891e-05
2.30725e-05
2.52944e-05
3.75581e-05
2.91891e-05
8.95031e-06
1.13167e-05
2.34033e-05
2.64279e-05
4.42627e-05
2.97558e-05
9.35877e-06
1.21207e-05
2.79239e-05
3.94838e-05
2.43981e-05
2.24203e-05
9.99206e-06
8.2624e-06
3.11999e-05
3.5369e-05
2.62041e-05
2.42121e-05
1.11301e-05
8.92122e-06
3.003e-05
3.85734e-05
2.73328e-05
2.47167e-05
1.14326e-05
9.53087e-06
3.0177e-05
4.51644e-05
4.02835e-05
2.84529e-05
1.2339e-05
1.00518e-05
2.29666e-05
2.50228e-05
3.58602e-05
3.20111e-05
8.31974e-06
1.11234e-05
2.45626e-05
2.66388e-05
3.86947e-05
3.05247e-05
8.93609e-06
1.14574e-05
2.50327e-05
2.76419e-05
4.52835e-05
3.05939e-05
9.54026e-06
1.22899e-05
2.89061e-05
4.04607e-05
2.54897e-05
2.37614e-05
1.01356e-05
8.46128e-06
3.23204e-05
3.63851e-05
2.72969e-05
2.54783e-05
1.13212e-05
9.15269e-06
3.11563e-05
3.93816e-05
2.83377e-05
2.58509e-05
1.15021e-05
9.50876e-06
3.08482e-05
4.56352e-05
4.07038e-05
2.91041e-05
1.22134e-05
1.00941e-05
2.36399e-05
2.54607e-05
3.59337e-05
3.23113e-05
8.43776e-06
1.13038e-05
2.51371e-05
2.69204e-05
3.83577e-05
3.04831e-05
9.10255e-06
1.15757e-05
2.56311e-05
2.77701e-05
4.41434e-05
3.02011e-05
9.58496e-06
1.2379e-05
2.8708e-05
3.95012e-05
2.53093e-05
2.39648e-05
1.02504e-05
8.49844e-06
3.21914e-05
3.56272e-05
2.69808e-05
2.53508e-05
1.12396e-05
8.89151e-06
3.00833e-05
3.79852e-05
2.83142e-05
2.58642e-05
1.13666e-05
9.04084e-06
3.08211e-05
3.94987e-05
2.91239e-05
2.74619e-05
1.15478e-05
9.61935e-06
3.14924e-05
4.53064e-05
4.0499e-05
2.99485e-05
1.23252e-05
1.01173e-05
2.48513e-05
2.61833e-05
3.64175e-05
3.32461e-05
8.48176e-06
1.13566e-05
2.60517e-05
2.77436e-05
3.83549e-05
3.06708e-05
9.14527e-06
1.153e-05
2.63709e-05
2.88589e-05
3.96721e-05
3.12141e-05
9.12426e-06
1.15871e-05
2.7926e-05
2.94966e-05
4.52981e-05
3.17145e-05
9.60993e-06
1.23554e-05
3.02101e-05
4.06181e-05
2.6744e-05
2.55512e-05
1.02697e-05
8.49933e-06
3.37307e-05
3.67511e-05
2.83004e-05
2.68586e-05
1.14394e-05
9.1659e-06
3.10628e-05
3.91437e-05
2.95999e-05
2.73613e-05
1.16226e-05
9.27158e-06
3.21315e-05
4.04978e-05
3.03995e-05
2.90149e-05
1.17536e-05
9.78123e-06
3.26809e-05
4.61267e-05
4.14156e-05
3.1118e-05
1.24916e-05
1.02704e-05
2.61707e-05
2.75745e-05
3.7181e-05
3.43898e-05
8.55035e-06
1.15009e-05
2.7382e-05
2.89339e-05
3.91537e-05
3.14396e-05
9.13488e-06
1.16274e-05
2.74892e-05
2.9802e-05
4.01897e-05
3.19343e-05
9.23082e-06
1.18164e-05
2.91057e-05
3.04439e-05
4.53515e-05
3.23207e-05
9.76711e-06
1.25575e-05
3.11286e-05
4.11291e-05
2.77971e-05
2.6646e-05
1.03829e-05
8.74702e-06
3.41347e-05
3.70412e-05
2.93352e-05
2.79609e-05
1.16258e-05
9.20685e-06
3.20839e-05
3.93518e-05
3.02997e-05
2.8133e-05
1.16297e-05
9.15001e-06
3.20076e-05
4.03502e-05
3.11002e-05
2.89385e-05
1.16382e-05
9.31736e-06
3.35604e-05
4.1417e-05
3.15861e-05
3.06039e-05
1.17732e-05
9.77756e-06
3.37636e-05
4.66024e-05
4.22343e-05
3.23248e-05
1.25252e-05
1.03657e-05
2.7172e-05
2.87425e-05
3.7374e-05
3.50598e-05
8.59995e-06
1.16718e-05
2.83685e-05
2.98797e-05
3.92492e-05
3.19021e-05
9.32416e-06
1.181e-05
2.86189e-05
3.08195e-05
4.01182e-05
3.21125e-05
9.26403e-06
1.17331e-05
2.96204e-05
3.13692e-05
4.15915e-05
3.38954e-05
9.37941e-06
1.18701e-05
3.13236e-05
3.20959e-05
4.72508e-05
3.44385e-05
9.84622e-06
1.26844e-05
3.31669e-05
4.29357e-05
2.9812e-05
2.86928e-05
1.05208e-05
8.6951e-06
3.65921e-05
3.87369e-05
3.10984e-05
2.98636e-05
1.16485e-05
9.19899e-06
3.36314e-05
4.113e-05
3.2286e-05
2.99495e-05
1.17875e-05
9.36497e-06
3.38882e-05
4.20901e-05
3.29858e-05
3.09838e-05
1.17952e-05
9.3867e-06
3.55174e-05
4.32724e-05
3.35482e-05
3.26012e-05
1.19291e-05
9.97715e-06
3.56473e-05
4.84764e-05
4.41855e-05
3.42486e-05
1.27017e-05
1.05408e-05
2.93746e-05
3.08639e-05
3.92018e-05
3.69441e-05
8.85023e-06
1.18202e-05
3.04926e-05
3.2049e-05
4.09432e-05
3.39203e-05
9.42703e-06
1.19944e-05
3.04382e-05
3.27959e-05
4.17701e-05
3.36372e-05
9.47233e-06
1.19758e-05
3.14205e-05
3.34243e-05
4.30788e-05
3.54147e-05
9.58961e-06
1.20757e-05
3.33501e-05
3.39956e-05
4.81706e-05
3.61325e-05
9.99209e-06
1.28706e-05
3.4972e-05
4.43077e-05
3.155e-05
3.04647e-05
1.0655e-05
8.87514e-06
3.81128e-05
3.99903e-05
3.28734e-05
3.15649e-05
1.18656e-05
9.42855e-06
3.48501e-05
4.18818e-05
3.38094e-05
3.1635e-05
1.20291e-05
9.52122e-06
3.49178e-05
4.30556e-05
3.46643e-05
3.25289e-05
1.19724e-05
9.57986e-06
3.66823e-05
4.42514e-05
3.52064e-05
3.41874e-05
1.20696e-05
1.00127e-05
3.67809e-05
4.89776e-05
4.48812e-05
3.56448e-05
1.29258e-05
1.07084e-05
3.09276e-05
3.2257e-05
3.98241e-05
3.83638e-05
8.92418e-06
1.19809e-05
3.19922e-05
3.33456e-05
4.1151e-05
3.46482e-05
9.49735e-06
1.21324e-05
3.2024e-05
3.39878e-05
4.18436e-05
3.45615e-05
9.59067e-06
1.20543e-05
3.28299e-05
3.44388e-05
4.30885e-05
3.59485e-05
9.58019e-06
1.20123e-05
3.39664e-05
3.54198e-05
4.48699e-05
3.78434e-05
9.57796e-06
1.21318e-05
3.56663e-05
3.61648e-05
5.02816e-05
3.81328e-05
1.00821e-05
1.30966e-05
3.71445e-05
4.63526e-05
3.38792e-05
3.30209e-05
1.08677e-05
9.03272e-06
4.04399e-05
4.20345e-05
3.53267e-05
3.43249e-05
1.20736e-05
9.616e-06
3.74695e-05
4.41141e-05
3.63501e-05
3.44056e-05
1.21824e-05
9.63422e-06
3.76458e-05
4.52072e-05
3.71211e-05
3.53418e-05
1.20917e-05
9.64772e-06
3.93755e-05
4.6831e-05
3.79141e-05
3.70908e-05
1.22189e-05
1.02048e-05
3.96185e-05
5.19265e-05
4.7668e-05
3.8504e-05
1.32239e-05
1.09533e-05
3.41217e-05
3.50775e-05
4.30345e-05
4.1667e-05
9.11098e-06
1.21858e-05
3.52804e-05
3.65715e-05
4.44614e-05
3.82986e-05
9.72422e-06
1.22902e-05
3.50424e-05
3.7178e-05
4.50036e-05
3.785e-05
9.79904e-06
1.22327e-05
3.59313e-05
3.76868e-05
4.60681e-05
3.92822e-05
9.75648e-06
1.23768e-05
3.77254e-05
3.80452e-05
5.10684e-05
3.96943e-05
1.02895e-05
1.34864e-05
3.89742e-05
4.72495e-05
3.57223e-05
3.52544e-05
1.11362e-05
9.18655e-06
4.22887e-05
4.33027e-05
3.72497e-05
3.65457e-05
1.23108e-05
9.82112e-06
3.942e-05
4.5317e-05
3.82811e-05
3.65717e-05
1.23837e-05
9.78341e-06
3.93818e-05
4.63373e-05
3.89647e-05
3.74608e-05
1.23042e-05
9.86787e-06
4.0729e-05
4.78082e-05
3.97553e-05
3.94641e-05
1.25645e-05
1.04318e-05
4.14037e-05
5.28209e-05
4.87228e-05
4.06112e-05
1.35713e-05
1.12184e-05
3.66721e-05
3.7174e-05
4.47431e-05
4.41237e-05
9.28387e-06
1.23562e-05
3.75761e-05
3.86369e-05
4.61198e-05
4.02832e-05
9.86016e-06
1.25329e-05
3.7525e-05
3.93426e-05
4.67592e-05
4.01472e-05
9.90775e-06
1.25552e-05
3.85956e-05
3.99621e-05
4.79773e-05
4.14502e-05
9.98266e-06
1.28362e-05
4.07217e-05
4.05004e-05
5.3076e-05
4.21775e-05
1.07304e-05
1.40062e-05
4.16895e-05
4.93343e-05
3.85641e-05
3.86298e-05
1.15467e-05
9.60759e-06
4.53881e-05
4.60427e-05
4.0137e-05
3.97108e-05
1.25899e-05
1.00225e-05
4.28788e-05
4.82006e-05
4.12625e-05
3.98881e-05
1.27642e-05
1.00218e-05
4.28068e-05
4.95409e-05
4.18018e-05
4.14701e-05
1.29694e-05
1.08738e-05
4.28261e-05
5.40709e-05
5.01589e-05
4.23169e-05
1.42876e-05
1.1701e-05
3.89521e-05
3.93552e-05
4.58015e-05
4.55852e-05
9.69525e-06
1.28251e-05
4.00561e-05
4.05598e-05
4.73681e-05
4.27013e-05
1.02267e-05
1.30451e-05
4.02022e-05
4.13346e-05
4.85078e-05
4.22158e-05
1.02757e-05
1.33071e-05
4.21886e-05
4.17989e-05
5.30922e-05
4.29079e-05
1.09988e-05
1.44912e-05
4.27189e-05
4.96349e-05
3.9947e-05
4.01615e-05
1.18769e-05
9.77978e-06
4.6415e-05
4.6302e-05
4.12849e-05
4.13525e-05
1.29719e-05
1.02137e-05
4.32417e-05
4.84249e-05
4.24664e-05
4.17591e-05
1.32363e-05
1.04876e-05
4.37178e-05
4.98699e-05
4.31849e-05
4.35722e-05
1.34897e-05
1.11544e-05
4.41745e-05
5.42465e-05
5.07445e-05
4.40684e-05
1.48206e-05
1.20516e-05
4.11151e-05
4.12969e-05
4.68934e-05
4.74591e-05
9.88796e-06
1.32678e-05
4.24155e-05
4.23946e-05
4.85115e-05
4.42813e-05
1.05221e-05
1.34898e-05
4.27161e-05
4.32064e-05
4.99318e-05
4.40057e-05
1.06253e-05
1.38442e-05
4.49365e-05
4.38453e-05
5.47737e-05
4.50487e-05
1.15057e-05
1.51579e-05
4.50832e-05
5.14481e-05
4.25186e-05
4.32378e-05
1.23191e-05
1.01166e-05
4.91553e-05
4.85502e-05
4.40215e-05
4.47396e-05
1.36203e-05
1.0799e-05
4.65007e-05
5.09534e-05
4.53782e-05
4.51953e-05
1.39484e-05
1.10819e-05
4.63762e-05
5.27631e-05
4.64343e-05
4.7573e-05
1.43868e-05
1.19334e-05
4.76604e-05
5.76066e-05
5.41699e-05
4.78138e-05
1.57838e-05
1.28464e-05
4.55419e-05
4.51773e-05
5.07764e-05
5.16512e-05
1.05142e-05
1.3985e-05
4.68875e-05
4.63718e-05
5.29695e-05
4.8346e-05
1.11277e-05
1.46876e-05
4.84719e-05
4.72789e-05
5.76005e-05
4.79893e-05
1.22049e-05
1.60667e-05
4.78216e-05
5.43847e-05
4.55971e-05
4.66134e-05
1.31607e-05
1.06947e-05
5.21192e-05
5.12306e-05
4.73466e-05
4.82968e-05
1.4399e-05
1.14497e-05
4.9581e-05
5.39333e-05
4.87651e-05
4.91366e-05
1.48643e-05
1.18095e-05
4.96891e-05
5.61463e-05
5.01844e-05
5.20381e-05
1.54009e-05
1.27875e-05
5.16974e-05
6.15355e-05
5.79622e-05
5.20533e-05
1.69208e-05
1.38346e-05
5.06442e-05
4.94749e-05
5.51015e-05
5.64977e-05
1.11992e-05
1.50221e-05
5.20182e-05
5.11427e-05
5.79688e-05
5.30232e-05
1.20052e-05
1.58038e-05
5.39103e-05
5.21711e-05
6.3192e-05
5.30617e-05
1.29027e-05
1.72743e-05
5.34726e-05
5.99315e-05
5.15837e-05
5.31108e-05
1.45691e-05
1.19473e-05
5.79245e-05
5.70751e-05
5.31488e-05
5.4933e-05
1.59083e-05
1.27318e-05
5.54556e-05
6.0512e-05
5.48089e-05
5.71634e-05
1.67476e-05
1.39469e-05
5.59035e-05
6.60968e-05
6.26553e-05
5.64531e-05
1.84629e-05
1.51114e-05
5.57792e-05
5.42085e-05
6.01152e-05
6.09817e-05
1.22299e-05
1.66767e-05
5.85125e-05
5.58607e-05
6.59914e-05
5.6856e-05
1.38904e-05
1.85765e-05
5.7033e-05
6.30142e-05
5.45334e-05
5.55185e-05
1.51393e-05
1.20767e-05
6.16283e-05
5.9986e-05
5.61312e-05
5.73364e-05
1.64845e-05
1.31939e-05
5.73782e-05
6.25132e-05
5.72442e-05
5.96198e-05
1.75424e-05
1.45925e-05
5.77312e-05
6.76285e-05
6.45541e-05
5.87732e-05
1.9426e-05
1.59275e-05
5.87108e-05
5.69626e-05
6.20692e-05
6.29839e-05
1.30683e-05
1.77319e-05
6.19311e-05
5.84848e-05
6.7825e-05
5.94711e-05
1.48453e-05
1.98471e-05
5.98515e-05
6.50492e-05
5.79431e-05
5.99339e-05
1.63785e-05
1.32315e-05
6.41755e-05
6.28933e-05
5.91404e-05
6.26816e-05
1.78544e-05
1.45696e-05
5.98139e-05
6.84155e-05
6.57411e-05
6.05645e-05
1.99189e-05
1.66726e-05
6.04035e-05
5.85866e-05
6.33757e-05
6.41278e-05
1.36377e-05
1.85989e-05
6.40408e-05
6.02215e-05
6.87327e-05
6.08424e-05
1.54155e-05
2.07957e-05
6.1576e-05
6.61397e-05
5.98648e-05
6.23238e-05
1.71167e-05
1.38746e-05
6.57293e-05
6.42764e-05
6.13572e-05
6.5482e-05
1.88175e-05
1.55209e-05
6.20366e-05
6.99837e-05
6.73976e-05
6.2619e-05
2.09227e-05
1.72077e-05
6.31375e-05
6.08931e-05
6.54808e-05
6.78734e-05
1.34326e-05
1.88283e-05
6.65685e-05
6.24101e-05
7.0844e-05
6.25117e-05
1.58773e-05
2.16856e-05
6.33622e-05
6.82985e-05
6.25687e-05
6.60833e-05
1.81139e-05
1.47803e-05
6.81347e-05
6.69054e-05
6.46598e-05
7.01454e-05
2.00997e-05
1.67221e-05
6.5967e-05
7.36201e-05
7.10571e-05
6.69583e-05
2.24307e-05
1.85385e-05
6.89737e-05
6.55084e-05
7.00024e-05
7.14822e-05
1.50243e-05
2.04971e-05
7.32355e-05
6.74963e-05
7.71052e-05
6.93193e-05
1.68651e-05
2.24763e-05
6.93342e-05
7.45004e-05
6.85797e-05
7.46657e-05
1.96428e-05
1.69279e-05
7.37684e-05
7.64529e-05
7.41705e-05
7.36383e-05
2.35289e-05
1.99561e-05
7.38828e-05
6.97797e-05
7.48263e-05
7.57381e-05
1.6351e-05
2.21676e-05
7.80154e-05