/*--------------------------------*- C++ -*----------------------------------*\
| =========                 |                                                 |
| \\      /  F ield         | OpenFOAM: The Open Source CFD Toolbox           |
|  \\    /   O peration     | Version:  v2006                                 |
|   \\  /    A nd           | Website:  www.openfoam.com                      |
|    \\/     M anipulation  |                                                 |
\*---------------------------------------------------------------------------*/
FoamFile
{
    version     2.0;
    format      ascii;
    class       volScalarField;
    location    "0.017";
    object      turbulenceProperties:I;
}
// * * * * * * * * * * * * * * * * * * * * * * * * * * * * * * * * * * * * * //

dimensions      [0 0 0 0 0 0 0];


internalField   nonuniform List<scalar> 
16277
(
0.149987
0.149987
0.149992
0.149993
0.149995
0.149998
0.149997
0.149997
0.15
0.150004
0.150008
0.150009
0.150007
0.150004
0.15
0.149995
0.149991
0.149987
0.149983
0.14998
0.149976
0.149973
0.149969
0.149966
0.149962
0.149958
0.149954
0.149951
0.149947
0.149943
0.14994
0.149936
0.149932
0.149929
0.149925
0.149922
0.149918
0.149915
0.149911
0.149908
0.149905
0.149902
0.149898
0.149895
0.149892
0.14989
0.149887
0.149884
0.149882
0.149879
0.149877
0.149875
0.149874
0.149872
0.149871
0.149869
0.149868
0.149867
0.149867
0.149866
0.149865
0.149865
0.149865
0.149865
0.149864
0.149864
0.149864
0.149864
0.149864
0.149864
0.149865
0.149865
0.149865
0.149866
0.149866
0.149867
0.149868
0.149868
0.14987
0.149874
0.149883
0.1499
0.149928
0.14996
0.14998
0.149981
0.149971
0.149955
0.149932
0.149944
0.149967
0.149955
0.149959
0.149979
0.149844
0.149267
0.14502
0.138975
0.145854
0.148635
0.145745
0.138963
0.133107
0.129167
0.135202
0.143495
0.139447
0.129137
0.125083
0.122778
0.126776
0.137711
0.13394
0.122053
0.120085
0.118765
0.120628
0.132625
0.129499
0.117157
0.116976
0.116213
0.116399
0.128567
0.126038
0.114044
0.115016
0.1146
0.113629
0.125359
0.123278
0.111906
0.113763
0.113558
0.111707
0.122798
0.121054
0.1104
0.112949
0.112879
0.110345
0.120722
0.119233
0.109321
0.112417
0.112434
0.109362
0.11901
0.117718
0.108533
0.112071
0.112147
0.108642
0.117582
0.116441
0.107949
0.111848
0.111957
0.108098
0.116367
0.115341
0.107495
0.111698
0.111826
0.107668
0.115311
0.114376
0.10713
0.111597
0.111747
0.107328
0.114388
0.11354
0.106854
0.111551
0.111718
0.107076
0.11359
0.112813
0.106651
0.111541
0.111719
0.106894
0.112897
0.112185
0.106513
0.111558
0.111746
0.106775
0.112301
0.111652
0.106435
0.111599
0.111796
0.106716
0.111798
0.111208
0.106411
0.11166
0.111865
0.10671
0.111384
0.110846
0.106437
0.111738
0.111951
0.106754
0.111051
0.110563
0.106512
0.111833
0.112054
0.106847
0.110793
0.110349
0.106631
0.111943
0.112172
0.106982
0.110604
0.110197
0.106788
0.112068
0.112305
0.107156
0.110475
0.110105
0.106983
0.112209
0.112455
0.107368
0.110405
0.110069
0.107215
0.112365
0.11262
0.107618
0.110394
0.110092
0.107485
0.112536
0.112802
0.107907
0.110441
0.110173
0.107794
0.112724
0.113002
0.108237
0.110548
0.110313
0.108144
0.11293
0.11322
0.108609
0.110714
0.110509
0.108534
0.113152
0.113455
0.109021
0.110936
0.110755
0.10896
0.113391
0.113706
0.10947
0.111206
0.111045
0.10942
0.113644
0.113972
0.109952
0.111519
0.111373
0.10991
0.11391
0.114251
0.110465
0.111869
0.111735
0.110428
0.11419
0.114544
0.111008
0.112254
0.11213
0.110976
0.114483
0.11485
0.111581
0.112671
0.112557
0.111554
0.114789
0.11517
0.112187
0.113123
0.113021
0.112168
0.115106
0.115502
0.11283
0.113612
0.113521
0.112818
0.115435
0.115845
0.113508
0.114138
0.114057
0.113502
0.115773
0.116196
0.11422
0.114699
0.114625
0.114215
0.116116
0.116549
0.114959
0.115287
0.115215
0.114951
0.116457
0.116896
0.115717
0.115895
0.115821
0.115702
0.116787
0.117229
0.116484
0.116514
0.116435
0.116458
0.117098
0.117537
0.117251
0.117138
0.117052
0.117209
0.117378
0.117808
0.118004
0.117756
0.117657
0.117939
0.117614
0.118026
0.118724
0.118352
0.11823
0.118626
0.117788
0.118171
0.119382
0.118901
0.118745
0.119239
0.117876
0.118218
0.119946
0.119373
0.119168
0.119742
0.117854
0.118144
0.120372
0.11973
0.119461
0.120096
0.117693
0.117913
0.120617
0.119932
0.119579
0.120242
0.117383
0.117459
0.120589
0.11993
0.119467
0.120068
0.1169
0.116814
0.120212
0.119656
0.119069
0.119545
0.116244
0.115978
0.119472
0.119079
0.118364
0.118665
0.115441
0.114988
0.118381
0.118193
0.117354
0.11745
0.114457
0.113939
0.116987
0.117027
0.116099
0.115928
0.113274
0.112706
0.115222
0.115558
0.114522
0.114039
0.111965
0.111474
0.113211
0.11386
0.112783
0.112004
0.110728
0.11031
0.111117
0.112052
0.110976
0.109946
0.109604
0.109264
0.109054
0.110217
0.109179
0.107959
0.108617
0.108356
0.1071
0.108423
0.107457
0.106119
0.107785
0.107613
0.105343
0.106739
0.105861
0.104442
0.107123
0.107031
0.103796
0.105215
0.104412
0.102986
0.106629
0.106608
0.102474
0.103857
0.103127
0.10176
0.106292
0.106329
0.101377
0.102676
0.102023
0.100763
0.106094
0.106174
0.100499
0.101672
0.101096
0.0999821
0.106013
0.106122
0.099826
0.10083
0.10033
0.0993963
0.10602
0.106154
0.0993106
0.100131
0.0996966
0.098956
0.106102
0.106247
0.0989257
0.0995409
0.0991617
0.09864
0.106237
0.106383
0.0986525
0.0990313
0.0986986
0.0984274
0.106407
0.106548
0.0984716
0.0985837
0.0982878
0.0982988
0.106597
0.106726
0.0983662
0.0981956
0.0979262
0.0982373
0.106794
0.106906
0.0983196
0.0978539
0.0976012
0.0982257
0.106988
0.107071
0.0983128
0.097549
0.0972909
0.0982434
0.107165
0.107227
0.0983264
0.0972533
0.0969863
0.0982652
0.107326
0.107377
0.0983498
0.0969575
0.0966819
0.0982917
0.107456
0.107503
0.0983722
0.0966571
0.0963718
0.0983108
0.107558
0.107605
0.0983825
0.0963484
0.0960521
0.0983158
0.107644
0.107692
0.0983808
0.096029
0.0957255
0.0983117
0.107719
0.107765
0.0983713
0.0957032
0.0953949
0.0982975
0.107776
0.107816
0.0983498
0.0953712
0.095061
0.0982689
0.107816
0.107851
0.0983176
0.0950361
0.0947292
0.0982296
0.107845
0.107876
0.0982745
0.0947036
0.0944038
0.0981821
0.107865
0.107891
0.0982232
0.0943772
0.0940863
0.098128
0.107876
0.107897
0.0981652
0.0940586
0.0937783
0.0980691
0.10788
0.107897
0.0981026
0.0937504
0.0934825
0.0980071
0.107878
0.10789
0.0980359
0.0934539
0.0931977
0.0979395
0.107867
0.107873
0.0979638
0.0931669
0.0929166
0.0978667
0.107844
0.10784
0.0978725
0.0928742
0.0926093
0.0977468
0.107801
0.107712
0.0977125
0.0925472
0.0923087
0.0976839
0.107678
0.107465
0.0973055
0.092044
0.0918322
0.0971892
0.107045
0.106428
0.095605
0.0911059
0.0916309
0.0954851
0.104356
0.105308
0.0932326
0.0899188
0.0938257
0.0989794
0.104937
0.11055
0.114368
0.119077
0.122074
0.124495
0.126179
0.127333
0.127949
0.128004
0.127515
0.126371
0.124581
0.121496
0.1192
0.114074
0.109308
0.104278
0.0998904
0.0993941
0.103464
0.118162
0.134318
0.136624
0.119806
0.104387
0.105454
0.121499
0.13838
0.139314
0.122746
0.106217
0.106814
0.123422
0.140194
0.140524
0.12379
0.107047
0.107382
0.124035
0.140841
0.140915
0.124261
0.107498
0.107587
0.124335
0.140954
0.140959
0.12434
0.107677
0.107719
0.124371
0.140957
0.140933
0.12437
0.107807
0.107827
0.124367
0.140912
0.140888
0.12438
0.10792
0.107933
0.124351
0.140849
0.140825
0.124381
0.10803
0.108045
0.124344
0.140782
0.140758
0.124372
0.108142
0.108153
0.124329
0.140706
0.140676
0.124347
0.108254
0.108267
0.124328
0.140632
0.140595
0.124325
0.108372
0.108384
0.124314
0.14055
0.140507
0.12431
0.108491
0.108505
0.124303
0.140465
0.140421
0.124294
0.108618
0.108632
0.124288
0.140375
0.140328
0.124283
0.108748
0.108765
0.124278
0.140285
0.140238
0.124272
0.108887
0.108904
0.124267
0.14019
0.140142
0.124266
0.109031
0.10905
0.124262
0.140097
0.140049
0.12426
0.109183
0.109202
0.124256
0.14
0.13995
0.124259
0.109339
0.10936
0.124254
0.139902
0.139857
0.124277
0.1095
0.10952
0.124245
0.139797
0.139753
0.124271
0.109666
0.109687
0.124255
0.139696
0.139652
0.124289
0.109834
0.109853
0.124253
0.139587
0.139543
0.124287
0.110005
0.110026
0.124269
0.139483
0.13944
0.12431
0.110177
0.110195
0.124273
0.139372
0.13933
0.124316
0.11035
0.110369
0.124298
0.13927
0.139229
0.124347
0.110521
0.110535
0.124309
0.139161
0.139122
0.124359
0.110689
0.110703
0.124342
0.139063
0.139026
0.124397
0.110851
0.110857
0.124358
0.13896
0.138925
0.124413
0.111003
0.111005
0.124393
0.138868
0.138835
0.124448
0.111138
0.11113
0.124405
0.138772
0.13874
0.124454
0.111252
0.111234
0.124423
0.138684
0.138653
0.124467
0.111333
0.111297
0.124404
0.13859
0.138557
0.124429
0.111373
0.111318
0.124371
0.138499
0.138458
0.12435
0.111358
0.111277
0.12428
0.138398
0.138347
0.12422
0.111277
0.111167
0.124122
0.138285
0.138222
0.124007
0.111114
0.110967
0.123867
0.138149
0.138068
0.12369
0.110855
0.110666
0.12349
0.137982
0.137881
0.123235
0.110477
0.110236
0.122933
0.137767
0.13764
0.122598
0.10999
0.109674
0.122199
0.137494
0.137329
0.121747
0.109365
0.108952
0.121195
0.137134
0.136922
0.120604
0.108585
0.108075
0.119915
0.136673
0.136398
0.119147
0.107639
0.107035
0.118281
0.136083
0.135734
0.117333
0.106534
0.10584
0.116268
0.135339
0.134907
0.115138
0.10527
0.104501
0.11383
0.134418
0.1339
0.11251
0.10388
0.103064
0.110973
0.13331
0.132701
0.109441
0.102391
0.101569
0.107685
0.132028
0.131324
0.105903
0.100853
0.100025
0.103849
0.130401
0.129104
0.101957
0.0992391
0.0984407
0.100302
0.127645
0.126303
0.0983162
0.0978235
0.0972537
0.0965111
0.125101
0.123893
0.0954169
0.0972909
0.0969988
0.0945
0.122792
0.121795
0.0931562
0.0973388
0.097346
0.0924212
0.120693
0.119437
0.0918347
0.0980948
0.0984513
0.0916187
0.118213
0.117307
0.0920626
0.0998103
0.100377
0.0920964
0.116467
0.115597
0.0933186
0.10214
0.103304
0.0947808
0.114504
0.114585
0.0984308
0.106319
0.108
0.101392
0.115764
0.135344
0.092476
0.0876864
0.100379
0.0970193
0.128318
0.127793
0.0939558
0.0994524
0.100309
0.0928475
0.127426
0.126182
0.0914632
0.0997668
0.101215
0.0912051
0.124731
0.12285
0.090498
0.101188
0.10368
0.0914947
0.121043
0.119392
0.0915894
0.104008
0.107579
0.0943086
0.117979
0.116702
0.095478
0.108876
0.11431
0.100639
0.116492
0.117321
0.104278
0.117072
0.0903784
0.0907498
0.130591
0.123505
0.0966373
0.109388
0.110173
0.0958595
0.121259
0.119334
0.0987869
0.115992
0.117605
0.0994289
0.117784
0.117064
0.103148
0.122272
0.124497
0.105028
0.116524
0.118157
0.111173
0.130094
0.132078
0.115834
0.120892
0.129418
0.0957632
0.0996986
0.124106
0.103619
0.123233
0.121658
0.10336
0.125653
0.132059
0.108447
0.121492
0.121007
0.110167
0.133759
0.142353
0.119223
0.122609
0.12637
0.126312
0.146243
0.111111
0.101218
0.131288
0.124977
0.114552
0.142122
0.145951
0.117569
0.123728
0.125429
0.129145
0.157785
0.163047
0.135747
0.128055
0.134949
0.147356
0.169735
0.130552
0.113245
0.132893
0.130737
0.133837
0.167646
0.172188
0.137974
0.131583
0.137862
0.157845
0.189226
0.19727
0.169542
0.144771
0.13814
0.129654
0.158317
0.204176
0.164378
0.141112
0.145016
0.173938
0.215202
0.240612
0.204488
0.15829
0.16806
0.2189
0.252963
0.221209
0.174725
0.156283
0.177653
0.24148
0.282464
0.305754
0.265065
0.193344
0.179892
0.219588
0.284385
0.372289
0.325838
0.225437
0.264482
0.386999
0.435922
0.487444
0.38642
0.254575
0.463811
0.703234
0.751117
1
1
0.638336
1
1
1
0.722623
0.677826
0.43078
0.253674
0.389329
0.434361
0.324333
0.2927
0.203004
0.204303
0.266642
0.278233
0.232294
0.193819
0.168455
0.174708
0.211067
0.226933
0.188595
0.161927
0.147752
0.148149
0.174551
0.19412
0.183604
0.159614
0.140614
0.1321
0.122422
0.144249
0.163113
0.146199
0.135747
0.128811
0.122286
0.136325
0.153033
0.134648
0.126802
0.12206
0.126053
0.146416
0.11491
0.104336
0.121863
0.120283
0.118329
0.137247
0.131521
0.112631
0.117249
0.119945
0.0970192
0.103461
0.126018
0.108413
0.116062
0.114586
0.104579
0.120417
0.0962537
0.0933032
0.119288
0.113396
0.101834
0.117432
0.111496
0.0984451
0.112684
0.118607
0.0899008
0.0904055
0.109752
0.0963541
0.110394
0.110245
0.0930417
0.104176
0.0854107
0.0863017
0.117147
0.108299
0.0919536
0.103564
0.0983542
0.0889645
0.108684
0.116081
0.0835862
0.0817721
0.0981904
0.0879256
0.105852
0.107119
0.0852493
0.0936328
0.0788317
0.0811702
0.114932
0.104055
0.0857594
0.0949989
0.0881246
0.0822187
0.104962
0.108648
0.0796857
0.0828191
0.0735128
0.077329
0.12073
0.10482
0.0773818
0.083749
0.0803973
0.0762909
0.107743
0.118319
0.0754986
0.0708257
0.0794684
0.0741508
0.102384
0.106442
0.0741937
0.0766676
0.0686091
0.0741036
0.117565
0.10124
0.0715176
0.0751619
0.0730408
0.0716848
0.105092
0.116624
0.0723648
0.0661527
0.0725156
0.0696728
0.100559
0.104847
0.0704038
0.0705554
0.0649576
0.0717033
0.116153
0.0991529
0.0672847
0.0694236
0.0678843
0.0680603
0.103681
0.115808
0.0710922
0.0632214
0.0672673
0.0661001
0.098543
0.103281
0.0667781
0.0657908
0.0618106
0.0706795
0.115044
0.097832
0.063969
0.064174
0.0632136
0.0647945
0.103305
0.116632
0.0704077
0.060076
0.0623909
0.0635217
0.0997782
0.109476
0.0667932
0.05863
0.0643084
0.0624774
0.0933155
0.0974878
0.0627561
0.0622885
0.0595168
0.0685016
0.108583
0.0936848
0.0626327
0.0627848
0.0614552
0.0627434
0.0987879
0.109807
0.0686766
0.0589731
0.0622019
0.0622262
0.0935633
0.098121
0.0616768
0.0603554
0.0584742
0.0693905
0.109512
0.0942636
0.060881
0.0594623
0.0582189
0.0604557
0.0996746
0.111385
0.0698724
0.057307
0.0581469
0.0600892
0.0942509
0.0993629
0.0593999
0.0560217
0.0562779
0.0704954
0.111817
0.0957091
0.0567443
0.0561353
0.0546108
0.0653413
0.106441
0.0920633
0.0573434
0.0559922
0.0539422
0.0571383
0.0971436
0.107794
0.0680745
0.054429
0.0546474
0.0568438
0.0921294
0.0974693
0.056378
0.0520656
0.0536847
0.0695126
0.109602
0.093711
0.0537146
0.0520875
0.0515511
0.0635261
0.104722
0.089548
0.0544485
0.0525305
0.0504893
0.0544024
0.0941584
0.105024
0.0666575
0.0517583
0.0520791
0.0546351
0.0901586
0.0958702
0.0546886
0.0498247
0.0520171
0.0686924
0.108247
0.0927992
0.0517176
0.0497412
0.0498297
0.062622
0.10414
0.0888705
0.0527059
0.0505671
0.0483009
0.0528501
0.0937033
0.104749
0.0661705
0.0500025
0.0494609
0.0525249
0.0897923
0.0956115
0.0527849
0.0472993
0.0502907
0.0682852
0.10813
0.0924466
0.049636
0.0471263
0.0478294
0.0615958
0.103821
0.0878561
0.0501275
0.0477548
0.0458108
0.0510903
0.093312
0.105268
0.0670749
0.0488946
0.0460594
0.0485191
0.0899894
0.10151
0.0606943
0.0467878
0.0466717
0.0490377
0.0860977
0.0920104
0.0498156
0.0448328
0.0483043
0.0668002
0.104198
0.0897922
0.0484843
0.0454388
0.0462891
0.0604691
0.100757
0.0847481
0.0483032
0.0459142
0.0441628
0.0494317
0.0906358
0.102957
0.0664307
0.0476516
0.0447185
0.0474709
0.0881632
0.0998913
0.0599614
0.0457056
0.045366
0.0477365
0.0847869
0.0909075
0.0491722
0.0437197
0.0475551
0.0663452
0.103262
0.088502
0.0471849
0.0443937
0.0453495
0.0597061
0.0992957
0.0845972
0.047186
0.044711
0.0429367
0.048264
0.0904913
0.102973
0.0661689
0.0469505
0.0436069
0.0461431
0.0884515
0.100588
0.061767
0.0459028
0.0432202
0.0445461
0.0855498
0.095946
0.0582934
0.0445005
0.0441686
0.0464256
0.0824326
0.0879115
0.0478201
0.0424788
0.0462269
0.0648577
0.0995734
0.085601
0.0458087
0.0429197
0.0442149
0.0588136
0.097047
0.0829218
0.0459324
0.043455
0.0418877
0.0475631
0.089123
0.101521
0.0655691
0.0461754
0.0426158
0.0454496
0.0877134
0.0999407
0.0609436
0.0451555
0.0422273
0.0436752
0.0855647
0.0949105
0.0573074
0.0434261
0.0426838
0.0450405
0.0807145
0.0865032
0.0463598
0.0410885
0.045357
0.0643466
0.0983742
0.0850452
0.0447074
0.041877
0.0443347
0.0593906
0.0969261
0.0830352
0.0425679
0.0415013
0.0430413
0.0570429
0.0927951
0.0802116
0.0446856
0.0423386
0.0410563
0.0467196
0.0863589
0.0979271
0.0642424
0.0453012
0.0417221
0.0445545
0.0844798
0.0960858
0.0592405
0.044163
0.0411005
0.042302
0.0821405
0.0917196
0.0565018
0.0426039
0.0416746
0.044014
0.0786545
0.0843238
0.0456904
0.0402986
0.0446319
0.0633166
0.0959384
0.0833012
0.0441144
0.0411915
0.0438413
0.0588539
0.0948975
0.0820836
0.0423367
0.0408714
0.0425454
0.0566488
0.0913446
0.0783977
0.0438394
0.0413841
0.040025
0.045614
0.0842351
0.0961874
0.0631922
0.0445819
0.0409164
0.0436523
0.0838237
0.0955498
0.058409
0.0435789
0.0402996
0.0412778
0.0818289
0.0914321
0.0563577
0.0421933
0.040766
0.0433122
0.0782548
0.0840553
0.0450846
0.0394752
0.0442639
0.0633062
0.0958817
0.0832427
0.0436332
0.0405916
0.0432927
0.0584936
0.0945447
0.0804101
0.0409197
0.039806
0.042316
0.0560888
0.0903974
0.0781959
0.0406479
0.0393361
0.0414168
0.055307
0.0876092
0.0756334
0.0424
0.0399358
0.0388705
0.0445522
0.081374
0.09306
0.0621898
0.0436061
0.0399558
0.0430898
0.0816537
0.0935285
0.0578353
0.0428912
0.0394704
0.0409483
0.0808098
0.0905714
0.0560374
0.0420625
0.0389806
0.0404245
0.0776908
0.0867615
0.0551057
0.0410793
0.0394096
0.0420175
0.0748344
0.0804462
0.0436897
0.038228
0.0430759
0.0612065
0.0919243
0.0801936
0.0422509
0.0392824
0.0422083
0.0569247
0.0917079
0.0787856
0.0400219
0.0387809
0.0414351
0.0549801
0.0883963
0.076453
0.0398113
0.0384182
0.0406979
0.054672
0.0855058
0.0742937
0.0417738
0.0389698
0.0379625
0.0436026
0.0796879
0.0908109
0.0609047
0.0429615
0.0389372
0.0420837
0.0794911
0.0909474
0.0564876
0.0419993
0.0383557
0.0395228
0.0782394
0.0881048
0.0548718
0.0411758
0.0380107
0.0395766
0.0762053
0.0852941
0.0542816
0.0403194
0.0383144
0.0411302
0.0735628
0.0791499
0.0432253
0.0373862
0.04267
0.0603884
0.0904614
0.0793009
0.0416336
0.0384817
0.0417976
0.0561697
0.0903708
0.0774072
0.0391388
0.0379257
0.0408613
0.0543912
0.0869277
0.0753921
0.0390345
0.0375186
0.0403271
0.0535353
0.0849565
0.0739382
0.0390217
0.0372931
0.0397039
0.0531435
0.0826606
0.0720477
0.0407364
0.0376728
0.0368702
0.0427301
0.0776041
0.0889803
0.0598857
0.0422605
0.0377795
0.0410934
0.0778013
0.0892605
0.0555479
0.0413473
0.0373754
0.038694
0.0768318
0.0863032
0.0538862
0.0405302
0.0369249
0.0384594
0.0745295
0.0837021
0.0529929
0.0397692
0.0366879
0.0385395
0.0729876
0.0815457
0.0525019
0.0390538
0.037015
0.0399791
0.070627
0.0758992
0.0417007
0.0361728
0.041501
0.0584794
0.0866616
0.0753688
0.0402227
0.037173
0.0407913
0.054663
0.0861926
0.0742345
0.0383572
0.0368756
0.0400126
0.05283
0.0837295
0.0727479
0.0380287
0.0365316
0.0395362
0.0523344
0.0817884
0.071418
0.0383247
0.036411
0.038823
0.0516853
0.0797652
0.069621
0.0396406
0.0366586
0.0359422
0.0416057
0.0747981
0.0854983
0.0580175
0.0412917
0.0367331
0.0400338
0.0752407
0.0859686
0.0539788
0.0404043
0.0361911
0.0376985
0.0744565
0.0837713
0.0522784
0.0395855
0.0358668
0.037286
0.0725923
0.0814069
0.0515929
0.0390424
0.0356805
0.0374785
0.0708945
0.0789276
0.0512664
0.0383896
0.0359361
0.0389707
0.0684376
0.073658
0.0409052
0.0352531
0.0406596
0.0572106
0.0840997
0.0737038
0.0394066
0.0360897
0.0398947
0.0532203
0.0841106
0.0725686
0.037114
0.0355667
0.0389314
0.0513181
0.081602
0.0708788
0.0367687
0.0352865
0.0385475
0.050693
0.0794958
0.0695224
0.0370221
0.0351554
0.0379957
0.0504691
0.0775918
0.0675943
0.0384703
0.0353106
0.0347067
0.0406213
0.0730189
0.0836879
0.0568723
0.0404536
0.0355313
0.0389364
0.0732637
0.0837592
0.0529718
0.0396256
0.034921
0.0367109
0.0721701
0.0810819
0.0509941
0.038611
0.0344706
0.0361731
0.0705144
0.0791537
0.0502512
0.0379838
0.0343707
0.0362151
0.0690727
0.0774257
0.0498483
0.0377379
0.0343474
0.036401
0.0676089
0.0754242
0.049394
0.0371167
0.0345006
0.0375597
0.0654258
0.0706911
0.0395097
0.0338982
0.0394704
0.0552384
0.0807201
0.0705641
0.0381444
0.0348147
0.0386675
0.0513987
0.0802511
0.0692945
0.0359899
0.0342919
0.0378204
0.0497031
0.0776502
0.0675297
0.0357361
0.0340012
0.0373543
0.049141
0.075582
0.0661683
0.0360559
0.0339403
0.0367935
0.04851
0.0737059
0.0643747
0.0370816
0.0340461
0.0335238
0.0391269
0.0697398
0.0796197
0.0546917
0.0392118
0.0344536
0.0378263
0.0697137
0.07939
0.0510335
0.0384867
0.0338679
0.0358088
0.0689466
0.0772818
0.0493179
0.0375469
0.0334579
0.0352911
0.0673109
0.0751511
0.0485847
0.0370096
0.0331817
0.035323
0.0656573
0.0732555
0.0480376
0.0362369
0.0332019
0.0364243
0.0635907
0.0690133
0.038445
0.0326896
0.0386111
0.0541486
0.078647
0.0686022
0.0373567
0.0337284
0.0377737
0.0502499
0.0778678
0.067345
0.0351763
0.0331813
0.0368957
0.0485218
0.0752598
0.0655122
0.0347913
0.0328209
0.0363329
0.0476849
0.0733188
0.0641294
0.0348007
0.0326337
0.0357145
0.0472563
0.0717588
0.0624652
0.035879
0.0326387
0.0321652
0.0379961
0.0677434
0.0771625
0.0533457
0.0380785
0.0332223
0.0367774
0.0675055
0.0766969
0.049641
0.0373911
0.0326808
0.034804
0.0664563
0.0745357
0.0481445
0.036549
0.0323508
0.0345084
0.0648935
0.0728052
0.0474116
0.0360789
0.0321203
0.0344265
0.0634985
0.0712583
0.0469174
0.0353569
0.0321072
0.0354046
0.0620023
0.0672118
0.0373806
0.0316182
0.0375635
0.0526442
0.076124
0.0665883
0.0363689
0.0327115
0.0368075
0.0488919
0.0750821
0.0648474
0.0343187
0.0321846
0.03591
0.047106
0.0727123
0.0629465
0.0338693
0.031796
0.0352264
0.0465635
0.0708345
0.0620756
0.0352475
0.0317154
0.0313939
0.0374181
0.0676342
0.0766819
0.053049
0.0378825
0.0325122
0.0364089
0.0670076
0.0757232
0.0489828
0.0368618
0.031848
0.0341071
0.0654196
0.0734631
0.0473315
0.0358736
0.0314006
0.0337141
0.0633794
0.0711698
0.0466438
0.0350308
0.031201
0.0348079
0.0616947
0.067001
0.0368257
0.0307723
0.0372548
0.0523537
0.0757458
0.0659412
0.0357726
0.0318754
0.0361522
0.0481629
0.0745347
0.063705
0.0332663
0.0311787
0.0352523
0.0465404
0.0719544
0.0627055
0.0333296
0.0309441
0.0347732
0.0463296
0.0706488
0.0614447
0.0346327
0.0308296
0.030567
0.0369245
0.0670233
0.0757093
0.0524951
0.0373664
0.0316709
0.0357814
0.0657458
0.0746511
0.0483147
0.0362385
0.0310037
0.0333571
0.0641103
0.0720912
0.0465263
0.0351501
0.030511
0.0329943
0.0622492
0.0701398
0.0458359
0.0342613
0.0302669
0.0339909
0.060892
0.0661483
0.0358945
0.0298574
0.0364527
0.0511019
0.074248
0.0642734
0.0347997
0.0309716
0.0355984
0.047639
0.073311
0.0632078
0.0330912
0.0306112
0.0348029
0.0460326
0.0713013
0.0618486
0.0327513
0.0303575
0.0342599
0.045717
0.0697901
0.0607976
0.0341049
0.0302136
0.0299657
0.036307
0.066237
0.0745688
0.051692
0.0368935
0.0311578
0.0353179
0.064499
0.0729797
0.0476005
0.0357305
0.0304281
0.033081
0.0625701
0.0705085
0.0458816
0.0343709
0.029877
0.0336797
0.0609065
0.065839
0.0352116
0.0294728
0.0364799
0.051481
0.0742059
0.0640353
0.0349809
0.0306988
0.0355439
0.0475172
0.0727993
0.0627773
0.03292
0.0302724
0.034592
0.0458926
0.0709291
0.061363
0.0324535
0.0299467
0.0339138
0.0454119
0.0692238
0.0600877
0.0336246
0.0296925
0.0295037
0.0358163
0.0653502
0.0736088
0.0513485
0.0365635
0.0307179
0.0351377
0.0635345
0.0719682
0.0472179
0.0354361
0.0300943
0.0327918
0.0618288
0.0696251
0.0455042
0.0340666
0.0295002
0.0332756
0.0595523
0.0647232
0.0352137
0.0292251
0.0364069
0.051055
0.0737068
0.063998
0.0348386
0.0305644
0.0354304
0.0474259
0.0725175
0.0624127
0.0330011
0.0300999
0.0342574
0.0458769
0.0702426
0.0607576
0.0336026
0.0296344
0.0294733
0.0357755
0.0659594
0.0741359
0.0516685
0.0366959
0.0306315
0.03526
0.0636456
0.0719492
0.0476169
0.035328
0.0298088
0.03385
0.0616204
0.066714
0.0356132
0.0294492
0.0366192
0.0513639
0.0748036
0.0634349
0.0344599
0.0303869
0.0355451
0.0475442
0.0723085
0.0625189
0.0330407
0.0298528
0.0343894
0.0462007
0.0706673
0.0612116
0.0336557
0.0293881
0.0292664
0.0359612
0.0665512
0.0748423
0.0518065
0.0367956
0.0304166
0.0351173
0.0643687
0.0726427
0.0475823
0.0352546
0.0293982
0.0335422
0.062074
0.0671721
0.035289
0.0291019
0.0366054
0.051662
0.0754331
0.0643308
0.0346172
0.0301434
0.034989
0.0472566
0.0723731
0.0612556
0.0333559
0.0290257
0.0288588
0.0354986
0.0668428
0.0761326
0.0523203
0.0369355
0.0302701
0.0349226
0.065119
0.0735672
0.0481406
0.0354613
0.0291775
0.0336187
0.0626636
0.067866
0.0355092
0.0289487
0.0368079
0.052179
0.0761746
0.0649726
0.0347492
0.0300296
0.035208
0.0477031
0.073229
0.0622783
0.033377
0.0289341
0.0286468
0.0351864
0.0674133
0.0757196
0.0517571
0.0364439
0.0295864
0.0335802
0.0628366
0.071587
0.0471622
0.0348064
0.0284973
0.0331288
0.0616674
0.0672697
0.0350194
0.0284226
0.036474
0.0519273
0.0759493
0.0648239
0.0345044
0.0296543
0.0349206
0.0475428
0.073067
0.062255
0.0331521
0.0286423
0.0284188
0.0350138
0.0672413
0.0754149
0.0517435
0.0363246
0.0294768
0.0342845
0.0640374
0.0719546
0.0469787
0.0344928
0.0281039
0.0325035
0.0602699
0.0642467
0.0332683
0.0276303
0.0351551
0.0504421
0.0729854
0.0628832
0.0341307
0.0285555
0.0284418
0.0356358
0.06838
0.0770809
0.0526146
0.0368591
0.0296696
0.0345693
0.065435
0.0733974
0.0476331
0.0349765
0.0282798
0.0327845
0.0621398
0.0667332
0.0345
0.0280334
0.0356123
0.0512004
0.0745115
0.0630888
0.0344578
0.0286358
0.028053
0.0345155
0.0672206
0.0753344
0.0513667
0.0357714
0.0283896
0.0342219
0.063758
0.0693644
0.0352867
0.0281794
0.0369195
0.0529835
0.0783547
0.0659907
0.0343799
0.0294265
0.0349085
0.0477947
0.0737696
0.0620679
0.0325818
0.0279556
0.0277114
0.0341986
0.0664395
0.0738565
0.0508498
0.0352369
0.0281366
0.0339582
0.0620611
0.0657392
0.0337021
0.0275111
0.034987
0.0501218
0.0735895
0.062278
0.0334067
0.0277631
0.0276145
0.0346087
0.0676477
0.0763677
0.0519159
0.0357916
0.0282946
0.0343876
0.0641873
0.0686987
0.0350391
0.0279872
0.0358994
0.0518088
0.0763751
0.0637235
0.0340629
0.0281503
0.0276389
0.0344647
0.0677089
0.0747065
0.0504748
0.035125
0.0273721
0.032915
0.061732
0.0660869
0.0359112
0.0275264
0.0277467
0.0378295
0.0723649
0.0813275
0.0546687
0.0372729
0.0283987
0.0350902
0.0673149
0.0716516
0.0352493
0.0279049
0.035915
0.0523658
0.0790197
0.0643139
0.0333713
0.0273649
0.0267547
0.0342799
0.0663812
0.0707465
0.0358789
0.026575
0.0361589
0.0537998
0.0803317
0.0669281
0.0340415
0.0272927
0.0274924
0.0366385
0.0711085
0.0763882
0.0382118
0.0276152
0.0370827
0.055211
0.0834412
0.0655924
0.033765
0.0272602
0.0265837
0.0347158
0.0682095
0.0731449
0.0362243
0.0263476
0.0358886
0.0539273
0.0830243
0.0681018
0.0337638
0.026669
0.0261397
0.0332798
0.0716151
0.0767408
0.0394897
0.026872
0.0259084
0.0353015
0.0770965
0.0848342
0.0558956
0.0364517
0.0264043
0.0339042
0.0694916
0.0744075
0.0346387
0.0261779
0.0262926
0.0384712
0.0795309
0.0821611
0.0360871
0.0253781
0.0259105
0.0405489
0.0852696
0.0892811
0.0400175
0.0251748
0.0366131
0.0584626
0.0981097
0.0729446
0.033892
0.0256967
0.025169
0.0337617
0.0750776
0.0802802
0.037762
0.0252204
0.0251731
0.0382349
0.0860885
0.0915283
0.039684
0.0254444
0.025972
0.0424139
0.0961212
0.101048
0.0447776
0.0265519
0.0271377
0.0470302
0.104893
0.106889
0.0493988
0.0277171
0.0282345
0.0514207
0.108057
0.108754
0.0536684
0.0288408
0.0294266
0.0558933
0.109142
0.1093
0.0584468
0.0302253
0.0309297
0.0609389
0.109361
0.109368
0.063389
0.0319374
0.0327881
0.0657883
0.109346
0.109321
0.068147
0.0339558
0.0349454
0.0704538
0.109288
0.109267
0.072697
0.0362462
0.0374828
0.0747435
0.109251
0.109258
0.0767201
0.0390018
0.0403974
0.0785247
0.109275
0.109314
0.0802927
0.0420195
0.0434134
0.0819797
0.109364
0.109436
0.083622
0.0450332
0.0464256
0.085175
0.109518
0.10962
0.0866784
0.0480405
0.0494325
0.0880861
0.109728
0.109852
0.0894407
0.0510425
0.0524359
0.0906951
0.109976
0.110113
0.0918956
0.0540386
0.0554333
0.0929923
0.110244
0.110383
0.0940346
0.0570328
0.0584201
0.0949731
0.110512
0.110643
0.0958558
0.0600069
0.0613469
0.0966493
0.110759
0.110875
0.0973955
0.0628543
0.0641157
0.0980579
0.110975
0.111072
0.0986792
0.0655299
0.066701
0.0992228
0.111153
0.11123
0.0997319
0.068015
0.0690862
0.100169
0.111291
0.111346
0.100569
0.0702908
0.0712541
0.100924
0.111385
0.111424
0.101249
0.0723477
0.0732023
0.101508
0.111446
0.111464
0.101769
0.0741821
0.0749308
0.101955
0.111471
0.111472
0.102151
0.0757996
0.0764463
0.102278
0.111466
0.111452
0.102416
0.0772077
0.0777576
0.102492
0.111435
0.111409
0.10258
0.0784174
0.07888
0.102615
0.111383
0.111348
0.10266
0.0794453
0.0798285
0.102663
0.111315
0.111272
0.102675
0.0803092
0.0806257
0.102654
0.111234
0.111185
0.102637
0.0810279
0.0812886
0.102597
0.111144
0.11109
0.102557
0.0816203
0.0818365
0.102504
0.111047
0.110989
0.102445
0.082103
0.0822811
0.102379
0.110943
0.110884
0.102307
0.0824921
0.0826391
0.102234
0.110839
0.11078
0.102152
0.0827966
0.0829179
0.102071
0.110733
0.110676
0.101985
0.0830409
0.0831334
0.101899
0.11063
0.110574
0.101812
0.083234
0.0832975
0.101722
0.110528
0.110474
0.101636
0.0833762
0.0834086
0.101546
0.11043
0.110377
0.101459
0.0834695
0.0834787
0.101369
0.110335
0.110283
0.101281
0.0835268
0.0835202
0.101194
0.110244
0.110194
0.101104
0.0835573
0.0835407
0.101021
0.110155
0.110108
0.100931
0.0835684
0.0835477
0.100852
0.110072
0.110025
0.100762
0.0835674
0.0835444
0.100687
0.109991
0.109947
0.100599
0.0835588
0.0835391
0.10053
0.109915
0.109873
0.100444
0.083548
0.0835301
0.10038
0.109842
0.109803
0.100298
0.0835388
0.0835236
0.100241
0.109776
0.109738
0.100163
0.0835315
0.083519
0.100111
0.109712
0.109677
0.100039
0.083529
0.0835208
0.0999931
0.109655
0.109621
0.0999268
0.083532
0.0835272
0.0998857
0.109601
0.109569
0.0998252
0.0835407
0.083541
0.0997894
0.109551
0.109522
0.0997355
0.0835573
0.0835614
0.0997044
0.109507
0.109479
0.0996557
0.0835799
0.083589
0.0996292
0.109465
0.10944
0.0995864
0.0836103
0.0836233
0.0995641
0.109428
0.109405
0.099526
0.0836467
0.083664
0.0995078
0.109394
0.109373
0.0994744
0.0836909
0.0837097
0.0994596
0.109363
0.109345
0.0994299
0.083738
0.0837618
0.0994182
0.109335
0.10932
0.0993925
0.0837912
0.0838181
0.0993827
0.109309
0.109296
0.0993607
0.083848
0.0838781
0.0993521
0.109286
0.109276
0.099334
0.0839085
0.0839405
0.0993261
0.109265
0.109255
0.0993112
0.083971
0.0840051
0.099304
0.109246
0.109236
0.0992922
0.0840356
0.0840707
0.0992854
0.109229
0.109219
0.0992761
0.0841008
0.0841371
0.0992698
0.109212
0.109203
0.0992637
0.084167
0.0842036
0.099258
0.109198
0.109188
0.0992522
0.0842327
0.0842699
0.0992476
0.109184
0.109175
0.0992421
0.0842984
0.0843352
0.0992388
0.109172
0.109162
0.0992332
0.0843627
0.0843994
0.0992315
0.10916
0.109151
0.099226
0.0844261
0.084462
0.0992252
0.109149
0.10914
0.0992195
0.0844876
0.0845229
0.0992198
0.109138
0.109129
0.0992141
0.0845476
0.0845817
0.099215
0.109128
0.10912
0.0992089
0.0846051
0.0846384
0.0992106
0.109119
0.109111
0.0992045
0.0846608
0.0846926
0.0992065
0.10911
0.109102
0.0991999
0.0847138
0.0847445
0.0992025
0.109102
0.109093
0.0991959
0.0847646
0.0847936
0.0991986