/*--------------------------------*- C++ -*----------------------------------*\
| =========                 |                                                 |
| \\      /  F ield         | OpenFOAM: The Open Source CFD Toolbox           |
|  \\    /   O peration     | Version:  v2006                                 |
|   \\  /    A nd           | Website:  www.openfoam.com                      |
|    \\/     M anipulation  |                                                 |
\*---------------------------------------------------------------------------*/
FoamFile
{
    version     2.0;
    format      ascii;
    class       volScalarField;
    location    "0.012";
    object      yPlus;
}
// * * * * * * * * * * * * * * * * * * * * * * * * * * * * * * * * * * * * * //

dimensions      [0 0 0 0 0 0 0];


internalField   uniform 0;

boundaryField
{
    bottomEmptyFaces
    {
        type            empty;
    }
    topEmptyFaces
    {
        type            empty;
    }
    inlet
    {
        type            calculated;
        value           uniform 0;
    }
    outlet
    {
        type            calculated;
        value           uniform 0;
    }
    walls
    {
        type            calculated;
        value           nonuniform List<scalar> 
681
(
20.5861
20.6132
20.5883
20.6255
20.6041
20.6444
20.6252
20.667
20.6498
20.6927
20.6766
20.7198
20.7048
20.7483
20.7348
20.778
20.7666
20.81
20.8007
20.8451
20.8377
20.8829
20.8764
20.9209
20.914
20.9566
20.9489
20.9895
20.9809
21.0193
21.0098
21.0462
21.0359
21.0703
21.0596
21.0921
21.0811
21.1121
21.1009
21.1306
21.1191
21.1475
21.1359
21.1629
21.1511
21.177
21.165
21.1896
21.1776
21.201
21.1888
21.211
21.1987
21.22
21.2076
21.2279
21.2154
21.2349
21.2224
21.2411
21.2285
21.2467
21.234
21.2516
21.2388
21.256
21.243
21.2599
21.2468
21.2633
21.2502
21.2665
21.2534
21.2694
21.2563
21.2723
21.2592
21.275
21.262
21.2776
21.2645
21.28
21.267
21.2824
21.2694
21.2846
21.2716
21.2867
21.2737
21.2888
21.2759
21.2908
21.2779
21.2928
21.2801
21.2949
21.2821
21.2969
21.2842
21.2989
21.2862
21.3008
21.2881
21.3026
21.29
21.3045
21.2919
21.3064
21.2939
21.3084
21.296
21.3106
21.2983
21.313
21.3011
21.3161
21.3043
21.32
21.3084
21.3247
21.3134
21.3306
21.3194
21.3368
21.326
21.3444
21.3338
21.3518
21.3413
21.3596
21.3491
21.3668
21.3561
21.3733
21.3626
21.379
21.3679
21.3833
21.3718
21.4015
21.4012
21.4149
21.4142
21.4667
21.4994
21.5907
21.629
21.7901
21.9391
22.6866
23.909
12.5635
9.58259
11.9079
8.90041
9.97161
7.19975
12.0229
11.4546
10.2614
8.43167
6.30341
13.0296
12.3953
8.42425
13.5544
9.27243
11.405
7.9605
10.3808
6.80838
11.3461
7.78471
11.2415
11.9039
9.43525
8.40455
11.0685
9.89477
11.1815
9.73087
8.265
9.15172
8.06316
12.6785
10.1957
8.78758
13.744
13.4925
9.79311
8.9063
11.6214
10.9812
13.4754
9.35405
8.56629
13.2793
10.0888
10.5563
9.02403
8.2833
10.9889
10.8177
11.3349
11.0179
9.6868
8.91827
13.2404
11.5787
10.8468
9.80788
8.93091
11.4149
10.3837
13.8082
14.0132
6.9451
7.14506
8.04396
10.5864
9.52045
11.2871
7.58448
9.78919
13.649
8.93182
10.2473
7.99381
7.6012
9.60906
10.5487
13.8249
11.4204
12
8.64028
8.06426
10.9569
11.8562
10.7877
12.5107
9.6066
11.4663
14.0135
14.254
9.19582
10.2015
8.27043
10.2315
17.9355
7.60161
9.44077
6.4108
7.19654
14.4031
14.6622
13.08
13.2019
15.8906
15.455
22.453
20.2654
20.0163
16.7618
17.284
24.1005
19.4625
19.1365
23.575
20.0857
19.4624
4.73482
24.5061
20.3102
19.9172
24.7947
21.2457
20.5692
25.8563
21.8845
21.1311
27.2566
23.5257
22.7224
10.2274
8.60418
7.0239
5.65479
3.88749
7.26343
5.58616
9.53895
8.23584
6.67005
8.86485
7.25755
7.05839
9.88026
19.6503
3.78617
3.83214
4.52488
3.46264
2.51799
16.932
16.711
13.2186
14.3511
14.7516
13.5644
15.8626
12.6013
15.9507
14.5908
14.0999
11.1708
20.3876
20.9103
15.926
16.2259
17.8911
17.9689
15.3775
15.7727
19.7697
14.7402
15.0548
17.2469
17.1498
14.9004
15.278
18.5659
15.5449
14.8482
16.3338
16.1083
13.4347
13.7208
12.7642
13.7908
10.4599
17.0209
16.8451
18.9887
18.8058
16.0847
15.6885
14.4004
13.5131
29.7457
27.2627
31.917
25.025
23.3155
34.3024
31.294
27.4513
26.2534
23.8376
33.217
33.3842
33.6612
34.4803
34.8522
34.762
34.0198
32.8254
31.6518
30.4242
29.3176
28.2335
27.294
26.4156
25.652
24.9575
10.9379
10.6344
9.2396
7.69296
9.50217
7.94858
11.1335
9.66585
8.12459
9.73111
8.21481
12.2967
11.1308
11.4957
9.11951
24.3396
23.7836
13.8115
23.2886
13.011
22.849
12.1503
11.633
22.4552
11.2707
22.1159
21.8066
21.5556
11.0034
10.7426
10.5454
10.2983
21.3121
21.1398
10.0964
9.955
20.9496
9.73844
20.8448
9.58743
20.697
20.6547
20.5438
20.5425
9.48954
9.35828
20.4655
20.4868
9.27204
9.17867
20.4453
9.13989
20.4778
9.08049
9.06192
20.4532
9.02181
20.492
20.475
20.5161
9.01414
8.98695
8.98683
8.96847
20.5008
20.5426
8.97241
8.96109
20.5238
8.96716
20.5634
8.95975
20.5397
20.5741
20.5498
20.5849
8.96723
8.96134
20.5621
20.6007
8.97145
8.96757
20.5789
8.9798
20.6115
8.97865
8.99529
20.5773
8.99909
20.6065
20.5766
20.6003
9.02171
9.03296
9.06189
9.08604
9.12234
9.16537
9.21227
9.27775
9.34091
9.42803
9.50841
9.61424
9.70453
9.81019
9.89151
10.0401
10.1237
10.1982
10.1531
9.90917
9.26099
7.75326
4.89533
5.2749
13.5756
11.8619
11.1454
14.8971
14.0037
12.4625
10.9074
10.0546
12.6369
11.5224
12.0082
10.8657
11.2942
9.94674
10.2679
8.79645
15.0754
14.5183
13.5906
13.5214
16.2821
13.172
12.6503
14.8267
13.7932
12.7263
12.4651
11.7028
11.4564
16.7992
12.0553
12.0544
13.0961
13.1716
12.381
11.9679
10.9627
8.86011
11.9436
10.2125
13.1418
11.0043
11.422
9.73338
13.1773
13.3724
10.4625
10.0025
7.77446
25.2086
3.85189
35.6624
33.2125
31.3003
30.1676
28.9766
28.0652
27.2892
26.5853
26.1042
25.6058
25.2446
24.8385
24.5497
24.2094
23.968
23.6751
23.4645
23.2045
23.0152
22.777
22.6012
22.3752
22.2058
21.9837
21.8137
21.5874
21.4113
21.1774
20.9939
20.7536
20.565
20.3216
20.1302
19.8863
19.6935
19.4494
19.2546
19.0074
18.8075
18.5526
18.344
18.0767
17.8555
17.5709
17.3337
17.0282
16.7722
16.443
16.1659
15.8102
15.5084
15.1216
14.7898
14.3651
13.9929
13.5217
13.0877
12.5546
12.0203
11.3682
10.8194
10.1349
9.30036
8.33864
5.94792
3.11151
4.21498
5.57622
6.40776
6.79582
6.89876
6.54141
5.85427
4.76588
4.34264
4.24751
4.57914
4.83532
5.29916
5.52452
5.89617
6.01733
6.25975
6.25749
6.46878
6.50682
6.65898
6.79683
6.80128
7.12045
7.6878
8.10473
8.50335
8.73183
8.89329
8.94659
8.95955
9.00719
9.04237
9.10595
9.07023
9.02317
8.84449
8.69506
8.34607
8.11891
7.70155
7.39883
7.00321
6.79779
6.71652
6.7575
6.88891
7.34214
7.69886
7.88056
7.8429
7.6579
7.13213
6.51608
5.98447
5.54429
5.17041
4.94269
4.74798
4.66499
4.58414
4.57189
4.53906
4.53452
4.50552
4.48982
4.50753
4.50545
4.51686
4.44003
4.43752
4.36616
38.777
4.05429
)
;
    }
    rightWall
    {
        type            calculated;
        value           uniform 0;
    }
    symmetryLine
    {
        type            symmetryPlane;
    }
}


// ************************************************************************* //
