/*--------------------------------*- C++ -*----------------------------------*\
| =========                 |                                                 |
| \\      /  F ield         | OpenFOAM: The Open Source CFD Toolbox           |
|  \\    /   O peration     | Version:  v2006                                 |
|   \\  /    A nd           | Website:  www.openfoam.com                      |
|    \\/     M anipulation  |                                                 |
\*---------------------------------------------------------------------------*/
FoamFile
{
    version     2.0;
    format      ascii;
    class       volScalarField;
    location    "0.003";
    object      Ma;
}
// * * * * * * * * * * * * * * * * * * * * * * * * * * * * * * * * * * * * * //

dimensions      [0 0 0 0 0 0 0];


internalField   nonuniform List<scalar> 
16277
(
0.125952
0.126041
0.126703
0.126537
0.126307
0.12602
0.125636
0.125182
0.124629
0.124007
0.123306
0.12254
0.121712
0.120822
0.119871
0.118861
0.117798
0.11669
0.115545
0.114365
0.11315
0.1119
0.110618
0.109304
0.107961
0.106591
0.105197
0.103785
0.10236
0.100926
0.0994866
0.098044
0.0966021
0.0951658
0.0937369
0.092311
0.0908812
0.0894441
0.0880009
0.0865536
0.0851003
0.0836355
0.0821519
0.0806436
0.0791067
0.0775384
0.075937
0.074301
0.0726291
0.0709199
0.0691723
0.0673859
0.0655618
0.0637026
0.0618125
0.0598973
0.0579644
0.0560221
0.0540814
0.0521553
0.0502586
0.0484069
0.0466176
0.0449089
0.0433005
0.0418118
0.0404601
0.0392584
0.0382145
0.0373303
0.0366035
0.0360317
0.0356078
0.0353176
0.0351399
0.0350589
0.0350616
0.0351292
0.0352518
0.0354238
0.0356375
0.0358829
0.0361439
0.0364012
0.0366471
0.0368817
0.0371094
0.0373328
0.0375267
0.0378359
0.0378855
0.0379261
0.0379155
0.0379115
0.0378257
0.0376506
0.0367949
0.0358615
0.0375296
0.0378241
0.0377079
0.0371785
0.0346436
0.0334303
0.0366845
0.0374833
0.0371942
0.0361349
0.0323303
0.0313337
0.0355883
0.0368941
0.0365702
0.0350289
0.0303456
0.029448
0.0345263
0.0362844
0.0359697
0.0340141
0.0285804
0.0278423
0.0335761
0.0357079
0.0353993
0.0331121
0.0271322
0.0265275
0.0327152
0.0351385
0.0348228
0.0322775
0.0259153
0.0253822
0.0318978
0.0345566
0.0342355
0.0314745
0.0248128
0.0243076
0.0311069
0.0339698
0.0336479
0.030685
0.0237261
0.0232066
0.0303237
0.0333909
0.0330792
0.029898
0.0225711
0.0219904
0.029532
0.0328363
0.0325236
0.0290728
0.0212311
0.0205089
0.0286649
0.0322742
0.0319449
0.0281355
0.019544
0.0185881
0.0276614
0.0316914
0.0313695
0.0270555
0.0173409
0.0160639
0.0265323
0.0311597
0.0309207
0.02591
0.0144559
0.0128696
0.0254572
0.0308463
0.0307646
0.0249843
0.0111427
0.00971907
0.0247525
0.0308293
0.0308163
0.0244948
0.00853077
0.00781363
0.0244025
0.0308564
0.0307275
0.0241952
0.00737901
0.0073077
0.0240285
0.0305798
0.0302963
0.023745
0.00730995
0.00755664
0.0235461
0.0300451
0.0297383
0.0232977
0.00776979
0.0081456
0.0231006
0.0294636
0.0291399
0.0228851
0.0083331
0.00859988
0.0227288
0.0288822
0.0285993
0.0225167
0.00873193
0.00888828
0.0223912
0.0284133
0.0282129
0.0222256
0.00895469
0.00904924
0.022161
0.0281243
0.0280222
0.0220588
0.00908057
0.00914372
0.0220533
0.0280343
0.0280305
0.0220076
0.00913806
0.00915945
0.022054
0.0281404
0.0282277
0.0220466
0.00908734
0.00901806
0.0221188
0.0284264
0.0286007
0.0221192
0.00880957
0.00851035
0.0222159
0.0289175
0.029247
0.0222746
0.00799304
0.00737755
0.0225074
0.0297822
0.0303214
0.0227459
0.0067833
0.00640851
0.0231853
0.0310208
0.0316313
0.0235779
0.00636728
0.00665089
0.0240916
0.0323433
0.0329197
0.0245279
0.00719912
0.0079147
0.0250805
0.0335645
0.0340771
0.0255702
0.0087113
0.00953335
0.026168
0.0346511
0.0350919
0.0266704
0.0103394
0.0111129
0.0272381
0.0355836
0.0359318
0.0276685
0.0118375
0.0125091
0.0281379
0.036314
0.0365274
0.0284375
0.0131099
0.0136306
0.02874
0.0367369
0.0368116
0.0289138
0.0141255
0.014582
0.0291208
0.0369179
0.0368564
0.0291646
0.0149677
0.0152927
0.0292201
0.0368018
0.0365785
0.0291162
0.0155518
0.0157319
0.0290028
0.0363394
0.0359208
0.0287215
0.0158352
0.0158591
0.0284321
0.0354865
0.0348867
0.0279895
0.0158191
0.015705
0.0275456
0.0342784
0.0335224
0.0269688
0.0155441
0.0153204
0.0264051
0.0327676
0.0318871
0.0257428
0.0151373
0.0148567
0.0250824
0.0310071
0.0300386
0.0244037
0.0147729
0.0144716
0.0236497
0.0290479
0.0280407
0.0230325
0.0145632
0.0144752
0.022254
0.0269956
0.0259642
0.0216778
0.0146717
0.015096
0.0211811
0.0250104
0.0239794
0.0206683
0.015368
0.0161651
0.0205197
0.0232691
0.0223165
0.0200647
0.0164878
0.0173675
0.0200485
0.0217581
0.0209186
0.0197047
0.0178181
0.0185877
0.0196434
0.0203318
0.0195303
0.0193508
0.0191189
0.0197015
0.0190848
0.0187226
0.0177906
0.0186766
0.020134
0.0205207
0.0181516
0.0167
0.0155515
0.0175095
0.0206899
0.0208263
0.0167008
0.0142061
0.0128666
0.015793
0.0205882
0.0203917
0.0146876
0.0113577
0.0099813
0.0135792
0.0197335
0.0192488
0.0122899
0.00840773
0.00711245
0.0111174
0.0183307
0.017726
0.00976343
0.00554965
0.00450892
0.00869497
0.0167528
0.016063
0.00729681
0.00290442
0.00241119
0.00657575
0.0152914
0.0144571
0.0050215
0.000562414
0.00109532
0.00472466
0.0140108
0.0131111
0.00313124
0.00135131
0.00171454
0.0030926
0.0129033
0.0121113
0.00168252
0.00276025
0.00295882
0.0017024
0.0119823
0.0113696
0.000571329
0.00385612
0.00400698
0.000614463
0.0112951
0.0108116
0.000329592
0.00473163
0.00482925
0.000227916
0.0108104
0.0103971
0.00101408
0.00543551
0.0054857
0.000869213
0.0104503
0.0101055
0.0015381
0.00599441
0.00600115
0.0013707
0.0102005
0.00990515
0.00193671
0.00643649
0.00642041
0.00176267
0.0100191
0.00975531
0.00224858
0.00679905
0.0067741
0.00207815
0.00987828
0.00963788
0.00249873
0.00710747
0.00708272
0.00234093
0.00976734
0.00954736
0.00270749
0.00737997
0.0073583
0.00256468
0.00968244
0.00948261
0.00288232
0.0076233
0.00760492
0.00275243
0.00962073
0.0094366
0.00302926
0.00784409
0.0078313
0.00291137
0.00957236
0.00940498
0.00315278
0.00804766
0.00803647
0.00304621
0.0095377
0.00938924
0.0032536
0.00822578
0.00822294
0.00316147
0.00950833
0.00937619
0.00333674
0.00838823
0.00838525
0.00325664
0.00947853
0.00936507
0.00340026
0.00852312
0.00851544
0.00332825
0.00945426
0.00935971
0.00344061
0.00862712
0.00861707
0.0033759
0.00943764
0.00936313
0.00345901
0.00870578
0.00869577
0.00340303
0.00942994
0.00936976
0.0034648
0.00876665
0.00875974
0.00342191
0.00941667
0.00935503
0.0034725
0.0088175
0.00881339
0.00344437
0.0093691
0.00930188
0.00348875
0.00885676
0.0088449
0.00346539
0.00929278
0.00923442
0.00349116
0.00885768
0.00881162
0.00345276
0.00922356
0.00918447
0.00343146
0.00875983
0.00863603
0.0033468
0.00918115
0.00917513
0.00323764
0.00846426
0.00819887
0.00305921
0.0091961
0.00924588
0.0028045
0.00783832
0.0073607
0.00247116
0.0093079
0.00943715
0.0020218
0.00677206
0.00607885
0.00149184
0.00956829
0.00982022
0.000820291
0.0052537
0.00435745
0.000250602
0.0100945
0.0105323
0.00101136
0.00332291
0.00228192
0.0020157
0.0109848
0.0115622
0.00312637
0.00117593
0.000530183
0.00420301
0.0121104
0.0126167
0.00515636
0.00145993
0.00224996
0.00587925
0.0129549
0.012659
0.00613969
0.00288749
0.00272537
0.00580766
0.0119238
0.0105401
0.00488733
0.00205656
0.0012484
0.00331037
0.00856134
0.00597333
0.00142018
0.00193517
0.00423619
0.00209318
0.00304318
0.000483902
0.0047798
0.00666568
0.00802473
0.00735748
0.00432895
0.0120394
0.018225
0.0216943
0.020315
0.0188287
0.0175425
0.0162042
0.0155748
0.0149422
0.0154356
0.0160965
0.0172546
0.0173265
0.0173704
0.0172668
0.0166687
0.015933
0.0152072
0.0135853
0.00472784
0.00571734
0.0164586
0.0160964
0.00618068
0.00437138
0.00401475
0.00640868
0.0158684
0.0155636
0.00611225
0.00396681
0.00415826
0.00580625
0.0153358
0.0151044
0.00552655
0.00437543
0.00459536
0.00537437
0.0149844
0.0148344
0.0051873
0.00473032
0.00476883
0.00514703
0.0147459
0.0146131
0.00505322
0.00482707
0.00486142
0.00496902
0.014488
0.0144013
0.00492545
0.0048711
0.00480625
0.00497028
0.0143642
0.0143058
0.00496427
0.00474883
0.00469354
0.00495338
0.0142681
0.0142705
0.0050021
0.00460347
0.00445464
0.00515404
0.0143388
0.0144012
0.00528833
0.00432387
0.00420033
0.00540262
0.0144569
0.0145499
0.00554653
0.00404107
0.00383905
0.00576538
0.0146869
0.0148076
0.00594889
0.00367277
0.00353306
0.00608535
0.0148926
0.0150069
0.00624262
0.00338009
0.00319145
0.00645836
0.0151562
0.015282
0.00662269
0.00305591
0.00295596
0.00672644
0.0153675
0.0154776
0.00684713
0.00284808
0.00270282
0.00703022
0.0156194
0.0157346
0.00715523
0.00262045
0.00257536
0.00722368
0.0158067
0.0159019
0.00733571
0.00252482
0.00242924
0.00751377
0.0160205
0.0161077
0.00763439
0.00237421
0.0023252
0.00769955
0.0161556
0.0162264
0.00779841
0.00224207
0.00210874
0.00795629
0.0163176
0.0163835
0.00805265
0.00204041
0.00197749
0.00809029
0.0164257
0.0164903
0.008161
0.00188518
0.00175304
0.00830469
0.0165785
0.0166389
0.00838125
0.00169659
0.00164736
0.00840347
0.0166762
0.0167371
0.00846533
0.00156982
0.00144885
0.00860755
0.0168251
0.0168837
0.00867719
0.00140581
0.00136901
0.00869449
0.0169184
0.0169765
0.00875372
0.00130267
0.00118541
0.00889798
0.017063
0.0171167
0.0089608
0.00114987
0.00112073
0.00897168
0.0171449
0.0171956
0.00902517
0.00106273
0.000948151
0.00916656
0.0172754
0.0173193
0.00921699
0.000922157
0.000902249
0.00921772
0.0173374
0.0173783
0.00926236
0.000855526
0.000744612
0.00939907
0.0174501
0.0174826
0.0094342
0.000730072
0.000720539
0.00942074
0.0174893
0.0175193
0.00945411
0.000686849
0.000581261
0.00957992
0.0175801
0.0175972
0.00959231
0.000585064
0.00059247
0.00956077
0.0175901
0.017611
0.00957825
0.000590677
0.000497116
0.00969061
0.0176679
0.0176768
0.00967509
0.000500588
0.000517459
0.00962892
0.0176549
0.0176624
0.0096322
0.000549478
0.000467114
0.00973558
0.0177118
0.0177129
0.00969925
0.000492957
0.000518108
0.00964385
0.0176854
0.0176848
0.00963786
0.000557408
0.000473471
0.00974044
0.0177258
0.0177158
0.00968787
0.000544857
0.000583222
0.00962293
0.0176871
0.0176819
0.00960502
0.000632146
0.000542245
0.00970374
0.0177169
0.0176899
0.00961893
0.000639957
0.000691224
0.00954012
0.0176455
0.0176254
0.00950036
0.000781841
0.00069031
0.0095817
0.0176482
0.0175904
0.00943929
0.000791157
0.00084831
0.00933977
0.017514
0.0174504
0.00926631
0.00097139
0.000906137
0.00931096
0.017428
0.0173116
0.00910388
0.00106713
0.00116554
0.00896357
0.017194
0.0170713
0.00882038
0.0013453
0.00126486
0.00881808
0.016992
0.0167714
0.00850458
0.00145894
0.00161247
0.00829021
0.0165803
0.0164225
0.00807589
0.00184619
0.00178291
0.00807116
0.016384
0.0163176
0.00779678
0.00198003
0.00216211
0.00773183
0.0163471
0.0164034
0.00753431
0.00247974
0.00238255
0.00764698
0.0165395
0.0166047
0.00758876
0.00264364
0.0030052
0.00706675
0.0165219
0.0164321
0.00685647
0.00336958
0.00347062
0.00668407
0.0163167
0.0160376
0.00608427
0.00384684
0.00422959
0.0055902
0.0156557
0.015025
0.00494389
0.00470036
0.00492865
0.00443442
0.0142269
0.0131292
0.0034716
0.00552591
0.00561383
0.00297405
0.012215
0.0103151
0.00133859
0.00714887
0.00344054
0.00225367
0.00855741
0.0100169
0.0053495
0.00158736
0.00320406
0.00359592
0.0107805
0.0121169
0.0043395
0.0030663
0.00356353
0.00438555
0.0128088
0.0134589
0.00521738
0.00328678
0.00402598
0.00475234
0.0135962
0.0133438
0.00426375
0.00454673
0.00519621
0.00334981
0.012847
0.0122763
0.00293364
0.00543576
0.00633633
0.00155357
0.0110382
0.0100436
0.00112119
0.00668759
0.00858838
0.00204499
0.00800458
0.00644297
0.00100564
0.00552723
0.00320639
0.00198723
0.00732287
0.00727223
0.000888832
0.00647594
0.00753289
0.00122536
0.00787519
0.00793084
0.00236141
0.00852228
0.00922526
0.0030181
0.0076862
0.00679442
0.00400157
0.0100764
0.0106219
0.00460697
0.00598435
0.00396782
0.00705697
0.0125566
0.00987142
0.00559492
0.00375413
0.00394244
0.00434458
0.00883901
0.0110754
0.00685136
0.00280797
0.00313502
0.00740994
0.0121026
0.0133072
0.0084662
0.00225984
0.00183193
0.00894141
0.0139264
0.0162183
0.0118966
0.00196738
0.000450695
0.0111266
0.0145631
0.0147731
0.0113591
0.00218915
0.00506448
0.0141977
0.0172613
0.019087
0.0158666
0.00595692
0.00714479
0.0171974
0.020518
0.0233763
0.020388
0.0107315
0.00985651
0.019014
0.0222899
0.0233226
0.0205826
0.011291
0.014201
0.0236457
0.0259452
0.0281418
0.0257427
0.0159165
0.0206755
0.0300598
0.0320639
0.0322238
0.0294529
0.0208672
0.0235383
0.032548
0.0345323
0.0382992
0.036891
0.0281404
0.0323225
0.0408217
0.0420115
0.0473425
0.0465405
0.038318
0.040117
0.0474717
0.0495074
0.053522
0.0525156
0.0449991
0.0538917
0.0607421
0.0606603
0.0650546
0.0637481
0.0573119
0.0653756
0.0717497
0.0717004
0.0814043
0.0833585
0.0786451
0.086315
0.0909514
0.0907982
0.101584
0.105028
0.103649
0.116136
0.118345
0.116243
0.131088
0.137937
0.144727
0.168554
0.161564
0.155947
0.172559
0.179076
0.180842
0.172738
0.183394
0.176229
0.166952
0.174997
0.150383
0.12242
0.159743
0.149225
0.12337
0.127009
0.0911394
0.0617112
0.112012
0.118743
0.0997261
0.0868459
0.0412875
0.0057228
0.0783112
0.102803
0.0893237
0.0661271
0.00328795
0.0364725
0.0399579
0.0666829
0.0686919
0.0406852
0.0143991
0.0162149
0.0289915
0.0537153
0.0584378
0.0315075
0.0143741
0.00332298
0.0291727
0.0508427
0.0321237
0.00729097
0.0251118
0.0134508
0.016693
0.039501
0.0346972
0.0164577
0.00756303
0.0212235
0.00304875
0.0199766
0.0286824
0.0107487
0.0134983
0.00803753
0.0108937
0.0256546
0.013856
0.0047111
0.0190161
0.0119542
0.00764568
0.0221969
0.0202299
0.00776526
0.00736186
0.0162975
0.00334875
0.0114912
0.0183565
0.00691631
0.00857589
0.00570574
0.00682096
0.0173116
0.0102769
0.00148183
0.0151772
0.00698024
0.00747098
0.017096
0.0165816
0.00736478
0.00430743
0.012731
0.00180095
0.0113757
0.0170777
0.00911406
0.00405899
0.00196594
0.0091332
0.0172561
0.0125575
0.00408753
0.0110025
0.00139643
0.0115439
0.0187086
0.0183717
0.0106243
0.00197538
0.00369254
0.00835127
0.0166839
0.0123788
0.0035068
0.0112678
0.00191232
0.0105456
0.0173646
0.0175855
0.0100019
0.00108039
0.00833766
0.00547651
0.0132406
0.0179736
0.0111063
0.00182502
0.000905442
0.0102354
0.0176536
0.0132333
0.00570473
0.00809795
0.00129327
0.0109884
0.0171711
0.017372
0.0105016
6.28669e-05
0.0067572
0.00593877
0.012954
0.0179387
0.0115248
0.000808027
0.000365754
0.0109344
0.0177618
0.0136574
0.006883
0.00537855
0.00107651
0.0119579
0.0177276
0.018051
0.0117292
0.00179018
0.00364888
0.0077281
0.0139848
0.0193263
0.0135586
0.00271478
0.00332043
0.0133297
0.0195074
0.0160447
0.0101003
0.00122648
0.00513333
0.0154711
0.0204767
0.0210192
0.0154287
0.0056391
0.00123099
0.0123199
0.0176158
0.0228576
0.0184073
0.0081849
0.00557727
0.0165635
0.021135
0.0254391
0.0211011
0.0114226
0.0119866
0.0212891
0.026043
0.0231449
0.0184928
0.00834091
0.014374
0.0241563
0.0286416
0.0292718
0.0244611
0.0147727
0.0116587
0.0221172
0.02681
0.0313769
0.0274973
0.0180297
0.018348
0.0278491
0.0321819
0.0298505
0.0255126
0.0153066
0.0208512
0.0303797
0.0340547
0.0346009
0.0304537
0.0207449
0.0176798
0.0280707
0.0324436
0.0360995
0.0327058
0.0233669
0.0234085
0.0329165
0.0368299
0.0346025
0.0305301
0.0201938
0.0255511
0.0353797
0.0384891
0.0372812
0.0339178
0.0236174
0.028181
0.0375587
0.0406521
0.041176
0.0375879
0.0280591
0.0254204
0.0354267
0.0392698
0.0428016
0.0397954
0.0305342
0.0303827
0.0399617
0.0434626
0.0414692
0.0375742
0.0273832
0.0323748
0.0420206
0.044759
0.0435837
0.0404125
0.0302894
0.0349972
0.0441383
0.0471648
0.0478145
0.0444185
0.0352283
0.0326533
0.0423133
0.0460836
0.0492624
0.0464143
0.0374272
0.0372146
0.0465205
0.049884
0.0479674
0.0441466
0.0341285
0.0387235
0.0484514
0.0512258
0.050071
0.0467732
0.0365988
0.0410139
0.050122
0.052827
0.0534956
0.0503121
0.0411157
0.0384259
0.0482074
0.051837
0.0548719
0.0521207
0.0429471
0.0426242
0.0521173
0.0554546
0.0535878
0.0497212
0.0394989
0.0439201
0.0538397
0.056535
0.0554115
0.052129
0.0417788
0.0463578
0.0557191
0.058537
0.0591317
0.0558018
0.0464206
0.0436231
0.0535687
0.0574265
0.060534
0.057829
0.0481003
0.0464024
0.0564218
0.0597088
0.0627023
0.0600369
0.050873
0.0504179
0.0597748
0.0629979
0.0611079
0.0571848
0.0474093
0.0513328
0.0610836
0.0639191
0.0630644
0.0595894
0.0495961
0.0544895
0.0635144
0.0662512
0.0666898
0.063411
0.0542608
0.0513981
0.0610194
0.0649804
0.0678829
0.0651465
0.0555488
0.0536989
0.0636003
0.0669924
0.0697104
0.0670577
0.0578742
0.0573257
0.0666132
0.0698833
0.0679212
0.0639924
0.0540303
0.0581179
0.0679163
0.0705624
0.0699704
0.0666636
0.0567002
0.0610179
0.0703401
0.0728964
0.0733594
0.0701825
0.0607343
0.0577246
0.0677505
0.0716336
0.0742938
0.0716417
0.0615452
0.0596655
0.069859
0.0733902
0.0761145
0.0735146
0.0637282
0.0616635
0.0715596
0.0749916
0.0772907
0.0747188
0.0655043
0.0654747
0.0746587
0.0778333
0.0763398
0.0725199
0.0628993
0.0668037
0.076478
0.0791581
0.0784284
0.0749759
0.0650662
0.0691263
0.0784939
0.0810106
0.0813408
0.0780821
0.0685746
0.0655147
0.0756517
0.0795937
0.0821568
0.0794285
0.0690006
0.066711
0.0773539
0.0810439
0.0835523
0.0809186
0.0706421
0.0692299
0.0794457
0.0828803
0.0856055
0.0830779
0.0737484
0.0734294
0.0828568
0.0860926
0.0845467
0.0806112
0.0707709
0.0743947
0.084474
0.0871071
0.0862078
0.0826664
0.0723656
0.0764851
0.086469
0.0889868
0.0881686
0.0847988
0.0748741
0.0784864
0.0879109
0.090462
0.0907261
0.0873805
0.0778465
0.0750645
0.08513
0.0891887
0.0918732
0.089246
0.0790946
0.0774263
0.0876936
0.0912474
0.0938745
0.0914909
0.0815677
0.0799617
0.0898601
0.093184
0.0956341
0.0932003
0.0839656
0.0836251
0.0929083
0.0960997
0.0945541
0.0906524
0.0808675
0.084198
0.0942884
0.096928
0.0959279
0.0923068
0.0820381
0.0856544
0.0958571
0.0984601
0.097803
0.0942719
0.0841718
0.0884197
0.0977721
0.100207
0.100791
0.0975512
0.0881316
0.0852499
0.0953532
0.0992569
0.101669
0.0991569
0.0886399
0.0866335
0.0973947
0.100875
0.103344
0.101048
0.0906266
0.0888386
0.0992044
0.102537
0.104756
0.10234
0.0927711
0.0921723
0.101817
0.105066
0.10327
0.0992087
0.0889574
0.0923117
0.102862
0.105559
0.104901
0.1012
0.0905955
0.0950544
0.1053
0.107766
0.107035
0.103572
0.0934541
0.0972414
0.107173
0.109516
0.10878
0.105522
0.0956195
0.0993804
0.108689
0.111016
0.111426
0.108258
0.0989334
0.0961064
0.105955
0.109884
0.112159
0.109575
0.0990878
0.0968632
0.107576
0.1112
0.113609
0.111043
0.100317
0.0983837
0.10905
0.11271
0.115191
0.112778
0.10268
0.101202
0.111188
0.114565
0.116904
0.114604
0.10527
0.104855
0.114296
0.117429
0.115931
0.11201
0.101999
0.105294
0.115769
0.118279
0.117446
0.11387
0.103192
0.107043
0.117576
0.120007
0.119092
0.115609
0.105173
0.108897
0.119038
0.121392
0.120499
0.117104
0.107081
0.110614
0.120151
0.122601
0.123109
0.119862
0.110261
0.107609
0.117666
0.121677
0.124068
0.121508
0.110911
0.108823
0.119653
0.123286
0.125892
0.12352
0.112853
0.11104
0.121583
0.125058
0.127295
0.124946
0.114666
0.112854
0.123097
0.126494
0.12867
0.126306
0.116769
0.116243
0.125825
0.129074
0.127442
0.123451
0.113143
0.116057
0.127036
0.12965
0.128701
0.124938
0.113756
0.118023
0.128922
0.131406
0.130639
0.127014
0.116366
0.120222
0.130748
0.133159
0.1323
0.12884
0.118419
0.121964
0.132205
0.134593
0.133818
0.130431
0.120317
0.124088
0.133696
0.136021
0.136483
0.133246
0.123544
0.120522
0.130831
0.1349
0.137196
0.134548
0.123673
0.121281
0.13244
0.13618
0.138589
0.136076
0.124973
0.1229
0.13387
0.137606
0.140107
0.137604
0.126941
0.125318
0.135773
0.139336
0.141726
0.13933
0.12901
0.12743
0.137656
0.141056
0.143373
0.141053
0.13153
0.130928
0.140587
0.143787
0.142188
0.138159
0.127878
0.13127
0.141949
0.144545
0.143654
0.139917
0.129152
0.133188
0.143899
0.146345
0.145411
0.141835
0.131213
0.134671
0.145243
0.147692
0.146664
0.143094
0.132679
0.136273
0.146513
0.148952
0.148243
0.144853
0.134702
0.138474
0.148143
0.150472
0.150965
0.147733
0.137999
0.135013
0.145349
0.149396
0.151622
0.148989
0.137901
0.135677
0.146946
0.150735
0.153343
0.150911
0.139653
0.137556
0.148775
0.152387
0.15472
0.1523
0.141326
0.139474
0.150263
0.153779
0.156014
0.153593
0.142994
0.14129
0.151725
0.155195
0.157468
0.155121
0.14535
0.144791
0.154632
0.157912
0.156306
0.152209
0.141765
0.144926
0.155952
0.158613
0.157762
0.154001
0.14283
0.146902
0.158044
0.16048
0.159495
0.155866
0.144758
0.148501
0.159387
0.161827
0.160889
0.157382
0.1467
0.150187
0.160772
0.163203
0.162366
0.158894
0.148442
0.152299
0.162178
0.164543
0.164922
0.161602
0.151645
0.148443
0.159134
0.163285
0.165593
0.162907
0.151583
0.149193
0.160702
0.164574
0.167144
0.164604
0.15315
0.150993
0.162375
0.166122
0.168585
0.166078
0.154756
0.152804
0.16392
0.167572
0.169909
0.16742
0.156388
0.154489
0.165304
0.168922
0.171315
0.168887
0.158318
0.156593
0.167047
0.1705
0.172698
0.170312
0.160567
0.159932
0.169775
0.173082
0.171471
0.167409
0.156951
0.160189
0.171167
0.173821
0.17287
0.169121
0.158004
0.162001
0.173048
0.175506
0.174499
0.170888
0.159997
0.163576
0.174363
0.176831
0.175793
0.172214
0.16168
0.165198
0.175616
0.178065
0.17714
0.17372
0.163373
0.167095
0.17693
0.179307
0.179561
0.176255
0.166272
0.163286
0.173841
0.177916
0.180204
0.177569
0.16644
0.163922
0.175238
0.17906
0.181565
0.179047
0.167712
0.165685
0.176901
0.180553
0.182855
0.180385
0.169253
0.167396
0.17829
0.181882
0.184274
0.181875
0.171159
0.16946
0.180044
0.183447
0.185608
0.183293
0.173373
0.172228
0.182394
0.185731
0.184
0.179838
0.16915
0.172484
0.183655
0.186388
0.18523
0.181359
0.170004
0.173847
0.185165
0.187759
0.186607
0.182835
0.171677
0.175487
0.186485
0.189023
0.187982
0.184394
0.173631
0.177148
0.187799
0.190277
0.189373
0.185886
0.175356
0.179328
0.189235
0.191631
0.191973
0.188653
0.178574
0.175585
0.186222
0.190362
0.192773
0.190151
0.179002
0.176697
0.187969
0.191705
0.19411
0.19154
0.180166
0.177739
0.189012
0.192802
0.195015
0.192417
0.181244
0.179167
0.190145
0.193841
0.196191
0.193691
0.182905
0.180953
0.191691
0.195209
0.197394
0.194968
0.1849
0.184123
0.194385
0.197721
0.196017
0.191885
0.181113
0.184378
0.19568
0.198416
0.197405
0.193561
0.182171
0.186218
0.1975
0.20007
0.199145
0.195452
0.184331
0.188673
0.199374
0.20175
0.200807
0.197427
0.186846
0.190097
0.20038
0.202817
0.202757
0.199327
0.188728
0.185368
0.19654
0.200841
0.203186
0.200375
0.188578
0.186035
0.198012
0.201991
0.204544
0.201898
0.189998
0.187711
0.199484
0.203355
0.205841
0.203201
0.19183
0.189704
0.20103
0.204795
0.207162
0.204594
0.194094
0.193373
0.204113
0.207647
0.205969
0.201584
0.190311
0.193928
0.205747
0.208587
0.207774
0.20382
0.191898
0.196771
0.208337
0.21079
0.209561
0.205857
0.194413
0.197627
0.209106
0.211749
0.210477
0.206698
0.195267
0.199282
0.210033
0.212696
0.212803
0.209098
0.198006
0.194777
0.206387
0.210984
0.213602
0.21066
0.198585
0.19597
0.208261
0.212393
0.21511
0.21237
0.20026
0.198191
0.210134
0.214121
0.216934
0.214233
0.202584
0.2005
0.212189
0.216068
0.218674
0.216088
0.205209
0.204766
0.21593
0.219524
0.2182
0.213902
0.202354
0.206136
0.218195
0.220939
0.219357
0.215279
0.202971
0.206821
0.218969
0.221785
0.220492
0.216505
0.204459
0.208552
0.220305
0.223062
0.221954
0.218023
0.206307
0.21065
0.221675
0.224393
0.22481
0.221054
0.20972
0.206688
0.218493
0.223076
0.22573
0.222765
0.21058
0.208331
0.220676
0.224831
0.227957
0.225297
0.213412
0.211368
0.22342
0.227319
0.2302
0.227656
0.216528
0.216731
0.228059
0.231516
0.229876
0.22559
0.214153
0.216926
0.229104
0.232108
0.230508
0.226231
0.213772
0.218055
0.230313
0.233254
0.23207
0.227919
0.215688
0.220255
0.232074
0.234859
0.23397
0.230001
0.218198
0.222832
0.233911
0.236652
0.237252
0.233437
0.222007
0.219369
0.230997
0.235663
0.238498
0.235492
0.223607
0.221444
0.233584
0.237762
0.241149
0.23854
0.226829
0.225195
0.237066
0.240898
0.244016
0.24191
0.231751
0.23136
0.241754
0.244797
0.242696
0.238482
0.227194
0.229961
0.241892
0.244855
0.243589
0.23942
0.227133
0.231762
0.243707
0.246504
0.245617
0.241628
0.229473
0.234258
0.245619
0.248335
0.248891
0.24504
0.233224
0.230451
0.242524
0.247306
0.250227
0.247204
0.235324
0.232987
0.245327
0.249533
0.252815
0.250092
0.238553
0.238165
0.25033
0.254239
0.25336
0.248713
0.236337
0.242225
0.254216
0.256815
0.255391
0.251415
0.239077
0.242288
0.254771
0.257748
0.256162
0.251873
0.239056
0.243654
0.255714
0.258681
0.258986
0.254863
0.242357
0.239185
0.252123
0.257163
0.260192
0.256945
0.244076
0.241502
0.254877
0.259311
0.262587
0.259708
0.24733
0.246516
0.259524
0.263644
0.262193
0.257115
0.243705
0.249557
0.262584
0.265708
0.265594
0.26134
0.248063
0.255443
0.267197
0.269531
0.269712
0.266089
0.253701
0.248541
0.26201
0.266974
0.269402
0.266003
0.252475
0.249129
0.263203
0.267927
0.271
0.267845
0.254864
0.253569
0.267205
0.271587
0.269703
0.264292
0.250211
0.255792
0.269695
0.273191
0.272287
0.267468
0.253059
0.259667
0.272911
0.27599
0.277384
0.272947
0.258959
0.256577
0.270948
0.27634
0.280729
0.278129
0.265506
0.263188
0.276093
0.279938
0.282452
0.279425
0.266416
0.263307
0.277258
0.281599
0.278915
0.273365
0.258772
0.264018
0.278436
0.282129
0.28075
0.27576
0.260826
0.267014
0.280785
0.284132
0.284827
0.28021
0.265779
0.26254
0.277336
0.283045
0.286964
0.283479
0.26928
0.267256
0.282
0.286758
0.291207
0.28866
0.276202
0.277758
0.290392
0.293631
0.291733
0.287333
0.27421
0.276439
0.290189
0.293761
0.292782
0.287995
0.273067
0.268496
0.284111
0.290074
0.293617
0.289781
0.274546
0.271344
0.287159
0.292346
0.296113
0.292669
0.278317
0.27743
0.292497
0.297168
0.295813
0.290044
0.27449
0.282411
0.296611
0.300059
0.302666
0.298346
0.283224
0.281852
0.296925
0.302037
0.305855
0.302538
0.287717
0.283183
0.299671
0.304663
0.301024
0.294504
0.27719
0.283575
0.300085
0.304353
0.302724
0.297058
0.280055
0.287795
0.302995
0.306796
0.307847
0.302823
0.286921
0.284173
0.300441
0.30658
0.31134
0.307791
0.293342
0.295046
0.310288
0.314529
0.314286
0.30939
0.294342
0.300272
0.315029
0.318221
0.316732
0.311837
0.295263
0.288846
0.306494
0.313095
0.316333
0.311967
0.295921
0.294282
0.31152
0.316895
0.315119
0.308452
0.290671
0.300091
0.316045
0.320106
0.322801
0.317594
0.300459
0.300682
0.317758
0.323515
0.329701
0.327051
0.312867
0.309304
0.325555
0.329748
0.327942
0.321842
0.303084
0.295081
0.315802
0.323775
0.327716
0.322763
0.304266
0.303097
0.323139
0.329227
0.32824
0.320845
0.300243
0.313943
0.330882
0.334785
0.340484
0.336794
0.319059
0.320295
0.33809
0.342909
0.338606
0.331252
0.310464
0.315804
0.335448
0.340928
0.340152
0.333732
0.311656
0.309251
0.332698
0.340543
0.339168
0.329928
0.305642
0.324998
0.343028
0.34713
0.353255
0.349379
0.330493
0.328359
0.348756
0.354468
0.348928
0.340199
0.315771
0.32392
0.345407
0.351496
0.352036
0.345508
0.321358
0.321145
0.347444
0.355005
0.361619
0.354327
0.327728
0.324982
0.350834
0.359604
0.363062
0.355675
0.330168
0.321477
0.350757
0.359523
0.359796
0.350121
0.317992
0.320759
0.35476
0.363632
0.366204
0.35621
0.320598
0.310433
0.350357
0.363292
0.354257
0.338223
0.296267
0.32054
0.350028
0.35904
0.357957
0.349523
0.319421
0.310841
0.345087
0.355508
0.350051
0.337576
0.297061
0.285209
0.329522
0.34334
0.336535
0.320823
0.272664
0.257836
0.311073
0.329124
0.322055
0.301872
0.24467
0.234066
0.294159
0.316155
0.311202
0.287485
0.225054
0.217058
0.28141
0.306779
0.302698
0.275756
0.209885
0.203451
0.270508
0.298919
0.295407
0.265638
0.197677
0.192496
0.261118
0.292126
0.289042
0.256914
0.187858
0.18369
0.252988
0.28612
0.283344
0.249325
0.179954
0.176607
0.245915
0.280697
0.278167
0.242738
0.173615
0.170951
0.239783
0.275743
0.273422
0.237037
0.168596
0.166525
0.234489
0.271195
0.26905
0.23212
0.16471
0.163149
0.229942
0.267006
0.26508
0.227967
0.161845
0.160775
0.226185
0.263266
0.261559
0.224581
0.159913
0.159246
0.22315
0.259958
0.258468
0.221886
0.158755
0.158433
0.220787
0.257088
0.25582
0.219844
0.158263
0.158235
0.21905
0.254664
0.253615
0.218388
0.158335
0.158555
0.217857
0.252675
0.25183
0.217436
0.158883
0.159311
0.217119
0.251078
0.250407
0.216877
0.159832
0.160421
0.216705
0.249815
0.249288
0.216587
0.16105
0.161692
0.216528
0.248829
0.248423
0.216511
0.162341
0.16299
0.216544
0.248077
0.247781
0.216618
0.16364
0.164286
0.216738
0.247538
0.247339
0.216897
0.164932
0.165573
0.217099
0.247188
0.247079
0.217335
0.166214
0.166847
0.217607
0.247019
0.246997
0.217905
0.167479
0.168104
0.218235
0.247028
0.247097
0.218589
0.16873
0.169351
0.218971
0.247218
0.247372
0.219375
0.169973
0.170594
0.219806
0.247573
0.247801
0.220254
0.171215
0.171834
0.220726
0.248067
0.248351
0.22121
0.172452
0.173066
0.221712
0.248666
0.248991
0.222221
0.173675
0.174279
0.222742
0.24934
0.249695
0.223267
0.174876
0.175465
0.2238
0.25007
0.250448
0.224333
0.176044
0.176615
0.224872
0.250841
0.25124
0.22541
0.177175
0.177725
0.225952
0.251647
0.252062
0.22649
0.178264
0.17879
0.227029
0.252479
0.252903
0.227563
0.179304
0.179806
0.228096
0.253328
0.253759
0.228622
0.180294
0.180771
0.229145
0.254186
0.254621
0.22966
0.181233
0.181685
0.230172
0.255048
0.255484
0.230675
0.182122
0.18255
0.231173
0.255908
0.256342
0.231663
0.182964
0.183369
0.232146
0.256761
0.257191
0.232622
0.183761
0.184143
0.233089
0.257602
0.258024
0.233548
0.184511
0.184869
0.233997
0.258424
0.258836
0.234438
0.185215
0.185548
0.234869
0.259222
0.259622
0.235289
0.185869
0.186177
0.235697
0.25999
0.260373
0.236095
0.186471
0.186751
0.236479
0.260721
0.261084
0.23685
0.187017
0.187266
0.237207
0.261407
0.261747
0.237549
0.187501
0.187718
0.237875
0.262042
0.262352
0.238184
0.187919
0.188099
0.238476
0.262614
0.262891
0.238748
0.188264
0.188407
0.239002
0.263116
0.263355
0.239234
0.188532
0.188635
0.239446
0.263539
0.263735
0.239635
0.188721
0.188784
0.239804
0.263876
0.264029
0.23995
0.18883
0.188856
0.240077
0.264127
0.264237
0.240182
0.188864
0.188854
0.240267
0.264293
0.264362
0.240331
0.188828
0.188785
0.240379
0.264379
0.26441
0.240408
0.188728
0.188656
0.24042
0.264392
0.26439
0.240419
0.188574
0.18848
0.240404
0.264344
0.264317
0.24038
0.188379
0.188268
0.240343
0.264249
0.264201
0.2403
0.188151
0.188028
0.240248
0.264118
0.264057
0.240193
0.187902
0.187772
0.240129
0.263963
0.263894
0.240067
0.18764
0.187508
0.239999
0.263797
0.263725
0.239935
0.187377
0.187246
0.239865
0.263629
0.263557
0.239801
0.187117
0.186992
0.239735
0.263466
0.263402
0.239678
0.186873
0.18676
0.23962
0.26332
0.263265
0.239572
0.186654
0.186558