/*--------------------------------*- C++ -*----------------------------------*\
| =========                 |                                                 |
| \\      /  F ield         | OpenFOAM: The Open Source CFD Toolbox           |
|  \\    /   O peration     | Version:  v2006                                 |
|   \\  /    A nd           | Website:  www.openfoam.com                      |
|    \\/     M anipulation  |                                                 |
\*---------------------------------------------------------------------------*/
FoamFile
{
    version     2.0;
    format      ascii;
    class       volScalarField;
    location    "0.007";
    object      Ma;
}
// * * * * * * * * * * * * * * * * * * * * * * * * * * * * * * * * * * * * * //

dimensions      [0 0 0 0 0 0 0];


internalField   nonuniform List<scalar> 
12716
(
0.171575
0.171575
0.171575
0.171575
0.171575
0.171571
0.171536
0.171411
0.171168
0.170862
0.170529
0.170186
0.169831
0.169459
0.169069
0.168656
0.168222
0.167764
0.167282
0.166775
0.166242
0.165684
0.1651
0.16449
0.163855
0.163194
0.162508
0.161798
0.161064
0.160308
0.15953
0.158732
0.157915
0.157081
0.156231
0.155368
0.154493
0.153609
0.152718
0.151823
0.150926
0.150031
0.149139
0.148255
0.14738
0.146518
0.145672
0.144843
0.144036
0.143253
0.142496
0.141768
0.14107
0.140403
0.139767
0.139161
0.138585
0.138043
0.137552
0.137165
0.136938
0.136864
0.136868
0.136882
0.136876
0.136815
0.136656
0.136343
0.135756
0.135081
0.132676
0.131171
0.135109
0.135898
0.136006
0.134993
0.12949
0.127742
0.134792
0.136091
0.13611
0.13451
0.126117
0.12453
0.134117
0.136032
0.135888
0.133686
0.123074
0.121728
0.133212
0.135691
0.135456
0.132716
0.120507
0.119364
0.132202
0.135185
0.134901
0.131681
0.118313
0.117305
0.131157
0.134581
0.13426
0.130629
0.116361
0.115433
0.130099
0.133907
0.133559
0.129564
0.114548
0.113662
0.129026
0.13318
0.132811
0.128484
0.112812
0.111955
0.127938
0.132409
0.13202
0.127387
0.111133
0.110308
0.126832
0.131596
0.131186
0.126273
0.109519
0.108731
0.125708
0.13074
0.13031
0.125141
0.107977
0.107226
0.124566
0.12984
0.129387
0.123989
0.106503
0.105778
0.123401
0.128892
0.128412
0.122808
0.105073
0.104359
0.1222
0.127887
0.127381
0.121589
0.103659
0.102954
0.120969
0.126835
0.126315
0.120349
0.102261
0.101551
0.119714
0.125748
0.125199
0.119068
0.100841
0.100109
0.118403
0.124598
0.124015
0.117726
0.0993749
0.098617
0.117029
0.12338
0.122762
0.116319
0.0978586
0.0970754
0.115588
0.122088
0.12143
0.114843
0.0962926
0.0954852
0.114073
0.120713
0.120011
0.113289
0.094679
0.0938477
0.112477
0.119245
0.11849
0.111647
0.093016
0.0921572
0.110786
0.117668
0.116855
0.109903
0.0912944
0.0904006
0.108986
0.115969
0.115089
0.108042
0.0894963
0.0885549
0.10706
0.114132
0.113177
0.106045
0.0875947
0.0865895
0.104987
0.112139
0.111098
0.103888
0.0855566
0.0844695
0.102738
0.109969
0.108831
0.10154
0.083346
0.0821588
0.100284
0.107596
0.106346
0.0989704
0.0809269
0.0796217
0.0975905
0.104991
0.103613
0.0961436
0.0782635
0.0768216
0.094621
0.10212
0.100596
0.0930221
0.0753187
0.0737201
0.0913363
0.098947
0.0972564
0.0895609
0.0720484
0.070264
0.0876832
0.0954252
0.0935385
0.0856986
0.0683908
0.0663821
0.0835903
0.091491
0.0893677
0.0813505
0.0642612
0.0619708
0.0789546
0.0870536
0.0846317
0.0763879
0.0595296
0.0568654
0.0736122
0.0819716
0.0791512
0.0706008
0.0539813
0.0507872
0.0672941
0.0760174
0.0726318
0.0636375
0.0472589
0.0432659
0.0595413
0.0688133
0.0645853
0.0548909
0.0387385
0.0334152
0.049518
0.0597152
0.054167
0.043217
0.027115
0.019579
0.0357194
0.0476733
0.03993
0.0255977
0.00811406
0.00827334
0.0154368
0.0316893
0.0202231
0.0028816
0.0117557
0.0163824
0.0128053
0.0075599
0.00847742
0.018994
0.0207267
0.0236234
0.023095
0.0138459
0.0164316
0.0240125
0.0232081
0.019938
0.0227623
0.0176619
0.0183664
0.020201
0.014945
0.0135202
0.0204122
0.0207221
0.0221269
0.0216456
0.0150164
0.0177406
0.0238273
0.0243147
0.0262358
0.0263445
0.0206772
0.0236881
0.0286625
0.0283314
0.0296357
0.0304188
0.0260103
0.0270893
0.0307823
0.0299061
0.029136
0.0301846
0.0270841
0.0255258
0.0283202
0.0274458
0.0257596
0.0264811
0.024123
0.021347
0.0235148
0.0230616
0.0202766
0.0204156
0.0184747
0.0148426
0.0166969
0.0168293
0.0140034
0.0135191
0.0117757
0.008519
0.0101896
0.0109422
0.0084661
0.00743182
0.00587551
0.00329886
0.00474348
0.00603189
0.00379928
0.00238163
0.00116061
0.00083271
0.000624367
0.00192532
0.00112555
0.00201269
0.00251898
0.00407068
0.00369687
0.00217422
0.00339425
0.00521056
0.00551207
0.00691134
0.0066653
0.00455005
0.00557937
0.00804278
0.00820026
0.00934291
0.00936049
0.0064762
0.00736117
0.0106387
0.0102209
0.0107042
0.0117633
0.00816882
0.00891003
0.0125568
0.0107716
0.010586
0.0128153
0.00909315
0.00861728
0.012547
0.010316
0.0100501
0.0118985
0.00772446
0.00660146
0.0109292
0.00976599
0.00944622
0.00976519
0.00538996
0.00423532
0.00853103
0.00905667
0.00858475
0.00733465
0.00316694
0.00223961
0.00626311
0.00806254
0.00750179
0.00531004
0.00144578
0.000786923
0.00449972
0.00696051
0.00643782
0.00377833
0.000320186
0.000493875
0.00316602
0.00597303
0.00554296
0.00261101
0.000912387
0.00130646
0.00212884
0.00516475
0.00481819
0.00169245
0.0016712
0.00199525
0.00131027
0.00451213
0.00423262
0.000963125
0.00229502
0.00256334
0.000656978
0.00398504
0.00375866
0.000377394
0.0028163
0.00304431
0.000130108
0.00355596
0.00336944
0.00012158
0.00326536
0.00346623
0.00033128
0.00319898
0.00303986
0.000536236
0.00366627
0.00384952
0.000728774
0.00289088
0.002745
0.000921433
0.00403855
0.00421209
0.0011063
0.0026027
0.00245821
0.0012954
0.0043928
0.00455711
0.00147874
0.00231311
0.00216614
0.00166646
0.00472975
0.00488528
0.00184884
0.00201707
0.00186734
0.00203314
0.00504894
0.00519451
0.00221086
0.0017164
0.00156567
0.00238939
0.00534834
0.00548385
0.00255887
0.0014189
0.0012726
0.00272953
0.00562781
0.00575268
0.00289034
0.0011315
0.000989272
0.00305318
0.0058854
0.005998
0.00320595
0.000850972
0.000709758
0.00336038
0.00611717
0.00621526
0.0035035
0.000571866
0.000429166
0.00364816
0.00631975
0.00640314
0.00377974
0.000291771
0.00015003
0.00391261
0.00649347
0.00656312
0.00403066
2.07168e-05
0.000117399
0.00414982
0.00664026
0.00669601
0.00425188
0.000236713
0.000354208
0.00435241
0.00675666
0.00679327
0.00443344
0.000451804
0.000539844
0.00451058
0.00683183
0.00685085
0.00457181
0.000622488
0.000699087
0.00462897
0.00686484
0.00687596
0.00469491
0.000833396
0.0008949
0.00474333
0.00687422
0.00683061
0.00473681
0.000929642
0.00104077
0.00474212
0.00681067
0.00675718
0.00471623
0.00117398
0.00913713
0.0100509
0.0104781
0.0104806
0.0101986
0.00968092
0.00925135
0.00875467
0.00839191
0.00804751
0.00786289
0.00790018
0.00821536
0.00909458
0.0101932
0.0116756
0.012819
0.0136809
0.0140103
0.0139744
0.0141364
0.0138729
0.0138362
0.0138137
0.0135007
0.0127835
0.00769941
0.00678446
0.011203
0.0122236
0.0121484
0.0106126
0.00446852
0.00393997
0.0104015
0.0124132
0.0122509
0.0097731
0.00326647
0.00268145
0.00892287
0.0118011
0.0113757
0.00820638
0.00223281
0.00187358
0.00742312
0.0108308
0.0103875
0.00676501
0.0015921
0.00133264
0.00607018
0.00986169
0.00944213
0.00552426
0.00112287
0.000924574
0.00497277
0.00889841
0.00852082
0.00455779
0.000771666
0.000623832
0.00414618
0.0080701
0.00778417
0.0038672
0.000517156
0.000397431
0.00355541
0.00741806
0.00720813
0.00336128
0.000316473
0.000225099
0.00312642
0.00692297
0.00678651
0.00299997
0.000175144
9.9232e-05
0.00281067
0.00654936
0.00644217
0.00271895
6.37291e-05
1.61376e-06
0.00255234
0.00622932
0.006146
0.00247567
3.01683e-05
9.59276e-05
0.0023145
0.00594372
0.00587315
0.00224818
0.000123988
0.000183075
0.0020954
0.00568241
0.00562961
0.00203478
0.00020808
0.000270099
0.00188554
0.00544542
0.00540903
0.00184064
0.000292523
0.000344565
0.00170409
0.00523452
0.00522263
0.0016793
0.00035968
0.000412067
0.00155207
0.00505517
0.00507541
0.00156127
0.000417694
0.000465179
0.00144251
0.00491958
0.00499494
0.00150157
0.000460167
0.000499495
0.00139371
0.00484635
0.00492972
0.00147256
0.000477905
0.000518345
0.00136118
0.004782
0.004879
0.00145956
0.000491866
0.00052991
0.00134719
0.00472734
0.00479935
0.00142432
0.000502431
0.000548852
0.00130248
0.00464454
0.00471804
0.00138148
0.000526574
0.000570756
0.00125984
0.00455867
0.00460632
0.00131274
0.000551535
0.000603457
0.00118326
0.00444568
0.00450301
0.00124445
0.0005888
0.000636042
0.00111903
0.00434076
0.00438154
0.00116432
0.000621855
0.000674137
0.00103466
0.00422099
0.00427619
0.00109402
0.000660974
0.000708087
0.000969275
0.004116
0.00415841
0.0010151
0.000695619
0.000746669
0.000888032
0.00400228
0.00405809
0.000946904
0.000733913
0.000780835
0.000822959
0.00390272
0.00394784
0.000868927
0.000769919
0.000819351
0.0007437
0.00379708
0.0038543
0.00080221
0.000806542
0.000852594
0.000678633
0.00370308
0.00375326
0.000727605
0.000841664
0.000888829
0.000604085
0.00360714
0.00367107
0.000667509
0.000874266
0.000919136
0.000544962
0.00352493
0.00358822
0.000604932
0.000905871
0.000950307
0.000484381
0.00344943
0.00352843
0.000561667
0.00093092
0.00097495
0.000440012
0.00338986
0.00347303
0.00051958
0.000955599
0.00099823
0.00040057
0.00334224
0.00344297
0.000499714
0.000970896
0.00101586
0.000377584
0.00331321
0.00342608
0.000489954
0.000986371
0.00102501
0.000376098
0.00330493
0.00344057
0.000508841
0.000985143
0.00102685
0.000394549
0.00332222
0.00348152
0.000546882
0.000986527
0.00101575
0.000456799
0.00338097
0.00356462
0.000631919
0.000958366
0.000990294
0.000542157
0.0034701
0.0036655
0.000731134
0.000927301
0.000953829
0.000650531
0.00357486
0.00379793
0.000844614
0.000885428
0.000922609
0.000731809
0.00369743
0.0038553
0.000850195
0.000899076
0.000937551
0.000757908
0.00376211
0.0039386
0.000885595
0.000902074
0.00095372
0.000773993
0.00384295
0.00404554
0.000904041
0.000961466
0.000973112
0.000902309
0.00402099
0.00426136
0.00111847
0.000915433
0.000919521
0.00113017
0.0043016
0.0045421
0.00137224
0.000840864
0.000823815
0.00143505
0.00459043
0.00489192
0.00170248
0.000753039
0.00073378
0.00180532
0.00501118
0.00530581
0.00209724
0.000627103
0.000551778
0.00228069
0.00546337
0.00580677
0.00261971
0.00040989
0.000317673
0.00286229
0.00603319
0.00641067
0.00324349
0.000138361
9.21367e-06
0.00355448
0.00667882
0.0070901
0.00401718
0.000247197
0.000490655
0.00441924
0.00744319
0.00787839
0.00494399
0.000804308
0.00127758
0.00554649
0.00837559
0.00877822
0.00598524
0.0013643
0.00336976
0.00759545
0.00986273
0.00874535
0.00683681
0.00292752
0.00227661
0.00683299
0.00886786
0.0100088
0.00803948
0.00323078
0.00336159
0.00858356
0.0107185
0.0114161
0.00922086
0.00376238
0.00452195
0.0101328
0.0125633
0.0131335
0.011846
0.00582092
0.0100248
0.0128481
0.0140501
0.0151127
0.0142615
0.0114227
0.0125271
0.0153103
0.0160646
0.0171079
0.0164433
0.0136988
0.0150265
0.0179238
0.0187318
0.0196413
0.0189702
0.0160689
0.0173154
0.020073
0.0205881
0.0217925
0.0215509
0.0189282
0.0206944
0.0232371
0.0232703
0.0251774
0.0252214
0.022657
0.0247428
0.0273771
0.0271982
0.0295404
0.0299018
0.027095
0.0296527
0.0328181
0.0323318
0.0366763
0.0369142
0.0326608
0.0355497
0.0403224
0.0399396
0.0433295
0.0437823
0.0385334
0.041882
0.0476824
0.0476564
0.0530674
0.0527497
0.0457934
0.0498372
0.0571934
0.0569602
0.0622918
0.0621552
0.0543927
0.0605198
0.0687128
0.0686753
0.0751566
0.0759684
0.068068
0.076755
0.083917
0.0826639
0.0896456
0.0912644
0.0861252
0.0967145
0.0991918
0.0974185
0.106126
0.108979
0.109504
0.124358
0.120616
0.116655
0.126607
0.132743
0.141375
0.159019
0.145292
0.137891
0.151175
0.159678
0.180338
0.202481
0.176107
0.165288
0.180726
0.192829
0.22751
0.251617
0.209278
0.196806
0.210224
0.229911
0.276118
0.279924
0.243889
0.225985
0.233566
0.236174
0.257536
0.203086
0.197207
0.219849
0.184303
0.144095
0.122937
0.0534852
0.088403
0.147873
0.0867596
0.0310348
0.0332865
0.032259
0.0339762
0.0410779
0.0120288
0.0358417
0.0283374
0.0279994
0.0379016
0.026705
0.0309485
0.0377653
0.0312992
0.0384396
0.041488
0.0362361
0.0443706
0.0473783
0.0472807
0.0562389
0.0536656
0.0507084
0.0546332
0.0591638
0.0644846
0.072278
0.0642536
0.0583696
0.0650672
0.0702184
0.0793503
0.0855275
0.075936
0.0706766
0.0739995
0.0805008
0.0906352
0.0948351
0.0839572
0.0764338
0.077664
0.0863126
0.0982794
0.10156
0.087679
0.0760514
0.0804925
0.0918449
0.105184
0.108492
0.0963735
0.0853874
0.0876053
0.0994261
0.111165
0.112923
0.101961
0.0878218
0.0915416
0.104711
0.113472
0.112448
0.106072
0.0942993
0.0949286
0.104366
0.109232
0.104698
0.0986479
0.0886813
0.0846455
0.0949476
0.102389
0.101983
0.0949523
0.0853611
0.0867684
0.0955379
0.101456
0.0998815
0.094826
0.0866455
0.0834697
0.0925179
0.0979451
0.0970049
0.0930498
0.0854375
0.0873899
0.0945858
0.0957539
0.0942869
0.094645
0.0869574
0.0850993
0.0928687
0.0933855
0.0924731
0.0930807
0.0886511
0.088203
0.092186
0.0916197
0.0910698
0.0918319
0.0884869
0.0881524
0.0904392
0.0899051
0.0872757
0.0866183
0.0821669
0.0785354
0.0832548
0.0834577
0.0792863
0.0796537
0.0757307
0.0738475
0.0768026
0.075936
0.074068
0.0745001
0.0724484
0.0677155
0.0718688
0.0727499
0.0715411
0.070835
0.0666384
0.0656994
0.069126
0.0694521
0.0677437
0.0673596
0.0649118
0.0590807
0.0634306
0.0652606
0.0632546
0.061633
0.0571023
0.0557437
0.0592237
0.0601942
0.0576552
0.0568151
0.0542035
0.0479659
0.0523313
0.0544567
0.050812
0.0493311
0.0449881
0.0430464
0.046752
0.0476193
0.046934
0.0463701
0.0432564
0.0427252
0.0454482
0.0465234
0.045045
0.0423832
0.0382455
0.0364098
0.0405554
0.0431328
0.0384393
0.0368421
0.0337541
0.0315282
0.0338937
0.0350131
0.029519
0.0270791
0.023991
0.0200032
0.02332
0.0253041
0.0221593
0.0209081
0.0184136
0.0167653
0.0192675
0.0208621
0.0203857
0.0169795
0.0131755
0.0137085
0.0175373
0.0205335
0.0191859
0.0172968
0.0142962
0.0140751
0.0173077
0.0193928
0.0170388
0.0133246
0.00953647
0.00916667
0.013193
0.0167446
0.0149836
0.0124235
0.0094451
0.0075611
0.0105883
0.0132559
0.0113947
0.00693697
0.00301848
0.00346817
0.00754557
0.0118199
0.00991125
0.00676592
0.00380418
0.00213993
0.00525031
0.00844459
0.00402593
0.00109497
0.00501657
0.00322887
0.00151774
0.00615703
0.00128953
0.00331636
0.00690283
0.0122417
0.00768123
0.00237447
0.0026457
0.00847147
0.012962
0.012347
0.00826835
0.00254935
0.00836296
0.0126242
0.0157269
0.0193418
0.015076
0.00957009
0.00970602
0.0157652
0.0200883
0.0188257
0.0143605
0.00712976
0.0130332
0.0185662
0.0220574
0.0250691
0.0210643
0.0153831
0.0114332
0.0187944
0.023403
0.0267988
0.023177
0.017367
0.0175295
0.0241906
0.02887
0.0292474
0.0245759
0.0176596
0.0135743
0.0222375
0.0274035
0.0311523
0.0272435
0.0205835
0.0225531
0.0292877
0.0338559
0.0323141
0.0272348
0.0191658
0.0264104
0.0327826
0.0366209
0.0388362
0.0340767
0.0271373
0.0274344
0.0344494
0.0391767
0.0372667
0.0321179
0.0237096
0.0304223
0.0374917
0.0413645
0.0433793
0.0389985
0.0319286
0.0288664
0.0367927
0.0415884
0.0456066
0.0417286
0.034724
0.0349088
0.0424419
0.0471928
0.0476892
0.0428353
0.0351243
0.0314509
0.0404434
0.0457861
0.0502504
0.0462072
0.0383914
0.0398451
0.0477589
0.0525061
0.0509404
0.045747
0.0371349
0.0441788
0.0517746
0.0558552
0.0578893
0.0529572
0.0448632
0.0452873
0.0534841
0.0585299
0.0565965
0.0511308
0.0418597
0.0489428
0.0573721
0.0614838
0.0634524
0.0588168
0.0503405
0.0479501
0.0569369
0.0618935
0.0666284
0.0627243
0.0545335
0.0556378
0.0638827
0.0683535
0.0666463
0.0618478
0.0531825
0.0590676
0.0673539
0.0713105
0.0726673
0.0681132
0.0597061
0.0571925
0.0660417
0.0709618
0.0758319
0.0718322
0.0635057
0.0640006
0.0727091
0.0773281
0.0778824
0.0730386
0.0641318
0.0609657
0.0707289
0.0759908
0.0808419
0.076797
0.0674855
0.0681085
0.077535
0.0821624
0.080235
0.0752001
0.0653928
0.0715565
0.0808376
0.0848992
0.0864541
0.0818282
0.072513
0.070265
0.079865
0.0847943
0.0898102
0.0857614
0.0765062
0.0772719
0.0865559
0.0911405
0.0894695
0.0845673
0.0750348
0.081278
0.0904397
0.0945071
0.0958703
0.0911506
0.0815618
0.0815597
0.091257
0.0963163
0.0943365
0.0888726
0.0785354
0.0856565
0.095728
0.0999903
0.101448
0.0966485
0.0864307
0.0841596
0.0945945
0.0997304
0.104828
0.100779
0.0908586
0.0914981
0.101497
0.106112
0.104367
0.0994152
0.0892638
0.095344
0.105294
0.109372
0.110447
0.105818
0.095792
0.0937875
0.103909
0.108848
0.113981
0.110054
0.10034
0.10107
0.110854
0.115324
0.113737
0.108947
0.0990481
0.10513
0.114848
0.11883
0.119843
0.115387
0.105606
0.103543
0.113448
0.118219
0.123024
0.11905
0.109278
0.109081
0.119432
0.123909
0.124416
0.119582
0.109134
0.106414
0.117432
0.122674
0.12785
0.123886
0.113288
0.113626
0.124501
0.129075
0.127416
0.122402
0.111344
0.117806
0.128366
0.132287
0.133452
0.128872
0.118124
0.115821
0.126759
0.131776
0.136938
0.132835
0.122174
0.122427
0.133236
0.137879
0.136264
0.131263
0.120404
0.126894
0.137354
0.14123
0.142397
0.137907
0.127238
0.125195
0.135977
0.140885
0.145897
0.141977
0.131532
0.131767
0.142381
0.146848
0.145257
0.140428
0.129714
0.135687
0.146115
0.149945
0.150959
0.146514
0.135807
0.133913
0.144648
0.149498
0.154579
0.150728
0.140381
0.140633
0.151205
0.155594
0.154105
0.149321
0.138706
0.144802
0.155056
0.15879
0.159865
0.155558
0.144977
0.14314
0.153761
0.158469
0.163311
0.159559
0.149332
0.149466
0.159986
0.164274
0.162886
0.158185
0.147606
0.153679
0.163772
0.167428
0.168653
0.164521
0.153672
0.153691
0.16467
0.16926
0.167493
0.162356
0.150907
0.157548
0.168564
0.172466
0.173533
0.16901
0.157505
0.155357
0.166954
0.17198
0.176661
0.172929
0.161988
0.162041
0.173379
0.177776
0.176288
0.171388
0.159977
0.166404
0.177268
0.181012
0.181954
0.177581
0.166313
0.164239
0.175588
0.180468
0.185042
0.18139
0.170552
0.170544
0.181824
0.186126
0.184742
0.179916
0.168691
0.175007
0.18573
0.189434
0.190381
0.186032
0.174858
0.172933
0.184131
0.188981
0.19356
0.189941
0.179333
0.179289
0.190388
0.194642
0.193292
0.188521
0.177434
0.183503
0.194229
0.197876
0.198806
0.194527
0.183311
0.181488
0.192676
0.197447
0.20193
0.19838
0.187655
0.187404
0.198689
0.202934
0.20163
0.196845
0.18561
0.192009
0.202707
0.206309
0.207398
0.203178
0.191997
0.190218
0.201388
0.206126
0.21057
0.207015
0.196295
0.195916
0.207258
0.211494
0.210192
0.205373
0.193979
0.200231
0.211078
0.214732
0.21573
0.211503
0.199701
0.199248
0.211427
0.216224
0.214377
0.208917
0.196419
0.20324
0.215167
0.218999
0.220235
0.215659
0.202871
0.200841
0.213648
0.218887
0.22366
0.219916
0.207868
0.207228
0.219945
0.224545
0.222883
0.217571
0.204828
0.211436
0.223524
0.22736
0.228231
0.22358
0.210787
0.208524
0.221365
0.226685
0.231578
0.227698
0.215545
0.215176
0.22797
0.232635
0.231192
0.225884
0.213037
0.220015
0.23214
0.235926
0.237244
0.232702
0.219957
0.21795
0.230698
0.23589
0.240791
0.236849
0.224552
0.223751
0.236704
0.241486
0.239844
0.234396
0.221358
0.228224
0.240624
0.24459
0.24563
0.24091
0.227815
0.225662
0.23888
0.244287
0.249248
0.245285
0.232895
0.23254
0.246054
0.250672
0.251603
0.246298
0.232368
0.229784
0.243977
0.249917
0.254988
0.250955
0.237639
0.236312
0.250671
0.255743
0.253859
0.247916
0.233504
0.241251
0.254741
0.258992
0.259851
0.254721
0.240524
0.237979
0.252204
0.258128
0.263191
0.25902
0.245717
0.245428
0.259416
0.264429
0.263041
0.257287
0.243236
0.251011
0.264116
0.268173
0.269553
0.264744
0.251114
0.248874
0.262562
0.26812
0.272728
0.268611
0.255341
0.254044
0.268656
0.273526
0.274103
0.268369
0.253098
0.249699
0.265405
0.272024
0.277319
0.272787
0.258203
0.257461
0.272982
0.278491
0.276849
0.270528
0.254913
0.263489
0.2779
0.282235
0.283836
0.278597
0.263367
0.261483
0.276611
0.282627
0.288078
0.283865
0.269717
0.268233
0.283851
0.288992
0.289257
0.28319
0.266936
0.263059
0.279724
0.286758
0.292104
0.287345
0.271846
0.270959
0.28747
0.293247
0.291512
0.284818
0.268319
0.277425
0.292668
0.297306
0.298753
0.293059
0.277022
0.275251
0.29118
0.297569
0.303374
0.299201
0.284662
0.282954
0.299118
0.304311
0.304293
0.297957
0.280789
0.276435
0.294148
0.301593
0.307185
0.302209
0.285814
0.284663
0.302132
0.308225
0.306385
0.299327
0.281822
0.291568
0.307551
0.312265
0.314021
0.308239
0.291249
0.289324
0.306308
0.312974
0.31921
0.31496
0.300111
0.299456
0.3157
0.320835
0.321016
0.314728
0.297606
0.29285
0.310793
0.31821
0.323714
0.318682
0.30211
0.30109
0.31874
0.324821
0.323196
0.316111
0.298358
0.308325
0.324455
0.329282
0.331292
0.3255
0.307925
0.30847
0.326537
0.333136
0.331568
0.324252
0.306112
0.316077
0.333026
0.337743
0.33835
0.332211
0.313652
0.309551
0.328397
0.335866
0.3415
0.336367
0.31939
0.318107
0.336689
0.342707
0.343743
0.336633
0.317431
0.313988
0.333596
0.341732
0.348211
0.342881
0.325115
0.325144
0.344603
0.350662
0.352854
0.345916
0.325922
0.321567
0.342061
0.350244
0.356047
0.350335
0.331207
0.328895
0.349262
0.356248
0.353927
0.345728
0.325225
0.336814
0.355077
0.360545
0.362675
0.356276
0.336185
0.336497
0.357244
0.364713
0.363473
0.355057
0.334171
0.348833
0.366084
0.370951
0.373145
0.367297
0.348457
0.345552
0.365825
0.373106
0.369776
0.361012
0.339501
0.3506
0.370042
0.375942
0.377403
0.370679
0.34905
0.34881
0.371246
0.379188
0.37772
0.368627
0.3459
0.361125
0.380005
0.385389
0.388756
0.382806
0.362706
0.361646
0.382675
0.389953
0.38636
0.37727
0.354698
0.365507
0.386098
0.392377
0.393172
0.385991
0.363028
0.361931
0.386962
0.3952
0.397854
0.388398
0.361705
0.359219
0.385859
0.396411
0.405642
0.400065
0.378812
0.377398
0.400961
0.407856
0.407257
0.398427
0.372936
0.366127
0.392548
0.403266
0.410804
0.403731
0.380632
0.37911
0.404948
0.412829
0.416525
0.407687
0.379812
0.384091
0.412444
0.421722
0.419206
0.408612
0.381042
0.393164
0.418326
0.425927
0.42498
0.416184
0.387936
0.385047
0.415003
0.425182
0.42679
0.415202
0.38404
0.382169
0.412781
0.425312
0.436692
0.430367
0.406864
0.405582
0.431798
0.439456
0.439238
0.429506
0.399029
0.392753
0.427752
0.439019
0.439744
0.426796
0.38938
0.387294
0.423822
0.437937
0.450665
0.443866
0.416866
0.414424
0.444906
0.453162
0.452818
0.442639
0.407531
0.401533
0.440784
0.452533
0.454069
0.441563
0.399619
0.400864
0.444023
0.457346
0.457605
0.442085
0.397366
0.385843
0.431084
0.449569
0.459465
0.448267
0.412662
0.412781
0.449199
0.459997
0.460507
0.448131
0.40982
0.400248
0.445516
0.459779
0.458204
0.443125
0.393616
0.387198
0.439837
0.456373
0.452821
0.434182
0.375989
0.363455
0.427364
0.447677
0.440271
0.417429
0.349725
0.33366
0.407091
0.432414
0.424746
0.397055
0.320058
0.308855
0.389011
0.418613
0.412941
0.381376
0.299419
0.290898
0.374961
0.408197
0.40328
0.368336
0.28336
0.276391
0.362816
0.399196
0.394711
0.356948
0.270221
0.264485
0.352119
0.391025
0.386872
0.346846
0.259372
0.254657
0.342598
0.38353
0.379614
0.337885
0.250437
0.246587
0.334176
0.376533
0.372891
0.329979
0.243126
0.239992
0.326783
0.370106
0.366666
0.323066
0.237177
0.234632
0.320314
0.364092
0.36089
0.31701
0.232346
0.230333
0.314663
0.358558
0.355533
0.31174
0.228486
0.226997
0.30969
0.353418
0.350601
0.307098
0.225493
0.22444
0.305394
0.348716
0.346069
0.303097
0.223233
0.22252
0.301622
0.34441
0.341976
0.299582
0.22154
0.221096
0.298389
0.340539
0.33826
0.296575
0.220302
0.22005
0.295546
0.337028
0.334941
0.29392
0.219386
0.219288
0.293116
0.333911
0.331977
0.291679
0.218752
0.218771
0.291
0.331139
0.329366
0.289701
0.218308
0.218405
0.289196
0.328696
0.327046
0.28804
0.21802
0.218179
0.287625
0.326537
0.325022
0.286575
0.217836
0.218034
0.286303
0.324652
0.323236
0.285363
0.21774
0.217975
0.285153
0.322993
0.321688
0.284292
0.217706
0.217962
0.2842
0.321555
0.32033
0.283426
0.217727
0.218006
0.283374
0.320294
0.319158
0.282659
0.217784
0.218076
0.282705
0.319208
0.318132
0.282058
0.217874
0.218179
0.282127
0.318255
0.317251
0.281523
0.217985
0.218292
0.281673
0.317437
0.316476
0.28112
0.218109
0.218426
0.281281
0.316719
0.315823
0.280766
0.218253
0.21857
0.280994
0.31611
0.315236
0.28051
0.218396
0.218712
0.280734
0.315562
0.314744
0.280278
0.218543
0.21886
0.280565
0.315142
0.314341
0.280141
0.218696
0.21902
0.280421
0.314727
0.313977
0.280021
0.218862
0.219191
0.280353
0.31439
0.313655
0.279977
0.21904
0.219372
0.280296
0.314093
0.313399
0.279934
0.219221
0.219553
0.280299
0.313853
0.313165
0.279953
0.219406
0.219738
0.280299
0.313635
0.312985
0.279963
0.219589
0.21992
0.280349
0.313463
0.312815
0.280024
0.219773
0.220108
0.280387
0.313304
0.312688
0.280071
0.219958
0.220288
0.280469
0.313181
0.312564
0.28016
0.220138
0.220467
0.280532
0.313063
0.312474
0.280227
0.220314
0.220637
0.28063
0.312973
0.312379
0.280329
0.220483
0.220803
0.280702
0.31288
0.312311
0.280402
0.220644
0.220957
0.280804
0.31281
0.312233
0.280506
0.220796
0.221106
0.280875
0.312733
0.312179
0.280576
0.22094
0.221243
0.280974
0.312675
0.31211
0.280671
0.221076
0.221375
0.281037
0.312606
0.312063
0.28073
0.221202
0.221494
0.281122
0.312553
0.311998
0.280812
0.221318
0.221604
0.281172
0.312487
0.311951
0.280857
0.221422
0.221702
0.281243
0.312434
0.311885
0.280924
0.221517
0.22179
0.281278
0.312366
0.311836
0.280954
0.221599
0.221866
0.281334
0.312311
0.311766
0.281006
0.221672
0.221933
0.281353
0.31224
0.311713
0.281021
0.221732
0.221987
0.281393
0.312179
0.311637
0.281057
0.221784
0.222033
0.281397
0.312101
0.311577
0.281055
0.221823
0.222066
0.28142
0.312033
0.311493
0.281074
0.221854
0.222092
0.281403
0.311947
0.311423
0.281052
0.221873
0.222104
0.281405
0.311869
0.311329
0.28105
0.221883
0.222109
0.281369
0.311772
0.311248
0.281009
0.221882
0.222101
0.281351
0.311683
0.311143
0.280988
0.221871
0.222086
0.281296
0.311575
0.311049
0.280928
0.22185
0.222058
0.281259
0.311474
0.310932
0.280888
0.221819
0.222022
0.281185
0.311355
0.310827
0.280809
0.221777
0.221974
0.28113
0.311242
0.310697
0.28075
0.221726
0.221918
0.281037
0.311109
0.310577
0.280652
0.221663
0.221847
0.280961
0.310981
0.310432
0.280572
0.22159
0.22177
0.280848
0.310832
0.310297
0.280454
0.221506
0.22168
0.280752
0.31069
0.310138
0.280356
0.221414
0.221585
0.280622
0.310529
0.30999
0.280222
0.221314
0.22148
0.280512
0.310375
0.309821
0.280111
0.221209
0.221374
0.280371
0.310206
0.309666
0.279967
0.2211
0.221261
0.280252
0.310046
0.309492
0.279848
0.220988
0.22115
0.280104
0.309872
0.309332
0.279697
0.220874
0.221033
0.279978
0.309706
0.309152
0.279572
0.220759
0.220918
0.279823
0.309527
0.308987
0.279415
0.220641
0.220797
0.279692
0.309358
0.308804
0.279284
0.220522
0.220679
0.279533
0.309176
0.308636
0.279123
0.220401
0.220558
0.279399
0.309003
0.308452
0.278991
0.220282
0.22044
0.279239
0.308821
0.308285
0.27883
0.220164
0.220321
0.279106
0.308651
0.308103
0.2787
0.220048
0.220208
0.278948
0.308472
0.307939
0.278542
0.219934
0.220094
0.278818
0.308305
0.307761
0.278415
0.219824
0.219986
0.278665
0.308131
0.307603
0.278261
0.219716
0.219878
0.27854
0.30797
0.307432
0.278141
0.219612
0.219778
0.278394
0.307803
0.307282
0.277996
0.219512
0.219679
0.278278
0.307652
0.307121
0.277884
0.219418
0.21959
0.278143
0.307497
0.306983
0.277751
0.21933
0.219505
0.27804
0.307359
0.306837
0.277654
0.21925
0.21943
0.277921
0.307219
0.306716
0.277538
0.21918
0.219363
0.277836
0.3071
0.306589
0.277461
0.219118
0.219309
0.277738
0.306982
0.306491
0.277367
0.219069
0.219266
0.277678
0.306887
0.30639
0.277315
0.219032
0.219237
0.277607
0.306795
0.30632
0.27725
0.219009
0.219222
0.277576
0.30673
0.30625
0.277229
0.219002
0.219225
0.277538
0.306672
0.306214
0.277198
0.21901
0.219241
0.277543
0.306642
0.306181
0.277214
0.219036
0.219282
0.277544
0.306624
0.30619
0.277228
0.219086
0.219344
0.277599
0.306644
0.306211
0.277299
0.219164
0.219442
0.27766
0.306687
0.306303
0.277384
0.219273
0.219639
0.277802
0.306826
0.306468
0.277561
0.219488
0.219968
0.278124
0.307189
0.307012
0.278107
0.219857
0.220944
0.279231
0.308608
0.310033
0.280283
0.221817
0.224597
0.28325
0.314227
0.319401
0.287435
0.22838
0.233107
0.292444
0.324739
0.329729
0.297976
0.238932
0.357853
0.374802
0.383021
0.391755
0.398211
0.402061
0.408182
0.413215
0.418683
0.422487
0.425348
0.427507
0.429099
0.430266
0.431121
0.431759
0.432245
0.432626
0.432931
0.433182
0.433391
0.433567
0.433717
0.433841
0.433945
0.434023
0.434085
0.434124
0.434151
0.434161
0.434119
0.434131
0.434172
0.434247
0.434352
0.434487
0.434644
0.434824
0.435031
0.43526
0.435506
0.435767
0.436039
0.436319
0.436605
0.436893
0.437182
0.437469
0.437757
0.438044
0.438316
0.438565
0.438799
0.439019
0.439219
0.43939
0.439531
0.439639
0.439711
0.439744
0.439735
0.43968
0.439578
0.439424
0.439215
0.438945
0.438609
0.438201
0.437712
0.437134
0.436459
0.435678
0.434779
0.433753
0.432589
0.431276
0.429804
0.428165
0.426351
0.424356
0.422177
0.419813
0.417263
0.41453
0.41162
0.408538
0.405295
0.401898
0.398361
0.394696
0.390915
0.387034
0.383066
0.379024
0.374924
0.370777
0.366598
0.362397
0.358186
0.353975
0.349776
0.345595
0.341442
0.337323
0.333246
0.329216
0.325238
0.321318
0.317459
0.313665
0.309939
0.306283
0.3027
0.299192
0.295759
0.292402
0.28912
0.285915
0.282784
0.279726
0.276739
0.273822
0.270971
0.268184
0.265459
0.262793
0.260184
0.257629
0.255127
0.252676
0.250273
0.247919
0.245611
0.243347
0.241127
0.238948
0.236808
0.234705
0.232638
0.230604
0.2286
0.226625
0.224678
0.222755
0.220856
0.218981
0.217128
0.215297
0.213489
0.211704
0.209942
0.208204
0.206493
0.204808
0.203153
0.201527
0.199933
0.198371
0.196843
0.19535
0.193892
0.19247
0.191086
0.18974
0.188434
0.187168
0.185946
0.18477
0.183642
0.182564
0.181539
0.180568
0.179652
0.178791
0.177984
0.17723
0.176525
0.175868
0.175256
0.174686
0.17416
0.173676
0.173237
0.172846
0.172508
0.172225
0.171998
0.171825
0.171704
0.171629
0.171592
0.171579
0.171576
0.171576
0.171575
0.171575
0.171575
0.171575
0.171575
0.171573
0.171545
0.171433
0.171211
0.170916
0.170586
0.170242
0.169885
0.169511
0.169119
0.168705
0.168269
0.167809
0.167326
0.166817
0.166283
0.165723
0.165137
0.164526
0.163889
0.163227
0.16254
0.161829
0.161094
0.160337
0.159558
0.158758
0.15794
0.157105
0.156254
0.155389
0.154513
0.153627
0.152735
0.151838
0.150939
0.150042
0.149148
0.148261
0.147384
0.146519
0.145669
0.144837
0.144026
0.143239
0.142477
0.141744
0.141041
0.140367
0.139722
0.139104
0.13851
0.137946
0.137441
0.137064
0.136876
0.13685
0.136892
0.136917
0.136899
0.136857
0.136751
0.136817
0.136831
0.136806
0.136747
0.136656
0.136539
0.136396