/*--------------------------------*- C++ -*----------------------------------*\
| =========                 |                                                 |
| \\      /  F ield         | OpenFOAM: The Open Source CFD Toolbox           |
|  \\    /   O peration     | Version:  v2006                                 |
|   \\  /    A nd           | Website:  www.openfoam.com                      |
|    \\/     M anipulation  |                                                 |
\*---------------------------------------------------------------------------*/
FoamFile
{
    version     2.0;
    format      ascii;
    class       volScalarField;
    location    "0.007";
    object      p;
}
// * * * * * * * * * * * * * * * * * * * * * * * * * * * * * * * * * * * * * //

dimensions      [1 -1 -2 0 0 0 0];


internalField   nonuniform List<scalar> 
12716
(
146979
146980
146973
146973
146973
146974
146975
146981
146989
146999
147010
147021
147033
147045
147058
147072
147087
147103
147119
147136
147154
147173
147192
147213
147234
147255
147278
147301
147325
147350
147375
147401
147427
147453
147480
147507
147535
147562
147590
147617
147644
147672
147699
147725
147751
147777
147802
147826
147850
147873
147895
147915
147935
147954
147972
147989
148005
148019
148032
148042
148050
148054
148056
148057
148058
148060
148065
148079
148105
148123
148135
148114
148112
148106
148097
148099
148099
148084
148084
148084
148069
148069
148068
148054
148055
148055
148043
148042
148042
148030
148031
148031
148021
148020
148020
148010
148011
148011
148002
148002
148001
147993
147993
147994
147986
147986
147985
147978
147979
147979
147973
147972
147972
147966
147966
147967
147961
147961
147960
147955
147956
147956
147951
147951
147951
147947
147947
147947
147944
147943
147943
147939
147940
147940
147937
147937
147936
147934
147934
147934
147932
147931
147931
147928
147928
147929
147926
147925
147925
147922
147922
147922
147920
147919
147919
147917
147918
147918
147919
147918
147918
147919
147919
147920
147920
147920
147919
147920
147920
147921
147921
147921
147921
147922
147922
147922
147924
147924
147923
147925
147926
147926
147929
147929
147928
147932
147932
147932
147937
147936
147936
147941
147941
147942
147947
147947
147947
147953
147953
147954
147961
147961
147961
147969
147969
147970
147979
147979
147978
147989
147989
147989
148001
148000
148000
148013
148013
148014
148028
148027
148027
148042
148042
148043
148060
148059
148059
148077
148077
148078
148098
148097
148097
148118
148119
148119
148143
148142
148142
148167
148167
148168
148195
148194
148194
148222
148223
148223
148254
148254
148253
148286
148286
148287
148321
148321
148320
148357
148357
148358
148397
148396
148395
148436
148437
148437
148480
148480
148479
148524
148525
148525
148573
148573
148572
148622
148623
148623
148677
148676
148676
148731
148732
148732
148790
148791
148790
148850
148851
148851
148912
148913
148913
148972
148973
148971
149024
149028
149029
149056
149055
149054
149071
149072
149070
149081
149081
149083
149088
149087
149087
149103
149103
149099
149142
149147
149146
149189
149190
149187
149234
149234
149233
149236
149237
149237
149267
149266
149266
149263
149263
149263
149292
149292
149292
149289
149288
149287
149325
149326
149325
149338
149337
149335
149387
149387
149387
149414
149414
149413
149461
149462
149462
149499
149498
149497
149542
149543
149543
149577
149577
149576
149611
149612
149612
149642
149642
149641
149670
149670
149670
149697
149697
149697
149721
149721
149721
149744
149744
149743
149764
149764
149764
149783
149783
149783
149800
149800
149800
149816
149816
149816
149830
149830
149830
149843
149843
149843
149855
149855
149855
149865
149865
149865
149874
149875
149875
149884
149884
149884
149892
149892
149892
149899
149899
149899
149905
149905
149905
149910
149910
149910
149914
149914
149914
149916
149916
149916
149917
149917
149917
149916
149916
149916
149914
149914
149914
149911
149911
149911
149906
149906
149906
149901
149901
149901
149894
149894
149894
149886
149887
149887
149878
149878
149878
149869
149869
149869
149858
149858
149858
149847
149847
149847
149835
149834
149834
149821
149821
149821
149807
149807
149807
149792
149792
149792
149776
149776
149776
149759
149759
149759
149741
149741
149741
149724
149724
149724
149705
149705
149705
149686
149686
149686
149667
149667
149667
149647
149647
149647
149627
149626
149626
149605
149605
149605
149583
149583
149583
149561
149561
149561
149538
149538
149538
149514
149514
149514
149490
149490
149490
149465
149465
149465
149441
149441
149441
149416
149416
149416
149391
149391
149391
149365
149365
149365
149339
149339
149339
149313
149313
149313
149287
149287
149287
149261
149261
149261
149234
149234
149234
149206
149206
149206
149178
149178
149178
149149
149149
149149
149121
149121
149120
149092
149092
149092
149064
149064
149064
149038
149037
149037
149012
149012
149012
149012
149012
149012
149012
149012
149012
149012
149012
149012
149012
149012
149012
149012
149012
149012
149012
149012
149012
149012
149012
149009
149004
149005
149007
149007
149006
149006
149013
149014
149016
149028
149028
149028
149038
149037
149037
149049
149050
149050
149063
149063
149063
149077
149077
149077
149091
149091
149091
149105
149105
149105
149119
149119
149119
149132
149132
149132
149146
149146
149146
149160
149159
149159
149173
149173
149173
149187
149187
149187
149200
149200
149200
149213
149213
149213
149227
149227
149227
149240
149240
149240
149253
149253
149253
149267
149267
149267
149280
149280
149280
149293
149293
149293
149306
149306
149306
149320
149320
149320
149333
149333
149333
149346
149346
149346
149359
149359
149359
149372
149372
149372
149385
149385
149385
149398
149398
149398
149411
149411
149411
149424
149424
149424
149436
149436
149436
149449
149449
149449
149462
149462
149462
149474
149474
149474
149487
149487
149487
149499
149499
149499
149511
149511
149511
149523
149523
149523
149535
149535
149535
149547
149547
149547
149558
149558
149558
149570
149570
149570
149581
149581
149581
149592
149592
149592
149603
149603
149603
149614
149614
149614
149625
149625
149625
149635
149635
149635
149646
149646
149646
149656
149656
149656
149666
149666
149666
149676
149676
149676
149686
149686
149686
149696
149696
149696
149705
149705
149705
149715
149715
149715
149724
149724
149724
149733
149733
149733
149742
149742
149742
149751
149751
149751
149759
149759
149759
149767
149767
149767
149775
149775
149775
149783
149783
149783
149791
149791
149791
149799
149799
149799
149806
149806
149806
149813
149813
149813
149820
149820
149820
149827
149827
149827
149833
149833
149833
149839
149839
149839
149845
149845
149845
149851
149851
149851
149857
149857
149857
149863
149863
149863
149868
149868
149868
149873
149873
149873
149878
149878
149878
149883
149883
149883
149887
149887
149887
149891
149891
149891
149895
149895
149895
149899
149899
149899
149902
149902
149902
149906
149906
149906
149908
149908
149908
149911
149911
149911
149913
149913
149913
149916
149916
149916
149917
149917
149917
149919
149919
149919
149920
149920
149920
149921
149921
149921
149922
149922
149922
149922
149922
149922
149922
149922
149922
149922
149922
149922
149921
149921
149921
149921
149921
149921
149919
149919
149919
149918
149918
149918
149916
149916
149916
149914
149914
149914
149914
149913
149913
149907
149907
149908
149909
149909
149909
149905
149904
149904
149901
149901
149901
149896
149896
149896
149892
149892
149892
149887
149887
149886
149883
149883
149883
149876
149876
149875
149870
149869
149870
149862
149862
149863
149855
149854
149853
149843
149843
149846
149837
149835
149836
149828
149826
149828
149817
149814
149818
149806
149800
149805
149791
149783
149790
149773
149764
149776
149759
149740
149750
149721
149711
149739
149715
149671
149689
149659
149635
149688
149657
149593
149626
149560
149544
149620
149574
149478
149514
149457
149414
149521
149451
149329
149380
149277
149215
149354
149228
149080
149149
149035
148922
149073
148875
148753
148846
148661
148543
148631
148287
148275
148408
148165
147936
147881
147281
147507
147758
147341
147052
146664
145645
146502
146989
146225
145771
144681
143077
145072
145649
144983
144417
141802
139357
143622
144476
143838
143000
138808
138519
142324
143043
142272
142101
140163
141070
141421
141551
141151
141061
141050
141099
141118
141158
141197
141097
141104
141102
141136
141185
141161
141141
141078
141039
141125
141107
141039
141086
140979
140913
141035
140986
140944
140981
140844
140775
140908
140857
140779
140836
140704
140643
140761
140722
140693
140697
140596
140560
140630
140615
140594
140598
140533
140504
140555
140574
140490
140491
140478
140468
140455
140460
140470
140442
140469
140494
140406
140417
140503
140474
140576
140699
140583
140582
140763
140763
140855
140990
140962
140987
141087
141068
141073
141145
141142
141148
141211
141218
141227
141312
141313
141309
141386
141393
141391
141470
141479
141479
141558
141563
141554
141644
141632
141638
141689
141705
141709
141791
141795
141800
141843
141842
141841
141920
141918
141915
142019
142033
142044
142150
142137
142117
142270
142276
142275
142368
142374
142376
142465
142465
142465
142555
142550
142546
142595
142605
142612
142679
142682
142680
142751
142753
142754
142853
142845
142837
142902
142914
142923
142998
143000
142996
143076
143079
143081
143171
143163
143156
143214
143229
143240
143331
143332
143328
143365
143364
143361
143407
143407
143407
143458
143461
143464
143501
143496
143486
143580
143586
143584
143650
143649
143643
143710
143719
143728
143794
143782
143768
143831
143837
143836
143866
143866
143864
143893
143892
143893
143895
143895
143892
143926
143927
143926
143937
143936
143935
143963
143964
143966
143980
143977
143973
144004
144006
144004
144025
144025
144022
144053
144055
144055
144056
144055
144052
144083
144084
144084
144095
144094
144091
144121
144122
144124
144130
144128
144122
144137
144143
144145
144181
144179
144172
144168
144174
144176
144201
144200
144195
144186
144190
144192
144226
144226
144220
144208
144212
144213
144223
144222
144218
144206
144207
144209
144239
144239
144235
144226
144229
144232
144214
144213
144211
144242
144246
144245
144230
144229
144227
144227
144229
144231
144213
144211
144210
144240
144245
144244
144234
144231
144228
144206
144207
144209
144243
144244
144238
144219
144222
144224
144218
144215
144213
144195
144196
144198
144228
144230
144225
144207
144210
144212
144184
144182
144181
144213
144218
144217
144198
144196
144194
144181
144184
144187
144162
144160
144160
144190
144196
144195
144176
144173
144170
144137
144137
144140
144176
144177
144170
144145
144148
144150
144132
144128
144126
144099
144098
144101
144138
144139
144132
144106
144109
144112
144069
144065
144066
144095
144102
144101
144073
144070
144067
144028
144027
144030
144065
144067
144060
144034
144037
144039
144002
143997
143996
144027
144035
144034
144003
144000
143997
143966
143968
143972
143934
143930
143931
143962
143970
143968
143938
143936
143933
143887
143885
143888
143932
143932
143923
143890
143893
143896
143839
143835
143837
143869
143877
143876
143841
143839
143836
143783
143781
143784
143824
143826
143817
143785
143789
143792
143752
143747
143744
143703
143703
143710
143744
143745
143735
143696
143698
143700
143634
143630
143632
143664
143673
143672
143630
143628
143625
143562
143561
143565
143606
143608
143598
143562
143566
143570
143504
143497
143498
143526
143536
143536
143489
143486
143483
143414
143412
143416
143457
143458
143447
143408
143411
143413
143344
143339
143341
143374
143384
143382
143351
143345
143340
143287
143291
143300
143232
143225
143227
143255
143265
143263
143216
143213
143210
143131
143128
143133
143172
143173
143162
143118
143121
143123
143041
143036
143038
143074
143085
143084
143041
143036
143031
142951
142949
142956
142989
142990
142980
142932
142935
142938
142850
142844
142846
142878
142889
142887
142840
142836
142832
142748
142744
142749
142791
142792
142781
142737
142742
142747
142656
142648
142649
142679
142691
142691
142634
142632
142629
142540
142538
142543
142580
142581
142570
142522
142526
142529
142431
142426
142428
142459
142472
142471
142418
142415
142411
142320
142317
142322
142366
142366
142352
142306
142312
142317
142232
142225
142223
142147
142145
142151
142197
142197
142184
142132
142135
142139
142030
142025
142029
142060
142074
142074
142010
142008
142005
141898
141895
141900
141945
141945
141931
141878
141881
141883
141777
141772
141775
141807
141820
141820
141762
141757
141752
141642
141637
141642
141684
141685
141672
141619
141623
141627
141512
141507
141511
141539
141552
141552
141487
141485
141482
141368
141364
141369
141413
141414
141399
141346
141350
141354
141236
141231
141235
141262
141275
141274
141218
141213
141207
141093
141091
141098
141134
141134
141119
141059
141063
141066
140934
140931
140938
140966
140978
140974
140920
140917
140912
140799
140796
140801
140843
140844
140829
140778
140785
140791
140693
140683
140679
140583
140578
140584
140644
140643
140625
140561
140565
140568
140423
140417
140423
140445
140455
140449
140386
140385
140383
140257
140251
140255
140308
140311
140296
140239
140244
140249
140113
140106
140111
140141
140158
140157
140085
140080
140075
139935
139929
139935
139979
139979
139963
139893
139896
139900
139722
139724
139737
139772
139783
139777
139725
139720
139715
139587
139582
139588
139641
139642
139623
139560
139566
139572
139413
139408
139416
139445
139464
139465
139397
139388
139378
139237
139240
139251
139099
139091
139099
139130
139134
139120
139068
139068
139069
138930
138926
138934
138986
138989
138971
138902
138907
138909
138750
138743
138749
138785
138806
138807
138717
138713
138707
138531
138522
138527
138576
138576
138557
138473
138475
138475
138247
138261
138284
138329
138343
138337
138288
138284
138277
138155
138159
138170
138013
138006
138013
138066
138090
138090
138000
137994
137987
137800
137791
137798
137840
137842
137823
137732
137735
137741
137489
137495
137515
137529
137530
137511
137457
137460
137460
137330
137331
137338
137190
137185
137194
137262
137288
137286
137202
137192
137183
136983
136973
136979
137027
137028
137007
136905
136912
136919
136674
136665
136677
136667
136659
136628
136530
136550
136565
136452
136447
136445
136316
136313
136321
136390
136416
136411
136323
136315
136306
136095
136086
136094
136133
136134
136113
136002
136006
136010
135735
135730
135746
135732
135734
135717
135542
135578
135597
135435
135421
135407
135279
135285
135298
135384
135415
135413
135316
135310
135300
135076
135064
135068
135111
135112
135089
134977
134991
135004
134744
134726
134723
134440
134408
134405
134393
134439
134460
134368
134352
134335
134176
134174
134186
134258
134285
134279
134198
134191
134178
133978
133983
133997
133738
133725
133735
133770
133793
133793
133659
133651
133647
133337
133305
133283
132928
132971
133029
133157
133173
133160
133102
133100
133097
132897
132886
132891
132942
132944
132919
132802
132813
132820
132543
132525
132522
132192
132171
132184
132144
132171
132176
131971
131920
131827
131674
131723
131761
131615
131597
131579
131761
131766
131728
131645
131661
131667
131421
131409
131406
131053
131033
131043
131062
131062
131049
130840
130803
130740
130273
130374
130453
130262
130221
130179
130451
130459
130420
130360
130375
130380
130185
130169
130160
129836
129842
129860
129426
129413
129441
129378
129351
129286
128881
129021
129110
128925
128884
128826
128729
128749
128767
128898
128940
128932
128820
128812
128799
128497
128494
128506
127997
127973
127991
127344
127170
127021
127514
127554
127574
127624
127617
127627
127548
127538
127535
127294
127298
127314
126817
126809
126845
126700
126646
126548
125943
126186
126336
126159
126100
125998
126080
126113
126121
125994
126005
125995
125601
125613
125638
125410
125311
125154
124666
124914
125072
124951
124880
124760
124877
124906
124925
124813
124798
124773
124263
124390
124470
123968
123812
123601
123664
123735
123808
124205
124239
124215
124045
124126
124189
123926
123727
123389
123563
123731
123807
123872
123838
123795
123585
123805
123898
123973
123883
123708
124131
124202
124227
124613
124551
124419
125038
125094
125102
125590
125597
125585
125986
125996
125990
126283
126283
126278
126543
126549
126550
126762
126761
126758
126970
126974
126976
127142
127141
127139
127314
127317
127320
127456
127454
127453
127601
127604
127608
127720
127718
127717
127845
127848
127851
127944
127942
127941
128052
128054
128058
128134
128132
128132
128228
128231
128234
128298
128296
128296
128382
128384
128388
128441
128440
128440
128516
128518
128522
128568
128567
128567
128636
128638
128641
128680
128679
128680
128742
128744
128747
128780
128780
128780
128836
128838
128840
128869
128868
128869
128920
128921
128924
128949
128948
128949
128996
128997
128999
129020
129020
129021
129062
129064
129065
129084
129084
129084
129123
129125
129126
129142
129142
129143
129177
129178
129180
129194
129194
129194
129227
129228
129229
129241
129242
129242
129271
129272
129273
129284
129284
129284
129311
129312
129313
129322
129323
129323
129347
129348
129349
129357
129357
129357
129380
129380
129381
129388
129388
129389
129409
129409
129410
129416
129416
129417
129435
129436
129437
129442
129442
129442
129459
129460
129460
129464
129464
129465
129480
129481
129482
129485
129485
129486
129500
129500
129501
129503
129504
129504
129517
129518
129519
129520
129521
129521
129533
129533
129534
129535
129535
129536
129547
129547
129548
129548
129549
129549
129559
129559
129560
129559
129560
129560
129569
129570
129571
129569
129570
129571
129579
129579
129580
129578
129579
129580
129587
129588
129588
129586
129587
129588
129594
129595
129596
129593
129594
129594
129601
129602
129602
129599
129600
129601
129607
129607
129608
129605
129606
129606
129612
129612
129613
129610
129610
129611
129616
129617
129618
129614
129615
129615
129620
129621
129622
129618
129618
129619
129624
129624
129625
129621
129622
129622
129627
129628
129628
129624
129625
129625
129630
129630
129631
129627
129628
129628
129633
129633
129634
129629
129630
129631
129635
129635
129636
129632
129632
129633
129637
129638
129638
129634
129634
129635
129639
129639
129640
129636
129636
129637
129641
129641
129642
129638
129638
129639
129643
129643
129644
129639
129640
129641
129645
129645
129646
129641
129642
129643
129647
129647
129648
129643
129644
129644
129649
129649
129650
129645
129646
129647
129651
129651
129652
129648
129648
129649
129653
129654
129654
129650
129651
129651
129656
129656
129657
129653
129653
129654
129658
129659
129660
129656
129656
129657
129662
129662
129663
129659
129659
129660
129665
129665
129666
129663
129663
129664
129669
129669
129670
129667
129667
129668
129673
129674
129674
129671
129672
129672
129678
129678
129679
129676
129677
129677
129684
129684
129685
129683
129683
129684
129690
129690
129691
129689
129690
129690
129697
129698
129699
129697
129698
129698
129705
129706
129707
129705
129706
129706
129714
129715
129715
129714
129715
129715
129723
129724
129724
129724
129724
129725
129733
129733
129734
129733
129734
129734
129743
129743
129743
129743
129744
129744
129753
129753
129754
129753
129754
129754
129763
129763
129764
129764
129764
129765
129774
129774
129775
129775
129775
129775
129784
129785
129785
129785
129786
129786
129795
129796
129797
129797
129797
129798
129807
129807
129808
129808
129809
129809
129818
129819
129820
129820
129820
129821
129830
129831
129831
129832
129832
129833
129842
129843
129843
129844
129844
129845
129854
129855
129855
129856
129856
129857
129866
129867
129867
129868
129868
129869
129878
129878
129879
129879
129880
129880
129889
129890
129891
129891
129891
129892
129900
129901
129901
129901
129902
129902
129911
129911
129912
129911
129912
129912
129920
129921
129921
129921
129921
129922
129929
129930
129930
129929
129930
129930
129937
129938
129938
129937
129937
129938
129944
129945
129945
129943
129944
129944
129950
129950
129951
129948
129949
129949
129955
129955
129956
129952
129953
129953
129958
129958
129959
129955
129955
129956
129959
129960
129960
129956
129956
129957
129959
129960
129960
129955
129956
129956
129958
129959
129959
129953
129954
129954
129955
129956
129956
129949
129950
129950
129950
129951
129952
129943
129943
129944
129943
129943
129944
129933
129933
129933
129930
129931
129933
129924
129924
129924
129939
129941
129941
129995
129994
129990
130064
130068
130064
130091
130096
130094
130076
130071
130032
130086
130099
130050
130065
130073
130050
130033
130024
130020
130018
130017
130017
130017
130017
130018
130018
130019
130020
130020
130022
130023
130024
130025
130026
130027
130028
130028
130027
130032
130036
130039
130040
130039
130037
130035
130032
130027
130021
130014
130006
129998
129991
129983
129977
129971
129964
129961
129959
129958
129959
129962
129968
129978
129990
130005
130021
130038
130057
130078
130102
130128
130158
130191
130229
130271
130319
130372
130433
130500
130577
130662
130758
130865
130984
131116
131261
131420
131593
131779
131979
132192
132417
132653
132900
133156
133421
133692
133969
134250
134535
134821
135108
135395
135681
135964
136244
136520
136792
137058
137319
137574
137822
138063
138297
138523
138742
138952
139155
139350
139536
139714
139884
140045
140199
140346
140485
140617
140744
140864
140980
141091
141198
141302
141403
141502
141599
141693
141787
141878
141969
142058
142147
142235
142322
142410
142498
142586
142675
142766
142858
142953
143049
143148
143250
143354
143461
143570
143682
143796
143912
144029
144148
144268
144388
144509
144629
144749
144869
144987
145104
145219
145333
145444
145553
145660
145764
145864
145962
146056
146146
146232
146313
146390
146462
146528
146589
146645
146694
146738
146776
146809
146837
146861
146879
146894
146902
146905
146906
146908
146919
146941
146968
146979
146981
146980
146978
146978
146984
146994
147002
147010
147020
147030
147041
147053
147065
147079
147093
147108
147125
147142
147160
147178
147198
147218
147239
147261
147283
147307
147330
147354
147379
147404
147429
147455
147481
147507
147533
147560
147586
147613
147639
147665
147691
147716
147741
147766
147790
147813
147836
147857
147878
147898
147917
147935
147951
147967
147981
147995
148007
148017
148026
148030
148034
148045
148055
148063
148067
148054
148042
148031
148021
148012
148003
147995
147987
147980
147973
147967
147962
147957
147952
147948
147944
147941
147938
147935
147932
147930
147927
147924
147921
147919
147920
147921
147921
147922
147922
147924
147925
147927
147930
147934
147938
147943
147949
147955
147963
147971
147980
147991
148002
148015
148029
148045
148061
148080
148100
148121
148144
148170
148196
148225
148256
148288
148323
148360
148398
148439
148481
148527
148574
148624
148677
148732
148789
148848
148907
148963
149012
149042
149064
149074
149083
149105
149157
149202
149248
149237
149271
149255
149295
149278
149329
149328
149388
149406
149459
149493
149540
149574
149609
149640
149669
149696
149720
149743
149763
149782
149800
149816
149830
149843
149855
149866
149876
149884
149892
149900
149905
149910
149914
149916
149917
149916
149914
149911
149906
149901
149894
149887
149878
149869
149858
149847
149835
149821
149807
149792
149776
149759
149742
149724
149705
149686
149667
149647
149627
149605
149583
149561
149538
149514
149490
149465
149441
149416
149391
149365
149339
149313
149287
149261
149234
149206
149179
149150
149121
149092
149063
149037
149037
149037
149063
149063
149092
149092
149121
149122
149149
149151
149132
149087
149061
149036
149036
149062
149087
149087
149061
149036
149036
149061
149086
149130
149190
149192
149178
149179
149206
149207
149233
149234
149260
149261
149247
149301
149287
149288
149313
149314
149339
149340
149365
149366
149353
149404
149390
149391
149415
149416
149440
149441
149465
149466
149453
149502
149490
149490
149513
149515
149537
149538
149560
149561
149549
149595
149583
149584
149605
149606
149626
149627
149647
149648
149637
149677
149667
149667
149686
149687
149705
149706
149723
149724
149715
149751
149741
149742
149758
149759
149775
149776
149791
149792
149784
149814
149806
149807
149821
149821
149834
149835
149847
149847
149841
149864
149858
149858
149868
149869
149878
149878
149886
149887
149883
149898
149894
149894
149900
149901
149906
149906
149910
149911
149909
149915
149914
149914
149916
149916
149916
149917
149916
149916
149917
149914
149914
149914
149911
149911
149907
149906
149900
149901
149905
149892
149894
149893
149885
149886
149878
149876
149866
149868
149875
149854
149858
149855
149844
149845
149832
149830
149816
149817
149829
149796
149802
149800
149783
149783
149765
149763
149743
149742
149755
149702
149720
149719
149695
149693
149668
149666
149638
149637
149634
149581
149611
149606
149572
149566
149544
149538
149493
149470
149545
149451
149466
149456
149408
149374
149412
149381
149318
149288
149357
149295
149352
149319
149273
149232
149313
149296
149261
149221
149259
149215
149284
149275
149230
149206
149248
149230
149184
149170
149160
149097
149169
149156
149116
149104
149095
149097
149075
149056
149038
148976
149045
149057
149027
149001
148979
148995
148945
148919
148903
148816
148885
148895
148837
148820
148779
148782
148726
148716
148723
148631
148675
148673
148621
148616
148577
148572
148525
148524
148542
148459
148487
148481
148438
148439
148406
148398
148360
148362
148382
148312
148332
148323
148289
148292
148265
148257
148226
148229
148250
148194
148206
148197
148171
148174
148154
148145
148122
148126
148145
148102
148109
148101
148081
148085
148071
148063
148046
148050
148067
148036
148038
148031
148017
148021
148011
148004
147993
147997
148011
147990
147989
147982
147973
147977
147971
147965
147957
147961
147973
147960
147957
147951
147945
147949
147946
147940
147936
147940
147950
147943
147938
147932
147929
147933
147932
147927
147925
147929
147938
147935
147929
147924
147924
147927
147927
147923
147922
147925
147932
147933
147926
147921
147922
147926
147928
147923
147926
147930
147936
147941
147934
147929
147932
147935
147938
147934
147937
147940
147945
147950
147943
147940
147943
147945
147949
147946
147950
147952
147956
147964
147957
147954
147959
147961
147966
147964
147969
147971
147973
147984
147977
147975
147981
147983
147990
147988
147996
147997
147996
148009
148004
148004
148012
148013
148021
148021
148031
148030
148023
148036
148039
148041
148052
148048
148027
148019
148009
147999
147988
147979
147970
147963
147957
147952
147948
147943
147940
147939
147941
147943
147947
147953
147962
147974
147990
148009
148033
148061
148095
148135
148181
148234
148293
148359
148431
148509
148591
148677
148764
148847
148925
148998
149070
149142
149206
149266
149322
149386
149450
149515
149589
149671
149717
149766
149806
149836
149861
149881
149896
149909
149916
149918
149916
149910
149898
149883
149864
149841
149814
149784
149751
149716
149678
149638
149595
149550
149503
149454
149404
149353
149300
149246
149246
149190
149130
149087
149061
149036
149036
149061
149086
149086
149061
149036
149036
149061
149086
149130
149190
149190
149130
149086
149061
149036
149037
149062
149087
149086
149061
149036
149037
149062
149087
149130
149190
149246
149246
149246
149300
149300
149353
149404
149405
149353
149353
149300
149300
149353
149405
149405
149455
149455
149454
149503
149504
149551
149550
149595
149596
149596
149551
149504
149504
149455
149456
149405
149353
149300
149246
149191
149131
149086
149061
149036
149037
149062
149088
149087
149062
149036
149037
149063
149089
149133
149192
149179
149152
149124
149095
149065
149036
149036
149014
149016
149019
149023
149035
149032
149048
149048
149062
149061
149067
149096
149090
149077
149076
149091
149105
149105
149118
149125
149152
149180
149206
149207
149233
149247
149300
149353
149405
149391
149366
149339
149314
149287
149261
149260
149234
149227
149214
149200
149187
149173
149160
149146
149133
149132
149119
149146
149159
149173
149186
149200
149213
149227
149240
149241
149253
149267
149267
149253
149280
149280
149287
149313
149306
149294
149293
149306
149319
149320
149332
149340
149365
149392
149417
149418
149443
149456
149505
149505
149552
149551
149597
149640
149639
149639
149638
149678
149679
149717
149716
149752
149752
149753
149718
149680
149680
149718
149754
149754
149719
149681
149640
149597
149597
149552
149540
149517
149492
149469
149468
149443
149436
149424
149410
149399
149385
149373
149358
149346
149346
149333
149359
149372
149385
149398
149411
149424
149436
149449
149450
149461
149475
149474
149462
149487
149486
149493
149517
149511
149499
149499
149511
149523
149524
149534
149541
149563
149564
149586
149609
149608
149587
149580
149570
149558
149547
149547
149535
149558
149570
149581
149592
149593
149603
149614
149614
149603
149625
149624
149630
149630
149640
149681
149719
149755
149746
149729
149710
149691
149671
149651
149651
149672
149691
149686
149677
149666
149657
149645
149636
149635
149646
149656
149666
149676
149686
149696
149696
149705
149710
149728
149747
149763
149764
149779
149787
149787
149786
149786
149785
149785
149814
149815
149841
149841
149864
149865
149865
149842
149816
149816
149843
149866
149884
149884
149884
149884
149899
149899
149911
149910
149917
149918
149919
149911
149900
149900
149912
149919
149923
149922
149921
149920
149918
149920
149914
149911
149900
149904
149906
149916
149921
149922
149917
149908
149895
149894
149891
149886
149866
149874
149856
149845
149815
149828
149835
149862
149877
149879
149863
149839
149827
149853
149875
149893
149907
149917
149922
149923
149920
149912
149900
149885
149866
149843
149817
149816
149843
149866
149860
149849
149836
149824
149809
149795
149794
149780
149775
149768
149759
149751
149742
149734
149724
149715
149715
149705
149724
149733
149742
149751
149759
149767
149775
149783
149784
149791
149799
149798
149791
149806
149805
149810
149823
149819
149813
149813
149820
149826
149827
149833
149836
149848
149860
149870
149871
149880
149885
149901
149912
149920
149918
149915
149910
149904
149897
149889
149889
149880
149878
149873
149868
149863
149857
149852
149845
149840