/*--------------------------------*- C++ -*----------------------------------*\
| =========                 |                                                 |
| \\      /  F ield         | OpenFOAM: The Open Source CFD Toolbox           |
|  \\    /   O peration     | Version:  v2006                                 |
|   \\  /    A nd           | Website:  www.openfoam.com                      |
|    \\/     M anipulation  |                                                 |
\*---------------------------------------------------------------------------*/
FoamFile
{
    version     2.0;
    format      ascii;
    class       volVectorField;
    location    "0.007";
    object      U;
}
// * * * * * * * * * * * * * * * * * * * * * * * * * * * * * * * * * * * * * //

dimensions      [0 1 -1 0 0 0 0];


internalField   nonuniform List<vector> 
12716
(
(59.4091 5.25234e-05 -1.21684e-20)
(59.4091 1.58022e-05 0)
(59.4091 5.83164e-06 -6.76398e-22)
(59.4091 1.82845e-05 1.45876e-21)
(59.4089 2.02966e-05 -9.22084e-21)
(59.4075 -6.38638e-05 7.34964e-20)
(59.3957 -0.00121758 0)
(59.3525 -0.00590138 0)
(59.2691 -0.0143503 -1.15014e-19)
(59.1637 -0.0233534 5.97633e-20)
(59.0489 -0.0317143 -1.24548e-19)
(58.9308 -0.0390778 3.95456e-21)
(58.8084 -0.0458829 1.60817e-20)
(58.6806 -0.0522651 -8.12069e-21)
(58.5461 -0.0583937 -8.19393e-21)
(58.4041 -0.0643094 0)
(58.2545 -0.0700793 0)
(58.0968 -0.0757597 0)
(57.9307 -0.0813939 0)
(57.7561 -0.0869998 0)
(57.5726 -0.0925786 0)
(57.3804 -0.0981249 0)
(57.1792 -0.103633 0)
(56.9691 -0.109092 0)
(56.7503 -0.114491 0)
(56.5226 -0.119808 0)
(56.2863 -0.125022 0)
(56.0417 -0.130105 0)
(55.7889 -0.135028 0)
(55.5282 -0.139755 0)
(55.2601 -0.144256 0)
(54.985 -0.148491 0)
(54.7034 -0.152426 0)
(54.4158 -0.156021 0)
(54.1228 -0.15924 0)
(53.8252 -0.16205 0)
(53.5235 -0.164423 0)
(53.2187 -0.166327 0)
(52.9114 -0.167728 0)
(52.6027 -0.168596 0)
(52.2934 -0.168909 0)
(51.9846 -0.168647 0)
(51.6771 -0.167796 0)
(51.3719 -0.166346 0)
(51.0701 -0.164294 0)
(50.7727 -0.16164 0)
(50.4807 -0.158385 0)
(50.1949 -0.154534 0)
(49.9164 -0.15009 0)
(49.6461 -0.14506 0)
(49.3848 -0.139463 0)
(49.1334 -0.133321 0)
(48.8925 -0.12664 0)
(48.6622 -0.119363 0)
(48.4427 -0.111293 0)
(48.2336 -0.102109 -1.39136e-19)
(48.0348 -0.091155 1.43659e-19)
(47.8474 -0.0777999 1.75337e-20)
(47.6781 -0.0617615 0)
(47.5442 -0.0451369 0)
(47.466 -0.0318835 2.79011e-19)
(47.4405 -0.0240657 2.15304e-18)
(47.442 -0.0169162 -1.75872e-17)
(47.4466 -0.00997717 0)
(47.4445 -0.00992215 0)
(47.4238 -0.0130445 0)
(47.3687 -0.020004 0)
(47.2606 -0.0396038 0)
(47.0578 -0.0604729 3.82478e-19)
(46.8244 -0.0719747 0)
(45.9934 -0.124963 0)
(45.4722 -0.11453 5.52763e-18)
(46.8338 -0.139513 -3.70069e-18)
(47.1061 -0.115138 -3.85166e-19)
(47.1433 -0.14485 -6.08437e-18)
(46.7934 -0.162402 -4.67951e-19)
(44.8903 -0.112769 -1.14934e-18)
(44.2851 -0.104169 -1.00535e-18)
(46.7235 -0.162675 4.19003e-19)
(47.1727 -0.150044 6.97448e-19)
(47.1786 -0.15435 -6.79394e-19)
(46.6258 -0.155036 9.37422e-19)
(43.7222 -0.0931517 -1.27007e-19)
(43.1721 -0.0814897 1.77476e-19)
(46.4896 -0.144302 -9.81282e-20)
(47.1516 -0.154142 7.33537e-19)
(47.1012 -0.15216 -1.6288e-19)
(46.3402 -0.134366 9.81542e-20)
(42.6675 -0.0722648 -4.7906e-24)
(42.201 -0.0645141 -5.8749e-20)
(46.176 -0.125611 -8.49828e-20)
(47.0328 -0.149675 8.10464e-20)
(46.9514 -0.146584 0)
(46.0041 -0.117685 -1.82407e-20)
(41.7776 -0.0583395 0)
(41.381 -0.0534541 0)
(45.8259 -0.111468 6.09638e-21)
(46.8573 -0.143603 0)
(46.7591 -0.141442 0)
(45.6457 -0.10576 0)
(41.0167 -0.0493626 0)
(40.6672 -0.0465336 0)
(45.4642 -0.101841 0)
(46.6483 -0.139179 0)
(46.5372 -0.13835 0)
(45.2813 -0.0984184 0)
(40.3401 -0.0440873 0)
(40.0182 -0.0427172 0)
(45.0977 -0.0963997 0)
(46.415 -0.137308 0)
(46.2948 -0.137722 0)
(44.9126 -0.0945954 0)
(39.7116 -0.0413133 0)
(39.4046 -0.04072 0)
(44.7266 -0.0936193 0)
(46.1637 -0.137437 0)
(46.036 -0.138488 0)
(44.5388 -0.0925381 0)
(39.1096 -0.0396776 0)
(38.8127 -0.0392866 0)
(44.3496 -0.0918739 0)
(45.897 -0.138484 0)
(45.7622 -0.139651 0)
(44.1589 -0.0908713 0)
(38.5276 -0.0381468 0)
(38.2414 -0.0376398 0)
(43.9662 -0.0900584 0)
(45.6154 -0.139482 0)
(45.4734 -0.140568 0)
(43.7725 -0.0889501 0)
(37.9674 -0.0362868 0)
(37.6939 -0.0356777 0)
(43.5764 -0.0880056 0)
(45.3187 -0.140215 0)
(45.1695 -0.141303 0)
(43.3797 -0.0869129 0)
(37.4325 -0.0342597 0)
(37.1716 -0.0338173 0)
(43.1802 -0.0861905 0)
(45.0066 -0.14109 0)
(44.8495 -0.142331 0)
(42.9801 -0.0852675 0)
(36.9208 -0.0324982 0)
(36.6692 -0.0323244 0)
(42.7759 -0.0848618 0)
(44.6775 -0.142314 0)
(44.5111 -0.144413 0)
(42.5701 -0.0846273 0)
(36.4244 -0.0313473 0)
(36.1768 -0.0316282 0)
(42.3592 -0.0850274 0)
(44.3286 -0.145336 0)
(44.1533 -0.148407 0)
(42.1473 -0.0855414 0)
(35.9342 -0.0310425 0)
(35.6895 -0.0317558 0)
(41.9323 -0.0866887 0)
(43.9639 -0.150171 0)
(43.7837 -0.153656 0)
(41.7177 -0.0876045 0)
(35.4493 -0.0314074 0)
(35.2035 -0.0322832 0)
(41.4975 -0.0888864 0)
(43.5873 -0.155328 0)
(43.3969 -0.159291 0)
(41.2738 -0.09011 0)
(34.9574 -0.0320733 0)
(34.7034 -0.0331813 0)
(41.043 -0.0918915 0)
(43.1887 -0.161631 0)
(42.9869 -0.166126 0)
(40.8086 -0.093414 0)
(34.449 -0.0330722 0)
(34.1862 -0.0342443 0)
(40.5669 -0.0953598 0)
(42.7667 -0.168785 0)
(42.5527 -0.173549 0)
(40.3211 -0.0969245 0)
(33.9232 -0.0340804 0)
(33.6515 -0.0352048 0)
(40.0675 -0.0988443 0)
(42.3192 -0.176329 0)
(42.0912 -0.181306 0)
(39.8092 -0.10038 0)
(33.3801 -0.0349329 0)
(33.1 -0.0360098 0)
(39.5425 -0.102288 0)
(41.8427 -0.184239 0)
(41.5992 -0.189543 0)
(39.2704 -0.103865 0)
(32.8204 -0.0356508 0)
(32.5321 -0.0367197 0)
(38.9891 -0.105842 0)
(41.3337 -0.192726 0)
(41.0723 -0.198462 0)
(38.7012 -0.107569 0)
(32.2437 -0.0363334 0)
(31.9459 -0.0374931 0)
(38.4028 -0.109766 0)
(40.7873 -0.202057 0)
(40.5055 -0.208522 0)
(38.0967 -0.111885 0)
(31.6468 -0.0372249 0)
(31.337 -0.0386201 0)
(37.7789 -0.114543 0)
(40.1984 -0.212814 0)
(39.8936 -0.220285 0)
(37.4519 -0.117281 0)
(31.0236 -0.0385818 0)
(30.6973 -0.0402935 0)
(37.1117 -0.120604 0)
(39.5618 -0.225527 0)
(39.231 -0.234232 0)
(36.76 -0.124136 0)
(30.3646 -0.0405492 0)
(30.0163 -0.0426243 0)
(36.3932 -0.128256 0)
(38.8714 -0.240655 0)
(38.5111 -0.250804 0)
(36.0125 -0.132684 0)
(29.6585 -0.0432029 0)
(29.2819 -0.0456435 0)
(35.6143 -0.137653 0)
(38.1198 -0.258571 0)
(37.7258 -0.270307 0)
(35.1994 -0.143016 0)
(28.8927 -0.0465283 0)
(28.4815 -0.0493152 0)
(34.7643 -0.148835 0)
(37.2982 -0.2795 0)
(36.8654 -0.292934 0)
(34.3096 -0.155157 0)
(28.0549 -0.0504838 0)
(27.6028 -0.0536042 0)
(33.8317 -0.161835 0)
(36.3961 -0.303633 0)
(35.9189 -0.318971 0)
(33.3307 -0.169223 0)
(27.1324 -0.0550775 0)
(26.6331 -0.0585391 0)
(32.8035 -0.176808 0)
(35.4018 -0.331278 0)
(34.8743 -0.348753 0)
(32.2499 -0.18532 0)
(26.1126 -0.060302 0)
(25.559 -0.0642897 0)
(31.6661 -0.194262 0)
(34.3032 -0.36365 0)
(33.7178 -0.384112 0)
(31.0514 -0.204395 0)
(24.98 -0.0665513 0)
(24.362 -0.0712255 0)
(30.4011 -0.215093 0)
(33.0836 -0.402258 0)
(32.4301 -0.426674 0)
(29.7138 -0.227402 0)
(23.7131 -0.0741582 0)
(23.0173 -0.0797854 0)
(28.9836 -0.240608 0)
(31.7209 -0.449413 0)
(30.9852 -0.479657 0)
(28.2077 -0.256132 0)
(22.2825 -0.083725 0)
(21.489 -0.0908165 0)
(27.3777 -0.273253 0)
(30.1833 -0.509505 0)
(29.3437 -0.54898 0)
(26.4883 -0.293923 0)
(20.6431 -0.0963856 0)
(19.72 -0.10594 0)
(25.5264 -0.317527 0)
(28.4215 -0.590552 0)
(27.443 -0.64546 0)
(24.4825 -0.34686 0)
(18.7204 -0.114383 0)
(17.6134 -0.127921 0)
(23.3361 -0.381565 0)
(26.3555 -0.707076 0)
(25.1795 -0.788069 0)
(22.0678 -0.425589 0)
(16.3902 -0.141356 0)
(15.0058 -0.162118 0)
(20.6467 -0.480271 0)
(23.8523 -0.885351 0)
(22.38 -1.01601 0)
(19.0319 -0.553453 0)
(13.4355 -0.18587 0)
(11.5891 -0.223816 0)
(17.1652 -0.650378 0)
(20.6811 -1.18707 0)
(18.7364 -1.4305 0)
(14.9709 -0.791408 0)
(9.40166 -0.273448 0)
(6.78567 -0.355724 0)
(12.3557 -0.974024 0)
(16.4466 -1.75567 0)
(13.6664 -2.26407 0)
(8.7628 -1.40267 0)
(2.73345 -0.625695 0)
(-2.82651 -0.0866048 0)
(5.15379 -1.28779 0)
(10.7154 -2.37501 0)
(6.59194 -2.22628 0)
(-0.699825 -0.693937 0)
(-4.01716 0.049143 0)
(-5.59368 -0.19034 0)
(-4.35624 -0.423793 0)
(1.91778 -1.73748 0)
(-2.74245 -0.946017 0)
(-6.47513 -0.470539 0)
(-7.07997 -0.0472618 0)
(-8.06728 0.121531 0)
(-7.88148 -0.410937 0)
(-4.73131 -0.251341 0)
(-5.60109 0.467189 0)
(-8.20287 -0.0497244 0)
(-7.92088 0.281338 0)
(-6.80292 0.289238 0)
(-7.77175 0.191431 0)
(-5.99924 0.651639 0)
(-6.24325 0.61072 0)
(-6.89397 0.268419 0)
(-5.09873 0.232838 0)
(-4.61762 -0.0105159 0)
(-6.97104 -0.0876875 0)
(-7.07346 -0.247219 0)
(-7.55333 -0.259285 0)
(-7.39169 -0.13257 0)
(-5.12804 -0.078442 0)
(-6.05734 -0.152139 0)
(-8.13156 -0.333881 0)
(-8.27479 -0.715585 0)
(-8.95548 -0.351142 0)
(-8.99523 -0.233316 0)
(-7.06167 -0.0887097 0)
(-8.08984 -0.130309 0)
(-9.78413 -0.354081 0)
(-9.65902 -0.625847 0)
(-10.1254 -0.0492982 0)
(-10.39 -0.112738 0)
(-8.88401 -0.0343768 0)
(-9.25261 -0.0713945 0)
(-10.5146 -0.104422 0)
(-10.2165 -0.18484 0)
(-9.94884 0.354189 0)
(-10.3094 0.177318 0)
(-9.25115 0.0257617 0)
(-8.71925 0.0024201 0)
(-9.67314 0.143075 0)
(-9.37516 0.187008 0)
(-8.78453 0.535636 0)
(-9.0415 0.287535 0)
(-8.2399 0.0773127 0)
(-7.29184 0.0794811 0)
(-8.02787 0.282588 0)
(-7.86229 0.505895 0)
(-6.8878 0.737103 0)
(-6.96376 0.383816 0)
(-6.31 0.125678 0)
(-5.06944 0.111215 0)
(-5.69354 0.347097 0)
(-5.71171 0.657495 0)
(-4.73515 0.682862 0)
(-4.60473 0.358572 0)
(-4.02134 0.117085 0)
(-2.90875 0.101253 0)
(-3.46662 0.319028 0)
(-3.6892 0.604455 0)
(-2.84017 0.547958 0)
(-2.52266 0.289032 0)
(-2.0054 0.0901942 0)
(-1.12432 0.0794158 0)
(-1.59835 0.268254 0)
(-1.9956 0.514772 0)
(-1.21486 0.457483 0)
(-0.778996 0.235285 0)
(-0.391312 0.0642542 0)
(0.278827 0.0566612 0)
(0.00872005 0.213161 0)
(-0.51153 0.413665 0)
(0.123749 0.364145 0)
(0.661419 0.188396 0)
(0.859133 0.0522554 0)
(1.39015 0.0473324 0)
(1.25135 0.172831 0)
(0.670179 0.32066 0)
(1.11932 0.303939 0)
(1.77264 0.167083 0)
(1.88296 0.0461747 0)
(2.36133 0.0425673 0)
(2.27217 0.157869 0)
(1.52865 0.284185 0)
(1.88758 0.268752 0)
(2.74451 0.14611 0)
(2.80197 0.0365722 0)
(3.19259 0.0300497 0)
(3.19635 0.12376 0)
(2.19791 0.259158 0)
(2.50411 0.240292 0)
(3.63466 0.0823566 0)
(3.49277 0.0216712 0)
(3.65796 0.0214271 0)
(4.01994 0.0223218 0)
(2.78371 0.211226 0)
(3.0424 0.129259 0)
(4.29113 -0.0250584 0)
(3.68108 0.0158853 0)
(3.61773 0.0103784 0)
(4.37945 -0.0393008 0)
(3.10777 0.0322032 0)
(2.9449 -0.0665254 0)
(4.28789 -0.0376456 0)
(3.52551 0.00289607 0)
(3.43471 0.00696555 0)
(4.06639 -0.0396017 0)
(2.63849 -0.117259 0)
(2.25184 -0.168385 0)
(3.73524 -0.0470868 0)
(3.33768 0.00597378 0)
(3.22848 0.0122601 0)
(3.3377 -0.0571549 0)
(1.83649 -0.177998 0)
(1.43967 -0.187361 0)
(2.91658 -0.0655799 0)
(3.09559 0.00483558 0)
(2.93479 0.00389451 0)
(2.50908 -0.0695197 0)
(1.07406 -0.171474 0)
(0.754304 -0.158188 0)
(2.14475 -0.0678768 0)
(2.75726 -0.00422472 0)
(2.56722 -0.00495471 0)
(1.82088 -0.0656197 0)
(0.479136 -0.137241 0)
(0.243053 -0.121383 0)
(1.54539 -0.0588553 0)
(2.38411 -0.00862585 0)
(2.20758 -0.00749177 0)
(1.29951 -0.0535148 0)
(0.0341011 -0.105291 0)
(-0.144097 -0.0918473 0)
(1.09036 -0.0463963 0)
(2.05066 -0.00818056 0)
(1.90551 -0.0061357 0)
(0.900193 -0.0420634 -3.9281e-19)
(-0.305427 -0.0808349 3.29638e-19)
(-0.447285 -0.0698455 0)
(0.734633 -0.036529 0)
(1.7777 -0.0061918 0)
(1.66054 -0.00451574 0)
(0.584417 -0.0330191 0)
(-0.576138 -0.0618003 0)
(-0.690109 -0.0529287 0)
(0.452656 -0.0284118 0)
(1.55684 -0.00464977 0)
(1.46207 -0.00318746 0)
(0.332664 -0.0256569 0)
(-0.795086 -0.0471532 0)
(-0.889008 -0.0400004 0)
(0.226705 -0.0216899 0)
(1.37789 -0.00349599 0)
(1.30087 -0.0021019 0)
(0.129409 -0.0197267 0)
(-0.977369 -0.0362121 0)
(-1.05699 -0.0310168 0)
(0.0420418 -0.0164633 0)
(1.23168 -0.00258108 0)
(1.16798 -0.00129211 0)
(-0.0393307 -0.0153214 0)
(-1.1341 -0.0289297 0)
(-1.20414 -0.0251772 0)
(-0.114348 -0.0126838 0)
(1.10958 -0.00204185 0)
(1.05502 -0.000860957 0)
(-0.185874 -0.0123332 0)
(-1.27382 -0.0239263 0)
(-1.33761 -0.0219951 0)
(-0.252994 -0.010597 0)
(1.00379 -0.00166794 0)
(0.953557 -0.000744334 0)
(-0.32001 -0.0110535 0)
(-1.40334 -0.0220187 0)
(-1.46366 -0.0215771 0)
(-0.384324 -0.0103727 0)
(0.904374 -0.00153395 0)
(0.854266 -0.00093843 0)
(-0.450044 -0.0111706 0)
(-1.52644 -0.0221995 0)
(-1.58351 -0.0226498 0)
(-0.513769 -0.0113278 0)
(0.803858 -0.00199917 0)
(0.752772 -0.00142775 0)
(-0.578996 -0.0119007 0)
(-1.64348 -0.0230272 0)
(-1.69749 -0.0232633 0)
(-0.64237 -0.0119381 0)
(0.70095 -0.00234798 0)
(0.6489 -0.00189732 0)
(-0.706403 -0.0123166 0)
(-1.75433 -0.0232585 0)
(-1.80489 -0.023131 0)
(-0.768159 -0.0120837 0)
(0.596432 -0.0025822 0)
(0.544042 -0.00215874 0)
(-0.830185 -0.0121387 0)
(-1.85831 -0.0226396 0)
(-1.90537 -0.0222932 0)
(-0.889069 -0.0116457 0)
(0.49303 -0.00261573 0)
(0.442185 -0.00220999 0)
(-0.948354 -0.0116255 0)
(-1.95535 -0.0215979 0)
(-1.9987 -0.0214351 0)
(-1.00421 -0.0112695 0)
(0.393145 -0.0026145 0)
(0.343718 -0.00229856 0)
(-1.06077 -0.0113989 0)
(-2.04478 -0.0207602 0)
(-2.08385 -0.0208487 0)
(-1.11383 -0.0113129 0)
(0.295653 -0.00277366 0)
(0.246583 -0.00254841 0)
(-1.16745 -0.0115027 0)
(-2.12521 -0.0200355 0)
(-2.15923 -0.0203132 0)
(-1.21715 -0.0116468 0)
(0.198657 -0.00315263 0)
(0.149071 -0.00295171 0)
(-1.26738 -0.0117341 0)
(-2.1955 -0.0192436 0)
(-2.22441 -0.0195279 0)
(-1.31305 -0.0118444 0)
(0.101301 -0.00357966 0)
(0.0520207 -0.00322351 0)
(-1.35919 -0.0115928 0)
(-2.25575 -0.0180751 0)
(-2.27989 -0.0182622 0)
(-1.40016 -0.0115402 0)
(0.00610463 -0.00381155 0)
(-0.0406628 -0.00311666 0)
(-1.44153 -0.0105565 3.97451e-19)
(-2.30664 -0.0162233 -3.31229e-19)
(-2.32595 -0.0158177 0)
(-1.47695 -0.0103739 0)
(-0.0821492 -0.00358936 0)
(-0.122998 -0.00319274 5.92496e-20)
(-1.51184 -0.00853269 4.93046e-19)
(-2.34698 -0.0127739 -4.11508e-19)
(-2.35964 -0.0115436 8.20201e-20)
(-1.53995 -0.00789222 -9.84667e-20)
(-0.15691 -0.00287608 -5.92566e-20)
(-0.187479 -0.00353156 4.59374e-19)
(-1.56671 -0.00558409 0)
(-2.37298 -0.00813029 -6.447e-19)
(-2.37953 -0.00743286 5.96791e-23)
(-1.58794 -0.0045594 -1.93338e-19)
(-0.216183 -0.00353574 -2.33056e-19)
(-0.242693 -0.00757042 -6.51566e-19)
(-1.60775 -0.0043457 5.4754e-19)
(-2.38432 -0.0061482 0)
(-2.38812 -0.00397839 0)
(-1.63061 -0.00343868 -7.70811e-19)
(-0.289396 -0.00567571 7.05326e-19)
(-0.310796 -0.00232243 -2.14577e-19)
(-1.64738 -0.00201031 7.23574e-19)
(-2.38746 0.00126888 -1.21584e-18)
(-2.37224 0.00504836 2.01128e-18)
(-1.64507 -0.00514479 0)
(-0.322857 -0.0017068 -5.08683e-19)
(-0.361402 -0.0057423 9.49937e-19)
(-1.64686 -0.0074116 0)
(-2.36524 0.0093023 8.49653e-20)
(-2.3466 0.0107269 6.32287e-19)
(-1.63781 -0.011519 -8.68114e-19)
(-0.407679 0.00405701 0)
(-3.17313 0.00123434 0)
(-3.49038 0.0226328 -1.307e-19)
(-3.63872 0.0284191 0)
(-3.63954 0.0335686 -1.83698e-18)
(-3.54148 0.0448299 1.74038e-18)
(-3.36154 0.0544419 0)
(-3.21214 0.0649137 0)
(-3.03932 0.0777012 5.56025e-20)
(-2.91302 0.0874472 -5.57131e-20)
(-2.79288 0.101854 0)
(-2.72837 0.110803 0)
(-2.74062 0.127054 0)
(-2.84995 0.132419 0)
(-3.15495 0.146614 0)
(-3.53687 0.145793 9.26137e-19)
(-4.0522 0.141525 -2.82553e-18)
(-4.44989 0.129892 1.97605e-18)
(-4.74985 0.108444 -8.07736e-18)
(-4.86448 0.0991476 8.56157e-18)
(-4.85205 0.0961808 3.36383e-17)
(-4.90808 0.107996 -7.83442e-17)
(-4.81693 0.0880816 0)
(-4.80321 0.130601 0)
(-4.79412 0.171571 1.25684e-17)
(-4.68632 0.14239 0)
(-4.43888 0.0695723 0)
(-2.67381 -0.00806567 0)
(-2.35562 0.0476304 0)
(-3.89053 -0.0205697 -7.71006e-17)
(-4.24363 -0.109389 6.94806e-17)
(-4.21157 0.249186 3.20039e-17)
(-3.68232 0.155125 3.99339e-17)
(-1.55055 0.0633278 -1.55436e-17)
(-1.36824 0.0133078 0)
(-3.61064 0.109925 1.36003e-17)
(-4.30758 0.170128 -2.26022e-17)
(-4.25237 0.138429 -1.33848e-17)
(-3.39307 0.0847003 1.04272e-18)
(-1.13442 0.000124383 -2.54119e-18)
(-0.931253 -0.00350824 -5.79827e-19)
(-3.09829 0.0604909 9.61042e-19)
(-4.09702 0.110111 -3.95626e-18)
(-3.94921 0.111602 8.08065e-19)
(-2.84963 0.0513084 1.09857e-18)
(-0.775457 -0.00227595 -5.90424e-19)
(-0.650705 -0.00225818 1.45273e-19)
(-2.57787 0.0349314 3.76268e-18)
(-3.76049 0.0915511 -6.46974e-18)
(-3.6064 0.0974785 8.13604e-19)
(-2.34934 0.0332316 9.9206e-26)
(-0.552959 0.000743897 -1.32337e-18)
(-0.462847 -0.00244763 1.47377e-19)
(-2.10814 0.0250676 -1.96845e-18)
(-3.42419 0.0803619 -1.62945e-18)
(-3.27841 0.0830629 0)
(-1.91856 0.0245923 0)
(-0.390003 -0.000606185 -1.48582e-19)
(-0.321125 0.00247704 0)
(-1.72711 0.017105 0)
(-3.09 0.0645714 -1.64717e-18)
(-2.95884 0.0656716 1.64034e-18)
(-1.58301 0.01562 0)
(-0.268025 0.00154152 0)
(-0.216679 0.00144504 0)
(-1.44009 0.0118603 0)
(-2.80267 0.0470192 -1.64046e-18)
(-2.70337 0.0476604 1.64065e-18)
(-1.34322 0.0104956 0)
(-0.179626 0.00167279 0)
(-0.138042 0.00136472 0)
(-1.23495 0.00882455 0)
(-2.57644 0.0337466 -1.64073e-18)
(-2.50352 0.0356988 1.64089e-18)
(-1.16754 0.00732462 0)
(-0.109918 0.00157518 0)
(-0.0781877 0.000726028 0)
(-1.08598 0.0057688 0)
(-2.40466 0.0215489 -1.64095e-18)
(-2.35724 0.026282 1.64108e-18)
(-1.04208 0.00450553 0)
(-0.0608212 0.00149611 0)
(-0.0344647 0.000632017 -1.18803e-18)
(-0.976337 0.00398607 -9.911e-19)
(-2.27499 0.0160616 1.64112e-18)
(-2.23772 0.0224112 1.64124e-18)
(-0.944495 0.00277173 0)
(-0.0220646 0.00180245 0)
(0.00053743 0.000159482 0)
(-0.886629 0.0029007 0)
(-2.16389 0.0123878 -1.64128e-18)
(-2.13492 0.0202806 1.64139e-18)
(-0.860008 0.00276001 0)
(0.0102959 0.00195616 0)
(0.0333246 2.77897e-05 0)
(-0.804031 0.00278636 0)
(-2.06474 0.0112991 -1.64143e-18)
(-2.0402 0.0186105 1.64154e-18)
(-0.781007 0.00217901 0)
(0.0430355 0.00179978 0)
(0.0636003 -0.000310294 0)
(-0.727941 0.00270604 0)
(-1.97403 0.00946461 -1.64158e-18)
(-1.95566 0.0171619 1.64168e-18)
(-0.706893 0.00201535 0)
(0.0722714 0.0015931 0)
(0.093836 -9.26262e-05 0)
(-0.655055 0.00257885 0)
(-1.89176 0.00858287 -1.64172e-18)
(-1.87909 0.0154354 1.64182e-18)
(-0.639467 0.000784667 0)
(0.101613 0.00175858 0)
(0.11971 -0.000215236 0)
(-0.592034 0.00170327 0)
(-1.81855 0.00581897 -1.64186e-18)
(-1.81441 0.0126554 1.64195e-18)
(-0.58343 6.58983e-05 0)
(0.124953 0.00162324 0)
(0.143166 -9.62283e-05 0)
(-0.539235 0.00115575 0)
(-1.7563 0.00315784 -1.64198e-18)
(-1.76332 0.00929156 1.64206e-18)
(-0.542438 -0.000528831 0)
(0.145117 0.00126732 0)
(0.161622 -0.000614223 0)
(-0.501185 0.000829295 0)
(-1.70923 -0.00207453 -1.64211e-18)
(-1.73543 0.00385446 1.64214e-18)
(-0.521711 -0.000851539 0)
(0.159883 0.000308951 0)
(0.173547 -0.000931691 0)
(-0.48424 -0.00025404 0)
(-1.68383 -0.00429923 -1.6422e-18)
(-1.71282 0.00272516 1.64222e-18)
(-0.51164 -0.00161353 0)
(0.166049 1.3068e-05 0)
(0.180097 -0.00109359 0)
(-0.472946 -0.000375898 0)
(-1.6615 -0.00593561 -1.64228e-18)
(-1.69523 0.000823899 1.64229e-18)
(-0.507127 -0.00196886 0)
(0.170901 -0.000220925 0)
(0.184115 -0.00110189 0)
(-0.468086 -0.000629162 0)
(-1.64254 -0.00423231 -1.64233e-18)
(-1.66757 0.00318437 1.64235e-18)
(-0.494884 -0.00178045 0)
(0.17457 -0.00011533 0)
(0.190693 -0.000990712 0)
(-0.452546 -3.32592e-05 0)
(-1.61378 -0.00399177 -1.64237e-18)
(-1.63933 0.00244257 1.64237e-18)
(-0.479991 -0.00172234 0)
(0.182952 -0.000232179 0)
(0.198294 -0.000939864 0)
(-0.437719 -3.57872e-05 0)
(-1.58394 -0.00197161 -1.64236e-18)
(-1.60048 0.00498167 1.64237e-18)
(-0.45609 -0.00143766 0)
(0.191613 -7.84333e-05 0)
(0.209639 -0.000826378 0)
(-0.411089 0.000546495 0)
(-1.54464 -0.00228749 -1.64232e-18)
(-1.56455 0.00350555 1.64231e-18)
(-0.432335 -0.00149449 0)
(0.204541 -0.000283105 0)
(0.220934 -0.000794308 0)
(-0.388741 0.000324782 0)
(-1.50813 -0.00123308 -1.64221e-18)
(-1.52227 0.00508923 1.64219e-18)
(-0.404458 -0.00145035 0)
(0.215997 -0.000198544 0)
(0.234132 -0.000754514 0)
(-0.35939 0.000681674 0)
(-1.46643 -0.0022635 -1.64204e-18)
(-1.48558 0.00312491 1.642e-18)
(-0.379992 -0.00160719 0)
(0.229548 -0.00050256 0)
(0.245879 -0.000718682 0)
(-0.336631 0.000488187 0)
(-1.42984 -0.00145371 -1.6418e-18)
(-1.44454 0.00448189 1.64174e-18)
(-0.352525 -0.0015944 0)
(0.241533 -0.000406307 0)
(0.25922 -0.000642123 0)
(-0.30836 0.000694938 0)
(-1.39019 -0.00241563 -1.64147e-18)
(-1.40954 0.00294022 1.6414e-18)
(-0.328783 -0.00184326 0)
(0.254774 -0.000604897 0)
(0.271016 -0.000458652 0)
(-0.285709 0.000495498 0)
(-1.35544 -0.00133325 -1.64109e-18)
(-1.37107 0.00441879 1.64101e-18)
(-0.301643 -0.0019622 0)
(0.267205 -0.000386393 0)
(0.284308 -0.00032214 0)
(-0.258133 0.000471319 0)
(-1.31855 -0.00216218 -1.64063e-18)
(-1.33838 0.00323377 1.64053e-18)
(-0.278417 -0.00233561 0)
(0.279839 -0.000498964 0)
(0.295757 -5.44504e-05 0)
(-0.235493 0.000240784 0)
(-1.28571 -0.00110064 -1.64012e-18)
(-1.30308 0.00446476 1.64002e-18)
(-0.252457 -0.00252179 0)
(0.291937 -0.000262703 0)
(0.308232 4.1635e-05 0)
(-0.209568 9.12628e-05 0)
(-1.25217 -0.00215527 -1.63954e-18)
(-1.27432 0.00323626 1.63944e-18)
(-0.23154 -0.00288229 0)
(0.303154 -0.000387082 0)
(0.318641 0.000295958 0)
(-0.189007 -9.96036e-05 0)
(-1.2234 -0.00151039 -1.63895e-18)
(-1.24532 0.00379993 1.63884e-18)
(-0.20977 -0.00305536 0)
(0.314011 -0.000244376 0)
(0.32934 0.000257979 0)
(-0.167948 -0.000350427 0)
(-1.19695 -0.00301408 -1.63829e-18)
(-1.22433 0.00245374 1.63819e-18)
(-0.194705 -0.00337126 0)
(0.322592 -0.000408511 0)
(0.33777 0.000466192 0)
(-0.152521 -0.000491274 0)
(-1.17604 -0.00272242 -1.63764e-18)
(-1.20486 0.00248124 1.63754e-18)
(-0.180055 -0.00360579 0)
(0.331035 -0.000316859 0)
(0.345723 0.000290156 0)
(-0.138808 -0.000726003 0)
(-1.15926 -0.00451292 -1.63695e-18)
(-1.19418 0.00104685 1.63685e-18)
(-0.173115 -0.00385036 0)
(0.336227 -0.000472061 0)
(0.351715 0.00046194 0)
(-0.130805 -0.00092703 0)
(-1.14895 -0.00494737 -1.63627e-18)
(-1.18808 -0.000105798 1.63618e-18)
(-0.16967 -0.00446066 0)
(0.341478 -0.000416555 0)
(0.354774 0.000187331 0)
(-0.130247 -0.00165759 0)
(-1.14582 -0.00753775 -1.63558e-18)
(-1.19286 -0.00191784 1.6355e-18)
(-0.176161 -0.004716 0)
(0.340948 -0.000569563 0)
(0.355302 0.00034739 0)
(-0.136601 -0.00163831 0)
(-1.15157 -0.00869839 -1.63491e-18)
(-1.20681 -0.00468586 1.63485e-18)
(-0.189269 -0.0055287 0)
(0.341326 -0.000469647 0)
(0.351362 1.27319e-05 0)
(-0.158093 -0.00324017 0)
(-1.17169 -0.012249 -1.63427e-18)
(-1.23538 -0.00696677 1.63422e-18)
(-0.218659 -0.00593756 0)
(0.331492 -0.000664674 0)
(0.342463 0.000143128 0)
(-0.187594 -0.00358654 0)
(-1.20235 -0.0127419 -1.63365e-18)
(-1.27011 -0.00818277 1.63361e-18)
(-0.252933 -0.00678764 0)
(0.320663 -0.000493866 0)
(0.329766 -0.000465226 0)
(-0.225056 -0.0034497 0)
(-1.23841 -0.0143959 0)
(-1.31576 -0.00976831 8.20025e-19)
(-0.292158 -0.00656406 -9.83525e-19)
(0.306105 -0.000242156 -1.17659e-18)
(0.318872 0.00167204 0)
(-0.253128 -0.00208447 0)
(-1.28064 -0.011811 -3.27876e-18)
(-1.33533 -0.0112826 0)
(-0.294021 -0.00571618 0)
(0.310706 0.00305259 0)
(0.323934 0.00243711 0)
(-0.262055 -0.00442719 0)
(-1.30261 -0.0227761 0)
(-1.36379 -0.0213728 -5.08199e-18)
(-0.306169 -0.00661758 3.89316e-18)
(0.311637 0.00398542 0)
(0.329352 0.00635526 0)
(-0.267556 -0.00302298 0)
(-1.33013 -0.0320398 2.0231e-19)
(-1.4001 -0.0404316 -6.41352e-18)
(-0.312398 -0.00892293 7.70238e-18)
(0.33199 0.00715652 0)
(0.335935 0.00746953 1.82161e-17)
(-0.311702 -0.0101475 -7.6602e-18)
(-1.39097 -0.0524954 -6.36346e-18)
(-1.47407 -0.0581328 6.3372e-18)
(-0.386259 -0.0158232 0)
(0.31603 0.00610303 -9.07101e-18)
(0.317324 0.00835611 0)
(-0.390234 -0.0157868 0)
(-1.48742 -0.0674056 1.25282e-17)
(-1.57067 -0.0704035 -1.9316e-19)
(-0.473564 -0.0246834 1.48807e-17)
(0.290144 0.00845675 -1.79123e-17)
(0.284152 0.0096917 -1.76946e-17)
(-0.495325 -0.0221542 0)
(-1.58686 -0.0775158 1.9248e-19)
(-1.69076 -0.0899199 0)
(-0.587446 -0.0300952 -1.44576e-17)
(0.259718 0.00908188 1.73876e-17)
(0.25304 0.00853634 -1.34247e-19)
(-0.622771 -0.03318 1.42757e-17)
(-1.7313 -0.101283 -1.20378e-17)
(-1.8329 -0.111815 1.18377e-17)
(-0.723229 -0.0430939 1.42974e-17)
(0.216252 0.00715283 -1.68783e-17)
(0.190292 0.00483859 -1.68177e-17)
(-0.786418 -0.0467954 -1.09143e-19)
(-1.88673 -0.122749 0)
(-2.00501 -0.136836 2.31789e-17)
(-0.903119 -0.0572715 -2.76151e-17)
(0.141339 0.00421579 1.6645e-17)
(0.109565 0.0013364 -1.64037e-17)
(-0.986615 -0.0633439 -2.1296e-19)
(-2.0826 -0.149346 -1.14142e-17)
(-2.21257 -0.16563 0)
(-1.11766 -0.0775562 1.37141e-17)
(0.0477235 0.00021602 -1.61868e-17)
(0.000336102 -0.00315981 0)
(-1.22437 -0.090604 -2.09025e-19)
(-2.30426 -0.183014 -1.10831e-17)
(-2.44542 -0.206831 1.10493e-17)
(-1.38337 -0.108481 -1.394e-17)
(-0.0847393 -0.0093647 -1.59149e-17)
(-0.168448 -0.0160737 -1.62396e-17)
(-1.52157 -0.122534 2.71725e-17)
(-2.5663 -0.227534 -2.25628e-17)
(-2.71515 -0.258415 6.88909e-19)
(-1.70131 -0.150425 -1.15936e-17)
(-0.276007 -0.027735 1.74412e-17)
(-0.439426 -0.0323459 1.6582e-17)
(-1.90908 -0.164913 -1.61718e-18)
(-2.88593 -0.282759 0)
(-3.01752 -0.365686 -1.0349e-17)
(-2.05311 -0.247206 3.18957e-18)
(-0.466102 -0.0645132 -1.96163e-18)
(-1.15686 -0.121499 0)
(-2.61176 -0.28705 -2.72755e-18)
(-3.40143 -0.341253 0)
(-2.98846 -0.473857 0)
(-2.34566 -0.274828 2.22353e-18)
(-1.00831 -0.0617846 2.53164e-18)
(-0.784808 -0.0424213 -6.3751e-18)
(-2.35506 -0.170231 -2.92328e-18)
(-3.06324 -0.187334 -2.17139e-17)
(-3.45153 -0.296686 0)
(-2.7681 -0.240499 0)
(-1.11261 -0.0793725 2.595e-18)
(-1.15724 -0.0873845 -1.82273e-17)
(-2.95555 -0.257109 1.61054e-17)
(-3.69353 -0.355174 -1.09575e-17)
(-3.92685 -0.435252 1.0418e-17)
(-3.17236 -0.303811 -3.00933e-17)
(-1.29283 -0.123152 3.49009e-17)
(-1.55317 -0.152236 -6.5691e-17)
(-3.47647 -0.413543 5.4971e-17)
(-4.30947 -0.607339 -4.76599e-17)
(-4.49974 -0.691954 -1.25996e-18)
(-4.04842 -0.62676 5.81381e-19)
(-1.98339 -0.316451 -3.27089e-17)
(-3.43582 -0.435695 -4.0817e-17)
(-4.40676 -0.607295 1.49549e-17)
(-4.81909 -0.72762 1.8418e-17)
(-5.16739 -0.893881 -5.07452e-18)
(-4.88478 -0.740216 0)
(-3.91433 -0.506821 -1.98763e-18)
(-4.28985 -0.584473 7.06339e-18)
(-5.24126 -0.829871 -3.41464e-18)
(-5.47939 -1.032 1.60976e-18)
(-5.81986 -1.18114 -6.02382e-18)
(-5.62337 -0.936777 1.58667e-17)
(-4.68781 -0.668913 -1.95435e-17)
(-5.13314 -0.800051 2.48064e-17)
(-6.12059 -1.08695 1.17013e-17)
(-6.33947 -1.45215 0)
(-6.6594 -1.45719 -8.60781e-18)
(-6.47595 -1.14961 -1.55868e-17)
(-5.48278 -0.892185 -2.76963e-17)
(-5.89657 -1.03021 0)
(-6.8467 -1.24847 9.60104e-18)
(-6.95219 -1.65183 2.89934e-22)
(-7.3428 -1.81675 7.81395e-18)
(-7.33674 -1.42414 -1.01031e-17)
(-6.42857 -1.22878 -1.45541e-17)
(-7.00277 -1.47783 1.35366e-17)
(-7.89079 -1.64127 2.75389e-18)
(-7.80184 -2.09222 1.22508e-17)
(-8.37927 -2.48314 1.66869e-18)
(-8.53508 -1.92412 -1.46099e-17)
(-7.62434 -1.81785 1.31591e-17)
(-8.2751 -2.19363 3.90709e-17)
(-9.24191 -2.18991 1.42202e-17)
(-8.997 -2.85954 -3.05459e-17)
(-9.66886 -3.40795 1.81702e-18)
(-10.052 -2.56708 0)
(-8.99829 -2.64072 -1.31118e-17)
(-9.7784 -3.12319 -5.40434e-21)
(-10.9863 -2.99379 2.16286e-17)
(-10.4565 -4.06771 -4.10683e-17)
(-11.6038 -5.2126 2.20704e-17)
(-12.2683 -3.67189 7.03171e-18)
(-10.6695 -3.75171 -5.12653e-17)
(-11.5194 -4.34164 6.97414e-17)
(-13.4691 -3.77608 -1.89705e-17)
(-12.6906 -5.55701 0)
(-13.6046 -6.37883 -2.86355e-17)
(-14.6137 -4.12987 1.25867e-17)
(-12.3775 -4.98619 -8.15794e-17)
(-13.3425 -5.68712 0)
(-15.8888 -4.58917 -1.35007e-17)
(-15.0222 -6.88843 7.87332e-17)
(-16.3321 -8.46682 0)
(-17.502 -5.31942 2.88253e-17)
(-14.4407 -6.55697 -1.90856e-17)
(-15.535 -7.52009 4.11486e-17)
(-19.066 -5.45736 3.7e-17)
(-17.6037 -8.94634 3.71051e-17)
(-19.0322 -10.2002 -1.62374e-17)
(-20.648 -6.17014 2.50376e-17)
(-16.78 -8.55834 -9.70902e-17)
(-18.5154 -9.81944 1.26988e-17)
(-22.5863 -7.56663 -3.06346e-21)
(-20.8884 -11.4078 -2.38086e-17)
(-22.6138 -12.9122 -4.42811e-21)
(-24.6814 -9.17742 1.10876e-17)
(-20.6638 -11.342 1.25942e-17)
(-23.0616 -13.2126 0)
(-26.8828 -11.0819 -1.09396e-17)
(-24.2809 -15.1567 -4.25571e-17)
(-26.253 -16.5695 7.261e-17)
(-29.0212 -12.5562 -1.34696e-17)
(-25.5724 -15.3386 1.30226e-17)
(-28.3911 -17.7431 0)
(-30.908 -15.0052 -1.55357e-17)
(-27.9347 -18.8938 9.62753e-18)
(-29.518 -21.8376 6.1923e-18)
(-32.861 -18.5544 0)
(-31.7027 -20.7705 1.32445e-17)
(-35.1617 -24.7973 -1.25402e-17)
(-34.5746 -23.3573 2.37616e-17)
(-30.2657 -26.5696 1.75926e-17)
(-32.3576 -29.4296 -2.95841e-17)
(-36.5057 -27.8371 0)
(-38.8702 -29.6517 3.80239e-17)
(-42.0945 -35.3385 -7.68469e-17)
(-37.1836 -33.7438 -1.59874e-17)
(-32.7416 -34.481 1.81685e-17)
(-30.6131 -41.8994 4.62636e-17)
(-35.9358 -41.6916 -9.11046e-17)
(-45.0746 -42.9715 3.49021e-17)
(-46.5336 -52.0655 0)
(-34.0166 -50.1917 2.99059e-17)
(-30.9383 -47.5113 0)
(-25.8585 -56.1475 -2.06742e-19)
(-29.5272 -59.237 -6.11809e-17)
(-46.7833 -62.8712 0)
(-43.4997 -74.7528 4.36991e-17)
(-20.0335 -68.7701 0)
(-18.6563 -64.6104 0)
(-11.6891 -70.8319 6.77405e-18)
(-13.3385 -77.5211 -8.51175e-18)
(-38.1731 -86.7908 -6.00956e-17)
(-27.1474 -92.2344 3.50837e-17)
(-6.21213 -83.2954 -2.38272e-17)
(-3.86895 -77.1195 -2.61113e-17)
(4.43211 -79.7521 -1.7923e-17)
(1.21299 -80.9865 -2.00269e-17)
(-14.9557 -87.3615 -3.14279e-17)
(-6.43364 -69.9699 3.56447e-17)
(7.15823 -67.6839 7.29843e-17)
(8.77744 -74.9329 -2.47433e-17)
(11.7799 -62.5995 1.28258e-16)
(6.4427 -49.5073 -1.16387e-16)
(-8.07318 -41.8682 5.89275e-17)
(-14.6189 -11.2486 0)
(1.62618 -30.53 0)
(10.5662 -50.0338 -1.02975e-16)
(7.13543 -29.0104 3.77774e-17)
(-0.411213 -10.6095 0)
(-9.77907 5.76327 1.96398e-17)
(-9.60588 5.38273 -3.78325e-17)
(-8.65062 7.7238 0)
(0.885341 -14.0375 3.14833e-17)
(-3.71193 -1.76582 -3.04335e-17)
(-9.45941 7.76057 1.35757e-17)
(-9.10639 3.26011 -3.65415e-17)
(-9.19282 2.61469 0)
(-11.149 6.56127 2.30926e-21)
(-8.63161 2.93004 1.84343e-17)
(-10.4351 1.64611 -2.86171e-17)
(-11.9401 4.85766 4.13003e-17)
(-10.5031 1.9576 -3.49243e-17)
(-12.9854 1.88467 0)
(-13.5543 4.10092 1.13581e-17)
(-12.3562 0.566534 -3.4149e-17)
(-15.1366 0.51822 0)
(-15.6102 4.22251 -1.26066e-17)
(-15.9751 2.29057 -1.01722e-16)
(-18.9617 2.98469 1.21147e-16)
(-17.6839 4.77321 -2.90442e-17)
(-17.2681 1.18021 0)
(-18.5612 1.79643 0)
(-19.4896 5.2824 0)
(-21.6839 3.76348 -3.12284e-20)
(-24.2336 4.59701 -5.95915e-17)
(-21.194 5.63217 0)