/*--------------------------------*- C++ -*----------------------------------*\
| =========                 |                                                 |
| \\      /  F ield         | OpenFOAM: The Open Source CFD Toolbox           |
|  \\    /   O peration     | Version:  v2006                                 |
|   \\  /    A nd           | Website:  www.openfoam.com                      |
|    \\/     M anipulation  |                                                 |
\*---------------------------------------------------------------------------*/
FoamFile
{
    version     2.0;
    format      ascii;
    class       volScalarField;
    location    "0.081";
    object      omega;
}
// * * * * * * * * * * * * * * * * * * * * * * * * * * * * * * * * * * * * * //

dimensions      [0 0 -1 0 0 0 0];


internalField   nonuniform List<scalar> 
16277
(
0.00810579
0.0081059
0.00810474
0.00810434
0.00810332
0.00810335
0.00810272
0.00810121
0.00809762
0.00809144
0.0080829
0.00807269
0.00806155
0.00804989
0.00803787
0.00802545
0.00801255
0.00799907
0.00798495
0.00797014
0.00795464
0.00793844
0.00792156
0.00790402
0.00788582
0.00786698
0.00784751
0.00782741
0.00780669
0.00778538
0.00776347
0.00774099
0.00771796
0.00769438
0.00767028
0.00764568
0.0076206
0.00759506
0.00756908
0.00754268
0.0075159
0.00748875
0.00746126
0.00743347
0.00740538
0.00737705
0.00734849
0.00731973
0.00729081
0.00726176
0.0072326
0.00720337
0.00717411
0.00714484
0.00711561
0.00708643
0.00705735
0.00702841
0.00699964
0.00697108
0.00694278
0.00691479
0.0068872
0.00686018
0.00683407
0.0068097
0.00678898
0.00677664
0.00678512
0.00684364
0.00700289
0.00737729
0.00820709
0.00999212
0.013735
0.0213666
0.0365744
0.0665413
0.1253
0.238484
0.453818
0.842553
1.40712
1.8285
2.49788
2.99671
3.63722
6.62622
11.4691
14.4718
12.9715
34.2411
105.411
397.79
3406.77
18601.1
254898
251710
37848.6
8637.96
15117.7
52962.9
248574
245279
54893.2
17469.9
20706
58055.6
236457
232035
57495.1
21300.6
23279.4
58848.2
226110
223289
58185
23405.8
24489
58586.6
218920
216054
57190.4
24344
24967.3
57663
212519
210464
56434.1
24791.7
25247.6
56963.8
207750
206195
55926.7
25050.7
25438.5
56494.8
204001
202775
55590.7
25235.3
25590.4
56183
200921
199916
55356.6
25384.8
25720.4
55973.1
198291
197434
55192.9
25514.5
25837.5
55833.7
195972
195220
55088.4
25631.9
25945.6
55741.9
193877
193200
55020.1
25740
26045
55677.3
191943
191319
54970.9
25839.2
26137
55626.2
190128
189544
54930.3
25929.5
26221.4
55580.8
188404
187849
54892.5
26010.8
26296.6
55536.3
186750
186217
54853.9
26082.8
26362.8
55489.9
185150
184634
54812
26146
26420.7
55439.3
183594
183090
54764.6
26201.2
26470.9
55382.6
182071
181577
54710.5
26249.1
26514.5
55318.9
180575
180089
54649.2
26290.8
26552.2
55248
179102
178620
54580.4
26327
26584.7
55169.3
177644
177165
54503.4
26358.1
26612.2
55082
176197
175719
54417.6
26384.3
26635.1
54985.7
174755
174277
54322.5
26406.1
26653.6
54880
173315
172834
54217.9
26423.6
26667.9
54764.5
171871
171386
54103.2
26437
26678.1
54638.6
170419
169928
53977.9
26446.4
26684.2
54501.7
168955
168456
53841.3
26451.7
26686.2
54353.1
167474
166967
53692.8
26452.8
26683.8
54192.1
165975
165458
53531.6
26449.5
26676.7
54017.9
164453
163925
53356.8
26441.3
26664.5
53829.5
162907
162367
53167.3
26427.9
26646.7
53625.6
161334
160782
52960.6
26408.5
26622.5
53404.7
159733
159171
52731.7
26382.3
26591
53164.8
158106
157533
52485.2
26348.5
26551.3
52906.2
156453
155871
52218.1
26306.1
26502.4
52626.2
154777
154189
51927.8
26253.9
26442.8
52322.2
153082
152490
51611.8
26190.3
26370.6
51991.7
151375
150783
51267
26113.1
26283.6
51631.6
149664
149078
50889.9
26016.5
26178
51238.5
147961
147389
50476.8
25897.6
26051.4
50808.5
146282
145732
50024.4
25756.9
25901.6
50338.8
144646
144130
49529.1
25589.8
25724
49825.5
143077
142609
48987.1
25391.5
25513.9
49265.3
141604
141200
48395.4
25157.6
25267
48655.1
140257
139941
47759.7
24884.5
24979.7
47997.7
139085
138866
47101.7
24571.6
24652.2
47313.1
138140
138018
46412.5
24210.8
24278.2
46598.2
137441
137423
45701
23808
23865
45867.1
137044
137109
44988.2
23373.9
23424.1
45140.6
136901
137093
44299.1
22924.2
22971
44451.8
137044
137380
43654.8
22466.1
22512
43823.1
137433
137948
43083.4
22012.3
22064
43270.2
138105
138772
42619.3
21592.5
21655.9
42831
139007
139778
42265.8
21224.9
21304.1
42530
140070
140914
42005.1
20916.3
21012.6
42349.3
141248
142145
41864.3
20669.8
20783.2
42266.9
142507
143436
41833.8
20485
20616
42296.9
143810
144744
41912.8
20361.8
20510.1
42431.4
145117
146035
42089.7
20294.6
20461.6
42657.1
146395
147278
42353.8
20268.3
20463.6
42959.2
147617
148447
42686
20294.4
20517.9
43345.7
148756
149521
43074.1
20369.7
20635.2
43809.8
149795
150484
43533.7
20494.3
20785.6
44304.3
150718
151321
44020
20648.8
20958.4
44811.2
151512
152027
44515.8
20824.4
21147.9
45314.9
152174
152603
45006.5
21015.1
21347.4
45801.7
152708
153056
45479
21214.1
21550.1
46260.8
153123
153399
45923.4
21414.9
21750.7
46685
153433
153646
46333.2
21612.4
21944.5
47070.3
153651
153804
46704.5
21802.4
22127.8
47414.9
153789
153896
47036.4
21981.4
22298.6
47719.9
153867
153935
47330.1
22147.8
22455.6
47987.1
153893
153938
47587.4
22300.3
22598.7
48223.7
153878
153907
47812.7
22439.2
22728.3
48433.5
153818
153842
48007.9
22564.7
22844.7
48613.1
153735
153754
48174.6
22677.4
22949.3
48767.1
153631
153646
48318
22778.5
23042.3
48898.8
153514
153527
48440.3
22868.2
23126.2
49010.9
153388
153395
48545.2
22948
23202.9
49109.7
153244
153252
48640.5
23021.1
23272.1
49199.8
153101
153103
48724.9
23085.8
23333.4
49277.2
152937
152946
48797.8
23143
23386.5
49342.6
152814
152758
48854.1
23189.9
23445.7
49401.9
152692
152603
48945.6
23224
23466.7
49569.6
152644
151969
48744.3
23131.1
23268.4
48761.2
151427
149528
48552.8
22989.7
21917.1
46330.2
147099
138326
48506.3
22453.2
15524
27064
124066
139432
60774.3
28133.3
13625.9
7036.04
4374.17
3429.59
3055.15
2533.28
2312.59
2154.65
2089.05
2072.31
2105.89
2203.57
2337.72
2582.06
2861.09
3452.93
3782.01
4729.76
5754.3
7585.54
11739.9
22964.8
55761.5
128601
405597
435039
139347
61287.6
64726.3
147158
460859
483145
153569
68161.5
68425.2
155089
489288
495219
156305
69541.5
69706.5
157841
498969
499558
158258
69992.6
69928.2
158282
499345
499711
158323
69942.9
69936.9
158345
499544
499649
158337
69909.9
69900.1
158344
499772
499616
158332
69872.2
69842.9
158336
500316
500174
158299
69813.7
69780.9
158287
500299
500170
158269
69746.3
69732.8
158273
500587
501027
158202
69701.2
69684.4
158253
500587
501021
158168
69642.6
69625
158218
501178
501616
158113
69585.4
69568
158169
501201
501643
158081
69529.3
69512
158139
501807
502250
158025
69470.8
69453.7
158083
501844
502293
157994
69416.1
69399.8
158050
502466
502913
157937
69361.7
69346.2
157996
502511
502968
157906
69311
69296.2
157962
503146
503603
157850
69259.2
69242.7
157901
503494
503393
157851
69191.5
69163.2
157841
503862
504344
157753
69127
69118.7
157803
504227
504147
157772
69085.9
69073.5
157778
504610
505093
157710
69047.7
69038.9
157754
504989
504905
157734
69017.3
69010.1
157760
505372
505858
157701
68991.8
68987.5
157764
505751
505665
157751
68977.8
68979.3
157803
506127
506613
157767
68978.8
68997.5
157869
506495
506409
157880
68996.8
68994
157948
506885
507367
157935
68988.3
68984.2
158031
507268
507201
158042
68972.3
68982.2
158153
507666
508132
158186
69003
69029.7
158350
508011
507904
158431
69032
69028.9
158564
508359
508824
158624
69029
69048.3
158827
508409
508858
158964
69069.7
69096.4
159219
509017
509448
159345
69109.1
69168.3
159654
508999
509392
159870
69196.4
69227.1
160222
509502
509902
160419
69231.9
69271.1
160815
509708
509521
161121
69284.2
69306
161537
509894
510267
161844
69309.6
69315.3
162301
510072
509879
162666
69293.1
69279.8
163136
510266
510687
163481
69205.9
69125.2
163946
510288
510833
164225
68959.1
68868.2
164678
511109
511721
165005
68774.4
68644.9
165419
511876
512130
165605
68428.6
68292.2
165897
513056
513849
166089
68091.7
67952.1
166270
514748
515889
166300
67656.6
67163.5
166038
517381
519224
165485
66516.2
65938.1
164721
521306
523647
163671
65223.3
64099
160238
520985
518314
156591
63239.1
62696.4
154508
524659
522007
155416
62197.6
61182.8
146822
514274
511318
148039
61033.9
60442.6
143491
503302
496460
141104
60032.8
60110.5
138265
484822
470106
133568
59895.3
60361.9
131506
459639
452686
130859
61223.5
62233.8
131260
434439
406151
122483
62928.9
64195.7
121345
595582
972044
354200
142370
69675.6
172862
728798
656984
187238
74690.1
71871.9
176734
649430
642973
181735
73954.4
70640.4
169467
624147
602233
170765
71507.9
68517.6
155155
575520
548728
158026
70329.8
69219
145864
519420
488070
146529
70291.7
69203.1
135479
444980
636342
129917
69738.7
147591
366890
998459
718470
165767
71641
74306.1
176800
605202
548324
145103
66569.3
67165
146808
512950
478812
135393
64789.1
65150
131908
447517
413337
123332
64697.4
68032.6
122771
598165
941315
340198
140947
72948.2
157114
682904
593808
168436
76056.3
72842.1
150641
556293
516813
155378
75260.2
74224.5
142579
467179
665783
135579
75892.1
154806
364620
1.00738e+06
704821
173017
78844
80315.8
173705
577796
501226
147084
72102
72525.1
138219
449874
653985
137191
75406
154081
365745
993776
704998
163436
81039.8
84308.7
176915
579861
510811
153446
78177.5
80035.1
146927
718370
1.03742e+06
382436
161689
80845.2
169260
705774
551758
174425
80351.7
68913.4
137639
486247
665143
139273
73882.5
148514
343212
902741
624297
152753
74465
77973.8
156361
789780
989243
368635
153633
66560.7
150658
656207
792583
146256
65258.9
128138
288394
833959
1.01278e+06
163618
64908.2
91546.6
198668
809443
827192
160518
58696.3
71133.9
191389
993486
1.02879e+06
196843
73014.7
65747.8
175160
915613
800487
104076
39070.6
153623
341381
806628
935779
160997
81530.2
186076
374604
846861
781343
189778
99462.8
105651
215013
673666
1.10692e+06
469770
226542
127879
182799
957547
826634
371892
191541
103873
175146
695667
575042
186511
105190
193771
393859
916112
716364
171911
107798
107248
181009
574309
927353
390320
190915
106354
167922
713414
570028
175347
105571
186229
379992
911667
698234
163893
104105
104072
171953
562580
907544
380650
183718
102637
162405
686374
553708
168325
100419
176532
368531
887400
659243
156716
99712.8
99371.4
164751
536532
876532
365182
175608
98672
155082
646584
519189
161945
98337
169171
345514
828063
601782
145034
94823.2
95859.3
162775
462622
637936
186137
101091
190421
419660
1.03976e+06
746801
171828
104470
103310
176512
595931
989670
395121
187852
104293
163991
715596
578320
173650
103264
184177
387181
964210
708671
162620
103107
101933
168998
576526
966375
384721
182305
102043
159982
697132
567415
169717
102014
181625
385433
971218
704320
161151
101849
101064
166458
566002
949785
391888
182954
101505
160954
693950
563390
170646
101669
185166
393452
962697
719181
164980
103730
102759
174224
592019
1.0305e+06
423200
195402
113219
149969
813340
730293
318651
166275
93691.5
141970
557876
476187
154863
95000.2
169039
347787
824089
613716
147760
96177.9
97200.6
157802
501000
843333
350655
171559
96467.5
148671
621722
511437
156830
96978.5
175607
364840
873329
652249
152769
97991.4
97632.3
162161
533072
903400
373491
176072
99292.8
157755
679562
567431
168742
100018
195340
421653
1.00733e+06
806926
148119
114026
171963
326559
739378
578158
151303
97313.2
99116.3
164167
496598
868392
366795
179043
102005
158564
662237
551340
166636
102055
192795
410210
960620
780926
146578
113290
169416
322811
718097
557830
147765
96148.7
98668.1
162671
485758
857610
365841
178189
101865
158054
651632
550918
171544
102475
195932
417644
979698
793809
150653
115850
173936
331154
733442
577942
153441
99332.1
101329
168753
505934
892602
376906
184260
105838
164889
669325
568852
178939
106702
203396
435507
1.03156e+06
825913
151178
120212
180697
342182
763379
593744
161895
102842
106713
180898
526028
977624
423688
204125
120873
153637
807607
762009
339365
180376
103272
162330
599289
520939
178516
105607
200764
419153
951195
786918
157413
120971
179279
334839
742709
590959
161363
103589
107523
180982
519714
971250
428349
204940
123088
153872
813323
763470
341723
183076
105530
166576
598741
530122
185722
108329
206679
426629
966576
802760
157779
124645
184279
340215
763050
614598
167469
107741
112404
188434
548292
1.02163e+06
451165
215857
131064
154718
857429
837459
365265
196307
118938
158179
716123
685153
331380
177236
105876
167088
563294
514343
188615
110410
209966
432567
967743
810656
161485
127964
188882
345351
768132
618406
173316
111241
115705
195796
555305
1.04481e+06
461247
221282
134958
161338
876232
849004
371717
201308
122714
162025
732381
716623
337572
181666
109047
173321
587956
529687
192745
113467
217154
442023
986805
845060
165944
132942
197165
360687
816822
714349
157697
122213
181848
331155
701442
583440
175403
110041
115769
199660
530835
993189
446951
219243
135741
163136
853877
836370
365612
201034
124599
160849
722430
707704
338441
184319
111444
176741
581225
529573
198678
116700
220352
444022
982414
836116
169339
136160
201038
365822
815577
717502
163362
125562
186024
339346
715828
601012
179882
113378
118969
204977
555045
1.04044e+06
461950
229607
142190
175425
898397
879639
386013
211722
131589
167379
756808
750171
355580
195562
118763
187479
616372
561071
211372
124078
235683
471565
1.0363e+06
890394
180714
145576
215584
395895
885480
772635
172437
134870
201138
363915
777593
705823
170318
129437
191382
342668
704659
587699
184274
118038
125181
210624
546121
1.04315e+06
478450
235578
147820
177147
909552
904211
395346
218618
138504
178937
790517
799259
376639
205324
132409
174689
715943
715082
351521
195047
120795
188849
603855
557510
212761
126996
239280
472500
1.03836e+06
905787
183821
149712
221245
402567
898116
781516
180426
139528
206564
371810
788274
707824
174610
134189
197186
353213
711540
602640
191390
122566
129763
216970
560031
1.05052e+06
480782
243658
153211
188558
922637
919338
410824
226093
143924
184120
814789
831792
390923
214228
139814
183620
746613
745606
368176
204607
127670
199438
624130
580114
225571
134375
250717
501624
1.08874e+06
931066
190074
158678
231531
410734
926368
814343
185501
147550
219546
397788
837921
775580
189233
143145
211160
380902
795256
719229
182174
139649
204852
360975
729526
627701
200756
128560
136143
228711
588963
1.1139e+06
508192
257493
162742
201121
971317
964144
436539
240682
153623
196865
837664
854696
407814
225852
149102
194314
781947
803348
390139
218442
144633
189473
733195
744224
370201
209666
131859
203957
628733
582090
228447
138730
257061
498731
1.07672e+06
926782
197190
163204
241992
431138
936057
834448
197918
154203
227498
407260
851720
772275
194605
149874
220541
391826
798726
734557
191751
146705
212571
370571
743121
632896
207540
134840
142579
236480
596451
1.11024e+06
512144
264302
168947
208440
965021
975782
443753
247610
159661
204092
871330
891992
421006
234617
155941
201964
808605
831446
404171
227973
151859
197607
745007
756720
382446
219949
139847
212443
639214
598422
240046
146676
268641
518275
1.1124e+06
965416
209050
171440
252391
447103
976957
863183
206709
162099
236938
420731
881205
803379
203731
157421
230505
406299
832952
758441
200433
154410
224081
390084
775691
662262
218924
142806
150894
250111
626218
1.17301e+06
538501
280298
179503
219740
1.01049e+06
1.02379e+06
471633
264886
170650
219538
899196
915896
440783
248597
165906
213484
837201
871407
424440
241913
162904
210570
796699
830072
410961
235907
158610
205092
758525
772108
391724
227342
145057
220082
645895
608383
248293
152440
277336
532398
1.1278e+06
967944
215666
178687
259114
450965
974925
856445
211694
168336
245716
429897
881681
798811
211554
163967
238167
415702
830941
758573
208601
159883
229717
392699
770330
653023
222655
147225
155891
253483
621223
1.15101e+06
541880
285270
183942
223537
990758
1.00137e+06
467188
267335
174808
221410
894311
922792
446994
253998
170997
219706
829620
863357
429806
247483
167273
216490
785880
803525
409351
239677
153592
231863
670419
632689
260655
161340
292276
559206
1.16882e+06
1.00273e+06
229814
189029
272060
470537
1.00438e+06
879993
222661
177781
257593
447535
907165
826003
222798
172893
249523
430568
859755
775400
218682
168172
240267
408549
795981
672854
232661
154862
163880
265170
643190
1.1836e+06
564344
297094
192554
233749
1.02569e+06
1.04436e+06
488356
280137
183896
233090
913986
943165
466657
266450
179786
231849
850417
884348
446146
259085
175509
227562
799936
819605
422605
249998
161066
240440
682882
651068
270200
168927
300833
564616
1.17576e+06
1.00667e+06
239269
195714
282022
484033
1.02498e+06
895343
230452
184641
266636
457912
927931
837185
229520
178902
258492
440598
861529
723536
251746
165353
174877
285119
692391
1.25991e+06
599362
319925
206942
254585
1.07698e+06
1.0909e+06
513657
298800
195612
244819
950231
983899
487164
281437
188212
243136
865530
883778
456281
269629
172701
259057
738027
703849
290888
181046
325217
619181
1.27091e+06
1.08697e+06
257559
211146
301749
515645
1.10226e+06
950153
245209
197741
286149
489060
984877
880280
247773
191874
277058
471262
914741
766346
268104
177243
186756
303565
730920
1.32374e+06
631743
338475
218990
270067
1.1258e+06
1.13996e+06
540268
316152
207109
258395
979914
1.01927e+06
509184
296479
198177
257329
899996
924169
476671
282770
181397
270779
769970
739081
303361
189748
340176
628758
1.31956e+06
1.10991e+06
269452
220547
318034
540809
1.13201e+06
977380
260509
207563
298114
506726
1.01608e+06
894078
258329
199673
286576
481241
928446
779813
276203
183955
193373
311288
750563
1.33495e+06
646969
347654
225704
278633
1.12372e+06
1.14773e+06
547508
323363
211171
267913
975972
994878
506657
300779
191431
285785
813684
779046
315094
199623
360999
670858
1.38281e+06
1.14732e+06
288264
232030
333565
563310
1.16618e+06
1.00282e+06
273958
217473
311409
527133
1.04741e+06
913401
269802
207344
295540
494938
948684
784303
281880
189473
199854
317408
754215
1.3329e+06
660363
355778
231323
287565
1.12865e+06
1.15286e+06
556853
329812
216205
274644
978875
1.0085e+06
515369
307797
195817
291672
826728
788397
324544
204379
363307
670930
1.35884e+06
1.13603e+06
294840
235824
337256
565490
1.1674e+06
985318
281103
219166
311819
519461
1.01113e+06
822910
294817
198146
208150
330126
789593
1.37204e+06
684797
369069
237585
302967
1.13852e+06
1.14363e+06
568458
338782
210008
307805
904573
859010
341179
217712
387187
721825
1.49837e+06
1.23126e+06
306163
249419
361812
614974
1.2606e+06
1.05825e+06
304990
233740
335388
562605
1.08372e+06
882483
318098
211788
221042
355315
848274
1.46035e+06
723384
391950
251833
323046
1.19871e+06
1.20596e+06
595050
357792
220678
320849
943679
894780
353796
228189
402067
745165
1.52281e+06
1.24631e+06
326225
257992
370530
617787
1.26595e+06
1.00193e+06
338368
227744
235583
376937
949625
1.62445e+06
800186
425904
269644
346041
1.29655e+06
1.29962e+06
646431
386075
234852
344231
1.01111e+06
953260
379429
242345
429296
792902
1.61536e+06
1.31041e+06
348913
273196
392269
651857
1.32153e+06
1.04172e+06
352677
239665
247782
390516
988742
1.69083e+06
828272
442189
279631
343152
1.3554e+06
1.3717e+06
679735
406090
244915
367404
1.05436e+06
991544
401548
252565
447650
829179
1.65972e+06
1.33308e+06
366482
283755
403946
666543
1.3416e+06
1.04494e+06
358432
245306
253178
395039
990582
1.66083e+06
824455
445773
282428
365705
1.33166e+06
1.34008e+06
666877
402716
242726
356052
1.02554e+06
965642
379874
248641
434343
798820
1.57373e+06
1.1778e+06
378472
261236
266418
408244
1.08559e+06
1.76608e+06
873210
469252
291501
381618
1.39478e+06
1.39815e+06
693809
416735
249854
366021
1.06767e+06
1.00595e+06
400829
257770
444887
813359
1.61896e+06
1.21787e+06
390401
266402
268885
406409
1.1166e+06
1.79022e+06
886500
471147
277364
411990
1.31485e+06
1.19179e+06
437034
279802
501248
943694
1.90524e+06
1.47287e+06
407757
308204
443007
733435
1.4656e+06
1.1013e+06
382330
259951
267748
415374
1.03051e+06
1.63587e+06
830460
458610
270024
397489
1.2156e+06
1.11162e+06
408874
272420
472548
873154
1.76003e+06
1.27463e+06
408658
276064
279191
432433
1.15066e+06
1.77427e+06
885077
483004
278505
413147
1.2811e+06
1.15578e+06
435062
280968
482164
882580
1.76865e+06
1.28766e+06
413217
280016
283694
437069
1.17443e+06
1.82319e+06
899155
488343
281062
416138
1.30669e+06
1.12014e+06
453216
286427
299525
512696
1.47109e+06
2.1985e+06
1.05963e+06
545394
305162
472305
1.505e+06
1.33165e+06
487464
303219
523920
980213
1.98691e+06
1.38545e+06
446912
295012
295289
456926
1.18597e+06
1.54267e+06
525879
308277
570084
1.12038e+06
2.26798e+06
1.50961e+06
485284
308845
311725
506275
1.26673e+06
1.63534e+06
569119
325804
595879
1.13774e+06
2.3953e+06
1.59068e+06
497480
317170
319471
514472
1.33957e+06
1.68005e+06
579963
326165
592465
1.15884e+06
2.39525e+06
1.54419e+06
498760
313109
304648
491121
1.26796e+06
1.5494e+06
611367
333672
329734
550856
1.92977e+06
2.69899e+06
1.38512e+06
647075
330260
548848
1.70354e+06
1.38665e+06
548251
325401
332851
618156
1.61035e+06
1.80753e+06
590400
316889
342645
726043
1.95793e+06
2.15616e+06
727715
327187
633495
1.36949e+06
2.75906e+06
1.62731e+06
522038
311862
301528
512394
1.29612e+06
1.40657e+06
563506
302708
296555
560639
1.4734e+06
1.5227e+06
571961
292059
289661
598737
1.53334e+06
1.51702e+06
607649
287982
285005
613655
1.49561e+06
1.46103e+06
612607
283248
280477
608094
1.42473e+06
1.38656e+06
599304
278340
276061
592436
1.34873e+06
1.31232e+06
587535
274870
273851
584293
1.27828e+06
1.24675e+06
582442
273886
274045
581483
1.21774e+06
1.19119e+06
581147
274919
275915
581015
1.16695e+06
1.14508e+06
580823
277572
279017
580399
1.12527e+06
1.10749e+06
579643
280823
282235
578395
1.09145e+06
1.07716e+06
576794
283768
284857
574642
1.06443e+06
1.0532e+06
572140
285924
286521
569066
1.04325e+06
1.03453e+06
565740
286988
286916
561895
1.02685e+06
1.02022e+06
557920
286731
286108
553479
1.01445e+06
1.00954e+06
549012
285387
284011
544102
1.00526e+06
1.00165e+06
539222
282877
281140
533954
998522
995902
528656
280066
278395
523098
993631
991769
517636
277364
275734
511981
990168
988888
506504
274715
273105
500881
987778
986909
495501
272087
270479
490019
986151
985552
484835
269444
267825
479584
985014
984629
474667
266766
265128
469713
984249
983975
465093
264035
262376
460475
983746
983563
456186
261263
259593
451908
983425
983286
447958
258474
256805
444014
983176
983017
440403
255691
254046
436791
982891
982692
433505
252944
251319
430212
982540
982284
427243
250244
248657
424254
982097
981789
421576
247605
246067
418871
981568
981204
416468
245045
243566
414023
980944
980542
411860
242572
241155
409651
980252
979818
407719
240190
238824
405729
979494
979044
403995
237871
236541
402195
978698
978236
400646
235620
234332
399016
977870
977408
397624
233441
232200
396143
977036
976574
394904
231347
230152
393566
976200
975744
392448
229335
228189
391230
975378
974921
390229
227416
226319
389118
974556
974105
388209
225584
224535
387189
973750
973306
386375
223844
222842
385438
972957
972520
384696
222189
221231
383828
972186
971765
383168
220618
219714
382370
971442
971031
381763
219130
218267
381022
970725
970333
380482
217723
216904
379799
970044
969667
379304
216392
215613
378674
969402
969051
378223
215133
214396
377647
968811
968482
377235
213947
213247
376706
968270
967965
376324
212825
212165
375840
967784
967504
375486
211769
211144
375041
967354
967104
374709
210772
210183
374298
966984
966765
373994
209833
209276
373609
966670
966488
373330
208948
208422
372969
966415
966272
372712
208116
207615
372370
966220
966115
372130
207330
206855
371808
966084
966016
371583
206589
206136
371277
966004
965978
371066
205888
205456
370778
965982
965981
370579
205225
204813
370305
966011
966029
370117
204597
204203
369859
966090
966123
369682
204002
203625
369437
966213
966262
369268
203437
203077
369039
966377
966443
368879
202901
202556
368663
966578
966661
368511
202392
202061
368309
966813
966909
368166
201910
201590
367975
967078
967188
367841
201450
201142
367663
967370
967492
367537
201013
200716
367370
967688
967821
367250
200596
200310
367096
968029
968171
366983
200199
199924
366839
968389
968541
366732
199819
199556
366599
968767
968928
366497
199456
199203
366375
969162
969332
366277
199109
198866
366166
969573
969750
366072
198777
198543
365970
969998
970183
365881
198459
198233
365789
970437
970628
365704
198153
197936
365620
970886
971083
365541
197860
197650
365466
971345
971546
365391
197579
197376
365323
971811
972018
365253
197308
197112
365194
972285
972493
365129
197048
196858
365075
972762
972972
365018
196798
196615
364969
973243
973453
364917
196558
196380
364873
973726
973936
364827
196326
196154
364789
974209
974418
364747
196103
195936
364716
974689
974900
364678
195889
195728
364654
975170
975381
364619
195683
195527
364599
975651
975860
364568
195485
195333
364552
976130
976338
364525
195293
195145
364510
976608
976815
364488
195107
194962
364476
977085
977292
364458
194927
194785
364447
977565
977772
364434
194752
194615
364426
978047
978254
364417
194583
194448
364410
978531
978739
364406
194419
194287
364402
979018
979226
364401
194259
194130
364400
979507
979716
364403
194104
193978
364406
979999
980208
364414
193954
193831
364420
980492
980699
364436
193810
193692
364446
980980
981182
364467
193673
193557
364480
981461
981656
364505
193542
193453
364528
981933
982116
364554
193389
193316
364574
982023
982582
364612
193303
193195
364632
983225
983013
364673
193203
193064
364701
983308
983439
364868
193090
192922
364496
983330
983263
364741
192882
192537
363956
982876
985044
365414
193117
193332
366404
988901
998169
371125
195203
196114
372101
993405
981202
361234
191012
188848
356489
963703
105135
57956.4
31306.8
19291.1
17999.8
12113.9
8885.62
7355.35
6959.71
5245.81
3817.4
2988.67
2263.52
1648.92
1168.01
815.095
573.646
411.57
303.354
229.996
179.255
143.363
117.439
98.3561
84.1043
73.3272
65.1976
59.059
54.6141
51.4835
49.4718
48.3076
47.7825
47.2655
46.3374
45.0634
43.5283
41.843
40.049
38.2118
36.3236
34.3945
32.4053
30.3408
28.1721
25.4117
21.3988
16.3577
11.4274
7.47719
4.67428
2.82308
1.66629
0.986334
0.622044
0.44651
0.367786
0.334594
0.320929
0.314978
0.312018
0.309695
0.307542
0.305492
0.303502
0.301535
0.29956
0.297547
0.295467
0.293293
0.290997
0.288555
0.28594
0.283126
0.280092
0.276813
0.273269
0.269442
0.265318
0.260886
0.256138
0.251078
0.245706
0.240037
0.234087
0.227879
0.221441
0.214805
0.208006
0.201083
0.194073
0.187017
0.179951
0.172914
0.165939
0.159057
0.152296
0.145681
0.139233
0.132969
0.126901
0.121044
0.115402
0.10998
0.104783
0.0998086
0.0950568
0.0905262
0.0862095
0.082104
0.0782026
0.0744988
0.0709853
0.0676548
0.0644996
0.0615121
0.0586844
0.056009
0.0534782
0.0510846
0.0488209
0.0466811
0.0446574
0.0427443
0.040935
0.0392244
0.0376063
0.0360761
0.0346284
0.0332583
0.0319619
0.0307345
0.0295725
0.0284718
0.027429
0.0264411
0.0255044
0.0246163
0.0237742
0.0229753
0.0222171
0.0214974
0.0208139
0.0201648
0.0195481
0.018962
0.0184049
0.0178751
0.0173711
0.0168917
0.0164355
0.0160012
0.0155877
0.0151939
0.0148189
0.0144615
0.014121
0.0137964
0.013487
0.0131921
0.0129109
0.0126427
0.0123869
0.0121429
0.0119102
0.0116883
0.0114765
0.0112746
0.0110819
0.0108982
0.010723
0.0105559
0.0103966
0.0102448
0.0101001
0.00996223
0.00983097
0.00970601
0.00958712
0.00947406
0.00936662
0.00926459
0.00916778
0.009076
0.0089891
0.0089069
0.00882926
0.00875605
0.00868713
0.00862239
0.00856172
0.008505
0.00845217
0.00840312
0.00835781
0.00831618
0.0082782
0.00824388
0.00821325
0.00818641
0.00816343
0.00814445
0.00812963
0.00811947
0.00811347
0.00811072
0.00810882
0.00810737
0.00810739
0.0081073
0.00810748
0.00810835
0.00811017
0.00811296
0.00811578
0.00811723
0.00811649
0.00811361
0.0081091
0.00810344
0.00809695
0.00808973
0.00808181
0.00807317
0.00806375
0.00805352
0.00804246
0.00803056
0.00801784
0.0080043
0.00798997
0.00797484
0.00795893
0.00794226
0.00792484
0.00790668
0.00788779
0.00786819
0.0078479
0.00782692
0.00780529
0.00778301
0.00776011
0.0077366
0.00771251
0.00768785
0.00766265
0.00763693
0.0076107
0.007584
0.00755686
0.00752928
0.00750131
0.00747297
0.00744428
0.00741527
0.00738598
0.00735643
0.00732666
0.00729669
0.00726658
0.00723635
0.00720606
0.00717578
0.00714567
0.00711608
0.00708773
0.00706229
0.00704365
0.0070404
0.00707208
0.00718175
0.00746282
0.00811341
0.00954297
0.0126143
0.0190736
0.0323365
0.0588952
0.110763
0.209738
0.394462
0.733124
1.34736
2.45563
4.43355
7.81071
12.9506
19.3035
25.4081
30.6264
37.2013
54.6492
111.233
353.221
1710.32
5117.09
6290.96
6386.69
7291.31
7250.98
7981.9
7894.46
8501.65
8379.86
8920.41
8775
9266.54
9104.28
9558.24
9383.6
9807.9
9623.86
10024.4
9832.78
10213.9
10016.3
10381.3
10178.7
10529.7
10322.8
10661.4
10451
10779
10565.7
10884.6
10669
10980.1
10762.7
11067.2
10848.5
11147.5
10927.6
11221.8
11001.3
11291.2
11070.4
11356.6
11135.5
11418.4
11197.2
11477.1
11255.9
11533.2
11312
11587.1
11366
11638.8
11417.9
11688.8
11467.5
11737.1
11515
11782.9
11560.2
11826.5
11603.3
11868
11644.3
11907.3
11683.1
11944.1
11719.3
11978.1
11752.4
12008.6
11781.7
12034.6
11806
12054.9
11824
12067.9
11833.9
12071.1
11833.1
12062.4
11819
12038.8
11788.6
11996.8
11738.4
11932.9
11664.9
11843.3
11563.2
11725.2
11426
11577
11264.9
11404.9
11081.2
11210.9
10879.1
10999.3
10661.3
10775.1
10436.9
10548.1
10217.5
10328.1
10009.4
10120.7
9816.32
9929.56
9641.15
9757.35
9486
9605.94
9352.14
9476.41
9239.94
9368.92
9148.89
9282.73
9073.32
9215.47
9015.74
9168.42
8978.37
9142.81
8961.58
9137.41
8963.42
9149.49
8980.95
9175.8
9011
9213.16
9050.56
9259.07
9097.03
9311.68
9148.27
9366.21
9201.18
9421.27
9254.47
9475.66
9306.9
9528.35
9357.55
9578.65
9405.8
9626.35
9451.37
9671.95
9494.47
9714.54
9534.15
9753.3
9570.52
9789.28
9604.44
9822.11
9634.8
9852.36
9663
9878.77
9684.36
9911.08
9701.94
9944.91
9706.57
9955.86
9552.46
9875.59
8917.2
8756.76
7016
4674.71
5045.38
5504.41
3490.29
5966.55
5553.45
3508.19
6015.94
5557.02
3541.22
6029.22
5568.62
3536.5
6023.45
5562.21
3531.99
6008.96
5550.8
3522.89
5995.72
5538.38
3512.37
5980.86
5524.03
3501.53
5964.61
5508.76
3490.36
5947.33
5492.52
3478.86
5928.99