/*--------------------------------*- C++ -*----------------------------------*\
| =========                 |                                                 |
| \\      /  F ield         | OpenFOAM: The Open Source CFD Toolbox           |
|  \\    /   O peration     | Version:  v2006                                 |
|   \\  /    A nd           | Website:  www.openfoam.com                      |
|    \\/     M anipulation  |                                                 |
\*---------------------------------------------------------------------------*/
FoamFile
{
    version     2.0;
    format      ascii;
    class       volScalarField;
    location    "0.024";
    object      Co;
}
// * * * * * * * * * * * * * * * * * * * * * * * * * * * * * * * * * * * * * //

dimensions      [0 0 0 0 0 0 0];


internalField   nonuniform List<scalar> 
16277
(
0.0066639
0.00635209
0.00689424
0.00715804
0.00719619
0.00704535
0.00704172
0.00692319
0.00687183
0.0068581
0.00682031
0.00680598
0.00679205
0.00678213
0.00677117
0.0067601
0.00674846
0.00673617
0.0067235
0.00671026
0.00669645
0.00668207
0.00666713
0.00665165
0.00663564
0.0066191
0.00660205
0.00658448
0.0065664
0.00654784
0.00652879
0.00650927
0.0064893
0.00646889
0.00644806
0.00642683
0.0064052
0.00638321
0.00636087
0.00633819
0.00631522
0.00629195
0.00626843
0.00624467
0.00622069
0.00619651
0.00617216
0.00614767
0.00612307
0.00609839
0.00607364
0.00604887
0.00602409
0.00599933
0.00597464
0.00595003
0.00592554
0.00590119
0.00587702
0.00585306
0.00582934
0.00580588
0.00578273
0.00575991
0.00573744
0.00571537
0.00569371
0.0056725
0.00565176
0.00563152
0.0056118
0.00559263
0.00557403
0.00555603
0.00553867
0.00552195
0.00550585
0.0054903
0.00547376
0.00545881
0.00544552
0.00543604
0.00543384
0.00546668
0.00553032
0.00570353
0.00601669
0.00673281
0.00840052
0.0119783
0.0179618
0.0141311
0.0126953
0.0121612
0.0118935
0.0116297
0.0111064
0.0100716
0.011051
0.011689
0.01089
0.0107736
0.0101353
0.00836797
0.0090094
0.00921539
0.00916507
0.00916257
0.00859538
0.00781972
0.00852589
0.0086985
0.00896701
0.00880985
0.00802522
0.00780641
0.00860961
0.00879501
0.00899831
0.00877692
0.00787146
0.00777235
0.00864927
0.00884209
0.0090112
0.00874894
0.00777523
0.0076747
0.00862015
0.00884278
0.00896931
0.00869121
0.00765635
0.00756061
0.00855904
0.00881123
0.00892962
0.00862594
0.00754425
0.0074543
0.00849409
0.00877152
0.00888639
0.00856067
0.0074424
0.00735701
0.00843017
0.0087299
0.00884189
0.00849682
0.00734843
0.00726663
0.00836817
0.00868702
0.00879642
0.00843405
0.00726054
0.00718136
0.00830788
0.00864362
0.00874982
0.00837199
0.00717721
0.00710011
0.00824772
0.00859845
0.00870249
0.00831037
0.00709744
0.00702208
0.0081875
0.00855178
0.00865419
0.00824895
0.00702042
0.00694647
0.00812709
0.00850363
0.0086049
0.00818755
0.00694554
0.00687275
0.00806631
0.00845396
0.00855462
0.008126
0.00687228
0.00680041
0.00800498
0.00840272
0.00850321
0.00806406
0.00680019
0.00672904
0.00794295
0.00834989
0.00845056
0.00800156
0.0067289
0.00665832
0.00788008
0.00829546
0.00839658
0.00793832
0.00665814
0.006588
0.00781626
0.00823935
0.00834119
0.00787423
0.00658767
0.00651787
0.00775135
0.00818146
0.00828433
0.00780915
0.00651727
0.00644769
0.0076853
0.00812183
0.00822583
0.00774292
0.00644674
0.00637731
0.00761922
0.00806332
0.00816556
0.00767541
0.00637584
0.00630648
0.0075518
0.0080032
0.00810351
0.00760652
0.00630441
0.00623503
0.00748294
0.00794125
0.00803954
0.00753609
0.00623228
0.0061628
0.00741249
0.00787735
0.00797353
0.00746398
0.00615925
0.00608959
0.00734031
0.00781138
0.00790536
0.00739006
0.00608517
0.00601525
0.00726626
0.00774324
0.00783492
0.00731417
0.00600986
0.00593962
0.00719022
0.0076728
0.00776207
0.0072362
0.00593317
0.00586254
0.00711205
0.00759995
0.00768672
0.00715601
0.00585495
0.00578388
0.00703164
0.00752458
0.00760876
0.00707349
0.00577509
0.00570354
0.00694888
0.0074466
0.00752809
0.00698855
0.0056935
0.00562144
0.00686369
0.00736591
0.00744463
0.00690113
0.00561011
0.00553755
0.00677602
0.00728246
0.00735834
0.00681119
0.00552493
0.0054519
0.00668587
0.00719619
0.0072692
0.00671875
0.00543802
0.0053646
0.00659329
0.00710715
0.00717727
0.00662393
0.00534953
0.00527581
0.00649844
0.00701541
0.00708269
0.00652692
0.00525967
0.00518582
0.00640152
0.00692113
0.00698566
0.00642797
0.00516878
0.00509501
0.00630288
0.00682457
0.0068865
0.00632751
0.00507733
0.00500394
0.00620297
0.00672608
0.00678564
0.00622608
0.00498597
0.00491336
0.00610245
0.00662617
0.00668369
0.00612445
0.00489554
0.00482421
0.00600217
0.00652553
0.00658147
0.00602359
0.00480712
0.0047377
0.0059032
0.00642505
0.00648002
0.00592474
0.00472208
0.00465532
0.0058069
0.00632588
0.00638065
0.00582942
0.00464206
0.00457889
0.00571495
0.00622946
0.00628505
0.00573956
0.00456906
0.00451054
0.00562943
0.00613763
0.00619523
0.00565734
0.00450539
0.00445359
0.00555326
0.00605242
0.00611332
0.0055849
0.00445374
0.00441768
0.00550253
0.00598611
0.00604208
0.00552564
0.00441785
0.00439933
0.00547493
0.005957
0.00598502
0.00548273
0.00439954
0.0044004
0.00546749
0.00594765
0.00594538
0.0054589
0.00440063
0.00442153
0.00548091
0.00595851
0.0059222
0.00545301
0.00442178
0.00446196
0.00551405
0.00598813
0.00592488
0.00547516
0.00446501
0.00452265
0.00556869
0.00603935
0.00597178
0.00553667
0.00453549
0.00460355
0.00564426
0.006111
0.00604703
0.00561685
0.00462233
0.00469629
0.00573213
0.00619385
0.00613232
0.00570817
0.0047185
0.00479549
0.00582813
0.00628402
0.00622363
0.00580576
0.00481878
0.00489709
0.00592914
0.00637941
0.00631886
0.00590684
0.00491992
0.00499806
0.00603206
0.00647728
0.00641517
0.00600836
0.00501906
0.00509559
0.00613383
0.00657467
0.00650984
0.00610745
0.00511349
0.00518723
0.00623188
0.00666915
0.00660065
0.00620182
0.00520106
0.00527107
0.0063241
0.00675866
0.00668577
0.00628959
0.00528012
0.00534571
0.00640882
0.00684154
0.00676377
0.00636932
0.00534954
0.0054104
0.00648481
0.00691656
0.00683361
0.00644147
0.00541075
0.00546499
0.00655127
0.00698293
0.00689834
0.0065112
0.00546531
0.00550938
0.00660773
0.00704023
0.00696805
0.00657593
0.00550968
0.00554394
0.00665463
0.00708871
0.00703096
0.00663064
0.00554421
0.00556941
0.0066925
0.00712878
0.00708437
0.00667556
0.00556965
0.00558684
0.00672214
0.00716114
0.00712854
0.00671125
0.00558706
0.00559759
0.00674473
0.00718694
0.0071643
0.00673878
0.00559779
0.00560297
0.00676131
0.00720708
0.00719261
0.00675923
0.00560315
0.00560421
0.00677296
0.00722256
0.00721453
0.00677379
0.00560437
0.00560239
0.00678064
0.0072342
0.00723116
0.00678358
0.00560252
0.00559833
0.00678509
0.00724264
0.00724337
0.00678952
0.00559844
0.00559274
0.00678708
0.00724855
0.00725205
0.00679248
0.00559285
0.00558622
0.00678727
0.00725261
0.00725806
0.00679328
0.00558632
0.00557907
0.00678606
0.00725523
0.00726203
0.00679241
0.00557917
0.00557157
0.00678391
0.00725673
0.00726443
0.00679041
0.00557165
0.005564
0.006781
0.00725726
0.00726554
0.00678751
0.00556407
0.00555652
0.00677758
0.00725708
0.00726569
0.006784
0.00555657
0.00554915
0.00677377
0.00725635
0.00726512
0.00678006
0.0055492
0.00554192
0.0067697
0.00725522
0.00726402
0.00677584
0.00554196
0.00553486
0.0067655
0.00725382
0.00726254
0.00677146
0.0055349
0.00552805
0.00676131
0.00725232
0.00726078
0.00676703
0.00552808
0.0055216
0.00675734
0.00725094
0.00725882
0.00676265
0.00551888
0.00550749
0.00674043
0.00723564
0.00721019
0.00670837
0.00546659
0.00545353
0.00667849
0.00718143
0.00703981
0.00650932
0.00529383
0.00539643
0.00660534
0.00709514
0.00679232
0.00624311
0.00504843
0.0055784
0.00682558
0.00729164
0.00729391
0.00659391
0.0052445
0.00649005
0.00808827
0.00878996
0.00954469
0.0084586
0.00653668
0.00819388
0.0119013
0.0149151
0.0139912
0.0181778
0.0155313
0.0145761
0.0139021
0.0137171
0.0136026
0.0136315
0.0136393
0.0136638
0.0136764
0.013733
0.0138372
0.0140041
0.0143709
0.0152567
0.0195239
0.0278627
0.0298875
0.0272506
0.0257949
0.0235477
0.021064
0.0180384
0.0124081
0.0110353
0.0165502
0.0198582
0.0177224
0.0153842
0.0105102
0.00874162
0.0129121
0.0150732
0.0140916
0.0123345
0.0084601
0.00781684
0.0115319
0.0133333
0.0130974
0.0114192
0.00771821
0.00758893
0.0112081
0.0129262
0.0129422
0.0112066
0.00758297
0.00758072
0.0112017
0.0129228
0.0129317
0.0112104
0.00759593
0.00760298
0.0112165
0.012936
0.0129442
0.0112253
0.00761139
0.00761192
0.0112102
0.0129367
0.0129716
0.0112648
0.00763659
0.00763755
0.0112497
0.012964
0.0129721
0.011259
0.00764694
0.00764844
0.0112448
0.0129525
0.0130137
0.0112888
0.00766635
0.00768339
0.0112969
0.0129935
0.013002
0.0112841
0.00767811
0.00769555
0.0112929
0.0129827
0.0130443
0.0113262
0.00770635
0.00772396
0.0113347
0.0130243
0.0130331
0.0113222
0.0077191
0.00773705
0.0113313
0.0130141
0.013076
0.011365
0.00774828
0.00776637
0.0113739
0.0130563
0.0130654
0.0113616
0.00776184
0.00778025
0.0113711
0.0130465
0.0131088
0.0114051
0.00779185
0.00781037
0.0114143
0.0130894
0.0130987
0.0114023
0.00780612
0.00782495
0.0114121
0.0130801
0.0131428
0.0114465
0.00783691
0.00785583
0.011456
0.0131237
0.0131333
0.0114557
0.00785964
0.00786316
0.011443
0.0131151
0.0131782
0.0114892
0.0078833
0.0079026
0.0114991
0.0131594
0.0131694
0.011499
0.00790664
0.00791043
0.0114867
0.0131516
0.0132152
0.0115334
0.00793085
0.00795043
0.0115436
0.0131968
0.0132072
0.0115438
0.00795458
0.00795848
0.0115318
0.0131899
0.0132542
0.0115789
0.00797902
0.00799867
0.0115895
0.0132363
0.0132472
0.0115899
0.00800272
0.0080065
0.0115783
0.0132307
0.0132957
0.0116259
0.00802692
0.00804647
0.0116371
0.0132787
0.0132905
0.011638
0.00805026
0.00805381
0.011627
0.0132751
0.0133414
0.0116755
0.00807399
0.00809336
0.0116876
0.0133258
0.0133392
0.0116895
0.00809675
0.00809992
0.0116795
0.0133252
0.0133933
0.0117291
0.0081196
0.00813849
0.0117426
0.0133796
0.0133948
0.0117457
0.00814122
0.00814352
0.0117369
0.0133829
0.0134534
0.0117882
0.00816231
0.00818015
0.0118032
0.0134418
0.0134599
0.0117964
0.00817365
0.00819111
0.0118131
0.0134506
0.0135249
0.0118553
0.00820075
0.00821759
0.011873
0.0135166
0.0135386
0.0118691
0.00821005
0.00822675
0.0118892
0.0135334
0.0136127
0.0119356
0.00823585
0.00825255
0.0119578
0.0136095
0.0136371
0.0119708
0.00825348
0.00825462
0.0119728
0.013638
0.0137243
0.0120377
0.00827358
0.0082929
0.0120673
0.0137283
0.013764
0.0120885
0.00829753
0.00830373
0.0120997
0.0137733
0.0138696
0.0121756
0.00832956
0.00835785
0.0122172
0.0138838
0.0139307
0.0122396
0.0083654
0.00840232
0.01229
0.0139519
0.0140618
0.0123708
0.00843703
0.00848631
0.0124314
0.0140899
0.0141521
0.0124867
0.00852707
0.00859379
0.0125603
0.0142037
0.0143036
0.0126423
0.00865437
0.00873538
0.0127315
0.0143651
0.0144488
0.0128312
0.00883089
0.00894275
0.0129417
0.0145396
0.0146409
0.0130664
0.00907453
0.00922877
0.0132057
0.0147516
0.0148953
0.013391
0.00942761
0.0096605
0.0135927
0.015032
0.0151814
0.0137837
0.00991074
0.0100794
0.0138908
0.0152389
0.0153902
0.0139475
0.0102339
0.0105638
0.0142212
0.0154744
0.0155658
0.0142733
0.0106375
0.0108757
0.0143745
0.0156167
0.0157458
0.0145456
0.0111014
0.011344
0.0146407
0.0158464
0.0160974
0.0150139
0.01174
0.0119526
0.0151278
0.0161998
0.0165648
0.0155537
0.0124805
0.0126518
0.015641
0.0166378
0.0167364
0.0162057
0.0135239
0.0131328
0.0149925
0.0146119
0.0435321
0.0320924
0.0187552
0.0126719
0.0207871
0.0287698
0.0191105
0.0169479
0.0118664
0.0110438
0.0150374
0.0163321
0.0157234
0.0146897
0.0110682
0.0111834
0.0149508
0.0162409
0.0159986
0.0148444
0.0113567
0.0118139
0.0152847
0.0164802
0.0161989
0.0150824
0.011982
0.0127299
0.0159071
0.0169371
0.0168194
0.0157971
0.0129017
0.0136976
0.0163957
0.0171357
0.0149629
0.0153412
0.0136267
0.0190643
0.0314307
0.042195
0.0296139
0.0218677
0.0142237
0.0134761
0.0179504
0.0199576
0.0178731
0.0165337
0.0131073
0.0131832
0.0163442
0.0174138
0.0172331
0.0163054
0.0134367
0.0135547
0.0162665
0.0171377
0.0170637
0.0164915
0.0141094
0.0137398
0.0150021
0.0143864
0.042002
0.0313878
0.0193623
0.0149527
0.0223651
0.0296689
0.0199255
0.0180374
0.0140172
0.0136739
0.0166183
0.0174136
0.0167682
0.0162095
0.013768
0.0141801
0.0165046
0.0170533
0.0146772
0.0153571
0.0141134
0.0193411
0.0309284
0.040918
0.0301482
0.0225917
0.0152559
0.0149496
0.0187848
0.0204917
0.0183012
0.0171671
0.0143956
0.0148904
0.0171193
0.0174915
0.0141981
0.0150454
0.0141923
0.0197729
0.0308936
0.0407107
0.0297075
0.0227841
0.0158567
0.0148314
0.0181632
0.0195866
0.0171934
0.016733
0.0145655
0.0143972
0.0152395
0.0144037
0.0389448
0.0297684
0.0193111
0.0160826
0.0227663
0.029638
0.0199468
0.0183991
0.0152007
0.0149505
0.0169437
0.0174066
0.0134926
0.01462
0.014418
0.0193104
0.0287971
0.0364878
0.0274106
0.0220577
0.0163603
0.0146631
0.0156338
0.0149331
0.0340334
0.0270499
0.0183498
0.0153869
0.0208462
0.0257467
0.0130885
0.0138905
0.0132483
0.0155367
0.021698
0.0259266
0.0137499
0.0127685
0.0108992
0.0109714
0.0159957
0.0194432
0.00476345
0.00457725
0.00423717
0.0056085
0.00908618
0.0111422
0.0139095
0.0120901
0.00873787
0.014311
0.017114
0.018619
0.0224271
0.0213292
0.0188697
0.0207011
0.021932
0.0215793
0.0371053
0.032219
0.0244912
0.0252116
0.0330957
0.0383094
0.0373982
0.0329513
0.025599
0.0269228
0.0364435
0.0428311
0.0266796
0.0268958
0.0235782
0.0252155
0.0356794
0.0456818
0.0488151
0.0386938
0.0264502
0.0240231
0.0315481
0.0366693
0.0452847
0.0371039
0.0262638
0.0221167
0.0254056
0.0257575
0.0429317
0.0337821
0.0240744
0.0260255
0.038504
0.0489001
0.0250782
0.0247135
0.0213462
0.0232953
0.0330679
0.0420085
0.0487253
0.0381471
0.025423
0.0208025
0.0240828
0.0245155
0.0414964
0.0323767
0.0227207
0.0250451
0.0377646
0.0484931
0.0244761
0.0239923
0.0205502
0.0225981
0.0320431
0.0411038
0.0483453
0.0376833
0.0251287
0.0205607
0.0238615
0.0242416
0.0408548
0.0319665
0.0223572
0.0247284
0.0374606
0.048014
0.0243324
0.0238171
0.0203967
0.0222249
0.0316268
0.0405942
0.0479973
0.0372396
0.0245959
0.0200296
0.0233315
0.0238461
0.0395113
0.0308075
0.0217018
0.0242887
0.036866
0.0474462
0.0211313
0.0213425
0.0190793
0.0199583
0.025257
0.0279212
0.0406047
0.0305372
0.0207489
0.0234795
0.0366644
0.0477808
0.0227717
0.0223998
0.0191855
0.0211469
0.0309538
0.0401526
0.0472649
0.0365194
0.0237303
0.0194425
0.0230757
0.0236548
0.0406515
0.0311221
0.0211191
0.0237303
0.0368848
0.0475715
0.0235237
0.0230365
0.0195217
0.0213589
0.0312791
0.0406706
0.0477469
0.0366554
0.0237349
0.0195262
0.0232442
0.0239458
0.0406687
0.0313534
0.0214285
0.0239004
0.0367398
0.0477209
0.0236754
0.0231716
0.0194253
0.0216665
0.0316077
0.0407255
0.0478102
0.0369913
0.0240398
0.0197699
0.0236717
0.0242173
0.0413794
0.0316997
0.0217078
0.0243234
0.0372378
0.0481334
0.0243776
0.0238631
0.020006
0.0218724
0.0324292
0.0427892
0.0476472
0.0369282
0.0239839
0.0216077
0.0294814
0.0349791
0.0443815
0.0359381
0.0244355
0.0207666
0.0246097
0.0253384
0.0417349
0.0325649
0.0226412
0.0248469
0.0376096
0.048195
0.0249901
0.0241519
0.0203249
0.022345
0.032272
0.0413985
0.0484891
0.0378312
0.0248527
0.0205837
0.0242407
0.0248276
0.0422031
0.0327843
0.0226941
0.0249886
0.0379788
0.0487609
0.0252277
0.0244681
0.0206102
0.0227659
0.0328743
0.0424139
0.0491909
0.0383034
0.0253716
0.0211328
0.0249776
0.0256197
0.0446856
0.0340868
0.0232531
0.0250626
0.0381169
0.049114
0.0370463
0.0313644
0.0229339
0.0249712
0.0365591
0.0451328
0.0263312
0.0254514
0.0213341
0.02366
0.0342169
0.0437851
0.0499108
0.0392039
0.0259114
0.0215783
0.025564
0.0262635
0.0457574
0.0351838
0.0239847
0.0255677
0.0386697
0.0499113
0.0376206
0.031779
0.0234538
0.0258045
0.0374541
0.0461548
0.0273348
0.0264591
0.0222629
0.0244156
0.0349382
0.0448412
0.0509492
0.0399245
0.0266626
0.0223801
0.026441
0.027035
0.0467842
0.0358937
0.0246319
0.0261724
0.03934
0.0505674
0.0385989
0.0326307
0.0240111
0.0263541
0.0381688
0.0468368
0.0276711
0.0268757
0.0228157
0.0249303
0.0358997
0.046152
0.0519211
0.0410419
0.0273113
0.0229906
0.0269541
0.0276541
0.0480671
0.0371995
0.0254716
0.0268782
0.0403874
0.0517824
0.039638
0.0335385
0.024615
0.0270831
0.0391187
0.0477539
0.0288573
0.0279568
0.0235739
0.0259533
0.0376422
0.0490224
0.0524334
0.0410677
0.0274666
0.0254737
0.0344142
0.0406468
0.0487074
0.0399479
0.0278702
0.0239115
0.028349
0.0292569
0.0495429
0.0384783
0.0265723
0.0278137
0.0413143
0.0527443
0.0411619
0.034817
0.0258162
0.0284137
0.0404718
0.049333
0.0300597
0.0291517
0.0245494
0.0272659
0.0392664
0.0506624
0.0539404
0.042395
0.0286998
0.0264755
0.0356249
0.0420698
0.0500912
0.0411343
0.0288117
0.0249731
0.0294647
0.0303215
0.0512066
0.0397668
0.0272411
0.0288727
0.0429906
0.0545711
0.0429342
0.0362529
0.0268342
0.0291856
0.0416611
0.0508551
0.031105
0.0301429
0.0255145
0.0281497
0.0411083
0.0528017
0.0552105
0.0435526
0.0294145
0.0277634
0.037996
0.0451281
0.0507295
0.0415756
0.0293375
0.0274018
0.03706
0.0434953
0.0508309
0.0420952
0.0296582
0.0261527
0.0310789
0.0321424
0.0536543
0.0416405
0.0290554
0.0303851
0.0447087
0.056495
0.044992
0.0380677
0.0282472
0.0304468
0.0434322
0.0524278
0.0322191
0.0313363
0.0266887
0.0293541
0.0426633
0.0549136
0.0571412
0.0449756
0.0304665
0.0286228
0.0392093
0.0468952
0.0525696
0.0428731
0.0301581
0.0286487
0.038499
0.0454146
0.0529576
0.0439064
0.0312918
0.0272243
0.0323018
0.0334514
0.0564126
0.043914
0.0304681
0.0315476
0.0463385
0.0586339
0.0484718
0.040522
0.0296165
0.031244
0.0442147
0.0537715
0.0470395
0.0399073
0.0297145
0.0317092
0.0446714
0.0536819
0.0342016
0.0329981
0.0278728
0.0308011
0.0444098
0.0574016
0.0592959
0.0469959
0.0320725
0.0305117
0.0416003
0.049509
0.0550369
0.0453803
0.0321265
0.0305466
0.0408379
0.0478632
0.055174
0.0460576
0.0328406
0.028883
0.0341193
0.0351888
0.0586955
0.0456558
0.0317772
0.0331312
0.0482799
0.0607599
0.0505122
0.0422184
0.030846
0.0326885
0.046028
0.0558108
0.0491121
0.0415205
0.030943
0.0337274
0.0469241
0.0562313
0.0358419
0.0347054
0.0294958
0.0326694
0.0471162
0.0605987
0.0621055
0.0491191
0.0335348
0.0318503
0.043685
0.051979
0.0574504
0.0474543
0.0334744
0.0320504
0.0429455
0.0503101
0.057658
0.0480466
0.0344846
0.0301164
0.0355216
0.0366004
0.061797
0.0477694
0.0332984
0.0343899
0.0501666
0.0632919
0.0532935
0.0446792
0.0329018
0.0346825
0.0485296
0.058491
0.0537097
0.0452939
0.0332096
0.0349636
0.0485569
0.0585294
0.0522971
0.0444413
0.0330482
0.0357479
0.0497085
0.0590884
0.03852
0.0372609
0.0315039
0.0349844
0.0500619
0.0638911
0.0650065
0.051514
0.035619
0.0339229
0.0461491
0.0548794
0.0594206
0.0492906
0.0353406
0.0340031
0.0460472
0.0549447
0.0598426
0.0497783
0.0360585
0.0340885
0.0456755
0.0534898
0.0607907
0.0509554
0.0368087
0.0322603
0.0380315
0.039242
0.0658663
0.0515635
0.0360159
0.036904
0.0534556
0.0667664
0.0566206
0.0476222
0.0351162
0.0367348
0.0511073
0.061689
0.0567739
0.0480663
0.0352659
0.0370141
0.0512934
0.0614178
0.055185
0.0470063
0.0351852
0.037762
0.0520342
0.0623508
0.0406057
0.039271
0.0332027
0.0371526
0.0530285
0.0677497
0.0687133
0.0546619
0.0378464
0.0361202
0.0489139
0.0583684
0.0630865
0.0523457
0.0377722
0.0365816
0.0495252
0.0587714
0.0633465
0.0528421
0.0383062
0.0362113
0.0481112
0.0567406
0.0641934
0.0537929
0.0391557
0.0344168
0.0402232
0.0413109
0.0696784
0.0547002
0.0380685
0.0389653
0.0563745
0.0707635
0.0600655
0.0503395
0.0370714
0.0389236
0.0542309
0.0651254
0.0607982
0.05124
0.0378775
0.0394576
0.0541373
0.0646451
0.0612309
0.0512796
0.0377986
0.0399809
0.0547112
0.0654687
0.0597558
0.0507256
0.0379263
0.0404867
0.0555982
0.0663375
0.0431493
0.0418836
0.0357595
0.0398921
0.0563455
0.072696
0.0730604
0.0583012
0.0406715
0.0386338
0.0523505
0.062171
0.0670964
0.0560953
0.0403114
0.0390938
0.0526511
0.0623617
0.0666874
0.0559673
0.0408823
0.0392448
0.0529536
0.0627282
0.0676973
0.0565147
0.0413662
0.0392573
0.0519259
0.0613001
0.0689319
0.0577815
0.042367
0.036971
0.0431747
0.0447527
0.075063
0.058807
0.0414139
0.0426119
0.0608962
0.0758444
0.0647698
0.054979
0.0408074
0.0423409
0.0583543
0.0698586
0.0649257
0.0551028
0.0409137
0.0425924
0.0580475
0.0692225
0.065604
0.0553953
0.0411128
0.0430958
0.0587514
0.0699883
0.0640493
0.0541393
0.0407244
0.0437579
0.0596261
0.0709675
0.0464041
0.0452327
0.0386096
0.0428623
0.060745
0.077575
0.0785004
0.0626168
0.0436603
0.0418591
0.0563667
0.0669193
0.0722932
0.0597861
0.0434694
0.0421506
0.056737
0.0672289
0.0714428
0.0602269
0.0440925
0.0423411
0.0569883
0.0679513
0.072818
0.0610994
0.0446116
0.0423593
0.0561608
0.0657135
0.0738547
0.062442
0.045554
0.0400166
0.0465393
0.0478584
0.0809212
0.0630386
0.0446717
0.0455785
0.0648774
0.0817351
0.069548
0.0588403
0.0437385
0.0454769
0.0626582
0.0750501
0.0699191
0.0588085
0.0438771
0.0458595
0.0621628
0.074303
0.070614
0.0594644
0.044177
0.0463898
0.0629898
0.0749955
0.0687992
0.0584949
0.0441721
0.0472963
0.0644414
0.0763464
0.0496774
0.0484284
0.0416502
0.0462627
0.0653064
0.0839395
0.0846607
0.0675373
0.0472722
0.0454309
0.0609229
0.0720911
0.0775712
0.0649886
0.0472522
0.0456011
0.0613118
0.0724713
0.0771985
0.064847
0.0475252
0.0458849
0.0617657
0.0732676
0.0777826
0.0654932
0.0482307
0.0462843
0.0620109
0.0733935
0.0786975
0.0662296
0.0488756
0.0461283
0.0606086
0.0711884
0.0800057
0.0674146
0.0498253
0.0436884
0.0505547
0.0520354
0.0873488
0.0684955
0.0486832
0.050037
0.071034
0.0883009
0.0753255
0.0637341
0.0477252
0.0496553
0.0680852
0.081447
0.0758129
0.0642866
0.0480959
0.0502672
0.0681879
0.0808
0.0763666
0.0646038
0.0485218
0.0508071
0.0685384
0.081934
0.0741475
0.0632389
0.0480862
0.051415
0.0697447
0.0827711
0.0544407
0.0528285
0.0455063
0.0507752
0.071417
0.0909699
0.0917339
0.0738211
0.0518581
0.0495146
0.0660879
0.0781259
0.0839654
0.0699863
0.0513829
0.0497239
0.066491
0.078568
0.0836765
0.0705361
0.0519614
0.0502257
0.0669776
0.0789927
0.0846761
0.0713202
0.0526324
0.0500142
0.0656122
0.0767766
0.0862086
0.0730232
0.0537093
0.0470951
0.0543631
0.0558663
0.0942997
0.0741854
0.052991
0.0542615
0.0766421
0.0951916
0.0810864
0.0685686
0.0514895
0.0536326
0.07325
0.0876956
0.0815646
0.069113
0.0519078
0.0543396
0.0733405
0.0873088
0.0821623
0.06949
0.0521781
0.0548715
0.0740771
0.0882697
0.0798798
0.0682095
0.0520669
0.0558633
0.0755233
0.0892351
0.0586974
0.0570773
0.0493269
0.0550963
0.0771022
0.0983154
0.09922
0.0794404
0.0564514
0.0541068
0.0717375
0.0846002
0.0907351
0.0761758
0.0560907
0.0541927
0.0719059
0.0847922
0.0907228
0.0762778
0.0566397
0.0543767
0.0722581
0.0851564
0.09171
0.0773157
0.0572282
0.0539243
0.0705832
0.08256
0.0932486
0.0790021
0.0581958
0.0511616
0.0588712
0.0604122
0.101552
0.0797526
0.0569905
0.0585422
0.0825917
0.103062
0.0874713
0.0741348
0.056033
0.058486
0.0793971
0.0951117
0.0881357
0.0748816
0.0565806
0.0592633
0.0796363
0.094818
0.086285
0.0738364
0.0564058
0.0598827
0.0812819
0.096392
0.0622353
0.0608532
0.0529255
0.0590804
0.0826663
0.105348
0.106417
0.0856582
0.0604165
0.0576801
0.076435
0.0902592
0.0981158
0.0816582
0.0599579
0.0580012
0.0766812
0.0902113
0.0981388
0.0824374
0.0609732
0.0577378
0.0754073
0.0880223
0.099646
0.0842917
0.0622319
0.054566
0.0624962
0.0639286
0.108919
0.0856527
0.0611419
0.0629047
0.0889384
0.110529
0.093626
0.0793758
0.0599433
0.0628375
0.0854515
0.101891
0.0940894
0.0801742
0.0605269
0.0629192
0.0850715
0.101464
0.0919122
0.0785664
0.0601271
0.0644029
0.0870687
0.103277
0.0660121
0.0646955
0.0563135
0.0632308
0.088207
0.112699
0.114322
0.0915931
0.0648907
0.061562
0.0816504
0.0963317
0.104948
0.088077
0.0645245
0.0622527
0.0821539
0.0965011
0.105158
0.0882253
0.0652662
0.0618788
0.0806736
0.094087
0.107058
0.0905416
0.0667678
0.0586392
0.0670809
0.0684998
0.117302
0.0921666
0.0659086
0.0677394
0.0960401
0.119589
0.100138
0.085051
0.0643394
0.0672529
0.0913938
0.109669
0.10035
0.0853425
0.0645039
0.0675352
0.0914712
0.108932
0.0979078
0.0838299
0.064218
0.0688891
0.0931634
0.110504
0.0706083
0.0690995
0.0603725
0.0675153
0.0941815
0.119803
0.123057
0.0983111
0.0695605
0.0663423
0.0871414
0.102508
0.113597
0.0946733
0.0695918
0.0660794
0.0856347
0.0993751
0.114671
0.096789
0.0711237
0.0628728
0.0715752
0.0726471
0.124827
0.0983878
0.070635
0.0725511
0.102796
0.127974
0.106283
0.0902146
0.0684909
0.0717149
0.0972355
0.116784
0.106274
0.0904983
0.0686401
0.0724334
0.0980368
0.11669
0.103467
0.0887873
0.068418
0.073927
0.0998517
0.118641
0.0760476
0.0741543
0.0645611
0.0727509
0.100822
0.127584
0.130844
0.105159
0.0749371
0.0710245
0.0931336
0.109294
0.121679
0.101587
0.0745763
0.0710913
0.0915345
0.106015
0.122803
0.103596
0.0771552
0.0674919
0.0765197
0.0775275
0.131166
0.103493
0.0744452
0.0773591
0.109089
0.135659
0.111941
0.0952011
0.0726344
0.0772107
0.104719
0.125581
0.108308
0.0931548
0.0720496
0.0781263
0.105949
0.125825
0.0797483
0.0778925
0.0679603
0.0766031
0.10573
0.133737
0.140216
0.112236
0.0798233
0.0738696
0.095126
0.110527
0.130469
0.109327
0.080167
0.0698231
0.0790073
0.0799818
0.139024
0.10955
0.0790444
0.0825098
0.116025
0.143968
0.119053
0.10188
0.0779643
0.0812069
0.110696
0.132766
0.114908
0.0990039
0.0766135
0.0818573
0.111337
0.132616
0.0827203
0.0814005
0.071708
0.0797444
0.110474
0.140205
0.147622
0.117849
0.0833513
0.0770315
0.099376
0.115546
0.137525
0.115152
0.0838116
0.0725284
0.0820494
0.0831472
0.144158
0.113646
0.0818684
0.0858031
0.121813
0.152241
0.120663
0.103766
0.0804418
0.0871163
0.118849
0.14227
0.085194
0.0848174
0.0756536
0.0834033
0.116079
0.147597
0.156844
0.125284
0.0880958
0.0811442
0.104535
0.121173
0.144906
0.121087
0.0880995
0.0760441
0.0857348
0.0865661
0.150846
0.118582
0.0853172
0.0896014
0.127427
0.160345
0.125192
0.107658
0.0833295
0.0901412
0.124326
0.148685
0.0885825
0.08805
0.078221
0.08826
0.122277
0.155374
0.167087
0.134252
0.0946814
0.0877451
0.112164
0.128752
0.154005
0.128407
0.0933358
0.0803294
0.0900469
0.0908043
0.157947
0.124525
0.0897236
0.094355
0.133971
0.168384
0.130483
0.112302
0.0871005
0.0945029
0.130052
0.156751
0.0926109
0.0920899
0.0819113
0.0918295
0.126792
0.160634
0.173193
0.138669
0.0976299
0.0896618
0.114419
0.132321
0.16336
0.136311
0.099448
0.085795
0.0951176
0.0951891
0.161173
0.129013
0.0947986
0.100891
0.144286
0.180144
0.0949737
0.0943297
0.08465
0.0947348
0.131266
0.166248
0.180201
0.143489
0.100448
0.0917905
0.117667
0.136083
0.167192
0.139049
0.100856
0.0865824
0.0971165
0.0978351
0.164243
0.130887
0.0962587
0.104932
0.150344
0.187727
0.0964822
0.0969994
0.0882502
0.100068
0.135814
0.169919
0.194349
0.154362
0.108109
0.0889221
0.0983699
0.0983602
0.175981
0.139048
0.100325
0.107521
0.153882
0.194233
0.143747
0.124483
0.0974376
0.107819
0.149302
0.179475
0.103194
0.102603
0.0917606
0.102127
0.13776
0.171982
0.200449
0.160279
0.112336
0.0937148
0.102624
0.102299
0.17759
0.142636
0.105825
0.11449
0.163669
0.20563
0.103266
0.103162
0.093406
0.103703
0.140383
0.175745
0.207783
0.164852
0.114639
0.0938667
0.103512
0.103566
0.177537
0.141764
0.104806
0.116247
0.167518
0.210558
0.105928
0.10613
0.0961727
0.107902
0.144986
0.181247
0.218185
0.173987
0.121317
0.0940265
0.0975838
0.0927586
0.123403
0.115297
0.0980829
0.105349
0.14486
0.185281
0.22516
0.175341
0.119092
0.0959537
0.104713
0.103664
0.182688
0.145585
0.107637
0.123794
0.180051
0.22813
0.09282
0.0979521
0.0959654
0.105862
0.123082
0.130322
0.191814
0.150571
0.109681
0.123644
0.183491
0.236996
0.09344
0.0978132
0.0940558
0.100764
0.118959
0.127866
0.191544
0.149133
0.109059
0.129474
0.191514
0.243704
0.0923077
0.0989423
0.0976609
0.106394
0.123825
0.130168
0.190399
0.148165
0.107832
0.127736
0.190883
0.246865
0.091227
0.0966425
0.0942977
0.0989859
0.110772
0.114162
0.130304
0.120043
0.102884
0.11567
0.157914
0.197415
0.248936
0.190498
0.125467
0.0906405
0.0937682
0.0891395
0.103938
0.102292
0.0926191
0.0916958
0.100328
0.102608
0.10784
0.105759
0.0937827
0.0927553
0.111522
0.120014
0.176903
0.135853
0.0968709
0.124058
0.190161
0.250198
0.0842168
0.0896091
0.0875482
0.08684
0.0962032
0.0967792
0.0919074
0.0881969
0.0776879
0.0764843
0.0875795
0.0900848
0.0868651
0.0834109
0.0707863
0.0662718
0.0796584
0.0837604
0.080727
0.0761087
0.0619441
0.0590675
0.0738034
0.078877
0.0769345
0.0716332
0.0564114
0.054224
0.0698501
0.0756117
0.0742322
0.068196
0.0522768
0.0506218
0.0667996
0.0731971
0.0721527
0.0654977
0.0491185
0.0477464
0.0642741
0.0712562
0.0703859
0.0632398
0.0465863
0.0453513
0.062023
0.069574
0.0686436
0.0609842
0.0443055
0.0433552
0.0600086
0.0679021
0.0671072
0.0590862
0.042491
0.0417077
0.0582211
0.0664291
0.0656924
0.0574027
0.0409949
0.0403502
0.0566371
0.0650675
0.064381
0.0559125
0.0397652
0.0392392
0.0552359
0.0638025
0.063161
0.0545951
0.038764
0.0383395
0.0539988
0.0626244
0.0620227
0.0534336
0.0379572
0.0376183
0.0529096
0.061524
0.0609608
0.0524137
0.0373149
0.0370482
0.0519557
0.0604992
0.0599717
0.051521
0.0368099
0.0366027
0.0511213
0.0595446
0.059052
0.0507415
0.0364183
0.0362601
0.0503935
0.058659
0.0582002
0.0500611
0.0361196
0.0360011
0.0497572
0.0578401
0.0574141
0.0494655
0.0358962
0.0358095
0.0491999
0.0570858
0.0566911
0.0489436
0.0357329
0.0356714
0.0487116
0.0563928
0.0560278
0.0484861
0.035617
0.0355754
0.0482832
0.0557587
0.0554226
0.0480847
0.0355384
0.0355119
0.0479073
0.0551813
0.0548721
0.0477317
0.0354879
0.0354729
0.0475758
0.0546573
0.0543741
0.0474244
0.0354651
0.035459
0.0472865
0.0541841
0.0539242
0.0471528
0.0354602
0.0354595
0.0470303
0.0537573
0.0535201
0.0469115
0.0354644
0.035466
0.0468028
0.0533745
0.0531568
0.0466969
0.0354729
0.0354759
0.0466008
0.0530301
0.0528319
0.046507
0.0354833
0.0354859
0.0464219
0.0527226
0.0525399
0.0463381
0.0354933
0.035496
0.0462631
0.052446
0.0522797
0.0461891
0.0355026
0.035504
0.0461227
0.0522
0.0520453
0.0460565
0.0355104
0.035512
0.0459985
0.0519779
0.0518375
0.0459407
0.0355176
0.0355174
0.0458898
0.0517822
0.0516513
0.0458381
0.0355218
0.0355214
0.0457932
0.0516046
0.0514851
0.0457479
0.0355247
0.0355228
0.0457085
0.0514474
0.0513352
0.0456678
0.0355254
0.0355235
0.0456332
0.0513045
0.0512017
0.0455975
0.0355254
0.0355224
0.0455668
0.0511782
0.0510806
0.0455341
0.0355239
0.0355212
0.0455065
0.0510621
0.050972
0.0454774
0.035522
0.0355181
0.0454526
0.0509591
0.0508725
0.0454257
0.0355187
0.0355152
0.0454035
0.0508634
0.0507831
0.0453797
0.0355153
0.0355111
0.0453601
0.0507786
0.0507008
0.0453376
0.0355105
0.0355066
0.0453199
0.0506991
0.0506271