/*--------------------------------*- C++ -*----------------------------------*\
| =========                 |                                                 |
| \\      /  F ield         | OpenFOAM: The Open Source CFD Toolbox           |
|  \\    /   O peration     | Version:  v2006                                 |
|   \\  /    A nd           | Website:  www.openfoam.com                      |
|    \\/     M anipulation  |                                                 |
\*---------------------------------------------------------------------------*/
FoamFile
{
    version     2.0;
    format      ascii;
    class       volScalarField;
    location    "0.024";
    object      omega;
}
// * * * * * * * * * * * * * * * * * * * * * * * * * * * * * * * * * * * * * //

dimensions      [0 0 -1 0 0 0 0];


internalField   nonuniform List<scalar> 
16277
(
0.00808708
0.00808715
0.00808609
0.00808572
0.00808478
0.00808481
0.00808421
0.00808283
0.00807944
0.00807349
0.00806511
0.00805501
0.00804392
0.00803229
0.00802028
0.00800788
0.007995
0.00798156
0.00796747
0.00795269
0.00793721
0.00792104
0.00790419
0.00788667
0.0078685
0.00784969
0.00783025
0.00781018
0.00778949
0.00776821
0.00774634
0.00772389
0.00770089
0.00767735
0.00765329
0.00762873
0.00760368
0.00757817
0.00755223
0.00752586
0.00749911
0.00747199
0.00744452
0.00741674
0.00738866
0.00736032
0.00733175
0.00730297
0.00727402
0.00724493
0.00721573
0.00718646
0.00715713
0.0071278
0.0070985
0.00706925
0.00704009
0.00701107
0.00698221
0.00695356
0.00692516
0.00689707
0.00686937
0.00684222
0.00681597
0.00679139
0.00677031
0.00675727
0.00676423
0.00681947
0.00697155
0.0073309
0.00812951
0.00985115
0.0134788
0.0209122
0.0358001
0.0652272
0.123407
0.236257
0.452696
0.849055
1.45137
1.84302
2.52488
3.03905
3.69018
6.70414
11.5304
14.5022
12.9695
34.118
105.088
396.547
3397.05
18547.4
254164
250984
37737.2
8612.35
15072.6
52807.2
247859
244572
54728.6
17416.4
20642.8
57881.5
235773
231359
57322.3
21235.6
23208.7
58671.5
225451
222634
58010.1
23334.8
24414.9
58410.6
218278
215419
57018.7
24270.5
24892.1
57490.3
211897
209848
56265.8
24717.1
25171.9
56795
207147
205599
55763
24975.9
25363.2
56329.7
203418
202199
55429.1
25160.9
25515.1
56020.1
200358
199362
55196.6
25310.3
25645.4
55812.2
197749
196899
55035.8
25440.5
25763.9
55676.4
195446
194699
54935.3
25559.3
25873.1
55588.7
193361
192686
54870
25668.6
25973.5
55526.2
191433
190811
54822.3
25768.5
26065.8
55476.1
189624
189041
54782
25859
26150.3
55430.7
187904
187350
54744.2
25940.4
26225.4
55386.1
186254
185722
54705.5
26012.1
26291.3
55339.7
184658
184143
54663.4
26075.1
26348.9
55289
183105
182603
54616.1
26130
26399
55232.4
181587
181095
54562.1
26177.9
26442.5
55168.9
180097
179613
54501.1
26219.6
26480.4
55098.4
178630
178151
54432.6
26256
26513.2
55020
177180
176704
54356
26287.6
26541.3
54933.3
175740
175267
54270.8
26314.5
26564.9
54837.6
174308
173833
54176.3
26337
26584.3
54732.4
172876
172400
54072.1
26355.4
26599.4
54617.3
171442
170962
53957.7
26369.6
26610.4
54491.7
170000
169515
53832.6
26379.7
26617.2
54355
168547
168054
53696.2
26385.7
26619.8
54206.6
167079
166577
53547.9
26387.4
26617.9
54045.9
165591
165079
53386.9
26384.6
26611.4
53872
164081
163559
53212.4
26376.9
26599.7
53683.9
162546
162012
53023.3
26364.1
26582.5
53480.6
160985
160439
52817.2
26345.3
26558.9
53260.3
159395
158838
52589
26319.7
26528
53021.1
157778
157210
52343.4
26286.5
26488.9
52763.5
156134
155557
52077.5
26244.8
26440.7
52484.8
154466
153882
51788.6
26193.4
26382
52182.4
152778
152190
51474.3
26130.6
26310.8
51853.7
151076
150487
51131.6
26054.5
26224.8
51495.8
149369
148785
50756.9
25959.4
26120.6
51105
147668
147097
50346.3
25841.7
25995.3
50677.8
145989
145440
49896.7
25702.4
25846.9
50210.8
144352
143836
49404.4
25536.8
25670.9
49700.6
142780
142311
48865.4
25340.2
25462.5
49143.4
141301
140895
48276.7
25108
25217.4
48536.3
139950
139626
47640
24836.4
24931.6
47878.7
138767
138544
46984.3
24525.5
24606.1
47196.6
137812
137686
46297.8
24166.7
24234
46484.2
137104
137082
45588.6
23765.8
23822.7
45755.2
136695
136757
44877.7
23333.5
23383.6
45030.6
136541
136729
44190.3
22885.2
22931.8
44341
136676
137005
43546
22428.5
22474
43712.9
137053
137563
42974.6
21975.3
22026.2
43159.7
137716
138378
42510.4
21555.1
21618.1
42721
138608
139373
42157.5
21187.8
21266.3
42420.3
139660
140496
41896.8
20878.9
20974.3
42239.3
140825
141714
41754.9
20631.1
20743.6
42155.2
142072
142992
41722.4
20444.6
20574.5
42183.1
143361
144287
41799.3
20319.1
20466.2
42315.4
144655
145564
41974.1
20250.3
20415.4
42539
145920
146792
42235.7
20221.2
20414.5
42839
147126
147946
42565.8
20244.4
20465.9
43225
148250
149005
42954.1
20316.9
20579.4
43687.8
149274
149950
43412.4
20438.4
20727.2
44181.2
150179
150769
43897.6
20590.1
20897.1
44687.4
150954
151455
44392.8
20762.8
21083.7
45190.7
151597
152012
44883.3
20950.7
21280.4
45677.4
152111
152446
45355.9
21146.9
21480.8
46136.9
152508
152771
45800.8
21345.3
21678.9
46561.8
152800
153001
46211.4
21540.4
21870.3
46947.8
153001
153142
46583.4
21728.1
22051.7
47292.9
153126
153223
46915.8
21905.2
22220.7
47597.9
153193
153254
47209.7
22069.9
22376.2
47865
153212
153253
47466.9
22221
22518
48101
153189
153218
47691.8
22358.6
22646.4
48310.6
153129
153153
47886.8
22483.1
22762.1
48489.7
153048
153067
48052.8
22595
22865.6
48642
152949
152965
48194.5
22695
22958
48772.4
152837
152850
48316.3
22784.3
23042.2
48885.1
152714
152726
48422.2
22864.5
23118.3
48983.2
152583
152593
48514.5
22936
23185.7
49068.7
152445
152453
48595.2
22999
23245
49143.1
152302
152310
48665.1
23054.3
23296.7
49207.1
152187
152133
48720.3
23100.6
23355.8
49264.9
152072
151989
48810.5
23134.6
23376.3
49432.1
152038
151376
48608.9
23039.6
23174.6
48623.6
150850
148958
48414
22895.2
21821.6
46187.5
146538
137790
48352.4
22357.6
15440.7
26973.7
123550
138888
60542.2
28011
13552.4
6990.5
4345.84
3410.44
3041.12
2522.7
2304.77
2148.42
2083.85
2067.6
2101.2
2198.67
2331.96
2575.38
2852.41
3442.68
3769.14
4712.37
5731.21
7553.14
11697
22921.8
55717
128567
405280
434718
139269
61238.1
64704.1
147129
460546
482737
153642
68250.8
68307
155031
489028
494901
156247
69511.8
69692.2
157830
498633
499227
158223
69955
69882.6
158234
499017
499385
158275
69895.6
69887.7
158300
499217
499326
158287
69857.8
69847
158295
499446
499291
158281
69819.2
69790.8
158285
499985
499840
158252
69767.1
69739.1
158247
499964
499830
158233
69705.7
69687.8
158236
500244
500682
158159
69647.5
69629.5
158200
500248
500685
158123
69590.6
69573.1
158179
500833
501270
158066
69530.9
69513.3
158125
500851
501291
158034
69473.8
69456.6
158095
501450
501892
157978
69414.8
69397.7
158037
501481
501927
157945
69359.2
69342.6
158005
502093
502542
157889
69302.5
69286.4
157947
502138
502592
157856
69250.1
69234.8
157915
502764
503220
157799
69198.1
69183.9
157853
503107
503002
157816
69149.1
69134.8
157816
503457
503928
157740
69102.8
69090
157777
503815
503720
157749
69060.1
69048
157756
504178
504656
157686
69021.1
69011
157730
504546
504457
157707
68987.5
68978.9
157726
504917
505400
157667
68959.8
68954.2
157724
505290
505204
157711
68940.5
68937.5
157755
505664
506149
157715
68929
68929.4
157795
506039
505954
157797
68924.3
68928.6
157878
506413
506899
157863
68926.8
68935.9
157973
506785
506698
158010
68937.4
68951.8
158125
507152
507632
158142
68955.9
68975.1
158302
507512
507413
158376
68981.3
69005.7
158543
507853
508316
158623
69014.9
69043.8
158836
507891
508336
158958
69055.6
69085.7
159214
508477
508900
159347
69097.1
69130.1
159645
508454
508854
159838
69142.8
69172.6
160182
508967
509348
160394
69182.4
69206.6
160778
509154
508954
161076
69212.4
69225.9
161483
509319
509680
161793
69225.6
69230.4
162255
509476
509282
162627
69208.2
69199.7
163103
509670
510092
163459
69146.1
69119.3
163964
509675
510177
164315
69030.3
68973.9
164811
510435
511062
165095
68840.6
68741.4
165531
511184
511431
165772
68550.2
68396.9
166059
512353
513181
166193
68124.2
67877.6
166256
514155
515394
166256
67502.8
67105.2
166052
516840
518652
165595
66543.9
65922.7
164783
520768
523154
163581
65119.6
64026.7
160172
520478
517800
156537
63174.4
62630.7
154451
524173
521546
155359
62127.9
61089
146738
513796
510796
147932
60911.5
60312
143331
502774
495968
140928
59912.7
59973.9
138010
484431
469823
133177
59703.8
60092.6
130760
459492
452765
129686
60653.6
61540
129892
434866
406745
120554
62199.2
63760.9
119435
596488
978801
347310
141063
69292.5
172682
727602
656626
186920
74364.1
71579
176565
649077
642831
181831
73821.3
70659.7
169699
624150
602121
171000
71601.3
68362
155146
575170
548777
157472
69946.7
68161.2
144009
520442
489330
144634
69221.2
68315.4
132952
446137
638170
127283
69263.2
145789
356859
1.00871e+06
717115
165392
71338
74189
176420
604999
547354
145228
66646.7
67142.1
146790
512505
477769
135894
65026.1
65433.8
132637
446353
412210
124262
64968.8
67917
123542
596663
936140
342948
140558
72241.7
155739
683904
594165
167433
75302.7
71790.3
149406
556989
518144
153728
73994
73243.1
140180
468502
668107
132525
75237.7
152965
354855
1.01729e+06
704275
172408
78066.6
79467
172653
578858
502227
145397
71128.7
71547.9
136364
451309
656184
134423
74763.3
152412
356972
1.00376e+06
704187
162613
80013.4
83067.1
175562
581441
512505
151067
77162.3
79438.8
144142
720844
1.04789e+06
372325
160185
80712.7
169102
704219
551393
174076
80208.9
68957.7
137651
485662
664327
139351
74028.8
148783
342878
901496
622922
153334
74722.5
78169.7
157114
787687
983146
371871
153908
66466.1
150653
656145
792360
146208
65186.8
127753
287540
833346
1.01215e+06
164032
65116.8
91264
198282
809707
826340
160538
58786.6
71225.9
191467
993439
1.02895e+06
196942
73125
65864
175256
915802
800696
104169
39195.4
153752
341510
806746
935904
161144
81629.4
186168
374704
846900
782116
189845
99532.4
105877
215065
671102
1.12292e+06
470287
225921
127358
173299
961540
829898
366342
190319
103150
175193
697352
576467
186021
104334
192510
392975
917572
717327
171298
107084
106568
180545
575120
927835
390124
190446
106180
167868
713818
571504
174717
104916
185033
379340
912276
698771
163730
103789
103062
170926
564529
908733
379262
181865
102149
161857
685734
551445
168946
101082
178784
369501
886010
658607
157292
100430
100035
165129
535638
875680
365119
175872
98622.3
154974
646609
520060
161455
97808.5
168029
344763
828584
602002
144502
94421.3
95415.9
162429
462851
635355
186590
101641
189698
407747
1.05321e+06
751438
168117
104457
102055
172298
600476
986732
399216
184739
102695
163964
715175
577670
173779
102207
183604
380302
973334
711563
161026
103122
101802
167539
577608
959106
388436
181953
101572
160596
694707
567145
170090
101671
182986
391089
962285
700158
163254
102325
101512
168075
562896
955253
385632
182987
101831
159689
695238
562772
169644
101890
183125
384105
973129
723021
161772
103039
102640
172356
592204
1.04841e+06
411762
192489
111650
140537
820240
735797
318685
164583
92442.7
142908
559439
477311
154500
93763.9
168313
347422
825929
614627
147556
95641.3
96316.4
157329
502077
843787
349808
170336
95934.8
148308
621818
512358
155808
95942.2
173863
362994
873168
650621
152442
97856.3
98515.7
162965
530384
900468
374270
178286
100014
158138
678225
565256
168965
100736
193401
411468
1.02026e+06
811570
140132
113227
170819
325016
742704
579284
153234
96379.9
98258.9
164375
497467
870229
365955
178606
101752
158464
662932
550374
167009
102184
192286
404056
969627
784026
141671
112998
168930
322026
720447
558344
148991
95557.1
97998.3
162698
486380
858908
364910
177451
101631
157959
652160
549777
171803
102711
195599
411454
988844
796420
145688
115717
173605
330258
735598
578322
154844
98836.6
100948
169171
506112
893442
376107
184178
105561
164601
669578
569155
179160
106476
205552
441341
1.01729e+06
820593
158141
120736
180956
342968
758938
592676
159432
102997
106292
179208
525917
981739
420464
202204
120461
150791
807655
761466
337999
179966
103253
163164
598716
519692
179076
106048
201754
419643
948848
786388
158258
121070
179206
334885
742872
590941
160640
103465
107182
180857
520149
969439
430020
204959
122953
155864
812027
762504
341762
182781
105713
165464
598139
528700
185368
108958
207373
425852
967351
803066
156407
124858
184378
339803
763180
614731
167803
107219
111190
188112
550058
1.01206e+06
450802
215227
130151
161250
854904
834829
368709
196029
119218
157259
714651
683786
329757
177522
106287
167486
562508
513708
189232
110795
210118
432574
967166
810155
161272
127949
188705
344642
767580
618033
172864
110968
114910
195460
556459
1.03417e+06
460873
221393
134575
168520
873847
846277
375677
201299
123024
162310
730818
715201
335162
181955
109441
173063
587073
528614
193291
113994
217726
442793
989515
845567
163639
133100
196839
357935
816979
714401
157590
121982
181472
331702
701646
583430
175045
109807
115373
199232
530870
991667
445823
219050
135071
164901
853199
836094
367431
200523
124437
160322
722119
707215
337135
184088
111385
176433
580845
529082
198812
116692
220350
444467
983988
836492
168025
136100
200841
364132
815451
717413
162735
125415
185838
339909
715911
600915
180165
113138
119066
204671
553899
1.04797e+06
462339
229291
142494
170181
899558
881041
380930
211118
131290
166149
757562
750993
356499
195204
118392
187657
616646
560152
210744
123922
235022
471655
1.0448e+06
892613
175080
145191
214585
391264
886750
773294
172130
134447
200690
364824
778527
706275
169724
128852
190634
341918
704729
587488
183620
117545
124649
210514
546268
1.03571e+06
476266
235996
147336
181833
907436
902966
400046
218799
138445
179193
789837
798350
375435
205092
132604
174368
715305
714714
351600
195319
120961
189323
603679
556774
212828
127278
239050
473603
1.04371e+06
906995
179801
149950
220499
398320
898595
781757
179603
139297
206497
372497
788889
708219
174670
133857
196652
352886
711611
602554
190889
122217
129465
216384
559519
1.05754e+06
482522
243107
152883
184135
923911
919859
406467
224939
143695
182958
815176
832646
391389
214149
139504
183665
747195
745758
367868
204087
127344
198795
623995
580394
225431
133857
251348
497652
1.07962e+06
928388
195868
158286
232210
416902
925332
813886
186313
147496
219153
396543
836999
774723
188804
143344
211540
380909
794761
719038
182674
139936
205019
361084
729367
627585
200831
128706
136306
228381
588209
1.12531e+06
512131
256856
162316
194435
972986
964961
429487
238637
153288
194293
838256
856050
407965
225761
148717
194528
782958
803888
389927
217763
144127
188709
733422
744357
369733
209187
131449
203747
628803
581972
228135
138433
256489
500873
1.07922e+06
927760
195190
163171
241178
428785
935888
834226
197081
154014
227626
407691
852112
772726
195052
149771
220322
391912
798971
734635
191394
146497
212346
370337
743016
632851
207502
134639
142440
236025
596093
1.11961e+06
516247
263570
168450
202979
967712
976222
438270
245675
159394
201631
871461
893189
420977
234686
155769
202521
809653
832090
404277
227555
151484
197031
745294
756816
381992
219550
139523
212226
639259
598299
239650
146417
268135
521089
1.11738e+06
967177
206309
171235
251288
444151
977275
863007
205271
161925
237099
420820
881789
804037
204312
157372
230334
406547
833465
758718
200136
154197
223831
389783
775717
662266
218827
142585
150744
249643
625855
1.18484e+06
544966
279450
178967
213186
1.01388e+06
1.02397e+06
465120
262014
170148
215695
899039
917208
439988
248572
165776
214404
838430
872411
424880
241571
162489
209799
797270
830341
410544
235440
158285
204751
758642
772325
391681
227093
144797
219964
646015
608380
248326
152208
277258
531711
1.12719e+06
967749
216300
178577
259270
451661
975060
856729
212134
168249
245573
429971
881844
798855
211354
163885
238143
415664
830988
758619
208657
159878
229741
392802
770396
653084
222746
147210
155920
253297
621109
1.15446e+06
544141
285038
183867
221794
991972
1.00155e+06
465727
266616
174690
220339
894212
923205
446697
254071
171045
220087
830087
863872
430094
247484
167187
216400
786214
803614
409232
239557
153502
231751
670417
632557
260725
161226
292536
557855
1.16751e+06
1.00213e+06
231061
189054
272562
471815
1.00462e+06
880461
223517
177774
257424
447817
907423
826050
222416
172777
249453
430368
859607
775334
218747
168184
240346
408732
796096
672966
232811
154878
163933
265028
643125
1.18669e+06
565551
296979
192502
232389
1.02651e+06
1.04461e+06
487542
279576
183733
232273
913894
943344
466337
266354
179808
232021
850739
884733
446247
259068
175454
227444
800207
819671
422507
249908
160993
240372
682826
650880
270039
168867
300595
565401
1.17701e+06
1.00744e+06
238585
195680
281749
483608
1.0252e+06
895373
229944
184525
266577
457674
928034
837378
229615
178909
258488
440718
861775
723740
251801
165337
174830
284647
692415
1.26631e+06
605086
319512
206848
251256
1.08063e+06
1.092e+06
510659
297049
195115
241817
950057
984089
485275
281175
188363
243201
865933
884865
457900
270000
172782
259749
738825
704024
291224
181020
325618
614614
1.26838e+06
1.08507e+06
259420
211062
302845
517445
1.1024e+06
950822
247003
197967
286237
490556
985454
880466
247823
191682
276778
470457
913998
765746
267859
177089
186672
303046
730365
1.33175e+06
640450
338202
219060
266119
1.13096e+06
1.14186e+06
536607
313988
206438
254844
980061
1.01929e+06
506017
295812
198403
256745
900017
925605
478636
283447
181533
272270
771226
739869
303439
189959
339790
631723
1.32418e+06
1.11249e+06
267324
220322
317204
539277
1.13338e+06
977689
258968
207199
297844
505472
1.01591e+06
893966
258164
199698
286834
482001
928970
780383
276798
183960
193435
311330
750810
1.33897e+06
649542
347395
225660
277042
1.12569e+06
1.1486e+06
546576
322675
210901
266863
975915
994597
505569
300505
191319
285679
813700
778963
314644
199696
361258
676824
1.39073e+06
1.15271e+06
285945
232270
332451
561166
1.16975e+06
1.00428e+06
271803
216926
310659
524532
1.04699e+06
912699
268794
207399
296061
495567
949280
785114
283117
189530
200041
318201
755054
1.33337e+06
660455
356128
231305
288278
1.12919e+06
1.15342e+06
557002
330038
216302
275036
979060
1.00882e+06
515961
308055
195895
292018
826964
788570
324744
204451
363370
671084
1.35913e+06
1.13625e+06
294860
235832
337269
565522
1.16747e+06
985314
281111
219160
311816
519441
1.01109e+06
822836
294819
198140
208152
330143
789508
1.37216e+06
684790
369096
237572
303011
1.1385e+06
1.14368e+06
568445
338790
210026
307827
904567
859015
341197
217731
387224
721933
1.49853e+06
1.23137e+06
306222
249434
361828
615033
1.26066e+06
1.05827e+06
305026
233756
335405
562631
1.08372e+06
882496
318149
211796
221073
355188
848101
1.46173e+06
725064
391967
252006
322654
1.19991e+06
1.20653e+06
594900
357612
220593
320520
944001
894783
353295
228087
401837
745150
1.52316e+06
1.24635e+06
325915
258081
370539
618074
1.266e+06
1.00208e+06
338432
227742
235579
376881
949769
1.62427e+06
799694
425868
269639
346319
1.29634e+06
1.29954e+06
646888
386198
234931
344519
1.01121e+06
953288
379352
242430
429395
796103
1.61773e+06
1.31189e+06
348352
273388
392125
651261
1.32279e+06
1.04218e+06
352087
239513
247616
389840
988753
1.69049e+06
827886
441865
279966
342015
1.35364e+06
1.37075e+06
681317
406152
244903
368017
1.05438e+06
991529
401142
252441
447521
826317
1.65904e+06
1.33135e+06
367794
283441
404140
667571
1.34013e+06
1.04414e+06
359108
245538
253479
395750
990304
1.66296e+06
827492
446606
282903
365701
1.33308e+06
1.34076e+06
666604
402860
242651
355550
1.0257e+06
965658
379411
248533
433997
798288
1.57321e+06
1.17728e+06
378349
261154
266358
408414
1.08529e+06
1.76569e+06
869421
469482
291377
382580
1.39295e+06
1.39674e+06
695214
417003
250117
366722
1.06685e+06
1.00577e+06
401693
258099
445458
814312
1.6195e+06
1.21828e+06
390640
266596
268955
406662
1.11659e+06
1.78955e+06
884581
471439
277474
412866
1.31343e+06
1.19008e+06
438197
279866
501738
940477
1.90245e+06
1.47021e+06
408633
308338
443313
735371
1.4644e+06
1.1008e+06
382839
260119
267924
415931
1.03035e+06
1.63624e+06
830829
459159
270265
397763
1.21588e+06
1.11177e+06
409058
272556
472483
871326
1.75998e+06
1.27367e+06
408882
276060
279175
433228
1.14952e+06
1.77335e+06
885257
483176
278578
413227
1.28068e+06
1.15569e+06
435075
281034
482265
883140
1.76905e+06
1.288e+06
413240
280123
283771
437025
1.17462e+06
1.82382e+06
898614
488684
281221
416071
1.30679e+06
1.12021e+06
453450
286632
299699
512338
1.47132e+06
2.19966e+06
1.06353e+06
544642
305045
471766
1.50745e+06
1.3334e+06
486550
303046
524514
978743
1.99078e+06
1.3857e+06
446952
295274
295669
458129
1.18478e+06
1.54078e+06
526736
308768
570544
1.11981e+06
2.26609e+06
1.50857e+06
485378
309143
312118
506836
1.26809e+06
1.63648e+06
566792
326237
591903
1.15244e+06
2.39528e+06
1.59231e+06
495790
317022
318602
513560
1.34384e+06
1.68589e+06
579076
325267
591836
1.16349e+06
2.40477e+06
1.55039e+06
498491
312827
304497
490931
1.27276e+06
1.54709e+06
608932
333271
328915
555543
1.92251e+06
2.7209e+06
1.35868e+06
649421
331182
550124
1.70461e+06
1.38348e+06
551338
326947
335236
619691
1.6005e+06
1.80035e+06
590744
318826
343522
726650
1.95523e+06
2.15467e+06
731432
328088
640459
1.35378e+06
2.77008e+06
1.62614e+06
522797
312097
303593
516807
1.29287e+06
1.39706e+06
563711
303885
297240
559986
1.46519e+06
1.51982e+06
571998
292432
289911
599184
1.53282e+06
1.51686e+06
608093
288205
285222
613449
1.49546e+06
1.46028e+06
612210
283473
280722
607357
1.4237e+06
1.38565e+06
598505
278620
276315
591705
1.34813e+06
1.31189e+06
586920
275099
274064
583781
1.2778e+06
1.24622e+06
582018
274093
274249
581127
1.21732e+06
1.19097e+06
580869
275108
276083
580815
1.1669e+06
1.14512e+06
580687
277722
279155
580357
1.12537e+06
1.10761e+06
579681
280966
282390
578469
1.09156e+06
1.07722e+06
576876
283925
285016
574720
1.0644e+06
1.05311e+06
572220
286074
286672
569153
1.04317e+06
1.03451e+06
565842
287127
287052
562003
1.02689e+06
1.02031e+06
558028
286862
286228
553581
1.01455e+06
1.00962e+06
549112
285497
284121
544199
1.00532e+06
1.0017e+06
539320
282982
281254
534033
998574
995968
528718
280184
278513
523142
993724
991888
517663
277481
275851
511997
990308
989039
506515
274834
273231
500894
987947
987082
495520
272219
270616
490046
986340
985754
484867
269583
267962
479624
985236
984862
474709
266899
265255
469757
984489
984211
465132
264158
262495
460514
983976
983782
456224
261380
259706
451943
983631
983477
447988
258584
256912
444041
983356
983189
440426
255795
254145
436811
983058
982854
433522
253039
251410
430228
982697
982435
427258
250331
248740
424268
982242
981928
421590
247685
246144
418884
981703
981335
416483
245120
243639
414039
981073
980672
411878
242644
241225
409669
980383
979950
407737
240259
238891
405747
979626
979175
404011
237937
236605
402210
978828
978364
400658
235682
234393
399027
977993
977528
397633
233499
232255
396150
977152
976687
394908
231399
230201
393568
976310
975853
392448
229379
228230
391228
975486
975030
390224
227452
226352
389113
974667
974218
388203
225613
224561
387183
973867
973423
386370
223867
222864
385435
973080
972645
384694
222209
221250
383828
972315
971895
383171
220635
219731
382376
971575
971166
381772
219147
218284
381033
970864
970474
380499
217741
216921
379819
970190
969815
379328
216412
215632
378701
969553
969204
378255
215155
214418
377681
968966
968637
377274
213972
213273
376746
968426
968122
376368
212853
212193
375885
967939
967659
375535
211800
211175
375090
967507
967254
374763
210804
210215
374353
967130
966907
374050
209868
209310
373666
966809
966623
373389
208984
208457
373029
966546
966398
372773
208152
207651
372432
966344
966236
372193
207366
206891
371871
966201
966131
371648
206626
206173
371341
966117
966088
371132
205926
205494
370843
966092
966090
370645
205264
204851
370371
966118
966135
370184
204636
204242
369925
966195
966228
369748
204042
203665
369503
966316
966365
369335
203477
203117
369105
966479
966544
368946
202942
202597
368728
966679
966760
368577
202434
202102
368374
966912
967006
368231
201951
201631
368039
967174
967282
367904
201491
201183
367725
967464
967583
367598
201054
200756
367429
967778
967908
367309
200636
200350
367153
968115
968255
367040
200238
199962
366893
968472
968621
366786
199857
199593
366651
968847
969005
366550
199494
199240
366425
969238
969404
366329
199146
198902
366215
969644
969817
366123
198813
198579
366018
970064
970245
365931
198494
198269
365836
970496
970683
365753
198189
197971
365666
970939
971131
365588
197895
197685
365511
971391
971587
365437
197614
197411
365367
971850
972050
365298
197343
197147
365237
972315
972518
365172
197083
196893
365117
972784
972991
365057
196833
196649
365009
973257
973465
364954
196592
196414
364912
973732
973940
364864
196360
196188
364826
974208
974416
364782
196137
195970
364749
974684
974891
364711
195922
195761
364683
975159
975366
364649
195716
195559
364625
975632
975838
364596
195517
195365
364579
976102
976307
364553
195325
195177
364539
976571
976776
364516
195141
194997
364507
977038
977241
364487
194962
194822
364479
977505
977707
364464
194789
194653
364459
977971
978172
364447
194622
194488
364443
978437
978639
364435
194459
194329
364434
978905
979107
364429
194301
194173
364428
979375
979577
364429
194148
194023
364430
979847
980050
364433
193999
193876
364437
980322
980525
364445
193854
193734
364451
980799
981001
364463
193714
193596
364472
981279
981476
364490
193579
193487
364510
981752
981939
364530
193423
193347
364547
981846
982407
364580
193333
193223
364599
983049
982839
364638
193231
193091
364666
983130
983261
364832
193117
192948
364460
983149
983077
364706
192908
192565
363924
982679
984841
365380
193145
193360
366371
988686
997947
371093
195232
196144
372068
993178
980976
361208
191050
188885
356464
963461
105192
57950
31280.9
19293.8
18001.6
12111.7
8883.06
7354.05
6959.19
5246.96
3821.9
2996.18
2273.73
1659.47
1176.68
821.053
577.27
413.551
304.298
230.314
179.201
143.09
117.039
97.8824
83.5893
72.7901
64.6498
58.507
54.0613
50.9315
48.9209
47.7575
47.2327
46.7164
45.7896
44.5176
42.9848
41.3016
39.5092
37.6726
35.7836
33.8517
31.8572
29.7844
27.5829
24.6565
20.328
15.1592
10.3908
6.72139
4.17545
2.515
1.48787
0.890942
0.576717
0.426886
0.360195
0.332139
0.320492
0.315317
0.312573
0.310312
0.308209
0.306203
0.304254
0.302325
0.300386
0.298409
0.296365
0.294227
0.291966
0.289556
0.286972
0.284189
0.281186
0.277937
0.274424
0.270624
0.266524
0.262115
0.257389
0.252348
0.246995
0.241338
0.235397
0.229193
0.222756
0.216121
0.209322
0.202394
0.195374
0.188302
0.181217
0.174158
0.167161
0.160256
0.153469
0.146824
0.140341
0.134041
0.127935
0.12204
0.116359
0.110896
0.105655
0.100636
0.0958385
0.0912624
0.0868997
0.082747
0.0787972
0.0750452
0.0714841
0.0681062
0.0649035
0.0618688
0.0589952
0.0562749
0.0537002
0.0512641
0.0489597
0.046781
0.0447203
0.0427726
0.040931
0.0391906
0.0375455
0.0359909
0.0345218
0.0331331
0.031821
0.0305807
0.0294087
0.0283006
0.0272532
0.026263
0.0253264
0.0244405
0.0236024
0.0228091
0.022058
0.0213465
0.0206721
0.0200327
0.0194261
0.0188503
0.0183034
0.0177836
0.0172892
0.0168189
0.0163711
0.0159447
0.0155382
0.0151508
0.0147813
0.0144288
0.0140925
0.0137715
0.0134651
0.0131727
0.0128936
0.0126271
0.0123727
0.0121298
0.0118981
0.0116769
0.0114658
0.0112644
0.0110723
0.0108891
0.0107144
0.0105479
0.0103892
0.010238
0.010094
0.00995682
0.00982625
0.00970195
0.00958367
0.00947114
0.00936412
0.00926239
0.00916572
0.00907394
0.00898686
0.00890431
0.00882615
0.00875224
0.00868245
0.00861667
0.00855479
0.00849673
0.00844244
0.00839187
0.00834501
0.0083019
0.00826256
0.00822707
0.00819551
0.00816801
0.00814469
0.00812571
0.00811106
0.00810089
0.00809475
0.00809184
0.00808996
0.00808858
0.00808858
0.00808849
0.00808865
0.00808944
0.00809109
0.00809368
0.00809649
0.00809817
0.00809768
0.00809497
0.00809054
0.0080849
0.0080784
0.00807116
0.00806323
0.00805457
0.00804512
0.00803486
0.00802376
0.00801181
0.00799904
0.00798544
0.00797105
0.00795586
0.0079399
0.00792317
0.0079057
0.00788748
0.00786855
0.00784891
0.00782857
0.00780754
0.00778585
0.00776352
0.00774057
0.00771702
0.00769289
0.00766819
0.00764296
0.00761721
0.00759097
0.00756426
0.00753711
0.00750954
0.00748157
0.00745323
0.00742454
0.00739554
0.00736626
0.00733671
0.00730694
0.00727697
0.00724684
0.0072166
0.00718628
0.00715598
0.00712585
0.00709621
0.00706777
0.00704214
0.00702307
0.00701891
0.00704857
0.00715374
0.00742499
0.00805462
0.00943786
0.0124073
0.0186662
0.0315475
0.0574309
0.108153
0.205362
0.387658
0.723496
1.33519
2.44262
4.42394
7.81315
12.9815
19.3892
25.5873
30.9087
37.5519
54.978
111.508
353.081
1706.51
5102.82
6273.61
6369.21
7271.38
7231.21
7959.91
7872.71
8477.89
8356.42
8895.16
8750.1
9239.91
9078.06
9530.62
9356.56
9779.96
9596.55
9996.29
9805.38
10185.9
9988.92
10353.2
10151.3
10501.6
10295.3
10633.2
10423.4
10750.5
10537.8
10855.9
10640.9
10951.2
10734.3
11038.2
10820.1
11118.5
10899.4
11193.1
10973.5
11263.2
11043.2
11329.4
11109.2
11392.2
11171.9
11452
11231.6
11509.2
11288.9
11564.1
11343.9
11616.9
11396.8
11667.4
11447.4
11716.7
11495.9
11763.6
11542.2
11808.3
11586.3
11850.8
11628.3
11891.1
11668
11928.8
11705.1
11963.7
11739.2
11995.1
11769.3
12022
11794.5
12043.2
11813.3
12056.9
11823.9
12060.8
11823.8
12052.8
11810.4
12029.9
11780.7
11988.5
11731.1
11925.2
11658.1
11836.3
11556.9
11718.5
11420.1
11570.9
11259.5
11399.4
11076.4
11206
10875
10995
10657.7
10771.2
10433.3
10544.1
10213.6
10323.7
10005.2
10116.1
9811.71
9924.43
9635.75
9751.33
9479.48
9598.7
9344.16
9467.61
9230.23
9358.33
9137.27
9270.17
9060.38
9201.03
9000.61
9151.54
8960.69
9123.25
8941.18
9115.04
8940.18
9124.17
8954.76
9147.44
8981.74
9181.66
9018.17
9223.93
9061.37
9272.83
9109.45
9324.77
9159.83
9377.4
9210.73
9429.55
9261.04
9480.35
9309.92
9529.09
9356.72
9575.93
9401.24
9620.35
9443.08
9661.74
9481.9
9699.97
9517.68
9735.09
9550.48
9767.13
9580.29
9796.08
9607.03
9821.78
9628.01
9853.7
9645.12
9887.11
9649.36
9896.74
9493.21
9816.29
8859.82
8700.5
6969.19
4644.17
5011.63
5466.96
3471.66
5925.28
5515.78
3489.55
5974.67
5519.38
3523.08
5988
5531.26
3518.5
5982.98
5525.45
3514.34
5969.45
5515.05
3505.71
5956.86
5503.31
3495.68
5943.26
5490.16
3485.31
5928.08