/*--------------------------------*- C++ -*----------------------------------*\
| =========                 |                                                 |
| \\      /  F ield         | OpenFOAM: The Open Source CFD Toolbox           |
|  \\    /   O peration     | Version:  v2006                                 |
|   \\  /    A nd           | Website:  www.openfoam.com                      |
|    \\/     M anipulation  |                                                 |
\*---------------------------------------------------------------------------*/
FoamFile
{
    version     2.0;
    format      ascii;
    class       volScalarField;
    location    "0.008";
    object      nut;
}
// * * * * * * * * * * * * * * * * * * * * * * * * * * * * * * * * * * * * * //

dimensions      [0 2 -1 0 0 0 0];


internalField   nonuniform List<scalar> 
16277
(
2.68876
2.59764
8.88831
9.16725
8.1524
6.65457
3.88154
1.94027
1.03139
0.629694
0.440105
0.344811
0.294438
0.262954
0.238403
0.217105
0.198374
0.181966
0.167504
0.154624
0.143058
0.13264
0.123291
0.114982
0.107533
0.100942
0.0951467
0.0899298
0.0852011
0.0809226
0.0770494
0.0735438
0.0703713
0.0674934
0.0648758
0.0624898
0.0603109
0.0583176
0.0564901
0.0548122
0.0532677
0.0518419
0.0505236
0.0493041
0.0481751
0.0471296
0.0461613
0.0452648
0.0444354
0.0436688
0.0429616
0.0423109
0.0417151
0.041173
0.0406844
0.040249
0.0398672
0.0395394
0.039267
0.0390516
0.0388955
0.0388014
0.0387727
0.0388135
0.0389287
0.0391239
0.0394052
0.0397802
0.0402575
0.0408478
0.0415641
0.0424235
0.0434482
0.0446662
0.0461105
0.047818
0.049833
0.052214
0.0550482
0.058491
0.0629327
0.0693761
0.0798136
0.0972078
0.125522
0.167596
0.221917
0.272966
0.220182
0.244083
0.26482
0.136834
0.0840335
0.0412593
0.0103228
0.00185008
6.12037e-05
5.14004e-05
0.000853741
0.00401142
0.002136
0.000535032
4.43985e-05
3.97948e-05
0.000484377
0.00178924
0.00139726
0.000411552
3.73332e-05
3.54705e-05
0.000403211
0.00132467
0.00115586
0.000369471
3.40324e-05
3.3037e-05
0.000368637
0.00113767
0.00105669
0.000354621
3.20664e-05
3.15913e-05
0.000359146
0.00106172
0.00101957
0.000350083
3.09025e-05
3.05934e-05
0.000355826
0.00102733
0.000998901
0.00034797
3.00233e-05
2.98009e-05
0.000353848
0.00100703
0.000980958
0.000345073
2.92756e-05
2.90764e-05
0.000349758
0.000987247
0.000958312
0.000339551
2.85685e-05
2.83819e-05
0.000343345
0.000962271
0.000929793
0.000332201
2.79212e-05
2.77776e-05
0.000335684
0.000932541
0.000899943
0.00032507
2.74093e-05
2.73349e-05
0.000328767
0.000903346
0.000873565
0.000319608
2.70696e-05
2.70572e-05
0.000323487
0.000878193
0.000852471
0.000315724
2.68741e-05
2.6912e-05
0.000319772
0.000858062
0.0008364
0.000313303
2.67971e-05
2.68759e-05
0.000317705
0.00084314
0.000825414
0.000312264
2.68083e-05
2.69132e-05
0.000317115
0.000834093
0.000818356
0.000311974
2.68752e-05
2.69895e-05
0.000317171
0.000828684
0.000814072
0.000312107
2.69495e-05
2.70533e-05
0.000317035
0.000824074
0.000810168
0.000311785
2.69783e-05
2.70644e-05
0.000316229
0.000818537
0.000804228
0.00031041
2.69364e-05
2.69946e-05
0.000314462
0.000811118
0.000793798
0.00030738
2.67937e-05
2.68305e-05
0.000310964
0.000799436
0.000780439
0.000303089
2.65826e-05
2.66104e-05
0.000306508
0.000785587
0.000766159
0.000298448
2.63222e-05
2.63312e-05
0.000301638
0.000770903
0.000750409
0.000293134
2.59865e-05
2.59667e-05
0.000295816
0.000754004
0.000731206
0.000286561
2.55545e-05
2.55019e-05
0.000288705
0.000733328
0.000708214
0.000278782
2.50365e-05
2.49519e-05
0.000280486
0.000709181
0.000682668
0.000270198
2.4446e-05
2.43222e-05
0.000271522
0.000683162
0.000655676
0.000260873
2.37711e-05
2.36048e-05
0.000261689
0.000654949
0.000625338
0.000250462
2.30231e-05
2.28318e-05
0.000250812
0.000622936
0.000592162
0.000239361
2.22522e-05
2.2058e-05
0.000239476
0.000588787
0.000558628
0.000228379
2.15035e-05
2.13186e-05
0.000228418
0.00055496
0.000526296
0.000217931
2.07979e-05
2.06291e-05
0.000217954
0.000522388
0.000495581
0.000208252
2.01451e-05
1.99947e-05
0.000208397
0.000491834
0.00046801
0.000199633
1.95382e-05
1.93973e-05
0.000199921
0.000465301
0.000444798
0.000191877
1.8957e-05
1.88123e-05
0.000192143
0.00044287
0.000424529
0.000184422
1.85247e-05
1.84868e-05
0.000184517
0.000422957
0.000405711
0.000176983
1.82485e-05
1.82287e-05
0.000176713
0.000404139
0.000387095
0.000168966
1.7985e-05
1.79617e-05
0.000168143
0.000385081
0.000367107
0.000159763
1.77008e-05
1.76779e-05
0.000158276
0.000364446
0.000345656
0.000148846
1.73957e-05
1.73548e-05
0.000146528
0.000341709
0.000321453
0.000135934
1.70116e-05
1.69008e-05
0.000131742
0.000314831
0.00029084
0.000118475
1.62523e-05
1.58548e-05
0.00010984
0.000277055
0.000244713
8.92038e-05
1.35564e-05
6.34172e-06
5.29616e-05
0.000197235
0.000148313
3.36163e-05
3.22635e-06
5.18776e-06
3.99353e-05
0.000126695
0.000118896
6.48662e-05
7.567e-06
9.95897e-06
9.65951e-05
0.000133807
0.000174187
0.000123596
1.15975e-05
1.27388e-05
0.000147634
0.00021676
0.000241177
0.00015802
1.32833e-05
1.39612e-05
0.000173673
0.000280354
0.000307129
0.000175031
1.27278e-05
1.18723e-05
0.000180053
0.000355205
0.000360073
0.000166395
9.48808e-06
8.87877e-06
0.000170074
0.000397172
0.00037203
0.000146879
6.04895e-06
5.86609e-06
0.000147547
0.000373637
0.000358447
0.000132816
4.42315e-06
4.55154e-06
0.000131389
0.000348131
0.00033631
0.000116462
4.02294e-06
3.9285e-06
0.000107587
0.000314747
0.000272413
8.40805e-05
3.5439e-06
3.70928e-06
7.2507e-05
0.00023781
0.000195754
5.31625e-05
3.9622e-06
4.63129e-06
4.50355e-05
0.000165042
0.000136208
3.40168e-05
5.35194e-06
6.17836e-06
3.07333e-05
0.000117924
0.00010311
2.52359e-05
6.62485e-06
6.90897e-06
2.18284e-05
9.34672e-05
8.31023e-05
1.64864e-05
7.41797e-06
7.67964e-06
1.50661e-05
7.76873e-05
6.73382e-05
1.29349e-05
8.20016e-06
8.42003e-06
1.25476e-05
6.48156e-05
5.8674e-05
1.16754e-05
8.91678e-06
9.08865e-06
1.15926e-05
5.7434e-05
5.2572e-05
1.10878e-05
9.54652e-06
9.66878e-06
1.11484e-05
5.17944e-05
4.74189e-05
1.0801e-05
1.00825e-05
1.01572e-05
1.09437e-05
4.69074e-05
4.28932e-05
1.07595e-05
1.05226e-05
1.05514e-05
1.10847e-05
4.30042e-05
4.02534e-05
1.11361e-05
1.0866e-05
1.08558e-05
1.16311e-05
4.22411e-05
3.93016e-05
1.172e-05
1.11195e-05
1.10799e-05
1.19589e-05
3.98337e-05
3.70109e-05
1.19524e-05
1.12956e-05
1.12391e-05
1.20216e-05
3.68415e-05
3.42234e-05
1.19631e-05
1.14075e-05
1.13472e-05
1.19322e-05
3.38135e-05
3.09522e-05
1.19183e-05
1.14693e-05
1.14186e-05
1.1834e-05
3.04468e-05
2.79117e-05
1.18959e-05
1.15208e-05
1.14814e-05
1.17924e-05
2.77925e-05
2.63114e-05
1.18877e-05
1.15731e-05
1.15425e-05
1.17493e-05
2.65477e-05
2.57334e-05
1.18376e-05
1.16278e-05
1.16029e-05
1.16609e-05
2.62321e-05
2.58688e-05
1.17526e-05
1.16829e-05
1.16607e-05
1.15998e-05
2.69035e-05
2.67855e-05
1.17298e-05
1.17384e-05
1.17177e-05
1.16085e-05
2.80247e-05
2.78506e-05
1.17562e-05
1.17964e-05
1.17765e-05
1.16384e-05
2.90795e-05
2.88948e-05
1.17851e-05
1.18562e-05
1.18354e-05
1.16736e-05
3.01914e-05
2.99959e-05
1.18378e-05
1.19137e-05
1.18909e-05
1.17527e-05
3.13775e-05
3.11438e-05
1.19398e-05
1.19667e-05
1.19432e-05
1.18701e-05
3.25856e-05
3.229e-05
1.20617e-05
1.20159e-05
1.19919e-05
1.19967e-05
3.37251e-05
3.33339e-05
1.21933e-05
1.20614e-05
1.20374e-05
1.21365e-05
3.4681e-05
3.42033e-05
1.23343e-05
1.2104e-05
1.20793e-05
1.22735e-05
3.54815e-05
3.49656e-05
1.24593e-05
1.21435e-05
1.21184e-05
1.23916e-05
3.62667e-05
3.57714e-05
1.2574e-05
1.21818e-05
1.21563e-05
1.25161e-05
3.72348e-05
3.68359e-05
1.27123e-05
1.22195e-05
1.21936e-05
1.26846e-05
3.86274e-05
3.83651e-05
1.29284e-05
1.22574e-05
1.22309e-05
1.29322e-05
4.0556e-05
4.03933e-05
1.32185e-05
1.22954e-05
1.22672e-05
1.32509e-05
4.2916e-05
4.27952e-05
1.35818e-05
1.23294e-05
1.23083e-05
1.36435e-05
4.55602e-05
4.53591e-05
1.40101e-05
1.23652e-05
1.23456e-05
1.41145e-05
4.84554e-05
4.84423e-05
1.4437e-05
1.23958e-05
1.2386e-05
1.46896e-05
5.21995e-05
5.30817e-05
1.50581e-05
1.24241e-05
1.24978e-05
1.54535e-05
5.57492e-05
6.17229e-05
1.6811e-05
1.24502e-05
1.26246e-05
1.94746e-05
6.03858e-05
0.000140487
2.01218e-05
1.19267e-05
1.81903e-05
2.43646e-05
4.74783e-05
0.000119771
0.000278565
0.000413937
0.000453333
0.000454616
0.000479942
0.000477046
0.000482235
0.000483347
0.000477997
0.000475448
0.000472274
0.00046234
0.000454565
0.000442542
0.000384843
0.000373093
0.000322643
0.000276415
0.000219147
0.000138895
5.2039e-05
9.84476e-06
6.23161e-06
6.05599e-06
5.22377e-06
6.24622e-06
8.45563e-06
7.83382e-06
6.30698e-06
4.74014e-06
4.32803e-06
6.29871e-06
7.24065e-06
7.11327e-06
6.28309e-06
4.16697e-06
4.06556e-06
6.22021e-06
6.9082e-06
6.83632e-06
6.25924e-06
3.97889e-06
3.96212e-06
6.25359e-06
6.76479e-06
6.75745e-06
6.25667e-06
3.96001e-06
3.95406e-06
6.2573e-06
6.75959e-06
6.75985e-06
6.26072e-06
3.95518e-06
3.95326e-06
6.26225e-06
6.77017e-06
6.77473e-06
6.26348e-06
3.95126e-06
3.95247e-06
6.26299e-06
6.77264e-06
6.77906e-06
6.26404e-06
3.94632e-06
3.94619e-06
6.26336e-06
6.77675e-06
6.77288e-06
6.26248e-06
3.94401e-06
3.94482e-06
6.26108e-06
6.76891e-06
6.75709e-06
6.25445e-06
3.94053e-06
3.93471e-06
6.25576e-06
6.74454e-06
6.72817e-06
6.24909e-06
3.93627e-06
3.93103e-06
6.24573e-06
6.7053e-06
6.6743e-06
6.23938e-06
3.92772e-06
3.92085e-06
6.23462e-06
6.64917e-06
6.61705e-06
6.22675e-06
3.92117e-06
3.91471e-06
6.21966e-06
6.58115e-06
6.53689e-06
6.21123e-06
3.91028e-06
3.90227e-06
6.2037e-06
6.50397e-06
6.46678e-06
6.19528e-06
3.90141e-06
3.89383e-06
6.18694e-06
6.43241e-06
6.38595e-06
6.17711e-06
3.88835e-06
3.87938e-06
6.16854e-06
6.35713e-06
6.3212e-06
6.15987e-06
3.87754e-06
3.86895e-06
6.15043e-06
6.29312e-06
6.25514e-06
6.14031e-06
3.86228e-06
3.85191e-06
6.13187e-06
6.23594e-06
6.20329e-06
6.12671e-06
3.84624e-06
3.84129e-06
6.11347e-06
6.186e-06
6.15771e-06
6.10162e-06
3.83163e-06
3.82032e-06
6.09575e-06
6.1452e-06
6.12341e-06
6.08856e-06
3.81362e-06
3.80767e-06
6.07652e-06
6.11287e-06
6.09052e-06
6.06324e-06
3.79704e-06
3.78485e-06
6.05696e-06
6.08133e-06
6.06348e-06
6.0486e-06
3.77715e-06
3.77014e-06
6.03585e-06
6.05488e-06
6.03322e-06
6.02075e-06
3.75851e-06
3.74535e-06
6.0129e-06
6.02254e-06
6.00436e-06
6.00249e-06
3.73653e-06
3.72833e-06
5.98876e-06
5.9961e-06
5.97497e-06
5.97179e-06
3.7156e-06
3.70134e-06
5.96205e-06
5.96471e-06
5.94722e-06
5.94921e-06
3.69122e-06
3.68163e-06
5.93502e-06
5.93981e-06
5.92218e-06
5.9164e-06
3.66766e-06
3.65217e-06
5.90496e-06
5.9118e-06
5.89401e-06
5.88975e-06
3.6406e-06
3.62942e-06
5.87403e-06
5.885e-06
5.86772e-06
5.85414e-06
3.61401e-06
3.59713e-06
5.84112e-06
5.857e-06
5.83801e-06
5.8239e-06
3.58397e-06
3.57104e-06
5.80643e-06
5.82624e-06
5.80772e-06
5.78597e-06
3.55428e-06
3.53637e-06
5.77152e-06
5.79574e-06
5.77702e-06
5.74985e-06
3.5243e-06
3.50568e-06
5.73524e-06
5.76249e-06
5.74013e-06
5.71595e-06
3.48944e-06
3.47027e-06
5.69787e-06
5.71759e-06
5.68176e-06
5.67829e-06
3.45704e-06
3.43688e-06
5.65983e-06
5.63824e-06
5.57004e-06
5.64108e-06
3.41916e-06
3.39827e-06
5.61792e-06
5.48183e-06
5.35665e-06
5.59678e-06
3.38107e-06
3.3628e-06
5.56441e-06
5.20609e-06
5.01825e-06
5.53591e-06
3.34107e-06
3.31806e-06
5.50428e-06
4.87018e-06
4.81175e-06
5.4762e-06
3.29843e-06
3.27784e-06
5.45295e-06
4.78391e-06
4.76406e-06
5.4434e-06
3.25399e-06
3.22919e-06
5.43871e-06
4.74574e-06
4.73352e-06
5.43175e-06
3.20965e-06
3.18308e-06
5.43601e-06
4.72289e-06
4.71265e-06
5.43803e-06
3.1581e-06
3.12983e-06
5.45467e-06
4.70087e-06
4.69212e-06
5.47378e-06
3.10476e-06
3.0789e-06
5.50478e-06
4.70183e-06
4.72265e-06
5.56044e-06
3.05106e-06
3.02816e-06
5.6308e-06
4.76857e-06
4.81949e-06
5.70103e-06
3.01841e-06
3.01773e-06
5.76384e-06
4.86666e-06
4.90491e-06
5.82836e-06
3.03147e-06
3.07168e-06
5.89774e-06
4.9329e-06
4.91702e-06
5.97549e-06
3.1487e-06
3.26312e-06
6.06171e-06
4.89676e-06
4.83145e-06
6.14459e-06
3.41619e-06
3.57995e-06
6.18167e-06
4.82044e-06
4.76857e-06
6.22186e-06
3.6857e-06
3.8664e-06
6.35943e-06
4.78697e-06
4.76996e-06
6.37572e-06
4.11199e-06
4.34846e-06
6.17403e-06
4.78126e-06
4.86377e-06
6.18388e-06
4.68626e-06
5.0456e-06
6.0267e-06
4.95462e-06
5.05032e-06
5.95347e-06
5.47029e-06
5.95939e-06
5.76338e-06
5.26561e-06
5.41797e-06
5.55629e-06
6.38661e-06
6.51335e-06
5.33052e-06
5.72429e-06
5.98211e-06
5.11656e-06
6.44386e-06
5.7239e-06
4.57798e-06
6.41395e-06
6.99311e-06
4.27294e-06
3.02608e-06
1.4009e-06
3.5088e-06
3.99327e-06
5.24786e-06
5.60924e-06
2.30302e-06
2.5358e-06
4.95783e-06
5.29391e-06
5.51658e-06
5.26619e-06
2.76721e-06
3.05505e-06
5.24232e-06
5.6766e-06
5.96054e-06
5.50823e-06
3.49807e-06
4.05961e-06
5.52346e-06
6.07041e-06
6.57852e-06
5.94945e-06
4.71502e-06
5.44043e-06
5.80126e-06
6.78122e-06
7.3968e-06
6.06112e-06
6.10669e-06
6.54528e-06
5.88688e-06
7.89503e-06
9.09489e-06
5.88878e-06
6.27912e-06
3.62725e-06
5.75418e-06
1.01525e-05
4.6903e-06
3.75369e-06
2.17363e-06
3.85344e-06
7.72869e-06
9.24458e-06
8.53749e-06
6.1477e-06
4.90387e-06
6.07021e-06
7.66059e-06
1.13593e-05
1.25098e-05
7.67635e-06
6.93434e-06
7.27116e-06
8.62785e-06
1.63419e-05
2.00104e-05
9.39439e-06
7.40541e-06
7.10019e-06
1.14424e-05
2.77504e-05
3.52024e-05
1.32965e-05
4.53327e-06
3.26848e-06
4.47311e-06
1.11949e-05
3.70398e-05
1.10522e-05
5.34087e-06
6.53559e-06
1.0866e-05
4.20476e-05
6.80952e-05
1.73349e-05
7.53353e-06
8.10337e-06
2.07228e-05
8.46203e-05
0.000127508
3.45077e-05
9.09468e-06
7.09236e-06
4.80005e-05
0.000157407
3.92449e-05
9.60531e-06
3.83796e-06
6.63779e-06
3.53087e-05
0.000171732
0.000190417
4.07214e-05
8.70619e-06
1.08508e-05
7.09858e-05
0.000288733
0.000322372
9.17584e-05
1.3136e-05
1.06072e-05
0.000115662
0.000344691
9.45093e-05
1.91048e-05
4.24867e-06
7.50734e-06
8.37406e-05
0.000328884
0.000335103
8.07578e-05
9.7613e-06
1.38716e-05
0.000125801
0.000442623
0.000462068
0.000152785
1.06922e-05
3.85103e-06
2.95487e-05
0.000149305
0.000484406
0.000128787
8.72281e-06
1.28532e-05
0.000151309
0.000554022
0.000775589
0.000236167
1.98565e-05
1.5625e-05
0.000252951
0.000769257
0.000323094
7.36658e-05
4.67026e-06
1.47835e-05
0.000238303
0.000778676
0.000786208
0.000244145
1.316e-05
4.37009e-06
0.000125383
0.00048805
0.000913501
0.000289535
1.71233e-05
1.30759e-05
0.000246985
0.000813809
0.000894287
0.000292915
1.81892e-05
1.34209e-05
0.0001897
0.000604709
0.00070975
0.00044346
3.20688e-05
3.53448e-05
0.000414038
0.000724362
0.000755576
0.00033538
2.40972e-05
2.17125e-05
0.000330137
0.000887561
0.00109726
0.000372286
2.42948e-05
3.71786e-05
0.000885385
0.00164994
0.000381006
0.000122696
2.63954e-05
2.67941e-05
0.00034645
0.000720512
0.000242916
9.28515e-05
2.1463e-05
2.27661e-05
0.000205117
0.000463795
0.000387871
0.000149564
2.34326e-05
1.37808e-05
4.33371e-05
0.000115074
0.000256018
0.000153052
1.56244e-05
1.54409e-05
5.48314e-05
0.00012356
0.000274732
0.000130565
1.68474e-05
1.82155e-05
0.000108079
0.000242526
8.70926e-05
3.68796e-05
1.26214e-05
1.38801e-05
0.000100033
0.000210178
0.000185274
8.6687e-05
1.60442e-05
1.17633e-05
3.15374e-05
6.96893e-05
0.000172693
8.5015e-05
1.24697e-05
1.48236e-05
7.4935e-05
0.000154933
6.06765e-05
2.81451e-05
1.12816e-05
1.15676e-05
7.44258e-05
0.00014884
0.000133183
6.55939e-05
1.394e-05
1.08597e-05
2.50027e-05
5.37522e-05
0.00012998
6.55242e-05
1.07613e-05
1.33425e-05
5.78575e-05
0.000116937
4.86322e-05
2.31327e-05
1.06263e-05
1.03622e-05
5.91623e-05
0.000113227
0.000101622
5.22392e-05
1.28494e-05
1.0283e-05
2.14352e-05
4.39188e-05
0.000101623
5.32254e-05
9.87206e-06
1.25341e-05
4.82327e-05
9.21437e-05
4.20182e-05
2.0817e-05
1.02628e-05
9.7597e-06
5.10468e-05
9.34589e-05
8.02195e-05
4.26984e-05
1.27336e-05
1.0931e-05
3.62988e-05
6.87408e-05
3.0637e-05
1.53062e-05
9.26018e-06
8.32622e-06
3.42229e-05
6.18146e-05
6.01101e-05
3.34228e-05
1.09509e-05
9.13974e-06
1.5117e-05
2.71454e-05
5.1914e-05
3.11481e-05
8.08332e-06
1.07366e-05
2.92311e-05
4.99874e-05
2.40184e-05
1.48317e-05
8.97878e-06
7.84853e-06
2.74463e-05
4.41208e-05
4.29771e-05
2.60215e-05
1.04613e-05
8.89507e-06
1.41942e-05
2.15901e-05
4.13051e-05
2.57101e-05
7.78581e-06
1.03803e-05
2.38916e-05
3.86398e-05
1.99245e-05
1.38327e-05
8.71373e-06
7.60689e-06
2.34227e-05
3.76583e-05
3.46844e-05
2.16719e-05
1.02312e-05
8.7323e-06
1.34103e-05
1.84332e-05
3.59546e-05
2.2647e-05
7.47028e-06
1.01053e-05
2.06955e-05
3.21365e-05
1.74021e-05
1.3167e-05
8.56021e-06
7.35708e-06
2.07057e-05
3.24863e-05
2.92673e-05
1.88804e-05
9.94982e-06
8.38374e-06
1.22017e-05
1.55461e-05
2.68799e-05
2.06681e-05
6.87129e-06
9.2435e-06
1.30308e-05
1.69458e-05
3.39095e-05
2.18483e-05
7.76605e-06
1.0242e-05
2.00069e-05
3.06634e-05
1.73395e-05
1.415e-05
8.74996e-06
7.60627e-06
2.20489e-05
3.35579e-05
3.05181e-05
2.02804e-05
1.03384e-05
8.8586e-06
1.42154e-05
1.73095e-05
3.35066e-05
2.19422e-05
7.60756e-06
1.02471e-05
2.02911e-05
3.03757e-05
1.6988e-05
1.41292e-05
8.81447e-06
7.63195e-06
2.08736e-05
3.14263e-05
2.86214e-05
1.92514e-05
1.03902e-05
8.86112e-06
1.38315e-05
1.61864e-05
2.98642e-05
1.99061e-05
7.42936e-06
1.00442e-05
1.82997e-05
2.73784e-05
1.51938e-05
1.27835e-05
8.47977e-06
6.9994e-06
1.97342e-05
2.41329e-05
1.59463e-05
1.35516e-05
9.43679e-06
7.95131e-06
1.95826e-05
3.01499e-05
2.71666e-05
1.82973e-05
1.0455e-05
8.81068e-06
1.43376e-05
1.59168e-05
2.82264e-05
1.95496e-05
7.56966e-06
1.02442e-05
1.81638e-05
2.61315e-05
1.52709e-05
1.35106e-05
8.71063e-06
7.14406e-06
1.98988e-05
2.3925e-05
1.61207e-05
1.39855e-05
9.66378e-06
8.02474e-06
2.03039e-05
3.05177e-05
2.76088e-05
1.8955e-05
1.04872e-05
8.88672e-06
1.49848e-05
1.63787e-05
2.89437e-05
2.0207e-05
7.67957e-06
1.04001e-05
1.87131e-05
2.68109e-05
1.5625e-05
1.39922e-05
8.76621e-06
7.28227e-06
2.02488e-05
2.42538e-05
1.63808e-05
1.44597e-05
9.82435e-06
8.10029e-06
2.02644e-05
3.03388e-05
2.73259e-05
1.90019e-05
1.06076e-05
8.96859e-06
1.52611e-05
1.63654e-05
2.80691e-05
1.98596e-05
7.79651e-06
1.05093e-05
1.85179e-05
2.59182e-05
1.53972e-05
1.41675e-05
8.83132e-06
7.33676e-06
1.98337e-05
2.34336e-05
1.59788e-05
1.4558e-05
9.88928e-06
8.09081e-06
1.96265e-05
2.89825e-05
2.59073e-05
1.84327e-05
1.06267e-05
8.82048e-06
1.4743e-05
1.56559e-05
2.3657e-05
2.05693e-05
7.23288e-06
9.87828e-06
1.5255e-05
1.63612e-05
2.92647e-05
1.96771e-05
8.14047e-06
1.08452e-05
1.85424e-05
2.6158e-05
1.60659e-05
1.53716e-05
9.05316e-06
7.4305e-06
2.05632e-05
2.39342e-05
1.6807e-05
1.58079e-05
1.00179e-05
8.13475e-06
2.02428e-05
2.95599e-05
2.64259e-05
1.90601e-05
1.08199e-05
9.03324e-06
1.56336e-05
1.63012e-05
2.415e-05
2.12223e-05
7.37345e-06
1.0127e-05
1.61813e-05
1.7102e-05
2.93142e-05
2.00203e-05
8.33727e-06
1.10476e-05
1.91047e-05
2.63606e-05
1.65725e-05
1.61903e-05
9.21504e-06
7.53705e-06
2.15748e-05
2.42295e-05
1.74073e-05
1.67213e-05
1.02061e-05
8.38936e-06
2.02852e-05
2.9399e-05
2.62662e-05
1.914e-05
1.10224e-05
9.21644e-06
1.61528e-05
1.65764e-05
2.36447e-05
2.1563e-05
7.50222e-06
1.01129e-05
1.72958e-05
1.77354e-05
2.58641e-05
2.00232e-05
7.92606e-06
1.05281e-05
1.76039e-05
1.85885e-05
3.02347e-05
2.06522e-05
8.59893e-06
1.11315e-05
1.97993e-05
2.7138e-05
1.74132e-05
1.71336e-05
9.25438e-06
7.55297e-06
2.23905e-05
2.50197e-05
1.83883e-05
1.80185e-05
1.04276e-05
8.56854e-06
2.086e-05
2.98441e-05
2.6993e-05
1.99816e-05
1.12911e-05
9.37962e-06
1.71497e-05
1.74605e-05
2.46114e-05
2.23251e-05
7.74934e-06
1.04064e-05
1.82845e-05
1.87415e-05
2.69017e-05
2.1124e-05
8.24752e-06
1.06401e-05
1.85906e-05
1.95667e-05
3.14018e-05
2.14981e-05
8.62416e-06
1.1338e-05
2.0596e-05
2.81936e-05
1.83006e-05
1.81389e-05
9.48597e-06
7.7159e-06
2.36021e-05
2.59397e-05
1.98908e-05
1.95073e-05
1.05501e-05
8.30915e-06
2.21454e-05
2.83732e-05
2.08718e-05
2.01554e-05
1.08472e-05
8.87079e-06
2.24249e-05
3.28504e-05
2.95964e-05
2.16466e-05
1.16406e-05
9.60137e-06
1.89037e-05
1.92974e-05
2.68719e-05
2.47748e-05
7.82335e-06
1.06126e-05
2.01302e-05
2.06483e-05
2.92895e-05
2.31863e-05
8.38857e-06
1.09407e-05
2.07238e-05
2.15909e-05
3.40468e-05
2.3392e-05
8.94823e-06
1.16747e-05
2.2511e-05
3.06681e-05
2.01076e-05
1.98461e-05
9.74869e-06
8.01973e-06
2.56437e-05
2.81388e-05
2.17301e-05
2.12544e-05
1.08673e-05
8.66082e-06
2.44974e-05
3.06881e-05
2.26834e-05
2.17635e-05
1.10456e-05
8.9876e-06
2.41799e-05
3.53429e-05
3.17325e-05
2.31817e-05
1.16807e-05
9.75633e-06
1.99715e-05
2.06844e-05
2.82169e-05
2.60292e-05
8.05276e-06
1.09032e-05
2.12101e-05
2.18002e-05
3.05014e-05
2.41868e-05
8.66604e-06
1.11706e-05
2.1808e-05
2.2604e-05
3.50027e-05
2.4253e-05
9.1266e-06
1.1902e-05
2.33591e-05
3.14985e-05
2.10272e-05
2.05249e-05
9.94372e-06
8.14427e-06
2.6464e-05
2.86362e-05
2.23259e-05
2.16355e-05
1.08828e-05
8.50212e-06
2.43544e-05
3.09104e-05
2.3502e-05
2.21498e-05
1.10148e-05
8.66297e-06
2.51882e-05
3.22626e-05
2.42531e-05
2.36752e-05
1.12179e-05
9.22782e-06
2.59313e-05
3.67979e-05
3.31247e-05
2.49833e-05
1.19372e-05
9.88699e-06
2.16e-05
2.22531e-05
2.97693e-05
2.78324e-05
8.19814e-06
1.10702e-05
2.255e-05
2.347e-05
3.15957e-05
2.52577e-05
8.81574e-06
1.12328e-05
2.2873e-05
2.43048e-05
3.28821e-05
2.59188e-05
8.79117e-06
1.13056e-05
2.4375e-05
2.49161e-05
3.75352e-05
2.65901e-05
9.28334e-06
1.20313e-05
2.55687e-05
3.38323e-05
2.3053e-05
2.24662e-05
1.00766e-05
8.25434e-06
2.86318e-05
3.05124e-05
2.42882e-05
2.35355e-05
1.12017e-05
8.8798e-06
2.59558e-05
3.27713e-05
2.53568e-05
2.40158e-05
1.13766e-05
8.98445e-06
2.7095e-05
3.41228e-05
2.60998e-05
2.56307e-05
1.1519e-05
9.48848e-06
2.7843e-05
3.8859e-05
3.50717e-05
2.67498e-05
1.22114e-05
1.01152e-05
2.32715e-05
2.40638e-05
3.12422e-05
2.95572e-05
8.34185e-06
1.13041e-05
2.42072e-05
2.52503e-05
3.29736e-05
2.64725e-05
8.89073e-06
1.14246e-05
2.42952e-05
2.59794e-05
3.38955e-05
2.7059e-05
8.98232e-06
1.16179e-05
2.58456e-05
2.64836e-05
3.81306e-05
2.76109e-05
9.50495e-06
1.2315e-05
2.69016e-05
3.48159e-05
2.43686e-05
2.38589e-05
1.02517e-05
8.55691e-06
2.94095e-05
3.10414e-05
2.56e-05
2.49013e-05
1.14529e-05
8.97699e-06
2.70217e-05
3.29033e-05
2.64283e-05
2.49752e-05
1.14503e-05
8.92177e-06
2.70926e-05
3.39397e-05
2.72038e-05
2.57601e-05
1.14667e-05
9.09139e-06
2.85837e-05
3.50035e-05
2.77249e-05
2.73363e-05
1.16098e-05
9.56072e-06
2.90011e-05
3.92324e-05
3.56866e-05
2.81064e-05
1.23282e-05
1.02646e-05
2.45233e-05
2.53608e-05
3.14863e-05
3.04862e-05
8.44379e-06
1.15394e-05
2.54834e-05
2.63233e-05
3.27007e-05
2.69979e-05
9.12925e-06
1.16666e-05
2.56114e-05
2.69265e-05
3.34433e-05
2.71665e-05
9.06067e-06
1.15941e-05
2.65114e-05
2.74359e-05
3.49138e-05
2.89305e-05
9.1781e-06
1.17361e-05
2.80803e-05
2.82157e-05
3.93623e-05
2.94145e-05
9.6451e-06
1.25081e-05
2.87066e-05
3.60069e-05
2.62493e-05
2.59983e-05
1.04427e-05
8.54917e-06
3.16956e-05
3.24218e-05
2.73919e-05
2.69387e-05
1.15476e-05
9.02544e-06
2.8415e-05
3.39687e-05
2.81389e-05
2.69077e-05
1.16789e-05
9.181e-06
2.85506e-05
3.47065e-05
2.88068e-05
2.78056e-05
1.16859e-05
9.19944e-06
2.99744e-05
3.57248e-05
2.93613e-05
2.92226e-05
1.18191e-05
9.77367e-06
3.02262e-05
3.9597e-05
3.6225e-05
2.96436e-05
1.25448e-05
1.04878e-05
2.67593e-05
2.71252e-05
3.24976e-05
3.19703e-05
8.72798e-06
1.17472e-05
2.75986e-05
2.81582e-05
3.34584e-05
2.85811e-05
9.27812e-06
1.19113e-05
2.74361e-05
2.85636e-05
3.37276e-05
2.81121e-05
9.30775e-06
1.18904e-05
2.82852e-05
2.89119e-05
3.46465e-05
2.96319e-05
9.41329e-06
1.19844e-05
2.99436e-05
2.95138e-05
3.81162e-05
3.02569e-05
9.80039e-06
1.26739e-05
3.00486e-05
3.5171e-05
2.75395e-05
2.77315e-05
1.05633e-05
8.72156e-06
3.25987e-05
3.23932e-05
2.85983e-05
2.85292e-05
1.17869e-05
9.26656e-06
2.89996e-05
3.35105e-05
2.91875e-05
2.84791e-05
1.1951e-05
9.35225e-06
2.88122e-05
3.39626e-05
2.97119e-05
2.9246e-05
1.18978e-05
9.40629e-06
3.02687e-05
3.45912e-05
3.01409e-05
3.0673e-05
1.19934e-05
9.84044e-06
3.04462e-05
3.7553e-05
3.48532e-05
3.04304e-05
1.27283e-05
1.06061e-05
2.81148e-05
2.82538e-05
3.16783e-05
3.25291e-05
8.76215e-06
1.19065e-05
2.89204e-05
2.89285e-05
3.21674e-05
2.85594e-05
9.33499e-06
1.20634e-05
2.88515e-05
2.91396e-05
3.23729e-05
2.83378e-05
9.43003e-06
1.1994e-05
2.95628e-05
2.94348e-05
3.29403e-05
2.93329e-05
9.41729e-06
1.19553e-05
3.05445e-05
3.00827e-05
3.3889e-05
3.07979e-05
9.40749e-06
1.20712e-05
3.19603e-05
3.05952e-05
3.69701e-05
3.09862e-05
9.8916e-06
1.28414e-05
3.13379e-05
3.46512e-05
2.94587e-05
2.99579e-05
1.0724e-05
8.8309e-06
3.37749e-05
3.24344e-05
3.02758e-05
3.09355e-05
1.19903e-05
9.43154e-06
3.02886e-05
3.33767e-05
3.07868e-05
3.08813e-05
1.21166e-05
9.45485e-06
3.02497e-05
3.37525e-05
3.12313e-05
3.17106e-05
1.20345e-05
9.46841e-06
3.1651e-05
3.45137e-05
3.17444e-05
3.31566e-05
1.21587e-05
1.001e-05
3.18129e-05
3.70995e-05
3.4913e-05
3.22777e-05
1.29775e-05
1.08248e-05
3.09854e-05
3.04572e-05
3.28722e-05
3.46494e-05
8.91718e-06
1.21191e-05
3.18408e-05
3.1269e-05
3.3291e-05
3.09042e-05
9.55463e-06
1.22454e-05
3.15007e-05
3.1423e-05
3.32274e-05
3.03067e-05
9.63498e-06
1.21948e-05
3.22684e-05
3.17319e-05
3.34905e-05
3.14331e-05
9.59596e-06
1.22764e-05
3.37269e-05
3.19113e-05
3.56368e-05
3.17204e-05
1.00674e-05
1.32184e-05
3.25571e-05
3.3941e-05
3.1092e-05
3.20247e-05
1.10091e-05
8.98927e-06
3.49831e-05
3.2528e-05
3.17344e-05
3.29793e-05
1.22512e-05
9.64419e-06
3.14869e-05
3.32246e-05
3.21357e-05
3.28579e-05
1.23431e-05
9.61743e-06
3.12172e-05
3.34843e-05
3.24694e-05
3.3557e-05
1.22281e-05
9.68078e-06
3.22632e-05
3.41112e-05
3.29547e-05
3.50832e-05
1.23239e-05
1.01048e-05
3.2847e-05
3.63109e-05
3.46175e-05
3.38115e-05
1.3196e-05
1.10496e-05
3.32631e-05
3.22264e-05
3.3343e-05
3.62808e-05
9.05737e-06
1.22881e-05
3.38872e-05
3.28446e-05
3.37721e-05
3.21582e-05
9.68113e-06
1.24474e-05
3.37283e-05
3.3035e-05
3.37947e-05
3.1905e-05
9.72142e-06
1.23704e-05
3.45427e-05
3.33634e-05
3.41977e-05
3.29025e-05
9.73215e-06
1.24965e-05
3.61584e-05
3.37075e-05
3.615e-05
3.33965e-05
1.02823e-05
1.34671e-05
3.45567e-05
3.48179e-05
3.34461e-05
3.48753e-05
1.12843e-05
9.31137e-06
3.70709e-05
3.40099e-05
3.40529e-05
3.56635e-05
1.24415e-05
9.78981e-06
3.38757e-05
3.47703e-05
3.43737e-05
3.55524e-05
1.24849e-05
9.70978e-06
3.36222e-05
3.5143e-05
3.45689e-05
3.68188e-05
1.25846e-05
1.03853e-05
3.41404e-05
3.71116e-05
3.57148e-05
3.5276e-05
1.36893e-05
1.14236e-05
3.52668e-05
3.41975e-05
3.44183e-05
3.76129e-05
9.39889e-06
1.2637e-05
3.60851e-05
3.46374e-05
3.46802e-05
3.40647e-05
9.98249e-06
1.27106e-05
3.59602e-05
3.47269e-05
3.48352e-05
3.35678e-05
9.93239e-06
1.28957e-05
3.75875e-05
3.49369e-05
3.65894e-05
3.43212e-05
1.04671e-05
1.38293e-05
3.56604e-05
3.54755e-05
3.48215e-05
3.63571e-05
1.15505e-05
9.45899e-06
3.82798e-05
3.47812e-05
3.53516e-05
3.71359e-05
1.26648e-05
9.89183e-06
3.43665e-05
3.53266e-05
3.56877e-05
3.73443e-05
1.28468e-05
1.01076e-05
3.47884e-05
3.57544e-05
3.60355e-05
3.89137e-05
1.30529e-05
1.06006e-05
3.5606e-05
3.77401e-05
3.66124e-05
3.70714e-05
1.4125e-05
1.17125e-05
3.73658e-05
3.60723e-05
3.55688e-05
3.9414e-05
9.56737e-06
1.28741e-05
3.81331e-05
3.64895e-05
3.59033e-05
3.56483e-05
1.01496e-05
1.30631e-05
3.82966e-05
3.65645e-05
3.6199e-05
3.52908e-05
1.0191e-05
1.33204e-05
4.01316e-05
3.68713e-05
3.81045e-05
3.6306e-05
1.08892e-05
1.44026e-05
3.77878e-05
3.71014e-05
3.7208e-05
3.92388e-05
1.19428e-05
9.76583e-06
4.06351e-05
3.67436e-05
3.79789e-05
4.0263e-05
1.31964e-05
1.03656e-05
3.74203e-05
3.75373e-05
3.83773e-05
4.04968e-05
1.34297e-05
1.05057e-05
3.72274e-05
3.81255e-05
3.88844e-05
4.23809e-05
1.36516e-05
1.11671e-05
3.85142e-05
4.02847e-05
3.92581e-05
4.02144e-05
1.48492e-05
1.22366e-05
4.11828e-05
3.94049e-05
3.85965e-05
4.28469e-05
1.0008e-05
1.34423e-05
4.21177e-05
3.99566e-05
3.91965e-05
3.92017e-05
1.05441e-05
1.39465e-05
4.328e-05
4.0076e-05
4.07272e-05
3.8937e-05
1.14331e-05
1.51183e-05
4.00615e-05
3.97726e-05
3.98989e-05
4.21132e-05
1.24678e-05
1.01226e-05
4.33744e-05
3.92269e-05
4.09054e-05
4.34348e-05
1.37744e-05
1.07949e-05
4.03884e-05
4.02306e-05
4.14246e-05
4.3931e-05
1.4047e-05
1.10138e-05
4.00229e-05
4.09052e-05
4.21522e-05
4.63086e-05
1.44515e-05
1.18542e-05
4.17972e-05
4.32171e-05
4.21906e-05
4.3781e-05
1.57922e-05
1.29725e-05
4.57392e-05
4.31248e-05
4.19013e-05
4.71292e-05
1.04279e-05
1.41271e-05
4.65386e-05
4.40258e-05
4.30416e-05
4.30371e-05
1.11507e-05
1.47938e-05
4.80115e-05
4.42673e-05
4.47632e-05
4.3026e-05
1.19357e-05
1.6102e-05
4.49213e-05
4.38463e-05
4.50235e-05
4.80434e-05
1.36708e-05
1.10965e-05
4.83975e-05
4.36777e-05
4.59892e-05
4.91896e-05
1.48943e-05
1.17858e-05
4.5152e-05
4.50346e-05
4.65755e-05
5.10335e-05
1.56544e-05
1.28998e-05
4.55514e-05
4.71107e-05
4.6202e-05
4.77313e-05
1.72132e-05
1.41962e-05
5.06809e-05
4.75492e-05
4.61017e-05
5.12331e-05
1.13703e-05
1.56475e-05
5.26292e-05
4.85266e-05
4.83555e-05
4.69171e-05
1.28975e-05
1.73805e-05
4.84579e-05
4.75947e-05
4.82481e-05
5.05321e-05
1.42709e-05
1.12684e-05
5.20784e-05
4.69559e-05
4.90611e-05
5.19006e-05
1.55166e-05
1.22966e-05
4.77084e-05
4.79242e-05
4.95506e-05
5.38421e-05
1.65029e-05
1.36023e-05
4.80546e-05
4.97517e-05
4.89687e-05
5.05693e-05
1.8245e-05
1.50728e-05
5.38775e-05
5.07053e-05
4.87834e-05
5.37734e-05
1.22561e-05
1.67731e-05
5.63427e-05
5.15373e-05
5.09508e-05
4.99392e-05
1.3912e-05
1.87292e-05
5.16026e-05
5.02482e-05
5.19115e-05
5.51867e-05
1.55664e-05
1.24625e-05
5.51681e-05
5.02749e-05
5.26685e-05
5.73066e-05
1.69504e-05
1.37139e-05
5.09168e-05
5.23125e-05
5.16383e-05
5.29257e-05
1.88776e-05
1.59055e-05
5.59545e-05
5.30764e-05
5.13406e-05
5.5695e-05
1.29013e-05
1.77253e-05
5.89684e-05
5.39534e-05
5.33084e-05
5.2206e-05
1.45713e-05
1.97778e-05
5.40798e-05
5.26459e-05
5.45184e-05
5.79481e-05
1.63823e-05
1.31751e-05
5.74789e-05
5.25863e-05
5.54145e-05
6.05154e-05
1.79945e-05
1.47306e-05
5.36767e-05
5.48615e-05
5.41889e-05
5.54195e-05
1.99773e-05
1.65267e-05
5.89785e-05
5.57774e-05
5.41551e-05
5.96097e-05
1.28e-05
1.80554e-05
6.19037e-05
5.6558e-05
5.60093e-05
5.45254e-05
1.51183e-05
2.07678e-05
5.64025e-05
5.53346e-05
5.76241e-05
6.19849e-05
1.74671e-05
1.4144e-05
6.03315e-05
5.56267e-05
5.90204e-05
6.53942e-05
1.93453e-05
1.59808e-05
5.76956e-05
5.84828e-05
5.78454e-05
5.98369e-05
2.15523e-05
1.79102e-05
6.49066e-05
6.05684e-05
5.825e-05
6.34791e-05
1.44079e-05
1.97792e-05
6.84655e-05
6.17397e-05
6.09643e-05
6.05478e-05
1.61466e-05
2.16319e-05
6.15721e-05
6.02556e-05
6.33738e-05
7.04584e-05
1.90198e-05
1.62812e-05
6.58137e-05
6.27125e-05
6.21178e-05
6.6557e-05
2.27326e-05