/*--------------------------------*- C++ -*----------------------------------*\
| =========                 |                                                 |
| \\      /  F ield         | OpenFOAM: The Open Source CFD Toolbox           |
|  \\    /   O peration     | Version:  v2006                                 |
|   \\  /    A nd           | Website:  www.openfoam.com                      |
|    \\/     M anipulation  |                                                 |
\*---------------------------------------------------------------------------*/
FoamFile
{
    version     2.0;
    format      ascii;
    class       volVectorField;
    location    "0.008";
    object      U;
}
// * * * * * * * * * * * * * * * * * * * * * * * * * * * * * * * * * * * * * //

dimensions      [0 1 -1 0 0 0 0];


internalField   nonuniform List<vector> 
16277
(
(40.0473 -0.0044214 -1.10469e-18)
(40.0457 -0.00156661 0)
(40.0499 -0.000448132 0)
(40.0514 -0.00131565 0)
(40.0547 -0.00230158 -7.96008e-21)
(40.0601 -0.00349633 -8.93636e-19)
(40.0676 -0.00549737 9.11623e-19)
(40.0751 -0.00907999 0)
(40.0781 -0.0155734 0)
(40.072 -0.0239777 0)
(40.0533 -0.0320105 -3.43255e-21)
(40.0222 -0.0387595 -7.07489e-21)
(39.9831 -0.0445973 1.8005e-21)
(39.94 -0.0497687 0)
(39.894 -0.0545508 0)
(39.8444 -0.0591144 0)
(39.7904 -0.0635593 0)
(39.7316 -0.0679457 0)
(39.6674 -0.0723166 0)
(39.5974 -0.0767202 0)
(39.5213 -0.0812017 0)
(39.4386 -0.0857902 0)
(39.349 -0.0904684 0)
(39.2522 -0.0951738 0)
(39.1481 -0.100019 0)
(39.0367 -0.104827 0)
(38.9181 -0.10942 0)
(38.7926 -0.113982 0)
(38.6601 -0.11849 0)
(38.5207 -0.122886 0)
(38.3746 -0.127146 0)
(38.2221 -0.131248 0)
(38.0633 -0.135171 0)
(37.8986 -0.1389 0)
(37.7283 -0.142423 0)
(37.5526 -0.145729 0)
(37.3719 -0.148807 0)
(37.1865 -0.151652 0)
(36.9967 -0.154258 0)
(36.8029 -0.156621 0)
(36.6053 -0.158746 0)
(36.4042 -0.160637 0)
(36.1999 -0.1623 0)
(35.9928 -0.163744 0)
(35.7829 -0.164975 0)
(35.5708 -0.165996 0)
(35.3565 -0.166816 0)
(35.1404 -0.16744 0)
(34.9228 -0.167877 0)
(34.7039 -0.168132 0)
(34.4839 -0.168213 0)
(34.2631 -0.168123 0)
(34.0417 -0.167867 0)
(33.8201 -0.167443 0)
(33.5985 -0.166851 0)
(33.3771 -0.16609 0)
(33.1562 -0.165157 0)
(32.9361 -0.16405 0)
(32.7172 -0.162763 0)
(32.4997 -0.161293 0)
(32.2839 -0.159635 0)
(32.0701 -0.157783 0)
(31.8587 -0.155733 0)
(31.6501 -0.153477 0)
(31.4444 -0.151011 0)
(31.2422 -0.148331 0)
(31.0438 -0.145433 0)
(30.8494 -0.142315 0)
(30.6595 -0.138974 0)
(30.4744 -0.135408 0)
(30.2944 -0.131611 0)
(30.1198 -0.127577 0)
(29.951 -0.123294 0)
(29.7882 -0.11875 0)
(29.6317 -0.113935 0)
(29.482 -0.108838 0)
(29.339 -0.103443 0)
(29.2029 -0.09772 0)
(29.0737 -0.0915532 -3.1055e-20)
(28.9512 -0.0848555 3.10374e-20)
(28.8353 -0.0773296 0)
(28.7273 -0.068772 9.34326e-20)
(28.6313 -0.0591156 -6.25504e-20)
(28.5537 -0.0493155 0)
(28.4988 -0.0398179 -2.05141e-18)
(28.466 -0.0317091 1.59488e-18)
(28.4485 -0.0242907 0)
(28.439 -0.0195319 0)
(28.4289 -0.019461 0)
(28.4012 -0.0108003 2.65069e-17)
(28.3897 -0.00350634 -1.37874e-17)
(28.3637 -0.00746398 -1.43422e-17)
(28.3106 -0.0138028 -4.01695e-18)
(28.2262 -0.0279689 2.18843e-18)
(28.0943 -0.0414543 0)
(27.9489 -0.0490754 0)
(27.4106 -0.0729876 -2.78908e-19)
(27.0885 -0.0785759 2.34616e-18)
(27.9767 -0.0834854 1.75464e-18)
(28.149 -0.0713699 -5.92105e-18)
(28.1789 -0.0925024 0)
(27.948 -0.101583 1.81604e-18)
(26.7068 -0.0871538 1.94895e-18)
(26.3163 -0.0801922 7.25529e-19)
(27.9074 -0.101102 4.05108e-19)
(28.2034 -0.102032 1.35342e-18)
(28.206 -0.101836 1.35334e-18)
(27.8377 -0.0960058 0)
(25.9484 -0.0698067 -1.26602e-18)
(25.6064 -0.0556806 1.17871e-19)
(27.7594 -0.0911201 0)
(28.1975 -0.102189 0)
(28.1678 -0.0972082 1.67619e-19)
(27.6562 -0.0854978 0)
(25.2893 -0.0484737 3.84993e-23)
(25.0032 -0.0423251 1.36752e-19)
(27.5608 -0.0806057 0)
(28.1366 -0.0976809 -1.68478e-19)
(28.0885 -0.093637 1.06526e-20)
(27.4508 -0.0762689 3.97526e-19)
(24.7372 -0.0387431 -5.10731e-19)
(24.5009 -0.0348534 4.96212e-19)
(27.3551 -0.0724432 3.99414e-19)
(28.0457 -0.0956352 -6.95095e-19)
(27.9859 -0.090663 -6.87661e-19)
(27.2394 -0.0685412 -8.01727e-19)
(24.2753 -0.0325759 0)
(24.0714 -0.0295329 4.98539e-19)
(27.1407 -0.0659258 -4.14064e-19)
(27.9319 -0.092738 -1.07695e-20)
(27.862 -0.0881539 7.00458e-19)
(27.0217 -0.0632974 -4.14233e-19)
(23.8709 -0.0283715 -4.98768e-19)
(23.687 -0.026289 0)
(26.9215 -0.0618943 0)
(27.801 -0.0907161 0)
(27.7244 -0.0868625 6.89793e-19)
(26.8008 -0.0603588 0)
(23.5006 -0.0260708 0)
(23.3273 -0.0246245 0)
(26.7 -0.0597331 0)
(27.6584 -0.0900394 0)
(27.5762 -0.0867136 0)
(26.5774 -0.0586941 0)
(23.1481 -0.0248111 0)
(22.9815 -0.0233893 0)
(26.4754 -0.058258 0)
(27.5056 -0.0901382 0)
(27.4175 -0.0869289 0)
(26.3501 -0.0571897 0)
(22.8086 -0.0235489 0)
(22.6494 -0.0218798 0)
(26.2463 -0.0565865 0)
(27.3418 -0.090292 0)
(27.247 -0.0870535 0)
(26.1179 -0.0553895 0)
(22.4847 -0.0219838 0)
(22.3343 -0.0201645 0)
(26.0119 -0.0546763 0)
(27.1655 -0.090315 0)
(27.0639 -0.0871135 0)
(25.8805 -0.0535279 0)
(22.1788 -0.0203783 0)
(22.0366 -0.018607 0)
(25.7723 -0.05289 0)
(26.9764 -0.0903444 0)
(26.8681 -0.08733 0)
(25.6383 -0.0519502 0)
(21.8893 -0.0190102 0)
(21.754 -0.0173341 0)
(25.5279 -0.0515034 0)
(26.7749 -0.090606 0)
(26.66 -0.0879826 0)
(25.3912 -0.0508798 0)
(21.613 -0.0179495 0)
(21.4827 -0.0164714 0)
(25.2781 -0.0507351 0)
(26.5609 -0.0914058 0)
(26.4397 -0.0894216 0)
(25.1382 -0.0505921 0)
(21.3452 -0.0173886 0)
(21.2168 -0.0161706 0)
(25.0218 -0.0508589 0)
(26.3348 -0.0931104 0)
(26.2073 -0.0919541 0)
(24.878 -0.0513091 0)
(21.0794 -0.0174084 0)
(20.9494 -0.0164293 0)
(24.7573 -0.0519954 0)
(26.0966 -0.0958839 0)
(25.9629 -0.0956141 0)
(24.6086 -0.0530471 0)
(20.8086 -0.0179864 0)
(20.6736 -0.0172252 0)
(24.4826 -0.0540711 0)
(25.8463 -0.0996816 0)
(25.7069 -0.100058 0)
(24.3286 -0.0555364 0)
(20.5268 -0.0189506 0)
(20.3852 -0.0183704 0)
(24.1972 -0.0567596 0)
(25.5854 -0.104069 0)
(25.4422 -0.104956 0)
(24.0391 -0.0584373 0)
(20.2322 -0.0200872 0)
(20.084 -0.0198693 0)
(23.9034 -0.06024 0)
(25.3177 -0.109619 0)
(25.1693 -0.112014 6.90252e-19)
(23.7383 -0.0625578 0)
(19.9203 -0.021771 0)
(19.7559 -0.0218644 0)
(23.5896 -0.0653032 0)
(25.0337 -0.118122 0)
(24.8686 -0.121906 0)
(23.4067 -0.0683582 0)
(19.5724 -0.0240808 0)
(19.3941 -0.0236707 0)
(23.2461 -0.0704192 0)
(24.7219 -0.127187 0)
(24.5502 -0.13003 0)
(23.0555 -0.0731274 0)
(19.2006 -0.0259147 0)
(19.0123 -0.025213 0)
(22.8877 -0.0743605 0)
(24.3982 -0.133794 0)
(24.2218 -0.136546 0)
(22.6904 -0.0770407 0)
(18.8092 -0.0275186 0)
(18.6118 -0.0267889 0)
(22.5166 -0.0782394 0)
(24.0657 -0.140224 0)
(23.8841 -0.143489 6.90765e-19)
(22.3124 -0.0811671 0)
(18.3989 -0.0291845 0)
(18.1919 -0.0283989 0)
(22.1318 -0.0823088 0)
(23.7233 -0.147159 0)
(23.536 -0.150429 0)
(21.9203 -0.085208 0)
(17.9694 -0.0307896 0)
(17.7535 -0.0298929 0)
(21.7332 -0.0861551 0)
(23.3704 -0.153856 0)
(23.1779 -0.157009 0)
(21.515 -0.0889885 0)
(17.5223 -0.0322578 0)
(17.2989 -0.031227 0)
(21.3223 -0.0897203 0)
(23.0083 -0.160206 0)
(22.8113 -0.163179 0)
(21.0982 -0.0923525 0)
(17.0606 -0.033476 0)
(16.8317 -0.0321881 0)
(20.9006 -0.092618 0)
(22.6381 -0.166036 0)
(22.4365 -0.168612 6.91498e-19)
(20.6712 -0.0948086 0)
(16.5892 -0.0342186 0)
(16.3583 -0.0326124 0)
(20.4694 -0.0945208 0)
(22.2591 -0.171041 0)
(22.0524 -0.173255 0)
(20.2357 -0.09635 0)
(16.1153 -0.0344582 0)
(15.8853 -0.0326396 0)
(20.0301 -0.0957257 0)
(21.8701 -0.175569 0)
(21.6574 -0.177804 0)
(19.7921 -0.0974813 0)
(15.6441 -0.0344494 0)
(15.4158 -0.0325783 0)
(19.5822 -0.0968253 0)
(21.469 -0.180474 0)
(21.2486 -0.183077 0)
(19.3391 -0.0987783 0)
(15.1765 -0.0344698 0)
(14.9491 -0.0326665 0)
(19.1233 -0.0983209 0)
(21.0519 -0.18642 0)
(20.8218 -0.189561 6.92379e-19)
(18.8734 -0.100753 0)
(14.7102 -0.0347714 0)
(14.481 -0.0332115 0)
(18.6495 -0.100858 0)
(20.6147 -0.193902 0)
(20.373 -0.19809 0)
(18.3904 -0.104102 0)
(14.2387 -0.03568 0)
(14.0026 -0.0345157 0)
(18.155 -0.105137 0)
(20.1526 -0.204192 0)
(19.8953 -0.210386 0)
(17.8821 -0.10979 0)
(13.7507 -0.0375757 0)
(13.4989 -0.0374775 0)
(17.629 -0.112694 0)
(19.6565 -0.219495 0)
(19.3779 -0.228576 0)
(17.3346 -0.119259 0)
(13.2229 -0.0416021 0)
(12.9424 -0.0419701 0)
(17.0549 -0.123806 0)
(19.1138 -0.240982 0)
(18.8053 -0.253171 0)
(16.7287 -0.132158 0)
(12.6332 -0.0465498 0)
(12.3138 -0.0474113 0)
(16.4106 -0.138707 0)
(18.5056 -0.269796 0)
(18.1549 -0.286488 0)
(16.0389 -0.149616 0)
(11.9592 -0.0527799 0)
(11.5863 -0.0545515 0)
(15.6665 -0.159062 0)
(17.8054 -0.308869 0)
(17.3956 -0.332934 0)
(15.2292 -0.174278 0)
(11.1671 -0.0614495 0)
(10.7166 -0.0648193 0)
(14.7787 -0.188713 0)
(16.9772 -0.363003 0)
(16.4845 -0.399969 0)
(14.2467 -0.211738 0)
(10.2002 -0.0746561 0)
(9.62833 -0.0810846 0)
(13.6804 -0.235049 0)
(15.9686 -0.444252 0)
(15.3568 -0.503618 0)
(13.0035 -0.271641 0)
(8.95613 -0.0962035 0)
(8.18606 -0.108964 0)
(12.2567 -0.311462 0)
(14.6998 -0.574291 0)
(13.9109 -0.675957 0)
(11.3457 -0.372974 0)
(7.24708 -0.133292 0)
(6.12419 -0.158111 0)
(10.2941 -0.4466 0)
(13.0406 -0.802788 0)
(12.0009 -1.01389 0)
(8.9854 -0.604135 0)
(4.77793 -0.251191 0)
(2.5752 -0.352098 0)
(7.41838 -0.780519 0)
(10.9396 -1.19642 0)
(9.8109 -1.10328 0)
(5.73267 -0.676043 0)
(-0.213377 -0.197557 0)
(-1.2057 0.0469882 0)
(4.09974 -0.415769 0)
(8.52892 -0.932147 0)
(6.87805 -0.827069 0)
(2.18853 -0.242612 0)
(-1.56688 0.0400344 0)
(-1.78019 -0.0221091 0)
(0.957135 -0.126493 0)
(5.31822 -0.642727 0)
(3.93019 -0.426681 0)
(0.107989 -0.0857823 0)
(-2.08428 -0.0494814 0)
(-2.14631 -0.00299136 0)
(-0.15328 -0.0496256 0)
(3.06306 -0.209698 0)
(2.39629 0.0122049 0)
(-0.446302 -0.0261355 0)
(-2.22127 0.021067 0)
(-1.84656 0.0600405 0)
(-0.0124889 0.0450162 0)
(2.40507 0.159734 0)
(2.18012 0.151273 0)
(0.0387799 0.0590829 0)
(-1.60229 0.0422789 0)
(-1.06932 0.0428947 0)
(0.538788 0.0762442 0)
(2.34318 0.136513 0)
(2.174 0.028516 0)
(0.524257 0.0307465 0)
(-0.93894 0.0117704 0)
(-0.61131 0.0184058 0)
(0.838905 0.0635077 0)
(2.32329 0.0680685 0)
(2.27662 0.00277557 0)
(0.886593 0.045961 0)
(-0.448031 -0.00427466 0)
(-0.21022 0.0160259 0)
(1.16754 0.0987461 0)
(2.53894 0.114036 0)
(2.71403 0.114348 0)
(1.47098 0.114882 0)
(0.214975 0.0198537 0)
(0.569935 0.0298248 0)
(1.87036 0.146175 0)
(3.10695 0.193397 0)
(3.43832 0.204117 0)
(2.329 0.156671 0)
(1.12748 0.0373135 0)
(1.64082 0.0415953 6.31258e-20)
(2.84409 0.169446 0)
(3.9076 0.250891 0)
(4.29807 0.240536 0)
(3.35374 0.165022 0)
(2.19287 0.0392965 -6.31234e-20)
(2.75837 0.0425825 6.31172e-20)
(3.91627 0.174087 0)
(4.78916 0.274926 0)
(5.21079 0.253003 0)
(4.45375 0.16166 0)
(3.2893 0.0355706 -6.31133e-20)
(3.83702 0.0387701 6.31051e-20)
(5.02395 0.168547 0)
(5.7042 0.281066 0)
(6.15588 0.259812 0)
(5.57393 0.15615 0)
(4.34564 0.0332036 -6.31011e-20)
(4.8737 0.0370502 6.30923e-20)
(6.14542 0.163824 0)
(6.66229 0.287872 0)
(7.1495 0.270814 0)
(6.7067 0.153059 0)
(5.37063 0.0332598 -6.30892e-20)
(5.88992 0.0372189 6.30807e-20)
(7.289 0.162401 0)
(7.67871 0.29967 0)
(8.20091 0.286144 0)
(7.86736 0.153223 0)
(6.38537 0.034466 -6.30786e-20)
(6.90807 0.0389292 6.30695e-20)
(8.46177 0.162266 0)
(8.75219 0.311422 0)
(9.30067 0.29826 0)
(9.05155 0.151994 0)
(7.40633 0.0364482 -6.30673e-20)
(7.92434 0.0394989 6.30571e-20)
(9.64907 0.157499 0)
(9.86302 0.315828 0)
(10.4197 0.299739 0)
(10.2366 0.145745 0)
(8.40868 0.0363844 -6.30553e-20)
(8.90214 0.0373731 6.30449e-20)
(10.8205 0.146376 0)
(10.9741 0.307011 0)
(11.5168 0.287539 0)
(11.3863 0.133363 0)
(9.35074 0.0336699 -6.3044e-20)
(9.7999 0.0329971 6.30336e-20)
(11.9375 0.129525 0)
(12.0431 0.28504 0)
(12.5522 0.263338 0)
(12.4629 0.115984 0)
(10.1951 0.0290757 -6.30337e-20)
(10.5861 0.0273504 6.30233e-20)
(12.9647 0.108822 0)
(13.0337 0.253316 0)
(13.4948 0.231036 0)
(13.4353 0.0956775 0)
(10.9173 0.0237048 -6.30239e-20)
(11.2438 0.0214842 6.30132e-20)
(13.8768 0.0865301 0)
(13.9204 0.216631 0)
(14.325 0.196101 0)
(14.2849 0.0745947 0)
(11.5083 0.0184059 -6.30134e-20)
(11.7706 0.0160711 6.30024e-20)
(14.6628 0.0643443 0)
(14.6903 0.179863 0)
(15.0373 0.162529 0)
(15.0083 0.0540598 0)
(11.9711 0.0138236 -6.30033e-20)
(12.1739 0.0118365 5.66964e-19)
(15.3243 0.0433455 4.19448e-19)
(15.3441 0.145426 -1.39943e-18)
(15.6359 0.130905 0)
(15.6087 0.0350413 0)
(12.3173 0.0106846 -6.29973e-20)
(12.4701 0.00966509 6.29906e-20)
(15.864 0.0249201 0)
(15.887 0.113364 -6.99623e-19)
(16.1264 0.100957 0)
(16.0868 0.0188546 0)
(12.5696 0.00956708 -6.29964e-20)
(12.6837 0.00946007 6.29918e-20)
(16.2817 0.0100465 0)
(16.3238 0.0828104 0)
(16.5111 0.0716425 0)
(16.4402 0.00650714 0)
(12.7537 0.0097508 -6.2997e-20)
(12.8363 0.00903554 6.29923e-20)
(16.5779 -0.000665834 0)
(16.655 0.0533366 0)
(16.787 0.0438005 0)
(16.6785 -0.00153476 0)
(12.884 0.00902519 -6.29957e-20)
(12.9435 0.00790101 6.29909e-20)
(16.7664 -0.00704495 0)
(16.879 0.0271056 0)
(16.9584 0.0208621 0)
(16.8203 -0.00606461 0)
(12.9753 0.00784644 -6.29923e-20)
(13.019 0.00671597 6.2988e-20)
(16.87 -0.0104485 0)
(17.0079 0.00738461 0)
(17.0478 0.00513317 0)
(16.8912 -0.00819161 0)
(13.0403 0.0068153 -6.29885e-20)
(13.0743 0.00580727 6.29852e-20)
(16.9159 -0.011836 0)
(17.0679 -0.00487254 0)
(17.0832 -0.00356958 0)
(16.9179 -0.00876422 0)
(13.0894 0.00605645 -6.29855e-20)
(13.1182 0.00513376 6.29829e-20)
(16.929 -0.0118575 0)
(17.0867 -0.0107058 0)
(17.0899 -0.00699302 0)
(16.9221 -0.00845156 0)
(13.1298 0.00550739 -6.29829e-20)
(13.1558 0.00465086 6.29809e-20)
(16.9277 -0.0112432 0)
(17.0863 -0.0123335 0)
(17.0851 -0.00733925 0)
(16.9178 -0.00776179 0)
(13.1651 0.00508703 -6.298e-20)
(13.1893 0.00427487 6.29779e-20)
(16.922 -0.0104079 0)
(17.0797 -0.0118242 0)
(17.0785 -0.00630097 0)
(16.9125 -0.00695744 0)
(13.1974 0.00474547 -6.29757e-20)
(13.2212 0.00397625 6.29726e-20)
(16.9181 -0.00954096 0)
(17.0746 -0.0104323 0)
(17.0759 -0.00483205 0)
(16.911 -0.00620557 0)
(13.2294 0.00447041 -6.29679e-20)
(13.2533 0.00374437 6.29622e-20)
(16.919 -0.00870218 0)
(17.075 -0.00871799 0)
(17.0786 -0.00381916 0)
(16.9136 -0.00591418 0)
(13.2609 0.00414213 -6.29536e-20)
(13.2826 0.00341865 6.29449e-20)
(16.922 -0.00845766 0)
(17.0787 -0.00770841 0)
(17.0829 -0.00315343 0)
(16.9163 -0.00584299 0)
(13.2877 0.00386668 -6.29322e-20)
(13.3065 0.00306896 6.29217e-20)
(16.9239 -0.00868636 0)
(17.0831 -0.00736938 0)
(17.0866 -0.0026819 0)
(16.9167 -0.00595034 0)
(13.3083 0.00361314 -6.29065e-20)
(13.3237 0.00282466 6.28956e-20)
(16.9227 -0.008805 0)
(17.086 -0.00689827 0)
(17.0888 -0.00229525 0)
(16.9144 -0.00602426 0)
(13.3229 0.00341647 -6.28792e-20)
(13.3365 0.00264736 6.28696e-20)
(16.9199 -0.00882012 0)
(17.0881 -0.00644442 0)
(17.0905 -0.00180061 0)
(16.9113 -0.00588353 0)
(13.3345 0.00332727 -6.2853e-20)
(13.3468 0.00262485 6.28454e-20)
(16.916 -0.00846629 0)
(17.0889 -0.00567074 0)
(17.09 -0.00109503 0)
(16.9065 -0.00544415 0)
(13.3434 0.00336148 -6.28294e-20)
(13.3553 0.00270376 6.28235e-20)
(16.9104 -0.00791343 0)
(17.0872 -0.00491362 -6.96981e-19)
(17.0874 -0.000388764 0)
(16.9005 -0.00486661 0)
(13.3517 0.00348246 -6.28079e-20)
(13.364 0.00287587 6.28035e-20)
(16.9037 -0.00724887 0)
(17.0838 -0.00409091 0)
(17.0834 0.000580688 0)
(16.8936 -0.00414797 0)
(13.3606 0.0037026 -6.27882e-20)
(13.3739 0.00314294 6.27854e-20)
(16.8965 -0.00643329 0)
(17.0799 -0.00287574 0)
(17.0804 0.00212711 0)
(16.887 -0.00322724 0)
(13.3716 0.00403625 -6.277e-20)
(13.3873 0.00356292 6.27687e-20)
(16.891 -0.00536777 0)
(17.0788 -0.000923523 0)
(17.0822 0.00460607 0)
(16.8838 -0.00204817 0)
(13.3872 0.00477745 -6.27229e-20)
(13.4064 0.00416432 6.26604e-20)
(16.8901 -0.00379327 0)
(17.084 0.00195009 -6.95221e-19)
(17.092 0.00809987 -6.92109e-19)
(16.8875 0.000320119 3.10951e-19)
(13.4097 0.00526393 -5.59674e-19)
(13.435 0.00484457 0)
(16.8983 -0.000644964 -1.20411e-23)
(17.0978 0.00610345 0)
(17.1132 0.0143582 -6.75885e-19)
(16.9036 0.00489624 1.00642e-19)
(13.4441 0.00797771 0)
(13.4965 0.0089313 -9.77398e-19)
(16.9217 0.00466074 6.34835e-25)
(17.1238 0.0123617 -6.73987e-19)
(17.1465 0.0213149 0)
(16.9433 0.0122496 0)
(13.5327 0.0126749 9.13681e-19)
(13.6212 0.0192023 -2.47405e-19)
(16.9705 0.0216878 -4.06464e-18)
(17.1556 0.0206368 4.47826e-24)
(17.162 0.029187 5.17666e-18)
(16.9987 0.0435156 0)
(13.764 0.0349011 -1.5752e-18)
(14.0373 0.062036 -2.0313e-18)
(17.0117 0.060324 1.61432e-17)
(17.1274 0.0198083 -2.94079e-23)
(17.1059 -0.0505352 -3.76494e-17)
(17.1321 0.022767 1.05635e-18)
(14.6143 0.062494 0)
(14.5688 0.0722015 0)
(16.6704 0.0902874 -8.93298e-19)
(16.9618 0.0966334 7.50259e-19)
(16.8562 0.0936548 -7.60451e-18)
(16.7394 0.0751958 -6.21757e-23)
(16.4728 0.0931506 1.33902e-17)
(16.3178 0.131018 -1.95366e-19)
(16.2789 0.0946324 -2.8942e-18)
(15.8717 0.190894 2.90581e-18)
(15.8286 0.118937 0)
(15.9097 0.186395 0)
(15.9413 0.0910255 6.27858e-19)
(16.184 0.17275 8.10428e-19)
(16.1884 0.0709383 -1.80652e-19)
(16.2324 0.14497 9.15493e-19)
(16.2363 0.0476659 -1.48739e-18)
(16.1578 0.109911 7.65026e-19)
(16.15 0.0375932 0)
(16.1276 0.0651302 -1.30988e-17)
(16.1243 0.0381871 -1.52493e-17)
(16.2081 0.0293098 0)
(16.3043 0.0219463 -5.46358e-19)
(16.4073 0.0129081 0)
(16.6139 0.0244868 0)
(16.9093 0.0292612 2.73157e-18)
(16.6359 0.00843072 -7.06585e-18)
(14.5131 -0.0280386 0)
(8.51977 -0.0223446 -3.70835e-19)
(8.18165 -0.0383383 3.4987e-19)
(14.3191 -0.0656243 -8.678e-18)
(16.5899 -0.0253778 2.04481e-17)
(16.5623 -0.0498283 8.25953e-19)
(14.105 -0.0724672 2.7328e-18)
(7.78784 -0.0377242 -2.87999e-18)
(7.50121 -0.0278598 0)
(13.9432 -0.0558199 -1.46172e-18)
(16.5572 -0.0492074 -3.76451e-18)
(16.5615 -0.0340423 0)
(13.8694 -0.034902 9.60481e-19)
(7.27331 -0.0165809 0)
(7.22033 -0.00991399 0)
(13.8303 -0.0161942 2.2578e-19)
(16.5625 -0.0164128 -1.22387e-18)
(16.5582 -0.0141772 -1.05121e-23)
(13.7966 -0.0133918 -2.25851e-19)
(7.10371 -0.00909363 0)
(7.07849 -0.00196195 0)
(13.7687 -0.00532385 0)
(16.5612 -0.00792176 -1.71174e-19)
(16.5629 -0.00232308 0)
(13.7654 -0.00185812 0)
(7.07099 -0.000686443 0)
(7.06732 0.00020625 0)
(13.7641 -0.000394343 0)
(16.5641 9.36556e-05 0)
(16.5652 0.000859423 0)
(13.764 -0.000537647 0)
(7.06807 0.000893229 0)
(7.06899 0.00120332 0)
(13.7643 -0.00048869 0)
(16.5663 0.00166133 0)
(16.568 0.00215411 0)
(13.7653 -0.000573507 0)
(7.07062 0.00145054 0)
(7.07306 0.00156694 0)
(13.7669 -0.000387827 0)
(16.5698 0.00298616 -1.70839e-19)
(16.5716 0.00287179 1.7119e-19)
(13.7687 -0.000920864 0)
(7.07521 0.00168891 0)
(7.0771 0.00216218 0)
(13.7695 -0.00112844 0)
(16.5732 0.0031822 0)
(16.5752 0.00332447 0)
(13.7703 -0.000984219 0)
(7.07941 0.00217868 0)
(7.08232 0.00182492 0)
(13.7715 -0.000351247 0)
(16.5769 0.00328333 0)
(16.5782 0.00244351 0)
(13.7727 -0.000115826 0)
(7.08453 0.00106484 0)
(7.08597 0.0016262 0)
(13.773 -0.000436639 0)
(16.5789 0.00267544 0)
(16.58 0.00262525 0)
(13.7731 -0.000293464 0)
(7.088 0.00154576 0)
(7.08998 0.0011147 0)
(13.7735 0.000274215 0)
(16.581 0.00275742 0)
(16.5818 0.00231482 0)
(13.7736 -0.000153934 0)
(7.0918 0.00112159 0)
(7.09268 0.00164499 0)
(13.773 -0.000447443 0)
(16.5821 0.00253594 0)
(16.5825 0.00243989 0)
(13.7721 -0.000323865 0)
(7.09414 0.00156257 0)
(7.09551 0.00115444 0)
(13.7715 0.000236761 0)
(16.5828 0.00254637 0)
(16.5828 0.00206623 0)
(13.7706 -0.000126957 0)
(7.09682 0.00112901 0)
(7.09722 0.00158012 0)
(13.7691 -0.000344313 0)
(16.5822 0.00221275 0)
(16.5816 0.00201225 0)
(13.7673 -0.000186361 0)
(7.09825 0.00146522 0)
(7.09924 0.00106867 0)
(13.7657 0.000433012 0)
(16.5809 0.00205384 0)
(16.5797 0.00151594 0)
(13.7641 0.000192592 0)
(7.10027 0.000978573 0)
(7.10044 0.00132141 0)
(13.7617 9.11727e-05 0)
(16.5779 0.00160599 0)
(16.5758 0.00137349 0)
(13.7591 0.000258653 0)
(7.10117 0.00117476 0)
(7.10166 0.000814156 0)
(13.7567 0.000802925 0)
(16.5734 0.0014925 0)
(16.5705 0.00106111 0)
(13.754 0.000441815 0)
(7.10191 0.000745354 0)
(7.10102 0.00120928 0)
(13.7506 0.000147579 0)
(16.5668 0.00133318 0)
(16.5631 0.00150549 0)
(13.7466 -0.000134429 0)
(7.10067 0.00157594 -1.46065e-19)
(7.1006 0.00137896 1.45934e-19)
(13.7426 0.000357286 0)
(16.559 0.00165255 0)
(16.5541 0.00103936 0)
(13.7388 0.000419916 0)
(7.10003 0.000842205 0)
(7.0985 0.00121178 0)
(13.7342 0.000203088 0)
(16.5484 0.00122312 0)
(16.5427 0.00130084 0)
(13.7291 -4.3509e-05 0)
(7.09739 0.00152296 0)
(7.09658 0.00139425 0)
(13.7238 0.000400948 0)
(16.5364 0.00151526 0)
(16.5294 0.000943894 0)
(13.7186 0.000427742 0)
(7.09524 0.000918228 0)
(7.09286 0.00120386 0)
(13.7126 0.000282158 0)
(16.5215 0.00106452 0)
(16.5133 0.00102627 0)
(13.7058 4.43017e-05 0)
(7.09068 0.00146284 0)
(7.08868 0.00138876 0)
(13.6987 0.000434639 0)
(16.5045 0.00124889 0)
(16.495 0.000644685 0)
(13.6916 0.000427005 0)
(7.08617 0.000968712 0)
(7.08268 0.00115633 0)
(13.6837 0.000338769 0)
(16.4846 0.000648906 0)
(16.474 0.000478529 0)
(13.6751 8.50221e-05 0)
(7.07938 0.00134751 0)
(7.07634 0.0013379 0)
(13.6661 0.000418802 0)
(16.4628 0.000729291 0)
(16.4511 0.000132526 0)
(13.6573 0.000350499 0)
(7.0729 0.000982901 0)
(7.06838 0.00107837 0)
(13.6476 0.000293588 0)
(16.4383 5.66778e-05 0)
(16.425 -0.000243459 0)
(13.637 -8.63687e-06 0)
(7.06374 0.00121778 0)
(7.05908 0.00129453 0)
(13.6255 0.000248722 0)
(16.411 8.025e-05 0)
(16.396 -0.000461357 0)
(13.6143 0.000126532 0)
(7.05389 0.00101153 0)
(7.04744 0.00101276 0)
(13.6019 7.91779e-05 0)
(16.3798 -0.000592721 0)
(16.363 -0.00101006 0)
(13.5885 -0.000291858 0)
(7.04062 0.00110402 0)
(7.03369 0.00129537 0)
(13.5739 -0.000166598 0)
(16.3455 -0.00065676 0)
(16.3272 -0.00112707 0)
(13.5597 -0.000347865 0)
(7.02645 0.00111267 0)
(7.01812 0.00103172 0)
(13.5446 -0.000390326 0)
(16.308 -0.00130657 0)
(16.2883 -0.00179194 0)
(13.5285 -0.000809439 0)
(7.00938 0.00108389 0)
(7.00048 0.00140492 0)
(13.511 -0.00080384 0)
(16.2682 -0.00143129 0)
(16.2476 -0.00180052 0)
(13.4938 -0.000974334 0)
(6.99153 0.00136636 0)
(6.98176 0.00121122 0)
(13.4758 -0.00089196 0)
(16.2262 -0.00197818 0)
(16.2044 -0.00259555 0)
(13.4571 -0.00123729 0)
(6.9716 0.00119562 0)
(6.96077 0.00133243 0)
(13.4373 -0.00108036 0)
(16.1824 -0.00252744 0)
(16.1603 -0.00305085 0)
(13.4175 -0.00104768 0)
(6.95043 0.00114423 0)
(6.93927 0.000973563 0)
(13.3971 -0.000881783 0)
(16.1381 -0.00318331 0)
(16.1158 -0.00391763 0)
(13.376 -0.00127587 0)
(6.92805 0.000909775 0)
(6.91547 0.00102655 0)
(13.3538 -0.00119115 0)
(16.0935 -0.00399754 0)
(16.071 -0.0047633 0)
(13.3309 -0.00112413 0)
(6.90344 0.000793279 0)
(6.89009 0.000517509 0)
(13.3071 -0.000874497 0)
(16.0482 -0.00512492 0)
(16.025 -0.00595883 0)
(13.2818 -0.00126959 0)
(6.87651 0.000224271 0)
(6.86093 0.000657741 0)
(13.2551 -0.0016496 0)
(16.0016 -0.00575631 0)
(15.9777 -0.00638931 0)
(13.2273 -0.00202823 0)
(6.84537 0.000817788 0)
(6.82868 0.000351899 0)
(13.1985 -0.00163583 0)
(15.9526 -0.00678745 0)
(15.9264 -0.00753991 0)
(13.1687 -0.00195985 0)
(6.81143 -2.49136e-05 0)
(6.79216 0.000542431 0)
(13.1377 -0.00251102 0)
(15.8994 -0.00713643 0)
(15.8715 -0.00758005 0)
(13.1058 -0.00305665 0)
(6.77289 0.00090722 0)
(6.75267 0.000483654 0)
(13.0732 -0.00279921 0)
(15.8427 -0.00777483 0)
(15.813 -0.00857614 0)
(13.0396 -0.00337247 0)
(6.73193 0.000392583 0)
(6.70875 0.000546505 0)
(13.0051 -0.00346912 0)
(15.7828 -0.00865895 0)
(15.7525 -0.00946305 0)
(12.9703 -0.00339629 0)
(6.6852 -0.000111991 0)
(6.65927 -0.00101525 0)
(12.9356 -0.00278628 0)
(15.7222 -0.00945417 0)
(15.6928 -0.00964087 0)
(12.9017 -0.00280345 0)
(6.63253 -0.0017554 0)
(6.6036 -0.0013855 0)
(12.8689 -0.00298367 0)
(15.665 -0.00827447 1.71552e-19)
(15.6392 -0.00739115 -1.71893e-19)
(12.8389 -0.00227833 0)
(6.57545 -0.00128329 0)
(6.54982 -0.00109676 0)
(12.8125 0.000472615 0)
(15.6158 -0.00470894 0)
(15.5951 -0.00064041 0)
(12.7918 0.0042303 0)
(6.53416 -0.000385079 0)
(6.5322 0.000565364 0)
(12.7807 0.00941508 0)
(15.579 0.00615808 0)
(15.5704 0.0147943 0)
(12.7827 0.0158483 0)
(6.54517 0.00167075 0)
(6.5825 0.00384691 0)
(12.8035 0.0250973 0)
(15.573 0.0275056 0)
(15.5928 0.045308 1.71893e-19)
(12.8544 0.0376871 0)
(6.66342 0.00709905 0)
(6.80438 0.0153229 0)
(12.942 0.0619141 0)
(15.6307 0.0790965 -1.72447e-19)
(15.6792 0.141948 -2.77091e-18)
(13.0543 0.119496 2.96908e-24)
(6.96184 0.0484111 2.33539e-18)
(7.12556 0.0728993 -9.28961e-18)
(13.1742 0.173004 -9.41991e-24)
(15.7202 0.210142 2.59503e-18)
(15.7502 0.298572 -2.5804e-18)
(13.2806 0.254624 -7.17643e-18)
(7.29958 0.122411 9.20276e-18)
(7.48142 0.177632 1.45247e-19)
(13.3371 0.339131 -7.15188e-18)
(15.7597 0.387893 5.45688e-18)
(15.7688 0.481899 -5.59097e-18)
(13.4673 0.419601 0)
(7.67481 0.219166 0)
(7.87913 0.275787 1.83453e-17)
(13.5427 0.496141 -1.40457e-17)
(15.7782 0.568385 -5.21134e-18)
(15.7799 0.651227 0)
(13.6513 0.567731 -1.38991e-17)
(8.12851 0.326333 1.82135e-17)
(8.4122 0.382248 1.80831e-17)
(13.7729 0.641909 -4.3114e-19)
(15.7935 0.73556 0)
(15.7854 0.824752 0)
(13.8881 0.728046 4.31826e-19)
(8.70317 0.452023 -5.64564e-19)
(8.98947 0.512427 -1.66818e-17)
(14.0107 0.795087 0)
(15.7798 0.903249 0)
(15.7732 0.96712 -1.05378e-17)
(14.1363 0.845575 1.38181e-17)
(9.30599 0.569355 -1.86518e-17)
(9.65832 0.644078 0)
(14.2576 0.898336 1.69506e-18)
(15.7729 1.02578 0)
(15.7777 1.08128 -9.97582e-18)
(14.3826 0.941219 -1.67935e-18)
(10.0788 0.717496 -4.53079e-18)
(10.3867 0.771894 2.08866e-17)
(14.4815 1.02276 -3.54418e-17)
(15.738 1.16122 2.46833e-17)
(15.546 0.993299 3.10158e-17)
(14.2813 0.906815 -5.72643e-17)
(10.3653 0.598514 -2.08281e-17)
(5.97847 0.268881 -3.22984e-17)
(12.2344 0.494923 -3.20523e-18)
(14.8626 0.39456 -1.64331e-17)
(15.5086 1.01116 -3.62074e-18)
(12.857 0.945255 4.81172e-18)
(6.96366 0.501043 -3.16926e-18)
(6.82915 0.525169 1.42355e-18)
(12.8898 1.04902 -2.1648e-18)
(15.5264 1.22055 -1.6492e-18)
(15.523 1.32355 5.38619e-17)
(12.9581 1.12544 -3.46545e-23)
(7.02359 0.577036 -4.55229e-17)
(7.33164 0.651197 3.39958e-19)
(13.0584 1.20858 6.63526e-17)
(15.5083 1.40283 5.40155e-23)
(15.5981 1.48205 2.52267e-17)
(13.2882 1.27389 -3.25309e-17)
(7.72681 0.711291 4.26264e-17)
(8.20515 0.784118 -3.24734e-19)
(13.5112 1.33986 1.23502e-19)
(15.6686 1.55239 2.38962e-17)
(15.7721 1.65394 -2.44547e-17)
(13.7962 1.44002 3.09273e-17)
(8.69329 0.885336 -3.15647e-19)
(9.20459 0.975777 6.29617e-19)
(14.0323 1.49696 2.89206e-17)
(15.8314 1.71945 -2.41916e-17)
(15.9334 1.80245 -1.84812e-17)
(14.3176 1.58192 -2.7846e-17)
(9.73209 1.09249 4.12776e-17)
(10.3112 1.18616 -2.41807e-18)
(14.5928 1.62593 0)
(16.0272 1.85513 -2.68899e-18)
(16.093 1.95478 0)
(14.8284 1.71851 2.46547e-17)
(10.8404 1.27778 -7.02171e-17)
(10.9885 1.18871 5.20585e-17)
(14.799 1.69702 0)
(15.9955 1.84487 -1.31214e-16)
(15.409 1.26855 1.09817e-17)
(13.0984 1.23038 -3.21831e-18)
(7.60971 0.739506 -3.85117e-18)
(8.87787 1.06365 0)
(13.9841 1.73145 -2.36434e-18)
(16.101 1.89361 -7.13505e-18)
(16.2249 2.09598 0)
(14.2242 1.86087 -3.27806e-17)
(9.18415 1.15979 4.31965e-17)
(9.76521 1.26405 6.45855e-19)
(14.5969 1.95796 -9.8398e-19)
(16.3704 2.21111 0)
(16.4806 2.32009 3.88393e-23)
(14.8847 2.08151 2.86254e-17)
(10.2941 1.42061 -3.96801e-17)
(10.8291 1.53862 3.52766e-17)
(15.1554 2.14971 3.56938e-18)
(16.5581 2.38478 0)
(16.6195 2.45722 2.03253e-17)
(15.4321 2.23482 -1.70379e-18)
(11.4079 1.66663 -2.29468e-18)
(11.8074 1.78842 4.19094e-18)
(15.5822 2.36727 0)
(16.5961 2.5502 -3.29046e-17)
(16.4238 2.4227 -3.83835e-18)
(15.5194 2.28176 2.3523e-18)
(11.997 1.68747 4.71099e-17)
(9.13672 1.25986 0)
(14.2116 1.92435 -3.15543e-18)
(16.044 2.06032 8.14461e-18)
(16.511 2.56017 3.88371e-17)
(14.9584 2.39433 -7.62698e-17)
(10.3056 1.61796 9.89217e-17)
(10.6934 1.75188 -4.45431e-17)
(15.1066 2.50699 -3.26144e-17)
(16.4418 2.70295 1.58292e-18)
(16.3159 2.77435 -2.44393e-17)
(15.2189 2.61583 -3.22534e-17)
(11.213 1.94324 8.57618e-17)
(11.7187 2.09293 0)
(15.2544 2.65662 3.80866e-18)
(16.1456 2.79889 0)
(15.9428 2.85523 0)
(15.2759 2.73064 9.73919e-18)
(12.1972 2.23422 0)
(12.344 2.29066 0)
(15.0574 2.78313 -2.03528e-17)
(15.5781 2.8006 0)
(15.2386 2.61394 -2.5723e-17)
(14.1038 2.49631 2.65232e-17)
(10.2165 1.85194 0)
(11.3762 2.20468 1.02851e-16)
(14.5596 2.8094 3.00789e-19)
(15.3725 2.88154 -1.82563e-18)
(15.0966 2.97053 -2.49357e-17)
(14.4558 2.94683 3.30316e-17)
(11.645 2.42134 -8.87616e-17)
(11.9002 2.51649 8.24015e-17)
(14.2739 2.91407 -6.11079e-17)
(14.7676 2.93205 -2.22187e-17)
(14.3972 2.94459 -3.52498e-17)
(14.0377 2.96389 9.00761e-17)
(11.9837 2.63022 -1.55198e-16)
(11.7899 2.61816 2.15377e-16)
(13.5564 2.91121 1.0048e-16)
(13.8628 2.82375 -5.12248e-22)
(13.4724 2.77966 -7.24557e-19)
(12.7829 2.70967 -8.44016e-19)
(9.97239 2.18937 -1.01968e-18)
(10.5535 2.57848 1.03869e-16)
(12.719 3.01731 6.11294e-19)
(13.2079 2.94848 0)
(12.6309 2.87799 9.93942e-17)
(12.2404 2.94213 -6.76685e-17)
(10.3361 2.60722 -2.4942e-18)
(10.2635 2.71753 2.52408e-18)
(11.7646 2.9279 0)
(12.0228 2.83445 -5.70062e-17)
(11.2664 2.69274 -3.47479e-17)
(11.0772 2.87925 0)
(9.85379 2.71705 3.37436e-18)
(8.29942 2.2745 -1.42149e-16)
(10.2925 2.70291 1.12691e-16)
(10.7526 2.69614 0)
(10.2306 2.70608 -5.89572e-17)
(9.87868 2.88089 7.86786e-17)
(8.5662 2.6283 2.05423e-19)
(8.09188 2.52552 8.98918e-17)
(9.15573 2.63897 0)
(9.45218 2.43856 0)
(8.56508 2.17294 0)
(8.35643 2.50374 -5.48855e-17)
(7.59259 2.54934 1.58102e-16)
(6.706 2.3056 0)
(7.2336 2.13679 0)
(7.3829 1.74307 -8.26608e-18)
(6.46385 1.7635 1.12342e-17)
(6.09614 1.99711 0)
(5.04509 1.87543 -1.34489e-16)
(4.58166 1.82842 -1.22852e-17)
(5.14872 1.67841 -1.3522e-16)
(5.41272 1.21548 4.73925e-21)
(3.77824 0.474743 -4.80035e-18)
(3.58168 0.990431 6.07783e-18)
(3.31012 1.31476 1.91828e-17)
(1.42298 0.598427 -4.60224e-18)
(2.10829 0.566999 -1.49903e-17)
(2.5993 0.213213 1.83872e-17)
(1.42872 -1.12803 -8.6973e-17)
(1.03891 -0.37305 1.2497e-16)
(0.736837 0.17626 -1.26426e-17)
(-1.63854 -1.36591 2.52042e-16)
(-1.57362 -2.17095 -1.57367e-16)
(-1.06866 -2.96967 0)
(-2.26019 -4.6991 -7.25635e-17)
(-2.99771 -3.80655 -1.20365e-17)
(-3.57639 -3.18801 0)
(-6.21073 -6.09555 0)
(-5.85182 -7.34171 1.84426e-17)
(-4.99539 -8.07032 -9.34386e-18)
(-5.37613 -13.1609 -1.30953e-16)
(-7.38788 -12.5702 3.58401e-16)
(-9.14419 -12.1773 -2.42438e-16)
(-9.79174 -21.311 1.98271e-16)
(-7.44028 -21.7029 -2.71325e-16)