/*--------------------------------*- C++ -*----------------------------------*\
| =========                 |                                                 |
| \\      /  F ield         | OpenFOAM: The Open Source CFD Toolbox           |
|  \\    /   O peration     | Version:  v2006                                 |
|   \\  /    A nd           | Website:  www.openfoam.com                      |
|    \\/     M anipulation  |                                                 |
\*---------------------------------------------------------------------------*/
FoamFile
{
    version     2.0;
    format      ascii;
    class       volScalarField;
    location    "0.096";
    object      alphat;
}
// * * * * * * * * * * * * * * * * * * * * * * * * * * * * * * * * * * * * * //

dimensions      [1 -1 -1 0 0 0 0];


internalField   nonuniform List<scalar> 
16277
(
38.002
25.9044
91.1986
18.6507
27.4407
15.4041
6.33815
2.60906
1.41141
0.953614
0.750048
0.646736
0.584979
0.540163
0.502429
0.468463
0.43755
0.409747
0.385087
0.3634
0.34435
0.32754
0.312586
0.299163
0.287014
0.275942
0.265795
0.256459
0.247841
0.239866
0.232471
0.225602
0.219214
0.213266
0.207724
0.202558
0.197742
0.193254
0.189073
0.18518
0.18156
0.178199
0.175084
0.172204
0.169551
0.167115
0.164889
0.162869
0.161048
0.159425
0.157997
0.156761
0.155719
0.154871
0.154217
0.153762
0.153512
0.153473
0.153651
0.154053
0.15469
0.155576
0.156726
0.158159
0.159897
0.161966
0.164396
0.167224
0.170498
0.174279
0.178647
0.183708
0.189599
0.196479
0.204505
0.213786
0.224328
0.23605
0.249059
0.264494
0.286352
0.32598
0.412513
0.621822
1.15816
2.43445
4.29691
4.59452
2.72281
1.79827
0.885726
0.403921
0.219641
0.103636
0.0245575
0.00441851
0.0001464
0.000127053
0.00207672
0.00956436
0.00527014
0.00134567
0.000111279
9.96364e-05
0.00122688
0.00443174
0.00353615
0.00105453
9.20684e-05
8.61337e-05
0.00102197
0.00335341
0.00290154
0.000920529
8.10795e-05
7.76725e-05
0.000904693
0.0028263
0.00257242
0.000843072
7.4314e-05
7.24982e-05
0.000848152
0.00254624
0.00238182
0.000803041
7.02798e-05
6.90873e-05
0.000810249
0.00236723
0.00224241
0.000773925
6.74506e-05
6.66264e-05
0.000781079
0.00223589
0.00213273
0.00075027
6.53477e-05
6.47499e-05
0.000757219
0.0021307
0.00204133
0.000730108
6.37116e-05
6.32624e-05
0.000737034
0.00204219
0.00196266
0.000712412
6.23846e-05
6.20306e-05
0.000719366
0.00196542
0.00189328
0.000696439
6.12594e-05
6.09711e-05
0.000703313
0.00189731
0.00183098
0.000681711
6.02781e-05
6.00359e-05
0.000688501
0.00183591
0.0017744
0.000668009
5.93998e-05
5.919e-05
0.000674728
0.00178
0.00172256
0.000655201
5.85971e-05
5.84112e-05
0.00066186
0.00172874
0.00167471
0.00064318
5.7852e-05
5.76843e-05
0.000649776
0.00168141
0.00163039
0.000631842
5.71522e-05
5.69986e-05
0.000638372
0.00163754
0.0015892
0.00062111
5.64886e-05
5.63462e-05
0.000627576
0.00159675
0.00155086
0.000610928
5.58546e-05
5.5721e-05
0.000617344
0.00155876
0.0015151
0.000601272
5.52452e-05
5.51192e-05
0.00060764
0.00152328
0.00148162
0.000592099
5.46569e-05
5.45376e-05
0.000598416
0.00149002
0.00145017
0.000583358
5.40868e-05
5.39732e-05
0.00058962
0.00145872
0.00142048
0.000575001
5.35321e-05
5.34234e-05
0.000581202
0.00142913
0.00139234
0.000566978
5.29901e-05
5.28855e-05
0.000573115
0.00140106
0.00136558
0.000559246
5.24584e-05
5.2357e-05
0.000565311
0.00137432
0.00134001
0.000551758
5.19344e-05
5.18355e-05
0.000557746
0.00134875
0.00131551
0.000544475
5.14159e-05
5.13187e-05
0.000550381
0.00132422
0.00129195
0.000537362
5.09006e-05
5.08045e-05
0.000543182
0.0013006
0.00126922
0.000530389
5.03866e-05
5.02909e-05
0.000536121
0.0012778
0.00124722
0.00052353
4.98718e-05
4.9776e-05
0.000529171
0.00125571
0.00122588
0.000516763
4.93545e-05
4.92579e-05
0.000522314
0.00123428
0.00120514
0.000510073
4.88329e-05
4.87351e-05
0.000515534
0.00121344
0.00118495
0.000503447
4.83055e-05
4.82062e-05
0.000508822
0.00119316
0.00116529
0.000496881
4.77709e-05
4.76701e-05
0.000502189
0.0011734
0.00114612
0.000490377
4.72281e-05
4.71257e-05
0.000495675
0.00115417
0.00112746
0.000483959
4.66766e-05
4.65726e-05
0.000489229
0.00113545
0.0011093
0.000477601
4.61156e-05
4.60101e-05
0.000482866
0.00111724
0.00109163
0.000471327
4.55447e-05
4.54379e-05
0.000476608
0.00109955
0.0010745
0.000465163
4.4964e-05
4.48563e-05
0.000470488
0.00108244
0.00105795
0.000459148
4.43739e-05
4.42661e-05
0.000464548
0.00106597
0.00104208
0.000453328
4.37756e-05
4.36686e-05
0.000458849
0.00105037
0.00102705
0.000447773
4.3171e-05
4.30661e-05
0.000453469
0.0010358
0.001013
0.000442571
4.25632e-05
4.24624e-05
0.000448494
0.00102226
0.00100004
0.000437811
4.19564e-05
4.18623e-05
0.000444029
0.00101
0.000988433
0.000433609
4.1356e-05
4.12718e-05
0.000440204
0.000999276
0.00097848
0.000430107
4.07688e-05
4.06993e-05
0.000437166
0.000990421
0.000970514
0.000427484
4.0203e-05
4.01562e-05
0.000434986
0.000983772
0.000964923
0.000425862
3.96762e-05
3.96453e-05
0.00043349
0.000979577
0.000961824
0.000424851
3.92092e-05
3.9183e-05
0.000432715
0.000978326
0.000961696
0.000424684
3.88009e-05
3.87786e-05
0.000432783
0.00098004
0.000964499
0.000425426
3.84851e-05
3.84466e-05
0.000433665
0.000984532
0.00097012
0.000427054
3.82585e-05
3.82078e-05
0.000435242
0.000991418
0.000978029
0.000429158
3.80407e-05
3.80637e-05
0.000437209
0.00100051
0.000988104
0.000431378
3.78989e-05
3.79846e-05
0.000439146
0.00101146
0.000999858
0.000433632
3.78383e-05
3.79999e-05
0.000440764
0.00102299
0.00101182
0.000435576
3.78786e-05
3.80929e-05
0.000442093
0.00103403
0.00102307
0.000436978
3.79965e-05
3.82518e-05
0.000443359
0.00104408
0.00103333
0.000438089
3.81807e-05
3.84723e-05
0.00044436
0.00105291
0.00104241
0.000439106
3.84257e-05
3.87463e-05
0.000445262
0.00106045
0.00105014
0.000439653
3.87202e-05
3.9058e-05
0.000445922
0.00106681
0.00105628
0.000439995
3.90509e-05
3.93971e-05
0.000446358
0.00107175
0.00106057
0.000440158
3.94063e-05
3.97517e-05
0.000446565
0.0010759
0.00106353
0.000440198
3.97743e-05
4.01105e-05
0.00044663
0.00107839
0.00106482
0.000439899
4.01436e-05
4.04637e-05
0.000446559
0.00107915
0.0010636
0.00043914
4.05044e-05
4.08018e-05
0.000445834
0.00107773
0.00106104
0.000438156
4.08448e-05
4.1113e-05
0.000444864
0.00107489
0.00105743
0.000437062
4.11551e-05
4.13905e-05
0.000443758
0.00107084
0.00105281
0.000435935
4.14293e-05
4.16302e-05
0.000442549
0.00106564
0.0010473
0.000434814
4.1664e-05
4.183e-05
0.000441305
0.00105949
0.00104106
0.000433728
4.18583e-05
4.19921e-05
0.000440059
0.00105256
0.00103421
0.000432666
4.20123e-05
4.21175e-05
0.000438803
0.00104501
0.00102691
0.000431639
4.21313e-05
4.22042e-05
0.000437541
0.00103701
0.00101914
0.000430589
4.22152e-05
4.22642e-05
0.000436257
0.0010288
0.0010112
0.000429509
4.22721e-05
4.23019e-05
0.000434932
0.00102048
0.00100322
0.000428421
4.23069e-05
4.23247e-05
0.000433616
0.00101225
0.00099518
0.000427219
4.23201e-05
4.23322e-05
0.000432242
0.00100404
0.000987103
0.000425856
4.23081e-05
4.23158e-05
0.000430825
0.000995802
0.000979041
0.000424504
4.22844e-05
4.22915e-05
0.000429413
0.000987601
0.000971011
0.000423103
4.22489e-05
4.22536e-05
0.000427955
0.000979433
0.000962994
0.000421655
4.22027e-05
4.22064e-05
0.000426433
0.00097128
0.000954921
0.000420118
4.21484e-05
4.21491e-05
0.000424808
0.000963093
0.00094678
0.00041853
4.20879e-05
4.20853e-05
0.000423145
0.000954909
0.000938667
0.000416854
4.20177e-05
4.20164e-05
0.000421428
0.000946743
0.000930574
0.000415121
4.19434e-05
4.19406e-05
0.00041968
0.000938604
0.000922542
0.000413328
4.18459e-05
4.18793e-05
0.000417902
0.000930556
0.000913935
0.00041156
4.17485e-05
4.17937e-05
0.000415744
0.000923005
0.00090681
0.000408602
4.15894e-05
4.18454e-05
0.000415935
0.000920498
0.000909235
0.000415388
4.17372e-05
4.2422e-05
0.000416135
0.000919429
0.000962937
0.000437591
4.27342e-05
4.55256e-05
0.000410374
0.000936226
0.00142969
0.000596324
5.13493e-05
5.54176e-05
0.000309283
0.000709968
0.0017515
0.00401381
0.00750361
0.0106977
0.0128833
0.0169341
0.0195203
0.0218409
0.0231474
0.0237722
0.0235964
0.0225465
0.0210519
0.0186545
0.0163042
0.0127408
0.0111322
0.00810019
0.00606032
0.00411618
0.00233958
0.00107421
0.00039156
0.000162764
3.13997e-05
2.04613e-05
0.00015103
0.000355133
0.000335435
0.000143288
1.96764e-05
1.89086e-05
0.00013804
0.000317598
0.000318852
0.000136062
1.8717e-05
1.86005e-05
0.000135338
0.00031389
0.000313974
0.000134054
1.84223e-05
1.8407e-05
0.000133999
0.000313673
0.000314626
0.000134073
1.8434e-05
1.84367e-05
0.000134276
0.000315275
0.0003158
0.000134521
1.84671e-05
1.84798e-05
0.000134708
0.000316723
0.000317177
0.000134944
1.84982e-05
1.85271e-05
0.000135181
0.000318164
0.000318702
0.000135419
1.85179e-05
1.85473e-05
0.000135688
0.0003197
0.000320248
0.000135866
1.85626e-05
1.8596e-05
0.00013617
0.0003213
0.000321837
0.000136326
1.85973e-05
1.86063e-05
0.000136777
0.000323011
0.000323551
0.000136885
1.86483e-05
1.86567e-05
0.000137296
0.000324734
0.000325297
0.000137477
1.86747e-05
1.86812e-05
0.000137888
0.000326499
0.000327045
0.000138024
1.87241e-05
1.87306e-05
0.000138417
0.000328234
0.000328788
0.0001386
1.87488e-05
1.87556e-05
0.000139006
0.000330051
0.000330637
0.000139173
1.88009e-05
1.88087e-05
0.000139595
0.000331932
0.000332543
0.000139825
1.88294e-05
1.88379e-05
0.000140273
0.000333865
0.000334474
0.000140451
1.8884e-05
1.88929e-05
0.000140887
0.000335797
0.000336416
0.00014111
1.89132e-05
1.89211e-05
0.000141562
0.000337785
0.000338422
0.000141831
1.8956e-05
1.89914e-05
0.000142185
0.000339828
0.000340489
0.000142444
1.89982e-05
1.90095e-05
0.000142971
0.000341918
0.000342578
0.000143237
1.90441e-05
1.90822e-05
0.000143642
0.000344018
0.000344698
0.000143896
1.90886e-05
1.91007e-05
0.000144447
0.000346164
0.000346834
0.000144702
1.91348e-05
1.91721e-05
0.000145098
0.000348243
0.000348908
0.000145339
1.91781e-05
1.91906e-05
0.000145909
0.000350386
0.000351067
0.00014618
1.92251e-05
1.92643e-05
0.000146611
0.000352519
0.00035319
0.000146857
1.92701e-05
1.92827e-05
0.000147429
0.000354643
0.000355303
0.000147676
1.9316e-05
1.9355e-05
0.000148104
0.000356718
0.00035735
0.000148319
1.93592e-05
1.93717e-05
0.000148893
0.000358764
0.000359381
0.000149101
1.94033e-05
1.94404e-05
0.000149495
0.000360756
0.000361345
0.000149681
1.94432e-05
1.94532e-05
0.000150205
0.000362706
0.000363237
0.000150369
1.94824e-05
1.95168e-05
0.000150705
0.00036445
0.000364901
0.000150795
1.95151e-05
1.95196e-05
0.000151199
0.000366004
0.000366373
0.000151143
1.95556e-05
1.95551e-05
0.000151412
0.000367366
0.000367619
0.000151341
1.95615e-05
1.95548e-05
0.000151481
0.000368384
0.000368579
0.000151296
1.95857e-05
1.95756e-05
0.000151299
0.000369055
0.000369107
0.000150991
1.95741e-05
1.9555e-05
0.000150814
0.000369302
0.000369138
0.000150337
1.95594e-05
1.95611e-05
0.000149836
0.000369128
0.000368708
0.000149151
1.95303e-05
1.94995e-05
0.000148611
0.000368625
0.000367925
0.000147834
1.94974e-05
1.94927e-05
0.000146982
0.000367769
0.000366595
0.00014592
1.94591e-05
1.94261e-05
0.000144999
0.000366335
0.000364758
0.000143574
1.94281e-05
1.93929e-05
0.000142359
0.000364219
0.000362332
0.000140759
1.93687e-05
1.93442e-05
0.00013948
0.000361983
0.000360081
0.000137897
1.93533e-05
1.93775e-05
0.000136452
0.000359744
0.000357698
0.000134789
1.93846e-05
1.94255e-05
0.00013349
0.000357802
0.00035659
0.000132083
1.94897e-05
1.95849e-05
0.000131038
0.000357315
0.000357153
0.000129806
1.96999e-05
1.98618e-05
0.000129132
0.00035922
0.000360845
0.000127714
2.004e-05
2.02191e-05
0.00012671
0.000364412
0.000369947
0.000128193
2.04283e-05
2.06323e-05
0.000128762
0.000374715
0.00037753
0.000128021
2.06876e-05
2.08362e-05
0.000125687
0.000383195
0.000389692
0.000132486
2.11344e-05
2.13454e-05
0.000128762
0.000395507
0.000401109
0.000132122
2.17008e-05
2.19619e-05
0.000133993
0.000411232
0.000414034
0.000137066
2.23327e-05
2.28448e-05
0.000143874
0.000426446
0.000427497
0.000147177
2.33365e-05
2.37405e-05
0.000152462
0.000436606
0.000439093
0.000157516
2.45838e-05
2.64365e-05
0.000182728
0.000459171
0.00045815
0.000194206
1.9877e-05
1.54425e-05
4.79151e-05
0.000128154
0.000359105
0.000111386
1.79826e-05
1.88945e-05
0.000100046
0.000330265
0.000348875
0.000104273
1.93968e-05
1.96949e-05
9.82466e-05
0.000332968
0.000358845
0.000105763
2.02442e-05
2.08532e-05
0.000104555
0.000354343
0.000390128
0.000119265
2.1557e-05
2.22803e-05
0.000118206
0.000382485
0.000416486
0.000137082
2.31501e-05
2.43778e-05
0.000140725
0.000417906
0.000466883
0.000169923
2.69874e-05
2.06492e-05
0.000189114
0.000479168
0.000128266
4.54102e-05
1.67457e-05
1.96121e-05
0.000120725
0.000402813
0.000394207
0.000112412
2.13436e-05
2.27195e-05
0.000147703
0.000488148
0.000497524
0.000149417
2.36298e-05
2.5097e-05
0.000175162
0.000554845
0.000571799
0.000187146
2.67937e-05
3.00776e-05
0.000223491
0.000625282
0.000604822
0.000239672
2.32678e-05
1.74191e-05
5.40239e-05
0.000160165
0.000492297
0.000145528
2.09234e-05
2.26465e-05
0.000135364
0.000482188
0.000552419
0.000166347
2.41676e-05
2.58107e-05
0.000166228
0.000543997
0.000617598
0.000211477
2.97406e-05
2.39425e-05
0.000249043
0.000624559
0.000169237
5.54963e-05
1.79878e-05
2.19523e-05
0.000153145
0.000557506
0.00057379
0.000160853
2.47498e-05
2.87806e-05
0.000227378
0.000738043
0.00077208
0.000265417
3.34516e-05
2.75986e-05
0.000312269
0.000783079
0.000217222
6.52579e-05
1.89193e-05
2.3976e-05
0.000203945
0.000689601
0.000683332
0.000197425
2.79337e-05
3.51354e-05
0.000294404
0.000868423
0.00088721
0.000347231
2.92043e-05
1.99657e-05
7.43559e-05
0.000270368
0.000899953
0.000265317
2.7995e-05
3.53097e-05
0.000280285
0.000969237
0.00134635
0.000473132
4.82505e-05
4.02563e-05
0.000505221
0.00129503
0.000458513
0.00012021
2.62923e-05
4.69032e-05
0.000491088
0.00141204
0.00141064
0.000524114
4.38071e-05
2.93915e-05
0.000133265
0.000553475
0.001948
0.000647495
6.4956e-05
6.41259e-05
0.000747454
0.00211757
0.000964559
0.000266452
4.07601e-05
6.49174e-05
0.000867597
0.00252811
0.00167002
0.000553876
4.32273e-05
8.02846e-05
0.000976779
0.00196983
0.00168938
0.000817154
6.60134e-05
6.67806e-05
0.000778183
0.00185141
0.00237221
0.00085766
7.64812e-05
0.000105529
0.0015989
0.00394819
0.000879011
0.000273241
5.99218e-05
6.13491e-05
0.000766105
0.00175555
0.000542616
0.000193902
4.27603e-05
4.63e-05
0.000472488
0.0011371
0.000971902
0.000349379
4.659e-05
2.63863e-05
9.14446e-05
0.000278286
0.000654987
0.000374375
3.06102e-05
2.90258e-05
0.00011729
0.000298302
0.000722194
0.00031536
3.30662e-05
3.52726e-05
0.000256281
0.000652059
0.000211041
7.94133e-05
2.33443e-05
2.77634e-05
0.000249861
0.000563063
0.000517555
0.000209821
3.12983e-05
2.18274e-05
6.86729e-05
0.000174068
0.000481929
0.000214841
2.53203e-05
2.92042e-05
0.00018687
0.000443171
0.000153975
6.43362e-05
2.1234e-05
2.3869e-05
0.000190649
0.000424943
0.000384227
0.000167709
2.79584e-05
2.07896e-05
5.92065e-05
0.000136898
0.000374197
0.000171086
2.2556e-05
2.70029e-05
0.000150881
0.000340481
0.000123839
5.58566e-05
2.05111e-05
2.19541e-05
0.0001595
0.000337433
0.000304309
0.000139948
2.61905e-05
2.00721e-05
5.2441e-05
0.000113967
0.000308129
0.000147438
2.10449e-05
2.56227e-05
0.000130672
0.000280576
0.000109338
5.17895e-05
2.00688e-05
2.09629e-05
0.000148359
0.000299373
0.000257117
0.000121034
2.66325e-05
2.22703e-05
9.67234e-05
0.000209709
8.20366e-05
3.84617e-05
1.86961e-05
1.77925e-05
0.000101114
0.000205904
0.00019206
9.28625e-05
2.2479e-05
1.77942e-05
3.71337e-05
7.76128e-05
0.000186462
9.49405e-05
1.71452e-05
2.21448e-05
8.77648e-05
0.000174283
7.40492e-05
3.73182e-05
1.82264e-05
1.69735e-05
9.07514e-05
0.000170116
0.000161998
8.58658e-05
2.17974e-05
1.76841e-05
3.53568e-05
7.00701e-05
0.000158891
8.59461e-05
1.66993e-05
2.15016e-05
8.10534e-05
0.000150005
6.75495e-05
3.44965e-05
1.7303e-05
1.62981e-05
8.06654e-05
0.000146747
0.000142076
7.92358e-05
2.13843e-05
1.79423e-05
3.38471e-05
6.41507e-05
0.000138615
7.76298e-05
1.61454e-05
2.10655e-05
7.45239e-05
0.000131595
6.06865e-05
3.29073e-05
1.75611e-05
1.55747e-05
7.05589e-05
0.000123835
0.000119949
6.934e-05
2.05363e-05
1.73357e-05
2.96929e-05
5.40858e-05
0.000106745
8.08398e-05
1.50233e-05
1.91644e-05
3.76315e-05
6.18525e-05
0.000141859
8.10233e-05
1.71343e-05
2.16347e-05
7.51384e-05
0.000131364
6.39596e-05
3.68454e-05
1.77429e-05
1.62614e-05
7.95474e-05
0.000133109
0.000126459
7.40859e-05
2.14814e-05
1.79656e-05
3.71289e-05
6.28919e-05
0.000131869
7.92348e-05
1.64183e-05
2.1381e-05
7.33755e-05
0.000124159
6.06298e-05
3.65225e-05
1.76638e-05
1.59623e-05
7.40307e-05
0.000118375
0.000112116
6.70725e-05
2.12653e-05
1.77313e-05
3.61279e-05
5.72402e-05
0.00011016
6.9497e-05
1.56749e-05
2.06875e-05
6.35461e-05
0.000103468
5.11018e-05
3.32775e-05
1.73707e-05
1.47217e-05
7.01255e-05
9.17123e-05
5.54554e-05
3.81302e-05
1.90452e-05
1.68116e-05
6.70695e-05
0.000109129
9.8463e-05
6.09255e-05
2.14432e-05
1.75669e-05
3.65829e-05
5.30244e-05
9.89487e-05
6.46488e-05
1.56714e-05
2.07349e-05
5.98596e-05
9.0363e-05
4.85237e-05
3.4703e-05
1.74596e-05
1.46594e-05
6.50909e-05
8.26304e-05
5.21942e-05
3.79595e-05
1.92624e-05
1.67408e-05
6.48015e-05
0.000100029
9.02301e-05
5.85849e-05
2.12094e-05
1.74254e-05
3.6899e-05
5.04635e-05
9.35349e-05
6.24026e-05
1.55427e-05
2.0683e-05
5.6908e-05
8.53477e-05
4.66623e-05
3.47803e-05
1.74152e-05
1.46201e-05
6.07262e-05
7.5755e-05
4.89989e-05
3.73498e-05
1.92751e-05
1.65152e-05
6.04362e-05
9.24159e-05
8.27919e-05
5.51915e-05
2.10748e-05
1.73979e-05
3.68759e-05
4.70628e-05
8.42138e-05
5.74594e-05
1.55854e-05
2.06141e-05
5.26832e-05
7.67428e-05
4.31174e-05
3.40338e-05
1.66716e-05
1.45148e-05
5.43892e-05
6.78528e-05
4.51972e-05
3.62022e-05
1.91872e-05
1.62719e-05
5.55272e-05
8.26905e-05
7.4294e-05
5.06912e-05
2.0932e-05
1.70964e-05
3.49889e-05
4.26545e-05
6.62226e-05
5.55116e-05
1.41714e-05
1.89537e-05
3.70286e-05
4.47111e-05
8.10441e-05
5.37228e-05
1.60172e-05
2.09736e-05
4.95565e-05
7.26265e-05
4.2363e-05
3.56418e-05
1.70639e-05
1.44436e-05
5.34168e-05
6.52678e-05
4.48398e-05
3.77755e-05
1.90887e-05
1.59123e-05
5.43654e-05
8.03378e-05
7.19492e-05
4.99546e-05
2.08005e-05
1.68805e-05
3.58762e-05
4.21877e-05
6.47779e-05
5.43479e-05
1.41714e-05
1.91235e-05
3.8008e-05
4.44821e-05
7.89744e-05
5.30744e-05
1.61511e-05
2.10984e-05
4.938e-05
7.10116e-05
4.23335e-05
3.68468e-05
1.74763e-05
1.45096e-05
5.46707e-05
6.37008e-05
4.43232e-05
3.88203e-05
1.91668e-05
1.60554e-05
5.25589e-05
7.75736e-05
6.8972e-05
4.8398e-05
2.07653e-05
1.67954e-05
3.63639e-05
4.10386e-05
6.14767e-05
5.2426e-05
1.43711e-05
1.89593e-05
3.94099e-05
4.42123e-05
6.71572e-05
5.17878e-05
1.51968e-05
1.97087e-05
3.99017e-05
4.64444e-05
7.90212e-05
5.26353e-05
1.65e-05
2.09427e-05
4.90614e-05
7.05205e-05
4.2647e-05
3.77238e-05
1.70176e-05
1.42139e-05
5.4163e-05
6.3062e-05
4.45113e-05
4.02267e-05
1.9268e-05
1.61494e-05
5.21428e-05
7.62342e-05
6.82197e-05
4.85997e-05
2.0993e-05
1.68436e-05
3.74331e-05
4.14381e-05
6.08061e-05
5.23369e-05
1.45973e-05
1.92532e-05
4.02229e-05
4.44399e-05
6.60027e-05
5.13353e-05
1.55572e-05
1.96664e-05
4.09549e-05
4.63609e-05
7.75972e-05
5.20685e-05
1.62362e-05
2.10104e-05
4.88808e-05
6.92081e-05
4.2711e-05
3.90724e-05
1.75394e-05
1.43858e-05
5.50454e-05
6.19225e-05
4.58343e-05
4.24063e-05
1.92798e-05
1.54634e-05
5.25188e-05
6.74654e-05
4.77603e-05
4.30873e-05
1.97663e-05
1.65045e-05
5.28502e-05
7.90611e-05
7.05251e-05
4.97853e-05
2.13603e-05
1.72023e-05
4.00085e-05
4.37062e-05
6.27666e-05
5.56907e-05
1.43904e-05
1.9255e-05
4.28377e-05
4.65737e-05
6.78028e-05
5.34431e-05
1.54883e-05
1.98539e-05
4.37201e-05
4.83851e-05
7.9259e-05
5.35362e-05
1.65317e-05
2.12841e-05
5.05498e-05
7.09109e-05
4.45918e-05
4.14404e-05
1.76526e-05
1.46689e-05
5.67242e-05
6.37249e-05
4.77567e-05
4.44938e-05
1.95929e-05
1.58563e-05
5.45496e-05
6.89695e-05
4.95255e-05
4.50495e-05
1.9874e-05
1.64409e-05
5.39531e-05
7.98434e-05
7.13344e-05
5.08904e-05
2.11414e-05
1.78217e-05
4.11005e-05
4.45386e-05
6.25338e-05
5.70107e-05
1.46655e-05
1.95041e-05
4.39399e-05
4.69102e-05
6.69631e-05
5.32555e-05
1.57415e-05
1.99628e-05
4.46504e-05
4.83937e-05
7.72091e-05
5.27947e-05
1.6556e-05
2.14151e-05
5.02265e-05
6.91979e-05
4.42566e-05
4.16608e-05
1.81073e-05
1.47752e-05
5.66908e-05
6.217e-05
4.70621e-05
4.42835e-05
1.93793e-05
1.53707e-05
5.26018e-05
6.63617e-05
4.93636e-05
4.50278e-05
1.9608e-05
1.56167e-05
5.39615e-05
6.91608e-05
5.08842e-05
4.78406e-05
1.99353e-05
1.66327e-05
5.52119e-05
7.95863e-05
7.10541e-05
5.23882e-05
2.12935e-05
1.70913e-05
4.29881e-05
4.56114e-05
6.38144e-05
5.76063e-05
1.46752e-05
1.96228e-05
4.53343e-05
4.84385e-05
6.71689e-05
5.37491e-05
1.58133e-05
1.99473e-05
4.59262e-05
5.04361e-05
6.94861e-05
5.45424e-05
1.57996e-05
2.00082e-05
4.86053e-05
5.15047e-05
7.92825e-05
5.54362e-05
1.65991e-05
2.13436e-05
5.27379e-05
7.12055e-05
4.66204e-05
4.44759e-05
1.80405e-05
1.47401e-05
5.94061e-05
6.42122e-05
4.93588e-05
4.68235e-05
1.97103e-05
1.58271e-05
5.42192e-05
6.84107e-05
5.158e-05
4.75627e-05
2.00292e-05
1.59969e-05
5.61768e-05
7.0818e-05
5.30065e-05
5.04199e-05
2.02515e-05
1.68758e-05
5.71128e-05
8.08257e-05
7.26244e-05
5.4371e-05
2.15663e-05
1.80587e-05
4.55773e-05
4.80845e-05
6.51272e-05
6.05894e-05
1.48038e-05
1.97639e-05
4.7672e-05
5.04045e-05
6.84715e-05
5.48926e-05
1.57402e-05
2.00168e-05
4.77298e-05
5.18486e-05
7.02328e-05
5.57746e-05
1.59059e-05
2.03359e-05
5.05252e-05
5.30325e-05
7.95318e-05
5.64884e-05
1.6837e-05
2.16255e-05
5.42935e-05
7.20538e-05
4.82139e-05
4.58953e-05
1.73974e-05
1.50944e-05
5.89845e-05
6.47647e-05
5.09522e-05
4.86076e-05
2.00887e-05
1.59056e-05
5.62648e-05
6.88821e-05
5.28256e-05
4.88933e-05
2.00762e-05
1.58138e-05
5.5922e-05
7.07695e-05
5.42817e-05
5.02818e-05
2.00664e-05
1.60796e-05
5.87409e-05
7.25558e-05
5.50975e-05
5.31544e-05
2.02644e-05
1.68423e-05
5.88796e-05
8.15619e-05
7.39751e-05
5.63064e-05
2.15903e-05
1.83661e-05
4.72598e-05
5.00521e-05
6.55482e-05
6.18814e-05
1.48981e-05
1.99759e-05
4.93682e-05
5.19915e-05
6.87655e-05
5.57956e-05
1.6033e-05
2.02957e-05
4.96777e-05
5.34171e-05
7.02762e-05
5.62081e-05
1.59338e-05
2.0139e-05
5.13334e-05
5.45745e-05
7.2757e-05
5.90916e-05
1.61336e-05
2.04153e-05
5.42817e-05
5.58601e-05
8.27257e-05
6.01262e-05
1.69553e-05
2.18272e-05
5.7813e-05
7.51487e-05
5.18426e-05
4.98353e-05
1.83209e-05
1.50089e-05
6.41235e-05
6.78103e-05
5.40431e-05
5.17857e-05
1.99946e-05
1.58244e-05
5.87194e-05
7.20488e-05
5.59461e-05
5.19384e-05
2.02503e-05
1.61056e-05
5.92114e-05
7.36457e-05
5.72225e-05
5.36799e-05
2.02449e-05
1.61416e-05
6.20019e-05
7.58032e-05
5.83913e-05
5.64623e-05
2.04926e-05
1.71595e-05
6.21877e-05
8.48722e-05
7.73883e-05
5.96541e-05
2.18649e-05
1.85778e-05
5.10372e-05
5.36823e-05
6.86536e-05
6.48793e-05
1.53015e-05
2.01924e-05
5.2833e-05
5.55717e-05
7.215e-05
5.93565e-05
1.61649e-05
2.0575e-05
5.27097e-05
5.71145e-05
7.32176e-05
5.88289e-05
1.62667e-05
2.05108e-05
5.44039e-05
5.78257e-05
7.54179e-05
6.1774e-05
1.64607e-05
2.07214e-05
5.77224e-05
5.88539e-05
8.47064e-05
6.31651e-05
1.7174e-05
2.21225e-05
6.09982e-05
7.7869e-05
5.4912e-05
5.2852e-05
1.85764e-05
1.53055e-05
6.67357e-05
7.02962e-05
5.71282e-05
5.45873e-05
2.03147e-05
1.61875e-05
6.10494e-05
7.39801e-05
5.89735e-05
5.47717e-05
2.06238e-05
1.63453e-05
6.12027e-05
7.57626e-05
6.01824e-05
5.63022e-05
2.04944e-05
1.64344e-05
6.40707e-05
7.75819e-05
6.0866e-05
5.91637e-05
2.06863e-05
1.7191e-05
6.43275e-05
8.629e-05
7.91104e-05
6.21517e-05
2.22158e-05
1.89526e-05
5.37221e-05
5.62153e-05
6.99876e-05
6.75242e-05
1.54331e-05
2.03902e-05
5.53365e-05
5.78808e-05
7.26001e-05
6.05666e-05
1.62384e-05
2.07654e-05
5.53065e-05
5.90645e-05
7.40226e-05
6.0637e-05
1.64342e-05
2.05776e-05
5.66919e-05
5.99844e-05
7.59625e-05
6.2912e-05
1.63934e-05
2.05506e-05
5.86611e-05
6.16012e-05
7.88933e-05
6.61695e-05
1.64236e-05
2.07673e-05
6.17201e-05
6.26866e-05
8.88191e-05
6.68374e-05
1.7299e-05
2.24437e-05
6.47616e-05
8.1821e-05
5.87368e-05
5.68125e-05
1.84715e-05
1.54414e-05
7.04456e-05
7.39733e-05
6.13032e-05
5.91704e-05
2.06338e-05
1.64625e-05
6.55265e-05
7.77828e-05
6.31443e-05
5.93193e-05
2.08054e-05
1.64982e-05
6.60145e-05
8.00499e-05
6.47612e-05
6.10256e-05
2.06757e-05
1.65313e-05
6.91144e-05
8.28942e-05
6.61158e-05
6.41435e-05
2.09083e-05
1.7496e-05
6.94296e-05
9.18601e-05
8.42089e-05
6.71231e-05
2.26401e-05
1.88971e-05
5.88287e-05
6.09254e-05
7.56221e-05
7.2664e-05
1.56083e-05
2.07707e-05
6.07143e-05
6.34222e-05
7.82472e-05
6.67872e-05
1.662e-05
2.09814e-05
6.03393e-05
6.44933e-05
7.9258e-05
6.60751e-05
1.67511e-05
2.0848e-05
6.18167e-05
6.53352e-05
8.12835e-05
6.85799e-05
1.66583e-05
2.1125e-05
6.49393e-05
6.60351e-05
9.03755e-05
6.92487e-05
1.75919e-05
2.30305e-05
6.75862e-05
8.34918e-05
6.17729e-05
6.03131e-05
1.88297e-05
1.56447e-05
7.33166e-05
7.59552e-05
6.4459e-05
6.27728e-05
2.09826e-05
1.67624e-05
6.87276e-05
7.95758e-05
6.62564e-05
6.27864e-05
2.10698e-05
1.66851e-05
6.8567e-05
8.14724e-05
6.74802e-05
6.43719e-05
2.09838e-05
1.68565e-05
7.10101e-05
8.42498e-05
6.89198e-05
6.78613e-05
2.14241e-05
1.7826e-05
7.2141e-05
9.33701e-05
8.59592e-05
7.03052e-05
2.31639e-05
1.92297e-05
6.28199e-05
6.42303e-05
7.83057e-05
7.64548e-05
1.58391e-05
2.09791e-05
6.43366e-05
6.66939e-05
8.07822e-05
6.99158e-05
1.67754e-05
2.133e-05
6.43227e-05
6.79495e-05
8.19683e-05
6.97379e-05
1.68818e-05
2.13419e-05
6.61199e-05
6.89956e-05
8.41605e-05
7.19733e-05
1.69961e-05
2.18351e-05
6.97807e-05
6.99089e-05
9.34277e-05
7.31818e-05
1.82939e-05
2.38535e-05
7.19597e-05
8.67027e-05
6.64063e-05
6.59876e-05
1.96832e-05
1.63483e-05
7.84654e-05
8.03957e-05
6.91526e-05
6.79029e-05
2.13837e-05
1.70485e-05
7.42852e-05
8.42641e-05
7.11396e-05
6.82454e-05
2.16919e-05
1.70492e-05
7.41826e-05
8.66353e-05
7.19804e-05
7.08894e-05
2.20086e-05
1.84858e-05
7.4048e-05
9.47875e-05
8.76248e-05
7.28777e-05
2.42739e-05
2.02749e-05
6.67954e-05
6.74932e-05
7.97574e-05
7.87447e-05
1.65734e-05
2.1695e-05
6.82438e-05
6.96546e-05
8.26228e-05
7.35626e-05
1.73329e-05
2.21347e-05
6.86414e-05
7.11071e-05
8.46252e-05
7.29747e-05
1.74525e-05
2.2522e-05
7.19445e-05
7.1809e-05
9.28621e-05
7.41012e-05
1.86475e-05
2.45308e-05
7.32586e-05
8.64452e-05
6.79373e-05
6.79337e-05
1.97754e-05
1.64618e-05
7.94404e-05
8.00372e-05
7.08164e-05
7.03542e-05
2.19673e-05
1.73058e-05
7.46889e-05
8.41432e-05
7.2728e-05
7.092e-05
2.23255e-05
1.77384e-05
7.52401e-05
8.66921e-05
7.40497e-05
7.4124e-05
2.28228e-05
1.89144e-05
7.59821e-05
9.45329e-05
8.81801e-05
7.5584e-05
2.51313e-05
2.09169e-05
7.03591e-05
7.06588e-05
8.11655e-05
8.1598e-05
1.68739e-05
2.2336e-05
7.18858e-05
7.23264e-05
8.41036e-05
7.58169e-05
1.775e-05
2.27801e-05
7.25352e-05
7.38815e-05
8.65483e-05
7.55064e-05
1.79697e-05
2.33349e-05
7.61585e-05
7.48729e-05
9.51071e-05
7.7236e-05
1.94147e-05
2.55342e-05
7.69117e-05
8.89628e-05
7.21109e-05
7.32376e-05
2.09695e-05
1.70905e-05
8.38166e-05
8.36375e-05
7.47476e-05
7.55051e-05
2.28672e-05
1.81664e-05
7.93428e-05
8.796e-05
7.73273e-05
7.6476e-05
2.34769e-05
1.86925e-05
7.9393e-05
9.11845e-05
7.91659e-05
8.05012e-05
2.42275e-05
2.01249e-05
8.15767e-05
9.97445e-05
9.34573e-05
8.14168e-05
2.65632e-05
2.17216e-05
7.6885e-05
7.6492e-05
8.72363e-05
8.79267e-05
1.76935e-05
2.34643e-05
7.90841e-05
7.85694e-05
9.11796e-05
8.24747e-05
1.87014e-05
2.46518e-05
8.17305e-05
8.02846e-05
9.93948e-05
8.17852e-05
2.05124e-05
2.69731e-05
8.12255e-05
9.35468e-05
7.70567e-05
7.86717e-05
2.24338e-05
1.80698e-05
8.85615e-05
8.80839e-05
7.9916e-05
8.12349e-05
2.4117e-05
1.9209e-05
8.43492e-05
9.25284e-05
8.25699e-05
8.26865e-05
2.49057e-05
1.98218e-05
8.45399e-05
9.6496e-05
8.50557e-05
8.75429e-05
2.58053e-05
2.14582e-05
8.79723e-05
0.000106021
9.93991e-05
8.81089e-05
2.83224e-05
2.30333e-05
8.48124e-05
8.31764e-05
9.40345e-05
9.55403e-05
1.87094e-05
2.51014e-05
8.72736e-05
8.61429e-05
9.91888e-05
8.98849e-05
2.00935e-05
2.63673e-05
9.03681e-05
8.8055e-05
0.000108388
8.99183e-05
2.15592e-05
2.87904e-05
9.01575e-05
0.000102393
8.648e-05
8.87353e-05
2.42638e-05
1.99458e-05
9.77915e-05
9.72436e-05
8.94235e-05
9.19054e-05
2.65125e-05
2.12489e-05
9.38058e-05
0.000103245
9.23066e-05
9.56318e-05
2.78962e-05
2.32673e-05
9.45152e-05
0.000113051
0.000106775
9.49891e-05
3.07472e-05
2.51141e-05
9.29553e-05
9.07355e-05
0.000101966
0.000102581
2.03541e-05
2.7695e-05
9.75955e-05
9.34633e-05
0.000112414
9.57422e-05
2.30963e-05
3.08324e-05
9.56345e-05
0.000106964
9.09362e-05
9.22153e-05
2.50701e-05
2.0011e-05
0.000103258
0.000101296
9.35515e-05
9.51839e-05
2.72453e-05
2.18507e-05
9.62556e-05
0.000105763
9.5638e-05
9.90054e-05
2.90093e-05
2.41724e-05
9.68225e-05
0.000114759
0.000109195
9.81359e-05
3.2115e-05
2.63565e-05
9.72213e-05
9.47186e-05
0.000104668
0.000105279
2.16083e-05
2.92725e-05
0.000102671
9.7183e-05
0.000114578
9.94186e-05
2.45481e-05
3.27469e-05
9.96593e-05
0.000109515
9.59853e-05
9.88767e-05
2.69461e-05
2.17834e-05
0.000106796
0.000105376
9.78501e-05
0.000103511
2.93582e-05
2.39529e-05
9.94578e-05
0.00011496
0.000110066
0.000100239
3.26516e-05
2.72443e-05
9.9124e-05
9.65546e-05
0.000105587
0.000106171
2.23545e-05
3.046e-05
0.000105302
9.93111e-05
0.000115093
0.000100873
2.52897e-05
3.40471e-05
0.000101729
0.000110397
9.8449e-05
0.000102211
2.80662e-05
2.27039e-05
0.000108556
0.000106992
0.000100723
0.000107407
3.07489e-05
2.53799e-05
0.000102409
0.000116643
0.000111949
0.000102995
3.41142e-05
2.79881e-05
0.000102998
9.96916e-05
0.000108139
0.000111451
2.18215e-05
3.05456e-05
0.000108324
0.000101956
0.000117408
0.000102607
2.57726e-05
3.51464e-05
0.000103661
0.000112867
0.000102001
0.000107275
2.92272e-05
2.39401e-05
0.000111448
0.000109973
0.000105419
0.000114121
3.25469e-05
2.71378e-05
0.000108128
0.00012181
0.000117164
0.000109356
3.63266e-05
2.99576e-05
0.000111707
0.000106422
0.00011497
0.000116686
2.42437e-05
3.30625e-05
0.000118682
0.000109439
0.000126838
0.000112918
2.72263e-05
3.61578e-05
0.000112517
0.000122091
0.00011053
0.000119937
3.14214e-05
2.7179e-05
0.000119521
0.000124958
0.00012102
0.000119069
3.77485e-05
3.17588e-05
0.000118479
0.000112449
0.000121248
0.000122278
2.61315e-05
3.54893e-05
0.000125409
0.000116778
0.00013291
0.000118342
2.96506e-05
3.95052e-05
0.00011989
0.000128063
0.000117657
0.000127801
3.32527e-05
2.82612e-05