/*--------------------------------*- C++ -*----------------------------------*\
| =========                 |                                                 |
| \\      /  F ield         | OpenFOAM: The Open Source CFD Toolbox           |
|  \\    /   O peration     | Version:  v2006                                 |
|   \\  /    A nd           | Website:  www.openfoam.com                      |
|    \\/     M anipulation  |                                                 |
\*---------------------------------------------------------------------------*/
FoamFile
{
    version     2.0;
    format      ascii;
    class       volVectorField;
    location    "0.096";
    object      U;
}
// * * * * * * * * * * * * * * * * * * * * * * * * * * * * * * * * * * * * * //

dimensions      [0 1 -1 0 0 0 0];


internalField   nonuniform List<vector> 
16277
(
(48.3134 0.00148183 -3.36462e-19)
(48.3138 -0.00424653 0)
(48.3134 0.00465565 0)
(48.313 -0.00412243 0)
(48.3128 0.000429447 -5.44641e-21)
(48.311 -0.00152166 -7.98992e-19)
(48.3061 -0.00148469 9.16411e-19)
(48.2905 -0.00377817 0)
(48.2552 -0.00811132 0)
(48.1993 -0.0141092 0)
(48.1283 -0.0208077 -3.42968e-21)
(48.0502 -0.0271855 -6.99051e-21)
(47.9697 -0.0329026 1.77003e-21)
(47.8887 -0.0379521 0)
(47.8072 -0.0425105 0)
(47.7241 -0.0467385 0)
(47.6384 -0.050748 0)
(47.5495 -0.0545982 0)
(47.4568 -0.0583073 0)
(47.3602 -0.0618773 0)
(47.2597 -0.0653066 0)
(47.1553 -0.0685987 0)
(47.0471 -0.0717632 0)
(46.9351 -0.0748137 0)
(46.8195 -0.0777642 0)
(46.7002 -0.0806264 0)
(46.5773 -0.083409 0)
(46.4508 -0.0861173 0)
(46.3208 -0.0887538 0)
(46.1875 -0.0913184 0)
(46.0507 -0.0938095 0)
(45.9108 -0.0962241 0)
(45.7677 -0.0985588 0)
(45.6217 -0.100809 0)
(45.4727 -0.102971 0)
(45.321 -0.105039 0)
(45.1666 -0.10701 0)
(45.0098 -0.108877 0)
(44.8506 -0.110636 0)
(44.6893 -0.112282 0)
(44.5258 -0.113812 0)
(44.3606 -0.11522 0)
(44.1936 -0.116504 0)
(44.0251 -0.117659 0)
(43.8552 -0.118681 0)
(43.6841 -0.119566 0)
(43.5121 -0.120313 0)
(43.3392 -0.120916 0)
(43.1657 -0.121374 0)
(42.9917 -0.121684 0)
(42.8175 -0.121842 0)
(42.6433 -0.121847 0)
(42.4692 -0.121697 0)
(42.2955 -0.121393 0)
(42.1224 -0.120931 0)
(41.95 -0.120281 0)
(41.7787 -0.119462 0)
(41.6085 -0.118503 0)
(41.4397 -0.117386 0)
(41.2725 -0.116104 0)
(41.1072 -0.114654 0)
(40.9439 -0.113039 0)
(40.7829 -0.111261 0)
(40.6244 -0.109319 0)
(40.4685 -0.107214 0)
(40.3155 -0.104949 0)
(40.1655 -0.102521 0)
(40.0189 -0.0999323 0)
(39.8757 -0.0971781 0)
(39.7361 -0.0942531 0)
(39.6003 -0.0911484 0)
(39.4685 -0.0878524 0)
(39.3409 -0.0843526 0)
(39.2177 -0.0806393 0)
(39.0991 -0.0767085 0)
(38.9853 -0.0725582 0)
(38.876 -0.0681711 0)
(38.7707 -0.0634765 0)
(38.6683 -0.0582821 -3.00518e-20)
(38.5678 -0.0522721 2.99868e-20)
(38.4685 -0.044986 0)
(38.3729 -0.036211 8.95576e-20)
(38.289 -0.0265804 -5.91686e-20)
(38.23 -0.0182009 0)
(38.2039 -0.012891 -1.71863e-18)
(38.2033 -0.0105417 1.11696e-18)
(38.2136 -0.00964332 0)
(38.2257 -0.00943749 0)
(38.2355 -0.00935768 0)
(38.2345 -0.00738609 1.7397e-17)
(38.2271 -0.00459641 -1.02969e-17)
(38.2027 -0.0102856 -1.26074e-17)
(38.141 -0.02024 -3.78927e-18)
(38.0379 -0.0398388 2.1241e-18)
(37.8701 -0.0576758 0)
(37.6771 -0.0669738 0)
(36.9672 -0.102505 -2.76481e-19)
(36.5114 -0.0930312 2.32513e-18)
(37.6855 -0.113578 1.73405e-18)
(37.9171 -0.0967254 -5.82577e-18)
(37.9412 -0.119282 0)
(37.6342 -0.133698 1.79685e-18)
(35.9972 -0.0920255 1.93184e-18)
(35.4885 -0.0845121 7.19791e-19)
(37.5734 -0.133342 4.01182e-19)
(37.9635 -0.124079 1.33781e-18)
(37.9611 -0.121239 1.33877e-18)
(37.48 -0.122897 0)
(35.0207 -0.0739644 -1.25584e-18)
(34.5895 -0.0643152 1.16917e-19)
(37.3809 -0.112505 0)
(37.947 -0.118001 0)
(37.9079 -0.11352 1.65985e-19)
(37.2529 -0.103539 0)
(34.1869 -0.0571952 2.48118e-24)
(33.8231 -0.0518358 1.35728e-19)
(37.1364 -0.0967114 0)
(37.8669 -0.111138 -1.6683e-19)
(37.8075 -0.107647 1.05553e-20)
(37.004 -0.091252 3.94211e-19)
(33.4789 -0.0475935 -5.07023e-19)
(33.1772 -0.0430705 4.92668e-19)
(36.8892 -0.0858016 3.96144e-19)
(37.7547 -0.107175 -6.88805e-19)
(37.6832 -0.103004 -6.81646e-19)
(36.7504 -0.0811004 -7.95338e-19)
(32.885 -0.0400379 0)
(32.6242 -0.0364098 4.9509e-19)
(36.6334 -0.077079 -4.10823e-19)
(37.6188 -0.102229 -1.0679e-20)
(37.5367 -0.0979713 6.94655e-19)
(36.4914 -0.0731208 -4.11062e-19)
(32.3667 -0.0343513 -4.95373e-19)
(32.1341 -0.0316027 0)
(36.3736 -0.0702978 0)
(37.4651 -0.0973795 0)
(37.3768 -0.0938557 6.84343e-19)
(36.2315 -0.0671192 0)
(31.9033 -0.0301979 0)
(31.6947 -0.0279266 0)
(36.1168 -0.0651652 0)
(37.3023 -0.0939983 0)
(37.2072 -0.0907328 0)
(35.9734 -0.0625663 0)
(31.4818 -0.0270657 0)
(31.288 -0.025198 0)
(35.8585 -0.0610059 0)
(37.1276 -0.0907327 0)
(37.0264 -0.0878895 0)
(35.7133 -0.0589324 0)
(31.0878 -0.0247439 0)
(30.9065 -0.0229784 0)
(35.5993 -0.0577705 0)
(36.9437 -0.0884059 0)
(36.8402 -0.0857669 0)
(35.4557 -0.0562187 0)
(30.7194 -0.023054 0)
(30.5485 -0.0211466 0)
(35.3435 -0.0551492 0)
(36.7556 -0.0866271 0)
(36.6489 -0.0843054 0)
(35.2 -0.054073 0)
(30.3701 -0.0216467 0)
(30.2068 -0.0197305 0)
(35.0884 -0.0532109 0)
(36.5621 -0.0853514 0)
(36.4523 -0.083348 0)
(34.9446 -0.0524836 0)
(30.0352 -0.0205125 0)
(29.8777 -0.0186432 0)
(34.8334 -0.0516982 0)
(36.3633 -0.084437 0)
(36.2507 -0.0827267 0)
(34.6891 -0.0512537 0)
(29.7113 -0.0196273 0)
(29.5584 -0.0177699 0)
(34.5778 -0.0505497 0)
(36.1594 -0.0839357 0)
(36.0439 -0.0824996 0)
(34.4326 -0.050365 0)
(29.396 -0.0189306 0)
(29.2464 -0.0170664 0)
(34.3208 -0.0497145 0)
(35.9503 -0.0838102 0)
(35.8316 -0.0826212 0)
(34.1743 -0.0497638 0)
(29.0869 -0.0183849 0)
(28.9398 -0.0164968 0)
(34.0616 -0.0491423 0)
(35.7355 -0.0840168 0)
(35.6136 -0.0830492 0)
(33.9135 -0.0494052 0)
(28.7824 -0.0179624 0)
(28.6369 -0.016119 0)
(33.7994 -0.0487878 0)
(35.5148 -0.0844569 0)
(35.3896 -0.083716 0)
(33.6496 -0.0492326 0)
(28.4809 -0.0176813 0)
(28.3365 -0.015816 0)
(33.5339 -0.0485918 0)
(35.2879 -0.0851565 0)
(35.1593 -0.0846213 0)
(33.382 -0.0492193 0)
(28.1813 -0.0174756 0)
(28.0374 -0.015643 0)
(33.2643 -0.0485581 0)
(35.0546 -0.0860908 0)
(34.9224 -0.0857528 6.86162e-19)
(33.1102 -0.0493498 0)
(27.8826 -0.017369 0)
(27.7386 -0.0155655 0)
(32.9902 -0.0486589 0)
(34.8144 -0.0872699 0)
(34.6783 -0.087116 0)
(32.8335 -0.0496138 0)
(27.5837 -0.0173452 0)
(27.4393 -0.0155495 0)
(32.7109 -0.0488359 0)
(34.5668 -0.088677 0)
(34.4269 -0.0886249 0)
(32.5515 -0.0499583 0)
(27.2839 -0.0173831 0)
(27.1387 -0.0156026 0)
(32.4261 -0.0492181 0)
(34.3116 -0.0901195 0)
(34.1675 -0.0902398 0)
(32.2636 -0.0504459 0)
(26.9823 -0.0174585 0)
(26.8359 -0.015683 0)
(32.1351 -0.0497401 0)
(34.0483 -0.0917531 0)
(33.8997 -0.0920578 6.86596e-19)
(31.9692 -0.0510675 0)
(26.6781 -0.0175695 0)
(26.5301 -0.0158038 0)
(31.8373 -0.0503788 0)
(33.7764 -0.0936038 0)
(33.6232 -0.0940824 0)
(31.6678 -0.0518077 0)
(26.3706 -0.0177252 0)
(26.2206 -0.0159682 0)
(31.5322 -0.0511358 0)
(33.4955 -0.0956652 0)
(33.3374 -0.0963059 0)
(31.3587 -0.0526632 0)
(26.0591 -0.0179252 0)
(25.9067 -0.0161741 0)
(31.2191 -0.0520087 0)
(33.205 -0.0979299 0)
(33.0419 -0.0987204 0)
(31.0415 -0.0536292 0)
(25.7427 -0.0181663 0)
(25.5877 -0.0164176 0)
(30.8976 -0.0529931 0)
(32.9045 -0.100389 0)
(32.7361 -0.101315 6.87024e-19)
(30.7155 -0.0546992 0)
(25.4209 -0.0184443 0)
(25.2628 -0.0166934 0)
(30.567 -0.0540828 0)
(32.5936 -0.10303 0)
(32.4196 -0.104076 0)
(30.3802 -0.0558646 0)
(25.093 -0.0187541 0)
(24.9317 -0.0169967 0)
(30.2269 -0.055268 0)
(32.2718 -0.105837 0)
(32.0921 -0.106981 0)
(30.0352 -0.0571145 0)
(24.7585 -0.019091 0)
(24.5936 -0.017329 0)
(29.8769 -0.0565273 0)
(31.9387 -0.108776 0)
(31.7532 -0.110003 0)
(29.6801 -0.0584263 0)
(24.4169 -0.0194518 0)
(24.2483 -0.0176831 0)
(29.5166 -0.0578372 0)
(31.594 -0.11182 0)
(31.4026 -0.113104 6.87465e-19)
(29.3146 -0.0597781 0)
(24.0679 -0.0198295 0)
(23.8955 -0.0180494 0)
(29.1458 -0.0591716 0)
(31.2376 -0.114918 0)
(31.0402 -0.116224 0)
(28.9386 -0.0611354 0)
(23.7113 -0.0202098 0)
(23.5352 -0.0184103 0)
(28.7644 -0.0604891 0)
(30.8694 -0.117999 0)
(30.666 -0.119281 0)
(28.5521 -0.0624508 0)
(23.3472 -0.0205717 0)
(23.1675 -0.0187423 0)
(28.3727 -0.0617345 0)
(30.4896 -0.120968 0)
(30.2805 -0.12218 0)
(28.1555 -0.0636696 0)
(22.9761 -0.0209008 0)
(22.7931 -0.0190362 0)
(27.9713 -0.0628556 0)
(30.0986 -0.123724 0)
(29.8841 -0.124812 0)
(27.7495 -0.064737 0)
(22.5987 -0.0211794 0)
(22.4129 -0.0192664 0)
(27.5609 -0.0637882 0)
(29.6972 -0.126146 0)
(29.4779 -0.127044 0)
(27.3353 -0.0655817 0)
(22.216 -0.0213803 0)
(22.0282 -0.0194042 0)
(27.1429 -0.0644521 0)
(29.2866 -0.128086 0)
(29.0632 -0.128714 0)
(26.9143 -0.0661144 0)
(21.8296 -0.0214719 0)
(21.6408 -0.0194148 0)
(26.7192 -0.0647462 0)
(28.8685 -0.129357 0)
(28.6422 -0.129615 0)
(26.4887 -0.0662242 0)
(21.4418 -0.0214154 0)
(21.2533 -0.0192555 0)
(26.2922 -0.0645453 0)
(28.4452 -0.129727 0)
(28.2174 -0.129494 0)
(26.0614 -0.0657735 0)
(21.0554 -0.0211647 0)
(20.8691 -0.0188765 0)
(25.8655 -0.063698 0)
(28.0198 -0.128912 0)
(27.7924 -0.128052 0)
(25.6364 -0.0646023 0)
(20.6744 -0.0206635 0)
(20.4926 -0.0182173 0)
(25.4433 -0.0620323 0)
(27.5965 -0.126588 0)
(27.3718 -0.124943 0)
(25.2185 -0.0625325 0)
(20.3037 -0.0198463 0)
(20.1292 -0.0172099 0)
(25.031 -0.0593553 0)
(27.1801 -0.122381 0)
(26.9613 -0.119779 0)
(24.8138 -0.0593531 0)
(19.9492 -0.0186376 0)
(19.7856 -0.0157802 0)
(24.6354 -0.0554352 0)
(26.7771 -0.115867 0)
(26.5677 -0.112117 0)
(24.4296 -0.0548233 0)
(19.6183 -0.0169469 0)
(19.4699 -0.013843 0)
(24.2647 -0.0500184 0)
(26.3951 -0.106569 0)
(26.1996 -0.101522 0)
(24.0749 -0.0487032 0)
(19.3198 -0.0146709 0)
(19.1913 -0.01133 0)
(23.9284 -0.042899 0)
(26.0433 -0.094097 0)
(25.8665 -0.0876336 0)
(23.7598 -0.0407941 0)
(19.0636 -0.0117834 0)
(18.9617 -0.00823381 0)
(23.6367 -0.0336725 0)
(25.7318 -0.077975 0)
(25.5794 -0.0698499 0)
(23.4955 -0.0305397 0)
(18.8615 -0.00809659 0)
(18.7965 -0.00430373 0)
(23.4017 -0.0225152 0)
(25.4712 -0.0578807 0)
(25.3494 -0.0480346 0)
(23.2941 -0.0186891 0)
(18.7279 -0.00396223 0)
(18.7043 0.000148537 0)
(23.2367 -0.0102909 0)
(25.2758 -0.0338074 0)
(25.1889 -0.0231138 0)
(23.1677 -0.00562005 0)
(18.6708 0.00062541 0)
(18.6927 0.00493431 0)
(23.1518 0.00353361 0)
(25.1549 -0.00733654 0)
(25.1068 0.00334299 0)
(23.125 0.00823782 0)
(18.6968 0.00515875 0)
(18.7655 0.00979681 0)
(23.1529 0.0180122 0)
(25.1152 0.0200104 0)
(25.1086 0.0303997 0)
(23.1704 0.0222936 0)
(18.8084 0.00943549 0)
(18.919 0.0139236 6.21992e-20)
(23.2394 0.0313447 0)
(25.1571 0.045347 0)
(25.1894 0.0568775 0)
(23.2971 0.0364542 0)
(18.9992 0.0138717 -6.21992e-20)
(19.1563 0.0187188 6.21945e-20)
(23.4127 0.0461383 0)
(25.284 0.0733651 0)
(25.3604 0.0840102 0)
(23.5164 0.0504733 0)
(19.2816 0.0189934 -6.21944e-20)
(19.483 0.0236875 6.21882e-20)
(23.6799 0.0600912 0)
(25.5031 0.100602 0)
(25.6215 0.104457 0)
(23.825 0.0597967 0)
(19.644 0.0216246 -6.21883e-20)
(19.8678 0.0257811 6.2181e-20)
(24.0189 0.0681445 0)
(25.7956 0.118415 0)
(25.9429 0.118457 0)
(24.1909 0.0657647 0)
(20.0474 0.0230183 -6.21813e-20)
(20.2842 0.0264528 6.21732e-20)
(24.4066 0.0724191 0)
(26.1411 0.129463 0)
(26.3091 0.126624 0)
(24.5966 0.0685149 0)
(20.473 0.0232 -6.21738e-20)
(20.7144 0.026274 6.21652e-20)
(24.8252 0.074151 0)
(26.5234 0.135668 0)
(26.7053 0.13052 0)
(25.0255 0.0690941 0)
(20.9048 0.0226518 -6.2166e-20)
(21.1446 0.0253953 6.21571e-20)
(25.2602 0.0737158 0)
(26.9292 0.137642 0)
(27.1185 0.130433 0)
(25.464 0.0676381 0)
(21.3307 0.0214859 -6.21583e-20)
(21.5631 0.0238701 6.21492e-20)
(25.6983 0.0712554 0)
(27.3457 0.13564 0)
(27.5363 0.126771 0)
(25.8995 0.0643736 0)
(21.739 0.0197407 -6.21508e-20)
(21.959 0.0218316 6.21418e-20)
(26.1275 0.0670817 0)
(27.7608 0.130204 0)
(27.947 0.120105 0)
(26.3206 0.0596418 0)
(22.1201 0.0175739 -6.21437e-20)
(22.3237 0.0194246 6.21349e-20)
(26.5376 0.0615732 0)
(28.1639 0.121969 0)
(28.341 0.111031 0)
(26.7179 0.0537969 0)
(22.4665 0.0150952 -6.2137e-20)
(22.6508 0.0167521 6.21286e-20)
(26.92 0.0550816 0)
(28.5461 0.11153 0)
(28.7102 0.100158 0)
(27.0841 0.0471665 0)
(22.7728 0.0124151 -6.21311e-20)
(22.936 0.0140229 6.21231e-20)
(27.2683 0.0480069 0)
(28.9002 0.0995101 0)
(29.0484 0.0880648 0)
(27.4128 0.0401936 0)
(23.0367 0.00988848 -6.21257e-20)
(23.1778 0.0114636 5.59078e-19)
(27.5773 0.0407833 4.1297e-19)
(29.2207 0.0866107 -1.3763e-18)
(29.3503 0.0753969 0)
(27.7001 0.033285 0)
(23.2587 0.00776443 -6.21208e-20)
(23.3767 0.00897137 6.21145e-20)
(27.8443 0.0334796 0)
(29.5037 0.0734516 -6.8809e-19)
(29.6145 0.0627537 0)
(27.9462 0.026649 0)
(23.4378 0.00552581 -6.21167e-20)
(23.5334 0.00652819 6.21113e-20)
(28.0699 0.0265192 0)
(29.7487 0.0605068 0)
(29.8408 0.0505555 0)
(28.1513 0.0203319 0)
(23.576 0.00345837 -6.21134e-20)
(23.651 0.00440134 6.21089e-20)
(28.2555 0.0201242 0)
(29.9559 0.0483125 0)
(30.03 0.0394171 0)
(28.3176 0.0145924 0)
(23.6768 0.00162751 -6.21107e-20)
(23.7335 0.00263553 6.21071e-20)
(28.4036 0.0144869 0)
(30.127 0.0372463 0)
(30.1846 0.0294467 0)
(28.4482 0.00967349 0)
(23.7448 0.000173768 -6.21087e-20)
(23.7862 0.001201 6.21057e-20)
(28.5182 0.00964175 0)
(30.2654 0.0277641 0)
(30.308 0.0211956 0)
(28.5475 0.00565019 0)
(23.7857 -0.00109561 -6.21073e-20)
(23.8149 0.000332071 6.21049e-20)
(28.6039 0.00586256 0)
(30.3751 0.0194606 0)
(30.405 0.0142445 0)
(28.6205 0.00222049 0)
(23.8052 -0.00185186 -6.2106e-20)
(23.8247 -0.000478451 6.21043e-20)
(28.6654 0.00289198 0)
(30.4599 0.013326 0)
(30.4792 0.00887161 0)
(28.6714 -9.77701e-05 0)
(23.808 -0.0024737 -6.21054e-20)
(23.8202 -0.000777888 6.21039e-20)
(28.707 0.000586292 0)
(30.5245 0.00797392 0)
(30.5349 0.00394394 0)
(28.7046 -0.0022714 0)
(23.7985 -0.00305282 -6.21049e-20)
(23.806 -0.0011746 6.21038e-20)
(28.7333 -0.00138357 0)
(30.5726 0.0034989 0)
(30.5758 0.00120056 0)
(28.7242 -0.0035386 0)
(23.7805 -0.00301218 -6.21045e-20)
(23.7836 -0.00125968 6.2104e-20)
(28.7465 -0.00238898 0)
(30.6065 0.000861016 0)
(30.6043 -0.00163774 0)
(28.7324 -0.00420699 0)
(23.7556 -0.00320347 -6.2105e-20)
(23.7573 -0.00176746 6.21044e-20)
(28.751 -0.00374666 0)
(30.6308 -0.00193855 0)
(30.6238 -0.00248066 0)
(28.733 -0.0048978 0)
(23.7277 -0.00331761 -6.21049e-20)
(23.7269 -0.00154269 6.2105e-20)
(28.7474 -0.00372316 0)
(30.6456 -0.00267705 0)
(30.6356 -0.00481422 0)
(28.7267 -0.00502046 0)
(23.6963 -0.00275912 -6.21057e-20)
(23.6957 -0.00149655 6.21055e-20)
(28.74 -0.00456295 0)
(30.6551 -0.00477509 0)
(30.6421 -0.00434557 0)
(28.717 -0.00497787 0)
(23.6645 -0.00308227 -6.21058e-20)
(23.6627 -0.00127946 6.21054e-20)
(28.7274 -0.00413373 0)
(30.6588 -0.00480852 0)
(30.6436 -0.0057705 0)
(28.7029 -0.00529585 0)
(23.6312 -0.00287577 -6.21062e-20)
(23.6298 -0.00124585 6.21058e-20)
(28.7126 -0.00430337 0)
(30.659 -0.00559382 0)
(30.6423 -0.00664697 0)
(28.687 -0.00583889 0)
(23.5985 -0.00296999 -6.21062e-20)
(23.5968 -0.0012027 6.21056e-20)
(28.6953 -0.0045494 0)
(30.6559 -0.00597447 0)
(30.6378 -0.00668277 0)
(28.6686 -0.00568748 0)
(23.5653 -0.0027189 -6.21062e-20)
(23.5643 -0.0014221 6.21062e-20)
(28.6768 -0.00524945 0)
(30.6506 -0.00754357 -6.88033e-19)
(30.6317 -0.00677444 0)
(28.6496 -0.00494467 0)
(23.5331 -0.00255698 -6.21063e-20)
(23.5323 -0.00162538 6.21061e-20)
(28.6576 -0.00530939 0)
(30.6445 -0.00724058 0)
(30.6244 -0.00660664 0)
(28.6299 -0.00558599 0)
(23.5016 -0.00264247 -6.21066e-20)
(23.5002 -0.000673541 6.21068e-20)
(28.6372 -0.00406225 0)
(30.636 -0.00621688 0)
(30.616 -0.00791065 0)
(28.6098 -0.00557685 0)
(23.4699 -0.00285101 -6.21075e-20)
(23.4706 -0.00109586 6.21069e-20)
(28.6184 -0.00422338 0)
(30.6287 -0.00621868 0)
(30.6077 -0.0061807 0)
(28.5904 -0.00538007 0)
(23.4404 -0.00256125 -6.20767e-20)
(23.4419 -0.000661152 6.20146e-20)
(28.5996 -0.00353888 0)
(30.6206 -0.00558413 -6.86731e-19)
(30.6021 -0.0062101 -6.83719e-19)
(28.5743 -0.00455386 3.07391e-19)
(23.4144 -0.0023391 -5.54012e-19)
(23.4177 -0.00101289 0)
(28.5853 -0.00332453 4.55045e-25)
(30.6206 -0.00338618 0)
(30.6064 0.0011666 -6.67819e-19)
(28.5635 -0.000541358 9.95191e-20)
(23.3893 -0.0005253 0)
(23.4239 0.00235865 -9.67752e-19)
(28.589 0.00186384 1.45206e-24)
(30.6356 0.00333192 -6.65933e-19)
(30.6318 0.0125336 0)
(28.5929 0.00785431 0)
(23.4178 0.00199732 9.04794e-19)
(23.4931 0.0132178 -2.45013e-19)
(28.6637 0.0229842 -4.01907e-18)
(30.6969 0.0342127 3.72797e-25)
(30.7521 0.0661469 5.11484e-18)
(28.7453 0.0503635 0)
(23.6379 0.0271221 -1.55979e-18)
(23.9288 0.0687797 -2.01066e-18)
(28.9437 0.0986903 1.59561e-17)
(30.9371 0.102516 7.6558e-23)
(31.4723 0.0684855 -3.71574e-17)
(29.7408 0.12996 1.0436e-18)
(25.0768 0.123922 0)
(24.832 0.0639442 0)
(28.7924 0.127931 -8.81888e-19)
(30.5989 0.192083 7.39138e-19)
(31.7843 0.286008 -7.49164e-18)
(32.657 0.135178 -4.51474e-22)
(33.1622 0.029995 1.31345e-17)
(33.3351 0.00794834 -1.91336e-19)
(33.4409 0.0185707 -2.83228e-18)
(33.6506 0.0241167 2.83651e-18)
(33.7349 0.0193906 0)
(33.8274 0.0213871 0)
(33.8689 0.0200281 6.1056e-19)
(33.9044 0.0218358 7.87788e-19)
(33.9122 0.0204872 -1.75607e-19)
(33.9012 0.0218599 8.90342e-19)
(33.8755 0.0199351 -1.44762e-18)
(33.808 0.0200911 7.45412e-19)
(33.738 0.0130875 0)
(33.5624 0.0119045 -1.27937e-17)
(33.4624 0.00611041 -1.48607e-17)
(33.351 0.00687333 0)
(33.214 0.0194665 -5.28995e-19)
(32.9792 0.0124474 0)
(32.3802 -0.0274022 0)
(31.0803 -0.0711925 2.67819e-18)
(28.3632 -0.0677782 -6.93693e-18)
(24.8989 -0.0674095 0)
(17.761 -0.0675134 -3.6534e-19)
(17.2104 -0.0436769 3.44982e-19)
(24.5426 -0.0776491 -8.53559e-18)
(28.0779 -0.084224 2.00789e-17)
(27.788 -0.0843199 8.11794e-19)
(24.209 -0.0506601 2.68928e-18)
(16.7664 -0.0373103 -2.84099e-18)
(16.4873 -0.0237742 0)
(23.9889 -0.0313999 -1.43996e-18)
(27.6034 -0.0610136 -3.70432e-18)
(27.5141 -0.0378613 0)
(23.9002 -0.0228254 9.46314e-19)
(16.2835 -0.0144225 0)
(16.2537 -0.00853258 0)
(23.8573 -0.0130165 2.22532e-19)
(27.4746 -0.0181251 -1.20512e-18)
(27.4364 -0.0105896 6.49909e-25)
(23.821 -0.0106158 -2.22593e-19)
(16.1441 -0.00559186 0)
(16.1393 0.000696345 0)
(23.7956 -0.00223808 0)
(27.4385 -0.00306065 -1.6857e-19)
(27.4425 0.00325539 0)
(23.7992 0.00172187 0)
(16.1436 0.000671836 0)
(16.1536 0.00103093 0)
(23.808 0.00305157 0)
(27.4506 0.00563599 0)
(27.4607 0.00837109 0)
(23.821 0.0042089 0)
(16.1685 0.00135865 0)
(16.1849 0.00119313 0)
(23.8366 0.00390302 0)
(27.4737 0.00785312 0)
(27.4853 0.00930283 0)
(23.8519 0.00475423 0)
(16.2021 0.00151253 0)
(16.2204 0.00149316 0)
(23.8689 0.00487996 0)
(27.4993 0.00905997 -1.68225e-19)
(27.5132 0.0109757 1.68553e-19)
(23.8862 0.00624813 0)
(16.2395 0.00204128 0)
(16.2582 0.00191248 0)
(23.9038 0.00596446 0)
(27.5278 0.0102058 0)
(27.5412 0.0112804 0)
(23.9208 0.00648155 0)
(16.2764 0.00214981 0)
(16.2969 0.00207598 0)
(23.9397 0.00610581 0)
(27.557 0.0107524 0)
(27.5722 0.0117472 0)
(23.9591 0.00606876 0)
(16.3182 0.00204541 0)
(16.3393 0.00173293 0)
(23.9788 0.00524909 0)
(27.5884 0.0105986 0)
(27.603 0.0112664 0)
(23.9973 0.00552623 0)
(16.3595 0.00183314 0)
(16.3811 0.00172054 0)
(24.0174 0.00521766 0)
(27.6195 0.0103947 0)
(27.6358 0.011517 0)
(24.0379 0.00589108 0)
(16.4036 0.00197935 0)
(16.4262 0.00188601 0)
(24.0589 0.00563894 0)
(27.6532 0.0105601 0)
(27.6691 0.0118047 0)
(24.0789 0.00667069 0)
(16.4482 0.00228344 0)
(16.4704 0.00234857 0)
(24.0993 0.00684345 0)
(27.6862 0.0115342 0)
(27.7024 0.0130595 0)
(24.1196 0.00761588 0)
(16.493 0.00263699 0)
(16.5154 0.00240417 0)
(24.1406 0.00697921 0)
(27.72 0.011984 0)
(27.7363 0.0126145 0)
(24.1611 0.00687604 0)
(16.538 0.00237395 0)
(16.5616 0.00208637 0)
(24.1828 0.00615311 0)
(27.7542 0.0119087 0)
(27.7715 0.0132034 0)
(24.2047 0.00661644 0)
(16.5859 0.00225077 0)
(16.6098 0.00205201 0)
(24.2267 0.00610772 0)
(27.7897 0.0121504 0)
(27.8066 0.0129756 0)
(24.2478 0.00647392 0)
(16.6333 0.00219408 0)
(16.6573 0.00208232 0)
(24.27 0.00625668 0)
(27.825 0.0123843 0)
(27.843 0.0135358 0)
(24.2923 0.00678489 0)
(16.6821 0.00228351 0)
(16.7065 0.00207121 0)
(24.3149 0.006238 0)
(27.8619 0.0124235 0)
(27.8794 0.013147 0)
(24.3366 0.0065634 0)
(16.7306 0.00220471 -1.44086e-19)
(16.7555 0.00210085 1.4394e-19)
(24.3597 0.00638843 0)
(27.8987 0.0126583 0)
(27.9174 0.0137776 0)
(24.3828 0.00693222 0)
(16.781 0.002327 0)
(16.8066 0.00216272 0)
(24.4064 0.00642822 0)
(27.9372 0.0128316 0)
(27.9558 0.0134722 0)
(24.4292 0.00668397 0)
(16.8317 0.00227002 0)
(16.8576 0.00211489 0)
(24.4532 0.00647042 0)
(27.976 0.0129289 0)
(27.9955 0.0141777 0)
(24.477 0.00708976 0)
(16.8835 0.00231132 0)
(16.9094 0.00226548 0)
(24.5012 0.00689089 0)
(28.0162 0.0134048 0)
(28.0357 0.0145151 0)
(24.5246 0.00796883 0)
(16.9344 0.00271077 0)
(16.9599 0.00271476 0)
(24.5488 0.00804544 0)
(28.0569 0.0140329 0)
(28.0778 0.014917 0)
(24.5733 0.00831188 0)
(16.9858 0.00281144 0)
(17.0122 0.00226587 0)
(24.5986 0.00684721 0)
(28.1001 0.0135471 0)
(28.121 0.0142184 0)
(24.6233 0.00677917 0)
(17.0378 0.00217365 0)
(17.0637 0.0020575 0)
(24.6489 0.00664236 0)
(28.1437 0.0138742 0)
(28.1659 0.0150682 0)
(24.6745 0.0071584 0)
(17.0895 0.00222081 0)
(17.1153 0.0020461 0)
(24.7007 0.00670534 0)
(28.1896 0.0142468 0)
(28.2125 0.0149581 0)
(24.7266 0.00689317 0)
(17.1403 0.00207706 0)
(17.1658 0.00193157 0)
(24.7535 0.0067408 0)
(28.2373 0.0146283 0)
(28.262 0.0155788 0)
(24.7808 0.00708479 0)
(17.1912 0.00202387 0)
(17.2167 0.00181548 0)
(24.809 0.00659991 0)
(28.2885 0.0148503 0)
(28.3144 0.0156369 0)
(24.837 0.00679941 0)
(17.2411 0.00181336 0)
(17.266 0.00166041 0)
(24.8663 0.00672245 0)
(28.3424 0.0154841 0)
(28.3705 0.0165056 0)
(24.8961 0.00705495 0)
(17.2905 0.0016941 0)
(17.3149 0.00147886 0)
(24.9268 0.00659627 0)
(28.4004 0.0158757 0)
(28.4304 0.0166519 0)
(24.9578 0.00672314 0)
(17.3385 0.00144075 0)
(17.3623 0.00121337 0)
(24.9903 0.00661977 0)
(28.4628 0.0166025 0)
(28.4954 0.0177181 0)
(25.0234 0.00690962 0)
(17.3852 0.00116 0)
(17.4075 0.00088477 0)
(25.0575 0.00649236 0)
(28.5302 0.0173574 0)
(28.5653 0.0184908 0)
(25.0922 0.00689088 0)
(17.4285 0.000825706 0)
(17.4495 0.000696695 0)
(25.1286 0.00708828 0)
(28.603 0.0186042 0)
(28.6418 0.0200296 0)
(25.1662 0.00792402 0)
(17.4698 0.000863275 0)
(17.4895 0.000606756 0)
(25.2055 0.00748791 0)
(28.6834 0.0195181 0)
(28.7258 0.0203858 0)
(25.2461 0.00703434 0)
(17.5087 0.000134249 0)
(17.5282 -0.000422304 0)
(25.2894 0.00647834 0)
(28.7715 0.0203974 0)
(28.8191 0.0220953 0)
(25.3349 0.00693009 0)
(17.5477 -0.000490402 0)
(17.5668 -0.000754237 0)
(25.383 0.00694176 0)
(28.8701 0.0224489 0)
(28.9227 0.0248013 0)
(25.4331 0.00805123 0)
(17.586 -0.000569113 0)
(17.6061 -0.00039472 0)
(25.4868 0.0095779 0)
(28.9795 0.0265579 0)
(29.0387 0.0296575 0)
(25.5436 0.0111839 0)
(17.6273 -7.74271e-05 0)
(17.6512 -0.000415343 0)
(25.605 0.0106336 0)
(29.1026 0.0304484 0)
(29.1691 0.0331869 0)
(25.6708 0.0111664 0)
(17.6784 -0.000463897 0)
(17.7087 -0.000630503 0)
(25.7416 0.0119212 0)
(29.2403 0.034931 0)
(29.3155 0.0379105 0)
(25.8178 0.0135013 0)
(17.7438 -0.000421157 0)
(17.7846 2.24816e-05 0)
(25.9003 0.0149968 0)
(29.3959 0.0398423 0)
(29.4805 0.0442507 0)
(25.9885 0.018828 0)
(17.8312 0.00119545 0)
(17.8873 0.00249161 0)
(26.085 0.0229665 0)
(29.5719 0.0483931 0)
(29.6682 0.054839 0)
(26.1889 0.0274616 0)
(17.9538 0.00419876 0)
(18.0334 0.0060277 0)
(26.302 0.0318362 0)
(29.7703 0.0611519 0)
(29.8779 0.069953 0)
(26.4243 0.037753 0)
(18.1279 0.00849927 0)
(18.2401 0.0105893 0)
(26.5588 0.0433938 0)
(29.9934 0.0779439 1.67911e-19)
(30.1159 0.0870834 -1.68235e-19)
(26.7052 0.048317 0)
(18.3715 0.0127331 0)
(18.5278 0.0135647 0)
(26.8669 0.0494168 0)
(30.2468 0.0942831 0)
(30.3863 0.104836 0)
(27.0456 0.0544468 0)
(18.7125 0.0161431 0)
(18.929 0.0201304 0)
(27.2427 0.0618103 0)
(30.5373 0.116972 0)
(30.6988 0.13357 0)
(27.4586 0.0718268 0)
(19.1789 0.0259983 0)
(19.4768 0.0344295 0)
(27.7026 0.0837928 0)
(30.8781 0.152837 0)
(31.084 0.179676 1.68108e-19)
(27.9885 0.0995344 0)
(19.8457 0.0471017 0)
(20.3073 0.0778355 0)
(28.3184 0.137034 0)
(31.3157 0.233869 -1.68636e-19)
(31.5476 0.34766 -2.7092e-18)
(28.6585 0.256611 1.75009e-23)
(20.7696 0.177138 2.29294e-18)
(21.2084 0.245456 -9.12027e-18)
(28.9857 0.349412 -4.99051e-23)
(31.7556 0.464056 2.53696e-18)
(31.9214 0.627683 -2.52246e-18)
(29.2556 0.514668 -7.02562e-18)
(21.6334 0.381618 9.03434e-18)
(22.0036 0.545519 1.42564e-19)
(29.4063 0.699702 -7.00058e-18)
(32.0295 0.799476 5.33376e-18)
(32.1134 0.965787 -5.46438e-18)
(29.6246 0.850427 0)
(22.3663 0.658319 0)
(22.6999 0.80044 1.80007e-17)
(29.7484 1.01049 -1.37467e-17)
(32.1796 1.1228 -5.09321e-18)
(32.225 1.26877 0)
(29.887 1.14779 -1.36019e-17)
(23.0725 0.92031 1.78668e-17)
(23.4654 1.04593 1.77343e-17)
(30.0229 1.291 -4.21904e-19)
(32.2733 1.41976 0)
(32.2737 1.58091 0)
(30.1121 1.46985 4.22521e-19)
(23.8143 1.20487 -5.53561e-19)
(24.1146 1.31724 -1.63558e-17)
(30.1932 1.60128 0)
(32.2621 1.71344 0)
(32.254 1.81857 -1.02951e-17)
(30.2848 1.69442 1.35186e-17)
(24.4444 1.40247 -1.82847e-17)
(24.8026 1.51988 0)
(30.3726 1.81492 1.65833e-18)
(32.2483 1.92878 0)
(32.2256 2.05857 -9.74529e-18)
(30.4444 1.94386 -1.64262e-18)
(25.1739 1.63099 -4.44134e-18)
(25.3783 1.71803 2.04803e-17)
(30.5005 2.11539 -3.46868e-17)
(32.1466 2.22565 2.41337e-17)
(31.9402 2.1445 2.98765e-17)
(30.3701 2.04012 -5.54941e-17)
(25.3559 1.59343 -2.03492e-17)
(20.2152 1.1422 -3.16546e-17)
(28.0082 1.57539 -3.12749e-18)
(30.8992 1.66867 -1.59463e-17)
(31.6995 2.26335 -3.52889e-18)
(29.0364 2.12813 4.69598e-18)
(21.4751 1.59816 -3.10473e-18)
(21.469 1.72022 1.39527e-18)
(29.1568 2.32912 -2.11654e-18)
(31.7273 2.50988 -1.61056e-18)
(31.6849 2.63892 5.26125e-17)
(29.2259 2.43224 -2.10476e-22)
(21.807 1.81734 -4.46228e-17)
(22.2291 1.97752 3.33023e-19)
(29.2404 2.56915 6.48996e-17)
(31.6074 2.75319 1.34542e-22)
(31.6232 2.85357 2.46472e-17)
(29.398 2.65606 -3.1823e-17)
(22.7452 2.08496 4.17805e-17)
(23.3199 2.21119 -3.18232e-19)
(29.5187 2.75048 1.20816e-19)
(31.6144 2.95523 2.33498e-17)
(31.6222 3.09188 -2.38916e-17)
(29.6871 2.90704 3.02563e-17)
(23.8616 2.37978 -3.09332e-19)
(24.359 2.49699 6.17108e-19)
(29.7615 2.99332 2.82875e-17)
(31.565 3.18732 -2.36275e-17)
(31.5539 3.30755 -1.80468e-17)
(29.8939 3.15363 -2.72368e-17)
(24.8531 2.66352 4.04802e-17)
(25.3224 2.75776 -2.37142e-18)
(29.9949 3.22777 0)
(31.5231 3.39181 -2.62613e-18)
(31.4634 3.53017 0)
(30.0777 3.35072 2.41312e-17)
(25.7348 2.86276 -6.88887e-17)
(25.8753 2.83651 5.08945e-17)
(30.0222 3.38479 0)
(31.2725 3.51694 -1.26526e-16)
(30.4705 3.14149 1.06556e-17)
(28.2507 2.87356 -3.14256e-18)
(22.3137 2.24046 -3.7792e-18)
(23.645 2.8766 0)
(29.1679 3.48082 -2.30728e-18)
(31.0986 3.65072 -6.95264e-18)
(31.1057 3.84049 0)
(29.3058 3.64611 -3.20582e-17)
(23.9389 3.02915 4.23679e-17)
(24.4896 3.14507 6.33648e-19)
(29.5241 3.7323 -9.62328e-19)
(31.1263 3.95283 0)
(31.0978 4.07891 -1.62199e-22)
(29.6129 3.90197 2.80051e-17)
(24.8997 3.34447 -3.89157e-17)
(25.2988 3.46396 3.45896e-17)
(29.6797 3.99822 3.49184e-18)
(31.0404 4.17123 0)
(30.9912 4.2977 1.9856e-17)
(29.7606 4.15768 -1.66682e-18)
(25.6965 3.61536 -2.24941e-18)
(25.8808 3.75365 4.10975e-18)
(29.736 4.33816 0)
(30.8759 4.45269 -3.21838e-17)
(30.6504 4.42403 -3.7042e-18)
(29.6086 4.27839 2.28299e-18)
(25.981 3.69898 4.60496e-17)
(22.8868 3.41346 0)
(28.0897 3.97782 -3.0789e-18)
(29.9643 4.13541 7.91932e-18)
(30.4005 4.62388 3.78739e-17)
(28.8826 4.42652 -7.45124e-17)
(24.0251 3.76468 9.69254e-17)
(24.2985 3.94942 -4.36734e-17)
(28.9185 4.60234 -3.19107e-17)
(30.3102 4.82242 1.54668e-18)
(30.1655 4.97989 -2.3896e-17)
(28.9142 4.78846 -3.15717e-17)
(24.6776 4.18392 8.41231e-17)
(25.0553 4.35506 0)
(28.8782 4.89728 3.73059e-18)
(30.0105 5.10862 0)
(29.8454 5.28622 0)
(28.8762 5.07193 9.54997e-18)
(25.4427 4.54194 0)
(25.5222 4.6741 0)
(28.692 5.2646 -1.98007e-17)
(29.53 5.38404 0)
(28.8872 5.1882 -2.50349e-17)
(27.4016 4.84976 2.59376e-17)
(22.9434 4.06847 0)
(24.2001 4.71668 1.00936e-16)
(28.0143 5.32287 2.94577e-19)
(29.2589 5.5332 -1.78754e-18)
(29.121 5.79925 -2.44472e-17)
(28.0496 5.63131 3.24114e-17)
(24.4993 5.04713 -8.72485e-17)
(24.8375 5.21818 8.10592e-17)
(28.0052 5.73995 -6.00126e-17)
(28.9306 5.93604 -2.18059e-17)
(28.6873 6.1548 -3.46706e-17)
(27.9125 6.00198 8.85835e-17)
(25.0117 5.45538 -1.52763e-16)
(24.9652 5.53994 2.11446e-16)
(27.6216 6.11036 9.80559e-17)
(28.3114 6.21725 1.1997e-21)
(27.745 6.12479 -7.07124e-19)
(26.5779 5.72741 -8.27407e-19)
(22.807 4.95389 -1.00416e-18)
(23.6888 5.84919 1.02253e-16)
(26.8903 6.46434 6.00194e-19)
(27.8592 6.58914 0)
(27.5013 6.77569 9.76966e-17)
(26.7028 6.59443 -6.65434e-17)
(23.77 6.06806 -2.45663e-18)
(23.9974 6.38971 2.48662e-18)
(26.4858 6.84905 0)
(27.1071 7.02536 -5.61188e-17)
(26.5975 7.15744 -3.37769e-17)
(26.0839 7.11234 0)
(23.8647 6.61279 3.31476e-18)
(22.173 5.99614 -1.39908e-16)
(25.1649 6.74871 1.10496e-16)
(25.9879 7.18846 0)
(25.869 7.64739 -5.78804e-17)
(25.1366 7.60254 7.72827e-17)
(22.8101 7.11607 2.02152e-19)
(22.7437 7.33843 8.85112e-17)
(24.7881 7.65085 0)
(25.334 7.76346 0)
(24.6724 8.02267 0)
(24.2536 8.06026 -5.40344e-17)
(22.5669 7.82588 1.55681e-16)
(22.0992 8.00339 0)
(23.5174 8.19379 0)
(23.8146 8.07388 -8.03598e-18)
(22.8318 8.43718 1.09651e-17)
(22.3481 8.29482 0)
(20.398 7.97368 -1.32137e-16)
(20.3156 8.61913 -1.2078e-17)
(21.757 8.77281 -1.32758e-16)
(22.1249 8.64485 2.12787e-21)
(20.8516 8.61318 -4.65486e-18)
(20.6298 8.89169 5.91875e-18)
(19.49 8.82097 1.87963e-17)
(17.6128 8.85593 -4.51773e-18)
(19.0781 9.00552 -1.46969e-17)
(19.4782 9.02685 1.79654e-17)
(18.3266 8.86324 -8.52756e-17)
(17.9579 9.22172 1.2262e-16)
(16.9565 9.41628 -1.24252e-17)
(15.3072 9.40702 2.46788e-16)
(15.9966 8.82786 -1.52641e-16)
(16.3263 8.1259 0)
(13.3854 8.1919 -7.22847e-17)
(12.9525 8.68295 -1.20302e-17)
(12.1208 9.13201 0)
(9.31167 7.7294 0)
(9.92682 6.8585 1.78637e-17)
(10.707 5.87973 -9.03023e-18)
(7.33198 3.94103 -1.32506e-16)
(5.87026 4.90467 3.63401e-16)
(4.96288 5.15503 -2.44757e-16)
(1.89332 0.806405 1.99195e-16)
(3.16219 -0.221313 -2.70667e-16)
(5.08059 -1.14757 1.83607e-16)
(3.76961 -9.54539 0)
(1.55779 -9.57357 -4.39436e-17)
(-0.182815 -9.83366 1.27286e-16)
(3.37794 -18.2999 -9.60489e-19)
(5.06857 -17.3025 4.64757e-17)
(6.51394 -16.5453 -3.20332e-17)