/*--------------------------------*- C++ -*----------------------------------*\
| =========                 |                                                 |
| \\      /  F ield         | OpenFOAM: The Open Source CFD Toolbox           |
|  \\    /   O peration     | Version:  v2006                                 |
|   \\  /    A nd           | Website:  www.openfoam.com                      |
|    \\/     M anipulation  |                                                 |
\*---------------------------------------------------------------------------*/
FoamFile
{
    version     2.0;
    format      ascii;
    class       volScalarField;
    location    "0.074";
    object      k;
}
// * * * * * * * * * * * * * * * * * * * * * * * * * * * * * * * * * * * * * //

dimensions      [0 2 -2 0 0 0 0];


internalField   nonuniform List<scalar> 
24416
(
230.51
230.51
230.51
230.51
230.51
230.51
230.511
230.511
230.511
230.51
230.502
230.458
230.328
230.095
229.777
229.402
228.995
228.575
228.153
227.734
227.318
226.902
226.485
226.062
225.632
225.194
224.746
224.29
223.824
223.35
222.867
222.377
221.879
221.374
220.862
220.344
219.819
219.288
218.751
218.208
217.661
217.108
216.55
215.989
215.423
214.854
214.282
213.707
213.13
212.551
211.97
211.388
210.806
210.224
209.641
209.06
208.479
207.901
207.324
206.749
206.177
205.609
205.044
204.484
203.927
203.376
202.83
202.289
201.754
201.225
200.703
200.188
199.681
199.181
198.69
198.209
197.737
197.275
196.823
196.378
195.94
195.504
195.065
194.619
194.163
193.701
193.248
192.838
192.52
192.34
192.308
192.374
192.46
192.529
192.607
192.676
192.753
192.836
192.91
192.957
192.949
192.883
192.741
192.384
191.766
190.948
189.878
187.844
184.635
168.215
150.26
175.684
185.423
180.141
163.323
135.536
124.066
152.99
174.35
167.641
142.138
114.242
107.095
134.816
161.892
155.382
126.632
100.764
96.2443
121.575
150.763
145.175
115.226
91.9045
88.6442
111.506
141.612
136.697
107.157
85.5219
83.2665
104.804
134.048
129.938
101.557
80.9622
79.3266
99.9818
127.94
124.416
97.4264
77.55
76.3046
96.3162
122.884
119.813
94.2391
74.8866
73.8908
93.3869
118.591
115.892
91.6701
72.7233
71.8945
90.9572
114.85
112.471
89.5023
70.9024
70.1913
88.8862
111.56
109.425
87.6172
69.3256
68.7002
87.0709
108.617
106.678
85.9386
67.9285
67.3673
85.445
105.951
104.17
84.4175
66.6677
66.1563
83.9648
103.51
101.859
83.0198
65.5138
65.0431
82.601
101.254
99.7144
81.7237
64.4465
64.0071
81.3327
99.1567
97.7119
80.5112
63.4479
63.0351
80.1435
97.1942
95.8317
79.3696
62.5077
62.1173
79.0223
95.349
94.06
78.2901
61.6174
61.2463
77.9608
93.6086
92.3859
77.2657
60.7702
60.4159
76.9525
91.9627
90.7999
76.2907
59.9608
59.6213
75.9921
90.402
89.2943
75.3604
59.1848
58.8583
75.075
88.9197
87.8626
74.4708
58.4386
58.1238
74.1976
87.5094
86.499
73.6185
57.719
57.4146
73.3565
86.1659
85.2001
72.8007
57.0234
56.7283
72.5493
84.8861
83.9624
72.0155
56.3496
56.063
71.7741
83.6662
82.7818
71.261
55.6956
55.4168
71.0288
82.5015
81.6528
70.5347
55.0598
54.7882
70.3107
81.387
80.5709
69.8337
54.4406
54.1754
69.6172
80.3186
79.5335
69.1557
53.8363
53.577
68.9461
79.2935
78.5366
68.4987
53.2456
52.9915
68.2952
78.3079
77.5769
67.8605
52.6669
52.4174
67.6624
77.3587
76.6522
67.2392
52.0989
51.8536
67.0461
76.4438
75.7603
66.6334
51.5405
51.2987
66.4449
75.5609
74.899
66.0418
50.9905
50.7519
65.8574
74.7076
74.0648
65.4629
50.448
50.2122
65.282
73.8808
73.2563
64.8952
49.9119
49.6785
64.7175
73.079
72.4708
64.3372
49.3815
49.15
64.1622
72.2996
71.7069
63.7877
48.8555
48.6256
63.615
71.5414
70.9632
63.2457
48.3332
48.1045
63.0749
70.8026
70.2373
62.7099
47.8137
47.5859
62.5407
70.081
69.5273
62.1793
47.2963
47.069
62.0112
69.3748
68.8317
61.6525
46.7801
46.553
61.4852
68.6825
68.1492
61.1285
46.2644
46.037
60.9617
68.0031
67.4787
60.6065
45.7482
45.5203
60.44
67.3353
66.8192
60.0858
45.2309
45.0022
59.9193
66.6782
66.1695
59.5657
44.7119
44.4821
59.399
66.0307
65.5287
59.0455
44.1904
43.9593
58.8784
65.3918
64.8965
58.5247
43.666
43.4332
58.3572
64.7613
64.2718
58.003
43.1381
42.9035
57.8347
64.1379
63.6532
57.4796
42.6062
42.3696
57.3103
63.5203
63.0404
56.9537
42.0698
41.8309
56.7837
62.9085
62.4327
56.4256
41.5284
41.2871
56.2546
62.3014
61.8288
55.8947
40.9815
40.7376
55.7224
61.6977
61.2276
55.3599
40.4288
40.182
55.1859
61.0964
60.6283
54.8203
39.8695
39.6196
54.6443
60.4968
60.0301
54.275
39.3031
39.0499
54.0969
59.8981
59.4325
53.7234
38.729
38.4722
53.543
59.2998
58.8346
53.165
38.1468
37.8863
52.9821
58.7011
58.2361
52.5993
37.556
37.2915
52.4137
58.1015
57.6363
52.0258
36.9562
36.6876
51.8374
57.5005
57.0347
51.444
36.347
36.074
51.2526
56.8976
56.4306
50.8535
35.728
35.4505
50.659
56.2921
55.8241
50.2538
35.0988
34.8166
50.0561
55.6841
55.2149
49.6449
34.4591
34.172
49.4439
55.0734
54.6026
49.0266
33.8086
33.5166
48.822
54.4592
53.9863
48.3983
33.1472
32.8503
48.1901
53.8408
53.3651
47.7595
32.4747
32.1728
47.5474
53.2173
52.7385
47.1096
31.791
31.484
46.8934
52.5882
52.1057
46.448
31.0959
30.7838
46.2277
51.9527
51.4662
45.7743
30.3894
30.0722
45.5496
51.3104
50.8197
45.0882
29.6712
29.349
44.859
50.6607
50.1649
44.3891
28.9417
28.6145
44.1553
50.0025
49.5012
43.6765
28.2007
27.8686
43.4378
49.3354
48.8287
42.95
27.4483
27.1114
42.7065
48.6596
48.1476
42.2098
26.6849
26.3433
41.9618
47.9753
47.458
41.4565
25.9108
25.565
41.204
47.2824
46.7595
40.6903
25.127
24.7773
40.4333
46.5805
46.0519
39.9114
24.3343
23.9812
39.6501
45.8694
45.3351
39.1201
23.5338
23.1779
38.8547
45.1489
44.6081
38.3166
22.7267
22.3683
38.047
44.4183
43.8713
37.5011
21.9144
21.5534
37.2275
43.6778
43.1247
36.6739
21.0987
20.7339
36.3966
42.9277
42.369
35.8362
20.2824
19.9088
35.5555
42.1687
41.6047
34.9896
19.4712
19.0732
34.7042
41.4012
40.8317
34.1314
18.6792
18.3915
33.8524
40.6256
40.0533
33.2927
18.0499
17.7843
33.0218
39.8465
39.275
32.4767
17.4526
17.1892
32.2127
39.0689
38.5012
31.6808
16.8585
16.5939
31.4231
38.2968
37.7339
30.9028
16.263
15.9977
30.6511
37.5317
36.9745
30.1418
15.6678
15.4032
29.8958
36.7751
36.2253
29.3971
15.0758
14.8136
29.1566
36.0294
35.4879
28.6683
14.4902
14.2322
28.4335
35.2959
34.7633
27.9558
13.9148
13.6628
27.7269
34.5756
34.0526
27.2602
13.3531
13.1091
27.0375
33.8696
33.3567
26.5821
12.8089
12.5745
26.366
33.1785
32.6759
25.9225
12.2857
12.0627
25.713
32.5028
32.0108
25.2818
11.7868
11.5767
25.0795
31.8428
31.3616
24.661
11.3152
11.1192
24.466
31.1988
30.7289
24.061
10.8734
10.6926
23.8735
30.5711
30.1115
23.4816
10.4631
10.2982
23.3017
29.9586
29.509
22.9231
10.0857
9.93693
22.7509
29.3625
28.9227
22.3866
9.74165
9.6087
22.221
28.7817
28.352
21.8695
9.43017
9.31267
21.7113
28.2158
27.7968
21.3732
9.15046
9.04774
21.2222
27.6649
27.2558
20.897
8.90105
8.81209
20.7526
27.1278
26.728
20.4393
8.67964
8.60303
20.3012
26.604
26.2141
19.9997
8.48368
8.41811
19.8678
26.0942
25.7147
19.5784
8.31071
8.25484
19.4522
25.5977
25.2303
19.1741
8.15802
8.11049
19.054
25.1153
24.758
18.7875
8.02313
7.98258
18.6722
24.6459
24.2965
18.4154
7.90325
7.86757
18.3045
24.188
23.8476
18.0561
7.79511
7.7629
17.9506
23.7425
23.4108
17.712
7.69642
7.66672
17.6109
23.3084
22.9843
17.3805
7.60455
7.57614
17.2821
22.8839
22.5663
17.0573
7.51619
7.48765
16.9599
22.4673
22.1509
16.73
7.42534
7.39913
16.6551
22.0649
21.7273
16.377
7.33077
7.30085
16.3173
21.6314
21.3219
16.0698
7.23548
7.19113
15.9681
21.2176
20.9202
15.7324
7.13395
7.04997
15.54
20.7041
20.5776
15.4215
6.98275
7.04305
15.5955
20.6889
20.8085
15.696
7.10074
29.0922
35.872
42.3121
49.1667
55.9522
64.1056
70.9464
77.7299
83.8907
89.9499
95.6643
101.268
106.637
111.889
116.962
121.919
126.728
131.424
135.991
140.442
144.773
148.984
153.075
157.036
160.869
164.557
168.101
171.478
174.684
177.687
180.477
183.03
185.307
187.275
188.864
190.028
190.658
190.665
189.897
188.184
185.316
181.015
174.939
166.599
157.437
143.245
126.78
106.69
82.5442
56.9097
41.5598
22.9806
22.2136
39.5949
54.4948
53.1588
38.5934
21.3945
20.5974
37.0409
51.3317
51.3955
37.1131
20.1123
19.9375
37.1137
51.6768
51.4854
36.8224
19.7498
19.8428
37.2433
52.5126
52.4899
37.1478
19.809
20.0121
37.8354
53.7066
53.5493
37.6233
19.9546
20.2087
38.3886
54.8435
54.8152
38.2733
20.1959
20.4681
39.1192
56.1688
56.0258
38.9184
20.4245
20.7225
39.7875
57.4866
57.5041
39.6868
20.7234
21.036
40.6378
59.0099
58.8816
40.4445
20.9962
21.3382
41.431
60.5256
60.5872
41.3444
21.3473
21.6935
42.4076
62.2547
62.1404
42.222
21.6579
22.0373
43.3334
63.9859
64.0909
43.2618
22.0538
22.4345
44.4503
65.9458
65.8505
44.273
22.401
22.82
45.5223
67.921
68.0754
45.4671
22.8427
23.2626
46.7968
70.1408
70.0662
46.6295
23.2308
23.6978
48.0436
72.4054
72.6234
48.0097
23.7284
24.1972
49.509
74.9439
74.8985
49.3557
24.1687
24.6971
50.9703
77.573
77.8789
50.9625
24.7397
25.2689
52.6541
80.5145
80.5102
52.5113
25.2468
25.8532
54.3454
83.6106
84.0271
54.3565
25.9159
26.5312
56.2482
87.0793
87.1659
56.1021
26.5438
27.3129
58.2508
90.8732
91.487
58.3239
27.473
28.424
60.6763
95.271
95.605
60.5799
28.6713
29.884
63.6513
100.317
100.886
63.5071
30.0026
30.9298
66.9077
105.664
105.341
65.9162
30.6194
31.1339
68.6738
110.256
110.365
67.7268
30.8239
31.6157
70.0456
115.667
116.695
69.9578
32.5418
36.4719
77.8052
123.359
124.064
89.3331
41.8433
23.1586
38.6926
72.7743
114.157
66.0054
28.4431
29.1139
64.266
114.962
133.627
71.7965
34.7644
45.679
81.7138
166.1
218.365
126.158
65.7255
90.1572
184.242
244.952
267.13
199.419
97.4672
111.727
233.121
294.492
304.072
245.326
116.947
118.725
245.836
302.393
325.595
272.567
138.669
158.556
298.948
347.289
369.301
326.584
180.041
206.406
354.053
391.998
412.981
380.02
231.68
254.447
400.829
424.405
428.623
413.278
271.038
291.284
423.583
431.971
424.155
423.358
309.703
321.551
420.422
417.34
407.674
414.845
329.118
335.365
402.008
387.613
375.164
388.208
336.621
336.446
378.134
365.979
356.914
368.974
334.573
331.496
368.292
358.092
358.728
371.036
327.302
321.784
377.858
374.849
382.785
366.497
315.61
309.419
337.564
367.507
363.847
326.701
304.526
298.348
309.321
336.272
306.786
296.123
292.947
285.084
282.146
290.288
272.714
265.747
278.531
268.228
248.006
247.95
234.191
229.701
255.127
236.994
210.893
218.612
191.941
191.561
215.887
187.658
168.991
183.576
167.15
153.368
163.748
132.17
122.059
131.717
127.099
98.0857
85.6951
68.9057
79.7398
110.193
66.1811
48.0775
48.306
49.4012
61.7487
75.4442
66.9565
54.1862
44.6325
37.6472
35.1098
43.3788
49.5081
42.4754
38.7874
37.4385
38.5636
45.1469
31.2925
28.7988
34.3639
34.7929
32.1416
37.5825
34.2998
30.0441
34.3885
34.9419
24.1716
25.5237
28.6753
25.7737
31.7627
32.8908
24.5609
27.237
21.2143
21.0658
35.4104
31.5479
23.9988
25.4037
20.7617
21.8079
34.3837
30.9276
22.9425
27.3363
25.4396
22.4965
32.6379
36.2945
20.9175
19.7455
26.9108
22.6551
31.5488
33.6234
22.4411
25.3143
19.8504
20.9954
38.1125
32.9299
22.3912
26.2212
24.6203
22.4554
35.1875
40.6164
21.1084
19.9391
22.7418
22.3611
34.4382
38.8262
21.9386
19.3612
24.1287
21.3157
33.7278
36.5598
21.5618
22.7288
19.3874
21.9332
42.3663
35.3251
20.9764
21.7619
19.0477
22.1115
40.3325
34.1861
20.3095
21.8572
20.8479
20.1218
37.2877
42.6834
23.5968
18.6872
20.6217
20.3505
35.6595
39.5706
19.9908
20.0697
18.4834
25.1995
45.6611
38.4159
18.265
20.1659
18.6386
23.5051
45.8273
38.0844
18.9766
20.8406
18.8695
22.7982
43.9816
36.6673
20.127
21.4426
19.8437
19.8323
40.5264
48.3146
25.4118
19.2645
20.2492
19.5312
39.9206
46.7112
24.521
18.8558
20.9985
20.5642
38.9361
43.3746
20.5233
19.3354
19.7534
27.6902
52.5494
42.3467
19.1134
19.1772
18.9638
27.251
50.3325
41.3761
18.8116
19.8526
18.8879
24.6939
49.2727
40.5546
20.636
21.0549
19.4924
20.8664
45.3707
53.5891
30.6349
20.1738
19.535
19.2066
44.3646
54.6185
27.7286
19.6167
20.3082
19.0528
44.3771
53.0231
26.6318
19.8605
21.7955
21.5464
43.8729
49.1019
21.9378
20.1343
21.4688
31.9247
60.1355
48.047
20.245
20.0297
20.5167
31.2838
58.9463
47.6774
20.2303
20.5009
20.3339
28.5614
57.0799
46.3869
21.8763
21.8088
20.2325
22.5454
52.2531
64.7351
34.4828
22.1072
20.4116
21.0965
51.244
63.1923
33.4015
21.3897
21.0585
20.6221
50.9006
61.4422
32.1346
21.6
21.6942
20.6574
50.101
60.4867
30.6439
21.8097
23.0181
23.099
49.1996
55.812
24.4484
21.5225
23.8335
37.8496
69.4266
56.0853
22.3334
22.0398
23.2303
34.6612
70.2118
56.0582
21.3087
22.078
23.1662
34.0397
68.4335
55.4529
21.828
22.386
23.4736
34.8235
67.8973
55.1119
22.5652
22.8908
23.3923
33.9911
66.1237
53.6125
24.7586
24.2669
22.6336
25.8035
60.5275
75.2376
41.8562
25.6561
23.3356
24.5545
60.6177
75.9175
38.6791
24.919
23.7444
23.1969
60.8475
73.6255
37.7699
25.0381
24.044
23.5157
60.0329
72.9862
37.6321
25.3008
24.4285
24.1401
59.3118
71.3791
37.8002
25.3897
25.9564
26.678
57.9362
65.8538
28.3601
24.4008
27.931
46.0864
82.188
66.4165
26.2287
25.3038
27.3829
41.7052
83.3919
66.5747
24.9249
25.0219
27.0926
40.8806
81.9534
65.7208
25.2848
25.116
27.0788
41.1272
80.2907
65.0946
25.7347
25.4079
26.8059
41.4418
78.2315
63.0318
28.2102
27.0419
25.4042
29.8437
71.5587
87.9208
51.2421
29.4922
26.505
28.0574
72.0113
90.5934
45.5196
29.0164
26.3317
26.5801
72.2475
88.6538
43.693
28.7208
26.4806
26.5875
71.1301
86.7986
44.1144
28.8693
26.962
27.4148
70.2482
84.4937
44.7433
28.7618
28.5573
30.0592
68.029
77.6513
32.5065
27.1031
31.8682
56.0315
96.2707
77.9495
30.7733
28.2351
31.3903
50.885
98.2214
77.9966
28.8083
28.2155
31.0715
49.0673
95.2395
77.0693
28.797
28.1608
31.0409
48.9019
94.2799
75.8517
29.4629
28.4297
30.6547
48.8981
91.6561
74.0378
32.1526
30.1009
28.5276
34.3079
84.1034
105.482
59.5427
34.4419
30.2003
33.0618
83.5224
106.451
54.1565
33.8187
30.2196
31.0333
83.9477
103.391
52.385
33.56
30.3273
31.0849
82.0744
99.9713
52.2005
33.5993
30.6823
31.8939
80.1912
97.4446
52.3012
33.1966
32.0906
34.4095
78.1631
89.7324
37.4372
30.7194
37.1408
64.5769
113.452
91.912
35.6426
32.745
36.7201
58.2962
115.91
90.7596
33.4359
32.5164
36.2433
56.5288
110.703
87.7879
33.9333
32.5633
35.551
56.239
106.85
86.042
36.6545
33.9173
32.2711
39.1435
98.6839
123.155
69.8982
39.5949
34.4711
37.9093
98.9437
123.397
62.1481
38.8915
34.4122
35.4127
96.7384
117.086
59.6545
38.4218
34.4829
35.7978
93.4952
113.494
60.1142
37.8131
35.7821
38.8228
90.2155
104.006
42.4209
34.502
42.6202
75.6773
128.815
104.043
40.4299
36.9522
41.7543
67.3869
129.598
102.498
38.1318
36.9292
40.6554
65.0713
124.256
98.3066
41.0656
38.0999
36.3739
44.6762
112.822
141.323
79.9473
45.9202
38.8928
43.4508
111.91
139.449
70.8729
44.4678
39.0032
40.4069
108.243
132.22
68.3496
43.1519
40.1147
43.4439
104.914
121.461
47.4744
38.5432
48.7955
86.0271
151.432
119.659
45.6807
41.0407
47.4336
75.8192
147.325
115.538
42.7129
41.1166
45.6845
73.0294
141.176
111.344
46.0089
42.3066
40.4904
49.5873
128.835
159.204
90.9757
51.4148
43.1424
48.8915
125.386
154.77
79.4653
48.8248
44.1202
48.2772
120.621
139.148
51.6659
42.0524
55.0791
98.745
174.356
135.465
51.4055
44.8086
51.7663
84.8309
167.313
128.852
49.9642
45.4346
43.5324
54.178
148.434
182.651
101.535
56.9468
46.4144
52.6208
141.028
177.04
90.7383
54.6368
47.349
52.7119
137.006
158.751
57.0452
45.6268
59.9709
109.461
192.218
148.209
55.3889
48.532
56.5482
93.9077
184.216
142.667
54.986
49.2246
47.0701
58.3379
165.052
203.694
112.533
60.6688
50.4047
60.3184
156.502
180.102
61.7558
48.7919
64.373
121.809
220.923
167.987
62.7593
51.9632
50.0233
65.1857
194.012
238.722
128.937
67.7163
53.4021
65.6294
181.156
203.628
66.3067
51.4363
71.581
135.601
257.384
191.788
68.1319
55.1195
53.1712
70.5846
219.842
271.386
141.947
73.9967
56.4511
70.2177
198.353
227.8
72.5272
54.4777
77.1591
151.728
285.765
211.78
74.0192
58.2178
56.1065
73.7766
239.7
298.858
153.578
78.403
59.4885
75.0013
220.021
252.85
86.2805
57.4801
56.1531
87.0232
286.654
353.617
181.47
87.95
62.6453
82.0809
253.767
294.167
85.9628
59.849
57.2194
91.6765
324.836
377.922
115.37
58.0318
54.7866
99.2982
406.611
455.362
129.127
57.3566
53.232
101.868
463.383
506.116
249.402
103.976
62.5545
93.1135
323.55
343.985
96.1047
60.1451
58.2861
105.029
365.235
364.87
110.209
56.837
55.3738
114.767
359.598
347.26
118.759
54.334
53.5349
122.766
328.877
308.421
126.711
53.2391
53.3651
130.63
287.433
266.904
135.303
53.8057
54.7898
139.505
247.423
229.439
144.655
55.9358
57.9068
149.164
213.057
198.323
153.697
59.7261
62.427
157.205
185.108
173.31
159.917
65.4749
69.4127
161.587
162.756
153.326
162.987
73.2276
77.2521
164.293
144.931
137.467
165.477
81.1352
85.2107
166.591
130.853
124.994
167.602
89.1009
93.2044
168.563
119.823
115.26
169.428
97.0507
101.13
170.257
111.25
107.73
171.001
104.877
108.665
171.709
104.658
101.976
172.329
112.134
115.633
172.907
99.6478
97.6294
173.374
118.798
122
173.77
95.886
94.3825
174.057
124.875
127.773
174.271
93.0867
91.9792
174.36
130.323
132.897
174.333
91.0219
90.2047
174.243
135.122
137.37
174.053
89.4995
88.8974
173.748
139.258
141.175
173.342
88.37
87.9149
172.856
142.742
144.337
172.283
87.5062
87.1512
171.637
145.587
146.874
170.903
86.8219
86.5289
170.125
147.839
148.838
169.276
86.2459
85.9911
168.393
149.537
150.272
167.442
85.7359
85.4999
166.484
150.732
151.213
165.477
85.2562
85.0305
164.462
151.468
151.732
163.411
84.7907
84.5701
162.364
151.839
151.913
161.316
84.3232
84.1162
160.248
151.884
151.837
159.201
83.8667
83.6684
158.143
151.704
151.588
157.118
83.4276
83.2368
156.077
151.332
151.17
155.084
83.0035
82.8219
154.081
150.833
150.632
153.126
82.5935
82.4237
152.174
150.249
150.007
151.263
82.2068
82.0526
150.372
149.609
149.342
149.51
81.8456
81.7079
148.682
148.941
148.66
147.872
81.5188
81.4012
147.112
148.271
147.986
146.353
81.2285
81.1308
145.658
147.615
147.323
144.951
80.9808
80.9083
144.323
146.981
146.686
143.666
80.778
80.7274
143.106
146.38
146.08
142.479
80.6252
80.59
141.991
145.824
145.523
141.417
80.5128
80.4934
140.99
145.323
145.013
140.462
80.447
80.4421
140.095
144.811
144.475
139.607
80.4237
80.432
139.273
144.28
143.938
138.821
80.4341
80.4542
138.516
143.761
143.43
138.101
80.4659
80.504
137.823
143.267
142.954
137.429
80.5255
80.5802
137.186
142.812
142.526
136.826
80.6092
80.6769
136.607
142.399
142.142
136.283
80.7152
80.7987
136.089
142.036
141.816
135.799
80.844
80.9397
135.628
141.726
141.539
135.374
80.9942
81.1051
135.231
141.468
141.316
135.011
81.1686
81.2891
134.892
141.259
141.135
134.707
81.3672
81.4986
134.614
141.094
140.998
134.463
81.5888
81.7279
134.391
140.968
140.894
134.27
81.8325
81.9818
134.22
140.876
140.824
134.127
82.0976
82.2532
134.092
140.813
140.777
134.026
82.3819
82.5461
134.006
140.775
140.753
133.964
82.6839
82.8531
133.954
140.756
140.743
133.933
83.001
83.1778
133.934
140.753
140.744
133.935
83.3318
83.5145
133.941
140.756
140.752
133.949
83.6747
83.8637
133.971
140.767
140.76
133.986
84.0271
84.2203
134.017
140.777
140.774
134.036
84.3883
84.585
134.078
140.789
140.784
134.101
84.7552
84.9539
134.149
140.796
140.79
134.175
85.1268
85.3278
134.23
140.8
140.79
134.257
85.5017
85.7025
134.314
140.796
140.783
134.346
85.8781
86.0795
134.402
140.787
140.769
134.441
86.2543
86.4557
134.497
140.769
140.743
134.53
86.6306
86.8309
134.589
140.741
140.711
134.628
87.0038
87.2032
134.686
140.703
140.665
134.717
87.3753
87.5726
134.78
140.652
140.61
134.81
87.7427
87.937
134.871
140.592
140.542
134.901
88.1057
88.2979
134.961
140.521
140.463
134.989
88.464
88.6522
135.046
140.437
140.371
135.074
88.8163
89.0018
135.127
140.346
140.273
135.158
89.1618
89.3442
135.207
140.241
140.159
135.232
89.5018
89.6802
135.281
140.126
140.041
135.308
89.8338
90.0087
135.353
140.003
139.909
135.375
90.1596
90.3305
135.42
139.87
139.775
135.442
90.4772
90.6437
135.487
139.729
139.627
135.505
90.7883
90.9512
135.545
139.58
139.474
135.563
91.0916
91.2501
135.601
139.425
139.312
135.617
91.387
91.5424
135.65
139.265
139.15
135.668
91.6749
91.8258
135.702
139.097
138.977
135.716
91.9559
92.1028
135.75
138.922
138.802
135.763
92.2291
92.3717
135.794
138.745
138.62
135.806
92.4949
92.6343
135.835
138.564
138.44
135.848
92.7534
92.889
135.874
138.379
138.249
135.884
93.0058
93.1374
135.91
138.188
138.06
135.92
93.2507
93.3782
135.944
137.998
137.868
135.953
93.4888
93.613
135.976
137.805
137.674
135.984
93.7203
93.8402
136.006
137.61
137.477
136.012
93.9454
94.061
136.033
137.413
137.275
136.055
94.1644
94.2778
136.07
137.211
137.077
136.078
94.3773
94.4868
136.076
137.019
136.89
136.083
94.579
94.6865
136.1
136.824
136.685
136.107
94.7774
94.8824
136.125
136.624
136.492
136.132
94.9705
95.0729
136.148
136.427
136.291
136.153
95.1593
95.2588
136.168
136.229
136.1
136.174
95.3423
95.4392
136.188
136.036
135.901
136.192
95.5208
95.6146
136.205
135.841
135.713
136.211
95.6933
95.7846
136.223
135.649
135.517
136.227
95.8616
95.95
136.239
135.457
135.332
136.244
96.0243
96.1104
136.255
135.269
135.14
136.259
96.183
96.2664
136.27
135.081
134.959
136.275
96.3366
96.4177
136.285
134.895
134.771
136.288
96.4863
96.565
136.298
134.71
134.595
136.303
96.6311
96.7077
136.313
134.529
134.411
136.316
96.7724
96.8465
136.325
134.349
134.239
136.33
96.9093
96.9813
136.341
134.174
134.064
136.343
97.043
97.1133
136.348
133.991
133.889
136.353
97.1725
97.2407
136.36
133.82
133.713
136.362
97.2985
97.3643
136.369
133.647
133.547
136.373
97.4202
97.484
136.381
133.48
133.378
136.382
97.5388
97.6011
136.384
133.304
133.207
136.387
97.6536
97.7133
136.393
133.142
133.04
136.393
97.7648
97.8227
136.397
132.974
132.876
136.397
97.8726
97.9284
136.399
132.806
132.716
136.399
97.9762
98.0308
136.398
132.637
132.554
136.4
98.0766
98.1291
136.4
132.481
132.39
136.398
98.1737
98.2242
136.399
132.322
132.238
136.401
98.2671
98.3164
136.4
132.169
132.076
136.397
98.358
98.4052
136.398
132.015
131.925
136.396
98.4456
98.4911
136.396
131.862
131.777
136.395
98.5299
98.5743
136.394
131.709
131.634
136.394
98.6114
98.6547
136.391
131.564
131.482
136.39
98.6904
98.732
136.39
131.425
131.338
136.386
98.7672
98.8071
136.385
131.281
131.196
136.381
98.8408
98.8795
136.38
131.139
131.059
136.376
98.9122
98.9492
136.375
130.999
130.925
136.372
98.9806
99.0168
136.365
130.857
130.789
136.364
99.0465
99.0811
136.362
130.729
130.659
136.36
99.1101
99.144
136.352
130.591
130.528
136.351
99.1714
99.2041
136.347
130.467
130.396
136.343
99.2307
99.2619
136.339
130.338
130.277
136.337
99.2873
99.3178
136.333
130.216
130.148
136.328
99.3425
99.3716
136.324
130.091
130.032
136.322
99.395
99.4235
136.317
129.973
129.907
136.312
99.4463
99.4734
136.307
129.853
129.797
136.306
99.4949
99.5214
136.3
129.74
129.677
136.296
99.5424
99.5675
136.29
129.624
129.571
136.288
99.5873
99.612
136.283
129.516
129.455
136.278
99.6313
99.6548
136.273
129.405
129.354
136.271
99.6729
99.6959
136.266
129.302
129.244
136.261
99.7137
99.7356
136.256
129.196
129.147
136.254
99.7522
99.7739
136.249
129.097
129.041
136.245
99.7901
99.8108
136.24
128.996
128.949
136.238
99.826
99.8465
136.235
128.903
128.846
136.228
99.8614
99.8804
136.226
128.81
128.755
136.221
99.8952
99.9133
136.218
128.716
128.668
136.215
99.9276
99.9455
136.21
128.622
128.586
136.209
99.9588
99.9766
136.203
128.534
128.497
136.202
99.9892
100.007
136.197
128.45
128.41
136.196
100.019
100.035
136.193
128.372
128.33
136.191
100.047
100.064
136.184
128.285
128.248
136.183
100.075
100.091
136.18
128.211
128.163
136.175
100.102
100.116
136.174
128.136
128.089
136.17
100.127
100.142
136.169
128.062
128.015
136.165
100.152
100.166
136.164
127.989
127.943
136.161
100.176
100.19
136.16
127.918
127.873
136.156
100.2
100.213
136.155
127.848
127.804
136.152
100.222
100.235
136.151
127.78
127.737
136.148
100.244
100.257
136.147
127.713
127.673
136.144
100.266
100.278
136.143
127.647
127.609
136.14
100.286
100.298
136.139
127.583
127.549
136.136
100.306
100.317
136.135
127.52
127.49
136.133
100.325
100.336
136.132
127.457
127.428
136.129
100.343
100.354
136.128
127.403
127.372
136.126
100.361
100.372
136.124
127.343
127.312
136.122
100.379
100.389
136.121
127.293
127.256
136.119
100.396
100.406
136.118
127.238
127.202
136.116
100.412
100.422
136.115
127.185
127.15
136.113
100.428
100.438
136.112
127.133
127.098
136.11
100.444
100.454
136.109
127.082
127.048
136.107
100.459
100.469
136.106
127.032
126.999
136.104
100.475
100.484
136.104
126.982
126.953
136.102
100.489
100.499
136.1
126.931
126.911
136.101
100.504
100.514
136.099
126.886
126.858
136.097
100.519
100.528
136.095
126.837
126.819
136.095
100.533
100.542
136.093
126.795
126.768
136.091
100.547
100.556
136.089
126.748
126.73
136.09
100.561
100.57
136.088
126.707
126.681
136.086
100.575
100.584
136.084
126.663
126.645
136.085
100.589
100.598
136.083
126.624
126.596
136.08
100.603
100.612
136.08
126.583
126.556
136.078
100.617
100.627
136.078
126.544
126.518
136.076
100.632
100.642
136.076
126.504
126.483
136.076
100.648
100.657
136.076
126.469
126.442
136.074
100.665
100.674
136.076
126.43
126.392
136.087
100.684
100.694
136.068
126.389
126.374
136.068
100.7
100.713
136.066
126.348
126.336
136.068
100.72
100.733
136.067
126.316
126.294
136.067
100.74
100.754
136.067
126.278
126.266
136.07
100.762
100.776
136.068
126.246
126.225
136.068
100.785
100.799
136.069
126.209
126.196
136.072
100.808
100.823
136.071
126.177
126.157
136.072
100.833
100.847
136.073
126.141
126.13
136.077
100.856
100.871
136.077
126.112
126.091
136.077
100.88
100.893
136.08
126.079
126.057
136.081
100.901
100.914
136.083
126.048
126.028
136.084
100.922
100.933
136.088
126.019
126
136.089
100.942
100.952
136.093
125.991
125.97
136.094
100.964
100.973
136.1
125.97
125.946
136.1
100.995
100.993
136.095
125.94
125.918
136.129
101.045
101.064
136.073
125.913
125.855
135.968
101.064
101.129
135.84
125.782
125.654
135.521
101.889
103.22
135.143
125.632
125.684
135.622
105.011
121.971
105.85
100.479
102.13
111.062
127.948
139.345
146.526
164.469
179.816
190.28
199.157
206.491
212.258
216.621
219.685
221.69
222.864
223.426
223.56
223.407
223.075
222.64
222.156
221.659
221.17
220.704
220.269
219.867
219.5
219.166
218.864
218.592
218.348
218.128
217.93
217.753
217.594
217.452
217.324
217.209
217.106
217.015
216.933
216.86
216.795
216.737
216.687
216.642
216.603
216.57
216.542
216.52
216.503
216.492
216.485
216.481
216.479
216.476
216.473
216.469
216.464
216.458
216.451
216.443
216.435
216.426
216.416
216.406
216.395
216.383
216.37
216.357
216.344
216.329
216.314
216.299
216.283
216.267
216.251
216.234
216.218
216.201
216.184
216.167
216.15
216.133
216.116
216.1
216.083
216.067
216.05
216.033
216.016
215.998
215.975
215.944
215.904
215.855
215.8
215.74
215.677
215.613
215.55
215.489
215.435
215.389
215.353
215.33
215.32
215.322
215.337
215.364
215.404
215.454
215.515
215.583
215.658
215.738
215.821
215.907
215.993
216.08
216.166
216.252
216.336
216.418
216.5
216.58
216.66
216.739
216.817
216.896
216.975
217.055
217.135
217.216
217.299
217.383
217.468
217.555
217.645
217.736
217.829
217.925
218.024
218.124
218.228
218.334
218.443
218.554
218.668
218.785
218.905
219.027
219.152
219.279
219.409
219.541
219.675
219.811
219.949
220.089
220.231
220.373
220.517
220.662
220.808
220.955
221.102
221.249
221.396
221.543
221.69
221.837
221.983
222.128
222.272
222.416
222.558
222.698
222.838
222.976
223.112
223.246
223.379
223.51
223.639
223.766
223.891
224.014
224.135
224.254
224.371
224.485
224.598
224.708
224.817
224.923
225.027
225.129
225.229
225.327
225.423
225.517
225.609
225.699
225.787
225.874
225.958
226.041
226.122
226.202
226.28
226.357
226.431
226.505
226.577
226.648
226.717
226.785
226.852
226.917
226.982
227.045
227.107
227.169
227.229
227.289
227.347
227.405
227.462
227.518
227.574
227.628
227.683
227.737
227.79
227.843
227.895
227.947
227.998
228.05
228.101
228.152
228.202
228.253
228.303
228.354
228.404
228.455
228.505
228.556
228.606
228.657
228.709
228.76
228.812
228.864
228.916
228.969
229.023
229.077
229.131
229.186
229.242
229.298
229.355
229.412
229.47
229.529
229.589
229.649
229.71
229.771
229.833
229.895
229.957
230.019
230.081
230.141
230.199
230.255
230.307
230.357
230.403
230.443
230.473
230.49
230.499
230.504
230.506
230.508
230.509
230.509
230.51
230.51
230.51
230.51
230.51
230.51
230.51
230.508
230.497
230.446
230.321
230.11
229.82
229.468
229.076
228.665
228.248
227.831
227.414
226.995
226.574
226.147
225.713
225.27
224.818
224.358
223.888
223.411
222.925
222.431
221.93
221.422
220.907
220.385
219.857
219.323
218.784
218.239
217.689
217.134
216.575
216.011
215.444
214.873
214.3
213.724
213.145
212.565
211.983
211.4
210.817
210.234
209.651
209.068
208.487
207.907
207.329
206.754
206.181
205.612
205.046
204.485
203.928
203.375
202.828
202.286
201.751
201.221
200.699
200.183
199.675
199.175
198.684
198.202
197.729
197.267
196.814
196.369
195.93
195.495
195.059
194.621
194.182
193.747
193.336
192.981
192.722
192.577
192.529
192.533
192.55
192.573
192.608
192.645
192.679
192.708
192.723
192.704
192.584
192.144
190.458
188.216
182.246
179.271
176.848
173.688
171.503
168.266
166.325
163.184
161.486
158.463
156.992
154.1
152.822
150.076
148.944
146.348
145.317
142.882
141.935
139.645
138.769
136.605
135.792
133.738
132.982
131.03
130.322
128.46
127.795
126.012
125.388
123.68
123.092
121.454
120.9
119.326
118.802
117.292
116.796
115.345
114.877
113.479
113.04
111.698
111.284
109.994
109.603
108.361
107.988
106.79
106.437
105.278
104.944
103.826
103.507
102.425
102.121
101.072
100.785
99.7685
99.4951
98.5099
98.2491
97.2932
97.0418
96.1115
95.8724
94.9678
94.737
93.8552
93.6352
92.7756
92.5645
91.7268
91.5214
90.7024
90.5038
89.7022
89.51
88.7253
88.5391
87.7702
87.5896
86.8355
86.66
85.9198
85.749
85.0218
84.8553
84.1396
83.9789
83.2761
83.1174
82.4252
82.2694
81.5857
81.4343
80.7612
80.6108
79.9457
79.7969
79.1387
78.9914
78.3398
78.1938
77.5485
77.4035
76.7639
76.6199
75.9855
75.8421
75.2124
75.0694
74.4439
74.3012
73.6795
73.5368
72.9183
72.7754
72.1589
72.0173
71.4042
71.2625
70.6519
70.5095
69.9006
69.757
69.1489
69.0041
68.3963
68.2498
67.6419
67.4936
66.8852
66.735
66.1255
65.9732
65.363
65.2067
64.5939
64.4346
63.8182
63.6577
63.0396
62.8767
62.2565
62.0909
61.4679
61.2991
60.6726
60.5005
59.8702
59.6946
59.0609
58.8801
58.2402
58.0567
57.4125
57.2256
56.5771
56.3865
55.7335
55.539
54.8812
54.6829
54.021
53.8167
53.1479
52.9389
52.2636
52.0528
51.3763
51.1622
50.4841
50.2682
49.589
49.3737
48.6979
48.4832
47.8118
47.598