/*--------------------------------*- C++ -*----------------------------------*\
| =========                 |                                                 |
| \\      /  F ield         | OpenFOAM: The Open Source CFD Toolbox           |
|  \\    /   O peration     | Version:  v2006                                 |
|   \\  /    A nd           | Website:  www.openfoam.com                      |
|    \\/     M anipulation  |                                                 |
\*---------------------------------------------------------------------------*/
FoamFile
{
    version     2.0;
    format      ascii;
    class       volScalarField;
    location    "0.163";
    object      k;
}
// * * * * * * * * * * * * * * * * * * * * * * * * * * * * * * * * * * * * * //

dimensions      [0 2 -2 0 0 0 0];


internalField   nonuniform List<scalar> 
16277
(
78.7519
78.7525
78.7596
78.7616
78.7673
78.7603
78.7455
78.6988
78.5909
78.4172
78.1926
77.9418
77.6812
77.4178
77.1521
76.8818
76.6042
76.3168
76.0183
75.7082
75.3863
75.0529
74.7082
74.3525
73.9861
73.6092
73.2219
72.8245
72.4174
72.0008
71.5751
71.1406
70.6979
70.2473
69.7893
69.3243
68.8529
68.3756
67.8928
67.4052
66.9132
66.4174
65.9183
65.4165
64.9127
64.4072
63.9008
63.394
62.8874
62.3816
61.8771
61.3745
60.8745
60.3775
59.8842
59.3951
58.9108
58.4317
57.9586
57.492
57.0323
56.5801
56.1359
55.7002
55.2735
54.8562
54.4489
54.0518
53.6656
53.2904
52.9267
52.5748
52.2353
51.9086
51.5949
51.2944
51.0066
50.7298
50.4616
50.1992
49.9427
49.6995
49.491
49.3473
49.2826
49.2737
49.2882
49.307
49.3185
49.3171
49.3068
49.241
49.0902
48.8378
48.3205
47.4671
43.1342
38.6797
45.3963
47.7154
46.016
41.1644
34.5259
31.6352
38.9001
44.7175
42.2917
35.3635
28.9184
27.205
33.9418
41.2593
39.0174
31.2935
25.4438
24.3785
30.4094
38.2127
36.3905
28.5344
23.1882
22.491
28.0227
35.8075
34.3535
26.752
21.6582
21.1739
26.4172
33.9033
32.7068
25.47
20.5477
20.1906
25.2377
32.3574
31.3425
24.4886
19.6924
19.4166
24.32
31.0628
30.1787
23.6992
19.0025
18.7795
23.5721
29.949
29.1633
23.0384
18.4216
18.2338
22.9389
28.9703
28.2602
22.4656
17.9157
17.753
22.3844
28.0948
27.4443
21.9541
17.4639
17.3188
21.8855
27.3
26.6979
21.4876
17.0511
16.9188
21.4282
26.5702
26.009
21.0559
16.6676
16.5448
21.0035
25.8947
25.3676
20.6522
16.3066
16.1911
20.6053
25.2642
24.7664
20.2713
15.9634
15.8535
20.2288
24.6724
24.2009
19.9097
15.6345
15.5289
19.8708
24.1154
23.668
19.5647
15.317
15.2149
19.5292
23.5904
23.1653
19.235
15.0092
14.9099
19.2024
23.0947
22.6899
18.919
14.7094
14.6123
18.8889
22.6254
22.2387
18.6149
14.4163
14.3211
18.5869
22.1795
21.809
18.3211
14.1288
14.035
18.2947
21.7543
21.398
18.036
13.8458
13.753
18.0108
21.3471
21.0036
17.7579
13.5662
13.4741
17.7334
20.9558
20.6236
17.4854
13.2891
13.1973
17.4614
20.5783
20.2561
17.2172
13.0137
12.9218
17.1932
20.2131
19.8997
16.9521
12.739
12.6468
16.9279
19.8583
19.5527
16.689
12.4644
12.3716
16.6644
19.5127
19.2139
16.4271
12.1893
12.0956
16.4018
19.1748
18.8819
16.1655
11.913
11.8184
16.1393
18.8436
18.5561
15.9036
11.6353
11.5395
15.8765
18.5183
18.2355
15.641
11.3556
11.2586
15.6129
18.198
17.9194
15.3772
11.0738
10.9757
15.3481
17.8821
17.6072
15.1121
10.7899
10.6909
15.0822
17.57
17.2984
14.8459
10.5042
10.4044
14.8151
17.2613
16.9927
14.5782
10.2171
10.1167
14.5466
16.9556
16.6897
14.3092
9.92894
9.82854
14.2769
16.6525
16.3892
14.0391
9.64075
9.54083
14.0064
16.352
16.0913
13.7686
9.35364
9.25493
13.7357
16.0541
15.796
13.4986
9.06915
8.97257
13.4661
15.7592
15.5041
13.2303
8.78925
8.69597
13.1988
15.468
15.2165
12.9656
8.51643
8.42785
12.9357
15.1814
14.934
12.7063
8.25364
8.17144
12.6789
14.9004
14.6581
12.4549
8.00438
7.93058
12.431
14.6267
14.3907
12.2143
7.77273
7.70976
12.195
14.3624
14.1343
11.9884
7.56323
7.51436
11.9739
14.1099
13.8921
11.7807
7.38241
7.34893
11.7675
13.8722
13.6651
11.5844
7.23783
7.21926
11.5739
13.6503
13.4553
11.4043
7.13159
7.12895
11.3978
13.4461
13.2644
11.2446
7.07152
7.08146
11.2425
13.2611
13.0949
11.1086
7.05447
7.07908
11.1104
13.0967
12.9462
10.9929
7.0717
7.12271
10.9983
12.9527
12.8183
10.8936
7.13075
7.20919
10.9027
12.8303
12.7131
10.8127
7.23316
7.33517
10.8255
12.7295
12.6278
10.7514
7.37115
7.48996
10.7686
12.6485
12.5616
10.7108
7.535
7.66595
10.7335
12.5866
12.5147
10.6932
7.71798
7.85839
10.7224
12.5443
12.4878
10.6979
7.91536
8.062
10.7372
12.5221
12.4801
10.7197
8.12129
8.27009
10.7743
12.5225
12.4897
10.7631
8.32978
8.47739
10.8313
12.5399
12.5117
10.8252
8.53561
8.67877
10.9052
12.5731
12.5488
10.9038
8.73383
8.86959
10.9932
12.6195
12.5983
10.9953
8.92021
9.04624
11.0923
12.6761
12.6567
11.0947
9.09157
9.20574
11.1932
12.7378
12.7191
11.1955
9.2446
9.34519
11.2943
12.8007
12.7819
11.296
9.377
9.46334
11.3937
12.8615
12.8418
11.3941
9.48795
9.56007
11.4885
12.917
12.8957
11.4873
9.57767
9.6363
11.5769
12.9646
12.9414
11.5738
9.64747
9.69393
11.6573
13.0028
12.9768
11.652
9.69941
9.73514
11.7282
13.0293
13.0007
11.7204
9.73568
9.76099
11.7885
13.0443
13.0114
11.7779
9.75841
9.77588
11.8375
13.0482
13.0106
11.8243
9.77079
9.78194
11.8757
13.0414
12.9992
11.86
9.77477
9.78219
11.9039
13.0257
12.9776
11.8848
9.77166
9.77674
11.9227
13.0008
12.946
11.8989
9.76176
9.7659
11.9322
12.9661
12.9051
11.9046
9.74867
9.75221
11.9339
12.9223
12.856
11.903
9.73279
9.73592
11.9288
12.8704
12.7999
11.8947
9.71475
9.71735
11.9171
12.8123
12.738
11.8799
9.69428
9.69592
11.8992
12.7484
12.6717
11.8601
9.67068
9.67131
11.8758
12.6804
12.6013
11.8338
9.64433
9.64494
11.8481
12.6084
12.5275
11.8037
9.61698
9.61693
11.8165
12.5327
12.4492
11.769
9.58796
9.58875
11.7812
12.4532
12.3666
11.7308
9.55922
9.56074
11.7405
12.3712
12.2807
11.686
9.53013
9.54212
11.6986
12.2882
12.2083
11.6865
9.52992
9.5535
11.6576
12.1961
12.1785
11.6972
9.59426
9.70204
11.4844
12.1291
12.8049
12.1961
10.2351
10.219
10.8465
11.5258
13.7712
16.2945
18.9364
21.167
22.7083
24.75
26.0447
27.1508
27.8991
28.4227
28.6698
28.665
28.3944
27.7911
26.9145
25.3832
24.2923
22.106
20.1211
18.0158
15.848
14.2442
12.5544
12.518
8.21217
7.96755
12.4782
12.511
12.5071
12.481
7.73898
7.57047
12.496
12.5462
12.5896
12.5351
7.47002
7.47608
12.5617
12.6046
12.631
12.5677
7.41466
7.41864
12.5855
12.6706
12.6912
12.6036
7.42557
7.43498
12.6132
12.7204
12.7382
12.631
7.44692
7.45854
12.6471
12.7713
12.7877
12.6609
7.47098
7.4839
12.6808
12.8257
12.8431
12.6924
7.49608
7.51036
12.7179
12.8799
12.8968
12.731
7.52409
7.54048
12.7578
12.9309
12.9468
12.7706
7.55487
7.57234
12.7948
12.9857
13.0043
12.8088
7.5856
7.60025
12.8279
13.0474
13.0675
12.8482
7.61551
7.63133
12.8697
13.1085
13.128
12.8918
7.64758
7.66432
12.9127
13.1683
13.1866
12.9366
7.68157
7.6997
12.9601
13.2271
13.2463
12.9822
7.71701
7.73339
13.0014
13.29
13.311
13.0254
7.75128
7.76766
13.0469
13.3569
13.3791
13.0689
7.78455
7.80152
13.0894
13.4284
13.4514
13.1125
7.81794
7.83626
13.1382
13.499
13.5212
13.1621
7.85451
7.87297
13.1899
13.5701
13.5937
13.2117
7.89156
7.9108
13.2409
13.6443
13.668
13.2654
7.92909
7.94919
13.2984
13.7175
13.7407
13.3216
7.9685
7.99055
13.3562
13.7919
13.8163
13.3803
8.00943
8.0294
13.4143
13.8696
13.8952
13.4368
8.04796
8.06861
13.4716
13.952
13.9791
13.4954
8.08643
8.10594
13.532
14.0356
14.0613
13.5564
8.12392
8.14659
13.5973
14.1145
14.1406
13.6252
8.16673
8.18609
13.6622
14.2001
14.2277
13.6865
8.20314
8.22439
13.729
14.2811
14.3055
13.7609
8.24416
8.26686
13.804
14.3594
14.3866
13.8277
8.2836
8.30228
13.8689
14.4445
14.4706
13.899
8.31826
8.3385
13.9441
14.5183
14.5396
13.9721
8.35547
8.37554
14.0156
14.5815
14.6008
14.046
8.39256
8.40856
14.0772
14.6448
14.6643
14.1044
8.42146
8.43329
14.1323
14.7007
14.7143
14.1611
8.44636
8.4598
14.1841
14.7319
14.7379
14.2085
8.47411
8.4865
14.2213
14.7489
14.7512
14.2259
8.49578
8.50302
14.2281
14.7563
14.7462
14.2197
8.5098
8.51984
14.2104
14.7365
14.698
14.1951
8.53229
8.54545
14.1682
14.6805
14.6321
14.1197
8.55668
8.5712
14.0706
14.608
14.5358
13.9995
8.58769
8.60899
13.9156
14.4978
14.421
13.8108
8.63361
8.66304
13.695
14.3849
14.3066
13.5595
8.69573
8.74537
13.4347
14.257
14.1402
13.2884
8.81605
8.90964
13.1499
14.0687
13.9584
12.9657
9.02027
9.14555
12.787
13.9103
13.8316
12.5687
9.28915
9.46783
12.3674
13.7948
13.7347
12.1248
9.68032
9.93898
11.967
13.7138
13.6892
11.8591
10.1656
10.3809
11.6461
13.6818
13.6657
11.4223
10.5986
10.7526
11.2789
13.7621
13.7579
11.2271
10.9143
11.0635
10.9929
13.9146
13.9664
10.9252
11.2245
11.3742
10.891
14.2217
14.3311
10.9071
11.4834
11.602
11.0615
14.7042
14.8604
11.1415
11.7656
11.9391
11.5077
15.3916
15.741
11.9482
12.0932
12.32
12.9139
16.6146
16.9322
13.5536
12.5256
10.8596
9.75735
10.5691
14.3969
11.5007
11.1201
11.0226
10.8365
14.1878
14.3839
10.6489
11.314
11.5314
10.3424
14.1646
14.5718
10.3948
11.7921
12.0404
10.3231
14.5617
15.3315
10.6334
12.2432
12.3858
10.7096
15.4104
16.51
11.495
12.5735
12.8467
11.9109
16.893
18.5933
13.3342
13.2759
13.535
14.0941
19.3022
10.987
9.58026
12.4758
12.6212
11.5941
16.6027
16.8933
11.4811
12.4799
12.5519
12.3289
18.7967
19.3154
12.5996
12.6281
12.9148
13.6348
20.7445
21.4582
14.2276
13.2595
13.7261
15.8114
23.346
23.7166
17.0545
14.5712
13.1509
10.639
12.9135
20.5131
13.1298
13.0673
13.0518
13.1161
20.9446
23.007
14.4417
13.4521
13.7544
14.8917
23.4306
26.309
17.3888
14.5407
15.4562
19.1895
27.218
15.0714
11.5058
13.4743
13.8009
15.2492
25.1892
26.4412
16.1004
13.896
14.6179
19.2601
30.5646
32.1657
21.2497
15.5227
17.0535
24.3614
33.9646
19.3159
13.5233
13.8521
14.7146
19.325
32.182
33.2028
20.2689
15.065
16.7742
26.1158
39.1051
40.9785
29.174
18.3111
14.46
16.0075
25.2989
41.8926
25.8387
16.2558
17.1193
28.1284
44.7349
53.3587
37.4291
20.1722
21.7109
40.4236
55.0308
39.0028
23.6097
16.4958
21.2305
43.0065
60.4115
63.2203
47.0953
23.435
17.5919
28.3395
49.0013
74.4582
56.0444
25.4941
29.1842
62.7786
79.3594
70.9118
44.0865
19.503
37.6897
81.3863
94.1107
87.6758
63.0816
20.0579
38.0478
89.8593
105.759
107.535
89.6331
37.5723
39.4164
87.8831
105.522
101.705
86.3248
42.814
56.0225
95.8002
102.223
77.8117
53.7687
38.8723
45.1926
71.1131
82.522
58.25
41.9168
31.8298
33.4851
51.8685
65.246
59.357
43.1591
29.6511
23.9133
24.467
36.5322
48.5084
37.3994
26.9621
22.7115
24.81
33.0342
43.2694
32.1794
24.0862
21.7334
27.7963
39.6394
23.7972
18.1712
20.1325
21.2993
24.9623
35.0801
32.1296
21.963
19.319
18.7578
15.2841
19.1204
29.6942
20.7457
19.2759
18.131
18.7997
26.946
16.4271
14.0686
18.0924
18.0445
18.0108
25.4863
22.8459
16.5751
17.4362
17.749
13.0437
14.3637
21.9691
16.0275
17.0721
16.5765
14.7633
19.8266
12.7735
11.9045
17.0962
16.1001
14.5194
19.605
17.6737
13.374
15.7098
16.4787
11.0048
11.6256
17.6628
13.1898
15.2403
15.0773
12.1762
15.991
10.7193
10.2825
15.9302
14.6095
12.4478
16.503
14.095
11.2981
14.5392
14.9776
10.2771
12.2115
9.14466
9.25145
15.9435
13.8098
9.98845
12.3317
11.481
9.48191
14.4104
16.0329
8.59946
8.43447
11.3553
9.10097
13.5037
13.9616
8.86026
10.4185
7.90044
8.31969
15.1734
12.7877
8.42296
9.97419
9.4522
8.34548
13.5546
15.4083
7.8704
7.37863
9.54051
8.0261
12.8512
13.4726
7.98982
8.92348
7.0219
7.59906
15.1521
12.4887
7.44647
8.60512
8.18027
7.43452
13.2115
14.8054
7.69833
6.71471
8.06652
7.1692
12.1045
13.0346
7.16187
7.71194
6.55231
7.79344
14.8052
12.1745
6.86022
7.56044
7.26478
6.8058
13.2197
15.0449
7.75734
6.19369
7.09738
6.75801
12.4096
14.1817
7.06059
6.04745
7.65386
6.74024
11.8337
12.7187
6.74513
7.19923
6.22641
7.39872
14.5343
11.9097
6.7569
7.37539
6.96358
6.65831
12.8524
14.7791
7.51746
6.14104
7.19825
6.76317
12.129
13.089
6.64315
6.88011
6.13703
7.74017
15.0624
12.2656
6.52044
6.67841
6.42308
6.33398
13.2038
15.0703
7.7149
5.87971
6.34181
6.29347
12.1321
13.2988
6.1018
6.0352
5.7543
8.14751
15.3663
12.5124
5.87045
6.07118
5.52811
7.15649
14.7099
12.0706
5.98884
6.14558
5.67225
5.82977
13.1299
15.1784
7.76957
5.48927
5.81125
5.91029
12.3459
13.5266
5.75175
5.30324
5.38192
8.28906
15.6444
12.6259
5.42622
5.37716
5.10469
7.04511
14.8992
12.0165
5.6083
5.55735
5.16103
5.55434
13.1758
15.389
7.83865
5.21818
5.52071
5.71176
12.4442
13.7726
5.64903
5.06299
5.27811
8.45139
16.0597
12.9672
5.21967
5.08272
4.92645
7.09867
15.3718
12.3183
5.42778
5.30757
4.85769
5.42959
13.6289
16.0211
8.07788
5.02753
5.14345
5.47632
12.8818
14.3005
5.45393
4.70816
5.08704
8.43019
17.2133
13.5336
4.81499
4.68461
4.70802
7.20975
15.9185
12.4811
5.11663
4.94092
4.48954
5.25958
13.9472
16.5899
8.67265
4.92601
4.57583
4.86414
13.3199
16.2365
7.26488
4.63652
4.80972
5.06534
12.8276
14.2493
5.13477
4.48925
4.99048
8.58789
16.8765
13.4128
4.89979
4.60825
4.66859
7.30101
16.0537
12.6271
5.06616
4.84993
4.43139
5.23049
14.2845
17.5192
8.88462
4.97367
4.56542
4.84777
13.8634
16.8332
7.55119
4.68569
4.81059
5.07722
13.1592
14.7728
5.29022
4.46088
5.06131
9.14041
17.478
13.9325
4.96998
4.59793
4.72209
7.60591
17.0012
13.4755
5.11301
4.82151
4.44048
5.28591
15.2417
18.7572
9.29245
5.11683
4.5744
4.80647
14.7239
17.9253
8.37143
4.97041
4.61005
4.69339
14.003
16.6953
7.63392
4.75917
4.85459
5.10514
13.2686
14.9884
5.37771
4.5173
5.19208
9.48539
18.1683
14.4722
5.08311
4.67532
4.86641
8.02767
17.8329
14.0613
5.22405
4.89891
4.53985
5.50067
15.9451
19.6766
9.77518
5.30926
4.67634
4.9844
15.5235
18.8218
8.71564
5.1326
4.68032
4.79725
14.8385
17.6627
7.93787
4.87084
4.90595
5.22279
13.9501
15.8041
5.47251
4.56985
5.3787
10.0798
19.1456
15.3521
5.23481
4.7853
5.24834
8.84176
19.0881
15.0808
4.83159
4.77858
5.02956
8.28191
18.1052
14.4029
5.36169
5.04012
4.71206
5.7509
16.3307
19.9167
10.279
5.54991
4.89537
5.29439
15.898
19.7109
9.10992
5.40086
4.88348
4.97757
15.499
18.6323
8.55805
5.15708
5.12519
5.48415
14.7142
16.6692
5.83112
4.79912
5.68885
10.6901
20.2708
16.2194
5.53323
5.02957
5.5661
9.4249
20.1306
16.0061
5.16307
5.01673
5.33802
8.86808
19.1542
15.1902
5.63823
5.24277
4.92806
6.03948
17.3207
21.0739
11.1061
5.89996
5.19214
5.68612
17.1571
21.4253
9.8162
5.78328
5.11011
5.19733
16.8067
20.1845
9.2247
5.48947
5.29417
5.73859
15.8222
17.9377
6.12789
4.96983
6.00408
11.5041
21.6146
17.3741
5.85356
5.26994
5.9084
10.163
21.793
16.9957
5.31046
5.19489
5.75988
9.53312
20.7399
16.5125
5.2901
5.1687
5.62425
9.48618
20.0495
15.8913
5.88586
5.42583
5.1344
6.39583
18.1565
22.7965
11.8388
6.26969
5.41266
5.96477
18.291
22.7949
10.405
6.10164
5.37796
5.5425
17.9615
21.7222
10.0335
5.99513
5.34567
5.55332
17.1477
20.7581
9.92158
5.83942
5.58281
6.09085
16.5019
18.8437
6.52091
5.26262
6.44231
12.2871
23.135
18.6812
6.25493
5.60505
6.35329
10.9373
23.6104
18.5052
5.73092
5.54816
6.19689
10.3026
22.4327
17.7676
5.67567
5.50947
6.05932
10.3244
21.4837
17.13
6.33908
5.73671
5.45731
6.83041
19.4803
23.8605
12.8057
6.74611
5.79652
6.52139
19.4303
24.6124
11.3786
6.6351
5.7429
5.93019
19.3772
23.7061
10.8901
6.47731
5.70417
5.94288
18.7279
22.7165
10.7959
6.30039
5.88371
6.53374
17.9335
20.5172
7.11491
5.60047
7.06935
13.2453
25.8133
20.5638
6.58046
5.93695
6.82034
11.5856
25.409
19.8454
5.99872
5.8844
6.72026
11.2856
24.3346
19.4081
6.17861
5.87851
6.65513
11.1423
23.8734
19.0427
6.21167
5.89175
6.56361
11.1333
23.1452
18.5849
6.88433
6.11014
5.86077
7.48486
21.2758
26.2627
14.1158
7.41734
6.21439
7.05916
21.3351
27.0726
12.4912
7.29488
6.17098
6.44714
21.1651
25.7071
11.8561
7.05221
6.10555
6.35858
20.3087
24.9426
11.6442
6.9455
6.1195
6.51102
19.9914
24.2906
11.7104
6.81439
6.33449
7.13233
19.3021
22.0144
7.66546
6.05807
7.70628
14.4998
27.1945
21.6761
7.30088
6.46642
7.62536
13.0089
27.5488
21.626
6.80749
6.48062
7.42987
12.3591
26.6204
21.0757
6.71552
6.43436
7.35719
12.2425
25.8207
20.6923
6.91555
6.47309
7.22747
12.1999
25.1706
20.1773
7.51817
6.65788
6.4163
8.18781
23.0545
28.4907
15.3605
8.17813
6.77423
7.75985
23.1685
29.456
13.6749
8.04889
6.73196
7.1221
23.333
28.5059
13.0118
7.84145
6.6694
6.9448
22.5207
27.5554
12.8069
7.70375
6.68087
7.11137
21.9135
26.4687
12.8947
7.55481
6.89983
7.82847
20.9952
24.0562
8.51069
6.64445
8.53456
16.033
29.8144
24.01
8.08099
7.03284
8.42537
14.2663
30.508
23.9933
7.41311
7.00783
8.17675
13.5073
29.3603
23.2724
7.29536
6.97135
8.10977
13.3437
28.5233
22.8372
7.49159
7.0006
7.97053
13.4937
27.7518
22.148
8.23672
7.19779
6.96522
9.04862
25.5426
31.7176
17.0763
9.08349
7.35769
8.49674
25.6023
32.6304
15.2322
8.97775
7.26214
7.82307
25.54
31.1596
14.3434
8.62448
7.19766
7.61467
24.7177
30.3259
14.0526
8.50204
7.24272
7.72214
24.1987
29.6487
14.1228
8.51032
7.31254
7.95527
23.7386
28.8465
14.1444
8.32208
7.52344
8.57995
22.8301
26.4222
9.3925
7.28424
9.54821
17.6866
33.3022
26.4725
8.90491
7.72519
9.28907
15.616
33.2395
26.0306
8.10483
7.65512
9.07652
14.9161
31.8699
25.2385
8.16851
7.67856
9.02887
14.8643
30.8737
24.7265
8.44628
7.75677
8.89108
14.7541
30.0154
23.9782
9.05343
7.92213
7.69353
9.95429
27.8371
34.823
18.7622
10.1472
8.156
9.49101
27.8462
35.1348
16.6571
9.95007
8.02509
8.69746
27.7985
34.0522
15.8532
9.62059
7.95588
8.53311
26.9651
32.8519
15.5788
9.49135
7.97909
8.6983
26.2631
32.0855
15.6047
9.29219
8.1466
9.42823
25.3431
29.4606
10.3528
7.90401
10.6338
19.7593
37.0993
29.3259
9.90489
8.42104
10.2862
17.3331
36.6526
28.6884
8.95374
8.29382
10.0089
16.4759
34.9675
27.7441
8.95201
8.26255
9.88693
16.2944
34.089
27.1971
9.13373
8.31979
9.72687
16.2967
33.368
26.5048
9.85745
8.497
8.2814
10.9474
30.9378
38.7734
20.9135
11.1988
8.87048
10.4976
30.939
39.0216
18.5173
11.0008
8.74249
9.60492
30.5599
37.4921
17.699
10.6647
8.67845
9.53425
29.5777
36.393
17.3741
10.5301
8.69913
9.6346
28.9177
35.6883
17.3733
10.2965
8.86509
10.3703
28.2562
32.9475
11.4501
8.62782
11.7545
22.0018
40.9581
32.5466
11.0467
9.26686
11.4913
19.383
40.5102
31.671
10.0943
9.16679
11.1874
18.4493
39.0747
30.7665
10.0574
9.14381
10.9825
18.4451
38.2348
30.4226
11.0111
9.25884
9.04718
12.2377
35.605
43.97
23.8165
12.6677
9.74036
11.8043
34.9167
43.6835
20.6882
12.2776
9.55396
10.6389
34.1689
42.165
19.7943
11.856
9.42977
10.5353
32.8012
40.4107
19.4674
11.4668
9.49613
11.3505
31.8143
37.3393
12.6473
9.27217
13.1889
24.8187
46.7612
36.7434
12.1604
10.0412
12.6297
21.4927
45.8556
35.2803
10.7967
9.83599
12.298
20.5021
43.9584
34.5469
10.9862
9.82584
12.1294
20.6608
42.9415
33.882
12.0799
9.90653
9.732
13.5341
39.7931
48.8003
26.5422
14.0309
10.5072
12.9955
38.4463
48.6761
22.9509
13.5052
10.3391
11.6077
37.664
46.8317
21.9406
13.0479
10.211
11.6051
36.578
45.4121
21.6849
12.6121
10.2681
12.4605
35.8263
42.157
13.8557
10.0589
14.5738
27.5566
51.9165
40.539
13.4583
10.9657
14.1448
24.3154
51.2426
39.639
12.3124
10.8643
13.7393
23.0785
49.4322
38.743
12.2275
10.8348
13.5059
23.1005
48.2697
38.2005
13.4053
10.9201
10.7642
15.0713
44.9664
55.4124
29.7996
15.8236
11.7294
14.5994
43.1595
54.1968
25.818
15.1398
11.4869
13.1732
41.9148
52.3377
24.7429
14.4319
11.3584
13.9779
40.9918
47.9306
15.2471
11.1525
16.562
31.7611
59.3534
45.5265
15.2786
12.173
15.8803
27.2488
57.2584
44.3961
13.7697
12.0257
15.411
26.0774
55.7473
43.5864
13.6825
11.9849
15.0717
26.0217
54.3643
42.7374
14.8624
12.0213
11.9105
16.7639
50.1959
62.4296
33.6347
17.7974
13.0522
16.5156
48.4592
61.0114
29.2162
17.0752
12.8713
14.8383
47.3223
59.117
27.9985
16.2778
12.7428
15.741
45.8599
54.0368
17.581
12.5743
18.8904
35.8197
67.7438
52.4497
17.3244
13.7753
18.1209
31.2482
65.6936
50.7522
15.8411
13.5908
17.3002
29.8748
63.0726
49.3187
16.7461
13.4644
13.3683
18.8691
57.6964
71.2943
38.3715
20.1777
14.5874
18.7198
54.8696
68.7806
33.4593
19.0901
14.2339
17.7713
53.0883
62.142
19.7003
14.0528
21.285
40.2569
77.0635
58.4343
19.1162
15.2708
20.483
35.4496
74.115
57.0324
17.7594
14.9509
19.4106
33.7267
71.0233
55.4898
18.6378
14.7031
14.6101
21.1014
64.9797
80.2081
42.7415
22.4857
15.9478
20.5979
61.9481
77.3922
37.0041
21.073
15.3283
19.3305
59.5641
69.5308
21.4031
15.1666
23.4749
44.8602
85.9049
65.6055
21.1684
16.5299
22.0586
38.914
82.19
62.7569
20.4957
15.9383
15.8039
23.0487
73.9773
92.4678
48.4572
25.1161
17.3744
22.4203
69.9365
87.0537
41.5995
23.4068
16.4933
21.2076
66.2996
77.2389
23.5594
16.3373
25.8187
49.7696
95.0455
72.3803
23.1767
17.8351
24.1564
42.7731
90.2801
69.2253
22.08
17.1016
16.9967
24.6518
81.1234
100.843
52.4558
27.0877
18.6211
23.4223
74.6116
95.4578
45.483
25.4929
17.6829
23.2506
72.8464
85.0252
25.6357
17.536
28.1917
54.719
105.668
80.1933
25.1537
19.2663
26.2856
47.061
99.7136
76.2229
23.9284
18.4255
18.3053
26.6543
88.5761
109.16
57.1443
29.3129
20.0454
26.3497
82.7517
103.358
48.8849
27.2463
19.0539
24.8792
78.123
90.4191
26.5356
18.8268
29.8998
59.7587
114.413
86.6748
28.1522
20.3037
20.0502
30.2799
100.368
124.194
64.3229
32.8928
22.0642
29.0116
93.7364
115.821
54.371
30.3003
20.6861
26.9841
87.8295
101.368
30.0118
20.5948
32.7393
65.1601
124.473
94.4625
30.9963
22.0208
21.5939
31.6281
108.371
136.309
69.7476
34.9551
22.8944
32.3707
102.24
117.881
33.9878
22.4847
37.5997
74.3059
145.519
108.076
32.509
24.6659
34.1687
61.9145
132.057
99.0342
30.1252
22.9034
22.8046
33.3525
113.652
138.902
72.9759
36.4201
24.2248
34.3485
104.642
119.482
34.5987
23.7594
38.3145
76.4307
150.471
112.52
35.4208
25.0726
24.6859
37.4673
129.192
158.992
81.7898
40.41
26.1146
37.3876
117.859
133.925
38.7838
25.6904
41.7364
83.5639
162.894
121.378
38.2439
26.8412
26.4883
39.8229
138.503
170.297
85.9478
42.9403
27.3871
38.9642
126.153
142.44
46.095
27.84
28.0796
50.2706
165.1
199.517
102.18
49.4786
29.7394
44.0248
144.798
162.952
44.5397
28.9918
47.7152
97.0211
196.293
142.975
42.352
29.2111
29.0515
46.5565
158.765
183.189
51.8941
29.2071
52.8993
113.068
224.514
161.169
46.5401
30.8795
31.1678
53.3326
177.162
201.429
57.393
31.4747
56.3004
119.621
235.96
165.888
48.6487
32.3177
32.1176
53.783
186.96
213.613
58.7174
31.9342
57.5155
124.313
256.946
180.959
50.2822
32.484
31.2592
48.7702
196.932
226.429
69.0219
33.4408
32.2897
57.8631
237.939
292.163
143.433
63.778
34.582
54.7955
204.635
222.192
55.9279
33.4019
33.619
68.6638
249.232
268.624
61.5818
31.8299
33.7868
78.788
289.745
303.987
75.3284
31.8086
64.341
152.808
337.623
212.632
54.0607
32.5844
30.997
53.3425
224.229
248.376
65.7033
30.867
30.0961
65.1935
263.703
274.033
66.7463
29.6054
29.4575
71.8994
275.3
272.151
75.3187
29.3697
29.3517
78.4545
264.948
252.513
82.2729
29.4797
29.6177
85.1803
238.924
225.365
89.0063
30.0049
30.3984
92.842
212.346
200.148
97.7374
31.2577
31.9418
102.428
189.035
179.005
107
33.2426
34.2335
111.415
170
161.94
115.707
35.8839
37.1905
119.834
154.729
148.346
123.794
39.1657
41.0292
127.142
142.672
137.671
130.307
43.5301
45.8039
132.987
133.236
129.333
135.622
48.6431
51.0212
138.074
125.89
122.883
140.446
53.9623
56.4017
142.602
120.243
117.957
144.674
59.3848
61.8494
146.536
115.961
114.253
148.324
64.8715
67.3985
149.897
112.774
111.523
151.39
70.4918
73.1002
152.654
110.443
109.542
153.836
76.2705
78.9196
154.789
108.767
108.127
155.651
82.1273
84.6989
156.32
107.579
107.134
156.919
87.7606
90.1708
157.34
106.757
106.456
157.709
93.0414
95.2586
157.915
106.198
105.996
158.081
97.9158
99.9142
158.106
105.824
105.689
158.077
102.338
104.103
157.981
105.571
105.488
157.855
106.289
107.813
157.585
105.408
105.35
157.384
109.743
111.022
156.995
105.301
105.264
156.696
112.693
113.739
156.224
105.237
105.209
155.84
115.162
115.991
155.307
105.189
105.157
154.858
117.183
117.82
154.288
105.133
105.091
153.794
118.801
119.268
153.204
105.061
105.005
152.677
120.056
120.378
152.08
104.966
104.896
151.531
120.985
121.192
150.94
104.848
104.764
150.381
121.638
121.764
149.807
104.706
104.614
149.25
122.069
122.134
148.696
104.549
104.449
148.148
122.32
122.334
147.615
104.376
104.272
147.08
122.402
122.38
146.564
104.193
104.086
146.054
122.382
122.309
145.555
104.003
103.896
145.074
122.282
122.163
144.597
103.81
103.703
144.148
122.102
121.92
143.693
103.617
103.511
143.267
121.835
121.614
142.833
103.426
103.319
142.426
121.513
121.267
142.013
103.234
103.128
141.621
121.157
120.9
141.233
103.045
102.939
140.856
120.787
120.53
140.492
102.858
102.754
140.13
120.413
120.167
139.796
102.676
102.576
139.449
120.049
119.827
139.142
102.5
102.402
138.814
119.707
119.505
138.535
102.33
102.237
138.227
119.396
119.215
137.974
102.169
102.08
137.689
119.116
118.958
137.462
102.018
101.936
137.202
118.872
118.739
137.001
101.88
101.802
136.765
118.667
118.556
136.587
101.753
101.682
136.376
118.5
118.413
136.222
101.64
101.575
136.033
118.371
118.307
135.901
101.541
101.482
135.735
118.28
118.238
135.625
101.455
101.404
135.478
118.224
118.202
135.387
101.383
101.341
135.259
118.202
118.2
135.187
101.325
101.293
135.075
118.213
118.225
135.019
101.282
101.259
134.923
118.248
118.278
134.88
101.253
101.238
134.799
118.308
118.353
134.767
101.237
101.232
134.703
118.389
118.448
134.679
101.235
101.237
134.63
118.49
118.561
134.614
101.246
101.253
134.58
118.609
118.692
134.571
101.269
101.28
134.55
118.744
118.837
134.548
101.304
101.319
134.541
118.893
118.996
134.546
101.349
101.368
134.547
119.055
119.165
134.559
101.404
101.427
134.565
119.227
119.342
134.586
101.467
101.493
134.596
119.406
119.526
134.625
101.537
101.567
134.64
119.591
119.714
134.676
101.614
101.647
134.694
119.78
119.906
134.736
101.697
101.733
134.757
119.973
120.101
134.806
101.786
101.825
134.829
120.168
120.298
134.883
101.88
101.921
134.909
120.365
120.494
134.966
101.978
102.021
134.994
120.561
120.69
135.055
102.08
102.125
135.084
120.755
120.883
135.149
102.186
102.233
135.179
120.947
121.074
135.246
102.296
102.344
135.277
121.136
121.26
135.346
102.409
102.458
135.378
121.321
121.442
135.448
102.524
102.576
135.481
121.502
121.62
135.553
102.642
102.695
135.587
121.679
121.795
135.661
102.762
102.816
135.695
121.851
121.965
135.769
102.884
102.938
135.804
122.019
122.129
135.879
103.007
103.061
135.914
122.182
122.289
135.988
103.13
103.185
136.023
122.339
122.443
136.098
103.254
103.309
136.133
122.491
122.591
136.208
103.378
103.432
136.242
122.637
122.733
136.316
103.501
103.556
136.351
122.777
122.869
136.424
103.624
103.679
136.458
122.911
123
136.531
103.748
103.802
136.565
123.04
123.125
136.636
103.871
103.925
136.67
123.163
123.244
136.74
103.994
104.048
136.773
123.28
123.357
136.843
104.117
104.171
136.875
123.392
123.465
136.944
104.24
104.294
136.976
123.498
123.568
137.043
104.364
104.418
137.074
123.598
123.665
137.141
104.488
104.542
137.171
123.693
123.756
137.237
104.613
104.667
137.267
123.783
123.843
137.332
104.739
104.793
137.362
123.868
123.925
137.426
104.865
104.92
137.456
123.949
124.003
137.52
104.991
105.045
137.55
124.025
124.077
137.613
105.116
105.169
137.643
124.097
124.144
137.706
105.24
105.291
137.735
124.164
124.21
137.797
105.361
105.409
137.826
124.226
124.278
137.892
105.48
105.529
137.921
124.295
124.336
137.98
105.597
105.64
138.008
124.352
124.392
138.077
105.715
105.75
138.095
124.406
124.439
138.155
105.863
105.895
138.171
124.446
124.462
138.232
105.987
106.017
138.252
124.506
124.519
138.108
106.125
106.024
137.829
124.678
124.445
137.412
106.303
106.998
137.217
124.323
124.38
137.595
107.411
116.114
72.1611
43.224
40.4448
41.3837
45.6012
49.1447
54.7675
56.9035
63.8519
67.6797
68.8005
68.9644
68.438
67.9078
67.6007
67.5028
67.5423
67.6511
67.7862
67.9248
68.0556
68.1741
68.2788
68.3698
68.4477
68.513
68.5666
68.6082
68.639
68.6595
68.6717
68.6772
68.6843
68.6973
68.7165
68.7419
68.772
68.8068
68.8454
68.8883
68.9356
68.9883
69.0471
69.1134
69.2043
69.3514
69.5687
69.8337
70.1108
70.3774
70.6247
70.8514
71.059
71.2488
71.422
71.5794
71.7219
71.8501
71.9647
72.067
72.1582
72.2398
72.3133
72.3801
72.4416
72.4986
72.5524
72.6037
72.6533
72.702
72.7503
72.799
72.8486
72.8995
72.9524
73.0076
73.0655
73.1264
73.1906
73.2584
73.3297
73.4046
73.4832
73.5652
73.6504
73.7387
73.8296
73.9229
74.0181
74.1149
74.2128
74.3113
74.4102
74.509
74.6073
74.7049
74.8013
74.8964
74.99
75.0818
75.1716
75.2594
75.345
75.4283
75.5093
75.588
75.6643
75.7383
75.8098
75.8791
75.946
76.0108
76.0733
76.1337
76.1919
76.2482
76.3025
76.355
76.4056
76.4545
76.5017
76.5473
76.5913
76.6339
76.675
76.7148
76.7532
76.7905
76.8265
76.8614
76.8953
76.9281
76.96
76.9909
77.021
77.0502
77.0786
77.1063
77.1333
77.1596
77.1853
77.2104
77.235
77.259
77.2825
77.3055
77.3282
77.3504
77.3722
77.3937
77.4149
77.4358
77.4564
77.4768
77.497
77.5169
77.5367
77.5564
77.576
77.5954
77.6148
77.6341
77.6534
77.6727
77.692
77.7114
77.7309
77.7504
77.77
77.7898
77.8098
77.83
77.8504
77.8711
77.892
77.9133
77.9349
77.9569
77.9793
78.0021
78.0255
78.0494
78.0738
78.0989
78.1247
78.1511
78.1784
78.2065
78.2354
78.2653
78.2961
78.328
78.361
78.3952
78.4304
78.4667
78.5039
78.5417
78.5795
78.6164
78.6512
78.682
78.7059
78.7219
78.7303
78.7371
78.7438
78.7429
78.7416
78.7371
78.7203
78.6769
78.5842
78.4307
78.2237
77.983
77.7261
77.4623
77.1941
76.9204
76.6391
76.3482
76.0466
75.7337
75.4093
75.0737
74.727
74.3694
74.0012
73.6227
73.2339
72.8353
72.427
72.0094
71.5828
71.1475
70.7041
70.2529
69.7944
69.329
68.8572
68.3795
67.8964
67.4085
66.9162
66.4201
65.9209
65.4189
64.9149
64.4093
63.9027
63.3958
62.8891
62.3832
61.8786
61.3759
60.8758
60.3787
59.8854
59.3962
58.9118
58.4328
57.9596
57.4929
57.0331
56.5808
56.1365
55.7007
55.2739
54.8565
54.449
54.0518
53.6653
53.2899
52.9261
52.5742
52.2348
51.9083
51.5949
51.2949
51.0078
50.7322
50.4665
50.2093
49.9625
49.7346
49.5442
49.4103
49.3362
49.3023
49.2847
49.2671
49.2225
49.0556
48.1996
46.6678
45.549
45.139
43.9825
43.6588
42.5202
42.2618
41.171
40.9712
39.9199
39.7701
38.758
38.6502
37.6759
37.6035
36.6645
36.6219
35.7154
35.6981
34.8226
34.8257
33.9832
33.9998
33.185
33.2136
32.4253
32.4654
31.7032
31.7549
31.0186
31.0809
30.3686
30.44
29.7498
29.829
29.1588
29.2445
28.5926
28.6838
28.0487
28.1445
27.5249
27.6245
27.019
27.122
26.5297
26.6354
26.0552
26.1628
25.5937
25.7029
25.1438
25.2541
24.7046
24.8156
24.275
24.3864
23.854
23.9654
23.4407
23.5518
23.0343
23.1448
22.6339
22.7435
22.2389
22.3475
21.8488
21.956
21.463
21.5688
21.0813
21.1854
20.7033
20.8056
20.329
20.4295
19.9588
20.0574
19.5933
19.6904
19.2334
19.3293
18.8808
18.9758
18.5373
18.6323
18.2059
18.3017
17.8901
17.9878
17.5935
17.6939
17.3186
17.4227
17.0687
17.1772
16.8445
16.9587
16.6512
16.774
16.4954
16.6279
16.3749
16.5171
16.287
16.4384
16.2292
16.3898
16.1999
16.3693
16.1965
16.3741
16.2157
16.4003
16.2481
16.4417
16.2951
16.4964