/*--------------------------------*- C++ -*----------------------------------*\
| =========                 |                                                 |
| \\      /  F ield         | OpenFOAM: The Open Source CFD Toolbox           |
|  \\    /   O peration     | Version:  v2006                                 |
|   \\  /    A nd           | Website:  www.openfoam.com                      |
|    \\/     M anipulation  |                                                 |
\*---------------------------------------------------------------------------*/
FoamFile
{
    version     2.0;
    format      ascii;
    class       volScalarField;
    location    "0.004";
    object      isentropic(p);
}
// * * * * * * * * * * * * * * * * * * * * * * * * * * * * * * * * * * * * * //

dimensions      [1 -1 -2 0 0 0 0];


internalField   nonuniform List<scalar> 
31566
(
149842
149840
149974
149975
149974
149974
149971
149969
149963
149959
149957
149955
149954
149953
149952
149952
149952
149952
149952
149953
149953
149955
149956
149958
149960
149963
149966
149969
149973
149977
149981
149985
149989
149993
149997
150001
150005
150009
150014
150019
150023
150028
150032
150037
150042
150047
150052
150056
150061
150066
150071
150077
150082
150088
150093
150099
150104
150110
150115
150119
150123
150127
150130
150132
150133
150133
150132
150131
150129
150127
150125
150122
150119
150117
150114
150112
150110
150108
150106
150105
150104
150103
150102
150102
150101
150100
150099
150098
150097
150096
150096
150095
150094
150094
150093
150092
150092
150092
150090
150091
150094
150068
150022
150035
150039
150042
150044
150047
150046
150032
150108
150136
150138
150235
150229
150189
150276
150330
150340
150450
150437
150369
150464
150546
150562
150675
150655
150561
150658
150761
150785
150891
150863
150754
150848
150963
150993
151092
151059
150941
151032
151152
151186
151277
151241
151120
151206
151327
151362
151443
151407
151287
151365
151483
151519
151589
151553
151438
151506
151618
151654
151714
151678
151568
151624
151732
151768
151817
151781
151676
151722
151825
151861
151901
151865
151762
151799
151900
151936
151968
151932
151832
151863
151961
151997
152024
151988
151891
151918
152013
152049
152073
152037
151943
151969
152061
152097
152121
152085
151994
152019
152110
152145
152170
152134
152045
152071
152158
152194
152218
152183
152096
152121
152206
152241
152262
152227
152143
152164
152246
152281
152297
152262
152182
152196
152275
152309
152319
152285
152207
152215
152291
152324
152324
152292
152217
152216
152289
152321
152314
152282
152210
152199
152270
152302
152284
152253
152183
152166
152234
152265
152240
152209
152142
152113
152178
152209
152173
152143
152078
152041
152105
152135
152098
152069
152007
151969
152031
152059
152013
151985
151925
151874
151933
151961
151905
151878
151820
151765
151821
151848
151789
151762
151708
151650
151703
151729
151667
151641
151590
151529
151577
151603
151536
151511
151465
151399
151443
151468
151396
151373
151330
151260
151300
151323
151248
151226
151188
151114
151150
151172
151093
151072
151039
150963
150994
151014
150932
150913
150885
150806
150831
150850
150765
150748
150725
150643
150663
150680
150591
150575
150558
150472
150487
150502
150408
150395
150383
150293
150303
150315
150217
150206
150198
150104
150110
150120
150018
150009
150005
149908
149910
149918
149812
149806
149805
149705
149705
149711
149602
149598
149599
149500
149499
149502
149394
149392
149393
149297
149296
149298
149191
149191
149191
149104
149104
149104
148996
148997
148996
148915
148917
148916
148809
148811
148808
148735
148738
148737
148633
148635
148631
148568
148573
148571
148469
148471
148465
148400
148407
148406
148312
148313
148306
148240
148248
148247
148163
148164
148156
148093
148101
148100
148020
148022
148013
147949
147957
147956
147883
147884
147876
147817
147825
147825
147761
147762
147755
147702
147710
147710
147659
147660
147653
147612
147618
147618
147581
147582
147575
147546
147552
147551
147527
147527
147522
147501
147507
147506
147491
147491
147486
147474
147478
147478
147471
147471
147467
147464
147468
147468
147472
147472
147469
147474
147476
147476
147489
147489
147486
147496
147498
147497
147518
147517
147516
147529
147530
147530
147558
147557
147557
147570
147571
147570
147602
147602
147602
147615
147614
147614
147654
147654
147654
147668
147668
147667
147716
147716
147716
147734
147734
147734
147783
147783
147782
147813
147814
147814
147863
147863
147861
147903
147906
147906
147961
147961
147957
148010
148015
148015
148079
148078
148072
148135
148143
148143
148216
148215
148206
148278
148289
148290
148371
148370
148357
148438
148453
148454
148544
148543
148525
148615
148635
148636
148735
148734
148711
148809
148835
148836
148943
148941
148913
149019
149050
149052
149166
149164
149129
149242
149279
149282
149403
149400
149360
149479
149523
149526
149654
149650
149602
149728
149779
149783
149917
149913
149858
149990
150049
150053
150194
150189
150126
150264
150331
150336
150482
150476
150405
150548
150623
150629
150778
150771
150692
150837
150920
150927
151077
151069
150982
151125
151215
151225
151371
151361
151268
151408
151504
151515
151658
151646
151548
151687
151786
151799
151940
151927
151826
151964
152065
152077
152216
152204
152102
152238
152339
152350
152487
152477
152376
152511
152610
152617
152752
152747
152649
152778
152874
152875
153008
153009
152914
153033
153126
153119
153249
153257
153165
153269
153359
153345
153470
153485
153395
153476
153566
153547
153670
153687
153594
153644
153739
153719
153840
153855
153752
153787
153887
153872
153997
154005
153901
153922
154022
154015
154134
154133
154034
154048
154139
154140
154253
154248
154160
154175
154253
154256
154358
154355
154284
154298
154359
154356
154425
154433
154384
154398
154435
154418
154454
154475
154455
154456
154462
154438
154443
154467
154471
154456
154445
154419
154405
154428
154443
154413
154396
154378
154366
154372
154386
154350
154342
154350
154345
154316
154318
154266
154273
154324
154303
154231
154208
154137
154179
154271
154237
154128
154064
153981
154066
154189
154137
154001
153894
153800
153926
154074
154010
153850
153704
153605
153769
153938
153867
153688
153505
153398
153598
153786
153699
153501
153285
153156
153388
153594
153480
153265
153018
152874
153134
153358
153233
152999
152725
152567
152854
153098
152955
152702
152402
152225
152536
152799
152635
152363
152039
151847
152183
152464
152297
152007
151659
151475
151834
152131
151970
151665
151295
151116
151496
151806
151642
151328
150938
150763
151160
151476
151318
150999
150597
150440
150845
151163
151021
150700
150295
150153
150557
150874
150737
150421
150019
149893
150292
150604
150490
150178
149781
149681
150076
150390
150311
149993
149593
150956
151176
152277
152649
152848
153803
153843
154339
154409
154967
155086
155801
155965
156863
157081
158173
158454
159778
160133
161727
162170
164093
164636
166948
167598
170394
171150
174452
175284
179411
180323
185244
186436
204586
218438
237788
235887
234603
234022
233823
233780
233750
233730
233742
233806
233920
234321
234524
234844
234657
230565
212122
178264
168164
163150
158683
151742
151666
158529
163002
162960
158487
151614
151723
158571
163151
163348
158677
151870
151999
158755
163498
163620
158812
152112
152206
158855
163731
163817
158895
152284
152343
158917
163892
163964
158940
152392
152437
158966
164039
164114
158997
152479
152517
159029
164189
164268
159065
152551
152581
159103
164346
164428
159146
152609
152633
159190
164509
164596
159238
152656
152676
159287
164683
164777
159343
152694
152712
159399
164872
164978
159464
152728
152745
159528
165083
165200
159601
152762
152779
159675
165318
165450
159760
152797
152816
159847
165586
165736
159943
152834
152853
160043
165892
166064
160154
152871
152891
160268
166241
166443
160399
152911
152934
160532
166649
166884
160684
152956
152981
160840
167124
167397
161015
153003
153029
161195
167675
167993
161400
153051
153081
161613
168324
168702
161859
153106
153140
162114
169097
169553
162414
153170
153218
162727
170033
170601
163097
153262
153349
163511
171201
171927
164048
153480
153568
164506
172607
173310
165004
153520
153224
165250
173823
174384
165555
152897
152480
165741
174864
175502
166049
152110
151872
166422
176215
177532
167219
151907
153018
169069
179811
171636
162798
151280
154304
167589
176244
178799
170000
155481
155668
171246
180215
181531
172372
155733
155529
173142
182632
183539
173874
155435
155364
174510
184374
185954
175699
155555
157009
178086
188522
178843
169255
154083
157940
174305
183197
186130
177294
159583
160380
179684
188743
190371
181025
160627
160725
182654
192086
196227
186668
162783
158117
174971
184750
187666
178883
161051
164049
183444
192302
197107
189664
167618
160474
176547
186718
185571
177703
161043
160097
178473
186422
173094
164041
147967
126056
143753
159872
126351
114611
99175.3
130389
126252
120242
114190
113806
112470
115247
115787
116059
115758
115503
114669
114558
115513
115847
115792
115369
114485
114713
115837
116136
116075
115683
114535
114466
115479
115937
116350
116012
114732
114514
115795
116222
116066
115586
114474
114731
116131
116499
116336
115891
114523
114486
115661
116159
116618
116233
114746
114499
115951
116415
116240
115718
114466
114751
116314
116709
116477
115999
114492
114458
115748
116287
116764
116348
114716
114466
116030
116522
116331
115773
114443
114703
116396
116822
116565
116065
114464
114367
115773
116358
116864
116431
114676
114422
116081
116589
116377
115777
114320
114653
116463
116902
116638
116123
114413
114232
115686
116303
116794
116297
114585
114436
115913
116522
117005
116536
114689
114229
116072
116650
116459
115818
114241
114577
116517
116993
116659
116069
114154
114175
115806
116461
117008
116535
114522
114148
116089
116664
116339
115659
114002
114469
116358
116892
116572
115901
114274
114556
116594
117095
116710
116059
114016
114004
115704
116409
116937
116420
114468
114054
115843
116543
117096
116547
114324
114052
116158
116799
116541
115801
113964
114312
116584
117117
116699
116019
113779
113806
115652
116410
116989
116446
114360
113949
115762
116473
116992
116413
114306
113989
115904
116647
117217
116706
114408
113966
116217
116848
116372
115606
113632
113958
116287
116928
116603
115830
113830
114244
116662
117198
116836
116198
113898
113454
115489
116305
116885
116210
113840
113690
115662
116482
117084
116458
114186
113787
115869
116672
117242
116683
114197
113497
115986
116717
116292
115425
113265
113860
116277
116942
116452
115596
113505
114036
116427
117052
116583
115721
113485
113838
116578
117189
116697
115928
113270
113144
115435
116326
116963
116305
113736
113266
115492
116351
116953
116295
113740
113266
115625
116520
117177
116571
113734
113205
115955
116717
116303
115377
112982
113645
116300
116936
116221
115329
112990
113505
116156
116870
116389
115452
113093
113706
116353
117031
116535
115620
113164
113627
116548
117162
116591
115756
112873
112648
115157
116129
116809
116114
113301
112807
115230
116186
116832
116106
113372
112881
115303
116236
116820
116152
113444
112717
115219
116165
116807
116105
113292
112809
115382
116343
116989
116354
113291
112630
115626
116470
115977
114964
112395
113023
115925
116625
115916
114932
112360
112967
115849
116587
115981
115014
112487
113107
115922
116608
116020
115012
112415
113039
115952
116670
116147
115153
112425
112962
116148
116792
116220
115340
112252
112023
114695
115738
116432
115706
112686
112183
114814
115835
116503
115794
112886
112289
114886
115892
116517
115803
112924
112262
114907
115948
116605
115875
112890
112317
115100
116113
116772
116139
112873
112293
115442
116283
115781
114694
111943
112715
115757
116499
115916
114870
112205
112930
115858
116593
116017
114962
112341
113052
115936
116666
116117
115058
112395
113054
116049
116781
116314
115291
112494
113097
116357
116977
116586
115760
112614
112158
114985
116067
116803
116082
113001
112596
115247
116263
116925
116204
113285
112779
115372
116408
117108
116437
113611
112909
115577
116588
117207
116532
113557
113043
115787
116767
117407
116814
113637
113171
116239
117053
116600
115570
112857
113807
116780
117405
116890
115931
113300
114097
116915
117536
117033
116101
113588
114223
116974
117604
117143
116237
113746
114483
117246
117834
117432
116525
113973
114784
117703
118178
117773
117040
114216
113773
116335
117325
118030
117420
114698
114215
116648
117552
118146
117554
114864
114504
116878
117736
118473
117974
115367
114770
117267
118109
118883
118479
115668
115048
117795
118453
118034
117128
114700
115519
118086
118629
118213
117383
115086
115980
118480
118955
118569
117771
115530
116391
118797
119247
118876
118097
115770
116473
119128
119524
119149
118549
115969
115721
117979
118782
119443
118959
116543
116183
118312
119085
119821
119457
117216
116590
118789
119505
120247
119916
117372
116855
119302
119847
119504
118756
116621
117326
119634
120083
119754
119038
117055
118012
120147
120465
120232
119566
117532
118375
120727
120963
120590
120113
117803
117530
119583
120271
120772
120363
118208
117932
119817
120482
121157
120873
118870
118639
120479
121049
121661
121461
119307
118836
120932
121337
121080
120476
118615
119235
121243
121586
121365
120788
118996
119858
121911
122088
121912
121560
119683
119393
121121
121724
122255
121962
120140
119815
121467
121991
122538
122271
120330
119983
121874
122298
122315
121772
120254
121147
122719
122884
122736
122268
120787
121259
122977
123167
122914
122582
120893
120802
122251
122762
123338
123133
121595
121734
123041
123435
123859
123757
122218
121792
123356
123625
123505
123061
121650
122225
123891
124056
123966
123653
122072
122516
123792
124152
124561
124477
122991
122687
124100
124332
124239
123855
122573
123197
124683
124772
124768
124589
123347
123426
124536
124836
125198
125129
123865
123651
124840
125023
125068
124732
123685
124663
125699
125637
125515
125398
124350
124228
125198
125474
125873
125835
124707
124655
125707
125852
126040
125835
124981
125309
126390
126356
126325
126254
125173
125422
126353
126417
126548
126386
125563
125887
126962
126867
126939
126987
125994
126231
127123
127072
127148
127149
126182
126641
127370
127345
127400
127371
126669
127018
127481
127488
127541
127462
127163
127554
127878
127823
127815
127842
127490
127604
127914
127888
127957
127981
127701
127806
128055
128030
128102
128127
127907
128009
128202
128176
128249
128275
128107
128203
128348
128321
128392
128419
128295
128385
128489
128462
128530
128557
128471
128556
128626
128599
128667
128694
128638
128718
128760
128734
128801
128826
128795
128870
128891
128867
128932
128956
128943
129014
129019
128997
129062
129082
129083
129150
129144
129125
129189
129206
129215
129278
129267
129252
129314
129327
129340
129400
129387
129377
129439
129447
129459
129516
129507
129502
129565
129566
129572
129628
129626
129628
129690
129685
129681
129734
129744
129752
129813
129802
129786
129836
129860
129875
129936
129917
129885
129933
129974
129997
130058
130031
129980
130025
130087
130118
130178
130142
130070
130113
130196
130237
130296
130250
130155
130196
130303
130354
130412
130356
130236
130275
130408
130469
130527
130460
130313
130351
130511
130584
130641
130562
130387
130423
130612
130697
130753
130662
130458
130491
130710
130808
130862
130758
130524
130555
130805
130916
130969
130851
130586
130616
130897
131022
131074
130942
130644
130672
130986
131125
131176
131030
130699
130726
131072
131226
131276
131115
130751
130775
131156
131325
131373
131196
130799
130821
131235
131420
131466
131274
130843
130863
131311
131512
131557
131349
130884
130902
131385
131602
131645
131420
130920
130937
131454
131688
131730
131488
130953
130969
131521
131772
131813
131553
130983
130997
131585
131853
131893
131617
131010
131023
131648
131933
131972
131678
131035
131047
131707
132010
132047
131736
131058
131068
131764
132084
132121
131792
131078
131088
131819
132157
132192
131846
131097
131105
131872
132227
132261
131897
131113
131121
131922
132295
132328
131946
131128
131134
131969
132360
132391
131992
131140
131145
132014
132422
132452
132035
131150
131154
132055
132482
132510
132075
131158
131161
132094
132538
132565
132112
131163
131165
132130
132591
132617
132147
131167
131168
132163
132642
132666
132179
131169
131169
132194
132690
132713
132208
131169
131169
132222
132735
132756
132235
131168
131166
132247
132777
132797
132259
131164
131162
132270
132816
132834
132280
131159
131156
132290
132852
132868
132299
131152
131148
132307
132885
132900
132315
131144
131139
132322
132915
132929
132329
131133
131127
132334
132942
132954
132339
131121
131114
132344
132966
132978
132348
131108
131101
132352
132988
132999
132356
131094
131087
132359
133009
133019
132361
131079
131071
132363
133027
133035
132365
131063
131054
132366
133043
133049
132366
131045
131035
132365
133055
133060
132364
131025
131016
132363
133065
133070
132362
131006
130996
132361
133075
133080
132359
130986
130977
132358
133084
133088
132356
130967
130957
132354
133092
133095
132352
130948
130938
132350
133099
133102
132348
130929
130919
132345
133104
133107
132342
130909
130900
132339
133109
133112
132337
130890
130881
132334
133114
133117
132332
130873
130865
132330
133120
133123
132328
130857
130849
132326
133125
133128
132324
130841
130833
132321
133129
133131
132318
130824
130816
132315
133132
133133
132312
130808
130800
132309
133135
133136
132307
130793
130787
132305
133138
133141
132303
130780
130775
132302
133143
133146
132301
130769
130765
132300
133149
133152
132300
130760
130755
132299
133155
133158
132298
130751
130746
132297
133160
133162
132296
130742
130737
132295
133164
133166
132293
130732
130727
132291
133167
133168
132288
130721
130716
132286
133168
133167
132282
130710
130703
132278
133166
133165
132274
130697
130690
132269
133163
133160
132264
130683
130675
132259
133157
133155
132254
130669
130665
132251
133153
133155
132250
130662
130660
132250
133157
133159
132250
130659
130655
132247
133156
133135
132221
130628
130609
132206
133128
133194
132276
130681
130745
132338
133249
133215
132295
130696
130610
132211
133141
133124
132190
130588
130666
132262
133184
133244
132324
130728
130717
132318
133246
133197
132258
130654
130644
132247
133187
133218
132291
130694
130704
132299
133224
133170
132229
130629
130585
132189
133140
133185
132244
130648
130734
132328
133258
133277
132348
130756
130676
132274
133217
133155
132212
130619
130594
132187
133133
133134
132192
130604
130631
132218
133156
133163
132230
130649
130628
132213
133153
133111
132168
130587
130556
132134
133077
133055
132107
130530
130522
132096
133043
133046
132104
130535
130547
132114
133056
133065
132124
130559
130574
132137
133077
133091
132153
130592
130612
132170
133106
133119
132185
130631
130646
132198
133130
133144
132214
130665
130686
132231
133160
133174
132247
130704
130718
132258
133186
133195
132267
130729
130739
132274
133200
133196
132272
130741
130725
132252
133176
133159
132235
130710
130731
132253
133178
133203
132288
130772
130764
132276
133191
133117
132192
130680
130670
132176
133098
133155
132236
130734
130764
132263
133177
133163
132254
130761
130687
132178
133094
133062
132151
130667
130758
132233
133131
133185
132284
130809
130842
132315
133214
133231
132338
130870
130878
132338
133225
133184
132296
130839
130807
132261
133151
133184
132296
130848
130897
132344
133231
133257
132373
130930
130961
132400
133279
133286
132415
130984
130947
132375
133249
133199
132306
130874
130906
132325
133202
133262
132395
130982
131022
132431
133294
133311
132448
131042
131055
132457
133320
133329
132470
131073
131103
132494
133347
133369
132521
131134
131157
132539
133386
133399
132552
131174
131192
132563
133402
133374
132535
131168
131093
132462
133318
133303
132458
131099
131177
132528
133360
133404
132571
131222
131255
132600
133432
133454
132626
131285
131315
132651
133475
133496
132675
131345
131373
132698
133515
133532
132719
131399
131423
132738
133548
133559
132752
131442
131456
132762
133567
133574
132770
131469
131480
132777
133581
133588
132785
131492
131511
132798
133601
133617
132819
131537
131564
132840
133633
133654
132861
131589
131628
132897
133688
133729
132949
131688
131719
132970
133740
133662
132882
131631
131557
132803
133583
133651
132871
131632
131826
133052
133799
133822
133088
131873
131589
132817
133590
133462
132680
131453
131640
132845
133601
133777
133030
131823
131899
133092
133822
133675
132914
131710
131521
132728
133509
133558
132809
131625
131846
133031
133771
133834
133105
131930
131834
133015
133758
133619
132883
131714
131732
132892
133618
133800
133073
131914
132015
133179
133913
133934
133229
132084
132009
133147
133825
133654
132942
131807
131677
132831
133585
133650
132944
131823
132023
133147
133844
133935
133248
132129
132130
133247
133936
133817
133097
131974
131882
133006
133735
133733
133031
131927
132009
133109
133799
133825
133141
132047
132029
133119
133802
133727
133031
131939
131885
132979
133685
133698
133019
131944
132014
133089
133768
133805
133126
132054
132084
133153
133828
133835
133165
132101
132102
133163
133833
133846
133177
132120
132139
133193
133859
133866
133203
132152
132164
133211
133871
133864
133211
132170
132157
133197
133852
133835
133178
132141
132111
133142
133789
133738
133092
132066
132014
133041
133699
133675
133013
131985
132004
133023
133674
133687
133039
132022
132026
133041
133688
133682
133037
132025
132024
133033
133676
133670
133031
132024
132027
133030
133666
133662
133029
132029
132029
133027
133658
133653
133023
132028
132024
133018
133646
133638
133009
132017
132012
133002
133630
133624
132996
132009
132004
132990
133617
133607
132981
131997
131993
132974
133598
133591
132968
131990
131988
132964
133586
133586
132968
131995
131998
132969
133585
133579
132965
131996
131989
132956
133568
133557
132947
131982
131974
132936
133545
133531
132923
131963
131948
132908
133515
133496
132888
131931
131912
132868
133476
133454
132846
131890
131869
132824
133432
133407
132799
131846
131824
132776
133382
133358
132753
131802
131780
132729
133332
133304
132704
131757
131733
132679
133280
133278
132678
131731
131776
132717
133308
133282
132682
131734
131678
132622
133215
133192
132600
131657
131635
132583
133185
133235
132645
131701
131782
132718
133290
133237
132636
131683
131583
132530
133128
133074
132478
131532
131499
132444
133040
133022
132427
131482
131486
132430
133024
133035
132446
131503
131463
132411
133006
132956
132361
131414
131381
132328
132923
132899
132304
131358
131343
132289
132883
132875
132282
131336
131337
132284
132876
132878
132286
131339
131342
132289
132881
132879
132288
131340
131334
132282
132873
132859
132269
131320
131289
132238
132828
132789
132198
131249
131210
132160
132750
132710
132123
131178
131147
132083
132669
132644
132060
131123
131115
132060
132654
132642
132047
131094
133474
134089
134611
135107
135549
136000
136423
136873
137367
137935
138601
139241
139602
139760
139952
140234
141123
141949
142491
143707
144493
145188
145431
146340
146464
146507
146468
146375
146001
145855
145398
145286
144904
144671
144381
143961
143765
143658
143546
143317
143046
142983
142974
142774
143036
142943
142912
142987
142944
142753
142737
142885
142824
142644
142747
142615
142548
142549
142587
142618
142636
142658
142663
142657
142562
142610
142673
142594
142507
142439
142291
141908
142029
142135
142156
142081
142024
142219
142307
142376
142438
142494
142541
142556
142514
142429
142331
142235
142154
142088
142026
141963
141900
141837
141771
141704
141635
141569
141503
141436
141370
141303
141236
141171
141109
141052
141001
140955
140913
140875
140839
140804
140769
140733
140697
140659
140620
140579
140538
140496
140454
140414
140376
140341
140310
140286
140267
140257
140255
140264
140284
140310
140343
140381
140423
140468
140518
140572
140631
140696
140769
140848
140936
141032
141136
141249
141372
141504
141646
141799
141964
142141
142331
142533
142746
142967
143193
143421
143647
143868
144081
144284
144478
144663
144842
145017
145189
145355
145504
145493
145439
145784
146064
146451
146855
146998
147074
147339
147421
147380
147452
147531
147666
148107
147985
147904
147902
147939
148036
148193
148404
148638
148880
149091
149238
149294
149265
149187
149117
149091
149105
149137
149187
149245
149313
149398
149486
149563
149614
149638
149641
149631
149612
149587
149562
149535
149500
149451
149386
149310
149236
149172
149117
149070
149026
148982
148937
148890
148839
148781
148710
148628
148534
148435
148330
148218
148105
147992
147891
147792
147698
147597
147491
147388
147285
147188
147095
147012
146932
146855
146782
146711
146648
146586
146526
146471
146418
146368
146318
146262
146222
146189
146164
146147
146135
146123
146111
146107
146113
146126
146148
146176
146212
146256
146306
146362
146424
146491
146564
146642
146725
146812
146904
147001
147103
147210
147321
147436
147557
147684
147815
147952
148094
148240
148390
148544
148701
148861
149023
149189
149354
149520
149679
149683
149684
149680
149680
149681
149682
149683
149684
149685
149687
149689
149692
149695
149699
149704
149709
149716
149723
149732
149742
149754
149768
149783
149801
149820
149841
149863
149886
149909
149932
149954
149978
150002
150025
150050
150076
150101
150127
150153
150179
150205
150231
150258
150285
150313
150340
150368
150397
150425
150455
150484
150513
150543
150571
150599
150624
150648
150668
150684
150697
150706
150710
150711
150707
150701
150694
150684
150673
150660
150648
150635
150623
150612
150601
150592
150585
150578
150573
150568
150564
150560
150556
150552
150548
150544
150540
150536
150533
150529
150526
150522
150519
150515
150512
150509
150505
150502
150498
150498
150566
150564
150566
150680
150791
150899
151003
151104
151199
151291
151378
151460
151537
151608
151674
151735
151790
151840
151885
151925
151960
151993
152022
152049
152075
152100
152124
152148
152172
152197
152221
152245
152268
152290
152309
152325
152337
152347
152352
152352
152349
152342
152330
152313
152294
152267
152237
152201
152163
152126
152086
152040
151988
151932
151875
151816
151756
151693
151629
151562
151493
151422
151349
151273
151196
151117
151038
150956
150873
150788
150702
150613
150523
150429
150336
150237
150139
150036
149935
149828
149725
149616
149514
149404
149306
149198
149107
149002
148916
148812
148733
148632
148568
148466
148402
148308
148243
148158
148095
148016
147951
147879
147822
147756
147707
147655
147615
147578
147549
147524
147504
147488
147476
147469
147466
147470
147475
147488
147497
147517
147529
147557
147570
147602
147614
147654
147667
147716
147734
147782
147814
147863
147906
147961
148014
148078
148142
148215
148288
148369
148451
148542
148633
148732
148832
148939
149047
149161
149276
149397
149519
149646
149774
149909
150044
150184
150325
150471
150617
150766
150913
151063
151209
151356
151498
151642
151781
151922
152058
152196
152328
152465
152590
152726
152842
152977
153077
153211
153289
153422
153476
153615
153637
153787
153790
153950
153939
154091
154073
154214
154197
154317
154302
154385
154377
154435
154427
154462
154461
154488
154501
154534
154560
154588
154597
154603
154593
154582
154553
154522
154476
154432
154376
154324
154260
154190
154099
154003
153895
153788
153664
153537
153391
153241
153080
152925
152766
152614
152453
152296
152129
151974
151817
151672
151524
151384
151245
151129
151031
151253
151348
152380
152328
152715
152771
152986
152389
151457
151640
152710
152787
151779
151979
153077
153213
153467
153160
152124
152327
153417
153511
152483
152692
153757
153748
154049
153857
152853
153052
154084
154180
153207
153400
154397
154352
154656
154494
153558
153744
154705
154794
153895
154061
154988
154946
155186
155052
154188
154321
155217
155257
154424
154533
155408
155389
155578
155437
154623
154715
155569
155567
154774
154835
155668
155703
155795
155645
154873
154922
155737
155700
154949
154984
155780
155872
155924
155725
154995
155013
155791
155713
155003
155001
155757
155945
155927
155657
154972
154951
155675
155550
154899
154861
155545
155867
155767
155401
154796
154749
155385
155222
154677
154629
155200
155624
155455
155011
154548
154512
154987
154766
154408
154396
154747
155259
155018
154493
154260
154275
154501
154204
154112
154124
154276
154722
154380
153920
153953
153972
154066
153677
153790
153816
153857
154062
153765
153471
153626
153660
153660
153274
153478
153500
153476
153513
153302
153151
153345
153330
153290
153035
153182
153138
153093
153096
152868
152876
152987
152918
152872
152683
152765
152673
152627
152627
152383
152460
152523
152416
152372
152219
152268
152153
152111
152131
151872
151964
152004
151883
151844
151700
151733
151607
151571
151604
151333
151427
151457
151326
151293
151146
151173
151038
151008
151057
150775
150859
150883
150745
150719
150570
150591
150454
150432
150491
150211
150286
150303
150170
150152
150010
150025
149897
149881
149937
149674
149745
149757
149637
149622
149493
149504
149390
149377
149426
149192
149255
149263
149155
149146
149030
149036
148936
148928
148971
148764
148820
148823
148730
148725
148624
148626
148541
148535
148575
148401
148443
148445
148369
148364
148281
148282
148216
148211
148244
148106
148138
148137
148081
148077
148011
148010
147965
147961
147985
147882
147903
147902
147867
147863
147812
147810
147786
147781
147795
147724
147734
147731
147719
147714
147669
147664
147660
147657
147664
147612
147614
147608
147607
147605
147568
147567
147561
147564
147569
147533
147529
147527
147521
147523
147500
147495
147491
147495
147504
147485
147477
147474
147472
147475
147470
147465
147470
147473
147479
147494
147480
147476
147488
147491
147508
147504
147523
147527
147526
147577
147555
147550
147575
147581
147622
147618
147650
147658
147650
147746
147713
147711
147748
147762
147826
147829
147873
147886
147864
147999
147956
147952
148011
148023
148101
148096
148157
148170
148144
148299
148253
148246
148309
148324
148413
148405
148470
148486
148461
148632
148582
148572
148639
148656
148756
148745
148819
148837
148812
149002
148943
148930
149010
149028
149137
149123
149208
149228
149200
149407
149340
149324
149416
149437
149550
149533
149630
149651