/*--------------------------------*- C++ -*----------------------------------*\
| =========                 |                                                 |
| \\      /  F ield         | OpenFOAM: The Open Source CFD Toolbox           |
|  \\    /   O peration     | Version:  v2006                                 |
|   \\  /    A nd           | Website:  www.openfoam.com                      |
|    \\/     M anipulation  |                                                 |
\*---------------------------------------------------------------------------*/
FoamFile
{
    version     2.0;
    format      ascii;
    class       volScalarField;
    location    "0.004";
    object      T;
}
// * * * * * * * * * * * * * * * * * * * * * * * * * * * * * * * * * * * * * //

dimensions      [0 0 0 1 0 0 0];


internalField   nonuniform List<scalar> 
31566
(
299.24
299.236
299.28
299.282
299.285
299.286
299.284
299.283
299.282
299.283
299.284
299.286
299.289
299.292
299.296
299.301
299.307
299.313
299.32
299.328
299.336
299.345
299.355
299.365
299.375
299.386
299.398
299.409
299.422
299.434
299.447
299.459
299.472
299.485
299.498
299.51
299.523
299.536
299.549
299.563
299.576
299.589
299.602
299.615
299.628
299.641
299.654
299.667
299.68
299.693
299.705
299.718
299.73
299.743
299.755
299.767
299.779
299.791
299.802
299.812
299.822
299.831
299.84
299.847
299.854
299.859
299.864
299.868
299.871
299.874
299.876
299.878
299.879
299.88
299.881
299.882
299.883
299.884
299.885
299.886
299.887
299.887
299.888
299.888
299.889
299.888
299.888
299.887
299.886
299.884
299.882
299.879
299.876
299.873
299.87
299.868
299.868
299.87
299.872
299.872
299.842
299.852
299.838
299.862
299.866
299.867
299.865
299.863
299.864
299.876
299.933
299.916
299.91
299.965
299.973
299.992
300.063
300.039
300.03
300.101
300.112
300.137
300.207
300.183
300.173
300.24
300.247
300.274
300.338
300.309
300.3
300.359
300.371
300.402
300.465
300.434
300.418
300.478
300.494
300.523
300.576
300.55
300.534
300.587
300.602
300.625
300.674
300.65
300.637
300.684
300.697
300.721
300.765
300.741
300.729
300.771
300.782
300.805
300.84
300.82
300.81
300.845
300.855
300.873
300.902
300.885
300.876
300.904
300.913
300.93
300.955
300.937
300.929
300.951
300.959
300.977
300.996
300.979
300.97
300.988
300.996
301.014
301.03
301.013
301.004
301.019
301.028
301.046
301.06
301.042
301.034
301.048
301.056
301.074
301.087
301.07
301.061
301.075
301.084
301.101
301.116
301.099
301.09
301.105
301.114
301.131
301.147
301.129
301.12
301.136
301.145
301.163
301.179
301.161
301.152
301.167
301.177
301.194
301.208
301.191
301.181
301.194
301.204
301.22
301.231
301.215
301.206
301.215
301.224
301.24
301.247
301.231
301.222
301.227
301.235
301.252
301.254
301.237
301.229
301.229
301.237
301.254
301.251
301.234
301.225
301.22
301.228
301.245
301.238
301.222
301.213
301.203
301.211
301.227
301.213
301.198
301.189
301.173
301.18
301.195
301.175
301.162
301.155
301.137
301.144
301.156
301.136
301.125
301.119
301.095
301.101
301.11
301.082
301.074
301.069
301.04
301.044
301.052
301.021
301.013
301.01
300.979
300.982
300.989
300.957
300.95
300.947
300.914
300.917
300.925
300.892
300.883
300.88
300.845
300.848
300.859
300.825
300.812
300.808
300.771
300.776
300.791
300.756
300.739
300.733
300.694
300.701
300.72
300.683
300.663
300.655
300.616
300.626
300.651
300.621
300.589
300.576
300.54
300.558
300.603
300.596
300.532
300.505
300.478
300.519
300.608
300.634
300.515
300.456
300.448
300.53
300.682
300.734
300.551
300.444
300.455
300.592
300.805
300.873
300.632
300.469
300.499
300.695
300.961
301.04
300.751
300.527
300.575
300.832
301.136
301.213
300.898
300.615
300.677
300.991
301.304
301.366
301.059
300.724
300.799
301.156
301.438
301.476
301.217
300.857
300.946
301.302
301.521
301.536
301.34
301.005
301.085
301.384
301.545
301.535
301.391
301.122
301.162
301.395
301.514
301.486
301.381
301.174
301.185
301.364
301.451
301.415
301.339
301.183
301.176
301.305
301.368
301.329
301.273
301.165
301.139
301.228
301.275
301.233
301.189
301.113
301.078
301.142
301.182
301.138
301.1
301.044
301.006
301.055
301.09
301.046
301.012
300.969
300.929
300.969
301
300.956
300.925
300.889
300.851
300.884
300.913
300.871
300.844
300.814
300.78
300.808
300.833
300.795
300.771
300.747
300.721
300.743
300.765
300.733
300.713
300.693
300.675
300.692
300.711
300.686
300.669
300.653
300.641
300.655
300.672
300.651
300.636
300.623
300.617
300.628
300.642
300.627
300.614
300.604
300.604
300.612
300.624
300.615
300.604
300.596
300.601
300.609
300.619
300.617
300.607
300.599
300.608
300.617
300.627
300.629
300.619
300.609
300.621
300.632
300.643
300.649
300.637
300.625
300.643
300.657
300.67
300.678
300.663
300.648
300.668
300.686
300.702
300.711
300.692
300.672
300.698
300.72
300.741
300.751
300.728
300.703
300.734
300.761
300.786
300.8
300.772
300.744
300.778
300.807
300.835
300.858
300.829
300.801
300.836
300.864
300.892
300.921
300.892
300.866
300.901
300.926
300.954
300.989
300.959
300.936
300.97
300.993
301.024
301.066
301.033
301.009
301.044
301.069
301.102
301.15
301.115
301.088
301.126
301.153
301.191
301.245
301.206
301.176
301.217
301.248
301.289
301.349
301.306
301.27
301.316
301.353
301.397
301.46
301.413
301.371
301.418
301.463
301.513
301.58
301.527
301.476
301.524
301.58
301.636
301.706
301.645
301.582
301.63
301.7
301.765
301.837
301.768
301.687
301.735
301.824
301.899
301.973
301.892
301.787
301.833
301.949
302.036
302.113
302.016
301.881
301.923
302.073
302.177
302.252
302.138
301.97
302.009
302.194
302.318
302.391
302.258
302.054
302.096
302.315
302.457
302.531
302.38
302.146
302.197
302.438
302.596
302.67
302.505
302.254
302.312
302.563
302.733
302.806
302.632
302.376
302.438
302.69
302.866
302.939
302.761
302.506
302.567
302.817
302.995
303.066
302.885
302.635
302.69
302.934
303.117
303.184
302.997
302.753
302.8
303.038
303.229
303.29
303.092
302.857
302.894
303.122
303.327
303.377
303.162
302.939
302.967
303.181
303.405
303.44
303.207
303.001
303.024
303.217
303.459
303.481
303.235
303.051
303.077
303.25
303.495
303.512
303.272
303.113
303.148
303.3
303.532
303.555
303.343
303.211
303.252
303.382
303.593
303.648
303.479
303.361
303.41
303.528
303.691
303.769
303.636
303.529
303.581
303.69
303.825
303.934
303.817
303.713
303.772
303.876
304.003
304.096
304.001
303.906
303.952
304.039
304.126
304.165
304.111
304.043
304.056
304.119
304.162
304.172
304.136
304.068
303.992
304.088
304.138
304.092
304.015
303.9
303.766
303.879
303.982
303.907
303.8
303.693
303.634
303.732
303.832
303.8
303.726
303.643
303.686
303.763
303.817
303.891
303.852
303.713
303.502
303.812
303.905
303.734
303.533
303.146
302.97
303.14
303.379
303.099
302.974
302.906
302.86
302.906
302.981
302.889
302.84
302.807
302.755
302.78
302.816
302.745
302.716
302.693
302.636
302.653
302.678
302.612
302.588
302.569
302.507
302.521
302.545
302.476
302.452
302.434
302.363
302.378
302.404
302.323
302.294
302.276
302.193
302.207
302.238
302.149
302.114
302.096
302.007
302.02
302.058
301.961
301.919
301.902
301.803
301.817
301.862
301.755
301.706
301.688
301.578
301.593
301.644
301.529
301.474
301.455
301.346
301.36
301.417
301.305
301.245
301.226
301.121
301.137
301.197
301.086
301.024
301.002
300.899
300.916
300.977
300.863
300.802
300.781
300.684
300.699
300.756
300.646
300.593
300.575
300.487
300.503
300.548
300.453
300.404
300.386
300.305
300.318
300.367
300.274
300.226
300.212
300.146
300.154
300.183
300.1
300.084
300.073
300.029
300.025
300.031
300.026
300.026
300.033
300.015
300.024
300.013
300.021
300.012
300.019
300.011
300.018
300.01
300.016
300.009
300.015
300.008
300.013
300.007
300.012
300.005
300.01
300.005
300.008
300.004
300.007
300.003
300.005
300.001
300.004
299.993
300.002
299.981
299.996
299.942
300.02
299.985
299.971
299.984
299.974
299.987
299.989
299.992
299.993
299.993
299.994
299.993
299.993
299.992
299.992
299.992
299.998
300.04
300.039
299.885
299.997
300
300
299.954
299.97
299.948
299.909
299.928
299.961
299.928
299.923
299.824
299.773
299.92
299.909
299.885
299.907
299.693
299.614
299.87
299.822
299.784
299.837
299.511
299.423
299.768
299.707
299.67
299.732
299.332
299.243
299.657
299.602
299.569
299.617
299.161
299.07
299.536
299.506
299.468
299.494
298.994
298.898
299.406
299.408
299.365
299.36
298.823
298.722
299.264
299.309
299.26
299.213
298.648
298.539
299.108
299.205
299.15
299.053
298.464
298.347
298.94
299.095
299.03
298.881
298.269
298.141
298.76
298.973
298.897
298.695
298.058
297.917
298.562
298.837
298.748
298.492
297.827
297.672
298.346
298.684
298.579
298.268
297.573
297.4
298.107
298.51
298.387
298.017
297.287
297.088
297.834
298.31
298.164
297.732
296.961
296.731
297.523
298.077
297.905
297.405
296.586
296.317
297.16
297.801
297.594
297.018
296.143
295.822
296.724
297.467
297.213
296.551
295.609
295.225
296.193
297.055
296.738
295.978
294.962
294.493
295.533
296.537
296.132
295.259
294.161
293.57
294.688
295.868
295.335
294.329
293.138
292.374
293.581
294.975
294.231
293.079
291.794
290.772
292.027
293.709
292.485
291.326
289.984
288.68
289.952
292.063
290.715
289.179
287.834
286.52
287.869
290.309
289.461
287.302
285.885
284.756
286.241
288.813
288.506
285.89
284.341
282.648
284.287
287.758
287.294
285.258
283.938
282.527
283.99
286.022
284.395
283.546
281.576
281.205
283.218
284.454
284.263
282.824
280.932
280.173
281.957
284.277
283.588
281.261
279.535
278.023
279.719
282.569
282.005
279.086
277.397
275.041
276.605
280.381
279.893
277.305
275.906
274.206
275.75
278.129
275.896
275.082
273.177
272.577
274.388
275.507
274.788
272.693
270.879
269.772
271.47
273.201
272.049
267.887
266.45
265.134
266.479
270.384
266.447
263.977
262.694
260.868
262.7
264.055
259.752
258.597
256.619
255.426
256.385
258.477
255.588
253.91
252.081
249.759
250.002
248.721
248.944
249.529
247.213
251.467
252.114
253.428
273.406
278.319
264.898
290.771
292.489
296.187
289.054
293.15
297.35
302.347
303.524
304.979
299.191
299.432
299.678
300.385
300.343
300.416
299.804
299.747
299.706
299.568
299.641
299.784
299.661
299.516
299.363
299.015
299.131
299.295
299.303
299.094
298.915
298.615
298.788
299.14
298.792
298.542
298.339
298.272
298.492
298.784
298.681
298.203
297.983
297.749
297.972
298.285
298.283
297.98
297.706
297.419
297.628
298.24
297.836
297.453
297.207
297.186
297.474
297.835
297.819
297.116
296.883
296.717
296.98
297.406
297.406
297.003
296.704
296.394
296.64
297.416
296.965
296.499
296.228
296.225
296.535
296.969
296.998
296.174
295.91
295.771
296.06
296.567
296.591
296.115
295.779
295.437
295.697
296.604
296.18
295.626
295.316
295.331
295.682
296.205
296.197
295.212
294.958
294.875
295.202
295.791
295.769
295.299
294.869
294.498
294.797
295.691
295.38
294.875
294.518
294.197
294.537
295.515
295.047
294.414
294.056
294.047
294.444
295.013
295.037
293.976
293.678
293.573
293.939
294.617
294.564
293.964
293.581
293.24
293.541
294.631
294.194
293.501
293.138
293.144
293.608
294.201
294.023
293.04
292.722
292.785
293.203
293.813
293.966
292.815
292.48
292.325
292.728
293.484
293.463
292.82
292.336
291.972
292.315
293.41
293.167
292.489
292.044
291.633
291.982
293.276
292.766
291.934
291.53
291.598
292.067
292.783
292.949
291.613
291.245
291.122
291.566
292.414
292.387
291.66
291.15
290.756
291.096
292.269
291.979
291.299
290.811
290.432
290.829
292.05
291.685
290.913
290.47
290.119
290.408
291.757
291.393
290.504
290.052
290.078
290.647
291.43
291.44
290.061
289.65
289.668
290.123
290.943
291.024
289.584
289.299
289.239
289.718
290.632
290.696
289.885
289.295
288.841
289.269
290.644
290.079
289.34
288.859
288.443
288.84
290.095
289.891
289.057
288.554
288.251
288.603
290.029
289.583
288.591
288.106
288.137
288.762
289.596
289.349
288.012
287.634
287.717
288.277
289.09
289.119
287.743
287.309
287.414
287.992
288.958
289.083
287.404
287.005
286.867
287.367
288.464
288.486
287.548
286.925
286.505
286.927
288.443
288.081
287.202
286.603
286.155
286.622
288.141
287.821
286.803
286.235
285.817
286.155
287.889
287.377
286.233
285.723
285.84
286.496
287.508
287.458
285.858
285.425
285.53
286.156
287.084
287.085
285.473
285.011
285.069
285.685
286.596
286.601
285.076
284.652
284.806
285.4
286.501
286.629
284.805
284.418
284.329
284.904
286.112
286.169
285.112
284.391
283.905
284.365
286.093
285.647
284.664
284.005
283.544
284.004
285.656
285.278
284.305
283.613
283.227
283.675
285.311
284.948
283.966
283.29
282.826
283.273
284.969
284.669
283.533
282.923
282.528
282.877
284.781
284.307
283.02
282.45
282.591
283.328
284.436
284.425
282.633
282.138
282.264
282.957
283.999
283.955
282.233
281.766
281.836
282.551
283.533
283.55
281.899
281.439
281.555
282.254
283.34
283.308
281.583
281.13
281.289
281.934
283.188
283.274
281.265
280.91
280.827
281.433
282.802
282.843
281.727
280.972
280.524
281.005
282.857
282.494
281.4
280.703
280.29
280.745
282.486
282.276
281.193
280.474
280.086
280.568
282.301
282.128
280.992
280.3
279.886
280.34
282.142
282.017
280.746
280.113
279.762
280.099
282.133
281.817
280.44
279.795
280.069
280.826
282.036
281.908
280.11
279.627
279.906
280.601
281.734
281.743
279.987
279.498
279.796
280.489
281.59
281.594
279.888
279.401
279.703
280.391
281.54
281.584
279.778
279.322
279.591
280.237
281.503
281.634
279.603
279.272
279.443
280.082
281.441
281.748
280.486
279.79
279.382
279.827
281.593
281.471
280.341
279.701
279.348
279.816
281.534
281.324
280.314
279.667
279.384
279.805
281.397
281.586
280.406
279.731
279.452
279.871
281.618
281.631
280.359
279.742
279.463
279.764
281.736
281.518
280.2
279.626
279.959
280.598
281.709
281.744
280.063
279.682
280.089
280.671
281.77
281.848
280.256
279.88
280.217
280.805
281.889
281.954
280.356
279.982
280.258
280.837
281.826
281.924
280.397
280.082
280.367
280.868
281.979
282.142
280.449
280.184
280.574
281.106
282.115
282.62
281.534
280.913
280.681
281.019
282.459
282.636
281.559
280.988
280.792
281.111
282.65
282.445
281.518
280.997
280.875
281.174
282.578
282.895
281.766
281.273
281.196
281.46
283
283.191
282.165
281.723
282.034
282.58
283.615
283.427
282.122
281.845
282.057
282.589
283.499
283.571
282.221
281.93
282.336
282.844
283.697
283.852
282.613
282.32
282.797
283.275
284.448
284.452
282.925
282.681
283.157
283.573
284.561
284.843
283.913
283.344
283.257
283.492
284.711
284.741
283.984
283.509
283.496
283.744
284.913
285.548
284.472
283.987
284.006
284.242
285.601
285.855
284.908
284.544
284.799
285.359
286.28
286.15
284.941
284.744
284.943
285.402
286.126
286.308
285.197
284.954
285.475
285.875
286.825
286.962
285.744
285.575
286.16
286.485
287.385
287.822
286.944
286.43
286.414
286.579
287.683
287.72
287.032
286.589
286.611
286.851
287.877
288.393
287.536
287.202
287.355
287.478
288.591
288.966
288.208
287.941
288.199
288.654
289.414
289.326
288.384
288.22
288.503
288.766
289.377
289.573
288.621
288.664
289.138
289.379
289.911
290.619
289.986
289.543
289.716
289.894
290.669
291.115
290.418
289.992
290.159
290.233
291.128
291.258
290.575
290.369
290.725
291.042
291.482
291.88
291.193
291.031
291.471
291.791
292.38
292.472
291.792
291.743
292.041
292.166
292.606
292.744
292.418
292.18
292.418
292.369
292.912
293.312
292.827
292.619
293.168
293.094
293.654
293.849
293.407
293.298
293.662
293.864
294.302
294.37
293.852
293.875
294.04
294.064
294.402
295.178
294.647
294.444
294.963
294.738
295.386
295.597
295.14
295.01
295.393
295.441
295.949
296
295.384
295.669
295.761
295.877
296.208
296.93
296.428
296.309
296.718
296.515
297.037
297.211
296.828
296.751
297.113
297.083
297.317
297.623
297.341
297.488
297.711
297.669
297.803
298.383
298.056
298.052
298.431
298.162
298.461
298.569
298.349
298.407
298.818
298.816
299.187
299.382
299.021
299.272
299.32
299.188
299.522
299.836
299.669
299.725
299.869
299.858
300.139
300.416
300.086
300.403
300.398
300.201
300.567
301.014
300.7
300.896
301.067
300.882
301.11
301.53
301.315
301.442
301.69
301.535
301.633
302.079
301.972
302.002
302.227
302.171
302.177
302.51
302.527
302.684
302.781
302.629
302.599
302.907
302.968
303.107
303.24
303.089
303.01
303.204
303.3
303.435
303.557
303.403
303.294
303.449
303.572
303.704
303.813
303.659
303.524
303.655
303.796
303.931
304.025
303.875
303.718
303.826
303.984
304.124
304.204
304.054
303.877
303.972
304.145
304.288
304.359
304.211
304.023
304.093
304.283
304.429
304.492
304.345
304.147
304.202
304.405
304.552
304.607
304.46
304.252
304.3
304.511
304.658
304.707
304.559
304.344
304.385
304.602
304.751
304.792
304.643
304.424
304.46
304.682
304.831
304.866
304.717
304.494
304.526
304.75
304.899
304.929
304.78
304.556
304.585
304.808
304.958
304.984
304.834
304.612
304.637
304.859
305.008
305.031
304.882
304.661
304.684
304.902
305.052
305.071
304.922
304.705
304.726
304.939
305.088
305.104
304.956
304.745
304.763
304.971
305.119
305.132
304.984
304.779
304.794
304.996
305.143
305.153
305.007
304.809
304.822
305.016
305.161
305.169
305.024
304.834
304.845
305.031
305.175
305.179
305.037
304.855
304.864
305.042
305.183
305.186
305.046
304.873
304.881
305.05
305.188
305.189
305.052
304.887
304.893
305.054
305.189
305.188
305.055
304.899
304.903
305.055
305.187
305.184
305.054
304.906
304.908
305.053
305.18
305.175
305.05
304.91
304.911
305.047
305.169
305.163
305.043
304.911
304.91
305.038
305.156
305.149
305.033
304.909
304.907
305.027
305.141
305.132
305.021
304.904
304.901
305.014
305.122
305.111
305.006
304.896
304.891
304.997
305.1
305.088
304.987
304.885
304.879
304.978
305.076
305.063
304.968
304.872
304.863
304.957
305.049
305.035
304.945
304.854
304.845
304.933
305.02
305.005
304.92
304.835
304.824
304.907
304.99
304.974
304.893
304.813
304.802
304.879
304.958
304.941
304.865
304.79
304.777
304.85
304.924
304.907
304.835
304.764
304.751
304.82
304.889
304.871
304.804
304.737
304.723
304.788
304.853
304.834
304.771
304.708
304.693
304.754
304.815
304.796
304.737
304.677
304.661
304.72
304.776
304.757
304.702
304.645
304.628
304.684
304.737
304.717
304.665
304.611
304.593
304.647
304.696
304.676
304.627
304.575
304.557
304.608
304.655
304.633
304.588
304.538
304.518
304.568
304.612
304.59
304.547
304.498
304.478
304.526
304.568
304.545
304.505
304.457
304.436
304.483
304.522
304.499
304.461
304.414
304.392
304.439
304.476
304.453
304.416
304.37
304.347
304.394
304.429
304.405
304.371
304.324
304.301
304.347
304.381
304.357
304.324
304.277
304.253
304.299
304.332
304.307
304.275
304.228
304.203
304.25
304.282
304.256
304.225
304.178
304.152
304.2
304.23
304.204
304.174
304.126
304.099
304.148
304.178
304.152
304.122
304.072
304.045
304.095
304.125
304.098
304.068
304.017
303.989
304.041
304.07
304.043
304.013
303.961
303.932
303.985
304.015
303.987
303.957
303.903
303.874
303.929
303.959
303.931
303.901
303.844
303.815
303.872
303.902
303.874
303.843
303.785
303.754
303.814
303.845
303.816
303.784
303.723
303.692
303.754
303.786
303.756
303.723
303.66
303.628
303.693
303.726
303.696
303.662
303.595
303.563
303.63
303.665
303.635
303.599
303.53
303.497
303.568
303.604
303.574
303.536
303.463
303.43
303.505
303.543
303.512
303.473
303.396
303.362
303.441
303.481
303.45
303.408
303.328
303.293
303.376
303.419
303.388
303.344
303.259
303.224
303.311
303.356
303.325
303.278
303.189
303.154
303.245
303.293
303.262
303.212
303.118
303.083
303.179
303.231
303.2
303.146
303.047
303.011
303.113
303.168
303.137
303.08
302.975
302.938
303.046
303.106
303.073
303.012
302.901
302.864
302.977
303.041
303.008
302.943
302.827
302.789
302.908
302.976
302.944
302.874
302.751
302.713
302.839
302.911
302.879
302.804
302.674
302.636
302.77
302.847
302.815
302.734
302.597
302.558
302.699
302.783
302.75
302.664
302.519
302.479
302.629
302.718
302.685
302.593
302.44
302.399
302.557
302.653
302.62
302.521
302.359
302.317
302.484
302.587
302.553
302.447
302.275
302.232
302.409
302.519
302.485
302.371
302.188
302.144
302.331
302.45
302.414
302.292
302.099
302.054
302.251
302.378
302.342
302.211
302.007
301.959
302.168
302.304
302.266
302.126
301.911
301.861
302.082
302.227
302.188
302.038
301.811
301.76
301.994
302.149
302.109
301.949
301.708
301.657
301.904
302.07
302.032
301.86
301.606
301.555
301.816
301.993
301.954
301.772
301.504
301.449
301.724
301.911
301.858
301.663
301.379
301.315
301.608
301.814
301.813
301.606
301.309
301.292
301.594
301.802
301.735
301.514
301.198
301.088
301.414
301.647
301.595
301.354
301.021
301.013
301.35
301.589
301.577
301.334
300.99
300.917
301.274
301.53
301.452
301.183
300.816
300.751
301.126
301.402
301.374
301.099
300.72
300.658
301.047
301.328
301.244
300.945
300.543
300.453
300.867
301.179
301.157
300.846
300.429
300.414
300.838
301.15
301.106
300.786
300.353
300.23
300.677
301.014
300.926
300.581
300.127
300.042
300.506
300.862
300.809
300.449
299.979
299.922
300.4
300.766
300.714
300.343
299.858
299.769
300.266
300.65
300.567
300.173
299.668
299.574
300.088
300.49
300.419
300.006
299.483
299.402
299.933
300.354
300.297
299.871
299.333
299.262
299.808
300.242
300.186
299.745
299.191
299.121
299.682
300.131
300.076
299.62
299.052
298.984
299.558
300.02
299.964
299.495
298.914
298.843
299.43
299.905
299.848
299.366
298.773
298.703
299.302
299.79
299.73
299.236
298.632
298.557
299.167
299.668
299.604
299.096
298.481
298.404
299.024
299.537
299.464
298.945
298.322
298.228
298.856
299.381
299.301
298.77
298.137
298.068
298.704
299.243
299.184
298.648
298.011
297.919
298.56
299.103
298.985
298.431
297.784
297.699
298.347
298.904
298.866
298.306
297.658
297.593
298.242
298.803
298.72
298.158
297.509
297.381
298.035
298.605
298.516
297.945
297.294
297.273
297.921
298.487
298.442
297.873
297.223
297.163
297.812
298.384
298.318
297.749
297.102
297.027
297.672
298.24
298.14
297.569
296.925
296.832
297.475
298.048
297.996
297.423
296.784
296.738
297.376
297.95
297.89
297.319
296.683
296.629
297.26
297.829
297.759
297.195
296.569
296.472
297.097
297.664
297.564
296.986
296.358
296.314
296.931
297.497
297.464
296.904
296.292
296.247
296.854
297.41
297.35
296.795
296.191
296.133
296.732
297.285
297.222
296.674
296.08
296.035
296.621
297.164
297.109
296.571
295.99
295.941
296.517
297.052
296.993
296.461
295.889
295.84
296.403
296.928
296.846
296.323
295.763
295.659
296.219
296.75
296.681
296.161
295.613
295.606
296.147
296.657
296.62
296.113
295.577
295.543
296.072
296.575
296.529
296.031
295.508
295.475
295.991
296.483
296.437
295.951
295.442
295.409
295.912
296.392
296.346
295.872
295.377
295.343
295.832
296.3
296.252
295.79
295.308
295.271
295.747
296.205
296.157
295.704
295.234
295.197
295.661
296.11
296.065
295.62
295.163
295.133
295.584
296.024
295.986
295.553
295.11
295.086
295.523
295.949
295.915
295.493
295.063
295.049
295.474
295.891
295.869
295.464
295.05
295.031
295.436
295.83
295.74
295.342
294.938
294.863
295.261
295.655
295.658
295.268
294.88
294.969
295.343
295.705
295.679
295.325
294.958
294.743
295.119
295.495
295.389
295.013
294.642
294.735
295.087
295.441
295.506
295.162
294.815
294.827
295.164
295.495
295.368
295.02
294.677
294.543
294.885
295.24
295.242
294.912
294.592
294.702
295.019
295.339
295.34
295.03
294.723
294.637
294.947
295.262
295.152
294.844
294.543
294.539
294.83
295.127
295.211
294.917
294.63
294.668
294.953
295.245
295.229
294.956
294.688
294.617
294.882
295.134
295.01
294.734
294.47
294.381
294.656
294.95
294.967
294.709
294.463
294.565
294.812
295.062
295.085
294.844
294.607
294.586
294.821
295.061
294.964
294.709
294.471
294.406
294.643
294.9
294.882
294.646
294.424
294.46
294.677
294.903
294.897
294.677
294.466
294.44
294.647
294.864
294.8
294.578
294.37
294.329
294.536
294.761
294.755
294.55
294.358
294.387
294.578
294.78
294.784
294.585
294.399
294.405
294.587
294.78
294.768
294.581
294.404
294.393
294.567
294.752
294.745
294.564
294.394
294.396
294.561
294.738
294.727
294.555
294.394
294.391
294.548
294.715
294.696
294.536
294.385
294.366
294.515
294.675
294.65
294.493
294.347
294.319
294.46
294.609
294.566
294.419
294.282
294.242
294.379
294.532
294.506
294.354
294.218
294.223
294.352
294.494
294.489
294.351
294.226
294.22
294.342
294.477
294.462
294.331
294.211
294.203
294.319
294.447
294.433
294.31
294.197
294.191
294.301
294.42
294.407
294.291
294.185
294.178
294.281
294.394
294.38
294.271
294.17
294.162
294.26
294.367
294.353
294.247
294.151
294.142
294.236
294.339
294.326
294.225
294.135
294.127
294.215
294.313
294.299
294.203
294.117
294.11
294.194
294.287
294.275
294.185
294.103
294.098
294.177
294.265
294.259
294.174
294.098
294.095
294.169
294.251
294.24
294.161
294.089
294.081
294.151
294.227
294.214
294.14
294.072
294.062
294.129
294.201
294.186
294.115
294.05
294.036
294.101
294.17
294.152
294.083
294.021
294.004
294.066
294.133
294.113
294.047
293.986
293.969
294.028
294.093
294.072
294.008
293.95
293.932
293.988
294.051
294.03
293.97
293.915
293.897
293.95
294.008
293.985
293.929
293.878
293.858
293.909
293.965
293.957
293.902
293.853
293.875
293.919
293.967
293.943
293.891
293.842
293.803
293.847
293.895
293.875
293.829
293.785
293.766
293.812
293.863
293.886
293.843
293.804
293.845
293.879
293.91
293.869
293.819
293.774
293.71
293.751
293.797
293.761
293.717
293.676
293.652
293.691
293.736
293.72
293.677
293.638
293.635
293.673
293.715
293.715
293.677
293.641
293.609
293.648
293.69
293.653
293.612
293.575
293.551
293.587
293.628
293.608
293.568
293.533
293.52
293.554
293.594
293.584
293.545
293.511
293.508
293.542
293.579
293.576
293.539
293.506
293.504
293.537
293.572
293.567
293.531
293.499
293.49
293.521
293.556
293.542
293.508
293.478
293.45
293.482
293.514
293.484
293.451
293.42
293.389
293.42
293.453
293.429
293.396
293.365
293.34
293.373
293.405
293.379
293.351
293.329
293.318
293.345
293.372
293.344
293.316
293.287
293.401
293.5
293.628
293.834
294.136
294.499
294.923
295.392
295.895
296.435
297.029
297.625
297.851
297.905
297.891
297.924
297.779
297.761
297.832
297.31
295.84
294.189
292.489
291.554
290.6
289.923
289.45
289.12
288.775
288.742
288.699
288.871
288.945
289.138
289.271
289.286
289.351
289.394
289.376
289.23
289.03
288.944
288.884
288.713
288.785
288.689
288.673
288.67
288.593
288.422
288.352
288.41
288.354
288.234
288.297
288.233
288.173
288.146
288.136
288.143
288.145
288.159
288.156
288.158
288.228
288.267
288.29
288.21
288.102
288.006
287.883
287.636
287.687
287.707
287.677
287.58
287.496
287.549
287.534
287.509
287.479
287.445
287.41
287.368
287.308
287.224
287.122
287.01
286.911
286.833
286.767
286.706
286.645
286.583
286.523
286.465
286.408
286.355
286.305
286.256
286.209
286.165
286.122
286.082
286.045
286.012
285.981
285.954
285.929
285.906
285.884
285.862
285.84
285.816
285.79
285.763
285.735
285.705
285.674
285.642
285.609
285.576
285.542
285.507
285.474
285.441
285.409
285.379
285.352
285.324
285.297
285.268
285.238
285.207
285.176
285.143
285.109
285.075
285.041
285.007
284.975
284.945
284.916
284.889
284.863
284.838
284.814
284.791
284.77
284.751
284.734
284.72
284.708
284.696
284.686
284.675
284.664
284.651
284.633
284.608
284.576
284.536
284.491
284.442
284.389
284.332
284.27
284.204
284.133
283.972
283.793
283.817
283.785
283.819
283.872
283.783
283.678
283.694
283.629
283.518
283.489
283.472
283.493
283.711
283.622
283.596
283.632
283.715
283.853
284.044
284.29
284.576
284.89
285.215
285.533
285.829
286.103
286.368
286.652
286.968
287.31
287.665
288.035
288.415
288.805
289.205
289.61
290.015
290.404
290.774
291.126
291.466
291.798
292.118
292.427
292.726
293.014
293.285
293.538
293.776
294.004
294.226
294.444
294.657
294.862
295.058
295.245
295.421
295.585
295.737
295.874
295.996
296.103
296.2
296.287
296.362
296.425
296.477
296.534
296.591
296.642
296.68
296.709
296.734
296.754
296.772
296.787
296.805
296.821
296.835
296.847
296.857
296.867
296.876
296.883
296.889
296.895
296.899
296.901
296.897
296.9
296.904
296.911
296.92
296.931
296.94
296.947
296.957
296.971
296.988
297.008
297.03
297.056
297.084
297.115
297.149
297.185
297.225
297.267
297.312
297.36
297.412
297.466
297.524
297.586
297.65
297.719
297.79
297.861
297.932
298
298.067
298.134
298.205
298.282
298.369
298.469
298.585
298.719
298.863
298.99
299.083
299.16
299.163
299.165
299.169
299.173
299.173
299.172
299.175
299.178
299.182
299.184
299.188
299.192
299.197
299.204
299.21
299.218
299.227
299.237
299.248
299.26
299.274
299.289
299.306
299.324
299.344
299.365
299.386
299.409
299.432
299.454
299.477
299.501
299.525
299.548
299.573
299.598
299.623
299.647
299.671
299.695
299.718
299.742
299.766
299.79
299.813
299.838
299.862
299.887
299.912
299.936
299.961
299.986
300.011
300.034
300.057
300.079
300.099
300.116
300.132
300.145
300.155
300.163
300.167
300.169
300.17
300.169
300.167
300.164
300.159
300.155
300.15
300.146
300.142
300.138
300.135
300.133
300.131
300.13
300.129
300.128
300.127
300.126
300.125
300.123
300.122
300.12
300.119
300.117
300.115
300.113
300.111
300.109
300.108
300.107
300.105
300.102
300.097
300.095
300.095
300.14
300.15
300.162
300.231
300.295
300.355
300.413
300.47
300.525
300.578
300.628
300.676
300.721
300.764
300.803
300.839
300.871
300.899
300.925
300.946
300.966
300.984
301
301.014
301.029
301.042
301.056
301.07
301.084
301.099
301.114
301.13
301.145
301.16
301.174
301.187
301.199
301.208
301.215
301.22
301.222
301.222
301.219
301.214
301.207
301.196
301.183
301.166
301.149
301.132
301.113
301.09
301.065
301.036
301.007
300.977
300.946
300.913
300.879
300.844
300.807
300.769
300.73
300.69
300.65
300.61
300.569
300.528
300.488
300.451
300.415
300.385
300.357
300.338
300.321
300.314
300.308
300.313
300.316
300.33
300.339
300.365
300.387
300.441
300.491
300.578
300.643
300.729
300.775
300.832
300.856
300.892
300.912
300.927
300.93
300.928
300.917
300.904
300.882
300.856
300.825
300.795
300.764
300.734
300.706
300.683
300.66
300.645
300.628
300.62
300.606
300.603
300.593
300.594
300.588
300.594
300.593
300.602
300.604
300.617
300.62
300.636
300.641
300.659
300.664
300.686
300.692
300.72
300.73
300.76
300.784
300.819
300.851
300.887
300.922
300.958
300.994
301.031
301.069
301.109
301.15
301.192
301.235
301.278
301.322
301.364
301.408
301.447
301.484
301.519
301.55
301.58
301.604
301.623
301.641
301.653
301.669
301.684
301.706
301.738
301.775
301.829
301.884
301.951
302.02
302.092
302.166
302.237
302.311