/*--------------------------------*- C++ -*----------------------------------*\
| =========                 |                                                 |
| \\      /  F ield         | OpenFOAM: The Open Source CFD Toolbox           |
|  \\    /   O peration     | Version:  v2006                                 |
|   \\  /    A nd           | Website:  www.openfoam.com                      |
|    \\/     M anipulation  |                                                 |
\*---------------------------------------------------------------------------*/
FoamFile
{
    version     2.0;
    format      ascii;
    class       volScalarField;
    location    "0.004";
    object      turbulenceProperties:I;
}
// * * * * * * * * * * * * * * * * * * * * * * * * * * * * * * * * * * * * * //

dimensions      [0 0 0 0 0 0 0];


internalField   nonuniform List<scalar> 
31566
(
0.145085
0.144856
0.149488
0.149641
0.14983
0.149892
0.149634
0.149288
0.148743
0.148266
0.147903
0.147595
0.147305
0.147051
0.146851
0.146698
0.146577
0.146481
0.146413
0.146379
0.146374
0.146394
0.146437
0.146504
0.146597
0.146714
0.146852
0.147009
0.147185
0.14738
0.147594
0.147824
0.148068
0.148327
0.1486
0.148892
0.149202
0.149509
0.149814
0.150134
0.150507
0.15093
0.151391
0.151883
0.152389
0.152914
0.153462
0.154039
0.154645
0.155284
0.15596
0.156671
0.157418
0.158197
0.159006
0.15984
0.16069
0.161548
0.162402
0.163239
0.164048
0.164815
0.165524
0.166165
0.166725
0.167193
0.167558
0.167816
0.167971
0.168033
0.168013
0.16792
0.167762
0.16755
0.167291
0.166992
0.166659
0.166296
0.165907
0.165495
0.16506
0.164604
0.164125
0.163624
0.163097
0.162544
0.16196
0.161345
0.160697
0.160014
0.159302
0.158563
0.157807
0.157054
0.156377
0.155861
0.155657
0.155724
0.155917
0.155471
0.150768
0.152985
0.150319
0.153364
0.154689
0.155896
0.157072
0.1581
0.159047
0.154536
0.157646
0.162605
0.165853
0.167296
0.16145
0.157544
0.154958
0.15661
0.165394
0.156916
0.142263
0.150126
0.146544
0.121187
0.138614
0.117502
0.101009
0.145581
0.146439
0.0896621
0.100926
0.0918965
0.0853423
0.147777
0.149137
0.0822532
0.0878387
0.0847406
0.0793494
0.150257
0.151217
0.0783306
0.0835118
0.0834997
0.0789202
0.151937
0.152529
0.0800959
0.0844249
0.086219
0.0824641
0.152939
0.153327
0.0874914
0.0910483
0.0946647
0.0912483
0.153556
0.153794
0.0957721
0.100053
0.103327
0.0988396
0.153877
0.154002
0.10257
0.108266
0.111287
0.105159
0.153985
0.153958
0.108112
0.115419
0.117728
0.110026
0.153786
0.153594
0.112089
0.120799
0.12236
0.113396
0.153288
0.152969
0.114795
0.124528
0.125599
0.115758
0.152579
0.152173
0.116681
0.127159
0.128018
0.117496
0.151722
0.151292
0.11829
0.129224
0.130045
0.118917
0.150792
0.15033
0.119628
0.131093
0.131779
0.120005
0.14976
0.149243
0.120585
0.132697
0.133034
0.120646
0.148616
0.148048
0.121074
0.133893
0.13416
0.121234
0.147449
0.146887
0.121865
0.135201
0.135777
0.122339
0.146179
0.145437
0.123131
0.136954
0.13792
0.123884
0.144622
0.143831
0.124878
0.139307
0.140408
0.125739
0.142964
0.142135
0.126722
0.141973
0.143178
0.12754
0.141246
0.140218
0.128424
0.144581
0.145515
0.128879
0.138882
0.137563
0.129524
0.146665
0.147354
0.129738
0.136062
0.134613
0.130314
0.14845
0.149037
0.130415
0.132971
0.131422
0.130985
0.150126
0.150603
0.130975
0.129592
0.127933
0.131491
0.151689
0.152183
0.131396
0.126108
0.124614
0.132005
0.153446
0.153895
0.131739
0.12283
0.121363
0.132405
0.155294
0.155711
0.132035
0.119511
0.117976
0.13275
0.15732
0.157852
0.132468
0.116075
0.114464
0.133267
0.15981
0.160715
0.133327
0.112587
0.110973
0.134549
0.163296
0.165069
0.135287
0.109137
0.10755
0.13726
0.168622
0.171651
0.138848
0.105664
0.104355
0.141766
0.176402
0.180888
0.144382
0.103383
0.103152
0.148361
0.186982
0.192874
0.152108
0.103143
0.104158
0.157455
0.200621
0.208224
0.162761
0.105834
0.108702
0.170097
0.218251
0.228406
0.177891
0.112308
0.117128
0.188268
0.241682
0.25584
0.200159
0.123131
0.130399
0.215121
0.273966
0.294618
0.233522
0.139694
0.150155
0.255976
0.31991
0.35071
0.286164
0.164297
0.178703
0.323247
0.387077
0.434115
0.377889
0.199408
0.218498
0.449912
0.48948
0.568522
0.579063
0.248931
0.275606
0.794285
0.671087
0.861987
1
0.324673
0.369924
1
1
1
1
0.45925
0.569963
1
1
1
0.631351
0.780851
1
0.464572
1
1
0.357135
1
1
0.287521
0.761698
0.579399
0.236368
1
1
0.202922
0.463337
0.381739
0.178816
1
0.770211
0.163033
0.329865
0.28969
0.150844
0.679531
0.5462
0.142457
0.263984
0.241205
0.135139
0.497736
0.426118
0.129934
0.226986
0.21724
0.126339
0.396031
0.349779
0.122716
0.209472
0.20616
0.120323
0.325624
0.293356
0.11775
0.202192
0.201511
0.115636
0.273492
0.250832
0.113931
0.198718
0.198689
0.111939
0.233342
0.215314
0.110673
0.196267
0.195865
0.108559
0.199509
0.184435
0.107767
0.194392
0.193036
0.105394
0.170612
0.156392
0.105039
0.192908
0.190663
0.102397
0.14297
0.129955
0.102322
0.191501
0.189416
0.0999128
0.120608
0.112083
0.100372
0.191535
0.190522
0.0986114
0.109206
0.105765
0.099952
0.194418
0.197722
0.10103
0.113296
0.116699
0.104063
0.204872
0.217623
0.110591
0.135178
0.145146
0.116863
0.231063
0.261185
0.13334
0.180111
0.202828
0.150055
0.295582
0.373666
0.193977
0.270101
0.329367
0.255988
0.499102
0.804857
0.456121
0.489093
0.748841
1
1
0.865428
0.727274
1
1
0.323624
0.47022
0.315899
0.213623
1
0.906037
0.159008
0.233763
0.184003
0.128113
0.655216
0.517601
0.108593
0.152603
0.129323
0.0948092
0.439813
0.384949
0.0852658
0.113844
0.100835
0.0777384
0.348368
0.319251
0.0724024
0.0923227
0.0842323
0.0678396
0.298242
0.280309
0.064565
0.079365
0.0740635
0.0618467
0.266737
0.254597
0.0595577
0.0714514
0.0683886
0.0581976
0.245109
0.236389
0.0564658
0.0671043
0.0655656
0.0560946
0.229307
0.22267
0.0547894
0.064454
0.0635364
0.0547933
0.217134
0.211883
0.0538827
0.0628196
0.0621783
0.0541305
0.20734
0.202996
0.0533642
0.0613961
0.0608537
0.0536894
0.199117
0.195428
0.0530186
0.0600079
0.0595255
0.0533839
0.192071
0.188917
0.0527675
0.0586907
0.0583582
0.0531882
0.186066
0.183449
0.0526587
0.0576144
0.0574094
0.0531532
0.181132
0.179074
0.0527526
0.056846
0.0567976
0.0533634
0.177335
0.175905
0.0531478
0.0563949
0.0564715
0.0538895
0.174729
0.173877
0.0538887
0.0562571
0.056564
0.0548279
0.173165
0.172668
0.0550384
0.0565444
0.0571625
0.0560949
0.172128
0.171609
0.0564179
0.0574347
0.0584256
0.0575626
0.17082
0.169878
0.0580348
0.0591212
0.0607706
0.0593817
0.168325
0.166521
0.0599596
0.0620077
0.0645298
0.061505
0.163891
0.161098
0.0620716
0.0664486
0.0703375
0.0636964
0.157683
0.154025
0.0642816
0.0732855
0.0795367
0.0664766
0.150079
0.145943
0.0675633
0.0837521
0.0928355
0.0715336
0.141788
0.137779
0.0732549
0.0975332
0.108286
0.0790464
0.134017
0.131417
0.0808258
0.111981
0.122311
0.087595
0.12899
0.129187
0.0893923
0.124518
0.132608
0.0958469
0.129157
0.130825
0.0977114
0.133417
0.135644
0.0984469
0.132363
0.136401
0.0996387
0.134925
0.137036
0.100114
0.139298
0.142254
0.0975089
0.132948
0.136667
0.0973876
0.144896
0.146436
0.0936821
0.131421
0.139668
0.0947305
0.146857
0.145201
0.0926451
0.14034
0.159436
0.0994551
0.144342
0.14073
0.104661
0.171302
0.211089
0.119575
0.141738
0.139493
0.13898
0.271089
0.440378
0.199776
0.146369
0.148382
0.247879
0.581954
0.893813
0.339377
0.167527
0.167761
0.374503
1
1
0.425326
0.17064
0.16775
0.445917
1
1
0.483861
0.15705
0.148875
0.634038
0.636701
0.374313
1
0.227968
0.692483
0.415095
0.277185
0.22372
0.270706
1
0.553315
0.209141
0.189023
0.16693
0.177389
0.350787
0.272362
0.160015
0.150812
0.138487
0.150413
0.23297
0.20934
0.141481
0.128131
0.119456
0.134257
0.19326
0.180824
0.126399
0.111593
0.10524
0.12071
0.171266
0.163338
0.114938
0.0995497
0.0947203
0.110386
0.157075
0.151706
0.105808
0.0898986
0.0856911
0.101593
0.14724
0.143271
0.0977867
0.0812126
0.0771595
0.0939534
0.139811
0.136626
0.0897593
0.0727655
0.0688715
0.0856593
0.133817
0.131306
0.081631
0.0649333
0.0614757
0.0776976
0.129025
0.126876
0.0736172
0.0577014
0.0538601
0.0696043
0.124822
0.122849
0.0652335
0.0492438
0.0452134
0.0610439
0.120959
0.119142
0.0569187
0.04236
0.0406424
0.0541312
0.117457
0.11581
0.0515315
0.038447
0.0348148
0.04976
0.114331
0.112961
0.0473837
0.0309986
0.0288983
0.0453556
0.110885
0.10844
0.0420966
0.0278138
0.0260233
0.0385699
0.103955
0.0949426
0.0336455
0.0239
0.0225726
0.0305366
0.0797163
0.0604458
0.026968
0.0218102
0.0213731
0.0248934
0.0407856
0.0174158
0.0164878
0.0134124
0.0126998
0.0123782
0.011077
0.0110175
0.0104988
0.0104326
0.00993544
0.00984112
0.00931358
0.00920467
0.0086682
0.00855218
0.00802925
0.00791143
0.00741795
0.00730181
0.00684364
0.00673076
0.00629952
0.00619276
0.00579364
0.00569566
0.00532548
0.00523823
0.00490288
0.00482915
0.00450763
0.004446
0.00415213
0.00409125
0.00341592
0.00309524
0.00278247
0.0028077
0.00282541
0.0028332
0.00283594
0.00283681
0.00283742
0.00283772
0.00283757
0.00283664
0.00283512
0.00282939
0.00282646
0.00282179
0.00282511
0.00288487
0.00322749
0.00458504
0.00560739
0.00648524
0.00780402
0.0226382
0.0427937
0.00900445
0.00653234
0.00658628
0.0102937
0.060107
0.0724421
0.012186
0.00665837
0.00678613
0.0143437
0.0794496
0.0843012
0.0187348
0.0072187
0.00750485
0.0241352
0.0869375
0.0884179
0.0276085
0.00811822
0.00862445
0.030964
0.0893593
0.090085
0.0342844
0.00963046
0.0107798
0.0372871
0.0905508
0.0907193
0.0400689
0.0120681
0.0134223
0.0422136
0.0907341
0.0905374
0.0440176
0.0147196
0.0159769
0.0454761
0.0904018
0.0904817
0.0469067
0.0170778
0.0182074
0.0483691
0.090714
0.0910227
0.0498562
0.0193028
0.0204733
0.0512898
0.0913915
0.0917633
0.0525932
0.0215171
0.0225409
0.0537534
0.0921629
0.0925381
0.054757
0.0234369
0.0243539
0.0557136
0.0929312
0.0932802
0.0565652
0.0251698
0.0259602
0.0574371
0.0936415
0.0939405
0.058206
0.0266727
0.0274008
0.0589941
0.0942471
0.0944752
0.0596287
0.0280752
0.0287341
0.060266
0.0947101
0.0948618
0.0607268
0.0293477
0.0299355
0.061157
0.095027
0.0950906
0.0614566
0.0304425
0.0309145
0.0617296
0.0951865
0.0951511
0.0618724
0.0313381
0.0317349
0.0620131
0.0951698
0.0950218
0.0619969
0.0320892
0.0324034
0.0619789
0.094958
0.0946757
0.0617803
0.0326579
0.0328478
0.0615848
0.0945238
0.0940786
0.0611892
0.0329506
0.0330163
0.0607972
0.093826
0.0931824
0.0601598
0.0329933
0.0328971
0.0595203
0.0928087
0.0919117
0.0586219
0.0327252
0.0324575
0.0576685
0.0913575
0.0901008
0.0564167
0.0320352
0.031485
0.054944
0.0891331
0.0874186
0.053276
0.0308248
0.0301032
0.0515142
0.0865226
0.085472
0.0498752
0.0293531
0.0287539
0.0486182
0.085878
0.0856422
0.0476561
0.0282289
0.0277855
0.0469188
0.0870486
0.086888
0.0463721
0.027431
0.0269518
0.0454353
0.0879603
0.0828144
0.0341104
0.0231982
0.0376335
0.0575781
0.0874357
0.0847288
0.0501693
0.0343418
0.0324379
0.04617
0.0841773
0.0856122
0.0450849
0.0314782
0.030394
0.0442219
0.0864661
0.0863514
0.0433339
0.029441
0.0281417
0.0419878
0.0859517
0.0850923
0.0409582
0.0271246
0.0260205
0.0395223
0.0844198
0.078719
0.0266129
0.0237326
0.0351214
0.0524955
0.0835155
0.0806797
0.045314
0.0314758
0.0293923
0.0408962
0.0789852
0.079006
0.0382446
0.0275888
0.0259213
0.0361512
0.0776681
0.0767577
0.0336759
0.0242605
0.0219537
0.0185774
0.0706095
0.0751747
0.0466035
0.0313265
0.0278864
0.0391206
0.072161
0.0695816
0.0345165
0.0252397
0.0222429
0.0190269
0.0624669
0.0676117
0.043761
0.0309353
0.026628
0.0364774
0.0656507
0.0592561
0.0197734
0.0240273
0.033902
0.0469852
0.0670899
0.0838608
0.0392678
0.0292094
0.0792076
0.106378
0.145393
0.064561
0.0577182
0.0969375
0.0627837
0.0577543
0.129667
0.10361
0.0621702
0.0499968
0.0451946
0.0486741
0.10658
0.117597
0.0646764
0.0488834
0.0524644
0.0709607
0.118772
0.107227
0.0439694
0.0413098
0.0455104
0.0619872
0.113678
0.112144
0.0675605
0.0494429
0.0386414
0.0413932
0.101305
0.107815
0.0586809
0.0430154
0.0471339
0.0645318
0.106536
0.0967697
0.0394465
0.0368151
0.0412895
0.0563956
0.103219
0.101472
0.0622544
0.0455126
0.0355317
0.0378399
0.0927837
0.099734
0.0546186
0.0399402
0.044129
0.0602866
0.0982421
0.090071
0.0368536
0.0346226
0.0390915
0.0532744
0.0964792
0.0952944
0.0590513
0.0433143
0.0339277
0.0359936
0.0874949
0.0941003
0.0521452
0.0383137
0.0425812
0.057917
0.0927394
0.0852979
0.0351319
0.0333737
0.0376924
0.0512219
0.0919696
0.0915544
0.0570341
0.0420001
0.0331028
0.0347003
0.0839939
0.0905658
0.0505738
0.0373851
0.0417753
0.0563621
0.0899833
0.0823068
0.0346971
0.0331178
0.0375635
0.0507719
0.0897651
0.0879249
0.0580365
0.0425704
0.0335087
0.0386663
0.0770997
0.0847103
0.0530823
0.039582
0.0313969
0.0336688
0.0781397
0.0852511
0.0483094
0.0358296
0.0399347
0.0535152
0.0846925
0.0784896
0.0332416
0.0318101
0.035926
0.0482837
0.0854404
0.0850321
0.0537646
0.0403406
0.0322946
0.0335147
0.0784566
0.0856089
0.0487949
0.0364464
0.0415577
0.0559837
0.0842581
0.0740585
0.0376772
0.0329944
0.0390468
0.0518552
0.0816815
0.0753033
0.0333082
0.0313761
0.0357515
0.0479801
0.0829137
0.0820255
0.0550046
0.0407496
0.0325588
0.037005
0.0730615
0.0810277
0.0508371
0.0383695
0.0307037
0.0322624
0.0740392
0.0808843
0.0463895
0.0347747
0.0392629
0.0521095
0.0819651
0.0760037
0.0329444
0.0317392
0.0358168
0.0477103
0.0830677
0.0820957
0.0550358
0.0410565
0.032984
0.0377622
0.0712926
0.0784222
0.0524777
0.0394428
0.0318584
0.0363612
0.0704787
0.0782387
0.0496159
0.0378017
0.030543
0.0319455
0.0714869
0.0794064
0.0463593
0.034828
0.039724
0.0531918
0.0799218
0.0711679
0.0363122
0.0320012
0.0377453
0.049421
0.0778645
0.0710725
0.0315059
0.0306229
0.0348042
0.0459448
0.0790841
0.079551
0.0533642
0.0398464
0.0320225
0.037178
0.0692847
0.0753471
0.0510963
0.0384333
0.0311101
0.0351111
0.0678428
0.0764653
0.0483698
0.0370762
0.0302579
0.0313707
0.0700776
0.0777511
0.0453038
0.0344047
0.0394331
0.0525797
0.0777201
0.067827
0.0365317
0.0316796
0.0380952
0.0506746
0.0746512
0.0676282
0.0347529
0.0307699
0.0366755
0.0480829
0.0761665
0.0694124
0.0310425
0.0298314
0.0339559
0.0446522
0.0765806
0.0770838
0.0518139
0.039043
0.0315886
0.0361759
0.0675925
0.0745574
0.0502892
0.0379432
0.0306666
0.0345592
0.0672441
0.0752376
0.04768
0.0365732
0.0296796
0.0303703
0.0683422
0.076114
0.0443166
0.0337222
0.0388981
0.0515706
0.0766176
0.0671315
0.0358626
0.0316709
0.0378733
0.0499125
0.074097
0.0655991
0.0354154
0.0306882
0.0370694
0.049083
0.0729204
0.0656408
0.0337636
0.0301181
0.0360547
0.046834
0.0741067
0.0675668
0.0301182
0.0294241
0.0334361
0.043815
0.0750121
0.0758275
0.0512065
0.0385557
0.0312567
0.0353641
0.0662381
0.073074
0.0493578
0.0374036
0.0305896
0.0351891
0.0645697
0.0724215
0.0490123
0.0370612
0.030148
0.0347784
0.0645152
0.0720808
0.0483769
0.0365449
0.0295205
0.0332377
0.0645919
0.0723787
0.0460068
0.0353312
0.0286927
0.0295525
0.0657986
0.0734557
0.0431809
0.0327297
0.0378037
0.0502557
0.0739644
0.0650212
0.0349337
0.0307465
0.036955
0.0487063
0.0722336
0.0636968
0.0344964
0.0300426
0.0364756
0.0481796
0.0711459
0.0632617
0.0340264
0.0294242
0.0358247
0.0476408
0.0708904
0.0635436
0.0323364
0.0288009
0.0346205
0.0451595
0.0717531
0.0651802
0.0290451
0.0281025
0.0321031
0.0424674
0.0721428
0.0727489
0.0494027
0.0371101
0.0300912
0.0341277
0.0637483
0.0709651
0.0478904
0.0362588
0.0294262
0.0337093
0.062558
0.0702409
0.0475392
0.0358179
0.0287928
0.0335836
0.0622675
0.0699693
0.0471164
0.0353144
0.0283574
0.0318906
0.0624851
0.0708313
0.0447064
0.0341987
0.0276311
0.0282916
0.0642674
0.0717151
0.0419283
0.0315715
0.0365653
0.048871
0.0720909
0.0631478
0.033643
0.0295382
0.0357884
0.0474628
0.0704793
0.0620852
0.033408
0.0288573
0.0353991
0.0473502
0.0696702
0.0616679
0.0331757
0.0283323
0.0349018
0.0467856
0.0695259
0.0620226
0.0315233
0.0279498
0.0337567
0.0443452
0.0703508
0.0637774
0.0277481
0.0271808
0.0311738
0.0414849
0.0712698
0.0722035
0.048595
0.0362459
0.0291717
0.0331497
0.0630322
0.070023
0.0469855
0.0354056
0.0285059
0.0330931
0.0616043
0.0689692
0.046857
0.0350434
0.0280722
0.0325925
0.0610019
0.0695621
0.0463659
0.0345767
0.0276551
0.0310611
0.0621963
0.0699268
0.0439207
0.0333353
0.0267747
0.0274083
0.0633836
0.0704588
0.0411498
0.030848
0.0358897
0.0483136
0.0714704
0.0622902
0.0325146
0.0288928
0.0350979
0.0465675
0.0697522
0.0614455
0.0325297
0.0283287
0.0347233
0.0462523
0.0687828
0.0607625
0.0324322
0.0278431
0.0342444
0.0458659
0.0684657
0.0610198
0.0307028
0.0273564
0.0329944
0.0435104
0.0685702
0.0622427
0.0268593
0.0264112
0.0307021
0.0409942
0.0701781
0.0709799
0.0481303
0.0357074
0.0285151
0.0327092
0.0617751
0.0692777
0.0466344
0.0347973
0.0277515
0.0322813
0.0608825
0.0680359
0.0457833
0.0341183
0.027188
0.0303092
0.0606066
0.0689145
0.0433767
0.0327797
0.026331
0.0268436
0.0627311
0.0707627
0.0411454
0.0307811
0.035789
0.0481029
0.0710107
0.0617676
0.0324798
0.0285752
0.0347227
0.0463208
0.0687265
0.0604182
0.0319122
0.0277319
0.0340271
0.0456355
0.068094
0.0609565
0.0306158
0.0273108
0.0328565
0.0437025
0.0691837
0.0629545
0.026889
0.0263055
0.030731
0.041169
0.0709125
0.0709299
0.0479201
0.0356101
0.028349
0.0324484
0.0616095
0.0683925
0.0463186
0.0344896
0.0274473
0.0302803
0.0607956
0.0695262
0.0438683
0.0328791
0.0264302
0.026897
0.0634594
0.0717901
0.0414639
0.0309985
0.0358991
0.0483403
0.0716323
0.0621459
0.0325373
0.0286407
0.0346607
0.0465218
0.068781
0.0610983
0.0306461
0.0277256
0.0330011
0.0440529
0.0695008
0.0636829
0.02682
0.0266971
0.0312668
0.0416325
0.0725665
0.0726665
0.0483994
0.0360244
0.0290036
0.0328216
0.0630688
0.0694009
0.046624
0.0347601
0.0280731
0.0308483
0.0613941
0.069472
0.0440752
0.0331563
0.0271442
0.0272555
0.0639792
0.0726454
0.0417425
0.0314879
0.0360079
0.0486015
0.0727647
0.0639535
0.031898
0.0291346
0.0339449
0.0449826
0.0705568
0.0642541
0.0270445
0.0276706
0.0319182
0.0419849
0.0732115
0.0732225
0.0490726
0.0364629
0.0299355
0.032625
0.0646463
0.0722594
0.0460199
0.0347636
0.0287089
0.0281088
0.0661548
0.0742749
0.0424182
0.0325492
0.0368794
0.0493247
0.0728759
0.0640066
0.0328087
0.0306652
0.0353882
0.046608
0.0726678
0.0670628
0.0291112
0.0298129
0.0335988
0.0432816
0.075742
0.0738532
0.049836
0.0374662
0.0314857
0.0333882
0.063946
0.071791
0.0465081
0.0357198
0.0308937
0.0296861
0.0670293
0.0758828
0.0433933
0.0343232
0.0371886
0.0489019
0.0762389
0.0697317
0.0297801
0.0317994
0.035003
0.04388
0.0776017
0.0778252
0.0497645
0.0380395
0.0333723
0.0312267
0.0721952
0.0805867
0.0455696
0.0366662
0.0391807
0.0512001
0.0803132
0.0724065
0.0314237
0.0343893
0.0378024
0.0459928
0.0808754
0.0819257
0.052394
0.0405273
0.0365875
0.033766
0.0753793
0.0830804
0.0475969
0.0396723
0.041912
0.0530942
0.0812848
0.0731417
0.0340185
0.0383784
0.0417154
0.0488716
0.0838837
0.0836722
0.0542322
0.043703
0.041034
0.0368692
0.07576
0.0836396
0.0490905
0.0432947
0.0452647
0.0542254
0.083229
0.0777775
0.0368522
0.0439318
0.0456239
0.0472378
0.0843025
0.0875622
0.0490073
0.047161
0.0497088
0.0552499
0.0869862
0.0807087
0.0371155
0.0501715
0.0520059
0.0446102
0.0868523
0.0906242
0.046153
0.0529169
0.0545216
0.0486385
0.0948569
0.0955183
0.051536
0.0568284
0.0600188
0.0568618
0.0995254
0.099124
0.0619469
0.0647919
0.0686208
0.0691908
0.0951659
0.0886563
0.0680455
0.0777392
0.0805738
0.068944
0.0970027
0.0982908
0.0724149
0.0849943
0.0897471
0.0755393
0.101501
0.103404
0.0791984
0.0947859
0.100477
0.0829643
0.105838
0.107878
0.0870948
0.106431
0.113223
0.0917195
0.110112
0.112207
0.0967014
0.120498
0.1288
0.1024
0.11434
0.116481
0.108669
0.137915
0.148315
0.115872
0.118683
0.121017
0.123914
0.160031
0.173633
0.133209
0.123517
0.126267
0.143982
0.189308
0.20787
0.156468
0.129288
0.132757
0.171385
0.229894
0.256836
0.189213
0.136739
0.141483
0.211136
0.29008
0.332802
0.238582
0.147219
0.154245
0.273643
0.388744
0.466157
0.320306
0.163166
0.17479
0.385338
0.579334
0.761209
0.481836
0.190492
0.212478
0.639746
1
1
0.943758
0.24554
0.299996
1
1
1
1
0.404923
0.676971
1
1
0.889161
1
1
1
0.746057
0.672692
0.541299
0.564155
0.678179
0.458207
0.456473
0.454179
0.391745
0.38495
0.359476
0.303969
0.334476
0.34535
0.309121
0.296588
0.268333
0.243849
0.267597
0.280409
0.256816
0.244324
0.225823
0.212235
0.225663
0.237374
0.220849
0.210085
0.201482
0.192869
0.197144
0.206815
0.194638
0.186071
0.185732
0.179807
0.176686
0.184079
0.174744
0.168424
0.17472
0.17035
0.161295
0.166527
0.159201
0.155022
0.166557
0.163187
0.149422
0.152629
0.146732
0.144526
0.160238
0.157542
0.140013
0.14137
0.136546
0.136132
0.15517
0.152983
0.132501
0.132125
0.128112
0.129356
0.151025
0.149228
0.126438
0.124414
0.121015
0.123814
0.147573
0.146052
0.121445
0.11789
0.114986
0.119252
0.144627
0.143314
0.117284
0.112324
0.109816
0.115426
0.142065
0.140922
0.11379
0.107517
0.105352
0.112203
0.139812
0.138801
0.110863
0.103356
0.101485
0.109508
0.13783
0.136916
0.108337
0.0997441
0.0981016
0.107228
0.136044
0.135222
0.106188
0.0965713
0.0951698
0.105275
0.134435
0.133691
0.104472
0.0938688
0.0926238
0.103624
0.13296
0.132274
0.102826
0.0914687
0.0903464
0.101996
0.131601
0.130972
0.101285
0.0893023
0.0882987
0.100539
0.130357
0.129774
0.0998915
0.0873656
0.0864694
0.0992451
0.129203
0.128666
0.0986853
0.0856376
0.084836
0.0981056
0.128136
0.127639
0.0976343
0.0840976
0.0833778
0.0971251
0.12715
0.126684
0.0966911
0.0827277
0.0820837
0.09626
0.126228
0.125794
0.0958846
0.0814988
0.0809333
0.095504
0.12537
0.124964
0.0951913
0.0804052
0.0799105
0.0948616
0.124571
0.124183
0.0945647
0.0794417
0.0790064
0.0943205
0.12382
0.123457
0.0940331
0.078603
0.0782124
0.0938333
0.123112
0.122777
0.0936028
0.0778415
0.0774886
0.0934114
0.12245
0.122142
0.0932493
0.0771625
0.0768587
0.0930646
0.121834
0.121545
0.0929436
0.0765725
0.0763084
0.0927704
0.121254
0.120978
0.0926767
0.07606
0.0758299
0.0925484
0.120709
0.120447
0.0924486
0.0756223
0.0754218
0.0923602
0.120194
0.119946
0.0922771
0.0752334
0.0750654
0.0922063
0.119709
0.119476
0.0921431
0.0749053
0.0747616
0.0921074
0.119258
0.11904
0.0920352
0.0746333
0.0745178
0.0920116
0.118836
0.118632
0.0919672
0.0744101
0.0743193
0.0919641
0.118443
0.118252
0.091925
0.0742334
0.0741637
0.0919465
0.118075
0.1179
0.091923
0.0740975
0.0740521
0.09193
0.117731
0.117568
0.0919356
0.0740069
0.0739656
0.0919532
0.117409
0.117258
0.0919842
0.0739442
0.0739193
0.0919882
0.117109
0.116964
0.0920186
0.0739187
0.0739079
0.0920498
0.116826
0.116689
0.0920866
0.0739118
0.0739175
0.0921454
0.116563
0.116436
0.092161
0.0739423
0.0739567
0.0922282
0.116315
0.116202
0.0922747
0.0739971
0.0740234
0.0923216
0.116089
0.115985
0.0923937
0.0740787
0.0741086
0.0924441
0.11588
0.115784
0.0925237
0.0741836
0.0742201
0.0925802
0.115686
0.115594
0.0926619
0.0743013
0.0743481
0.0927217
0.115498
0.115409
0.0928052
0.0744327
0.0744915
0.0928687
0.115316
0.115231
0.0929538
0.0745774
0.0746443
0.0930185
0.115143
0.115065
0.0931102
0.0747343
0.0748161
0.0931816
0.114984
0.114915
0.0932842
0.0749113
0.075005
0.0933529
0.114839
0.114777
0.0934661
0.0751053
0.0752057
0.0935246
0.114705
0.114648
0.0936564
0.075306
0.0754167
0.0937152
0.114584
0.114526
0.0938359
0.0755237
0.0756429
0.0939213
0.114471
0.114414
0.0940211
0.0757608
0.0758838
0.0941476
0.11437
0.11432
0.09422
0.0760137
0.0761378
0.0943504
0.114278
0.114239
0.0944467
0.0762712
0.0764015
0.0945505
0.114198
0.114163
0.0946667
0.0765384
0.0766708
0.0947706
0.114125
0.114092
0.0948912
0.0768147
0.0769522
0.0949947
0.114055
0.114024
0.0951196
0.0771006
0.0772419
0.0952211
0.113987
0.11396
0.095353
0.0773955
0.0775407
0.0954489
0.113923
0.113902
0.0955892
0.0776972
0.0778446
0.0956782
0.113866
0.113853
0.0958351
0.0780075
0.0781601
0.0959091
0.113819
0.113812
0.0960896
0.0783238
0.078484
0.0961544
0.113784
0.113779
0.0963309
0.078652
0.0788133
0.0964042
0.113757
0.113754
0.0965767
0.0789874
0.0791499
0.0966662
0.113738
0.113738
0.0968235
0.0793308
0.0794981
0.0969243
0.113727
0.113735
0.097097
0.0796679
0.0798514
0.0971964
0.113734
0.113747
0.0973532
0.0800217
0.0802043
0.0974752
0.113753
0.113764
0.0976155
0.0803754
0.0805576
0.097722
0.113758
0.11376
0.0978641
0.0807188
0.0809068
0.0979512
0.113754
0.113774
0.0981135
0.0810721
0.0812824
0.0982436
0.113828
0.113857
0.0983928
0.081443
0.0815888
0.0984396
0.113748
0.113618
0.0984772
0.0816942
0.081914
0.0986654
0.113694
0.113872
0.0988637
0.0821422
0.0823696
0.0990486
0.113946
0.113845
0.0990936
0.082482
0.0826234
0.0991491
0.113717
0.113731
0.0992599
0.0827775
0.0830118
0.0994691
0.11385
0.113905
0.0996036
0.0831944
0.0833704
0.0997232
0.113862
0.113868
0.0998193
0.0835424
0.0837638
0.100052
0.11401
0.114128
0.100212
0.0839785
0.084129
0.100311
0.114071
0.113925
0.100319
0.0842423
0.0844017
0.100445
0.113906
0.114052
0.100632
0.084627
0.0848795
0.100856
0.114228
0.114331
0.101037
0.0850856
0.0852578
0.101156
0.114363
0.11436
0.101277
0.0854284
0.0855889
0.101374
0.114365
0.114439
0.101545
0.0857768
0.0859825
0.101704
0.11456
0.114684
0.101883
0.0861992
0.0863924
0.102048
0.114795
0.114877
0.102189
0.0865645
0.0867423
0.102318
0.114929
0.114971
0.10243
0.0868913
0.0870474
0.10256
0.115018
0.11506
0.102666
0.0871977
0.0873488
0.102766
0.115096
0.115139
0.10288
0.0874974
0.0876465
0.102992
0.115195
0.115253
0.103117
0.0878032
0.0879351
0.103226
0.115298
0.115336
0.103323
0.0880828
0.0882148
0.103426
0.115376
0.115425
0.103531
0.0883519
0.0884912
0.103632
0.115469
0.115518
0.103736
0.0886191
0.0887599
0.103843
0.115586
0.115696
0.103986
0.0889211
0.0890671
0.104112
0.115796
0.115836
0.104212
0.0891843
0.0892907
0.104264
0.115824
0.115922
0.104404
0.0894377
0.0896307
0.104589
0.116137
0.11626
0.104735
0.0897822
0.0898677
0.104771
0.116233
0.116232
0.104837
0.0899555
0.0901043
0.10496
0.11635
0.116605
0.105194
0.0903041
0.0904795
0.105355
0.116784
0.116772
0.105403
0.0905698
0.0906295
0.105431
0.116737
0.116752
0.105493
0.0907118
0.0908222
0.105597
0.116806
0.116906
0.10569
0.0909635
0.0911297
0.105891
0.117104
0.117285
0.106041
0.0912933
0.0913871
0.106121
0.117335
0.117319
0.106157
0.0914491
0.0915275
0.106218
0.117338
0.117377
0.106295
0.0916267
0.0917519
0.106402
0.117454
0.117659
0.106586
0.0919207
0.0921093
0.106802
0.117923
0.118032
0.106925
0.0922356
0.0923144
0.106965
0.118014
0.118039
0.107028
0.0923938
0.0925055
0.107126
0.118118
0.118226
0.107244
0.0926184
0.092741
0.107354
0.118321
0.1184
0.107469
0.0928503
0.0929637
0.107544
0.118453
0.118539
0.10768
0.0930712
0.0931931
0.107761
0.118618
0.118721
0.107916
0.0933219
0.0934999
0.108076
0.118916
0.119213
0.10834
0.0936961
0.0938584
0.10849
0.119383
0.119397
0.10856
0.0939512
0.0940344
0.108616
0.119413
0.119473
0.10871
0.0941229
0.0942345
0.108811
0.119556
0.119635
0.108899
0.0943486
0.0944697
0.109027
0.119733
0.11982
0.109101
0.0945921
0.0947222
0.109256
0.11993
0.120034
0.109352
0.0948437
0.0949989
0.109514
0.120161
0.120289
0.109657
0.0951275
0.0952918
0.109831
0.120435
0.120569
0.109969
0.0954337
0.0955806
0.110146
0.120713
0.120837
0.110262
0.0957251
0.0958667
0.110406
0.120953
0.121053
0.110531
0.0960079
0.0961398
0.110696
0.121173
0.121226
0.110777
0.0962634
0.0963624
0.11088
0.121235
0.121346
0.111009
0.0965324
0.0967877
0.111342
0.121721
0.122099
0.111649
0.0970566
0.0971433
0.111731
0.122106
0.121784
0.111587
0.0971233
0.0972572
0.111725
0.121845
0.122578
0.112235
0.0976524
0.0980147
0.112709
0.12318
0.122976
0.112651
0.0980288
0.0979117
0.112454
0.122529
0.122458
0.112471
0.0979979
0.0983114
0.112916
0.12302
0.123697
0.113402
0.0987111
0.0987991
0.113496
0.123688
0.123239
0.113276
0.0987168
0.0987229
0.113263
0.123107
0.123474
0.113546
0.0990038
0.099339
0.114006
0.124049
0.124185
0.114151
0.0995278
0.0994499
0.114056
0.123907
0.123616
0.113906
0.0994013
0.099488
0.114
0.123599
0.123979
0.114322
0.0998292
0.100217
0.114882
0.124719
0.125217
0.11523
0.100507
0.100517
0.115228
0.125075
0.124589
0.114958
0.100421
0.100356
0.114864
0.124314
0.124404
0.114968
0.100495
0.100757
0.11533
0.124866
0.125295
0.115664
0.101023
0.101166
0.115804
0.125381
0.125295
0.115813
0.101229
0.101318
0.115892
0.125299
0.125483
0.116069
0.101487
0.101718
0.116372
0.125852
0.126151
0.116607
0.101922
0.10202
0.116716
0.126191
0.126106
0.116711
0.102075
0.102104
0.116727
0.126071
0.126091
0.116811
0.102201
0.102288
0.116899
0.126157
0.126259
0.117033
0.102414
0.102491
0.117104
0.126306
0.12632
0.117182
0.102562
0.102635
0.117251
0.126345
0.126364
0.117303
0.102718
0.102787
0.117371
0.126388
0.126452
0.117476
0.102881
0.102963
0.117534
0.126518
0.126641
0.117676
0.103101
0.103221
0.11781
0.126803
0.126977
0.117967
0.103339
0.103401
0.118018
0.127049
0.127015
0.118054
0.103423
0.103434
0.118003
0.126936
0.126908
0.118012
0.103454
0.103472
0.118015
0.126899
0.126903
0.118043
0.103509
0.103516
0.118034
0.126892
0.126887
0.118056
0.103557
0.103557
0.118041
0.126874
0.126881
0.118071
0.103592
0.103604
0.118059
0.126884
0.12691
0.118111
0.103631
0.103662
0.118113
0.126938
0.126963
0.118137
0.103698
0.103716
0.118163
0.126994
0.12702
0.118169
0.10375
0.103778
0.118231
0.127075
0.127112
0.118232
0.103822
0.103848
0.118291
0.127165
0.127189
0.118282
0.103883
0.10389
0.118305
0.127202
0.127199
0.11829
0.103908
0.103919
0.118308
0.12722
0.127228
0.118279
0.103942
0.103947
0.118307
0.127248
0.127243
0.11827
0.103958
0.103953
0.118284
0.127252
0.127246
0.118246
0.103959
0.103953
0.118258
0.127254
0.127241
0.118219
0.103953
0.103937
0.118216
0.127225
0.127193
0.118165
0.103922
0.103911
0.118146
0.12716
0.12713
0.118107
0.103872
0.103862
0.118031
0.127077
0.127036
0.117996
0.10381
0.103796
0.117919
0.126982
0.126925
0.117861
0.103723
0.103633
0.117688
0.126739
0.126468
0.117483
0.10346
0.103387
0.117346
0.126361
0.12637
0.117315
0.103345
0.103284
0.11719
0.126291
0.126139
0.117026
0.103135
0.102925
0.116719
0.125762
0.125389
0.116414
0.102706
0.102672
0.116374
0.125442
0.125681
0.116476
0.102717
0.10275
0.11647
0.12578
0.125796
0.116429
0.102692
0.102633
0.116323
0.125744
0.125605
0.116175
0.102498
0.102382
0.115993
0.125434
0.125385
0.115903
0.102284
0.102256
0.11585
0.125409
0.125405
0.115792
0.102188
0.102127
0.115698
0.125372
0.125342
0.115617
0.102041
0.101976
0.115531
0.125317
0.125294
0.115444
0.101901
0.101831
0.115375
0.125283
0.125264
0.115291
0.101746
0.101683
0.115215
0.125235
0.125156
0.115088
0.101572
0.101446
0.114934
0.124987
0.124787
0.11471
0.101275
0.101164
0.114598
0.124615
0.124543
0.114403
0.101074
0.101127
0.114397
0.124577
0.124954