/*--------------------------------*- C++ -*----------------------------------*\
| =========                 |                                                 |
| \\      /  F ield         | OpenFOAM: The Open Source CFD Toolbox           |
|  \\    /   O peration     | Version:  v2006                                 |
|   \\  /    A nd           | Website:  www.openfoam.com                      |
|    \\/     M anipulation  |                                                 |
\*---------------------------------------------------------------------------*/
FoamFile
{
    version     2.0;
    format      ascii;
    class       volScalarField;
    location    "0.018";
    object      omega;
}
// * * * * * * * * * * * * * * * * * * * * * * * * * * * * * * * * * * * * * //

dimensions      [0 0 -1 0 0 0 0];


internalField   nonuniform List<scalar> 
11076
(
0.0108763
0.0108764
0.0108742
0.0108742
0.0108744
0.0108746
0.0108749
0.0108753
0.0108757
0.0108765
0.0108774
0.010877
0.0108728
0.0108634
0.0108494
0.0108321
0.0108127
0.0107922
0.0107708
0.0107485
0.0107254
0.0107013
0.0106762
0.0106501
0.0106231
0.0105952
0.0105664
0.0105369
0.0105068
0.010476
0.0104446
0.0104126
0.0103803
0.0103475
0.0103145
0.0102814
0.0102483
0.0102157
0.0101844
0.0101557
0.0101328
0.0101222
0.0101378
0.0102127
0.010408
0.0108488
0.0117911
0.0137467
0.017721
0.0256608
0.0414003
0.07226
0.131564
0.244429
0.457314
0.846822
1.46521
1.9364
2.81405
3.5002
4.00422
6.38823
9.58761
11.4654
9.83577
25.0356
69.6915
179.12
643.894
5547.38
30151.6
420442
407714
60902.2
14198.7
21784.8
77315.6
395415
382780
82275.2
26262.8
29727.6
85468.4
366975
355777
85221.3
31837
33896.4
87042.3
345513
339049
86905.2
35030.4
36230.1
86620
331813
326726
86032.2
36684
37550.3
85908.4
321328
317665
85259.4
37624.2
38194.1
85151.4
313440
310640
84566
38184.7
38586.8
84504.8
307206
304955
84014.1
38546
38865.3
84002.8
302079
300178
83605.8
38806.6
39075.6
83626.6
297692
296038
83298.6
39006.1
39242.6
83340.1
293833
292354
83060.2
39166
39380.3
83116.4
290354
289000
82870.9
39298.7
39496.6
82936.8
287152
285888
82713.7
39411.1
39596.1
82785.5
284153
282957
82576.2
39507.5
39682
82651.2
281309
280163
82449.8
39590.8
39756.4
82526.3
278584
277477
82328.8
39663
39822.6
82405.9
275952
274875
82210
39726.6
39881.8
82286.9
273391
272335
82090.7
39782.6
39933.8
82166.6
270882
269839
81968.3
39831.9
39979.5
82042.4
268407
267370
81840.1
39875.3
40019.8
81911.9
265951
264914
81704.2
39913.6
40055.3
81773.1
263500
262459
81558.8
39947.4
40086.5
81624.2
261044
259993
81402.4
39977.3
40113.9
81463.9
258570
257506
81233.5
40003.5
40138
81290.8
256068
254987
81051.4
40026.7
40159.1
81104.1
253529
252424
80855
40047.2
40177.8
80902.8
250941
249808
80643.4
40065.4
40194.4
80685.9
248290
247124
80415.4
40081.8
40209.2
80452.2
245566
244361
80169.6
40096.6
40222.4
80200
242755
241505
79903.7
40109.8
40233.9
79926.8
239843
238542
79614.7
40121.3
40243.3
79629.6
236818
235462
79299.9
40130.4
40250.1
79305.8
233667
232250
78958.6
40136.8
40254
78953.4
230379
228895
78589
40140.5
40255
78569.5
226938
225381
78184.9
40141.1
40252.5
78150
223331
221696
77743.8
40138.1
40246.1
77692
219545
217826
77261.8
40130.8
40234.7
77191.1
215567
213758
76734.1
40118.1
40217.1
76641.9
211385
209482
76154.2
40098.3
40190.9
76037.5
206988
204989
75514.5
40068.5
40152.5
75368.6
202372
200276
74804
40023.8
40095.3
74614.6
197540
195354
74010
39950
40009.9
73763.9
192507
190242
73119.5
39843.5
39890.1
72809.6
187299
184972
72117
39695.6
39725
71736
181954
179591
70985.9
39492
39498.9
70524.3
176531
174168
69708.1
39224.1
39194.8
69157.2
171110
168795
68264.5
38862.9
38786.5
67619.3
165799
163592
66640.7
38381.5
38251.5
65901.4
160728
158696
64836.7
37762.2
37576
64008
156042
154245
62867.1
37002.9
36739.7
61964.9
151872
150362
60760.8
36099.1
35764.7
59809.4
148315
147121
58579.8
35066.4
34679
57617
145416
144534
56403.6
33943.2
33529.9
55475.2
143139
142521
54319.2
32783.3
32375.5
53476.8
141382
140930
52422.6
31653.6
31283.5
51710.9
139990
139613
50793.8
30619
30314.3
50238.3
138781
138424
49481.5
29734
29511.9
49081.6
137610
137261
48450.6
29023.6
28868.4
48154.4
136492
136242
47594.8
28453
28323.1
47324
135734
135642
46802.9
27940.4
27822.1
46576.7
135385
135337
46064.5
27454.6
27333.5
45848.5
135104
135026
45342.8
26967.1
26839.9
45139.5
134730
134629
44649.7
26474.1
26346.1
44471.9
134306
134204
44005.8
25987.2
25864.8
43859.6
133887
133790
43418.2
25516.2
25401.6
43299.4
133491
133407
42884.7
25064.6
24957.2
42784.1
133144
133079
42400.1
24634.4
24535.8
42316.8
132862
132816
41963.3
24229.3
24139.2
41886.2
132641
132607
41566.7
23848.9
23765.8
41502
132453
132415
41203.2
23491.6
23411.7
41148.9
132250
132196
40870.1
23155.1
23074.4
40821.3
132025
131906
40588.6
22841.1
22760.4
40476.1
131656
131528
40387.7
22607.9
22492.3
40288.9
131065
131135
40297.7
22429.4
22121.5
39948.1
129299
126113
38761.1
21482.8
20700.5
37453.2
122089
12015.2
8711.83
6859.11
5647.21
5175.19
4478.43
4091.41
3750.13
3545.47
3390.87
3313.41
3289.85
3324.25
3428.2
3591.63
3869.76
4225.71
4827.61
5374.06
6287.5
8429.53
10484.2
14110.6
23604.3
52093.6
116378
395757
445350
135602
60209.9
66526.1
151190
506644
570740
170735
75878.9
81119.3
181346
602409
616198
181298
80471.1
84774.5
188083
621655
629285
185616
82366
85077.2
191355
629378
630123
185378
82646.2
84780.6
190568
629838
630976
185108
82602.8
84722.5
190285
630726
631921
184794
82544.7
84658.7
189972
631692
632934
184461
82487.7
84601.2
189644
632720
634006
184123
82441.2
84548.3
189314
633808
635138
183777
82395.2
84525
188977
634953
636329
183432
82359
84472.6
188645
636158
637582
183089
82343.6
84473.6
188312
637422
638896
182748
82335.7
84453.5
187985
638749
640280
182411
82355.6
84467.3
187759
640149
641734
182074
82382.1
84496.7
187380
641613
643263
181798
82428.7
84545.4
187189
643158
644868
181501
82490.9
84610.9
186856
644774
646552
181278
82573.1
84720.6
186625
646473
648321
181046
82678
84815.9
186422
648259
650182
180845
82814.4
84954.4
186254
650136
652140
180680
82971.6
85113.4
186123
652114
654200
180551
83145.1
85319.1
186034
654193
656370
180463
83346.1
85514.4
185989
656395
658665
180420
83586.4
85788.2
185996
658729
661110
180430
83867.6
86080.8
186081
661235
663781
180542
84218.7
86452.6
186317
664015
666864
180822
84601.9
86808
186736
667331
670713
181162
84876.5
86949.8
186982
671724
675763
180748
84829.7
86627.9
185663
677357
681594
178431
84006.2
86047.2
182896
682821
686430
174574
82644.4
84642
180239
679007
668494
170110
81758.2
83736.3
174163
655397
645874
162942
80052.4
82337.5
169059
632805
624124
159016
80023
81831.1
163748
606537
588014
154716
80504
82709.4
158469
574046
559779
155529
82928.1
85754.1
157334
546071
541424
160469
86818.4
89088
166550
540033
552754
168482
83363.2
59814.8
162096
348483
265952
79866.4
48258.7
48634.5
91281.2
268004
274486
112682
62323.8
49319.2
97392.5
257613
236289
87509.2
46463.7
42395
81014.3
225294
215999
76826.6
40476.7
37719.7
72117.3
211224
205950
67430.4
35755
33576.2
64099.8
208354
217147
66521.6
34850.9
41793
75984.9
229104
233609
71637.7
36496.3
35429
69576.8
234911
242451
70463.1
35729
41628.3
77297.3
263699
291461
92070
51316.9
54767.8
98408.5
317789
335572
106986
61536.5
56130.4
102338
338269
333380
96758.3
52740.3
47732.4
92048.7
326632
334709
89762.1
46731.2
48695.1
88691.3
329811
321081
78290.2
40273.1
30795.5
60855.6
293360
284059
50753.1
27864.8
25337.7
41900.2
257982
236880
35302.3
21629.4
19896.6
29697.6
204604
186739
25438.2
18306.4
15266.7
22512.7
155237
137881
19929
13427.5
12984.7
18590.4
126913
121979
18265.8
12922.2
13406.8
20305
124143
127363
19383.8
12829.6
21607.2
43035.8
143006
154898
71237.1
22765.9
52394.9
114355
174269
187443
134912
65950.8
84519.8
159243
211113
234831
190878
141149
136567
204861
258164
276083
220024
148016
187562
249011
306086
317780
247532
170206
171831
254597
335150
349447
265601
201349
174467
259013
358659
359060
259754
177010
202496
261379
362414
339725
234240
150086
157372
225682
315762
290044
197425
118915
118801
188618
280724
286744
190910
121764
142486
197866
296927
283880
180763
116661
112218
173381
276346
276551
177559
129207
104979
159555
267399
259174
152534
104397
107824
160582
281217
309980
176719
126874
104353
160908
307235
317113
153819
104717
144661
279185
487686
673124
230890
121093
132284
233265
517403
650839
258261
141837
242877
474941
946556
713263
207878
146654
143210
211778
568172
838761
396578
219863
132551
182150
634075
492387
196461
130958
136658
220460
634120
978594
441053
230973
134292
193149
711377
572927
200146
132402
218925
412568
876948
669647
183062
128348
128393
193432
551173
847781
401261
214467
124711
178811
644881
533293
187204
124574
207065
387093
809182
606720
174798
120448
120375
185502
482677
644506
216390
129120
235011
448696
1.03777e+06
746930
195445
132341
131259
200933
608728
956561
449890
230300
131607
191776
712071
590676
207360
132555
231725
441160
949757
711029
193789
133365
133466
203280
590859
943257
445714
233738
134121
194417
709095
594243
206554
135299
236651
438911
980143
735667
196234
136658
137591
209488
621711
1.02792e+06
500409
252629
150409
187443
822751
761070
372201
217788
125550
181720
598506
522222
197850
128383
223735
415705
845326
647213
186678
130676
132640
200609
554129
896601
433239
231056
133164
191445
677037
574240
206031
134712
237903
446404
927384
708288
197584
138118
140552
214350
610827
1.0258e+06
498007
258512
155366
190090
832622
778585
382335
226493
132459
190353
617163
551774
211263
137016
242595
452027
916442
710496
203787
143103
145465
220005
615587
1.02842e+06
506152
264812
160486
198603
834490
784279
384804
231385
135559
193604
619104
553263
212217
139386
244417
451810
908155
699567
204388
144964
148400
224548
613752
1.04217e+06
508706
269668
164403
199148
847486
802406
395413
238178
140344
202340
639250
578117
224448
145293
264662
493823
981283
806506
201468
163664
235632
385228
772480
614949
199301
139686
144801
221558
556530
925870
468702
255251
151614
213193
714267
629093
233520
154810
278397
518416
1.05871e+06
866233
209093
172035
249685
411816
837152
672370
215509
149034
154596
240200
614695
1.05463e+06
527950
282955
175812
218830
864905
832053
414379
252499
151015
214313
659226
601957
237681
156337
280000
515884
1.02904e+06
848239
215900
176085
253834
415058
823829
665653
219956
152925
158881
244631
612669
1.04489e+06
525443
285536
179306
219936
860544
838346
420496
257561
154898
220679
662326
609426
245182
160703
287906
526149
1.03987e+06
860560
224290
181579
261512
424473
843468
678105
225679
158080
164384
251644
625985
1.06779e+06
539004
295170
185892
229496
882215
860598
433316
266007
160484
228361
678564
627177
254048
166612
296831
541282
1.06564e+06
885639
231938
188099
270589
438432
869136
697479
234450
163966
170579
261442
648594
1.10649e+06
562441
307114
193663
240089
907500
887343
451399
277765
167713
238240
699417
648613
265718
174107
309940
560867
1.10789e+06
913286
242323
196647
283109
457901
903239
723903
245520
171732
178603
273855
672345
1.13995e+06
581627
319419
202076
250351
940299
927423
469713
289734
175362
248307
730316
678601
275591
182054
323428
583736
1.14941e+06
951022
252367
205454
295485
478652
944149
750828
256251
179469
186557
285830
701212
1.18843e+06
605450
333401
211127
261366
970759
961134
490092
302673
183227
259576
759111
707012
287593
190198
337620
611498
1.19363e+06
981097
264891
214591
308621
499797
975830
782773
268547
187679
195159
299493
732116
1.24087e+06
632190
348694
220537
274395
1.00659e+06
994295
507286
315454
190989
268976
780340
728242
297822
198128
349515
626451
1.22492e+06
1.0106e+06
273302
222398
319594
513839
1.00944e+06
804300
277424
194434
202053
307735
753445
1.26455e+06
652015
359708
227938
283537
1.03077e+06
1.02159e+06
522985
325949
197534
278324
800497
751294
307178
204774
362471
650826
1.26622e+06
1.03509e+06
285961
230610
330456
528397
1.03142e+06
820659
284882
200876
208831
316285
771172
1.28296e+06
659320
367675
233561
290463
1.04169e+06
1.04108e+06
534511
333148
201113
284344
808149
751275
311860
207538
359859
640605
1.21769e+06
935614
300942
217888
223365
327099
857371
1.41179e+06
711822
393686
245690
306512
1.12486e+06
1.11816e+06
572099
353250
213047
302339
874337
819509
331501
220451
392519
706195
1.36232e+06
1.09922e+06
311001
247628
354276
566681
1.09255e+06
849560
300868
213262
221317
332274
793262
1.28199e+06
677018
382894
230092
319780
988764
906055
340223
234647
414608
754377
1.48072e+06
1.18159e+06
325532
259894
375758
605151
1.17662e+06
910527
320567
224892
231881
351680
849111
1.367e+06
714525
402078
241498
336799
1.03664e+06
946774
357447
245352
431044
778187
1.53612e+06
1.21172e+06
336437
268953
387729
627332
1.20742e+06
928202
329307
231074
239350
361641
865495
1.38761e+06
732223
414024
247143
343395
1.04748e+06
962891
369466
251831
440996
785884
1.57301e+06
1.23619e+06
343935
275562
398290
639305
1.23514e+06
951668
339996
236687
243888
369550
885333
1.40254e+06
739894
419881
250750
348259
1.05078e+06
958977
372163
254962
436470
777483
1.5176e+06
1.12019e+06
363309
258344
260683
384346
1.00447e+06
1.55676e+06
799179
447939
262964
370316
1.14098e+06
1.03445e+06
396460
267012
463972
834993
1.62229e+06
1.19965e+06
387848
271436
273003
401806
1.07764e+06
1.67329e+06
866090
480660
277983
395632
1.21863e+06
1.0988e+06
421071
281630
490417
874413
1.70454e+06
1.24725e+06
404211
284174
285951
426505
1.12631e+06
1.75585e+06
890086
497854
286245
407839
1.27037e+06
1.13845e+06
432456
289031
505279
900579
1.75425e+06
1.27386e+06
415065
290446
292446
435359
1.14289e+06
1.75284e+06
897162
505360
289310
410350
1.26649e+06
1.141e+06
435323
291667
508800
905378
1.73996e+06
1.24612e+06
415516
289580
290564
431911
1.11112e+06
1.66188e+06
853334
487111
275523
394180
1.1658e+06
996511
410288
275561
293969
479315
1.30398e+06
1.9481e+06
998006
533638
296441
440660
1.34013e+06
1.13785e+06
473660
302156
308375
487767
1.46324e+06
2.13844e+06
1.09087e+06
567506
305592
463623
1.406e+06
1.16987e+06
476777
306268
321054
540607
1.51013e+06
2.23085e+06
1.1205e+06
591723
317907
482157
1.49568e+06
1.241e+06
503686
321535
323835
538152
1.53665e+06
2.15989e+06
1.07611e+06
572011
297529
450547
1.37585e+06
1.13469e+06
465386
293312
292474
478924
1.28233e+06
1.5215e+06
588591
318095
312380
587514
1.80708e+06
2.44975e+06
1.25173e+06
622603
311305
501485
1.52518e+06
1.25857e+06
485491
301518
315927
575135
1.42403e+06
1.55601e+06
560241
308259
317376
637384
1.64709e+06
1.70607e+06
633788
309789
317077
680213
1.7141e+06
1.69287e+06
685141
313271
318886
693741
1.65992e+06
1.61262e+06
683284
315086
319467
682485
1.5649e+06
1.51598e+06
657860
314396
317875
659458
1.46994e+06
1.42546e+06
643205
313075
316871
646651
1.38569e+06
1.3487e+06
635517
312835
317596
639725
1.31592e+06
1.28605e+06
631487
314681
320037
635692
1.2593e+06
1.23554e+06
627715
317256
322555
631461
1.21393e+06
1.19502e+06
623205
319638
324025
626410
1.17774e+06
1.16289e+06
617076
320318
324072
619742
1.14912e+06
1.13781e+06
609750
319857
322974
611817
1.12679e+06
1.11861e+06
600577
318297
321330
602087
1.10947e+06
1.10442e+06
590167
316879
319741
591273
1.09683e+06
1.09419e+06
578489
315249
318125
579335
1.08805e+06
1.08684e+06
566590
313823
316451
567362
1.08216e+06
1.0818e+06
554483
312007
314561
555261
1.07843e+06
1.07861e+06
543015
310115
312481
543940
1.07652e+06
1.07657e+06
532034
307808
310090
533085
1.07432e+06
1.07544e+06
522073
305569
307655
523369
1.07401e+06
1.07487e+06
512775
303027
305061
514223
1.07371e+06
1.07472e+06
504540
300489
302386
506257
1.07371e+06
1.07492e+06
496975
297776
299654
498833
1.07399e+06
1.07534e+06
490397
295133
296904
492512
1.07445e+06
1.07586e+06
484377
292364
294136
486602
1.07501e+06
1.07647e+06
479193
289693
291378
481647
1.07565e+06
1.07715e+06
474413
286920
288620
476938
1.07636e+06
1.07789e+06
470317
284262
285894
473045
1.07712e+06
1.07866e+06
466490
281527
283190
469259
1.07793e+06
1.07949e+06
463227
278934
280548
466186
1.07878e+06
1.08036e+06
460126
276297
277959
463100
1.07967e+06
1.08126e+06
457488
273826
275449
460627
1.0806e+06
1.0822e+06
454922
271332
273016
458062
1.08156e+06
1.08317e+06
452665
269016
270667
456029
1.08255e+06
1.08416e+06
450517
266691
268410
453893
1.08356e+06
1.08517e+06
448654
264549
266239
452239
1.08459e+06
1.08619e+06
446860
262403
264166
450433
1.08562e+06
1.08722e+06
445307
260441
262177
449079
1.08667e+06
1.08824e+06
443795
258479
260288
447548
1.08769e+06
1.08923e+06
442505
256702
258486
446442
1.08869e+06
1.09018e+06
441225
254922
256782
445129
1.08965e+06
1.09109e+06
440148
253333
255165
444228
1.09056e+06
1.09194e+06
439068
251736
253645
443106
1.0914e+06
1.09274e+06
438183
250318
252202
442391
1.0922e+06
1.09348e+06
437286
248890
250853
441443
1.09294e+06
1.09416e+06
436569
247644
249580
440888
1.09362e+06
1.09478e+06
435826
246366
248390
440087
1.09423e+06
1.09535e+06
435254
245297
247280
439669
1.0948e+06
1.09586e+06
434639
244120
246222
438987
1.0953e+06
1.09632e+06
434186
243198
245259
438683
1.09577e+06
1.09674e+06
433684
242163
244342
438111
1.09619e+06
1.09712e+06
433341
241375
243507
437910
1.09657e+06
1.09747e+06
432937
240463
242710
437429
1.09691e+06
1.09779e+06
432681
239791
241986
437309
1.09723e+06
1.09807e+06
432355
238986
241292
436901
1.09752e+06
1.09833e+06
432169
238413
240662
436845
1.09778e+06
1.09857e+06
431903
237697
240055
436492
1.09802e+06
1.09879e+06
431770
237208
239506
436484
1.09824e+06
1.09898e+06
431549
236568
238972
436173
1.09843e+06
1.09917e+06
431458
236153
238493
436204
1.09862e+06
1.09934e+06
431274
235582
238026
435928
1.09879e+06
1.0995e+06
431217
235229
237606
435989
1.09895e+06
1.09964e+06
431062
234714
237193
435739
1.0991e+06
1.09978e+06
431031
234417
236827
435825
1.09923e+06
1.0999e+06
430900
233955
236465
435597
1.09935e+06
1.10001e+06
430891
233704
236143
435703
1.09947e+06
1.10011e+06
430778
233285
235823
435492
1.09957e+06
1.10021e+06
430785
233076
235541
435612
1.09967e+06
1.1003e+06
430686
232695
235258
435414
1.09976e+06
1.10038e+06
430707
232522
235010
435547
1.09984e+06
1.10045e+06
430619
232175
234759
435359
1.09991e+06
1.10052e+06
430650
232034
234542
435501
1.09998e+06
1.10058e+06
430572
231716
234320
435322
1.10004e+06
1.10063e+06
430611
231603
234129
435471
1.10009e+06
1.10068e+06
430540
231311
233932
435298
1.10014e+06
1.10072e+06
430586
231223
233765
435453
1.10018e+06
1.10076e+06
430519
230952
233588
435284
1.10021e+06
1.10079e+06
430569
230885
233442
435440
1.10025e+06
1.10082e+06
430504
230634
233283
435273
1.10027e+06
1.10084e+06
430555
230585
233153
435431
1.1003e+06
1.10087e+06
430492
230351
233011
435264
1.10032e+06
1.10089e+06
430544
230316
232894
435422
1.10035e+06
1.10091e+06
430479
230095
232764
435254
1.10038e+06
1.10094e+06
430531
230071
232658
435411
1.10041e+06
1.10097e+06
430465
229859
232537
435242
1.10044e+06
1.10101e+06
430516
229846
232440
435399
1.10048e+06
1.10105e+06
430450
229643
232328
435230
1.10052e+06
1.1011e+06
430502
229639
232240
435388
1.10058e+06
1.10115e+06
430438
229444
232135
435222
1.10064e+06
1.10122e+06
430493
229448
232055
435383
1.10071e+06
1.10129e+06
430433
229261
231959
435222
1.10078e+06
1.10136e+06
430493
229274
231888
435389
1.10086e+06
1.10144e+06
430440
229097
231802
435234
1.10095e+06
1.10153e+06
430506
229118
231738
435406
1.10104e+06
1.10162e+06
430457
228947
231656
435253
1.10113e+06
1.10172e+06
430524
228973
231597
435424
1.10124e+06
1.10184e+06
430470
228804
231538
435346
1.10136e+06
1.10198e+06
430494
228786
231364
435272
1.1015e+06
1.10164e+06
430122
228680
231249
434990
1.10055e+06
1.10128e+06
430183
228528
231122
435142
1.10084e+06
1.10104e+06
429649
228001
230700
433345
1.09659e+06
1.09131e+06
425566
225329
221796
420905
1.07187e+06
1.04097e+06
411827
216209
193955
380776
976906
912417
357162
180037
161134
325913
860211
70315.6
35192.2
25279.7
18122.3
11477.8
9599.14
8987.9
6649.27
4851.62
3780.12
2949.92
2262.79
1715.82
1288.96
970.349
736.639
567.739
445.556
356.594
291.103
242.322
205.499
177.459
155.835
139.28
126.539
117.186
110.477
106.11
103.556
102.394
101.522
99.9714
97.8492
95.2941
92.4762
89.4805
86.4102
83.274
80.0913
76.852
73.5499
70.1739
66.714
63.1548
59.477
55.6509
51.5918
46.2379
38.3757
28.9525
20.0811
13.0553
8.04377
4.69856
2.59208
1.35394
0.69832
0.386148
0.248678
0.192553
0.170926
0.162666
0.159222
0.157519
0.156094
0.154739
0.153406
0.152051
0.15065
0.149182
0.14763
0.145979
0.144217
0.14233
0.140309
0.138147
0.135836
0.133374
0.13076
0.127996
0.125088
0.122045
0.118876
0.115598
0.112225
0.108775
0.105268
0.101722
0.0981567
0.0945903
0.091042
0.0875273
0.0840626
0.0806604
0.0773331
0.0740916
0.0709426
0.0678949
0.0649524
0.0621185
0.059397
0.0567878
0.054292
0.0519084
0.049636
0.0474734
0.0454172
0.0434652
0.0416145
0.0398612
0.0382021
0.0366332
0.035151
0.0337513
0.0324305
0.031185
0.0300104
0.0289034
0.0278603
0.0268773
0.0259509
0.0250777
0.0242547
0.0234784
0.0227459
0.0220543
0.0214008
0.0207829
0.0201982
0.0196444
0.0191193
0.018621
0.0181478
0.0176981
0.0172704
0.0168635
0.0164763
0.0161078
0.0157572
0.0154238
0.0151069
0.0148059
0.0145205
0.0142501
0.0139942
0.0137525
0.0135246
0.0133101
0.0131085
0.0129193
0.0127422
0.0125767
0.0124224
0.0122786
0.012145
0.0120208
0.0119057
0.011799
0.0117001
0.0116084
0.0115233
0.0114444
0.0113711
0.011303
0.0112398
0.0111812
0.0111274
0.0110784
0.0110346
0.0109965
0.0109645
0.0109387
0.0109192
0.010905
0.0108954
0.0108881
0.0108817
0.0108816
0.0108815
0.0108816
0.0108819
0.0108826
0.0108841
0.0108871
0.0108929
0.0109008
0.0109095
0.0109167
0.0109196
0.010917
0.0109095
0.0108987
0.0108857
0.0108711
0.0108551
0.0108378
0.0108192
0.0107992
0.0107779
0.0107553
0.0107314
0.0107063
0.0106802
0.010653
0.0106248
0.0105959
0.0105664
0.0105368
0.0105078
0.010481
0.0104594
0.0104495
0.010464
0.0105294
0.0106999
0.0110857
0.0119097
0.0136187
0.0171045
0.0241158
0.0380234
0.0652019
0.117441
0.21608
0.398993
0.73295
1.3363
2.42085
4.36252
7.7707
13.3527
21.1947
29.8832
37.4747
44.4985
57.5979
99.0364
263.053
1123.69
2605.59
7625.18
8768.54
9492.02
10453.8
10931.1
11695.9
12021.1
12645.7
12874.4
13387.8
13562.4
13983.2
14118.4
14469
14574.7
14872.2
14955.5
15212.2
15278.1
15502.8
15554.9
15753.9
15795
15973.2
16005.5
16166.9
16192.1
16339.7
16359.1
16495.5
16510.1
16637.2
16647.9
16767.2
16774.8
16887.8
16892.9
17000.8
17003.9
17107.8
17109.4
17210.2
17210.9
17309.6
17309.7
17406.8
17406.6
17503
17502.9
17599.1
17599.4
17696.2
17697.4
17795.5
17797.7
17897.7
17901.2
18003.5
18008.7
18113.8
18120.8
18229.3
18238.5
18350.9
18362.6
18479.6
18494
18616
18633.4
18761.1
18781.7
18915.3
18939.2
19079
19106.1
19251.4
19280.9
19430.5
19461.4
19613.4
19644.4
19796.2
19825.2
19972.7
19996.6
20133.7
20148.4
20266.7
20266.7
20347.5
20332
20365.4
20325
20325.5
20229.6
20194
20032.8
19960.8
19734.6
19629.1
19343.1
19214.1
18882.2
18739.2
18388
18243.7
17897.8
17762.1
17445.4
17330.6
17057.2
16969.6
16744.2
16674.9
16488.4
16432.5
16269.3
16219.4
16065.6
16015
15858.6
15802.7
15636.9
15574.2
15396.7
15326.7
15137.1
15060.8
14862.2
14782.6
14581.3
14500.7
14300.2
14219.2
14021.4
13935.8
13746.1
13649
13478.9
13361.5
13243.8
13068.2
13028.6
12706.2
12584.8
9013.55
9180.64
7101.41
6982.28
5652.96
5661.56
5589.59
7364.38
9419.01
9580.89
7617.71
7345.54
9559.53
9754.88
7703.11
5635.01
5669.26
7417.24
9727.37
9919.09
7795.24
7495.15
9889.44
10078.8
7880.46
5689.45
5711.71
7565.49
10042.6
10223.6
7954.93
7627.7
10181.9
10355.3
8021.42
5731.76
5753.54
7682.69
10308.4
10474.6
8079.32
7731.59
10421.7
10580.7
8130.85
5780.66
5809.46
7778.15
10522.3
10675.1
8182.07
7827.67
10612.5
10762.5
8236.55
5849.86
5895.19
7883.6
10697.5
10848.9
8299.49
7949.65
10783.7
10941.2
8373.33
5953.32
6017.18
8028.16
10878.1
11048
8462.32
8121.95
10988.7
11175.8
8568.15
6091.55
6171.26
8231.94
11122.7
11331.1
8692.23
8357.74
11285.2
11515.9
8832.66
6256.46
6343.12
8496.24
11477.5
11730.4
8985.43
8641.85
11697.5
11967.2
9143
6427.07
6501.56
8785.9
11936.3
12212.4
9294.75
8917.38
12178.7
12447.8
9428.49
6559.59
6593.57
9024.69
12406.1
12654.4
9532.05
9097.24
12599.8
12815.3
9595.44
6595.81
6577.84
9127.05
12744.5
12906
9608.61
9111.2
12799.4
12931.5
9576.44
6529.04
6431.56
9059.14
12793.8
12907.2
9501.75
8965.18
12733.3
12833.4
9393.04
6307
6164.79
8837.45
12626.3
12716.2
9260.68
8686.87
12483.7
12566.4
9108.55
6010.78
5850.23
8524.57
12317.4
12395.8
8944.97
8357.34
12138.3
12214.4
8776.67
5687.8
5526.82
8190.29
11954.3
12030
8608.74
8026.97
11771.2
11847.6
8444.65
5369.09
5216.68
7869.57
11592.7
11670.3
8286.53
7719.39
11420.6
11499.9
8135.62
5070.78
4932.01
7577.16
11256.2
11337.4
7992.27
7442.49
11100.4
11184.2
7855.73
4800
4674.55
7314.08
10953.8
11040.2
7728.42
7190.9
10815.7
10904.5
7607.44
4554.79
4440.09
7073.73
10685.4
10776.4
7492.1
6961.87
10562.1
10654.9
7381.67
4329.85
4223.62
6854.59
10444.7
10539.3
7275.37
6751.15
10332.5
10428.5
7172.44
4120.71
4020.33
6650.82
10224.6
10321.8
7072.26
6553.01
10120.1
10218.2
6974.28
3921.85
3825.64
6457.21
10018.1
10117
6877.76
6362.77
9917.91
10017.2
6781.96
3731.24
3638
6268.98
9818.47
9917.99
6686.12
6175.1
9718.79
9818.15
6589.31
3545.64
3453.93
6080.21
9617.69
9716.51
6490.32
5983.15
9513.94
9611.85
6387.42
3362.72
3272.11
5882.16
9406.48
9503.2
6278.11
5774.64
9294.8
9390.4
6164.57
3180.28
3086.11
5663.25
9178.25
9272.35
6046.22
5547.09
9055.62
9147.81
5922.15
2989.25
2889.23
5425.35
8925.61
9015.44
5791.38
5297.08
8786.79
8873.72
5652.88
2785.42
2677.26
5161.31
8637.58
8721.04
5505.5
5016.95
8476.25
8555.54
5348.03
2564.15
2445.45
4862.87
8300.85
8375.22
5179.18
4697.85
8109.23
8177.77
4997.74
2320.55
2189.13
4520.81
7898.81
7960.41
4802.6
4330.88
7666.4
7719.56
4592.25
2051.72
1909.7
4126.69
7407.75
7450.53
4363.91
3903.68
7118.02
7148.48
4116.9
1758.92
1599.64
3659.79
6791.46
6807.12
3845.63
3392.52
6421.52
6418.83
3546.24
1431.31
1253.64
3097.97
5996.16
5964.43
3214.14
2774.05
5505.3
5437.43
2846.56
1066.57
870.02
2415.39
4932.48
4820.05
2436.67
2022.34
4271.06
4075.9
1974.56
664.106
454.948
1589.52
3501.45
3190.89
1461.38
181.206
278.567
379.567
479.308
576.715
671.472
763.5
852.744
939.246
1022.98
1104.62
1184.42
1262.44
1338.73
1413.4
1486.57
1558.33
1629.07
1699.22
1769.06
1838.75
1908.49
1978.68
2049.65
2121.62
2194.96
2269.5
2348.08
2430.48
2516.48
2606.09
2699.54
2797.14
2899.26
3006.35
3118.7
3236.9
3360.91
3490.68
3626.79
3768.85
3916.41
4066.13
4215.61
4359.66
4494.57
4608.58
4706.66
4779.21
4824.53
4839.52
4832.49
4812.43
4774.47
4728.68
4679.68
4630.45
4583.48
4539.02
4498.98
4462.62
4431.82
4405.03
4384.13
4366.14
4353.28
4341.23
4335.49
4323.54
4320.02
4259.8
4445.67
5279.62
5224.81
4462.02
4099.39
4113.62
3737.53
3744.61
3549.65
3555.98
3632.05
3339.57
3387.86
3389.69
3315.21
3317.58
3292.96
3291.31
3325.23
3325.57
3297.3
3506.04
3440.68
3433.87
3594.37
3594.69
3911.15
3889.89
4244.76
4251.77
4076.52
5536.42
5046.68
4946.13
5538.51
5615.03
7542.12
7101.81
10216.8
11051.5
11413.6
11714.4
11579.8
15743.7
16607.9
28621.1
27242.9
31762.1
18673.3
20310.8
33252.1
32562.3
18693
12130.6
8046.7
8593.1
12437.4
18739.4
20584.8
34425.9
33127.5
34541.7
20715.7
18839.6
12380.8
8251.22
5699.54
4160.55
3532.52
3310.32
3353.39
3655.64
3659.7
3355.95
3312.07
3539.2
3540.92
3312.13
3357.13
3664.68
3669.19
3358
3358.53
3675.7
3683.32
3358.82
3298.99
3305.39
3309.67
3540.28
3534.96
3526.02
3511.8
3290.19
3358.95
3693.07
3704.66
3359
3359.06
3718.73
3735.07
3359.17
3248.32
3265.01
3278.95
3492.54
3467.1
3434.98
3395.46
3228.99
3359.7
3754.07
3775.52
3361.01
3363.44
3799.44
3825.58
3367.38
3159.59
3183.89
3207.33
3348.17
3293.17
3231.76
3774.56
3885.76
3979.35
4051.73
4106.38
4146.45
4174.81
4193.12
4203.93
4204.8
4201.74
4195.78
4175.05
5734.77
8337.16
8765.5
12745.6
12593.6
12913.3
8891.07
8457.85
5800.93
5834.9
5877.53
5904.12
8819.74
9288.21
8698.77
9154.27
8576.79
9021.04
13096.2
12774.3
19335.6
21233
19260.1
21154.3
19080
20977.4
18992.7
20886.1
34568.7
33217.4
33337
34701.8
33431.1
34835
33550.9
34883.8
33655.8
35061.5
21427.9
19527.7
21513
35124.9
33790.9
33909.1
19610.9
12957.6
13289.5
19813.5
21718.6
35317.5
34060.9
35399.3
21813.6
19907.2
13150.7
13491.5
13352.2
13702.2
9422.45
8938.94
5925.24
5931.64
5927.01
5909.27
9236.3
9785.62
9153.99
9677.44
9051.73
9553.51
13919.5
13561.8
20561.9
22493.1
20446.2
22372.8
20223
22140.7
20120.3
22033.6
35611.5
34197.6
34369.2
35713.5
34524.7
35944.7
34728.1
36066.2
34896.7
36327.4
22740.5
20799.9
22876.2
36475.5
35125.2
35319.5
20926.1
13777.5
14141.4
21178.3
23140.2
36763.7
35562.4
36942.9
23291.1
21315.7
13996.1
14361.9
14212.5
14575.8
9866.78
9288.98
5873.26
5808.17
5671.92
5493.51
9125.5
9795.29
9256.82
9893.07
9309.17
9911.79
14771.2
14419.3
22184.9
24222.2
22026
24038.4
21740.1
23736.6
21588.5
23571.3
37257.7
35795.4
36070.2
37469.4
36334.9
37820.4
36647.9
38073.4
36952.3
38466.6
24536.3
22478.1
24721.9
38766.1
37301.9
37623.9
22630.9
14603.7
14926.1
22900.2
25020.6
39153.9
37950
39360
25180.7
23018.9
14741.4
15005.5
14806.4
14991.7
9575.57
8864.4
5257.12
3641.44
3164.49
3135.44
3373.23
3853.4
3881.47
3380.69
3388.53
3907.69
3925.61
3392.5
3072.88
3092.03
3112.72
3094.27
3023.02
2952.64
2884.66
3053.02
3393.11
3932.86
3931.03
3379.3
3345.54
3901.98
3850.64
3287.26
2896.22
2978.88
3025.7
2821.09
2742.64
2629.51
2487.37
2773.19
3191.22
3775.64
3670.09
3065.12
2919.1
3543.31
3402.77
2769.22
2313.61
2469.96
2627.36
2320.17
2147.36
1981.17
1826.55
2162.62
2619.8
3257.17
3111.08
2475.67
2339.29
2968.47
2831.47
2212.12
1772.53
1891.19
2021.41
1686.46
1560.72
1448.88
1203.58
1310.27
1433.4
1575.38
1737.65
1922.67
2123.54
2338.79
2534.65
2698.29
2820.34
2963.89
3148
3323.86
3489.77
4955.07
4593.87
4159.63
6903.28
7863.09
7788.77
8652.71
8426.28
9220.29
14738.9
14743.4
24186.4
26317.7
23806.3
25956.9
23435
25610.8
23261.2
25436.9
39642.7
38133.8
38191.3
39639.9
38375.9
39893.3
38708.2
40381.7
39440.8
41096.8
26827.6
24668.9
27316.8
42427.8
40598.2
42115.6
25064.7
14396.8
14053.8
25436.7
27805.9
44589.5
44581.4
48244.3
27867.5
25147.6
13296.1
12795.5
11529.2
10176.8
6671.24
5870.65
3673.86
3222.91
2987.88
2707.23
3373.59
3693.09
3824.76
4289.34
4639.25
5518.1
8314.8
9066.07
14987