/*--------------------------------*- C++ -*----------------------------------*\
| =========                 |                                                 |
| \\      /  F ield         | OpenFOAM: The Open Source CFD Toolbox           |
|  \\    /   O peration     | Version:  v2006                                 |
|   \\  /    A nd           | Website:  www.openfoam.com                      |
|    \\/     M anipulation  |                                                 |
\*---------------------------------------------------------------------------*/
FoamFile
{
    version     2.0;
    format      ascii;
    class       volScalarField;
    location    "0.038";
    object      alphat;
}
// * * * * * * * * * * * * * * * * * * * * * * * * * * * * * * * * * * * * * //

dimensions      [1 -1 -1 0 0 0 0];


internalField   nonuniform List<scalar> 
12716
(
1214.41
1160.49
4029.54
3908.75
5377.67
10406.8
22509.6
974.86
55.0986
8.60675
2.87102
1.55214
1.09576
0.892012
0.785131
0.719146
0.670743
0.630445
0.594804
0.562839
0.534347
0.509216
0.487208
0.467967
0.451102
0.43624
0.423066
0.411333
0.400853
0.39149
0.383141
0.375736
0.369219
0.363551
0.358702
0.354653
0.351391
0.348914
0.347234
0.346349
0.346304
0.347161
0.348966
0.35182
0.355848
0.361207
0.368066
0.376578
0.386821
0.39875
0.412221
0.427246
0.44477
0.468498
0.508915
0.592683
0.788584
1.29858
2.81554
7.48524
15.9355
15.2177
8.29122
3.27714
1.38249
0.6427
0.333474
0.154067
0.0383765
0.00671083
0.000216384
0.000183915
0.00295873
0.0137156
0.008342
0.00210326
0.000161365
0.000142313
0.00176527
0.00633907
0.00545791
0.00161453
0.000131647
0.000121763
0.00149281
0.00483971
0.00449001
0.00142732
0.000115604
0.000110149
0.0013633
0.00416564
0.00400306
0.00133345
0.00010665
0.000103104
0.00127973
0.00377014
0.00368247
0.00126437
0.000100887
9.8368e-05
0.00122183
0.00351305
0.0034517
0.00121281
9.68694e-05
9.49746e-05
0.0011772
0.00331745
0.00327134
0.00117116
9.38911e-05
9.24044e-05
0.00114099
0.00315873
0.00312272
0.00113566
9.15698e-05
9.03584e-05
0.00110978
0.00302499
0.00299619
0.00110492
8.96889e-05
8.86617e-05
0.00108217
0.00290948
0.00288591
0.00107775
8.81027e-05
8.72083e-05
0.00105736
0.002808
0.00278796
0.00105331
8.67281e-05
8.59314e-05
0.00103476
0.00271754
0.00270011
0.00103104
8.55085e-05
8.4786e-05
0.00101397
0.00263594
0.00262055
0.00101057
8.44063e-05
8.37419e-05
0.000994714
0.00256154
0.00254784
0.000991606
8.33958e-05
8.27777e-05
0.000976761
0.0024932
0.00248094
0.000973921
8.24583e-05
8.18777e-05
0.000959929
0.00243002
0.00241895
0.000957331
8.15798e-05
8.10301e-05
0.000944061
0.0023712
0.00236117
0.000941678
8.07498e-05
8.02255e-05
0.000929022
0.00231608
0.00230702
0.000926831
7.99598e-05
7.94566e-05
0.000914703
0.00226432
0.00225613
0.000912689
7.92029e-05
7.87171e-05
0.000901021
0.00221556
0.00220811
0.000899169
7.84734e-05
7.8002e-05
0.000887902
0.00216944
0.00216263
0.000886192
7.77664e-05
7.73068e-05
0.000875269
0.00212565
0.00211937
0.000873682
7.7078e-05
7.66276e-05
0.00086305
0.0020839
0.00207806
0.000861567
7.64039e-05
7.59601e-05
0.000851175
0.00204391
0.00203844
0.000849782
7.57402e-05
7.53006e-05
0.000839583
0.00200545
0.00200029
0.000838269
7.5083e-05
7.46453e-05
0.000828221
0.00196833
0.00196342
0.000826977
7.4429e-05
7.39912e-05
0.000817041
0.00193237
0.00192765
0.000815854
7.37754e-05
7.33358e-05
0.00080599
0.00189741
0.00189282
0.000804844
7.31198e-05
7.26768e-05
0.000795011
0.00186326
0.00185876
0.000793892
7.24601e-05
7.2012e-05
0.00078405
0.00182976
0.00182528
0.000782939
7.1794e-05
7.13388e-05
0.000773047
0.00179675
0.00179223
0.000771932
7.11185e-05
7.06537e-05
0.00076195
0.00176406
0.00175947
0.000760822
7.04295e-05
6.99522e-05
0.000750714
0.00173156
0.00172685
0.000749576
6.97224e-05
6.92293e-05
0.000739309
0.00169914
0.00169429
0.000738163
6.89919e-05
6.84799e-05
0.000727705
0.0016667
0.00166168
0.00072651
6.82331e-05
6.7699e-05
0.000715846
0.00163414
0.00162892
0.00071461
6.74416e-05
6.68827e-05
0.000703719
0.00160137
0.00159594
0.00070245
6.66139e-05
6.60281e-05
0.00069131
0.00156833
0.0015627
0.000690014
6.5748e-05
6.51337e-05
0.000678609
0.00153501
0.00152919
0.000677303
6.48427e-05
6.41985e-05
0.000665633
0.00150142
0.00149544
0.000664349
6.38972e-05
6.32218e-05
0.000652429
0.00146764
0.00146158
0.000651217
6.29107e-05
6.22032e-05
0.000639082
0.00143383
0.00142807
0.000637999
6.18826e-05
6.11425e-05
0.00062576
0.00140031
0.00139515
0.000624903
6.0811e-05
6.00402e-05
0.00061281
0.00136754
0.00136325
0.000612176
5.9701e-05
5.89023e-05
0.000600341
0.00133596
0.00133297
0.00060009
5.85573e-05
5.77343e-05
0.000588721
0.00130628
0.00130466
0.000589022
5.73879e-05
5.65483e-05
0.000578335
0.00127922
0.00127974
0.000579422
5.6208e-05
5.53658e-05
0.000569692
0.00125605
0.00125933
0.000571798
5.50431e-05
5.42174e-05
0.000563299
0.00123775
0.0012443
0.000566605
5.39265e-05
5.31378e-05
0.000559541
0.00122524
0.00123547
0.000564152
5.28914e-05
5.21574e-05
0.0005586
0.0012192
0.00123331
0.000564557
5.19624e-05
5.12979e-05
0.000560509
0.00122025
0.00123785
0.000567594
5.11575e-05
5.05703e-05
0.000564765
0.0012281
0.00124853
0.000572667
5.04756e-05
4.99717e-05
0.00057062
0.00124169
0.00126406
0.000579047
4.98904e-05
4.95108e-05
0.000576837
0.00125982
0.00128211
0.000583915
4.94129e-05
4.91323e-05
0.000579748
0.00127843
0.00130049
0.000586095
4.8978e-05
4.87113e-05
0.000581186
0.00129699
0.00131833
0.000586993
4.85302e-05
4.82605e-05
0.000581751
0.00131384
0.00133378
0.000586901
4.80644e-05
4.78037e-05
0.000581455
0.00132795
0.00134614
0.000585765
4.76441e-05
4.73958e-05
0.00058024
0.00133892
0.00135527
0.000583698
4.72646e-05
4.70319e-05
0.000578156
0.00134678
0.00136138
0.000580907
4.6921e-05
4.67072e-05
0.000575438
0.00135191
0.00136487
0.000577629
4.66135e-05
4.6419e-05
0.000572314
0.00135486
0.00136621
0.000574022
4.63382e-05
4.6164e-05
0.000568951
0.00135596
0.00136582
0.000570254
4.60983e-05
4.59442e-05
0.000565482
0.00135545
0.00136403
0.000566498
4.58905e-05
4.57551e-05
0.000562042
0.00135369
0.00136104
0.000562839
4.57119e-05
4.55936e-05
0.00055869
0.00135093
0.00135732
0.000559347
4.556e-05
4.54571e-05
0.000555493
0.00134755
0.00135323
0.000556095
4.5432e-05
4.53437e-05
0.000552499
0.00134381
0.00134886
0.00055313
4.53285e-05
4.52544e-05
0.000549712
0.00133977
0.00134419
0.000550354
4.52492e-05
4.51859e-05
0.00054707
0.00133535
0.00133921
0.000547712
4.51844e-05
4.51297e-05
0.000544478
0.00133051
0.00133384
0.000545135
4.51308e-05
4.50812e-05
0.000541956
0.00132511
0.00132813
0.000542615
4.50803e-05
4.50331e-05
0.000539466
0.00131917
0.00132207
0.000540129
4.50306e-05
4.49854e-05
0.000537005
0.00131289
0.00131561
0.000537657
4.49809e-05
4.49367e-05
0.000534532
0.00130617
0.00130866
0.000535147
4.49269e-05
4.48827e-05
0.000531991
0.00129893
0.00130118
0.000532557
4.48676e-05
4.48236e-05
0.000529351
0.00129115
0.00129318
0.000529871
4.48062e-05
4.47656e-05
0.000526602
0.00128279
0.00128497
0.000527157
4.47473e-05
4.46878e-05
0.000523847
0.00127413
0.00127562
0.000523903
4.47033e-05
4.45389e-05
0.000520955
0.00126423
0.00127005
0.000522832
4.47985e-05
4.47548e-05
0.000521248
0.00126952
0.00128938
0.00053087
4.5836e-05
4.58243e-05
0.000536062
0.00130266
0.00129083
0.000531771
4.66661e-05
4.67542e-05
0.000551617
0.00134102
0.0013533
0.000558217
4.78016e-05
0.00389803
0.00763
0.011835
0.0162578
0.0200911
0.0241351
0.027523
0.0303889
0.0325126
0.0339493
0.0346285
0.0345359
0.033689
0.032063
0.0298138
0.0268736
0.0235772
0.0197906
0.0165823
0.0129125
0.00871753
0.00562125
0.00410117
0.00184156
0.000531599
0.000246942
3.12662e-05
2.24379e-05
0.000228839
0.000460316
0.000154488
6.52984e-05
1.58364e-05
1.87115e-05
0.00014524
0.000360908
0.000331383
0.000138165
1.98216e-05
1.99119e-05
0.000148825
0.000361362
0.000336996
0.000140177
1.97199e-05
1.97203e-05
0.000144944
0.000347345
0.000331772
0.000137757
1.95687e-05
1.95394e-05
0.000143741
0.000343202
0.000332464
0.000137668
1.93614e-05
1.94483e-05
0.000143119
0.00034614
0.000335072
0.000137978
1.94179e-05
1.95489e-05
0.000144192
0.000349409
0.000339506
0.00013956
1.95112e-05
1.96179e-05
0.000145512
0.000353238
0.00034318
0.000140538
1.95753e-05
1.96814e-05
0.000146522
0.000357116
0.000346928
0.000141564
1.96448e-05
1.97553e-05
0.000147745
0.000361188
0.000350931
0.000142734
1.97173e-05
1.98293e-05
0.000148788
0.000365525
0.00035524
0.000143515
1.97839e-05
1.98691e-05
0.000149645
0.000369947
0.000359322
0.000144663
1.98155e-05
1.99301e-05
0.000150919
0.000374483
0.000363777
0.000145726
1.98941e-05
2.00082e-05
0.000152141
0.000379218
0.000368342
0.000146918
1.99705e-05
2.00888e-05
0.000153424
0.000384124
0.00037311
0.000148231
2.00481e-05
2.01714e-05
0.000154862
0.000389335
0.000378174
0.000149597
2.01315e-05
2.02585e-05
0.000156246
0.000394695
0.000383347
0.00015086
2.02183e-05
2.03429e-05
0.00015764
0.000400218
0.000388619
0.00015237
2.03028e-05
2.0448e-05
0.000159508
0.000405841
0.000394087
0.000154237
2.04216e-05
2.05722e-05
0.000161314
0.000411883
0.00040001
0.000155853
2.05316e-05
2.06661e-05
0.000163024
0.000417966
0.000405934
0.000157456
2.06284e-05
2.07656e-05
0.000164788
0.000424354
0.00041215
0.000159159
2.07294e-05
2.08724e-05
0.000166614
0.000431021
0.00041863
0.000160915
2.08359e-05
2.09826e-05
0.000168538
0.000438015
0.0004254
0.000162756
2.09467e-05
2.10983e-05
0.000170536
0.000445196
0.000432355
0.00016467
2.10627e-05
2.12182e-05
0.000172626
0.000452688
0.000439621
0.00016667
2.11824e-05
2.13425e-05
0.000174795
0.000460432
0.000447145
0.000168751
2.13069e-05
2.14721e-05
0.000177081
0.000468571
0.000455034
0.00017094
2.14372e-05
2.16083e-05
0.000179457
0.000476938
0.000463147
0.000173216
2.15729e-05
2.17481e-05
0.000181926
0.000485682
0.000471624
0.00017557
2.17106e-05
2.18903e-05
0.000184438
0.000494636
0.000480249
0.000177939
2.18517e-05
2.20343e-05
0.000186965
0.000503814
0.000489094
0.000180362
2.19933e-05
2.2181e-05
0.000189631
0.000513138
0.000498136
0.000182951
2.21382e-05
2.23307e-05
0.000192332
0.000522849
0.000507581
0.000185305
2.22847e-05
2.24647e-05
0.000194554
0.000532803
0.000517209
0.000187242
2.24049e-05
2.25885e-05
0.000196697
0.000542942
0.0005269
0.000189436
2.25373e-05
2.27444e-05
0.000199062
0.00055326
0.000536835
0.000191645
2.26899e-05
2.29063e-05
0.000201203
0.000564084
0.000547391
0.000193505
2.28519e-05
2.30874e-05
0.000203133
0.000575614
0.000558886
0.000195336
2.30402e-05
2.33367e-05
0.000205331
0.0005893
0.000573164
0.000197662
2.33117e-05
2.36337e-05
0.000208688
0.000606831
0.000591296
0.000201426
2.3628e-05
2.39245e-05
0.000216009
0.000634933
0.000616156
0.000206531
2.40205e-05
2.42874e-05
0.000224935
0.000660382
0.000641294
0.000213896
2.41497e-05
2.45341e-05
0.000234922
0.000692904
0.000670364
0.000223287
2.4542e-05
2.49675e-05
0.00024198
0.000718828
0.000701657
0.000235076
2.50367e-05
2.54e-05
0.000250467
0.000753885
0.000736455
0.000241854
2.54286e-05
2.57703e-05
0.000258048
0.000790575
0.000778487
0.000256803
2.60989e-05
2.64774e-05
0.000278367
0.000837647
0.000822429
0.000268393
2.66295e-05
2.69877e-05
0.000287183
0.000874274
0.000861179
0.00027901
2.71414e-05
2.75323e-05
0.00029603
0.0009118
0.00089974
0.000290169
2.78847e-05
2.85186e-05
0.000306547
0.000942243
0.000922518
0.00030248
2.90588e-05
3.00291e-05
0.000309668
0.000960305
0.000936176
0.00030893
3.15955e-05
3.41925e-05
0.000326884
0.000975395
0.000946731
0.000327067
3.73979e-05
4.27281e-05
0.000383538
0.000990839
0.000952414
0.000431463
3.26998e-05
2.14406e-05
9.14029e-05
0.000273315
0.00080883
0.000262074
2.75854e-05
3.06877e-05
0.000252585
0.000788675
0.000903939
0.00030169
3.55676e-05
4.22905e-05
0.000304527
0.000949675
0.00129909
0.000364995
5.34716e-05
8.79845e-05
0.000498804
0.00231909
0.00342051
0.00135551
0.00015146
0.000177158
0.0013567
0.00375005
0.00467175
0.00196406
0.000212123
0.000233472
0.00216286
0.00506483
0.00492491
0.00208712
0.000223822
0.000202866
0.00161631
0.00370807
0.0047273
0.00186234
0.000244955
0.000282458
0.00210854
0.00502263
0.0054532
0.00229047
0.000328154
0.000357876
0.0024245
0.00579419
0.00584214
0.00250689
0.000407699
0.000462828
0.00302508
0.00709512
0.00745441
0.00328322
0.000524671
0.00051654
0.00344895
0.00782145
0.00623977
0.00287988
0.000471599
0.000470769
0.00296177
0.00648489
0.00615443
0.00286745
0.000470864
0.00045739
0.00299159
0.00638677
0.00506622
0.00253882
0.000426209
0.000434589
0.00267256
0.00551988
0.00626296
0.0030007
0.000473061
0.000505986
0.0032782
0.00692292
0.00696539
0.00342038
0.00051379
0.000528413
0.00335295
0.00648188
0.00560727
0.00372334
0.000573526
0.000653929
0.00416882
0.00460665
0.0037724
0.00358794
0.000677297
0.00075285
0.00317184
0.00357795
0.0031033
0.00256203
0.000837053
0.00095619
0.00230248
0.00251979
0.00207484
0.00182511
0.00100015
0.000913311
0.0015618
0.00201222
0.00189142
0.00133231
0.00103923
0.000636906
0.00117552
0.00193312
0.00207061
0.001156
0.000780186
0.000403227
0.00121588
0.00238707
0.00260925
0.00132281
0.000411045
0.000337858
0.00106669
0.00333773
0.00178256
0.000820106
0.000328371
0.000312527
0.000804898
0.00201
0.00196251
0.000773439
0.000307999
0.000276666
0.000671087
0.00131675
0.00166023
0.000725665
0.000268252
0.000251584
0.000724259
0.00153744
0.00141378
0.000679011
0.000225262
0.000199772
0.000606844
0.00107375
0.00140674
0.000683395
0.000189846
0.000177633
0.000716298
0.00136126
0.00131061
0.00068722
0.000161221
0.000142637
0.000645574
0.0010541
0.00141568
0.000747859
0.000139151
0.000150047
0.000769383
0.0013097
0.00212704
0.00100954
0.000176118
0.000202618
0.00113344
0.00239018
0.00247712
0.00120544
0.000194823
0.00018401
0.00115596
0.00204147
0.00280936
0.00138488
0.000199378
0.000213515
0.00149903
0.00279874
0.00268613
0.00142668
0.00019158
0.000176453
0.00129001
0.00215155
0.00273529
0.0014912
0.000188343
0.000205279
0.00160741
0.00285655
0.00272089
0.00153924
0.000188939
0.000166534
0.00137154
0.00259556
0.00202588
0.0011399
0.000144132
0.000151768
0.00136662
0.0026408
0.00248121
0.00124495
0.000148953
0.000120002
0.00107062
0.00207218
0.00116309
0.000337091
6.52139e-05
5.22771e-05
0.000423971
0.0015861
0.00133228
0.000384201
6.27978e-05
4.89829e-05
0.000314087
0.000950161
0.000908839
0.00030307
3.93248e-05
2.72703e-05
0.00012796
0.00035844
0.000956892
0.000506372
4.07452e-05
5.34925e-05
0.000489242
0.000966039
0.000793541
0.000332877
4.52081e-05
3.61848e-05
0.000290427
0.000731735
0.000269473
0.000108024
2.54274e-05
3.46222e-05
0.000417204
0.000813108
0.000760161
0.000349534
4.50798e-05
3.66838e-05
0.000295841
0.000688509
0.000263249
0.000114433
2.68122e-05
3.53939e-05
0.000416882
0.000783474
0.000718492
0.000331568
4.60262e-05
3.72658e-05
0.000273688
0.000618699
0.000235619
0.000106889
2.66918e-05
3.30799e-05
0.000353713
0.00069994
0.000666653
0.000319702
4.34764e-05
3.78272e-05
0.000229433
0.000528987
0.000496255
0.000214685
3.13979e-05
2.4749e-05
9.01157e-05
0.00019432
0.000596683
0.000301713
2.98845e-05
4.01982e-05
0.000260224
0.000541308
0.000464574
0.000215051
3.27367e-05
2.50533e-05
8.78485e-05
0.000182669
0.000535113
0.000272914
2.84491e-05
3.79298e-05
0.000230862
0.000474171
0.000425668
0.000201374
3.1355e-05
2.46995e-05
8.40599e-05
0.000171989
0.000515876
0.000263406
2.79973e-05
3.72831e-05
0.000229654
0.000465388
0.000403294
0.000193015
3.11442e-05
2.44786e-05
8.07053e-05
0.000163217
0.000462411
0.000239471
2.65727e-05
3.56985e-05
0.000208322
0.000412928
0.000372414
0.000181529
3.00624e-05
2.42267e-05
7.81292e-05
0.000156489
0.000446842
0.000233022
2.58988e-05
3.50504e-05
0.000207722
0.000405927
0.000351997
0.000172
2.99199e-05
2.41195e-05
7.59362e-05
0.000148916
0.000401334
0.000214024
2.44669e-05
3.20722e-05
0.000200281
0.000386094
0.000166259
8.91519e-05
2.54101e-05
2.70174e-05
0.000244661
0.000451264
0.000402821
0.000212519
3.6263e-05
3.10306e-05
0.000180361
0.000346339
0.000153628
8.06163e-05
2.48586e-05
2.55606e-05
0.000219504
0.000398021
0.000362669
0.000193875
3.48236e-05
3.03088e-05
0.000171432
0.000320958
0.00014474
7.63379e-05
2.47947e-05
2.41608e-05
0.000194751
0.000343545
0.000327269
0.0001838
3.14192e-05
2.49535e-05
8.3759e-05
0.000149857
0.0003629
0.000207261
2.49731e-05
3.37475e-05
0.000180555
0.00032028
0.000287623
0.000160897
2.9291e-05
2.4279e-05
7.33271e-05
0.000135649
0.000302634
0.000177717
2.32518e-05
3.0509e-05
0.000171688
0.000293349
0.000141087
8.12137e-05
2.45939e-05
2.42506e-05
0.000191967
0.000327448
0.000303429
0.000177426
3.31943e-05
2.93495e-05
0.000152944
0.000269222
0.000130046
7.47208e-05
2.40501e-05
2.28547e-05
0.000171157
0.000279332
0.000270322
0.000162047
2.9739e-05
2.38349e-05
7.97154e-05
0.000132856
0.000297049
0.000179501
2.3403e-05
3.19366e-05
0.000163326
0.00026971
0.0002452
0.000142613
2.82139e-05
2.37057e-05
7.40961e-05
0.000122493
0.000246048
0.000158183
2.23641e-05
2.9741e-05
0.000148388
0.000238331
0.000125679
8.09029e-05
2.40268e-05
2.28878e-05
0.000165699
0.000255915
0.000242965
0.000155181
3.15418e-05
2.79874e-05
0.000132436
0.000219704
0.000112364
7.291e-05
2.33003e-05
2.16691e-05
0.000145284
0.000218784
0.000212937
0.000135435
2.86095e-05
2.30082e-05
7.68526e-05
0.000113942
0.000228361
0.000153239
2.15801e-05
2.88024e-05
0.000142117
0.000217854
0.000119097
8.09445e-05
2.34285e-05
2.21042e-05
0.000156754
0.000228076
0.000217052
0.000143573
2.96816e-05
2.43645e-05
8.44561e-05
0.00012225
0.000237306
0.000160468
2.30235e-05
3.17919e-05
0.000149729
0.000228288
0.000201414
0.000131347
2.83158e-05
2.37396e-05
7.73767e-05
0.000110223
0.000207097
0.000141701
2.19977e-05
2.97256e-05
0.000133644
0.000193629
0.000110645
8.23364e-05
2.42897e-05
2.22377e-05
0.000143429
0.000203487
0.000191134
0.000134539
2.97327e-05
2.42852e-05
8.41346e-05
0.000111358
0.000207889
0.000147152
2.24631e-05
3.01872e-05
0.00013776
0.000194168
0.000115068
8.79299e-05
2.493e-05
2.33603e-05
0.000148923
0.000211359
0.000206897
0.000144969
3.27122e-05
2.94322e-05
0.000127442
0.000183667
0.00010401
8.13903e-05
2.45681e-05
2.21692e-05
0.000135626
0.000191833
0.000180049
0.000128832
3.01571e-05
2.4712e-05
8.4477e-05
0.000105308
0.000194428
0.000139741
2.2363e-05
3.03981e-05
0.000131955
0.000180834
0.000107692
8.76583e-05
2.50263e-05
2.28521e-05
0.000141365
0.000193345
0.00017984
0.000132701
3.08847e-05
2.52547e-05
8.92547e-05
0.000108216
0.00019633
0.000143249
2.29377e-05
3.10094e-05
0.00013528
0.000182334
0.000110329
9.17017e-05
2.56156e-05
2.32908e-05
0.000144415
0.000195353
0.000181378
0.00013588
3.15449e-05
2.62056e-05
9.42141e-05
0.000111312
0.000196467
0.000143702
2.40442e-05
3.37049e-05
0.000140766
0.000186621
0.000168954
0.000126263
3.02823e-05
2.52314e-05
8.56695e-05
0.00010024
0.000172596
0.000127417
2.25341e-05
3.10652e-05
0.000122081
0.000162205
9.97786e-05
8.80457e-05
2.55216e-05
2.26225e-05
0.000128092
0.000169738
0.000159147
0.000122317
3.10166e-05
2.5543e-05
8.93358e-05
9.96156e-05
0.0001702
0.000129201
2.27842e-05
3.11922e-05
0.000123019
0.000159039
0.000100372
9.09722e-05
2.56954e-05
2.28089e-05
0.000129456
0.000169226
0.000159024
0.000123825
3.12893e-05
2.60384e-05
9.24788e-05
0.000101275
0.000171264
0.00013122
2.31696e-05
3.17111e-05
0.000125263
0.000160484
0.000102627
9.4526e-05
2.62927e-05
2.35503e-05
0.000132247
0.00017181
0.000161743
0.000126681
3.2246e-05
2.68183e-05
9.65062e-05
0.000104178
0.000174756
0.000134858
2.38465e-05
3.24966e-05
0.000128925
0.000164009
0.000105962
9.84572e-05
2.71321e-05
2.41142e-05
0.000135675
0.000175362
0.000165343
0.000130322
3.2994e-05
2.76995e-05
0.000100682
0.000107476
0.000179222
0.000138862
2.47175e-05
3.37155e-05
0.000133253
0.000168747
0.000110999
0.000104385
2.84814e-05
2.58273e-05
0.000142172
0.000184588
0.000179147
0.000143532
3.61761e-05
3.2815e-05
0.000130436
0.000160978
0.000103971
9.69513e-05
2.75408e-05
2.4422e-05
0.000130459
0.000170153
0.000161608
0.000125685
3.38459e-05
2.81249e-05
9.88459e-05
0.000104266
0.000172041
0.000133314
2.4731e-05
3.38854e-05
0.000128227
0.000162093
0.000106208
0.000100864
2.80957e-05
2.47398e-05
0.000134714
0.000172215
0.000161893
0.000129529
3.3893e-05
2.82668e-05
0.000102397
0.000106963
0.00017431
0.000136521
2.50712e-05
3.42918e-05
0.00013146
0.000164254
0.000109113
0.000104024
2.85402e-05
2.51256e-05
0.000137961
0.000175306
0.000165
0.000132713
3.45046e-05
2.87383e-05
0.000105473
0.000109905
0.000177499
0.000139562
2.53569e-05
3.48541e-05
0.000134434
0.000167556
0.000112283
0.000107639
2.92487e-05
2.58689e-05
0.000141656
0.000178952
0.000168625
0.00013638
3.53647e-05
2.95865e-05
0.000109573
0.00011342
0.00018166
0.000143997
2.62174e-05
3.59537e-05
0.000138774
0.000171744
0.000116456
0.00011193
3.00826e-05
2.64615e-05
0.000145876
0.000183264
0.000172903
0.000140574
3.61896e-05
3.03779e-05
0.000113735
0.000117704
0.000186149
0.000148
2.68878e-05
3.69832e-05
0.000142967
0.000176446
0.000121637
0.000117587
3.14096e-05
2.80782e-05
0.00015127
0.000191424
0.000184179
0.000154229
3.94418e-05
3.5554e-05
0.000141378
0.000165431
0.000115421
0.000108707
2.99414e-05
2.64183e-05
0.000136498
0.000170662
0.000162801
0.000132281
3.67365e-05
3.08153e-05
0.000109998
0.000113736
0.000168281
0.000136288
2.67766e-05
3.68977e-05
0.000132086
0.000159278
0.00011303
0.000111571
3.07044e-05
2.67719e-05
0.000136726
0.000166447
0.000158566
0.000132631
3.70226e-05
3.09138e-05
0.00011292
0.0001133
0.000168235
0.000138261
2.69634e-05
3.71032e-05
0.000134069
0.000159748
0.000114681
0.0001149
3.11073e-05
2.72166e-05
0.000139923
0.000170141
0.000162218
0.000135958
3.73605e-05
3.15559e-05
0.000116951
0.000116375
0.000174228
0.00014313
2.77265e-05
3.8223e-05
0.000139034
0.000166065
0.00011948
0.000120334
3.21151e-05
2.82919e-05
0.000146521
0.000177948
0.000170002
0.000142633
3.8895e-05
3.32188e-05
0.000124719
0.0001229
0.000187291
0.000152082
2.96518e-05
4.16601e-05
0.000157133
0.000180579
0.000164378
0.000146271
3.78093e-05
3.20922e-05
0.000118425
0.000121336
0.00017345
0.000142564
2.81828e-05
3.96757e-05
0.000138909
0.000166721
0.000120573
0.000121959
3.34957e-05
2.89539e-05
0.000145893
0.000175565
0.000167438
0.000141821
3.99224e-05
3.35234e-05
0.000124696
0.000122187
0.000179219
0.000149359
2.9152e-05
4.00475e-05
0.0001451
0.000171553
0.000125722
0.000127581
3.38136e-05
2.95234e-05
0.000152517
0.000182873
0.000174382
0.000148549
4.03214e-05
3.4338e-05
0.000131338
0.000128715
0.00018783
0.000155521
3.0674e-05
4.31677e-05
0.000161001
0.000178762
0.000165611
0.000150873
3.94597e-05
3.38967e-05
0.000124383
0.000126752
0.000175355
0.000146792
2.97165e-05
4.14867e-05
0.000142984
0.000168287
0.000125021
0.000128016
3.48304e-05
3.0211e-05
0.000149211
0.00017725
0.000170063
0.00014571
4.16829e-05
3.55009e-05
0.000132598
0.000127472
0.000185468
0.0001547
3.13037e-05
4.44806e-05
0.000161527
0.00017754
0.000163462
0.000152216
4.06814e-05
3.48932e-05
0.000128493
0.000127891
0.000175717
0.000148375
3.05415e-05
4.26775e-05
0.000145101
0.000169171
0.000127685
0.000132425
3.59653e-05
3.10706e-05
0.000152878
0.000179623
0.000171373
0.000149223
4.27673e-05
3.58872e-05
0.000136182
0.000130526
0.000185036
0.000155902
3.13936e-05
4.49517e-05
0.000162923
0.000175512
0.000163842
0.000153689
4.13118e-05
3.57477e-05
0.000130568
0.000130141
0.000175902
0.000149724
3.11716e-05
4.36565e-05
0.000146315
0.000169062
0.00012973
0.000135237
3.67634e-05
3.17352e-05
0.000153671
0.000179419
0.000172259
0.000150389
4.39295e-05
3.7621e-05
0.000141323
0.000132918
0.000189782
0.000160797
3.28719e-05
4.65513e-05
0.000168375
0.000181982
0.000168372
0.000160454
4.31422e-05
3.73337e-05
0.000140258
0.000136152
0.000184023
0.000157762
3.28321e-05
4.5804e-05
0.000155144
0.000177673
0.000139039
0.000147011
3.91849e-05
3.43591e-05
0.000165341
0.000193136
0.000185748
0.000174227
4.84247e-05
4.36142e-05
0.00016506
0.000171127
0.000138836
0.000142319
3.74174e-05
3.28188e-05
0.000158649
0.000185608
0.000179964
0.000155803
4.64878e-05
4.03375e-05
0.00014918
0.000142276
0.000193198
0.000166712
3.52809e-05
4.99435e-05
0.000175693
0.000185757
0.000172562
0.000168384
4.5882e-05
3.95092e-05
0.000149817
0.000144002
0.000188698
0.000164105
3.45969e-05
4.95259e-05
0.000173066
0.000180376
0.000170675
0.000163188
4.50153e-05
3.96548e-05
0.000144498
0.00014178
0.000183353
0.000158481
3.48443e-05
4.89253e-05
0.000156632
0.000177364
0.00014356
0.000154655
4.18139e-05
3.65732e-05
0.000169007
0.000193685
0.000186372
0.00017815
5.17327e-05
4.79089e-05
0.000171653
0.000174363
0.000147246
0.000157574
4.15473e-05
3.59898e-05
0.000171695
0.000197781
0.00019085
0.000180937
5.16797e-05
4.84e-05
0.000173996
0.000178724
0.000151239
0.0001594
4.25472e-05
3.77862e-05
0.000173182
0.000198533
0.000191933
0.000182638
5.40916e-05
5.02745e-05
0.000175106
0.000181461
0.000154956
0.000162138
4.36317e-05
3.76231e-05
0.000174253
0.00019824
0.000192077
0.000183938
5.34256e-05
4.96786e-05
0.000176413
0.00018051
0.000155056
0.000163843
4.40851e-05
3.91345e-05
0.000175632
0.000199467
0.000191169
0.000176205
5.63795e-05
5.4302e-05
0.000189553
0.000181533
0.000176532
0.000178856
5.10655e-05
4.49403e-05
0.000160159
0.000156548
0.000190857
0.000168639
3.82874e-05
5.59298e-05
0.000178861
0.00018459
0.000175393
0.000172226
5.26798e-05
4.63256e-05
0.000165639
0.000154124
0.000196183
0.000174573
4.04837e-05
5.84227e-05
0.000173756
0.000188512
0.000179527
0.000185248
5.73156e-05
5.22442e-05
0.000176068
0.00017378
0.000154147
0.00016607
4.69796e-05
4.1772e-05
0.000175133
0.000198694
0.00019291
0.000173688
6.16726e-05
5.93256e-05
0.000192947
0.000183639
0.000177081
0.000183669
5.54e-05
4.81597e-05
0.000171249
0.000160094
0.000200037
0.00017734
4.02111e-05
5.96223e-05
0.000180333
0.000192067
0.000186052
0.000186816
5.97447e-05
6.05655e-05
0.000185576
0.000180037
0.000177378
0.000176565
5.89153e-05
5.20237e-05
0.000172031
0.000160094
0.00019946
0.000176258
4.28265e-05
6.40431e-05
0.000180939
0.000195221
0.000188495
0.000182072
6.55994e-05
6.70448e-05
0.000189056
0.00018276
0.000180532
0.000183443
6.70056e-05
6.54311e-05
0.000186357
0.000175185
0.00017106
0.000176216
6.25576e-05
5.62771e-05
0.000175453
0.000159447
0.000196383
0.000177753
4.63634e-05
6.49277e-05
0.00017556
0.000191478
0.000183037
0.000187932
6.49099e-05
6.83795e-05
0.000185284
0.000180737
0.000178938
0.000185035
7.10079e-05
7.26823e-05
0.000180294
0.000178308
0.00017567
0.000182596
7.56648e-05
7.68238e-05
0.000178144
0.000175736
0.000174935
0.000188062
7.79583e-05
7.92028e-05
0.000191265
0.000175721
0.000177784
0.00020339
7.86453e-05
7.69114e-05
0.000211289
0.000179283
0.000184558
0.00022699
7.49787e-05
7.2727e-05
0.000233746
0.000186613
0.000194811
0.000246849
7.07823e-05
6.8759e-05
0.000245409
0.000197566
0.000208087
0.000258376
6.70959e-05
6.54137e-05
0.00025816
0.000211806
0.000224343
0.000269506
6.40429e-05
6.27374e-05
0.00027296
0.000228823
0.000244484
0.000280963
6.16401e-05
6.06542e-05
0.000286541
0.000250235
0.000269468
0.000292305
5.98021e-05
5.90727e-05
0.000298194
0.000275838
0.000297323
0.000304037
5.84194e-05
5.79063e-05
0.000309747
0.000304752
0.000327242
0.00031575
5.73954e-05
5.70923e-05
0.000321651
0.000335964
0.000359659
0.000327925
5.66819e-05
5.6578e-05
0.000333901
0.000367986
0.000394169
0.000340091
5.62555e-05
5.62975e-05
0.000346043
0.00039601
0.000422331
0.000352363
5.60639e-05
5.61763e-05
0.000358157
0.000424212
0.000449867
0.000364302
5.60458e-05
5.61913e-05
0.000369978
0.000451622
0.000476741
0.000376151
5.61494e-05
5.63077e-05
0.000381479
0.000478186
0.000502284
0.000387367
5.63302e-05
5.64852e-05
0.000392396
0.000503445
0.000526651
0.000398212
5.65404e-05
5.66911e-05
0.000402763
0.000527287
0.000549303
0.000408207
5.67725e-05
5.69182e-05
0.00041241
0.00054959
0.000570369
0.000417658
5.69962e-05
5.71552e-05
0.000421426
0.000570193
0.000589656
0.000426108
5.723e-05
5.7394e-05
0.000429583
0.00058936
0.000607844
0.000433986
5.74545e-05
5.7613e-05
0.000436966
0.000607072
0.00062442
0.000441004
5.7664e-05
5.78163e-05
0.00044366
0.000623584
0.000640109
0.000447497
5.78534e-05
5.79994e-05
0.000449685
0.000638833
0.000654443
0.000453169
5.80297e-05
5.81696e-05
0.000455088
0.000653177
0.000668107
0.000458379
5.81891e-05
5.83208e-05
0.000459875
0.000666435
0.000680651
0.000462841
5.83355e-05
5.84597e-05
0.00046413
0.00067904
0.000692737
0.000466938
5.84658e-05
5.85813e-05
0.000467857
0.000690718
0.00070382
0.000470376
5.85837e-05
5.86924e-05
0.000471166
0.00070189
0.000714661
0.000473578
5.8689e-05
5.87909e-05
0.000474049
0.000712335
0.000724579
0.000476207
5.87852e-05
5.88808e-05
0.000476504
0.000722148
0.000734358
0.000478628
5.88699e-05
5.89609e-05
0.000478803
0.000731737
0.000743395
0.000480706
5.89491e-05
5.90363e-05
0.000480888
0.000741028
0.000752517
0.000482747
5.90209e-05
5.91047e-05
0.000482711
0.000749759
0.000760873
0.000484368
5.90896e-05
5.917e-05
0.00048435
0.000758283
0.00076933
0.000485998
5.91525e-05
5.92299e-05
0.000485801
0.000766356
0.000777204
0.000487282
5.92131e-05
5.92877e-05
0.000487143
0.000774339
0.000783518
0.000488646
5.92694e-05
5.93417e-05
0.000488343
0.000781692
0.000788758
0.000489697
5.9325e-05
5.93947e-05
0.000489452
0.000788804
0.000793495
0.00049083
5.93771e-05
5.9444e-05
0.000490419
0.00079522
0.000797898
0.000491644
5.94277e-05
5.94914e-05
0.000491291
0.000801393
0.000801777
0.000492534
5.9474e-05
5.95341e-05
0.00049201
0.000806858
0.000805347
0.000493099
5.95179e-05
5.95742e-05
0.000492633
0.000812142
0.000808489
0.000493746
5.95571e-05
5.96096e-05
0.000493118
0.000815438
0.000811307
0.00049408
5.95936e-05
5.96423e-05
0.000493522
0.000818366
0.000813769
0.000494507
5.96253e-05
5.96699e-05
0.000493787
0.000820503
0.000815892
0.000494623
5.96539e-05
5.96944e-05
0.000493976
0.000822829
0.000817781
0.000494844
5.96776e-05
5.97142e-05
0.000494043
0.000824408
0.000819393
0.000494774
5.96988e-05
5.97316e-05
0.000494059
0.000826251
0.000820834
0.000494836
5.97156e-05
5.97449e-05
0.000493979
0.000827399
0.000822058
0.000494633
5.97302e-05
5.97563e-05
0.000493875
0.000828877
0.000823172
0.000494588
5.97412e-05
5.97644e-05
0.000493699
0.000829716
0.000824123
0.000494298
5.97506e-05
5.97714e-05
0.000493518
0.000830941
0.000825007
0.000494185
5.97572e-05
5.97756e-05
0.000493281
0.000831554
0.000825754
0.000493843
5.97628e-05
5.97793e-05
0.000493055
0.000832581
0.000826453