/*--------------------------------*- C++ -*----------------------------------*\
| =========                 |                                                 |
| \\      /  F ield         | OpenFOAM: The Open Source CFD Toolbox           |
|  \\    /   O peration     | Version:  v2006                                 |
|   \\  /    A nd           | Website:  www.openfoam.com                      |
|    \\/     M anipulation  |                                                 |
\*---------------------------------------------------------------------------*/
FoamFile
{
    version     2.0;
    format      ascii;
    class       volScalarField;
    location    "0.038";
    object      turbulenceProperties:L;
}
// * * * * * * * * * * * * * * * * * * * * * * * * * * * * * * * * * * * * * //

dimensions      [0 1 0 0 0 0 0];


internalField   nonuniform List<scalar> 
12716
(
1999.99
1999.99
2000
2000
2000
2000
2000
2000
1999.98
1999.87
1999.51
1998.9
1998.2
1997.54
1996.98
1996.54
1996.18
1995.87
1995.6
1995.34
1995.09
1994.86
1994.64
1994.43
1994.23
1994.04
1993.86
1993.69
1993.53
1993.36
1993.19
1993
1992.78
1992.48
1992.04
1991.33
1990.13
1988.04
1984.29
1977.49
1965.12
1942.65
1902.32
1831.69
1713.52
1530.52
1278.48
981.862
690.45
449.936
277.575
165.516
96.8067
56.0789
32.6545
20.1512
16.8079
11.9527
10.2044
10.1868
9.36789
4.39658
2.48017
1.5382
0.812508
0.340944
0.129981
0.0349815
0.00381047
0.00067189
4.60773e-05
4.38482e-05
0.000303706
0.00137039
0.000845462
0.000224068
4.19773e-05
4.07093e-05
0.00019592
0.000655537
0.000575325
0.000185459
4.03204e-05
3.99424e-05
0.000177584
0.000521358
0.000492285
0.000174226
3.97985e-05
3.97154e-05
0.000171042
0.000466073
0.000454205
0.000170156
3.9673e-05
3.96217e-05
0.000167041
0.000435744
0.000430343
0.000166906
3.9586e-05
3.9544e-05
0.000164303
0.000417332
0.000413778
0.000164391
3.95154e-05
3.948e-05
0.000162068
0.000403593
0.000401019
0.000162202
3.94563e-05
3.94257e-05
0.000160134
0.00039245
0.00039051
0.00016018
3.94052e-05
3.9378e-05
0.000158333
0.000383005
0.000381512
0.000158312
3.93597e-05
3.93348e-05
0.000156637
0.000374775
0.000373607
0.000156585
3.9318e-05
3.92948e-05
0.000155044
0.000367478
0.00036653
0.000154976
3.92791e-05
3.92571e-05
0.000153542
0.000360916
0.00036013
0.000153468
3.92421e-05
3.9221e-05
0.000152122
0.000354945
0.000354288
0.000152052
3.92065e-05
3.9186e-05
0.000150781
0.000349459
0.000348909
0.000150719
3.91719e-05
3.91518e-05
0.000149511
0.000344384
0.000343924
0.000149461
3.91379e-05
3.91181e-05
0.000148307
0.000339658
0.000339274
0.00014827
3.91042e-05
3.90845e-05
0.000147163
0.000335227
0.00033491
0.000147139
3.90706e-05
3.90509e-05
0.000146071
0.000331041
0.000330794
0.000146061
3.90369e-05
3.90172e-05
0.000145028
0.000327088
0.000326903
0.000145032
3.9003e-05
3.8983e-05
0.000144029
0.000323343
0.000323211
0.000144047
3.89685e-05
3.89482e-05
0.000143071
0.00031978
0.000319693
0.000143102
3.89333e-05
3.89126e-05
0.000142149
0.000316378
0.000316326
0.000142192
3.88973e-05
3.8876e-05
0.000141258
0.000313112
0.000313089
0.000141313
3.88602e-05
3.88382e-05
0.000140395
0.000309964
0.000309964
0.000140461
3.88217e-05
3.87989e-05
0.000139554
0.000306916
0.000306933
0.000139632
3.87817e-05
3.87579e-05
0.000138735
0.000303954
0.000303984
0.000138824
3.87398e-05
3.87149e-05
0.000137933
0.000301065
0.000301105
0.000138033
3.86958e-05
3.86696e-05
0.000137146
0.000298237
0.000298281
0.000137256
3.86493e-05
3.86216e-05
0.000136369
0.000295455
0.000295498
0.000136488
3.86e-05
3.85706e-05
0.000135597
0.000292706
0.000292742
0.000135724
3.85474e-05
3.8516e-05
0.000134827
0.000289974
0.000289997
0.000134961
3.84911e-05
3.84573e-05
0.000134053
0.000287245
0.000287251
0.000134196
3.84303e-05
3.83938e-05
0.000133275
0.000284508
0.000284496
0.000133429
3.83645e-05
3.83248e-05
0.000132491
0.000281757
0.000281725
0.000132658
3.82928e-05
3.82496e-05
0.000131702
0.000278986
0.000278931
0.000131878
3.82145e-05
3.81671e-05
0.000130905
0.000276187
0.000276109
0.000131091
3.81285e-05
3.80764e-05
0.0001301
0.000273356
0.000273256
0.000130302
3.80338e-05
3.79762e-05
0.000129292
0.000270493
0.000270373
0.000129511
3.7929e-05
3.78652e-05
0.00012848
0.0002676
0.000267463
0.000128722
3.78128e-05
3.77419e-05
0.000127671
0.000264684
0.00026454
0.000127943
3.76836e-05
3.76047e-05
0.000126876
0.000261762
0.000261623
0.000127188
3.75397e-05
3.74518e-05
0.000126109
0.000258863
0.000258797
0.000126473
3.73795e-05
3.72815e-05
0.000125402
0.000256046
0.000256107
0.000125835
3.72013e-05
3.70927e-05
0.000124813
0.000253385
0.000253623
0.000125314
3.70043e-05
3.68847e-05
0.000124359
0.000250958
0.000251453
0.000124958
3.67883e-05
3.66579e-05
0.000124103
0.000248888
0.000249655
0.000124831
3.65545e-05
3.64146e-05
0.000124109
0.000247305
0.000248489
0.000125008
3.63063e-05
3.61598e-05
0.000124461
0.000246429
0.000248148
0.000125571
3.60502e-05
3.59016e-05
0.000125239
0.000246433
0.000248783
0.000126595
3.57956e-05
3.5651e-05
0.000126504
0.000247475
0.000250544
0.000128124
3.55546e-05
3.54206e-05
0.00012828
0.000249685
0.000253516
0.000130171
3.53398e-05
3.52231e-05
0.000130562
0.000253171
0.000257686
0.000132676
3.51624e-05
3.50676e-05
0.000133239
0.000257862
0.000262932
0.000135509
3.50286e-05
3.49582e-05
0.000136148
0.000263547
0.000268998
0.000138518
3.49382e-05
3.48961e-05
0.000139038
0.000269993
0.000275435
0.000141142
3.48915e-05
3.48724e-05
0.000141252
0.000276465
0.000281872
0.000143193
3.48749e-05
3.48677e-05
0.000143087
0.000282888
0.000288163
0.000144874
3.48763e-05
3.4876e-05
0.000144606
0.000288936
0.000293933
0.000146207
3.48886e-05
3.48931e-05
0.000145809
0.000294381
0.000299009
0.000147181
3.49117e-05
3.49188e-05
0.000146687
0.000299102
0.000303329
0.000147822
3.49406e-05
3.4949e-05
0.00014725
0.000303074
0.000306904
0.000148183
3.49716e-05
3.49805e-05
0.000147555
0.00030635
0.000309793
0.000148319
3.50027e-05
3.50113e-05
0.000147656
0.000309021
0.000312077
0.00014827
3.50328e-05
3.50413e-05
0.000147598
0.000311148
0.000313836
0.000148083
3.50616e-05
3.50696e-05
0.000147419
0.000312776
0.000315138
0.000147804
3.50886e-05
3.5096e-05
0.000147156
0.000313978
0.000316027
0.00014746
3.51137e-05
3.51207e-05
0.000146832
0.000314817
0.000316611
0.000147077
3.51373e-05
3.51441e-05
0.000146473
0.000315383
0.000316979
0.000146683
3.51597e-05
3.51662e-05
0.000146099
0.00031575
0.000317171
0.000146297
3.51814e-05
3.51881e-05
0.00014572
0.000315947
0.000317199
0.000145906
3.52031e-05
3.52095e-05
0.00014533
0.000315973
0.000317078
0.000145506
3.52233e-05
3.52295e-05
0.000144921
0.000315837
0.00031681
0.000145096
3.52423e-05
3.5248e-05
0.000144508
0.000315538
0.000316438
0.000144681
3.52595e-05
3.52645e-05
0.000144093
0.000315094
0.000315965
0.000144264
3.52753e-05
3.52798e-05
0.000143676
0.000314558
0.000315393
0.000143844
3.52897e-05
3.52937e-05
0.000143254
0.000313926
0.000314721
0.000143418
3.53023e-05
3.53055e-05
0.000142824
0.000313198
0.000313955
0.000142983
3.53128e-05
3.53152e-05
0.000142384
0.000312383
0.000313105
0.000142537
3.53215e-05
3.53236e-05
0.000141928
0.000311464
0.000312221
0.000142091
3.53289e-05
3.53232e-05
0.000141466
0.000310484
0.00031112
0.000141527
3.53418e-05
3.52978e-05
0.00014098
0.000309262
0.000310994
0.000141559
3.54689e-05
3.56112e-05
0.000141316
0.000311442
0.00031618
0.000143766
3.62727e-05
3.65454e-05
0.000145158
0.00031982
0.000317597
0.000144282
3.69979e-05
3.74331e-05
0.000149167
0.000329175
0.000332526
0.000150991
3.82247e-05
0.000823946
0.0014453
0.00206883
0.00266908
0.00314317
0.00362136
0.00400108
0.00430833
0.00452237
0.00465462
0.0047003
0.00465952
0.00453651
0.00432747
0.00405164
0.00369763
0.00330508
0.00284835
0.00246317
0.00200266
0.00144927
0.00101022
0.000781215
0.000396397
0.000132371
6.63253e-05
1.94884e-05
1.24382e-05
6.01597e-05
0.00011367
4.37025e-05
1.9144e-05
6.57353e-06
8.76665e-06
4.04015e-05
9.20249e-05
8.47647e-05
3.678e-05
9.71182e-06
9.78466e-06
3.98493e-05
9.11868e-05
8.54664e-05
3.70635e-05
9.64366e-06
9.57189e-06
3.8218e-05
8.75922e-05
8.38473e-05
3.63951e-05
9.45058e-06
9.37602e-06
3.77368e-05
8.62138e-05
8.36766e-05
3.62277e-05
9.25654e-06
9.28489e-06
3.74361e-05
8.65303e-05
8.39023e-05
3.62171e-05
9.27581e-06
9.31423e-06
3.76313e-05
8.68453e-05
8.45557e-05
3.65027e-05
9.30207e-06
9.33461e-06
3.77795e-05
8.73662e-05
8.50531e-05
3.66337e-05
9.32251e-06
9.35666e-06
3.79252e-05
8.78774e-05
8.5541e-05
3.67913e-05
9.34867e-06
9.3833e-06
3.8112e-05
8.83975e-05
8.60566e-05
3.69608e-05
9.37341e-06
9.40715e-06
3.82366e-05
8.89678e-05
8.66472e-05
3.70176e-05
9.39462e-06
9.42392e-06
3.82894e-05
8.95852e-05
8.72002e-05
3.71342e-05
9.41156e-06
9.44706e-06
3.84577e-05
9.01684e-05
8.77606e-05
3.72937e-05
9.44042e-06
9.47429e-06
3.86321e-05
9.07674e-05
8.83403e-05
3.74606e-05
9.46701e-06
9.5016e-06
3.88125e-05
9.1381e-05
8.89452e-05
3.7642e-05
9.49226e-06
9.52787e-06
3.90129e-05
9.20383e-05
8.95867e-05
3.78299e-05
9.51885e-06
9.55521e-06
3.91986e-05
9.27102e-05
9.02382e-05
3.79963e-05
9.5469e-06
9.5829e-06
3.93873e-05
9.33955e-05
9.08809e-05
3.82155e-05
9.57492e-06
9.61451e-06
3.9682e-05
9.4049e-05
9.15081e-05
3.85291e-05
9.61042e-06
9.65155e-06
3.99845e-05
9.47358e-05
9.22111e-05
3.87621e-05
9.64181e-06
9.67898e-06
4.02051e-05
9.54564e-05
9.29115e-05
3.89751e-05
9.67213e-06
9.70951e-06
4.04386e-05
9.62041e-05
9.36375e-05
3.91999e-05
9.70355e-06
9.74223e-06
4.06816e-05
9.69666e-05
9.43829e-05
3.9432e-05
9.73622e-06
9.77541e-06
4.09342e-05
9.77623e-05
9.51527e-05
3.96733e-05
9.76987e-06
9.80989e-06
4.11945e-05
9.85655e-05
9.59333e-05
3.99218e-05
9.80479e-06
9.84529e-06
4.14642e-05
9.93942e-05
9.67364e-05
4.01788e-05
9.84038e-06
9.88153e-06
4.17414e-05
0.000100236
9.75588e-05
4.0444e-05
9.87721e-06
9.91921e-06
4.20305e-05
0.000101113
9.84059e-05
4.0719e-05
9.91544e-06
9.95821e-06
4.23263e-05
0.000101992
9.92608e-05
4.10015e-05
9.95476e-06
9.99794e-06
4.26311e-05
0.0001029
0.00010014
4.12899e-05
9.99432e-06
1.00384e-05
4.29342e-05
0.00010381
0.000101017
4.15716e-05
1.00354e-05
1.00797e-05
4.32307e-05
0.000104723
0.000101894
4.18567e-05
1.00767e-05
1.01219e-05
4.35482e-05
0.000105634
0.000102786
4.2168e-05
1.01194e-05
1.01654e-05
4.38664e-05
0.000106579
0.000103711
4.24248e-05
1.01633e-05
1.02079e-05
4.40733e-05
0.000107555
0.000104673
4.25767e-05
1.02046e-05
1.02508e-05
4.42589e-05
0.000108548
0.000105586
4.28126e-05
1.02524e-05
1.03019e-05
4.45232e-05
0.000109513
0.000106531
4.30502e-05
1.03037e-05
1.0356e-05
4.47543e-05
0.00011053
0.000107526
4.32481e-05
1.03608e-05
1.0417e-05
4.49592e-05
0.000111625
0.000108664
4.34422e-05
1.04259e-05
1.04943e-05
4.52318e-05
0.000113015
0.000110179
4.37646e-05
1.05127e-05
1.05902e-05
4.57246e-05
0.000114926
0.000112273
4.43344e-05
1.06171e-05
1.06867e-05
4.68875e-05
0.000118421
0.0001153
4.50746e-05
1.0807e-05
1.08778e-05
4.833e-05
0.000121529
0.000118374
4.62449e-05
1.08728e-05
1.10296e-05
4.99864e-05
0.000125623
0.00012201
4.78529e-05
1.11235e-05
1.13704e-05
5.11874e-05
0.000128681
0.000125963
4.99681e-05
1.14786e-05
1.16324e-05
5.27015e-05
0.00013307
0.000130279
5.12011e-05
1.17373e-05
1.19773e-05
5.39414e-05
0.000137471
0.000135625
5.37917e-05
1.22972e-05
1.25338e-05
5.76885e-05
0.000143409
0.000141025
5.59435e-05
1.27332e-05
1.29833e-05
5.93794e-05
0.000147514
0.000145488
5.79721e-05
1.31967e-05
1.35308e-05
6.10661e-05
0.00015151
0.000149572
6.01057e-05
1.38665e-05
1.43195e-05
6.30098e-05
0.000153858
0.00015069
6.23937e-05
1.46803e-05
1.50824e-05
6.31018e-05
0.000153615
0.000149395
6.28245e-05
1.56799e-05
1.63597e-05
6.43817e-05
0.000151868
0.000146496
6.35953e-05
1.73894e-05
1.91419e-05
6.97805e-05
0.000148984
0.000141948
7.50749e-05
1.38943e-05
8.42416e-06
2.16529e-05
5.51603e-05
0.000126426
5.27592e-05
1.15621e-05
1.32111e-05
5.03971e-05
0.000122533
0.000131794
5.64147e-05
1.44661e-05
1.55871e-05
5.58576e-05
0.00013399
0.000161553
6.08388e-05
1.67579e-05
2.8494e-05
7.19951e-05
0.000261259
0.000361802
0.000167409
4.13718e-05
4.71319e-05
0.000164394
0.000385983
0.000460674
0.000220997
5.22256e-05
5.45328e-05
0.000237409
0.000486877
0.00046784
0.000226232
5.19164e-05
4.87215e-05
0.00017973
0.000361888
0.000440756
0.000198583
5.16585e-05
5.48367e-05
0.000217791
0.000458544
0.000484544
0.000228791
5.79152e-05
5.92505e-05
0.000235578
0.000502293
0.000498917
0.000238003
6.16595e-05
6.396e-05
0.000272872
0.000581713
0.00059704
0.000288126
6.57172e-05
6.27255e-05
0.000293557
0.000612344
0.00049118
0.000246879
5.82199e-05
5.56717e-05
0.000248577
0.000501233
0.000468499
0.000237278
5.46631e-05
5.20295e-05
0.000241412
0.000477271
0.000381356
0.000205699
4.85474e-05
4.80825e-05
0.000211317
0.000406418
0.000448849
0.000229243
5.00612e-05
5.16928e-05
0.000243034
0.000483406
0.000478656
0.000247903
5.0992e-05
5.13977e-05
0.000239714
0.000441896
0.000520894
0.000258935
5.33491e-05
5.77074e-05
0.000293088
0.000632161
0.000712482
0.000341637
5.79354e-05
6.1834e-05
0.000391772
0.000762026
0.000879222
0.000452135
6.55168e-05
7.18058e-05
0.000497325
0.000877432
0.000886786
0.000529843
7.31569e-05
8.01657e-05
0.000519897
0.000859107
0.000766875
0.000488324
7.39107e-05
6.64334e-05
0.000327891
0.00060341
0.00073398
0.000273073
5.97602e-05
4.78453e-05
0.00010533
0.000279963
0.000241616
8.74939e-05
4.63528e-05
4.25109e-05
7.48346e-05
0.0002129
0.00012253
6.22481e-05
4.18467e-05
4.0892e-05
6.29987e-05
0.000138251
0.000137296
6.21329e-05
4.18643e-05
4.05866e-05
5.73713e-05
9.94689e-05
0.000123368
6.18117e-05
4.16535e-05
4.20335e-05
6.33747e-05
0.000118318
0.000111837
6.12752e-05
4.08364e-05
3.90228e-05
5.76729e-05
9.01792e-05
0.000114861
6.38909e-05
4.02875e-05
4.09756e-05
6.74278e-05
0.000114167
0.000111995
6.64712e-05
3.97581e-05
3.86365e-05
6.42892e-05
9.46848e-05
0.00012286
7.28196e-05
4.05213e-05
4.47854e-05
7.54105e-05
0.000116406
0.000176625
9.45019e-05
5.05489e-05
5.51987e-05
0.000105498
0.000198956
0.000207684
0.000112518
5.47935e-05
5.42227e-05
0.000109886
0.000177745
0.000236619
0.000128509
5.63153e-05
5.81418e-05
0.00013834
0.000239294
0.000232874
0.000134041
5.45933e-05
5.1456e-05
0.000124578
0.00019329
0.000240836
0.000141813
5.25047e-05
5.49089e-05
0.000152013
0.00025208
0.000244295
0.000148324
5.23149e-05
4.74506e-05
0.000136025
0.000236098
0.000191896
0.000118345
4.29428e-05
4.36455e-05
0.000138211
0.000243361
0.00023406
0.000129895
4.30622e-05
3.5931e-05
0.00011599
0.000202639
0.000125045
4.58318e-05
2.14556e-05
1.61013e-05
5.78903e-05
0.000162973
0.000144392
5.55769e-05
2.06349e-05
1.76095e-05
4.8691e-05
0.000113415
0.000111274
4.8182e-05
1.46066e-05
1.02358e-05
2.38712e-05
5.50401e-05
0.00011836
7.12785e-05
1.56489e-05
2.07432e-05
7.07898e-05
0.000121329
0.000107216
5.30193e-05
1.78712e-05
1.4287e-05
4.85519e-05
0.000102189
4.72127e-05
2.1229e-05
9.71818e-06
1.44295e-05
6.42409e-05
0.000110199
0.000107059
5.71798e-05
1.90349e-05
1.54652e-05
5.10274e-05
0.0001011
4.80748e-05
2.26572e-05
1.06681e-05
1.52955e-05
6.71684e-05
0.000111432
0.000106504
5.70051e-05
1.97833e-05
1.58286e-05
4.92467e-05
9.69457e-05
4.52847e-05
2.17429e-05
1.08453e-05
1.52662e-05
6.07642e-05
0.000105313
0.000103389
5.71817e-05
1.99308e-05
1.70457e-05
4.38249e-05
8.91266e-05
8.65606e-05
4.23225e-05
1.39039e-05
9.89691e-06
1.95528e-05
4.08104e-05
9.72261e-05
5.62414e-05
1.42216e-05
1.87381e-05
5.06547e-05
9.25935e-05
8.40455e-05
4.34848e-05
1.48913e-05
1.02299e-05
1.93823e-05
3.93858e-05
9.12581e-05
5.30208e-05
1.40211e-05
1.83511e-05
4.68989e-05
8.53834e-05
8.02664e-05
4.23542e-05
1.46962e-05
1.03615e-05
1.9008e-05
3.83011e-05
9.05896e-05
5.24988e-05
1.44138e-05
1.88499e-05
4.74799e-05
8.59037e-05
7.8364e-05
4.13256e-05
1.49678e-05
1.03332e-05
1.8408e-05
3.69033e-05
8.45869e-05
4.92412e-05
1.39935e-05
1.83867e-05
4.43953e-05
7.95407e-05
7.48246e-05
3.99853e-05
1.46846e-05
1.02971e-05
1.81027e-05
3.61887e-05
8.37197e-05
4.89294e-05
1.40893e-05
1.85717e-05
4.50709e-05
7.98625e-05
7.26178e-05
3.83951e-05
1.48048e-05
1.01418e-05
1.75958e-05
3.48886e-05
7.80445e-05
4.62265e-05
1.34495e-05
1.69623e-05
4.45519e-05
7.70766e-05
3.86094e-05
2.05225e-05
1.1829e-05
1.55348e-05
5.18462e-05
8.57796e-05
8.07601e-05
4.6721e-05
2.00255e-05
1.58388e-05
4.03445e-05
7.26915e-05
3.6032e-05
1.85544e-05
1.09011e-05
1.45772e-05
4.76645e-05
7.88717e-05
7.54701e-05
4.39176e-05
1.91341e-05
1.53538e-05
3.89967e-05
6.93975e-05
3.44007e-05
1.76755e-05
1.06401e-05
1.37514e-05
4.40256e-05
7.17979e-05
7.00206e-05
4.21969e-05
1.70325e-05
1.17265e-05
1.94965e-05
3.5889e-05
7.4862e-05
4.6519e-05
1.49685e-05
1.92531e-05
4.18892e-05
6.98503e-05
6.47329e-05
3.73692e-05
1.52558e-05
1.06447e-05
1.72237e-05
3.29364e-05
6.66338e-05
4.16657e-05
1.37666e-05
1.71593e-05
4.04853e-05
6.57505e-05
3.47098e-05
1.92389e-05
1.1938e-05
1.52957e-05
4.47718e-05
7.09854e-05
6.85665e-05
4.22303e-05
1.98532e-05
1.58817e-05
3.65079e-05
6.26782e-05
3.20419e-05
1.73012e-05
1.08934e-05
1.39e-05
4.0558e-05
6.35685e-05
6.25354e-05
3.86559e-05
1.71736e-05
1.18031e-05
1.87537e-05
3.31156e-05
6.64105e-05
4.24377e-05
1.49604e-05
1.92151e-05
3.92055e-05
6.29017e-05
5.86074e-05
3.45634e-05
1.52147e-05
1.05842e-05
1.69664e-05
3.05885e-05
5.86641e-05
3.84099e-05
1.36298e-05
1.70269e-05
3.67056e-05
5.79207e-05
3.18837e-05
1.87084e-05
1.17785e-05
1.4907e-05
4.04827e-05
6.10177e-05
5.95411e-05
3.83575e-05
1.93342e-05
1.5321e-05
3.30949e-05
5.49526e-05
2.87379e-05
1.65679e-05
1.05018e-05
1.33327e-05
3.61749e-05
5.42549e-05
5.36551e-05
3.42333e-05
1.65532e-05
1.13105e-05
1.77119e-05
2.94199e-05
5.59735e-05
3.79814e-05
1.40806e-05
1.73512e-05
3.57245e-05
5.45732e-05
3.05097e-05
1.85246e-05
1.18725e-05
1.46243e-05
3.88774e-05
5.6221e-05
5.45292e-05
3.59933e-05
1.79421e-05
1.23857e-05
1.92297e-05
3.12915e-05
5.79372e-05
3.94966e-05
1.53067e-05
1.95217e-05
3.69092e-05
5.65204e-05
5.17738e-05
3.25965e-05
1.54012e-05
1.07131e-05
1.69514e-05
2.82969e-05
5.21785e-05
3.54053e-05
1.35813e-05
1.68575e-05
3.38254e-05
5.04686e-05
2.87185e-05
1.8166e-05
1.16308e-05
1.42134e-05
3.61287e-05
5.18134e-05
5.01253e-05
3.4237e-05
1.73804e-05
1.19709e-05
1.86241e-05
2.90379e-05
5.27863e-05
3.70159e-05
1.4718e-05
1.79778e-05
3.49453e-05
5.08249e-05
2.99141e-05
1.93383e-05
1.24896e-05
1.56443e-05
3.75633e-05
5.38456e-05
5.34462e-05
3.62417e-05
2.00864e-05
1.59508e-05
3.17073e-05
4.87169e-05
2.70473e-05
1.72003e-05
1.10364e-05
1.36846e-05
3.41014e-05
4.93123e-05
4.77724e-05
3.27232e-05
1.69328e-05
1.16699e-05
1.80684e-05
2.74588e-05
4.98403e-05
3.51298e-05
1.42656e-05
1.75267e-05
3.34059e-05
4.79058e-05
2.79713e-05
1.86397e-05
1.21126e-05
1.47088e-05
3.55083e-05
4.9679e-05
4.76396e-05
3.34412e-05
1.78979e-05
1.22978e-05
1.88671e-05
2.80643e-05
5.01947e-05
3.58028e-05
1.4914e-05
1.81632e-05
3.39871e-05
4.81774e-05
2.84833e-05
1.92214e-05
1.25671e-05
1.52195e-05
3.60764e-05
5.00878e-05
4.79436e-05
3.40166e-05
1.8478e-05
1.2834e-05
1.95776e-05
2.86842e-05
5.03477e-05
3.58098e-05
1.56928e-05
1.99302e-05
3.44308e-05
4.88486e-05
4.51902e-05
3.05097e-05
1.57341e-05
1.08798e-05
1.69724e-05
2.55989e-05
4.50384e-05
3.18256e-05
1.35646e-05
1.68242e-05
3.06922e-05
4.36598e-05
2.57507e-05
1.77984e-05
1.1609e-05
1.40177e-05
3.22723e-05
4.45832e-05
4.30764e-05
3.08578e-05
1.71602e-05
1.18072e-05
1.80547e-05
2.58198e-05
4.47663e-05
3.25776e-05
1.43369e-05
1.75034e-05
3.09777e-05
4.30315e-05
2.59114e-05
1.82708e-05
1.20215e-05
1.44395e-05
3.25677e-05
4.448e-05
4.29954e-05
3.11507e-05
1.76221e-05
1.2205e-05
1.85018e-05
2.61189e-05
4.49096e-05
3.29384e-05
1.47556e-05
1.79135e-05
3.13142e-05
4.32299e-05
2.62877e-05
1.87382e-05
1.23621e-05
1.493e-05
3.29883e-05
4.48718e-05
4.3377e-05
3.15185e-05
1.81353e-05
1.25992e-05
1.89941e-05
2.65563e-05
4.53913e-05
3.34604e-05
1.51638e-05
1.83417e-05
3.18495e-05
4.37148e-05
2.67573e-05
1.91704e-05
1.27451e-05
1.52622e-05
3.33938e-05
4.53153e-05
4.38396e-05
3.20251e-05
1.85089e-05
1.29808e-05
1.94928e-05
2.701e-05
4.60195e-05
3.40085e-05
1.56955e-05
1.89765e-05
3.2464e-05
4.44359e-05
2.77494e-05
2.00768e-05
1.34218e-05
1.64802e-05
3.45862e-05
4.71139e-05
4.66361e-05
3.41024e-05
2.07801e-05
1.65337e-05
3.00806e-05
4.26694e-05
2.52419e-05
1.75657e-05
1.15011e-05
1.41913e-05
3.10648e-05
4.31458e-05
4.20013e-05
2.99542e-05
1.74236e-05
1.21652e-05
1.82752e-05
2.53729e-05
4.33818e-05
3.18405e-05
1.46729e-05
1.77642e-05
3.0479e-05
4.1947e-05
2.56855e-05
1.85689e-05
1.23295e-05
1.48089e-05
3.20203e-05
4.32085e-05
4.16683e-05
3.05795e-05
1.78981e-05
1.24763e-05
1.87532e-05
2.57441e-05
4.35158e-05
3.22743e-05
1.50377e-05
1.81427e-05
3.09275e-05
4.20608e-05
2.60712e-05
1.89064e-05
1.262e-05
1.51521e-05
3.24156e-05
4.35509e-05
4.19999e-05
3.09244e-05
1.82702e-05
1.2696e-05
1.90264e-05
2.6095e-05
4.38442e-05
3.25546e-05
1.52895e-05
1.84832e-05
3.12044e-05
4.24069e-05
2.64629e-05
1.93011e-05
1.29589e-05
1.55237e-05
3.28565e-05
4.39514e-05
4.24057e-05
3.1401e-05
1.86436e-05
1.30522e-05
1.9468e-05
2.65221e-05
4.43072e-05
3.31373e-05
1.57343e-05
1.89471e-05
3.1761e-05
4.28826e-05
2.69618e-05
1.97317e-05
1.32878e-05
1.5905e-05
3.33605e-05
4.44446e-05
4.29018e-05
3.19061e-05
1.90852e-05
1.34008e-05
1.98867e-05
2.70692e-05
4.49093e-05
3.35884e-05
1.61614e-05
1.95091e-05
3.23078e-05
4.35542e-05
2.78958e-05
2.05225e-05
1.39183e-05
1.70051e-05
3.42405e-05
4.59953e-05
4.51347e-05
3.37681e-05
2.11986e-05
1.67521e-05
2.97858e-05
4.10764e-05
2.52304e-05
1.77425e-05
1.17049e-05
1.43135e-05
3.01491e-05
4.09873e-05
4.00994e-05
2.92672e-05
1.7497e-05
1.23765e-05
1.84135e-05
2.53107e-05
4.0736e-05
3.05795e-05
1.48841e-05
1.79223e-05
2.93079e-05
3.94324e-05
2.5183e-05
1.85702e-05
1.25145e-05
1.50075e-05
3.0511e-05
4.02362e-05
3.91632e-05
2.9386e-05
1.80961e-05
1.26917e-05
1.88214e-05
2.52433e-05
4.05515e-05
3.08593e-05
1.52598e-05
1.83309e-05
2.963e-05
3.93109e-05
2.54579e-05
1.90688e-05
1.28858e-05
1.54435e-05
3.10328e-05
4.08006e-05
3.97396e-05
3.00048e-05
1.85262e-05
1.31092e-05
1.93287e-05
2.57704e-05
4.15505e-05
3.1621e-05
1.58583e-05
1.89966e-05
3.03486e-05
4.0348e-05
2.62285e-05
1.97308e-05
1.34086e-05
1.61387e-05
3.20451e-05
4.20622e-05
4.10049e-05
3.10077e-05
1.93791e-05
1.39637e-05
2.04674e-05
2.70177e-05
4.39491e-05
3.31815e-05
1.71974e-05
2.14166e-05
3.30806e-05
4.32579e-05
3.98354e-05
2.95349e-05
1.7106e-05
1.20848e-05
1.81521e-05
2.52894e-05
4.04048e-05
3.01792e-05
1.5e-05
1.83434e-05
2.93562e-05
3.96675e-05
2.55008e-05
1.91064e-05
1.30741e-05
1.56845e-05
3.10453e-05
4.07497e-05
3.95761e-05
2.98535e-05
1.88163e-05
1.33368e-05
1.94905e-05
2.57431e-05
4.13386e-05
3.15916e-05
1.59937e-05
1.91434e-05
3.0438e-05
4.02781e-05
2.63942e-05
1.9946e-05
1.36492e-05
1.64216e-05
3.21771e-05
4.19489e-05
4.07167e-05
3.10032e-05
1.95438e-05
1.3998e-05
2.04062e-05
2.69053e-05
4.28189e-05
3.25339e-05
1.69923e-05
2.10674e-05
3.23249e-05
4.16137e-05
3.89842e-05
2.91927e-05
1.69821e-05
1.21985e-05
1.8185e-05
2.53194e-05
3.97589e-05
2.99306e-05
1.51435e-05
1.83491e-05
2.89848e-05
3.89351e-05
2.53897e-05
1.91596e-05
1.30909e-05
1.58408e-05
3.0638e-05
4.00758e-05
3.92167e-05
2.98201e-05
1.90495e-05
1.37528e-05
1.99597e-05
2.60922e-05
4.18176e-05
3.18406e-05
1.69413e-05
2.11593e-05
3.19125e-05
4.09315e-05
3.79976e-05
2.87991e-05
1.70819e-05
1.22652e-05
1.81844e-05
2.49072e-05
3.91203e-05
2.95664e-05
1.52158e-05
1.84645e-05
2.88455e-05
3.84605e-05
2.5338e-05
1.92854e-05
1.32608e-05
1.60194e-05
3.07614e-05
3.99238e-05
3.87705e-05
2.95813e-05
1.90911e-05
1.35983e-05
1.9831e-05
2.58769e-05
4.08722e-05
3.12085e-05
1.65475e-05
2.06661e-05
3.11465e-05
3.96202e-05
3.73589e-05
2.83386e-05
1.67806e-05
1.21664e-05
1.79708e-05
2.46912e-05
3.84938e-05
2.91893e-05
1.51286e-05
1.83363e-05
2.83728e-05
3.77591e-05
2.5058e-05
1.9132e-05
1.31768e-05
1.59494e-05
3.02174e-05
3.921e-05
3.84029e-05
2.94469e-05
1.91965e-05
1.40202e-05
2.02169e-05
2.60373e-05
4.1499e-05
3.18383e-05
1.73283e-05
2.16071e-05
3.20333e-05
4.06932e-05
3.79377e-05
2.90726e-05
1.76295e-05
1.27996e-05
1.88636e-05
2.53824e-05
3.96055e-05
3.01703e-05
1.60047e-05
1.9364e-05
2.95551e-05
3.89996e-05
2.64462e-05
2.04364e-05
1.42033e-05
1.75778e-05
3.20084e-05
4.15896e-05
4.07287e-05
3.21257e-05
2.17348e-05
1.74593e-05
2.91832e-05
3.77908e-05
2.51618e-05
1.86237e-05
1.25971e-05
1.56693e-05
2.97012e-05
3.92426e-05
3.88312e-05
2.92206e-05
1.91609e-05
1.42121e-05
2.02916e-05
2.64482e-05
4.12269e-05
3.1809e-05
1.76914e-05
2.20154e-05
3.21191e-05
4.04361e-05
3.78123e-05
2.93395e-05
1.79853e-05
1.31465e-05
1.9306e-05
2.58549e-05
3.96277e-05
3.03623e-05
1.63902e-05
2.04992e-05
3.0507e-05
3.85637e-05
3.6925e-05
2.8221e-05
1.68508e-05
1.25512e-05
1.82959e-05
2.4939e-05
3.83333e-05
2.90191e-05
1.58465e-05
1.92189e-05
2.85472e-05
3.78041e-05
2.60188e-05
2.03087e-05
1.42171e-05
1.77431e-05
3.14452e-05
4.05872e-05
3.99656e-05
3.19152e-05
2.21779e-05
1.84098e-05
2.95416e-05
3.773e-05
2.61282e-05
1.98568e-05
1.36461e-05
1.73069e-05
3.14196e-05
4.10749e-05
4.03613e-05
3.17356e-05
2.17388e-05
1.80997e-05
2.91813e-05
3.80315e-05
2.61358e-05
1.9677e-05
1.3524e-05
1.72722e-05
3.10771e-05
4.0746e-05
4.01719e-05
3.15868e-05
2.17662e-05
1.82783e-05
2.92881e-05
3.8288e-05
2.6498e-05
1.98095e-05
1.37018e-05
1.73584e-05
3.12249e-05
4.07305e-05
4.00489e-05
3.1564e-05
2.16778e-05
1.81001e-05
2.90393e-05
3.78864e-05
2.61806e-05
1.97045e-05
1.36575e-05
1.74172e-05
3.09471e-05
4.05487e-05
3.97587e-05
3.08476e-05
2.19272e-05
1.92712e-05
2.94537e-05
3.7413e-05
3.69746e-05
2.78335e-05
1.64845e-05
1.26825e-05
1.85228e-05
2.5638e-05
3.89356e-05
2.95067e-05
1.64462e-05
2.092e-05
2.9907e-05
3.82394e-05
3.66102e-05
2.77652e-05
1.77386e-05
1.34444e-05
1.92819e-05
2.55078e-05
3.95358e-05
3.0151e-05
1.73304e-05
2.21622e-05
3.03135e-05
3.92266e-05
3.71976e-05
2.88444e-05
1.98148e-05
1.68772e-05
2.8151e-05
3.67286e-05
2.53299e-05
1.88504e-05
1.31639e-05
1.74807e-05
3.00601e-05
4.01765e-05
4.00797e-05
3.0192e-05
2.24802e-05
2.00048e-05
2.92782e-05
3.75327e-05
3.66378e-05
2.75698e-05
1.70027e-05
1.30842e-05
1.89696e-05
2.55065e-05
3.99185e-05
3.00584e-05
1.69074e-05
2.16269e-05
2.98499e-05
3.91485e-05
3.81322e-05
2.92215e-05
1.97821e-05
1.82042e-05
2.71928e-05
3.66508e-05
3.70523e-05
2.64372e-05
1.64129e-05
1.30921e-05
1.88028e-05
2.5608e-05
4.06665e-05
3.0283e-05
1.7589e-05
2.29886e-05
3.04435e-05
4.06384e-05
3.99655e-05
3.00767e-05
2.1723e-05
2.03793e-05
2.88676e-05
3.88034e-05
3.89734e-05
2.82452e-05
1.90684e-05
1.76699e-05
2.60156e-05
3.63512e-05
3.65557e-05
2.50216e-05
1.59828e-05
1.29051e-05
1.81861e-05
2.4699e-05
3.95949e-05
2.92847e-05
1.72178e-05
2.20004e-05
2.92906e-05
3.94755e-05
3.79982e-05
2.85475e-05
2.04703e-05
1.98676e-05
2.81484e-05
3.80349e-05
3.79393e-05
2.76418e-05
1.92966e-05
1.89145e-05
2.67398e-05
3.81237e-05
3.75894e-05
2.60745e-05
1.88415e-05
1.86994e-05
2.58556e-05
3.812e-05
3.72902e-05
2.58379e-05
1.86165e-05
1.8687e-05
2.61119e-05
3.75133e-05
3.72323e-05
2.67739e-05
1.86833e-05
1.86545e-05
2.7528e-05
3.75284e-05
3.76445e-05
2.84393e-05
1.86144e-05
1.85693e-05
2.93694e-05
3.80108e-05
3.83979e-05
3.0274e-05
1.85269e-05
1.8482e-05
3.09507e-05
3.8821e-05
3.93425e-05
3.1673e-05
1.84408e-05
1.83987e-05
3.2239e-05
3.98231e-05
4.04729e-05
3.27201e-05
1.83601e-05
1.83228e-05
3.34064e-05
4.10098e-05
4.1867e-05
3.36008e-05
1.8288e-05
1.82561e-05
3.43499e-05
4.24927e-05
4.36305e-05
3.43856e-05
1.82257e-05
1.81991e-05
3.51534e-05
4.43191e-05
4.56181e-05
3.51886e-05
1.81731e-05
1.81518e-05
3.59805e-05
4.63957e-05
4.77556e-05
3.60027e-05
1.81295e-05
1.8114e-05
3.68357e-05
4.8683e-05
5.00904e-05
3.68526e-05
1.8095e-05
1.80855e-05
3.76969e-05
5.1148e-05
5.25789e-05
3.77052e-05
1.80696e-05
1.80652e-05
3.85972e-05
5.36851e-05
5.49763e-05
3.8604e-05
1.80524e-05
1.8051e-05
3.95163e-05
5.60237e-05
5.71699e-05
3.95067e-05
1.80417e-05
1.80423e-05
4.04535e-05
5.81727e-05
5.91533e-05
4.04312e-05
1.80359e-05
1.80377e-05
4.13621e-05
6.00945e-05
6.09535e-05
4.13123e-05
1.80335e-05
1.8036e-05
4.225e-05
6.18744e-05
6.25987e-05
4.2182e-05
1.80333e-05
1.80363e-05
4.30814e-05
6.34817e-05
6.41094e-05
4.29796e-05
1.80346e-05
1.80381e-05
4.38728e-05
6.49918e-05
6.54903e-05
4.37472e-05
1.80369e-05
1.80411e-05
4.45952e-05
6.63628e-05
6.67632e-05
4.44259e-05
1.80402e-05
1.80448e-05
4.52673e-05
6.76429e-05
6.79439e-05
4.50734e-05
1.8044e-05
1.80489e-05
4.58631e-05
6.88148e-05
6.90367e-05
4.5637e-05
1.80481e-05
1.8053e-05
4.6419e-05
6.99165e-05
7.00549e-05
4.61745e-05
1.80523e-05
1.80573e-05
4.69055e-05
7.09258e-05
7.10024e-05
4.66301e-05
1.80565e-05
1.80616e-05
4.73579e-05
7.18841e-05
7.1891e-05
4.70683e-05
1.80608e-05
1.80658e-05
4.77472e-05
7.27646e-05
7.27237e-05
4.7429e-05
1.80651e-05
1.807e-05
4.81099e-05
7.36099e-05
7.35105e-05
4.77814e-05
1.80692e-05
1.8074e-05
4.84177e-05
7.43905e-05
7.42547e-05
4.80644e-05
1.80732e-05
1.80779e-05
4.8709e-05
7.51496e-05
7.49643e-05
4.83487e-05
1.8077e-05
1.80817e-05
4.8953e-05
7.58552e-05
7.56355e-05
4.85709e-05
1.80808e-05
1.80853e-05
4.91885e-05
7.65566e-05
7.63011e-05
4.88027e-05
1.80844e-05
1.80889e-05
4.93957e-05
7.7201e-05
7.69251e-05
4.89822e-05
1.8088e-05
1.80924e-05
4.95913e-05
7.78461e-05
7.75311e-05
4.91742e-05
1.80915e-05
1.80959e-05
4.97594e-05
7.84474e-05
7.81163e-05
4.93172e-05
1.8095e-05
1.80992e-05
4.99208e-05
7.90476e-05
7.8682e-05
4.94781e-05
1.80983e-05
1.81025e-05
5.00592e-05
7.96044e-05
7.92319e-05
4.95941e-05
1.81017e-05
1.81058e-05
5.01958e-05
8.01633e-05
7.97524e-05
4.97324e-05
1.81049e-05
1.8109e-05
5.03116e-05
8.067e-05
8.02496e-05
4.98264e-05
1.81081e-05
1.81121e-05
5.04265e-05
8.11733e-05
8.07142e-05
4.99439e-05
1.81112e-05
1.81152e-05
5.0521e-05
8.16205e-05
8.11544e-05
5.00174e-05
1.81143e-05
1.81181e-05
5.06159e-05
8.20634e-05
8.156e-05
5.01162e-05
1.81172e-05
1.81209e-05
5.06914e-05
8.24501e-05
8.19424e-05
5.01714e-05
1.812e-05
1.81236e-05
5.0768e-05
8.2839e-05
8.22947e-05
5.02527e-05
1.81227e-05
1.81262e-05
5.08251e-05
8.31659e-05
8.26218e-05
5.02898e-05
1.81252e-05
1.81285e-05
5.08837e-05
8.35132e-05
8.29248e-05
5.03539e-05
1.81275e-05
1.81307e-05
5.09234e-05
8.37816e-05
8.31979e-05
5.03746e-05
1.81297e-05
1.81327e-05
5.09662e-05
8.40824e-05
8.34546e-05
5.04244e-05
1.81316e-05
1.81346e-05
5.09918e-05
8.43043e-05
8.36842e-05
5.04321e-05
1.81334e-05
1.81362e-05
5.10223e-05
8.45632e-05
8.39011e-05
5.04707e-05
1.81351e-05
1.81378e-05
5.10369e-05
8.47459e-05
8.40946e-05
5.04686e-05
1.81366e-05
1.81392e-05