/*--------------------------------*- C++ -*----------------------------------*\
| =========                 |                                                 |
| \\      /  F ield         | OpenFOAM: The Open Source CFD Toolbox           |
|  \\    /   O peration     | Version:  v2006                                 |
|   \\  /    A nd           | Website:  www.openfoam.com                      |
|    \\/     M anipulation  |                                                 |
\*---------------------------------------------------------------------------*/
FoamFile
{
    version     2.0;
    format      ascii;
    class       volScalarField;
    location    "0.038";
    object      yPlus;
}
// * * * * * * * * * * * * * * * * * * * * * * * * * * * * * * * * * * * * * //

dimensions      [0 0 0 0 0 0 0];


internalField   uniform 0;

boundaryField
{
    bottomEmptyFaces
    {
        type            empty;
    }
    topEmptyFaces
    {
        type            empty;
    }
    inlet
    {
        type            calculated;
        value           uniform 0;
    }
    outlet
    {
        type            calculated;
        value           uniform 0;
    }
    walls
    {
        type            calculated;
        value           nonuniform List<scalar> 
900
(
24.2543
24.2968
24.2884
24.3304
24.3219
24.3634
24.3548
24.3958
24.3872
24.4276
24.4191
24.4591
24.4506
24.4901
24.4817
24.5206
24.5121
24.5504
24.5418
24.5793
24.5706
24.6072
24.5982
24.6337
24.6245
24.6588
24.6492
24.6822
24.6722
24.704
24.6935
24.7239
24.7131
24.7422
24.7311
24.759
24.7477
24.7744
24.7629
24.7885
24.7767
24.8014
24.7895
24.8132
24.8012
24.8242
24.8119
24.8341
24.8218
24.8434
24.8309
24.8519
24.8394
24.8599
24.8472
24.8672
24.8545
24.8741
24.8613
24.8805
24.8677
24.8865
24.8736
24.8921
24.8791
24.8973
24.8843
24.9021
24.889
24.9066
24.8933
24.9107
24.8973
24.9144
24.9009
24.9178
24.9042
24.9209
24.9072
24.9237
24.9099
24.9262
24.9124
24.9285
24.9146
24.9305
24.9166
24.9324
24.9184
24.9341
24.9201
24.9357
24.9217
24.9372
24.9232
24.9386
24.9246
24.9399
24.9259
24.9412
24.9273
24.9425
24.9286
24.9439
24.93
24.9452
24.9313
24.9465
24.9327
24.9479
24.9341
24.9492
24.9355
24.9506
24.9369
24.9521
24.9384
24.9536
24.94
24.9552
24.9417
24.957
24.9436
24.959
24.9459
24.9615
24.9487
24.9648
24.9523
24.9692
24.9568
24.9746
24.9627
24.9819
24.9701
25.0086
25.0105
25.0598
25.1468
25.3646
25.8896
26.9057
29.0912
31.6233
70.8793
79.3051
83.3177
107.664
122.526
63.3853
54.6982
57.1206
58.4765
43.4863
40.6545
50.675
44.9081
45.7732
64.3623
68.3078
138.336
149.189
126.905
132.795
111.131
90.0776
100.021
87.0088
76.4559
68.6363
70.5469
67.6187
63.3144
58.2915
61.2754
57.201
16.6014
14.6242
12.3644
12.6797
9.76469
15.313
15.6849
13.0886
12.4743
10.113
12.9214
12.6352
10.222
15.5172
13.1001
15.1338
12.8618
12.2975
10.2736
14.179
15.1996
12.9738
11.8034
10.1671
12.2948
10.2836
15.6948
13.5443
14.3888
12.0729
10.7115
16.0765
13.9369
15.7614
13.5042
12.0782
10.8285
12.8113
11.3099
14.4608
12.9538
11.5131
16.1671
13.1629
11.1637
13.7295
12.6087
10.7451
24.1324
21.1477
18.1569
17.1666
22.32
18.7622
18.035
22.9413
19.7915
18.733
24.9157
21.8444
16.2911
13.646
12.9737
16.5671
13.7621
13.1728
23.0217
23.5995
19.3793
18.6708
25.1498
22.1416
19.1023
18.0655
19.9259
19.0196
18.6928
17.6858
19.7537
17.2277
17.7834
14.5248
13.7416
17.3235
14.5208
13.8818
17.5872
14.7033
14.0949
16.7236
14.0532
13.4016
17.0359
14.2764
13.5999
17.8516
15.1113
14.3995
18.3309
15.8089
14.8543
15.9173
13.7783
14.3405
11.99
11.0137
14.7941
15.2786
12.7027
11.7474
12.3265
11.366
17.1797
14.9603
15.8618
15.4775
12.7471
11.9436
13.0924
12.3389
29.4831
26.2983
16.4069
14.2018
12.4132
11.4092
15.3161
13.0848
12.1959
15.0209
12.7506
11.9715
13.2359
12.1758
15.7601
13.7395
12.6232
15.7344
14.4407
12.1321
10.9657
12.7495
11.3944
29.5122
23.1853
21.6794
13.5926
12.1025
10.9311
14.5833
12.7913
11.6039
26.419
23.6957
21.9271
30.2384
27.149
30.4006
23.9887
22.463
16.4312
17.882
16.7779
13.8909
13.1237
14.3336
13.4278
16.1888
13.4261
12.6601
13.6051
12.8444
15.501
13.1595
12.3499
16.0847
13.4151
12.8204
24.3258
21.1283
19.9991
25.166
26.6176
54.514
23.5343
20.4107
19.1998
53.3055
54.5946
51.4541
53.541
56.6739
52.232
50.7499
48.4899
25.5334
22.4911
21.2036
28.3524
24.9896
27.4448
21.8974
20.6886
23.8625
18.4875
15.5138
20.5231
19.3568
50.4012
23.5396
45.073
19.826
40.3008
41.5062
40.1117
19.072
33.3684
15.7133
20.0535
49.538
42.7237
38.4317
37.4698
63.0395
63.2943
70.5796
65.155
27.4798
24.2426
21.5202
20.1374
21.662
20.3874
26.6178
23.3055
21.9276
13.041
14.4002
9.64296
17.7887
15.5097
16.0667
13.5641
12.8149
13.1556
9.42542
16.7899
13.8214
10.1856
13.9739
13.5727
10.4456
72.4064
68.9906
64.3156
60.0099
57.2722
52.7938
31.3864
48.5047
47.2283
43.9691
29.2106
49.0491
46.2397
26.4321
23.979
40.5858
22.2723
35.4276
30.9103
23.6113
14.4733
27.9588
27.1743
24.5393
22.7155
32.5843
30.8975
27.5986
25.2565
23.3121
33.9198
26.0347
23.5084
31.7013
28.4496
12.7087
11.4379
10.3627
9.38635
11.2258
7.55721
33.1963
13.9115
31.952
12.71
30.8623
11.9522
11.3418
28.9105
10.9277
26.972
24.7997
35.6824
10.6442
10.4461
35.2534
10.2007
10.0366
9.86021
9.75352
34.5009
33.3439
31.7937
29.4525
35.2026
9.60783
9.51302
34.0687
9.3728
34.2562
9.21361
27.5823
25.3908
9.06771
25.4732
23.819
9.01468
8.90089
8.84455
8.6877
8.65121
8.52582
8.53168
8.4343
8.36249
8.26913
8.23352
8.13214
8.10809
8.01998
8.00856
7.93717
7.93102
7.86542
7.86304
7.80149
7.79949
7.74208
7.74614
7.69157
7.69417
7.63824
7.64128
7.58683
7.59043
7.53736
7.54091
7.48861
7.49286
7.44195
7.44598
7.39588
7.40026
7.3514
7.35639
7.30882
7.31446
7.26793
7.27373
7.22804
7.23431
7.18981
7.19658
7.15291
7.15958
7.11761
7.12524
7.08371
7.09454
7.04901
7.05361
7.00974
7.01863
6.97891
6.9881
6.94815
6.95809
6.91914
6.92939
6.89171
6.89968
6.86293
6.87017
6.83182
6.84488
6.81347
6.82683
6.79071
6.80124
6.76432
6.77278
6.73651
6.7493
6.71485
6.72765
6.68731
6.69661
6.6638
6.73466
6.74607
6.81262
6.81948
6.90669
6.86561
6.50718
8.56439
5.45827
34.2401
34.0337
34.2109
33.955
33.6342
33.3884
32.8028
32.0093
31.2389
30.43
29.718
29.0124
28.4029
27.8144
27.3032
26.8317
26.4102
26.0399
25.6986
25.41
25.1353
24.9162
24.6923
24.5388
24.3548
24.2647
24.1148
24.0731
23.9555
23.9424
23.8571
23.8623
23.8047
23.8209
23.783
23.8055
23.7808
23.8083
23.7933
23.8244
19.6324
19.8663
16.38
15.7608
23.8135
23.8514
23.8432
23.8856
23.8785
23.9226
23.9156
23.9609
20.5008
17.3038
16.5808
23.9539
24.0001
23.9931
24.0399
24.0329
24.0796
24.0722
24.1183
19.4183
16.2614
15.6929
24.1106
20.3582
24.1558
21.8247
17.4872
16.5441
16.6971
15.9697
18.8749
15.817
15.0558
24.1478
24.1923
19.9672
16.6288
16.0183
24.1842
19.782
16.3836
15.8099
20.2275
16.8681
16.2589
24.2279
24.2196
24.2626
18.4862
18.688
15.3948
14.7907
18.0427
18.198
14.9956
14.4086
14.8636
14.262
15.2456
14.5886
18.9685
19.2555
15.89
15.2648
15.5893
14.9396
16.1569
15.4562
21.3518
21.5166
18.6642
17.5942
21.0482
17.6584
16.9397
23.3499
20.3437
17.2798
16.3366
22.1168
21.7845
17.8751
17.2896
18.1671
17.5341
22.568
18.6051
17.902
19.3054
18.3476
34.2326
11.4309
53.1415
48.3861
44.7706
42.637
40.7858
39.5397
38.4736
37.7368
36.9934
36.4899
35.9322
35.5644
35.1246
34.8382
34.4778
34.2421
33.9357
33.7338
33.4648
33.2865
33.0448
32.8834
32.6617
32.5126
32.3061
32.1663
31.9716
31.8388
31.6533
31.5259
31.3477
31.2243
31.0517
30.9314
30.7632
30.645
30.48
30.3632
30.2005
30.0843
29.9231
29.807
29.6464
29.5298
29.3691
29.2514
29.0897
28.9703
28.807
28.6853
28.5195
28.395
28.2261
28.0983
27.9256
27.7939
27.6165
27.4803
27.2974
27.1561
26.9669
26.8196
26.623
26.469
26.2639
26.1024
25.8879
25.7182
25.4934
25.3147
25.0785
24.8902
24.6418
24.4431
24.1815
23.9721
23.6967
23.4761
23.1863
22.9544
22.65
22.407
22.088
21.8343
21.5017
21.2386
20.8947
20.6249
20.2728
19.9995
19.6436
19.3719
19.0184
18.7549
18.4119
18.1645
17.8413
17.6187
17.325
17.1353
16.8793
16.7288
16.517
16.409
16.2438
16.1767
16.0573
16.0238
15.9536
15.9459
15.9144
15.9184
15.9066
15.9209
15.9204
15.9411
15.9486
15.9795
15.9914
16.0277
16.0418
16.08
16.0949
16.1325
16.1472
16.1839
16.1984
16.2333
16.247
16.2798
16.2928
16.3235
16.3358
16.3648
16.3766
16.404
16.4156
16.4425
16.4543
16.4809
16.4923
16.517
16.528
16.551
16.5612
16.5819
16.5911
16.6105
16.6186
16.6367
16.6439
16.6596
16.6655
16.6788
16.6831
16.6947
16.6984
16.7083
16.7085
16.7214
16.7033
16.782
16.84
17.1319
17.2563
17.4419
17.6604
18.002
59.1067
)
;
    }
    rightWall
    {
        type            calculated;
        value           uniform 0;
    }
    symmetryLine
    {
        type            symmetryPlane;
    }
}


// ************************************************************************* //
