/*--------------------------------*- C++ -*----------------------------------*\
| =========                 |                                                 |
| \\      /  F ield         | OpenFOAM: The Open Source CFD Toolbox           |
|  \\    /   O peration     | Version:  v2006                                 |
|   \\  /    A nd           | Website:  www.openfoam.com                      |
|    \\/     M anipulation  |                                                 |
\*---------------------------------------------------------------------------*/
FoamFile
{
    version     2.0;
    format      ascii;
    class       volScalarField;
    location    "0.052";
    object      alphat;
}
// * * * * * * * * * * * * * * * * * * * * * * * * * * * * * * * * * * * * * //

dimensions      [1 -1 -1 0 0 0 0];


internalField   nonuniform List<scalar> 
10108
(
30.4027
137.059
51.6512
43.4431
35.2549
14.6875
4.68079
2.07698
1.25064
0.926188
0.773877
0.688605
0.630636
0.584149
0.543672
0.507689
0.475889
0.448105
0.424015
0.403153
0.385014
0.36913
0.355119
0.342684
0.3316
0.321697
0.312844
0.304939
0.297901
0.291665
0.286177
0.281395
0.277284
0.273819
0.270983
0.268765
0.267157
0.266156
0.265786
0.266062
0.267
0.268639
0.271029
0.27424
0.278366
0.283535
0.289914
0.297704
0.307124
0.318356
0.331481
0.346451
0.363281
0.382799
0.408377
0.450381
0.535794
0.734152
1.23956
2.60389
5.73904
8.55138
6.42388
7.89819
2.54224
1.1365
0.589706
0.326335
0.152736
0.031416
0.00580186
0.000194533
0.000168186
0.00284902
0.0124738
0.00794967
0.00208625
0.000150822
0.000135578
0.00182105
0.00639807
0.00546345
0.00165756
0.000127442
0.000118712
0.00151241
0.00487569
0.00440819
0.00142716
0.00011292
0.000108083
0.0013526
0.00414756
0.00386964
0.00129369
0.000103958
0.000101283
0.00126891
0.0037361
0.00353285
0.00121998
9.84655e-05
9.67095e-05
0.00120665
0.00345889
0.00330832
0.00116727
9.45825e-05
9.33345e-05
0.00115888
0.00325499
0.00313322
0.00112601
9.16763e-05
9.07358e-05
0.00111979
0.00309244
0.00298917
0.00109184
8.94067e-05
8.86598e-05
0.00108648
0.00295706
0.00286687
0.00106235
8.75454e-05
8.69296e-05
0.00105759
0.002841
0.00276067
0.00103625
8.5972e-05
8.54501e-05
0.00103199
0.00273928
0.00266698
0.0010128
8.4607e-05
8.41528e-05
0.00100892
0.00264854
0.0025831
0.000991387
8.3395e-05
8.29909e-05
0.000987861
0.00256695
0.00250708
0.000971673
8.22985e-05
8.19327e-05
0.000968467
0.00249277
0.00243754
0.00095338
8.12915e-05
8.09555e-05
0.000950465
0.00242477
0.00237348
0.000936291
8.03551e-05
8.00429e-05
0.000933636
0.00236197
0.00231399
0.000920225
7.94754e-05
7.91825e-05
0.000917798
0.00230359
0.00225838
0.000905023
7.86417e-05
7.83643e-05
0.000902796
0.00224899
0.00220624
0.00089056
7.78452e-05
7.75803e-05
0.000888518
0.00219774
0.00215717
0.000876746
7.70787e-05
7.68239e-05
0.000874874
0.00214943
0.0021108
0.000863502
7.63365e-05
7.609e-05
0.000861782
0.00210372
0.00206681
0.000850752
7.56139e-05
7.53741e-05
0.000849169
0.00206029
0.0020249
0.000838428
7.49065e-05
7.46719e-05
0.00083697
0.00201886
0.00198482
0.00082647
7.42106e-05
7.398e-05
0.000825122
0.00197918
0.00194635
0.000814818
7.35226e-05
7.32948e-05
0.000813565
0.00194105
0.00190929
0.000803412
7.28394e-05
7.26134e-05
0.000802242
0.00190427
0.00187345
0.000792201
7.21578e-05
7.19326e-05
0.000791101
0.00186866
0.00183867
0.000781132
7.14749e-05
7.12495e-05
0.00078009
0.00183405
0.00180478
0.000770157
7.07877e-05
7.05612e-05
0.000769161
0.00180028
0.00177162
0.000759226
7.00933e-05
6.98648e-05
0.000758266
0.00176719
0.00173905
0.000748294
6.93887e-05
6.91571e-05
0.000747364
0.00173465
0.00170693
0.000737321
6.86706e-05
6.84348e-05
0.00073642
0.00170254
0.00167517
0.000726281
6.79359e-05
6.76947e-05
0.000725369
0.00167076
0.00164368
0.00071513
6.71811e-05
6.69337e-05
0.00071423
0.00163922
0.00161238
0.000703877
6.64035e-05
6.61494e-05
0.000702988
0.00160787
0.00158124
0.0006925
6.56009e-05
6.53395e-05
0.000691624
0.00157667
0.00155019
0.000680984
6.47707e-05
6.45017e-05
0.000680127
0.00154557
0.00151923
0.000669325
6.39107e-05
6.36336e-05
0.000668507
0.00151465
0.00148839
0.000657542
6.30186e-05
6.27333e-05
0.000656796
0.00148399
0.00145773
0.000645681
6.2093e-05
6.17995e-05
0.000645043
0.00145355
0.00142731
0.0006338
6.11331e-05
6.08316e-05
0.000633323
0.00142349
0.00139733
0.000621997
6.01392e-05
5.98299e-05
0.000621722
0.00139405
0.00136808
0.000610485
5.91135e-05
5.87978e-05
0.000610413
0.0013656
0.00133997
0.000599402
5.80598e-05
5.77401e-05
0.00059963
0.00133858
0.0013135
0.000588997
5.6985e-05
5.66656e-05
0.000589637
0.00131317
0.00128914
0.000579526
5.58997e-05
5.55864e-05
0.000580735
0.0012905
0.00126778
0.000571335
5.48188e-05
5.45185e-05
0.000573277
0.00127123
0.00125018
0.000564787
5.3761e-05
5.34819e-05
0.000567626
0.00125612
0.00123702
0.000560217
5.27476e-05
5.24981e-05
0.000564093
0.00124585
0.00122901
0.000557877
5.18012e-05
5.15884e-05
0.000562856
0.00124107
0.00122654
0.000557892
5.09429e-05
5.07719e-05
0.000563897
0.00124196
0.00122993
0.00056005
5.01893e-05
5.00595e-05
0.000566876
0.00124828
0.00123866
0.000563909
4.95494e-05
4.94475e-05
0.000571225
0.00125909
0.00125214
0.000568971
4.90254e-05
4.89311e-05
0.000575834
0.00127306
0.00126741
0.000571955
4.86359e-05
4.85093e-05
0.000578055
0.00128776
0.00128282
0.000573141
4.82663e-05
4.81135e-05
0.000578723
0.00130276
0.00129741
0.000573613
4.78849e-05
4.77251e-05
0.000578534
0.00131624
0.00130993
0.000573395
4.75083e-05
4.73606e-05
0.000577484
0.00132716
0.00131968
0.000572274
4.71572e-05
4.70404e-05
0.000575588
0.00133517
0.0013266
0.000570334
4.68505e-05
4.6752e-05
0.000572993
0.00134031
0.00133098
0.000567791
4.65769e-05
4.64917e-05
0.000569938
0.00134311
0.00133318
0.000564871
4.63323e-05
4.62584e-05
0.000566571
0.00134397
0.00133386
0.000561748
4.61147e-05
4.60511e-05
0.000563123
0.00134334
0.00133343
0.000558601
4.59216e-05
4.58905e-05
0.000559799
0.00134177
0.00133195
0.000555561
4.57332e-05
4.57336e-05
0.000556596
0.0013394
0.00132983
0.000552553
4.55681e-05
4.56029e-05
0.000553519
0.00133663
0.00132729
0.000550281
4.53729e-05
4.56741e-05
0.000552506
0.00133601
0.00133962
0.000551225
4.55645e-05
4.66803e-05
0.000562032
0.00136255
0.00138065
0.000567994
4.67246e-05
4.75547e-05
0.000562603
0.00137082
0.00142783
0.000588718
4.77094e-05
5.9557e-05
0.000588323
0.00144413
0.00404793
0.0078708
0.0123541
0.0173958
0.0222111
0.027608
0.032597
0.0372238
0.0410983
0.0441697
0.0462129
0.0471272
0.0467905
0.0451535
0.0423251
0.0383744
0.0337264
0.0285363
0.0236506
0.0182475
0.012575
0.00825835
0.00584619
0.00270991
0.000767765
0.000329004
3.87264e-05
2.65874e-05
0.000307133
0.000659746
0.000198458
7.81584e-05
1.77693e-05
2.10247e-05
0.000195491
0.000510467
0.000472799
0.00017633
2.22091e-05
2.23754e-05
0.000197651
0.000524335
0.000488219
0.00018102
2.21489e-05
2.2173e-05
0.000189453
0.000507422
0.000484918
0.000178793
2.19888e-05
2.21045e-05
0.000189124
0.000506609
0.000490403
0.000180442
2.18724e-05
2.20772e-05
0.000189491
0.000515656
0.00049923
0.000181945
2.20439e-05
2.22683e-05
0.000192376
0.000525828
0.000510812
0.000185621
2.22142e-05
2.24233e-05
0.000195612
0.000537295
0.000521925
0.000188727
2.23858e-05
2.26042e-05
0.000199026
0.000549228
0.00053357
0.000192007
2.25657e-05
2.27934e-05
0.000202635
0.000561841
0.000545853
0.000195462
2.2754e-05
2.29919e-05
0.000206421
0.000574965
0.000558616
0.000199094
2.29515e-05
2.32e-05
0.000210427
0.000588874
0.000572013
0.00020293
2.31582e-05
2.34176e-05
0.000214621
0.000603365
0.000586166
0.000206939
2.33741e-05
2.36459e-05
0.000219044
0.000618597
0.00060093
0.00021117
2.36016e-05
2.3885e-05
0.000223663
0.000634566
0.000616517
0.000215573
2.38398e-05
2.41356e-05
0.000228502
0.00065137
0.000632802
0.000220183
2.40887e-05
2.43968e-05
0.000233503
0.000668978
0.00064994
0.000224916
2.43478e-05
2.4669e-05
0.000238638
0.000687401
0.000667847
0.000229739
2.4617e-05
2.49528e-05
0.000243788
0.000706484
0.000686086
0.000234503
2.48986e-05
2.52594e-05
0.000248845
0.000726357
0.000705122
0.000239041
2.52064e-05
2.56201e-05
0.000253719
0.000747416
0.000725841
0.000243334
2.55838e-05
2.60667e-05
0.000258923
0.000772576
0.000752523
0.000248383
2.61138e-05
2.67025e-05
0.000266756
0.000807019
0.000791109
0.000257837
2.67948e-05
2.7383e-05
0.000284418
0.000862152
0.000844805
0.000275082
2.7286e-05
2.78055e-05
0.000305495
0.000927373
0.000905113
0.000293319
2.77549e-05
2.87293e-05
0.000326191
0.000996895
0.000978733
0.000322379
2.89972e-05
2.99284e-05
0.000346046
0.00106666
0.00106172
0.000355444
3.0649e-05
3.19286e-05
0.000383277
0.00115138
0.00114308
0.000378887
3.29644e-05
3.55859e-05
0.000420102
0.00125445
0.00124399
0.000408778
3.84492e-05
4.39059e-05
0.000462256
0.00136052
0.00138642
0.000471092
4.95299e-05
6.12648e-05
0.000578382
0.00154967
0.00154988
0.000693996
4.80809e-05
2.68856e-05
0.000152976
0.000504268
0.00140929
0.000476238
3.86291e-05
4.55293e-05
0.000464559
0.00142726
0.00178273
0.00060937
5.58302e-05
6.29377e-05
0.000639054
0.00185479
0.00212198
0.000749874
7.76162e-05
9.45121e-05
0.000863136
0.00233724
0.00232901
0.0010073
7.92267e-05
3.93902e-05
0.000243668
0.00082046
0.0020775
0.000755064
6.78914e-05
8.53861e-05
0.000740645
0.00216134
0.00265855
0.00094789
0.000125541
0.00011204
0.0011362
0.00281345
0.00113626
0.000345552
5.67538e-05
0.000118223
0.00109355
0.00296885
0.00376265
0.00137629
0.000164837
0.000166699
0.00170647
0.00433748
0.00330063
0.00135204
0.000129332
0.000160256
0.00162147
0.0022787
0.00190784
0.00121765
0.000128788
0.000102124
0.00124581
0.0027241
0.00499164
0.00242312
0.000154237
0.000104995
0.000463458
0.00129837
0.00230215
0.000980141
0.000108873
0.00011414
0.000774732
0.00195451
0.000593048
0.000218523
5.87299e-05
6.95553e-05
0.000654679
0.00133624
0.00124933
0.000560142
7.8966e-05
4.47841e-05
0.000179094
0.000448985
0.00108402
0.000551574
5.53426e-05
6.38324e-05
0.000464932
0.00101009
0.000370404
0.0001583
3.86685e-05
4.74501e-05
0.00048256
0.000929941
0.000869196
0.000410073
5.5952e-05
3.4711e-05
0.000141787
0.000322238
0.000820051
0.000428632
4.22965e-05
4.99943e-05
0.000361687
0.000760599
0.000283872
0.000128142
3.19494e-05
3.84845e-05
0.000385391
0.000735241
0.000680289
0.000328115
4.61729e-05
3.02879e-05
0.000118905
0.000257011
0.000666561
0.000349475
3.55743e-05
4.30094e-05
0.000296795
0.000606608
0.000232996
0.000111177
2.88647e-05
3.32901e-05
0.000317906
0.000604237
0.000547908
0.00027384
4.04802e-05
2.76149e-05
0.000104703
0.000212853
0.000546111
0.000289388
3.12545e-05
3.82614e-05
0.000249887
0.000492575
0.000195254
9.79352e-05
2.66094e-05
2.93543e-05
0.000263477
0.000492002
0.000446435
0.000227616
3.58814e-05
2.56851e-05
9.03411e-05
0.000178578
0.000437726
0.000239844
2.69548e-05
3.30708e-05
0.000202617
0.00039266
0.000155918
7.80089e-05
2.42967e-05
2.38129e-05
0.000241364
0.000343514
0.000182163
0.000101428
2.70274e-05
2.83617e-05
0.000237242
0.000443776
0.000383223
0.0001991
3.38608e-05
2.45692e-05
8.28798e-05
0.000159122
0.000361206
0.000204178
2.47015e-05
3.0726e-05
0.000177946
0.000325276
0.000139096
7.17498e-05
2.30687e-05
2.1905e-05
0.000202951
0.000286601
0.000158161
9.15764e-05
2.59436e-05
2.58892e-05
0.000207894
0.000374661
0.000322095
0.000175264
3.10782e-05
2.29209e-05
7.45098e-05
0.000142225
0.000282362
0.000191464
2.19912e-05
2.5604e-05
9.33158e-05
0.000158737
0.000365276
0.000203673
2.50474e-05
3.03813e-05
0.00017095
0.000310813
0.00013818
7.27578e-05
2.26656e-05
2.14062e-05
0.000187531
0.00026767
0.000154622
9.11936e-05
2.51643e-05
2.43125e-05
0.000190228
0.0003309
0.000287493
0.00016384
2.997e-05
2.25907e-05
7.21543e-05
0.000130749
0.000247078
0.000182578
2.07533e-05
2.46738e-05
8.93939e-05
0.000144527
0.000305389
0.000177056
2.35666e-05
2.92271e-05
0.000151857
0.000264591
0.000123042
7.0949e-05
2.20764e-05
2.01421e-05
0.000169463
0.000223462
0.000135371
8.56359e-05
2.42028e-05
2.26088e-05
0.000160515
0.00026473
0.000231113
0.000138038
2.82959e-05
2.13044e-05
7.09759e-05
0.000114094
0.000198274
0.000154643
1.92264e-05
2.30351e-05
8.29665e-05
0.000122816
0.000221475
0.000163948
2.03899e-05
2.44062e-05
8.69917e-05
0.000134984
0.000253872
0.000150646
2.26472e-05
2.81845e-05
0.000128901
0.000216258
0.000109467
7.11077e-05
2.14672e-05
1.8731e-05
0.000146979
0.000182507
0.000117025
8.37143e-05
2.29932e-05
2.01661e-05
0.000151835
0.000203234
0.000127634
8.60896e-05
2.42204e-05
2.20104e-05
0.000143731
0.000231544
0.000200401
0.000124404
2.76539e-05
2.14061e-05
7.19122e-05
0.000105874
0.000166836
0.000138304
1.84704e-05
2.28325e-05
8.38706e-05
0.000111063
0.000180094
0.000144657
1.9444e-05
2.33076e-05
8.72298e-05
0.000118611
0.000196724
0.000145765
1.99824e-05
2.40921e-05
8.74011e-05
0.000125154
0.000222356
0.000138492
2.16728e-05
2.75621e-05
0.000119487
0.000190068
0.000104692
7.37049e-05
2.14097e-05
1.81105e-05
0.000131027
0.000153743
0.000106314
8.47857e-05
2.27553e-05
1.91161e-05
0.000134371
0.000162815
0.0001117
8.72781e-05
2.33829e-05
1.99511e-05
0.000133674
0.000176942
0.000117546
8.73684e-05
2.43095e-05
2.15212e-05
0.000132678
0.000201885
0.000176283
0.000117494
2.74336e-05
2.13906e-05
7.71893e-05
0.000101123
0.00014718
0.000127953
1.80393e-05
2.30915e-05
8.67298e-05
0.000104093
0.000157186
0.000130779
1.92614e-05
2.34986e-05
8.89012e-05
0.000109965
0.000166469
0.000130949
1.93995e-05
2.37743e-05
9.09331e-05
0.000115215
0.000175687
0.000134033
1.99306e-05
2.47186e-05
9.30498e-05
0.000120241
0.000201046
0.00013418
2.18189e-05
2.78599e-05
0.000119463
0.000175166
0.000102731
8.2407e-05
2.16981e-05
1.82768e-05
0.000130117
0.000147833
0.000106416
9.00492e-05
2.34941e-05
1.94385e-05
0.00013072
0.000154574
0.000110134
9.12685e-05
2.40826e-05
1.99446e-05
0.000128757
0.000160052
0.00011389
9.38075e-05
2.4588e-05
2.04349e-05
0.00013105
0.000165795
0.000117319
9.77895e-05
2.55591e-05
2.2487e-05
0.00013148
0.000190277
0.000168652
0.000119577
2.87709e-05
2.2527e-05
8.8217e-05
0.000103048
0.000147696
0.000130692
1.91884e-05
2.44665e-05
9.40011e-05
0.000108036
0.000156035
0.000131337
2.0213e-05
2.51652e-05
9.58969e-05
0.00011268
0.000161346
0.00013154
2.05853e-05
2.5642e-05
9.91015e-05
0.000116751
0.000167488
0.000133616
2.14205e-05
2.67646e-05
0.00010503
0.000120609
0.000191359
0.00013422
2.32752e-05
2.98653e-05
0.00012268
0.000169367
0.000105227
9.26181e-05
2.36468e-05
1.96076e-05
0.000133582
0.00014788
0.000109731
9.75963e-05
2.5449e-05
2.07192e-05
0.000131496
0.000154317
0.00011365
9.85819e-05
2.61267e-05
2.12315e-05
0.000130436
0.000157427
0.00011623
0.000101432
2.64642e-05
2.17355e-05
0.000131817
0.000162235
0.000118644
0.000107415
2.75683e-05
2.38936e-05
0.000132702
0.000185803
0.000166589
0.000123403
3.08689e-05
2.42605e-05
9.72001e-05
0.000106602
0.000148821
0.000135972
2.03796e-05
2.63511e-05
0.000102457
0.000111975
0.000157608
0.000133819
2.16108e-05
2.73652e-05
0.000104507
0.000117507
0.000162638
0.000134571
2.22718e-05
2.78652e-05
0.000108237
0.000121432
0.000168763
0.000138121
2.28291e-05
2.88312e-05
0.000114628
0.000124721
0.000192104
0.000139036
2.47743e-05
3.19948e-05
0.0001295
0.000172508
0.000111506
0.000103499
2.5322e-05
2.14245e-05
0.000141467
0.000155016
0.00011808
0.000109071
2.78463e-05
2.28361e-05
0.000139463
0.000162405
0.000122551
0.000110389
2.86605e-05
2.29641e-05
0.000139691
0.000165865
0.000125599
0.000113638
2.89628e-05
2.37611e-05
0.000140891
0.00017143
0.000128645
0.000120932
3.03811e-05
2.61981e-05
0.000143533
0.000195567
0.000177401
0.000135463
3.39131e-05
2.70963e-05
0.000111988
0.000118151
0.000162998
0.000148852
2.26722e-05
2.95294e-05
0.000118097
0.000125588
0.00017337
0.000148366
2.40665e-05
3.06906e-05
0.000120985
0.000132011
0.000180356
0.000149029
2.51751e-05
3.18769e-05
0.000127377
0.000135284
0.000202764
0.000149515
2.72187e-05
3.52652e-05
0.000141065
0.000184001
0.000123641
0.000116578
2.80994e-05
2.32392e-05
0.000154591
0.000166992
0.000129834
0.000122574
3.07804e-05
2.50804e-05
0.000151427
0.000177009
0.000136086
0.00012588
3.20128e-05
2.60377e-05
0.000152516
0.00018436
0.000140239
0.000134011
3.33321e-05
2.86493e-05
0.00015623
0.000209681
0.000191217
0.000148471
3.68318e-05
2.95456e-05
0.00012553
0.000131124
0.000177533
0.000162195
2.48001e-05
3.27776e-05
0.00013368
0.000138918
0.000192561
0.000163061
2.70126e-05
3.4602e-05
0.00014075
0.000146786
0.000218033
0.000162696
2.95469e-05
3.81095e-05
0.000154597
0.000198972
0.000136994
0.000130225
3.03104e-05
2.53629e-05
0.000167715
0.000182877
0.000144427
0.000137476
3.3762e-05
2.79284e-05
0.000166069
0.000196868
0.000151072
0.000145335
3.58923e-05
3.05735e-05
0.00016748
0.000223459
0.000205127
0.000160244
3.98559e-05
3.17959e-05
0.000137649
0.000143809
0.000190317
0.000173652
2.63883e-05
3.57085e-05
0.000147602
0.000149474
0.000220709
0.000167933
3.07974e-05
4.08415e-05
0.000161499
0.000203758
0.000144876
0.000138334
3.25827e-05
2.73986e-05
0.000172581
0.000188094
0.000150309
0.000149049
3.61299e-05
3.06897e-05
0.00016715
0.000217189
0.000201523
0.000161659
4.11694e-05
3.39892e-05
0.0001422
0.000145728
0.000188708
0.000173415
2.82525e-05
3.78338e-05
0.000153089
0.000152739
0.000217734
0.000170348
3.16767e-05
4.13961e-05
0.000164713
0.000201931
0.000146897
0.00014376
3.36812e-05
2.85876e-05
0.000172944
0.000188302
0.000153771
0.000155725
3.86442e-05
3.29119e-05
0.000173155
0.000219382
0.000205141
0.000169126
4.37163e-05
3.51932e-05
0.000152684
0.000152541
0.000195427
0.00018174
2.87095e-05
3.95577e-05
0.000164136
0.000159909
0.000229875
0.000179676
3.41082e-05
4.56911e-05
0.000176308
0.000216131
0.000160133
0.000163511
3.78398e-05
3.21534e-05
0.000187992
0.000220419
0.000209718
0.000183139
4.37307e-05
3.84315e-05
0.000164318
0.000159662
0.000218434
0.000188497
3.38318e-05
4.69376e-05
0.000183568
0.000209299
0.000161739
0.000167167
3.925e-05
3.35199e-05
0.000186508
0.000218501
0.000208295
0.0001818
4.60591e-05
4.0462e-05
0.000168904
0.000161394
0.000218605
0.000188605
3.53929e-05
4.83103e-05
0.000183387
0.000210441
0.000164338
0.000172737
4.19859e-05
3.53347e-05
0.000189259
0.000220924
0.00021181
0.00018565
5.01884e-05
4.37629e-05
0.000181294
0.000167412
0.000232429
0.000200514
3.67853e-05
5.17241e-05
0.000207652
0.000221196
0.000206606
0.000199533
4.95798e-05
4.53666e-05
0.0001864
0.000172551
0.00023544
0.000202006
3.9453e-05
5.58496e-05
0.000199551
0.000228624
0.000210179
0.000211355
5.81724e-05
5.19267e-05
0.000198825
0.00020299
0.000171757
0.000183305
4.87044e-05
4.33292e-05
0.000194903
0.00022657
0.000222213
0.00019159
6.45698e-05
6.49545e-05
0.000204372
0.000208318
0.000206648
0.000197019
6.91234e-05
7.38672e-05
0.00020055
0.000199263
0.000197818
0.000194754
8.11806e-05
8.79722e-05
0.000203146
0.000198721
0.000201673
0.000207423
9.33178e-05
9.39497e-05
0.00022121
0.000203492
0.000205573
0.000229212
9.10625e-05
8.78769e-05
0.000241246
0.00020867
0.000213023
0.000253457
8.41949e-05
8.07653e-05
0.000266243
0.000219685
0.000224726
0.000278568
7.71971e-05
7.41778e-05
0.000291267
0.000235229
0.000240723
0.000290741
7.13363e-05
6.89866e-05
0.000299808
0.000254502
0.000261751
0.000303344
6.6851e-05
6.50439e-05
0.000308307
0.000282239
0.000291423
0.00031211
6.33911e-05
6.19862e-05
0.000316723
0.000315797
0.000326005
0.000320764
6.0717e-05
5.96453e-05
0.000326155
0.000351065
0.00036232
0.000330912
5.87095e-05
5.79098e-05
0.000336703
0.000387729
0.000399581
0.000342154
5.72743e-05
5.66827e-05
0.000348523
0.000425178
0.000429754
0.000354526
5.63253e-05
5.58461e-05
0.000361149
0.000456256
0.000458603
0.000367951
5.57835e-05
5.53855e-05
0.000374898
0.00048479
0.000487251
0.000381852
5.55505e-05
5.52548e-05
0.000388694
0.000512278
0.000514497
0.0003956
5.549e-05
5.53315e-05
0.000402163
0.000538645
0.000540465
0.000408619
5.55906e-05
5.55366e-05
0.000414854
0.000563195
0.000564699
0.000420911
5.57842e-05
5.57787e-05
0.000426905
0.000586427
0.000587572
0.000432287
5.60128e-05
5.60355e-05
0.000437805
0.000607752
0.000608749
0.000442676
5.62487e-05
5.62845e-05
0.000447881
0.000627885
0.000628656
0.000452002
5.64796e-05
5.65076e-05
0.000456696
0.000646494
0.000647257
0.000460378
5.67021e-05
5.67163e-05
0.000464694
0.000664256
0.000664814
0.000467782
5.69112e-05
5.69102e-05
0.00047153
0.000680805
0.000681311
0.000474234
5.70953e-05
5.70784e-05
0.000477699
0.000696769
0.000697093
0.00047988
5.72553e-05
5.72289e-05
0.000482876
0.000711627
0.000711994
0.000484775
5.73977e-05
5.73593e-05
0.000487583
0.000726158
0.000726251
0.000489045
5.75212e-05
5.74788e-05
0.000491321
0.000739916
0.000739732
0.000492766
5.75868e-05
5.76281e-05
0.000494868
0.000753028
0.000753002
0.000495829
5.77317e-05
5.76791e-05
0.00049789
0.000765895
0.000765836
0.000498691
5.78263e-05
5.77674e-05
0.000500682
0.00077845
0.00077798
0.000501202
5.79101e-05
5.7851e-05
0.000502934
0.000790527
0.000789773
0.000503359
5.79897e-05
5.79276e-05
0.000505048
0.000802095
0.00080085
0.00050525
5.80623e-05
5.8001e-05
0.0005067
0.000812953
0.00081138
0.000506839
5.81311e-05
5.80674e-05
0.000508233
0.000823084
0.000820865
0.000508163
5.81924e-05
5.81305e-05
0.00050933
0.000832657
0.000830153
0.000509239
5.82512e-05
5.81894e-05
0.000510329
0.000838724
0.000838246
0.000510028
5.83021e-05
5.8241e-05
0.000510923
0.000843451
0.000845888
0.000510613
5.83477e-05
5.8289e-05
0.000511422
0.000847455
0.000852487
0.00051089
5.8387e-05
5.83293e-05
0.000511516
0.000850933
0.00085872
0.000510986
5.84194e-05
5.8363e-05
0.000511564
0.000853843
0.000861408
0.000510838
5.84453e-05
5.8391e-05
0.000511262
0.00085619
0.000863561
0.000510547
5.84666e-05
5.84131e-05
0.000510927
0.000857961
0.000865007
0.000510019
5.84808e-05
5.84297e-05
0.000510255
0.000859371
0.00086634
0.000509375
5.84907e-05
5.84408e-05
0.00050961
0.000860368
0.000867102
0.000508559
5.84947e-05
5.84466e-05
0.000508684
0.000861144
0.000867868
0.000507686
5.8495e-05
5.84486e-05
0.000507847
0.000861605
0.000868141
0.000506701
5.84917e-05
5.84476e-05
0.000506779
0.000861929
0.000868594
0.000505706
5.84865e-05
5.8444e-05
0.00050585
0.00086204
0.000868426
0.000504648
5.84792e-05
5.84391e-05
0.000504725
0.00086199
0.000868754
0.000503611
5.84711e-05
5.84326e-05
0.000503782
0.000861891
0.000868328
0.000502544
5.8462e-05
5.84259e-05
0.000502644
0.000861586
0.000868401
0.000501508
5.84529e-05
5.84186e-05
0.000501732
0.000861254
0.000867742
0.000500479
5.84436e-05
5.84114e-05
0.000500624
0.000860746
0.000867624
0.000499505
5.84346e-05
5.84039e-05
0.000499748
0.000860246
0.000866801
0.000498518
5.84254e-05
5.83968e-05
0.000498674
0.000859605
0.000866558
0.000497597
5.84169e-05
5.83895e-05
0.000497843
0.000859002
0.000865644
0.00049666
5.84083e-05
5.83827e-05
0.000496823
0.000858279
0.000865312
0.000495795
5.84004e-05
5.8376e-05
0.000496047
0.000857603
0.000864324
0.000494913
5.83925e-05
5.83697e-05
0.000495082
0.000856826
0.000863943
0.000494096
5.83848e-05
5.8363e-05
0.000494362
0.000856111
0.000862913
0.000493269
5.83771e-05
5.83569e-05
0.000493452
0.000855276
0.000862513
0.000492504
5.83697e-05
5.83503e-05
0.000492788
0.000854555
0.000861447
0.000491735
5.83624e-05
5.83443e-05
0.000491933
0.000853712
0.000861034
0.000491026
5.83553e-05
5.8338e-05
0.000491325
0.000852988
0.000859984
0.000490311
5.83483e-05
5.83321e-05
0.000490528
0.000852158
0.000859582
0.00048966
5.83417e-05
5.8326e-05
0.000489978
0.000851453
0.000858548
0.000489003
5.83352e-05
5.83206e-05
0.00048924
0.000850654
0.00085816
0.000488409
5.83291e-05
5.83151e-05
0.000488746
0.000849972
0.000857156
0.000487807
5.83233e-05
5.83103e-05
0.000488064
0.000849233
0.00085674
0.000487263
5.8318e-05
5.83055e-05
0.000487622
0.000848581
0.000855763
0.000486714
5.8313e-05
5.83013e-05
0.00048699
0.000847878
0.000855381
0.000486219
5.83084e-05
5.82971e-05
0.000486594
0.000847244
0.000854434
0.000485714
5.8304e-05
5.82936e-05
0.000486007
0.000846561
0.00085408
0.000485261
5.83e-05
5.82899e-05
0.000485654
0.000845948
0.000853159
0.000484798
5.82961e-05
5.82869e-05
0.000485107
0.000845299
0.000852841
0.000484387
5.82926e-05
5.82837e-05
0.000484793
0.000844726
0.00085196
0.000483961
5.82893e-05
5.82811e-05
0.000484285
0.000844115
0.000851676
0.000483587
5.82866e-05
5.82784e-05
0.000484008
0.000843574
0.000850826
0.000483198
5.82837e-05
5.82761e-05
0.000483536
0.000842995
0.000850571
0.000482857
5.82814e-05
5.82738e-05
0.000483293
0.000842481
0.000849746
0.000482503
5.82788e-05
5.82717e-05
0.000482855
0.00084193
0.00084952
0.000482195
5.82766e-05
5.82694e-05
0.000482643
0.000841451
0.000848731
0.00048187
5.82741e-05
5.82675e-05
0.000482235
0.000840934
0.000848538
0.000481591
5.82722e-05
5.82654e-05
0.000482053
0.000840484
0.000847776
0.000481298
5.82698e-05
5.82636e-05
0.000481674
0.000839998
0.000847616
0.000481048
5.82681e-05
5.82618e-05
0.000481521
0.000839583
0.00084689
0.000480782
5.82661e-05
5.82604e-05
0.00048117
0.000839133
0.000846764
0.00048056
5.82648e-05
5.82592e-05
0.000481042
0.000838756
0.000846076
0.000480318
5.82634e-05
5.82585e-05
0.000480716
0.00083834
0.000845983
0.000480119
5.82631e-05
5.82581e-05
0.000480611
0.000837991
0.00084532
0.000479901
5.82633e-05
5.82585e-05
0.000480306
0.000837601
0.000845248
0.000479721
5.8264e-05
5.82593e-05
0.000480219
0.000837271
0.000844602
0.000479516
5.82654e-05
5.82612e-05
0.000479926
0.00083689
0.00084453
0.000479345
5.82673e-05
5.82633e-05
0.000479847
0.000836553
0.000843874
0.000479145
5.82696e-05
5.82661e-05
0.000479557
0.000836164
0.000843794
0.000478978
5.8272e-05
5.82687e-05
0.000479467
0.000835742
0.000843219
0.000478802
5.82728e-05
5.82697e-05
0.000479305
0.000835589
0.000842784
0.000479039
5.83144e-05
5.83398e-05
0.000479429
0.000835324
0.000842862
0.000478712
5.83445e-05
5.83696e-05
0.000479343
0.000835095
0.000843316
0.000479256
5.84684e-05
5.85837e-05
0.000480285
0.000835981
0.000847362
0.000480907
5.88414e-05
5.88445e-05
0.000482734
0.0008401
0.000853951
0.000484251
5.94658e-05
5.95651e-05
0.000486089
0.000846946
0.000876816
0.000495409
6.15657e-05
6.40523e-05
0.000511359
0.000926861
0.000978336
0.00053603
6.72448e-05
0.00163979
0.00265494
0.00396095
0.00445542
0.00723341
0.0121105
0.0164097
0.0182441
0.0254516
0.0392022
0.0511876
0.0667191
0.0881532
0.117558
0.158138
0.21199
0.281307
0.366963
0.469302
0.587716
0.720836
0.866429
1.02171
1.18292
1.34639
1.50572
1.65625
1.7875
1.89503
1.97228
2.02045
2.04316
2.06294
2.09862
2.14891
2.21198
2.28503
2.36746
2.45752
2.55646
2.66486
2.78482
2.91848
3.06883
3.23962
3.43606
3.66535
3.9382
3.34479
2.16994
1.53582
1.23581
1.07904
0.97562
0.887661
0.804596
0.726358
0.654197
0.588186
0.527686
0.472145
0.421374
0.375383
0.334142
0.297508
0.265102
0.236533
0.211357
0.189183
0.169627
0.152393
0.137216
0.123846
0.112114
0.101816
0.092796
0.0849307
0.0780663
0.0721034
0.0669406
0.0624718
0.0586331
0.0553419
0.0525384
0.0501661
0.0481744
0.0465223
0.0451699
0.0440878
0.0432454
0.0426227
0.0421956
0.0419518
0.041872
0.0419455
0.0421619
0.0425128
0.0429911
0.0435913
0.0443089
0.0451404
0.0460807
0.0471349
0.0482961
0.0495645
0.0509416
0.052427
0.0540238
0.0557325
0.0575577
0.0594988
0.0615659
0.06375
0.0660693
0.068522
0.0711139
0.0738505
0.076741
0.0797953
0.0830185
0.0864224
0.0900086
0.0937978
0.0977947
0.102013
0.106468
0.111174
0.116148
0.121408
0.126973
0.132864
0.139105
0.145724
0.152751
0.160216
0.168159
0.176618
0.185642
0.195284
0.205602
0.216668
0.228559
0.241369
0.255208
0.270204
0.28651
0.304304
0.323809
0.3453
0.36911
0.39566
0.425485
0.459279
0.497957
0.54275
0.595371
0.658292
0.735268
0.832359
0.960124
1.13864
1.40711
1.84003
2.60025
4.168
8.3502
19.2497
54.2334
35.7783
67.8237
25.2016
13.4649
4.8196
2.36357
1.46124
1.09309
0.929857
0.846432
0.790335
0.74096
0.692778
0.646247
0.603089
0.564457
0.530595
0.501161
0.475606
0.453338
0.433839
0.416692
0.40157
0.388214
0.376418
0.366012
0.356855
0.348831
0.341845
0.33582
0.330694
0.326418
0.322962
0.320303
0.318421
0.3173
0.316967
0.317506
0.318935
0.321254
0.324539
0.328886
0.334412
0.341268
0.349652
0.359784
0.371859
0.385914
0.401621
0.418092
0.434043
0.448957
0.465917
0.497694
0.576541
0.774438
1.25664
2.32171
3.91425
3.11809
1.76193
0.652701
0.156751
0.0670732
0.0224835
0.019199
0.0176525
0.0158145
0.0149811
0.0137888
0.013272
0.0124098
0.0120561
0.0113958
0.0111319
0.0106076
0.0104033
0.00997182
0.00980853
0.00944298
0.00930955
0.00899288
0.00888179
0.00860279
0.00850813
0.00825955
0.00817721
0.00795344
0.00788091
0.00767735
0.00761277
0.00742588
0.00736786
0.00719499
0.00714251
0.00698168
0.00693392
0.00678352
0.00673978
0.0065984
0.00655807
0.00642449
0.00638705
0.00626026
0.00622528
0.00610445
0.00607152
0.00595598
0.00592475
0.00581385
0.00578408
0.00567724
0.00564871
0.00554536
0.00551783
0.00541746
0.00539074
0.00529288
0.00526676
0.00517097
0.0051453
0.00505123
0.00502586
0.00493326
0.00490805
0.00481672
0.00479151
0.00470121
0.00467591
0.00458647
0.00456101
0.00447229
0.00444664
0.00435858
0.00433274
0.00424534
0.00421938
0.00413274
0.00410675
0.00402107
0.00399521
0.00391079
0.00388533
0.00380295
0.00377806
0.00369854
0.00367452
0.0035988
0.00357609
0.00350535
0.00348446
0.00341822
0.00340341
0.00334079
0.00333234
0.00327472
0.00327456
0.00322282
0.00323202
0.00318702
0.00320656
0.00316888
0.00319859
0.00316817
0.00320708
0.0031834
0.00323038
0.00321195
0.00326473
0.00325009
0.00330474
0.00329288
0.00334774
0.00333687
0.003391
0.00338018
0.0034329
0.00342101
0.00347186
0.00345938
0.00350717
0.00349477
0.00353924
0.00352637
0.00356806
0.00355473
0.00359362
0.00357967
0.0036165
0.00360173
0.00363945
0.00361536
0.00366313
0.00365682
0.0037337
0.00378514
0.00382794
0.00386458
0.00765824
0.0122032
0.0120599
0.00754066
0.00745804
0.011866
0.0113904
0.00728235
0.00701712
0.0105883
0.0188521
0.017544
0.0174475
0.0174138
0.0221148
0.0219
0.0215443
0.0280951
0.0278912
0.0277253
0.0326954
0.0327657
0.0326937
0.0306345
0.0301329
0.0184995
0.0114343
0.00714658
0.0069431
0.0104589
0.01129
0.00706663
0.00688783
0.0103768
0.0183501
0.0182234
0.0111941
0.0070073
0.006826
0.0102894
0.011097
0.00694357
0.00676073
0.0101962
0.0181267
0.0179969
0.0109957
0.00687687
0.00669178
0.0100985
0.0108919
0.00680679
0.00661902
0.00999858
0.0178762
0.0177492
0.0107868
0.0067341
0.00654416
0.00989972
0.0106842
0.00666
0.00646861
0.00980428
0.0176371
0.0175334
0.0105874
0.00658626