/*--------------------------------*- C++ -*----------------------------------*\
| =========                 |                                                 |
| \\      /  F ield         | OpenFOAM: The Open Source CFD Toolbox           |
|  \\    /   O peration     | Version:  v2006                                 |
|   \\  /    A nd           | Website:  www.openfoam.com                      |
|    \\/     M anipulation  |                                                 |
\*---------------------------------------------------------------------------*/
FoamFile
{
    version     2.0;
    format      ascii;
    class       volScalarField;
    location    "0.052";
    object      yPlus;
}
// * * * * * * * * * * * * * * * * * * * * * * * * * * * * * * * * * * * * * //

dimensions      [0 0 0 0 0 0 0];


internalField   uniform 0;

boundaryField
{
    bottomEmptyFaces
    {
        type            empty;
    }
    topEmptyFaces
    {
        type            empty;
    }
    inlet
    {
        type            calculated;
        value           uniform 0;
    }
    outlet
    {
        type            calculated;
        value           uniform 0;
    }
    walls
    {
        type            calculated;
        value           nonuniform List<scalar> 
681
(
23.0329
23.0878
23.0795
23.1425
23.1347
23.1978
23.1906
23.2531
23.2463
23.3085
23.302
23.3631
23.3568
23.417
23.4107
23.4696
23.4631
23.5202
23.5136
23.569
23.562
23.6149
23.6076
23.6583
23.6507
23.6989
23.6908
23.7368
23.7283
23.7717
23.7629
23.8039
23.7946
23.8334
23.8238
23.8607
23.8507
23.8857
23.8755
23.909
23.8985
23.9305
23.9199
23.9506
23.9399
23.9694
23.9586
23.987
23.976
24.0035
23.9925
24.0191
24.0081
24.0338
24.0227
24.0477
24.0365
24.0608
24.0496
24.0733
24.062
24.085
24.0737
24.096
24.0846
24.1064
24.0949
24.116
24.1045
24.1252
24.1136
24.1337
24.1221
24.1419
24.1302
24.1495
24.1378
24.1569
24.1452
24.1638
24.1521
24.1705
24.1588
24.1769
24.1652
24.1831
24.1714
24.1889
24.1772
24.1947
24.1829
24.2001
24.1883
24.2053
24.1936
24.2103
24.1985
24.2151
24.2034
24.2197
24.2079
24.2242
24.2123
24.2284
24.2164
24.2324
24.2205
24.2362
24.2243
24.24
24.228
24.2436
24.2315
24.2471
24.2351
24.2506
24.2387
24.2542
24.2424
24.2579
24.2461
24.2617
24.2501
24.2657
24.2542
24.2701
24.2586
24.2746
24.2632
24.2793
24.2679
24.2839
24.2726
24.2885
24.2772
24.293
24.2816
24.2972
24.2856
24.318
24.3191
24.3342
24.3354
24.3952
24.4344
24.5393
24.5849
24.7685
24.9403
25.7845
27.1628
13.7719
14.7043
13.1371
14.2188
12.043
12.8199
15.828
13.8191
14.0221
11.2609
11.7373
16.5911
12.9889
13.9027
14.4388
14.6373
12.7106
13.521
11.92
12.4271
12.5069
13.427
14.0748
13.105
10.2382
9.7227
12.7045
11.3405
13.3272
11.6897
10.3336
10.4888
9.7634
14.2191
11.4232
10.3829
14.1103
13.9159
10.5839
10.243
12.4062
11.629
13.9967
10.4682
10.3498
13.8625
11.1444
11.2915
10.2333
10.2469
12.1204
11.6294
12.3084
11.6869
10.5693
10.4236
13.8398
12.3624
11.552
10.5736
10.1609
12.3277
11.3006
15.1331
14.7302
10.5211
10.9048
11.9653
12.5522
13.1887
13.2847
11.3001
11.8415
14.3572
11.1574
11.5943
10.392
10.6532
11.245
11.4766
14.2526
12.5814
12.3121
10.3034
10.4648
12.5958
12.4378
12.8869
12.9228
11.7121
12.2734
17.3517
18.6265
12.5253
13.3547
12.0507
12.9276
22.4127
11.6801
12.3027
10.8222
11.2527
17.9216
18.9293
16.3391
17.0473
19.4198
19.8313
26.8137
23.892
23.7017
19.8633
20.625
28.4046
22.8099
22.4659
27.5108
23.3237
22.6178
21.3386
28.4269
23.4496
22.8833
28.4619
24.3416
23.5033
29.5393
24.9104
24.194
30.9173
26.6856
25.6349
16.0789
17.718
18.9671
17.1661
13.9548
15.8293
12.8045
16.6867
14.8716
12.1256
14.1934
11.5888
29.9815
20.5139
24.3875
26.8627
26.0508
24.5896
19.5343
16.4002
20.7945
20.8884
19.2962
17.7256
18.5108
23.044
23.8532
19.2148
23.6194
17.8533
17.0995
10.3592
24.9334
25.305
19.1441
19.5596
21.6584
21.9848
18.7222
19.3922
24.4226
18.1389
18.6613
21.0316
21.1904
18.5364
19.4817
23.1552
19.7168
15.9745
20.0608
20.5163
16.753
17.4861
13.7933
16.6068
9.69786
20.9382
21.2595
22.6859
22.6282
19.8876
17.7344
15.6599
14.4066
33.5008
30.5859
35.5999
28.0916
26.0357
37.8934
34.7685
30.422
29.0635
26.3073
36.5279
36.6648
36.8794
37.759
38.2191
38.2464
37.5297
36.2184
34.9394
33.5928
32.3857
31.1944
30.1698
29.2099
28.3794
27.6206
15.0472
15.5022
13.6315
11.3252
13.1907
11.0468
14.6014
12.777
10.8025
12.318
10.573
12.6165
11.0847
13.4441
8.44786
26.9494
26.3421
16.423
25.8013
14.4111
25.3203
13.2932
12.2203
24.8898
11.612
24.5191
24.1809
23.9059
11.0583
10.7702
10.4699
10.2278
23.6403
23.4513
9.96848
9.85544
23.2344
9.58083
23.1325
9.53918
22.9539
22.9224
22.7823
22.7845
9.39443
9.34689
22.687
22.7088
9.16332
9.0811
22.6443
8.91856
22.6763
8.86825
8.73772
22.6314
8.7121
22.6706
22.6396
22.6832
8.60096
8.58562
8.48864
8.47841
22.6623
22.7087
8.38881
8.38163
22.692
8.29698
22.744
8.29186
22.7299
22.7867
22.7735
22.8322
8.21123
8.20781
22.82
22.8803
8.13071
8.12859
22.8689
8.05466
22.9301
8.05373
7.9827
22.9196
7.9827
22.9817
22.9723
23.026
7.91452
7.91523
7.84956
7.85086
7.78756
7.7895
7.72845
7.73091
7.67191
7.67494
7.61799
7.62415
7.5651
7.56923
7.51275
7.58586
7.57188
7.6392
7.63842
7.72201
7.65346
7.25278
9.61729
6.06658
18.1009
14.6762
15.6717
19.0135
16.4995
16.9803
13.6602
14.2789
15.0173
16.2044
14.4613
15.6586
13.8641
14.7984
12.9424
13.586
18.1983
18.7847
16.6078
17.8811
20.2955
15.7934
16.9714
17.541
17.9903
15.7691
16.8229
14.6337
15.3688
21.0372
15.1061
15.8896
16.4215
17.4885
15.0774
16.4718
13.1317
14.0537
14.1131
15.1977
15.6755
16.0098
13.6106
14.7881
17.3408
15.1135
15.4799
12.3036
12.9726
28.6049
12.7727
49.0719
45.6695
43.0472
41.5198
39.9304
38.7362
37.7356
36.8332
36.2488
35.6352
35.2181
34.7332
34.4132
34.0185
33.7592
33.4268
33.2061
32.9172
32.7243
32.4669
32.2937
32.0594
31.9004
31.6834
31.5349
31.3309
31.1902
30.9964
30.8616
30.6755
30.5452
30.3652
30.2382
30.0627
29.9379
29.7657
29.6423
29.4723
29.3495
29.1809
29.0582
28.8901
28.7668
28.5984
28.474
28.3046
28.1787
28.0076
27.8795
27.7062
27.5754
27.399
27.2651
27.0849
26.9474
26.7627
26.6209
26.431
26.2845
26.0886
25.9366
25.7339
25.5761
25.3659
25.2016
24.9832
24.8119
24.5848
24.4062
24.1696
23.9833
23.7368
23.5425
23.2856
23.0832
22.8155
22.6051
22.3267
22.1085
21.8198
21.5944
21.2963
21.0649
20.759
20.5233
20.2121
19.9748
19.6615
19.4263
19.1155
18.8868
18.584
18.3674
18.0789
17.8806
17.6135
17.4397
17.201
17.0572
16.853
16.7431
16.577
16.5018
16.3752
16.3314
16.2447
16.2276
16.1832
16.1803
16.1604
16.1671
16.1611
16.1754
16.1779
16.1983
16.2055
16.2319
16.241
16.2692
16.2791
16.3071
16.317
16.344
16.3538
16.3796
16.389
16.4175
16.4209
16.4514
16.4518
16.4851
16.4746
16.5746
16.6388
16.9449
17.0935
17.2869
17.5305
53.4382
17.9121
)
;
    }
    rightWall
    {
        type            calculated;
        value           uniform 0;
    }
    symmetryLine
    {
        type            symmetryPlane;
    }
}


// ************************************************************************* //
