/*--------------------------------*- C++ -*----------------------------------*\
| =========                 |                                                 |
| \\      /  F ield         | OpenFOAM: The Open Source CFD Toolbox           |
|  \\    /   O peration     | Version:  v2006                                 |
|   \\  /    A nd           | Website:  www.openfoam.com                      |
|    \\/     M anipulation  |                                                 |
\*---------------------------------------------------------------------------*/
FoamFile
{
    version     2.0;
    format      ascii;
    class       volScalarField;
    location    "0.035";
    object      isentropic(p);
}
// * * * * * * * * * * * * * * * * * * * * * * * * * * * * * * * * * * * * * //

dimensions      [1 -1 -2 0 0 0 0];


internalField   nonuniform List<scalar> 
16277
(
150008
150014
150017
150002
150013
150010
150011
150012
150013
150013
150013
150012
150012
150011
150011
150011
150010
150010
150010
150010
150010
150010
150010
150009
150009
150009
150009
150009
150009
150009
150009
150009
150008
150008
150008
150008
150008
150008
150008
150008
150007
150007
150007
150007
150007
150007
150007
150007
150006
150006
150006
150006
150006
150006
150006
150006
150005
150005
150005
150005
150005
150005
150005
150005
150005
150004
150004
150004
150004
150004
150004
150004
150004
150004
150004
150003
150003
150003
150003
150002
150002
150001
150001
150000
150001
150003
150004
150005
150004
150006
150005
150007
150008
150011
150017
150015
149976
149936
150011
150022
150021
150002
149897
149860
149993
150018
150013
149981
149826
149796
149971
150008
150002
149959
149768
149744
149949
149997
149991
149938
149721
149702
149929
149986
149979
149919
149684
149669
149911
149975
149968
149901
149653
149640
149893
149964
149958
149884
149627
149616
149877
149953
149947
149868
149605
149595
149862
149943
149937
149854
149585
149577
149849
149934
149928
149841
149568
149561
149836
149925
149919
149829
149553
149547
149824
149916
149911
149817
149540
149534
149813
149908
149903
149807
149528
149523
149803
149901
149896
149797
149517
149513
149794
149893
149889
149788
149508
149504
149785
149887
149882
149779
149499
149496
149776
149880
149876
149771
149492
149489
149769
149874
149870
149764
149485
149483
149762
149868
149864
149757
149479
149477
149755
149863
149859
149750
149474
149473
149749
149857
149854
149744
149470
149469
149743
149852
149849
149738
149466
149465
149737
149848
149844
149733
149463
149463
149732
149843
149840
149728
149461
149461
149728
149839
149836
149724
149459
149459
149723
149835
149832
149720
149458
149459
149719
149831
149828
149716
149458
149458
149716
149827
149824
149713
149458
149458
149713
149824
149821
149710
149458
149459
149710
149821
149818
149707
149459
149461
149707
149818
149815
149704
149461
149462
149705
149815
149812
149702
149463
149465
149703
149812
149809
149700
149465
149467
149701
149809
149807
149699
149468
149471
149699
149807
149805
149698
149472
149475
149698
149805
149803
149697
149476
149479
149698
149803
149801
149696
149481
149483
149697
149801
149799
149696
149485
149489
149697
149800
149798
149696
149491
149494
149697
149799
149797
149696
149497
149500
149698
149798
149796
149697
149503
149507
149699
149797
149796
149699
149509
149513
149701
149797
149796
149700
149516
149520
149703
149797
149796
149703
149523
149527
149705
149797
149797
149705
149531
149535
149708
149798
149798
149709
149538
149542
149711
149800
149800
149712
149546
149550
149716
149802
149802
149717
149553
149558
149720
149804
149805
149721
149561
149565
149725
149808
149808
149727
149568
149572
149730
149811
149812
149732
149574
149579
149736
149815
149816
149738
149580
149584
149742
149820
149820
149743
149586
149589
149747
149824
149825
149749
149590
149592
149752
149828
149829
149753
149592
149594
149757
149832
149833
149758
149593
149595
149761
149836
149836
149761
149593
149594
149764
149839
149839
149764
149592
149592
149766
149842
149842
149766
149589
149589
149768
149845
149845
149767
149586
149585
149769
149847
149846
149768
149581
149580
149769
149849
149848
149768
149576
149575
149769
149850
149849
149767
149571
149569
149768
149850
149849
149766
149565
149563
149766
149850
149849
149764
149559
149557
149764
149850
149849
149762
149553
149551
149762
149850
149848
149760
149547
149545
149760
149849
149847
149757
149541
149539
149757
149848
149846
149755
149535
149534
149755
149847
149845
149752
149530
149529
149752
149845
149843
149749
149525
149524
149749
149844
149842
149746
149521
149520
149746
149842
149840
149743
149516
149515
149743
149840
149838
149741
149513
149512
149740
149838
149835
149738
149509
149509
149738
149835
149833
149735
149506
149506
149735
149833
149831
149732
149503
149502
149732
149831
149829
149729
149499
149498
149729
149830
149828
149727
149495
149495
149727
149829
149827
149724
149492
149492
149724
149826
149823
149721
149490
149490
149721
149823
149820
149719
149488
149488
149719
149820
149818
149716
149486
149485
149716
149818
149816
149714
149483
149483
149714
149816
149815
149712
149481
149480
149712
149816
149816
149711
149478
149479
149713
149818
149820
149716
149483
149496
149727
149831
149867
149775
149551
149515
149697
149792
149863
149921
149954
149966
149971
149984
149988
149994
149996
149998
149999
149998
149996
149992
149989
149978
149974
149967
149959
149946
149913
149841
149709
149541
149273
149260
149526
149689
149674
149505
149236
149242
149501
149656
149655
149488
149219
149231
149494
149653
149651
149490
149223
149226
149491
149653
149654
149492
149227
149227
149492
149654
149655
149493
149228
149228
149494
149656
149657
149496
149230
149231
149497
149658
149659
149498
149232
149233
149499
149660
149661
149500
149234
149234
149501
149662
149664
149502
149235
149236
149503
149665
149666
149505
149237
149238
149506
149667
149668
149507
149239
149240
149508
149669
149670
149509
149241
149242
149510
149671
149672
149512
149243
149244
149513
149674
149675
149514
149245
149246
149515
149676
149677
149516
149247
149248
149518
149678
149679
149519
149249
149250
149520
149681
149682
149521
149251
149252
149523
149683
149684
149524
149253
149254
149525
149685
149686
149526
149255
149256
149528
149688
149689
149529
149257
149258
149530
149690
149691
149531
149259
149260
149533
149693
149694
149534
149261
149262
149535
149695
149696
149536
149263
149264
149538
149698
149699
149539
149265
149266
149540
149700
149701
149542
149267
149268
149543
149703
149704
149544
149269
149270
149546
149705
149707
149547
149271
149272
149548
149708
149710
149550
149272
149273
149551
149711
149712
149552
149274
149275
149554
149714
149715
149555
149275
149276
149556
149717
149719
149558
149277
149277
149559
149720
149722
149560
149277
149278
149562
149724
149726
149563
149278
149279
149565
149728
149730
149566
149279
149279
149568
149732
149734
149570
149280
149280
149571
149736
149738
149573
149280
149280
149575
149740
149742
149576
149280
149280
149578
149744
149747
149581
149280
149281
149583
149749
149753
149585
149280
149280
149588
149756
149760
149590
149280
149279
149593
149763
149767
149596
149279
149280
149600
149771
149774
149603
149281
149282
149607
149779
149783
149612
149284
149285
149616
149787
149792
149621
149288
149291
149626
149796
149800
149633
149296
149302
149640
149804
149809
149648
149309
149315
149655
149813
149821
149668
149328
149338
149679
149828
149836
149692
149352
149368
149701
149843
149850
149714
149384
149401
149724
149857
149862
149734
149419
149438
149745
149868
149873
149756
149460
149480
149768
149880
149886
149776
149496
149515
149786
149891
149896
149795
149536
149563
149814
149904
149911
149827
149576
149333
149595
149800
149887
149743
149401
149417
149757
149894
149898
149771
149439
149465
149775
149891
149902
149796
149498
149519
149802
149906
149925
149820
149545
149572
149828
149923
149931
149850
149612
149623
149854
149942
149964
149872
149646
149660
149883
149968
149874
149675
149503
149570
149843
149954
149955
149858
149607
149644
149880
149956
149969
149889
149660
149688
149905
149984
149984
149913
149711
149750
149936
149992
149999
149946
149764
149577
149876
149935
149977
149900
149681
149704
149923
149996
150006
149946
149746
149767
149950
150007
150012
149964
149797
149810
149977
150024
149971
149808
149701
149747
149956
150049
150043
149977
149805
149840
149997
150045
150053
150007
149864
149874
150012
150053
150004
149868
149798
149862
150020
150062
150063
150028
149893
149921
150040
150073
150081
150053
149939
149879
149911
150051
150112
150070
149950
149980
150075
150100
150117
150095
150016
150039
150103
150112
150105
150083
150003
150070
150131
150145
150137
150139
150103
150062
150190
150148
150175
150182
150160
150182
150194
150178
150211
150216
150198
150276
150252
150218
150181
150222
150234
150278
150229
150188
150216
150261
150312
150294
150273
150234
150188
150214
150181
150036
150105
150104
150007
149954
149844
149890
149967
149978
149923
149870
149745
149809
149913
149936
149918
149858
149709
149721
149658
149855
149868
149850
149643
149622
149781
149854
149895
149853
149697
149657
149816
149877
149824
149752
149585
149672
149832
149870
149857
149807
149644
149560
149737
149827
149864
149829
149660
149634
149802
149847
149812
149721
149525
149661
149826
149857
149840
149803
149635
149511
149714
149815
149878
149815
149627
149603
149785
149855
149783
149704
149516
149627
149809
149861
149851
149782
149600
149516
149706
149791
149862
149810
149629
149599
149782
149851
149791
149704
149512
149642
149812
149849
149824
149799
149637
149545
149769
149871
149794
149556
149520
149605
149803
149841
149852
149726
149510
149376
149731
149801
149846
149796
149619
149519
149752
149855
149806
149619
149520
149604
149807
149863
149839
149736
149527
149379
149725
149795
149841
149764
149558
149562
149753
149820
149770
149753
149418
149652
149820
149857
149850
149762
149536
149505
149609
149799
149875
149782
149535
149547
149757
149833
149746
149570
149513
149660
149837
149844
149898
149755
149491
149438
149485
149765
149843
149756
149477
149464
149682
149796
149880
149828
149630
149596
149788
149853
149792
149699
149500
149616
149815
149877
149859
149782
149584
149518
149712
149797
149875
149825
149634
149607
149801
149868
149807
149709
149504
149577
149817
149914
149880
149758
149533
149506
149691
149746
149856
149846
149692
149586
149809
149895
149804
149573
149543
149545
149807
149871
149819
149716
149501
149625
149838
149896
149877
149805
149601
149512
149720
149816
149906
149833
149605
149560
149789
149878
149795
149602
149550
149601
149837
149871
149828
149745
149533
149647
149851
149904
149895
149824
149623
149525
149731
149825
149921
149844
149616
149564
149793
149892
149802
149606
149554
149601
149846
149880
149834
149749
149532
149651
149857
149909
149901
149825
149617
149515
149730
149828
149909
149823
149576
149610
149799
149860
149764
149854
149484
149679
149846
149884
149815
149756
149528
149645
149850
149902
149897
149826
149609
149564
149660
149831
149902
149856
149599
149530
149753
149847
149910
149855
149634
149607
149818
149892
149807
149762
149459
149613
149834
149909
149852
149764
149535
149640
149858
149917
149897
149821
149614
149449
149783
149809
149912
149827
149617
149525
149764
149851
149911
149861
149644
149591
149816
149890
149825
149651
149539
149608
149871
149909
149858
149764
149531
149622
149850
149902
149884
149833
149634
149433
149853
149812
149934
149803
149665
149497
149761
149846
149907
149843
149598
149514
149755
149846
149924
149871
149645
149608
149831
149904
149835
149712
149523
149598
149854
149910
149854
149757
149516
149599
149842
149903
149880
149822
149614
149420
149857
149809
149932
149791
149647
149469
149750
149835
149909
149848
149592
149514
149766
149857
149925
149863
149620
149565
149814
149901
149827
149629
149528
149564
149865
149902
149835
149737
149484
149590
149854
149913
149852
149755
149498
149604
149855
149919
149896
149813
149577
149401
149771
149798
149918
149817
149595
149466
149742
149842
149913
149852
149586
149499
149759
149851
149920
149859
149609
149560
149812
149898
149819
149644
149492
149551
149851
149899
149828
149723
149459
149576
149850
149910
149853
149755
149492
149610
149860
149917
149893
149808
149544
149519
149587
149822
149885
149901
149504
149441
149711
149826
149892
149835
149540
149452
149732
149834
149903
149846
149585
149516
149791
149876
149806
149555
149489
149498
149895
149884
149821
149705
149435
149532
149828
149889
149824
149718
149441
149549
149835
149902
149836
149734
149455
149560
149832
149897
149871
149793
149552
149313
149786
149768
149907
149749
149568
149380
149705
149806
149885
149805
149496
149409
149704
149813
149894
149828
149532
149439
149723
149826
149896
149833
149560
149489
149776
149870
149789
149545
149454
149457
149858
149863
149795
149675
149382
149484
149803
149869
149800
149690
149387
149510
149815
149884
149810
149701
149405
149541
149825
149890
149863
149767
149473
149445
149525
149781
149846
149874
149423
149362
149654
149785
149854
149793
149460
149354
149668
149784
149867
149795
149477
149371
149681
149797
149861
149791
149493
149476
149740
149825
149729
149783
149239
149506
149690
149874
149765
149656
149300
149438
149773
149855
149771
149648
149323
149444
149778
149853
149770
149654
149333
149456
149782
149855
149781
149669
149357
149485
149789
149857
149827
149724
149403
149391
149437
149745
149797
149869
149324
149275
149584
149737
149816
149751
149388
149281
149620
149742
149837
149759
149416
149293
149626
149752
149837
149761
149422
149313
149643
149762
149844
149771
149455
149373
149701
149810
149716
149470
149315
149354
149787
149802
149723
149585
149251
149370
149734
149810
149728
149601
149254
149377
149735
149817
149730
149602
149261
149400
149746
149823
149746
149625
149288
149424
149752
149826
149793
149683
149341
149307
149389
149700
149763
149812
149263
149202
149546
149702
149782
149713
149318
149180
149561
149695
149796
149712
149332
149196
149566
149703
149796
149713
149341
149230
149587
149715
149802
149723
149376
149300
149654
149769
149663
149384
149227
149267
149746
149760
149675
149524
149151
149280
149684
149766
149674
149538
149148
149301
149691
149776
149681
149540
149160
149307
149691
149777
149691
149557
149185
149342
149701
149781
149740
149617
149236
149224
149293
149645
149701
149789
149148
149088
149465
149638
149728
149647
149222
149083
149495
149635
149744
149650
149229
149092
149497
149646
149742
149649
149232
149106
149503
149648
149747
149657
149254
149126
149517
149659
149750
149660
149284
149226
149592
149721
149574
149462
148989
149197
149579
149717
149613
149467
149035
149197
149624
149722
149618
149466
149049
149201
149624
149721
149622
149474
149070
149214
149627
149721
149632
149490
149091
149247
149639
149727
149690
149561
149162
149057
149304
149568
149668
149638
149114
148984
149408
149578
149684
149594
149139
148980
149425
149581
149686
149590
149140
149000
149430
149586
149689
149592
149153
149018
149445
149595
149689
149594
149177
149103
149510
149651
149493
149388
148848
149081
149498
149651
149534
149371
148897
149077
149547
149658
149545
149376
148919
149096
149558
149661
149552
149389
148939
149107
149560
149660
149564
149407
148966
149144
149572
149667
149631
149489
149053
148893
149218
149482
149602
149550
148998
148844
149311
149500
149610
149504
148998
148841
149321
149497
149613
149503
149010
148860
149332
149503
149621
149514
149034
148876
149350
149517
149623
149523
149067
148979
149440
149588
149440
149201
148795
148946
149483
149572
149464
149270
148778
148962
149483
149588
149474
149291
148796
148994
149490
149593
149470
149293
148797
148983
149472
149581
149537
149374
148865
148781
149024
149393
149506
149482
148818
148671
149201
149412
149534
149420
148856
148662
149213
149405
149542
149422
148879
148700
149233
149424
149547
149436
148930
148842
149344
149508
149299
149212
148472
148813
149297
149499
149361
149178
148581
148808
149374
149503
149344
149143
148563
148790
149360
149487
149367
149171
148607
148830
149377
149502
149448
149263
148689
148623
148860
149291
149405
149381
148639
148478
149068
149307
149450
149323
148709
148484
149092
149306
149457
149324
148718
148519
149117
149325
149462
149343
148776
148654
149248
149428
149230
148863
148461
148551
149257
149367
149227
148972
148346
148602
149249
149389
149244
149019
148379
148618
149259
149398
149265
149045
148414
148666
149275
149411
149360
149159
148530
148321
148820
149163
149329
149224
148504
148296
148945
149203
149358
149221
148545
148316
148981
149216
149366
149240
148600
148483
149137
149333
149089
148637
148216
148362
149112
149245
149103
148823
148132
148404
149119
149285
149130
148872
148163
148439
149147
149301
149151
148907
148211
148485
149160
149312
149264
149037
148361
148026
148764
149025
149237
149041
148358
148076
148825
149079
149261
149102
148381
148114
148858
149106
149258
149130
148483
148207
148933
149171
148910
148610
147877
148197
148966
149143
148988
148713
147936
148228
149011
149184
149025
148755
147976
148284
149038
149204
149157
148904
148132
147790
148558
148881
149112
148925
148130
147844
148660
148958
149153
148985
148201
148045
148858
149121
148816
148481
147664
147970
148825
149020
148783
148456
147581
147908
148796
149007
148836
148526
147649
147999
148849
149045
148992
148704
147830
147486
148311
148707
148961
148771
147836
147524
148439
148792
149009
148820
147921
147733
148663
148968
148626
148241
147315
147719
148707
148901
148752
148403
147456
147782
148710
148907
148781
148444
147457
147004
148046
148444
148768
148525
147507
147151
148201
148573
148830
148608
147617
147410
148448
148783
148434
147942
147006
147390
148509
148728
148537
148125
147073
147530
148574
148788
148752
148391
147308
146816
147904
148353
148628
148508
147374
146796
147889
148328
148592
148328
147221
146996
148115
148503
148173
147785
146517
147082
148219
148542
148305
147894
146667
147204
148340
148602
148557
148176
146981
146463
147605
148129
148474
148232
146991
146637
147830
148288
148524
148339
147260
147004
148151
148505
147918
147383
146119
146727
147962
148275
148207
147764
146480
145925
147385
147837
148250
147884
146587
146117
147539
147999
148346
148066
146785
146520
147878
148305
147825
147277
145905
146615
147917
148200
148268
147832
146474
145583
147168
147681
147961
147542
146013
145685
147277
147828
147360
146783
145066
145917
147488
147885
147605
147031
145412
146202
147687
148021
148000
147496
145960
145287
146830
147464
147877
147564
146135
146009
147509
147976
147289
146686
144997
145415
147098
147572
147414
146812
145034
144476
146274
146976
147523
147108
145435
145145
146927
147517
147016
146272
144462
145457
147135
147522
147586
147016
145192
144514
146309
147015
147247
146790
145035
144284
146353
147028
146770
145985
143805
143155
145314
146305
146939
146481
144377
144061
146272
147003
146421
145595
143227
144642
146534
146987
147282
146764
144602
142979
145524
146463
145567
144490
141854
143354
145723
146347
146364
145577
142978
142482
145282
146245
145707
144230
141813
143556
145932
146317
146552
145838
143257
141288
144447
145602
144735
143349
140234
142300
145064
145661
145793
144935
141912
141420
144858
145831
145976
144715
141620
138310
142651
144004
145010
143806
140441
139954
143702
144925
144923
143566
139448
139390
143836
145170
144778
142964
137731
136452
141817
143934
142694
140821
135101
139463
143248
144491
144448
143021
138572
137370
142348
144108
143727
141911
136619
136207
141708
143501
143347
141260
135332
134904
141017
143244
143228
140863
134632
134353
140675
143205
143143
140449
134068
133810
140213
143055
142956
139982
133588
133401
139758
142851
142741
139543
133240
133103
139336
142626
142509
139140
132989
132894
138953
142389
142268
138777
132817
132757
138612
142146
142024
138458
132711
132677
138314
141901
141779
138180
132653
132638
138057
141657
141537
137943
132632
132633
137838
141417
141300
137741
132641
132654
137652
141183
141070
137571
132673
132696
137496
140958
140850
137430
132723
132754
137369
140744
140642
137315
132787
132823
137267
140543
140448
137224
132862
132902
137186
140355
140267
137153
132943
132985
137122
140182
140102
137096
133028
133071
137072
140024
139951
137052
133115
133158
137033
139880
139814
137017
133201
133244
137003
139750
139690
136992
133287
133328
136982
139633
139580
136974
133370
133410
136966
139529
139483
136961
133450
133489
136956
139438
139397
136952
133527
133563
136949
139358
139323
136947
133600
133634
136945
139289
139258
136945
133668
133700
136944
139229
139203
136945
133731
133761
136946
139177
139155
136948
133790
133817
136950
139133
139114
136953
133844
133869
136956
139095
139079
136959
133894
133916
136963
139063
139049
136967
133939
133960
136971
139035
139024
136975
133981
134000
136980
139012
139002
136985
134019
134036
136989
138992
138984
136994
134053
134069
136999
138976
138969
137005
134085
134100
137009
138962
138956
137014
134114
134128
137019
138950
138945
137024
134141
134153
137028
138939
138935
137033
134165
134176
137037
138931
138927
137042
134187
134197
137046
138923
138920
137050
134207
134217
137054
138916
138914
137058
134226
134234
137062
138910
138908
137066
134243
134250
137070
138905
138904
137074
134258
134265
137077
138901
138900
137081
134272
134279
137084
138898
138897
137088
134286
134291
137091
138895
138894
137095
134298
134303
137098
138893
138893
137101
134309
134314
137104
138891
138891
137108
134319
134324
137111
138890
138890
137114
134329
134334
137117
138889
138890
137121
134339
134343
137124
138889
138890
137127
134348
134352
137130
138889
138891
137134
134357
134361
137137
138890
138892
137140
134365
134369
137143
138891
138893
137147
134374
134378
137150
138892
138894
137154
134382
134386
137157
138894
138896
137160
134390
134394
137164
138896
138899
137167
134398
134402
137170
138899
138901
137174
134407
134410
137178
138902
138905
137181
134415
134418
137185
138905
138908
137189
134423
134426
137192
138908
138912
137196
134430
134434
137199
138912
138916
137203
134438
134442
137207
138916
138920
137211
134446
134450
137214
138921
138925
137219
134454
134458
137222
138926
138930
137226
134462
134465
137230
138931
138935
137234
134469
134473
137238
138936
138941
137242
134477
134481
137246
138942
138946
137250
134485
134488
137254
138948
138952
137258
134492
134496
137262
138954
138959
137266
134500
134503
137270
138960
138965
137274
134507
134511
137278
138967
138972
137283
134515
134518
137287
138974
138979
137291
134522
134526
137295
138981
138986
137300
134529
134533
137304
138988
138993
137308
134536
134540
137312
138995
139000
137316
134543
134547
137320
139002
139008
137325
134550
134554
137329
139010
139015
137333
134557
134560
137337
139017
139023
137342
134564
134567
137346
139025
139030
137350
134570
134574
137354
139033
139038
137358
134577
134580
137362
139040
139046
137366
134583
134586
137370
139048
139054
137375
134589
134592
137379
139056
139061
137383
134596
134598
137387
139064
139069
137391
134602
134604
137395
139072
139077
137399
134607
134610
137403
139079
139085
137407
134613
134616
137411
139087
139093
137415
134619
134621
137419
139095
139101
137423
134624
134627
137427
139103
139108
137431
134629
134632
137434
139111
139116
137438
134634
134637
137442
139119
139124
137446
134639
134641
137450
139126
139132
137454
134644
134646
137457
139134
139140
137461
134648
134650
137464
139142
139147
137468
134652
134654
137471
139149
139154
137475
134656
134658
137478
139157
139162
137482
134660
134662
137485
139164
139169
137489
134664
134665
137491
139171
139177
137495
134667
134668
137498
139179
139185
137503
134673
134675
137506
139188
139191
137510
134678
134680
137509
139188
139176
137498
134677
134670
137482
139159
139203
137502
134685
134760
137599
139355
139448
137672
134817
142055
144691
146368
146740
146890
147546
147883
148029
148174
148587
148856
149138
149350
149505
149621
149704
149763
149806
149837
149860
149877
149891
149901
149910
149917
149922
149926
149930
149932
149934
149935
149936
149936
149933
149934
149941
149946
149954
149963
149973
149984
149995
150006
150016
150022
150024
150023
150021
150019
150017
150015
150013
150012
150010
150008
150006
150004
150002
150000
149998
149996
149994
149993
149991
149990
149989
149988
149988
149988
149989
149990
149991
149993
149996
149999
150003
150008
150013
150018
150024
150030
150037
150043
150049
150055
150061
150066
150071
150075
150079
150081
150083
150084
150085
150085
150084
150082
150080
150077
150075
150071
150068
150064
150060
150056
150052
150047
150043
150039
150035
150031
150027
150023
150019
150015
150012
150008
150005
150002
149999
149996
149994
149991
149989
149987
149984
149982
149981
149979
149977
149976
149974
149973
149972
149971
149969
149969
149968
149967
149966
149965
149965
149964
149964
149964
149963
149963
149963
149962
149962
149962
149962
149962
149962
149962
149963
149963
149963
149963
149963
149964
149964
149964
149965
149965
149966
149966
149967
149967
149968
149968
149969
149969
149970
149971
149971
149972
149973
149973
149974
149975
149976
149977
149977
149978
149979
149980
149981
149982
149983
149983
149984
149985
149986
149987
149988
149989
149991
149992
149993
149994
149996
150000
150007
150012
150015
150015
150017
150004
150012
150012
150020
150027
150029
150029
150027
150026
150024
150022
150021
150020
150019
150018
150017
150016
150016
150015
150015
150014
150014
150013
150013
150012
150012
150012
150011
150011
150011
150011
150010
150010
150010
150010
150009
150009
150009
150009
150009
150008
150008
150008
150008
150007
150007
150007
150007
150007
150006
150006
150006
150006
150005
150005
150005
150005
150005
150004
150004
150004
150004
150003
150003
150003
150003
150002
150002
150002
150001
150001
150000
150000
149999
149999
149998
149997
149995
149994
149994
149995
149997
149999
150000
150004
150010
150019
150024
150024
150021
150019
150016
150013
150010
150008
150005
150003
150000
149998
149995
149993
149990
149988
149985
149984
149980
149979
149976
149975
149971
149971
149967
149967
149963
149963
149960
149959
149956
149956
149952
149952
149949
149949
149946
149946
149943
149943
149939
149940
149936
149937
149934
149934
149931
149931
149928
149929
149926
149926
149923
149923
149921
149921
149918
149919
149916
149916
149913
149914
149911
149912
149909
149910
149907
149908
149905
149906
149903
149904
149901
149902
149899
149900
149898
149899
149896
149897
149895
149896
149894
149895
149893
149894
149892
149894
149892
149894
149892
149894
149892
149895
149893
149896
149894
149897
149896
149899
149898
149901
149900
149903
149902
149905
149904
149908
149907
149910
149909
149913
149912
149916
149914
149918
149917
149920
149919
149922
149921
149924
149922
149925
149923
149926
149924
149927
149925
149927
149925
149928
149926
149927
149926
149927
149925
149927
149925
149926
149924
149926
149923
149925
149923
149924
149922
149923
149921
149922
149920
149921
149919
149920
149918
149919
149916
149917
149915
149916
149914
149915
149913
149914
149911
149913
149911
149911
149910
149911
149909
149914
149921
149931
149955
149954
149952
149965
149948
149951
149965
149948
149952
149965
149949
149953
149966
149950
149954
149967
149951
149955
149968
149952
149956
149969
149953
149957
149970
149954
149957
149971
149955
149958
149972
149955
149959
149973
149956
149960
149974
149957
149961
149974
149958
149961
149975
149958
149962
149976
149959
149963
149976
149959
149963
149977
149960
149964
149977
149960
149964
149978
149960
149964
149978
149961
149964
149978
149960
149964
149978
149960
149964
149978
149960
149964
149977
149959
149963
149977
149958
149962
149976
149956
149960
149975
149955
149959
149974
149953
149957
149972
149951
149955
149971
149949
149953
149969
149947
149951
149968
149945
149949
149966
149944
149948
149965
149942
149946
149965
149941
149945
149964
149940
149944
149963
149939
149943
149963
149939
149943
149964
149939
149944
149965
149939
149944
149965
149940
149945
149966
149940
149946
149967
149941
149947
149968
149942
149948
149970
149943
149949
149971
149945
149951
149972
149946
149952
149973
149947
149953
149975
149949
149955
149976
149950
149956
149977
149952
149958
149978
149953
149959
149979
149954
149960
149980
149956
149962
149982
149957
149963
149983
149959
149965
149984
149960
149966
149985
149962
149968
149986
149963
149969
149987
149965
149970
149989
149967
149972
149990
149968
149973
149991
149970
149975
149992
149972
149977
149993
149973
149978
149994
149975
149980
149996
149977
149982
149997
149979
149983
149998
149981
149985
149999
149983
149987
150000
149985
149989
150002
149987
149991
150003
149989
149993
150004
149992
149995
150006
149994
149997
150007
149996
150000
150008
149999
150002
150010
150002
150004
150011
150004
150007
150013
150007
150010
150014
150010
150013
150016
150013
150015
150017
150017
150018
150019
150020
150022
150020
150023
150013
150015
150015
150015
150015
150014
150014
150013
150013
150013
150012
150012
150012
150011
150011
150011
150010
150010
150010
150010
150009
150009
150009
150008
150008
150008
150007
150007
150006
150006
150006
150005
150004
150004
150003
150002
150002
150001
150000
149998
149997
149996
149995
149994
149993
149992
149992
149991
149992
149995
149997
149998
150000
150003
150005
150008
150010
150011
150012
150012
150012
150012
150011
150010
150009
150007
150006
150005
150004
150002
150001
150000
149999
149998
149997
149996
149995
149994
149993
149992
149991
149990
149989
149988
149987
149985
149968
149965
149965
149970
149984
149988
149988
149995
149994
149996
149996
149997
149997
149998
149999
150000
150001
150002
150003
150004
150005
150006
150007
150008
150010
150011
150015
150013
150012
150011
150010
150009
150008
150007
150006
150005
150004
150003
150002
150001
150000
149999
149999
149999
149999
149998
149998
149997
149997
149999
150000
150001
149994
149993
149992
149993
149992
149989
149990
149975
149976
149971
149971
149972
149972
149973
149975
149995