/*--------------------------------*- C++ -*----------------------------------*\
| =========                 |                                                 |
| \\      /  F ield         | OpenFOAM: The Open Source CFD Toolbox           |
|  \\    /   O peration     | Version:  v2006                                 |
|   \\  /    A nd           | Website:  www.openfoam.com                      |
|    \\/     M anipulation  |                                                 |
\*---------------------------------------------------------------------------*/
FoamFile
{
    version     2.0;
    format      ascii;
    class       volScalarField;
    location    "0.06";
    object      Co;
}
// * * * * * * * * * * * * * * * * * * * * * * * * * * * * * * * * * * * * * //

dimensions      [0 0 0 0 0 0 0];


internalField   nonuniform List<scalar> 
9148
(
0.016037
0.0153681
0.0166625
0.0172041
0.0174086
0.0169811
0.0169733
0.016778
0.0165846
0.0165043
0.0163677
0.0163129
0.0162574
0.0162164
0.0161691
0.0161195
0.0160659
0.0160094
0.01595
0.0158878
0.0158229
0.0157554
0.0156854
0.015613
0.0155383
0.0154615
0.0153827
0.015302
0.0152197
0.0151358
0.0150505
0.014964
0.0148765
0.0147881
0.014699
0.0146095
0.0145197
0.0144298
0.0143401
0.0142506
0.0141618
0.0140737
0.0139867
0.0139008
0.0138164
0.0137335
0.0136525
0.0135735
0.013497
0.0134229
0.0133504
0.0132806
0.0132116
0.013149
0.0130929
0.0130478
0.0130189
0.0130693
0.0131884
0.0135987
0.0143587
0.0161492
0.020149
0.0291872
0.0438239
0.0340425
0.029129
0.0288241
0.0281267
0.0269388
0.0267344
0.0258481
0.0232938
0.025253
0.0264239
0.0245653
0.0247598
0.0237757
0.0196813
0.0211391
0.0215206
0.0216798
0.0217628
0.020531
0.0186565
0.0204147
0.0209595
0.0214522
0.0211083
0.0192929
0.0188059
0.0207687
0.0212442
0.0215203
0.0210267
0.0189946
0.0188054
0.0209612
0.0214934
0.0215545
0.0210168
0.0187419
0.0185719
0.0208388
0.0214377
0.0214569
0.0208423
0.0184235
0.018268
0.02066
0.0213236
0.0213272
0.0206494
0.0181184
0.0179725
0.0204653
0.0211875
0.0211857
0.0204526
0.0178312
0.0176922
0.0202678
0.0210423
0.0210356
0.0202528
0.0175568
0.0174225
0.0200669
0.0208887
0.0208771
0.0200492
0.0172909
0.0171596
0.0198618
0.0207268
0.0207103
0.019841
0.0170304
0.016901
0.0196519
0.0205566
0.0205351
0.0196276
0.0167731
0.0166445
0.0194365
0.0203779
0.0203514
0.0194085
0.0165171
0.0163885
0.0192152
0.0201907
0.0201591
0.0191831
0.0162607
0.0161314
0.0189872
0.0199947
0.0199577
0.0189506
0.0160025
0.0158715
0.0187517
0.0197893
0.0197465
0.0187098
0.0157406
0.0156071
0.0185074
0.0195736
0.0195243
0.0184596
0.0154733
0.0153363
0.0182528
0.0193464
0.0192899
0.0181982
0.0151985
0.0150571
0.0179864
0.0191065
0.0190421
0.0179244
0.0149145
0.0147677
0.0177069
0.0188526
0.0187797
0.0176364
0.0146194
0.0144666
0.0174126
0.0185834
0.0185014
0.0173331
0.0143118
0.0141521
0.0171024
0.018298
0.0182061
0.0170129
0.01399
0.0138225
0.0167745
0.0179949
0.0178923
0.0166742
0.0136522
0.013476
0.0164273
0.0176726
0.0175583
0.016315
0.0132965
0.0131105
0.0160587
0.0173291
0.017202
0.0159332
0.0129206
0.0127235
0.0156664
0.0169625
0.0168215
0.0155262
0.0125217
0.0123118
0.0152474
0.0165704
0.0164137
0.0150907
0.0120962
0.0118713
0.014798
0.0161496
0.0159747
0.014622
0.0116392
0.0113965
0.0143129
0.0156952
0.0155006
0.0141152
0.0111452
0.0108812
0.0137869
0.0152037
0.0149862
0.0135636
0.0106064
0.0103165
0.0132123
0.0146689
0.0144248
0.0129586
0.010013
0.00969106
0.0125795
0.0140839
0.0138091
0.0122894
0.00935157
0.00898888
0.0118758
0.0134402
0.0131294
0.0115408
0.00860269
0.00818547
0.011083
0.0127273
0.0123731
0.0106898
0.00773496
0.00724038
0.0101722
0.0119303
0.0115232
0.00969981
0.00669544
0.00608287
0.00909693
0.0110313
0.0105644
0.00851349
0.00538762
0.00457393
0.00779043
0.0100259
0.00949074
0.00699367
0.00359833
0.00244655
0.00649513
0.00923956
0.0084685
0.00508503
0.00203779
0.0025143
0.00283946
0.00663047
0.0042043
0.002496
0.00301723
0.00342388
0.00310247
0.00239425
0.00205388
0.0031902
0.00356194
0.0035595
0.00335524
0.00202926
0.00280038
0.00362654
0.00321531
0.00239995
0.00334571
0.00306662
0.0025494
0.00245928
0.00144847
0.00104155
0.00227906
0.00275748
0.00305168
0.00233227
0.000935894
0.00124151
0.00267472
0.00330919
0.00392194
0.00318072
0.00167222
0.00194458
0.00329128
0.00383682
0.00404222
0.00350721
0.00220159
0.00224474
0.00336952
0.00373078
0.00377817
0.00339191
0.00224871
0.00219121
0.00344208
0.00390801
0.00375006
0.00329646
0.00199419
0.00180678
0.00315237
0.00362901
0.00347739
0.00300347
0.0016546
0.0016834
0.00310307
0.00364445
0.00384618
0.00327802
0.00182616
0.00200974
0.00349014
0.00405198
0.004237
0.00368773
0.00222108
0.00244372
0.00390906
0.00442082
0.00457424
0.00409543
0.00267119
0.00289224
0.00429572
0.00472471
0.00483665
0.00444746
0.00310409
0.00329891
0.00460858
0.00494518
0.00500798
0.00471214
0.00347626
0.00363029
0.00482377
0.00506892
0.0050775
0.00487138
0.00376106
0.00386543
0.00492792
0.00508659
0.00503922
0.00491713
0.00394416
0.00399345
0.0049124
0.00498912
0.00497465
0.00487393
0.00401362
0.00401515
0.00483208
0.00496053
0.00494941
0.00481364
0.00400332
0.00395638
0.00472263
0.00487634
0.00480034
0.00463266
0.00386824
0.00374433
0.00447055
0.00465865
0.00449892
0.00428213
0.00355274
0.00334845
0.00403735
0.0042723
0.00399628
0.00370588
0.00301239
0.00276398
0.00341454
0.00368291
0.00327823
0.0029383
0.00229302
0.00209642
0.00266032
0.00293958
0.00258752
0.00220165
0.00159494
0.00137371
0.00195865
0.00233464
0.00178336
0.00137063
0.000816637
0.000372891
0.000795744
0.00118657
0.000957751
0.00149763
0.00183249
0.00232464
0.00261627
0.00302165
0.0032918
0.00354814
0.00370585
0.00379958
0.0038061
0.0038137
0.00375372
0.0036255
0.00343877
0.0031394
0.00280407
0.00227006
0.00165778
0.00115568
0.0007704
0.000943606
0.00132485
0.00105167
0.00225823
0.00170666
0.000858227
0.00117873
0.00208049
0.00275389
0.00407657
0.00321152
0.00185468
0.0011979
0.00236702
0.00274732
0.00224817
0.00222429
0.00121548
0.00106181
0.0020925
0.00217183
0.00245398
0.00226288
0.00106625
0.00090886
0.00196954
0.0020466
0.00200995
0.00207364
0.00113839
0.00148895
0.00263664
0.00221084
0.00167311
0.00258214
0.00180161
0.00178614
0.00247596
0.00140934
0.00163614
0.00270113
0.00181034
0.0014611
0.00232172
0.00204707
0.00392519
0.0017424
0.00125801
0.000978905
0.00165813
0.00537233
0.00658724
0.00286639
0.000780727
0.000421506
0.00409751
0.00752306
0.00861554
0.00530871
0.000562755
0.00118205
0.00606005
0.00902387
0.00990869
0.00705087
0.00188386
0.00247047
0.00757191
0.0101073
0.0107519
0.00843656
0.00339881
0.00365428
0.00877099
0.0109069
0.0116769
0.00953745
0.00426614
0.00496706
0.00983232
0.011534
0.0122172
0.0105232
0.00559547
0.00582102
0.0106553
0.0121805
0.0129201
0.011354
0.00643008
0.00690724
0.0114611
0.0127263
0.013481
0.0121871
0.00757661
0.00830554
0.0123114
0.0131304
0.0138555
0.0130423
0.00915433
0.00957749
0.0130641
0.0135736
0.0141582
0.0135023
0.0101847
0.0104706
0.0132817
0.0135849
0.0139166
0.0134763
0.0107921
0.0110678
0.0131913
0.0132269
0.0134142
0.0132038
0.0112138
0.0113591
0.0128833
0.0127714
0.012579
0.0126048
0.0112346
0.0111115
0.0119148
0.0115188
0.00890771
0.0101614
0.0104312
0.0146191
0.0230107
0.0299192
0.0185379
0.0142175
0.00967525
0.00917923
0.0101139
0.0100875
0.00865122
0.00845589
0.00776408
0.00704037
0.00776233
0.00814121
0.00689698
0.00621399
0.00539159
0.00534627
0.00795033
0.00970728
0.0057698
0.00443163
0.00246432
0.00533243
0.00915043
0.0115689
0.0180192
0.0152566
0.0109967
0.0152317
0.0195002
0.0238779
0.0584533
0.0466269
0.0311621
0.0446783
0.0559796
0.0599927
0.0448484
0.0488741
0.0489847
0.0663523
0.0838989
0.107643
0.210501
0.177264
0.127265
0.107736
0.0977617
0.0936175
0.070762
0.0893958
0.106794
0.133004
0.202454
0.245981
0.194689
0.151294
0.103701
0.087041
0.106678
0.11262
0.117952
0.109418
0.0853749
0.0801359
0.126452
0.168416
0.149415
0.113926
0.0739531
0.0681876
0.101132
0.127897
0.128354
0.100046
0.0665842
0.0614773
0.0900085
0.11277
0.121123
0.0945733
0.0624207
0.053598
0.0682836
0.0756924
0.120567
0.0892782
0.0580488
0.0586344
0.0916181
0.123014
0.0966501
0.0776289
0.0541049
0.0573966
0.0868315
0.111056
0.0673834
0.0616692
0.0495182
0.0543162
0.0829581
0.111731
0.114679
0.0865667
0.0561163
0.0516108
0.0752522
0.094769
0.104718
0.0822071
0.05535
0.0522507
0.0739815
0.0912007
0.104254
0.08309
0.0563954
0.0492598
0.0608905
0.0662787
0.109624
0.0821805
0.0549163
0.0561515
0.0853268
0.11254
0.094311
0.0758931
0.0531457
0.0565949
0.0821591
0.102734
0.0951244
0.0767798
0.0538475
0.0572663
0.0822728
0.102199
0.0956018
0.0775402
0.0549337
0.0582512
0.083457
0.103503
0.0932228
0.076314
0.0552314
0.059668
0.0851969
0.105442
0.0682027
0.0632216
0.0522055
0.0586107
0.0865827
0.114571
0.116169
0.0895328
0.0600722
0.056846
0.0803734
0.0995746
0.107047
0.0866977
0.0612424
0.0583614
0.0827537
0.102119
0.106742
0.0872496
0.0618701
0.0601241
0.0844924
0.103978
0.108916
0.0885723
0.0629934
0.0617796
0.0864292
0.105956
0.110148
0.0896324
0.0638442
0.0637285
0.0885841
0.108358
0.111968
0.0914255
0.0653309
0.0646606
0.0899885
0.109936
0.113252
0.0928567
0.0662344
0.0668209
0.0923634
0.112617
0.115098
0.0936373
0.0674889
0.0676415
0.0935778
0.1143
0.116706
0.0954612
0.0686318
0.0698228
0.0962227
0.117203
0.118604
0.096637
0.0698812
0.0708713
0.097933
0.119077
0.120383
0.0989945
0.071238
0.072782
0.100206
0.121918
0.123145
0.100471
0.0726923
0.0736678
0.101938
0.124109
0.124369
0.101976
0.0734309
0.0756071
0.105145
0.128572
0.125321
0.10245
0.0740616
0.0786649
0.11317
0.143552
0.150049
0.113428
0.0766712
0.0707138
0.0838626
0.0891042
0.134848
0.111097
0.0803454
0.0776413
0.104598
0.12588
0.135533
0.111453
0.0811107
0.0797411
0.109345
0.132745
0.137459
0.113589
0.0832983
0.0817032
0.111447
0.13591
0.140017
0.115522
0.0846322
0.083168
0.113817
0.138132
0.142321
0.117117
0.0855696
0.0847345
0.114971
0.139681
0.148019
0.121159
0.0876989
0.0862548
0.117171
0.142025
0.164848
0.129478
0.09
0.0901558
0.130359
0.169574
0.100011
0.0952017
0.080809
0.0923198
0.127186
0.154073
0.14416
0.120138
0.0891947
0.0938259
0.128062
0.155222
0.151193
0.125014
0.0919838
0.0955261
0.130234
0.157611
0.153642
0.127989
0.0944989
0.0973985
0.133713
0.162905
0.155968
0.129281
0.0958582
0.100588
0.144141
0.182428
0.185777
0.144197
0.100253
0.0894658
0.104748
0.109913
0.170431
0.141104
0.102908
0.0981503
0.1307
0.155712
0.171263
0.141261
0.103789
0.100571
0.13547
0.163867
0.173203
0.143034
0.105093
0.102726
0.138777
0.167527
0.178592
0.146645
0.1066
0.104334
0.140533
0.170029
0.200141
0.157669
0.110168
0.109459
0.157852
0.204831
0.119496
0.113899
0.0979687
0.111837
0.153315
0.185559
0.172533
0.144084
0.108116
0.113044
0.154084
0.187122
0.180519
0.149271
0.110904
0.115363
0.15811
0.192403
0.183477
0.152457
0.113528
0.119265
0.169749
0.214876
0.218896
0.168499
0.117632
0.106514
0.123491
0.128892
0.201073
0.166928
0.122188
0.116168
0.153961
0.18376
0.201976
0.167498
0.123389
0.119791
0.161354
0.193493
0.2039
0.168758
0.124895
0.122242
0.163755
0.197908
0.210041
0.173061
0.126524
0.124603
0.167486
0.2017
0.235146
0.186277
0.130788
0.129982
0.186098
0.240427
0.142538
0.135588
0.116698
0.13358
0.181868
0.218805
0.200988
0.169333
0.127937
0.134949
0.182844
0.220535
0.212423
0.176412
0.131253
0.136718
0.184568
0.222463
0.215439
0.179259
0.133986
0.138671
0.189467
0.229622
0.219138
0.183223
0.136237
0.143317
0.203335
0.257104
0.26248
0.202248
0.14247
0.127646
0.14738
0.154575
0.239398
0.198527
0.146207
0.140213
0.184741
0.220334
0.240136
0.199173
0.147468
0.143974
0.192932
0.232516
0.243584
0.201947
0.149993
0.147767
0.19733
0.238286
0.249836
0.206152
0.151476
0.149793
0.201086
0.242029
0.280258
0.221957
0.157071
0.157121
0.223326
0.288987
0.172867
0.165343
0.142408
0.161619
0.21841
0.261934
0.243761
0.204904
0.155689
0.163088
0.219023
0.263446
0.258747
0.214796
0.160124
0.167061
0.223095
0.266988
0.264819
0.220875
0.165189
0.171322
0.228458
0.273061
0.271466
0.225045
0.167956
0.172403
0.230694
0.276373
0.276614
0.229973
0.170798
0.17505
0.234346
0.28164
0.284056
0.235934
0.176078
0.179241
0.240367
0.288352
0.290734
0.241195
0.179736
0.180593
0.242831
0.291969
0.295598
0.245824
0.182242
0.184255
0.248218
0.298667
0.301053
0.250797
0.186783
0.190667
0.258736
0.312261
0.307303
0.255184
0.189647
0.197193
0.276992
0.348022
0.364559
0.283585
0.200453
0.180001
0.20991
0.219861
0.323346
0.270434
0.20134
0.201855
0.266578
0.316949
0.313283
0.264913
0.202212
0.210491
0.284025
0.340418
0.227284
0.218078
0.190481
0.214191
0.3013
0.390047
0.396312
0.316374
0.226273
0.218446
0.287989
0.342169
0.36712
0.302826
0.224116
0.22003
0.291266
0.347543
0.369593
0.307245
0.228148
0.229007
0.303224
0.361253
0.383305
0.318182
0.23736
0.232175
0.307143
0.366819
0.393928
0.327086
0.243971
0.23689
0.313146
0.373336
0.409052
0.342569
0.256438
0.245868
0.317716
0.371884
0.425803
0.354867
0.263053
0.228879
0.257821
0.265528
0.473463
0.372106
0.269957
0.280945
0.39445
0.500593
0.406127
0.344504
0.265582
0.284659
0.388538
0.473432
0.39788
0.342131
0.270458
0.300285
0.407022
0.489214
0.28732
0.283323
0.25639
0.287315
0.390131
0.493698
0.579953
0.459746
0.3227
0.268367
0.285439
0.280511
0.499413
0.396431
0.295666
0.340745
0.487682
0.620475
0.245811
0.263056
0.263736
0.280312
0.317528
0.341923
0.522974
0.417067
0.312095
0.345547
0.504211
0.650028
0.230556
0.247572
0.254554
0.237586
0.257024
0.262612
0.234505
0.22854
0.207593
0.183049
0.208152
0.213917
0.191473
0.185211
0.156882
0.141349
0.173469
0.183431
0.169267
0.159004
0.126918
0.11743
0.151753
0.164725
0.153594
0.141459
0.108469
0.102
0.136766
0.15129
0.1424
0.128488
0.095465
0.0910523
0.125509
0.141554
0.134031
0.118743
0.0859294
0.0826676
0.116433
0.133627
0.126747
0.110473
0.0784278
0.0758592
0.108791
0.12669
0.120256
0.103452
0.0722784
0.070282
0.102118
0.120338
0.114358
0.097344
0.0672909
0.0658141
0.0965331
0.11475
0.109179
0.0922735
0.0633383
0.0623054
0.0917554
0.109753
0.104591
0.0879436
0.0602755
0.0596246
0.0878366
0.105459
0.100624
0.0843996
0.0579607
0.0576136
0.0844793
0.101629
0.0971119
0.081369
0.0562543
0.0561649
0.0817461
0.0983689
0.0941253
0.0790677
0.0552771
0.0552141
0.0794032
0.0954852
0.0918185
0.0774205
0.0547041
0.054648
0.077598
0.0930915
0.0901953
0.0760752
0.0543794
0.0543287
0.0760959
0.0910742
0.0889912
0.0751274
0.0542502
0.0542047
0.0750129
0.0895082
0.0879859
0.0743479
0.0542593
0.0542167
0.0741536
0.0882373
0.0873096
0.0738924
0.0543776
0.0543371
0.0736118
0.0872991
0.0867587
0.073547
0.0545838
0.0545455
0.0732307
0.0865867
0.0864696
0.0734615
0.0548555
0.0548189
0.0730792
0.0861041
0.0862395
0.0734292
0.0551913
0.0551564
0.0730284
0.0857749
0.0862118
0.0736008
0.055572
0.0555388
0.0731491
0.0856053
0.0861894
0.0737766
0.0559992
0.0559676
0.073321
0.0855342
0.0863253
0.0741122
0.0564533
0.0564232
0.0736182
0.0855713
0.0864294
0.0744138
0.0569369
0.0569084
0.07393
0.0856663
0.0866639
0.0748441
0.0574309
0.0574039
0.0743341
0.085834
0.0868413
0.0752139
0.0579394
0.0579141
0.0747254
0.0860305
0.087129
0.0756898
0.0584441
0.0584202
0.0751856
0.0862762
0.0873463
0.0760891
0.0589521
0.0589298
0.0756138
0.0865313
0.0876603
0.0765793
0.059446
0.0594251
0.0760974
0.0868233
0.0878994
0.0769846
0.0599358
0.0599163
0.0765339
0.0871076
0.0882244
0.0774717
0.060407
0.0603887
0.0770206
0.0874249
0.0884743
0.0778691
0.0608692
0.0608522
0.0774466
0.0877224
0.0888007
0.078339
0.0613101
0.0612941
0.0779247
0.0880537
0.0890444
0.0787124
0.0617358
0.061721
0.0783268
0.08835
0.0893622
0.0791539
0.0621398
0.062126
0.0787771
0.0886765
0.0895944
0.0794946
0.0625262
0.0625135
0.0791521
0.0889659
0.0899416
0.0799068
0.0628877
0.0628757
0.079571
0.089321
0.0901237
0.0802146
0.0632316
0.0632207
0.0799107
0.0895586
0.0904094
0.0805908
0.063553
0.0635428
0.080294
0.0898561
0.0906136
0.0808655
0.0638578
0.0638485
0.0805984
0.0901102
0.0908844
0.0812087
0.0641396
0.0641308
0.0809494
0.0903925
0.0910741
0.0814525
0.0644049
0.064397
0.0812207
0.0906279
0.0913303
0.0817671
0.0646495
0.0646419
0.0815415
0.0908931
0.0915069
0.0819847
0.0648802
0.0648734
0.0817834
0.0911107
0.0917493
0.0822744
0.0650928
0.0650862
0.0820775
0.0913597
0.0919132
0.0824687
0.0652941
0.0652882
0.0822933
0.0915601
0.0921426
0.0827364
0.0654798
0.0654741
0.0825638
0.0917941
0.0922953
0.0829096
0.0656561
0.0656511
0.0827563
0.0919801
0.0925138
0.0831577
0.0658191
0.0658142
0.0830058
0.0922015
0.0926548
0.0833126
0.0659749
0.0659705
0.0831775
0.092372
0.0928604
0.0835427
0.066119
0.0661148
0.0834081
0.0925792
0.092989
0.0836808
0.0662569
0.0662532
0.0835615
0.0927338
0.0931825
0.0838959
0.0663851
0.0663815
0.083776
0.0929272
0.0933
0.0840199
0.0665087
0.0665056
0.0839133
0.0930684
0.0934826
0.0842214
0.0666245
0.0666215
0.0841125
0.0932497
0.0935903
0.0843324
0.066738
0.0667353
0.0842345
0.0933787
0.0937617
0.0845196
0.0668432
0.0668406
0.0844206
0.0935492
0.0938599
0.084618
0.0669462
0.066944
0.0845295
0.093667
0.0940222
0.0847939
0.0670419
0.0670398
0.0847036
0.0938275
0.0941122
0.0848819
0.0671363
0.0671345
0.084801
0.0939354
0.0942664
0.0850478
0.0672241
0.0672224
0.0849649
0.094087
0.0943487
0.0851264
0.0673111
0.0673097
0.0850522
0.094186
0.0944952
0.0852833
0.067392
0.0673906
0.085207
0.0943297
0.0945704
0.0853532
0.0674724
0.0674713
0.0852851
0.0944204
0.0947098
0.085502
0.0675471
0.067546
0.0854316
0.0945567
0.0947784
0.0855641
0.0676217
0.0676208
0.0855014
0.0946399
0.0949113
0.0857055
0.0676909
0.0676901
0.0856403
0.0947692
0.094974
0.0857607
0.0677604
0.0677597
0.0857026
0.0948454
0.0951014
0.0858956
0.067825
0.0678243
0.0858349
0.0949688
0.0951586
0.0859446
0.06789
0.0678895
0.0858906
0.0950388
0.0952807
0.0860738
0.0679505
0.06795
0.086017
0.0951567
0.0953329
0.0861171
0.0680115
0.0680112
0.0860667
0.0952211
0.0954501
0.0862409
0.0680683
0.0680679
0.0861878
0.0953338
0.0954977
0.0862792
0.0681258
0.0681256
0.086232
0.095393
0.0956106
0.0863983
0.0681793
0.0681791
0.0863483
0.0955011
0.095654
0.086432
0.0682338
0.0682337
0.0863877
0.0955556
0.0957632
0.0865471
0.0682845
0.0682845
0.0864997
0.0956596
0.0958027
0.0865767
0.0683364
0.0683365
0.0865348
0.0957099
0.0959083
0.086688
0.0683846
0.0683847
0.086643
0.0958102
0.0959445
0.0867139
0.068434
0.0684342
0.0866743
0.0958567
0.0960472
0.0868221
0.0684802
0.0684804
0.086779
0.0959535
0.0960807
0.0868452
0.0685279
0.0685283
0.0868071
0.0959967
0.0961816
0.0869513
0.068573
0.0685733
0.0869094
0.0960909
0.0962139
0.0869729
0.0686201
0.0686205
0.0869354
0.0961317
0.0963141
0.0870782
0.068665
0.0686655
0.0870365
0.0962246
0.0963462
0.0870994
0.0687126
0.0687133
0.0870617
0.0962644
0.0964468
0.087205
0.0687586
0.0687593
0.0871629
0.096357
0.0964792
0.0872266
0.0688074
0.0688082
0.0871885
0.0963971
0.0965799
0.0873325
0.0688544
0.0688552
0.0872903
0.0964904
0.0966113
0.0873534
0.0689034
0.0689043
0.087316
0.0965309
0.0967097
0.0874573
0.0689493
0.0689502
0.0874171
0.0966241
0.0967365
0.087474
0.0689952
0.0689963
0.0874406
0.0966634
0.0968284
0.0875715
0.0690356
0.0690365
0.0875374
0.0967509
0.0968799
0.0876247
0.0690739
0.0690749
0.0875547
0.0967533
0.096935
0.0876574
0.0691561
0.069121
0.0875665
0.0968191
0.0968629
0.0875268
0.0689951
0.0688228
0.0872093
0.0963814
0.0967992
0.0873981
0.0688761
0.0678192
0.086114
0.0952054
0.0968823
0.0876979
0.0690343
0.0669105
0.0848174
0.0939285
0.10069
0.0920498
0.0730634
0.0710104
0.0909205
0.101853
0.122855
0.110059
0.0857421
0.0860375
0.115034
0.134661
0.138435
0.12241
0.0949421
0.154103
0.168905
0.190126
0.239078
0.160411
0.117336
0.10744
0.129582
0.0915125
0.0626902
0.0506324
0.0450068
0.0427736
0.0415318
0.0411879
0.0409949
0.0410271
0.041057
0.0411038
0.041139
0.0411673
0.0411932
0.0412463
0.0412743
0.0415245
0.0416452
0.0420517
0.0424806
0.0424774
0.0435434
0.043031
0.0416751
0.0384453
0.0382221
0.0335738
0.034795
0.0328247
0.0341938
0.0339512
0.034652
0.0347271
0.0349143
0.0349286
0.0349511
0.0349464
0.0349431
0.0349397
0.0349346
0.0349264
0.0349154
0.034902
0.0348868
0.0348701
0.0348515
0.0348306
0.0348073
0.0347811
0.0347519
0.0347191
0.0346818
0.0346401
0.0345931
0.0345399
0.03448
0.0344128
0.0343373
0.0342526
0.0341577
0.0340517
0.0339335
0.0338019
0.0336558
0.0334941
0.0333156
0.0331194
0.0329043
0.0326698
0.0324148
0.0321392
0.031843
0.0315261
0.0311889
0.0308324
0.0304577
0.0300658
0.0296588
0.0292384
0.0288061
0.0283647
0.0279158
0.0274617
0.0270044
0.0265459
0.0260881
0.0256325
0.0251808
0.0247346
0.024295
0.0238627
0.0234393
0.0230251
0.0226209
0.0222271
0.0218442
0.0214724
0.021112
0.020763
0.0204255
0.0200995
0.0197848
0.0194815
0.0191892
0.0189079
0.0186373
0.0183773
0.0181275
0.0178877
0.0176577
0.0174372
0.0172259
0.0170237
0.0168301
0.016645
0.0164681
0.0162992
0.016138
0.0159842
0.0158378
0.0156983
0.0155656
0.0154396
0.0153199
0.0152063
0.0150987
0.0149969
0.0149007
0.01481
0.0147245
0.0146442
0.0145689
0.0144985
0.0144328
0.0143719
0.0143154
0.0142636
0.0142161
0.0141719
0.0141237
0.0140826
0.0139721
0.0139181
0.01361
0.0136932
0.0131363
0.0139133
0.0134244
0.01528
0.0146303
0.0144922
0.0144817
0.0144798
0.0144378
0.0143545
0.0142662
0.014191
0.014135
0.0140928
0.0140559
0.0140203
0.0139842
0.0139448
0.0139021
0.0138568
0.0138087
0.0137579
0.0137045
0.0136486
0.0135903
0.0135296
0.0134668
0.0134019
0.0133354
0.0132667
0.0131961
0.0131242
0.013051
0.0129765
0.0129009
0.0128244
0.0127471
0.0126691
0.0125908
0.0125121
0.0124334
0.0123548
0.0122764
0.0121985
0.0121212
0.0120447
0.0119695
0.011895
0.0118216
0.0117499
0.0116797
0.0116116
0.0115452
0.0114831
0.0114229
0.0113674
0.0113239
0.0112937
0.0113003
0.0113709
0.0115202
0.0117443
0.0119111
0.0116839
0.0115663
0.0245108
0.0211263
0.0210003
0.0213849
0.0213926
0.0216507
0.0216139
0.0217142
0.0216205
0.0216801
0.0215614
0.0216071
0.0214809
0.0215185
0.0213865
0.0214177
0.0212802
0.021305
0.0211623
0.021181
0.0210333
0.0210459
0.0208933
0.0208999
0.0207426
0.0207432
0.0205811
0.0205754
0.0204084
0.0203961
0.0202237
0.0202042
0.020026
0.0199987
0.0198142
0.0197785
0.0195872
0.0195425
0.019344
0.0192897
0.0190835
0.0190191
0.0188048
0.0187293
0.0185062
0.0184189
0.0181862
0.0180861
0.017843
0.0177289
0.0174744
0.0173447
0.0170773
0.0169296
0.0166474
0.0164806
0.0161813
0.0159923
0.0156732
0.0154587
0.015117
0.0148733
0.0145051
0.0142277
0.0138283
0.0135111
0.0130743
0.0127101
0.0122299
0.0118153
0.0112981
0.0108576
0.0104235
0.00996194
0.00914816
0.00814311
0.00666671
0.00501679
0.00319363
0.00175148
0.00141905
0.00228449
0.00264108
0.00321523
0.00329701
0.00380286
0.00374762
0.00398785
0.00378575
0.00382141
0.00389888
0.00373512
0.00365468
0.00359932
0.00373608
0.0038819
0.0040426
0.00418348
0.00433482
0.0044579
0.00458974
0.00468502
0.004787
0.004844
0.00490755
0.00491866
0.00493663
0.00489729
0.00486636
0.00488579
0.00484828
0.0048188
0.00472368
0.00463192
0.0044706
0.00430656
0.00405961
0.00379663
0.00344225
0.00307529
0.00264831
0.00230649
0.00199121
0.00151852
0.00197586
0.00235728
0.00265935
0.00235841
0.00258825
0.00277837
0.00259988
0.00278978
0.00336994
0.0039231
0.00139926
0.00282546
0.00293783
0.00271968
0.00305294
0.00330714
0.00384084
0.00310924
0.00346707
0.00335133
0.00358508
0.00372067
0.00421561
0.00157754
0.00170661
0.00169116
0.00307484
0.00353795
0.00399989
0.00456022
0.00358905
0.00404341
0.00439461
0.00492657
0.00186708
0.00200043
0.00411862
0.00434383
0.00462293
0.00511385
0.00449627
0.00451076
0.00472897
0.00517632
0.00207051
0.00208683
0.00473517
0.00456147
0.00472773
0.0051283
0.00497313
0.00463589
0.00465008
0.00499007
0.0020567
0.00208574
0.00512026
0.00474245
0.00458684
0.00478181
0.0051501
0.00475157
0.00455486
0.00460723
0.00206922
0.0020043
0.00506518
0.00466211
0.00443179
0.0043641
0.00487468
0.0044872
0.00423123
0.00408317
0.0019028
0.00177823
0.00459759
0.00424272
0.00397
0.00379192
0.00424339
0.00394361
0.00365906
0.00351751
0.00164605
0.00147422
0.00380788
0.00360109
0.00332513
0.00325182
0.00324581
0.00332173
0.00348629
0.00333751
0.00108597
0.00107861
0.00307914
0.0036145
0.00354699
0.00284743
0.00274116
0.00348707
0.00381098
0.00232098
0.00205879
0.00335637
0.00201607
0.0035237
0.00363735
0.00248886
0.00232253
0.00265124
0.00220925
0.00548616
0.00443546
0.00522942
0.00506779
0.00168986
0.00360821
0.00858512
0.00722767
0.00483248
0.00652977
0.0111684
0.0058368
0.0062869
0.00889117
0.00750082
0.00919445
0.01336
0.0104274
0.00995117
0.011256
0.0149671
0.00664726
0.00695684
0.0117855
0.0114884
0.0123699
0.0158829
0.0128492
0.0122368
0.012961
0.0164664
0.00722128
0.00749946
0.0138765
0.0127903
0.0136106
0.0170648
0.0148803
0.0134333
0.0142892
0.0177042
0.00779271
0.00808732
0.0158047
0.01407
0.0149404
0.0183472
0.016643
0.0146723
0.0155497
0.0189703
0.00837332
0.00864446
0.0174025
0.015233
0.0161143
0.0195616
0.0180927
0.0157517
0.0166357
0.0201162
0.0088989
0.00913566
0.0187218
0.0162305
0.0171166
0.0206327
0.0192966
0.0166724
0.0175601
0.0211121
0.00935526
0.00955848
0.0198233
0.0170806
0.01797
0.0215563
0.0203171
0.0174697
0.0183518
0.0219685
0.00974709
0.00992211
0.0208245
0.0178829
0.0187049
0.0223528
0.0212918
0.018264
0.0190333
0.0227103
0.0100843
0.0102354
0.0217242
0.0186175
0.0193391
0.0230434
0.0221257
0.018946
0.0196239
0.0233537
0.0103761
0.0105067
0.0224986
0.0192515
0.019889
0.0236422
0.0228444
0.0195353
0.0201359
0.0239106
0.0106285
0.0107417
0.0231644
0.0197989
0.0203657
0.0241599
0.0234605
0.0200434
0.0205792
0.024391
0.0108458
0.0109421
0.0237339
0.0202701
0.0207772
0.0246045
0.0239862
0.0204799
0.0209607
0.0248014
0.0110307
0.0111119
0.0242188
0.0206741
0.0211306
0.0249827
0.0244332
0.0208539
0.0212878
0.0251495
0.0111862
0.0112538
0.024631
0.0210204
0.0214332
0.0253026
0.0248133
0.0211745
0.0215663
0.0254411
0.0113158
0.0113717
0.0249826
0.0213179
0.0216894
0.0255682
0.0251364
0.0214486
0.0218022
0.0256839
0.0114217
0.0114657
0.0252749
0.0215665
0.0219024
0.0257845
0.0254006
0.0216736
0.0219909
0.0258716
0.0115035
0.0115331
0.025512
0.0217684
0.0220672
0.0259437
0.0256085
0.0218508
0.0221299
0.0259983
0.0115538
0.0115528
0.0256889
0.0219181
0.02219
0.0260443
0.0257346
0.0219663
0.0221964
0.0260356
0.0115241
0.0114696
0.0256941
0.0219512
0.022127
0.0259529
0.0253484
0.0217101
0.0218314
0.0256231
0.0114313
0.0108721
0.0107002
0.0107654
0.010841
0.0108751
0.0108761
0.0108643
0.0108436
0.010817
0.0107852
0.0107482
0.0107059
0.0106588
0.010606
0.0105476
0.0104833
0.0104127
0.0103361
0.0102527
0.0101629
0.0100674
0.00996513
0.00985569
0.00973873
0.00961313
0.00947892
0.0093362
0.00918438
0.00902443
0.00885767
0.00868727
0.00851731
0.00835658
0.00821377
0.00809211
0.00797421
0.00782378
0.0076158
0.00734192
0.00695599
0.00641459
0.00566863
0.00470437
0.00352338
0.00226815
0.00125518
0.00102842
0.00133281
0.00151287
0.0016006
0.00161439
0.00155629
0.00145364
0.00158161
0.00167696
0.00173497
0.00174595
0.0015272
0.00160148
0.00162663
0.00332735
0.0037244
0.00374703
0.00384079
0.00385195
0.00426345
0.00371999
0.0037162
0.00385687
0.00380736
0.00371295
0.00402291
0.00163396
0.00139869
0.00135136
0.00164727
0.00412531
0.00380982
0.00387009
0.00389565
0.00382464
0.00378515
0.00451657
0.00401446
0.00388295
0.00378644
0.00391909
0.00345247
0.00173413
0.00168394
0.00153758
0.0010962
0.00122699
0.0010531
0.0014303
0.00130269
0.0011476
0.0006667
0.000867278
0.000590759
0.000842635
0.00136857
0.00117556
0.000955816
0.000341135
0.000161296
0.000461837
0.000968674
0.00112128
0.000661805
0.000806404
0.00122128
0.00123463
0.000908094
0.00168117
0.000974572
0.000501593
0.00121758
0.000837457
0.00151643
0.00161351
0.00177954
0.00188287
0.00193909
0.00194677
0.00184815
0.00471788
0.00401795
0.0036512
0.00337788
0.00375047
0.00358407
0.00449712
0.00359695
0.00299703
0.00234758
0.00291251
0.00319363
0.00170717
0.00205178
0.00421467
0.00506079
0.00343704
0.00316055
0.00244031
0.00168722
0.00061372
0.000612422
0.00135208
0.00113454
0.00217123
0.00187644
0.000879832
0.000648821
0.00169663
0.00159624
0.000385821
0.0015261
0.00249211
0.00146435
0.00111595
0.0017399
0.00135997
0.00102242
0.00367753
0.00334668
0.00326014
0.00404406
0.00451639
0.0050264
0.00580631
0.00449084
0.00218374
0.00233208
0.00240972
0.00239454
0.00584941
0.00645277
0.00554449
0.00633839
0.00508551
0.00612871
0.00567416
0.00524409
0.00992596
0.011836
0.00868959
0.0107135
0.00722934
0.00886857
0.00525276
0.00631144
0.00226004
0.000990836
0.00320585
0.00498193
0.00584193
0.00739495
0.0076886
0.00887134
0.00889488
0.0100495
0.0126992
0.0109894
0.0134251
0.0109389
0.00983409
0.0105506
0.0118619
0.00579562
0.00617536
0.0126242
0.0140217
0.011651
0.0111483
0.0122385
0.0145702
0.0132952
0.00620836
0.00652204
0.00645524
0.0066702
0.00638258
0.00597403
0.00231675
0.00231373
0.00182943
0.00230173
0.00175398
0.00255744
0.00363891
0.00267946
0.00144856
0.00115381
0.00123171
0.00250339
0.00368814
0.001986
0.00318799
0.00484063
0.00614032
0.00504216
0.00384747
0.00488582
0.00611009
0.00717892
0.00804832
0.00694441
0.0056087
0.00421515
0.00308842
0.00302061
0.00239168
0.00596681
0.00515701
0.00606138
0.00595203
0.00645049
0.00649126
0.0151409
0.0158679
0.0148202
0.015664
0.0144397
0.0153942
0.0139271
0.0150006
0.0127287
0.0117031
0.0122286
0.0131446
0.0126849
0.0134775
0.0130438
0.0137844
0.0133651
0.0138757
0.0157962
0.015131
0.0153525
0.0136023
0.0133613
0.0131288
0.0149225
0.00630776
0.00587444
0.0143459
0.0145527
0.0130548
0.012623
0.0121216
0.0133546
0.0127718
0.00548392
0.00476898
0.00455603
0.00658797
0.00611341
0.0052121
0.00481892
0.0105574
0.00860779
0.010482
0.0108545
0.00888386
0.0112075
0.00995401
0.00824002
0.00890686
0.0122378
0.00814675
0.00863241
0.00792649
0.00780878
0.0103739
0.00919088
0.00768417
0.00774389
0.00588447
0.00725122
0.00548971
0.00435369
0.00679318
0.00737555
0.00956378
0.0127577
0.00690233
0.0087355
0.00407638
0.00605596
0.00757148
0.00881636
0.00966743
0.00767938
0.00551185
0.00780925
0.0105201
0.00698412
0.0127491
0.012074
0.00972905
0.0100674
0.0186448
0.0167174
0.0205554
0.0242327
0.0295292
0.0269054
0.0129377
0.0165514
0.0159133
0.0336549
0.0344684
0.0357298
0.0353831
0.0274758
0.025276
0.0417938
0.0461523
0.0436224
0.0397621
0.0413394
0.0218857
0.0503152
0.046058
0.0492207
0.0603735
0.0733123
0.0633705
0.0606873
0.067629
0.027269
0.0319209